FOO
141312
    1MOL0     O    1  11.143   8.519   5.786  0.2093  0.2338  0.5755
    1MOL0     C    2  11.131   8.588   5.684  0.3874  0.7566  0.2980
    1MOL0     O    3  11.192   8.710   5.669  0.0368  0.8823  0.5108
    1MOL0     C    4  11.283   8.751   5.756  0.9523  0.3100 -0.1785
    1MOL0     C    5  11.418   8.744   5.712  0.6684 -0.3044  0.0673
    1MOL0     C    6  11.525   8.769   5.812  0.1119  0.0966  0.0056
    1MOL0     C    7  11.498   8.797   5.945  0.4702  1.0161  0.1057
    1MOL0     O    8  11.596   8.814   6.033 -0.3350 -0.2085 -0.7128
    1MOL0     C    9  11.717   8.735   6.022  0.0658  0.2583 -0.3030
    1MOL0     C   10  11.768   8.692   6.160  0.8277  0.3315  0.7635
    1MOL0     C   11  11.725   8.556   6.223  0.4945 -0.2921 -0.3932
    1MOL0     C   12  11.584   8.549   6.286  0.4441 -0.2450 -0.1908
    1MOL0     C   13  11.556   8.402   6.329 -1.2494 -0.0018  0.2960
    1MOL0     C   14  11.533   8.303   6.218 -0.8158 -0.1564  0.0668
    1MOL0     C   15  11.383   8.320   6.178  0.2018 -0.2947  0.0113
    1MOL0     C   16  11.324   8.208   6.101  0.7701  0.0677  0.1818
    1MOL0     N   17  11.399   8.194   5.973  0.6651 -0.5327 -0.6909
    1MOL0     C   18  11.417   8.287   5.874  0.3273 -0.8769  1.1970
    1MOL0     C   19  11.525   8.234   5.801  0.3559 -0.6792 -0.0704
    1MOL0     C   20  11.622   8.303   5.697 -0.4252 -0.4939  1.1777
    1MOL0     C   21  11.551   8.302   5.557 -0.0632  0.3567  0.8280
    1MOL0     C   22  11.488   8.431   5.504 -0.6570  0.4374 -1.1955
    1MOL0     C   23  11.404   8.407   5.373  0.0950  0.0981  0.0251
    1MOL0     O   24  11.346   8.519   5.316 -0.0494  0.4148  1.2908
    1MOL0     C   25  11.282   8.500   5.197 -0.0678 -0.2099  0.5534
    1MOL0     C   26  11.240   8.623   5.132 -0.4468 -0.8197 -0.6569
    1MOL0     C   27  11.151   8.622   5.039  0.1426  1.0633 -0.1573
    1MOL0     C   28  11.104   8.756   4.986  0.5258  0.1018  0.6480
    1MOL0     C   29  11.112   8.495   4.973  0.2559  0.2014 -0.1379
    1MOL0     C   30  11.017   8.478   4.866 -0.1826 -0.5990 -1.1235
    1MOL0     O   31  11.023   8.367   4.791 -0.3915 -0.4395 -0.1177
    1MOL0     C   32  10.939   8.383   4.681  0.2091 -0.2268  0.0168
    1MOL0     C   33  10.818   8.320   4.674 -1.3232 -0.0838 -0.8202
    1MOL0     C   34  10.733   8.337   4.566  0.2508  0.6830 -0.0319
    1MOL0     C   35  10.764   8.424   4.455  0.0353 -0.6302  0.9776
    1MOL0     O   36  10.672   8.447   4.356  0.3316 -0.0264 -0.0565
    1MOL0     C   37  10.695   8.564   4.278  0.2469  1.0470  0.5300
    1MOL0     C   38  10.578   8.599   4.187  0.3803  0.4084  0.2085
    1MOL0     C   39  10.492   8.484   4.138  0.6496  0.4230 -0.9840
    1MOL0     C   40  10.425   8.524   4.006  0.0566 -0.2088  0.3025
    1MOL0     C   41  10.317   8.422   3.954 -0.7639  0.2340  1.7974
    1MOL0     C   42  10.385   8.325   3.854 -0.0300 -0.9205  0.0290
    1MOL0     C   43  10.285   8.229   3.804 -0.6757  0.7282  0.1804
    1MOL0     C   44  10.363   8.131   3.710 -0.5151  0.9483  0.3989
    1MOL0    Cl   45  10.487   8.019   3.792  0.1771 -0.2908 -0.2588
    1MOL0     C   46  10.896   8.484   4.472  0.9554 -0.2520  0.9008
    1MOL0     C   47  10.981   8.459   4.577  0.4959  0.8335  0.4029
    1MOL0     O   48  10.939   8.569   4.852  0.2363 -0.5526 -0.0312
    1MOL0     C   49  11.172   8.375   5.019 -0.4645 -1.4695 -0.1651
    1MOL0     C   50  11.253   8.380   5.133  0.9656 -0.2403 -0.5930
    1MOL0     N   51  11.545   8.112   5.848 -0.6181  0.0968 -0.6481
    1MOL0     N   52  11.465   8.081   5.942 -0.4147 -0.8275 -0.5158
    1MOL0     C   53  11.363   8.806   5.983 -0.1675 -0.1342 -0.0517
    1MOL0     C   54  11.257   8.775   5.895 -0.3445 -1.0606 -0.0018
    1MOL0     C   55  11.032   8.541   5.579 -0.4547 -0.3461 -0.2247
    1MOL0     C   56  10.991   8.631   5.478 -0.0321 -0.2430 -0.2171
    1MOL0     C   57  10.899   8.593   5.385  0.2831  0.8034  0.4160
    1MOL0     C   58  10.837   8.462   5.380  0.5930 -0.6812 -2.4650
    1MOL0     O   59  10.761   8.422   5.279  0.4371 -0.4203 -0.2728
    1MOL0     C   60  10.763   8.488   5.150 -0.2390  0.2220 -0.3734
    1MOL0     C   61  10.624   8.470   5.083 -0.4041  0.2978  0.4081
    1MOL0     C   62  10.633   8.358   4.983  0.8481  0.4294 -0.1836
    1MOL0     C   63  10.664   8.218   5.043 -1.0226  0.6780 -0.3889
    1MOL0     C   64  10.651   8.113   4.941 -0.4727 -0.0698 -0.1533
    1MOL0     C   65  10.658   8.035   4.852  0.6521 -1.0756  0.2373
    1MOL0     C   66  10.891   8.373   5.472 -0.4972  0.0292 -0.4598
    1MOL0     C   67  10.979   8.408   5.573 -0.1760 -0.5976  0.1598
    1MOL0     C   68  11.020   8.295   5.668  0.2000  0.0162  0.2524
    1MOL0     H   69  11.462   8.728   5.614 -2.8112  1.0935 -1.9388
    1MOL0     H   70  11.624   8.754   5.770  0.4678 -0.3931  0.9873
    1MOL0     H   71  11.791   8.800   5.975 -0.9326  0.6974 -1.3239
    1MOL0     H   72  11.701   8.640   5.971  3.4412 -1.0876  0.8877
    1MOL0     H   73  11.870   8.672   6.126 -0.5426 -3.6840 -1.6699
    1MOL0     H   74  11.754   8.774   6.231 -0.9174  2.5662 -1.9519
    1MOL0     H   75  11.735   8.482   6.144 -1.4568 -0.1133 -0.8577
    1MOL0     H   76  11.804   8.530   6.295 -1.9466  0.3273  2.7732
    1MOL0     H   77  11.576   8.614   6.374 -3.7004  1.3866 -1.4995
    1MOL0     H   78  11.506   8.585   6.219 -1.6727 -2.4066  0.9570
    1MOL0     H   79  11.481   8.409   6.408 -1.4185  4.3337 -0.0061
    1MOL0     H   80  11.640   8.356   6.381 -2.1612 -0.1689  1.6564
    1MOL0     H   81  11.598   8.305   6.130 -0.2101  2.3317  0.5209
    1MOL0     H   82  11.532   8.211   6.277 -4.0618  0.9062  1.9218
    1MOL0     H   83  11.379   8.412   6.118  1.7486 -1.9369 -2.8542
    1MOL0     H   84  11.317   8.317   6.265 -0.6776 -0.7364 -0.6627
    1MOL0     H   85  11.321   8.122   6.169  1.6669  1.2426  1.7650
    1MOL0     H   86  11.221   8.231   6.074  0.5306  0.1616  1.1535
    1MOL0     H   87  11.386   8.391   5.877  0.7834 -0.7138  0.5251
    1MOL0     H   88  11.712   8.242   5.690 -0.7658 -0.8095 -1.1530
    1MOL0     H   89  11.670   8.396   5.730  3.5180 -1.2302 -1.8149
    1MOL0     H   90  11.627   8.277   5.483  0.8423  1.7767  1.2285
    1MOL0     H   91  11.482   8.217   5.565  0.7163 -0.2125  1.6512
    1MOL0     H   92  11.425   8.461   5.588  1.8776  2.2809  0.1577
    1MOL0     H   93  11.556   8.514   5.484  0.1501  0.5425  1.5537
    1MOL0     H   94  11.466   8.347   5.306 -1.4207 -1.1466 -0.3151
    1MOL0     H   95  11.325   8.340   5.408  2.5759 -3.2449 -0.2771
    1MOL0     H   96  11.278   8.714   5.176  0.2050 -1.7425  0.7738
    1MOL0     H   97  10.997   8.777   4.998  0.0050 -1.6902 -0.5185
    1MOL0     H   98  11.111   8.762   4.877 -1.3537  0.6899  0.5194
    1MOL0     H   99  11.161   8.834   5.039  0.3474  1.4449 -1.0293
    1MOL0     H  100  10.790   8.245   4.748  3.3196  0.5103  1.9784
    1MOL0     H  101  10.643   8.277   4.557 -0.5979  1.4953  2.3574
    1MOL0     H  102  10.721   8.652   4.338  2.7059  1.4055 -0.8963
    1MOL0     H  103  10.787   8.546   4.220 -1.2247 -0.3117 -1.5243
    1MOL0     H  104  10.506   8.662   4.240  2.0740  2.7627 -0.1342
    1MOL0     H  105  10.615   8.660   4.105  0.7578  1.2737  1.0043
    1MOL0     H  106  10.407   8.457   4.202  4.3355 -2.7075  3.2802
    1MOL0     H  107  10.555   8.395   4.128 -0.8555 -0.5198 -2.7388
    1MOL0     H  108  10.498   8.539   3.926 -1.6604  1.3364 -1.0562
    1MOL0     H  109  10.372   8.618   4.023 -2.2224 -1.5771  1.2621
    1MOL0     H  110  10.272   8.379   4.044  0.3354 -0.4259  2.0538
    1MOL0     H  111  10.236   8.475   3.904  0.1465  1.9045  2.0201
    1MOL0     H  112  10.467   8.269   3.900  0.6693  0.5507  0.6219
    1MOL0     H  113  10.445   8.373   3.776  0.2789 -0.2519  0.6728
    1MOL0     H  114  10.206   8.283   3.750 -2.6513 -1.1236  1.0544
    1MOL0     H  115  10.233   8.176   3.884  0.9754 -0.5602  0.4518
    1MOL0     H  116  10.418   8.185   3.633  1.2708  1.8692  2.2338
    1MOL0     H  117  10.289   8.065   3.663 -2.6771  1.8114  2.3900
    1MOL0     H  118  10.927   8.548   4.390  0.6232 -2.0764 -0.7087
    1MOL0     H  119  11.078   8.508   4.573  0.7419  0.2411 -1.0989
    1MOL0     H  120  11.150   8.271   4.995  0.8673 -2.8462  3.8493
    1MOL0     H  121  11.288   8.281   5.161  0.0055 -1.4172 -3.1750
    1MOL0     H  122  11.334   8.818   6.087  1.1531  1.1598  0.2027
    1MOL0     H  123  11.154   8.783   5.925 -1.4207 -0.2355 -3.4244
    1MOL0     H  124  11.039   8.728   5.481 -0.3881  0.0473 -2.3744
    1MOL0     H  125  10.861   8.670   5.318  0.5585  1.6630  1.2260
    1MOL0     H  126  10.793   8.593   5.141 -3.5636  1.0836 -4.2574
    1MOL0     H  127  10.848   8.442   5.098 -2.5266 -2.5326 -1.9570
    1MOL0     H  128  10.592   8.555   5.022  1.8915  0.5697 -0.5004
    1MOL0     H  129  10.541   8.454   5.153 -1.8465  1.0301 -1.0510
    1MOL0     H  130  10.555   8.360   4.906  0.5955  0.5711  0.0725
    1MOL0     H  131  10.722   8.383   4.926  1.4484 -0.6936  0.2277
    1MOL0     H  132  10.595   8.188   5.122  0.6660  0.6389  1.1555
    1MOL0     H  133  10.767   8.232   5.078 -0.2846 -1.3408 -1.6067
    1MOL0     H  134  10.647   7.963   4.774  0.4961  0.6332 -1.3785
    1MOL0     H  135  10.864   8.268   5.463  5.9855 -2.0500 -0.9830
    1MOL0     H  136  11.128   8.294   5.679  0.0314 -1.7087  2.3148
    1MOL0     H  137  10.982   8.321   5.767  2.7709 -1.5136  1.7368
    1MOL0     H  138  10.994   8.198   5.626  0.0252  1.0610 -2.2290
    2MOL0     O  139   3.593   8.626   0.586  0.9238  0.0690 -0.5161
    2MOL0     C  140   3.564   8.746   0.572 -0.6053  0.2806 -1.1228
    2MOL0     O  141   3.445   8.791   0.538 -0.8549  0.1143 -0.4967
    2MOL0     C  142   3.331   8.712   0.518 -0.5291  0.8247  0.3192
    2MOL0     C  143   3.212   8.739   0.567  0.2187  0.2180 -0.5446
    2MOL0     C  144   3.109   8.655   0.528  0.8615  0.7081  0.2262
    2MOL0     C  145   3.119   8.539   0.446  0.8614 -0.1080  0.0832
    2MOL0     O  146   3.022   8.446   0.406  0.4540 -0.7485 -0.6116
    2MOL0     C  147   2.875   8.466   0.421  0.9917 -0.3179 -0.5511
    2MOL0     C  148   2.819   8.568   0.319  0.3298  0.6078 -0.8464
    2MOL0     C  149   2.668   8.589   0.345 -0.8927 -0.3873 -0.4060
    2MOL0     C  150   2.608   8.684   0.250  0.6512  0.1086  0.4611
    2MOL0     C  151   2.655   8.832   0.242  0.3715 -0.3800  0.4215
    2MOL0     C  152   2.579   8.895   0.119 -0.1542 -0.9913 -0.2974
    2MOL0     C  153   2.437   8.940   0.151  0.3686 -0.2010 -0.3219
    2MOL0     C  154   2.357   8.981   0.025  0.2170  0.6439  0.7427
    2MOL0     N  155   2.413   9.091  -0.041  0.8470  0.0543 -0.7009
    2MOL0     C  156   2.344   9.210  -0.039 -0.6009  0.5943  0.4680
    2MOL0     C  157   2.397   9.283  -0.136 -0.3095  0.6856 -0.0400
    2MOL0     C  158   2.347   9.414  -0.184 -0.3533 -0.0535 -0.0733
    2MOL0     C  159   2.352   9.423  -0.332 -0.0484 -0.6571  0.0304
    2MOL0     C  160   2.260   9.540  -0.361  0.9789  0.5791 -0.6648
    2MOL0     C  161   2.284   9.594  -0.497 -0.8841 -0.6603 -0.1683
    2MOL0     O  162   2.213   9.726  -0.505  0.0900  0.2224  0.0682
    2MOL0     C  163   2.178   9.768  -0.624 -0.1801  0.0985 -0.4374
    2MOL0     C  164   2.054   9.823  -0.645  0.2833  0.3024 -0.0760
    2MOL0     C  165   2.011   9.877  -0.769  0.7109 -0.5087  0.1669
    2MOL0     C  166   1.871   9.941  -0.776 -0.2254  0.1192  0.5151
    2MOL0     C  167   2.084   9.850  -0.889  0.8405  0.1878 -0.2012
    2MOL0     C  168   2.051   9.869  -1.025  0.0964 -0.1075  0.1738
    2MOL0     O  169   2.109   9.777  -1.112  0.1244 -0.3776  0.6226
    2MOL0     C  170   2.129   9.806  -1.244 -0.0952  0.7343  0.3669
    2MOL0     C  171   2.027   9.819  -1.331 -0.5241  0.3114  0.0806
    2MOL0     C  172   2.045   9.821  -1.470 -0.6239  0.4037  0.6467
    2MOL0     C  173   2.166   9.828  -1.532 -0.2818 -0.0524  0.0479
    2MOL0     O  174   2.170   9.833  -1.669 -0.4421  0.0297 -0.1311
    2MOL0     C  175   2.306   9.835  -1.726 -0.0235  0.6258 -0.0375
    2MOL0     C  176   2.306   9.832  -1.876 -0.4285  1.0304  0.8345
    2MOL0     C  177   2.206   9.722  -1.938 -0.5830 -0.0126  0.5217
    2MOL0     C  178   2.193   9.740  -2.089 -0.2603 -0.0138  0.7424
    2MOL0     C  179   2.130   9.616  -2.149  0.0836  0.0517  0.5132
    2MOL0     C  180   2.215   9.495  -2.144 -0.2038 -0.0265 -0.1559
    2MOL0     C  181   2.178   9.378  -2.235 -0.0744 -0.5048  0.1495
    2MOL0     C  182   2.281   9.273  -2.219  0.4425  1.5912  0.2493
    2MOL0    Cl  183   2.453   9.325  -2.269 -0.3981  0.0128 -0.3481
    2MOL0     C  184   2.278   9.807  -1.452 -0.7620  0.3005  1.0813
    2MOL0     C  185   2.266   9.801  -1.308 -0.5229 -0.4982  0.0748
    2MOL0     O  186   1.982   9.965  -1.058  0.6150  0.5698 -0.7722
    2MOL0     C  187   2.210   9.791  -0.871 -0.2295  0.3761  0.2140
    2MOL0     C  188   2.252   9.753  -0.743 -0.6664 -0.5259 -0.3459
    2MOL0     N  189   2.501   9.210  -0.186 -0.2498  0.0266 -0.4206
    2MOL0     N  190   2.512   9.097  -0.128  0.6605 -0.4516 -0.5353
    2MOL0     C  191   3.242   8.502   0.414  0.0253 -0.6375 -0.4121
    2MOL0     C  192   3.350   8.589   0.446  0.1469 -0.1834  0.7006
    2MOL0     C  193   3.657   8.843   0.630 -1.6488  0.0095 -0.0527
    2MOL0     C  194   3.646   8.891   0.766 -0.1584  0.5538 -0.1750
    2MOL0     C  195   3.731   8.995   0.809  0.0966  0.2329  0.2993
    2MOL0     C  196   3.825   9.046   0.722  0.2703 -0.5283  0.9158
    2MOL0     O  197   3.907   9.152   0.747  0.1811 -0.3903  0.2245
    2MOL0     C  198   3.870   9.251   0.843  0.8434  0.2198  0.9066
    2MOL0     C  199   3.969   9.370   0.835  0.4961  0.5611  0.5771
    2MOL0     C  200   4.117   9.328   0.882  0.0083 -0.0319  1.6376
    2MOL0     C  201   4.200   9.441   0.942 -0.7721  0.5654 -0.4496
    2MOL0     C  202   4.153   9.495   1.068 -0.1161 -0.6316  0.4307
    2MOL0     C  203   4.114   9.526   1.176 -0.0945 -0.3086  0.8338
    2MOL0     C  204   3.843   8.998   0.595  0.2168  1.2250  0.8401
    2MOL0     C  205   3.763   8.893   0.547  0.0042 -0.8873 -0.5197
    2MOL0     C  206   3.798   8.852   0.406 -0.0799 -0.3575  0.1127
    2MOL0     H  207   3.189   8.807   0.648 -3.2530 -1.9425  0.5243
    2MOL0     H  208   3.014   8.690   0.566  0.3204  1.1254 -1.4298
    2MOL0     H  209   2.860   8.499   0.524 -4.2980 -4.2038  0.2979
    2MOL0     H  210   2.817   8.375   0.408 -1.4094  0.7603  1.6974
    2MOL0     H  211   2.858   8.669   0.332 -1.2630  1.0569  0.8366
    2MOL0     H  212   2.839   8.544   0.214 -0.9111  3.9303 -1.9550
    2MOL0     H  213   2.617   8.494   0.335  1.2072 -1.4438 -1.9067
    2MOL0     H  214   2.655   8.628   0.447  4.7868 -0.6052  0.7713
    2MOL0     H  215   2.626   8.644   0.149  2.8724  0.7329  0.5535
    2MOL0     H  216   2.500   8.688   0.269  0.1546  0.5880 -2.1044
    2MOL0     H  217   2.764   8.834   0.236  0.3114 -0.2483 -1.1075
    2MOL0     H  218   2.632   8.883   0.336  1.9994 -3.2733  2.5623
    2MOL0     H  219   2.635   8.980   0.080 -0.5158  0.6611  2.5404
    2MOL0     H  220   2.567   8.816   0.044  2.0251 -1.0541 -0.6395
    2MOL0     H  221   2.463   9.017   0.224  2.2286 -1.6108  0.5892
    2MOL0     H  222   2.388   8.860   0.206  0.8373 -3.0866 -3.7871
    2MOL0     H  223   2.360   8.893  -0.040 -1.8580  1.0363  0.0180
    2MOL0     H  224   2.254   9.003   0.055  0.6989 -0.6252  3.7558
    2MOL0     H  225   2.247   9.221   0.008  0.2194 -1.6245  2.8760
    2MOL0     H  226   2.412   9.492  -0.145 -0.3778 -0.7919  1.5193
    2MOL0     H  227   2.244   9.427  -0.150  0.9298  0.4506  4.1504
    2MOL0     H  228   2.454   9.448  -0.363  0.1909 -1.5705  0.0575
    2MOL0     H  229   2.317   9.325  -0.363  2.8674 -1.5496 -0.8094
    2MOL0     H  230   2.159   9.498  -0.371  0.0498  3.1442 -4.7365
    2MOL0     H  231   2.270   9.630  -0.299  1.3067 -0.1423  0.3373
    2MOL0     H  232   2.392   9.607  -0.510  0.1046 -3.9510  3.0920
    2MOL0     H  233   2.263   9.514  -0.569  2.5607 -1.9365  0.0248
    2MOL0     H  234   1.983   9.820  -0.562 -2.5639  1.8173 -2.2656
    2MOL0     H  235   1.888  10.048  -0.793  2.0382 -0.2828  0.0446
    2MOL0     H  236   1.813   9.931  -0.684  0.0154 -0.8986  0.5611
    2MOL0     H  237   1.812   9.889  -0.852  1.7884 -2.8738  0.8614
    2MOL0     H  238   1.927   9.840  -1.295 -0.7707 -0.2298 -0.2689
    2MOL0     H  239   1.964   9.828  -1.543  0.2318  1.3689 -0.2378
    2MOL0     H  240   2.353   9.928  -1.694 -1.1529  1.1954  0.0360
    2MOL0     H  241   2.366   9.749  -1.694 -0.6087  0.4944  0.7485
    2MOL0     H  242   2.271   9.930  -1.907 -1.7654  0.6093  0.9476
    2MOL0     H  243   2.407   9.809  -1.910 -0.9704 -2.2139  1.0661
    2MOL0     H  244   2.110   9.719  -1.886 -1.4309 -1.0454 -1.0242
    2MOL0     H  245   2.270   9.635  -1.920  0.6655  1.1302  1.8910
    2MOL0     H  246   2.286   9.765  -2.140  0.5352 -4.2044 -0.2486
    2MOL0     H  247   2.129   9.821  -2.126 -3.4003 -2.6846 -0.0960
    2MOL0     H  248   2.027   9.600  -2.115 -0.2470  0.1013 -0.4109
    2MOL0     H  249   2.118   9.633  -2.257  4.0537  0.3996 -0.0251
    2MOL0     H  250   2.229   9.459  -2.042 -0.5137  1.7038  0.5225
    2MOL0     H  251   2.316   9.534  -2.162  0.9063 -0.2450  4.3061
    2MOL0     H  252   2.173   9.413  -2.339 -0.5823 -3.0244 -0.7454
    2MOL0     H  253   2.072   9.354  -2.222 -0.6306  1.3888 -0.5842
    2MOL0     H  254   2.252   9.186  -2.279  3.3851 -0.7199  1.8843
    2MOL0     H  255   2.274   9.225  -2.121 -1.8769 -1.5016 -1.2429
    2MOL0     H  256   2.379   9.784  -1.485 -1.5972 -1.3348 -0.4888
    2MOL0     H  257   2.357   9.782  -1.253  1.3257 -0.5558 -2.8066
    2MOL0     H  258   2.285   9.777  -0.949 -1.6239 -0.9144 -0.9641
    2MOL0     H  259   2.347   9.701  -0.737 -0.0869 -0.0800 -3.5088
    2MOL0     H  260   3.256   8.400   0.380 -0.4510 -0.9560  0.3274
    2MOL0     H  261   3.447   8.575   0.397  0.0554 -0.7021  0.6630
    2MOL0     H  262   3.569   8.852   0.832  2.0304 -2.8063  0.6602
    2MOL0     H  263   3.708   9.043   0.904 -2.7495  0.6750 -0.5100
    2MOL0     H  264   3.765   9.278   0.831  1.0124 -0.0539 -1.5998
    2MOL0     H  265   3.879   9.216   0.947  1.5963  0.9134  1.0809
    2MOL0     H  266   3.919   9.448   0.894 -1.5404  0.2296 -0.6370
    2MOL0     H  267   3.978   9.396   0.730 -1.1839 -0.5118  0.1377
    2MOL0     H  268   4.109   9.241   0.948 -1.1728 -0.1066  1.4251
    2MOL0     H  269   4.176   9.295   0.797 -1.6361 -1.7311  1.0825
    2MOL0     H  270   4.227   9.512   0.863  0.4853  0.8316  0.1900
    2MOL0     H  271   4.302   9.401   0.947 -0.3716  1.4663 -1.0102
    2MOL0     H  272   4.072   9.544   1.273  0.0771  1.0238  0.6855
    2MOL0     H  273   3.906   9.048   0.522 -1.1200 -0.4376 -1.6294
    2MOL0     H  274   3.905   8.836   0.385 -0.3720  0.4546 -2.4002
    2MOL0     H  275   3.759   8.754   0.377 -0.4034  0.1667 -1.2929
    2MOL0     H  276   3.751   8.929   0.344  0.2025  0.5455  0.9918
    3MOL0     O  277   8.430  10.414   0.516 -0.8427  0.3486  0.4720
    3MOL0     C  278   8.390  10.439   0.628  1.2501  1.2805 -0.2228
    3MOL0     O  279   8.453  10.510   0.721 -0.8009 -0.4959 -0.9070
    3MOL0     C  280   8.571  10.574   0.687  0.1482  0.0879  1.3200
    3MOL0     C  281   8.686  10.530   0.756  1.0679 -0.0489 -0.8607
    3MOL0     C  282   8.812  10.582   0.728 -0.9747 -0.1393 -0.9107
    3MOL0     C  283   8.825  10.687   0.636 -1.0314  0.5575  0.2818
    3MOL0     O  284   8.947  10.743   0.608  0.0733 -0.7347 -0.5786
    3MOL0     C  285   9.002  10.729   0.471  0.6399  0.6933 -0.0844
    3MOL0     C  286   9.157  10.748   0.490  0.4916 -0.3246  0.0007
    3MOL0     C  287   9.199  10.781   0.351 -0.0847  0.5807 -0.2864
    3MOL0     C  288   9.350  10.810   0.348  0.6088  1.4556 -0.9317
    3MOL0     C  289   9.377  10.914   0.239 -0.1514  0.9246  0.8206
    3MOL0     C  290   9.520  10.956   0.239 -1.0657  0.1336  1.1383
    3MOL0     C  291   9.570  11.021   0.107 -0.0408 -0.2114  0.3268
    3MOL0     C  292   9.715  11.067   0.105  0.1487 -0.3844 -0.6515
    3MOL0     N  293   9.758  11.117  -0.029  1.3735  0.6454 -0.1355
    3MOL0     C  294   9.860  11.072  -0.118 -0.2351  0.2821 -0.6475
    3MOL0     C  295   9.844  11.145  -0.229  0.1067  0.2212  0.0516
    3MOL0     C  296   9.945  11.153  -0.341 -0.6177  0.0332  0.1388
    3MOL0     C  297  10.094  11.145  -0.296 -0.0824 -0.2179  0.2648
    3MOL0     C  298  10.120  11.278  -0.228 -0.4470  0.0531  0.2764
    3MOL0     C  299  10.270  11.296  -0.184  0.0982 -0.6212 -0.5400
    3MOL0     O  300  10.311  11.187  -0.105  1.1410 -0.0921  0.1569
    3MOL0     C  301  10.248  11.170   0.015  0.9721 -0.6933 -0.6046
    3MOL0     C  302  10.193  11.261   0.109 -0.6299 -0.1146  0.3214
    3MOL0     C  303  10.129  11.210   0.223 -0.5260  0.4641  0.2672
    3MOL0     C  304  10.062  11.306   0.326 -0.3094 -0.2570  0.3451
    3MOL0     C  305  10.130  11.071   0.253 -0.1179 -0.9058 -0.1279
    3MOL0     C  306  10.054  11.017   0.363  0.1812 -0.3160  0.1859
    3MOL0     O  307   9.926  11.045   0.362 -0.4319  0.0769  0.4045
    3MOL0     C  308   9.847  10.996   0.469  0.3766  0.0172  0.5338
    3MOL0     C  309   9.792  10.873   0.468 -0.0304  0.1310  0.9881
    3MOL0     C  310   9.683  10.845   0.556  0.5385 -0.0404  0.1030
    3MOL0     C  311   9.655  10.931   0.661 -0.1937 -0.2890  0.2971
    3MOL0     O  312   9.554  10.889   0.743  0.0005 -0.7933  0.1092
    3MOL0     C  313   9.446  10.979   0.757 -0.7643 -0.1959 -0.2206
    3MOL0     C  314   9.317  10.905   0.821 -0.1252  0.8413 -0.3904
    3MOL0     C  315   9.351  10.871   0.969  1.2842  0.2111 -0.5327
    3MOL0     C  316   9.247  10.798   1.050 -0.0758 -0.3142 -0.6936
    3MOL0     C  317   9.171  10.913   1.130 -0.4490 -0.1370  0.8582
    3MOL0     C  318   9.055  10.864   1.197  0.1883  1.1652 -0.7583
    3MOL0     C  319   9.108  10.790   1.323  0.2716  0.3968  0.0881
    3MOL0     C  320   9.006  10.696   1.391  0.6637 -0.4247  0.1610
    3MOL0    Cl  321   8.943  10.573   1.277  0.2379  0.0107  0.2328
    3MOL0     C  322   9.717  11.059   0.669  0.1290 -0.3764 -0.5910
    3MOL0     C  323   9.813  11.089   0.572  0.3901 -0.5185  0.2712
    3MOL0     O  324  10.110  10.962   0.456 -0.6424 -0.7176 -0.0896
    3MOL0     C  325  10.192  10.994   0.162  0.7065  0.3909 -0.6209
    3MOL0     C  326  10.249  11.036   0.048 -0.4607 -0.7101  0.0746
    3MOL0     N  327   9.721  11.207  -0.225 -0.3456  0.2943  0.7722
    3MOL0     N  328   9.674  11.198  -0.106 -0.1004 -0.2164 -0.3356
    3MOL0     C  329   8.711  10.737   0.573  0.3637 -0.4726 -1.1560
    3MOL0     C  330   8.585  10.679   0.604  0.5955 -0.6271 -0.4740
    3MOL0     C  331   8.243  10.396   0.666 -0.4730 -0.4906 -0.1293
    3MOL0     C  332   8.202  10.401   0.804  0.9716  0.0884 -0.2039
    3MOL0     C  333   8.072  10.360   0.852 -0.2957  0.2260  1.2150
    3MOL0     C  334   7.972  10.328   0.754  0.6769 -0.6085  0.1957
    3MOL0     O  335   7.857  10.289   0.815 -0.1163 -0.3231 -0.5513
    3MOL0     C  336   7.735  10.278   0.741  0.2426 -0.8326  0.0894
    3MOL0     C  337   7.612  10.252   0.826 -0.3132 -0.3560 -0.1540
    3MOL0     C  338   7.554  10.373   0.896 -0.1624 -0.3943  0.1028
    3MOL0     C  339   7.488  10.325   1.027  0.0034 -0.0322  0.2272
    3MOL0     C  340   7.463  10.442   1.119  0.5478 -1.3683  0.2183
    3MOL0     C  341   7.435  10.537   1.194 -0.1412  0.6238  1.5588
    3MOL0     C  342   8.017  10.302   0.626 -0.1676  0.0508 -0.3660
    3MOL0     C  343   8.149  10.339   0.577 -0.1509 -0.5348  0.0155
    3MOL0     C  344   8.183  10.293   0.438  0.5825  0.0433  0.5279
    3MOL0     H  345   8.673  10.461   0.838 -0.4440  1.6544  0.4072
    3MOL0     H  346   8.906  10.558   0.777 -0.2596  1.9452 -1.1556
    3MOL0     H  347   8.960  10.801   0.400 -2.4114 -0.4642  0.3845
    3MOL0     H  348   8.981  10.627   0.437 -3.2775  1.0812  0.6718
    3MOL0     H  349   9.172  10.837   0.552 -0.5013 -0.3421  0.2729
    3MOL0     H  350   9.216  10.659   0.515  2.9340  0.7664 -1.5389
    3MOL0     H  351   9.179  10.691   0.293 -0.7423 -0.8944  2.0887
    3MOL0     H  352   9.137  10.860   0.307 -2.8697 -1.8191 -1.0136
    3MOL0     H  353   9.379  10.859   0.442 -0.5433 -0.7334  0.6566
    3MOL0     H  354   9.404  10.718   0.328 -4.7155 -1.7363 -2.7216
    3MOL0     H  355   9.316  11.002   0.262 -0.8319 -0.3766  4.7529
    3MOL0     H  356   9.353  10.870   0.142  3.0187  1.5054 -0.3264
    3MOL0     H  357   9.527  11.025   0.323 -4.4437 -1.5549  3.0022
    3MOL0     H  358   9.587  10.870   0.254  2.2430  2.4340  0.8154
    3MOL0     H  359   9.508  11.112   0.109 -2.2716 -1.6185 -0.8931
    3MOL0     H  360   9.549  10.961   0.019  1.1886 -0.6381  0.3089
    3MOL0     H  361   9.715  11.134   0.190 -2.7349 -2.6840  1.3863
    3MOL0     H  362   9.784  10.986   0.128  2.4961  1.1436 -1.9396
    3MOL0     H  363   9.933  10.996  -0.090 -2.4506 -2.4091 -1.8058
    3MOL0     H  364   9.939  11.248  -0.395  3.3821  0.9970  1.1009
    3MOL0     H  365   9.927  11.070  -0.410 -0.3005  0.0398  0.0479
    3MOL0     H  366  10.104  11.056  -0.232  1.5385 -0.6567 -0.5500
    3MOL0     H  367  10.159  11.140  -0.384 -0.5593 -1.7134 -0.0294
    3MOL0     H  368  10.078  11.355  -0.293 -2.1268 -1.7305 -0.8627
    3MOL0     H  369  10.066  11.283  -0.133 -1.1031  2.3503 -0.1524
    3MOL0     H  370  10.331  11.296  -0.274  1.0749  1.4393  0.0365
    3MOL0     H  371  10.295  11.397  -0.148  0.8755 -0.4497 -1.5414
    3MOL0     H  372  10.184  11.367   0.088  2.4488  0.6710  2.3232
    3MOL0     H  373  10.095  11.408   0.306 -1.8977  0.6592  2.0759
    3MOL0     H  374  10.083  11.261   0.423 -3.9885  0.0161  1.4336
    3MOL0     H  375   9.953  11.301   0.332 -0.3131 -1.8162 -0.3678
    3MOL0     H  376   9.804  10.800   0.389 -0.3501  2.4928 -1.4079
    3MOL0     H  377   9.623  10.756   0.537 -0.5254  1.1082 -2.4096
    3MOL0     H  378   9.472  11.066   0.817 -3.2429  0.8799 -0.5658
    3MOL0     H  379   9.432  11.018   0.655  1.0954  2.2089  0.3644
    3MOL0     H  380   9.220  10.954   0.805 -1.4327 -0.9611  1.5058
    3MOL0     H  381   9.302  10.809   0.769  0.4288  1.4022 -1.6257
    3MOL0     H  382   9.383  10.957   1.030 -1.0926 -0.3089  1.6347
    3MOL0     H  383   9.437  10.803   0.968 -0.8883 -2.7676  0.2783
    3MOL0     H  384   9.294  10.720   1.111 -0.0224 -2.4027 -3.2729
    3MOL0     H  385   9.180  10.738   0.987  0.0923 -0.9008 -0.3230
    3MOL0     H  386   9.237  10.970   1.195  1.5011 -0.4653 -0.7197
    3MOL0     H  387   9.148  10.988   1.053  0.8777  1.6438  2.1281
    3MOL0     H  388   8.993  10.799   1.134 -1.1708 -1.3469  2.8238
    3MOL0     H  389   8.982  10.936   1.236 -1.6494 -0.3215 -1.2816
    3MOL0     H  390   9.119  10.864   1.404  0.1769 -0.2317  0.6866
    3MOL0     H  391   9.194  10.729   1.297 -1.4297 -1.4915 -1.3569
    3MOL0     H  392   8.934  10.754   1.450 -0.3489 -1.5935  0.1086
    3MOL0     H  393   9.049  10.627   1.464 -0.3823 -1.4384 -0.1434
    3MOL0     H  394   9.694  11.124   0.753 -1.6906  0.1556 -1.4356
    3MOL0     H  395   9.868  11.182   0.574  1.3497 -0.9963 -1.5385
    3MOL0     H  396  10.198  10.887   0.173 -0.5159  0.0366 -2.7972
    3MOL0     H  397  10.294  10.955  -0.008  1.6916 -0.2461  1.0007
    3MOL0     H  398   8.705  10.822   0.506 -2.7855 -0.9301 -1.5895
    3MOL0     H  399   8.494  10.717   0.558 -1.1210 -1.6546  1.9030
    3MOL0     H  400   8.275  10.419   0.883 -0.4940 -3.0226  2.0438
    3MOL0     H  401   8.053  10.340   0.957 -2.0308 -2.3533  0.5136
    3MOL0     H  402   7.724  10.367   0.679  0.8215  0.6822  2.0434
    3MOL0     H  403   7.742  10.188   0.680  0.8898 -0.9718  0.3575
    3MOL0     H  404   7.635  10.172   0.897 -1.8089 -1.8144 -1.2383
    3MOL0     H  405   7.533  10.214   0.761 -1.7678  0.2005  1.2092
    3MOL0     H  406   7.635  10.439   0.931  0.1647 -0.5004 -0.4461
    3MOL0     H  407   7.490  10.434   0.832 -0.0689 -0.1004  0.2826
    3MOL0     H  408   7.563  10.261   1.074 -0.2699 -0.6427 -0.1635
    3MOL0     H  409   7.395  10.270   1.010 -0.3911  0.6065  0.2954
    3MOL0     H  410   7.412  10.633   1.236  1.7501  2.2768 -0.8245
    3MOL0     H  411   7.954  10.256   0.551 -1.1336 -0.9368  1.0161
    3MOL0     H  412   8.252  10.208   0.445 -0.6496 -0.8344  3.7724
    3MOL0     H  413   8.093  10.259   0.386  1.4292 -0.4143 -0.6880
    3MOL0     H  414   8.224  10.372   0.374  0.9811 -0.8756 -0.3792
    4MOL0     O  415  11.054   8.596   6.567 -0.0836  0.5167 -0.0249
    4MOL0     C  416  11.079   8.490   6.522  0.6215  0.0480 -0.3228
    4MOL0     O  417  11.100   8.464   6.390 -0.0551  0.2167  0.2211
    4MOL0     C  418  11.014   8.517   6.304 -0.1635  0.0455 -0.8990
    4MOL0     C  419  10.888   8.575   6.345  0.5352  0.8362  0.9023
    4MOL0     C  420  10.803   8.611   6.251 -0.4224  0.3266 -0.4744
    4MOL0     C  421  10.832   8.609   6.111 -0.2630 -0.3765  0.5854
    4MOL0     O  422  10.725   8.638   6.029 -0.1358 -0.6703 -0.5257
    4MOL0     C  423  10.759   8.660   5.889 -0.3891 -0.1939  0.0670
    4MOL0     C  424  10.853   8.782   5.873  0.3618 -0.0821 -0.1772
    4MOL0     C  425  10.772   8.918   5.882  0.1927 -1.0823 -0.2669
    4MOL0     C  426  10.735   8.965   6.023  0.2894 -0.1881  0.7253
    4MOL0     C  427  10.647   9.091   6.018  0.3041  0.7639  0.0928
    4MOL0     C  428  10.506   9.073   5.945  0.1203 -1.0942 -0.6303
    4MOL0     C  429  10.451   9.223   5.938  0.1196  1.4119  0.2053
    4MOL0     C  430  10.306   9.240   5.902 -0.3752 -0.0518 -0.2223
    4MOL0     N  431  10.281   9.202   5.761  0.4341 -0.4844 -0.6149
    4MOL0     C  432  10.216   9.098   5.716  0.3945 -0.5462 -0.6312
    4MOL0     C  433  10.215   9.109   5.584  0.0943  0.4202  0.5152
    4MOL0     C  434  10.122   9.026   5.497  0.3779  0.4276 -0.0940
    4MOL0     C  435  10.046   9.105   5.398 -0.0623 -0.4147  0.1883
    4MOL0     C  436   9.939   9.195   5.469  0.6486 -0.0439  0.0412
    4MOL0     C  437   9.912   9.322   5.387  0.7712  0.5601 -0.4246
    4MOL0     O  438   9.881   9.294   5.249 -1.0142 -0.0749  0.2558
    4MOL0     C  439   9.756   9.250   5.215 -0.3535 -0.9755  0.7228
    4MOL0     C  440   9.754   9.199   5.083  0.3261  0.5084 -0.4493
    4MOL0     C  441   9.632   9.146   5.025 -1.1462 -0.5131 -0.4838
    4MOL0     C  442   9.644   9.110   4.878  0.2442  0.7358  0.4658
    4MOL0     C  443   9.514   9.147   5.105  0.1774 -0.6599  0.7487
    4MOL0     C  444   9.383   9.081   5.058  0.4967 -0.3680 -0.1315
    4MOL0     O  445   9.398   8.989   4.947 -0.0040 -0.4755  0.4583
    4MOL0     C  446   9.280   8.932   4.896  0.4972  0.5822 -0.0982
    4MOL0     C  447   9.170   8.877   4.965 -0.5509 -0.6196 -0.8126
    4MOL0     C  448   9.056   8.843   4.903  0.1425  0.5635 -0.0165
    4MOL0     C  449   9.036   8.871   4.768 -0.1119  0.4288 -0.2570
    4MOL0     O  450   8.909   8.853   4.710 -0.6996  0.1667  0.3209
    4MOL0     C  451   8.847   8.727   4.744  0.1511 -0.3318  0.1193
    4MOL0     C  452   8.811   8.679   4.601  0.0076 -0.2995  0.3272
    4MOL0     C  453   8.781   8.526   4.598  0.1118 -0.0488  1.3762
    4MOL0     C  454   8.760   8.456   4.457 -0.6405  0.5496  0.4955
    4MOL0     C  455   8.896   8.430   4.382 -0.0709 -0.3147 -0.7412
    4MOL0     C  456   8.868   8.353   4.250 -0.2260 -0.4332  0.4702
    4MOL0     C  457   8.832   8.206   4.276  0.0007  0.4249 -0.1551
    4MOL0     C  458   8.732   8.151   4.170 -0.1234 -0.7792  0.2419
    4MOL0    Cl  459   8.688   7.988   4.219 -0.1110  0.1613  0.3515
    4MOL0     C  460   9.138   8.936   4.700 -0.2149  0.2661 -0.0421
    4MOL0     C  461   9.271   8.948   4.760  0.5202 -0.6103  0.1188
    4MOL0     O  462   9.279   9.089   5.134 -0.2197 -0.0890  0.3481
    4MOL0     C  463   9.517   9.199   5.235 -0.3685  0.0712  0.8991
    4MOL0     C  464   9.637   9.254   5.282  0.7097  0.0372  0.6826
    4MOL0     N  465  10.277   9.229   5.546 -0.4704  0.1111 -0.2668
    4MOL0     N  466  10.325   9.276   5.657 -0.9402  0.8014  0.9606
    4MOL0     C  467  10.963   8.569   6.074 -0.5041  0.8734 -0.0678
    4MOL0     C  468  11.048   8.506   6.168 -0.0850  0.7183 -0.5081
    4MOL0     C  469  11.117   8.376   6.612  0.9661 -0.5170  0.1112
    4MOL0     C  470  11.141   8.250   6.554  0.1278  0.0120  0.3049
    4MOL0     C  471  11.178   8.143   6.629 -0.8741  0.3859  0.7418
    4MOL0     C  472  11.199   8.152   6.765  0.7072 -0.0782  0.1830
    4MOL0     O  473  11.221   8.056   6.857 -0.5940  0.4154  0.7729
    4MOL0     C  474  11.276   7.929   6.804 -0.7650  0.2192  0.8528
    4MOL0     C  475  11.424   7.929   6.808  0.2304  0.7514 -1.2684
    4MOL0     C  476  11.484   7.943   6.953  0.2053  0.3681  0.6240
    4MOL0     C  477  11.615   8.027   6.953 -0.7294  0.2124 -0.0151
    4MOL0     C  478  11.659   8.042   7.093  0.5582  1.9114  0.8932
    4MOL0     C  479  11.701   8.045   7.207  0.1136 -0.5699  0.2013
    4MOL0     C  480  11.179   8.273   6.826 -0.6418 -0.1134 -0.4103
    4MOL0     C  481  11.143   8.391   6.752 -0.0019  0.8003 -0.9661
    4MOL0     C  482  11.129   8.515   6.844 -0.4410 -0.5810  0.5845
    4MOL0     H  483  10.864   8.580   6.450 -0.9799 -0.0132  0.6190
    4MOL0     H  484  10.706   8.655   6.273 -0.1573  0.0454  1.4950
    4MOL0     H  485  10.671   8.657   5.825  0.4741  2.3130 -1.3414
    4MOL0     H  486  10.823   8.575   5.862  0.0609 -0.3062  1.4137
    4MOL0     H  487  10.921   8.792   5.958 -2.7129 -3.1620  3.0049
    4MOL0     H  488  10.904   8.770   5.777  1.2654  1.1619  0.1293
    4MOL0     H  489  10.827   9.000   5.835 -0.1166 -1.7896 -1.9423
    4MOL0     H  490  10.682   8.902   5.822  1.0376 -3.6565 -1.0138
    4MOL0     H  491  10.673   8.890   6.071  0.0517 -1.7100 -1.7771
    4MOL0     H  492  10.826   8.982   6.082  1.0671 -1.8060  0.0570
    4MOL0     H  493  10.693   9.175   5.964 -1.0299  3.1545  2.4264
    4MOL0     H  494  10.644   9.121   6.123 -0.4826 -2.8864  1.2434
    4MOL0     H  495  10.505   9.031   5.844  1.1414 -2.1410 -0.2262
    4MOL0     H  496  10.442   9.011   6.007 -0.6828  0.8881  0.6256
    4MOL0     H  497  10.502   9.277   5.858  0.9199  1.6871  0.8869
    4MOL0     H  498  10.476   9.278   6.029 -0.1411  3.0132 -0.6617
    4MOL0     H  499  10.249   9.172   5.966  0.6788  0.7259  1.6232
    4MOL0     H  500  10.275   9.344   5.916 -1.5077 -0.1544 -1.7745
    4MOL0     H  501  10.177   9.010   5.767  1.1469 -0.3896  0.2392
    4MOL0     H  502  10.047   8.973   5.557 -2.2898  4.5489  0.5514
    4MOL0     H  503  10.181   8.957   5.435 -0.1365 -0.3496  0.2651
    4MOL0     H  504  10.108   9.163   5.329  1.5386 -1.2628  0.8350
    4MOL0     H  505   9.987   9.039   5.333 -1.9895  0.2311  1.2282
    4MOL0     H  506   9.844   9.142   5.468  0.9794 -0.8827  2.7726
    4MOL0     H  507   9.954   9.217   5.575 -1.1658  1.1089  0.0957
    4MOL0     H  508   9.835   9.392   5.422 -1.9004 -2.1410 -0.4587
    4MOL0     H  509  10.009   9.372   5.393 -0.0818  2.1191  1.4550
    4MOL0     H  510   9.848   9.189   5.029  2.1793 -1.7113  2.8111
    4MOL0     H  511   9.556   9.152   4.828 -0.4649 -0.8772  0.2939
    4MOL0     H  512   9.649   9.002   4.859  4.2871  1.1189 -1.6349
    4MOL0     H  513   9.735   9.146   4.830  0.9784  0.1175  1.3417
    4MOL0     H  514   9.172   8.851   5.070 -0.7097  0.3798 -0.5507
    4MOL0     H  515   8.965   8.801   4.945  0.1664  0.0858 -0.4322
    4MOL0     H  516   8.903   8.657   4.808 -1.6716 -0.8636  1.2075
    4MOL0     H  517   8.753   8.748   4.797 -0.9533 -0.7636 -1.5878
    4MOL0     H  518   8.720   8.731   4.568  0.2733  0.9789  1.5088
    4MOL0     H  519   8.893   8.700   4.532 -0.8582 -0.1190 -0.6787
    4MOL0     H  520   8.691   8.518   4.659 -1.2722  1.5565 -0.3444
    4MOL0     H  521   8.859   8.475   4.655  1.8101  1.0530  0.1480
    4MOL0     H  522   8.677   8.502   4.402 -1.6065 -5.1330 -3.7429
    4MOL0     H  523   8.721   8.355   4.473  0.9023  0.1465  2.0284
    4MOL0     H  524   8.938   8.528   4.358  1.5054 -0.8709 -0.3264
    4MOL0     H  525   8.967   8.374   4.443  3.5374  2.1380 -2.3364
    4MOL0     H  526   8.965   8.362   4.200 -0.0406 -1.7224  0.5493
    4MOL0     H  527   8.796   8.413   4.193  1.4626  1.9814  0.7668
    4MOL0     H  528   8.794   8.185   4.377  0.7744 -1.0357 -0.1466
    4MOL0     H  529   8.924   8.150   4.259 -0.3236  0.0580 -0.7173
    4MOL0     H  530   8.776   8.159   4.070 -0.9984 -0.0749 -0.0955
    4MOL0     H  531   8.637   8.205   4.167 -0.6870 -1.6299  1.7737
    4MOL0     H  532   9.114   8.975   4.602 -2.3525 -3.5102 -1.2169
    4MOL0     H  533   9.350   8.991   4.700  1.2304 -3.5148 -1.2243
    4MOL0     H  534   9.425   9.197   5.294 -0.2237 -0.1158  1.1201
    4MOL0     H  535   9.630   9.304   5.378 -0.9594  2.6644 -0.6736
    4MOL0     H  536  11.004   8.574   5.974  3.2256 -1.3841  1.1300
    4MOL0     H  537  11.145   8.469   6.137 -0.4960  0.0442 -0.9965
    4MOL0     H  538  11.144   8.237   6.447 -0.1778 -0.6931  0.3745
    4MOL0     H  539  11.175   8.047   6.578  1.6420 -0.7193  2.4661
    4MOL0     H  540  11.232   7.851   6.867 -2.9540  0.0627 -0.7354
    4MOL0     H  541  11.240   7.899   6.705  0.1326  0.7731  0.3518
    4MOL0     H  542  11.472   8.008   6.749  0.4537  0.1132 -1.9585
    4MOL0     H  543  11.462   7.830   6.780  0.9303  0.0442  1.7898
    4MOL0     H  544  11.410   7.985   7.021  1.7871 -0.7033  3.1598
    4MOL0     H  545  11.513   7.846   6.994  0.0608 -0.1133 -0.3812
    4MOL0     H  546  11.576   8.124   6.920 -2.2837  0.0912  1.3242
    4MOL0     H  547  11.686   7.982   6.883  2.3085  3.3627  0.8198
    4MOL0     H  548  11.736   8.043   7.308 -0.3782 -0.8819  0.3662
    4MOL0     H  549  11.186   8.264   6.934  2.2761 -3.9578 -0.6638
    4MOL0     H  550  11.203   8.511   6.924 -0.0486 -1.0846  0.1962
    4MOL0     H  551  11.163   8.603   6.789 -1.0113 -0.1113  0.9683
    4MOL0     H  552  11.030   8.533   6.887  0.9468  0.7059  3.6045
    5MOL0     O  553  10.703   4.491   4.918 -0.7609 -0.2661  0.0361
    5MOL0     C  554  10.766   4.395   4.948  0.1479  0.2771  0.2616
    5MOL0     O  555  10.816   4.298   4.860 -0.0991 -0.0849 -0.3984
    5MOL0     C  556  10.776   4.311   4.724 -0.0232  0.6774 -0.2781
    5MOL0     C  557  10.868   4.345   4.624  0.4099  0.5888 -0.4076
    5MOL0     C  558  10.824   4.367   4.493  1.0907 -0.5865 -0.0433
    5MOL0     C  559  10.686   4.360   4.455 -1.4005 -0.0142  0.4459
    5MOL0     O  560  10.633   4.380   4.332 -0.7071  0.5257  0.8320
    5MOL0     C  561  10.680   4.275   4.236 -0.3887  0.4298 -0.3742
    5MOL0     C  562  10.789   4.333   4.144  0.4732 -0.8655  0.3364
    5MOL0     C  563  10.738   4.388   4.008  1.3322 -0.1071 -0.5963
    5MOL0     C  564  10.835   4.454   3.911 -0.5533  0.2670  1.3978
    5MOL0     C  565  10.762   4.481   3.784  0.4544 -0.3838 -0.0176
    5MOL0     C  566  10.646   4.576   3.786  0.8021 -0.2567 -0.3550
    5MOL0     C  567  10.619   4.634   3.649 -0.4563  0.1753  0.7898
    5MOL0     C  568  10.543   4.538   3.557 -0.0195  0.2576  0.0136
    5MOL0     N  569  10.624   4.429   3.502 -0.2109  0.2901 -0.6365
    5MOL0     C  570  10.749   4.443   3.446 -0.6936  0.3507  0.3221
    5MOL0     C  571  10.780   4.325   3.390  0.8015 -0.6596 -0.0725
    5MOL0     C  572  10.912   4.290   3.325  0.2108 -0.1872  0.6144
    5MOL0     C  573  10.947   4.138   3.343 -0.2041  0.0633  0.4955
    5MOL0     C  574  10.880   4.059   3.223  0.1428  0.0807  0.8395
    5MOL0     C  575  10.843   3.914   3.262  0.1785  0.4750  0.2986
    5MOL0     O  576  10.960   3.856   3.322 -0.1625  0.6825 -0.7604
    5MOL0     C  577  11.062   3.796   3.250  0.2362  0.7961  0.0132
    5MOL0     C  578  11.173   3.756   3.324  0.5248 -0.2352 -0.5907
    5MOL0     C  579  11.296   3.725   3.260  0.3886  0.1333 -0.6123
    5MOL0     C  580  11.415   3.685   3.344  0.3718 -0.7794  0.8055
    5MOL0     C  581  11.294   3.714   3.117  0.0098 -0.0322 -0.2398
    5MOL0     C  582  11.407   3.680   3.031  0.3922  0.5032 -1.9083
    5MOL0     O  583  11.476   3.778   2.962  0.1811  0.0175 -1.0388
    5MOL0     C  584  11.578   3.730   2.890 -0.1227  0.0959  0.3664
    5MOL0     C  585  11.584   3.751   2.752 -0.3097  0.6835  0.6535
    5MOL0     C  586  11.697   3.717   2.674  0.0085 -0.3334  0.4606
    5MOL0     C  587  11.812   3.663   2.725  0.7382  0.4339  0.4556
    5MOL0     O  588  11.931   3.656   2.660 -0.2593 -0.1708  1.3628
    5MOL0     C  589  11.943   3.664   2.514  0.5590  0.2209 -0.3112
    5MOL0     C  590  11.874   3.541   2.452 -0.1671 -0.1984  0.3249
    5MOL0     C  591  11.889   3.554   2.303 -0.2125 -0.4661 -0.4887
    5MOL0     C  592  11.834   3.439   2.220  0.4695 -0.6193  0.4921
    5MOL0     C  593  11.927   3.401   2.097 -1.0363  0.2945 -0.6235
    5MOL0     C  594  11.846   3.320   1.999  0.1000 -0.0683 -0.1743
    5MOL0     C  595  11.804   3.187   2.056  1.0717  0.2224 -0.6246
    5MOL0     C  596  11.915   3.101   2.102 -0.5557  0.3754  0.1545
    5MOL0    Cl  597  11.839   2.929   2.113 -0.0875  0.6299 -0.6487
    5MOL0     C  598  11.801   3.632   2.861 -0.0476  0.6653 -0.9925
    5MOL0     C  599  11.688   3.667   2.939 -0.3267  1.0957 -1.5491
    5MOL0     O  600  11.427   3.563   3.025  0.5057  0.1307 -0.2825
    5MOL0     C  601  11.172   3.732   3.044  0.6796 -0.1469 -0.4899
    5MOL0     C  602  11.060   3.773   3.114 -0.1219  0.1073  0.6716
    5MOL0     N  603  10.665   4.240   3.407  0.2650 -0.3534 -0.0324
    5MOL0     N  604  10.575   4.300   3.474  0.4875 -0.4072  0.5624
    5MOL0     C  605  10.598   4.322   4.558 -0.2675  0.3546 -0.0791
    5MOL0     C  606  10.644   4.293   4.692  0.2606 -0.5179 -0.2773
    5MOL0     C  607  10.813   4.384   5.091  0.3870  0.1386 -0.9828
    5MOL0     C  608  10.916   4.294   5.119 -0.6654  0.5727  0.1379
    5MOL0     C  609  10.963   4.276   5.251 -0.1639 -0.7844 -0.4294
    5MOL0     C  610  10.910   4.343   5.362  0.4627  0.5498  0.4932
    5MOL0     O  611  10.935   4.290   5.482 -0.2183 -1.2939  0.1775
    5MOL0     C  612  10.865   4.331   5.601  0.1783 -0.5468  0.2288
    5MOL0     C  613  10.939   4.449   5.670  0.9705  0.7375 -0.6946
    5MOL0     C  614  11.092   4.424   5.701  0.3789 -0.3937  0.2101
    5MOL0     C  615  11.151   4.553   5.756  0.3205 -0.0493 -0.0230
    5MOL0     C  616  11.223   4.643   5.660 -0.2015  0.2891 -0.5263
    5MOL0     C  617  11.278   4.721   5.589 -0.0549 -0.3716  0.3496
    5MOL0     C  618  10.818   4.434   5.333 -0.2276 -0.5152  0.1594
    5MOL0     C  619  10.769   4.459   5.208  0.7010 -0.9839  0.1426
    5MOL0     C  620  10.653   4.560   5.212 -0.2057 -0.2392  0.1567
    5MOL0     H  621  10.972   4.360   4.650 -0.4637  1.5043  2.9382
    5MOL0     H  622  10.903   4.386   4.420 -0.4244  1.5964 -1.2328
    5MOL0     H  623  10.617   4.231   4.158  0.3851  2.6516 -2.3792
    5MOL0     H  624  10.723   4.186   4.284 -4.3391 -0.7718  1.3819
    5MOL0     H  625  10.839   4.416   4.195 -3.8642  2.1931  0.1086
    5MOL0     H  626  10.852   4.245   4.128 -0.5902 -1.3506 -1.3805
    5MOL0     H  627  10.694   4.300   3.960 -0.3210  0.3318  0.0283
    5MOL0     H  628  10.664   4.466   4.030  1.2709  0.5245 -2.7861
    5MOL0     H  629  10.884   4.545   3.947 -1.6426  0.5224  2.3305
    5MOL0     H  630  10.906   4.374   3.889  1.7134  2.3410  0.6972
    5MOL0     H  631  10.724   4.383   3.755  1.6991 -1.5350  2.0018
    5MOL0     H  632  10.828   4.521   3.707  0.4923  1.3661  0.8853
    5MOL0     H  633  10.556   4.537   3.834  0.1486 -0.4929 -1.7090
    5MOL0     H  634  10.682   4.658   3.848 -0.0155 -1.0296  1.2022
    5MOL0     H  635  10.717   4.671   3.619  0.6616  0.2449  4.1164
    5MOL0     H  636  10.556   4.721   3.670 -0.1182  0.2902  1.3476
    5MOL0     H  637  10.462   4.494   3.616 -0.1707  0.4506 -0.0503
    5MOL0     H  638  10.494   4.599   3.481  0.5925 -0.5201 -1.0293
    5MOL0     H  639  10.820   4.524   3.450 -0.0803 -0.0514 -1.5028
    5MOL0     H  640  10.991   4.352   3.368 -0.3397  0.6604  0.4227
    5MOL0     H  641  10.920   4.317   3.219  0.2600  1.4138  1.0087
    5MOL0     H  642  11.055   4.140   3.330 -0.4640  0.0265 -2.3383
    5MOL0     H  643  10.919   4.103   3.443  0.3503 -0.0059  0.6272
    5MOL0     H  644  10.802   4.121   3.179  0.3687 -1.5189 -1.9967
    5MOL0     H  645  10.962   4.049   3.151 -1.8309  0.1489 -1.5103
    5MOL0     H  646  10.762   3.914   3.336 -1.3218  1.5871 -1.2563
    5MOL0     H  647  10.803   3.847   3.186 -0.6134  0.7812  0.4300
    5MOL0     H  648  11.151   3.758   3.430 -1.0076  1.8170 -0.8873
    5MOL0     H  649  11.461   3.594   3.304  2.1334 -0.5670  2.2253
    5MOL0     H  650  11.387   3.680   3.449  0.0385  0.2646  0.7804
    5MOL0     H  651  11.491   3.763   3.336  4.5550 -4.4619  1.0478
    5MOL0     H  652  11.505   3.794   2.692  2.5091  0.9610 -3.2338
    5MOL0     H  653  11.702   3.766   2.577 -2.1617 -1.1142 -0.1060
    5MOL0     H  654  11.900   3.754   2.469 -0.8636  1.1747  2.7280
    5MOL0     H  655  12.048   3.664   2.485  0.4214 -1.2283 -0.9035
    5MOL0     H  656  11.932   3.456   2.491 -0.0648  1.2970  3.7870
    5MOL0     H  657  11.770   3.527   2.482  0.2366  0.5377  2.2197
    5MOL0     H  658  11.994   3.569   2.276 -0.2004  2.8166  0.9460
    5MOL0     H  659  11.842   3.644   2.264 -2.3424 -1.5626 -0.5802
    5MOL0     H  660  11.737   3.469   2.181  0.2354 -3.1838 -1.1253
    5MOL0     H  661  11.828   3.356   2.291  0.3857 -0.3405  0.8094
    5MOL0     H  662  11.952   3.495   2.046 -2.4404  0.5597 -0.8716
    5MOL0     H  663  12.015   3.351   2.138 -2.1491 -1.8912 -0.7778
    5MOL0     H  664  11.893   3.304   1.901  4.6994  0.0635  1.8046
    5MOL0     H  665  11.755   3.379   1.980 -1.1555 -1.9765 -0.3420
    5MOL0     H  666  11.748   3.135   1.978  1.1779  3.9170 -3.4941
    5MOL0     H  667  11.728   3.194   2.134 -3.4588 -0.9433 -4.4785
    5MOL0     H  668  11.957   3.137   2.197 -0.9635 -1.1513  0.9359
    5MOL0     H  669  11.994   3.097   2.026  0.3485 -3.4080  1.0765
    5MOL0     H  670  11.888   3.596   2.916  0.2674  1.4559 -0.9518
    5MOL0     H  671  11.685   3.654   3.047  2.6035  1.5147 -1.3304
    5MOL0     H  672  11.183   3.735   2.936 -1.3765 -1.7597 -0.8365
    5MOL0     H  673  10.968   3.802   3.064 -1.5047 -2.6140  1.4379
    5MOL0     H  674  10.495   4.312   4.526 -0.5325 -1.0980  1.1409
    5MOL0     H  675  10.579   4.264   4.773  0.9435  0.2944  0.5819
    5MOL0     H  676  10.943   4.219   5.044 -2.1353  0.4947 -0.3478
    5MOL0     H  677  11.034   4.194   5.256 -0.1299 -0.7261  0.0533
    5MOL0     H  678  10.763   4.360   5.574  1.3227  2.6695 -1.1125
    5MOL0     H  679  10.866   4.246   5.670  1.8325 -2.4059 -1.8981
    5MOL0     H  680  10.891   4.477   5.764 -2.2145  1.3254 -2.3520
    5MOL0     H  681  10.933   4.536   5.604  1.0559  2.0815  0.9794
    5MOL0     H  682  11.108   4.348   5.777  0.8887 -0.8672 -0.3578
    5MOL0     H  683  11.153   4.399   5.613 -1.3542 -3.3430 -0.2883
    5MOL0     H  684  11.233   4.527   5.824 -0.3639 -1.8941  0.1509
    5MOL0     H  685  11.084   4.609   5.823 -0.5231  0.2937 -1.1294
    5MOL0     H  686  11.330   4.798   5.535 -1.8178  0.6653  0.0675
    5MOL0     H  687  10.779   4.492   5.417  1.0537  0.0717  0.3637
    5MOL0     H  688  10.562   4.502   5.230  0.0316 -2.0841 -3.6021
    5MOL0     H  689  10.654   4.641   5.285 -1.5138 -0.1548  0.1101
    5MOL0     H  690  10.643   4.618   5.120  0.2765 -0.2465  0.0974
    6MOL0     O  691   6.620   5.423   1.867  0.0598  0.2586  0.7754
    6MOL0     C  692   6.620   5.509   1.952  0.5823 -0.1208 -0.1313
    6MOL0     O  693   6.637   5.493   2.085 -0.2947  0.1592  0.5029
    6MOL0     C  694   6.617   5.364   2.130  0.5851  0.8990 -0.0660
    6MOL0     C  695   6.728   5.303   2.173 -0.1004  0.8571  0.9323
    6MOL0     C  696   6.723   5.163   2.183 -0.0131  0.6427  0.0164
    6MOL0     C  697   6.603   5.098   2.192  0.2473  0.7058  0.7824
    6MOL0     O  698   6.594   4.969   2.246  0.0248 -0.3093  0.0018
    6MOL0     C  699   6.624   4.871   2.151 -0.3308  0.7041  0.0190
    6MOL0     C  700   6.768   4.812   2.196 -0.5446 -0.1278 -0.5815
    6MOL0     C  701   6.840   4.716   2.101 -0.9227 -0.2091 -0.1551
    6MOL0     C  702   6.743   4.604   2.062 -0.6871 -0.0526  0.0780
    6MOL0     C  703   6.811   4.477   2.008 -0.4886 -0.0182 -0.1186
    6MOL0     C  704   6.716   4.360   1.996  0.2746  0.5776  0.4045
    6MOL0     C  705   6.594   4.372   1.898  0.3179 -0.7851 -0.6561
    6MOL0     C  706   6.492   4.259   1.885 -0.1785  0.6501 -0.1646
    6MOL0     N  707   6.384   4.270   1.978 -0.8083 -0.0457 -0.1160
    6MOL0     C  708   6.410   4.300   2.110  0.6751 -0.6872  0.2581
    6MOL0     C  709   6.282   4.340   2.150 -0.3261  0.5898 -0.5578
    6MOL0     C  710   6.264   4.397   2.285  0.4402  0.2680  0.6332
    6MOL0     C  711   6.258   4.286   2.393 -0.2481  0.0108 -0.1144
    6MOL0     C  712   6.214   4.339   2.520  0.0779  0.0324 -1.0384
    6MOL0     C  713   6.201   4.209   2.610  0.3900  0.2813 -0.4997
    6MOL0     O  714   6.154   4.229   2.746 -0.0363  0.2378 -0.0085
    6MOL0     C  715   6.033   4.288   2.765  0.0656  0.0699 -0.5487
    6MOL0     C  716   6.001   4.298   2.904 -0.4835  0.2513  0.0003
    6MOL0     C  717   5.874   4.326   2.948 -0.4172 -0.1984  0.4741
    6MOL0     C  718   5.853   4.331   3.095 -0.5265  0.3111  0.6014
    6MOL0     C  719   5.773   4.359   2.853 -0.3704 -0.4281  0.4504
    6MOL0     C  720   5.635   4.378   2.892  0.8734  0.3279 -0.0210
    6MOL0     O  721   5.607   4.491   2.948 -0.1541  0.3501  0.5635
    6MOL0     C  722   5.477   4.497   3.007  0.3724 -0.7612  0.3063
    6MOL0     C  723   5.449   4.413   3.112  0.8676  0.6733 -0.5231
    6MOL0     C  724   5.323   4.429   3.176 -0.0285 -0.3052  0.4210
    6MOL0     C  725   5.230   4.532   3.143 -0.1375 -0.0570 -0.3235
    6MOL0     O  726   5.115   4.545   3.216 -0.2252  0.1352  0.8866
    6MOL0     C  727   5.003   4.630   3.177 -0.7124 -0.1866  0.3574
    6MOL0     C  728   4.924   4.666   3.303 -0.4899  0.3653  0.3940
    6MOL0     C  729   4.992   4.754   3.412 -0.2096 -0.6230 -0.5762
    6MOL0     C  730   4.896   4.819   3.516 -0.0308 -0.0786  0.8430
    6MOL0     C  731   4.941   4.947   3.575  0.3182 -1.0627 -0.0313
    6MOL0     C  732   4.842   5.028   3.655  1.2306  0.8425 -0.3639
    6MOL0     C  733   4.797   4.962   3.785 -0.1860 -1.1646 -1.0127
    6MOL0     C  734   4.652   4.974   3.815 -0.1360  0.5266  0.1985
    6MOL0    Cl  735   4.622   5.143   3.827  0.4071  0.0722  0.4791
    6MOL0     C  736   5.260   4.629   3.047 -0.6858 -0.2794  0.0758
    6MOL0     C  737   5.387   4.611   2.984 -0.0903 -0.1910  0.7933
    6MOL0     O  738   5.555   4.288   2.860  1.3124 -0.5260 -0.0537
    6MOL0     C  739   5.814   4.347   2.717  0.2051  0.1175 -0.0383
    6MOL0     C  740   5.932   4.294   2.673 -1.1654 -0.9026 -0.1679
    6MOL0     N  741   6.199   4.345   2.044 -0.6674 -0.8220 -0.6742
    6MOL0     N  742   6.255   4.299   1.936 -0.4140  0.2198  0.3830
    6MOL0     C  743   6.481   5.160   2.152 -0.0920  0.9436  0.0731
    6MOL0     C  744   6.498   5.294   2.125 -0.1622  0.4871  0.0883
    6MOL0     C  745   6.608   5.647   1.895  0.2170  0.3930 -0.6764
    6MOL0     C  746   6.702   5.738   1.937 -0.7620  0.4859  1.2010
    6MOL0     C  747   6.711   5.868   1.880  0.6755  0.5558  0.2791
    6MOL0     C  748   6.621   5.907   1.781 -0.4770  0.3862  0.2560
    6MOL0     O  749   6.630   6.037   1.727  0.0320 -0.1732 -0.4452
    6MOL0     C  750   6.518   6.084   1.656  0.7327 -0.6817 -0.6642
    6MOL0     C  751   6.521   6.243   1.682  0.6616  0.1084  0.1909
    6MOL0     C  752   6.548   6.289   1.833  0.4898 -0.5598 -0.3918
    6MOL0     C  753   6.504   6.432   1.858  0.6707 -0.2470  0.2693
    6MOL0     C  754   6.501   6.515   1.737 -0.5476 -0.2107  0.7715
    6MOL0     C  755   6.511   6.585   1.638  0.9103 -0.6463  0.5094
    6MOL0     C  756   6.517   5.809   1.751  0.1884 -0.6228 -0.2345
    6MOL0     C  757   6.513   5.680   1.793  0.2120 -0.2527 -0.2079
    6MOL0     C  758   6.398   5.582   1.752 -0.3445  0.5530 -0.8662
    6MOL0     H  759   6.821   5.355   2.193  0.5090  1.3756 -2.5732
    6MOL0     H  760   6.810   5.099   2.175 -3.5972 -4.8511 -0.4990
    6MOL0     H  761   6.634   4.907   2.048  2.6527 -1.3027 -0.5199
    6MOL0     H  762   6.553   4.789   2.141  0.6598 -0.3350  1.1936
    6MOL0     H  763   6.835   4.897   2.212 -0.0702 -0.1436 -2.2713
    6MOL0     H  764   6.749   4.762   2.291  1.8584  1.2301  0.7162
    6MOL0     H  765   6.865   4.772   2.010 -0.6494  0.5324  0.3732
    6MOL0     H  766   6.938   4.686   2.140  0.8355  4.8758  0.0897
    6MOL0     H  767   6.695   4.572   2.154 -2.5611 -0.5852 -1.0222
    6MOL0     H  768   6.658   4.630   1.999 -3.2538 -1.8658  2.5577
    6MOL0     H  769   6.880   4.441   2.084 -2.3674 -2.0207  0.7513
    6MOL0     H  770   6.878   4.497   1.924  1.8806 -0.9305  1.4695
    6MOL0     H  771   6.775   4.274   1.962  0.5116  1.2184 -0.8395
    6MOL0     H  772   6.690   4.326   2.097  2.2078  0.0766  0.7779
    6MOL0     H  773   6.635   4.387   1.798 -2.9519  1.0978 -1.8887
    6MOL0     H  774   6.536   4.459   1.930  0.7869 -0.0934 -1.6259
    6MOL0     H  775   6.443   4.257   1.787 -0.9030  2.1596  0.1342
    6MOL0     H  776   6.538   4.160   1.884 -3.4291 -0.9678  0.1728
    6MOL0     H  777   6.498   4.295   2.172  0.5952  1.2778  0.6151
    6MOL0     H  778   6.172   4.456   2.293 -0.2710 -0.7591  0.2462
    6MOL0     H  779   6.342   4.470   2.309 -0.8313  2.5426 -1.5912
    6MOL0     H  780   6.187   4.210   2.362  1.4934 -0.9603 -1.9303
    6MOL0     H  781   6.356   4.237   2.399 -0.1310  0.0939 -1.2095
    6MOL0     H  782   6.291   4.407   2.559 -2.3886  3.5561 -1.7593
    6MOL0     H  783   6.126   4.404   2.514  0.2286  0.2846 -0.5377
    6MOL0     H  784   6.140   4.136   2.557 -0.2972  1.3731 -1.2425
    6MOL0     H  785   6.303   4.172   2.623 -0.4291 -1.8830  0.3969
    6MOL0     H  786   6.080   4.277   2.976  0.5715 -2.5169 -1.7884
    6MOL0     H  787   5.760   4.380   3.126 -0.9194 -1.5026  2.4715
    6MOL0     H  788   5.931   4.393   3.142 -0.1791  1.0723 -0.9350
    6MOL0     H  789   5.834   4.228   3.126 -0.1282 -0.2764 -1.0059
    6MOL0     H  790   5.513   4.333   3.148  0.7216  2.0196  3.1035
    6MOL0     H  791   5.333   4.365   3.263  1.4766  1.1503  1.3839
    6MOL0     H  792   5.021   4.722   3.121  0.9740 -0.0180  1.1218
    6MOL0     H  793   4.940   4.569   3.112 -0.6132 -1.3354  1.2930
    6MOL0     H  794   4.834   4.708   3.257 -0.1634 -0.3641 -0.9599
    6MOL0     H  795   4.903   4.570   3.350  2.7303 -0.4434  0.4042
    6MOL0     H  796   5.042   4.833   3.355 -0.2090 -0.2803 -0.1043
    6MOL0     H  797   5.074   4.697   3.456 -0.6210 -0.5011  0.3659
    6MOL0     H  798   4.884   4.756   3.605  1.3736  1.0819  1.8837
    6MOL0     H  799   4.796   4.826   3.471 -0.5941  2.1997  2.3146
    6MOL0     H  800   5.033   4.934   3.633 -0.0471  2.0157  1.4893
    6MOL0     H  801   4.972   5.012   3.492 -0.2150 -3.3996 -2.1948
    6MOL0     H  802   4.758   5.037   3.585  2.9688 -3.0778 -3.3710
    6MOL0     H  803   4.892   5.123   3.675 -1.6517  1.7229  4.0159
    6MOL0     H  804   4.853   5.012   3.864 -1.6545  0.7707 -1.1350
    6MOL0     H  805   4.832   4.858   3.794 -1.3300 -1.5177 -0.4726
    6MOL0     H  806   4.622   4.930   3.910  1.9653  0.5728  0.9340
    6MOL0     H  807   4.599   4.933   3.728  3.2241 -0.6723 -1.4927
    6MOL0     H  808   5.200   4.716   3.022 -1.8744 -0.4498  2.1363
    6MOL0     H  809   5.410   4.675   2.899  0.0803 -3.6499 -2.0080
    6MOL0     H  810   5.730   4.362   2.649  0.4159 -2.1998 -0.9343
    6MOL0     H  811   5.938   4.264   2.569 -1.2526  1.8620 -1.0483
    6MOL0     H  812   6.384   5.113   2.162  0.0482  1.0573  2.4712
    6MOL0     H  813   6.407   5.351   2.110 -1.9783 -2.5139 -1.0129
    6MOL0     H  814   6.776   5.694   2.004 -1.7114 -3.3430  0.0052
    6MOL0     H  815   6.790   5.936   1.909  0.1396  1.0336  0.6243
    6MOL0     H  816   6.527   6.071   1.548  2.7251  3.0232 -1.1371
    6MOL0     H  817   6.420   6.047   1.686 -0.3612  3.5454  1.8889
    6MOL0     H  818   6.424   6.288   1.658 -0.3939 -1.0985  1.9540
    6MOL0     H  819   6.601   6.288   1.623 -2.0403  1.4179 -2.7553
    6MOL0     H  820   6.486   6.231   1.902  0.2458  2.8856  2.5768
    6MOL0     H  821   6.652   6.267   1.860 -0.1136 -1.2955  1.4622
    6MOL0     H  822   6.581   6.464   1.928  1.3931 -0.3412 -0.4664
    6MOL0     H  823   6.420   6.439   1.928  0.7754 -0.7098  0.4492
    6MOL0     H  824   6.529   6.662   1.566 -0.9243  0.2984  0.9817
    6MOL0     H  825   6.433   5.838   1.688 -1.4647 -1.9393  1.2838
    6MOL0     H  826   6.340   5.558   1.841  3.0294 -0.0336  1.3338
    6MOL0     H  827   6.335   5.624   1.673 -1.4317 -1.0790 -0.9186
    6MOL0     H  828   6.432   5.486   1.712  0.1277  0.6817 -0.7833
    7MOL0     O  829  10.208   4.150   3.002 -0.2738 -0.4630 -0.2408
    7MOL0     C  830  10.142   4.094   3.100 -0.6498  0.5211 -0.2104
    7MOL0     O  831  10.006   4.085   3.109  0.8526 -0.7198  0.3108
    7MOL0     C  832   9.944   4.170   3.019  0.5271 -0.5026  0.0465
    7MOL0     C  833   9.906   4.155   2.881 -1.1984 -0.4362  0.2680
    7MOL0     C  834   9.848   4.256   2.802  0.3596 -0.2602  0.6705
    7MOL0     C  835   9.826   4.377   2.857  0.7257 -1.1279  0.0754
    7MOL0     O  836   9.776   4.483   2.776 -0.4654 -0.0893  0.2630
    7MOL0     C  837   9.866   4.540   2.685 -0.0842 -0.4695 -0.6045
    7MOL0     C  838   9.834   4.524   2.538 -0.0883 -0.2858  1.0536
    7MOL0     C  839   9.690   4.575   2.501  0.0634 -0.1047  0.1585
    7MOL0     C  840   9.694   4.599   2.350 -0.0862 -0.2843  0.2958
    7MOL0     C  841   9.566   4.676   2.314  0.1561 -0.2142  0.3738
    7MOL0     C  842   9.553   4.829   2.347  0.5149  0.3814  0.7307
    7MOL0     C  843   9.416   4.880   2.299  0.0729  0.2903  1.2007
    7MOL0     C  844   9.393   5.024   2.358 -0.0771  0.0701 -0.9625
    7MOL0     N  845   9.296   5.091   2.280  1.0622 -0.3104 -0.3957
    7MOL0     C  846   9.168   5.129   2.320  0.0188  0.4165 -0.0170
    7MOL0     C  847   9.125   5.200   2.211  0.2953 -0.1870  0.7695
    7MOL0     C  848   8.984   5.252   2.201 -0.2944  0.3665  0.0537
    7MOL0     C  849   8.900   5.128   2.194  0.9065 -0.0745  1.3490
    7MOL0     C  850   8.935   5.029   2.080 -0.8495 -0.5133 -0.4662
    7MOL0     C  851   8.854   4.900   2.082 -0.9259  0.3827 -0.2000
    7MOL0     O  852   8.882   4.819   2.203  0.4792 -0.3312  0.1526
    7MOL0     C  853   8.810   4.705   2.238  0.6819 -0.5323  0.5596
    7MOL0     C  854   8.698   4.671   2.162  0.5370  0.1243  0.8230
    7MOL0     C  855   8.634   4.548   2.186  0.8346 -0.2851  0.4420
    7MOL0     C  856   8.515   4.527   2.103  0.4436 -0.1034  0.8352
    7MOL0     C  857   8.671   4.480   2.303  0.3775 -0.2314 -0.8079
    7MOL0     C  858   8.589   4.361   2.353  0.9359 -0.3594  0.5050
    7MOL0     O  859   8.459   4.383   2.377 -0.2440 -0.0945  0.6997
    7MOL0     C  860   8.371   4.279   2.390 -0.3354 -0.1791  0.7093
    7MOL0     C  861   8.375   4.172   2.295 -0.0691  0.7723 -0.4372
    7MOL0     C  862   8.293   4.064   2.311  0.6944  0.6002 -0.0239
    7MOL0     C  863   8.201   4.055   2.421  0.0617 -0.3037  0.6581
    7MOL0     O  864   8.101   3.959   2.416 -0.1666  0.4603  0.1838
    7MOL0     C  865   7.985   3.967   2.501 -0.3447 -0.0864 -0.0199
    7MOL0     C  866   8.019   3.908   2.641 -0.4834 -0.3652  0.4104
    7MOL0     C  867   8.065   3.769   2.655 -0.3790 -0.9057  0.2109
    7MOL0     C  868   8.086   3.728   2.810 -0.2910 -0.2306  0.2694
    7MOL0     C  869   8.101   3.578   2.830 -0.0551  0.0303 -0.6554
    7MOL0     C  870   8.235   3.527   2.764  0.5229 -0.4905  0.7840
    7MOL0     C  871   8.275   3.391   2.800 -0.7112  1.1310 -1.2630
    7MOL0     C  872   8.357   3.310   2.694  0.2845 -0.4246 -0.2291
    7MOL0    Cl  873   8.394   3.136   2.735  0.1607 -0.0522  0.1271
    7MOL0     C  874   8.211   4.148   2.520 -0.9121 -0.4935  0.7016
    7MOL0     C  875   8.294   4.261   2.503 -0.2079 -0.3842 -0.1093
    7MOL0     O  876   8.652   4.262   2.389 -0.3832  0.3110 -0.4208
    7MOL0     C  877   8.773   4.527   2.389  0.0527 -0.1367  0.3651
    7MOL0     C  878   8.850   4.635   2.350  0.1172 -0.1366  0.5546
    7MOL0     N  879   9.229   5.227   2.121  0.4000 -0.5492  0.1579
    7MOL0     N  880   9.322   5.148   2.159 -0.6611 -0.1056  0.0717
    7MOL0     C  881   9.849   4.397   2.992 -0.0964 -0.1756 -0.4720
    7MOL0     C  882   9.897   4.292   3.078  0.1964  0.1782  0.2626
    7MOL0     C  883  10.236   4.024   3.199 -1.3167 -0.0222  0.2763
    7MOL0     C  884  10.168   3.940   3.285 -0.1431 -0.3384 -0.1570
    7MOL0     C  885  10.218   3.864   3.385  0.1885 -0.1002 -0.2798
    7MOL0     C  886  10.357   3.869   3.402 -0.6049  0.0181 -0.5742
    7MOL0     O  887  10.426   3.810   3.503 -0.7090  0.6891  0.3204
    7MOL0     C  888  10.362   3.717   3.583  0.0362  0.1303 -1.1866
    7MOL0     C  889  10.466   3.663   3.683 -0.2783 -0.2075 -0.3987
    7MOL0     C  890  10.431   3.526   3.745 -0.1931  0.4807 -0.4722
    7MOL0     C  891  10.519   3.485   3.863 -1.0555 -1.1657 -0.5077
    7MOL0     C  892  10.486   3.555   3.985  0.3395  0.4369  0.0769
    7MOL0     C  893  10.468   3.608   4.094  0.0877 -0.3730 -0.1756
    7MOL0     C  894  10.444   3.948   3.315 -0.1827 -0.3778 -0.0472
    7MOL0     C  895  10.382   4.024   3.209  0.3044  0.1970 -0.6485
    7MOL0     C  896  10.480   4.097   3.124 -0.1684  0.5702 -0.3613
    7MOL0     H  897   9.943   4.064   2.835  3.1015  0.3851  1.6293
    7MOL0     H  898   9.815   4.250   2.699 -0.3414  2.2121  0.7062
    7MOL0     H  899   9.965   4.498   2.704  0.4768 -0.2821 -2.8663
    7MOL0     H  900   9.873   4.647   2.706 -1.3673 -0.3999 -0.4525
    7MOL0     H  901   9.906   4.585   2.484 -0.8873 -1.3644 -1.3671
    7MOL0     H  902   9.845   4.420   2.505  0.8830  1.1579 -4.0162
    7MOL0     H  903   9.617   4.499   2.531  1.0841 -0.7617  1.0489
    7MOL0     H  904   9.668   4.669   2.553 -3.5182  1.4516 -3.5837
    7MOL0     H  905   9.782   4.658   2.323  0.5171 -1.0031  0.6271
    7MOL0     H  906   9.690   4.503   2.296  2.9839 -0.0698 -0.5233
    7MOL0     H  907   9.479   4.628   2.361 -1.8580  2.4254 -0.3752
    7MOL0     H  908   9.535   4.666   2.210  3.9242 -1.2949 -0.7877
    7MOL0     H  909   9.563   4.839   2.456  2.0585 -2.1686  0.9095
    7MOL0     H  910   9.631   4.885   2.294 -1.7011  1.8230 -1.1467
    7MOL0     H  911   9.338   4.814   2.339  0.0440 -0.5831 -0.2271
    7MOL0     H  912   9.399   4.876   2.191  0.4930  2.5731  1.0032
    7MOL0     H  913   9.358   4.997   2.458 -0.8616 -0.2762 -1.3243
    7MOL0     H  914   9.487   5.079   2.364 -0.9404  1.4674  1.0602
    7MOL0     H  915   9.113   5.108   2.410  1.6912  1.1853  1.2396
    7MOL0     H  916   8.981   5.320   2.115 -0.5971 -0.3382 -0.4953
    7MOL0     H  917   8.966   5.301   2.297  0.0918 -4.0184  2.6106
    7MOL0     H  918   8.878   5.070   2.284  0.9645 -1.3109  0.5919
    7MOL0     H  919   8.796   5.159   2.178  0.0886 -3.4233 -1.2480
    7MOL0     H  920   8.924   5.077   1.982 -1.4349  2.7147  1.0441
    7MOL0     H  921   9.042   5.009   2.080 -0.4800  1.2913 -0.5201
    7MOL0     H  922   8.751   4.936   2.090  0.0246  3.8233 -1.4260
    7MOL0     H  923   8.869   4.844   1.989 -2.7102  1.4328 -1.1863
    7MOL0     H  924   8.669   4.722   2.071 -0.8854  0.1036  1.2537
    7MOL0     H  925   8.519   4.605   2.026 -1.1446 -1.1596 -0.3930
    7MOL0     H  926   8.422   4.552   2.157 -0.5153  1.3800 -1.3400
    7MOL0     H  927   8.522   4.435   2.044  0.7950  0.6107 -0.2688
    7MOL0     H  928   8.452   4.184   2.220  2.9783  2.5785  2.7054
    7MOL0     H  929   8.287   3.994   2.228 -1.5644 -1.1600  1.5059
    7MOL0     H  930   7.944   4.068   2.510 -1.4516 -0.2694 -2.3254
    7MOL0     H  931   7.907   3.899   2.465 -0.2951  0.1546 -0.5818
    7MOL0     H  932   8.101   3.966   2.687 -0.9332 -0.8742  1.9168
    7MOL0     H  933   7.930   3.907   2.705 -2.2267 -0.7089 -1.9275
    7MOL0     H  934   8.164   3.756   2.609  0.0454 -1.6874  1.2932
    7MOL0     H  935   7.996   3.703   2.603 -0.6320 -0.8887  0.5263
    7MOL0     H  936   7.993   3.763   2.855 -1.2443  2.0465 -3.1524
    7MOL0     H  937   8.176   3.781   2.844 -1.5361  0.1526  3.3762
    7MOL0     H  938   8.101   3.556   2.937 -3.9127 -1.1158 -0.7698
    7MOL0     H  939   8.006   3.537   2.796 -1.7497 -1.6837  5.1088
    7MOL0     H  940   8.321   3.587   2.796  0.3938 -0.2926  0.7631
    7MOL0     H  941   8.234   3.543   2.656  4.4352  2.3482  0.9508
    7MOL0     H  942   8.190   3.324   2.820 -0.4692  0.9532 -0.8334
    7MOL0     H  943   8.332   3.391   2.893 -0.0197  0.3268 -1.6722
    7MOL0     H  944   8.455   3.357   2.705  0.0623  0.0037 -0.0771
    7MOL0     H  945   8.329   3.337   2.592 -1.6404 -0.0352  0.3612
    7MOL0     H  946   8.162   4.122   2.613 -1.5767 -2.3202 -0.1026
    7MOL0     H  947   8.292   4.339   2.579 -0.4077  1.6907 -2.1397
    7MOL0     H  948   8.800   4.475   2.480  1.5423 -0.2207 -0.0922
    7MOL0     H  949   8.939   4.674   2.399  0.2204  2.2085 -1.3411
    7MOL0     H  950   9.818   4.492   3.035  1.2854 -1.0077  2.6850
    7MOL0     H  951   9.906   4.307   3.185 -2.7627 -0.8159  0.7423
    7MOL0     H  952  10.062   3.927   3.266  0.2249 -0.9021 -2.0795
    7MOL0     H  953  10.157   3.802   3.449  4.7184 -0.7154  4.0625
    7MOL0     H  954  10.273   3.762   3.629 -1.6565 -3.1132 -0.9642
    7MOL0     H  955  10.314   3.634   3.530 -1.2614  2.4662 -3.9710
    7MOL0     H  956  10.476   3.733   3.766 -0.9962 -0.0183 -0.4700
    7MOL0     H  957  10.568   3.649   3.645 -0.6423 -1.2410 -1.0478
    7MOL0     H  958  10.328   3.525   3.781  0.5250  1.7269  1.8252
    7MOL0     H  959  10.441   3.449   3.668  2.8753  0.8945 -0.6159
    7MOL0     H  960  10.621   3.507   3.830 -1.2459  0.3797 -0.1223
    7MOL0     H  961  10.493   3.380   3.882  1.8500 -1.8196  0.2883
    7MOL0     H  962  10.470   3.653   4.191  0.0198  0.3554 -0.5107
    7MOL0     H  963  10.548   3.953   3.346 -0.1461 -2.3185  0.2619
    7MOL0     H  964  10.445   4.144   3.032 -1.3423  1.8631  0.6879
    7MOL0     H  965  10.520   4.177   3.187  1.4738  1.5746 -2.5765
    7MOL0     H  966  10.568   4.036   3.105 -1.8222 -2.3845  0.6852
    8MOL0     O  967   5.549   0.222  11.511 -0.6160  0.3968  0.6989
    8MOL0     C  968   5.437   0.169  11.522  0.3601 -0.6179  0.8766
    8MOL0     O  969   5.326   0.226  11.582  0.3981  0.1357  0.2097
    8MOL0     C  970   5.302   0.363  11.597 -0.4101 -0.6807 -0.8102
    8MOL0     C  971   5.222   0.432  11.509 -0.3561 -0.3510 -0.1561
    8MOL0     C  972   5.182   0.564  11.539  0.1549  0.5146  0.0780
    8MOL0     C  973   5.235   0.626  11.657  0.3174  0.4246 -1.1748
    8MOL0     O  974   5.217   0.759  11.664  0.0218  0.3094  0.2635
    8MOL0     C  975   5.094   0.825  11.613 -0.5889  0.1974 -1.6468
    8MOL0     C  976   5.084   0.974  11.654 -0.2445 -0.0394  0.4432
    8MOL0     C  977   5.034   0.997  11.790 -0.1349 -1.2859 -0.1345
    8MOL0     C  978   4.989   1.148  11.805  0.1894  1.0211  0.7895
    8MOL0     C  979   4.962   1.188  11.951  0.4871 -0.2054 -0.6002
    8MOL0     C  980   4.830   1.158  12.024 -0.5015 -0.2507 -0.0732
    8MOL0     C  981   4.814   1.218  12.162  0.3858  0.5335  0.8184
    8MOL0     C  982   4.892   1.139  12.270  0.1267 -1.1846  0.4193
    8MOL0     N  983   4.853   1.161  12.407 -0.3814 -0.3818  0.0331
    8MOL0     C  984   4.911   1.259  12.491  0.5308  0.2288 -1.4941
    8MOL0     C  985   4.910   1.201  12.613  0.0520 -0.1575  0.2044
    8MOL0     C  986   4.988   1.276  12.726  0.0231 -0.4923  0.4430
    8MOL0     C  987   4.892   1.373  12.791 -0.1231 -1.0163 -0.3221
    8MOL0     C  988   4.769   1.303  12.853  0.7108 -0.0088  0.6241
    8MOL0     C  989   4.645   1.305  12.768 -0.5070 -0.0468  0.8096
    8MOL0     O  990   4.613   1.445  12.750 -0.2054 -0.2734  0.1744
    8MOL0     C  991   4.505   1.485  12.681  0.4957  0.4442 -0.0593
    8MOL0     C  992   4.497   1.615  12.660  0.8079  0.5178 -0.7517
    8MOL0     C  993   4.405   1.671  12.570 -0.7261 -0.1487 -1.1151
    8MOL0     C  994   4.403   1.826  12.564  0.0677  0.0207 -0.0133
    8MOL0     C  995   4.319   1.591  12.504  0.2781  0.0825  0.5535
    8MOL0     C  996   4.205   1.637  12.430 -0.0916  0.8640 -0.0162
    8MOL0     O  997   4.143   1.543  12.345 -0.4246 -1.6819 -0.7443
    8MOL0     C  998   4.025   1.589  12.293  0.3331  0.3277 -0.0480
    8MOL0     C  999   4.030   1.643  12.165 -0.8505 -0.2091  0.2965
    8MOL0     C 1000   3.907   1.679  12.104  0.6293 -0.5691  0.6501
    8MOL0     C 1001   3.779   1.684  12.176 -0.5147 -0.3649 -0.0655
    8MOL0     O 1002   3.671   1.733  12.116 -0.4926 -0.2429  0.6058
    8MOL0     C 1003   3.567   1.783  12.202 -0.2257 -0.4488  0.2998
    8MOL0     C 1004   3.443   1.824  12.118 -0.0316  0.7290 -0.5042
    8MOL0     C 1005   3.487   1.936  12.017  0.5248 -0.1639 -0.3481
    8MOL0     C 1006   3.361   2.007  11.958 -0.1130  0.4474 -0.3151
    8MOL0     C 1007   3.412   2.111  11.852  0.5163  0.5198  0.5519
    8MOL0     C 1008   3.406   2.049  11.713 -0.6764  0.3342 -0.2851
    8MOL0     C 1009   3.448   2.149  11.600  0.3530 -0.1362 -0.3300
    8MOL0     C 1010   3.434   2.079  11.460  0.2343  0.0809 -0.4017
    8MOL0    Cl 1011   3.576   1.967  11.464 -0.3901  0.0605  0.2580
    8MOL0     C 1012   3.781   1.624  12.303  0.3805  0.2364  0.8648
    8MOL0     C 1013   3.903   1.576  12.352  0.3549  1.2030  0.5101
    8MOL0     O 1014   4.162   1.752  12.448  0.5100 -0.4614  0.5045
    8MOL0     C 1015   4.331   1.447  12.514  0.7807  0.2360 -0.1354
    8MOL0     C 1016   4.416   1.393  12.615  0.2377  0.5182  0.3904
    8MOL0     N 1017   4.852   1.087  12.606  0.0932  0.3193  0.0765
    8MOL0     N 1018   4.810   1.062  12.487 -0.0454 -0.1785 -0.4028
    8MOL0     C 1019   5.324   0.557  11.743 -0.2840  0.4417  0.0100
    8MOL0     C 1020   5.362   0.424  11.707  0.1805 -0.0233  0.3695
    8MOL0     C 1021   5.435   0.036  11.468 -0.2014 -0.1905  0.7307
    8MOL0     C 1022   5.561  -0.033  11.459 -0.1274  0.0607 -0.0279
    8MOL0     C 1023   5.577  -0.158  11.408  0.5056  0.5842 -0.3037
    8MOL0     C 1024   5.463  -0.233  11.374 -0.1580 -0.1739 -0.0297
    8MOL0     O 1025   5.460  -0.357  11.321  0.9061 -0.0670 -0.0319
    8MOL0     C 1026   5.577  -0.430  11.341  0.5969 -0.4218  0.6491
    8MOL0     C 1027   5.560  -0.580  11.292  0.1288  0.1736 -0.3935
    8MOL0     C 1028   5.557  -0.676  11.409  0.0024 -0.2063  0.4294
    8MOL0     C 1029   5.537  -0.821  11.365  0.3189 -0.0952 -0.2754
    8MOL0     C 1030   5.669  -0.876  11.312  0.1803 -1.0084  0.1421
    8MOL0     C 1031   5.774  -0.906  11.259 -0.6945 -0.2183 -0.0644
    8MOL0     C 1032   5.342  -0.171  11.382  0.7823  0.0081  0.2291
    8MOL0     C 1033   5.322  -0.046  11.437 -0.3202  0.2317 -0.5304
    8MOL0     C 1034   5.178   0.007  11.435  0.2437 -0.1248  0.2660
    8MOL0     H 1035   5.176   0.387  11.422  1.4496 -2.1786 -0.2625
    8MOL0     H 1036   5.123   0.607  11.458  1.2433  2.7763  0.4172
    8MOL0     H 1037   5.004   0.774  11.649 -0.9632  1.0280 -1.3724
    8MOL0     H 1038   5.094   0.824  11.503 -1.4619  1.7462 -1.6941
    8MOL0     H 1039   5.180   1.025  11.642 -1.0140  1.1972 -0.6828
    8MOL0     H 1040   5.005   1.022  11.596  0.7996 -0.4349 -1.4101
    8MOL0     H 1041   4.943   0.938  11.803 -1.4545  0.0685 -2.5957
    8MOL0     H 1042   5.106   0.967  11.867 -1.5678 -2.0697  0.9521
    8MOL0     H 1043   5.072   1.204  11.760 -0.0501  1.0413  0.3619
    8MOL0     H 1044   4.899   1.168  11.744  0.6034  1.3349  0.2688
    8MOL0     H 1045   4.978   1.296  11.949  0.1469  0.2084  4.4236
    8MOL0     H 1046   5.044   1.144  12.008  0.5899 -0.7522 -1.1568
    8MOL0     H 1047   4.752   1.195  11.958 -2.1397 -0.8235  1.4745
    8MOL0     H 1048   4.816   1.049  12.018 -0.7840 -0.2672  0.7889
    8MOL0     H 1049   4.710   1.201  12.191  0.2655 -1.0379 -0.3979
    8MOL0     H 1050   4.828   1.326  12.156  1.2225  0.3908  0.0682
    8MOL0     H 1051   4.863   1.037  12.245 -1.5300 -0.8469  0.8205
    8MOL0     H 1052   4.995   1.163  12.244 -0.3161 -2.0718 -2.4966
    8MOL0     H 1053   4.959   1.354  12.470  0.1293  0.7149 -0.2777
    8MOL0     H 1054   5.076   1.330  12.689 -1.0934  1.5503  0.5728
    8MOL0     H 1055   4.999   1.199  12.802  0.5654 -0.3019  0.5647
    8MOL0     H 1056   4.947   1.410  12.878 -1.2861 -2.4481  1.0779
    8MOL0     H 1057   4.866   1.462  12.733  1.2984 -0.6480 -0.4392
    8MOL0     H 1058   4.799   1.199  12.870 -0.6208 -0.6871 -0.9395
    8MOL0     H 1059   4.741   1.361  12.941  1.6164  1.1989  0.1519
    8MOL0     H 1060   4.662   1.249  12.676  1.8287  0.7729  0.6618
    8MOL0     H 1061   4.563   1.252  12.817 -0.4815  2.3906  3.8570
    8MOL0     H 1062   4.568   1.677  12.714  1.2587  0.2686 -1.0466
    8MOL0     H 1063   4.356   1.862  12.472  0.0375  0.7382  0.2769
    8MOL0     H 1064   4.502   1.870  12.553  0.0222  0.1873  0.2447
    8MOL0     H 1065   4.348   1.875  12.645 -0.1577 -0.1873 -0.0406
    8MOL0     H 1066   4.124   1.651  12.111 -1.7362 -0.4770 -1.3513
    8MOL0     H 1067   3.920   1.703  11.999  0.8951 -1.2476  0.5215
    8MOL0     H 1068   3.521   1.705  12.263 -1.0116 -0.8747 -0.8003
    8MOL0     H 1069   3.601   1.863  12.267  0.0896  0.0694 -0.4858
    8MOL0     H 1070   3.404   1.732  12.073 -0.0109  0.3483  0.2509
    8MOL0     H 1071   3.373   1.865  12.191  1.2007 -1.1177  1.8556
    8MOL0     H 1072   3.546   1.891  11.937 -2.0719  1.6244 -3.5153
    8MOL0     H 1073   3.549   2.015  12.060  0.3956  1.5925 -3.1740
    8MOL0     H 1074   3.305   2.054  12.038  2.0181 -0.8126  2.0973
    8MOL0     H 1075   3.307   1.920  11.919  1.9358 -0.2514 -1.8378
    8MOL0     H 1076   3.344   2.197  11.855 -0.9981 -0.6332  1.3672
    8MOL0     H 1077   3.508   2.152  11.882  0.9975 -0.5626  0.5260
    8MOL0     H 1078   3.308   2.007  11.686 -0.5900  0.8422 -1.4303
    8MOL0     H 1079   3.477   1.966  11.708  1.1782  1.9089 -1.3611
    8MOL0     H 1080   3.547   2.194  11.614  0.1251  0.7693 -1.4920
    8MOL0     H 1081   3.378   2.233  11.597  2.0451  1.3026 -1.2342
    8MOL0     H 1082   3.451   2.147  11.376  1.1917  0.2850 -0.0548
    8MOL0     H 1083   3.340   2.024  11.454 -0.6127  1.4533 -0.1708
    8MOL0     H 1084   3.693   1.601  12.362 -0.2734 -3.0394 -1.1144
    8MOL0     H 1085   3.895   1.529  12.449  1.0535 -0.7322 -0.3173
    8MOL0     H 1086   4.272   1.371  12.464  3.2512 -1.3884 -0.7483
    8MOL0     H 1087   4.421   1.286  12.633  0.1935  0.3153 -0.7644
    8MOL0     H 1088   5.379   0.592  11.830  0.8607 -0.6907 -0.2296
    8MOL0     H 1089   5.429   0.374  11.776  0.7841 -0.3500 -0.4367
    8MOL0     H 1090   5.649   0.022  11.489 -0.1686  1.1721 -1.8342
    8MOL0     H 1091   5.678  -0.196  11.411 -0.2578 -1.5743  1.9521
    8MOL0     H 1092   5.643  -0.376  11.273 -0.0675 -1.5064 -0.9006
    8MOL0     H 1093   5.621  -0.441  11.441 -0.2788 -2.7519  0.8556
    8MOL0     H 1094   5.635  -0.619  11.222  0.8683 -1.4547  1.1957
    8MOL0     H 1095   5.467  -0.592  11.236 -0.4684  0.3023  0.5498
    8MOL0     H 1096   5.639  -0.679  11.480 -0.4021 -4.9126  1.0350
    8MOL0     H 1097   5.470  -0.646  11.468 -0.1742 -0.7047  0.4256
    8MOL0     H 1098   5.458  -0.823  11.289 -0.2422  0.0581  0.2957
    8MOL0     H 1099   5.508  -0.884  11.450 -4.3373  0.6360 -1.0508
    8MOL0     H 1100   5.864  -0.957  11.230  0.9900 -0.8958  5.1859
    8MOL0     H 1101   5.249  -0.222  11.358  0.3514  0.3029  1.2047
    8MOL0     H 1102   5.188   0.113  11.411  1.9767  0.0157  1.4406
    8MOL0     H 1103   5.116  -0.033  11.355 -0.6244 -1.5296  1.5927
    8MOL0     H 1104   5.120  -0.020  11.524 -1.4612 -1.2077 -1.1111
    9MOL0     O 1105   2.479   5.439   6.303  0.7403  0.7489 -0.0241
    9MOL0     C 1106   2.425   5.327   6.311 -1.0387  0.0805  0.5511
    9MOL0     O 1107   2.286   5.295   6.324 -0.2731  0.2172 -0.0211
    9MOL0     C 1108   2.201   5.394   6.272 -0.2437  0.3449  1.0407
    9MOL0     C 1109   2.212   5.427   6.140  0.5120 -1.4806 -0.6037
    9MOL0     C 1110   2.132   5.538   6.090 -0.2127  0.1881  0.5265
    9MOL0     C 1111   2.037   5.605   6.162  0.3708 -0.6375 -1.6541
    9MOL0     O 1112   1.963   5.704   6.107  0.0751  0.0653  0.4501
    9MOL0     C 1113   1.879   5.791   6.190 -0.2256  0.7713 -0.5357
    9MOL0     C 1114   1.781   5.870   6.100  0.7999 -0.2586  0.6694
    9MOL0     C 1115   1.812   6.019   6.087 -0.0368 -0.2011  0.0270
    9MOL0     C 1116   1.690   6.082   6.030  0.9234 -0.0784  0.0792
    9MOL0     C 1117   1.697   6.231   5.994  0.2694  0.5125 -0.0387
    9MOL0     C 1118   1.639   6.316   6.102  0.5617 -0.0479 -0.1209
    9MOL0     C 1119   1.696   6.306   6.239  0.7356 -0.2242 -0.9306
    9MOL0     C 1120   1.845   6.363   6.250  1.2626 -0.1375 -0.2313
    9MOL0     N 1121   1.893   6.390   6.392  0.5949  0.2022 -0.1873
    9MOL0     C 1122   1.821   6.378   6.506 -0.3320  0.5374 -0.2932
    9MOL0     C 1123   1.906   6.390   6.611 -0.3855  0.1960  0.3588
    9MOL0     C 1124   1.872   6.374   6.750  0.7194  0.2520 -0.8020
    9MOL0     C 1125   1.762   6.266   6.759 -0.7259 -0.4314 -0.5027
    9MOL0     C 1126   1.743   6.248   6.912  0.2936 -1.2629 -0.8826
    9MOL0     C 1127   1.608   6.187   6.943  0.4238 -0.0496  0.1093
    9MOL0     O 1128   1.495   6.269   6.906 -0.0456 -0.2569  0.5074
    9MOL0     C 1129   1.363   6.222   6.898 -0.3769  0.2730  0.8132
    9MOL0     C 1130   1.334   6.109   6.967 -0.9026  0.1561  0.4460
    9MOL0     C 1131   1.216   6.040   6.953 -0.4569  0.6761  0.1781
    9MOL0     C 1132   1.188   5.916   7.043  0.4712  0.1029  0.3091
    9MOL0     C 1133   1.110   6.097   6.878  0.1498 -0.3814 -0.2325
    9MOL0     C 1134   0.975   6.036   6.855  0.8581  0.1361  0.5275
    9MOL0     O 1135   0.872   6.112   6.809 -0.1820 -0.2080 -0.1292
    9MOL0     C 1136   0.738   6.062   6.799  0.1452  0.3329  0.2218
    9MOL0     C 1137   0.687   6.033   6.676 -0.0398 -0.4572  0.7824
    9MOL0     C 1138   0.559   6.000   6.646  0.1116  0.6886 -0.3117
    9MOL0     C 1139   0.468   5.973   6.756 -0.4066 -0.1159 -0.1790
    9MOL0     O 1140   0.337   5.936   6.737 -0.8357 -0.3476  0.1436
    9MOL0     C 1141   0.307   5.800   6.698 -0.3238  0.4943  0.2243
    9MOL0     C 1142   0.315   5.710   6.816 -0.0987  1.3224 -0.7873
    9MOL0     C 1143   0.192   5.739   6.898  1.2759  1.1642  0.3255
    9MOL0     C 1144   0.185   5.658   7.031 -0.5077  0.0912  0.2389
    9MOL0     C 1145   0.091   5.725   7.124 -0.9088  0.4204 -0.1624
    9MOL0     C 1146   0.164   5.820   7.220 -0.1212  0.6732  0.0165
    9MOL0     C 1147   0.088   5.950   7.246  0.3140 -0.1920 -0.3348
    9MOL0     C 1148   0.081   6.032   7.123  0.1755 -0.1921 -0.0833
    9MOL0    Cl 1149   0.016   6.197   7.166 -0.2874  0.0495 -0.4221
    9MOL0     C 1150   0.518   6.000   6.888 -0.1212  0.0720 -0.5002
    9MOL0     C 1151   0.649   6.047   6.905 -0.1316 -0.0932 -0.2191
    9MOL0     O 1152   0.963   5.920   6.885 -0.4390 -0.3134 -0.5064
    9MOL0     C 1153   1.138   6.219   6.808 -0.3328 -0.0722  0.6244
    9MOL0     C 1154   1.261   6.278   6.813  0.4626  0.1130 -0.0421
    9MOL0     N 1155   2.031   6.427   6.558 -0.1934 -0.5528  0.1546
    9MOL0     N 1156   2.020   6.416   6.427  0.6367 -0.4786 -0.1108
    9MOL0     C 1157   2.025   5.560   6.300 -0.0620  0.3481  0.5421
    9MOL0     C 1158   2.101   5.449   6.349  0.1404  0.4697 -0.4706
    9MOL0     C 1159   2.509   5.210   6.331  0.7739  0.2283  0.8622
    9MOL0     C 1160   2.508   5.161   6.456  0.4827  0.6529 -0.5845
    9MOL0     C 1161   2.588   5.046   6.490  0.0340  0.3763  0.4635
    9MOL0     C 1162   2.650   4.972   6.386 -0.7030 -0.6919  0.1545
    9MOL0     O 1163   2.714   4.854   6.421  0.4671 -0.0075 -0.1544
    9MOL0     C 1164   2.719   4.756   6.323 -0.6828  0.6523  0.7438
    9MOL0     C 1165   2.793   4.634   6.372 -1.0575  0.1458 -0.6614
    9MOL0     C 1166   2.937   4.655   6.427 -0.0088 -0.1833 -0.2272
    9MOL0     C 1167   2.950   4.665   6.584 -0.1783  0.1688 -0.0575
    9MOL0     C 1168   2.972   4.523   6.631 -0.4826 -0.0595  0.3184
    9MOL0     C 1169   2.980   4.406   6.654  0.1299  0.2736 -0.1462
    9MOL0     C 1170   2.643   5.025   6.253 -0.8529  0.0378  0.2303
    9MOL0     C 1171   2.579   5.143   6.225 -0.2492 -0.9797 -0.0328
    9MOL0     C 1172   2.584   5.201   6.092 -0.1160 -0.3837  0.2647
    9MOL0     H 1173   2.284   5.385   6.070  0.5217  3.3250 -3.9540
    9MOL0     H 1174   2.139   5.565   5.985  1.6053  2.3992  1.1129
    9MOL0     H 1175   1.937   5.875   6.230 -0.1502 -0.2198  1.5681
    9MOL0     H 1176   1.833   5.744   6.277  3.2443  0.8321  1.5471
    9MOL0     H 1177   1.766   5.832   5.999 -0.1287  1.0914  0.2718
    9MOL0     H 1178   1.686   5.856   6.153 -0.0288  2.6282  0.1135
    9MOL0     H 1179   1.844   6.073   6.176 -0.6621  2.9465 -1.4967
    9MOL0     H 1180   1.896   6.016   6.017 -1.1534 -0.8142 -1.3609
    9MOL0     H 1181   1.679   6.028   5.936 -0.7767 -1.8168  1.2192
    9MOL0     H 1182   1.606   6.063   6.096  0.3327  1.3731 -0.2126
    9MOL0     H 1183   1.641   6.256   5.904 -1.7571  1.3839  1.3805
    9MOL0     H 1184   1.800   6.263   5.977  0.7530 -0.8289  0.2098
    9MOL0     H 1185   1.650   6.421   6.072  0.4315  0.4137  1.3872
    9MOL0     H 1186   1.532   6.297   6.104  0.8592 -2.0380  3.2478
    9MOL0     H 1187   1.709   6.202   6.268  0.5840  0.5106  2.1171
    9MOL0     H 1188   1.634   6.350   6.318  0.6389 -2.9184  0.5891
    9MOL0     H 1189   1.911   6.295   6.196  2.0965  1.8696 -1.8853
    9MOL0     H 1190   1.857   6.451   6.186  5.2755 -1.6086 -1.7859
    9MOL0     H 1191   1.722   6.334   6.507 -1.4042  2.7230  2.2813
    9MOL0     H 1192   1.855   6.475   6.787  1.0428 -0.4882  1.5048
    9MOL0     H 1193   1.956   6.336   6.808 -1.7693 -2.0035  1.5843
    9MOL0     H 1194   1.676   6.300   6.701 -1.4939 -2.6638 -0.7325
    9MOL0     H 1195   1.798   6.173   6.714 -1.1808 -3.7909  5.1373
    9MOL0     H 1196   1.820   6.186   6.959  1.8004  1.4785  0.5137
    9MOL0     H 1197   1.746   6.348   6.955 -1.4890 -0.4660 -2.4733
    9MOL0     H 1198   1.609   6.088   6.896 -3.2344  0.5480 -1.6175
    9MOL0     H 1199   1.611   6.183   7.052 -0.0305  0.9752  0.1777
    9MOL0     H 1200   1.420   6.086   7.030  1.2413  2.6968 -1.3213
    9MOL0     H 1201   1.086   5.909   7.080  0.5976  2.4947  1.3227
    9MOL0     H 1202   1.262   5.912   7.124  1.3648  0.0875 -0.4876
    9MOL0     H 1203   1.206   5.825   6.985  0.8434 -0.5885  1.4862
    9MOL0     H 1204   0.752   6.038   6.589  2.4919 -0.3549  2.5741
    9MOL0     H 1205   0.523   5.978   6.546  1.5178 -0.6812 -0.5616
    9MOL0     H 1206   0.212   5.788   6.645 -0.4173  0.5989  0.3675
    9MOL0     H 1207   0.380   5.770   6.623 -0.6867 -1.2227  0.5279
    9MOL0     H 1208   0.326   5.605   6.786 -2.5723  1.0041 -0.7383
    9MOL0     H 1209   0.407   5.725   6.875  1.8148 -0.0311 -3.2295
    9MOL0     H 1210   0.095   5.726   6.850  2.0663 -1.8730 -0.6499
    9MOL0     H 1211   0.198   5.845   6.926 -4.0871  1.6777  0.5881
    9MOL0     H 1212   0.286   5.662   7.072 -0.6899 -0.9913  0.8528
    9MOL0     H 1213   0.149   5.558   7.002 -1.2494  1.3508 -3.7173
    9MOL0     H 1214   0.012   5.770   7.064 -1.1617  0.1409 -0.0426
    9MOL0     H 1215   0.056   5.645   7.190 -1.5349 -0.8513 -1.9472
    9MOL0     H 1216   0.264   5.846   7.185 -0.8098  0.8028 -1.9639
    9MOL0     H 1217   0.176   5.772   7.318  2.1794  2.1878  0.5524
    9MOL0     H 1218   0.139   6.016   7.317  0.7998 -1.2805  0.3626
    9MOL0     H 1219  -0.006   5.924   7.296  0.6710 -0.0423  0.4277
    9MOL0     H 1220   0.011   5.985   7.054  0.9158 -4.9919  2.0405
    9MOL0     H 1221   0.177   6.047   7.073  2.3335 -0.0385  3.6911
    9MOL0     H 1222   0.464   5.985   6.981  1.2542 -0.0961  0.3013
    9MOL0     H 1223   0.689   6.061   7.004  0.5462 -0.0973 -0.4900
    9MOL0     H 1224   1.067   6.249   6.732  0.4729 -2.0624 -1.0167
    9MOL0     H 1225   1.285   6.364   6.751  0.1076  0.5549  0.4335
    9MOL0     H 1226   1.947   5.599   6.365 -3.6586 -3.9533 -0.7272
    9MOL0     H 1227   2.092   5.421   6.453  0.5432  2.0745  0.0392
    9MOL0     H 1228   2.459   5.202   6.543  1.7221 -0.9139  0.9125
    9MOL0     H 1229   2.589   5.008   6.592 -0.0888  1.2808  0.8097
    9MOL0     H 1230   2.627   4.727   6.271  1.7581 -3.8949 -1.6001
    9MOL0     H 1231   2.775   4.804   6.243  1.6458 -0.4090  1.6334
    9MOL0     H 1232   2.792   4.557   6.293  2.5437 -1.0991  0.3241
    9MOL0     H 1233   2.735   4.597   6.457  4.3840 -0.5729  3.2341
    9MOL0     H 1234   3.010   4.581   6.392  2.3444  0.4201  3.0281
    9MOL0     H 1235   2.977   4.748   6.386 -2.9138  0.6473 -1.4356
    9MOL0     H 1236   2.864   4.709   6.635  1.3036  2.3658  0.6794
    9MOL0     H 1237   3.036   4.724   6.616  0.2689 -0.6407  0.2796
    9MOL0     H 1238   2.982   4.300   6.672 -1.2010  0.1770 -0.3964
    9MOL0     H 1239   2.697   4.979   6.171  1.2564 -0.0790  1.5976
    9MOL0     H 1240   2.651   5.147   6.026 -0.1084 -1.9179  1.4587
    9MOL0     H 1241   2.484   5.199   6.047  0.1242 -0.9855 -0.2457
    9MOL0     H 1242   2.642   5.294   6.097  0.5551 -0.8173  0.6586
   10MOL0     O 1243   1.564  11.409  10.610 -0.4452  0.1048  0.3552
   10MOL0     C 1244   1.492  11.507  10.609  0.0998 -0.0447  0.3246
   10MOL0     O 1245   1.525  11.637  10.598  0.2816  0.1426 -0.6798
   10MOL0     C 1246   1.665  11.667  10.599  1.1927 -0.3076  0.0720
   10MOL0     C 1247   1.746  11.640  10.707 -0.0930  0.1218 -0.3920
   10MOL0     C 1248   1.887  11.667  10.705  1.0290  0.2689 -0.7452
   10MOL0     C 1249   1.943  11.714  10.590 -0.4561 -1.3114 -0.1648
   10MOL0     O 1250   2.072  11.743  10.564  0.5294 -0.9481 -0.4127
   10MOL0     C 1251   2.129  11.823  10.670  0.0210 -0.6052 -0.1889
   10MOL0     C 1252   2.244  11.919  10.625 -0.3025 -0.4489 -0.6641
   10MOL0     C 1253   2.195  12.035  10.545 -0.2925  0.8361  0.8921
   10MOL0     C 1254   2.091  12.120  10.610 -0.8559  0.5283 -0.9696
   10MOL0     C 1255   2.068  12.253  10.533  0.2101  0.7559 -0.5953
   10MOL0     C 1256   1.964  12.359  10.591  0.3751  0.1611  0.1702
   10MOL0     C 1257   1.984  12.407  10.734 -0.5774  0.0317 -0.6461
   10MOL0     C 1258   1.875  12.502  10.774 -0.6608 -0.0877  0.4052
   10MOL0     N 1259   1.740  12.463  10.744  0.3534 -0.2738 -0.5492
   10MOL0     C 1260   1.641  12.413  10.830  0.0616  0.5026 -0.4325
   10MOL0     C 1261   1.525  12.418  10.752 -0.5704 -0.5180  0.2459
   10MOL0     C 1262   1.400  12.369  10.817  0.1708  0.8883  0.2371
   10MOL0     C 1263   1.297  12.334  10.721 -0.0272 -0.1582 -0.8007
   10MOL0     C 1264   1.164  12.299  10.790 -1.0769 -0.1709 -0.0498
   10MOL0     C 1265   1.055  12.262  10.688  0.5888 -0.1095 -0.3141
   10MOL0     O 1266   0.946  12.220  10.775 -0.3061 -0.4171 -0.4647
   10MOL0     C 1267   0.836  12.173  10.711  0.0629  0.4758 -0.2582
   10MOL0     C 1268   0.832  12.106  10.588  0.1598  0.8194  0.2408
   10MOL0     C 1269   0.710  12.039  10.545  0.8040 -1.1172 -0.4680
   10MOL0     C 1270   0.705  11.962  10.422  0.5696 -0.2184 -0.2145
   10MOL0     C 1271   0.597  12.054  10.631  0.0334  0.0044  0.7666
   10MOL0     C 1272   0.463  12.003  10.589 -0.7094 -0.4514 -0.4670
   10MOL0     O 1273   0.405  11.909  10.663 -0.3094  0.0472  0.8239
   10MOL0     C 1274   0.274  11.923  10.700 -0.2874 -0.0803  0.1549
   10MOL0     C 1275   0.206  12.048  10.745  0.1681 -0.3983 -0.6354
   10MOL0     C 1276   0.064  12.038  10.766  0.2780 -0.7894 -0.2765
   10MOL0     C 1277  -0.010  11.919  10.752  0.2698  0.0439  0.1036
   10MOL0     O 1278  -0.139  11.941  10.793 -0.5165  0.1238  1.4892
   10MOL0     C 1279  -0.229  11.872  10.707  0.7493  0.8834  0.5711
   10MOL0     C 1280  -0.367  11.924  10.755 -0.7166  0.3857 -0.2032
   10MOL0     C 1281  -0.474  11.855  10.678 -0.7862 -0.0920 -0.0595
   10MOL0     C 1282  -0.601  11.870  10.758 -0.3708  0.0104  0.0999
   10MOL0     C 1283  -0.722  11.856  10.674 -0.0052 -1.1983 -0.0880
   10MOL0     C 1284  -0.843  11.866  10.760  0.0665 -0.5788  0.0135
   10MOL0     C 1285  -0.959  11.866  10.678  0.2224  0.8099  0.1402
   10MOL0     C 1286  -1.081  11.850  10.766  0.7039  0.6525 -0.3607
   10MOL0    Cl 1287  -1.228  11.828  10.662 -0.3960  0.2122  0.0276
   10MOL0     C 1288   0.056  11.804  10.708  0.5040  0.8044  0.5337
   10MOL0     C 1289   0.194  11.811  10.688  0.3189 -0.1762  0.4448
   10MOL0     O 1290   0.407  12.072  10.508 -0.4529 -0.7531 -0.6357
   10MOL0     C 1291   0.601  12.141  10.740 -0.4012 -0.4581 -0.1664
   10MOL0     C 1292   0.723  12.183  10.784  0.8360 -0.2890  0.7025
   10MOL0     N 1293   1.548  12.475  10.630  0.3050  0.6330 -0.7227
   10MOL0     N 1294   1.676  12.499  10.632 -0.3593  0.0054  0.3543
   10MOL0     C 1295   1.862  11.739  10.478  0.1023 -0.1661  0.4562
   10MOL0     C 1296   1.724  11.706  10.475  1.0303  0.8129 -0.6628
   10MOL0     C 1297   1.347  11.495  10.603  0.7320 -0.4072  0.2432
   10MOL0     C 1298   1.271  11.611  10.573  0.5236 -0.2609  0.2068
   10MOL0     C 1299   1.136  11.615  10.543 -0.1441 -0.6359 -0.5212
   10MOL0     C 1300   1.056  11.505  10.561 -0.2331  0.2598 -1.1028
   10MOL0     O 1301   0.919  11.494  10.545 -0.9736 -0.2693 -0.4317
   10MOL0     C 1302   0.849  11.589  10.480  0.6444  0.2131  0.1829
   10MOL0     C 1303   0.709  11.560  10.434 -0.1766  0.4547 -0.0537
   10MOL0     C 1304   0.617  11.540  10.555  0.1666  1.1561  0.5916
   10MOL0     C 1305   0.494  11.479  10.488 -0.1762 -1.3115 -0.1154
   10MOL0     C 1306   0.501  11.335  10.468  0.8646  0.6552 -0.2237
   10MOL0     C 1307   0.494  11.215  10.458  0.0668  0.2247 -0.5067
   10MOL0     C 1308   1.132  11.385  10.587 -0.6222  0.2589  0.4694
   10MOL0     C 1309   1.265  11.382  10.614 -0.5936 -0.1582  0.8148
   10MOL0     C 1310   1.317  11.255  10.666 -0.0268  0.0860  0.8073
   10MOL0     H 1311   1.714  11.584  10.795  0.7985 -0.6751 -0.5586
   10MOL0     H 1312   1.957  11.637  10.782 -0.0730 -1.0253 -0.2128
   10MOL0     H 1313   2.159  11.753  10.748  1.0576  1.1959  1.1008
   10MOL0     H 1314   2.050  11.888  10.709  1.1981  0.2025  0.8990
   10MOL0     H 1315   2.294  11.961  10.713 -0.0960 -0.7280 -0.6459
   10MOL0     H 1316   2.312  11.848  10.576  0.6778  1.7125 -2.6020
   10MOL0     H 1317   2.280  12.095  10.513  2.0524  0.4175  5.5148
   10MOL0     H 1318   2.147  12.012  10.449  1.0405  0.8898  0.1998
   10MOL0     H 1319   1.999  12.065  10.630  1.0022 -2.3345  0.4351
   10MOL0     H 1320   2.121  12.138  10.713 -2.7075 -1.7837  0.0752
   10MOL0     H 1321   2.056  12.224  10.429  1.0319 -1.1802 -0.2052
   10MOL0     H 1322   2.163  12.308  10.533  0.6267  0.0709 -1.4788
   10MOL0     H 1323   1.957  12.443  10.521  0.9265  2.1282  2.3537
   10MOL0     H 1324   1.867  12.310  10.586  0.1612  0.5408  0.5602
   10MOL0     H 1325   2.085  12.436  10.762 -1.4277  3.4345 -0.6468
   10MOL0     H 1326   1.968  12.327  10.806  2.5929 -1.0797 -1.0185
   10MOL0     H 1327   1.892  12.528  10.878  1.4343  2.4238 -0.4545
   10MOL0     H 1328   1.892  12.606  10.743 -1.2727 -0.3150 -0.7783
   10MOL0     H 1329   1.668  12.368  10.925  2.3447  1.2141 -0.6958
   10MOL0     H 1330   1.355  12.447  10.880 -0.9336  0.9620 -0.6025
   10MOL0     H 1331   1.434  12.288  10.881 -2.6619 -2.4764 -2.1460
   10MOL0     H 1332   1.280  12.408  10.643  1.4928  2.0266  0.8196
   10MOL0     H 1333   1.331  12.242  10.672  1.9349  1.6900 -3.1019
   10MOL0     H 1334   1.172  12.210  10.853 -1.6747 -0.8285 -0.8804
   10MOL0     H 1335   1.121  12.371  10.860 -1.1773  1.1948 -1.4659
   10MOL0     H 1336   1.021  12.357  10.645  0.2094 -0.4246 -0.7147
   10MOL0     H 1337   1.092  12.197  10.609  3.9606  0.7594  0.3945
   10MOL0     H 1338   0.914  12.101  10.517 -1.2397 -1.1759 -1.3691
   10MOL0     H 1339   0.655  11.865  10.429 -1.2470  0.7113  0.4839
   10MOL0     H 1340   0.810  11.942  10.399  1.2315  0.0190  2.2708
   10MOL0     H 1341   0.660  12.020  10.341 -0.7352  0.0755  0.6921
   10MOL0     H 1342   0.276  12.126  10.776  1.2416 -2.4460  2.6284
   10MOL0     H 1343   0.017  12.130  10.799  0.9112 -0.3171 -0.6610
   10MOL0     H 1344  -0.201  11.897  10.604  1.2284  0.6202  0.6355
   10MOL0     H 1345  -0.223  11.764  10.715 -1.6910  0.4913 -1.4241
   10MOL0     H 1346  -0.376  11.904  10.862  0.5081 -2.2143 -0.5143
   10MOL0     H 1347  -0.368  12.031  10.731  2.1432  0.7427  0.8600
   10MOL0     H 1348  -0.444  11.751  10.693  1.8335  0.9643  3.0166
   10MOL0     H 1349  -0.494  11.879  10.573 -1.2360  1.4559  0.3615
   10MOL0     H 1350  -0.602  11.967  10.808 -3.0407  0.8217 -1.3902
   10MOL0     H 1351  -0.596  11.796  10.839 -0.9815 -0.0740  0.0639
   10MOL0     H 1352  -0.725  11.938  10.602 -1.0072  0.0132  1.2824
   10MOL0     H 1353  -0.723  11.761  10.619  2.3185 -0.3078 -1.8093
   10MOL0     H 1354  -0.853  11.961  10.813 -3.1604 -1.5541  1.4133
   10MOL0     H 1355  -0.839  11.782  10.830  4.0395 -3.8560 -3.5518
   10MOL0     H 1356  -0.962  11.788  10.602  1.5322  0.3931  0.4988
   10MOL0     H 1357  -0.981  11.954  10.617 -2.4558  0.9779  1.1825
   10MOL0     H 1358  -1.090  11.929  10.841  2.0327 -0.7728  1.4289
   10MOL0     H 1359  -1.063  11.760  10.826  1.0416  2.0490  1.7637
   10MOL0     H 1360  -0.007  11.718  10.687  0.7497  0.4197  1.3519
   10MOL0     H 1361   0.257  11.726  10.665 -0.4158 -0.7911  0.6318
   10MOL0     H 1362   0.515  12.164  10.803  0.4729  0.9488  0.5762
   10MOL0     H 1363   0.739  12.228  10.881  0.0370  3.0319 -0.5564
   10MOL0     H 1364   1.899  11.770  10.381  1.1204  1.9591  1.4494
   10MOL0     H 1365   1.661  11.708  10.387 -1.3463 -0.1599  0.9169
   10MOL0     H 1366   1.309  11.712  10.566  0.2522 -0.1059  0.9013
   10MOL0     H 1367   1.101  11.710  10.503  0.5381 -0.0035  0.3270
   10MOL0     H 1368   0.853  11.672  10.552  0.4702 -0.1736  0.6389
   10MOL0     H 1369   0.905  11.630  10.396  0.6373 -0.6238 -0.2389
   10MOL0     H 1370   0.724  11.464  10.384 -1.3128 -2.4744  4.5713
   10MOL0     H 1371   0.669  11.637  10.367 -0.9000  0.8434  0.7923
   10MOL0     H 1372   0.661  11.484  10.638 -1.1457 -1.6618 -0.4805
   10MOL0     H 1373   0.600  11.640  10.597 -3.2805 -0.3745  3.2803
   10MOL0     H 1374   0.464  11.532  10.397 -0.8118  0.9288  1.3104
   10MOL0     H 1375   0.408  11.502  10.552 -1.6570  0.9367 -2.7000
   10MOL0     H 1376   0.515  11.112  10.435  0.7586  0.5339 -1.2895
   10MOL0     H 1377   1.089  11.285  10.586 -1.3033  0.3807 -4.0433
   10MOL0     H 1378   1.393  11.265  10.744 -1.9585  0.4440  2.7610
   10MOL0     H 1379   1.232  11.195  10.698  1.6280 -3.2488 -0.5529
   10MOL0     H 1380   1.368  11.194  10.591 -0.6892  0.9940 -0.4160
   11MOL0     O 1381   1.626   9.824   0.106 -0.5060 -0.2115 -0.3267
   11MOL0     C 1382   1.681   9.886   0.201 -0.4933 -0.4584  0.3375
   11MOL0     O 1383   1.749   9.816   0.305  0.2413  0.5998  0.5903
   11MOL0     C 1384   1.759   9.675   0.301 -0.6607 -0.4895 -0.7510
   11MOL0     C 1385   1.764   9.610   0.428  0.3053 -0.4992  0.2148
   11MOL0     C 1386   1.774   9.472   0.441  0.5253 -0.2499 -0.9501
   11MOL0     C 1387   1.765   9.391   0.325  0.5250  0.3522  0.2894
   11MOL0     O 1388   1.770   9.250   0.332 -0.1033 -0.3559  1.4278
   11MOL0     C 1389   1.688   9.178   0.423 -0.0783  0.7943  0.9119
   11MOL0     C 1390   1.744   9.039   0.432  0.8563 -0.3648 -0.3033
   11MOL0     C 1391   1.888   9.032   0.490  0.2564  0.1253  0.8042
   11MOL0     C 1392   1.982   8.974   0.387  0.0636  0.5037 -0.1706
   11MOL0     C 1393   2.136   8.996   0.410  0.2151  0.8265  0.0136
   11MOL0     C 1394   2.190   9.133   0.358  0.4842 -0.0872  0.8183
   11MOL0     C 1395   2.143   9.253   0.435  0.3567 -0.1520  0.1297
   11MOL0     C 1396   2.243   9.370   0.447 -0.5523  0.1831  0.0426
   11MOL0     N 1397   2.280   9.441   0.322  0.6933  0.0782  0.5625
   11MOL0     C 1398   2.198   9.537   0.267 -0.1561  1.2699  0.1400
   11MOL0     C 1399   2.263   9.578   0.155 -0.1202 -0.4542  0.1915
   11MOL0     C 1400   2.227   9.695   0.063 -0.4459  0.0350  0.8747
   11MOL0     C 1401   2.072   9.714   0.061  0.5183 -0.5466  0.4663
   11MOL0     C 1402   2.025   9.774  -0.071  1.1339  0.4693  0.8165
   11MOL0     C 1403   2.097   9.907  -0.109 -0.5242 -0.4106 -0.2416
   11MOL0     O 1404   2.006   9.961  -0.200  0.3983 -0.4693  1.0325
   11MOL0     C 1405   2.051  10.083  -0.253  0.3634  0.4776  0.0487
   11MOL0     C 1406   2.040  10.204  -0.184  0.5412 -0.3623 -0.3547
   11MOL0     C 1407   2.097  10.321  -0.228  0.5330  0.3360  0.2260
   11MOL0     C 1408   2.086  10.447  -0.138  0.2349  0.9178  0.2573
   11MOL0     C 1409   2.165  10.325  -0.354  0.4441  0.1707 -1.4541
   11MOL0     C 1410   2.227  10.445  -0.423  0.2414  0.6637 -0.2665
   11MOL0     O 1411   2.267  10.424  -0.556  0.8568 -0.0907  0.8291
   11MOL0     C 1412   2.355  10.507  -0.620  0.7163 -0.5717  0.1790
   11MOL0     C 1413   2.338  10.645  -0.621  0.0781  0.4252 -0.5698
   11MOL0     C 1414   2.429  10.720  -0.676  0.2587 -0.2794 -0.8442
   11MOL0     C 1415   2.540  10.665  -0.748 -0.1379  0.4185 -0.5913
   11MOL0     O 1416   2.632  10.743  -0.805 -0.8530 -0.1516  0.4914
   11MOL0     C 1417   2.615  10.886  -0.794 -0.1784 -0.7589  0.2449
   11MOL0     C 1418   2.719  10.968  -0.878 -0.0573 -0.1207  0.8434
   11MOL0     C 1419   2.866  10.927  -0.832 -0.1827  0.5084  0.0257
   11MOL0     C 1420   2.975  10.987  -0.920  0.3286  0.2000  0.0559
   11MOL0     C 1421   3.119  10.974  -0.862 -0.2420  0.2159 -1.1518
   11MOL0     C 1422   3.229  11.015  -0.957 -0.8774 -0.8860  0.9448
   11MOL0     C 1423   3.362  10.978  -0.903  0.4320  0.5346  0.0850
   11MOL0     C 1424   3.473  11.015  -0.997  0.2216  0.4840 -0.3636
   11MOL0    Cl 1425   3.455  11.189  -1.057  0.5096  0.0424  0.6884
   11MOL0     C 1426   2.549  10.525  -0.758 -0.1617 -0.2408  0.8292
   11MOL0     C 1427   2.463  10.452  -0.683  1.0707 -0.1144 -0.2665
   11MOL0     O 1428   2.234  10.551  -0.355  0.0746  0.2711 -0.2127
   11MOL0     C 1429   2.166  10.199  -0.427 -1.1025 -0.0433 -0.1084
   11MOL0     C 1430   2.117  10.079  -0.374 -0.0226  0.4803  0.9055
   11MOL0     N 1431   2.376   9.499   0.138  0.5053  0.2221  0.3207
   11MOL0     N 1432   2.383   9.415   0.238  0.6481 -0.2555 -0.3334
   11MOL0     C 1433   1.771   9.450   0.197 -0.4299  1.4716 -0.7224
   11MOL0     C 1434   1.771   9.591   0.189  0.5691  0.3860 -0.8845
   11MOL0     C 1435   1.662  10.040   0.210  0.1568  0.2244 -0.0689
   11MOL0     C 1436   1.637  10.114   0.331  0.0725  0.0844 -0.3665
   11MOL0     C 1437   1.596  10.246   0.334 -0.3094 -0.4367 -0.7301
   11MOL0     C 1438   1.579  10.315   0.208  0.0690 -0.3741  0.2764
   11MOL0     O 1439   1.532  10.439   0.210 -0.1199 -0.1239 -0.1787
   11MOL0     C 1440   1.502  10.512   0.091 -0.9576  0.8429  0.0722
   11MOL0     C 1441   1.452  10.646   0.127 -0.5676  0.7762 -0.1516
   11MOL0     C 1442   1.307  10.636   0.178 -0.0081  0.2833 -0.1934
   11MOL0     C 1443   1.246  10.757   0.258 -0.2660 -0.9731 -0.1147
   11MOL0     C 1444   1.115  10.732   0.324  0.0593 -0.0374  0.0868
   11MOL0     C 1445   1.009  10.736   0.381 -0.0428  1.0103 -0.2201
   11MOL0     C 1446   1.625  10.252   0.092  0.0623  0.0418  0.3292
   11MOL0     C 1447   1.657  10.119   0.082 -0.8306  0.0613 -0.7445
   11MOL0     C 1448   1.695  10.060  -0.047 -1.3042 -0.7244 -0.2728
   11MOL0     H 1449   1.761   9.657   0.526  0.4486 -1.1295  0.5303
   11MOL0     H 1450   1.774   9.421   0.537  0.3000 -0.9987 -1.3396
   11MOL0     H 1451   1.585   9.167   0.387  0.2281 -0.2933  0.3192
   11MOL0     H 1452   1.694   9.220   0.524 -2.3857  0.3688  1.3021
   11MOL0     H 1453   1.677   8.997   0.507 -0.6512  3.2509  0.6316
   11MOL0     H 1454   1.728   8.988   0.337 -0.1869  1.6239 -1.2558
   11MOL0     H 1455   1.911   9.134   0.522 -0.3593  0.6755 -0.4654
   11MOL0     H 1456   1.892   8.992   0.592 -0.6897 -0.2980  0.6871
   11MOL0     H 1457   1.965   8.867   0.400 -0.3131  0.2706 -2.2057
   11MOL0     H 1458   1.963   8.987   0.280 -1.9072 -0.2982  0.0431
   11MOL0     H 1459   2.176   8.910   0.356 -1.9350 -1.0165  1.1480
   11MOL0     H 1460   2.159   8.992   0.517 -3.0066 -1.9928  0.7874
   11MOL0     H 1461   2.299   9.140   0.363  0.3445  4.5714  1.7345
   11MOL0     H 1462   2.181   9.136   0.249 -0.0357 -1.8147  0.7856
   11MOL0     H 1463   2.113   9.222   0.535  0.7741 -2.8115 -0.4840
   11MOL0     H 1464   2.055   9.296   0.385  2.1750 -0.7263 -3.9437
   11MOL0     H 1465   2.204   9.432   0.528 -0.2636 -1.7763  1.7711
   11MOL0     H 1466   2.338   9.330   0.484  0.3145  1.6101 -0.5727
   11MOL0     H 1467   2.097   9.557   0.299 -1.7006 -3.2606 -1.0815
   11MOL0     H 1468   2.262   9.677  -0.039 -1.1691 -1.4352  0.8593
   11MOL0     H 1469   2.280   9.785   0.096  0.0369  1.0581 -2.3806
   11MOL0     H 1470   2.037   9.610   0.059  1.2128 -0.8234  1.6901
   11MOL0     H 1471   2.034   9.763   0.151 -1.7484 -1.5179  0.0996
   11MOL0     H 1472   2.039   9.711  -0.160  0.8519  2.8539 -0.9956
   11MOL0     H 1473   1.917   9.785  -0.059  0.9398 -0.2657 -0.0720
   11MOL0     H 1474   2.109   9.980  -0.028 -1.6136  1.9105 -2.0309
   11MOL0     H 1475   2.200   9.899  -0.144 -0.7653 -0.5004 -0.9681
   11MOL0     H 1476   1.979  10.201  -0.094  0.9100  1.7342  0.0246
   11MOL0     H 1477   2.017  10.431  -0.054  0.2756  3.0195  0.7393
   11MOL0     H 1478   2.047  10.522  -0.208  4.2652 -0.0598 -3.4381
   11MOL0     H 1479   2.183  10.472  -0.096 -1.3552 -1.3457  6.4017
   11MOL0     H 1480   2.250  10.695  -0.580 -1.0343 -0.3521 -1.9188
   11MOL0     H 1481   2.421  10.825  -0.650  0.7262  0.3041 -2.8534
   11MOL0     H 1482   2.518  10.907  -0.842  0.8542 -1.5032 -2.3493
   11MOL0     H 1483   2.596  10.936  -0.699  1.0800  1.9722 -0.8418
   11MOL0     H 1484   2.700  10.947  -0.984  0.0011  0.0102  0.8068
   11MOL0     H 1485   2.712  11.077  -0.868 -0.0315  0.1634 -1.6908
   11MOL0     H 1486   2.869  10.817  -0.829  0.7215  0.5482  0.8794
   11MOL0     H 1487   2.882  10.960  -0.729  0.4648 -2.6606  1.0783
   11MOL0     H 1488   2.951  11.093  -0.933  0.2809 -0.0077 -1.7427
   11MOL0     H 1489   2.974  10.939  -1.018  0.9751 -1.6895  0.9460
   11MOL0     H 1490   3.106  11.034  -0.772 -1.8562 -2.1554  0.3185
   11MOL0     H 1491   3.130  10.870  -0.830 -0.4824  0.4465 -0.2866
   11MOL0     H 1492   3.220  11.119  -0.989 -3.2806 -1.8117 -1.8762
   11MOL0     H 1493   3.213  10.969  -1.056 -0.3719  2.2245 -0.7152
   11MOL0     H 1494   3.374  10.871  -0.882  0.3687  0.5543  0.2243
   11MOL0     H 1495   3.369  11.028  -0.806  0.3596  0.6254  0.0439
   11MOL0     H 1496   3.474  10.948  -1.083 -0.8404 -1.6252  1.1574
   11MOL0     H 1497   3.565  11.009  -0.937  1.1454 -0.2566 -1.7978
   11MOL0     H 1498   2.623  10.476  -0.820 -2.9735 -0.5784 -2.6267
   11MOL0     H 1499   2.470  10.344  -0.681  0.7746 -0.1379 -0.3718
   11MOL0     H 1500   2.221  10.185  -0.520 -0.4842  0.4266  0.1761
   11MOL0     H 1501   2.131   9.986  -0.428 -2.1554  2.5368 -3.7481
   11MOL0     H 1502   1.806   9.390   0.113  1.4244  0.5763  0.6084
   11MOL0     H 1503   1.794   9.637   0.094  0.7841  0.8567 -0.6042
   11MOL0     H 1504   1.663  10.064   0.423  0.5670  1.4754  0.2834
   11MOL0     H 1505   1.579  10.292   0.431  0.6746 -1.0169 -0.2622
   11MOL0     H 1506   1.595  10.528   0.035 -1.6972  0.2770 -1.3932
   11MOL0     H 1507   1.434  10.452   0.029 -0.7792  0.3245  0.3687
   11MOL0     H 1508   1.464  10.713   0.042 -0.3442 -1.7017 -2.1753
   11MOL0     H 1509   1.521  10.685   0.203  1.8954  2.7346 -3.1730
   11MOL0     H 1510   1.238  10.602   0.100  1.4113 -1.2677 -0.8422
   11MOL0     H 1511   1.298  10.563   0.258 -0.2720 -1.3907 -1.6883
   11MOL0     H 1512   1.251  10.852   0.204 -0.7196 -0.2903  1.0197
   11MOL0     H 1513   1.321  10.770   0.337  0.3195 -2.9051 -0.2915
   11MOL0     H 1514   0.913  10.727   0.429 -0.9321 -0.3406 -2.1117
   11MOL0     H 1515   1.634  10.315   0.005  3.9789  0.1003  0.5650
   11MOL0     H 1516   1.717  10.141  -0.118  3.1619 -0.0031  1.5867
   11MOL0     H 1517   1.781   9.993  -0.038 -0.1262  0.7266 -0.2341
   11MOL0     H 1518   1.613   9.999  -0.085 -3.1178  1.1574  0.4391
   12MOL0     O 1519   3.609   1.486   2.639 -0.1800 -0.3125 -0.3882
   12MOL0     C 1520   3.618   1.606   2.686 -0.9249  0.2358  0.3123
   12MOL0     O 1521   3.542   1.711   2.651  0.3693 -0.0152  0.4374
   12MOL0     C 1522   3.423   1.707   2.578 -0.3341  0.2188  0.1120
   12MOL0     C 1523   3.401   1.615   2.475 -0.5150  0.4742 -0.6169
   12MOL0     C 1524   3.279   1.636   2.407 -0.0346  0.4231  0.6279
   12MOL0     C 1525   3.184   1.738   2.440 -0.1462  0.2153 -0.8534
   12MOL0     O 1526   3.068   1.729   2.372  0.6125 -0.2439  0.3258
   12MOL0     C 1527   2.973   1.834   2.390  0.0081 -0.2229  0.5165
   12MOL0     C 1528   2.854   1.841   2.284 -0.6108 -0.4481 -0.0507
   12MOL0     C 1529   2.901   1.871   2.138  0.2415  0.1371  0.4188
   12MOL0     C 1530   2.811   1.820   2.029 -0.7843  0.1092 -0.4581
   12MOL0     C 1531   2.873   1.849   1.890 -0.4896  0.1706  0.6124
   12MOL0     C 1532   2.779   1.901   1.787 -0.5919 -0.1818  0.2023
   12MOL0     C 1533   2.673   1.804   1.754 -0.6170 -0.0218 -0.8195
   12MOL0     C 1534   2.618   1.819   1.603  0.6283 -0.2295 -0.5778
   12MOL0     N 1535   2.702   1.792   1.481 -0.3154  0.3078 -0.9984
   12MOL0     C 1536   2.710   1.861   1.363  1.1572  0.7650  1.2765
   12MOL0     C 1537   2.817   1.817   1.305 -0.0981  0.8928  0.0939
   12MOL0     C 1538   2.831   1.846   1.160  0.3405 -0.4254  0.3466
   12MOL0     C 1539   2.817   1.993   1.121 -0.0892  0.1592  0.0469
   12MOL0     C 1540   2.689   2.010   1.042  0.8507 -0.0629 -0.5482
   12MOL0     C 1541   2.651   2.160   1.018  0.7709  0.3380 -0.7825
   12MOL0     O 1542   2.652   2.244   1.142 -0.3644 -0.0374  0.0376
   12MOL0     C 1543   2.571   2.202   1.235  1.0707  0.4809  0.5734
   12MOL0     C 1544   2.604   2.248   1.363 -0.5517  0.6237  0.7743
   12MOL0     C 1545   2.526   2.213   1.471 -0.2789 -0.4739  0.4177
   12MOL0     C 1546   2.570   2.271   1.602  0.1650  0.1380 -0.5268
   12MOL0     C 1547   2.413   2.135   1.445  0.2967  0.8323  0.5491
   12MOL0     C 1548   2.332   2.082   1.555 -0.0430 -0.7515 -1.3496
   12MOL0     O 1549   2.309   1.949   1.563  0.0232  0.8042  0.5280
   12MOL0     C 1550   2.221   1.901   1.657 -0.2715 -0.1606  0.5121
   12MOL0     C 1551   2.095   1.870   1.611  0.4824 -0.0067 -0.7834
   12MOL0     C 1552   2.009   1.810   1.698  0.6219 -0.3320 -0.0349
   12MOL0     C 1553   2.038   1.788   1.835 -0.2726 -0.7535  0.1050
   12MOL0     O 1554   1.942   1.723   1.902  0.1178 -0.0385 -0.5291
   12MOL0     C 1555   1.982   1.725   2.044  0.6739  0.3287 -0.1197
   12MOL0     C 1556   1.853   1.688   2.124  1.0122 -0.1279  0.1754
   12MOL0     C 1557   1.896   1.694   2.267  0.3663  0.1783  0.0804
   12MOL0     C 1558   1.789   1.653   2.376  0.3027  0.5586 -0.3552
   12MOL0     C 1559   1.851   1.665   2.523 -0.4059  0.2204  0.4413
   12MOL0     C 1560   1.779   1.768   2.620  0.6553  0.5317 -0.3000
   12MOL0     C 1561   1.637   1.706   2.663 -0.4019  0.1439  0.6118
   12MOL0     C 1562   1.587   1.774   2.785  0.4065 -0.7812  0.1934
   12MOL0    Cl 1563   1.642   1.704   2.943 -0.3768  0.2226  0.0008
   12MOL0     C 1564   2.174   1.829   1.871  0.8576  0.1429 -0.7233
   12MOL0     C 1565   2.268   1.882   1.782  0.2875  0.0545  0.2370
   12MOL0     O 1566   2.272   2.170   1.622  0.0820 -0.2539 -0.2907
   12MOL0     C 1567   2.369   2.105   1.323 -0.0147 -0.2546  0.5355
   12MOL0     C 1568   2.452   2.132   1.217  0.6706 -0.5323 -0.0261
   12MOL0     N 1569   2.880   1.716   1.374 -0.9917  0.5883  0.7785
   12MOL0     N 1570   2.814   1.708   1.489 -0.4001 -0.2246  0.9748
   12MOL0     C 1571   3.214   1.825   2.545 -0.6711 -0.7015  0.5930
   12MOL0     C 1572   3.332   1.812   2.616  0.2957  0.5195 -0.0085
   12MOL0     C 1573   3.700   1.628   2.807 -0.8847  0.6156  0.3436
   12MOL0     C 1574   3.759   1.760   2.821  0.2697  0.9756 -0.3879
   12MOL0     C 1575   3.850   1.787   2.927 -1.0616  0.1371 -0.1086
   12MOL0     C 1576   3.895   1.685   3.020 -0.0038 -0.6560 -1.3717
   12MOL0     O 1577   3.982   1.682   3.132  0.1527 -0.4360  0.0435
   12MOL0     C 1578   4.053   1.810   3.145 -0.3993 -0.1303  0.7379
   12MOL0     C 1579   4.122   1.819   3.285  0.2311 -0.1811 -0.2057
   12MOL0     C 1580   4.020   1.858   3.392 -0.4177 -0.2774  0.3411
   12MOL0     C 1581   4.087   1.856   3.533 -0.5986  0.1447  1.1495
   12MOL0     C 1582   3.974   1.885   3.636 -0.6540 -0.3875  0.6518
   12MOL0     C 1583   3.877   1.884   3.713 -0.2827  0.6747  0.2676
   12MOL0     C 1584   3.818   1.559   3.016  0.2069  0.2612 -0.3819
   12MOL0     C 1585   3.719   1.533   2.909  0.3667  0.0688  0.2769
   12MOL0     C 1586   3.645   1.395   2.921 -1.2174  0.0853 -0.2072
   12MOL0     H 1587   3.457   1.528   2.442  0.0675  1.3821 -2.1332
   12MOL0     H 1588   3.237   1.572   2.330 -3.9682  1.4042  1.7176
   12MOL0     H 1589   3.032   1.924   2.407  0.4455 -0.1115 -1.3715
   12MOL0     H 1590   2.926   1.831   2.488  0.5370  0.8246  0.8089
   12MOL0     H 1591   2.787   1.756   2.267  0.0324 -0.6538 -1.8110
   12MOL0     H 1592   2.792   1.921   2.326  2.5634  1.3707  1.5087
   12MOL0     H 1593   2.923   1.975   2.113  2.1773  0.6977  3.8005
   12MOL0     H 1594   3.004   1.839   2.121  0.7679  2.8552 -2.4421
   12MOL0     H 1595   2.798   1.712   2.039 -1.9920 -0.0112 -2.7763
   12MOL0     H 1596   2.716   1.871   2.046  0.8320  2.1318  3.8513
   12MOL0     H 1597   2.926   1.762   1.852 -1.9086 -1.4753  2.2570
   12MOL0     H 1598   2.953   1.921   1.911  2.5366 -2.5298 -0.8147
   12MOL0     H 1599   2.725   1.987   1.828 -0.5079 -0.5923  1.2001
   12MOL0     H 1600   2.837   1.924   1.697 -1.6341 -2.1678 -1.0696
   12MOL0     H 1601   2.589   1.823   1.822  0.2596 -1.2958  0.6829
   12MOL0     H 1602   2.718   1.707   1.776  2.8790  1.7909  0.7280
   12MOL0     H 1603   2.522   1.767   1.600  1.9946 -3.1340  1.3392
   12MOL0     H 1604   2.590   1.924   1.593  0.7586  0.1436  2.2989
   12MOL0     H 1605   2.631   1.916   1.313 -0.9018 -2.4056  0.7454
   12MOL0     H 1606   2.744   1.787   1.128 -1.2362  1.0406  1.7109
   12MOL0     H 1607   2.927   1.805   1.128  1.1040  0.6649  1.1366
   12MOL0     H 1608   2.812   2.056   1.211 -1.0835 -1.7812  1.4155
   12MOL0     H 1609   2.906   2.026   1.067  1.4513  0.6235  2.6909
   12MOL0     H 1610   2.691   1.954   0.948 -1.4484 -2.0639  0.4682
   12MOL0     H 1611   2.610   1.950   1.089 -0.0557  1.4704 -0.0482
   12MOL0     H 1612   2.716   2.203   0.941  1.1109  0.6121 -0.3468
   12MOL0     H 1613   2.558   2.167   0.961  0.7313  1.4262 -0.6228
   12MOL0     H 1614   2.699   2.298   1.379  0.5462 -1.0442 -0.2085
   12MOL0     H 1615   2.507   2.241   1.686  2.6581 -0.4928  1.2455
   12MOL0     H 1616   2.586   2.379   1.594  1.1403  0.2391  1.9364
   12MOL0     H 1617   2.667   2.240   1.641 -1.4043 -1.5630  2.4039
   12MOL0     H 1618   2.078   1.888   1.505 -0.4359 -0.1732 -0.6753
   12MOL0     H 1619   1.912   1.784   1.657  1.5025 -2.1206 -1.1507
   12MOL0     H 1620   2.056   1.649   2.073  0.1767 -0.3545 -0.6083
   12MOL0     H 1621   2.010   1.828   2.068 -0.4091  1.2204 -2.4249
   12MOL0     H 1622   1.772   1.759   2.102  0.9446 -0.6205 -1.3143
   12MOL0     H 1623   1.824   1.590   2.085  2.6009 -1.2570  1.6815
   12MOL0     H 1624   1.920   1.798   2.294  0.4307  0.3786 -0.7440
   12MOL0     H 1625   1.986   1.634   2.280 -0.0178 -0.9518 -2.0226
   12MOL0     H 1626   1.772   1.546   2.358  0.7738  0.5313 -0.6336
   12MOL0     H 1627   1.704   1.721   2.365  2.7770  4.0911  0.4941
   12MOL0     H 1628   1.861   1.566   2.569  1.1927  0.0700 -0.1522
   12MOL0     H 1629   1.952   1.702   2.506 -0.5288  0.6784  0.6987
   12MOL0     H 1630   1.772   1.870   2.580 -1.7651  0.9809  1.0594
   12MOL0     H 1631   1.827   1.790   2.716 -3.0551  1.1314  1.6058
   12MOL0     H 1632   1.662   1.601   2.678  2.4247  0.0745 -3.0892
   12MOL0     H 1633   1.567   1.719   2.581 -0.0506  2.0466  0.5681
   12MOL0     H 1634   1.480   1.753   2.795  0.9250 -3.1942  1.6192
   12MOL0     H 1635   1.595   1.883   2.794 -4.9207 -0.1920  1.7419
   12MOL0     H 1636   2.214   1.835   1.971  0.3261  5.6836 -0.5502
   12MOL0     H 1637   2.365   1.929   1.801  0.2327  0.8275 -1.2829
   12MOL0     H 1638   2.272   2.058   1.311  0.9167 -2.0096 -0.4096
   12MOL0     H 1639   2.416   2.098   1.121  1.0707 -0.7012 -0.1194
   12MOL0     H 1640   3.140   1.895   2.584 -0.9416 -0.1526 -0.8402
   12MOL0     H 1641   3.356   1.875   2.701 -3.3703  1.1295  0.7433
   12MOL0     H 1642   3.727   1.837   2.752 -1.7148  0.9805  0.4817
   12MOL0     H 1643   3.896   1.884   2.942  2.1824 -1.3155  0.2538
   12MOL0     H 1644   4.129   1.814   3.066 -1.7599  1.6821 -0.5907
   12MOL0     H 1645   3.990   1.898   3.129  0.7302  0.6143  0.2397
   12MOL0     H 1646   4.199   1.897   3.291 -0.8749  0.8323  2.8265
   12MOL0     H 1647   4.166   1.724   3.317  0.0926 -1.3661 -3.2345
   12MOL0     H 1648   3.980   1.960   3.382  1.4099  0.3542 -1.3680
   12MOL0     H 1649   3.933   1.792   3.391 -0.1201 -0.7326  2.1508
   12MOL0     H 1650   4.163   1.934   3.535  0.7715 -1.1138 -0.1579
   12MOL0     H 1651   4.132   1.759   3.558 -1.6103 -0.3907  0.9623
   12MOL0     H 1652   3.790   1.896   3.773 -1.5478  1.2304 -1.5858
   12MOL0     H 1653   3.820   1.481   3.092 -2.2614  1.4442  1.0233
   12MOL0     H 1654   3.633   1.386   3.029 -0.1481  1.7298  0.0881
   12MOL0     H 1655   3.546   1.394   2.874 -0.4930 -1.7966 -1.8764
   12MOL0     H 1656   3.704   1.305   2.899 -0.3150  0.4386  0.7082
   13MOL0     O 1657   7.106   0.916   6.120 -0.2016  0.0361  0.3824
   13MOL0     C 1658   7.031   0.895   6.212 -0.4288  0.4257 -0.6352
   13MOL0     O 1659   7.063   0.807   6.316  0.5176 -0.5163 -0.0054
   13MOL0     C 1660   7.159   0.715   6.317 -0.6244  0.5510  0.4665
   13MOL0     C 1661   7.139   0.598   6.383 -0.1619 -0.6600  0.1412
   13MOL0     C 1662   7.227   0.489   6.386 -0.8843  0.8377  0.0245
   13MOL0     C 1663   7.344   0.496   6.306  0.3333  1.0258  0.2687
   13MOL0     O 1664   7.412   0.375   6.292 -0.4478 -0.8519  0.4020
   13MOL0     C 1665   7.554   0.376   6.278 -0.8352 -0.2726  0.1512
   13MOL0     C 1666   7.605   0.238   6.234  0.0314 -0.2626 -0.1609
   13MOL0     C 1667   7.754   0.225   6.172  0.1333  0.4892  0.0613
   13MOL0     C 1668   7.784   0.080   6.138 -0.5658 -0.0995 -0.2574
   13MOL0     C 1669   7.937   0.057   6.109 -1.0645  0.6895 -0.8302
   13MOL0     C 1670   7.993   0.148   6.003 -0.7447  0.1138  0.9777
   13MOL0     C 1671   8.131   0.093   5.958  0.4910 -0.7436 -0.7608
   13MOL0     C 1672   8.203   0.187   5.867 -0.4756 -0.1961 -1.4841
   13MOL0     N 1673   8.211   0.332   5.900  0.2528  0.3749  0.2222
   13MOL0     C 1674   8.132   0.440   5.878  0.7683 -0.0036  1.2887
   13MOL0     C 1675   8.195   0.548   5.919  0.0511 -0.5692 -0.3140
   13MOL0     C 1676   8.163   0.705   5.917  0.5882  0.2475 -0.0040
   13MOL0     C 1677   8.106   0.744   5.781  0.3901  0.1875  0.5412
   13MOL0     C 1678   8.216   0.744   5.680 -0.5720  0.1987  0.0490
   13MOL0     C 1679   8.156   0.773   5.540  0.4956 -0.0454 -0.1759
   13MOL0     O 1680   8.260   0.800   5.443 -0.4927 -0.1269  0.4447
   13MOL0     C 1681   8.228   0.876   5.336 -0.5198  0.8581  0.0510
   13MOL0     C 1682   8.103   0.902   5.287 -0.0144 -0.4711  0.2024
   13MOL0     C 1683   8.080   1.001   5.184 -0.3027 -0.0164 -0.0646
   13MOL0     C 1684   7.941   1.034   5.143  0.4938 -0.4319 -0.0423
   13MOL0     C 1685   8.185   1.071   5.126 -0.8447 -0.0650  0.1848
   13MOL0     C 1686   8.166   1.186   5.036 -0.6077 -0.9195 -0.1513
   13MOL0     O 1687   8.083   1.283   5.072 -0.5321 -0.1689  0.9540
   13MOL0     C 1688   8.057   1.373   4.967 -0.6582 -0.1210  0.0134
   13MOL0     C 1689   7.941   1.368   4.892  0.6122  0.4774  0.6105
   13MOL0     C 1690   7.918   1.460   4.785  0.4992  0.0889 -0.6494
   13MOL0     C 1691   8.019   1.556   4.751  0.4445 -0.1167 -0.0419
   13MOL0     O 1692   8.025   1.635   4.639  0.4208 -0.9344  0.2311
   13MOL0     C 1693   7.962   1.579   4.520  0.1012  0.7517 -0.2146
   13MOL0     C 1694   8.020   1.630   4.399  0.9431 -0.0313 -0.0310
   13MOL0     C 1695   8.098   1.763   4.415  0.7254 -0.2029 -0.0829
   13MOL0     C 1696   8.150   1.821   4.282 -0.6979  0.1374  0.6530
   13MOL0     C 1697   8.206   1.961   4.293  0.4189 -0.2556  0.8164
   13MOL0     C 1698   8.277   2.005   4.156  0.2169 -0.6295  0.9007
   13MOL0     C 1699   8.259   2.144   4.100  0.3923  0.3623 -0.8611
   13MOL0     C 1700   8.387   2.170   4.021  1.0627  0.8242 -0.2735
   13MOL0    Cl 1701   8.410   2.041   3.895  0.0667 -0.1391 -0.2257
   13MOL0     C 1702   8.126   1.568   4.832  0.4898 -0.0564 -0.8986
   13MOL0     C 1703   8.150   1.479   4.940  0.3336  0.4931 -0.0908
   13MOL0     O 1704   8.233   1.174   4.933  0.2658 -0.3957 -0.4639
   13MOL0     C 1705   8.319   1.026   5.161  0.4275 -0.1383  0.7364
   13MOL0     C 1706   8.336   0.935   5.265  0.0857 -0.2620  0.9628
   13MOL0     N 1707   8.310   0.502   5.975 -0.2519  0.2172  0.1488
   13MOL0     N 1708   8.315   0.377   5.970 -0.1845 -0.1936 -0.0157
   13MOL0     C 1709   7.377   0.618   6.241  0.9563 -0.4637  0.0844
   13MOL0     C 1710   7.287   0.724   6.252  0.7571 -0.2544  0.5331
   13MOL0     C 1711   6.901   0.957   6.227 -0.9021  0.4774 -0.3408
   13MOL0     C 1712   6.823   0.903   6.327  0.8397 -0.0764 -0.1974
   13MOL0     C 1713   6.695   0.968   6.350  1.2283 -0.1858  0.6820
   13MOL0     C 1714   6.653   1.075   6.275  0.3237 -0.8580 -0.8321
   13MOL0     O 1715   6.526   1.135   6.306  0.9353 -0.2392  0.2852
   13MOL0     C 1716   6.515   1.275   6.308  0.3808  0.2057 -0.0462
   13MOL0     C 1717   6.568   1.332   6.452 -0.4258 -0.5995  0.6848
   13MOL0     C 1718   6.567   1.491   6.441 -1.5554  0.5476 -0.3278
   13MOL0     C 1719   6.604   1.563   6.564 -0.1514  0.2434  0.3346
   13MOL0     C 1720   6.645   1.707   6.535  0.1922 -0.4904 -0.4714
   13MOL0     C 1721   6.664   1.816   6.504 -1.0534 -0.4839 -1.0020
   13MOL0     C 1722   6.736   1.132   6.170  0.5551  1.2973  1.4312
   13MOL0     C 1723   6.852   1.056   6.140  1.1432  1.6196  0.1863
   13MOL0     C 1724   6.921   1.081   6.008  0.3057 -0.5501  0.1729
   13MOL0     H 1725   7.046   0.602   6.439  0.1980  0.2598  0.7031
   13MOL0     H 1726   7.202   0.398   6.439 -0.7539 -1.0480 -2.8844
   13MOL0     H 1727   7.606   0.404   6.370  2.6837 -2.2562 -1.0509
   13MOL0     H 1728   7.575   0.449   6.199  3.1884  2.1946  3.1036
   13MOL0     H 1729   7.590   0.161   6.310 -1.0767  1.2226  1.2109
   13MOL0     H 1730   7.539   0.216   6.149  0.3455 -0.3308 -0.3870
   13MOL0     H 1731   7.779   0.290   6.088 -0.4820 -1.8232 -2.0192
   13MOL0     H 1732   7.815   0.256   6.258  2.8696 -0.9445 -1.2391
   13MOL0     H 1733   7.760   0.020   6.226  1.7978  0.4735  0.8554
   13MOL0     H 1734   7.719   0.041   6.058  0.3356 -1.8676 -0.1860
   13MOL0     H 1735   7.938  -0.045   6.068  3.2701  1.7343 -4.0809
   13MOL0     H 1736   8.001   0.070   6.197  1.2601 -0.0468 -2.3174
   13MOL0     H 1737   7.935   0.140   5.911 -0.7455 -0.3923  1.0211
   13MOL0     H 1738   7.999   0.253   6.033  3.2032  0.3227 -0.0335
   13MOL0     H 1739   8.111  -0.004   5.911  1.9957 -1.3643 -0.1883
   13MOL0     H 1740   8.198   0.082   6.044 -0.1354  0.1398 -0.1331
   13MOL0     H 1741   8.305   0.147   5.869 -1.4718 -3.0235  1.1873
   13MOL0     H 1742   8.164   0.185   5.765 -1.0070 -1.9742 -1.2923
   13MOL0     H 1743   8.029   0.440   5.842 -0.1405  2.2632  3.5902
   13MOL0     H 1744   8.258   0.755   5.937  2.8535 -4.2957  2.0381
   13MOL0     H 1745   8.096   0.742   5.996  1.3626 -1.5019  1.5611
   13MOL0     H 1746   8.031   0.673   5.747  2.8838 -1.6590 -1.5134
   13MOL0     H 1747   8.063   0.843   5.798 -2.7643 -1.2269  1.4119
   13MOL0     H 1748   8.278   0.833   5.693  0.1456  0.4800 -3.9870
   13MOL0     H 1749   8.276   0.653   5.681 -1.5601 -0.4919 -0.8920
   13MOL0     H 1750   8.099   0.690   5.496 -0.7539  0.1098  1.0881
   13MOL0     H 1751   8.088   0.859   5.548  2.9678  2.0996 -0.7686
   13MOL0     H 1752   8.015   0.871   5.342 -1.2647  2.6672  0.1997
   13MOL0     H 1753   7.936   1.063   5.038  1.2402 -2.2966 -0.6227
   13MOL0     H 1754   7.908   1.122   5.200 -1.4300 -1.1916  0.0918
   13MOL0     H 1755   7.875   0.950   5.164  2.0041 -1.1888  2.0821
   13MOL0     H 1756   7.875   1.284   4.912  1.0926  0.4410  2.1450
   13MOL0     H 1757   7.825   1.463   4.728  2.0825  1.9429 -3.3457
   13MOL0     H 1758   7.970   1.470   4.520  0.8855  0.7780  1.3513
   13MOL0     H 1759   7.856   1.603   4.517 -0.5297 -1.6257  0.4915
   13MOL0     H 1760   8.085   1.556   4.352 -1.2762 -1.2853 -1.2667
   13MOL0     H 1761   7.939   1.643   4.327 -0.2561 -5.1606 -0.0150
   13MOL0     H 1762   8.178   1.744   4.488 -2.1995 -0.9846  3.1656
   13MOL0     H 1763   8.028   1.836   4.456  0.2252 -1.3157  1.1092
   13MOL0     H 1764   8.060   1.826   4.221 -2.2254 -1.5349  2.6441
   13MOL0     H 1765   8.231   1.756   4.247  1.0956  3.3378 -1.8160
   13MOL0     H 1766   8.121   2.026   4.317 -0.3483 -0.2765 -1.6513
   13MOL0     H 1767   8.278   1.978   4.374  3.2082 -0.8373 -1.3702
   13MOL0     H 1768   8.251   1.929   4.082  0.4608 -1.8441  2.0270
   13MOL0     H 1769   8.384   1.989   4.173  1.7996  5.0657 -1.2723
   13MOL0     H 1770   8.238   2.218   4.177  1.7185 -0.4746  0.3387
   13MOL0     H 1771   8.179   2.145   4.025 -0.4423 -0.8005 -0.0117
   13MOL0     H 1772   8.470   2.166   4.092  0.9818  0.4646 -0.1987
   13MOL0     H 1773   8.387   2.268   3.972  1.4465  0.6447 -0.6318
   13MOL0     H 1774   8.197   1.648   4.820 -1.0666  1.3964 -0.7890
   13MOL0     H 1775   8.231   1.498   5.010 -0.4851 -0.2256  1.0758
   13MOL0     H 1776   8.397   1.073   5.102 -1.8524  1.8132 -0.9273
   13MOL0     H 1777   8.440   0.917   5.289  0.4687 -0.4990 -0.7230
   13MOL0     H 1778   7.469   0.630   6.186 -0.3790 -2.0804 -2.7036
   13MOL0     H 1779   7.324   0.817   6.210  3.7176 -1.1821  0.8467
   13MOL0     H 1780   6.850   0.829   6.401 -0.2756 -1.9121 -1.5366
   13MOL0     H 1781   6.621   0.924   6.415 -0.2305 -1.2970 -1.5766
   13MOL0     H 1782   6.573   1.321   6.228 -0.0025  0.4612 -0.1790
   13MOL0     H 1783   6.412   1.306   6.290 -0.0105 -1.1352 -0.2922
   13MOL0     H 1784   6.666   1.296   6.483 -0.5557 -0.7892  0.8819
   13MOL0     H 1785   6.491   1.302   6.524 -1.9596  1.8372  0.1823
   13MOL0     H 1786   6.629   1.508   6.353 -0.7130 -1.5415 -0.1773
   13MOL0     H 1787   6.471   1.524   6.399 -0.1266  1.2409 -3.3199
   13MOL0     H 1788   6.697   1.518   6.599  0.2689 -0.9672 -2.1167
   13MOL0     H 1789   6.539   1.559   6.652 -0.9642 -2.3718 -0.2709
   13MOL0     H 1790   6.701   1.909   6.467  2.7716 -1.5139 -0.2170
   13MOL0     H 1791   6.700   1.214   6.109 -3.0302  1.0154  2.9154
   13MOL0     H 1792   7.023   1.120   6.019  0.2780  0.0789 -1.4702
   13MOL0     H 1793   6.911   0.983   5.961  2.0440 -0.3884 -0.6090
   13MOL0     H 1794   6.864   1.149   5.944  0.0082 -0.6544  0.3266
   14MOL0     O 1795   6.128   6.748   1.470  0.6106 -0.4064  0.0551
   14MOL0     C 1796   6.153   6.640   1.523  0.3883  0.0494  0.1507
   14MOL0     O 1797   6.216   6.536   1.464 -0.3080 -0.4290 -0.6037
   14MOL0     C 1798   6.259   6.549   1.340  0.4989 -0.8359  0.2696
   14MOL0     C 1799   6.232   6.435   1.255  0.0054  0.9269 -0.9817
   14MOL0     C 1800   6.268   6.450   1.117 -0.0456  0.6108  0.3978
   14MOL0     C 1801   6.337   6.559   1.066 -0.2515  1.1251 -0.1365
   14MOL0     O 1802   6.387   6.548   0.936  0.3552 -0.2422  0.0663
   14MOL0     C 1803   6.409   6.671   0.862  0.2925  0.9959 -0.5347
   14MOL0     C 1804   6.450   6.660   0.725  0.0913 -0.1064 -0.1343
   14MOL0     C 1805   6.358   6.568   0.641 -0.3281  0.4953  0.8031
   14MOL0     C 1806   6.205   6.574   0.672 -0.3115 -0.4775  0.7607
   14MOL0     C 1807   6.109   6.495   0.580  0.3774  1.2804 -1.2507
   14MOL0     C 1808   5.969   6.485   0.643 -0.2688  0.5611  0.4235
   14MOL0     C 1809   5.879   6.462   0.533 -0.3014 -0.5598 -0.2115
   14MOL0     C 1810   5.738   6.450   0.590 -0.0773  0.3481  0.1742
   14MOL0     N 1811   5.630   6.404   0.497 -1.1771  0.4427 -0.6407
   14MOL0     C 1812   5.611   6.461   0.377  0.2530  0.7958  0.0206
   14MOL0     C 1813   5.528   6.377   0.309  0.1870 -0.2901  0.8006
   14MOL0     C 1814   5.467   6.392   0.181 -0.6583 -0.8652 -0.5293
   14MOL0     C 1815   5.447   6.263   0.105  0.7168  0.4374  0.2590
   14MOL0     C 1816   5.386   6.275  -0.036  0.7258 -0.5887 -0.7512
   14MOL0     C 1817   5.410   6.157  -0.127 -0.7884 -0.0747 -0.5041
   14MOL0     O 1818   5.369   6.195  -0.261 -0.4104 -0.2508 -0.0449
   14MOL0     C 1819   5.391   6.106  -0.364 -0.7779  0.6410 -0.4434
   14MOL0     C 1820   5.450   5.981  -0.354 -0.1807 -0.1768  0.1611
   14MOL0     C 1821   5.478   5.897  -0.463  0.0785  0.4666  0.5606
   14MOL0     C 1822   5.536   5.760  -0.430  0.8754 -0.0391 -0.0062
   14MOL0     C 1823   5.463   5.941  -0.596 -1.0185 -0.2545 -0.8655
   14MOL0     C 1824   5.520   5.864  -0.707 -1.5654 -0.5112  0.2674
   14MOL0     O 1825   5.653   5.823  -0.698  0.3792  0.3087  0.0428
   14MOL0     C 1826   5.694   5.721  -0.779 -0.3947  0.5417 -0.0839
   14MOL0     C 1827   5.789   5.639  -0.717  0.3115 -0.7214 -0.1106
   14MOL0     C 1828   5.869   5.547  -0.777 -0.1715  0.0849  0.2160
   14MOL0     C 1829   5.848   5.524  -0.911 -0.5939 -0.1220  0.4429
   14MOL0     O 1830   5.908   5.425  -0.975  0.3007 -0.5508  0.8876
   14MOL0     C 1831   5.994   5.337  -0.892  0.5853 -0.5546  0.1224
   14MOL0     C 1832   6.069   5.235  -0.978 -0.2998  0.1777  0.0528
   14MOL0     C 1833   5.997   5.175  -1.096  0.2624 -0.2433  0.2116
   14MOL0     C 1834   5.874   5.098  -1.056  0.0415 -0.6247  0.1351
   14MOL0     C 1835   5.762   5.105  -1.165  0.8021  0.8769 -0.9436
   14MOL0     C 1836   5.806   5.032  -1.289 -0.3691 -0.3055  0.0994
   14MOL0     C 1837   5.706   5.023  -1.403  0.6279 -0.7315  0.5709
   14MOL0     C 1838   5.739   4.908  -1.497 -0.2735  0.7705 -0.0935
   14MOL0    Cl 1839   5.705   4.758  -1.420  0.2059  0.0259  0.3588
   14MOL0     C 1840   5.755   5.597  -0.985  0.4289 -0.0819  0.2350
   14MOL0     C 1841   5.676   5.697  -0.916  0.3836 -0.1792 -0.3095
   14MOL0     O 1842   5.447   5.840  -0.798 -0.3344  1.6684 -0.9138
   14MOL0     C 1843   5.413   6.076  -0.612 -0.3919  0.1547 -0.1661
   14MOL0     C 1844   5.372   6.146  -0.496  0.5762 -0.4607 -0.4307
   14MOL0     N 1845   5.504   6.266   0.392 -0.0194 -0.1964 -0.0669
   14MOL0     N 1846   5.569   6.284   0.503  0.1665  1.3639  0.2033
   14MOL0     C 1847   6.367   6.671   1.152 -0.3197  0.9897 -0.4322
   14MOL0     C 1848   6.331   6.657   1.286 -0.9439 -0.0292  0.3645
   14MOL0     C 1849   6.127   6.631   1.664 -0.0344  0.5620 -0.0727
   14MOL0     C 1850   6.039   6.521   1.701 -1.3415  0.0854 -0.1488
   14MOL0     C 1851   5.991   6.511   1.828 -0.3305 -0.5060 -0.0513
   14MOL0     C 1852   6.017   6.618   1.920 -0.1349  0.3648  0.6711
   14MOL0     O 1853   5.970   6.598   2.048 -0.6638  0.5369 -0.0165
   14MOL0     C 1854   5.946   6.708   2.123  0.5754  0.1720  0.1527
   14MOL0     C 1855   5.841   6.663   2.222  0.4845  0.0350  0.1240
   14MOL0     C 1856   5.797   6.767   2.319  0.3561 -0.3651 -0.5062
   14MOL0     C 1857   5.718   6.873   2.239  0.6929 -0.0149 -0.0451
   14MOL0     C 1858   5.677   6.987   2.318  0.6834 -0.2560 -0.8339
   14MOL0     C 1859   5.623   7.153   2.418  0.4487 -0.1449  0.1051
   14MOL0     C 1860   6.112   6.719   1.886  0.4961 -0.6130  0.2154
   14MOL0     C 1861   6.166   6.722   1.754  0.1672 -0.4076 -0.0313
   14MOL0     C 1862   6.266   6.832   1.720  0.0439 -0.3550  0.5048
   14MOL0     H 1863   6.188   6.350   1.306  2.1401  0.6381  0.4943
   14MOL0     H 1864   6.268   6.361   1.054  3.2934  1.6504 -1.2835
   14MOL0     H 1865   6.480   6.733   0.917 -1.2257  3.0382 -0.7594
   14MOL0     H 1866   6.311   6.720   0.872 -0.3764 -0.1789 -1.0520
   14MOL0     H 1867   6.431   6.757   0.677  0.1079  0.0187  0.1128
   14MOL0     H 1868   6.556   6.641   0.709  0.6858  1.8931  0.9802
   14MOL0     H 1869   6.371   6.593   0.535 -2.7241  1.1852  0.6102
   14MOL0     H 1870   6.383   6.465   0.667 -5.6225 -0.8358  1.9503
   14MOL0     H 1871   6.181   6.560   0.778 -0.6884 -0.4485  0.6793
   14MOL0     H 1872   6.185   6.679   0.651  2.0512 -0.5677 -2.6415
   14MOL0     H 1873   6.144   6.393   0.562 -2.5310  0.1668 -1.2126
   14MOL0     H 1874   6.107   6.555   0.489 -1.4566  1.0491 -1.4053
   14MOL0     H 1875   5.954   6.410   0.721 -2.0261  1.5741  1.1081
   14MOL0     H 1876   5.947   6.570   0.709 -1.8469 -0.7543  1.6655
   14MOL0     H 1877   5.902   6.376   0.470  0.3468 -0.7471  0.2733
   14MOL0     H 1878   5.887   6.552   0.471  0.6916  0.6873  1.6472
   14MOL0     H 1879   5.759   6.372   0.664  0.2276  0.5476  0.2978
   14MOL0     H 1880   5.699   6.537   0.643 -2.9916 -1.7792  1.7789
   14MOL0     H 1881   5.623   6.564   0.345 -1.9313  0.5026 -1.9644
   14MOL0     H 1882   5.518   6.462   0.114  2.7272 -0.5884  2.0527
   14MOL0     H 1883   5.378   6.454   0.194  0.4276  0.4039  1.4008
   14MOL0     H 1884   5.543   6.210   0.101  0.5079 -0.0080  0.8250
   14MOL0     H 1885   5.382   6.202   0.169 -1.9173  0.9617 -1.7470
   14MOL0     H 1886   5.278   6.285  -0.025  1.0189  0.6106  1.8227
   14MOL0     H 1887   5.418   6.373  -0.073  1.3222  0.2312  1.7571
   14MOL0     H 1888   5.517   6.136  -0.136 -0.7735 -0.4312  0.4656
   14MOL0     H 1889   5.357   6.072  -0.083  1.2685 -0.5918  1.1037
   14MOL0     H 1890   5.475   5.947  -0.253  2.5248  3.2244  0.8379
   14MOL0     H 1891   5.472   5.684  -0.476  1.8255 -0.5898 -0.4594
   14MOL0     H 1892   5.549   5.747  -0.322  2.2641  0.5874 -0.0759
   14MOL0     H 1893   5.630   5.737  -0.481 -0.5244 -0.9159 -2.3762
   14MOL0     H 1894   5.814   5.670  -0.617  0.6772  0.7559 -0.6331
   14MOL0     H 1895   5.942   5.498  -0.713  0.5788 -0.4179 -0.9994
   14MOL0     H 1896   6.073   5.399  -0.848 -0.3275  1.0862 -0.4781
   14MOL0     H 1897   5.944   5.274  -0.818  0.4281 -0.0410  0.4618
   14MOL0     H 1898   6.163   5.276  -1.015 -1.0132  0.7657 -1.1522
   14MOL0     H 1899   6.092   5.147  -0.916  2.0817  2.6051  2.9336
   14MOL0     H 1900   6.055   5.108  -1.160 -0.6038 -1.4603  0.6645
   14MOL0     H 1901   5.981   5.267  -1.154 -0.0927  1.9837  3.5793
   14MOL0     H 1902   5.825   5.143  -0.969  0.9806  0.4603  0.1199
   14MOL0     H 1903   5.888   4.991  -1.038  1.4347 -1.2213 -3.6533
   14MOL0     H 1904   5.674   5.058  -1.121  2.3472  0.0646  1.5444
   14MOL0     H 1905   5.728   5.208  -1.175 -0.3068  0.3007 -3.8526
   14MOL0     H 1906   5.834   4.934  -1.250 -0.7995 -1.8971 -3.2501
   14MOL0     H 1907   5.896   5.074  -1.335  0.3481 -1.8261  0.0551
   14MOL0     H 1908   5.713   5.110  -1.469  2.0581 -0.6984  0.7400
   14MOL0     H 1909   5.602   5.007  -1.374  0.6010  0.3765  1.1178
   14MOL0     H 1910   5.844   4.917  -1.525 -0.9074  3.2531 -2.0232
   14MOL0     H 1911   5.691   4.923  -1.594  1.6196  1.7572 -0.9294
   14MOL0     H 1912   5.736   5.577  -1.090 -1.3394  0.2354  0.4610
   14MOL0     H 1913   5.600   5.744  -0.978  1.6673  2.0341 -0.3380
   14MOL0     H 1914   5.402   6.114  -0.713 -1.0570 -2.2826 -1.0911
   14MOL0     H 1915   5.315   6.239  -0.496  0.0348 -0.7854 -0.0503
   14MOL0     H 1916   6.429   6.755   1.126  0.5925 -0.1847 -2.2335
   14MOL0     H 1917   6.352   6.737   1.355 -1.3321  1.4183 -1.1266
   14MOL0     H 1918   6.010   6.446   1.628  1.6404 -2.4613  1.0530
   14MOL0     H 1919   5.929   6.431   1.866 -3.4240  1.3367 -0.8832
   14MOL0     H 1920   6.032   6.746   2.180 -0.6682  1.7038  1.0964
   14MOL0     H 1921   5.902   6.783   2.057  1.0445 -2.3718 -3.3289
   14MOL0     H 1922   5.879   6.581   2.284 -0.2729 -0.9214 -0.6476
   14MOL0     H 1923   5.757   6.621   2.165 -0.1757  1.7844 -0.2483
   14MOL0     H 1924   5.733   6.720   2.393 -0.8110  2.8040  0.6398
   14MOL0     H 1925   5.886   6.819   2.356  1.2463 -0.4183 -2.4201
   14MOL0     H 1926   5.632   6.827   2.190  1.9454  2.4778 -5.2524
   14MOL0     H 1927   5.775   6.907   2.152 -1.4703 -1.8331 -2.3156
   14MOL0     H 1928   5.592   7.247   2.458  0.2419  0.4508 -1.3930
   14MOL0     H 1929   6.138   6.791   1.963 -1.5868  1.3862 -0.8336
   14MOL0     H 1930   6.356   6.819   1.781  1.1490  2.4244 -0.3813
   14MOL0     H 1931   6.311   6.822   1.621  1.8679 -2.1572  1.4489
   14MOL0     H 1932   6.235   6.936   1.734  2.8301  0.2468  3.5004
   15MOL0     O 1933  10.039   6.991   6.863 -0.6985 -0.3139 -0.5481
   15MOL0     C 1934  10.079   6.968   6.747  0.7111 -0.3144  0.4741
   15MOL0     O 1935   9.994   6.918   6.654  0.3097  0.7584  0.0050
   15MOL0     C 1936   9.860   6.958   6.652 -0.4073 -0.7570 -0.0500
   15MOL0     C 1937   9.817   7.063   6.574  1.3989 -0.5746  0.7008
   15MOL0     C 1938   9.677   7.094   6.573 -0.8288  0.2042 -0.0149
   15MOL0     C 1939   9.581   7.008   6.632 -0.0677  0.3218  0.8364
   15MOL0     O 1940   9.447   7.045   6.609  0.4903 -0.1718 -0.1247
   15MOL0     C 1941   9.345   6.936   6.634 -0.6169 -0.1124 -0.5017
   15MOL0     C 1942   9.335   6.833   6.523 -0.5915  0.6263  0.2305
   15MOL0     C 1943   9.300   6.893   6.383  0.4302  0.8227 -0.4719
   15MOL0     C 1944   9.330   6.781   6.271  0.5455 -0.5124 -0.5747
   15MOL0     C 1945   9.270   6.805   6.135  0.1115 -0.9503 -0.3879
   15MOL0     C 1946   9.162   6.720   6.095  0.3685 -0.0231  0.1892
   15MOL0     C 1947   9.153   6.710   5.939 -0.3541  0.8426  0.3327
   15MOL0     C 1948   9.012   6.665   5.889 -0.8096 -0.5738  0.0158
   15MOL0     N 1949   8.975   6.540   5.960  0.2407  0.2949  0.2170
   15MOL0     C 1950   8.990   6.413   5.917  0.7486  0.9585  0.4620
   15MOL0     C 1951   8.925   6.331   6.008 -1.0644 -0.2984  0.4767
   15MOL0     C 1952   8.902   6.181   5.988  0.0158 -0.8010 -0.4178
   15MOL0     C 1953   8.941   6.096   6.110  0.9349 -0.5514 -0.5302
   15MOL0     C 1954   8.907   5.948   6.083  0.7044  0.0595 -1.0013
   15MOL0     C 1955   8.949   5.885   5.947  0.2761 -0.1262  0.1427
   15MOL0     O 1956   9.088   5.922   5.917 -0.1872  0.4558 -0.2406
   15MOL0     C 1957   9.143   5.849   5.817 -0.0571 -0.5330 -0.4843
   15MOL0     C 1958   9.270   5.806   5.822 -0.0899  0.8809 -0.9650
   15MOL0     C 1959   9.336   5.739   5.714  1.2193 -0.8697 -0.8327
   15MOL0     C 1960   9.485   5.724   5.720  0.5579  0.7049  1.1523
   15MOL0     C 1961   9.255   5.680   5.614 -0.0209 -0.9594 -0.6493
   15MOL0     C 1962   9.298   5.581   5.514 -0.3059 -0.2385 -0.3238
   15MOL0     O 1963   9.421   5.532   5.513  0.1497  0.2848  0.2791
   15MOL0     C 1964   9.437   5.463   5.399 -0.1538  0.5507 -0.2909
   15MOL0     C 1965   9.425   5.320   5.396 -0.1439 -0.1817 -0.0025
   15MOL0     C 1966   9.449   5.247   5.284 -0.5117  0.0580  0.0920
   15MOL0     C 1967   9.504   5.308   5.169 -0.3190  0.0038 -0.1692
   15MOL0     O 1968   9.547   5.234   5.058 -0.0700  0.0213  0.2462
   15MOL0     C 1969   9.489   5.111   5.028  0.6705 -0.1353  0.3875
   15MOL0     C 1970   9.355   5.138   4.957 -0.6003 -0.0969  0.6297
   15MOL0     C 1971   9.295   5.002   4.905  0.6634  0.7525 -0.5804
   15MOL0     C 1972   9.144   4.981   4.902 -0.2287 -0.0411  1.4139
   15MOL0     C 1973   9.094   4.868   4.814 -0.2152 -0.1796  0.7300
   15MOL0     C 1974   9.117   4.891   4.662  0.4201  0.1047  0.6176
   15MOL0     C 1975   8.996   4.820   4.580 -0.0679 -0.2501 -0.8536
   15MOL0     C 1976   9.043   4.778   4.437 -0.2107  0.5661  0.8034
   15MOL0    Cl 1977   8.930   4.671   4.363  0.0717 -0.4412  0.1449
   15MOL0     C 1978   9.511   5.442   5.165  0.2056  0.1256 -0.3006
   15MOL0     C 1979   9.480   5.515   5.284 -0.4228  0.2503 -0.4344
   15MOL0     O 1980   9.210   5.535   5.438 -0.0064 -1.2773  0.6855
   15MOL0     C 1981   9.120   5.725   5.617 -0.5629  0.1579  0.0067
   15MOL0     C 1982   9.069   5.812   5.702 -0.1836 -0.2716 -0.0123
   15MOL0     N 1983   8.872   6.413   6.104  0.3226 -1.2105  0.2705
   15MOL0     N 1984   8.907   6.536   6.082 -0.1951 -0.3422  0.3268
   15MOL0     C 1985   9.624   6.900   6.703 -0.0722 -0.3157  0.3008
   15MOL0     C 1986   9.764   6.875   6.711 -0.2096  0.0046  0.5445
   15MOL0     C 1987  10.225   6.968   6.716  0.4301  0.5669  0.0826
   15MOL0     C 1988  10.276   6.854   6.648  0.0744 -0.3038  0.5456
   15MOL0     C 1989  10.415   6.841   6.626  0.1022  0.1628  0.0170
   15MOL0     C 1990  10.492   6.947   6.645  0.2308  0.5313 -1.1480
   15MOL0     O 1991  10.614   6.944   6.598 -0.9225 -0.4484 -0.2388
   15MOL0     C 1992  10.712   6.841   6.631 -0.8499  0.5752  0.1535
   15MOL0     C 1993  10.839   6.867   6.553 -0.5562 -1.5065 -0.5572
   15MOL0     C 1994  10.974   6.816   6.595  0.2679  0.1543 -0.2856
   15MOL0     C 1995  10.981   6.663   6.596 -0.1836  0.5294 -1.1666
   15MOL0     C 1996  11.127   6.624   6.584  0.8125  0.0219  0.9272
   15MOL0     C 1997  11.249   6.619   6.578  0.5418  0.2555 -0.1323
   15MOL0     C 1998  10.449   7.065   6.719  0.5701 -0.3882 -0.0070
   15MOL0     C 1999  10.315   7.067   6.758 -1.4701  0.3672  0.0491
   15MOL0     C 2000  10.274   7.192   6.828 -0.0476 -0.2701  0.3772
   15MOL0     H 2001   9.871   7.150   6.538  1.0401 -0.5069  0.3191
   15MOL0     H 2002   9.646   7.187   6.526  0.8460 -0.0692 -1.8110
   15MOL0     H 2003   9.248   6.986   6.633  0.4198  1.9957 -1.3775
   15MOL0     H 2004   9.346   6.896   6.736 -0.3397  3.0477  0.8515
   15MOL0     H 2005   9.431   6.781   6.519 -1.1972 -0.5074 -0.2297
   15MOL0     H 2006   9.253   6.765   6.549 -1.3824  1.5901  0.3389
   15MOL0     H 2007   9.195   6.923   6.387 -0.3338 -0.8904 -3.6943
   15MOL0     H 2008   9.369   6.974   6.356 -0.0690  1.1399 -0.8263
   15MOL0     H 2009   9.439   6.782   6.263  0.4094 -1.1668 -4.8964
   15MOL0     H 2010   9.303   6.681   6.306 -0.2957 -1.1172 -2.7715
   15MOL0     H 2011   9.357   6.779   6.075  0.9895 -1.2842  0.9904
   15MOL0     H 2012   9.251   6.912   6.125  0.6581 -1.0341 -2.9697
   15MOL0     H 2013   9.178   6.624   6.146 -0.3555  0.8345  2.1266
   15MOL0     H 2014   9.069   6.761   6.135 -0.1149 -1.0665  0.1837
   15MOL0     H 2015   9.223   6.629   5.917 -1.9679 -0.0208 -2.1675
   15MOL0     H 2016   9.182   6.807   5.896 -1.8178  1.0371 -0.2699
   15MOL0     H 2017   8.931   6.737   5.897  0.3938  0.7992  0.3652
   15MOL0     H 2018   9.034   6.642   5.784  0.7977  1.1194 -0.0853
   15MOL0     H 2019   9.028   6.378   5.822 -1.6352 -0.8368  0.0856
   15MOL0     H 2020   8.931   6.141   5.890  3.1310  1.6497 -0.6673
   15MOL0     H 2021   8.794   6.169   5.989 -0.5151  2.7163  1.7192
   15MOL0     H 2022   9.046   6.104   6.141  1.6642 -1.3807 -2.6240
   15MOL0     H 2023   8.896   6.133   6.203  0.9562 -2.3076  0.2209
   15MOL0     H 2024   8.950   5.894   6.168 -0.9634  0.3542  0.0806
   15MOL0     H 2025   8.804   5.930   6.114 -0.2515  6.0904  0.7106
   15MOL0     H 2026   8.947   5.776   5.946 -2.8756 -0.1796  0.2823
   15MOL0     H 2027   8.886   5.934   5.872 -0.5825 -3.3136 -1.3680
   15MOL0     H 2028   9.324   5.818   5.916 -1.2769  5.0824 -0.5967
   15MOL0     H 2029   9.533   5.745   5.624 -0.7483 -2.3735 -0.3078
   15MOL0     H 2030   9.514   5.623   5.753  0.3028  0.5209  0.8184
   15MOL0     H 2031   9.535   5.799   5.783 -1.1541  1.5087  1.6166
   15MOL0     H 2032   9.378   5.268   5.478  1.3886  1.1715  1.8093
   15MOL0     H 2033   9.435   5.140   5.274  1.4198 -0.4347  1.9665
   15MOL0     H 2034   9.569   5.067   4.967  1.5607 -0.1111  1.5005
   15MOL0     H 2035   9.472   5.037   5.106 -0.7155 -2.2933 -1.8316
   15MOL0     H 2036   9.295   5.190   5.032  1.2587  2.4776  0.4683
   15MOL0     H 2037   9.374   5.199   4.868  0.1022 -3.1008 -1.4228
   15MOL0     H 2038   9.338   4.910   4.947 -1.7563 -0.8043 -1.2434
   15MOL0     H 2039   9.330   4.993   4.802 -1.3978 -0.2833 -1.2542
   15MOL0     H 2040   9.115   5.065   4.838  1.0526 -0.8307 -0.2966
   15MOL0     H 2041   9.112   4.979   5.007 -0.2986  1.2747  1.4243
   15MOL0     H 2042   9.145   4.775   4.839  4.5916  1.2364 -2.5157
   15MOL0     H 2043   8.989   4.852   4.840 -0.0543 -0.0842  1.4821
   15MOL0     H 2044   9.218   4.854   4.645 -0.3883 -2.1762  0.4359
   15MOL0     H 2045   9.120   4.997   4.635 -3.2896 -0.0189 -0.9299
   15MOL0     H 2046   8.900   4.873   4.578 -0.8099 -1.2571  2.1545
   15MOL0     H 2047   8.990   4.722   4.629  0.0842 -1.8353 -3.8135
   15MOL0     H 2048   9.133   4.716   4.444 -0.6732 -0.1118  0.8213
   15MOL0     H 2049   9.056   4.863   4.369 -1.3452 -0.3406 -0.5952
   15MOL0     H 2050   9.536   5.495   5.074 -0.4391 -0.4128 -0.8000
   15MOL0     H 2051   9.484   5.623   5.285 -1.3218  0.5301  5.6194
   15MOL0     H 2052   9.059   5.699   5.531  1.8413  0.1838 -1.8275
   15MOL0     H 2053   8.975   5.863   5.685 -0.5438 -2.2530 -6.1616
   15MOL0     H 2054   9.559   6.831   6.756 -1.6574 -1.2099 -2.5639
   15MOL0     H 2055   9.796   6.793   6.775 -3.2193 -1.4509  0.3844
   15MOL0     H 2056  10.216   6.768   6.621  1.5299 -2.0251  2.4528
   15MOL0     H 2057  10.448   6.755   6.567 -3.0968 -1.0163 -0.2667
   15MOL0     H 2058  10.740   6.845   6.737 -0.7855 -1.3196  0.2416
   15MOL0     H 2059  10.680   6.739   6.610 -0.8478  0.3451  1.2127
   15MOL0     H 2060  10.847   6.976   6.551 -0.7777 -1.4929 -2.0227
   15MOL0     H 2061  10.822   6.833   6.450 -0.9625  0.3135 -1.1201
   15MOL0     H 2062  11.038   6.861   6.518  1.6392  0.9415  1.2263
   15MOL0     H 2063  11.006   6.858   6.691 -1.7338 -0.9477  0.9317
   15MOL0     H 2064  10.911   6.604   6.536  1.0500 -1.0448 -1.1194
   15MOL0     H 2065  10.968   6.624   6.698  4.1338  1.4567 -0.0354
   15MOL0     H 2066  11.356   6.621   6.577  0.6749 -2.2840  0.4057
   15MOL0     H 2067  10.530   7.119   6.767  0.6490  2.8523 -3.3376
   15MOL0     H 2068  10.169   7.223   6.824 -0.1264 -0.5927 -0.2316
   15MOL0     H 2069  10.323   7.195   6.926 -1.4534  2.1417  1.0900
   15MOL0     H 2070  10.320   7.278   6.779 -0.5768 -1.0674 -1.6289
   16MOL0     O 2071   0.070   7.132   8.009 -0.1520  0.1426  0.5367
   16MOL0     C 2072  -0.017   7.216   8.023 -0.5004  0.5900  0.3885
   16MOL0     O 2073  -0.031   7.305   8.126 -0.1309  0.0348  0.0530
   16MOL0     C 2074   0.053   7.293   8.228  0.1340  0.9917 -1.4551
   16MOL0     C 2075   0.177   7.358   8.241 -0.0706 -0.3278  0.0161
   16MOL0     C 2076   0.238   7.366   8.365  0.6563 -0.6012  0.6202
   16MOL0     C 2077   0.191   7.295   8.475  0.1507  0.2816  0.3218
   16MOL0     O 2078   0.269   7.305   8.585  0.4840  0.0518 -0.6985
   16MOL0     C 2079   0.197   7.312   8.710 -0.6429 -0.6756 -0.3749
   16MOL0     C 2080   0.292   7.373   8.816  0.5418 -0.0698  0.1144
   16MOL0     C 2081   0.248   7.337   8.959  0.5749 -0.0881  0.1414
   16MOL0     C 2082   0.090   7.376   8.993 -1.6824 -0.3480 -0.0508
   16MOL0     C 2083   0.056   7.338   9.132 -0.1631  0.8663 -0.1595
   16MOL0     C 2084  -0.096   7.357   9.165  0.1066  0.4929 -0.1316
   16MOL0     C 2085  -0.119   7.308   9.311 -0.6624 -0.2505 -0.0935
   16MOL0     C 2086  -0.269   7.308   9.351 -0.4345  0.1579 -0.0719
   16MOL0     N 2087  -0.346   7.438   9.338  0.3816  0.2626  0.0212
   16MOL0     C 2088  -0.463   7.461   9.262 -0.3956  1.7023 -1.1549
   16MOL0     C 2089  -0.530   7.560   9.329  0.0093 -0.4617  0.7218
   16MOL0     C 2090  -0.655   7.637   9.284 -0.2321  0.8263  1.1694
   16MOL0     C 2091  -0.637   7.740   9.168  0.6372 -0.8472  0.3468
   16MOL0     C 2092  -0.759   7.825   9.161 -0.0348  0.5652  0.0352
   16MOL0     C 2093  -0.876   7.754   9.098  0.2725  0.6917  0.6106
   16MOL0     O 2094  -0.940   7.651   9.175 -1.0025 -0.1975 -0.5208
   16MOL0     C 2095  -1.077   7.640   9.155  0.0724  0.0502  0.2515
   16MOL0     C 2096  -1.158   7.590   9.254  0.0305  0.7940  0.3015
   16MOL0     C 2097  -1.294   7.570   9.232  0.2481  0.2649  0.1481
   16MOL0     C 2098  -1.380   7.543   9.348  0.8447 -0.0679 -0.2422
   16MOL0     C 2099  -1.350   7.596   9.108 -0.2674  0.4625  0.4296
   16MOL0     C 2100  -1.482   7.565   9.062  1.2754  0.8190  0.3253
   16MOL0     O 2101  -1.554   7.666   9.004 -0.1344  0.1230  0.1423
   16MOL0     C 2102  -1.671   7.638   8.944 -0.4905  0.1789  0.9948
   16MOL0     C 2103  -1.768   7.552   8.987 -0.2405  0.3239 -0.6196
   16MOL0     C 2104  -1.893   7.533   8.916 -0.4221 -0.8783  0.1779
   16MOL0     C 2105  -1.914   7.591   8.797  0.4641 -0.5623  1.4596
   16MOL0     O 2106  -2.013   7.570   8.706  0.1454  0.0968  0.3306
   16MOL0     C 2107  -2.139   7.520   8.755 -0.6062  0.4351 -0.1542
   16MOL0     C 2108  -2.250   7.493   8.654  0.0850  0.8330  0.0824
   16MOL0     C 2109  -2.382   7.506   8.727 -0.3515 -0.5032  0.5083
   16MOL0     C 2110  -2.501   7.445   8.652  0.6230 -1.1517  0.5915
   16MOL0     C 2111  -2.622   7.414   8.733  0.9318 -0.4957 -1.1813
   16MOL0     C 2112  -2.751   7.375   8.653 -0.1480 -0.1093  0.4215
   16MOL0     C 2113  -2.875   7.397   8.737  0.0337 -0.7245  0.0137
   16MOL0     C 2114  -3.004   7.343   8.673 -0.1476 -0.0838  0.5682
   16MOL0    Cl 2115  -3.151   7.403   8.752 -0.1742 -0.1148 -0.1079
   16MOL0     C 2116  -1.813   7.672   8.748 -0.1304 -0.0453 -0.0500
   16MOL0     C 2117  -1.693   7.703   8.820 -0.5621 -0.2051 -0.2530
   16MOL0     O 2118  -1.529   7.455   9.086 -0.3610  0.1448  1.1731
   16MOL0     C 2119  -1.271   7.656   9.011 -0.0268  0.2913  0.5474
   16MOL0     C 2120  -1.134   7.663   9.032 -0.3094 -0.9369 -0.2351
   16MOL0     N 2121  -0.450   7.602   9.429 -0.4545  0.4203  0.4064
   16MOL0     N 2122  -0.344   7.536   9.435 -0.4825 -0.9987  0.1976
   16MOL0     C 2123   0.068   7.224   8.467  0.1351  0.2815 -0.1522
   16MOL0     C 2124   0.007   7.216   8.343 -0.0830 -0.3192  0.2762
   16MOL0     C 2125  -0.101   7.233   7.899 -0.1202  0.2706  0.1150
   16MOL0     C 2126  -0.197   7.133   7.878  0.5762  0.6964 -0.3078
   16MOL0     C 2127  -0.280   7.132   7.762 -0.3436  0.9582 -0.0061
   16MOL0     C 2128  -0.269   7.246   7.685  0.2606  0.2715 -0.9382
   16MOL0     O 2129  -0.348   7.261   7.575 -0.9984  0.3548  0.4075
   16MOL0     C 2130  -0.452   7.359   7.574 -0.0502 -0.4258  0.5264
   16MOL0     C 2131  -0.528   7.339   7.436  0.3867 -0.4167  0.4455
   16MOL0     C 2132  -0.663   7.413   7.417 -0.3161  0.1425 -0.5914
   16MOL0     C 2133  -0.752   7.350   7.303 -0.2827 -0.0849  0.7585
   16MOL0     C 2134  -0.702   7.386   7.169 -0.4631 -0.9040  0.3116
   16MOL0     C 2135  -0.683   7.415   7.050 -0.2469  0.0559 -0.4164
   16MOL0     C 2136  -0.181   7.348   7.705 -0.0667 -0.5799 -0.0804
   16MOL0     C 2137  -0.095   7.350   7.817 -0.8682  0.3036  0.5588
   16MOL0     C 2138   0.007   7.452   7.835 -0.1518 -0.5611  0.6699
   16MOL0     H 2139   0.212   7.422   8.161  1.5406 -2.7191 -1.3138
   16MOL0     H 2140   0.319   7.438   8.373  0.8768 -0.9009  1.2078
   16MOL0     H 2141   0.170   7.210   8.737  3.1794 -1.3929  1.4488
   16MOL0     H 2142   0.106   7.372   8.704  1.1119  2.8315  3.3040
   16MOL0     H 2143   0.395   7.349   8.793  0.3500 -1.0089  0.2145
   16MOL0     H 2144   0.274   7.477   8.788 -0.9808 -0.3939 -0.1985
   16MOL0     H 2145   0.254   7.231   8.982  0.9645  0.1681  1.2703
   16MOL0     H 2146   0.313   7.381   9.035  0.9988 -2.0703  0.9664
   16MOL0     H 2147   0.077   7.483   8.973  2.3732  0.5485  1.0813
   16MOL0     H 2148   0.039   7.308   8.924  0.4050 -1.6123 -0.4448
   16MOL0     H 2149   0.116   7.401   9.198  1.4900 -0.2060 -0.5563
   16MOL0     H 2150   0.072   7.230   9.140 -0.3127  0.6392 -2.3774
   16MOL0     H 2151  -0.136   7.457   9.149  0.3420  0.3417 -1.7743
   16MOL0     H 2152  -0.151   7.289   9.099  2.4562 -1.3517 -0.3128
   16MOL0     H 2153  -0.070   7.370   9.387 -0.3019 -1.4064  0.6441
   16MOL0     H 2154  -0.067   7.212   9.318  4.6036  2.2512 -0.3545
   16MOL0     H 2155  -0.324   7.237   9.288 -1.3614  2.3362 -1.8567
   16MOL0     H 2156  -0.266   7.286   9.459 -0.1699  0.0269 -0.1062
   16MOL0     H 2157  -0.503   7.406   9.177 -0.0030 -1.4763  0.5446
   16MOL0     H 2158  -0.710   7.685   9.366 -1.6087 -0.8995  1.3074
   16MOL0     H 2159  -0.725   7.557   9.259 -0.6814  1.3557  0.7053
   16MOL0     H 2160  -0.553   7.804   9.194  0.8262 -1.8105  2.2866
   16MOL0     H 2161  -0.610   7.687   9.076  2.6458  0.3368  0.1935
   16MOL0     H 2162  -0.784   7.871   9.257  2.2437 -0.5085  1.2139
   16MOL0     H 2163  -0.732   7.902   9.088  0.9829  0.1788 -0.0041
   16MOL0     H 2164  -0.949   7.832   9.073  1.5496  1.9460  0.6139
   16MOL0     H 2165  -0.847   7.723   8.998  4.0794  1.2112  1.3832
   16MOL0     H 2166  -1.123   7.569   9.355 -0.9491  1.4288  0.7843
   16MOL0     H 2167  -1.485   7.564   9.323  1.8392  1.3810 -3.8473
   16MOL0     H 2168  -1.361   7.621   9.423 -1.7437  1.7214 -1.2594
   16MOL0     H 2169  -1.373   7.437   9.374 -3.7369 -1.1027 -2.2300
   16MOL0     H 2170  -1.758   7.500   9.081  0.1530 -2.3347 -2.0177
   16MOL0     H 2171  -1.964   7.477   8.976  0.4662  1.8731  4.2104
   16MOL0     H 2172  -2.119   7.422   8.798  3.1620 -0.8459 -4.1095
   16MOL0     H 2173  -2.175   7.574   8.843  0.4799 -0.1048  0.6447
   16MOL0     H 2174  -2.239   7.573   8.580  0.7806  0.4015 -0.2865
   16MOL0     H 2175  -2.236   7.393   8.612 -1.1328  0.6898 -0.0388
   16MOL0     H 2176  -2.401   7.610   8.755  0.4716  0.2390 -1.4591
   16MOL0     H 2177  -2.376   7.440   8.814  2.9931 -1.7677 -0.5148
   16MOL0     H 2178  -2.468   7.351   8.606  1.3637  0.7507 -3.0978
   16MOL0     H 2179  -2.519   7.510   8.567 -1.8197  1.4803  2.8965
   16MOL0     H 2180  -2.596   7.329   8.797 -0.1226 -1.7118 -2.2900
   16MOL0     H 2181  -2.646   7.499   8.797 -0.5734 -1.4505 -0.4159
   16MOL0     H 2182  -2.745   7.280   8.599 -3.1622 -0.0261 -0.2208
   16MOL0     H 2183  -2.750   7.458   8.582 -1.9359  0.0302  0.5152
   16MOL0     H 2184  -2.885   7.502   8.763 -1.0446 -0.5223 -1.1395
   16MOL0     H 2185  -2.865   7.346   8.834 -1.4088  0.6875  0.9726
   16MOL0     H 2186  -2.999   7.235   8.691 -2.2112 -0.2024  0.6886
   16MOL0     H 2187  -3.011   7.345   8.564  4.9304 -2.2795 -0.1022
   16MOL0     H 2188  -1.820   7.719   8.650  1.0385  0.4090  0.0672
   16MOL0     H 2189  -1.611   7.761   8.779  0.3865 -0.5457  1.1018
   16MOL0     H 2190  -1.305   7.685   8.913  3.8279 -0.4115 -1.1896
   16MOL0     H 2191  -1.070   7.693   8.950 -0.6650  0.1619 -0.1160
   16MOL0     H 2192   0.023   7.171   8.551 -0.7583 -1.3515 -1.5961
   16MOL0     H 2193  -0.082   7.157   8.324 -0.4682  0.8803 -2.0324
   16MOL0     H 2194  -0.202   7.044   7.940  0.4246  2.1427  1.8657
   16MOL0     H 2195  -0.351   7.053   7.739 -1.4077  2.5702 -2.6569
   16MOL0     H 2196  -0.523   7.346   7.657 -1.6848  1.8230 -0.4284
   16MOL0     H 2197  -0.417   7.462   7.573 -0.7292 -0.1662 -1.5718
   16MOL0     H 2198  -0.550   7.232   7.439  2.2397 -0.8987 -0.8720
   16MOL0     H 2199  -0.452   7.358   7.360 -0.7355  0.6978 -0.4292
   16MOL0     H 2200  -0.721   7.412   7.510 -2.8302  0.1739 -2.0669
   16MOL0     H 2201  -0.647   7.519   7.397 -1.7379  0.9028  1.8127
   16MOL0     H 2202  -0.853   7.391   7.308 -0.1903  0.6884 -1.9832
   16MOL0     H 2203  -0.744   7.241   7.300  1.1136 -0.0342 -2.6772
   16MOL0     H 2204  -0.678   7.441   6.946  0.7843 -0.3382 -0.4788
   16MOL0     H 2205  -0.191   7.433   7.638 -3.9385  0.0119  0.9738
   16MOL0     H 2206   0.082   7.445   7.914  2.6065  0.2371 -1.6992
   16MOL0     H 2207   0.073   7.469   7.749 -0.3414 -1.2160  0.3856
   16MOL0     H 2208  -0.037   7.549   7.859 -0.2118 -0.6357  0.8609
   17MOL0     O 2209   9.281   3.844   2.034 -0.2884  0.3169 -0.6280
   17MOL0     C 2210   9.365   3.918   1.979  0.2872  0.5057  0.1834
   17MOL0     O 2211   9.342   4.008   1.882  0.3171  0.6603 -0.8569
   17MOL0     C 2212   9.209   4.040   1.859  0.1016 -0.0872 -0.4297
   17MOL0     C 2213   9.167   4.058   1.733  0.1653 -0.0761  0.3092
   17MOL0     C 2214   9.042   4.099   1.689  0.1644  0.0547  0.0929
   17MOL0     C 2215   8.947   4.113   1.787 -0.5758  0.5395  0.1151
   17MOL0     O 2216   8.821   4.148   1.761  0.6371 -0.8400 -0.3073
   17MOL0     C 2217   8.752   4.048   1.683  0.7170 -0.2817 -0.2507
   17MOL0     C 2218   8.599   4.071   1.697  0.0855 -0.2067  0.7515
   17MOL0     C 2219   8.550   4.091   1.847 -0.4921  0.5753 -0.1071
   17MOL0     C 2220   8.400   4.096   1.867  0.4117  0.5045  0.3358
   17MOL0     C 2221   8.338   3.958   1.862  1.3194  0.2246 -0.1956
   17MOL0     C 2222   8.188   3.962   1.914 -0.2165  0.7790 -0.0758
   17MOL0     C 2223   8.100   3.853   1.845 -0.1618 -0.1546 -0.4748
   17MOL0     C 2224   8.004   3.784   1.938  0.7115 -0.3514 -0.0012
   17MOL0     N 2225   7.880   3.859   1.975  0.1447  0.0003 -0.8184
   17MOL0     C 2226   7.861   3.908   2.103  0.8629  0.4951 -0.2481
   17MOL0     C 2227   7.747   3.982   2.099 -0.4389 -0.5045  0.2575
   17MOL0     C 2228   7.689   4.057   2.212  0.4808  0.3747 -0.3951
   17MOL0     C 2229   7.551   3.994   2.234  1.2125 -0.0519 -0.4227
   17MOL0     C 2230   7.483   4.057   2.360 -0.1017 -0.6256 -1.2116
   17MOL0     C 2231   7.561   4.045   2.498 -0.4988  0.5792  0.5962
   17MOL0     O 2232   7.616   3.912   2.516 -0.7441 -0.1126 -0.2418
   17MOL0     C 2233   7.634   3.859   2.644  1.1662 -0.5370  0.9902
   17MOL0     C 2234   7.635   3.722   2.648  0.2610 -0.1183 -0.6613
   17MOL0     C 2235   7.667   3.652   2.767 -0.3282 -0.4292  0.6772
   17MOL0     C 2236   7.691   3.509   2.751 -0.3749  0.0322  0.5827
   17MOL0     C 2237   7.694   3.725   2.884 -0.0852  0.0785  0.4493
   17MOL0     C 2238   7.720   3.647   3.016  0.4059 -0.0253  0.3282
   17MOL0     O 2239   7.830   3.667   3.091 -0.6881  0.6343 -0.7128
   17MOL0     C 2240   7.839   3.612   3.219  0.5410  0.2807  0.8010
   17MOL0     C 2241   7.826   3.478   3.234  0.0390  0.0152  0.0723
   17MOL0     C 2242   7.823   3.416   3.365 -1.1464  0.1237  0.0188
   17MOL0     C 2243   7.824   3.497   3.475 -1.1230 -0.8146 -0.1226
   17MOL0     O 2244   7.815   3.428   3.593 -0.5450  0.0376 -0.0658
   17MOL0     C 2245   7.796   3.487   3.722 -0.3215  0.2993  0.5508
   17MOL0     C 2246   7.745   3.377   3.825 -0.7967 -0.4775 -0.2771
   17MOL0     C 2247   7.740   3.445   3.959 -0.2939 -0.1091 -1.2335
   17MOL0     C 2248   7.658   3.357   4.059 -0.1175 -0.6398  0.2579
   17MOL0     C 2249   7.557   3.439   4.151  0.5014  0.7001  0.6293
   17MOL0     C 2250   7.495   3.338   4.248 -0.4086 -0.3870 -0.0846
   17MOL0     C 2251   7.377   3.396   4.324 -0.2909  0.1631 -1.1100
   17MOL0     C 2252   7.243   3.361   4.262  1.2711  0.4936 -0.3677
   17MOL0    Cl 2253   7.192   3.191   4.297  0.2500 -0.5414  0.3407
   17MOL0     C 2254   7.820   3.634   3.460 -0.2390  0.3263  0.7247
   17MOL0     C 2255   7.828   3.692   3.335  0.1250 -0.6413  1.1735
   17MOL0     O 2256   7.627   3.563   3.038 -0.1737 -0.1577 -0.0893
   17MOL0     C 2257   7.681   3.866   2.884 -0.1674  0.4099  1.1619
   17MOL0     C 2258   7.659   3.933   2.759 -0.4425 -0.0705  0.4257
   17MOL0     N 2259   7.702   3.972   1.968 -0.6167 -0.3715 -0.4223
   17MOL0     N 2260   7.782   3.897   1.897 -0.1916 -0.9607  0.2419
   17MOL0     C 2261   8.988   4.104   1.922  1.1274 -0.4441 -0.7337
   17MOL0     C 2262   9.117   4.076   1.961  0.5247  0.0369 -0.3657
   17MOL0     C 2263   9.506   3.906   2.037  1.0972  0.5021 -0.9852
   17MOL0     C 2264   9.612   3.941   1.953 -0.3833 -0.8557  0.3032
   17MOL0     C 2265   9.748   3.927   1.990 -0.8959  0.7460  0.6172
   17MOL0     C 2266   9.779   3.864   2.104  0.0567  0.3986  0.5006
   17MOL0     O 2267   9.907   3.829   2.146  0.1973 -0.2124 -0.0913
   17MOL0     C 2268  10.002   3.842   2.047 -0.6657 -0.4055  0.5190
   17MOL0     C 2269  10.147   3.825   2.097 -0.3693 -0.5130 -1.1649
   17MOL0     C 2270  10.243   3.820   1.975 -0.6470 -0.3642 -0.3429
   17MOL0     C 2271  10.381   3.775   2.011  0.2203 -0.5018 -0.2890
   17MOL0     C 2272  10.443   3.698   1.896  0.1916  0.3635 -0.5525
   17MOL0     C 2273  10.498   3.642   1.810 -0.1267 -0.0114  0.6154
   17MOL0     C 2274   9.671   3.832   2.196 -0.7542  0.8653  0.4368
   17MOL0     C 2275   9.539   3.847   2.167 -0.1068 -0.6857 -0.1720
   17MOL0     C 2276   9.443   3.843   2.287 -0.5431 -0.3477  0.4650
   17MOL0     H 2277   9.237   4.046   1.651 -0.7320  0.7121 -0.6037
   17MOL0     H 2278   9.030   4.113   1.582 -0.8090  0.8116  0.2849
   17MOL0     H 2279   8.766   3.950   1.730 -1.3543 -0.3382  0.3634
   17MOL0     H 2280   8.785   4.034   1.580  0.4914 -1.6206 -0.1558
   17MOL0     H 2281   8.573   4.161   1.642  1.5087 -0.4204 -0.3330
   17MOL0     H 2282   8.544   3.982   1.664 -0.9077  0.2770  1.0599
   17MOL0     H 2283   8.593   4.002   1.893  2.6928  2.0729  0.1256
   17MOL0     H 2284   8.607   4.171   1.895  1.5724 -0.1111 -1.2587
   17MOL0     H 2285   8.370   4.128   1.968 -0.0178 -1.4658  0.8776
   17MOL0     H 2286   8.365   4.154   1.782  0.3062 -0.8546 -0.5734
   17MOL0     H 2287   8.383   3.889   1.934 -0.2832  0.5822  1.2257
   17MOL0     H 2288   8.352   3.928   1.758  1.0453  0.4535 -0.3013
   17MOL0     H 2289   8.186   3.956   2.023  0.3030  0.1718 -0.0945
   17MOL0     H 2290   8.142   4.060   1.897 -3.3922 -0.2216  1.7444
   17MOL0     H 2291   8.165   3.781   1.794  2.5198  0.3128  2.0004
   17MOL0     H 2292   8.048   3.900   1.761  2.2212  0.0968 -1.8909
   17MOL0     H 2293   7.969   3.701   1.876 -0.2739 -1.7137  2.2438
   17MOL0     H 2294   8.066   3.744   2.019  1.0244 -0.2445 -0.1863
   17MOL0     H 2295   7.928   3.900   2.189 -3.5388  1.6496  3.7096
   17MOL0     H 2296   7.682   4.160   2.175  1.7125  0.5539 -0.1763
   17MOL0     H 2297   7.751   4.056   2.302  1.6314  0.2247 -1.1605
   17MOL0     H 2298   7.490   4.009   2.144 -0.4588  2.5889  1.0414
   17MOL0     H 2299   7.557   3.886   2.251  2.4345  0.1438  0.5229
   17MOL0     H 2300   7.458   4.163   2.349  1.2193 -0.1485  0.1095
   17MOL0     H 2301   7.392   3.996   2.369 -2.2789  2.5752  0.6334
   17MOL0     H 2302   7.651   4.106   2.509  1.5701 -2.5618  2.8742
   17MOL0     H 2303   7.494   4.075   2.579  1.3183  1.6338  1.7754
   17MOL0     H 2304   7.612   3.667   2.557 -2.1353 -2.1935  1.0570
   17MOL0     H 2305   7.628   3.458   2.824 -1.3927 -1.0121 -0.9844
   17MOL0     H 2306   7.793   3.493   2.787  0.1239  0.1927 -0.7132
   17MOL0     H 2307   7.670   3.477   2.649  1.1342  3.0394 -0.8029
   17MOL0     H 2308   7.822   3.426   3.139  0.0540  0.2373 -0.0512
   17MOL0     H 2309   7.838   3.309   3.376  3.0163  0.7312  2.5498
   17MOL0     H 2310   7.891   3.521   3.764  2.7632 -3.6277 -2.4275
   17MOL0     H 2311   7.723   3.568   3.716 -0.0161  0.4651 -2.3410
   17MOL0     H 2312   7.647   3.335   3.798 -0.9980 -0.1600 -0.0467
   17MOL0     H 2313   7.817   3.295   3.828  0.5067  0.4314 -3.3083
   17MOL0     H 2314   7.699   3.546   3.952  2.0980  1.0825  0.6113
   17MOL0     H 2315   7.839   3.462   4.001 -1.8639  1.3834  2.3652
   17MOL0     H 2316   7.729   3.298   4.118 -1.1270 -3.0763 -0.7992
   17MOL0     H 2317   7.592   3.293   4.000 -0.3483 -0.4002  0.2553
   17MOL0     H 2318   7.606   3.517   4.209  2.2757 -0.7963  1.2456
   17MOL0     H 2319   7.480   3.475   4.082 -1.5496 -2.6962  0.9092
   17MOL0     H 2320   7.575   3.305   4.316 -0.1068  1.1005  0.3185
   17MOL0     H 2321   7.457   3.248   4.199  0.3015 -0.7417 -0.0029
   17MOL0     H 2322   7.385   3.505   4.318 -1.8850  0.3044 -1.2345
   17MOL0     H 2323   7.375   3.364   4.429  0.0016 -1.4447 -1.5717
   17MOL0     H 2324   7.252   3.373   4.154  2.0419  1.4736 -0.2029
   17MOL0     H 2325   7.165   3.426   4.302  0.1907 -0.4442 -0.8717
   17MOL0     H 2326   7.824   3.710   3.537  3.9202  2.7781 -1.5434
   17MOL0     H 2327   7.821   3.799   3.321  2.2298 -0.4142  1.4752
   17MOL0     H 2328   7.698   3.919   2.977 -3.0592  0.8334  1.5151
   17MOL0     H 2329   7.668   4.041   2.756  0.1642 -0.0522  1.9758
   17MOL0     H 2330   8.908   4.137   1.988 -0.5564  0.0889 -2.9132
   17MOL0     H 2331   9.144   4.076   2.066 -0.8548  1.3239  0.0332
   17MOL0     H 2332   9.594   3.978   1.852  1.5431  3.6219  1.3414
   17MOL0     H 2333   9.828   3.951   1.921 -2.2185  0.6014 -1.0637
   17MOL0     H 2334   9.985   3.765   1.971 -0.4456 -1.7151  1.7580
   17MOL0     H 2335   9.999   3.945   2.011 -0.1672 -1.1308 -1.7655
   17MOL0     H 2336  10.158   3.745   2.171 -1.1022  3.3612  3.5994
   17MOL0     H 2337  10.169   3.909   2.163  4.1539 -1.6004 -0.9578
   17MOL0     H 2338  10.205   3.753   1.898  0.3499 -1.9201  0.4588
   17MOL0     H 2339  10.238   3.921   1.933 -1.5514 -0.3229 -0.1671
   17MOL0     H 2340  10.379   3.703   2.093  0.6419  1.2493  1.3564
   17MOL0     H 2341  10.457   3.852   2.030  1.7255 -1.8308 -0.7956
   17MOL0     H 2342  10.533   3.597   1.719  0.0347 -0.3381  0.8366
   17MOL0     H 2343   9.702   3.807   2.297 -2.1148  0.3247  0.7369
   17MOL0     H 2344   9.497   3.858   2.381 -1.0123 -0.7115  0.7962
   17MOL0     H 2345   9.370   3.924   2.281  0.3726  0.4220 -0.8159
   17MOL0     H 2346   9.401   3.742   2.289 -3.4221  0.6663 -1.6333
   18MOL0     O 2347   6.813   5.980   9.059  0.4327  0.1261 -0.0581
   18MOL0     C 2348   6.862   6.024   8.959 -0.0060 -0.7329  0.5997
   18MOL0     O 2349   6.954   6.130   8.964 -0.0540 -0.8976  0.1946
   18MOL0     C 2350   6.957   6.203   9.071  0.0485  0.2305 -0.0083
   18MOL0     C 2351   7.011   6.163   9.193 -0.0663  0.6250 -0.0241
   18MOL0     C 2352   7.020   6.254   9.296  0.1894  0.4853  0.0311
   18MOL0     C 2353   6.959   6.380   9.300 -0.4927  0.6730  0.6743
   18MOL0     O 2354   6.972   6.453   9.420  0.4693 -0.4960  0.6437
   18MOL0     C 2355   6.878   6.555   9.440 -0.4852 -0.2081 -0.1759
   18MOL0     C 2356   6.883   6.585   9.588 -0.2235  0.7871 -1.7592
   18MOL0     C 2357   6.803   6.699   9.631  0.2960 -0.9447 -0.7210
   18MOL0     C 2358   6.650   6.687   9.605  0.4237  0.4627 -0.2982
   18MOL0     C 2359   6.568   6.768   9.700  0.6137 -0.8695 -0.0820
   18MOL0     C 2360   6.422   6.799   9.659  0.3878 -0.2111  0.1981
   18MOL0     C 2361   6.347   6.875   9.769  0.4575  1.1097 -0.6746
   18MOL0     C 2362   6.389   7.020   9.782 -0.6360 -0.3870  0.0773
   18MOL0     N 2363   6.318   7.079   9.899 -0.4398  0.7432 -0.3504
   18MOL0     C 2364   6.183   7.093   9.898  0.3843 -0.3541 -0.8367
   18MOL0     C 2365   6.163   7.194   9.990  0.1092  1.0155  0.5631
   18MOL0     C 2366   6.026   7.255  10.028  0.6779 -0.3695 -0.4240
   18MOL0     C 2367   5.992   7.377   9.934  0.9846 -0.0527  0.6722
   18MOL0     C 2368   5.888   7.472   9.992  0.2724  0.5605  0.5745
   18MOL0     C 2369   5.884   7.602   9.913 -0.9989  0.4324 -0.1442
   18MOL0     O 2370   5.859   7.574   9.777  0.6169  1.1588 -0.0176
   18MOL0     C 2371   5.890   7.676   9.694  0.4022  0.5504  0.8087
   18MOL0     C 2372   6.023   7.696   9.654  0.0440  0.5047 -0.3693
   18MOL0     C 2373   6.054   7.802   9.573  0.1662 -0.8795  0.2476
   18MOL0     C 2374   6.200   7.817   9.532  0.3596  0.2338 -0.8822
   18MOL0     C 2375   5.953   7.893   9.532  0.6578  0.2149 -0.0389
   18MOL0     C 2376   5.969   8.009   9.447  0.0148  0.5308 -0.4266
   18MOL0     O 2377   5.892   8.016   9.333 -0.1837  0.4458  0.7994
   18MOL0     C 2378   5.952   8.068   9.223 -0.6779 -0.4510 -1.0778
   18MOL0     C 2379   5.929   8.197   9.181 -0.0998 -0.3243 -0.0030
   18MOL0     C 2380   5.988   8.240   9.057 -0.0604 -0.6284  0.4966
   18MOL0     C 2381   6.088   8.158   8.985  0.5235 -0.5744 -0.4733
   18MOL0     O 2382   6.162   8.191   8.872  0.0378 -0.4185  0.1512
   18MOL0     C 2383   6.203   8.326   8.855 -0.9824  0.7946 -0.1252
   18MOL0     C 2384   6.340   8.335   8.808  0.5541 -0.0188 -1.2080
   18MOL0     C 2385   6.346   8.342   8.655 -0.6344  0.2332  0.2747
   18MOL0     C 2386   6.486   8.292   8.612  0.1240 -0.2558  0.4677
   18MOL0     C 2387   6.483   8.259   8.466  0.0235 -0.1042  0.1742
   18MOL0     C 2388   6.611   8.228   8.395  0.3639 -0.2468 -0.4377
   18MOL0     C 2389   6.595   8.164   8.257 -0.1484  0.4674 -0.1608
   18MOL0     C 2390   6.723   8.123   8.181  0.4379 -0.1333  0.2150
   18MOL0    Cl 2391   6.778   7.967   8.246 -0.1687 -0.1266  0.1706
   18MOL0     C 2392   6.116   8.031   9.042 -0.0062 -0.4310 -1.4344
   18MOL0     C 2393   6.045   7.988   9.154  0.6967  0.2730 -0.0516
   18MOL0     O 2394   6.058   8.084   9.475 -1.1329 -0.2224  0.1678
   18MOL0     C 2395   5.823   7.852   9.542  0.7739  0.5873  0.2265
   18MOL0     C 2396   5.790   7.750   9.635  1.0965  0.2015  0.4252
   18MOL0     N 2397   6.281   7.234  10.037 -0.2207  0.1242 -0.1252
   18MOL0     N 2398   6.375   7.161   9.988 -0.0370  0.1632  0.1414
   18MOL0     C 2399   6.890   6.412   9.180  0.5598 -0.2762  1.2999
   18MOL0     C 2400   6.904   6.331   9.068  0.3791 -0.2790 -0.1241
   18MOL0     C 2401   6.845   5.950   8.832  0.7873 -0.2565  0.3575
   18MOL0     C 2402   6.803   5.819   8.814 -0.6714 -0.5796  0.8231
   18MOL0     C 2403   6.779   5.755   8.695  0.9677 -0.6976 -0.3363
   18MOL0     C 2404   6.793   5.822   8.577 -0.0129 -0.7813  1.3592
   18MOL0     O 2405   6.771   5.769   8.448  0.2846  0.0498 -0.3561
   18MOL0     C 2406   6.782   5.631   8.432 -0.4073 -0.0598  0.3793
   18MOL0     C 2407   6.908   5.571   8.374 -0.5857 -0.0484 -0.3553
   18MOL0     C 2408   7.026   5.585   8.474 -0.0187  0.5150  0.0929
   18MOL0     C 2409   7.149   5.517   8.423 -0.3720 -0.9222  0.0935
   18MOL0     C 2410   7.131   5.370   8.417  0.0799 -0.6586  0.2857
   18MOL0     C 2411   7.102   5.254   8.413 -1.1206  0.1075 -0.4535
   18MOL0     C 2412   6.843   5.952   8.585 -0.2799 -0.4748  0.3069
   18MOL0     C 2413   6.859   6.022   8.705  0.2775 -0.9132 -0.6098
   18MOL0     C 2414   6.878   6.170   8.691  0.7504 -0.2553 -0.2164
   18MOL0     H 2415   7.069   6.073   9.210  0.2014  0.6795 -0.6403
   18MOL0     H 2416   7.084   6.225   9.379  0.7963  0.4556 -0.4361
   18MOL0     H 2417   6.781   6.517   9.407 -0.2346 -0.9784 -0.0396
   18MOL0     H 2418   6.913   6.638   9.378  2.3291  0.8518  2.5343
   18MOL0     H 2419   6.840   6.493   9.629 -0.4327  0.9121 -1.6993
   18MOL0     H 2420   6.985   6.583   9.628  0.3651  2.1308 -3.1059
   18MOL0     H 2421   6.811   6.711   9.739  1.5463  2.1111 -1.0408
   18MOL0     H 2422   6.841   6.789   9.581  0.8996  0.9683  2.8943
   18MOL0     H 2423   6.636   6.708   9.499 -2.3209 -1.0255 -0.3249
   18MOL0     H 2424   6.615   6.584   9.619 -2.3264  1.5619  1.9010
   18MOL0     H 2425   6.620   6.863   9.713  0.7520 -0.9130 -0.3152
   18MOL0     H 2426   6.574   6.727   9.802 -0.3386 -1.2596 -0.1767
   18MOL0     H 2427   6.408   6.847   9.562 -0.1331  3.0121  1.7561
   18MOL0     H 2428   6.360   6.709   9.660 -3.5058  2.1702  3.1203
   18MOL0     H 2429   6.354   6.831   9.869 -1.0228 -0.5396 -1.2360
   18MOL0     H 2430   6.239   6.879   9.756  0.2020  3.4126  1.3124
   18MOL0     H 2431   6.497   7.025   9.794 -0.5163 -2.9296  0.6951
   18MOL0     H 2432   6.368   7.070   9.688  0.5980 -0.1649 -0.0899
   18MOL0     H 2433   6.107   7.032   9.851 -1.2849  0.0608  1.1341
   18MOL0     H 2434   6.031   7.294  10.130  1.9053  1.0087 -0.9685
   18MOL0     H 2435   5.956   7.172  10.029  0.0369  0.1461 -1.1505
   18MOL0     H 2436   6.091   7.422   9.920  1.8289 -1.8518  0.6692
   18MOL0     H 2437   5.950   7.330   9.845 -0.5172 -2.2612  2.4295
   18MOL0     H 2438   5.789   7.424   9.999  1.2651 -1.9377 -0.9438
   18MOL0     H 2439   5.913   7.508  10.092  2.7669  1.4917 -0.3195
   18MOL0     H 2440   5.797   7.657   9.947 -0.2638  2.2883 -1.1246
   18MOL0     H 2441   5.976   7.657   9.937 -1.9377  2.9413 -1.9352
   18MOL0     H 2442   6.094   7.621   9.687 -1.9825 -0.7114  1.4870
   18MOL0     H 2443   6.250   7.873   9.612  1.8488  2.1060 -3.0086
   18MOL0     H 2444   6.211   7.861   9.433 -1.3125 -1.5117 -1.9194
   18MOL0     H 2445   6.243   7.717   9.522 -1.5724 -1.0193  1.8657
   18MOL0     H 2446   5.854   8.267   9.215 -0.0259  0.5161 -1.4664
   18MOL0     H 2447   5.959   8.340   9.028 -1.3842 -0.4290  2.4020
   18MOL0     H 2448   6.132   8.382   8.793 -1.3852 -1.0864 -1.4431
   18MOL0     H 2449   6.200   8.371   8.954  0.3942 -0.3580  0.4693
   18MOL0     H 2450   6.396   8.418   8.852 -0.7727 -0.2174  1.0237
   18MOL0     H 2451   6.385   8.242   8.845  0.5065  0.9423  1.5012
   18MOL0     H 2452   6.330   8.445   8.622  2.2586  1.4105  2.1388
   18MOL0     H 2453   6.268   8.276   8.617 -0.0926 -1.6161  2.1934
   18MOL0     H 2454   6.519   8.206   8.672  0.1147  0.1816  1.1036
   18MOL0     H 2455   6.557   8.373   8.630  1.0973 -1.0714  0.3812
   18MOL0     H 2456   6.427   8.164   8.464  0.0271 -0.2276  2.5228
   18MOL0     H 2457   6.437   8.342   8.412 -0.8085  0.4540  1.6865
   18MOL0     H 2458   6.671   8.160   8.456  0.1122 -1.8035 -1.8254
   18MOL0     H 2459   6.665   8.322   8.384 -0.9285  0.6686  0.7205
   18MOL0     H 2460   6.540   8.227   8.186 -0.2092 -2.1645 -2.6290
   18MOL0     H 2461   6.529   8.077   8.266  0.4429  0.0847  0.6193
   18MOL0     H 2462   6.803   8.197   8.190  0.4562 -0.3922  2.9666
   18MOL0     H 2463   6.701   8.114   8.074  0.8122 -0.9854  0.1941
   18MOL0     H 2464   6.191   7.971   8.992  1.1856 -1.1861  1.0622
   18MOL0     H 2465   6.071   7.886   9.183  2.3068  1.2102  2.1761
   18MOL0     H 2466   5.739   7.900   9.494 -0.7999 -1.9243  0.2877
   18MOL0     H 2467   5.685   7.727   9.652  0.7568  2.6505  2.1138
   18MOL0     H 2468   6.843   6.507   9.157 -0.8600 -1.5404 -1.5281
   18MOL0     H 2469   6.870   6.368   8.972  1.5523  1.4654  0.0778
   18MOL0     H 2470   6.794   5.760   8.905 -0.1286 -0.1618  1.1509
   18MOL0     H 2471   6.750   5.650   8.690  1.7533 -0.8858 -1.6349
   18MOL0     H 2472   6.756   5.565   8.515  0.5179 -0.7394  0.1488
   18MOL0     H 2473   6.711   5.611   8.351 -0.5775 -1.4703  0.8487
   18MOL0     H 2474   6.939   5.629   8.286  2.1421  1.2508  1.3222
   18MOL0     H 2475   6.883   5.472   8.335  2.9906 -1.4532  0.5474
   18MOL0     H 2476   7.066   5.687   8.484  0.2226  0.8113 -2.9589
   18MOL0     H 2477   6.990   5.549   8.571 -1.7998 -1.0276 -1.0829
   18MOL0     H 2478   7.232   5.546   8.488  0.4115 -0.6874 -0.9792
   18MOL0     H 2479   7.178   5.560   8.327 -4.3921 -0.4001 -1.0787
   18MOL0     H 2480   7.075   5.152   8.434 -0.4020  0.5736  3.6266
   18MOL0     H 2481   6.850   6.004   8.490 -1.4227  1.0881  1.0286
   18MOL0     H 2482   6.857   6.228   8.781 -2.2098 -3.4592  1.4421
   18MOL0     H 2483   6.978   6.202   8.661  2.3120 -2.1711  2.5243
   18MOL0     H 2484   6.797   6.202   8.625 -0.6340  1.0455  1.9946
   19MOL0     O 2485   6.014   8.460   1.225 -0.6365 -0.7830 -0.8426
   19MOL0     C 2486   5.894   8.441   1.196  0.6257  0.2543  0.5947
   19MOL0     O 2487   5.835   8.470   1.075  0.6719  0.5174 -0.2228
   19MOL0     C 2488   5.907   8.540   0.982  0.3583 -0.4518  0.4132
   19MOL0     C 2489   5.982   8.477   0.881  0.2513 -0.7778 -0.2460
   19MOL0     C 2490   6.046   8.551   0.788  0.7533  1.3423  0.1524
   19MOL0     C 2491   6.030   8.688   0.782  0.6310 -0.0291  0.3921
   19MOL0     O 2492   6.072   8.764   0.672 -0.0115  0.3821 -0.8314
   19MOL0     C 2493   6.186   8.728   0.602 -0.2296  0.0076  0.8274
   19MOL0     C 2494   6.301   8.743   0.703 -0.4248 -0.7847  0.3773
   19MOL0     C 2495   6.440   8.721   0.629 -0.7452 -0.3219 -0.3798
   19MOL0     C 2496   6.513   8.593   0.658  0.0699 -0.4845 -0.2684
   19MOL0     C 2497   6.464   8.476   0.583  0.8491  0.8886  0.8205
   19MOL0     C 2498   6.548   8.343   0.606 -0.3150  0.1279 -0.5358
   19MOL0     C 2499   6.507   8.219   0.508  0.8657 -0.1150 -0.4687
   19MOL0     C 2500   6.372   8.145   0.558 -0.3631 -0.8369 -0.8018
   19MOL0     N 2501   6.243   8.204   0.525 -0.3757 -0.6945  0.4507
   19MOL0     C 2502   6.204   8.212   0.394  0.1401  0.1456  1.7996
   19MOL0     C 2503   6.083   8.279   0.394 -0.0281 -0.0281 -0.7527
   19MOL0     C 2504   5.987   8.311   0.281 -0.0640  0.4268  0.2072
   19MOL0     C 2505   5.965   8.466   0.261 -0.3390  0.1721 -0.0741
   19MOL0     C 2506   5.833   8.494   0.186 -0.9778  0.0172 -0.2235
   19MOL0     C 2507   5.827   8.646   0.167  0.1927  0.0691 -0.3336
   19MOL0     O 2508   5.938   8.676   0.090  0.4097  0.3800  0.3842
   19MOL0     C 2509   5.979   8.803   0.066 -0.2393 -0.3131  0.0867
   19MOL0     C 2510   6.100   8.821   0.004  0.6294 -0.4980 -0.5778
   19MOL0     C 2511   6.171   8.941  -0.015 -0.5216  0.6721 -0.6893
   19MOL0     C 2512   6.308   8.946  -0.086  0.0824 -0.5416 -0.5006
   19MOL0     C 2513   6.114   9.056   0.042 -0.1696 -0.1373 -0.1891
   19MOL0     C 2514   6.168   9.189   0.015  0.4421  0.3826  0.2699
   19MOL0     O 2515   6.150   9.277   0.110 -0.2279  0.5245 -0.3299
   19MOL0     C 2516   6.208   9.402   0.084  0.4315  0.6551  0.1889
   19MOL0     C 2517   6.340   9.430   0.057 -0.8903 -0.5287 -0.5204
   19MOL0     C 2518   6.385   9.562   0.050  0.3294  0.2387  0.5464
   19MOL0     C 2519   6.293   9.670   0.062 -0.4893 -0.0180  0.1017
   19MOL0     O 2520   6.347   9.791   0.018 -0.5781  0.0769  1.0767
   19MOL0     C 2521   6.265   9.883  -0.054  0.1457 -0.1646 -0.4947
   19MOL0     C 2522   6.357   9.971  -0.139 -0.9153  0.3715 -0.8258
   19MOL0     C 2523   6.450  10.050  -0.054 -0.3498 -0.1578 -0.6455
   19MOL0     C 2524   6.509  10.168  -0.126 -0.5620  0.2597  0.2397
   19MOL0     C 2525   6.612  10.226  -0.028  0.2647  0.6654 -0.3425
   19MOL0     C 2526   6.673  10.355  -0.078  0.0654  0.0781  0.6030
   19MOL0     C 2527   6.772  10.429   0.020  0.4048  0.0387  0.0355
   19MOL0     C 2528   6.809  10.557  -0.047  0.2158  0.0576 -0.1386
   19MOL0    Cl 2529   6.929  10.547  -0.190 -0.0335  0.4617 -0.0826
   19MOL0     C 2530   6.166   9.646   0.100  0.6483  0.2962  0.7811
   19MOL0     C 2531   6.124   9.511   0.121 -0.3392  1.1135  0.3588
   19MOL0     O 2532   6.209   9.210  -0.097 -0.3005  1.2156  0.2226
   19MOL0     C 2533   5.991   9.038   0.110  0.1934 -0.9268  0.1192
   19MOL0     C 2534   5.925   8.917   0.124  0.1009 -0.1510 -0.4881
   19MOL0     N 2535   6.063   8.308   0.530  0.2844 -0.1566  0.1702
   19MOL0     N 2536   6.148   8.258   0.607 -0.3475  0.9516 -0.1297
   19MOL0     C 2537   5.954   8.756   0.875  0.3419 -0.4418 -0.2686
   19MOL0     C 2538   5.887   8.680   0.983  0.2616 -0.3225  1.0344
   19MOL0     C 2539   5.799   8.378   1.287  0.7856  0.1763 -0.1955
   19MOL0     C 2540   5.671   8.347   1.246  0.0359  0.6948 -0.1942
   19MOL0     C 2541   5.577   8.284   1.328 -0.4219 -0.3241  0.2274
   19MOL0     C 2542   5.598   8.246   1.455 -0.3338  0.4313 -0.3990
   19MOL0     O 2543   5.521   8.173   1.546  0.5255 -0.3646  0.5097
   19MOL0     C 2544   5.402   8.115   1.501  0.7330 -0.0942  0.4860
   19MOL0     C 2545   5.432   8.005   1.405  0.0766  0.6127 -0.1459
   19MOL0     C 2546   5.296   7.947   1.349  0.7730 -0.1053  0.8924
   19MOL0     C 2547   5.325   7.829   1.250 -0.1309 -0.5431 -0.0525
   19MOL0     C 2548   5.356   7.878   1.108  0.2486 -0.3203 -0.6242
   19MOL0     C 2549   5.393   7.929   1.003 -0.0399 -0.2227 -0.0380
   19MOL0     C 2550   5.729   8.264   1.497  0.7364 -0.8805 -0.6867
   19MOL0     C 2551   5.832   8.332   1.418 -0.6977  1.0997  0.6269
   19MOL0     C 2552   5.961   8.352   1.490  0.4200 -0.1090  0.4663
   19MOL0     H 2553   5.985   8.370   0.863  1.1414 -0.8969  0.5536
   19MOL0     H 2554   6.105   8.492   0.718 -0.9033  1.2763 -1.2710
   19MOL0     H 2555   6.187   8.791   0.512  1.0985 -3.3002 -1.6795
   19MOL0     H 2556   6.185   8.628   0.558  3.1850  0.2181 -0.0564
   19MOL0     H 2557   6.293   8.843   0.748 -1.7015 -0.7803  0.1885
   19MOL0     H 2558   6.293   8.672   0.785  1.7252  0.1080  1.4162
   19MOL0     H 2559   6.412   8.715   0.523  0.1442  0.1094 -0.6492
   19MOL0     H 2560   6.506   8.804   0.655 -1.4106  0.6550 -1.6933
   19MOL0     H 2561   6.620   8.601   0.636  0.5114  2.2382  2.2664
   19MOL0     H 2562   6.513   8.582   0.767 -0.3271  3.3347  0.2241
   19MOL0     H 2563   6.454   8.504   0.478  3.6689  0.6213  0.3938
   19MOL0     H 2564   6.362   8.453   0.615  0.5412 -0.7745 -1.1967
   19MOL0     H 2565   6.653   8.365   0.587  0.3122 -1.8360  0.3948
   19MOL0     H 2566   6.529   8.307   0.707 -0.7721 -0.5600 -0.8562
   19MOL0     H 2567   6.575   8.135   0.521  0.3857 -0.4346  0.0533
   19MOL0     H 2568   6.497   8.235   0.401  0.3191  1.8413 -0.1710
   19MOL0     H 2569   6.372   8.045   0.513 -1.7441 -1.4405  0.4770
   19MOL0     H 2570   6.366   8.149   0.667 -2.6761 -0.5840 -0.8972
   19MOL0     H 2571   6.258   8.172   0.309 -0.1408  2.0109  0.6924
   19MOL0     H 2572   5.897   8.262   0.318  0.9470 -0.7994  1.1627
   19MOL0     H 2573   6.024   8.269   0.187 -1.6147  0.5391 -0.4790
   19MOL0     H 2574   5.957   8.517   0.357  1.6639 -1.6414  1.1497
   19MOL0     H 2575   6.046   8.511   0.203 -0.8248  1.0667 -0.0729
   19MOL0     H 2576   5.828   8.448   0.087  1.5350  2.2060 -1.4753
   19MOL0     H 2577   5.747   8.468   0.249  0.2982  1.4119  2.2284
   19MOL0     H 2578   5.731   8.682   0.131 -1.7238 -2.5273  1.6996
   19MOL0     H 2579   5.841   8.699   0.262 -2.0414  2.3132 -1.1558
   19MOL0     H 2580   6.140   8.736  -0.049 -1.4459 -0.5864 -2.1026
   19MOL0     H 2581   6.335   8.840  -0.082 -0.1845 -0.8563  6.7410
   19MOL0     H 2582   6.379   9.007  -0.030 -0.3549 -0.4728 -0.0136
   19MOL0     H 2583   6.302   8.985  -0.188 -1.7853  1.7570  0.3934
   19MOL0     H 2584   6.406   9.348   0.030 -0.2594  0.0278 -0.6631
   19MOL0     H 2585   6.485   9.586   0.015 -0.2829  2.6383  0.2519
   19MOL0     H 2586   6.190   9.839  -0.120 -0.3886  1.6154 -1.1386
   19MOL0     H 2587   6.215   9.947   0.020 -0.8615 -0.4467 -0.9157
   19MOL0     H 2588   6.418   9.909  -0.206  2.5988 -0.6144  2.9455
   19MOL0     H 2589   6.301  10.050  -0.189 -2.9179  2.0018  3.5339
   19MOL0     H 2590   6.520   9.978  -0.011 -0.3938  1.1809  1.8481
   19MOL0     H 2591   6.393  10.089   0.031  0.2693 -1.7188  0.5362
   19MOL0     H 2592   6.424  10.235  -0.141  2.2957  4.1540 -0.0044
   19MOL0     H 2593   6.554  10.156  -0.224 -0.1448  1.7989  0.2110
   19MOL0     H 2594   6.563  10.247   0.068 -0.2271 -0.4986 -0.3193
   19MOL0     H 2595   6.684  10.151   0.005 -0.2708  0.4803  0.4399
   19MOL0     H 2596   6.584  10.416  -0.096 -1.2329 -1.7598  0.4695
   19MOL0     H 2597   6.723  10.325  -0.171 -1.1605 -2.1016  0.5620
   19MOL0     H 2598   6.869  10.382   0.038  0.1535 -0.3283  0.4767
   19MOL0     H 2599   6.712  10.439   0.111 -0.5756 -0.6624 -0.5110
   19MOL0     H 2600   6.857  10.617   0.030  2.5790 -1.1467 -0.5634
   19MOL0     H 2601   6.722  10.619  -0.070  0.7273  0.5811 -0.7512
   19MOL0     H 2602   6.096   9.726   0.122 -0.6292 -0.8029  0.8521
   19MOL0     H 2603   6.030   9.481   0.165 -0.6288  2.9709  1.1005
   19MOL0     H 2604   5.943   9.128   0.147  0.4609 -0.0603 -1.5486
   19MOL0     H 2605   5.836   8.911   0.186  2.3688 -2.3484  2.9472
   19MOL0     H 2606   5.944   8.863   0.863  1.6504 -0.3600 -0.7945
   19MOL0     H 2607   5.813   8.727   1.047 -1.0710 -3.3642  1.9295
   19MOL0     H 2608   5.633   8.361   1.146 -0.4287  0.0921 -0.1085
   19MOL0     H 2609   5.485   8.260   1.274  0.6608  0.1110 -1.9319
   19MOL0     H 2610   5.345   8.078   1.587  1.6664  1.9521  2.0707
   19MOL0     H 2611   5.340   8.190   1.452  1.4465  0.9920  1.2031
   19MOL0     H 2612   5.487   7.929   1.462  2.1337  2.6093  0.7271
   19MOL0     H 2613   5.503   8.026   1.324  0.4855 -2.6027 -0.7792
   19MOL0     H 2614   5.240   7.905   1.433  1.1055  0.7170  1.5324
   19MOL0     H 2615   5.230   8.019   1.299 -1.8524 -2.7014  0.3590
   19MOL0     H 2616   5.233   7.770   1.249 -1.6840  1.5972 -3.5977
   19MOL0     H 2617   5.405   7.766   1.291 -1.1827 -1.0296  1.3278
   19MOL0     H 2618   5.423   7.976   0.911 -1.0025 -0.2879 -0.3936
   19MOL0     H 2619   5.757   8.210   1.587 -2.2006 -3.6957 -1.2955
   19MOL0     H 2620   6.059   8.319   1.454  1.5955  0.1629  3.1892
   19MOL0     H 2621   5.966   8.461   1.494 -1.5980  0.0697 -0.6946
   19MOL0     H 2622   5.957   8.308   1.590  1.3529 -1.4175 -0.0469
   20MOL0     O 2623   7.519   0.195  11.277  0.5295  0.5682 -0.1541
   20MOL0     C 2624   7.454   0.169  11.171 -0.0392 -0.2786  0.3276
   20MOL0     O 2625   7.511   0.143  11.053  0.8670  0.2036  0.1709
   20MOL0     C 2626   7.649   0.144  11.031 -0.2591 -0.0945  0.0708
   20MOL0     C 2627   7.735   0.242  11.084 -0.3542 -1.1550  0.0990
   20MOL0     C 2628   7.873   0.247  11.060 -0.8254  0.4661  0.4162
   20MOL0     C 2629   7.929   0.147  10.973 -0.1691  0.3142  0.4482
   20MOL0     O 2630   8.052   0.138  10.933  0.9317  0.0192 -0.3529
   20MOL0     C 2631   8.139   0.250  10.948 -0.6082  0.2468 -0.6412
   20MOL0     C 2632   8.228   0.263  10.828  0.3918  0.8652  0.6161
   20MOL0     C 2633   8.158   0.294  10.700  0.4636  0.2547 -0.4356
   20MOL0     C 2634   8.251   0.285  10.579  0.3290 -1.3894  0.2561
   20MOL0     C 2635   8.165   0.332  10.456  0.7248 -0.5490 -0.2636
   20MOL0     C 2636   8.249   0.360  10.329  0.7739 -0.7454 -0.7780
   20MOL0     C 2637   8.160   0.441  10.228  0.5385 -0.1500  0.5839
   20MOL0     C 2638   8.037   0.379  10.175  0.2469  0.3094 -0.6031
   20MOL0     N 2639   7.918   0.391  10.258 -0.6680 -0.1640  1.0911
   20MOL0     C 2640   7.879   0.517  10.296  0.1263 -0.4814 -1.3390
   20MOL0     C 2641   7.751   0.499  10.332 -0.5442  0.7923  0.0739
   20MOL0     C 2642   7.643   0.592  10.376  0.4553 -0.5408 -0.8576
   20MOL0     C 2643   7.621   0.602  10.529 -0.6202 -0.7420 -0.4665
   20MOL0     C 2644   7.626   0.465  10.598 -0.1806  0.0640 -0.7301
   20MOL0     C 2645   7.579   0.464  10.744  0.4858 -0.5319 -0.0942
   20MOL0     O 2646   7.440   0.493  10.750  0.9347  0.5733  0.6876
   20MOL0     C 2647   7.390   0.485  10.876  0.3614  0.4544 -0.3728
   20MOL0     C 2648   7.456   0.517  10.997 -1.0674  0.4403  0.2990
   20MOL0     C 2649   7.387   0.522  11.119  0.2067  0.0019  0.3744
   20MOL0     C 2650   7.473   0.552  11.243  0.4843 -0.2432  0.3586
   20MOL0     C 2651   7.245   0.494  11.125 -0.5664  1.0950  0.4667
   20MOL0     C 2652   7.154   0.505  11.247 -0.0443  0.4116  0.0890
   20MOL0     O 2653   7.016   0.464  11.227 -0.3840 -0.3640  0.3020
   20MOL0     C 2654   6.915   0.543  11.281 -0.0476  0.0735 -0.7773
   20MOL0     C 2655   6.798   0.473  11.307 -0.6170 -0.3384 -0.2053
   20MOL0     C 2656   6.698   0.540  11.371  0.6366  0.3805 -1.9640
   20MOL0     C 2657   6.713   0.680  11.407  0.5635  0.1599  0.0143
   20MOL0     O 2658   6.608   0.751  11.445  0.1008  0.3125  0.1271
   20MOL0     C 2659   6.535   0.709  11.561 -0.0828 -0.0152  0.2751
   20MOL0     C 2660   6.422   0.807  11.584  0.0451 -0.1274 -0.0077
   20MOL0     C 2661   6.301   0.793  11.487 -0.1619 -0.1118  0.3730
   20MOL0     C 2662   6.178   0.828  11.568  0.4615  0.1020  0.2570
   20MOL0     C 2663   6.053   0.854  11.475  0.1711  0.1968  0.3349
   20MOL0     C 2664   5.989   0.712  11.455 -0.1455 -0.4730  0.0158
   20MOL0     C 2665   5.904   0.694  11.322 -0.2720 -0.1331 -0.1830
   20MOL0     C 2666   5.862   0.543  11.326  1.0977 -0.7804  0.0394
   20MOL0    Cl 2667   5.991   0.421  11.332 -0.0511 -0.1718 -0.4147
   20MOL0     C 2668   6.824   0.746  11.365  0.4909 -0.3241 -0.8047
   20MOL0     C 2669   6.931   0.676  11.308  0.5739  0.2817  0.1958
   20MOL0     O 2670   7.194   0.563  11.347  0.1918 -0.1480 -0.5656
   20MOL0     C 2671   7.183   0.456  11.007  0.5820  0.2523  0.8039
   20MOL0     C 2672   7.255   0.457  10.881  0.2544  0.1761 -1.1910
   20MOL0     N 2673   7.721   0.372  10.312 -0.2237  0.6179 -0.4318
   20MOL0     N 2674   7.819   0.300  10.281  0.7803  0.2204 -0.3289
   20MOL0     C 2675   7.842   0.043  10.925 -1.1470 -0.1363  0.2313
   20MOL0     C 2676   7.706   0.051  10.955 -0.0313  0.0978  0.3447
   20MOL0     C 2677   7.305   0.145  11.176  0.2893  0.3612  0.0359
   20MOL0     C 2678   7.239   0.143  11.046 -0.5621  0.3451  0.0614
   20MOL0     C 2679   7.101   0.136  11.037  0.1123  0.2531  0.0622
   20MOL0     C 2680   7.021   0.137  11.151  0.3216 -0.4070  0.0062
   20MOL0     O 2681   6.881   0.121  11.130 -0.1912 -0.2747 -0.4049
   20MOL0     C 2682   6.830   0.110  10.997  0.0848 -0.9679 -1.2817
   20MOL0     C 2683   6.680   0.087  11.008 -0.0690 -0.4312  0.3549
   20MOL0     C 2684   6.615   0.181  11.115 -0.3536  0.8858  0.2483
   20MOL0     C 2685   6.472   0.140  11.129  0.0170  0.8493  1.0177
   20MOL0     C 2686   6.420   0.237  11.230  0.3307 -0.3895 -0.4504
   20MOL0     C 2687   6.384   0.316  11.307 -0.1450 -1.4295 -1.4284
   20MOL0     C 2688   7.085   0.137  11.279 -0.0302 -0.0615 -0.2927
   20MOL0     C 2689   7.227   0.142  11.290 -0.3160  0.1061  0.3549
   20MOL0     C 2690   7.284   0.137  11.436 -1.0277 -0.3287  0.3443
   20MOL0     H 2691   7.685   0.326  11.132 -0.3984 -2.0861  1.7670
   20MOL0     H 2692   7.933   0.325  11.105 -0.0763  0.1786 -0.0779
   20MOL0     H 2693   8.205   0.243  11.035  1.6758 -0.7629 -2.3579
   20MOL0     H 2694   8.091   0.348  10.956  0.1481  0.5452  0.4763
   20MOL0     H 2695   8.305   0.333  10.861  1.2271  0.3729 -0.2253
   20MOL0     H 2696   8.276   0.165  10.814 -2.6005 -0.7582  0.9482
   20MOL0     H 2697   8.074   0.224  10.686  0.1895  0.8234 -1.8164
   20MOL0     H 2698   8.117   0.395  10.702  0.9814  0.4555  0.0609
   20MOL0     H 2699   8.346   0.341  10.582 -0.3062 -0.3313  1.6226
   20MOL0     H 2700   8.278   0.182  10.555 -1.8572 -1.6410 -1.3777
   20MOL0     H 2701   8.122   0.429  10.482  0.8495 -0.6546  0.3540
   20MOL0     H 2702   8.084   0.261  10.435  0.2938 -0.3179  0.5455
   20MOL0     H 2703   8.347   0.404  10.349 -0.6537  2.0566  0.6795
   20MOL0     H 2704   8.266   0.262  10.283 -1.6998 -1.9828  0.6655
   20MOL0     H 2705   8.227   0.467  10.146 -0.0733 -0.9340 -0.1789
   20MOL0     H 2706   8.124   0.532  10.278  0.1863  0.2601 -0.3836
   20MOL0     H 2707   8.006   0.411  10.075 -0.0492 -4.0426 -2.1293
   20MOL0     H 2708   8.049   0.270  10.168 -0.8717  0.1357 -0.1118
   20MOL0     H 2709   7.933   0.611  10.288 -0.2547 -0.2558 -1.2654
   20MOL0     H 2710   7.553   0.548  10.334  0.3295 -1.1114 -0.0142
   20MOL0     H 2711   7.669   0.691  10.335  0.1478  0.5701  1.4374
   20MOL0     H 2712   7.702   0.663  10.570 -2.7310  2.2343 -0.3781
   20MOL0     H 2713   7.530   0.654  10.560 -0.2185  0.0334 -0.5628
   20MOL0     H 2714   7.572   0.389  10.541  0.3349 -1.6826  0.9731
   20MOL0     H 2715   7.734   0.446  10.595 -0.6987 -3.5337 -1.5662
   20MOL0     H 2716   7.591   0.364  10.787  0.7458 -0.9120 -1.0289
   20MOL0     H 2717   7.643   0.538  10.793  1.6083 -0.8252 -1.0928
   20MOL0     H 2718   7.558   0.550  10.984 -0.9957  0.4042  0.7418
   20MOL0     H 2719   7.571   0.576  11.202 -0.3166  0.9838 -0.9116
   20MOL0     H 2720   7.478   0.466  11.310 -1.9962 -0.0782  0.8575
   20MOL0     H 2721   7.434   0.637  11.300 -0.5712  0.7405 -1.7421
   20MOL0     H 2722   6.809   0.365  11.301 -0.9429 -0.4273  0.6093
   20MOL0     H 2723   6.601   0.495  11.387  0.1015  0.9886 -3.3106
   20MOL0     H 2724   6.501   0.605  11.561  2.5448 -0.9427  0.3518
   20MOL0     H 2725   6.610   0.722  11.640  1.7620  1.0659 -1.5454
   20MOL0     H 2726   6.371   0.800  11.681  0.3031  2.9378  0.4510
   20MOL0     H 2727   6.443   0.914  11.591  0.5888 -0.2873  1.0346
   20MOL0     H 2728   6.301   0.693  11.441 -1.3021  2.0039 -4.9843
   20MOL0     H 2729   6.312   0.870  11.410 -1.6831  1.0715  1.2862
   20MOL0     H 2730   6.201   0.918  11.627  2.2520  0.6267 -1.1518
   20MOL0     H 2731   6.154   0.740  11.630  1.9161 -0.2531  0.3518
   20MOL0     H 2732   5.969   0.914  11.511  1.2155  0.9351  1.6102
   20MOL0     H 2733   6.092   0.897  11.382  1.0416  0.8928  1.0151
   20MOL0     H 2734   5.923   0.705  11.542  2.6186  0.0369  2.2936
   20MOL0     H 2735   6.067   0.638  11.470  0.9711  0.5950 -0.3086
   20MOL0     H 2736   5.968   0.735  11.244 -1.7531  3.8721  0.4613
   20MOL0     H 2737   5.812   0.751  11.335  0.4033  1.0471 -0.4930
   20MOL0     H 2738   5.805   0.513  11.238  2.6456 -2.9288 -0.3130
   20MOL0     H 2739   5.785   0.532  11.403  0.5211  0.4754 -0.3346
   20MOL0     H 2740   6.812   0.854  11.365 -1.0072 -0.3875 -3.7709
   20MOL0     H 2741   7.022   0.726  11.274  0.9810  2.8559  4.4039
   20MOL0     H 2742   7.078   0.433  10.999  0.1942  1.4622  1.9632
   20MOL0     H 2743   7.197   0.447  10.790 -1.8575 -4.0842  0.3452
   20MOL0     H 2744   7.880  -0.030  10.855 -3.2742 -0.8235 -0.2928
   20MOL0     H 2745   7.639  -0.019  10.906  2.5502 -0.7774 -2.2767
   20MOL0     H 2746   7.293   0.153  10.952 -2.5280 -1.1460 -1.3112
   20MOL0     H 2747   7.059   0.140  10.937  2.0668 -0.9532 -0.8607
   20MOL0     H 2748   6.847   0.203  10.942  1.3357 -1.1004 -1.1426
   20MOL0     H 2749   6.876   0.025  10.946 -0.5355 -1.4198 -1.1007
   20MOL0     H 2750   6.655  -0.009  11.054  0.3197 -0.4476  0.5293
   20MOL0     H 2751   6.626   0.103  10.914 -0.0146  1.8284  0.6494
   20MOL0     H 2752   6.660   0.160  11.212  1.9791  0.4410 -0.8683
   20MOL0     H 2753   6.631   0.287  11.095  1.5546  0.3705 -1.2474
   20MOL0     H 2754   6.469   0.035  11.158  2.0264 -0.6998 -3.5273
   20MOL0     H 2755   6.417   0.152  11.035 -1.7078  0.1559  1.8866
   20MOL0     H 2756   6.355   0.359  11.401  0.4883 -2.1881 -0.8750
   20MOL0     H 2757   7.038   0.127  11.376  1.8628  3.2021  1.1252
   20MOL0     H 2758   7.324   0.234  11.464 -1.1101  0.4425 -1.9450
   20MOL0     H 2759   7.208   0.102  11.506 -0.0383 -2.3999  0.4928
   20MOL0     H 2760   7.375   0.076  11.442  0.3933  1.7253  0.6867
   21MOL0     O 2761   6.226   6.079   7.821 -0.3491 -0.0085  0.6370
   21MOL0     C 2762   6.326   6.148   7.795 -0.0316 -0.1105  0.4021
   21MOL0     O 2763   6.342   6.289   7.787  0.7309  0.7061  1.0039
   21MOL0     C 2764   6.226   6.355   7.815  0.0260 -0.5713 -0.7313
   21MOL0     C 2765   6.155   6.351   7.934 -0.8214  0.5908 -0.0306
   21MOL0     C 2766   6.055   6.438   7.955  0.5458 -0.3616 -0.7136
   21MOL0     C 2767   6.008   6.526   7.852 -1.6350  0.0531 -0.3501
   21MOL0     O 2768   5.897   6.604   7.857 -0.0521  0.3965  0.8772
   21MOL0     C 2769   5.780   6.574   7.938  0.5082  0.2488  0.1160
   21MOL0     C 2770   5.663   6.660   7.903  0.6519 -0.0003  0.0218
   21MOL0     C 2771   5.626   6.641   7.759  0.7011 -0.4783  0.6212
   21MOL0     C 2772   5.484   6.705   7.717 -0.4198 -0.1773 -0.1712
   21MOL0     C 2773   5.488   6.863   7.695 -0.1476  0.2141 -0.9927
   21MOL0     C 2774   5.352   6.926   7.678 -0.1688  0.3023  0.0659
   21MOL0     C 2775   5.364   7.079   7.665  0.5686 -0.3102  0.3981
   21MOL0     C 2776   5.228   7.125   7.616  0.3875 -0.8097  0.1110
   21MOL0     N 2777   5.127   7.103   7.718 -0.1596  0.2206  0.1182
   21MOL0     C 2778   5.087   7.199   7.810  0.4000  0.9284  0.2075
   21MOL0     C 2779   4.966   7.155   7.855 -0.1657 -0.2091  1.0079
   21MOL0     C 2780   4.870   7.233   7.944 -0.7743  1.1684 -0.0809
   21MOL0     C 2781   4.851   7.377   7.897  0.6276  0.3241  0.1652
   21MOL0     C 2782   4.714   7.437   7.921  0.4711  0.2579 -0.3010
   21MOL0     C 2783   4.660   7.444   8.070 -0.3098  1.2251 -0.4034
   21MOL0     O 2784   4.573   7.549   8.095  0.5097 -0.0723 -0.1280
   21MOL0     C 2785   4.434   7.520   8.091 -0.8067 -0.2535  0.3640
   21MOL0     C 2786   4.363   7.504   7.968 -0.0660  0.2395  0.1558
   21MOL0     C 2787   4.218   7.494   7.973  0.6347 -0.2825 -0.5520
   21MOL0     C 2788   4.139   7.451   7.843 -0.5193  0.3435  0.4087
   21MOL0     C 2789   4.139   7.499   8.097 -1.2226  0.0275 -0.1378
   21MOL0     C 2790   3.989   7.502   8.100  0.1730  0.1903  0.5119
   21MOL0     O 2791   3.938   7.487   8.222  0.1919 -0.3512  0.8852
   21MOL0     C 2792   3.812   7.518   8.259 -0.3985  0.8073 -0.1925
   21MOL0     C 2793   3.794   7.519   8.402 -0.8656 -1.0134  0.8718
   21MOL0     C 2794   3.672   7.550   8.459 -0.1653 -0.0398  0.3902
   21MOL0     C 2795   3.565   7.574   8.374  0.2320  0.9891  0.9099
   21MOL0     O 2796   3.441   7.598   8.434 -0.6363 -0.7216 -0.0662
   21MOL0     C 2797   3.320   7.588   8.370 -0.9830 -0.3578 -0.0080
   21MOL0     C 2798   3.199   7.607   8.466  0.0140  1.0635  0.0900
   21MOL0     C 2799   3.226   7.728   8.552 -0.2772 -0.4304 -0.6554
   21MOL0     C 2800   3.185   7.864   8.482  0.4790 -0.5956 -0.1261
   21MOL0     C 2801   3.220   7.977   8.583  0.7074  0.6795 -0.1534
   21MOL0     C 2802   3.237   8.109   8.507 -0.1281  0.4299 -0.0768
   21MOL0     C 2803   3.264   8.216   8.617 -0.1935 -0.0867 -0.0644
   21MOL0     C 2804   3.274   8.347   8.560 -1.1367 -0.1954  0.1366
   21MOL0    Cl 2805   3.314   8.445   8.698 -0.3383 -0.0900 -0.3236
   21MOL0     C 2806   3.581   7.569   8.237  0.5176  0.3819  0.0387
   21MOL0     C 2807   3.703   7.538   8.179  0.7676  0.4952  0.4832
   21MOL0     O 2808   3.925   7.494   7.993 -0.2049  0.5932 -0.6184
   21MOL0     C 2809   4.214   7.523   8.215  1.1955  0.5358  0.1528
   21MOL0     C 2810   4.357   7.529   8.212 -0.5925 -0.0382 -0.0836
   21MOL0     N 2811   4.944   7.031   7.803  0.3748 -0.2517 -0.3485
   21MOL0     N 2812   5.033   6.999   7.719 -1.0736 -0.4897  0.2847
   21MOL0     C 2813   6.082   6.524   7.740  0.2161  0.7161  0.2891
   21MOL0     C 2814   6.190   6.447   7.722  0.3072 -0.3953  0.2189
   21MOL0     C 2815   6.449   6.062   7.798 -0.4189 -0.2617 -0.6995
   21MOL0     C 2816   6.430   5.933   7.742 -0.2307  0.6305 -0.5235
   21MOL0     C 2817   6.541   5.840   7.742  0.2393  0.0894 -0.0702
   21MOL0     C 2818   6.661   5.872   7.797 -0.1030 -0.3843  0.1773
   21MOL0     O 2819   6.774   5.787   7.804  0.5132 -0.1335  0.5400
   21MOL0     C 2820   6.850   5.789   7.690  0.0013  0.8065  0.0752
   21MOL0     C 2821   6.946   5.668   7.665 -0.0374 -0.2132 -0.2940
   21MOL0     C 2822   7.010   5.674   7.527  0.6315 -0.3751  0.0890
   21MOL0     C 2823   7.090   5.558   7.473 -0.4529 -0.2449  0.5326
   21MOL0     C 2824   6.996   5.458   7.433  0.5686  0.3701  0.6487
   21MOL0     C 2825   6.928   5.369   7.383  0.0645 -0.9243 -0.5954
   21MOL0     C 2826   6.677   6.005   7.843  0.3886 -0.2922 -0.0673
   21MOL0     C 2827   6.576   6.103   7.847  0.7293  0.5880 -0.3345
   21MOL0     C 2828   6.606   6.239   7.898  0.5155 -1.1158  0.2870
   21MOL0     H 2829   6.172   6.287   8.020 -1.6959 -2.1295 -1.7506
   21MOL0     H 2830   6.000   6.434   8.048  1.1334  0.6463 -0.3138
   21MOL0     H 2831   5.812   6.580   8.042  3.1865 -1.0684 -0.5464
   21MOL0     H 2832   5.747   6.470   7.928  0.1871  0.2178  1.3437
   21MOL0     H 2833   5.573   6.641   7.963 -0.0931 -1.1573 -1.3789
   21MOL0     H 2834   5.690   6.765   7.911  2.9337 -0.6190  1.2481
   21MOL0     H 2835   5.704   6.692   7.700  1.4721  0.1817  2.1595
   21MOL0     H 2836   5.628   6.533   7.745 -0.9230 -0.7141  1.9075
   21MOL0     H 2837   5.455   6.686   7.613  1.2631  2.7722 -1.2989
   21MOL0     H 2838   5.413   6.673   7.794  0.8135 -0.2362  0.9679
   21MOL0     H 2839   5.554   6.900   7.616  1.7374 -3.1093 -1.1570
   21MOL0     H 2840   5.535   6.894   7.789 -0.4127  0.1476 -0.8385
   21MOL0     H 2841   5.296   6.886   7.593  0.4028  1.2103 -0.7629
   21MOL0     H 2842   5.295   6.905   7.769 -0.7431  0.1413 -0.3272
   21MOL0     H 2843   5.436   7.123   7.595 -1.7014  0.4352 -1.6224
   21MOL0     H 2844   5.386   7.127   7.760 -1.0705  0.3148  0.4815
   21MOL0     H 2845   5.233   7.231   7.589 -0.1668 -0.7318  0.3090
   21MOL0     H 2846   5.203   7.064   7.529 -0.3984  1.5167 -1.3571
   21MOL0     H 2847   5.138   7.282   7.857  5.2336 -2.4396  1.7156
   21MOL0     H 2848   4.916   7.238   8.043 -0.5679 -0.4130 -0.0692
   21MOL0     H 2849   4.780   7.172   7.938  0.5365 -0.8473 -0.4263
   21MOL0     H 2850   4.914   7.448   7.951  1.2161  0.4039 -0.6038
   21MOL0     H 2851   4.869   7.387   7.790  2.8937 -0.5718  0.4029
   21MOL0     H 2852   4.712   7.540   7.885 -1.5476  0.5481  0.5154
   21MOL0     H 2853   4.643   7.381   7.860  0.6727  1.2998 -1.5349
   21MOL0     H 2854   4.603   7.352   8.085 -0.9527  1.6504 -0.1731
   21MOL0     H 2855   4.730   7.433   8.153 -0.1385 -2.6650 -0.9166
   21MOL0     H 2856   4.408   7.510   7.869 -1.3165 -3.3943 -0.7869
   21MOL0     H 2857   4.209   7.415   7.767 -1.4965 -3.8129  1.2255
   21MOL0     H 2858   4.081   7.535   7.803 -0.9483  0.2443  0.8165
   21MOL0     H 2859   4.067   7.369   7.857 -1.0065  0.9629  1.6453
   21MOL0     H 2860   3.881   7.480   8.455 -1.6477 -2.0621  1.4079
   21MOL0     H 2861   3.663   7.558   8.567 -3.0133 -0.1037  0.2242
   21MOL0     H 2862   3.327   7.668   8.296 -0.3211  2.6056  3.0181
   21MOL0     H 2863   3.310   7.494   8.315 -0.2895 -1.5481  1.7917
   21MOL0     H 2864   3.110   7.624   8.405 -1.3038 -1.6807  1.0677
   21MOL0     H 2865   3.185   7.523   8.535 -1.6076  1.3532  0.1585
   21MOL0     H 2866   3.329   7.742   8.587 -1.3554 -0.9516  3.2514
   21MOL0     H 2867   3.163   7.720   8.641 -2.7319  4.4242 -1.6397
   21MOL0     H 2868   3.077   7.863   8.464  0.4759 -2.0043 -0.1119
   21MOL0     H 2869   3.240   7.877   8.389  2.9656 -0.3016  1.2797
   21MOL0     H 2870   3.139   7.991   8.655 -0.0531  0.5289 -0.9653
   21MOL0     H 2871   3.319   7.953   8.624  1.4927  3.2714 -0.3755
   21MOL0     H 2872   3.141   8.131   8.459 -0.6947  4.4490  2.4383
   21MOL0     H 2873   3.319   8.097   8.436 -0.6589  1.3424 -0.8719
   21MOL0     H 2874   3.360   8.196   8.665 -1.4285 -4.2439  1.1195
   21MOL0     H 2875   3.181   8.212   8.688  1.5740 -1.6446  2.0471
   21MOL0     H 2876   3.194   8.380   8.493  1.5400 -0.8838 -3.7765
   21MOL0     H 2877   3.355   8.344   8.486 -1.5441  0.8742 -0.3781
   21MOL0     H 2878   3.493   7.583   8.176 -0.5813 -1.3359  1.1505
   21MOL0     H 2879   3.714   7.530   8.071  0.7669 -2.5585  0.6396
   21MOL0     H 2880   4.180   7.532   8.318  2.8252  0.6666  0.7048
   21MOL0     H 2881   4.411   7.545   8.304 -0.1291 -1.3349 -0.1122
   21MOL0     H 2882   6.059   6.587   7.654 -0.8641 -0.8909 -0.6590
   21MOL0     H 2883   6.234   6.468   7.625  2.9517 -1.5497  1.0850
   21MOL0     H 2884   6.331   5.905   7.707 -0.7971  3.3293 -1.3293
   21MOL0     H 2885   6.524   5.743   7.697  0.8992 -0.5811  1.0745
   21MOL0     H 2886   6.778   5.784   7.608  0.1865  1.2707 -0.1208
   21MOL0     H 2887   6.903   5.885   7.682  0.2820  0.7683  1.3067
   21MOL0     H 2888   6.879   5.583   7.682  1.6981 -1.5518  0.1845
   21MOL0     H 2889   7.031   5.657   7.733 -1.0604 -3.9721  0.6236
   21MOL0     H 2890   6.926   5.696   7.460 -1.3977 -1.9381  1.9505
   21MOL0     H 2891   7.071   5.764   7.532  0.8216 -0.4379 -0.7923
   21MOL0     H 2892   7.162   5.526   7.549  0.5638  0.1384 -0.2503
   21MOL0     H 2893   7.142   5.594   7.383 -3.6462 -3.9699 -3.2480
   21MOL0     H 2894   6.871   5.297   7.328  0.9211 -0.6968 -1.8304
   21MOL0     H 2895   6.772   6.025   7.892 -1.4039 -1.0312  4.1542
   21MOL0     H 2896   6.703   6.255   7.946  1.7198  1.7274 -2.6984
   21MOL0     H 2897   6.608   6.309   7.814 -0.6229 -0.3828  0.8414
   21MOL0     H 2898   6.523   6.266   7.965  0.3241 -0.8679 -0.0498
   22MOL0     O 2899   7.653  11.106   1.997 -0.8691  0.0402 -0.9705
   22MOL0     C 2900   7.540  11.120   1.948 -0.4411  1.1412  0.1596
   22MOL0     O 2901   7.504  11.137   1.817 -0.3735 -0.3060  0.7206
   22MOL0     C 2902   7.600  11.106   1.721  0.7516 -0.1689 -0.0444
   22MOL0     C 2903   7.577  11.004   1.625  0.5842 -0.1109  0.6673
   22MOL0     C 2904   7.662  10.988   1.518  0.0215  0.4132 -0.1423
   22MOL0     C 2905   7.765  11.079   1.491  0.3406  0.5076 -0.1104
   22MOL0     O 2906   7.840  11.063   1.382  0.1679  0.7610  0.3818
   22MOL0     C 2907   7.769  11.044   1.260  0.2206 -0.3268 -0.3140
   22MOL0     C 2908   7.852  10.958   1.173  0.6991  0.1813 -0.2241
   22MOL0     C 2909   7.881  10.820   1.228 -0.1418  0.3117 -0.6620
   22MOL0     C 2910   7.764  10.727   1.205 -0.7958 -0.1397 -0.6495
   22MOL0     C 2911   7.801  10.585   1.238  0.7110 -0.2373  0.2475
   22MOL0     C 2912   7.861  10.564   1.373 -0.5543  0.1868  0.0003
   22MOL0     C 2913   7.840  10.429   1.442  0.1790 -0.2006  0.1801
   22MOL0     C 2914   7.938  10.369   1.539 -0.7391  0.1367 -0.5246
   22MOL0     N 2915   7.923  10.227   1.572 -0.5354 -0.3256 -0.1926
   22MOL0     C 2916   7.999  10.132   1.524 -0.7945  0.4378 -0.2782
   22MOL0     C 2917   7.994  10.035   1.617 -0.2875 -0.2192  0.0365
   22MOL0     C 2918   8.063   9.897   1.618  0.1337  0.2258  0.2338
   22MOL0     C 2919   8.045   9.822   1.480 -0.8694  0.6272  0.4635
   22MOL0     C 2920   8.097   9.678   1.499 -0.2054  1.4951  0.7212
   22MOL0     C 2921   8.098   9.595   1.372 -0.5727  0.1254  0.1112
   22MOL0     O 2922   8.097   9.669   1.247  0.6567  0.1363 -0.8201
   22MOL0     C 2923   8.213   9.666   1.170  0.8264  1.0337 -0.3773
   22MOL0     C 2924   8.194   9.649   1.035 -0.6395  0.2011  0.3998
   22MOL0     C 2925   8.310   9.627   0.952 -0.2468  1.0730  0.0999
   22MOL0     C 2926   8.287   9.587   0.817 -0.4114 -0.4927  0.1244
   22MOL0     C 2927   8.437   9.646   1.011 -0.2302 -0.2458  0.0851
   22MOL0     C 2928   8.562   9.629   0.931 -0.0130 -0.1386  0.0217
   22MOL0     O 2929   8.664   9.691   0.988 -0.6857 -0.5182  0.7552
   22MOL0     C 2930   8.792   9.643   0.966 -0.7142  0.6790 -0.8766
   22MOL0     C 2931   8.835   9.504   0.942 -0.1894  0.2159 -1.1336
   22MOL0     C 2932   8.968   9.473   0.954  0.2082  0.0133 -0.5106
   22MOL0     C 2933   9.070   9.564   0.979  0.0497  0.2686  0.7205
   22MOL0     O 2934   9.204   9.524   0.983 -0.6392  0.2393 -0.4878
   22MOL0     C 2935   9.320   9.607   1.029  0.3148 -0.2776 -0.0368
   22MOL0     C 2936   9.379   9.697   0.918  0.5362 -0.7533  0.6269
   22MOL0     C 2937   9.488   9.785   0.966  0.7462  0.2861  0.4760
   22MOL0     C 2938   9.534   9.877   0.855 -1.0981 -0.1687 -0.1113
   22MOL0     C 2939   9.654   9.964   0.901  0.4333 -0.5760 -0.3845
   22MOL0     C 2940   9.676  10.082   0.802  0.9282  0.7443  0.0926
   22MOL0     C 2941   9.816  10.142   0.816  0.3809  0.2586 -0.1517
   22MOL0     C 2942   9.835  10.286   0.780  0.1592  0.4952 -0.8097
   22MOL0    Cl 2943   9.788  10.310   0.603  0.3353 -0.1262  0.0401
   22MOL0     C 2944   9.034   9.697   0.983  0.4058 -0.7743  0.3288
   22MOL0     C 2945   8.894   9.734   0.977 -0.6806 -0.4649  0.0754
   22MOL0     O 2946   8.568   9.551   0.839  0.2980 -1.2694  0.0445
   22MOL0     C 2947   8.452   9.655   1.148 -0.1678  0.7480  0.1752
   22MOL0     C 2948   8.337   9.663   1.229  0.3374 -0.3805  0.2070
   22MOL0     N 2949   7.917  10.090   1.723  0.6239  0.3314 -0.5630
   22MOL0     N 2950   7.883  10.203   1.698  1.0348 -0.3115  0.2366
   22MOL0     C 2951   7.777  11.185   1.575 -0.4892  0.4937  0.6709
   22MOL0     C 2952   7.695  11.201   1.683 -0.5215 -0.2801 -0.2166
   22MOL0     C 2953   7.423  11.125   2.039 -0.9178 -0.4389  0.1400
   22MOL0     C 2954   7.421  11.236   2.124 -0.3285 -0.4982  0.1729
   22MOL0     C 2955   7.319  11.248   2.216  0.5481  0.6400  0.9572
   22MOL0     C 2956   7.214  11.160   2.219  0.7906  0.1806  0.3377
   22MOL0     O 2957   7.102  11.178   2.297 -0.7760  0.6194  0.9178
   22MOL0     C 2958   7.116  11.281   2.398 -0.5677 -0.0514 -0.2338
   22MOL0     C 2959   7.002  11.258   2.495  0.2842  0.1696 -0.8320
   22MOL0     C 2960   7.038  11.177   2.629 -0.0760 -0.0556  0.3728
   22MOL0     C 2961   7.153  11.227   2.719  0.7438  0.1349  0.0796
   22MOL0     C 2962   7.159  11.376   2.704  0.3496  1.0123  0.2006
   22MOL0     C 2963   7.142  11.496   2.683 -0.1051 -0.0288 -0.8570
   22MOL0     C 2964   7.200  11.063   2.118 -0.1578 -0.2137 -0.3660
   22MOL0     C 2965   7.307  11.041   2.032  0.1974 -0.2132 -0.0765
   22MOL0     C 2966   7.299  10.939   1.921 -0.5263  0.6517 -0.0625
   22MOL0     H 2967   7.501  10.928   1.644  0.6557  0.1780  2.2030
   22MOL0     H 2968   7.657  10.885   1.484 -0.4734  0.0996  0.8501
   22MOL0     H 2969   7.743  11.143   1.223 -1.5927 -0.4059  0.6637
   22MOL0     H 2970   7.676  10.987   1.266  0.3862 -0.9713 -2.8658
   22MOL0     H 2971   7.798  10.938   1.080 -0.1675 -0.4017  0.3905
   22MOL0     H 2972   7.936  11.023   1.147 -2.1030  3.1941 -2.5394
   22MOL0     H 2973   7.968  10.777   1.178 -2.3614 -1.0827 -3.6770
   22MOL0     H 2974   7.890  10.815   1.337 -2.3630  1.6864 -0.3445
   22MOL0     H 2975   7.682  10.763   1.268  0.4511  1.2218  0.2636
   22MOL0     H 2976   7.725  10.720   1.103  0.2920 -0.8854 -1.0413
   22MOL0     H 2977   7.854  10.535   1.155  1.2900  1.2847 -0.3305
   22MOL0     H 2978   7.703  10.537   1.236 -0.0570  1.2774  0.3154
   22MOL0     H 2979   7.968  10.583   1.367 -0.3962 -0.7364 -0.2453
   22MOL0     H 2980   7.818  10.643   1.435  0.9203  3.8605 -3.3026
   22MOL0     H 2981   7.834  10.369   1.350 -0.3895  1.2434 -0.7569
   22MOL0     H 2982   7.747  10.440   1.498  1.7960 -1.5978  3.3651
   22MOL0     H 2983   8.027  10.366   1.475 -0.0532  1.3311  0.3461
   22MOL0     H 2984   7.936  10.429   1.630  1.1974 -2.8386  1.6357
   22MOL0     H 2985   8.051  10.137   1.429  1.9256  1.4368  1.1546
   22MOL0     H 2986   8.013   9.847   1.703  0.5712  0.7673  0.8163
   22MOL0     H 2987   8.170   9.909   1.637 -0.0521 -1.1692  2.6124
   22MOL0     H 2988   7.945   9.825   1.437  0.4003 -0.0922 -2.8094
   22MOL0     H 2989   8.102   9.860   1.395 -0.1797 -1.2171  0.0593
   22MOL0     H 2990   8.202   9.665   1.530 -0.1348 -2.3355 -0.6107
   22MOL0     H 2991   8.035   9.615   1.563  0.6083 -1.0110 -0.8194
   22MOL0     H 2992   8.180   9.522   1.366 -0.1286  0.7072 -1.3531
   22MOL0     H 2993   8.006   9.535   1.369 -0.1042 -0.5796 -0.9378
   22MOL0     H 2994   8.099   9.639   0.985 -0.2691  0.9285 -0.4741
   22MOL0     H 2995   8.314   9.482   0.806  2.1295  0.1043  0.2182
   22MOL0     H 2996   8.342   9.652   0.749  0.8231  0.4783  1.9786
   22MOL0     H 2997   8.182   9.599   0.787  0.1214 -0.5205 -1.9263
   22MOL0     H 2998   8.766   9.425   0.914 -0.5226 -0.4152  1.2943
   22MOL0     H 2999   8.984   9.366   0.942 -0.1486 -0.1181  0.1284
   22MOL0     H 3000   9.286   9.680   1.104  0.3313 -0.5130  0.2003
   22MOL0     H 3001   9.401   9.555   1.080  1.3095 -0.7263 -1.9847
   22MOL0     H 3002   9.423   9.629   0.843 -0.7005 -0.4848 -0.3737
   22MOL0     H 3003   9.301   9.749   0.863  0.5057 -0.7670  0.6571
   22MOL0     H 3004   9.575   9.738   1.012  2.1108  0.2492 -1.9765
   22MOL0     H 3005   9.440   9.856   1.034 -2.4227 -0.4118 -0.8426
   22MOL0     H 3006   9.442   9.928   0.822 -1.7507 -3.6776 -4.8920
   22MOL0     H 3007   9.545   9.815   0.765 -3.4619 -1.3757  0.3570
   22MOL0     H 3008   9.631  10.017   0.994 -4.1903 -1.0879 -1.0135
   22MOL0     H 3009   9.744   9.902   0.910 -0.0139 -0.9451  2.7601
   22MOL0     H 3010   9.604  10.161   0.824 -1.5100 -0.1187 -3.8221
   22MOL0     H 3011   9.658  10.047   0.700  2.5819 -2.6823  0.8195
   22MOL0     H 3012   9.887  10.087   0.753 -1.5127 -4.7005  1.5583
   22MOL0     H 3013   9.844  10.141   0.922 -0.8446 -0.8315  0.2002
   22MOL0     H 3014   9.939  10.317   0.788  0.2060 -0.0855  1.3751
   22MOL0     H 3015   9.770  10.351   0.839 -0.8055 -0.1364 -1.1431
   22MOL0     H 3016   9.106   9.776   1.000 -0.0073 -0.8948  2.9085
   22MOL0     H 3017   8.881   9.842   0.968 -0.0848 -0.3557  0.4618
   22MOL0     H 3018   8.547   9.677   1.195  0.1885 -1.0858  0.3810
   22MOL0     H 3019   8.371   9.665   1.332  1.3325 -0.5819 -0.1041
   22MOL0     H 3020   7.851  11.260   1.548 -1.0123  0.0231 -2.3902
   22MOL0     H 3021   7.710  11.294   1.737  1.8344 -0.1614 -0.9652
   22MOL0     H 3022   7.486  11.322   2.123 -0.8053 -0.1315 -0.9514
   22MOL0     H 3023   7.313  11.344   2.267 -2.4605  0.8544  0.3962
   22MOL0     H 3024   7.202  11.254   2.460 -0.6066 -1.5796 -0.8184
   22MOL0     H 3025   7.112  11.388   2.373  0.4558  0.2998  0.9909
   22MOL0     H 3026   6.921  11.203   2.446  0.6698  0.9085 -2.3676
   22MOL0     H 3027   6.957  11.355   2.520  0.6123  0.7089 -2.2578
   22MOL0     H 3028   6.944  11.154   2.681 -1.0188  1.4505 -0.5693
   22MOL0     H 3029   7.078  11.079   2.600 -1.2530  0.4763 -3.7268
   22MOL0     H 3030   7.244  11.177   2.686 -1.6859 -3.8977 -1.2012
   22MOL0     H 3031   7.127  11.180   2.814  1.5266 -3.9879 -1.5487
   22MOL0     H 3032   7.121  11.598   2.659 -2.7515 -0.3502 -0.2182
   22MOL0     H 3033   7.124  10.986   2.126 -1.7519  1.2755 -0.5029
   22MOL0     H 3034   7.396  10.907   1.881 -1.2891  1.6715 -3.0395
   22MOL0     H 3035   7.249  10.851   1.962  3.0717 -0.9709  1.2617
   22MOL0     H 3036   7.261  10.975   1.824  0.5075 -0.3749 -0.8779
   23MOL0     O 3037  10.674   7.454   2.280  0.0026 -0.3319  0.3157
   23MOL0     C 3038  10.775   7.494   2.339  0.4073 -0.8117 -0.9590
   23MOL0     O 3039  10.823   7.628   2.333  0.9950 -0.5378 -0.2912
   23MOL0     C 3040  10.727   7.719   2.299 -0.0273 -0.4110 -0.1544
   23MOL0     C 3041  10.674   7.801   2.400  0.0879 -0.9976  1.3512
   23MOL0     C 3042  10.596   7.911   2.362 -0.0881 -0.7388  0.7636
   23MOL0     C 3043  10.575   7.936   2.223 -0.9397 -0.5036  0.0377
   23MOL0     O 3044  10.493   8.033   2.172  0.2039  0.2850 -0.2141
   23MOL0     C 3045  10.572   8.136   2.114 -0.8860  0.3335  0.0156
   23MOL0     C 3046  10.495   8.214   2.008  0.0624  0.3450  0.4048
   23MOL0     C 3047  10.490   8.134   1.873 -0.9295  0.0254  0.1363
   23MOL0     C 3048  10.384   8.187   1.783 -0.9823 -0.4596 -0.2191
   23MOL0     C 3049  10.397   8.134   1.646  0.3859 -0.1244  0.5417
   23MOL0     C 3050  10.530   8.178   1.575  0.2947  0.2526  0.0724
   23MOL0     C 3051  10.525   8.143   1.435 -0.7850  0.4794 -0.4256
   23MOL0     C 3052  10.669   8.141   1.379 -0.1347  0.1024  0.8714
   23MOL0     N 3053  10.731   8.279   1.355 -0.3650 -0.6485  0.6676
   23MOL0     C 3054  10.803   8.345   1.453  0.7151  0.3370  0.0911
   23MOL0     C 3055  10.840   8.463   1.385  0.6312  0.2210 -0.0137
   23MOL0     C 3056  10.916   8.574   1.451 -0.1562  0.4144 -0.5352
   23MOL0     C 3057  10.840   8.709   1.439 -0.8805 -0.4264 -0.7200
   23MOL0     C 3058  10.903   8.815   1.534 -1.0078  0.1009  0.4010
   23MOL0     C 3059  10.812   8.936   1.543  0.3051  0.1550  0.2189
   23MOL0     O 3060  10.696   8.891   1.618  0.6628 -0.9290  0.7590
   23MOL0     C 3061  10.607   8.985   1.660  1.8474  1.1583 -0.1113
   23MOL0     C 3062  10.516   8.942   1.760 -0.3821 -0.4355 -0.5166
   23MOL0     C 3063  10.404   9.006   1.801  0.0142 -0.5060  0.5682
   23MOL0     C 3064  10.303   8.937   1.893 -0.3572 -0.4261  0.9606
   23MOL0     C 3065  10.391   9.143   1.755  0.0513  0.7481 -0.9953
   23MOL0     C 3066  10.295   9.232   1.822 -0.2908  0.4649  0.6422
   23MOL0     O 3067  10.225   9.187   1.927  0.7848 -0.6126  0.6719
   23MOL0     C 3068  10.117   9.261   1.976  0.6294 -0.8484  0.2418
   23MOL0     C 3069   9.990   9.257   1.917 -0.2744  0.2174 -0.4629
   23MOL0     C 3070   9.891   9.340   1.970 -0.1147  0.1250  0.4873
   23MOL0     C 3071   9.909   9.405   2.094  0.1763  0.5791  0.0179
   23MOL0     O 3072   9.804   9.465   2.153 -0.0482  0.9824  0.2794
   23MOL0     C 3073   9.820   9.551   2.263 -0.0383  0.4930 -0.1557
   23MOL0     C 3074   9.689   9.628   2.291  0.7283 -0.7833  0.0291
   23MOL0     C 3075   9.713   9.754   2.376 -1.2304  0.2592  0.8510
   23MOL0     C 3076   9.783   9.882   2.316  0.0534 -0.0360  0.5759
   23MOL0     C 3077   9.856   9.981   2.411  0.2687 -0.3369  0.3106
   23MOL0     C 3078   9.765  10.085   2.471  0.4508  0.4286  0.1031
   23MOL0     C 3079   9.712  10.171   2.353  0.1186  0.2457 -0.4955
   23MOL0     C 3080   9.681  10.312   2.398 -0.3460  0.1483 -0.9347
   23MOL0    Cl 3081   9.654  10.433   2.263  0.1888  0.1036 -0.5571
   23MOL0     C 3082  10.025   9.383   2.165 -0.9574  0.8456  1.2950
   23MOL0     C 3083  10.126   9.321   2.102 -0.3157  0.0887 -0.0291
   23MOL0     O 3084  10.288   9.351   1.783 -0.1435  0.5349  0.6415
   23MOL0     C 3085  10.470   9.189   1.657  0.6850 -0.0356 -0.5358
   23MOL0     C 3086  10.590   9.112   1.613  0.4481 -1.2287  0.1681
   23MOL0     N 3087  10.795   8.461   1.257  0.3991  0.3475 -0.1054
   23MOL0     N 3088  10.726   8.348   1.239  0.6443  1.0271 -0.0255
   23MOL0     C 3089  10.621   7.849   2.127  1.3480 -0.5388 -0.2872
   23MOL0     C 3090  10.705   7.741   2.169 -0.3286 -0.1836  0.2427
   23MOL0     C 3091  10.861   7.391   2.410 -0.2153  0.2021 -0.5936
   23MOL0     C 3092  10.957   7.441   2.499 -1.1421 -0.0926  0.0851
   23MOL0     C 3093  11.034   7.360   2.589  0.0587  0.6200  0.0320
   23MOL0     C 3094  11.021   7.222   2.566  0.2978  0.8865 -1.2414
   23MOL0     O 3095  11.107   7.130   2.617 -0.3441  0.2521 -0.0167
   23MOL0     C 3096  11.133   7.162   2.756 -0.5001  0.5304  0.3646
   23MOL0     C 3097  11.142   7.027   2.819 -0.7742  0.1908  0.0722
   23MOL0     C 3098  11.124   7.024   2.978  0.4926 -0.4446  0.2750
   23MOL0     C 3099  11.096   6.879   3.016  0.0796 -0.1894  0.0530
   23MOL0     C 3100  11.097   6.870   3.162 -0.4920  0.3299 -0.7721
   23MOL0     C 3101  11.092   6.866   3.285  0.8188 -0.5316  0.0212
   23MOL0     C 3102  10.923   7.167   2.482  0.2576  0.5949 -0.3448
   23MOL0     C 3103  10.840   7.253   2.397 -0.7526 -0.7412 -0.7524
   23MOL0     C 3104  10.752   7.184   2.295  0.4821 -1.0664 -0.3344
   23MOL0     H 3105  10.704   7.793   2.504 -0.2865  0.9437  1.6381
   23MOL0     H 3106  10.550   7.987   2.425  0.1600  0.6183 -0.6324
   23MOL0     H 3107  10.669   8.100   2.076 -0.3347  0.4187  1.3074
   23MOL0     H 3108  10.591   8.204   2.197 -2.0477 -1.7881  2.1175
   23MOL0     H 3109  10.390   8.221   2.037 -0.8586 -2.1514 -1.8904
   23MOL0     H 3110  10.532   8.315   1.986  2.8781 -1.0243 -1.6632
   23MOL0     H 3111  10.592   8.147   1.836 -0.3970 -1.9046  0.8057
   23MOL0     H 3112  10.475   8.028   1.895 -0.9568  0.5904  3.3533
   23MOL0     H 3113  10.283   8.166   1.818 -1.7416  0.5507 -1.6791
   23MOL0     H 3114  10.394   8.296   1.774 -0.0276 -0.5913 -1.0020
   23MOL0     H 3115  10.313   8.185   1.599  0.6633  1.1927  1.4188
   23MOL0     H 3116  10.380   8.026   1.650 -1.5009  0.0837 -0.7109
   23MOL0     H 3117  10.532   8.287   1.585 -2.3018  0.3366  0.5739
   23MOL0     H 3118  10.614   8.131   1.625 -0.7079 -1.1784  0.4739
   23MOL0     H 3119  10.452   8.208   1.386 -2.2055 -0.2551  0.6373
   23MOL0     H 3120  10.491   8.040   1.423 -2.1270  0.8545 -0.0149
   23MOL0     H 3121  10.732   8.080   1.445  1.2022  1.8691  1.2974
   23MOL0     H 3122  10.658   8.082   1.288  1.3302 -1.0278  1.3783
   23MOL0     H 3123  10.820   8.323   1.558 -1.3167  0.4474  0.4929
   23MOL0     H 3124  11.016   8.587   1.408  0.2125 -0.9648 -0.1517
   23MOL0     H 3125  10.916   8.557   1.559  0.4704  4.2769  0.2206
   23MOL0     H 3126  10.851   8.735   1.333 -2.5695  1.1555 -0.5561
   23MOL0     H 3127  10.735   8.698   1.467 -0.7989 -2.6819 -1.0430
   23MOL0     H 3128  10.915   8.770   1.633 -1.8187 -1.6141 -0.2343
   23MOL0     H 3129  11.003   8.843   1.498 -0.6313  0.2800  1.5492
   23MOL0     H 3130  10.873   9.010   1.596 -0.9219 -0.7816  3.1183
   23MOL0     H 3131  10.790   8.971   1.442 -0.1852  0.4212  0.4180
   23MOL0     H 3132  10.521   8.835   1.778  1.1769 -0.6412 -1.9548
   23MOL0     H 3133  10.308   8.831   1.869  0.3428 -0.3443  0.7255
   23MOL0     H 3134  10.203   8.969   1.863 -0.1348  1.0746  1.7263
   23MOL0     H 3135  10.303   8.965   1.999 -0.4340  0.0994  0.8251
   23MOL0     H 3136   9.979   9.203   1.824 -0.4205 -0.6195  0.0296
   23MOL0     H 3137   9.791   9.342   1.928  0.6098  0.8729 -1.3010
   23MOL0     H 3138   9.848   9.496   2.353  3.7099  0.6140 -1.0782
   23MOL0     H 3139   9.911   9.610   2.248  1.7604 -2.2761 -0.8590
   23MOL0     H 3140   9.636   9.655   2.199 -0.1042  0.1723  0.7628
   23MOL0     H 3141   9.630   9.558   2.352  0.5075  0.9391  1.9167
   23MOL0     H 3142   9.789   9.726   2.449  0.2263  0.2725 -0.6118
   23MOL0     H 3143   9.616   9.776   2.423 -1.3022 -0.3364  0.9825
   23MOL0     H 3144   9.715   9.939   2.252  0.3495 -1.1855 -0.8306
   23MOL0     H 3145   9.855   9.839   2.245 -2.6362  0.4728 -2.7591
   23MOL0     H 3146   9.899   9.924   2.493 -0.0121 -1.1244 -0.0865
   23MOL0     H 3147   9.926  10.040   2.351  0.1997 -0.6019 -0.0348
   23MOL0     H 3148   9.807  10.133   2.560 -2.4152  1.2763  1.0969
   23MOL0     H 3149   9.676  10.032   2.505  1.0547 -1.2989 -0.8906
   23MOL0     H 3150   9.621  10.125   2.313 -1.8139  0.7878  2.8519
   23MOL0     H 3151   9.791  10.180   2.279 -1.0567 -2.0733 -2.1484
   23MOL0     H 3152   9.763  10.356   2.455 -1.8777  0.3819  1.1972
   23MOL0     H 3153   9.593  10.323   2.462 -0.9331  3.8314 -2.1171
   23MOL0     H 3154  10.033   9.429   2.263  1.4181  0.8865  1.1574
   23MOL0     H 3155  10.222   9.311   2.151 -0.7676  0.0378  0.8721
   23MOL0     H 3156  10.443   9.291   1.633 -2.7232 -0.5330  0.5897
   23MOL0     H 3157  10.660   9.153   1.541  3.6434 -2.7547  2.1993
   23MOL0     H 3158  10.599   7.872   2.023  3.3460  0.6657 -0.4878
   23MOL0     H 3159  10.746   7.666   2.103  0.7182 -0.7910  1.5504
   23MOL0     H 3160  10.964   7.546   2.528  0.0842 -0.4176  1.0199
   23MOL0     H 3161  11.099   7.404   2.663 -0.8565  0.0456  1.1982
   23MOL0     H 3162  11.231   7.212   2.758  1.6983 -3.1854 -2.3329
   23MOL0     H 3163  11.055   7.223   2.802 -0.0819  0.0950  1.6891
   23MOL0     H 3164  11.247   6.999   2.805  0.0252  2.8680  0.1871
   23MOL0     H 3165  11.082   6.957   2.761  1.1447 -1.3771 -0.1387
   23MOL0     H 3166  11.217   7.065   3.017  1.4723  0.9297 -3.1136
   23MOL0     H 3167  11.038   7.081   3.014  0.9816  1.1158 -0.9119
   23MOL0     H 3168  11.170   6.811   2.973 -0.3947 -0.4420 -0.3707
   23MOL0     H 3169  10.997   6.871   2.970 -0.6535  0.4208  1.4414
   23MOL0     H 3170  11.076   6.866   3.391  2.3832  0.3392  0.2887
   23MOL0     H 3171  10.921   7.061   2.464  2.1445  0.0018  2.3527
   23MOL0     H 3172  10.754   7.075   2.295  0.4455 -1.0671 -0.2721
   23MOL0     H 3173  10.649   7.218   2.313  0.7048 -1.1509  1.2051
   23MOL0     H 3174  10.774   7.216   2.192 -1.2715 -2.0625 -1.0671
   24MOL0     O 3175   0.851   9.449   7.980 -0.1804 -0.1231 -0.3262
   24MOL0     C 3176   0.850   9.422   8.103  1.6158  0.0087  0.6095
   24MOL0     O 3177   0.757   9.464   8.188  0.1862 -0.4336  0.0271
   24MOL0     C 3178   0.662   9.562   8.153 -0.0096 -0.7638 -0.4661
   24MOL0     C 3179   0.592   9.547   8.034 -0.8579  0.5522  0.2509
   24MOL0     C 3180   0.502   9.649   8.000  0.5987  1.0103 -0.5305
   24MOL0     C 3181   0.488   9.769   8.078 -0.2042  0.3407  0.0871
   24MOL0     O 3182   0.413   9.868   8.018 -0.2642 -0.8173 -0.1766
   24MOL0     C 3183   0.427  10.007   8.061 -0.1827  0.5725  0.3011
   24MOL0     C 3184   0.328  10.037   8.181  0.1111  0.4981 -0.1834
   24MOL0     C 3185   0.341  10.174   8.244  0.4876 -0.2074 -0.0097
   24MOL0     C 3186   0.230  10.205   8.341 -0.0707 -0.6136 -0.6827
   24MOL0     C 3187   0.227  10.136   8.471 -0.2782  0.6386 -0.7738
   24MOL0     C 3188   0.119  10.173   8.572 -0.1536 -0.5426 -0.6101
   24MOL0     C 3189   0.095  10.324   8.577  0.6030 -0.2093 -0.2084
   24MOL0     C 3190   0.003  10.360   8.701 -0.0711  0.5297  0.3453
   24MOL0     N 3191  -0.113  10.267   8.697 -0.2113  0.9373 -0.8800
   24MOL0     C 3192  -0.215  10.250   8.607  0.0089  0.6808  0.4768
   24MOL0     C 3193  -0.315  10.169   8.661  0.2136  0.5820  0.2988
   24MOL0     C 3194  -0.439  10.108   8.597 -0.5350  0.4692 -0.4574
   24MOL0     C 3195  -0.516  10.016   8.688 -0.6819  0.6817  0.5435
   24MOL0     C 3196  -0.581  10.100   8.802 -0.2309  1.0464  0.2147
   24MOL0     C 3197  -0.647  10.013   8.925 -0.2552 -0.0567  0.5737
   24MOL0     O 3198  -0.753   9.926   8.880  0.1576 -0.5133  0.5662
   24MOL0     C 3199  -0.803   9.841   8.970 -0.4207  0.0376  0.0055
   24MOL0     C 3200  -0.919   9.778   8.926  0.5919 -0.4437  0.0847
   24MOL0     C 3201  -1.001   9.697   9.008  0.0441  0.4832  0.9547
   24MOL0     C 3202  -1.131   9.647   8.943  0.0434  0.5552 -0.1942
   24MOL0     C 3203  -0.950   9.661   9.139 -0.2164 -0.5839 -0.4216
   24MOL0     C 3204  -1.029   9.581   9.233  0.1898 -0.3572 -0.0230
   24MOL0     O 3205  -0.998   9.609   9.355  0.0868  0.6905  0.2371
   24MOL0     C 3206  -1.065   9.552   9.463 -0.4630  0.3783  0.0667
   24MOL0     C 3207  -1.056   9.413   9.477 -0.1575  0.4304 -0.2362
   24MOL0     C 3208  -1.136   9.354   9.579  0.5884 -0.5770 -1.0995
   24MOL0     C 3209  -1.204   9.424   9.671 -0.4051 -0.1130  0.5368
   24MOL0     O 3210  -1.285   9.384   9.768 -0.7531 -0.5430 -0.8519
   24MOL0     C 3211  -1.331   9.242   9.779  0.0151 -0.7035  0.1150
   24MOL0     C 3212  -1.443   9.222   9.673  0.7769  0.7876  0.8779
   24MOL0     C 3213  -1.524   9.099   9.713 -0.6277  0.5017 -0.5829
   24MOL0     C 3214  -1.625   9.081   9.599  0.7047 -0.9505 -0.6497
   24MOL0     C 3215  -1.679   8.935   9.593  0.3254  0.5113 -0.0886
   24MOL0     C 3216  -1.793   8.936   9.488 -0.5525  0.3987 -0.6332
   24MOL0     C 3217  -1.923   8.984   9.556 -0.2446 -1.4628 -0.4506
   24MOL0     C 3218  -2.018   9.043   9.457 -1.0128  0.2601  0.5411
   24MOL0    Cl 3219  -1.943   9.197   9.391 -0.0899 -0.3770  0.2731
   24MOL0     C 3220  -1.217   9.568   9.647 -0.4969  0.2662  0.3527
   24MOL0     C 3221  -1.139   9.632   9.552  1.1575 -0.8606 -0.6706
   24MOL0     O 3222  -1.112   9.504   9.193 -0.4076  0.0189 -0.1140
   24MOL0     C 3223  -0.824   9.710   9.179 -0.0159 -0.2474  0.8412
   24MOL0     C 3224  -0.752   9.807   9.094 -0.4128  0.6002  0.6916
   24MOL0     N 3225  -0.272  10.139   8.787 -0.8513  0.3229 -0.2097
   24MOL0     N 3226  -0.152  10.180   8.796  0.2092 -0.1207  0.4365
   24MOL0     C 3227   0.562   9.773   8.198  0.7672  0.6372  0.2327
   24MOL0     C 3228   0.648   9.675   8.227 -0.0158  0.9393 -0.9540
   24MOL0     C 3229   0.969   9.352   8.155 -0.1278 -0.2827  0.5196
   24MOL0     C 3230   1.048   9.438   8.239  0.0248 -0.5056  0.9616
   24MOL0     C 3231   1.172   9.392   8.297  0.2247 -0.9112 -0.4031
   24MOL0     C 3232   1.220   9.266   8.268  0.3394  0.1578  0.2169
   24MOL0     O 3233   1.330   9.216   8.328 -0.6005 -0.5193  0.3068
   24MOL0     C 3234   1.447   9.244   8.262  0.9345 -0.2602  0.5111
   24MOL0     C 3235   1.495   9.379   8.292 -0.1160 -0.2231  0.1893
   24MOL0     C 3236   1.514   9.432   8.434 -0.4991  0.1317  0.2374
   24MOL0     C 3237   1.649   9.393   8.491 -0.0723 -0.4012  0.0219
   24MOL0     C 3238   1.662   9.447   8.629 -0.5240  0.1799 -0.1101
   24MOL0     C 3239   1.670   9.484   8.743 -0.0758 -0.8474 -0.4377
   24MOL0     C 3240   1.143   9.193   8.176  0.5690  0.3732 -0.8583
   24MOL0     C 3241   1.023   9.225   8.113  0.2681 -0.0581 -0.9456
   24MOL0     C 3242   0.950   9.133   8.025 -0.0169 -0.3203  0.0700
   24MOL0     H 3243   0.597   9.481   7.948  0.1741  0.8122  0.0991
   24MOL0     H 3244   0.461   9.648   7.899  0.8567 -0.5407 -0.6456
   24MOL0     H 3245   0.407  10.074   7.977 -3.2678  2.1142  2.1057
   24MOL0     H 3246   0.533  10.015   8.086  0.6952  0.5540 -2.9233
   24MOL0     H 3247   0.226  10.030   8.141 -0.1605 -0.6463  0.6596
   24MOL0     H 3248   0.354   9.963   8.258  0.1889  0.7428  0.0289
   24MOL0     H 3249   0.439  10.178   8.294  1.4738  0.3658 -1.9076
   24MOL0     H 3250   0.363  10.251   8.170  1.1357  1.8002  2.1404
   24MOL0     H 3251   0.252  10.308   8.368  2.5300 -1.0119 -0.9600
   24MOL0     H 3252   0.136  10.206   8.284 -0.3559  2.2470 -0.2735
   24MOL0     H 3253   0.328  10.141   8.513 -1.1822  2.2901  1.3173
   24MOL0     H 3254   0.206  10.030   8.454  0.8141 -0.0981  1.9477
   24MOL0     H 3255   0.032  10.109   8.553 -1.2203  0.1030  1.7238
   24MOL0     H 3256   0.149  10.132   8.670 -3.8790 -0.4284  0.7194
   24MOL0     H 3257   0.058  10.366   8.483  3.4892  0.4860 -1.1299
   24MOL0     H 3258   0.191  10.372   8.598  0.4416 -1.1995  3.6965
   24MOL0     H 3259   0.067  10.347   8.788  0.3270 -1.9864 -0.2292
   24MOL0     H 3260  -0.029  10.465   8.698  2.2108  1.5291  4.3856
   24MOL0     H 3261  -0.213  10.299   8.511  0.2731 -2.5385 -1.3084
   24MOL0     H 3262  -0.401  10.060   8.506 -2.2293 -0.4306 -0.7300
   24MOL0     H 3263  -0.509  10.192   8.591 -1.5520 -0.3905 -0.8888
   24MOL0     H 3264  -0.599   9.981   8.625  0.6663 -0.1089 -0.8674
   24MOL0     H 3265  -0.459   9.926   8.713  1.5959  0.8977 -3.0152
   24MOL0     H 3266  -0.500  10.159   8.846  0.8478  0.1341 -0.5072
   24MOL0     H 3267  -0.660  10.165   8.763  0.5427  0.7059 -2.0497
   24MOL0     H 3268  -0.562   9.958   8.965  1.1754 -0.9272 -3.2413
   24MOL0     H 3269  -0.685  10.092   8.991  1.7675  0.4776  1.1849
   24MOL0     H 3270  -0.945   9.799   8.822  1.2434 -0.1379 -0.0188
   24MOL0     H 3271  -1.111   9.654   8.836 -1.6107 -2.9966 -0.9157
   24MOL0     H 3272  -1.212   9.718   8.963  0.3681  1.2808 -1.3614
   24MOL0     H 3273  -1.163   9.544   8.962  0.4154  0.5907  0.6507
   24MOL0     H 3274  -1.012   9.346   9.403  0.3161  0.4374  0.0381
   24MOL0     H 3275  -1.146   9.246   9.588 -0.2119 -0.4143  0.1703
   24MOL0     H 3276  -1.273   9.150   9.765 -1.5138 -1.5435 -0.9054
   24MOL0     H 3277  -1.377   9.221   9.876 -0.6741 -3.1750 -0.6965
   24MOL0     H 3278  -1.514   9.305   9.667 -1.8822 -1.4252 -1.0192
   24MOL0     H 3279  -1.404   9.203   9.573  2.4994 -2.5952  2.0208
   24MOL0     H 3280  -1.581   9.117   9.804  0.6641 -0.3799  0.4354
   24MOL0     H 3281  -1.456   9.015   9.730  0.8518  1.5476 -1.1039
   24MOL0     H 3282  -1.583   9.093   9.499  1.3652 -2.9460 -0.6588
   24MOL0     H 3283  -1.705   9.150   9.626  2.5609  0.6566  1.0249
   24MOL0     H 3284  -1.607   8.856   9.569  0.4677  0.2485  1.1298
   24MOL0     H 3285  -1.726   8.918   9.690 -1.3970  3.1138 -0.3356
   24MOL0     H 3286  -1.816   8.832   9.462 -2.1533  0.1827  1.3877
   24MOL0     H 3287  -1.755   8.993   9.403  2.7487 -3.8257 -2.3620
   24MOL0     H 3288  -1.899   9.064   9.627 -0.7798  0.5630 -2.4170
   24MOL0     H 3289  -1.966   8.907   9.621  0.3614 -0.8727  0.6874
   24MOL0     H 3290  -2.113   9.062   9.507 -2.3735  1.2835 -2.2201
   24MOL0     H 3291  -2.048   8.977   9.374 -0.0318  0.2277  0.2033
   24MOL0     H 3292  -1.280   9.625   9.715  0.1254 -0.3569  1.4656
   24MOL0     H 3293  -1.171   9.736   9.551  1.1197 -0.8735 -1.1725
   24MOL0     H 3294  -0.773   9.663   9.262  2.1290 -1.8669 -1.2869
   24MOL0     H 3295  -0.659   9.859   9.118 -0.7320  0.8083  1.5169
   24MOL0     H 3296   0.552   9.850   8.274 -0.6127  0.1992  0.5393
   24MOL0     H 3297   0.698   9.672   8.323 -1.6087  0.1651 -0.0926
   24MOL0     H 3298   1.011   9.534   8.272 -0.1479 -0.4972  0.7426
   24MOL0     H 3299   1.225   9.461   8.362 -2.0071 -0.3004  0.8452
   24MOL0     H 3300   1.525   9.173   8.294  1.3482 -1.7926 -3.3029
   24MOL0     H 3301   1.431   9.216   8.157 -3.5875 -3.6523  1.7650
   24MOL0     H 3302   1.425   9.452   8.251 -0.7222 -1.0687 -0.3063
   24MOL0     H 3303   1.591   9.382   8.239 -1.1189 -0.3077 -1.7100
   24MOL0     H 3304   1.501   9.540   8.427 -0.8663  0.0166 -1.3006
   24MOL0     H 3305   1.431   9.393   8.493  0.6260 -1.6742  0.7190
   24MOL0     H 3306   1.733   9.433   8.433  0.7746  1.6599  2.4997
   24MOL0     H 3307   1.654   9.284   8.501  1.3022 -0.1923  2.2796
   24MOL0     H 3308   1.670   9.511   8.847  1.4682  3.1203 -1.3083
   24MOL0     H 3309   1.187   9.095   8.161  3.2240  1.3425  0.0079
   24MOL0     H 3310   0.918   9.188   7.936 -1.3862 -2.4176 -0.8148
   24MOL0     H 3311   1.007   9.043   7.997  1.2233 -1.1009  4.4025
   24MOL0     H 3312   0.864   9.099   8.083 -0.0603 -1.6268 -0.7167
   25MOL0     O 3313   1.787   8.275   2.876  0.8099 -0.2400  0.3247
   25MOL0     C 3314   1.713   8.361   2.826  0.3870 -0.1728  0.5778
   25MOL0     O 3315   1.739   8.496   2.814 -0.2132  0.0463  0.5617
   25MOL0     C 3316   1.840   8.561   2.884  1.2165 -0.1138 -0.4851
   25MOL0     C 3317   1.931   8.500   2.970 -0.0918 -0.0895 -0.6144
   25MOL0     C 3318   2.029   8.571   3.035  0.6900  0.7275  0.1074
   25MOL0     C 3319   2.039   8.711   3.030  0.5022  0.7710  0.2897
   25MOL0     O 3320   2.123   8.782   3.105  0.4687 -0.3955 -0.0136
   25MOL0     C 3321   2.120   8.756   3.244 -0.1242  0.2072 -0.6202
   25MOL0     C 3322   2.266   8.719   3.295 -0.5915  0.4839  2.1417
   25MOL0     C 3323   2.273   8.716   3.449 -0.0920 -0.0637 -0.5842
   25MOL0     C 3324   2.422   8.694   3.503  0.9305 -0.0863  0.0164
   25MOL0     C 3325   2.426   8.668   3.650  0.5725 -0.1980  0.0140
   25MOL0     C 3326   2.569   8.611   3.685  0.8051 -0.1901  0.5149
   25MOL0     C 3327   2.589   8.576   3.832 -0.3704 -0.0846  0.0708
   25MOL0     C 3328   2.742   8.567   3.853  0.0299 -0.3072  0.5313
   25MOL0     N 3329   2.809   8.693   3.851  0.6834 -0.0866  0.2146
   25MOL0     C 3330   2.787   8.784   3.941  0.3746  0.8383  0.3983
   25MOL0     C 3331   2.871   8.888   3.897  0.7137 -0.7652 -0.5121
   25MOL0     C 3332   2.862   9.029   3.956  0.8030 -0.1421  0.5822
   25MOL0     C 3333   2.978   9.067   4.043  0.2450  0.0606  0.2720
   25MOL0     C 3334   3.119   9.073   3.963  0.8113  0.5677 -0.2790
   25MOL0     C 3335   3.221   9.153   4.034 -0.8672 -1.0453  0.2076
   25MOL0     O 3336   3.187   9.289   4.041 -0.0569 -0.4358 -0.3387
   25MOL0     C 3337   3.247   9.360   4.144  0.3682 -0.6471 -0.5208
   25MOL0     C 3338   3.378   9.328   4.199  0.2790  0.3489 -0.6893
   25MOL0     C 3339   3.438   9.409   4.294 -0.4485  0.0431 -0.0816
   25MOL0     C 3340   3.566   9.356   4.351 -0.5427  0.2762 -0.2128
   25MOL0     C 3341   3.386   9.545   4.319 -0.8427  0.0372  0.4937
   25MOL0     C 3342   3.459   9.648   4.399 -0.2993 -0.1121 -0.1610
   25MOL0     O 3343   3.558   9.612   4.477  0.0292 -0.5649 -0.8334
   25MOL0     C 3344   3.628   9.703   4.543 -0.3101 -0.0588  0.0522
   25MOL0     C 3345   3.757   9.737   4.494 -0.1037 -0.1628  0.5010
   25MOL0     C 3346   3.836   9.828   4.566  0.4496 -0.2141 -1.3408
   25MOL0     C 3347   3.789   9.884   4.680 -0.4102  0.1405 -0.2269
   25MOL0     O 3348   3.882   9.964   4.745 -0.0148  0.3051 -0.2953
   25MOL0     C 3349   3.950   9.915   4.858  0.0091 -0.6419  0.4107
   25MOL0     C 3350   4.016  10.020   4.945  0.1927 -0.0419 -1.2122
   25MOL0     C 3351   3.922  10.046   5.063 -0.7315  0.3456  0.5718
   25MOL0     C 3352   3.920   9.938   5.176  0.0366 -0.2076 -0.0572
   25MOL0     C 3353   3.838   9.984   5.297 -0.4094  0.5352  0.1373
   25MOL0     C 3354   3.897   9.923   5.432  1.0154  0.5320  0.0264
   25MOL0     C 3355   3.784   9.919   5.537 -0.7002 -0.9693 -1.0062
   25MOL0     C 3356   3.832   9.867   5.675 -0.6170  0.6317  0.1525
   25MOL0    Cl 3357   3.703   9.839   5.782 -0.1306 -0.2738 -0.2653
   25MOL0     C 3358   3.672   9.850   4.732  0.7054  0.7898 -0.1609
   25MOL0     C 3359   3.590   9.761   4.661  1.3764  0.0529 -1.4834
   25MOL0     O 3360   3.432   9.766   4.369  0.1448 -0.1824 -0.1329
   25MOL0     C 3361   3.263   9.579   4.259  0.2662 -0.3581  0.4427
   25MOL0     C 3362   3.195   9.490   4.173 -0.2128  0.0799 -0.4517
   25MOL0     N 3363   2.945   8.842   3.796  0.2676  0.0076 -0.4668
   25MOL0     N 3364   2.904   8.728   3.764 -0.2325  0.5251 -0.1956
   25MOL0     C 3365   1.942   8.781   2.964  0.2612  0.2658  1.1789
   25MOL0     C 3366   1.842   8.705   2.888 -0.9127  0.0209  0.0226
   25MOL0     C 3367   1.588   8.314   2.756 -0.0116 -0.1649  0.7690
   25MOL0     C 3368   1.513   8.210   2.815  0.4605  0.1330  0.5963
   25MOL0     C 3369   1.403   8.147   2.754  0.4482  0.2895  0.5234
   25MOL0     C 3370   1.348   8.203   2.634 -0.7239  0.4772  0.0467
   25MOL0     O 3371   1.229   8.168   2.573  0.4788  0.5498 -0.3212
   25MOL0     C 3372   1.159   8.056   2.627  0.3414  0.7496 -0.6360
   25MOL0     C 3373   1.032   8.021   2.555 -0.0144  0.6972 -0.4755
   25MOL0     C 3374   0.947   8.139   2.503  0.3762 -0.3552  0.1777
   25MOL0     C 3375   0.858   8.099   2.385  0.2100  0.3251  0.4682
   25MOL0     C 3376   0.759   7.998   2.423  0.1630 -0.5326 -0.0992
   25MOL0     C 3377   0.673   7.920   2.457  0.6011  0.5539 -0.2340
   25MOL0     C 3378   1.422   8.299   2.572 -1.3423 -0.2739 -0.8873
   25MOL0     C 3379   1.540   8.352   2.624 -0.4357  0.3950 -0.5202
   25MOL0     C 3380   1.614   8.457   2.541 -0.0306  0.3917  0.8805
   25MOL0     H 3381   1.948   8.396   2.994  3.1146 -0.0301 -2.1437
   25MOL0     H 3382   2.103   8.524   3.099 -0.6330  0.9137  1.8570
   25MOL0     H 3383   2.056   8.672   3.274  0.1150 -0.7752 -2.7183
   25MOL0     H 3384   2.096   8.852   3.293 -0.8244 -0.4036  0.2786
   25MOL0     H 3385   2.297   8.628   3.244 -1.2967  1.8347 -0.9469
   25MOL0     H 3386   2.334   8.793   3.253 -1.3338 -0.2583 -0.6189
   25MOL0     H 3387   2.233   8.811   3.484 -0.0188 -0.0811 -0.4548
   25MOL0     H 3388   2.213   8.638   3.497 -0.0419 -1.2372 -2.3144
   25MOL0     H 3389   2.463   8.607   3.451 -1.0175 -1.2671  0.3158
   25MOL0     H 3390   2.484   8.781   3.482  0.4548 -0.3106 -2.8117
   25MOL0     H 3391   2.348   8.599   3.682  2.9409 -2.4039  1.3993
   25MOL0     H 3392   2.411   8.760   3.708 -0.2858 -1.4617  1.8931
   25MOL0     H 3393   2.591   8.520   3.628  0.3991  2.1003 -3.7624
   25MOL0     H 3394   2.642   8.688   3.658 -1.5507  1.1087 -2.8807
   25MOL0     H 3395   2.535   8.482   3.847 -2.6747  0.9930 -0.8548
   25MOL0     H 3396   2.551   8.652   3.902  0.2700 -1.1170  1.5831
   25MOL0     H 3397   2.766   8.532   3.954  2.1087 -0.5732 -0.0042
   25MOL0     H 3398   2.791   8.489   3.793 -1.2906 -1.5426  1.0091
   25MOL0     H 3399   2.709   8.788   4.016 -0.5500 -1.1477 -0.4004
   25MOL0     H 3400   2.768   9.038   4.011 -0.0070 -1.0514 -0.6027
   25MOL0     H 3401   2.856   9.099   3.871 -0.3940  0.4939  1.1555
   25MOL0     H 3402   2.951   9.160   4.095 -0.4668  0.5011 -0.8363
   25MOL0     H 3403   2.981   8.983   4.113 -5.4391 -3.1612 -2.6257
   25MOL0     H 3404   3.148   8.975   3.924 -2.6687  0.4499 -3.0843
   25MOL0     H 3405   3.105   9.118   3.864 -0.2177 -1.4913 -1.1523
   25MOL0     H 3406   3.225   9.120   4.138  0.3813 -2.3510 -0.2239
   25MOL0     H 3407   3.313   9.143   3.976 -0.3632 -4.5332  1.4155
   25MOL0     H 3408   3.422   9.234   4.166  4.9698  1.0718  2.5069
   25MOL0     H 3409   3.568   9.361   4.460  2.6848 -2.4452  0.0384
   25MOL0     H 3410   3.649   9.418   4.316  0.6661 -0.8371  0.5708
   25MOL0     H 3411   3.577   9.251   4.324  0.7662 -0.2209  1.9521
   25MOL0     H 3412   3.792   9.685   4.406  3.0638  0.7477  1.0727
   25MOL0     H 3413   3.932   9.867   4.534  0.9122  0.0463  0.2565
   25MOL0     H 3414   3.881   9.853   4.914  0.4673 -1.5721 -0.0273
   25MOL0     H 3415   4.024   9.844   4.819 -1.4478 -1.5428 -0.8388
   25MOL0     H 3416   4.117   9.990   4.975  0.1368  1.5789  0.8532
   25MOL0     H 3417   4.039  10.112   4.891  3.6509 -0.8347 -1.3290
   25MOL0     H 3418   3.820  10.081   5.044  0.8846  4.5966 -1.6998
   25MOL0     H 3419   3.968  10.137   5.104  1.3741 -1.0598  1.4781
   25MOL0     H 3420   4.022   9.911   5.206 -1.2505 -1.4221  3.7890
   25MOL0     H 3421   3.867   9.846   5.150 -0.9752  0.1959  0.5121
   25MOL0     H 3422   3.858  10.091   5.305  3.0353 -0.1519  2.3979
   25MOL0     H 3423   3.731   9.959   5.295 -1.0126  2.6310  2.0229
   25MOL0     H 3424   3.981   9.985   5.465  2.4669 -1.6344  0.6103
   25MOL0     H 3425   3.946   9.826   5.419  0.6068  0.5193 -1.6611
   25MOL0     H 3426   3.708   9.846   5.511 -1.0722 -0.8924 -0.1666
   25MOL0     H 3427   3.735  10.016   5.533  2.6604  0.9278 -0.3834
   25MOL0     H 3428   3.904   9.944   5.705  0.5207  0.0265 -0.9257
   25MOL0     H 3429   3.882   9.772   5.656  1.1779  1.4839  0.3816
   25MOL0     H 3430   3.637   9.892   4.826 -0.8940  4.7826 -2.3360
   25MOL0     H 3431   3.498   9.723   4.707  1.5008 -2.2673 -2.9714
   25MOL0     H 3432   3.221   9.678   4.273 -0.7986 -1.2306  4.4026
   25MOL0     H 3433   3.107   9.516   4.115  0.8591 -0.9089 -2.6253
   25MOL0     H 3434   1.943   8.889   2.957  0.5668  0.1473 -1.5403
   25MOL0     H 3435   1.758   8.747   2.835 -0.5176 -0.8822 -1.4057
   25MOL0     H 3436   1.562   8.176   2.906  5.4683  4.0472 -0.1955
   25MOL0     H 3437   1.361   8.064   2.810  0.0777  2.1723  3.2712
   25MOL0     H 3438   1.218   7.965   2.640 -1.6620 -0.9947 -2.7251
   25MOL0     H 3439   1.124   8.073   2.729  1.5116  0.2545 -0.1400
   25MOL0     H 3440   0.979   7.963   2.632 -1.1311 -0.6062 -2.1643
   25MOL0     H 3441   1.065   7.957   2.473  0.5465 -0.5749  0.6821
   25MOL0     H 3442   0.891   8.180   2.589  0.8551 -0.4102  0.5194
   25MOL0     H 3443   1.009   8.222   2.468 -0.5831  0.5571  0.5711
   25MOL0     H 3444   0.932   8.059   2.315 -0.6511  0.0446 -0.2990
   25MOL0     H 3445   0.797   8.179   2.342 -0.4569 -1.7081 -2.7027
   25MOL0     H 3446   0.595   7.853   2.488 -0.2380  2.3543  1.7729
   25MOL0     H 3447   1.384   8.330   2.475  0.9894 -2.1502 -2.5497
   25MOL0     H 3448   1.718   8.461   2.575  0.1438 -0.8699  0.5763
   25MOL0     H 3449   1.606   8.421   2.438 -3.0473  2.8052  0.1274
   25MOL0     H 3450   1.553   8.546   2.557 -0.5788 -0.1765  2.0844
   26MOL0     O 3451   0.144   9.140   3.741  0.2883 -0.7958  0.1818
   26MOL0     C 3452   0.130   9.076   3.631 -0.2175 -0.2699  0.0529
   26MOL0     O 3453   0.183   9.121   3.512 -0.5494  0.1143 -0.1557
   26MOL0     C 3454   0.190   9.260   3.504 -0.2193 -0.1393  0.0100
   26MOL0     C 3455   0.321   9.316   3.499 -0.4744  0.7759 -0.4181
   26MOL0     C 3456   0.342   9.448   3.470 -0.2663  0.2125  1.3055
   26MOL0     C 3457   0.227   9.535   3.445 -0.7131  0.2542  0.3004
   26MOL0     O 3458   0.232   9.670   3.448 -0.6175  0.2359  0.1944
   26MOL0     C 3459   0.355   9.739   3.437  0.0985 -0.1419  0.2438
   26MOL0     C 3460   0.391   9.769   3.293  0.2507  0.4331  0.2307
   26MOL0     C 3461   0.503   9.877   3.297  1.0779 -0.0670  0.0056
   26MOL0     C 3462   0.436  10.014   3.315  0.7839  0.3407  0.1363
   26MOL0     C 3463   0.530  10.123   3.372 -0.4026  1.0583  0.3225
   26MOL0     C 3464   0.625  10.187   3.271 -0.6269  0.2623  0.9546
   26MOL0     C 3465   0.675  10.318   3.314 -0.4730 -0.5128 -0.5922
   26MOL0     C 3466   0.825  10.331   3.290  0.0342 -0.3805  0.2141
   26MOL0     N 3467   0.865  10.308   3.153 -0.1397 -0.2018  0.2869
   26MOL0     C 3468   0.810  10.367   3.039 -0.3424  0.5308 -0.5637
   26MOL0     C 3469   0.866  10.295   2.940  0.4195  0.2507 -0.4224
   26MOL0     C 3470   0.852  10.294   2.795  1.5508 -1.1805  0.5696
   26MOL0     C 3471   0.942  10.383   2.723  0.3383  0.7730 -0.3515
   26MOL0     C 3472   1.082  10.320   2.711 -0.5312 -0.2217 -0.5286
   26MOL0     C 3473   1.171  10.397   2.611  1.1094  0.1314 -0.2059
   26MOL0     O 3474   1.282  10.466   2.670 -0.5375 -0.3065  0.7015
   26MOL0     C 3475   1.270  10.601   2.681  0.2433 -0.0093 -0.0094
   26MOL0     C 3476   1.258  10.657   2.805  0.2700 -0.3295  0.1281
   26MOL0     C 3477   1.237  10.794   2.818  1.0125 -0.1275  0.2958
   26MOL0     C 3478   1.251  10.845   2.953 -0.6628 -0.2332  0.8482
   26MOL0     C 3479   1.217  10.870   2.697  0.5232 -0.1387  1.3416
   26MOL0     C 3480   1.181  11.009   2.701 -0.1995 -0.6198 -0.0313
   26MOL0     O 3481   1.218  11.093   2.591 -0.3139 -0.3384  0.0576
   26MOL0     C 3482   1.190  11.230   2.588 -0.0572 -1.0727 -0.3122
   26MOL0     C 3483   1.192  11.293   2.460 -0.1196  1.1607  0.3688
   26MOL0     C 3484   1.180  11.435   2.441 -1.4857  0.1373 -0.0063
   26MOL0     C 3485   1.148  11.512   2.549  0.2449 -0.8861 -1.2122
   26MOL0     O 3486   1.134  11.646   2.523  0.2895 -1.2533 -0.2664
   26MOL0     C 3487   1.068  11.722   2.637 -0.1789 -0.4736  0.4281
   26MOL0     C 3488   1.048  11.868   2.595  0.3318 -0.4024  0.3412
   26MOL0     C 3489   1.189  11.943   2.587  0.1077  0.5304  0.5452
   26MOL0     C 3490   1.187  12.085   2.544  0.8858  0.6906 -0.1335
   26MOL0     C 3491   1.314  12.174   2.574  0.9236  1.7281  0.7559
   26MOL0     C 3492   1.423  12.144   2.489 -0.2655 -1.3105 -0.0057
   26MOL0     C 3493   1.548  12.245   2.516 -0.0148  0.2465  0.0112
   26MOL0     C 3494   1.676  12.183   2.464  0.1579  0.0123  0.0382
   26MOL0    Cl 3495   1.695  12.016   2.542 -0.5235  0.1109 -0.0635
   26MOL0     C 3496   1.138  11.454   2.681 -0.4225 -0.1517  0.1294
   26MOL0     C 3497   1.149  11.315   2.701 -0.5080 -0.2187  0.6995
   26MOL0     O 3498   1.109  11.043   2.790  0.3210  0.0297 -0.0970
   26MOL0     C 3499   1.237  10.811   2.570  0.5265 -0.4109  0.0365
   26MOL0     C 3500   1.278  10.679   2.571  0.3721  0.3249  0.4028
   26MOL0     N 3501   0.945  10.196   3.004  0.5221 -0.0419  0.2720
   26MOL0     N 3502   0.950  10.206   3.130  0.7700 -0.2897  1.4119
   26MOL0     C 3503   0.101   9.485   3.461  0.6071  0.5407 -0.2802
   26MOL0     C 3504   0.083   9.343   3.478 -0.6226 -1.0312  0.3366
   26MOL0     C 3505   0.057   8.945   3.627 -0.0966  0.0599  0.3580
   26MOL0     C 3506   0.082   8.851   3.523  1.0662 -0.8460  0.0686
   26MOL0     C 3507   0.015   8.740   3.506  0.4546 -0.8852  1.2338
   26MOL0     C 3508  -0.093   8.713   3.582  0.2446  0.0478 -0.0570
   26MOL0     O 3509  -0.174   8.613   3.543  0.4133  0.1231 -0.6696
   26MOL0     C 3510  -0.288   8.572   3.621 -0.1677 -0.3397  0.7725
   26MOL0     C 3511  -0.253   8.501   3.757 -1.3364  0.2612 -0.3983
   26MOL0     C 3512  -0.147   8.391   3.736 -0.5735 -0.0956 -0.4062
   26MOL0     C 3513  -0.134   8.309   3.871 -0.8120 -0.8211 -0.5231
   26MOL0     C 3514  -0.234   8.203   3.877  0.3924  0.3826 -0.1007
   26MOL0     C 3515  -0.314   8.111   3.875  0.1027 -0.3177 -0.1686
   26MOL0     C 3516  -0.118   8.798   3.686  0.5033 -0.7030 -0.4450
   26MOL0     C 3517  -0.057   8.914   3.713 -1.2903  0.1731 -0.4550
   26MOL0     C 3518  -0.099   8.995   3.819  0.2470 -0.6244  0.6490
   26MOL0     H 3519   0.409   9.254   3.517 -0.7676  0.9785  1.9269
   26MOL0     H 3520   0.443   9.484   3.451 -0.4339  0.4013  0.7513
   26MOL0     H 3521   0.428   9.677   3.489  0.2713 -0.2538 -0.1329
   26MOL0     H 3522   0.347   9.830   3.497 -2.1534 -0.3288  0.3462
   26MOL0     H 3523   0.425   9.675   3.248 -0.7629 -0.3918  1.1500
   26MOL0     H 3524   0.307   9.800   3.230 -1.0747 -1.8576  0.7480
   26MOL0     H 3525   0.567   9.861   3.384  1.0184 -1.0922 -0.1343
   26MOL0     H 3526   0.574   9.861   3.216  0.0544 -1.6567 -0.6252
   26MOL0     H 3527   0.388  10.042   3.220 -1.7919 -0.9349  0.9618
   26MOL0     H 3528   0.353   9.990   3.381 -0.4214 -2.8084 -2.2379
   26MOL0     H 3529   0.590  10.072   3.448 -2.3395 -2.7490 -0.4618
   26MOL0     H 3530   0.472  10.204   3.419  0.1824  0.4296  2.2116
   26MOL0     H 3531   0.710  10.118   3.266  0.0855  1.1192  0.8099
   26MOL0     H 3532   0.576  10.200   3.174 -0.1759 -2.6982  0.2437
   26MOL0     H 3533   0.660  10.328   3.422  2.3640  3.2354 -0.3508
   26MOL0     H 3534   0.624  10.403   3.268 -0.6043  0.1626  0.7516
   26MOL0     H 3535   0.854  10.430   3.325 -0.5522 -0.4358  0.8818
   26MOL0     H 3536   0.869  10.260   3.360  3.0652 -0.0014 -1.1571
   26MOL0     H 3537   0.733  10.442   3.051 -1.9164 -1.2162  0.9167
   26MOL0     H 3538   0.752  10.323   2.759  1.9539 -0.7968 -0.2794
   26MOL0     H 3539   0.856  10.192   2.754 -4.1749 -0.6652 -2.2847
   26MOL0     H 3540   0.902  10.415   2.627 -1.1908  2.0320  0.6420
   26MOL0     H 3541   0.939  10.468   2.792 -2.8153  0.6032 -0.1377
   26MOL0     H 3542   1.131  10.319   2.809  0.4223  1.1103 -0.9555
   26MOL0     H 3543   1.079  10.218   2.671  2.3713  0.7533 -3.8080
   26MOL0     H 3544   1.202  10.328   2.532  1.0666 -0.9934  0.7310
   26MOL0     H 3545   1.107  10.473   2.566 -0.6250 -1.0386  0.1784
   26MOL0     H 3546   1.262  10.592   2.892 -4.2947 -2.8996 -1.2607
   26MOL0     H 3547   1.282  10.950   2.952  1.5342 -0.6576 -3.9928
   26MOL0     H 3548   1.324  10.778   3.000  2.1061 -0.2236 -2.9985
   26MOL0     H 3549   1.152  10.847   3.000 -1.5891  1.5829 -1.0341
   26MOL0     H 3550   1.226  11.221   2.386  0.8593  0.5946  1.3252
   26MOL0     H 3551   1.195  11.479   2.343  2.9357  0.6356  0.6810
   26MOL0     H 3552   0.973  11.682   2.673 -0.7121  2.2851  2.4129
   26MOL0     H 3553   1.137  11.724   2.722 -1.4312  1.4955  1.4649
   26MOL0     H 3554   0.994  11.885   2.501 -2.3179  3.4621  2.2725
   26MOL0     H 3555   0.991  11.908   2.680  0.0577 -1.5814  0.7244
   26MOL0     H 3556   1.249  11.882   2.519  2.2106  0.5467  2.2706
   26MOL0     H 3557   1.231  11.945   2.689  0.2466  0.7424  0.4841
   26MOL0     H 3558   1.102  12.134   2.593 -1.2465  0.5185 -3.3831
   26MOL0     H 3559   1.153  12.099   2.441 -3.3164 -2.0451  0.6228
   26MOL0     H 3560   1.274  12.276   2.567 -0.9958  0.9842 -0.0786
   26MOL0     H 3561   1.346  12.158   2.677 -1.0053  1.3955  1.3528
   26MOL0     H 3562   1.404  12.155   2.382  0.1882 -0.0333  0.0242
   26MOL0     H 3563   1.456  12.040   2.501 -4.4489 -2.6916  0.9652
   26MOL0     H 3564   1.570  12.259   2.622  4.5950  1.3455 -0.8729
   26MOL0     H 3565   1.535  12.347   2.478 -5.6666  1.0550  2.9881
   26MOL0     H 3566   1.752  12.248   2.506 -0.4862  0.7935  0.0095
   26MOL0     H 3567   1.674  12.196   2.355  0.6920  0.4097  0.0766
   26MOL0     H 3568   1.115  11.520   2.765 -0.4693 -1.4737  1.1761
   26MOL0     H 3569   1.138  11.284   2.805 -3.7473  0.3862  0.6236
   26MOL0     H 3570   1.244  10.868   2.479 -2.2186  0.2430  0.1491
   26MOL0     H 3571   1.302  10.634   2.476  1.6679  2.7698 -0.5154
   26MOL0     H 3572   0.019   9.556   3.457  0.4237  0.5891  2.4466
   26MOL0     H 3573  -0.016   9.298   3.476 -0.5882 -1.1765  1.2285
   26MOL0     H 3574   0.168   8.869   3.459  0.9901 -0.6096  0.0312
   26MOL0     H 3575   0.039   8.682   3.418  1.0243 -1.0772  1.5089
   26MOL0     H 3576  -0.329   8.670   3.647  2.2936  0.5796  1.3923
   26MOL0     H 3577  -0.353   8.511   3.558  1.2671  0.4467 -1.5706
   26MOL0     H 3578  -0.339   8.453   3.804 -2.6947  0.8730 -2.1394
   26MOL0     H 3579  -0.201   8.570   3.824 -2.0279  1.6469 -1.2342
   26MOL0     H 3580  -0.157   8.327   3.647 -0.4293  1.3816 -1.5121
   26MOL0     H 3581  -0.050   8.435   3.715 -0.1785 -0.6996  0.1271
   26MOL0     H 3582  -0.139   8.366   3.964 -0.8265  0.5468 -1.3351
   26MOL0     H 3583  -0.034   8.266   3.862 -0.7751 -1.1450  1.1104
   26MOL0     H 3584  -0.392   8.037   3.874  0.6273 -0.9629  1.7208
   26MOL0     H 3585  -0.208   8.771   3.742  1.2226  0.7626  1.5334
   26MOL0     H 3586  -0.099   9.101   3.791  2.1826 -0.4089  1.3365
   26MOL0     H 3587  -0.203   8.972   3.842 -0.0968 -1.3364 -1.4441
   26MOL0     H 3588  -0.040   8.979   3.910  1.2556  0.7819  0.2819
   27MOL0     O 3589  10.311   1.554   8.469  0.2020  0.2127  0.0813
   27MOL0     C 3590  10.303   1.638   8.382  0.0322  0.9798 -0.6324
   27MOL0     O 3591  10.310   1.775   8.417  1.1981  1.0916  0.3055
   27MOL0     C 3592  10.287   1.796   8.554 -0.4686  0.4595  1.2990
   27MOL0     C 3593  10.403   1.836   8.636 -0.1935 -0.1051  0.3984
   27MOL0     C 3594  10.375   1.872   8.770 -0.4329  0.5112 -0.1123
   27MOL0     C 3595  10.255   1.847   8.831 -0.3716  0.9396  0.5257
   27MOL0     O 3596  10.239   1.878   8.958  0.9272  0.0131 -0.1375
   27MOL0     C 3597  10.110   1.840   9.026 -0.5522 -0.2894  0.3503
   27MOL0     C 3598  10.133   1.800   9.173 -0.8039  0.1212  0.3123
   27MOL0     C 3599   9.999   1.772   9.244  0.7864  0.2054 -0.5875
   27MOL0     C 3600  10.032   1.702   9.384 -0.4400 -0.4750  0.1668
   27MOL0     C 3601   9.909   1.630   9.441 -0.6112 -0.4034  0.2593
   27MOL0     C 3602   9.946   1.550   9.572 -0.3152 -0.4493 -0.0017
   27MOL0     C 3603   9.840   1.458   9.632 -0.2362  1.1094 -0.1506
   27MOL0     C 3604   9.789   1.360   9.528  0.5248 -0.2001 -0.5182
   27MOL0     N 3605   9.680   1.275   9.581 -0.6637  0.1920  0.3850
   27MOL0     C 3606   9.701   1.140   9.630 -0.0877 -0.2667  0.3395
   27MOL0     C 3607   9.572   1.104   9.664 -1.5784 -0.6390 -0.5429
   27MOL0     C 3608   9.523   0.969   9.688  0.8094  0.4026 -0.6963
   27MOL0     C 3609   9.557   0.925   9.830  0.5561  0.0866 -0.1948
   27MOL0     C 3610   9.514   0.784   9.856  0.0975  0.3461  0.3610
   27MOL0     C 3611   9.591   0.753   9.986  0.1068 -0.5932 -0.2514
   27MOL0     O 3612   9.516   0.811  10.091 -0.5447  0.3072  0.2796
   27MOL0     C 3613   9.541   0.781  10.222  0.5156  0.5052 -0.4421
   27MOL0     C 3614   9.452   0.843  10.298  0.5612  0.0372 -0.6961
   27MOL0     C 3615   9.440   0.811  10.430  1.1718 -0.3576 -1.2897
   27MOL0     C 3616   9.322   0.874  10.506  0.8978 -0.1830 -0.3827
   27MOL0     C 3617   9.536   0.732  10.493  0.1532  0.4289 -0.0447
   27MOL0     C 3618   9.538   0.703  10.640  0.0117  0.2961 -0.4974
   27MOL0     O 3619   9.580   0.577  10.674  0.2505 -0.1702 -0.4115
   27MOL0     C 3620   9.599   0.535  10.808  0.0707 -0.4859 -0.8893
   27MOL0     C 3621   9.559   0.408  10.856 -0.9662 -1.0433 -0.2144
   27MOL0     C 3622   9.588   0.368  10.988  0.2817 -0.5215  0.0653
   27MOL0     C 3623   9.658   0.440  11.083 -0.9145 -0.8721 -0.8183
   27MOL0     O 3624   9.683   0.408  11.207 -0.4080  0.4373  0.0989
   27MOL0     C 3625   9.640   0.278  11.252  0.2789  0.7341 -0.1467
   27MOL0     C 3626   9.684   0.262  11.394 -0.8178 -0.1053  0.9540
   27MOL0     C 3627   9.627   0.357  11.489  0.3559  0.0410 -0.4246
   27MOL0     C 3628   9.691   0.342  11.634  0.3894 -0.4924  0.9750
   27MOL0     C 3629   9.609   0.427  11.744  0.2713  0.8000  0.5201
   27MOL0     C 3630   9.657   0.385  11.885  0.8810  0.1636  0.4672
   27MOL0     C 3631   9.794   0.444  11.919 -0.8222  0.0158 -0.4873
   27MOL0     C 3632   9.913   0.335  11.963 -0.1357  0.2980 -0.0614
   27MOL0    Cl 3633   9.885   0.249  12.110 -0.0338 -0.5815 -0.3826
   27MOL0     C 3634   9.705   0.564  11.028 -0.0075 -0.0543 -0.2209
   27MOL0     C 3635   9.679   0.605  10.897 -0.1368  0.5508 -0.5609
   27MOL0     O 3636   9.514   0.793  10.718  0.1884 -0.3359 -0.6622
   27MOL0     C 3637   9.627   0.660  10.415  0.0415 -0.2748 -0.1847
   27MOL0     C 3638   9.626   0.688  10.279 -0.3005 -0.2128  0.3669
   27MOL0     N 3639   9.485   1.214   9.653 -0.1062 -0.6698 -0.2374
   27MOL0     N 3640   9.544   1.306   9.594 -0.5203 -1.0108  0.2830
   27MOL0     C 3641  10.146   1.804   8.745  0.3473  0.1637 -0.6092
   27MOL0     C 3642  10.163   1.779   8.610 -0.3484  0.1792 -0.1855
   27MOL0     C 3643  10.276   1.597   8.245  0.7587  0.7210  0.4679
   27MOL0     C 3644  10.240   1.694   8.152 -0.1473 -0.2291  0.1411
   27MOL0     C 3645  10.203   1.665   8.020 -0.6647  0.0540 -0.0187
   27MOL0     C 3646  10.198   1.537   7.977 -0.6029  0.2392  0.7120
   27MOL0     O 3647  10.135   1.509   7.860 -0.2193  0.2117  0.0414
   27MOL0     C 3648  10.119   1.365   7.834  0.5923 -0.2246  1.3961
   27MOL0     C 3649  10.053   1.350   7.695  0.5785 -0.3998 -0.7825
   27MOL0     C 3650   9.905   1.363   7.713 -0.2038  0.4973  0.1892
   27MOL0     C 3651   9.849   1.404   7.584  0.2894 -0.3598 -1.2123
   27MOL0     C 3652   9.713   1.458   7.588 -0.6733  0.2710  0.4739
   27MOL0     C 3653   9.597   1.481   7.594  0.4168 -1.1880 -1.6758
   27MOL0     C 3654  10.249   1.441   8.066  0.9851  0.1607 -0.6683
   27MOL0     C 3655  10.284   1.466   8.197  0.2886  0.7315  0.6583
   27MOL0     C 3656  10.340   1.352   8.282  0.4035 -0.4401  0.2138
   27MOL0     H 3657  10.505   1.848   8.602 -0.1100 -1.1850  0.2502
   27MOL0     H 3658  10.453   1.925   8.824  0.8942 -1.8771  0.4941
   27MOL0     H 3659  10.061   1.757   8.975  0.1175  1.5742 -3.7178
   27MOL0     H 3660  10.040   1.924   9.023 -2.1131 -1.5641 -0.0138
   27MOL0     H 3661  10.191   1.708   9.174 -0.2639  0.4362 -0.7038
   27MOL0     H 3662  10.184   1.882   9.225 -2.7253  0.6389  1.5252
   27MOL0     H 3663   9.952   1.868   9.269  1.8082  0.5290  0.1836
   27MOL0     H 3664   9.931   1.710   9.186 -0.5090  0.2305  0.8425
   27MOL0     H 3665  10.112   1.629   9.370  0.9964  1.1935 -0.8443
   27MOL0     H 3666  10.063   1.784   9.450 -1.4366 -0.1626  0.2613
   27MOL0     H 3667   9.877   1.552   9.371  1.8602 -1.2954  0.0377
   27MOL0     H 3668   9.834   1.705   9.470  1.5050  1.5586  0.9175
   27MOL0     H 3669  10.037   1.491   9.560 -0.9114 -1.2348 -0.8774
   27MOL0     H 3670   9.962   1.624   9.651 -0.5253 -0.4661  0.0575
   27MOL0     H 3671   9.762   1.526   9.670  1.5881  1.8877  2.4971
   27MOL0     H 3672   9.879   1.400   9.716 -0.8259  0.3222 -0.4109
   27MOL0     H 3673   9.736   1.416   9.451  0.1663 -3.4980 -2.8956
   27MOL0     H 3674   9.875   1.308   9.485  3.1411  3.4688 -0.2060
   27MOL0     H 3675   9.786   1.074   9.615  1.2588  2.0015 -3.0513
   27MOL0     H 3676   9.560   0.899   9.613  3.7542  1.9069 -0.7611
   27MOL0     H 3677   9.414   0.958   9.692  0.9864 -1.3301  0.2243
   27MOL0     H 3678   9.662   0.950   9.848  1.1478 -1.7625 -0.8258
   27MOL0     H 3679   9.492   0.983   9.896 -2.6861 -1.7211 -1.5734
   27MOL0     H 3680   9.405   0.772   9.854  0.1058 -0.3558  1.8744
   27MOL0     H 3681   9.549   0.717   9.777 -1.9611  2.2000 -2.2933
   27MOL0     H 3682   9.595   0.644   9.985 -1.4922 -0.6706 -0.8352
   27MOL0     H 3683   9.688   0.804   9.989 -1.9150  3.8327 -1.7453
   27MOL0     H 3684   9.384   0.910  10.245  0.6346  0.3732 -0.3684
   27MOL0     H 3685   9.248   0.922  10.442  0.3480 -2.7510 -1.8070
   27MOL0     H 3686   9.364   0.956  10.565 -0.7040 -1.4479  2.7578
   27MOL0     H 3687   9.272   0.801  10.571  2.6834 -0.7117  0.4605
   27MOL0     H 3688   9.508   0.346  10.783 -2.9344 -0.8057  0.8796
   27MOL0     H 3689   9.552   0.274  11.027  0.2681 -0.3012  0.5964
   27MOL0     H 3690   9.531   0.273  11.256  0.2334  1.9728  1.5320
   27MOL0     H 3691   9.676   0.197  11.189  3.1430  1.0880  0.9107
   27MOL0     H 3692   9.664   0.157  11.419 -1.0623 -0.0162  1.1399
   27MOL0     H 3693   9.791   0.284  11.397 -1.3430  2.8331  0.9301
   27MOL0     H 3694   9.523   0.326  11.502  0.7234 -1.7459 -1.4000
   27MOL0     H 3695   9.626   0.462  11.459  0.7126  0.4436  0.9234
   27MOL0     H 3696   9.796   0.365  11.610 -0.0470 -1.9910 -3.1265
   27MOL0     H 3697   9.686   0.237  11.662 -1.1769 -0.1923  1.9144
   27MOL0     H 3698   9.613   0.534  11.723  0.6359  0.9080  1.1292
   27MOL0     H 3699   9.504   0.398  11.738  0.2843  0.9980 -1.4810
   27MOL0     H 3700   9.677   0.277  11.888  4.3027  0.6752  0.3169
   27MOL0     H 3701   9.582   0.396  11.964 -1.6497 -0.6908 -1.6851
   27MOL0     H 3702   9.778   0.524  11.992  2.0613 -1.2931  1.8012
   27MOL0     H 3703   9.820   0.500  11.829 -1.0850  1.1651  0.1367
   27MOL0     H 3704  10.014   0.376  11.973  0.3087 -0.4801 -1.1089
   27MOL0     H 3705   9.913   0.268  11.876 -1.6005  1.7093 -1.2147
   27MOL0     H 3706   9.760   0.630  11.094  0.4267 -0.3776 -0.2560
   27MOL0     H 3707   9.721   0.697  10.859 -0.1139 -0.0363 -2.0209
   27MOL0     H 3708   9.707   0.596  10.449 -0.4328 -1.3229 -0.9917
   27MOL0     H 3709   9.685   0.629  10.209 -1.1720 -1.5729  0.7333
   27MOL0     H 3710  10.043   1.808   8.777  0.9590  1.0009  1.4083
   27MOL0     H 3711  10.079   1.753   8.546  0.2277 -0.3073 -0.7596
   27MOL0     H 3712  10.230   1.799   8.178  1.7441 -0.3236  1.4717
   27MOL0     H 3713  10.161   1.738   7.951 -1.8523 -0.3944  0.2002
   27MOL0     H 3714  10.225   1.341   7.828  0.6037 -0.6704  2.9467
   27MOL0     H 3715  10.059   1.316   7.911 -1.5035 -0.1620 -0.0818
   27MOL0     H 3716  10.094   1.260   7.650 -0.4073 -0.5596 -1.3891
   27MOL0     H 3717  10.094   1.433   7.637 -1.6121 -0.3475 -2.3688
   27MOL0     H 3718   9.863   1.267   7.746  1.2505  0.1851  1.2329
   27MOL0     H 3719   9.882   1.441   7.785 -0.5562  0.3449  0.2433
   27MOL0     H 3720   9.848   1.331   7.502 -1.6311  0.9731 -2.4712
   27MOL0     H 3721   9.910   1.487   7.545 -2.4831  3.1568  1.2597
   27MOL0     H 3722   9.492   1.502   7.595 -0.1697 -3.6206  0.8665
   27MOL0     H 3723  10.256   1.337   8.035  1.1318 -0.1082  0.2435
   27MOL0     H 3724  10.439   1.378   8.322  1.3319 -2.7621 -0.4308
   27MOL0     H 3725  10.265   1.351   8.362 -0.2913 -4.2590 -0.2989
   27MOL0     H 3726  10.338   1.260   8.224 -1.5866 -0.0142 -0.4509
   28MOL0     O 3727   9.150   1.749   4.391 -0.0321 -0.3574  0.2156
   28MOL0     C 3728   9.089   1.692   4.478 -0.4606 -0.3326  0.1469
   28MOL0     O 3729   8.974   1.630   4.456  0.6301 -0.4680  0.2220
   28MOL0     C 3730   8.925   1.627   4.325 -0.9189 -0.1560  0.5522
   28MOL0     C 3731   8.949   1.513   4.243  0.8554  0.0408  0.4901
   28MOL0     C 3732   8.912   1.515   4.108  0.1508  0.1082 -0.8262
   28MOL0     C 3733   8.830   1.617   4.064  0.0517 -0.2526  0.3005
   28MOL0     O 3734   8.786   1.628   3.937 -0.3168  0.1979  0.0542
   28MOL0     C 3735   8.892   1.670   3.842 -0.0261  0.1203  0.2569
   28MOL0     C 3736   8.839   1.784   3.753  0.2820  0.4866  0.1026
   28MOL0     C 3737   8.713   1.745   3.676 -0.2476 -0.2407  1.3759
   28MOL0     C 3738   8.696   1.832   3.547  0.1611 -1.2669 -0.4803
   28MOL0     C 3739   8.561   1.797   3.477 -0.2739  0.2761  0.7383
   28MOL0     C 3740   8.443   1.865   3.526 -0.3630  0.9897 -0.1662
   28MOL0     C 3741   8.320   1.783   3.502  0.6859 -0.7059  0.3809
   28MOL0     C 3742   8.196   1.850   3.538 -0.1556 -0.0139 -0.5255
   28MOL0     N 3743   8.170   1.982   3.482  0.5816 -0.2308  0.3817
   28MOL0     C 3744   8.207   2.106   3.533  0.1528 -0.2798  0.9104
   28MOL0     C 3745   8.117   2.185   3.466 -0.2687 -0.3205 -0.8741
   28MOL0     C 3746   8.107   2.336   3.498 -0.0278  0.5332 -0.3444
   28MOL0     C 3747   8.087   2.358   3.651 -0.7023  0.1243 -0.2327
   28MOL0     C 3748   8.042   2.502   3.671 -0.2991  0.1278  0.0970
   28MOL0     C 3749   7.981   2.511   3.809 -0.1959  0.3243 -1.2161
   28MOL0     O 3750   7.869   2.421   3.816  0.3092 -0.4556 -0.6944
   28MOL0     C 3751   7.799   2.418   3.941  0.0834  0.5269  0.6525
   28MOL0     C 3752   7.825   2.484   4.057  0.8461  0.0404 -0.4342
   28MOL0     C 3753   7.745   2.456   4.170 -0.2025 -0.5406  1.0301
   28MOL0     C 3754   7.792   2.525   4.300 -0.1548 -0.5691 -0.4607
   28MOL0     C 3755   7.634   2.378   4.160 -0.1017 -0.1965 -0.9841
   28MOL0     C 3756   7.545   2.340   4.273 -0.6891 -0.1791  0.3210
   28MOL0     O 3757   7.511   2.204   4.287  0.5940 -0.0236  0.8684
   28MOL0     C 3758   7.402   2.150   4.348  0.2017 -1.4826  0.4599
   28MOL0     C 3759   7.273   2.200   4.342  0.6863  0.0176  0.8482
   28MOL0     C 3760   7.167   2.143   4.404  0.5568 -0.2483  0.8572
   28MOL0     C 3761   7.195   2.033   4.476  0.2838  0.0788  0.8504
   28MOL0     O 3762   7.100   1.959   4.543  0.0253  0.6062  0.4073
   28MOL0     C 3763   6.963   2.000   4.543  0.6656  0.0490 -1.0101
   28MOL0     C 3764   6.889   1.907   4.635  0.3712  0.3908  0.3349
   28MOL0     C 3765   6.945   1.923   4.780 -0.7148 -0.6371  0.0302
   28MOL0     C 3766   6.892   1.833   4.884  0.5360  0.7541  0.2604
   28MOL0     C 3767   6.925   1.884   5.026  0.5087  0.4690 -0.2036
   28MOL0     C 3768   6.893   1.785   5.132 -0.2663 -0.1678  0.6104
   28MOL0     C 3769   6.983   1.665   5.164 -0.2506 -0.3366  0.8901
   28MOL0     C 3770   6.918   1.582   5.277 -0.3221  1.0028 -0.1696
   28MOL0    Cl 3771   6.954   1.671   5.428  0.0355  0.0016 -0.4074
   28MOL0     C 3772   7.325   1.984   4.483 -0.1274 -0.6266 -0.1593
   28MOL0     C 3773   7.433   2.039   4.422  0.2739  0.3594  1.0569
   28MOL0     O 3774   7.516   2.422   4.347 -0.1331  0.4409  0.1772
   28MOL0     C 3775   7.601   2.328   4.038  0.0085 -0.2779 -1.0602
   28MOL0     C 3776   7.675   2.346   3.926 -0.1005 -0.2747 -0.0483
   28MOL0     N 3777   8.034   2.120   3.379 -0.6515  0.2244  1.1149
   28MOL0     N 3778   8.078   1.997   3.380  0.1221 -1.0002  0.5564
   28MOL0     C 3779   8.775   1.714   4.159 -0.2153  0.8016  0.3987
   28MOL0     C 3780   8.837   1.728   4.292  0.6415  0.8116 -0.7351
   28MOL0     C 3781   9.141   1.665   4.612 -0.0940 -0.0831 -0.3367
   28MOL0     C 3782   9.072   1.583   4.701 -0.0605 -0.4496  0.2847
   28MOL0     C 3783   9.103   1.582   4.838 -0.5801  0.8207 -0.6936
   28MOL0     C 3784   9.215   1.647   4.883  0.2171  0.4050  0.1753
   28MOL0     O 3785   9.228   1.650   5.021 -0.0765  0.9394  0.8205
   28MOL0     C 3786   9.347   1.676   5.088  0.9631  0.1350  0.2824
   28MOL0     C 3787   9.365   1.824   5.104 -0.3940  0.4552 -0.6253
   28MOL0     C 3788   9.481   1.871   5.189 -0.1910 -0.3711 -0.1430
   28MOL0     C 3789   9.473   1.832   5.336  0.3796  0.1692 -0.6298
   28MOL0     C 3790   9.363   1.914   5.391 -0.4174  0.5691  0.4282
   28MOL0     C 3791   9.264   1.962   5.435 -0.1181 -0.0457  1.3563
   28MOL0     C 3792   9.300   1.696   4.793 -0.1307  0.0069 -0.2497
   28MOL0     C 3793   9.272   1.711   4.656 -0.2387 -0.2001  0.5796
   28MOL0     C 3794   9.380   1.772   4.562  0.1393 -0.5414  1.3906
   28MOL0     H 3795   8.998   1.426   4.285 -0.6966 -1.4288 -0.6339
   28MOL0     H 3796   8.943   1.442   4.034  2.7341  2.4723 -2.2747
   28MOL0     H 3797   8.922   1.583   3.784 -2.6796  0.6662 -2.1416
   28MOL0     H 3798   8.980   1.709   3.894  0.0447 -0.7230  0.7946
   28MOL0     H 3799   8.804   1.869   3.813 -0.0175  1.3791 -1.3045
   28MOL0     H 3800   8.918   1.832   3.696  3.2798 -0.8753  2.7952
   28MOL0     H 3801   8.723   1.641   3.644 -0.0007 -0.4896  2.2521
   28MOL0     H 3802   8.632   1.748   3.749  0.7555  0.7464  2.5033
   28MOL0     H 3803   8.700   1.941   3.554 -0.8065 -1.0754 -2.2372
   28MOL0     H 3804   8.771   1.809   3.470 -0.6114 -0.4350 -1.5036
   28MOL0     H 3805   8.551   1.688   3.479 -0.7273  0.3193  0.7932
   28MOL0     H 3806   8.573   1.829   3.373  0.0635  1.1063  1.0215
   28MOL0     H 3807   8.442   1.860   3.636  0.3751 -2.1902 -0.2282
   28MOL0     H 3808   8.453   1.965   3.482  1.7952 -0.1419 -2.4510
   28MOL0     H 3809   8.317   1.691   3.561  0.0937 -1.7891 -1.2598
   28MOL0     H 3810   8.306   1.767   3.395 -0.1323 -0.7151  0.4793
   28MOL0     H 3811   8.116   1.780   3.509  1.0513 -0.9745 -1.6780
   28MOL0     H 3812   8.175   1.853   3.645 -0.9517  3.8173 -0.6472
   28MOL0     H 3813   8.284   2.129   3.606 -0.6141 -1.8190  2.2695
   28MOL0     H 3814   8.034   2.378   3.428  1.0435 -0.1270 -1.8946
   28MOL0     H 3815   8.200   2.392   3.486 -0.5987  2.7323  3.5166
   28MOL0     H 3816   8.018   2.282   3.688  2.9643 -2.7712  1.3813
   28MOL0     H 3817   8.171   2.335   3.718 -0.1857  2.2746 -0.0786
   28MOL0     H 3818   8.130   2.565   3.655  0.1089 -0.8774 -1.8766
   28MOL0     H 3819   7.960   2.523   3.601 -0.3552 -0.5095 -0.0342
   28MOL0     H 3820   8.047   2.480   3.890 -2.6869 -2.8368 -0.1583
   28MOL0     H 3821   7.948   2.616   3.815 -3.1292 -0.3050 -3.6718
   28MOL0     H 3822   7.908   2.553   4.067 -0.9570  2.5523 -1.6524
   28MOL0     H 3823   7.781   2.459   4.386  1.7269  3.1416  2.9777
   28MOL0     H 3824   7.721   2.607   4.313 -1.2108 -1.7254  1.3997
   28MOL0     H 3825   7.897   2.555   4.303 -0.1952 -0.4028  2.5001
   28MOL0     H 3826   7.264   2.297   4.293  2.7361  0.0583  0.4676
   28MOL0     H 3827   7.073   2.196   4.400  0.2385 -0.8758 -1.2942
   28MOL0     H 3828   6.948   2.100   4.583 -4.6700 -0.7852 -0.2140
   28MOL0     H 3829   6.919   2.000   4.443 -2.5268  0.6489  0.2778
   28MOL0     H 3830   6.786   1.942   4.631  0.6720  1.4962  1.4802
   28MOL0     H 3831   6.902   1.800   4.619  3.8177  0.9882 -2.0698
   28MOL0     H 3832   6.918   2.025   4.809 -0.4209 -0.3638 -0.6355
   28MOL0     H 3833   7.054   1.922   4.771 -0.7538  0.3249 -0.7044
   28MOL0     H 3834   6.931   1.734   4.860  0.9419  1.7002 -3.8715
   28MOL0     H 3835   6.784   1.825   4.863  0.2718  1.3877  1.3251
   28MOL0     H 3836   7.033   1.897   5.038  1.1439 -2.0175 -2.2390
   28MOL0     H 3837   6.870   1.973   5.058 -1.0658  0.1502 -1.8494
   28MOL0     H 3838   6.793   1.742   5.124 -0.3327  0.3430 -2.4257
   28MOL0     H 3839   6.883   1.834   5.229  3.6584  0.4199  0.9005
   28MOL0     H 3840   7.085   1.692   5.192 -0.7821 -0.1705  2.8105
   28MOL0     H 3841   6.980   1.608   5.071  0.6893  2.4944 -0.9770
   28MOL0     H 3842   6.966   1.484   5.284 -0.3634  1.0184  0.4621
   28MOL0     H 3843   6.812   1.567   5.254  0.2435 -1.8512 -1.3877
   28MOL0     H 3844   7.336   1.889   4.534 -3.0430  0.1601  2.2328
   28MOL0     H 3845   7.527   1.986   4.429 -0.9641 -2.5515 -1.6636
   28MOL0     H 3846   7.512   2.267   4.021 -1.1710  1.4828 -1.4492
   28MOL0     H 3847   7.643   2.295   3.835 -0.0636 -0.0607 -0.1806
   28MOL0     H 3848   8.710   1.795   4.126 -0.2290  0.3953 -0.6350
   28MOL0     H 3849   8.825   1.816   4.354 -0.4030  0.3789 -0.3036
   28MOL0     H 3850   8.989   1.523   4.664  0.3283  0.8249 -2.9836
   28MOL0     H 3851   9.036   1.524   4.902 -0.7035  1.2708 -0.4064
   28MOL0     H 3852   9.351   1.610   5.176 -0.9099 -0.8404 -0.3262
   28MOL0     H 3853   9.422   1.632   5.021  0.6817 -0.6650  0.4815
   28MOL0     H 3854   9.280   1.881   5.144 -0.3228 -0.0735  0.3099
   28MOL0     H 3855   9.368   1.864   5.002 -3.4043  1.8503 -0.2855
   28MOL0     H 3856   9.567   1.816   5.151  0.5763 -1.0227  2.3418
   28MOL0     H 3857   9.501   1.977   5.168  2.6256 -0.3563  2.0088
   28MOL0     H 3858   9.569   1.853   5.385  0.3197  0.9781 -0.8401
   28MOL0     H 3859   9.452   1.725   5.340  1.0871  0.0364 -0.2864
   28MOL0     H 3860   9.177   2.008   5.477 -2.3438  1.0281 -3.6774
   28MOL0     H 3861   9.396   1.731   4.829  0.2870 -1.3108 -0.0241
   28MOL0     H 3862   9.472   1.751   4.618 -0.5112 -1.2223  2.2445
   28MOL0     H 3863   9.402   1.725   4.466  0.9761  1.7458  0.3984
   28MOL0     H 3864   9.362   1.877   4.540  0.5411 -0.0214  3.3642
   29MOL0     O 3865   8.410   0.416   2.949 -0.3809 -0.7406  0.0368
   29MOL0     C 3866   8.469   0.321   3.000  0.3389  0.4807  0.4865
   29MOL0     O 3867   8.405   0.197   3.015 -0.4742  0.1730  0.4523
   29MOL0     C 3868   8.293   0.161   2.937  0.6824 -0.1447  0.5383
   29MOL0     C 3869   8.270   0.180   2.798 -0.4651 -0.3563  0.8724
   29MOL0     C 3870   8.166   0.120   2.728  1.2195 -0.3194 -1.4061
   29MOL0     C 3871   8.078   0.036   2.796 -0.4270 -1.2868  0.4453
   29MOL0     O 3872   7.980  -0.017   2.717  0.1339 -0.0527  0.3477
   29MOL0     C 3873   7.970  -0.164   2.725 -0.2419  0.6784 -0.6219
   29MOL0     C 3874   7.876  -0.206   2.615 -0.1911  0.4455  0.1212
   29MOL0     C 3875   7.857  -0.358   2.617  1.0785 -0.2256 -0.7682
   29MOL0     C 3876   7.739  -0.402   2.514 -0.2968 -0.6722 -0.0075
   29MOL0     C 3877   7.755  -0.549   2.461 -0.1240 -0.4662 -1.0606
   29MOL0     C 3878   7.646  -0.573   2.355  0.2732  0.1148 -0.2684
   29MOL0     C 3879   7.634  -0.719   2.307  0.1905 -0.0467 -0.5800
   29MOL0     C 3880   7.516  -0.744   2.224 -0.0388  0.6479 -0.1687
   29MOL0     N 3881   7.494  -0.893   2.195 -0.5028 -1.2064  0.0550
   29MOL0     C 3882   7.400  -0.944   2.115  0.9349  1.3518  0.1515
   29MOL0     C 3883   7.432  -1.084   2.122  0.1227 -0.3317 -0.2961
   29MOL0     C 3884   7.354  -1.197   2.051 -0.2108  0.1879 -0.5630
   29MOL0     C 3885   7.251  -1.156   1.949 -0.4726  0.4411  0.6065
   29MOL0     C 3886   7.216  -1.277   1.860 -0.4497 -0.8300 -0.7864
   29MOL0     C 3887   7.116  -1.237   1.753  0.3081  0.1788 -0.3879
   29MOL0     O 3888   7.193  -1.166   1.653  0.2318 -0.4203 -0.6631
   29MOL0     C 3889   7.198  -1.237   1.536 -0.5623  0.4101 -0.2252
   29MOL0     C 3890   7.077  -1.278   1.477  0.0317  0.9434 -0.3167
   29MOL0     C 3891   7.076  -1.370   1.367  0.1846  0.4868  0.2026
   29MOL0     C 3892   6.945  -1.401   1.307  0.2754  0.6647 -0.4706
   29MOL0     C 3893   7.204  -1.403   1.314 -0.3185  0.1435  0.1614
   29MOL0     C 3894   7.209  -1.500   1.195  0.3235 -0.0399 -0.7582
   29MOL0     O 3895   7.340  -1.521   1.155  0.8187  0.6987  0.2847
   29MOL0     C 3896   7.363  -1.625   1.068 -0.6614  1.4430 -0.0596
   29MOL0     C 3897   7.370  -1.755   1.123  0.0793  0.7070  0.0083
   29MOL0     C 3898   7.407  -1.853   1.033  0.9840 -0.1773 -0.0753
   29MOL0     C 3899   7.448  -1.825   0.898  0.0528  0.1971 -0.7465
   29MOL0     O 3900   7.485  -1.931   0.822  0.0394  0.3811  0.2685
   29MOL0     C 3901   7.536  -1.913   0.682  0.9024 -0.3299 -0.1915
   29MOL0     C 3902   7.414  -1.894   0.583 -0.7652 -0.3997 -0.6199
   29MOL0     C 3903   7.369  -2.006   0.491 -0.0121  0.3287 -1.0021
   29MOL0     C 3904   7.456  -2.023   0.372 -0.0982  0.5764 -0.6085
   29MOL0     C 3905   7.406  -2.145   0.302  0.2490 -0.4295 -0.2075
   29MOL0     C 3906   7.467  -2.162   0.157  0.1637  0.7510  0.1290
   29MOL0     C 3907   7.431  -2.297   0.095  0.4628 -0.1317 -0.2809
   29MOL0     C 3908   7.474  -2.424   0.159 -0.6286  0.8462  0.8130
   29MOL0    Cl 3909   7.644  -2.438   0.144  0.0398 -0.1913  0.1867
   29MOL0     C 3910   7.436  -1.698   0.847 -1.0441 -0.3324 -0.5290
   29MOL0     C 3911   7.397  -1.596   0.937  0.1458 -0.0538  0.6798
   29MOL0     O 3912   7.110  -1.566   1.162 -0.3913  0.8313  0.1599
   29MOL0     C 3913   7.317  -1.338   1.362 -0.0768 -0.1782  0.2859
   29MOL0     C 3914   7.315  -1.261   1.473 -0.5365 -0.1434 -0.6380
   29MOL0     N 3915   7.532  -1.105   2.215  1.0444  0.6757  0.6396
   29MOL0     N 3916   7.569  -0.992   2.252 -0.6713  0.8813  0.3259
   29MOL0     C 3917   8.104   0.001   2.928  0.1186  0.5636 -1.1613
   29MOL0     C 3918   8.210   0.056   3.002 -0.6312 -0.3456  0.2060
   29MOL0     C 3919   8.604   0.328   3.063 -0.2513 -0.3857 -0.3085
   29MOL0     C 3920   8.657   0.222   3.133  0.1767 -0.0310 -0.2712
   29MOL0     C 3921   8.779   0.231   3.197  1.0525  0.3095  0.0842
   29MOL0     C 3922   8.865   0.349   3.187 -0.3143 -0.3456  0.7927
   29MOL0     O 3923   8.984   0.369   3.245  0.3201 -0.1537 -0.5977
   29MOL0     C 3924   9.032   0.267   3.334 -0.7855 -0.7022  0.4755
   29MOL0     C 3925   9.159   0.302   3.413  0.4809  0.1278  0.3393
   29MOL0     C 3926   9.177   0.455   3.445 -0.8437  0.5028  0.2955
   29MOL0     C 3927   9.317   0.477   3.518  0.8824  0.7987  0.0184
   29MOL0     C 3928   9.327   0.423   3.658 -0.1024  1.0834 -0.1076
   29MOL0     C 3929   9.325   0.402   3.778  0.0255  0.1241  0.7862
   29MOL0     C 3930   8.813   0.451   3.110 -0.4163 -0.8488  0.3378
   29MOL0     C 3931   8.688   0.440   3.040 -0.1198 -0.6557 -0.8892
   29MOL0     C 3932   8.643   0.560   2.963  0.0198  0.0826  0.1710
   29MOL0     H 3933   8.345   0.245   2.752 -2.7982  1.6158 -0.3998
   29MOL0     H 3934   8.147   0.127   2.622 -2.6765  0.9739 -0.7773
   29MOL0     H 3935   7.937  -0.193   2.825  0.7528  1.8231  0.0647
   29MOL0     H 3936   8.069  -0.211   2.719  1.3185  3.0904  3.0059
   29MOL0     H 3937   7.785  -0.145   2.615 -0.7899 -0.4188 -0.1838
   29MOL0     H 3938   7.929  -0.184   2.522 -0.0314 -0.8711 -0.1196
   29MOL0     H 3939   7.950  -0.413   2.599  0.5262 -1.9775  1.2706
   29MOL0     H 3940   7.829  -0.390   2.718 -2.9049 -1.0765 -1.9496
   29MOL0     H 3941   7.645  -0.378   2.563  0.7954  1.3459  1.2726
   29MOL0     H 3942   7.741  -0.333   2.429  1.4685 -0.2055  0.3658
   29MOL0     H 3943   7.746  -0.622   2.542  2.9785  0.8293  0.6610
   29MOL0     H 3944   7.844  -0.563   2.399  0.5948 -2.7205  0.3714
   29MOL0     H 3945   7.548  -0.541   2.392  0.1356 -0.9160  0.2995
   29MOL0     H 3946   7.660  -0.506   2.270  2.7844 -0.6011 -0.5037
   29MOL0     H 3947   7.634  -0.783   2.396  0.7253  1.7845  0.7860
   29MOL0     H 3948   7.715  -0.735   2.236 -0.9106 -1.8769 -1.4982
   29MOL0     H 3949   7.423  -0.717   2.274  0.4518  2.2520 -0.0787
   29MOL0     H 3950   7.510  -0.692   2.129 -3.2991 -0.8681 -0.9365
   29MOL0     H 3951   7.311  -0.898   2.072 -0.0368 -0.1526  0.4563
   29MOL0     H 3952   7.296  -1.255   2.123 -0.6603  1.4454  0.1256
   29MOL0     H 3953   7.430  -1.270   2.022  0.8913  1.6609 -1.5060
   29MOL0     H 3954   7.159  -1.119   1.996 -1.4918 -0.7692 -0.3518
   29MOL0     H 3955   7.293  -1.079   1.884 -0.7676  1.6741  1.8333
   29MOL0     H 3956   7.308  -1.325   1.826  1.1151  0.1355  1.7373
   29MOL0     H 3957   7.158  -1.343   1.926 -1.5235  1.2764  0.4867
   29MOL0     H 3958   7.082  -1.336   1.721 -0.2121  1.0815 -2.8957
   29MOL0     H 3959   7.036  -1.171   1.787 -2.6166 -1.3336 -3.6617
   29MOL0     H 3960   6.982  -1.257   1.525  1.0288 -1.0083  2.8004
   29MOL0     H 3961   6.929  -1.382   1.200  0.9395 -0.4402 -0.7848
   29MOL0     H 3962   6.871  -1.338   1.358 -0.1886  0.3240 -0.7065
   29MOL0     H 3963   6.903  -1.502   1.316 -1.6235  1.2461 -2.0736
   29MOL0     H 3964   7.352  -1.783   1.226  0.4341 -0.6416 -0.2779
   29MOL0     H 3965   7.415  -1.957   1.063  1.1605 -0.0623  0.2819
   29MOL0     H 3966   7.588  -1.818   0.671 -0.6521  0.5857  0.1279
   29MOL0     H 3967   7.591  -2.003   0.652 -1.1112 -1.1869 -1.5998
   29MOL0     H 3968   7.327  -1.860   0.639 -2.9285 -1.7962 -2.9112
   29MOL0     H 3969   7.446  -1.810   0.521  2.5098 -1.2194 -0.2409
   29MOL0     H 3970   7.266  -1.980   0.468 -0.1341  0.5047 -0.2987
   29MOL0     H 3971   7.374  -2.105   0.538  3.4961 -0.7691 -3.3313
   29MOL0     H 3972   7.559  -2.041   0.404 -0.0126  2.2344  0.1802
   29MOL0     H 3973   7.454  -1.934   0.308 -1.3296  2.5958  2.0326
   29MOL0     H 3974   7.414  -2.233   0.366 -0.0564  0.3075  0.8791
   29MOL0     H 3975   7.298  -2.126   0.302  0.1737 -0.3686  3.0856
   29MOL0     H 3976   7.575  -2.147   0.166  0.7753 -2.7422 -0.3205
   29MOL0     H 3977   7.426  -2.097   0.079 -0.5692 -1.1930 -1.1740
   29MOL0     H 3978   7.470  -2.305  -0.007 -0.0701 -1.4757 -0.4037
   29MOL0     H 3979   7.322  -2.306   0.095  0.5685 -1.9121  0.3511
   29MOL0     H 3980   7.438  -2.509   0.100 -0.4978  3.9251 -4.2640
   29MOL0     H 3981   7.444  -2.431   0.264  1.0059  1.3265  1.3448
   29MOL0     H 3982   7.480  -1.675   0.751  2.0144  1.7620  1.1924
   29MOL0     H 3983   7.402  -1.492   0.908  0.1275 -0.3370 -0.3865
   29MOL0     H 3984   7.411  -1.345   1.309  1.6017  4.7391  2.0275
   29MOL0     H 3985   7.399  -1.209   1.517 -0.5065 -1.4738  0.9773
   29MOL0     H 3986   8.045  -0.079   2.971  0.4404 -0.0094 -1.7824
   29MOL0     H 3987   8.230   0.010   3.098 -0.7585  1.6922  1.2730
   29MOL0     H 3988   8.593   0.138   3.158 -0.9214  1.9259  4.7585
   29MOL0     H 3989   8.806   0.145   3.259  0.9364  0.4801  0.3757
   29MOL0     H 3990   8.952   0.232   3.400 -1.3310  0.2164  0.3136
   29MOL0     H 3991   9.057   0.178   3.275  0.3912 -0.4239  0.5414
   29MOL0     H 3992   9.237   0.263   3.348  0.1832  0.5076 -0.2655
   29MOL0     H 3993   9.165   0.244   3.506  0.5959  2.7742  2.0928
   29MOL0     H 3994   9.178   0.501   3.346 -3.3991  1.9002  0.8303
   29MOL0     H 3995   9.104   0.509   3.507  0.8453  4.2598 -0.6935
   29MOL0     H 3996   9.333   0.585   3.511 -0.1548  0.9765  0.3521
   29MOL0     H 3997   9.407   0.445   3.464 -1.7377 -0.6349 -3.9571
   29MOL0     H 3998   9.287   0.369   3.872 -0.2732 -2.6251 -0.2297
   29MOL0     H 3999   8.867   0.545   3.100  1.6191 -2.0791 -0.9838
   29MOL0     H 4000   8.618   0.519   2.865 -0.5775  1.3099 -0.2028
   29MOL0     H 4001   8.555   0.609   3.005  0.7207  0.1231  1.6611
   29MOL0     H 4002   8.721   0.633   2.940  2.5624 -2.6148 -0.3962
   30MOL0     O 4003   5.124   5.793   6.393  0.0767  0.2148  0.1766
   30MOL0     C 4004   5.109   5.678   6.377 -0.2098  0.6403 -0.6630
   30MOL0     O 4005   5.200   5.579   6.385  0.2947 -0.4944 -0.3064
   30MOL0     C 4006   5.321   5.607   6.427  0.1758 -0.4295  0.7494
   30MOL0     C 4007   5.348   5.601   6.559  0.5942 -0.3853  0.3437
   30MOL0     C 4008   5.481   5.614   6.607 -0.4013 -0.7653  0.4278
   30MOL0     C 4009   5.585   5.612   6.514 -0.2075  0.1432 -0.5087
   30MOL0     O 4010   5.721   5.601   6.535 -0.1977  0.3378  0.0844
   30MOL0     C 4011   5.755   5.580   6.670 -0.7639  0.3015 -0.3933
   30MOL0     C 4012   5.908   5.582   6.676 -0.5254 -0.0056 -0.1105
   30MOL0     C 4013   5.974   5.456   6.606  0.4070  0.3591  0.4675
   30MOL0     C 4014   6.128   5.452   6.605 -0.0308 -0.3446  0.0578
   30MOL0     C 4015   6.188   5.327   6.548 -0.0186  1.2591 -0.5707
   30MOL0     C 4016   6.323   5.368   6.488  0.7937  0.6667 -0.0696
   30MOL0     C 4017   6.402   5.259   6.436  0.9212  0.0354  0.4999
   30MOL0     C 4018   6.478   5.193   6.537  0.2481 -0.1702 -0.0189
   30MOL0     N 4019   6.577   5.114   6.464 -0.5429  0.7745 -0.1374
   30MOL0     C 4020   6.554   5.010   6.379 -1.0650  0.0580 -0.6110
   30MOL0     C 4021   6.666   4.988   6.309  0.3922  0.1579 -0.9184
   30MOL0     C 4022   6.708   4.871   6.231  0.1046 -0.0396 -1.2495
   30MOL0     C 4023   6.593   4.802   6.154  0.1475 -0.2833 -0.6092
   30MOL0     C 4024   6.549   4.885   6.032 -0.1336  0.4665 -0.1456
   30MOL0     C 4025   6.405   4.849   5.994  0.4129 -0.2119  0.2224
   30MOL0     O 4026   6.315   4.915   6.079  0.3072 -0.1470  0.2901
   30MOL0     C 4027   6.302   5.051   6.064  0.1898 -0.0893  0.1419
   30MOL0     C 4028   6.344   5.137   5.958 -0.5999 -0.0106 -0.4122
   30MOL0     C 4029   6.331   5.274   5.957 -1.1490  0.3221  0.5991
   30MOL0     C 4030   6.389   5.343   5.836  0.4007  0.2303 -0.1315
   30MOL0     C 4031   6.252   5.333   6.066 -1.3350  0.4503 -0.2807
   30MOL0     C 4032   6.243   5.480   6.087  0.5039  0.7257  0.4392
   30MOL0     O 4033   6.152   5.526   6.173  0.6676 -0.9405 -0.5575
   30MOL0     C 4034   6.132   5.665   6.202 -0.8976 -0.6624  0.3619
   30MOL0     C 4035   6.190   5.776   6.141  0.1394  0.0247  0.2777
   30MOL0     C 4036   6.170   5.912   6.173  0.6104 -0.3186 -0.8204
   30MOL0     C 4037   6.081   5.937   6.280  0.9163 -1.0999  0.0047
   30MOL0     O 4038   6.067   6.071   6.310  0.0974  0.5172 -1.3857
   30MOL0     C 4039   6.006   6.106   6.439  0.2935  0.1873  1.0853
   30MOL0     C 4040   5.860   6.149   6.426 -0.5588 -0.4422 -0.6510
   30MOL0     C 4041   5.771   6.074   6.328 -0.0635  0.0586  0.4405
   30MOL0     C 4042   5.627   6.132   6.318 -0.5319  0.1816 -0.5756
   30MOL0     C 4043   5.522   6.024   6.269  0.3753  0.1433  0.2021
   30MOL0     C 4044   5.380   6.056   6.289 -0.0290  0.4078 -0.0730
   30MOL0     C 4045   5.328   6.188   6.229 -0.3683  0.0680  0.4589
   30MOL0     C 4046   5.173   6.190   6.213  0.4885  0.0029  0.1930
   30MOL0    Cl 4047   5.129   6.344   6.131 -0.0754 -0.1055 -0.2168
   30MOL0     C 4048   6.015   5.825   6.339 -0.5567 -0.1432 -0.0921
   30MOL0     C 4049   6.044   5.693   6.300  0.7125  0.0803  0.5079
   30MOL0     O 4050   6.328   5.545   6.034 -0.5030 -0.3893 -0.7575
   30MOL0     C 4051   6.193   5.242   6.158  0.8580 -0.5193 -0.4804
   30MOL0     C 4052   6.222   5.105   6.166 -0.7957 -0.8319  0.1877
   30MOL0     N 4053   6.749   5.089   6.334 -0.2296 -0.2734 -0.5043
   30MOL0     N 4054   6.700   5.167   6.434  0.3606  1.2300  0.2709
   30MOL0     C 4055   5.553   5.628   6.377  1.0033  0.2390 -0.2061
   30MOL0     C 4056   5.426   5.621   6.332 -0.0607  0.0998  0.6682
   30MOL0     C 4057   4.968   5.649   6.345 -0.8045 -0.3524  0.6619
   30MOL0     C 4058   4.869   5.725   6.412 -0.0138  1.1018  0.5210
   30MOL0     C 4059   4.731   5.711   6.383 -0.2786 -0.6461 -0.3125
   30MOL0     C 4060   4.693   5.632   6.276  0.9874  0.1676 -0.4153
   30MOL0     O 4061   4.556   5.610   6.243 -0.2395  0.2273  0.1163
   30MOL0     C 4062   4.478   5.544   6.353  0.4787 -0.2216  0.6981
   30MOL0     C 4063   4.389   5.635   6.443  0.0833 -0.3407 -0.0644
   30MOL0     C 4064   4.265   5.698   6.370 -0.2964  0.7412 -0.4698
   30MOL0     C 4065   4.231   5.829   6.437  0.9113 -0.3580 -0.0874
   30MOL0     C 4066   4.335   5.935   6.411  0.6722  0.3516  0.0046
   30MOL0     C 4067   4.422   6.014   6.384 -0.1365 -0.8417 -0.6200
   30MOL0     C 4068   4.787   5.550   6.221  0.0528  0.2393 -0.1830
   30MOL0     C 4069   4.929   5.563   6.241  0.4942  0.1036  0.3099
   30MOL0     C 4070   5.006   5.484   6.142 -0.3533 -0.5209 -0.5055
   30MOL0     H 4071   5.262   5.597   6.625 -0.2025  0.0762 -0.6392
   30MOL0     H 4072   5.511   5.618   6.711  0.7705 -1.2650  0.1342
   30MOL0     H 4073   5.732   5.481   6.711  3.0934 -1.0298 -1.0492
   30MOL0     H 4074   5.710   5.664   6.723  0.7495  0.6633  0.3596
   30MOL0     H 4075   5.954   5.676   6.644  2.2484 -1.4182 -0.6100
   30MOL0     H 4076   5.924   5.580   6.784 -0.1299 -1.7396 -0.1681
   30MOL0     H 4077   5.934   5.360   6.640 -0.0849  0.6936  0.8404
   30MOL0     H 4078   5.947   5.466   6.500 -2.1481  1.0067  1.1131
   30MOL0     H 4079   6.174   5.533   6.548  0.3983 -2.6685 -3.1524
   30MOL0     H 4080   6.171   5.442   6.705  0.0859  1.4446  0.2312
   30MOL0     H 4081   6.113   5.292   6.476 -0.3676  1.8531 -0.5030
   30MOL0     H 4082   6.201   5.235   6.606 -1.1613 -0.6615 -3.1572
   30MOL0     H 4083   6.300   5.442   6.412 -0.3836  1.3978  0.9453
   30MOL0     H 4084   6.381   5.428   6.559  1.8040  1.8080 -1.8017
   30MOL0     H 4085   6.456   5.306   6.353 -1.9516 -2.1050 -2.8728
   30MOL0     H 4086   6.331   5.191   6.388 -0.8214  2.5680 -0.7145
   30MOL0     H 4087   6.524   5.263   6.607  0.3529 -0.6619  0.4140
   30MOL0     H 4088   6.420   5.121   6.595 -0.9837  2.5890  2.4557
   30MOL0     H 4089   6.462   4.952   6.388 -0.4338 -0.6273  5.1167
   30MOL0     H 4090   6.742   4.804   6.310  1.7385 -0.9552 -2.6476
   30MOL0     H 4091   6.793   4.896   6.166  0.4821 -0.5423 -0.9592
   30MOL0     H 4092   6.638   4.707   6.126  0.9427 -0.8335  2.2433
   30MOL0     H 4093   6.507   4.774   6.215 -1.9090 -1.1234 -3.6889
   30MOL0     H 4094   6.559   4.991   6.054 -0.4685  0.9220 -2.0017
   30MOL0     H 4095   6.612   4.852   5.949 -0.4353 -3.2252  0.9140
   30MOL0     H 4096   6.401   4.876   5.888  0.2638  2.4837  0.8622
   30MOL0     H 4097   6.388   4.742   6.015  2.0817 -0.0235  3.0632
   30MOL0     H 4098   6.401   5.086   5.881 -0.7951  1.4872 -1.6012
   30MOL0     H 4099   6.320   5.422   5.807  0.1186 -0.0908 -0.3543
   30MOL0     H 4100   6.408   5.277   5.751 -3.5322 -0.4913 -0.6371
   30MOL0     H 4101   6.483   5.390   5.868  0.6668 -1.6949  2.2801
   30MOL0     H 4102   6.248   5.759   6.051 -0.9990  1.0591 -0.6791
   30MOL0     H 4103   6.229   5.981   6.114 -1.7436  1.8983 -0.7500
   30MOL0     H 4104   6.031   6.035   6.518  0.3948 -2.6019 -1.2563
   30MOL0     H 4105   6.053   6.202   6.462  2.7182 -0.1558 -1.7841
   30MOL0     H 4106   5.816   6.169   6.525  1.0203  0.7408 -0.1312
   30MOL0     H 4107   5.849   6.245   6.375  1.6107 -2.2972 -5.0425
   30MOL0     H 4108   5.765   5.967   6.352  2.3823 -0.7083 -1.8266
   30MOL0     H 4109   5.803   6.075   6.224  0.2592 -4.1802  0.3248
   30MOL0     H 4110   5.626   6.207   6.238 -2.3051  1.4375  0.5616
   30MOL0     H 4111   5.604   6.185   6.410  1.9095  2.9276 -1.3864
   30MOL0     H 4112   5.546   6.007   6.163 -0.0378 -1.2347  0.3125
   30MOL0     H 4113   5.532   5.929   6.321 -0.3973 -2.6205 -4.1987
   30MOL0     H 4114   5.360   6.049   6.396 -1.1887 -0.8758 -0.3378
   30MOL0     H 4115   5.308   5.978   6.264  1.3142 -1.3305  1.2326
   30MOL0     H 4116   5.374   6.199   6.130 -0.9829 -0.4386  0.1113
   30MOL0     H 4117   5.353   6.280   6.284 -1.0352  0.5263  0.0101
   30MOL0     H 4118   5.117   6.180   6.306  1.3951  1.7014  0.9701
   30MOL0     H 4119   5.140   6.102   6.157  1.6087 -1.9698  2.4218
   30MOL0     H 4120   5.951   5.848   6.424  1.9695 -0.8884  2.1742
   30MOL0     H 4121   6.007   5.610   6.359  0.2299 -0.6076 -0.7332
   30MOL0     H 4122   6.123   5.281   6.232  0.1820  1.9818 -2.3009
   30MOL0     H 4123   6.183   5.034   6.238  0.3275 -0.4855  1.1796
   30MOL0     H 4124   5.638   5.645   6.311  0.3144 -0.2043 -1.2256
   30MOL0     H 4125   5.386   5.627   6.231  2.2650  1.8033 -0.2594
   30MOL0     H 4126   4.901   5.802   6.481  1.5294  2.2458 -1.3522
   30MOL0     H 4127   4.658   5.775   6.430 -1.8679 -1.3139 -1.7787
   30MOL0     H 4128   4.410   5.472   6.306 -0.2203  0.5223  0.5572
   30MOL0     H 4129   4.532   5.490   6.432 -1.9493 -2.0107  1.2594
   30MOL0     H 4130   4.448   5.713   6.491  0.3620  0.0852 -1.0733
   30MOL0     H 4131   4.352   5.575   6.527 -1.8412  1.9220  0.8021
   30MOL0     H 4132   4.290   5.697   6.263  0.2703  1.4363 -0.3573
   30MOL0     H 4133   4.181   5.630   6.386  1.6948 -1.8462 -0.4055
   30MOL0     H 4134   4.228   5.807   6.544 -2.1680 -0.9399 -0.1829
   30MOL0     H 4135   4.129   5.857   6.408  0.0457 -1.5956  1.5824
   30MOL0     H 4136   4.483   6.100   6.364 -2.0663  0.3840 -1.5549
   30MOL0     H 4137   4.756   5.468   6.157  0.6190  1.4931 -2.1443
   30MOL0     H 4138   5.114   5.502   6.146 -0.3373 -0.6585 -0.2921
   30MOL0     H 4139   4.986   5.381   6.171 -3.4150  0.4648  1.3251
   30MOL0     H 4140   4.973   5.518   6.043  1.0678  0.8903 -0.5496
   31MOL0     O 4141   8.511   3.734   9.510 -0.2136  0.0261  0.0125
   31MOL0     C 4142   8.400   3.788   9.492  0.6874  0.1404 -0.7342
   31MOL0     O 4143   8.285   3.742   9.563 -0.1671  0.0394 -0.4214
   31MOL0     C 4144   8.293   3.674   9.684 -0.1526 -0.2588  0.3687
   31MOL0     C 4145   8.194   3.570   9.696 -0.9464  0.2198  0.1742
   31MOL0     C 4146   8.186   3.490   9.812  0.3826 -0.5509  0.1894
   31MOL0     C 4147   8.277   3.509   9.922  0.5854 -0.2478 -0.9726
   31MOL0     O 4148   8.284   3.442  10.041 -0.5167 -0.4761 -0.0649
   31MOL0     C 4149   8.163   3.381  10.081  0.0416 -0.5502 -0.5886
   31MOL0     C 4150   8.196   3.312  10.207 -0.3630  0.6753  0.3304
   31MOL0     C 4151   8.079   3.231  10.268 -0.1010 -0.8026 -1.0289
   31MOL0     C 4152   8.119   3.205  10.414 -0.3213  0.5578  0.4231
   31MOL0     C 4153   8.113   3.327  10.517 -0.2367 -0.2649 -0.1781
   31MOL0     C 4154   8.217   3.327  10.629  0.2442  0.3399 -0.0738
   31MOL0     C 4155   8.186   3.195  10.717 -0.8784 -0.4739  0.0435
   31MOL0     C 4156   8.277   3.194  10.839  0.4924 -0.5076 -0.5802
   31MOL0     N 4157   8.210   3.260  10.947 -0.4285 -0.1699 -0.6578
   31MOL0     C 4158   8.128   3.197  11.039 -0.4177  0.0009  0.3503
   31MOL0     C 4159   8.106   3.294  11.125  0.3636  0.1836  0.0978
   31MOL0     C 4160   8.047   3.278  11.263  0.6554 -0.1556  0.7623
   31MOL0     C 4161   8.141   3.274  11.373  0.2568 -0.1732 -0.4249
   31MOL0     C 4162   8.254   3.163  11.366  0.2011 -0.2889  0.3371
   31MOL0     C 4163   8.316   3.168  11.500 -0.2565  0.7998 -0.2416
   31MOL0     O 4164   8.393   3.286  11.536  0.4146  0.1815  0.6642
   31MOL0     C 4165   8.479   3.269  11.638  0.3909 -0.2251  0.9305
   31MOL0     C 4166   8.581   3.370  11.643  0.2350  0.2745  0.0196
   31MOL0     C 4167   8.685   3.371  11.738  0.3989 -0.0891 -0.1986
   31MOL0     C 4168   8.790   3.482  11.706  0.0088  1.1518 -0.0965
   31MOL0     C 4169   8.694   3.272  11.839  0.0708 -0.0263  0.2931
   31MOL0     C 4170   8.793   3.273  11.948  0.7381 -0.5020  0.4869
   31MOL0     O 4171   8.751   3.201  12.057 -0.9270  0.1294  0.4576
   31MOL0     C 4172   8.829   3.157  12.158  0.9449  0.1261  0.1659
   31MOL0     C 4173   8.758   3.104  12.258  0.1109  0.5961 -0.3181
   31MOL0     C 4174   8.824   3.061  12.380  0.1738  0.4168  0.2788
   31MOL0     C 4175   8.962   3.081  12.390  0.4495 -0.3459 -0.6796
   31MOL0     O 4176   9.011   3.066  12.514  0.3939  0.0724 -0.9441
   31MOL0     C 4177   9.150   3.039  12.537  0.0002 -0.0521  0.5784
   31MOL0     C 4178   9.173   2.974  12.670  0.2474  0.7975 -0.3426
   31MOL0     C 4179   9.322   2.958  12.699 -0.7814 -0.8431 -0.4742
   31MOL0     C 4180   9.349   2.889  12.834  0.2850  0.2733  0.6731
   31MOL0     C 4181   9.490   2.834  12.861  0.4080  0.6917 -0.0431
   31MOL0     C 4182   9.592   2.943  12.857 -0.7162 -0.6797 -0.6864
   31MOL0     C 4183   9.718   2.909  12.942  0.5745 -0.1750  0.2755
   31MOL0     C 4184   9.844   2.991  12.936 -0.6758  0.0589 -0.5099
   31MOL0    Cl 4185   9.969   2.898  13.010  0.2448 -0.1709  0.2241
   31MOL0     C 4186   9.037   3.119  12.287  0.3934  0.7485  0.3123
   31MOL0     C 4187   8.967   3.157  12.166 -0.5167  0.6557 -0.3065
   31MOL0     O 4188   8.903   3.300  11.923 -0.3591 -0.2816  0.3797
   31MOL0     C 4189   8.595   3.169  11.823  0.5548  0.7072 -0.2900
   31MOL0     C 4190   8.485   3.168  11.726 -0.3394  0.0989 -0.3934
   31MOL0     N 4191   8.174   3.409  11.090 -0.0984 -0.4168 -0.0807
   31MOL0     N 4192   8.236   3.390  10.977 -0.6545  1.0610  0.1107
   31MOL0     C 4193   8.370   3.611   9.900  0.0970 -0.2651 -0.5988
   31MOL0     C 4194   8.379   3.696   9.791  0.1022  0.4068  0.1117
   31MOL0     C 4195   8.388   3.906   9.396 -0.5345  0.8158 -0.1662
   31MOL0     C 4196   8.501   3.931   9.310  0.5554  0.2959  0.3068
   31MOL0     C 4197   8.494   4.005   9.194 -0.2021  0.6914  0.6348
   31MOL0     C 4198   8.373   4.062   9.165 -0.4498 -0.6241 -0.4144
   31MOL0     O 4199   8.388   4.141   9.054  0.2275  0.0169  0.5335
   31MOL0     C 4200   8.274   4.167   8.968  0.7693  0.6369 -0.8793
   31MOL0     C 4201   8.289   4.058   8.851 -0.1684  0.0257 -0.8797
   31MOL0     C 4202   8.398   4.073   8.749 -0.0818  0.9078  0.3237
   31MOL0     C 4203   8.394   4.200   8.668 -0.5145 -0.3173  0.8509
   31MOL0     C 4204   8.266   4.201   8.582  0.1404  0.0672 -0.5035
   31MOL0     C 4205   8.148   4.208   8.531 -0.3378 -0.6327  0.8913
   31MOL0     C 4206   8.257   4.036   9.238 -0.7455  0.0057  0.2936
   31MOL0     C 4207   8.264   3.962   9.357 -0.0541  0.8197  0.3103
   31MOL0     C 4208   8.133   3.938   9.431 -0.6789  0.1953  0.0605
   31MOL0     H 4209   8.120   3.566   9.617 -1.2298  3.7330  0.1394
   31MOL0     H 4210   8.116   3.407   9.827  2.5625 -2.8103 -1.3849
   31MOL0     H 4211   8.140   3.309  10.002  1.5496 -2.6039  0.7606
   31MOL0     H 4212   8.085   3.457  10.090  0.8382  0.5445 -2.3918
   31MOL0     H 4213   8.269   3.232  10.193 -0.5326  0.5858 -0.0629
   31MOL0     H 4214   8.249   3.380  10.274  0.2514  1.4533 -0.9108
   31MOL0     H 4215   7.985   3.287  10.257 -1.1735 -2.2914  0.1002
   31MOL0     H 4216   8.067   3.134  10.221  1.8505 -1.9725  0.6893
   31MOL0     H 4217   8.072   3.116  10.459 -0.9713  1.8700  2.4931
   31MOL0     H 4218   8.224   3.173  10.411  0.0573  1.6184  1.5066
   31MOL0     H 4219   8.012   3.340  10.557 -0.2082  2.7197 -0.8423
   31MOL0     H 4220   8.118   3.421  10.461  0.1809  0.5425  1.1426
   31MOL0     H 4221   8.316   3.336  10.584  0.1089  2.3209 -0.0717
   31MOL0     H 4222   8.212   3.412  10.698 -1.5056  0.7413 -0.6570
   31MOL0     H 4223   8.223   3.117  10.650  1.2676  0.9391 -0.5162
   31MOL0     H 4224   8.079   3.184  10.733 -1.0745  1.2620  0.0535
   31MOL0     H 4225   8.296   3.093  10.876  0.7743 -0.2506 -0.0062
   31MOL0     H 4226   8.377   3.234  10.819  1.1716 -2.4578 -1.2775
   31MOL0     H 4227   8.090   3.095  11.037  2.8741 -1.3921 -1.9601
   31MOL0     H 4228   7.983   3.189  11.262 -2.7624  2.1134  0.0333
   31MOL0     H 4229   7.981   3.362  11.286 -0.1661 -0.5901  0.0566
   31MOL0     H 4230   8.188   3.371  11.389 -1.6579  0.2707  4.2298
   31MOL0     H 4231   8.081   3.253  11.462 -1.5347  0.3130 -1.4614
   31MOL0     H 4232   8.208   3.067  11.343  0.3382 -0.4137  0.5769
   31MOL0     H 4233   8.317   3.192  11.281 -0.8518  1.0653  0.0011
   31MOL0     H 4234   8.239   3.147  11.575  1.0345  4.0190  2.2567
   31MOL0     H 4235   8.387   3.085  11.501 -1.2753 -0.0934  0.8593
   31MOL0     H 4236   8.570   3.455  11.577 -0.0217  0.3075  0.1044
   31MOL0     H 4237   8.811   3.539  11.798 -0.1436  2.3636 -0.7885
   31MOL0     H 4238   8.762   3.555  11.629 -0.6040  0.0666 -0.9310
   31MOL0     H 4239   8.883   3.439  11.669 -0.7903 -0.6830 -0.0438
   31MOL0     H 4240   8.652   3.099  12.235 -0.3094  2.1608  1.0860
   31MOL0     H 4241   8.775   3.018  12.467 -1.1872 -0.2380 -0.7894
   31MOL0     H 4242   9.182   2.970  12.458 -2.4520 -0.3099 -0.2742
   31MOL0     H 4243   9.218   3.124  12.532  3.3793 -2.4863  1.2937
   31MOL0     H 4244   9.129   3.042  12.743  3.2233  3.6297 -0.9216
   31MOL0     H 4245   9.127   2.875  12.672  2.9954 -0.6676 -2.4161
   31MOL0     H 4246   9.365   3.059  12.701 -0.8972 -0.8079  1.0990
   31MOL0     H 4247   9.370   2.912  12.612 -1.0165  2.0380 -2.2626
   31MOL0     H 4248   9.289   2.797  12.825  0.4207  0.0701  1.7920
   31MOL0     H 4249   9.318   2.953  12.917 -1.6718 -0.2006  0.3571
   31MOL0     H 4250   9.487   2.779  12.955 -1.6515  1.2606  0.2871
   31MOL0     H 4251   9.521   2.778  12.772  3.8178  1.6480  0.4186
   31MOL0     H 4252   9.552   3.023  12.920 -2.6498 -0.2608 -2.3361
   31MOL0     H 4253   9.621   2.982  12.759  3.5436 -0.1598  0.5778
   31MOL0     H 4254   9.742   2.811  12.901 -0.2652  0.8128 -2.8184
   31MOL0     H 4255   9.696   2.904  13.049 -0.9714  0.0338 -0.0152
   31MOL0     H 4256   9.823   3.078  12.999  0.1511  0.1926 -0.4036
   31MOL0     H 4257   9.867   3.025  12.835 -2.0828  0.3658 -0.7517
   31MOL0     H 4258   9.144   3.139  12.291  0.4574  0.3666  0.5535
   31MOL0     H 4259   9.037   3.191  12.090  1.9555 -1.0571  1.0354
   31MOL0     H 4260   8.605   3.094  11.900 -1.9370  1.0864  0.5225
   31MOL0     H 4261   8.414   3.087  11.725 -0.4303  0.1405 -2.3995
   31MOL0     H 4262   8.449   3.635   9.970 -0.4734 -0.2077  0.0353
   31MOL0     H 4263   8.453   3.776   9.789  0.0967  0.4707  1.7145
   31MOL0     H 4264   8.594   3.877   9.323  2.0472  2.0785 -2.0879
   31MOL0     H 4265   8.580   4.019   9.130  0.1207 -2.0777  0.3316
   31MOL0     H 4266   8.182   4.159   9.028  1.4558  1.9038  0.3971
   31MOL0     H 4267   8.286   4.268   8.929  0.3048  0.4127 -1.6245
   31MOL0     H 4268   8.193   4.078   8.801  1.9440  3.9721 -3.9396
   31MOL0     H 4269   8.287   3.964   8.906  1.2420  1.2614  1.4553
   31MOL0     H 4270   8.495   4.079   8.799 -0.5061  1.3296  1.1159
   31MOL0     H 4271   8.395   3.991   8.676 -1.9670 -0.3613  1.7479
   31MOL0     H 4272   8.484   4.194   8.605  0.4226  1.2716  1.9535
   31MOL0     H 4273   8.404   4.296   8.719 -0.2467 -0.7870  1.6957
   31MOL0     H 4274   8.050   4.217   8.489  0.8635 -1.5487 -2.3603
   31MOL0     H 4275   8.160   4.080   9.219 -2.0458 -2.3735  0.9211
   31MOL0     H 4276   8.110   3.836   9.463 -0.0185  0.5906  1.9018
   31MOL0     H 4277   8.141   4.003   9.519 -3.7189 -0.8564  1.2771
   31MOL0     H 4278   8.045   3.965   9.371 -1.3019 -1.6529  0.0571
   32MOL0     O 4279  10.116   3.493   4.881  0.1820  0.5679  0.5285
   32MOL0     C 4280  10.029   3.412   4.920 -0.4469  1.5582 -0.2000
   32MOL0     O 4281  10.055   3.290   4.984 -0.5301  0.2701 -0.1408
   32MOL0     C 4282  10.182   3.250   4.977  0.0628 -0.0026 -0.2386
   32MOL0     C 4283  10.251   3.242   4.858 -0.2347  0.3738  0.4103
   32MOL0     C 4284  10.381   3.183   4.858 -0.4742 -1.0845  0.0204
   32MOL0     C 4285  10.440   3.143   4.974 -0.1586 -0.3551 -0.2529
   32MOL0     O 4286  10.572   3.106   4.967  0.5313 -0.1118 -0.4951
   32MOL0     C 4287  10.657   3.204   5.025  0.3279 -0.5778  0.5029
   32MOL0     C 4288  10.776   3.132   5.085  0.6680  0.2688  0.3651
   32MOL0     C 4289  10.864   3.059   4.992 -0.6374  0.6853  0.8514
   32MOL0     C 4290  10.911   3.154   4.869  0.8096 -0.5134 -0.4639
   32MOL0     C 4291  11.008   3.083   4.776  0.0289  0.1334 -0.6153
   32MOL0     C 4292  11.154   3.111   4.822 -0.9346 -0.5695 -0.6866
   32MOL0     C 4293  11.247   3.071   4.712 -0.3204  0.0882  0.4790
   32MOL0     C 4294  11.390   3.115   4.750  0.3845 -0.2318  0.5442
   32MOL0     N 4295  11.483   3.086   4.640  0.5267 -0.2886  0.4494
   32MOL0     C 4296  11.509   2.964   4.592 -0.1077 -0.2181  0.5464
   32MOL0     C 4297  11.607   2.981   4.496  0.1145  0.5202  0.7323
   32MOL0     C 4298  11.665   2.871   4.406 -0.0556 -0.5589 -0.6273
   32MOL0     C 4299  11.559   2.798   4.329 -0.3984 -0.5647 -0.4812
   32MOL0     C 4300  11.592   2.776   4.187 -0.3800  0.5737 -0.1669
   32MOL0     C 4301  11.477   2.737   4.101  0.2174  0.3321 -0.0017
   32MOL0     O 4302  11.381   2.654   4.177 -0.1949  0.0860 -0.3458
   32MOL0     C 4303  11.254   2.694   4.160  0.2413 -0.0248 -1.2713
   32MOL0     C 4304  11.197   2.706   4.036  0.2853  0.4758 -0.1638
   32MOL0     C 4305  11.060   2.727   4.016  0.1635 -0.1466 -0.0150
   32MOL0     C 4306  11.014   2.751   3.874 -0.0883  0.1432  0.5360
   32MOL0     C 4307  10.969   2.736   4.127  0.6060  0.5978  1.1833
   32MOL0     C 4308  10.816   2.750   4.118  0.7097 -0.3848 -0.6461
   32MOL0     O 4309  10.781   2.875   4.084 -0.3866  0.0389 -1.3267
   32MOL0     C 4310  10.653   2.920   4.097 -0.5776  0.1493 -0.6884
   32MOL0     C 4311  10.548   2.848   4.041 -0.1584  0.1669 -0.1115
   32MOL0     C 4312  10.420   2.903   4.043 -0.0493  1.7120 -0.1969
   32MOL0     C 4313  10.393   3.028   4.093  0.7129  0.0306 -0.3211
   32MOL0     O 4314  10.272   3.085   4.060 -0.0041 -0.1219  0.5673
   32MOL0     C 4315  10.265   3.233   4.073 -0.5092  0.0412  0.2387
   32MOL0     C 4316  10.134   3.264   4.006 -0.8314  0.5987 -1.0466
   32MOL0     C 4317  10.014   3.204   4.079 -0.6444  0.3422  1.0370
   32MOL0     C 4318   9.882   3.219   4.004  0.1806  0.2164 -0.8906
   32MOL0     C 4319   9.784   3.311   4.071  0.1291  0.2116 -0.5510
   32MOL0     C 4320   9.669   3.361   3.976  0.5508  0.9827 -0.5117
   32MOL0     C 4321   9.553   3.425   4.058  0.5581  0.0517  0.0077
   32MOL0     C 4322   9.600   3.520   4.155  0.3087  0.3906 -0.4518
   32MOL0    Cl 4323   9.681   3.666   4.078  0.0961  0.4168  0.1434
   32MOL0     C 4324  10.497   3.089   4.168  0.6577 -0.3011 -0.7619
   32MOL0     C 4325  10.621   3.036   4.173 -0.6061 -0.1427  0.0630
   32MOL0     O 4326  10.737   2.652   4.126 -0.2854  0.6076  0.3853
   32MOL0     C 4327  11.029   2.727   4.256  0.3555  0.3299  0.4000
   32MOL0     C 4328  11.164   2.712   4.267 -0.1962 -0.4472 -0.6992
   32MOL0     N 4329  11.645   3.114   4.500 -0.2450  0.7220  0.5568
   32MOL0     N 4330  11.571   3.176   4.579  0.1485 -0.1518 -0.0140
   32MOL0     C 4331  10.361   3.149   5.100 -0.0889  0.4627  0.4494
   32MOL0     C 4332  10.237   3.203   5.092  0.0048  0.2027  0.0921
   32MOL0     C 4333   9.885   3.429   4.895 -1.2438 -0.7883  0.4563
   32MOL0     C 4334   9.794   3.363   4.980 -0.7893  0.2295  0.0135
   32MOL0     C 4335   9.660   3.392   4.981 -0.4150 -0.0584  0.9777
   32MOL0     C 4336   9.606   3.491   4.897 -0.1524 -0.1800 -0.3886
   32MOL0     O 4337   9.465   3.499   4.921 -0.5032 -0.8792  0.7371
   32MOL0     C 4338   9.394   3.559   4.819 -0.2592 -0.0947 -0.2284
   32MOL0     C 4339   9.258   3.616   4.866  0.4624  0.6562  0.3623
   32MOL0     C 4340   9.249   3.660   5.006 -0.0855  0.4321 -0.7054
   32MOL0     C 4341   9.176   3.793   5.015  0.0388 -1.0039 -0.1530
   32MOL0     C 4342   9.034   3.773   5.009  0.1961  0.0333  1.0535
   32MOL0     C 4343   8.912   3.754   5.019 -0.6301  0.3615  0.2296
   32MOL0     C 4344   9.696   3.546   4.800 -0.1348  0.6270 -0.9812
   32MOL0     C 4345   9.835   3.518   4.799  0.2773  0.3277 -0.5617
   32MOL0     C 4346   9.913   3.569   4.682 -0.1671  0.0874 -0.2134
   32MOL0     H 4347  10.196   3.287   4.776  0.2281  0.6421  0.2446
   32MOL0     H 4348  10.440   3.185   4.767 -2.0573  1.9029 -1.0773
   32MOL0     H 4349  10.609   3.264   5.104 -1.3502 -1.4249  0.1736
   32MOL0     H 4350  10.683   3.276   4.947 -1.1307 -1.4974 -0.9045
   32MOL0     H 4351  10.846   3.201   5.133  0.5709  0.6477 -0.0334
   32MOL0     H 4352  10.735   3.064   5.161 -1.1784  2.1188  1.1131
   32MOL0     H 4353  10.949   3.024   5.051  0.2620 -1.0648 -1.3217
   32MOL0     H 4354  10.818   2.966   4.958  1.5881  0.5022 -2.0363
   32MOL0     H 4355  10.827   3.176   4.803  0.7290 -0.2133 -0.2632
   32MOL0     H 4356  10.962   3.245   4.900  3.5649 -1.9777 -0.3595
   32MOL0     H 4357  11.003   3.129   4.677  0.9038  0.1394 -0.6690
   32MOL0     H 4358  10.983   2.977   4.767  2.1402 -0.2966 -2.3172
   32MOL0     H 4359  11.156   3.219   4.837  2.6639 -0.4950 -0.9340
   32MOL0     H 4360  11.176   3.054   4.913  2.6398 -0.3113 -1.2277
   32MOL0     H 4361  11.217   3.120   4.619 -2.9041 -1.5973  0.3340
   32MOL0     H 4362  11.248   2.971   4.669  1.9507  0.8066 -1.3410
   32MOL0     H 4363  11.390   3.220   4.783  0.4163 -0.5460  1.6068
   32MOL0     H 4364  11.420   3.056   4.838 -0.6209 -1.2851  0.2048
   32MOL0     H 4365  11.460   2.871   4.618  0.8245 -0.3375  1.9732
   32MOL0     H 4366  11.732   2.797   4.451  1.3547  1.9737  1.7379
   32MOL0     H 4367  11.731   2.930   4.342  0.2794  2.7380  2.4621
   32MOL0     H 4368  11.547   2.704   4.384 -2.9743 -0.4617 -0.7293
   32MOL0     H 4369  11.462   2.849   4.336  0.0560  0.1338  1.0467
   32MOL0     H 4370  11.651   2.856   4.141 -2.5370  0.9780 -2.4135
   32MOL0     H 4371  11.658   2.688   4.184 -0.2354  0.6784 -0.0827
   32MOL0     H 4372  11.437   2.832   4.063  1.5938  0.0751 -2.2958
   32MOL0     H 4373  11.499   2.682   4.009  0.3565 -0.9573  0.7827
   32MOL0     H 4374  11.255   2.700   3.944 -0.5599  1.8705 -0.8268
   32MOL0     H 4375  10.935   2.826   3.868  0.7226  1.0060  0.3386
   32MOL0     H 4376  10.983   2.653   3.835  0.8896 -0.8605  2.1592
   32MOL0     H 4377  11.091   2.785   3.804 -1.7190 -0.7900 -1.8359
   32MOL0     H 4378  10.567   2.751   3.995 -0.7924 -1.9633  3.7251
   32MOL0     H 4379  10.331   2.855   4.004 -0.9489  1.3482  2.1423
   32MOL0     H 4380  10.253   3.265   4.177 -0.4471 -2.6365  1.1339
   32MOL0     H 4381  10.344   3.284   4.017 -1.2541 -0.6040 -1.4758
   32MOL0     H 4382  10.126   3.373   4.001 -0.9750  0.5968 -0.8729
   32MOL0     H 4383  10.144   3.233   3.901  0.5098 -0.9835 -0.4750
   32MOL0     H 4384  10.003   3.229   4.185 -0.3152 -2.4891  1.8151
   32MOL0     H 4385  10.044   3.099   4.081 -1.7670 -0.0226  3.5709
   32MOL0     H 4386   9.836   3.122   3.985 -2.2326  0.7742  1.4057
   32MOL0     H 4387   9.898   3.261   3.905 -1.6662  4.0580  0.2219
   32MOL0     H 4388   9.738   3.261   4.157  0.6658 -3.5616 -2.2551
   32MOL0     H 4389   9.853   3.385   4.114  1.6734 -2.3462  1.7365
   32MOL0     H 4390   9.626   3.279   3.918 -0.5024  0.9910  0.2304
   32MOL0     H 4391   9.710   3.436   3.908  0.2665  1.1648 -0.4814
   32MOL0     H 4392   9.514   3.339   4.112  1.6565  1.2302  2.9005
   32MOL0     H 4393   9.477   3.463   3.990 -1.6834 -5.0572 -0.8082
   32MOL0     H 4394   9.680   3.484   4.219  1.9053  1.7470 -1.5965
   32MOL0     H 4395   9.513   3.549   4.214  0.4700  0.6382 -0.3379
   32MOL0     H 4396  10.478   3.185   4.214  0.6434 -0.0532 -1.2793
   32MOL0     H 4397  10.702   3.088   4.224  0.0120  0.6661 -1.6697
   32MOL0     H 4398  10.973   2.742   4.347 -0.0572  0.9757  0.0482
   32MOL0     H 4399  11.190   2.694   4.371  2.0007  0.8837 -0.9479
   32MOL0     H 4400  10.407   3.098   5.184  2.7295 -1.9032 -2.2753
   32MOL0     H 4401  10.158   3.186   5.165 -2.2382 -2.4634 -2.6862
   32MOL0     H 4402   9.820   3.292   5.058 -3.4437  2.4289  3.1733
   32MOL0     H 4403   9.593   3.346   5.052  0.4928 -0.9011  1.3126
   32MOL0     H 4404   9.459   3.641   4.787  2.9697 -1.7217  1.6238
   32MOL0     H 4405   9.384   3.487   4.737 -1.1486 -1.7925  1.2903
   32MOL0     H 4406   9.192   3.531   4.847  0.4129  0.9390 -0.7989
   32MOL0     H 4407   9.228   3.684   4.786 -3.2848 -1.6700 -0.4740
   32MOL0     H 4408   9.202   3.579   5.062  0.0749  0.9849  0.2518
   32MOL0     H 4409   9.347   3.682   5.049  0.0877  0.6387 -1.1952
   32MOL0     H 4410   9.202   3.855   4.928  0.2042 -1.5688 -0.5148
   32MOL0     H 4411   9.206   3.841   5.108  4.4103 -0.9782 -1.3129
   32MOL0     H 4412   8.807   3.753   5.037 -0.8969 -0.0866 -1.2488
   32MOL0     H 4413   9.658   3.621   4.732 -1.4573  1.7328  0.8871
   32MOL0     H 4414   9.979   3.494   4.637 -2.4634 -1.7445 -0.7346
   32MOL0     H 4415   9.838   3.596   4.608  0.1934 -1.0811 -1.0367
   32MOL0     H 4416   9.962   3.662   4.712 -2.3241  1.2920 -0.1968
   33MOL0     O 4417   2.305   4.360   4.097 -0.1105 -0.1710  0.3246
   33MOL0     C 4418   2.385   4.431   4.156 -0.5793  0.2024  0.7761
   33MOL0     O 4419   2.498   4.490   4.095 -0.0880  0.4026  0.3862
   33MOL0     C 4420   2.515   4.506   3.957 -0.4507 -0.0422 -0.8736
   33MOL0     C 4421   2.654   4.521   3.933 -0.1944 -0.4626 -0.6607
   33MOL0     C 4422   2.704   4.533   3.799 -0.5933 -0.8958 -0.2406
   33MOL0     C 4423   2.617   4.527   3.692 -0.3444 -0.7706 -0.0451
   33MOL0     O 4424   2.672   4.533   3.561 -0.1220  0.7668 -0.2548
   33MOL0     C 4425   2.698   4.662   3.516  0.3973 -0.5369 -0.1938
   33MOL0     C 4426   2.743   4.655   3.369  0.7159  0.4127 -0.2316
   33MOL0     C 4427   2.718   4.796   3.323 -0.6406  1.1570  0.6167
   33MOL0     C 4428   2.777   4.794   3.176 -0.2207 -0.0341  0.7852
   33MOL0     C 4429   2.839   4.925   3.119 -0.6295 -0.2158  0.4782
   33MOL0     C 4430   2.859   4.929   2.966  0.3587 -0.0858 -0.7040
   33MOL0     C 4431   2.929   5.059   2.921  0.2525 -1.2768  0.2502
   33MOL0     C 4432   2.898   5.092   2.774  0.4267 -0.8125 -1.0793
   33MOL0     N 4433   2.965   5.003   2.679 -1.0094 -0.2212 -0.0078
   33MOL0     C 4434   3.050   5.044   2.576 -0.2752  1.0105 -0.6863
   33MOL0     C 4435   3.090   4.924   2.522 -0.2022 -0.0443  0.7147
   33MOL0     C 4436   3.194   4.905   2.412  0.3848 -0.0770 -0.2159
   33MOL0     C 4437   3.153   4.963   2.274 -0.0702 -1.0867  0.2892
   33MOL0     C 4438   3.243   4.892   2.183  0.5152  0.0235 -0.0848
   33MOL0     C 4439   3.204   4.930   2.043 -0.0455 -0.3395 -0.7569
   33MOL0     O 4440   3.240   5.066   2.023 -0.2083 -0.7183  0.1890
   33MOL0     C 4441   3.201   5.118   1.906  0.1060 -0.7779  0.3954
   33MOL0     C 4442   3.071   5.171   1.889  0.8110  0.2859 -0.8830
   33MOL0     C 4443   3.031   5.232   1.766 -0.5253 -0.5358  0.6553
   33MOL0     C 4444   2.881   5.264   1.771  0.2964  0.3875 -0.6443
   33MOL0     C 4445   3.119   5.233   1.656 -0.2243 -0.4613 -0.1094
   33MOL0     C 4446   3.088   5.289   1.521  0.3061  0.5035  1.0563
   33MOL0     O 4447   3.193   5.281   1.437  1.2143 -0.0175  1.7599
   33MOL0     C 4448   3.185   5.362   1.323  0.7305 -0.3128  0.1406
   33MOL0     C 4449   3.085   5.346   1.224 -0.3349  0.2052 -0.0295
   33MOL0     C 4450   3.067   5.433   1.114  0.0433  0.5408 -0.9662
   33MOL0     C 4451   3.172   5.523   1.085 -0.6355  1.3104 -0.9397
   33MOL0     O 4452   3.191   5.587   0.964  0.4072  0.2953 -0.0480
   33MOL0     C 4453   3.103   5.557   0.853 -0.2226 -0.3901 -0.9241
   33MOL0     C 4454   3.154   5.583   0.707  1.5234  0.3737 -0.1673
   33MOL0     C 4455   3.287   5.512   0.661 -0.1004  0.0327 -0.5974
   33MOL0     C 4456   3.319   5.545   0.511  0.1399  0.2616  0.6163
   33MOL0     C 4457   3.373   5.672   0.481 -0.1197 -0.4591  0.1004
   33MOL0     C 4458   3.524   5.689   0.528  0.4825 -0.1886 -0.5557
   33MOL0     C 4459   3.599   5.825   0.503  0.7928 -0.1194  0.5100
   33MOL0     C 4460   3.650   5.831   0.357 -0.7156 -0.7577  0.2569
   33MOL0    Cl 4461   3.764   5.697   0.311  0.4561 -0.3514  0.5172
   33MOL0     C 4462   3.279   5.532   1.181 -0.2270  0.4416 -0.8053
   33MOL0     C 4463   3.275   5.461   1.299  0.0635  0.2613  0.0922
   33MOL0     O 4464   2.978   5.337   1.497 -0.3994 -0.5642  0.6132
   33MOL0     C 4465   3.256   5.199   1.683 -0.1452 -0.0802 -0.2665
   33MOL0     C 4466   3.298   5.135   1.801 -0.8325  0.2681 -1.1757
   33MOL0     N 4467   3.027   4.816   2.590  1.0773  0.0274  0.4018
   33MOL0     N 4468   2.952   4.874   2.681  0.8151  0.3091  0.7337
   33MOL0     C 4469   2.482   4.513   3.717 -0.0489 -0.1970 -0.1266
   33MOL0     C 4470   2.433   4.489   3.853  0.6311  0.5090  0.4357
   33MOL0     C 4471   2.355   4.458   4.294 -0.1295 -0.1095 -0.4123
   33MOL0     C 4472   2.312   4.355   4.368 -0.2926 -0.0465  0.2078
   33MOL0     C 4473   2.287   4.367   4.504 -0.2447 -0.1051 -0.2727
   33MOL0     C 4474   2.305   4.489   4.560  0.1253 -0.5136 -0.2798
   33MOL0     O 4475   2.287   4.520   4.695 -0.2830 -0.0325  0.3608
   33MOL0     C 4476   2.213   4.441   4.795  0.6839 -0.5804 -0.0060
   33MOL0     C 4477   2.065   4.440   4.768 -0.2987  0.2031  0.6840
   33MOL0     C 4478   2.003   4.309   4.813 -0.9613  0.7082  0.6059
   33MOL0     C 4479   2.009   4.287   4.967 -0.1586 -0.8078 -0.5371
   33MOL0     C 4480   1.979   4.148   5.004  0.1462 -0.4812  0.4781
   33MOL0     C 4481   1.924   4.041   5.022  0.0359 -0.1532  0.3676
   33MOL0     C 4482   2.355   4.598   4.488  0.2052 -0.6669 -0.7705
   33MOL0     C 4483   2.381   4.584   4.348  0.2297  0.2541 -0.4890
   33MOL0     C 4484   2.418   4.708   4.267  1.2916 -0.1852  0.5507
   33MOL0     H 4485   2.721   4.518   4.018  3.0286 -1.3186 -3.0228
   33MOL0     H 4486   2.808   4.539   3.771  0.1233  1.3456  2.5133
   33MOL0     H 4487   2.786   4.700   3.569 -1.5422 -0.3142  3.2119
   33MOL0     H 4488   2.616   4.728   3.548 -1.8140 -3.1252 -0.1962
   33MOL0     H 4489   2.848   4.624   3.370  1.3585  2.3753  1.5038
   33MOL0     H 4490   2.673   4.585   3.322 -0.7256  1.7758 -0.1951
   33MOL0     H 4491   2.609   4.811   3.320 -1.5764 -3.4066 -4.4484
   33MOL0     H 4492   2.777   4.868   3.380  4.7656  0.4556 -3.3366
   33MOL0     H 4493   2.845   4.713   3.149 -1.7035 -1.0875  0.0135
   33MOL0     H 4494   2.688   4.771   3.116  0.8677  0.5479 -1.1479
   33MOL0     H 4495   2.937   4.938   3.166 -0.7460  2.0983  0.1931
   33MOL0     H 4496   2.778   5.011   3.146 -1.1004  0.3890 -2.2384
   33MOL0     H 4497   2.932   4.851   2.943  0.5360  0.0786 -0.7013
   33MOL0     H 4498   2.764   4.913   2.914  0.1010  0.7175 -0.4912
   33MOL0     H 4499   3.035   5.056   2.948 -0.2145  0.1526  2.4766
   33MOL0     H 4500   2.888   5.140   2.981  1.5853 -0.4757  0.1332
   33MOL0     H 4501   2.793   5.119   2.759  0.1660 -1.3018 -0.2024
   33MOL0     H 4502   2.945   5.188   2.748  0.7541 -0.8136 -0.5322
   33MOL0     H 4503   3.073   5.146   2.547  1.6108  0.8998  0.2676
   33MOL0     H 4504   3.212   4.797   2.409 -1.5151 -0.6724  3.5733
   33MOL0     H 4505   3.290   4.947   2.444  0.3673 -0.8972  0.9603
   33MOL0     H 4506   3.051   4.933   2.248  0.8363 -3.1211 -1.1752
   33MOL0     H 4507   3.155   5.071   2.259 -1.9761 -0.8149  1.5951
   33MOL0     H 4508   3.351   4.907   2.188  0.9998 -3.1378  2.1093
   33MOL0     H 4509   3.244   4.783   2.187  0.8920 -0.0473 -1.4924
   33MOL0     H 4510   3.271   4.880   1.973  2.4588  0.7103  0.7607
   33MOL0     H 4511   3.099   4.914   2.016 -0.2613  1.5095 -1.1651
   33MOL0     H 4512   2.999   5.175   1.970  1.1921  3.1267 -0.5661
   33MOL0     H 4513   2.854   5.347   1.837  1.2942  1.0322 -1.0169
   33MOL0     H 4514   2.825   5.183   1.819 -0.9119  0.1203 -2.3984
   33MOL0     H 4515   2.841   5.279   1.670 -0.1229 -1.2764 -0.7572
   33MOL0     H 4516   3.008   5.269   1.233 -0.0699  0.1831  2.7423
   33MOL0     H 4517   2.990   5.422   1.038 -0.8749 -2.8644  0.2319
   33MOL0     H 4518   3.075   5.451   0.850 -2.4905 -0.0301  2.1740
   33MOL0     H 4519   3.006   5.604   0.873  0.0293 -0.7873  1.6101
   33MOL0     H 4520   3.073   5.546   0.644  1.7405  1.4446 -1.1081
   33MOL0     H 4521   3.168   5.691   0.717 -1.1904  0.5924  2.7683
   33MOL0     H 4522   3.283   5.404   0.648  2.1999 -0.2731  0.7008
   33MOL0     H 4523   3.365   5.538   0.734 -0.9384 -4.5998  2.3715
   33MOL0     H 4524   3.228   5.533   0.452  0.9879  1.0663 -0.9219
   33MOL0     H 4525   3.392   5.472   0.474  0.9252  1.6242 -0.6108
   33MOL0     H 4526   3.364   5.697   0.375  1.9559 -2.1786 -0.5605
   33MOL0     H 4527   3.318   5.752   0.531 -4.5435 -4.2835  2.1111
   33MOL0     H 4528   3.586   5.607   0.490 -0.5046  0.2793 -3.4018
   33MOL0     H 4529   3.525   5.683   0.637  0.2794  3.3070 -0.2545
   33MOL0     H 4530   3.680   5.836   0.576  0.9266 -0.8003  0.4703
   33MOL0     H 4531   3.520   5.899   0.522 -0.1860 -0.6975 -1.1040
   33MOL0     H 4532   3.708   5.924   0.354  2.1045 -2.3799 -0.0716
   33MOL0     H 4533   3.571   5.845   0.283 -0.0409  3.3809  0.0566
   33MOL0     H 4534   3.369   5.591   1.165  1.7328 -2.1621 -0.0855
   33MOL0     H 4535   3.357   5.473   1.369  2.6660 -1.9239 -2.3034
   33MOL0     H 4536   3.335   5.211   1.610 -0.0416 -1.8892 -0.4928
   33MOL0     H 4537   3.397   5.092   1.816 -1.1516 -0.8351 -2.0587
   33MOL0     H 4538   2.407   4.508   3.638 -2.1148 -2.7309  1.8573
   33MOL0     H 4539   2.328   4.462   3.865  0.8065 -0.2024  0.4369
   33MOL0     H 4540   2.283   4.265   4.314  2.6629 -1.0010  0.0391
   33MOL0     H 4541   2.253   4.285   4.567  0.5134 -0.1892  0.0347
   33MOL0     H 4542   2.245   4.336   4.794  2.0278 -0.1840 -0.5073
   33MOL0     H 4543   2.227   4.482   4.896 -1.0525  0.2294 -0.0530
   33MOL0     H 4544   2.049   4.445   4.659 -1.2268 -0.1273  0.7969
   33MOL0     H 4545   2.010   4.528   4.804 -3.0234 -1.1263  0.0275
   33MOL0     H 4546   1.895   4.304   4.792 -0.6011 -1.8242 -1.0457
   33MOL0     H 4547   2.059   4.234   4.757 -0.3946  2.4107 -1.2378
   33MOL0     H 4548   1.936   4.339   5.029  1.7486  4.5053 -2.2199
   33MOL0     H 4549   2.105   4.320   5.007 -0.9525  0.3952  0.4601
   33MOL0     H 4550   1.866   3.951   5.026  0.8065 -0.7193 -0.6187
   33MOL0     H 4551   2.371   4.695   4.534 -5.6220  0.1988  0.2098
   33MOL0     H 4552   2.525   4.702   4.245  1.3354  0.2670  0.6271
   33MOL0     H 4553   2.353   4.709   4.179 -0.7656  3.2247  1.8940
   33MOL0     H 4554   2.406   4.800   4.325 -1.9454 -0.2514  0.1857
   34MOL0     O 4555   4.978   3.778   2.064 -0.8913 -0.5982  0.5218
   34MOL0     C 4556   4.928   3.795   1.953  0.3355  0.0498  0.0413
   34MOL0     O 4557   4.817   3.747   1.906  0.6039 -0.4261 -0.5155
   34MOL0     C 4558   4.736   3.686   1.995  0.3338  0.5721  0.7410
   34MOL0     C 4559   4.741   3.548   2.001  0.3158 -0.5975  0.2003
   34MOL0     C 4560   4.639   3.473   2.062 -0.5045 -0.0454 -0.8630
   34MOL0     C 4561   4.537   3.545   2.135  0.9911  0.2288 -0.1411
   34MOL0     O 4562   4.437   3.488   2.215 -0.2003 -0.0120  0.2932
   34MOL0     C 4563   4.411   3.349   2.199 -0.0543 -0.0203 -0.2564
   34MOL0     C 4564   4.285   3.314   2.293  0.8709  0.1054 -0.1164
   34MOL0     C 4565   4.273   3.166   2.293  0.0572 -0.4004  0.5653
   34MOL0     C 4566   4.136   3.108   2.346  0.4130  0.0078 -0.8319
   34MOL0     C 4567   4.135   2.958   2.314 -0.0912  0.5603 -0.3819
   34MOL0     C 4568   4.013   2.881   2.358 -0.4450  0.4318  0.8313
   34MOL0     C 4569   3.871   2.908   2.298 -0.6090 -0.1760  1.2016
   34MOL0     C 4570   3.750   2.831   2.356 -0.2453 -0.1489 -0.9520
   34MOL0     N 4571   3.773   2.682   2.357  0.2648  0.2612 -0.5315
   34MOL0     C 4572   3.809   2.616   2.249 -0.6143 -0.2114 -0.4342
   34MOL0     C 4573   3.832   2.495   2.287  0.6775  0.3262  0.3609
   34MOL0     C 4574   3.864   2.373   2.201  0.0991  0.1585  0.5244
   34MOL0     C 4575   3.973   2.413   2.107 -0.2093  0.2570  0.1689
   34MOL0     C 4576   4.110   2.456   2.168  0.2315  0.2670  0.7416
   34MOL0     C 4577   4.190   2.542   2.069 -0.0379 -0.3469  0.1993
   34MOL0     O 4578   4.119   2.660   2.032 -0.0950  0.1870 -0.8973
   34MOL0     C 4579   4.179   2.748   1.947 -0.1017  0.6789  0.4194
   34MOL0     C 4580   4.290   2.720   1.862  0.5455  0.1939 -0.6695
   34MOL0     C 4581   4.332   2.812   1.766  0.5371  0.9567  0.4632
   34MOL0     C 4582   4.466   2.786   1.699 -0.6246  0.0453  0.9643
   34MOL0     C 4583   4.257   2.928   1.744 -0.6110  0.0150  0.7102
   34MOL0     C 4584   4.273   3.011   1.621  0.0316  0.5327  0.1431
   34MOL0     O 4585   4.339   2.958   1.507  0.7133 -0.6696 -0.1311
   34MOL0     C 4586   4.359   3.049   1.403 -0.4989 -0.4597 -0.5552
   34MOL0     C 4587   4.267   3.067   1.288 -1.3019  0.0937 -0.9050
   34MOL0     C 4588   4.291   3.161   1.193  1.3814  0.1448  0.4037
   34MOL0     C 4589   4.404   3.241   1.204  0.1349 -0.4975  0.2312
   34MOL0     O 4590   4.432   3.355   1.123 -0.0415  0.3191 -0.1618
   34MOL0     C 4591   4.355   3.381   1.006 -0.1749  0.1532  0.3236
   34MOL0     C 4592   4.433   3.308   0.889  0.0046 -0.3322 -0.8528
   34MOL0     C 4593   4.362   3.301   0.759 -0.2282  0.4955 -0.7767
   34MOL0     C 4594   4.450   3.202   0.668  0.2348 -1.3126  0.0268
   34MOL0     C 4595   4.391   3.202   0.527  0.6909  0.2703 -0.0858
   34MOL0     C 4596   4.458   3.111   0.434 -0.3736  0.3158 -0.9542
   34MOL0     C 4597   4.436   3.159   0.291 -0.0866  1.1648 -1.5305
   34MOL0     C 4598   4.294   3.196   0.259 -0.0766 -0.5824 -0.0165
   34MOL0    Cl 4599   4.282   3.260   0.088  0.1652 -0.5272 -0.0779
   34MOL0     C 4600   4.491   3.226   1.312  0.6238  0.0969  1.7928
   34MOL0     C 4601   4.473   3.130   1.409  0.1642  0.0835  0.8304
   34MOL0     O 4602   4.237   3.129   1.634  0.0036 -0.2536 -0.0334
   34MOL0     C 4603   4.152   2.958   1.831  0.4390 -0.1399  0.4354
   34MOL0     C 4604   4.112   2.872   1.926 -0.6184 -0.1425 -0.8120
   34MOL0     N 4605   3.810   2.488   2.423  0.4533 -0.2390 -0.4897
   34MOL0     N 4606   3.768   2.602   2.465 -0.1003  0.1042 -0.5630
   34MOL0     C 4607   4.543   3.687   2.134  0.4600  0.0101 -1.1615
   34MOL0     C 4608   4.640   3.750   2.065  0.6428  0.1291 -0.7774
   34MOL0     C 4609   5.008   3.895   1.872 -0.1691 -0.4276  0.2932
   34MOL0     C 4610   4.945   4.010   1.828 -0.5202 -0.0548 -0.1575
   34MOL0     C 4611   5.009   4.107   1.755 -0.4672 -0.5119  0.1158
   34MOL0     C 4612   5.143   4.081   1.712  1.2336 -0.1822  0.0500
   34MOL0     O 4613   5.210   4.138   1.606 -0.4539  0.4077  0.3770
   34MOL0     C 4614   5.156   4.259   1.564 -0.0669  0.1633  1.1085
   34MOL0     C 4615   5.063   4.230   1.442 -0.1605  1.0453 -0.2331
   34MOL0     C 4616   5.092   4.332   1.328 -0.1636 -0.4350  0.4978
   34MOL0     C 4617   4.972   4.340   1.238  0.4428 -0.1946 -0.5297
   34MOL0     C 4618   4.859   4.406   1.306 -0.3174  0.2807  0.5157
   34MOL0     C 4619   4.759   4.469   1.346 -0.0446  0.3147 -0.0420
   34MOL0     C 4620   5.215   3.975   1.766 -0.0577 -0.4062  0.4187
   34MOL0     C 4621   5.143   3.876   1.846 -0.1486  0.3223  0.4284
   34MOL0     C 4622   5.224   3.760   1.906 -0.0119 -0.1538  0.0736
   34MOL0     H 4623   4.824   3.491   1.960  0.5179 -0.1845  0.0288
   34MOL0     H 4624   4.639   3.365   2.066 -2.5749 -0.0570 -0.1246
   34MOL0     H 4625   4.503   3.298   2.231 -0.6753  0.7990  3.2729
   34MOL0     H 4626   4.386   3.325   2.096 -2.1565 -1.2827  0.4754
   34MOL0     H 4627   4.298   3.358   2.392 -3.8915 -0.5894  1.0750
   34MOL0     H 4628   4.197   3.356   2.244 -0.2257 -3.9834 -2.0583
   34MOL0     H 4629   4.287   3.124   2.193  2.8667  3.5217 -0.9788
   34MOL0     H 4630   4.341   3.133   2.372 -1.8698 -1.8840  1.6658
   34MOL0     H 4631   4.121   3.137   2.450 -1.5244  1.3742 -1.4390
   34MOL0     H 4632   4.053   3.161   2.299 -1.4887 -0.5231  1.7437
   34MOL0     H 4633   4.228   2.911   2.347  0.6393  1.8498 -0.5167
   34MOL0     H 4634   4.152   2.942   2.207  0.3218  1.0585 -0.3946
   34MOL0     H 4635   4.034   2.779   2.324 -0.9765  0.7376 -0.4453
   34MOL0     H 4636   4.017   2.887   2.467 -0.9708  3.2867  0.7599
   34MOL0     H 4637   3.888   2.887   2.192  0.0971  0.3883  1.1953
   34MOL0     H 4638   3.832   3.010   2.296 -4.1787 -1.2369 -3.9588
   34MOL0     H 4639   3.720   2.860   2.457 -1.4351 -1.1771 -0.9798
   34MOL0     H 4640   3.664   2.855   2.294 -0.7813 -1.4976 -0.7776
   34MOL0     H 4641   3.814   2.659   2.149 -2.8583  0.3476 -0.3536
   34MOL0     H 4642   3.773   2.342   2.149  1.1528 -1.4829 -0.4153
   34MOL0     H 4643   3.888   2.283   2.259 -0.1361 -0.4019 -0.2366
   34MOL0     H 4644   3.990   2.322   2.048  0.5955  0.1752  0.5192
   34MOL0     H 4645   3.927   2.490   2.045 -1.6835  0.5815  1.6048
   34MOL0     H 4646   4.102   2.508   2.264 -0.3074 -0.9091  1.3486
   34MOL0     H 4647   4.172   2.371   2.195 -1.1346 -0.6915  0.9589
   34MOL0     H 4648   4.292   2.560   2.104  0.5397  0.6011 -1.8158
   34MOL0     H 4649   4.200   2.491   1.973 -1.6521  0.6300 -0.5351
   34MOL0     H 4650   4.343   2.626   1.872 -1.4581 -0.9231  0.0229
   34MOL0     H 4651   4.522   2.875   1.670 -0.1954 -0.3789  0.4864
   34MOL0     H 4652   4.444   2.720   1.615  0.2585  0.2189  0.5872
   34MOL0     H 4653   4.523   2.717   1.762  0.9348 -3.5841 -3.8472
   34MOL0     H 4654   4.178   3.007   1.277 -1.4713 -0.7483  3.4305
   34MOL0     H 4655   4.216   3.163   1.115  0.4402 -3.1103  1.0590
   34MOL0     H 4656   4.250   3.348   1.009 -1.1486  2.8556 -0.5718
   34MOL0     H 4657   4.345   3.489   0.991 -1.0889  0.3719  2.2347
   34MOL0     H 4658   4.524   3.367   0.871 -0.6563  1.2331  0.5920
   34MOL0     H 4659   4.445   3.206   0.925  0.2129 -0.5540 -1.5504
   34MOL0     H 4660   4.363   3.403   0.718  1.6593  0.3451 -1.2331
   34MOL0     H 4661   4.256   3.278   0.770  0.5016 -2.5508  0.9081
   34MOL0     H 4662   4.458   3.103   0.714 -0.6210 -2.1970 -1.6367
   34MOL0     H 4663   4.549   3.249   0.667  0.4809 -1.8107 -1.0917
   34MOL0     H 4664   4.286   3.171   0.536  0.7807  0.4431  1.8754
   34MOL0     H 4665   4.390   3.303   0.483 -2.8463  0.5019  0.1752
   34MOL0     H 4666   4.413   3.014   0.455  2.8870 -1.4271 -1.3224
   34MOL0     H 4667   4.561   3.086   0.463 -0.8421  0.9537  1.5273
   34MOL0     H 4668   4.467   3.080   0.222  0.6770  0.1989 -0.1469
   34MOL0     H 4669   4.513   3.235   0.271  0.4654  1.6022  1.6890
   34MOL0     H 4670   4.254   3.285   0.309 -1.5180 -3.0336  3.6236
   34MOL0     H 4671   4.230   3.109   0.276  1.0959 -1.2637  1.0910
   34MOL0     H 4672   4.587   3.275   1.309  1.2114 -1.0571  0.5138
   34MOL0     H 4673   4.549   3.125   1.487 -2.4549  1.4875  3.6814
   34MOL0     H 4674   4.107   3.056   1.829  0.7066  0.0728  2.4197
   34MOL0     H 4675   4.027   2.907   1.983 -0.8195 -1.6681 -0.1301
   34MOL0     H 4676   4.459   3.743   2.175 -3.2466 -6.6895  2.0572
   34MOL0     H 4677   4.647   3.858   2.056  1.4314 -0.0208 -2.5052
   34MOL0     H 4678   4.842   4.035   1.851 -1.3292 -0.6612 -2.8080
   34MOL0     H 4679   4.947   4.189   1.720 -1.8659 -2.2868 -1.8903
   34MOL0     H 4680   5.092   4.303   1.640 -2.0110  0.2392 -0.4828
   34MOL0     H 4681   5.236   4.329   1.539  0.4812 -0.3946  1.2820
   34MOL0     H 4682   4.958   4.224   1.472 -0.3222 -1.0548 -0.9972
   34MOL0     H 4683   5.082   4.128   1.406  1.4114  1.6645 -1.2713
   34MOL0     H 4684   5.115   4.432   1.364 -3.2527  0.1748  1.0942
   34MOL0     H 4685   5.176   4.296   1.269 -0.1904 -0.1450  0.2843
   34MOL0     H 4686   4.945   4.241   1.200  0.2462  1.8262 -6.6873
   34MOL0     H 4687   5.012   4.400   1.156 -0.1099  1.9964  0.7413
   34MOL0     H 4688   4.662   4.494   1.384 -0.2278 -0.0443 -0.2684
   34MOL0     H 4689   5.321   3.964   1.744  0.1005  4.4909 -3.0977
   34MOL0     H 4690   5.293   3.709   1.839 -2.2683 -1.4990 -1.3526
   34MOL0     H 4691   5.277   3.798   1.994  4.9303 -0.4389 -2.4645
   34MOL0     H 4692   5.155   3.683   1.941  0.8785 -0.6211  0.8388
   35MOL0     O 4693   4.197   7.884   7.089  0.2476 -0.0638  0.2359
   35MOL0     C 4694   4.308   7.910   7.140 -0.2329 -0.2359 -0.0008
   35MOL0     O 4695   4.396   7.991   7.078 -0.2893  0.4984 -0.2394
   35MOL0     C 4696   4.381   8.019   6.949 -0.1172  0.3518  0.1820
   35MOL0     C 4697   4.463   7.958   6.847 -0.3861 -0.8238  0.0910
   35MOL0     C 4698   4.449   7.989   6.710 -0.2125 -0.7892 -0.1549
   35MOL0     C 4699   4.371   8.089   6.670 -0.0589  0.7375  0.1372
   35MOL0     O 4700   4.388   8.137   6.539 -0.2676 -0.0064 -0.0264
   35MOL0     C 4701   4.300   8.238   6.489  0.1331 -0.9049  0.5656
   35MOL0     C 4702   4.324   8.256   6.334  0.9223 -0.4421 -0.5330
   35MOL0     C 4703   4.465   8.308   6.304 -0.0960 -0.7433 -0.3931
   35MOL0     C 4704   4.520   8.266   6.169  0.0330  0.6494  0.7315
   35MOL0     C 4705   4.442   8.318   6.054  0.3980  0.0044 -0.1698
   35MOL0     C 4706   4.507   8.302   5.922 -0.7416  0.0464 -0.3734
   35MOL0     C 4707   4.558   8.157   5.896 -0.1177 -0.0124 -0.4684
   35MOL0     C 4708   4.598   8.139   5.753 -0.1939 -0.0801  0.6551
   35MOL0     N 4709   4.725   8.199   5.712  0.0199 -0.6995  0.2346
   35MOL0     C 4710   4.802   8.298   5.765  0.4233  0.8894 -1.3016
   35MOL0     C 4711   4.898   8.326   5.678  0.1482  0.3159 -0.4037
   35MOL0     C 4712   5.005   8.427   5.687  0.2727  0.7310 -0.5979
   35MOL0     C 4713   4.975   8.528   5.794  0.7272  0.7502  0.8244
   35MOL0     C 4714   5.098   8.622   5.795 -0.8378 -0.2202  0.1691
   35MOL0     C 4715   5.062   8.759   5.847  0.0254 -0.9743 -0.8473
   35MOL0     O 4716   4.970   8.750   5.964  0.1423 -0.3980 -0.4781
   35MOL0     C 4717   5.018   8.724   6.084  0.4005  0.0259  0.4122
   35MOL0     C 4718   5.129   8.781   6.146 -0.1135 -1.0369  0.5872
   35MOL0     C 4719   5.171   8.772   6.282 -1.2831  0.8925 -0.0067
   35MOL0     C 4720   5.298   8.848   6.332  0.5271 -0.2172 -0.0779
   35MOL0     C 4721   5.086   8.691   6.370  0.2961 -0.2497  0.5650
   35MOL0     C 4722   5.100   8.664   6.515  0.0714  0.0214  0.4702
   35MOL0     O 4723   4.998   8.613   6.572 -0.0551  0.0880 -0.7107
   35MOL0     C 4724   5.011   8.531   6.682  0.0676  0.7539 -1.0098
   35MOL0     C 4725   4.901   8.519   6.769 -0.4858  0.7184  0.4802
   35MOL0     C 4726   4.911   8.446   6.887  0.5044 -0.6798  0.4323
   35MOL0     C 4727   5.025   8.362   6.905  0.4055  0.6490 -0.8402
   35MOL0     O 4728   5.030   8.269   7.009 -0.3282  0.1560  0.1081
   35MOL0     C 4729   4.937   8.276   7.113 -0.7408  0.0001  0.3147
   35MOL0     C 4730   4.976   8.180   7.227  0.4500  0.0631 -0.8965
   35MOL0     C 4731   5.002   8.037   7.187  0.5742 -0.4426  0.7288
   35MOL0     C 4732   4.867   7.964   7.206 -0.2980 -0.2552  0.4693
   35MOL0     C 4733   4.876   7.817   7.161  0.0254  0.3088 -0.2138
   35MOL0     C 4734   4.731   7.749   7.161 -0.4477 -0.3856 -0.2318
   35MOL0     C 4735   4.761   7.606   7.130  0.3918  0.5653 -0.2540
   35MOL0     C 4736   4.626   7.537   7.123  1.1097 -0.3629  0.4005
   35MOL0    Cl 4737   4.524   7.583   6.985 -0.3679  0.0715 -0.1861
   35MOL0     C 4738   5.126   8.354   6.813 -0.1753  0.5281  0.2293
   35MOL0     C 4739   5.121   8.437   6.698 -0.6183  0.0329  0.1445
   35MOL0     O 4740   5.211   8.691   6.572 -0.3645  0.5877 -0.3232
   35MOL0     C 4741   4.971   8.639   6.307 -0.8316  0.4206 -0.6481
   35MOL0     C 4742   4.935   8.654   6.174 -0.4713 -0.8918 -0.6422
   35MOL0     N 4743   4.885   8.245   5.571 -0.4111  0.5844 -0.3914
   35MOL0     N 4744   4.775   8.176   5.596 -0.6271  0.2337  0.1554
   35MOL0     C 4745   4.277   8.135   6.764 -0.7080  0.1043  0.5923
   35MOL0     C 4746   4.283   8.100   6.893 -0.2272  0.5248 -0.0314
   35MOL0     C 4747   4.328   7.866   7.282 -0.3825 -0.1948  0.2952
   35MOL0     C 4748   4.429   7.929   7.348  0.0492  0.1153  0.7792
   35MOL0     C 4749   4.465   7.900   7.484  0.0486 -0.5931  0.2330
   35MOL0     C 4750   4.380   7.823   7.561  0.9626  0.6032  0.5482
   35MOL0     O 4751   4.396   7.806   7.693  0.4471  0.4659 -0.9006
   35MOL0     C 4752   4.492   7.894   7.758 -0.0515 -0.2179 -0.1947
   35MOL0     C 4753   4.498   7.878   7.912  0.0091 -0.0680  0.1931
   35MOL0     C 4754   4.379   7.948   7.985  0.8780 -0.2487 -0.9597
   35MOL0     C 4755   4.402   7.934   8.137 -0.1929 -0.5370 -0.2824
   35MOL0     C 4756   4.527   8.000   8.180  0.3584  0.2160 -0.5757
   35MOL0     C 4757   4.634   8.038   8.221 -0.3493 -0.1978  0.7053
   35MOL0     C 4758   4.281   7.755   7.493  0.6347 -0.1731  0.0473
   35MOL0     C 4759   4.258   7.770   7.357  0.7104  0.0992 -0.1816
   35MOL0     C 4760   4.150   7.678   7.301 -1.0305 -0.1045  0.4096
   35MOL0     H 4761   4.546   7.894   6.877 -0.1485 -0.2495  0.6807
   35MOL0     H 4762   4.517   7.940   6.640 -0.7877  0.1188 -1.3924
   35MOL0     H 4763   4.311   8.339   6.531  1.4473 -0.4340 -0.7972
   35MOL0     H 4764   4.196   8.210   6.509  0.7687 -1.6022  3.1941
   35MOL0     H 4765   4.317   8.161   6.280  3.5655 -1.6337  1.0254
   35MOL0     H 4766   4.245   8.324   6.298  1.2106  1.9157  2.7837
   35MOL0     H 4767   4.467   8.417   6.315 -0.3228 -0.4855 -2.4781
   35MOL0     H 4768   4.533   8.267   6.380  0.5730 -5.0506 -2.9570
   35MOL0     H 4769   4.626   8.291   6.160  0.3065 -1.2331 -3.3356
   35MOL0     H 4770   4.513   8.157   6.165  0.6759  0.5894  0.9824
   35MOL0     H 4771   4.424   8.426   6.066 -0.9418 -0.2550  0.2644
   35MOL0     H 4772   4.339   8.286   6.068 -0.4938  3.2166  1.6171
   35MOL0     H 4773   4.441   8.335   5.841 -1.0664 -1.2234 -0.6515
   35MOL0     H 4774   4.589   8.373   5.933 -3.2810  3.1862  0.0525
   35MOL0     H 4775   4.478   8.088   5.924 -1.4086  3.0044  4.6692
   35MOL0     H 4776   4.641   8.133   5.964 -2.6035 -2.4234  1.9676
   35MOL0     H 4777   4.603   8.033   5.729 -0.2829 -0.0712  0.5940
   35MOL0     H 4778   4.519   8.173   5.685  0.5365 -1.6458 -1.0649
   35MOL0     H 4779   4.775   8.330   5.865  0.6819  2.9999 -1.8467
   35MOL0     H 4780   5.002   8.477   5.590 -4.6999  2.5273  0.2156
   35MOL0     H 4781   5.101   8.375   5.698  0.2385  0.9133  0.7258
   35MOL0     H 4782   4.882   8.578   5.767 -1.3697 -2.9039  0.5305
   35MOL0     H 4783   4.957   8.478   5.890 -2.6090 -0.8683 -0.4609
   35MOL0     H 4784   5.174   8.563   5.847  0.2848 -0.2104 -1.4214
   35MOL0     H 4785   5.134   8.644   5.694 -4.8074  1.1266 -1.1499
   35MOL0     H 4786   5.155   8.808   5.876  1.8805 -0.6832 -6.1652
   35MOL0     H 4787   5.021   8.819   5.765 -1.6271 -1.4525 -0.4220
   35MOL0     H 4788   5.200   8.841   6.090 -3.1032  1.4098 -0.9328
   35MOL0     H 4789   5.267   8.935   6.390  1.2917 -2.0126  3.3400
   35MOL0     H 4790   5.357   8.868   6.242  0.9685  0.0790  0.2729
   35MOL0     H 4791   5.355   8.785   6.402  0.7865 -0.9935 -0.9682
   35MOL0     H 4792   4.810   8.578   6.764 -0.1989  1.2568  1.4389
   35MOL0     H 4793   4.823   8.438   6.950 -0.9158  0.2940 -1.3413
   35MOL0     H 4794   4.939   8.377   7.155 -0.6083  1.7027 -3.4112
   35MOL0     H 4795   4.832   8.261   7.088 -1.1231  1.1065  1.1806
   35MOL0     H 4796   5.074   8.219   7.257  1.0939  0.1348 -2.9375
   35MOL0     H 4797   4.897   8.186   7.302  0.1023 -1.9639 -1.0371
   35MOL0     H 4798   5.083   7.982   7.238 -0.9952 -2.3487  1.3216
   35MOL0     H 4799   5.025   8.033   7.080 -1.1141 -2.7896  0.3810
   35MOL0     H 4800   4.793   8.016   7.144 -0.7114 -0.9377  0.3875
   35MOL0     H 4801   4.853   7.957   7.314  2.3280 -4.4943  0.7751
   35MOL0     H 4802   4.913   7.812   7.059 -3.0338 -4.1933 -1.4065
   35MOL0     H 4803   4.934   7.764   7.237 -1.3627  0.7165  1.2112
   35MOL0     H 4804   4.670   7.802   7.087  0.2728  0.2642 -0.3723
   35MOL0     H 4805   4.677   7.761   7.255 -0.5560  0.6959 -0.4144
   35MOL0     H 4806   4.827   7.566   7.208 -1.4303  0.1291  1.1264
   35MOL0     H 4807   4.797   7.605   7.027  1.3098 -2.1755  0.0066
   35MOL0     H 4808   4.574   7.563   7.216  0.6547  2.6415 -0.5831
   35MOL0     H 4809   4.638   7.428   7.119 -0.8885 -0.6707  1.5445
   35MOL0     H 4810   5.208   8.283   6.821  0.7870  1.5641 -0.2164
   35MOL0     H 4811   5.187   8.426   6.613  0.7987  0.0156  1.2275
   35MOL0     H 4812   4.919   8.565   6.367 -0.3004 -1.1991 -2.0818
   35MOL0     H 4813   4.834   8.629   6.144 -0.9505  1.2525 -1.0046
   35MOL0     H 4814   4.192   8.198   6.738  0.0854  1.4825  1.2102
   35MOL0     H 4815   4.206   8.131   6.963 -1.3213 -2.1757  0.0532
   35MOL0     H 4816   4.493   7.997   7.293  0.1170 -1.0932 -0.7030
   35MOL0     H 4817   4.550   7.953   7.527 -1.6358  2.4953  0.0541
   35MOL0     H 4818   4.593   7.866   7.729  1.4609  2.5646  1.8877
   35MOL0     H 4819   4.475   8.000   7.737 -0.2847  0.1193  1.5033
   35MOL0     H 4820   4.593   7.920   7.946 -1.7957  3.6395  1.1867
   35MOL0     H 4821   4.498   7.769   7.922  0.0353 -0.2166 -1.2654
   35MOL0     H 4822   4.374   8.053   7.955 -1.4221 -0.2834 -0.9009
   35MOL0     H 4823   4.293   7.892   7.947  1.9841 -2.5275 -0.2780
   35MOL0     H 4824   4.410   7.831   8.175 -2.0674  0.6068  3.7470
   35MOL0     H 4825   4.320   7.974   8.198  1.6250  1.4993  0.9463
   35MOL0     H 4826   4.729   8.079   8.248  0.2334 -1.1765  0.1882
   35MOL0     H 4827   4.221   7.685   7.551 -0.4741  0.2989 -0.4987
   35MOL0     H 4828   4.162   7.574   7.330  0.7030 -0.7049 -2.0741
   35MOL0     H 4829   4.050   7.718   7.320 -1.7883 -0.4389 -2.3608
   35MOL0     H 4830   4.156   7.686   7.192  1.3394 -0.0401  0.4855
   36MOL0     O 4831   4.816   3.253   0.491 -0.0393 -1.0635 -0.2173
   36MOL0     C 4832   4.777   3.327   0.578 -0.5521 -0.3642 -0.1041
   36MOL0     O 4833   4.726   3.453   0.559  0.2406 -0.0434  0.3724
   36MOL0     C 4834   4.698   3.489   0.426  0.1312 -0.0781  0.3979
   36MOL0     C 4835   4.799   3.483   0.327 -0.0588 -0.0923 -1.0278
   36MOL0     C 4836   4.769   3.531   0.197 -0.4997  0.1243 -0.5342
   36MOL0     C 4837   4.639   3.563   0.155 -0.3158 -0.2018  1.3142
   36MOL0     O 4838   4.620   3.593   0.016  0.4415 -0.1563 -0.2558
   36MOL0     C 4839   4.695   3.700  -0.046  0.9737 -0.2515 -0.4321
   36MOL0     C 4840   4.624   3.836  -0.030  0.4995  0.2452  0.3982
   36MOL0     C 4841   4.461   3.850  -0.029  0.2703  0.3333  0.1677
   36MOL0     C 4842   4.434   4.000   0.007  1.1009 -0.1178  1.0888
   36MOL0     C 4843   4.282   4.039   0.005 -0.8892  0.2248 -0.3033
   36MOL0     C 4844   4.249   4.182  -0.043 -1.1360  0.6911  0.0510
   36MOL0     C 4845   4.097   4.191  -0.068 -0.1143 -0.3867 -0.9914
   36MOL0     C 4846   4.063   4.337  -0.050 -0.0797  0.1291 -0.7662
   36MOL0     N 4847   4.051   4.404  -0.178 -0.2479  0.0543  0.5989
   36MOL0     C 4848   3.994   4.365  -0.296  0.0620  0.5140 -0.1522
   36MOL0     C 4849   4.036   4.452  -0.390 -0.4642  0.2219 -0.0371
   36MOL0     C 4850   4.013   4.460  -0.536 -0.7818  0.9746 -0.8000
   36MOL0     C 4851   3.904   4.561  -0.555 -0.4421  0.1330  0.7811
   36MOL0     C 4852   3.919   4.633  -0.696  0.6820 -0.3735 -0.2848
   36MOL0     C 4853   3.836   4.547  -0.798  0.4909 -0.4469 -0.4638
   36MOL0     O 4854   3.827   4.618  -0.926  0.2701  0.5777  0.5074
   36MOL0     C 4855   3.833   4.538  -1.038  0.3801  0.5864  0.5025
   36MOL0     C 4856   3.923   4.432  -1.063 -0.6084 -0.1145 -0.4136
   36MOL0     C 4857   3.935   4.361  -1.185  0.2971 -0.1003  0.0368
   36MOL0     C 4858   4.031   4.249  -1.198  0.8692 -0.9362 -0.1063
   36MOL0     C 4859   3.845   4.399  -1.293  0.8421 -0.4892  0.1665
   36MOL0     C 4860   3.847   4.335  -1.427 -0.2539 -0.3657  0.6530
   36MOL0     O 4861   3.876   4.204  -1.448  0.3589  0.0039  0.1969
   36MOL0     C 4862   3.874   4.161  -1.579 -1.2580  0.6967 -0.2163
   36MOL0     C 4863   3.765   4.165  -1.661  0.3997 -0.3251  0.8571
   36MOL0     C 4864   3.769   4.110  -1.792 -0.1867  0.1723  0.1903
   36MOL0     C 4865   3.882   4.052  -1.840  0.2975  0.4840  0.9255
   36MOL0     O 4866   3.872   3.999  -1.965  0.6981 -0.3313  0.1293
   36MOL0     C 4867   3.974   3.916  -2.019 -0.4139  0.4686  0.5147
   36MOL0     C 4868   3.947   3.893  -2.166 -0.7254 -0.1984  0.0971
   36MOL0     C 4869   3.822   3.821  -2.198 -0.0012  0.0506  0.2855
   36MOL0     C 4870   3.784   3.815  -2.345  1.1888  0.9144  0.4389
   36MOL0     C 4871   3.630   3.814  -2.366 -0.2038  0.0419 -0.4511
   36MOL0     C 4872   3.598   3.773  -2.511  0.6706 -1.1496  0.5945
   36MOL0     C 4873   3.442   3.770  -2.526  0.0888 -0.1592 -0.7334
   36MOL0     C 4874   3.383   3.743  -2.672  0.2131 -0.3716 -0.1513
   36MOL0    Cl 4875   3.445   3.575  -2.732 -0.4780  0.0547 -0.1596
   36MOL0     C 4876   3.996   4.048  -1.766 -0.4920  0.3604  0.1104
   36MOL0     C 4877   3.996   4.099  -1.636 -0.5463  0.8414 -0.5743
   36MOL0     O 4878   3.815   4.414  -1.509  0.3116  0.8563 -0.0173
   36MOL0     C 4879   3.753   4.505  -1.264  0.1103  0.4866  0.4285
   36MOL0     C 4880   3.740   4.560  -1.132  0.6335  0.0223  1.0321
   36MOL0     N 4881   4.111   4.562  -0.321  1.0618  0.3561 -0.4953
   36MOL0     N 4882   4.121   4.517  -0.200 -0.0894 -0.2288  0.3458
   36MOL0     C 4883   4.535   3.552   0.245 -0.0975  0.6843 -0.0284
   36MOL0     C 4884   4.571   3.517   0.373 -0.7050 -0.1051 -0.1180
   36MOL0     C 4885   4.821   3.292   0.715 -0.2562  0.7020 -0.4614
   36MOL0     C 4886   4.887   3.394   0.777  0.2538 -0.5151  0.0714
   36MOL0     C 4887   4.938   3.377   0.905 -0.0345  0.8241  0.4788
   36MOL0     C 4888   4.928   3.255   0.976  0.0741  0.3181 -0.1398
   36MOL0     O 4889   4.980   3.242   1.105 -0.9225 -0.8435  0.1155
   36MOL0     C 4890   4.881   3.246   1.207 -1.1313 -0.7259  0.2578
   36MOL0     C 4891   4.849   3.112   1.267 -0.1620 -0.0781  0.3137
   36MOL0     C 4892   4.930   3.090   1.392 -0.1806  0.6498 -0.4998
   36MOL0     C 4893   4.912   2.943   1.457 -0.0122 -0.1600 -0.2818
   36MOL0     C 4894   5.034   2.914   1.529  0.8599  0.1800 -0.3060
   36MOL0     C 4895   5.131   2.902   1.600 -0.0084 -0.6732  0.3093
   36MOL0     C 4896   4.866   3.150   0.913 -0.8001 -0.1619  0.6064
   36MOL0     C 4897   4.818   3.163   0.777 -0.6648  0.6035 -0.4173
   36MOL0     C 4898   4.759   3.045   0.702 -0.6506 -0.3259 -0.7431
   36MOL0     H 4899   4.901   3.451   0.344 -0.0616  0.4407  0.1101
   36MOL0     H 4900   4.842   3.532   0.116  1.4758  2.3318  1.1678
   36MOL0     H 4901   4.702   3.687  -0.154  3.0703  1.4321 -0.5453
   36MOL0     H 4902   4.798   3.705  -0.011  0.4202  0.1239  1.2651
   36MOL0     H 4903   4.668   3.894   0.052  1.6948 -0.2806  0.1634
   36MOL0     H 4904   4.661   3.891  -0.117 -1.7663  0.9942 -0.1520
   36MOL0     H 4905   4.416   3.831  -0.127  0.3148  1.4678 -0.0911
   36MOL0     H 4906   4.428   3.790   0.056 -0.6831 -0.8784 -1.0199
   36MOL0     H 4907   4.494   4.012   0.098 -1.8328 -1.5611  3.4114
   36MOL0     H 4908   4.473   4.061  -0.074 -0.6735 -2.7866 -2.0104
   36MOL0     H 4909   4.249   4.016   0.107 -2.0592  0.8623 -0.5293
   36MOL0     H 4910   4.241   3.970  -0.069  3.1796 -2.4412 -0.4193
   36MOL0     H 4911   4.279   4.257   0.032 -5.8407  2.7465  0.2034
   36MOL0     H 4912   4.299   4.212  -0.136  1.7372  1.9495  1.8257
   36MOL0     H 4913   4.033   4.148   0.010 -2.2650  3.2745 -0.5218
   36MOL0     H 4914   4.068   4.148  -0.164 -1.2221  0.1632 -0.9183
   36MOL0     H 4915   3.977   4.350   0.016 -1.3150  0.6258 -2.4180
   36MOL0     H 4916   4.148   4.391  -0.006 -0.6014  1.5080 -1.3947
   36MOL0     H 4917   3.943   4.271  -0.315 -1.0430  0.5062  2.5172
   36MOL0     H 4918   3.974   4.364  -0.571 -1.0835  1.1327 -0.8949
   36MOL0     H 4919   4.103   4.478  -0.595 -0.3697 -0.5250 -0.6935
   36MOL0     H 4920   3.805   4.516  -0.541 -0.9481  1.2714  0.9871
   36MOL0     H 4921   3.911   4.641  -0.481 -0.8033 -2.2635  3.6200
   36MOL0     H 4922   3.872   4.731  -0.687 -0.5815 -1.0894  1.6471
   36MOL0     H 4923   4.023   4.643  -0.728  0.7407 -0.4681 -0.1279
   36MOL0     H 4924   3.864   4.442  -0.816  1.7399 -0.5484  1.7189
   36MOL0     H 4925   3.733   4.557  -0.763 -0.1373 -0.6550 -2.1581
   36MOL0     H 4926   3.990   4.405  -0.981  2.3865  0.1429 -2.6231
   36MOL0     H 4927   4.085   4.247  -1.293  1.5511  0.6396  0.2138
   36MOL0     H 4928   3.978   4.153  -1.197 -0.6756 -0.1312 -0.9707
   36MOL0     H 4929   4.095   4.248  -1.109  0.0415  3.3750  0.7777
   36MOL0     H 4930   3.666   4.199  -1.631 -0.4439 -2.8059  1.1938
   36MOL0     H 4931   3.683   4.105  -1.859 -0.0908  0.0726  0.0744
   36MOL0     H 4932   4.072   3.963  -2.019 -1.7013  3.6265 -2.4815
   36MOL0     H 4933   3.974   3.822  -1.962  0.3649 -0.2922 -0.6899
   36MOL0     H 4934   3.934   3.990  -2.215  2.0699  0.3357  0.2480
   36MOL0     H 4935   4.038   3.855  -2.213 -0.4811  0.8960 -0.3645
   36MOL0     H 4936   3.745   3.876  -2.142  0.6916 -1.1202  2.5553
   36MOL0     H 4937   3.830   3.717  -2.165 -0.7549  0.7713  3.0787
   36MOL0     H 4938   3.836   3.731  -2.390  0.1739 -1.2183  3.0016
   36MOL0     H 4939   3.821   3.905  -2.395  1.6729  0.5806  0.1928
   36MOL0     H 4940   3.572   3.747  -2.300  0.5501 -1.1639 -0.9865
   36MOL0     H 4941   3.596   3.916  -2.348  0.8598  0.7342 -2.1924
   36MOL0     H 4942   3.637   3.676  -2.541  0.4180 -0.8134 -0.9305
   36MOL0     H 4943   3.642   3.846  -2.580 -2.1597  2.9976  2.7108
   36MOL0     H 4944   3.416   3.866  -2.480 -0.0221 -0.1996 -0.7124
   36MOL0     H 4945   3.404   3.688  -2.464  0.5608  0.5310  0.4976
   36MOL0     H 4946   3.416   3.826  -2.735  1.0888  2.8892  4.1359
   36MOL0     H 4947   3.274   3.743  -2.681  0.1238  1.1307  0.6050
   36MOL0     H 4948   4.083   4.000  -1.809  1.1877  1.5794  1.9368
   36MOL0     H 4949   4.087   4.105  -1.577 -1.4253 -1.9518  1.2402
   36MOL0     H 4950   3.673   4.542  -1.328 -1.8030 -1.6779  1.4182
   36MOL0     H 4951   3.653   4.625  -1.133  0.7426  0.3986 -3.2226
   36MOL0     H 4952   4.431   3.572   0.223 -0.6474 -0.4288  1.4224
   36MOL0     H 4953   4.490   3.509   0.445  0.3770  0.0789  1.1659
   36MOL0     H 4954   4.908   3.489   0.727  3.8726 -1.7151 -1.0032
   36MOL0     H 4955   4.991   3.449   0.966 -1.8251  2.4925  0.1344
   36MOL0     H 4956   4.908   3.320   1.283  1.5502 -0.1779 -1.0917
   36MOL0     H 4957   4.782   3.281   1.177 -0.1047  0.2535 -2.2108
   36MOL0     H 4958   4.867   3.040   1.187  1.5066  0.4256  0.2030
   36MOL0     H 4959   4.744   3.126   1.297  0.1539  1.7008  0.7144
   36MOL0     H 4960   5.034   3.098   1.359 -0.2204  2.7048 -0.2858
   36MOL0     H 4961   4.915   3.172   1.463 -1.6136  0.2878 -0.3555
   36MOL0     H 4962   4.897   2.869   1.378 -2.0143 -0.7754  0.6354
   36MOL0     H 4963   4.828   2.937   1.526 -0.3342  1.8092 -0.4255
   36MOL0     H 4964   5.212   2.885   1.669  0.6490  4.0741  1.0251
   36MOL0     H 4965   4.850   3.058   0.968  3.1463 -2.6657 -1.9513
   36MOL0     H 4966   4.829   3.031   0.620 -0.4534 -0.4964 -0.5493
   36MOL0     H 4967   4.766   2.963   0.775 -0.7686  0.0642 -0.2851
   36MOL0     H 4968   4.659   3.047   0.657  0.3899 -2.6403 -3.4323
   37MOL0     O 4969   8.340  10.855   8.087  0.4013 -0.5766  0.6629
   37MOL0     C 4970   8.253  10.797   8.017 -0.5884 -0.9890  0.7415
   37MOL0     O 4971   8.290  10.715   7.915  0.4600  0.4316 -0.1078
   37MOL0     C 4972   8.419  10.674   7.883  0.0113  0.2046  0.3292
   37MOL0     C 4973   8.439  10.602   7.761 -0.5836  1.3205  0.4813
   37MOL0     C 4974   8.562  10.559   7.720 -0.2802  0.5898  0.1238
   37MOL0     C 4975   8.675  10.581   7.791 -0.6411 -0.2575  0.0845
   37MOL0     O 4976   8.796  10.567   7.737  0.1895 -0.1359 -0.8874
   37MOL0     C 4977   8.895  10.486   7.817 -0.2629 -0.3689  0.0320
   37MOL0     C 4978   8.879  10.334   7.806 -0.2878 -0.1768  0.6328
   37MOL0     C 4979   8.873  10.294   7.665 -0.1815  0.4760  0.3873
   37MOL0     C 4980   8.912  10.147   7.638 -0.2311  0.4803  0.4382
   37MOL0     C 4981   8.820  10.050   7.705  0.5749 -0.7064 -0.2105
   37MOL0     C 4982   8.833   9.900   7.656 -0.3050  0.6492 -0.6758
   37MOL0     C 4983   8.784   9.878   7.504  0.5918 -0.1571 -0.2171
   37MOL0     C 4984   8.709   9.736   7.497 -0.2512 -0.2048  0.2351
   37MOL0     N 4985   8.805   9.627   7.459 -0.9516  0.5990 -1.6540
   37MOL0     C 4986   8.910   9.587   7.538 -0.0895 -0.7507  0.0280
   37MOL0     C 4987   8.973   9.492   7.458  0.0609 -1.2971 -0.0151
   37MOL0     C 4988   9.096   9.406   7.494 -0.3288  0.1531  1.1943
   37MOL0     C 4989   9.076   9.245   7.509 -0.4428  1.0485 -0.3030
   37MOL0     C 4990   9.182   9.174   7.426 -0.2529 -0.1631  0.3382
   37MOL0     C 4991   9.143   9.028   7.415 -0.1746 -0.4574  1.0474
   37MOL0     O 4992   9.109   8.953   7.525 -0.1827 -0.0122 -0.2324
   37MOL0     C 4993   9.198   8.955   7.630  0.1074  0.7773  1.2069
   37MOL0     C 4994   9.143   8.953   7.758 -0.5331  0.1837  0.2512
   37MOL0     C 4995   9.227   8.971   7.865 -0.0589 -0.0985 -1.0657
   37MOL0     C 4996   9.152   9.005   7.998  0.5835 -0.4532  0.7511
   37MOL0     C 4997   9.367   8.969   7.853  0.0392  0.0235  0.2120
   37MOL0     C 4998   9.459   8.978   7.963  0.0090  0.0290 -0.6085
   37MOL0     O 4999   9.424   8.927   8.089  0.2389 -0.9599  0.0988
   37MOL0     C 5000   9.503   8.937   8.201 -0.3791  0.5295 -0.3992
   37MOL0     C 5001   9.643   8.900   8.198  0.1171  0.1746  0.1326
   37MOL0     C 5002   9.727   8.918   8.306 -0.2239 -0.6673 -0.2507
   37MOL0     C 5003   9.684   8.971   8.425  0.2220 -0.9337 -0.1886
   37MOL0     O 5004   9.771   8.994   8.526  0.3099 -0.0508 -0.6986
   37MOL0     C 5005   9.828   8.874   8.577 -0.1721  0.8192 -0.3889
   37MOL0     C 5006   9.979   8.856   8.541  0.3404 -0.0251 -0.2680
   37MOL0     C 5007  10.053   8.744   8.612  0.4869  0.8450  0.6579
   37MOL0     C 5008  10.175   8.698   8.521  0.3544  0.5055  0.6355
   37MOL0     C 5009  10.280   8.627   8.601  0.1834 -0.2453 -0.6290
   37MOL0     C 5010  10.264   8.480   8.581  0.3154 -1.3929  1.1210
   37MOL0     C 5011  10.368   8.398   8.652 -0.0822  0.0296 -0.1801
   37MOL0     C 5012  10.442   8.303   8.558 -0.0482 -0.1435  1.2234
   37MOL0    Cl 5013  10.553   8.171   8.644 -0.0028 -0.2153  0.4914
   37MOL0     C 5014   9.547   9.000   8.437  0.2140 -0.0478  0.3274
   37MOL0     C 5015   9.465   8.994   8.319  0.6029 -1.1103 -0.7592
   37MOL0     O 5016   9.566   9.035   7.948 -0.3507  0.1098  0.4756
   37MOL0     C 5017   9.421   8.964   7.721 -0.5787  0.0582  0.2298
   37MOL0     C 5018   9.333   8.950   7.612  0.3052 -0.1358  0.0453
   37MOL0     N 5019   8.902   9.492   7.338  0.2456 -0.3119 -0.1979
   37MOL0     N 5020   8.807   9.568   7.333  0.5281 -0.2742  0.2263
   37MOL0     C 5021   8.660  10.663   7.908  0.1093  0.3475  0.7461
   37MOL0     C 5022   8.534  10.708   7.951  0.2037  0.1190 -1.0649
   37MOL0     C 5023   8.104  10.813   8.058 -0.2474 -0.1507  0.1021
   37MOL0     C 5024   8.065  10.860   8.186  0.0469  0.4799  0.1202
   37MOL0     C 5025   7.929  10.861   8.226 -0.6712 -0.3748  0.2341
   37MOL0     C 5026   7.836  10.847   8.130 -0.0765 -0.3865  0.4168
   37MOL0     O 5027   7.704  10.872   8.159  0.6260 -0.3057 -0.3914
   37MOL0     C 5028   7.598  10.894   8.065 -0.7275 -0.3737  0.2359
   37MOL0     C 5029   7.469  10.921   8.132 -0.1155 -0.9267 -1.0460
   37MOL0     C 5030   7.405  10.787   8.181  0.4658 -0.2877  0.4645
   37MOL0     C 5031   7.262  10.777   8.211  0.6643  0.3690  0.5034
   37MOL0     C 5032   7.206  10.874   8.304 -0.5251 -1.0588 -0.2398
   37MOL0     C 5033   7.165  10.970   8.370  1.0082  0.8853 -0.1211
   37MOL0     C 5034   7.876  10.813   8.001 -0.7177 -0.4869  0.0842
   37MOL0     C 5035   8.006  10.787   7.963 -0.0166 -0.3818 -0.5151
   37MOL0     C 5036   8.028  10.752   7.818 -0.4495  0.0152 -0.2549
   37MOL0     H 5037   8.348  10.588   7.704 -0.5180  1.2125  0.4030
   37MOL0     H 5038   8.574  10.501   7.630 -2.1231  1.7707 -0.9578
   37MOL0     H 5039   8.882  10.519   7.920  0.1598  2.7921 -0.8029
   37MOL0     H 5040   8.991  10.527   7.782 -1.0453 -0.3121 -2.2258
   37MOL0     H 5041   8.950  10.282   7.871  1.4130  0.1797 -0.8820
   37MOL0     H 5042   8.782  10.319   7.855  0.0509  0.0298  1.3915
   37MOL0     H 5043   8.782  10.331   7.617 -1.3175 -0.7913  1.4855
   37MOL0     H 5044   8.949  10.357   7.619  0.4383  3.4123  4.8611
   37MOL0     H 5045   8.914  10.130   7.530 -3.5173  1.8286  0.0386
   37MOL0     H 5046   9.014  10.126   7.671 -0.3686  1.0157  1.2166
   37MOL0     H 5047   8.715  10.080   7.705  0.7343 -0.0821  0.7917
   37MOL0     H 5048   8.842  10.045   7.812 -1.9144 -0.2906  0.3798
   37MOL0     H 5049   8.937   9.868   7.654 -0.0553  1.4201 -2.5143
   37MOL0     H 5050   8.779   9.827   7.718  0.6869  1.5065  1.2622
   37MOL0     H 5051   8.864   9.892   7.430  1.6931 -0.8621  0.8036
   37MOL0     H 5052   8.714   9.961   7.492  2.9322  2.1675  1.0023
   37MOL0     H 5053   8.645   9.714   7.583  0.6933  0.8897  1.2501
   37MOL0     H 5054   8.636   9.744   7.415 -2.0860  0.6655  1.8567
   37MOL0     H 5055   8.940   9.622   7.637  0.6590 -2.7391  0.5707
   37MOL0     H 5056   9.133   9.442   7.590 -2.0278 -1.2527  2.4624
   37MOL0     H 5057   9.176   9.432   7.424 -0.2290  3.2337  2.3253
   37MOL0     H 5058   9.082   9.224   7.617  0.8492 -0.1083 -0.5692
   37MOL0     H 5059   8.976   9.214   7.476  0.7158 -0.4823 -2.6122
   37MOL0     H 5060   9.188   9.221   7.328 -0.4664  1.0497  0.8895
   37MOL0     H 5061   9.277   9.172   7.479 -0.5296 -2.8162  0.8511
   37MOL0     H 5062   9.047   9.019   7.362 -0.7368  2.8125  1.2624
   37MOL0     H 5063   9.213   8.968   7.357 -0.4969 -1.2707  1.4904
   37MOL0     H 5064   9.035   8.956   7.767 -0.4388  2.2919  1.3055
   37MOL0     H 5065   9.044   8.992   7.994  0.1001  2.2120  2.3962
   37MOL0     H 5066   9.165   9.108   8.033 -0.7494 -0.2579  0.7257
   37MOL0     H 5067   9.189   8.937   8.075  2.8590  0.2441  0.3783
   37MOL0     H 5068   9.691   8.867   8.107  0.5304  1.7341 -0.2516
   37MOL0     H 5069   9.831   8.899   8.283 -0.9802 -0.6617 -4.2696
   37MOL0     H 5070   9.809   8.890   8.684  0.1687  0.9206 -0.3440
   37MOL0     H 5071   9.770   8.783   8.559 -0.9495  1.1296  0.4184
   37MOL0     H 5072   9.982   8.841   8.433 -1.1913  1.6335 -0.5839
   37MOL0     H 5073  10.039   8.946   8.557 -1.3730  2.0630 -4.1262
   37MOL0     H 5074   9.986   8.658   8.625 -0.4621  1.0686 -2.1281
   37MOL0     H 5075  10.087   8.762   8.715  3.2003 -0.4818  0.0876
   37MOL0     H 5076  10.218   8.791   8.482  0.6794 -0.6069 -1.8983
   37MOL0     H 5077  10.145   8.633   8.438 -2.5539  0.4603  1.6388
   37MOL0     H 5078  10.382   8.649   8.571  1.0707 -2.3689  0.5941
   37MOL0     H 5079  10.273   8.653   8.707 -0.6614 -0.7242 -0.5559
   37MOL0     H 5080  10.256   8.457   8.474  3.4454  0.4507  0.3432
   37MOL0     H 5081  10.175   8.454   8.638 -1.1831 -2.5796 -1.5767
   37MOL0     H 5082  10.315   8.341   8.729 -1.7411  2.7221  0.8176
   37MOL0     H 5083  10.438   8.467   8.700  0.6070  0.5550 -1.8612
   37MOL0     H 5084  10.507   8.353   8.486 -3.0401  1.0038 -0.8634
   37MOL0     H 5085  10.362   8.264   8.494 -1.5129  2.8862  1.0173
   37MOL0     H 5086   9.508   9.038   8.531 -1.0103  3.6088 -1.4633
   37MOL0     H 5087   9.359   9.016   8.321 -0.5117 -4.9488 -4.4144
   37MOL0     H 5088   9.529   8.959   7.714 -0.4870 -0.3042  1.6793
   37MOL0     H 5089   9.374   8.933   7.513  1.4792  1.8852  0.1457
   37MOL0     H 5090   8.749  10.686   7.964  0.0243  0.8646  0.6711
   37MOL0     H 5091   8.531  10.765   8.044 -3.0951  0.4871 -1.2528
   37MOL0     H 5092   8.131  10.877   8.271  2.0436  0.9989 -1.4423
   37MOL0     H 5093   7.907  10.892   8.328  0.1625 -0.2530  0.3785
   37MOL0     H 5094   7.625  10.985   8.009 -5.6630  1.2608  0.0722
   37MOL0     H 5095   7.587  10.814   7.991 -0.6133  0.1922 -0.4045
   37MOL0     H 5096   7.405  10.974   8.061 -0.7732  0.9381  0.8349
   37MOL0     H 5097   7.478  10.992   8.215 -1.8543 -0.3732 -1.2948
   37MOL0     H 5098   7.442  10.714   8.108 -0.2902  1.1390 -1.4466
   37MOL0     H 5099   7.457  10.763   8.274  2.0232 -0.0482 -0.2952
   37MOL0     H 5100   7.256  10.678   8.256 -0.7829 -0.8575 -2.1655
   37MOL0     H 5101   7.201  10.778   8.120 -0.2605 -3.3493  0.9090
   37MOL0     H 5102   7.140  11.038   8.450 -0.0367  1.5692 -1.0100
   37MOL0     H 5103   7.798  10.799   7.927 -0.6261 -0.8652  0.0536
   37MOL0     H 5104   8.097  10.826   7.777  1.5900 -0.4877  2.0374
   37MOL0     H 5105   8.070  10.652   7.807  2.5383  1.2212 -0.7292
   37MOL0     H 5106   7.933  10.765   7.765 -0.5112  0.4571 -0.0437
   38MOL0     O 5107  10.206  10.588  10.928  0.1616 -0.4935  0.0657
   38MOL0     C 5108  10.326  10.577  10.902  0.6521  0.2549  0.6037
   38MOL0     O 5109  10.385  10.480  10.834 -1.3852  0.4214 -0.2038
   38MOL0     C 5110  10.307  10.389  10.779  0.6846  0.2225  0.7884
   38MOL0     C 5111  10.284  10.262  10.833 -0.4541  0.7519  0.2704
   38MOL0     C 5112  10.198  10.173  10.780  0.4830  0.2995  0.5325
   38MOL0     C 5113  10.108  10.210  10.683 -0.9708 -0.3100  0.5287
   38MOL0     O 5114  10.001  10.127  10.655 -0.2544  0.3928  0.1891
   38MOL0     C 5115   9.989  10.090  10.516 -0.1907 -0.0865  0.3519
   38MOL0     C 5116  10.104  10.002  10.456 -0.1343  0.1561  0.1160
   38MOL0     C 5117  10.121   9.864  10.524  0.7797  0.0287 -0.2794
   38MOL0     C 5118  10.022   9.749  10.488 -0.1126 -0.5914 -0.1146
   38MOL0     C 5119  10.071   9.612  10.542 -0.2570 -0.0023  0.0743
   38MOL0     C 5120   9.980   9.504  10.480 -0.9628 -0.2932 -0.4056
   38MOL0     C 5121   9.907   9.426  10.581  0.5738 -0.8806  0.3574
   38MOL0     C 5122   9.792   9.339  10.518 -0.2421 -0.1332 -0.2115
   38MOL0     N 5123   9.851   9.223  10.446  0.1916 -1.1819 -0.3549
   38MOL0     C 5124   9.847   9.213  10.311  1.2890  0.4303  0.7250
   38MOL0     C 5125   9.891   9.085  10.293 -0.4060 -0.5988 -0.3262
   38MOL0     C 5126   9.885   9.033  10.154  0.1146  1.0641 -0.0540
   38MOL0     C 5127   9.751   8.951  10.154  0.0997  0.4181  0.2536
   38MOL0     C 5128   9.762   8.873  10.022  1.5176  1.1107  0.9592
   38MOL0     C 5129   9.637   8.787  10.005  0.0376 -0.8083  0.9191
   38MOL0     O 5130   9.683   8.704   9.900 -0.4426 -0.3396  0.8055
   38MOL0     C 5131   9.602   8.610   9.847  0.0393 -0.3761  0.2376
   38MOL0     C 5132   9.641   8.550   9.728 -0.3358  0.3981 -0.4186
   38MOL0     C 5133   9.581   8.437   9.675 -0.8308  0.2051 -0.1014
   38MOL0     C 5134   9.649   8.367   9.563  0.0572  0.6074  0.4065
   38MOL0     C 5135   9.462   8.389   9.734  0.9461  0.1847  0.3302
   38MOL0     C 5136   9.391   8.258   9.705 -0.3246  0.5326 -1.4172
   38MOL0     O 5137   9.458   8.156   9.646 -0.4302  0.7577  0.5824
   38MOL0     C 5138   9.400   8.032   9.634 -0.1701 -0.0781  0.3752
   38MOL0     C 5139   9.380   7.955   9.752  0.5193  0.1389  0.3042
   38MOL0     C 5140   9.306   7.834   9.738  0.0322  0.3703 -0.1106
   38MOL0     C 5141   9.247   7.792   9.611  0.2227  1.1755 -0.3055
   38MOL0     O 5142   9.192   7.665   9.585  0.1081  0.0578  0.1769
   38MOL0     C 5143   9.232   7.564   9.673 -0.4622 -0.6015  0.9563
   38MOL0     C 5144   9.182   7.428   9.620  0.1891  0.4864  0.6733
   38MOL0     C 5145   9.235   7.408   9.478 -0.0711  0.0983  0.0239
   38MOL0     C 5146   9.231   7.254   9.461  0.0311 -0.3389 -0.0013
   38MOL0     C 5147   9.297   7.205   9.328  1.0188  0.3849  0.2742
   38MOL0     C 5148   9.259   7.052   9.302 -0.2571  1.2177 -0.3973
   38MOL0     C 5149   9.313   6.948   9.403 -0.0575  0.1392 -0.3234
   38MOL0     C 5150   9.291   6.809   9.350  0.5127  0.2523 -0.1234
   38MOL0    Cl 5151   9.289   6.691   9.478 -0.6515 -0.0809  0.0185
   38MOL0     C 5152   9.282   7.865   9.496 -0.3022 -0.3122 -0.0587
   38MOL0     C 5153   9.352   7.986   9.513  0.0816  0.2644 -0.2917
   38MOL0     O 5154   9.274   8.254   9.751 -0.6693  0.3208  0.7918
   38MOL0     C 5155   9.414   8.465   9.845  0.5023  0.1225 -0.7186
   38MOL0     C 5156   9.490   8.563   9.903  0.7298  0.0264  1.1575
   38MOL0     N 5157   9.940   9.035  10.409  0.8831 -0.7126 -0.2750
   38MOL0     N 5158   9.905   9.116  10.501  0.4542  0.0220 -0.0993
   38MOL0     C 5159  10.116  10.354  10.638  0.3279  0.5739 -0.5925
   38MOL0     C 5160  10.217  10.434  10.684 -0.0892 -0.0136  0.1593
   38MOL0     C 5161  10.418  10.689  10.923  0.4346 -0.1637 -0.5335
   38MOL0     C 5162  10.531  10.713  10.835 -0.1090 -0.5497  0.6795
   38MOL0     C 5163  10.622  10.816  10.856  0.1537 -0.4538 -0.4099
   38MOL0     C 5164  10.627  10.879  10.977 -0.7785 -0.4875 -0.3865
   38MOL0     O 5165  10.736  10.965  11.008  0.0087  0.5525  0.1752
   38MOL0     C 5166  10.733  11.073  11.106 -1.0040  0.6366 -0.0482
   38MOL0     C 5167  10.776  11.034  11.252 -0.5725 -0.4442  0.2319
   38MOL0     C 5168  10.706  11.128  11.359  0.7282  0.4573 -0.8424
   38MOL0     C 5169  10.724  11.276  11.345  0.2970 -0.5833 -0.5506
   38MOL0     C 5170  10.872  11.302  11.352  0.7748  0.0925 -0.4714
   38MOL0     C 5171  10.993  11.309  11.361  0.2116  0.8536 -0.2718
   38MOL0     C 5172  10.516  10.864  11.065 -0.5116 -0.6563 -0.4924
   38MOL0     C 5173  10.415  10.762  11.044 -0.3931 -0.5583  0.0082
   38MOL0     C 5174  10.314  10.742  11.148  0.3458  0.6287 -0.4135
   38MOL0     H 5175  10.352  10.228  10.910  0.9106  0.4714 -1.0185
   38MOL0     H 5176  10.184  10.076  10.827 -3.6595 -0.1644 -1.1733
   38MOL0     H 5177   9.982  10.175  10.449 -3.9516 -2.5520 -2.8550
   38MOL0     H 5178   9.898  10.035  10.489  0.5938 -2.0455  1.4202
   38MOL0     H 5179  10.103   9.993  10.347 -0.0478  0.8179  0.0577
   38MOL0     H 5180  10.195  10.058  10.480  1.3278 -0.9892 -2.3309
   38MOL0     H 5181  10.226   9.841  10.500  1.0824 -1.6109  2.2288
   38MOL0     H 5182  10.124   9.873  10.633  3.5872 -0.1457 -0.2648
   38MOL0     H 5183   9.917   9.765  10.517  0.4692  0.2009  1.6750
   38MOL0     H 5184  10.015   9.753  10.379 -0.7369 -0.9807 -0.0939
   38MOL0     H 5185  10.063   9.618  10.651 -1.6213  2.9854 -0.0781
   38MOL0     H 5186  10.178   9.609  10.516 -0.7162 -1.4048 -1.8116
   38MOL0     H 5187   9.913   9.547  10.405 -0.6104  1.7897  0.4094
   38MOL0     H 5188  10.045   9.428  10.436  0.1382  1.4049 -1.8928
   38MOL0     H 5189   9.860   9.499  10.648  1.6516 -0.0623  0.2503
   38MOL0     H 5190   9.968   9.367  10.650 -0.8171 -2.0805  0.5910
   38MOL0     H 5191   9.729   9.297  10.598  0.0804  0.7046  0.4942
   38MOL0     H 5192   9.724   9.397  10.456 -1.3878 -0.6087  0.5700
   38MOL0     H 5193   9.826   9.289  10.237  3.2240 -1.6616 -2.2093
   38MOL0     H 5194   9.973   8.971  10.139 -2.5999 -2.5376 -3.5309
   38MOL0     H 5195   9.881   9.105  10.072 -2.0556  0.6935 -0.3446
   38MOL0     H 5196   9.741   8.874  10.231  0.4422 -0.5168 -0.6305
   38MOL0     H 5197   9.669   9.025  10.156  1.3407  1.8303  0.8392
   38MOL0     H 5198   9.772   8.958   9.954  1.6167  2.1774  2.2424
   38MOL0     H 5199   9.856   8.816  10.016  1.4227  1.1368 -1.6645
   38MOL0     H 5200   9.631   8.722  10.093  0.4172 -2.0097  0.0921
   38MOL0     H 5201   9.549   8.843   9.973  0.5461 -1.1372 -1.2599
   38MOL0     H 5202   9.738   8.573   9.687 -0.3769  0.0101 -0.7454
   38MOL0     H 5203   9.656   8.259   9.582 -0.7399  0.1688 -1.6243
   38MOL0     H 5204   9.746   8.412   9.543 -0.3358  1.5249  0.5055
   38MOL0     H 5205   9.589   8.378   9.473  0.4998 -2.9848 -0.4974
   38MOL0     H 5206   9.412   7.992   9.848  1.8041 -0.5775  0.1741
   38MOL0     H 5207   9.306   7.769   9.825  0.9276  1.3584  0.6643
   38MOL0     H 5208   9.341   7.565   9.659 -0.8599 -0.7422 -3.2805
   38MOL0     H 5209   9.201   7.592   9.774 -0.4837 -1.9993  1.3536
   38MOL0     H 5210   9.224   7.355   9.691  0.1791 -0.8196 -0.6244
   38MOL0     H 5211   9.077   7.400   9.613  0.4058  0.0260 -1.0614
   38MOL0     H 5212   9.340   7.439   9.483  1.2261 -3.7967  4.5307
   38MOL0     H 5213   9.185   7.468   9.402  1.7589  1.3735 -0.2395
   38MOL0     H 5214   9.124   7.231   9.467 -0.1754  0.5907 -0.0057
   38MOL0     H 5215   9.286   7.201   9.540  2.2186  0.9150 -0.6168
   38MOL0     H 5216   9.266   7.262   9.240 -0.3288 -0.3064  0.2764
   38MOL0     H 5217   9.406   7.216   9.330  1.0074  0.4425  2.1197
   38MOL0     H 5218   9.302   7.024   9.206 -3.1868 -1.9792 -0.9805
   38MOL0     H 5219   9.151   7.039   9.292 -0.4236  1.2950  1.0805
   38MOL0     H 5220   9.276   6.967   9.504  1.1241  1.4033 -0.0945
   38MOL0     H 5221   9.422   6.951   9.408  0.0657 -0.2112 -2.0868
   38MOL0     H 5222   9.373   6.783   9.282  0.0575  2.8085 -1.7939
   38MOL0     H 5223   9.199   6.808   9.290 -1.3093  1.3654  2.4511
   38MOL0     H 5224   9.243   7.832   9.400 -0.5686 -1.2110  0.3447
   38MOL0     H 5225   9.367   8.049   9.426 -0.3715  1.7940  0.6946
   38MOL0     H 5226   9.315   8.451   9.888  1.3198  2.9040  2.4619
   38MOL0     H 5227   9.465   8.588  10.006 -0.8870  0.1067  0.7643
   38MOL0     H 5228  10.044  10.403  10.573 -0.9660 -0.5275 -0.0231
   38MOL0     H 5229  10.228  10.536  10.647  0.2399  0.3104  1.1163
   38MOL0     H 5230  10.540  10.640  10.755  0.4751  0.4062 -0.1452
   38MOL0     H 5231  10.699  10.831  10.781  0.5940  0.0943  0.1421
   38MOL0     H 5232  10.804  11.151  11.080  0.8249 -0.9944 -0.1900
   38MOL0     H 5233  10.629  11.105  11.120 -1.6547 -1.5399  0.6161
   38MOL0     H 5234  10.881  11.032  11.279 -0.0392  0.6723 -1.5917
   38MOL0     H 5235  10.735  10.935  11.274  1.1435 -1.7436 -2.0012
   38MOL0     H 5236  10.597  11.119  11.356  0.6989  0.7352 -0.6612
   38MOL0     H 5237  10.723  11.090  11.461 -0.1820 -0.9680 -1.1981
   38MOL0     H 5238  10.667  11.325  11.424 -0.1595 -0.8256 -0.7300
   38MOL0     H 5239  10.701  11.313  11.245  4.1410  1.9430 -0.7325
   38MOL0     H 5240  11.098  11.318  11.341  0.6893 -1.7734  0.6414
   38MOL0     H 5241  10.514  10.921  11.157  0.3831 -0.0781 -0.8140
   38MOL0     H 5242  10.228  10.809  11.143 -1.1174 -0.6075  3.8330
   38MOL0     H 5243  10.278  10.639  11.163  2.4316  0.0927  1.4673
   38MOL0     H 5244  10.361  10.751  11.246  0.1702 -1.1011 -0.1336
   39MOL0     O 5245   7.838   6.805   1.004 -0.3715 -0.0454  0.5103
   39MOL0     C 5246   7.790   6.800   1.115 -0.0131  0.4505  0.5599
   39MOL0     O 5247   7.833   6.705   1.210  0.1514 -0.6741  0.0004
   39MOL0     C 5248   7.904   6.595   1.174  0.1148 -0.4160  0.6207
   39MOL0     C 5249   8.010   6.553   1.249 -0.2711 -0.7295  0.0219
   39MOL0     C 5250   8.085   6.443   1.211 -0.3871 -0.3179 -0.1105
   39MOL0     C 5251   8.055   6.361   1.107  0.6211 -0.2638 -1.1464
   39MOL0     O 5252   8.133   6.246   1.091  0.3943  0.1239  0.3355
   39MOL0     C 5253   8.109   6.162   0.977 -0.0511  0.4470  0.7445
   39MOL0     C 5254   8.186   6.034   1.011  0.8897 -0.3349  0.7753
   39MOL0     C 5255   8.123   5.920   0.931 -0.1872  0.0442  0.2121
   39MOL0     C 5256   8.239   5.818   0.947 -0.4252 -0.1465  1.0407
   39MOL0     C 5257   8.211   5.677   0.874  0.4780 -0.4652 -0.8049
   39MOL0     C 5258   8.331   5.590   0.906 -1.2002 -0.0388 -0.9571
   39MOL0     C 5259   8.325   5.449   0.865 -0.1073  0.8036 -0.1569
   39MOL0     C 5260   8.432   5.362   0.924 -0.8279 -0.3087  0.3817
   39MOL0     N 5261   8.488   5.279   0.816  0.1495  0.2627  0.1356
   39MOL0     C 5262   8.435   5.162   0.756 -0.3926 -0.7619  0.0178
   39MOL0     C 5263   8.519   5.133   0.651  0.3172 -0.2324  0.1505
   39MOL0     C 5264   8.489   5.034   0.540 -0.1269 -0.6143 -0.9874
   39MOL0     C 5265   8.476   5.105   0.407  0.3193  0.9974  0.5379
   39MOL0     C 5266   8.454   4.991   0.304  0.3538  0.0769  0.0701
   39MOL0     C 5267   8.491   5.040   0.165 -0.1092 -0.6210  0.7155
   39MOL0     O 5268   8.495   4.941   0.071  0.6817  0.4043  0.1679
   39MOL0     C 5269   8.379   4.867   0.054 -0.2583  0.0938 -0.2460
   39MOL0     C 5270   8.398   4.735   0.095 -0.7796  0.3964 -0.0445
   39MOL0     C 5271   8.296   4.637   0.111  0.7300  0.7323  0.4913
   39MOL0     C 5272   8.338   4.509   0.168 -0.3951 -0.2729 -0.3952
   39MOL0     C 5273   8.170   4.669   0.057 -0.0109 -0.3992  0.5186
   39MOL0     C 5274   8.056   4.579   0.044 -0.2401  1.2819 -0.2954
   39MOL0     O 5275   7.956   4.608  -0.042 -0.0388 -0.1729 -0.2134
   39MOL0     C 5276   7.850   4.519  -0.060 -0.9322  0.2506  0.7430
   39MOL0     C 5277   7.863   4.381  -0.063 -0.8838 -0.3837  0.5859
   39MOL0     C 5278   7.770   4.302  -0.130  0.4023  0.9676 -0.8405
   39MOL0     C 5279   7.652   4.364  -0.173 -0.1119  0.1826  0.2971
   39MOL0     O 5280   7.552   4.286  -0.230  0.5329  0.0748  0.0653
   39MOL0     C 5281   7.456   4.362  -0.311  0.7074 -0.5525  0.2755
   39MOL0     C 5282   7.407   4.266  -0.423 -1.1195 -0.5765  0.4997
   39MOL0     C 5283   7.289   4.314  -0.508  0.0084 -0.2738 -0.2862
   39MOL0     C 5284   7.149   4.304  -0.424  0.8358 -0.8195 -0.0199
   39MOL0     C 5285   7.044   4.394  -0.499 -0.0128  0.2166  0.3142
   39MOL0     C 5286   6.977   4.323  -0.617 -0.8336 -0.4994 -0.4985
   39MOL0     C 5287   6.922   4.444  -0.697 -0.1483 -0.8426 -0.1370
   39MOL0     C 5288   6.822   4.389  -0.805  0.2151  0.3365 -0.2631
   39MOL0    Cl 5289   6.730   4.529  -0.869  0.2432 -0.0641  0.0232
   39MOL0     C 5290   7.632   4.502  -0.154  0.3298  0.1408 -0.0747
   39MOL0     C 5291   7.734   4.575  -0.098  1.4248 -0.0263 -0.1746
   39MOL0     O 5292   8.052   4.480   0.125 -0.0430 -0.3585 -0.3026
   39MOL0     C 5293   8.156   4.799   0.002  0.1490 -0.4952  0.3627
   39MOL0     C 5294   8.256   4.901   0.006  0.6651 -0.3077 -0.2560
   39MOL0     N 5295   8.629   5.219   0.657  0.1851 -0.0440 -0.8584
   39MOL0     N 5296   8.609   5.304   0.753  0.7788 -0.4439  0.3562
   39MOL0     C 5297   7.945   6.395   1.035 -0.6900  0.1761  0.3178
   39MOL0     C 5298   7.879   6.518   1.054 -0.4992 -0.5879 -0.9997
   39MOL0     C 5299   7.672   6.894   1.139 -0.3204 -0.1405  0.5864
   39MOL0     C 5300   7.572   6.837   1.222  0.1299 -0.5187 -0.3855
   39MOL0     C 5301   7.460   6.911   1.252  1.2738  0.3203 -1.1183
   39MOL0     C 5302   7.452   7.045   1.216 -0.5528 -0.2212 -0.0680
   39MOL0     O 5303   7.357   7.115   1.280  0.8744 -0.0396  0.2619
   39MOL0     C 5304   7.296   7.234   1.234  0.0023 -0.1467  0.2092
   39MOL0     C 5305   7.150   7.202   1.221  0.6215 -0.8120 -0.0764
   39MOL0     C 5306   7.102   7.078   1.146  0.0678  0.6539 -0.3005
   39MOL0     C 5307   7.136   7.073   0.996  0.3740 -0.6394 -0.0288
   39MOL0     C 5308   7.098   6.936   0.958  0.2841  0.8746  0.6149
   39MOL0     C 5309   7.040   6.829   0.910  0.0809  0.2445 -0.2012
   39MOL0     C 5310   7.554   7.093   1.139 -0.3411  0.2180 -0.0601
   39MOL0     C 5311   7.660   7.022   1.091  0.0751 -0.0667 -0.3635
   39MOL0     C 5312   7.769   7.089   1.017 -0.3108  1.0756 -0.7868
   39MOL0     H 5313   8.024   6.620   1.333  1.1596 -0.3833 -0.4520
   39MOL0     H 5314   8.163   6.416   1.282 -2.2084  1.7899  2.9634
   39MOL0     H 5315   8.135   6.209   0.882  1.6992  2.0647  1.9402
   39MOL0     H 5316   8.004   6.134   0.972  0.0757 -0.1525  1.2493
   39MOL0     H 5317   8.290   6.042   0.979  0.8987  1.2865  1.1382
   39MOL0     H 5318   8.185   6.022   1.120  1.7075  1.0454  0.9513
   39MOL0     H 5319   8.029   5.878   0.967 -2.2178  0.8879 -3.5896
   39MOL0     H 5320   8.102   5.939   0.825  1.7980 -0.1117 -0.2583
   39MOL0     H 5321   8.335   5.853   0.912  0.7637 -3.9629 -0.0415
   39MOL0     H 5322   8.252   5.798   1.054 -3.2196 -0.9617  1.3138
   39MOL0     H 5323   8.193   5.691   0.766 -0.7119  0.5717 -0.4954
   39MOL0     H 5324   8.122   5.629   0.917  2.0234 -1.0693  1.9093
   39MOL0     H 5325   8.421   5.631   0.859 -0.2301 -0.9456  0.0511
   39MOL0     H 5326   8.360   5.591   1.011 -0.5934 -3.4875 -0.9770
   39MOL0     H 5327   8.332   5.441   0.756 -2.0625 -2.5338 -0.1588
   39MOL0     H 5328   8.230   5.400   0.889 -1.0044  1.9058 -1.3120
   39MOL0     H 5329   8.508   5.425   0.971 -0.7147  0.7303 -1.0899
   39MOL0     H 5330   8.390   5.301   1.004 -1.7989  0.5358  0.5533
   39MOL0     H 5331   8.335   5.126   0.777 -1.5440  1.1607 -1.8434
   39MOL0     H 5332   8.395   4.980   0.555 -1.0602  1.6425  2.4018
   39MOL0     H 5333   8.567   4.957   0.536  2.1345  1.5719 -1.5798
   39MOL0     H 5334   8.392   5.174   0.399  1.2542  2.6290  3.2103
   39MOL0     H 5335   8.571   5.155   0.386 -0.5812  3.4167  1.8430
   39MOL0     H 5336   8.500   4.895   0.329 -2.8930 -1.3054  1.1728
   39MOL0     H 5337   8.346   4.975   0.311 -0.0076  2.3395  0.4426
   39MOL0     H 5338   8.417   5.110   0.126  0.5112 -0.2580  0.1664
   39MOL0     H 5339   8.593   5.080   0.166  0.7039 -2.5799  1.8518
   39MOL0     H 5340   8.503   4.726   0.121  0.3566  3.4557 -2.9261
   39MOL0     H 5341   8.288   4.422   0.125 -3.0438  1.8812 -2.0842
   39MOL0     H 5342   8.313   4.504   0.275  0.5014  2.0784 -0.0108
   39MOL0     H 5343   8.445   4.495   0.155  0.1458 -0.2489  2.9823
   39MOL0     H 5344   7.950   4.323  -0.032 -0.1964 -1.1405 -2.4886
   39MOL0     H 5345   7.785   4.195  -0.141  2.3700  1.3864 -3.2896
   39MOL0     H 5346   7.375   4.408  -0.255  2.9816  2.4442  1.3572
   39MOL0     H 5347   7.500   4.445  -0.368 -2.0755 -1.2493 -3.2548
   39MOL0     H 5348   7.495   4.242  -0.484  0.4795 -2.5280  3.3343
   39MOL0     H 5349   7.380   4.167  -0.385 -1.6151 -1.1820 -1.3144
   39MOL0     H 5350   7.283   4.257  -0.601 -1.4707  2.6142 -2.1193
   39MOL0     H 5351   7.295   4.418  -0.542 -2.0072  0.8223  2.3441
   39MOL0     H 5352   7.171   4.362  -0.334  1.5841 -1.9222  0.5209
   39MOL0     H 5353   7.106   4.204  -0.417 -0.7437 -0.2052 -0.4597
   39MOL0     H 5354   6.962   4.418  -0.430  0.1557 -1.0045  0.9639
   39MOL0     H 5355   7.090   4.491  -0.517 -0.1044  0.1607 -0.2616
   39MOL0     H 5356   6.899   4.248  -0.603 -0.0123 -1.2664  0.0362
   39MOL0     H 5357   7.053   4.267  -0.672 -0.4352 -2.1494  1.6152
   39MOL0     H 5358   7.007   4.491  -0.747  0.3029 -0.1278  1.2442
   39MOL0     H 5359   6.875   4.525  -0.639 -0.8662 -0.1262 -1.6671
   39MOL0     H 5360   6.746   4.326  -0.758  0.4909  1.7037  2.1670
   39MOL0     H 5361   6.871   4.325  -0.879  0.5042 -2.5215  2.1767
   39MOL0     H 5362   7.543   4.550  -0.194 -0.5253 -1.3780 -0.0603
   39MOL0     H 5363   7.718   4.682  -0.090 -3.6815 -0.5984  0.5167
   39MOL0     H 5364   8.052   4.820  -0.020 -1.2335 -3.3617  3.3347
   39MOL0     H 5365   8.238   5.003  -0.024 -3.7979  0.6055  4.1296
   39MOL0     H 5366   7.924   6.345   0.941  1.8486  0.0907 -0.2835
   39MOL0     H 5367   7.807   6.546   0.979  0.9967  1.3785 -1.7920
   39MOL0     H 5368   7.582   6.737   1.264 -4.1882  0.5293  3.9543
   39MOL0     H 5369   7.388   6.868   1.321  3.4066 -0.1567  0.9429
   39MOL0     H 5370   7.310   7.314   1.307 -1.5036  0.0559  0.3055
   39MOL0     H 5371   7.337   7.266   1.137 -2.0987  2.7433  0.1545
   39MOL0     H 5372   7.105   7.294   1.182  1.1071 -1.0455 -1.2299
   39MOL0     H 5373   7.108   7.190   1.321  0.8305  1.4246  0.3431
   39MOL0     H 5374   7.144   6.990   1.196  0.8249  1.0402 -0.2530
   39MOL0     H 5375   6.992   7.074   1.150  0.0860  0.9855  2.8881
   39MOL0     H 5376   7.240   7.100   0.978 -0.1588  0.7976 -1.1837
   39MOL0     H 5377   7.068   7.137   0.939 -0.3718  0.1203  1.6404
   39MOL0     H 5378   6.981   6.740   0.899 -1.8286  0.8665  3.4891
   39MOL0     H 5379   7.561   7.200   1.121  2.2344 -0.2653 -2.7408
   39MOL0     H 5380   7.868   7.054   1.049 -0.7658  0.5151  0.0670
   39MOL0     H 5381   7.753   7.091   0.909 -2.4612 -0.7588 -0.5779
   39MOL0     H 5382   7.772   7.196   1.035 -1.8212  1.1450 -0.8221
   40MOL0     O 5383   2.269   8.215   3.048 -0.1822 -0.6063  0.1818
   40MOL0     C 5384   2.294   8.271   2.939  0.2033  0.4942 -0.5197
   40MOL0     O 5385   2.403   8.346   2.903 -0.3315  0.6556 -0.2788
   40MOL0     C 5386   2.500   8.363   2.993 -0.2419  0.2453  1.1426
   40MOL0     C 5387   2.607   8.277   2.996 -0.7830  0.3896  0.2273
   40MOL0     C 5388   2.701   8.296   3.094 -0.0135  0.6670 -0.3968
   40MOL0     C 5389   2.703   8.405   3.174 -0.7695 -0.4846 -0.8360
   40MOL0     O 5390   2.816   8.422   3.259 -0.0733 -0.0654  0.3475
   40MOL0     C 5391   2.800   8.511   3.365  1.0359 -0.6592  0.2059
   40MOL0     C 5392   2.897   8.458   3.468 -0.7903 -0.7409  0.1666
   40MOL0     C 5393   2.847   8.328   3.542  0.5745  0.5095  0.1316
   40MOL0     C 5394   2.942   8.290   3.658  0.2651 -0.5401  0.9435
   40MOL0     C 5395   2.893   8.183   3.755 -0.3458  0.7584 -0.6965
   40MOL0     C 5396   2.846   8.056   3.687 -0.0841  0.1472  0.9510
   40MOL0     C 5397   2.843   7.930   3.779 -1.4370 -0.4445 -0.1308
   40MOL0     C 5398   2.843   7.791   3.704 -0.5911 -0.1722 -0.8877
   40MOL0     N 5399   2.831   7.685   3.800  0.0297  0.0599 -0.3202
   40MOL0     C 5400   2.855   7.677   3.930 -0.2395 -0.0639  0.1246
   40MOL0     C 5401   2.833   7.550   3.972  0.0063 -0.9456 -0.3061
   40MOL0     C 5402   2.836   7.516   4.121  0.1165 -0.1881  0.3282
   40MOL0     C 5403   2.702   7.529   4.192  0.3575  0.3883 -0.6165
   40MOL0     C 5404   2.609   7.429   4.128 -0.3545 -0.4337 -0.0877
   40MOL0     C 5405   2.502   7.396   4.224 -0.2278  0.3649 -0.1104
   40MOL0     O 5406   2.393   7.338   4.158 -0.2931  0.1532  0.4342
   40MOL0     C 5407   2.330   7.244   4.232  1.0819  0.0603 -0.1676
   40MOL0     C 5408   2.322   7.118   4.174  0.4342  0.6119 -0.3743
   40MOL0     C 5409   2.247   7.013   4.232 -0.8455 -0.4575 -0.5648
   40MOL0     C 5410   2.243   6.883   4.162 -1.2046 -1.0251  0.1853
   40MOL0     C 5411   2.178   7.039   4.362 -0.0043 -0.6841  0.2636
   40MOL0     C 5412   2.115   6.939   4.441  0.0696 -0.2435 -0.8990
   40MOL0     O 5413   2.117   6.971   4.571  0.4797  0.0726  0.1364
   40MOL0     C 5414   2.075   6.876   4.654 -0.3758 -0.2338 -0.9476
   40MOL0     C 5415   2.151   6.763   4.678 -0.2201  0.7590  0.5967
   40MOL0     C 5416   2.107   6.664   4.761 -0.3325 -0.9557  0.4759
   40MOL0     C 5417   1.996   6.672   4.822  1.2715  0.0160 -0.1583
   40MOL0     O 5418   1.934   6.567   4.882  0.7542  0.4730 -0.3723
   40MOL0     C 5419   1.992   6.502   4.992 -0.7406 -0.2817 -0.0110
   40MOL0     C 5420   1.919   6.376   5.020  0.8595 -0.1241 -0.4783
   40MOL0     C 5421   1.939   6.320   5.160 -0.2109  0.5664 -1.0347
   40MOL0     C 5422   1.999   6.404   5.274 -0.0545  0.0329 -0.5931
   40MOL0     C 5423   2.015   6.328   5.405 -0.0123  0.6401 -0.7847
   40MOL0     C 5424   2.084   6.398   5.535  0.0661  0.4490 -0.4141
   40MOL0     C 5425   2.233   6.397   5.513  0.1410 -0.1658  0.2741
   40MOL0     C 5426   2.304   6.483   5.620 -0.1666 -0.9956  0.4646
   40MOL0    Cl 5427   2.298   6.661   5.589  0.0156  0.3811 -0.2869
   40MOL0     C 5428   1.907   6.789   4.803 -0.0905  0.6463 -0.1031
   40MOL0     C 5429   1.950   6.894   4.714 -0.2290  0.0515  0.7199
   40MOL0     O 5430   2.074   6.835   4.391 -0.5686  0.5171 -0.2673
   40MOL0     C 5431   2.179   7.172   4.406 -0.0554  0.6165 -0.9453
   40MOL0     C 5432   2.261   7.263   4.352 -0.0653  0.3326  0.1093
   40MOL0     N 5433   2.768   7.491   3.863  0.3962 -0.1958  0.1077
   40MOL0     N 5434   2.790   7.564   3.767  0.0296  0.1181 -0.4007
   40MOL0     C 5435   2.595   8.497   3.168  0.7273  0.8889  0.2897
   40MOL0     C 5436   2.505   8.476   3.072  0.2996 -1.1243  0.6143
   40MOL0     C 5437   2.184   8.252   2.847  0.1607  1.1511 -1.3004
   40MOL0     C 5438   2.099   8.135   2.856 -0.5614 -0.0431  0.2786
   40MOL0     C 5439   2.011   8.109   2.751 -0.1370 -0.3964  0.8222
   40MOL0     C 5440   1.976   8.200   2.652 -0.2633  0.1732 -0.6805
   40MOL0     O 5441   1.869   8.192   2.563  0.0468  0.2552 -0.7363
   40MOL0     C 5442   1.830   8.051   2.531  0.1503 -0.7590  0.1519
   40MOL0     C 5443   1.713   8.002   2.614 -0.1327 -0.8930  0.5571
   40MOL0     C 5444   1.642   7.883   2.543 -1.4113 -0.7941  0.5423
   40MOL0     C 5445   1.508   7.855   2.605 -0.6536 -0.1149  0.3875
   40MOL0     C 5446   1.515   7.768   2.722  0.1689  0.2783  0.5762
   40MOL0     C 5447   1.519   7.700   2.822  0.8775  0.3836 -0.6404
   40MOL0     C 5448   2.046   8.321   2.656 -0.2390 -0.6607  0.5700
   40MOL0     C 5449   2.152   8.348   2.753 -0.4557  0.2036  0.2618
   40MOL0     C 5450   2.218   8.476   2.742 -0.4775  0.1067  0.8850
   40MOL0     H 5451   2.600   8.191   2.930 -2.8179 -0.5043  1.4761
   40MOL0     H 5452   2.779   8.221   3.101 -0.1755  0.5362  0.0520
   40MOL0     H 5453   2.696   8.504   3.399 -0.7899 -5.0460 -4.9992
   40MOL0     H 5454   2.807   8.615   3.331  1.1999  0.1679  2.5814
   40MOL0     H 5455   2.993   8.427   3.427 -1.1779 -2.4250  0.4597
   40MOL0     H 5456   2.918   8.535   3.542 -1.5533 -0.8026  0.4600
   40MOL0     H 5457   2.748   8.346   3.586 -0.8398 -0.8996 -2.2452
   40MOL0     H 5458   2.830   8.241   3.477 -0.3366  1.5504 -1.0984
   40MOL0     H 5459   3.039   8.263   3.615 -1.5877 -0.6315 -3.8144
   40MOL0     H 5460   2.959   8.382   3.715  1.5745 -1.2143  1.6757
   40MOL0     H 5461   2.816   8.217   3.824 -1.5546  1.2642 -2.2316
   40MOL0     H 5462   2.981   8.156   3.814 -0.0095  3.3942  0.1479
   40MOL0     H 5463   2.741   8.073   3.664  0.2076 -1.4141 -1.9445
   40MOL0     H 5464   2.902   8.044   3.594 -2.1875  3.4211 -0.9318
   40MOL0     H 5465   2.757   7.921   3.847  1.1546 -3.1661  3.1823
   40MOL0     H 5466   2.933   7.924   3.841 -1.2538 -1.5072 -0.4702
   40MOL0     H 5467   2.759   7.787   3.634 -1.5002 -1.1233  0.2101
   40MOL0     H 5468   2.932   7.794   3.641  0.9730 -0.2011  1.2171
   40MOL0     H 5469   2.884   7.764   3.989  0.6037  0.9980 -1.7595
   40MOL0     H 5470   2.909   7.582   4.168  1.9974 -0.6636 -1.7308
   40MOL0     H 5471   2.871   7.412   4.120 -2.2403 -1.0904 -2.4588
   40MOL0     H 5472   2.713   7.505   4.298 -0.6238 -1.1746 -0.8333
   40MOL0     H 5473   2.648   7.624   4.183 -1.6615 -0.6613 -0.1347
   40MOL0     H 5474   2.575   7.479   4.037  1.8943  1.7634  0.1815
   40MOL0     H 5475   2.642   7.334   4.084  0.0725  1.5761 -4.6475
   40MOL0     H 5476   2.550   7.330   4.296  1.8571 -0.5785 -2.2366
   40MOL0     H 5477   2.468   7.482   4.283  0.1802 -0.2015  0.9874
   40MOL0     H 5478   2.372   7.096   4.080  1.1533 -1.7167  0.4668
   40MOL0     H 5479   2.310   6.819   4.219  2.5576  2.8571  0.5674
   40MOL0     H 5480   2.286   6.880   4.061 -1.1215 -2.2218  0.2398
   40MOL0     H 5481   2.145   6.835   4.156 -1.3937 -0.6225  0.0161
   40MOL0     H 5482   2.242   6.738   4.625  0.4421  0.4002  1.8687
   40MOL0     H 5483   2.161   6.569   4.766  2.0001  0.2174 -0.6600
   40MOL0     H 5484   2.099   6.491   4.977 -0.8131 -1.0506 -0.0081
   40MOL0     H 5485   1.977   6.570   5.076  0.5493 -0.0081  0.0041
   40MOL0     H 5486   1.816   6.385   4.985  0.6392 -1.8220 -0.3186
   40MOL0     H 5487   1.958   6.300   4.952 -0.4887 -1.1489 -0.1377
   40MOL0     H 5488   2.009   6.236   5.147 -1.5487 -0.8898  0.5950
   40MOL0     H 5489   1.842   6.281   5.194  0.1035  0.6613  0.0058
   40MOL0     H 5490   1.918   6.473   5.301  0.1576 -0.2681  0.9082
   40MOL0     H 5491   2.085   6.469   5.252  0.1478  0.2460  0.6879
   40MOL0     H 5492   1.917   6.287   5.432 -0.5207  3.1472  1.5714
   40MOL0     H 5493   2.079   6.244   5.376  0.0887 -1.0661  3.6111
   40MOL0     H 5494   2.061   6.350   5.631 -1.7648  1.6174 -0.2267
   40MOL0     H 5495   2.054   6.503   5.542 -2.3785 -0.2581  0.7532
   40MOL0     H 5496   2.259   6.437   5.415 -0.6070  1.7049  0.8154
   40MOL0     H 5497   2.266   6.292   5.519 -2.0072 -0.9023 -0.0446
   40MOL0     H 5498   2.409   6.452   5.616  0.7587  1.4204  3.2185
   40MOL0     H 5499   2.260   6.447   5.713 -0.2437  0.2922  0.9464
   40MOL0     H 5500   1.808   6.785   4.846 -0.4271 -3.2902 -0.8853
   40MOL0     H 5501   1.892   6.978   4.677  1.4232 -0.5540 -3.9813
   40MOL0     H 5502   2.134   7.198   4.501  1.9456 -1.1848  0.6000
   40MOL0     H 5503   2.273   7.355   4.407  0.2558 -1.0149  2.3998
   40MOL0     H 5504   2.593   8.585   3.230  0.7375  0.6215  0.6724
   40MOL0     H 5505   2.417   8.539   3.059 -1.2980 -2.9163  2.0946
   40MOL0     H 5506   2.127   8.061   2.930 -0.2881 -0.1852  0.0357
   40MOL0     H 5507   1.961   8.013   2.751  0.0290 -0.4956  1.8683
   40MOL0     H 5508   1.798   8.059   2.427 -0.6122 -0.4797  0.4039
   40MOL0     H 5509   1.914   7.981   2.530  0.1800 -0.7230 -0.7461
   40MOL0     H 5510   1.639   8.083   2.615 -0.4184 -1.1189 -0.4442
   40MOL0     H 5511   1.741   7.984   2.718  2.5118  1.3317  0.3402
   40MOL0     H 5512   1.633   7.911   2.438  1.0132 -2.7711 -0.2932
   40MOL0     H 5513   1.713   7.800   2.551  1.2513  0.9643 -2.5659
   40MOL0     H 5514   1.446   7.801   2.533 -0.2571 -0.1424  0.0610
   40MOL0     H 5515   1.454   7.946   2.632 -0.4868  0.9067 -2.3750
   40MOL0     H 5516   1.508   7.640   2.910  0.1443  0.3788 -0.7323
   40MOL0     H 5517   2.010   8.383   2.574 -0.1127  1.5332  2.1070
   40MOL0     H 5518   2.147   8.543   2.693 -2.2809 -2.8085 -0.7606
   40MOL0     H 5519   2.236   8.521   2.840 -2.5826  1.3345  0.7785
   40MOL0     H 5520   2.308   8.457   2.682 -0.4781 -1.4887  1.3363
   41MOL0     O 5521   3.955   5.818   2.673 -0.0735  0.4941  0.0897
   41MOL0     C 5522   4.010   5.768   2.572 -0.1452  0.3644  0.6403
   41MOL0     O 5523   4.134   5.706   2.589  0.6067  0.0401  1.1081
   41MOL0     C 5524   4.200   5.681   2.706 -0.4586  0.2864 -0.3209
   41MOL0     C 5525   4.240   5.775   2.802  0.1160  0.0815 -0.3438
   41MOL0     C 5526   4.321   5.738   2.914 -0.5971 -0.1143  0.6939
   41MOL0     C 5527   4.349   5.600   2.935 -1.0464  0.1366  0.3316
   41MOL0     O 5528   4.407   5.551   3.050  0.0216  0.0702 -1.1189
   41MOL0     C 5529   4.484   5.637   3.137  0.0221 -0.0631 -0.8556
   41MOL0     C 5530   4.613   5.568   3.175  0.4235 -0.3811  0.0191
   41MOL0     C 5531   4.695   5.564   3.043 -1.2213  0.8840  0.0630
   41MOL0     C 5532   4.837   5.537   3.085 -0.0953 -0.6957 -2.0523
   41MOL0     C 5533   4.930   5.484   2.967 -0.7373  0.3322 -0.4969
   41MOL0     C 5534   5.063   5.413   3.029 -0.7329  0.2134 -0.5067
   41MOL0     C 5535   5.131   5.317   2.924  1.2328 -0.8790  0.3496
   41MOL0     C 5536   5.260   5.235   2.964  0.7969 -0.3205 -0.7361
   41MOL0     N 5537   5.294   5.141   2.859 -0.0508 -0.2076 -0.6959
   41MOL0     C 5538   5.385   5.167   2.759  0.2174  0.6618  0.1528
   41MOL0     C 5539   5.403   5.048   2.703  0.3042 -0.1522  0.5077
   41MOL0     C 5540   5.477   5.014   2.586  0.3697 -0.1792  0.1077
   41MOL0     C 5541   5.393   4.943   2.479 -0.1191 -0.2033  0.4187
   41MOL0     C 5542   5.465   4.924   2.351 -1.7378 -0.0051 -0.4344
   41MOL0     C 5543   5.394   4.844   2.251 -0.1226  0.0902 -0.0352
   41MOL0     O 5544   5.385   4.707   2.284 -0.2877 -0.3929 -0.3612
   41MOL0     C 5545   5.491   4.614   2.276  0.3226 -0.1117  0.2864
   41MOL0     C 5546   5.610   4.648   2.224  0.2222  0.2417  0.8041
   41MOL0     C 5547   5.711   4.560   2.233 -0.2408  1.4019  0.1833
   41MOL0     C 5548   5.836   4.601   2.170  0.5994  0.0982  0.0985
   41MOL0     C 5549   5.700   4.428   2.296 -0.6159  0.2170 -0.4004
   41MOL0     C 5550   5.796   4.326   2.304 -0.2960 -0.8725 -0.5834
   41MOL0     O 5551   5.749   4.197   2.300  0.7339  0.0962  0.2104
   41MOL0     C 5552   5.839   4.097   2.339  0.4101  0.7222 -0.9737
   41MOL0     C 5553   5.962   4.078   2.274  0.2201 -0.0840  0.2367
   41MOL0     C 5554   6.059   3.994   2.323 -0.2796 -0.7697 -0.8769
   41MOL0     C 5555   6.034   3.920   2.437 -0.4731  0.1256  0.6949
   41MOL0     O 5556   6.113   3.829   2.489 -0.6939 -0.2897 -0.8524
   41MOL0     C 5557   6.254   3.840   2.468  1.1771  0.3755  1.3224
   41MOL0     C 5558   6.326   3.775   2.585  0.2888 -0.3051  0.4656
   41MOL0     C 5559   6.311   3.622   2.589  0.5175 -0.3333  0.5485
   41MOL0     C 5560   6.404   3.575   2.700 -0.2466  1.6987 -0.7345
   41MOL0     C 5561   6.402   3.426   2.698 -0.2816 -0.7835  0.8278
   41MOL0     C 5562   6.459   3.350   2.827  0.2007 -0.7194  0.3552
   41MOL0     C 5563   6.372   3.347   2.948  0.1110  0.5274 -0.6867
   41MOL0     C 5564   6.355   3.207   3.012 -0.1188  0.1084 -0.1072
   41MOL0    Cl 5565   6.304   3.098   2.879  0.2371 -0.1064 -0.3962
   41MOL0     C 5566   5.912   3.930   2.498  0.6430  0.7134 -0.3134
   41MOL0     C 5567   5.808   4.005   2.443  1.1946  0.0685  1.0711
   41MOL0     O 5568   5.917   4.367   2.336  0.0589  0.3887 -0.4802
   41MOL0     C 5569   5.569   4.403   2.343 -0.8876 -0.8361  0.2124
   41MOL0     C 5570   5.466   4.496   2.341 -0.7152  0.1879  0.6871
   41MOL0     N 5571   5.348   4.949   2.786  0.3070 -0.1972  0.2968
   41MOL0     N 5572   5.273   5.009   2.874 -0.4526 -0.2230 -1.1310
   41MOL0     C 5573   4.306   5.503   2.842  0.7685 -1.3425 -0.0991
   41MOL0     C 5574   4.228   5.542   2.730  0.1225  0.0630  0.3618
   41MOL0     C 5575   3.950   5.793   2.438 -0.4393 -0.6180 -1.3381
   41MOL0     C 5576   3.997   5.719   2.323  0.2256  0.6909  0.5337
   41MOL0     C 5577   3.947   5.753   2.197  0.5003 -0.2433  0.0498
   41MOL0     C 5578   3.850   5.856   2.184  0.4398  0.0174  0.3053
   41MOL0     O 5579   3.788   5.852   2.058 -0.1021  0.3105  0.4603
   41MOL0     C 5580   3.726   5.960   1.994 -0.5630 -0.6792  0.0511
   41MOL0     C 5581   3.573   5.946   2.017  0.8107  0.8001 -0.5315
   41MOL0     C 5582   3.502   5.833   1.944 -0.7552  0.1689  0.4753
   41MOL0     C 5583   3.540   5.821   1.795  0.2960  0.7588  0.8713
   41MOL0     C 5584   3.472   5.706   1.733 -0.1722  1.2967 -0.2491
   41MOL0     C 5585   3.413   5.612   1.684 -0.2848  0.5968 -0.0778
   41MOL0     C 5586   3.792   5.921   2.294  0.1430  0.2378  0.2319
   41MOL0     C 5587   3.852   5.889   2.419 -0.6919 -0.5077  0.3442
   41MOL0     C 5588   3.802   5.981   2.529 -0.0255 -0.5401 -0.4198
   41MOL0     H 5589   4.215   5.878   2.777  0.3375 -0.1196 -1.4541
   41MOL0     H 5590   4.357   5.814   2.982  1.5758 -1.7494  1.4977
   41MOL0     H 5591   4.420   5.648   3.225  0.4986 -0.0695 -0.5101
   41MOL0     H 5592   4.514   5.731   3.090 -0.9572 -1.5112 -4.8644
   41MOL0     H 5593   4.664   5.628   3.250 -2.6334 -0.3224  2.2382
   41MOL0     H 5594   4.593   5.474   3.227  0.7286 -1.5086 -1.7959
   41MOL0     H 5595   4.663   5.482   2.978  2.1278 -1.3183  0.9359
   41MOL0     H 5596   4.692   5.658   2.987  1.1716  1.5035  0.8652
   41MOL0     H 5597   4.871   5.630   3.131 -1.4310 -0.1151 -2.1815
   41MOL0     H 5598   4.837   5.461   3.164 -6.0957 -0.3765 -1.2782
   41MOL0     H 5599   4.956   5.560   2.892  1.3810 -1.2664 -1.4719
   41MOL0     H 5600   4.871   5.415   2.907 -2.4932 -0.1292  1.6465
   41MOL0     H 5601   5.132   5.489   3.066  1.2106 -1.7741  0.1898
   41MOL0     H 5602   5.039   5.357   3.121 -1.0543  3.0394  1.2421
   41MOL0     H 5603   5.162   5.382   2.842 -0.5576 -1.6231 -0.9881
   41MOL0     H 5604   5.053   5.245   2.895 -0.3733  0.6029  0.8308
   41MOL0     H 5605   5.331   5.315   2.989 -1.0554  1.4490 -0.9016
   41MOL0     H 5606   5.228   5.177   3.051  0.0318  1.9129  0.5519
   41MOL0     H 5607   5.425   5.259   2.717  2.3458 -1.0674 -1.8417
   41MOL0     H 5608   5.555   4.947   2.624 -0.1190 -0.2375  1.0220
   41MOL0     H 5609   5.519   5.110   2.552 -1.5598  2.0636  3.4489
   41MOL0     H 5610   5.374   4.841   2.513 -4.6583  0.6705  1.0978
   41MOL0     H 5611   5.292   4.975   2.454 -0.3802 -2.7020 -2.3398
   41MOL0     H 5612   5.482   5.029   2.324  2.7358 -0.1908  0.9139
   41MOL0     H 5613   5.565   4.884   2.366 -1.5798  0.6138  0.2162
   41MOL0     H 5614   5.289   4.872   2.249 -0.0395  0.3957 -0.3848
   41MOL0     H 5615   5.442   4.856   2.153  0.0376 -0.7649 -0.0651
   41MOL0     H 5616   5.616   4.749   2.184 -3.2871 -0.2317 -1.3578
   41MOL0     H 5617   5.810   4.682   2.101 -2.6514  0.2053  1.3099
   41MOL0     H 5618   5.897   4.528   2.115  2.9947  1.9275  0.1449
   41MOL0     H 5619   5.893   4.651   2.248  1.2669  0.0629 -0.3571
   41MOL0     H 5620   5.986   4.157   2.203  0.3297  1.8965  2.3843
   41MOL0     H 5621   6.154   3.992   2.271  1.2482  4.1570  1.1304
   41MOL0     H 5622   6.276   3.787   2.374 -3.5923 -0.9065  0.6874
   41MOL0     H 5623   6.279   3.946   2.456 -0.8030  0.5735 -2.6334
   41MOL0     H 5624   6.433   3.790   2.570  0.1504  2.0941  1.4808
   41MOL0     H 5625   6.296   3.822   2.679  0.9483  1.0266  0.0310
   41MOL0     H 5626   6.338   3.588   2.488  1.7732 -0.5239  0.9316
   41MOL0     H 5627   6.204   3.608   2.606  0.3803  2.2031  2.3917
   41MOL0     H 5628   6.374   3.612   2.798 -1.3169  1.4755 -0.9703
   41MOL0     H 5629   6.507   3.601   2.676 -0.6093  0.4925 -4.0948
   41MOL0     H 5630   6.305   3.392   2.660 -2.2546  2.5063  2.4580
   41MOL0     H 5631   6.472   3.395   2.620  0.7849 -1.2225  1.9362
   41MOL0     H 5632   6.549   3.400   2.863 -1.3882  1.3587  1.6055
   41MOL0     H 5633   6.500   3.254   2.794 -0.4325  0.0600 -3.0970
   41MOL0     H 5634   6.271   3.374   2.916 -0.4926 -1.1946 -0.3300
   41MOL0     H 5635   6.403   3.418   3.025  0.8918  0.6650 -1.1140
   41MOL0     H 5636   6.287   3.195   3.097  0.3207 -0.4861  0.1651
   41MOL0     H 5637   6.456   3.175   3.040  0.2586  0.3222 -1.1724
   41MOL0     H 5638   5.890   3.863   2.581  1.7839 -0.7335 -1.1301
   41MOL0     H 5639   5.708   4.004   2.486  0.1805 -1.2243 -1.1253
   41MOL0     H 5640   5.553   4.309   2.397 -0.7676 -1.1137 -0.2316
   41MOL0     H 5641   5.365   4.476   2.377 -0.2604 -1.8843  0.9145
   41MOL0     H 5642   4.326   5.399   2.864 -0.1916 -1.1429  1.9398
   41MOL0     H 5643   4.198   5.469   2.656 -1.5632  1.5348 -0.4981
   41MOL0     H 5644   4.067   5.637   2.336 -0.4189  0.3755  2.3418
   41MOL0     H 5645   3.980   5.694   2.112 -0.5386 -1.6380  0.5891
   41MOL0     H 5646   3.769   6.054   2.029  0.9378 -1.7053  1.1443
   41MOL0     H 5647   3.748   5.961   1.887  0.7712  2.4392  0.2562
   41MOL0     H 5648   3.515   6.030   1.977 -2.4138 -2.2616 -2.9616
   41MOL0     H 5649   3.547   5.925   2.121 -1.4384 -0.9151 -1.3458
   41MOL0     H 5650   3.547   5.746   1.992 -0.3237  1.6612  2.9510
   41MOL0     H 5651   3.392   5.833   1.941 -0.7432  0.3554 -0.0953
   41MOL0     H 5652   3.645   5.792   1.791  0.0044 -0.2182  0.0245
   41MOL0     H 5653   3.519   5.916   1.746 -2.1078 -0.6011 -0.9501
   41MOL0     H 5654   3.368   5.531   1.631 -0.4156  1.7256 -1.7585
   41MOL0     H 5655   3.704   5.982   2.275  1.5405  1.8153 -1.5677
   41MOL0     H 5656   3.892   6.035   2.561  0.7740 -0.5894 -2.4432
   41MOL0     H 5657   3.727   6.052   2.491 -1.6869 -3.1065 -2.2429
   41MOL0     H 5658   3.752   5.931   2.612 -2.5488  1.9778 -0.2550
   42MOL0     O 5659   1.910   1.814   8.626  0.0914  0.1212  0.5678
   42MOL0     C 5660   1.852   1.833   8.735  0.2187 -0.2446 -0.0306
   42MOL0     O 5661   1.789   1.726   8.806 -0.3036  0.4192  0.1714
   42MOL0     C 5662   1.785   1.597   8.764  0.2015 -0.0683 -0.8637
   42MOL0     C 5663   1.669   1.524   8.769  0.8468  1.1577 -0.1326
   42MOL0     C 5664   1.659   1.386   8.735 -0.6763 -0.4379 -0.5199
   42MOL0     C 5665   1.773   1.318   8.684  0.2108 -0.0355  0.1872
   42MOL0     O 5666   1.783   1.196   8.636  0.0880 -0.3789 -0.3164
   42MOL0     C 5667   1.666   1.113   8.663  0.1266 -0.4531 -0.9919
   42MOL0     C 5668   1.680   0.959   8.639 -0.0447  0.7395 -0.4409
   42MOL0     C 5669   1.740   0.927   8.504  0.4251 -0.1454  0.2394
   42MOL0     C 5670   1.756   0.782   8.473  0.1432  0.2128 -0.3836
   42MOL0     C 5671   1.851   0.770   8.358 -0.1295  1.0503  0.6576
   42MOL0     C 5672   1.848   0.618   8.296  0.2468 -0.4913 -0.3610
   42MOL0     C 5673   1.962   0.593   8.201 -0.8225  0.2456  0.1127
   42MOL0     C 5674   1.940   0.651   8.064  0.7231  0.2156 -0.4088
   42MOL0     N 5675   2.055   0.630   7.978  0.3807 -0.8874  0.2130
   42MOL0     C 5676   2.054   0.551   7.868 -0.3203  0.8262  0.0578
   42MOL0     C 5677   2.177   0.545   7.824 -0.9824  0.4910 -0.4733
   42MOL0     C 5678   2.217   0.454   7.709 -0.5364  0.5042 -0.4087
   42MOL0     C 5679   2.358   0.401   7.733  0.4667  0.4660 -0.4007
   42MOL0     C 5680   2.384   0.302   7.614  0.8398 -0.7362 -0.1666
   42MOL0     C 5681   2.525   0.244   7.636  0.6883 -0.7769  0.8315
   42MOL0     O 5682   2.623   0.347   7.637  1.1579  0.1822 -0.5278
   42MOL0     C 5683   2.747   0.317   7.637 -0.6381  0.4159  0.6896
   42MOL0     C 5684   2.831   0.414   7.578 -0.1535  0.2231 -0.2952
   42MOL0     C 5685   2.960   0.388   7.540 -0.7763 -0.2637  0.2978
   42MOL0     C 5686   3.035   0.463   7.431  0.3191 -0.4301 -0.4396
   42MOL0     C 5687   3.016   0.277   7.597  0.1982  1.0242 -1.0247
   42MOL0     C 5688   3.150   0.228   7.563 -0.3110  0.2498 -0.4100
   42MOL0     O 5689   3.155   0.094   7.537  0.2727 -0.2552 -0.0212
   42MOL0     C 5690   3.274   0.035   7.496  0.7233 -0.2483  0.9603
   42MOL0     C 5691   3.380   0.098   7.416 -0.5209  0.5593 -1.0622
   42MOL0     C 5692   3.478   0.029   7.349 -0.1346  0.3156  0.4188
   42MOL0     C 5693   3.479  -0.111   7.363  0.2230  0.9844  0.3319
   42MOL0     O 5694   3.569  -0.179   7.279 -1.0220 -1.2607  0.1310
   42MOL0     C 5695   3.597  -0.312   7.284 -0.1365 -0.1466  0.3371
   42MOL0     C 5696   3.717  -0.327   7.183 -0.1189 -0.1571 -0.3625
   42MOL0     C 5697   3.771  -0.465   7.187  0.1274 -0.1124 -0.2354
   42MOL0     C 5698   3.882  -0.481   7.292  0.0512  0.7976  0.9298
   42MOL0     C 5699   3.984  -0.590   7.253  0.7203 -0.0805  0.1297
   42MOL0     C 5700   3.929  -0.736   7.241 -0.1629  0.2051 -0.5474
   42MOL0     C 5701   3.857  -0.778   7.371  0.7655  0.2823 -0.1057
   42MOL0     C 5702   3.861  -0.930   7.398 -0.4380 -0.2351 -0.0189
   42MOL0    Cl 5703   3.792  -1.019   7.259 -0.4272 -0.1193 -0.3202
   42MOL0     C 5704   3.387  -0.174   7.445  0.9106 -0.2593  0.6720
   42MOL0     C 5705   3.284  -0.101   7.503 -0.0296  0.0782  0.2677
   42MOL0     O 5706   3.244   0.304   7.561 -0.4957  0.6448 -0.0726
   42MOL0     C 5707   2.938   0.190   7.683  0.2956  1.1894  0.5158
   42MOL0     C 5708   2.804   0.205   7.687 -0.1072  0.1701 -0.0503
   42MOL0     N 5709   2.263   0.612   7.922  0.4732  0.2282  0.6862
   42MOL0     N 5710   2.184   0.664   8.008  0.9882  0.1744  0.3281
   42MOL0     C 5711   1.891   1.398   8.657 -0.6218 -0.4555 -0.5144
   42MOL0     C 5712   1.899   1.532   8.707 -0.1690  1.1284  0.8420
   42MOL0     C 5713   1.846   1.971   8.786  0.5041 -0.7602  0.7100
   42MOL0     C 5714   1.777   1.996   8.906 -1.0625  1.7578 -0.0390
   42MOL0     C 5715   1.748   2.121   8.961  0.1836  0.4435  0.2107
   42MOL0     C 5716   1.797   2.233   8.897 -0.6259 -1.0631  0.4040
   42MOL0     O 5717   1.784   2.367   8.938  0.4173  0.3117  0.4007
   42MOL0     C 5718   1.688   2.387   9.045 -0.1723 -0.7371  0.1527
   42MOL0     C 5719   1.648   2.536   9.043 -0.3571  0.3804  0.4747
   42MOL0     C 5720   1.563   2.581   9.162 -0.2033 -0.1002  0.2123
   42MOL0     C 5721   1.505   2.724   9.135 -0.1313 -0.0075 -1.1999
   42MOL0     C 5722   1.614   2.826   9.143 -0.1239 -0.0309 -0.3784
   42MOL0     C 5723   1.718   2.890   9.142 -0.3771  0.1351 -0.0615
   42MOL0     C 5724   1.850   2.209   8.764 -0.1545 -1.0798 -0.4492
   42MOL0     C 5725   1.873   2.084   8.703  0.2785 -0.7706 -0.2800
   42MOL0     C 5726   1.924   2.087   8.558  0.4148 -0.2536  0.7866
   42MOL0     H 5727   1.583   1.575   8.811  1.4183  2.1465 -0.1132
   42MOL0     H 5728   1.565   1.335   8.754  0.5518 -2.1058  1.4908
   42MOL0     H 5729   1.587   1.159   8.603 -1.4848 -0.4698  1.0056
   42MOL0     H 5730   1.647   1.122   8.770 -2.3401 -2.1958 -1.1859
   42MOL0     H 5731   1.735   0.908   8.719 -2.6880 -0.2835  0.8587
   42MOL0     H 5732   1.579   0.917   8.640 -1.9918  4.7583  3.0722
   42MOL0     H 5733   1.681   0.969   8.423 -0.0268 -0.4605  0.4022
   42MOL0     H 5734   1.842   0.967   8.514  0.3880 -0.5865  3.5953
   42MOL0     H 5735   1.786   0.718   8.556  3.4833  0.8440 -0.9299
   42MOL0     H 5736   1.659   0.744   8.441 -1.2953  1.8902  1.7104
   42MOL0     H 5737   1.955   0.785   8.389  0.9971 -0.4314 -2.0727
   42MOL0     H 5738   1.837   0.850   8.284 -0.2809  0.9509  0.5792
   42MOL0     H 5739   1.864   0.550   8.381 -2.3449 -0.1839  0.4673
   42MOL0     H 5740   1.753   0.597   8.246 -1.6472  2.6410  1.5965
   42MOL0     H 5741   1.971   0.488   8.174  3.4278  1.1184 -2.9401
   42MOL0     H 5742   2.056   0.624   8.246  0.6747 -0.2629 -2.4795
   42MOL0     H 5743   1.856   0.595   8.022  2.1986 -2.0670 -0.5487
   42MOL0     H 5744   1.921   0.757   8.081  1.2498  0.1058  1.0785
   42MOL0     H 5745   1.966   0.505   7.824  0.8999 -0.7302 -0.8737
   42MOL0     H 5746   2.203   0.504   7.613 -0.9678 -1.1000 -1.2123
   42MOL0     H 5747   2.135   0.382   7.716  0.2588 -0.5482 -1.5368
   42MOL0     H 5748   2.420   0.491   7.738 -2.5401  2.6961 -0.6933
   42MOL0     H 5749   2.352   0.347   7.828 -2.3975  2.9841  1.0179
   42MOL0     H 5750   2.301   0.231   7.616 -0.2411  0.4867 -0.4118
   42MOL0     H 5751   2.389   0.360   7.521  3.3786 -0.4161  0.0774
   42MOL0     H 5752   2.534   0.197   7.735 -1.3157 -1.9730  0.4999
   42MOL0     H 5753   2.553   0.169   7.562  2.4203 -1.0258  1.6926
   42MOL0     H 5754   2.802   0.513   7.543  2.9705  1.2874 -0.2314
   42MOL0     H 5755   3.107   0.541   7.461  0.1865 -0.6536  0.4856
   42MOL0     H 5756   2.960   0.505   7.364 -1.3174 -2.1744  0.2059
   42MOL0     H 5757   3.085   0.387   7.371 -0.4966 -0.7189 -0.7577
   42MOL0     H 5758   3.384   0.205   7.399  0.4858  0.5474 -0.9669
   42MOL0     H 5759   3.552   0.071   7.282  0.2974 -1.1486 -0.0637
   42MOL0     H 5760   3.613  -0.346   7.387 -3.8435 -0.1101  1.0529
   42MOL0     H 5761   3.508  -0.368   7.255 -0.8450  1.1568 -0.1078
   42MOL0     H 5762   3.669  -0.317   7.085 -1.2746 -0.8635  0.1001
   42MOL0     H 5763   3.798  -0.256   7.194 -0.2683  0.1771 -1.3637
   42MOL0     H 5764   3.801  -0.495   7.086 -2.0506 -1.3394 -0.5826
   42MOL0     H 5765   3.688  -0.532   7.211  1.1360 -2.0343 -1.7793
   42MOL0     H 5766   3.835  -0.499   7.389 -1.4763 -0.2919  0.0288
   42MOL0     H 5767   3.935  -0.385   7.295  0.2354  0.6872  1.4477
   42MOL0     H 5768   4.039  -0.564   7.162 -0.5831 -0.1665 -0.7110
   42MOL0     H 5769   4.065  -0.588   7.325  2.7534 -2.6170 -1.8610
   42MOL0     H 5770   4.012  -0.805   7.227  1.6977  1.0124  4.2695
   42MOL0     H 5771   3.846  -0.738   7.170 -1.7806  0.0014  1.2634
   42MOL0     H 5772   3.754  -0.741   7.368 -0.5167 -2.4320  3.1732
   42MOL0     H 5773   3.910  -0.723   7.449 -0.1573 -1.1196  1.5785
   42MOL0     H 5774   3.805  -0.957   7.489 -1.9041  0.3927 -0.7082
   42MOL0     H 5775   3.968  -0.953   7.410  0.1882  1.8406 -1.2199
   42MOL0     H 5776   3.395  -0.280   7.464  3.9935 -0.7513 -2.4080
   42MOL0     H 5777   3.205  -0.148   7.560  0.2789  0.5860  1.1377
   42MOL0     H 5778   2.977   0.105   7.737  2.3149  1.6043 -0.2205
   42MOL0     H 5779   2.737   0.135   7.735  0.2265  1.3754  2.3099
   42MOL0     H 5780   1.969   1.355   8.594 -1.9488 -0.0940 -2.5120
   42MOL0     H 5781   1.995   1.582   8.705  0.2872  0.2592 -0.6729
   42MOL0     H 5782   1.757   1.912   8.972  1.9271  3.1420  2.9124
   42MOL0     H 5783   1.690   2.126   9.053 -1.1408 -1.0734 -0.5216
   42MOL0     H 5784   1.595   2.329   9.042 -0.7145  0.1345 -0.4093
   42MOL0     H 5785   1.727   2.363   9.145 -1.2222  0.0583  0.7748
   42MOL0     H 5786   1.601   2.565   8.949 -0.5736 -1.2406  0.0448
   42MOL0     H 5787   1.737   2.599   9.054 -1.6378  2.2587  0.4646
   42MOL0     H 5788   1.489   2.504   9.187 -1.2813  1.1423  1.0078
   42MOL0     H 5789   1.618   2.589   9.256 -1.6277  1.1538  0.9958
   42MOL0     H 5790   1.424   2.736   9.208 -1.1510 -0.5796 -2.2142
   42MOL0     H 5791   1.449   2.729   9.041  0.3768 -2.3299 -1.6788
   42MOL0     H 5792   1.808   2.947   9.140 -1.4347  1.9093  0.8241
   42MOL0     H 5793   1.881   2.302   8.717  1.9345 -1.1880  0.5881
   42MOL0     H 5794   1.924   2.188   8.518 -2.4991 -0.1979  0.6756
   42MOL0     H 5795   2.026   2.049   8.550  0.3501 -0.8208  2.1986
   42MOL0     H 5796   1.868   2.018   8.494  2.8941 -1.9253  0.2636
   43MOL0     O 5797   0.877   5.998   4.158 -0.0767  0.4405 -0.0885
   43MOL0     C 5798   0.955   5.900   4.145 -0.2966  0.7289 -0.4365
   43MOL0     O 5799   0.958   5.803   4.043  0.3932  0.2352  0.3514
   43MOL0     C 5800   0.874   5.807   3.937 -0.7335 -0.2563 -0.0031
   43MOL0     C 5801   0.851   5.921   3.860  0.2230 -0.1810 -0.3801
   43MOL0     C 5802   0.765   5.920   3.747 -0.6725 -0.1514  0.8815
   43MOL0     C 5803   0.715   5.798   3.703 -0.2292  0.4690  0.7251
   43MOL0     O 5804   0.627   5.786   3.597 -0.3446 -0.4676  0.2648
   43MOL0     C 5805   0.642   5.878   3.485  0.4293 -0.2581 -0.2812
   43MOL0     C 5806   0.571   6.010   3.495  0.3475  0.9747 -0.1909
   43MOL0     C 5807   0.632   6.108   3.387  1.0642 -0.0327  0.3482
   43MOL0     C 5808   0.758   6.191   3.424 -0.2106 -0.1335  0.0853
   43MOL0     C 5809   0.796   6.295   3.323  0.5054 -0.2453  0.3517
   43MOL0     C 5810   0.902   6.398   3.367 -0.0142 -0.4033 -0.1157
   43MOL0     C 5811   0.906   6.488   3.236  0.2009 -0.6748  0.0097
   43MOL0     C 5812   0.796   6.591   3.216  0.7911  0.2753 -0.5884
   43MOL0     N 5813   0.834   6.714   3.134  0.0787  0.0471 -1.4382
   43MOL0     C 5814   0.935   6.802   3.150  1.2330  0.6658  0.3604
   43MOL0     C 5815   0.902   6.906   3.070 -1.0366 -0.1644  0.8428
   43MOL0     C 5816   0.977   7.041   3.053 -0.8981  0.2129 -0.3463
   43MOL0     C 5817   0.915   7.153   3.140  0.1223  0.5255  0.6473
   43MOL0     C 5818   0.972   7.290   3.088 -0.0455  0.4367 -0.1357
   43MOL0     C 5819   0.945   7.331   2.942  0.3871  0.4238  0.3808
   43MOL0     O 5820   0.925   7.472   2.918 -0.5545 -0.8285 -0.6151
   43MOL0     C 5821   1.018   7.568   2.951  0.4226 -0.1330 -0.5681
   43MOL0     C 5822   0.967   7.699   2.955  0.8705 -0.2892 -0.8548
   43MOL0     C 5823   1.045   7.807   2.991 -0.0942 -0.6975  0.4318
   43MOL0     C 5824   0.980   7.940   3.026 -0.0775  0.1005 -0.3896
   43MOL0     C 5825   1.182   7.790   3.027  0.3301 -1.0324  0.0549
   43MOL0     C 5826   1.272   7.901   3.082  0.6467 -0.2297  0.3442
   43MOL0     O 5827   1.376   7.872   3.175  0.2252  1.0738 -0.6953
   43MOL0     C 5828   1.450   7.976   3.205 -0.0673 -0.0753  0.3582
   43MOL0     C 5829   1.562   8.014   3.135 -0.0421  0.4207  0.2881
   43MOL0     C 5830   1.627   8.135   3.153  0.1447 -1.0167 -0.2745
   43MOL0     C 5831   1.604   8.216   3.263  0.1787 -0.5025  1.2894
   43MOL0     O 5832   1.665   8.335   3.291  0.6052  0.2334  0.1750
   43MOL0     C 5833   1.639   8.444   3.189  0.1614  0.0219 -0.0430
   43MOL0     C 5834   1.561   8.560   3.247 -0.0148  0.3459  0.7295
   43MOL0     C 5835   1.623   8.597   3.383  0.5055  0.8136  0.7183
   43MOL0     C 5836   1.535   8.699   3.461  0.1095 -0.2421 -0.0751
   43MOL0     C 5837   1.593   8.746   3.596 -0.0116  0.0213  0.7401
   43MOL0     C 5838   1.494   8.835   3.667  0.2794  0.0457  0.0512
   43MOL0     C 5839   1.536   8.888   3.799  0.5705 -0.0943  0.4780
   43MOL0     C 5840   1.589   9.033   3.811  1.4887  0.2461  0.9344
   43MOL0    Cl 5841   1.520   9.147   3.697 -0.2779 -0.4004 -0.1137
   43MOL0     C 5842   1.493   8.178   3.343  0.2078 -0.1751  0.7445
   43MOL0     C 5843   1.417   8.068   3.312  0.3115 -0.0360  0.0615
   43MOL0     O 5844   1.258   8.013   3.037  0.9804 -0.3549 -0.4793
   43MOL0     C 5845   1.227   7.660   3.025 -0.7039 -0.3976 -0.9410
   43MOL0     C 5846   1.153   7.552   2.985  1.1277  0.2050  0.2052
   43MOL0     N 5847   0.792   6.870   2.986 -1.2973  0.0788 -0.1834
   43MOL0     N 5848   0.763   6.762   3.037 -0.1795  0.3129 -0.2533
   43MOL0     C 5849   0.751   5.683   3.775 -0.4334  0.4770 -0.2905
   43MOL0     C 5850   0.830   5.684   3.892 -0.6051 -0.5247 -0.4215
   43MOL0     C 5851   1.042   5.884   4.263 -0.2701  0.5457  0.0115
   43MOL0     C 5852   1.091   5.998   4.329  0.8182  0.2953 -0.9441
   43MOL0     C 5853   1.179   5.986   4.430 -0.3750 -0.4326 -0.9442
   43MOL0     C 5854   1.213   5.854   4.487  0.4713  0.3015  0.1559
   43MOL0     O 5855   1.309   5.827   4.583 -0.5691 -0.4219  0.4730
   43MOL0     C 5856   1.391   5.930   4.638 -0.0586  0.4769  0.5134
   43MOL0     C 5857   1.500   5.875   4.729 -0.5466  0.4220  0.4555
   43MOL0     C 5858   1.574   5.760   4.660  0.5048  0.1876  0.4003
   43MOL0     C 5859   1.709   5.708   4.714 -0.8094 -0.9325  0.3556
   43MOL0     C 5860   1.692   5.643   4.838  1.2282  0.5578  1.0953
   43MOL0     C 5861   1.659   5.579   4.936  0.0926 -1.4723 -0.4983
   43MOL0     C 5862   1.150   5.742   4.428  0.0776 -0.5219 -0.9782
   43MOL0     C 5863   1.062   5.751   4.316 -0.8306 -0.2193  0.4557
   43MOL0     C 5864   1.023   5.618   4.269  0.2913  0.3863  0.1033
   43MOL0     H 5865   0.899   6.016   3.880  2.7054 -1.8634  2.5760
   43MOL0     H 5866   0.742   6.021   3.714 -3.2247 -0.1469  2.3527
   43MOL0     H 5867   0.584   5.835   3.402 -0.4470  0.1382  0.1102
   43MOL0     H 5868   0.748   5.890   3.462  0.1241  0.5219 -1.3740
   43MOL0     H 5869   0.464   6.003   3.472  0.6742  0.1834 -1.5961
   43MOL0     H 5870   0.570   6.045   3.598 -1.8086 -0.9221  0.5126
   43MOL0     H 5871   0.653   6.046   3.299 -2.7112 -0.6896 -0.2577
   43MOL0     H 5872   0.552   6.176   3.356  1.3830  0.2519  0.1330
   43MOL0     H 5873   0.741   6.242   3.519 -0.3182 -1.7499  0.9825
   43MOL0     H 5874   0.839   6.119   3.444  0.3068  0.3923 -0.0958
   43MOL0     H 5875   0.709   6.351   3.288 -2.6090 -4.8088 -0.0866
   43MOL0     H 5876   0.814   6.230   3.237 -1.7215 -2.5991  1.5192
   43MOL0     H 5877   0.880   6.458   3.456  3.8501  1.1700 -0.0357
   43MOL0     H 5878   0.998   6.349   3.388 -0.1506 -0.5674  0.1347
   43MOL0     H 5879   0.888   6.423   3.150 -0.6043 -2.5083  1.4885
   43MOL0     H 5880   1.004   6.534   3.221 -0.4217  0.8909  0.5002
   43MOL0     H 5881   0.702   6.543   3.185  0.6356  0.1400  0.0766
   43MOL0     H 5882   0.769   6.622   3.317  0.9286 -0.9208 -0.1801
   43MOL0     H 5883   1.020   6.792   3.217  1.1627  1.4081  0.5730
   43MOL0     H 5884   0.979   7.068   2.947 -1.7296  0.1511 -0.3868
   43MOL0     H 5885   1.081   7.036   3.085  0.3102  0.1745 -3.8399
   43MOL0     H 5886   0.806   7.151   3.128  0.0336  0.2410  1.4482
   43MOL0     H 5887   0.921   7.142   3.248 -0.5637  0.9063  0.7350
   43MOL0     H 5888   0.932   7.368   3.153  1.4112  0.4154  0.8511
   43MOL0     H 5889   1.081   7.279   3.087 -0.0525  0.0429 -2.0350
   43MOL0     H 5890   1.029   7.304   2.876  0.9701 -1.6226  1.8606
   43MOL0     H 5891   0.854   7.285   2.902  0.9521 -1.7721  1.4720
   43MOL0     H 5892   0.868   7.708   2.911 -0.1059 -1.0582  1.0332
   43MOL0     H 5893   1.030   7.997   3.104  1.2574 -1.2452 -0.2359
   43MOL0     H 5894   0.876   7.934   3.059 -0.4496 -0.9681 -1.6580
   43MOL0     H 5895   0.971   8.008   2.940  1.0281  0.6891 -0.0559
   43MOL0     H 5896   1.611   7.949   3.063 -1.5875  0.1872 -0.6168
   43MOL0     H 5897   1.707   8.163   3.085 -0.0086  0.5097  0.1291
   43MOL0     H 5898   1.734   8.479   3.148 -1.0281  0.1922 -2.9064
   43MOL0     H 5899   1.584   8.402   3.104  0.4456 -0.0205 -0.2064
   43MOL0     H 5900   1.570   8.641   3.175 -2.7320 -0.4971 -0.6890
   43MOL0     H 5901   1.455   8.531   3.246  0.0011  0.2508 -1.0174
   43MOL0     H 5902   1.723   8.633   3.357  1.5488 -1.8473  0.8022
   43MOL0     H 5903   1.642   8.512   3.448  4.6257 -0.3479 -1.6464
   43MOL0     H 5904   1.445   8.645   3.492 -0.9417  0.9996 -0.8472
   43MOL0     H 5905   1.506   8.788   3.403  1.3817  0.6282  0.5732
   43MOL0     H 5906   1.622   8.656   3.652 -1.1135 -0.7710  0.0822
   43MOL0     H 5907   1.688   8.794   3.573  0.9765 -2.0390  0.2689
   43MOL0     H 5908   1.408   8.772   3.692 -0.5657  1.0002 -0.4253
   43MOL0     H 5909   1.447   8.914   3.608 -1.6160 -0.2675  1.0460
   43MOL0     H 5910   1.591   8.811   3.854  3.0307 -1.4695 -3.4839
   43MOL0     H 5911   1.440   8.894   3.851 -0.3758 -2.9422 -0.7326
   43MOL0     H 5912   1.696   9.040   3.792  1.4612 -1.4683 -0.0116
   43MOL0     H 5913   1.559   9.082   3.905 -2.4085 -0.1299  0.0841
   43MOL0     H 5914   1.457   8.245   3.420 -0.2897  0.5871 -0.1316
   43MOL0     H 5915   1.329   8.052   3.373  1.4760  0.8642  2.0960
   43MOL0     H 5916   1.328   7.633   3.053 -0.4547 -0.5474 -1.9554
   43MOL0     H 5917   1.188   7.449   2.993  0.1636  0.0404  3.7190
   43MOL0     H 5918   0.713   5.594   3.728  0.5646  1.3991 -3.0415
   43MOL0     H 5919   0.863   5.595   3.946 -0.1731  0.2535  0.6401
   43MOL0     H 5920   1.050   6.093   4.297 -0.8382 -0.5240 -1.3676
   43MOL0     H 5921   1.221   6.069   4.486  0.4714 -1.6382  0.2734
   43MOL0     H 5922   1.422   5.982   4.547 -2.0406 -0.8089 -0.9901
   43MOL0     H 5923   1.325   5.996   4.696  1.9867  1.0326  2.3350
   43MOL0     H 5924   1.448   5.834   4.816  0.1074  0.3526  0.8166
   43MOL0     H 5925   1.563   5.953   4.771 -0.3409  2.4644 -3.2437
   43MOL0     H 5926   1.503   5.677   4.652  1.1337 -0.1807 -2.2577
   43MOL0     H 5927   1.593   5.793   4.558  1.8875  2.0708  1.2183
   43MOL0     H 5928   1.760   5.804   4.724 -2.1421  0.7829 -5.6121
   43MOL0     H 5929   1.764   5.653   4.637  1.9600  3.5326 -1.2500
   43MOL0     H 5930   1.636   5.550   5.036  0.5419  1.1904  0.4732
   43MOL0     H 5931   1.186   5.650   4.471  1.1486  0.0918 -0.5341
   43MOL0     H 5932   0.917   5.632   4.245 -0.4078  0.4631  2.8512
   43MOL0     H 5933   1.075   5.592   4.177 -0.3038 -1.0846  0.1660
   43MOL0     H 5934   1.021   5.540   4.346 -1.0625 -0.5880 -0.8818
   44MOL0     O 5935   4.525  11.127   9.478 -0.0758 -0.6972  1.2139
   44MOL0     C 5936   4.468  11.038   9.539  0.5990  0.1815 -0.0194
   44MOL0     O 5937   4.471  11.026   9.677  0.5219  0.1393 -0.0563
   44MOL0     C 5938   4.515  11.133   9.748 -0.9636  0.7170 -1.1269
   44MOL0     C 5939   4.469  11.262   9.737  0.1622 -0.7463  0.1412
   44MOL0     C 5940   4.538  11.369   9.811 -0.4998  0.3553  0.0258
   44MOL0     C 5941   4.630  11.336   9.910 -0.5175 -0.3243 -0.1855
   44MOL0     O 5942   4.687  11.441   9.978 -1.1122  0.2969  0.8856
   44MOL0     C 5943   4.712  11.421  10.120 -0.5399  0.1751 -0.6394
   44MOL0     C 5944   4.852  11.461  10.153  0.0437  0.6152  0.2166
   44MOL0     C 5945   4.885  11.599  10.114 -0.3238  0.9818  0.2831
   44MOL0     C 5946   5.002  11.662  10.183  0.5282  0.1600 -0.1664
   44MOL0     C 5947   4.990  11.813  10.171  0.7299  0.2109  0.1402
   44MOL0     C 5948   5.118  11.874  10.226  0.1149  0.6897 -0.3814
   44MOL0     C 5949   5.105  12.027  10.211  0.7564 -0.1959  0.6454
   44MOL0     C 5950   5.224  12.102  10.277  0.0693  0.5188  0.2115
   44MOL0     N 5951   5.201  12.112  10.421 -0.1641  0.7444  0.0552
   44MOL0     C 5952   5.162  12.206  10.510  0.2290  0.3032 -0.6075
   44MOL0     C 5953   5.163  12.144  10.630  0.3238  1.5454 -0.3066
   44MOL0     C 5954   5.117  12.189  10.760  0.4903 -0.9278  0.1348
   44MOL0     C 5955   5.236  12.254  10.845  0.2674  0.7942  0.0080
   44MOL0     C 5956   5.165  12.320  10.974 -1.1972 -0.0067  0.5468
   44MOL0     C 5957   5.276  12.368  11.073 -0.3581  0.5380  0.5241
   44MOL0     O 5958   5.361  12.273  11.148  0.1614  0.0218  0.6073
   44MOL0     C 5959   5.432  12.316  11.247 -0.3711 -0.1509 -0.1452
   44MOL0     C 5960   5.445  12.451  11.288  0.3874  0.2828 -0.0414
   44MOL0     C 5961   5.500  12.482  11.409  0.1752 -1.0811  0.2565
   44MOL0     C 5962   5.534  12.636  11.432  0.3398  0.1393 -0.2446
   44MOL0     C 5963   5.552  12.381  11.490  0.0593 -0.3148  0.2052
   44MOL0     C 5964   5.628  12.412  11.611  0.1126  0.3541  0.4449
   44MOL0     O 5965   5.596  12.515  11.679  1.2197 -0.5744 -0.6364
   44MOL0     C 5966   5.659  12.534  11.799  0.6367 -0.0339 -0.0895
   44MOL0     C 5967   5.572  12.565  11.904 -0.7839 -1.0334 -0.0979
   44MOL0     C 5968   5.630  12.578  12.037 -0.3069  0.5638 -0.5013
   44MOL0     C 5969   5.761  12.550  12.057 -0.0583 -1.0805 -0.1327
   44MOL0     O 5970   5.807  12.536  12.187  0.2792  0.2529 -0.0864
   44MOL0     C 5971   5.946  12.511  12.219 -1.1362  0.2226  0.0841
   44MOL0     C 5972   5.943  12.462  12.362 -0.2954  0.1323  0.0189
   44MOL0     C 5973   5.871  12.561  12.462 -0.5348 -0.1563  0.7213
   44MOL0     C 5974   5.908  12.517  12.601 -0.1635  0.0683 -0.2570
   44MOL0     C 5975   5.837  12.589  12.712 -0.0987  0.2256  0.0841
   44MOL0     C 5976   5.912  12.715  12.763  0.8742  0.3647  0.5236
   44MOL0     C 5977   5.886  12.744  12.909  0.2023  0.1952  0.3908
   44MOL0     C 5978   5.970  12.860  12.948  0.3685 -0.9299 -0.3922
   44MOL0    Cl 5979   5.958  12.890  13.124 -0.1585 -0.0939 -0.3494
   44MOL0     C 5980   5.851  12.534  11.951  0.8194 -0.6015 -0.1734
   44MOL0     C 5981   5.801  12.523  11.825  0.5337 -0.2646  0.3824
   44MOL0     O 5982   5.715  12.324  11.635 -0.6402 -0.8152  0.0454
   44MOL0     C 5983   5.533  12.247  11.458 -1.2986  0.1550 -0.3111
   44MOL0     C 5984   5.473  12.215  11.337  0.0068 -0.8588 -0.8219
   44MOL0     N 5985   5.199  12.013  10.611 -0.4176  0.6786 -0.4339
   44MOL0     N 5986   5.242  11.997  10.492 -0.0810 -0.4853 -0.5050
   44MOL0     C 5987   4.678  11.205   9.923  0.5359 -0.6144  0.0715
   44MOL0     C 5988   4.611  11.105   9.844  0.0467 -0.1663  0.0112
   44MOL0     C 5989   4.402  10.926   9.466  0.7722  0.5322  1.0147
   44MOL0     C 5990   4.383  10.804   9.524 -0.2556 -0.0531 -0.0751
   44MOL0     C 5991   4.322  10.698   9.458  0.7108 -0.6399  0.3589
   44MOL0     C 5992   4.268  10.707   9.330 -0.5389 -0.2158 -0.5861
   44MOL0     O 5993   4.190  10.602   9.287  0.0235  0.0712  0.4529
   44MOL0     C 5994   4.185  10.582   9.139 -0.5176  0.3390 -0.0021
   44MOL0     C 5995   4.134  10.435   9.127 -0.2448 -0.2276  0.2590
   44MOL0     C 5996   4.152  10.382   8.990 -0.0343  0.3821  0.6169
   44MOL0     C 5997   4.123  10.235   8.974  0.1291 -0.4592 -0.3778
   44MOL0     C 5998   3.979  10.213   8.952 -0.3607  0.1125  0.9328
   44MOL0     C 5999   3.859  10.211   8.933  0.1494  0.0624  1.1504
   44MOL0     C 6000   4.287  10.831   9.268  0.3893  0.2635 -0.7349
   44MOL0     C 6001   4.356  10.942   9.331  0.5831 -0.1055  0.8211
   44MOL0     C 6002   4.362  11.074   9.242  0.1282  0.2061  0.2085
   44MOL0     H 6003   4.403  11.301   9.660  1.1460  3.3164  1.0867
   44MOL0     H 6004   4.526  11.474   9.788 -0.8503  0.5631  1.1288
   44MOL0     H 6005   4.711  11.315  10.146  0.9927  0.7038  2.0452
   44MOL0     H 6006   4.642  11.479  10.181 -1.4654 -0.6893 -0.8563
   44MOL0     H 6007   4.878  11.448  10.258 -1.3040  0.5432  0.5576
   44MOL0     H 6008   4.913  11.392  10.094  0.3618 -0.0849  1.3309
   44MOL0     H 6009   4.890  11.609  10.005 -0.7760  0.1703  0.1773
   44MOL0     H 6010   4.803  11.662  10.151 -2.5121 -2.0589  1.0028
   44MOL0     H 6011   4.999  11.635  10.289  0.4414 -0.3752 -0.3028
   44MOL0     H 6012   5.102  11.635  10.148  2.8914  3.3470  3.2955
   44MOL0     H 6013   4.910  11.850  10.236 -0.1029  0.3678 -0.9439
   44MOL0     H 6014   4.967  11.847  10.070  2.8832  2.7976  0.3990
   44MOL0     H 6015   5.121  11.848  10.332 -2.5348 -1.0494 -0.6506
   44MOL0     H 6016   5.217  11.858  10.182  1.3117  1.6419  1.7822
   44MOL0     H 6017   5.010  12.058  10.255  1.4873 -1.6169  3.4836
   44MOL0     H 6018   5.099  12.044  10.104  1.3351 -0.5557  0.5517
   44MOL0     H 6019   5.311  12.044  10.246  0.0032  1.5814 -2.1269
   44MOL0     H 6020   5.238  12.203  10.238 -1.6844  0.8008  0.2329
   44MOL0     H 6021   5.125  12.301  10.473  0.5760 -0.0116 -1.7974
   44MOL0     H 6022   5.072  12.102  10.808 -0.5119  0.3690  1.6421
   44MOL0     H 6023   5.039  12.265  10.748  2.1690  0.8780  0.3519
   44MOL0     H 6024   5.308  12.178  10.877  0.0791  1.4660  2.1665
   44MOL0     H 6025   5.289  12.335  10.794 -0.2914  0.8775 -0.4441
   44MOL0     H 6026   5.114  12.413  10.949  0.1327  1.5134  3.0578
   44MOL0     H 6027   5.095  12.247  11.015 -0.0797 -1.1852  0.4081
   44MOL0     H 6028   5.345  12.438  11.024  3.0826 -2.0803  1.2210
   44MOL0     H 6029   5.219  12.431  11.142 -0.5543  0.9610 -0.0254
   44MOL0     H 6030   5.413  12.536  11.229 -1.0764  0.8236  1.4436
   44MOL0     H 6031   5.642  12.649  11.424  0.3120  2.0047  1.5953
   44MOL0     H 6032   5.496  12.687  11.521  3.7645  1.5133  0.5702
   44MOL0     H 6033   5.502  12.694  11.345 -0.8246 -0.0605  0.0305
   44MOL0     H 6034   5.465  12.573  11.886 -0.9299  3.1558  1.4836
   44MOL0     H 6035   5.561  12.602  12.117  0.9987  2.1951  0.1811
   44MOL0     H 6036   6.003  12.445  12.153 -1.0308 -0.7952  1.1649
   44MOL0     H 6037   5.996  12.608  12.220 -1.4579  0.3829  0.7069
   44MOL0     H 6038   5.887  12.369  12.360 -0.8825  0.4899 -1.4052
   44MOL0     H 6039   6.045  12.448  12.399  0.0901  2.3144 -0.0899
   44MOL0     H 6040   5.762  12.569  12.462 -0.5133  1.8322  3.3723
   44MOL0     H 6041   5.914  12.659  12.438  1.1483 -1.7481 -3.6540
   44MOL0     H 6042   6.016  12.512  12.617 -0.0499 -0.7096 -1.1663
   44MOL0     H 6043   5.879  12.412  12.610 -2.4426  0.7939  1.9694
   44MOL0     H 6044   5.737  12.620  12.681 -0.5464 -1.0363  0.1811
   44MOL0     H 6045   5.822  12.510  12.787  2.9255 -2.0660 -1.5029
   44MOL0     H 6046   5.873  12.805  12.716 -1.1598 -0.6186  0.2244
   44MOL0     H 6047   6.018  12.694  12.746  0.3305 -2.8322  0.3812
   44MOL0     H 6048   5.908  12.654  12.967  0.2490 -0.2258 -0.2742
   44MOL0     H 6049   5.780  12.770  12.910  0.1003 -0.2289  1.3997
   44MOL0     H 6050   5.959  12.952  12.890  1.8452 -0.7547 -0.4234
   44MOL0     H 6051   6.078  12.843  12.941  0.8089  0.4113  1.8282
   44MOL0     H 6052   5.957  12.514  11.961  0.8196 -3.1623 -3.4798
   44MOL0     H 6053   5.860  12.498  11.737 -0.2578  0.4067 -0.3662
   44MOL0     H 6054   5.568  12.168  11.523 -0.0706 -0.9299 -2.1858
   44MOL0     H 6055   5.456  12.112  11.307  0.2546 -1.8578  2.1007
   44MOL0     H 6056   4.754  11.172   9.993 -2.7837 -1.3342  3.6469
   44MOL0     H 6057   4.646  11.002   9.832 -1.2181 -0.7624  1.1519
   44MOL0     H 6058   4.409  10.791   9.628 -0.0695 -0.2156 -0.1415
   44MOL0     H 6059   4.297  10.607   9.510 -3.5965 -1.1792 -2.2044
   44MOL0     H 6060   4.124  10.657   9.088 -1.4696 -0.4022  0.0029
   44MOL0     H 6061   4.280  10.591   9.086  1.0692  1.1698  2.7743
   44MOL0     H 6062   4.026  10.440   9.146 -0.4491  3.5297 -1.0104
   44MOL0     H 6063   4.172  10.368   9.204 -0.1012 -1.2490 -0.6659
   44MOL0     H 6064   4.079  10.434   8.927  2.1580  1.1142 -1.5102
   44MOL0     H 6065   4.255  10.394   8.955  0.0207 -0.2189  0.5667
   44MOL0     H 6066   4.164  10.171   9.054  0.8905 -0.7586 -0.9900
   44MOL0     H 6067   4.185  10.206   8.888  1.2130 -0.2885  0.3179
   44MOL0     H 6068   3.752  10.217   8.930 -0.2512 -4.1056  1.6357
   44MOL0     H 6069   4.237  10.854   9.174 -0.7009  0.0561 -0.2138
   44MOL0     H 6070   4.285  11.150   9.257  1.9050  1.9202  0.9381
   44MOL0     H 6071   4.459  11.123   9.252 -0.2528  0.8057  1.0691
   44MOL0     H 6072   4.339  11.046   9.139 -3.0509 -1.4249  1.2084
   45MOL0     O 6073   5.631   7.576   3.780  0.5840  0.7207 -0.0096
   45MOL0     C 6074   5.520   7.567   3.843 -0.2052  0.1090 -0.3751
   45MOL0     O 6075   5.397   7.596   3.785  0.1429  0.4843  0.0534
   45MOL0     C 6076   5.387   7.692   3.691  0.8413  0.2031  0.2842
   45MOL0     C 6077   5.434   7.664   3.559 -0.1531  0.7614 -0.0782
   45MOL0     C 6078   5.422   7.762   3.455 -0.3867  0.1858 -0.9219
   45MOL0     C 6079   5.361   7.882   3.478 -0.8460 -0.3772  0.4380
   45MOL0     O 6080   5.363   7.989   3.392  0.3617  0.6796 -0.0853
   45MOL0     C 6081   5.341   7.962   3.256  0.4021  0.1876 -0.4037
   45MOL0     C 6082   5.206   7.903   3.230 -0.1400  0.5326  0.2859
   45MOL0     C 6083   5.191   7.833   3.092 -1.0985 -0.3698 -0.3488
   45MOL0     C 6084   5.042   7.811   3.062 -0.1958  0.0609  0.2659
   45MOL0     C 6085   5.006   7.779   2.914 -1.1320 -0.0214 -0.6606
   45MOL0     C 6086   4.853   7.743   2.902 -0.7434  0.5156 -0.4970
   45MOL0     C 6087   4.839   7.655   2.772 -0.3255  0.5544  0.0603
   45MOL0     C 6088   4.704   7.604   2.760 -0.0620  0.5246  1.0060
   45MOL0     N 6089   4.597   7.700   2.780  0.7323 -0.4456 -0.6843
   45MOL0     C 6090   4.521   7.702   2.896  0.7882  0.2034 -0.2254
   45MOL0     C 6091   4.409   7.775   2.873  0.7534 -0.2809  0.3569
   45MOL0     C 6092   4.294   7.799   2.967  0.3552  0.0769 -0.5885
   45MOL0     C 6093   4.209   7.918   2.936 -0.8499 -0.4010 -0.2954
   45MOL0     C 6094   4.112   7.940   3.049 -0.3213  0.0787  0.1553
   45MOL0     C 6095   4.171   7.974   3.193 -0.8418  0.3838 -0.0760
   45MOL0     O 6096   4.227   8.100   3.185 -0.4343 -0.8467 -0.1081
   45MOL0     C 6097   4.287   8.158   3.284 -0.1878  0.0479 -0.5304
   45MOL0     C 6098   4.261   8.117   3.416  0.0362 -0.5851 -0.0274
   45MOL0     C 6099   4.342   8.152   3.529  0.3460  0.3090  0.4413
   45MOL0     C 6100   4.296   8.099   3.674 -0.0429  0.0427  0.2671
   45MOL0     C 6101   4.455   8.230   3.505  0.3466 -0.0401 -0.1861
   45MOL0     C 6102   4.548   8.274   3.609 -0.3095 -0.0163 -0.1453
   45MOL0     O 6103   4.643   8.373   3.579  0.2833  0.4261  0.0019
   45MOL0     C 6104   4.706   8.422   3.693  0.7627  0.0672 -0.0003
   45MOL0     C 6105   4.644   8.468   3.803  0.1401 -0.9263 -0.1814
   45MOL0     C 6106   4.723   8.515   3.914 -0.2813  0.4870 -0.5317
   45MOL0     C 6107   4.869   8.492   3.916  0.8828 -0.4664  0.4733
   45MOL0     O 6108   4.932   8.528   4.032  0.1084  0.5296 -0.9093
   45MOL0     C 6109   5.067   8.497   4.055  0.1048 -0.3319  0.0953
   45MOL0     C 6110   5.122   8.499   4.197 -0.0460 -0.1290 -0.3592
   45MOL0     C 6111   5.122   8.359   4.264 -0.4495  0.8459 -0.3355
   45MOL0     C 6112   5.139   8.362   4.421 -0.6182 -0.5710 -0.7985
   45MOL0     C 6113   5.216   8.245   4.488  0.3562  0.5749  0.4104
   45MOL0     C 6114   5.143   8.111   4.495 -0.2980  0.1922  0.6177
   45MOL0     C 6115   5.005   8.110   4.570 -0.3956 -0.0692 -0.5832
   45MOL0     C 6116   5.006   8.150   4.714 -0.5218 -0.9743 -1.2135
   45MOL0    Cl 6117   4.848   8.105   4.790 -0.0558  0.1770  0.1845
   45MOL0     C 6118   4.928   8.429   3.803  0.2845  0.8193 -0.5668
   45MOL0     C 6119   4.847   8.404   3.695  0.0086  0.4710 -0.0575
   45MOL0     O 6120   4.523   8.223   3.716 -0.2977 -0.4289 -0.2398
   45MOL0     C 6121   4.469   8.283   3.373 -0.9738 -0.4675 -0.6264
   45MOL0     C 6122   4.387   8.257   3.264  0.6456  0.6596 -0.2084
   45MOL0     N 6123   4.411   7.809   2.736 -0.0580  0.0187  0.7114
   45MOL0     N 6124   4.522   7.769   2.682 -0.1220 -0.3212 -1.0243
   45MOL0     C 6125   5.312   7.906   3.611  0.2948  0.2669 -0.1192
   45MOL0     C 6126   5.321   7.814   3.718 -0.2257 -0.1205 -0.2667
   45MOL0     C 6127   5.523   7.548   3.992 -0.7555 -0.7200 -0.0686
   45MOL0     C 6128   5.398   7.536   4.057  0.2139 -1.4008  0.7888
   45MOL0     C 6129   5.394   7.547   4.193 -0.0060  0.0840 -0.3058
   45MOL0     C 6130   5.511   7.521   4.272  1.0519 -0.8923 -0.0778
   45MOL0     O 6131   5.490   7.517   4.403  0.0507 -0.7885 -0.3282
   45MOL0     C 6132   5.593   7.509   4.503  0.5293 -0.6080  0.2562
   45MOL0     C 6133   5.614   7.635   4.580  0.2355  0.1706  0.1380
   45MOL0     C 6134   5.544   7.637   4.723 -0.0940 -0.4989  0.5571
   45MOL0     C 6135   5.600   7.762   4.810 -0.1068 -0.0579 -0.0601
   45MOL0     C 6136   5.559   7.896   4.746 -0.1385 -0.6447 -0.6851
   45MOL0     C 6137   5.521   8.005   4.712  0.8074 -0.4739  0.7767
   45MOL0     C 6138   5.628   7.501   4.202 -0.0093 -0.3696 -0.0888
   45MOL0     C 6139   5.640   7.518   4.070  0.0055 -1.4536  0.4128
   45MOL0     C 6140   5.771   7.494   4.012  0.2263  0.4979 -0.5795
   45MOL0     H 6141   5.489   7.571   3.550  0.3891  1.2220 -1.8566
   45MOL0     H 6142   5.480   7.752   3.364  1.2566  1.4013 -0.0680
   45MOL0     H 6143   5.423   7.894   3.229 -2.9263 -3.6582 -1.7651
   45MOL0     H 6144   5.345   8.056   3.201  0.4639  1.2287  1.3090
   45MOL0     H 6145   5.173   7.832   3.306 -1.8039 -0.1598 -1.0290
   45MOL0     H 6146   5.128   7.979   3.234 -0.1787  0.5071  0.0342
   45MOL0     H 6147   5.244   7.896   3.020 -3.0721 -1.7185 -3.1625
   45MOL0     H 6148   5.250   7.741   3.097 -0.2334  0.2292  2.7533
   45MOL0     H 6149   5.002   7.732   3.127  1.7719 -0.6570  0.6502
   45MOL0     H 6150   4.981   7.899   3.086  1.4257  1.8892 -1.8938
   45MOL0     H 6151   5.069   7.697   2.878 -0.5291  1.4790 -3.2816
   45MOL0     H 6152   5.033   7.865   2.853  2.3866  1.3809  2.4501
   45MOL0     H 6153   4.811   7.696   2.991  0.6407  1.5352  0.7554
   45MOL0     H 6154   4.792   7.834   2.912 -0.7025  0.5150 -0.2299
   45MOL0     H 6155   4.919   7.580   2.764  0.0648  0.9826 -0.1247
   45MOL0     H 6156   4.858   7.720   2.686  0.4488 -1.9377 -1.7764
   45MOL0     H 6157   4.702   7.564   2.658  3.1344  4.0249 -0.6792
   45MOL0     H 6158   4.681   7.525   2.831  0.6484 -0.0708  0.5806
   45MOL0     H 6159   4.532   7.643   2.987  1.8965  0.0964 -0.4206
   45MOL0     H 6160   4.349   7.827   3.058  0.1945  3.4335 -1.4147
   45MOL0     H 6161   4.229   7.715   2.995 -0.4584  1.6592  2.7925
   45MOL0     H 6162   4.269   8.009   2.929 -1.7040  0.0894 -1.4566
   45MOL0     H 6163   4.156   7.894   2.844 -1.2021 -1.7217  0.2259
   45MOL0     H 6164   4.049   8.027   3.028  0.7842  0.9607  0.3735
   45MOL0     H 6165   4.049   7.851   3.054 -2.7525  1.6645 -0.3512
   45MOL0     H 6166   4.084   7.972   3.259 -1.4852  1.6417 -0.8350
   45MOL0     H 6167   4.245   7.903   3.231 -2.4160 -0.6620  1.1555
   45MOL0     H 6168   4.173   8.058   3.441 -0.3728  0.9364  2.4375
   45MOL0     H 6169   4.260   8.176   3.742  0.6429  1.0891 -0.5284
   45MOL0     H 6170   4.379   8.041   3.716 -0.6830 -0.7632  0.4580
   45MOL0     H 6171   4.212   8.031   3.658  0.7769 -0.4724 -2.3587
   45MOL0     H 6172   4.536   8.473   3.810  0.2571  1.9965  0.7349
   45MOL0     H 6173   4.662   8.557   3.993 -4.9861  1.2337 -4.0877
   45MOL0     H 6174   5.103   8.397   4.026 -0.4886 -0.6022  0.2775
   45MOL0     H 6175   5.106   8.583   4.001 -3.1461  0.0764 -1.8809
   45MOL0     H 6176   5.225   8.534   4.189  0.6318 -1.0041  3.0275
   45MOL0     H 6177   5.067   8.571   4.258 -0.7925 -1.2629  0.3388
   45MOL0     H 6178   5.200   8.294   4.224  1.7031  2.4095  1.1167
   45MOL0     H 6179   5.025   8.311   4.244 -0.0057  1.4396 -5.0757
   45MOL0     H 6180   5.046   8.396   4.468  1.6814  3.3346  1.4097
   45MOL0     H 6181   5.195   8.454   4.435 -1.6048  0.0315 -0.6939
   45MOL0     H 6182   5.308   8.233   4.431 -1.5295 -2.5139 -2.3664
   45MOL0     H 6183   5.247   8.271   4.590  1.1498  0.7332  0.1359
   45MOL0     H 6184   5.211   8.038   4.540  1.3048  1.2335 -0.0320
   45MOL0     H 6185   5.137   8.070   4.393  5.7005  0.8125 -0.3346
   45MOL0     H 6186   4.968   8.007   4.567 -0.1754 -0.1580 -0.2418
   45MOL0     H 6187   4.946   8.179   4.509 -0.3559  2.0192  1.6164
   45MOL0     H 6188   5.024   8.257   4.702  2.0741 -1.1932  0.0636
   45MOL0     H 6189   5.087   8.098   4.766  0.2604  0.6673 -0.6965
   45MOL0     H 6190   5.031   8.396   3.801  0.4984  1.2169  1.4403
   45MOL0     H 6191   4.886   8.355   3.606 -1.0281 -1.4760  0.5143
   45MOL0     H 6192   4.549   8.356   3.359 -1.4710  0.1133 -0.5007
   45MOL0     H 6193   4.415   8.285   3.163 -1.0575 -1.0531 -1.2212
   45MOL0     H 6194   5.266   8.003   3.628 -0.5143  0.0534 -1.0237
   45MOL0     H 6195   5.303   7.834   3.823  3.0541  2.3591  0.0103
   45MOL0     H 6196   5.307   7.529   3.999 -0.3230 -1.3451  1.6130
   45MOL0     H 6197   5.303   7.551   4.253  1.9777  1.5971  2.9072
   45MOL0     H 6198   5.582   7.432   4.580  1.6192 -2.1444 -1.0616
   45MOL0     H 6199   5.692   7.487   4.460  0.5707  2.9794 -1.9063
   45MOL0     H 6200   5.573   7.725   4.534  2.8990  0.8391 -1.1202
   45MOL0     H 6201   5.723   7.644   4.583  0.2057  0.9490 -0.6776
   45MOL0     H 6202   5.438   7.665   4.714  0.2359  0.2800 -1.1489
   45MOL0     H 6203   5.561   7.546   4.781 -2.4925  0.6451  3.3533
   45MOL0     H 6204   5.708   7.751   4.824  0.0662 -4.0775 -2.8394
   45MOL0     H 6205   5.549   7.766   4.906 -1.6840  0.0010 -0.8690
   45MOL0     H 6206   5.481   8.100   4.682 -3.5724 -1.7938  1.7159
   45MOL0     H 6207   5.717   7.479   4.260 -0.0367 -0.7164 -0.1743
   45MOL0     H 6208   5.762   7.406   3.947 -2.9896 -0.6817  1.1959
   45MOL0     H 6209   5.789   7.587   3.957 -0.0025  0.5214 -0.6176
   45MOL0     H 6210   5.845   7.472   4.088  0.2161  2.7711  0.1556
   46MOL0     O 6211   5.882   7.008   7.634  0.0936  0.0699  0.0892
   46MOL0     C 6212   5.968   7.056   7.711 -0.1159  0.3147 -0.5166
   46MOL0     O 6213   5.951   7.173   7.782 -0.1863  0.0664 -0.2973
   46MOL0     C 6214   5.826   7.228   7.803 -1.7894 -0.1522 -0.4128
   46MOL0     C 6215   5.767   7.312   7.705 -0.4068  0.3848  0.1578
   46MOL0     C 6216   5.640   7.370   7.730 -0.4738  0.0822 -1.4252
   46MOL0     C 6217   5.585   7.362   7.857  0.3852 -0.0490 -0.4079
   46MOL0     O 6218   5.466   7.419   7.878  0.3669  0.1896  0.6269
   46MOL0     C 6219   5.429   7.443   8.014 -0.4959 -0.1457 -0.4784
   46MOL0     C 6220   5.297   7.513   8.021 -0.2613 -0.7557 -0.0565
   46MOL0     C 6221   5.234   7.530   8.155 -0.6959  0.4189  0.0943
   46MOL0     C 6222   5.239   7.402   8.236  0.1266  0.2511 -0.6757
   46MOL0     C 6223   5.330   7.424   8.359 -0.3745 -0.7973  0.3554
   46MOL0     C 6224   5.348   7.328   8.474  0.0673 -0.0752 -0.8511
   46MOL0     C 6225   5.423   7.389   8.596 -0.5019  0.0998 -0.4504
   46MOL0     C 6226   5.453   7.277   8.690 -0.5349  0.7235 -0.2121
   46MOL0     N 6227   5.594   7.291   8.743  0.3656  0.0055  0.3729
   46MOL0     C 6228   5.630   7.333   8.867  0.5622  0.3530 -0.9027
   46MOL0     C 6229   5.759   7.303   8.875 -0.8689  0.8187 -0.5911
   46MOL0     C 6230   5.849   7.320   8.994 -0.0947  0.3736  0.3180
   46MOL0     C 6231   5.857   7.221   9.099  0.8588 -0.2555 -0.0444
   46MOL0     C 6232   5.929   7.092   9.052  0.0960  0.1544 -0.8618
   46MOL0     C 6233   5.946   6.986   9.162  0.0805  0.4635  0.6611
   46MOL0     O 6234   6.038   6.895   9.108 -0.2802 -0.5113 -0.5560
   46MOL0     C 6235   6.106   6.798   9.183 -0.3863  0.4094  0.7750
   46MOL0     C 6236   6.068   6.778   9.317  0.3193 -0.1999 -0.4834
   46MOL0     C 6237   6.125   6.667   9.388 -0.1701 -0.3568  0.1107
   46MOL0     C 6238   6.075   6.634   9.521  0.3698 -0.1031 -0.2477
   46MOL0     C 6239   6.224   6.594   9.319  0.3241  0.2241  0.0726
   46MOL0     C 6240   6.289   6.486   9.384 -0.4075 -0.2775 -0.0969
   46MOL0     O 6241   6.335   6.378   9.309  0.4774  0.2243 -0.0182
   46MOL0     C 6242   6.399   6.272   9.369  0.4200 -0.5564  0.2095
   46MOL0     C 6243   6.340   6.183   9.461 -0.0281 -0.0496 -0.2765
   46MOL0     C 6244   6.413   6.075   9.519  0.5017 -0.1956 -0.2801
   46MOL0     C 6245   6.544   6.049   9.483 -0.0654  0.8318  0.5017
   46MOL0     O 6246   6.627   5.949   9.526 -0.2092  0.1045  0.3216
   46MOL0     C 6247   6.662   5.839   9.439 -0.5407  0.1171 -0.1472
   46MOL0     C 6248   6.671   5.703   9.517  0.4427  0.0139  0.3037
   46MOL0     C 6249   6.675   5.596   9.403 -0.1797  0.6033 -0.0664
   46MOL0     C 6250   6.541   5.564   9.341 -0.8161 -0.0487  0.2326
   46MOL0     C 6251   6.578   5.476   9.217 -0.9236 -0.4291 -0.0654
   46MOL0     C 6252   6.637   5.337   9.250 -0.6023  0.4998  1.0610
   46MOL0     C 6253   6.655   5.258   9.120  0.3000  1.3834 -0.6067
   46MOL0     C 6254   6.660   5.098   9.143  0.5855  0.6473 -0.5593
   46MOL0    Cl 6255   6.806   5.029   9.226 -0.2637  0.1476 -0.1485
   46MOL0     C 6256   6.593   6.128   9.384  0.2884 -0.2630  0.6756
   46MOL0     C 6257   6.525   6.234   9.336 -0.5870 -0.4958  0.0392
   46MOL0     O 6258   6.310   6.505   9.502 -0.0281 -0.3857  0.0627
   46MOL0     C 6259   6.256   6.613   9.183  0.1509 -0.3484 -0.4102
   46MOL0     C 6260   6.196   6.718   9.118  0.7164 -0.1686 -0.4072
   46MOL0     N 6261   5.806   7.252   8.759  0.3256 -0.7190 -0.3870
   46MOL0     N 6262   5.702   7.246   8.678  0.6021 -0.6813 -0.2038
   46MOL0     C 6263   5.653   7.282   7.954  0.8082 -0.3782 -0.9762
   46MOL0     C 6264   5.774   7.212   7.933 -0.3854 -0.0346  0.0252
   46MOL0     C 6265   6.104   6.997   7.731 -0.5956 -0.0287 -0.0514
   46MOL0     C 6266   6.179   7.019   7.850 -1.3901  0.2195 -0.2666
   46MOL0     C 6267   6.302   6.957   7.879 -0.3003  0.7863 -0.4784
   46MOL0     C 6268   6.356   6.867   7.786 -0.2704  0.4598 -0.9146
   46MOL0     O 6269   6.477   6.805   7.812  0.0762  0.2432  0.4520
   46MOL0     C 6270   6.479   6.682   7.887  0.8455  0.1725 -0.6888
   46MOL0     C 6271   6.421   6.701   8.039 -0.1182  1.0667  0.1421
   46MOL0     C 6272   6.408   6.566   8.116 -0.5776  1.0738 -0.3398
   46MOL0     C 6273   6.541   6.507   8.156 -0.7340 -0.2075 -0.3710
   46MOL0     C 6274   6.543   6.387   8.251 -0.1897  0.2921  0.7268
   46MOL0     C 6275   6.553   6.281   8.305  0.6677 -0.8395  0.6159
   46MOL0     C 6276   6.277   6.820   7.684 -0.0606  0.2771 -1.1813
   46MOL0     C 6277   6.157   6.891   7.651  0.1429 -0.1160 -0.6109
   46MOL0     C 6278   6.084   6.841   7.526 -0.2635  0.3484  0.0145
   46MOL0     H 6279   5.803   7.324   7.604 -0.7608  1.9594  0.1973
   46MOL0     H 6280   5.596   7.431   7.652 -0.8877  1.7336  0.0228
   46MOL0     H 6281   5.501   7.515   8.054  0.9918 -0.3726 -2.5334
   46MOL0     H 6282   5.433   7.356   8.079  1.0832  0.7736  0.7292
   46MOL0     H 6283   5.311   7.614   7.981 -2.1338 -0.5428 -0.3009
   46MOL0     H 6284   5.229   7.462   7.952 -0.2670  1.2809 -1.6383
   46MOL0     H 6285   5.273   7.611   8.216  0.4135 -2.3099  3.2956
   46MOL0     H 6286   5.140   7.581   8.131 -0.4114  0.7377 -0.3678
   46MOL0     H 6287   5.142   7.379   8.281 -0.1576  1.0438 -0.8699
   46MOL0     H 6288   5.264   7.315   8.174  0.5187 -0.2835  0.1955
   46MOL0     H 6289   5.316   7.521   8.406  1.3431 -0.5213  0.3662
   46MOL0     H 6290   5.428   7.439   8.313 -0.5454 -2.5090 -0.6652
   46MOL0     H 6291   5.243   7.306   8.496 -0.3307  1.4696 -1.0639
   46MOL0     H 6292   5.397   7.236   8.442 -2.4559 -1.1458 -1.9161
   46MOL0     H 6293   5.361   7.467   8.642  1.3946 -0.5448  3.6295
   46MOL0     H 6294   5.515   7.439   8.564  0.2664 -1.4761 -0.7950
   46MOL0     H 6295   5.389   7.271   8.778  1.0591  1.2379  1.0457
   46MOL0     H 6296   5.460   7.178   8.644  0.5734  1.9923 -3.0647
   46MOL0     H 6297   5.564   7.362   8.949  2.7772 -0.5259  1.3303
   46MOL0     H 6298   5.807   7.410   9.040  2.2744  1.4050  0.6489
   46MOL0     H 6299   5.948   7.341   8.952 -0.7356 -2.3000 -2.9642
   46MOL0     H 6300   5.909   7.274   9.180 -1.9859  3.3221 -0.3448
   46MOL0     H 6301   5.759   7.204   9.143  0.2351  0.9683 -0.9065
   46MOL0     H 6302   5.889   7.032   8.970  0.3049 -0.7399 -0.3199
   46MOL0     H 6303   6.027   7.122   9.014 -0.6949  2.3937 -1.2966
   46MOL0     H 6304   5.992   7.035   9.248 -0.2978  0.7236  0.7187
   46MOL0     H 6305   5.850   6.945   9.194  0.2501 -2.3260 -1.9549
   46MOL0     H 6306   5.985   6.832   9.360  0.0707 -2.2922  1.8855
   46MOL0     H 6307   6.053   6.529   9.540  2.5351 -0.2242  2.2444
   46MOL0     H 6308   5.991   6.700   9.542  1.7976  2.3468 -1.8014
   46MOL0     H 6309   6.153   6.648   9.597  1.5351 -0.6253 -1.3114
   46MOL0     H 6310   6.244   6.202   9.508  1.5151 -0.9071  3.5698
   46MOL0     H 6311   6.372   6.017   9.601  1.4173 -1.9405 -1.0044
   46MOL0     H 6312   6.601   5.839   9.348  1.3074  0.2131 -1.4444
   46MOL0     H 6313   6.766   5.851   9.407 -0.1514  1.2505  1.3982
   46MOL0     H 6314   6.759   5.711   9.581  0.3918  1.1391  0.2557
   46MOL0     H 6315   6.589   5.678   9.584 -1.3763  0.4395 -1.6516
   46MOL0     H 6316   6.730   5.512   9.447 -1.7163  0.2139  1.2140
   46MOL0     H 6317   6.735   5.622   9.315  2.7037 -4.9868 -0.1766
   46MOL0     H 6318   6.490   5.655   9.308  1.7776  1.5022  0.2065
   46MOL0     H 6319   6.471   5.515   9.410  0.3559 -3.9610 -1.0792
   46MOL0     H 6320   6.484   5.455   9.165 -0.9211  0.3887 -0.4260
   46MOL0     H 6321   6.646   5.521   9.144  0.2868 -2.0585  0.0046
   46MOL0     H 6322   6.568   5.284   9.316 -0.6122 -2.0031 -0.8040
   46MOL0     H 6323   6.740   5.341   9.284  1.2473 -0.6439 -3.6446
   46MOL0     H 6324   6.739   5.293   9.059  1.7550  0.1966  0.6443
   46MOL0     H 6325   6.559   5.276   9.069 -1.0418 -2.8416  0.0162
   46MOL0     H 6326   6.648   5.044   9.049 -0.3204 -2.6367  1.2981
   46MOL0     H 6327   6.588   5.064   9.218  0.1914 -1.3636 -1.7767
   46MOL0     H 6328   6.685   6.098   9.335  0.1553 -1.7229  1.2673
   46MOL0     H 6329   6.580   6.290   9.262  1.2724 -2.6072 -0.2811
   46MOL0     H 6330   6.342   6.564   9.139  1.6956  0.3909  1.6417
   46MOL0     H 6331   6.225   6.725   9.013 -0.9351 -0.1947 -0.8838
   46MOL0     H 6332   5.626   7.273   8.059  0.5267 -0.9752 -1.0991
   46MOL0     H 6333   5.818   7.150   8.010  0.1782 -0.5086 -0.6596
   46MOL0     H 6334   6.145   7.083   7.931 -1.4053 -1.1165  0.8074
   46MOL0     H 6335   6.363   6.974   7.967  2.1488 -2.2268 -1.4069
   46MOL0     H 6336   6.417   6.609   7.834  0.9463 -0.1723 -0.3409
   46MOL0     H 6337   6.578   6.635   7.886  0.7687  0.0149 -1.3076
   46MOL0     H 6338   6.321   6.746   8.040 -1.0895 -0.7168  4.1922
   46MOL0     H 6339   6.476   6.764   8.109  0.3290 -1.2841  2.0428
   46MOL0     H 6340   6.351   6.573   8.209 -0.1646 -1.6667  0.1827
   46MOL0     H 6341   6.351   6.496   8.055  0.0500  0.9421 -0.7817
   46MOL0     H 6342   6.590   6.582   8.218 -0.8837 -0.6704  0.3221
   46MOL0     H 6343   6.593   6.484   8.062  0.4865 -0.1976  0.2778
   46MOL0     H 6344   6.559   6.191   8.364 -1.8076  1.0135  3.9909
   46MOL0     H 6345   6.317   6.734   7.630 -0.2490 -1.4535  1.2701
   46MOL0     H 6346   6.136   6.755   7.483  1.9049  0.8521  1.4806
   46MOL0     H 6347   5.981   6.812   7.551 -0.9100  1.9268 -0.6642
   46MOL0     H 6348   6.084   6.918   7.449  2.8101 -1.2441 -1.7586
   47MOL0     O 6349   3.253   3.380   7.380 -0.0769  1.0111 -1.0951
   47MOL0     C 6350   3.326   3.393   7.282 -1.0734  0.3867 -0.5027
   47MOL0     O 6351   3.393   3.512   7.249  0.6130  0.6128  0.0243
   47MOL0     C 6352   3.348   3.634   7.281 -0.3587  0.0309  0.8953
   47MOL0     C 6353   3.431   3.750   7.256  0.0649 -0.5114  0.3280
   47MOL0     C 6354   3.378   3.879   7.286 -0.2322 -0.2437 -0.1374
   47MOL0     C 6355   3.258   3.898   7.339 -0.3753  0.1977  0.7994
   47MOL0     O 6356   3.218   4.028   7.367  0.8718 -0.7839  0.5586
   47MOL0     C 6357   3.129   4.058   7.476 -0.4967  0.1377 -0.1788
   47MOL0     C 6358   2.996   4.100   7.424 -1.0462  0.4192 -0.4922
   47MOL0     C 6359   2.904   4.150   7.533 -0.2056  0.7423 -0.2345
   47MOL0     C 6360   2.869   4.292   7.508  0.5482 -0.2674 -0.2246
   47MOL0     C 6361   2.758   4.345   7.598  0.9193 -0.8693  0.4074
   47MOL0     C 6362   2.672   4.466   7.542  0.2692 -0.7968  0.4142
   47MOL0     C 6363   2.597   4.446   7.416  0.1882  0.1794  0.3209
   47MOL0     C 6364   2.526   4.570   7.360 -0.0836  0.0148 -0.5939
   47MOL0     N 6365   2.428   4.624   7.463 -0.2757 -0.3134  0.3248
   47MOL0     C 6366   2.329   4.556   7.534  0.7212 -0.1250 -0.2702
   47MOL0     C 6367   2.250   4.644   7.594  0.0383 -0.0638 -0.2205
   47MOL0     C 6368   2.114   4.638   7.673 -0.0398  0.0781 -0.2317
   47MOL0     C 6369   1.989   4.660   7.587  0.3387  0.8074 -0.0482
   47MOL0     C 6370   1.933   4.522   7.543 -0.0717  1.0341  0.4143
   47MOL0     C 6371   1.823   4.531   7.442 -0.1906  0.9131  0.3572
   47MOL0     O 6372   1.784   4.392   7.392  0.2136 -1.0927  0.4588
   47MOL0     C 6373   1.659   4.336   7.428  0.7165  0.3433  0.0047
   47MOL0     C 6374   1.586   4.267   7.333  0.7800  0.0572 -0.0320
   47MOL0     C 6375   1.478   4.192   7.371 -0.0630  0.0097  0.3428
   47MOL0     C 6376   1.427   4.091   7.262 -0.2462  0.3954 -0.5946
   47MOL0     C 6377   1.428   4.197   7.498  1.0448 -0.3284 -1.0414
   47MOL0     C 6378   1.313   4.111   7.548 -0.5352  0.4804 -0.3237
   47MOL0     O 6379   1.200   4.084   7.480 -0.2443  0.6115  0.2975
   47MOL0     C 6380   1.103   4.007   7.540  0.4925  0.4803  0.4066
   47MOL0     C 6381   1.114   3.871   7.552  0.3646 -0.6111 -0.7792
   47MOL0     C 6382   1.001   3.795   7.602 -0.0632 -0.7288  0.2703
   47MOL0     C 6383   0.887   3.862   7.647 -0.6435  0.4269  0.5023
   47MOL0     O 6384   0.777   3.801   7.706  0.1783 -0.2651  0.9181
   47MOL0     C 6385   0.782   3.660   7.724 -0.3676  0.1268 -0.1288
   47MOL0     C 6386   0.651   3.605   7.786  0.1135  0.5540  0.0860
   47MOL0     C 6387   0.647   3.622   7.938  0.6707 -0.4902  0.3496
   47MOL0     C 6388   0.512   3.567   7.980 -0.5170 -0.2861 -0.1540
   47MOL0     C 6389   0.501   3.571   8.132  1.2231  0.2441  0.2008
   47MOL0     C 6390   0.387   3.467   8.180 -0.6679  0.1360 -0.0037
   47MOL0     C 6391   0.440   3.318   8.200  0.2043 -0.3660  0.7788
   47MOL0     C 6392   0.329   3.219   8.249  0.5019 -0.3768 -0.3838
   47MOL0    Cl 6393   0.178   3.224   8.141  0.0161  0.3180 -0.1096
   47MOL0     C 6394   0.888   3.999   7.644 -0.3648  0.1034 -0.5395
   47MOL0     C 6395   0.987   4.073   7.588 -0.9988 -0.3084 -0.2881
   47MOL0     O 6396   1.326   4.071   7.662  0.6472  0.5857 -0.2520
   47MOL0     C 6397   1.495   4.280   7.589  0.8192 -0.3033 -1.3492
   47MOL0     C 6398   1.614   4.346   7.557  1.4968 -0.0718 -0.1395
   47MOL0     N 6399   2.311   4.770   7.569 -0.7336 -0.1846  0.8607
   47MOL0     N 6400   2.411   4.760   7.488  0.3469 -0.1249  0.7826
   47MOL0     C 6401   3.180   3.785   7.363 -0.1068  0.0302  0.6270
   47MOL0     C 6402   3.218   3.659   7.325  0.7478  1.0186  0.2579
   47MOL0     C 6403   3.340   3.283   7.179  0.6217  0.1675 -0.4162
   47MOL0     C 6404   3.436   3.301   7.071  0.1353  0.1929  0.9380
   47MOL0     C 6405   3.457   3.204   6.974  0.3042  0.2472  0.2541
   47MOL0     C 6406   3.371   3.099   6.968 -0.5274  0.4840 -0.1973
   47MOL0     O 6407   3.399   3.021   6.854 -0.0691  0.5238 -0.1605
   47MOL0     C 6408   3.343   2.885   6.851 -0.2141 -0.0986  0.7692
   47MOL0     C 6409   3.387   2.831   6.715 -0.0939  0.6020 -0.0106
   47MOL0     C 6410   3.331   2.700   6.682  0.0587 -0.0814  0.5137
   47MOL0     C 6411   3.334   2.659   6.521  0.7043  0.4773  0.1994
   47MOL0     C 6412   3.229   2.563   6.487 -0.6267  0.5526 -0.5943
   47MOL0     C 6413   3.150   2.497   6.431  0.3511  0.2831  0.0485
   47MOL0     C 6414   3.279   3.069   7.073  0.6024 -0.0187 -0.7674
   47MOL0     C 6415   3.266   3.158   7.179 -0.2088  0.2326  0.1295
   47MOL0     C 6416   3.152   3.130   7.272  0.4596  0.7752  0.1943
   47MOL0     H 6417   3.532   3.758   7.216 -0.7439 -1.3684 -2.0408
   47MOL0     H 6418   3.443   3.963   7.260  3.5661 -2.9929 -0.3606
   47MOL0     H 6419   3.177   4.128   7.545  0.4960 -0.5357 -0.1595
   47MOL0     H 6420   3.107   3.979   7.548  1.1985  0.8439  1.2091
   47MOL0     H 6421   3.007   4.175   7.345 -3.2279  1.8038  0.4327
   47MOL0     H 6422   2.939   4.015   7.385 -0.3775  0.3201 -1.3070
   47MOL0     H 6423   2.812   4.091   7.542  0.3061  0.2004  2.1659
   47MOL0     H 6424   2.959   4.137   7.627 -0.6038 -1.1307 -0.2242
   47MOL0     H 6425   2.959   4.354   7.510  0.1299  0.3400 -0.0997
   47MOL0     H 6426   2.822   4.301   7.409 -3.1803 -0.8887  1.3189
   47MOL0     H 6427   2.796   4.360   7.699 -0.3916 -0.9160  0.9257
   47MOL0     H 6428   2.691   4.260   7.614  0.6152 -0.4081  1.7253
   47MOL0     H 6429   2.601   4.514   7.611 -2.7498 -1.9866 -1.6538
   47MOL0     H 6430   2.739   4.551   7.529 -0.9309  0.2211  0.5969
   47MOL0     H 6431   2.523   4.365   7.423 -0.2387  0.7117  5.0611
   47MOL0     H 6432   2.666   4.446   7.331  0.7066  4.0219  0.5505
   47MOL0     H 6433   2.587   4.654   7.325  1.7221 -1.4075 -0.9642
   47MOL0     H 6434   2.473   4.539   7.269 -1.8072  2.1244 -0.4090
   47MOL0     H 6435   2.319   4.448   7.521  3.0720 -0.7418  2.0689
   47MOL0     H 6436   2.114   4.706   7.758  0.5901  0.5756 -0.6207
   47MOL0     H 6437   2.115   4.537   7.713  0.0728  0.4526  0.7255
   47MOL0     H 6438   1.916   4.714   7.648  1.9756  0.7747  2.0380
   47MOL0     H 6439   2.016   4.716   7.497 -0.8368  0.1182 -0.8572
   47MOL0     H 6440   2.017   4.465   7.501 -1.0714  1.0247 -1.7345
   47MOL0     H 6441   1.890   4.475   7.631 -1.4246  1.9089  0.2542
   47MOL0     H 6442   1.739   4.583   7.488  0.7850  1.7006  1.2953
   47MOL0     H 6443   1.861   4.578   7.350  2.6078 -1.5145  0.1348
   47MOL0     H 6444   1.633   4.270   7.235  0.6169 -2.3442 -0.2389
   47MOL0     H 6445   1.506   4.047   7.201 -0.0994 -0.7731  0.3969
   47MOL0     H 6446   1.378   4.142   7.179 -0.3095  0.4850 -0.5025
   47MOL0     H 6447   1.374   4.004   7.302  2.1457 -2.0685 -2.3665
   47MOL0     H 6448   1.197   3.821   7.502 -0.3593 -2.3670 -0.2831
   47MOL0     H 6449   0.996   3.687   7.607 -1.6223 -0.6791  0.4475
   47MOL0     H 6450   0.805   3.600   7.636 -0.3332 -0.1381  0.0600
   47MOL0     H 6451   0.865   3.640   7.792 -0.0120  0.4913 -0.4473
   47MOL0     H 6452   0.561   3.642   7.736 -0.8506  0.8495  1.9846
   47MOL0     H 6453   0.650   3.496   7.774 -0.8226  0.3970  1.3957
   47MOL0     H 6454   0.665   3.725   7.968  1.9381 -0.2887 -0.9678
   47MOL0     H 6455   0.732   3.567   7.979  2.4403  2.4649  0.9277
   47MOL0     H 6456   0.515   3.459   7.960 -0.3792 -0.2015 -0.5942
   47MOL0     H 6457   0.428   3.621   7.935  0.4008 -0.4266 -2.1471
   47MOL0     H 6458   0.592   3.548   8.188  0.1960  2.3185  2.9615
   47MOL0     H 6459   0.471   3.670   8.167 -1.9852 -1.0864  1.5890
   47MOL0     H 6460   0.301   3.473   8.113  1.3010  2.2698 -2.5609
   47MOL0     H 6461   0.352   3.505   8.277  1.5979  3.8834 -0.4708
   47MOL0     H 6462   0.517   3.309   8.277  1.5291  2.2730 -0.1105
   47MOL0     H 6463   0.481   3.280   8.106 -1.2436  0.0542 -0.0470
   47MOL0     H 6464   0.304   3.222   8.356 -0.0514 -1.1440 -0.4847
   47MOL0     H 6465   0.364   3.117   8.228  3.2992  0.2930  0.5722
   47MOL0     H 6466   0.805   4.048   7.695  2.0979  1.8479  2.0596
   47MOL0     H 6467   0.991   4.181   7.587  2.7850 -0.2490  1.8990
   47MOL0     H 6468   1.462   4.279   7.693  2.7092 -2.3916 -0.7100
   47MOL0     H 6469   1.655   4.399   7.643  0.2736 -1.0870  1.1115
   47MOL0     H 6470   3.087   3.799   7.418  0.0887  1.7272  0.5849
   47MOL0     H 6471   3.148   3.582   7.354  0.4267  0.7533 -1.1907
   47MOL0     H 6472   3.499   3.390   7.071  1.3493 -0.6307 -0.9884
   47MOL0     H 6473   3.531   3.233   6.900 -0.8430  0.7733 -0.7098
   47MOL0     H 6474   3.387   2.824   6.930 -1.6051 -1.7340  0.3439
   47MOL0     H 6475   3.234   2.875   6.857 -0.0391 -3.3001  0.2579
   47MOL0     H 6476   3.495   2.827   6.702 -0.2815  1.5915 -2.4527
   47MOL0     H 6477   3.355   2.900   6.636 -0.4645  0.3990 -0.0401
   47MOL0     H 6478   3.385   2.619   6.732 -0.0971 -1.1974 -1.0525
   47MOL0     H 6479   3.224   2.693   6.703 -0.5599 -1.0213 -2.4616
   47MOL0     H 6480   3.436   2.627   6.498  1.0150  2.0229 -0.7727
   47MOL0     H 6481   3.319   2.747   6.457 -0.8955  0.1233  0.0524
   47MOL0     H 6482   3.065   2.452   6.384  1.4650  0.0143 -1.8010
   47MOL0     H 6483   3.212   2.984   7.066  0.1156  0.2919 -0.0541
   47MOL0     H 6484   3.102   3.033   7.258 -1.0205  1.5264  0.0676
   47MOL0     H 6485   3.195   3.134   7.372  0.2468 -0.3584  0.3483
   47MOL0     H 6486   3.077   3.208   7.257 -1.5482 -0.8981  0.9468
   48MOL0     O 6487  11.129   1.502   7.442 -0.0207  0.7452  1.4986
   48MOL0     C 6488  11.124   1.544   7.560 -1.2240 -0.2264  0.5424
   48MOL0     O 6489  11.020   1.521   7.650 -0.8010  0.2529  0.8956
   48MOL0     C 6490  10.939   1.415   7.617  0.6365  0.7241 -1.1216
   48MOL0     C 6491  10.821   1.431   7.551 -0.9905 -0.5630 -0.3010
   48MOL0     C 6492  10.744   1.327   7.506 -1.0751  0.0993  0.7194
   48MOL0     C 6493  10.781   1.200   7.538 -0.6262  0.7003 -0.7401
   48MOL0     O 6494  10.721   1.084   7.499  0.0095 -0.1826  1.0346
   48MOL0     C 6495  10.586   1.107   7.442 -0.9222  0.1913 -0.1428
   48MOL0     C 6496  10.521   0.975   7.410 -0.3145 -0.2760 -0.7350
   48MOL0     C 6497  10.605   0.900   7.307  0.1225  0.3346  1.6785
   48MOL0     C 6498  10.564   0.752   7.281 -0.1769  0.7364 -0.0488
   48MOL0     C 6499  10.643   0.692   7.166 -1.3382  0.5009 -0.5106
   48MOL0     C 6500  10.792   0.705   7.187 -0.5489 -0.3526  0.0491
   48MOL0     C 6501  10.884   0.593   7.116  0.3774  0.0399  0.2139
   48MOL0     C 6502  11.029   0.600   7.165  0.2379 -0.0202 -0.2512
   48MOL0     N 6503  11.093   0.474   7.165  0.6629  0.2001 -0.4522
   48MOL0     C 6504  11.232   0.452   7.170  0.3670  0.3038 -0.5760
   48MOL0     C 6505  11.243   0.329   7.230 -0.5135  0.5242 -0.0259
   48MOL0     C 6506  11.360   0.247   7.270  0.4647  0.2625 -0.2597
   48MOL0     C 6507  11.442   0.218   7.151  0.9658  0.5312  0.1050
   48MOL0     C 6508  11.562   0.120   7.198 -0.0942 -0.4409 -0.1189
   48MOL0     C 6509  11.641   0.063   7.079 -0.1648 -0.1891 -0.3757
   48MOL0     O 6510  11.559   0.009   6.979  0.5838  0.3935  0.3250
   48MOL0     C 6511  11.487  -0.109   6.992  0.4855  0.3384 -0.5237
   48MOL0     C 6512  11.534  -0.215   7.063  0.1680  0.8060  0.5556
   48MOL0     C 6513  11.464  -0.345   7.059  0.3738 -0.1223 -0.3227
   48MOL0     C 6514  11.532  -0.464   7.126 -0.1433  0.1022 -0.5461
   48MOL0     C 6515  11.330  -0.342   7.007  0.3849  0.0612  0.4718
   48MOL0     C 6516  11.229  -0.450   7.015 -0.4406  0.3216  0.1965
   48MOL0     O 6517  11.093  -0.410   7.023  0.1190  0.6785  0.1005
   48MOL0     C 6518  10.995  -0.498   6.973 -1.0016 -0.2424  0.0139
   48MOL0     C 6519  10.950  -0.469   6.849 -0.8437 -1.0012  0.0351
   48MOL0     C 6520  10.857  -0.553   6.787 -0.2582  0.1250  0.5152
   48MOL0     C 6521  10.816  -0.671   6.851 -0.2629  0.8390 -0.5574
   48MOL0     O 6522  10.717  -0.756   6.790  0.3060  0.4518 -0.0232
   48MOL0     C 6523  10.587  -0.718   6.834 -0.3267  0.3168  0.5285
   48MOL0     C 6524  10.497  -0.832   6.796  0.8264 -0.2617 -0.3044
   48MOL0     C 6525  10.359  -0.786   6.839  0.3832  0.7074  0.4397
   48MOL0     C 6526  10.250  -0.882   6.779  0.1523  0.4096  1.7830
   48MOL0     C 6527  10.118  -0.884   6.854 -0.3550  0.1858  0.1705
   48MOL0     C 6528  10.023  -0.979   6.776  0.4079  0.0442  0.2018
   48MOL0     C 6529   9.904  -1.012   6.867  1.1574 -0.3936 -0.0471
   48MOL0     C 6530   9.786  -1.041   6.778  0.1911 -0.2052 -0.2978
   48MOL0    Cl 6531   9.644  -1.024   6.875  0.2335 -0.4644 -0.4232
   48MOL0     C 6532  10.865  -0.697   6.974 -0.2510  0.6021 -0.2684
   48MOL0     C 6533  10.948  -0.607   7.044 -0.4290  0.0765 -0.1182
   48MOL0     O 6534  11.265  -0.572   7.016  0.4396  1.0738 -0.6224
   48MOL0     C 6535  11.280  -0.223   6.945 -0.6131  0.9559 -0.0801
   48MOL0     C 6536  11.368  -0.110   6.933  0.4217  0.0927  0.9200
   48MOL0     N 6537  11.119   0.273   7.241 -0.4084 -0.7574  0.4012
   48MOL0     N 6538  11.038   0.363   7.215  0.0240 -0.0297  0.2221
   48MOL0     C 6539  10.901   1.183   7.610 -0.5112  0.7543 -0.2655
   48MOL0     C 6540  10.969   1.283   7.661 -0.2264  0.2434 -0.1533
   48MOL0     C 6541  11.234   1.627   7.604  1.0165 -0.3193 -0.6549
   48MOL0     C 6542  11.202   1.735   7.681 -0.3431 -0.5202 -0.5444
   48MOL0     C 6543  11.288   1.845   7.696  0.1316 -0.8182  0.5369
   48MOL0     C 6544  11.417   1.843   7.650  0.4022  0.0514  0.0462
   48MOL0     O 6545  11.507   1.947   7.683  0.8625 -0.2653  0.3085
   48MOL0     C 6546  11.443   2.075   7.675  1.5667 -0.5038 -0.3703
   48MOL0     C 6547  11.565   2.171   7.639  0.2161  0.7411 -0.5389
   48MOL0     C 6548  11.604   2.156   7.489 -0.6966  0.0056 -0.1410
   48MOL0     C 6549  11.755   2.167   7.477  0.4011  0.0165  0.8061
   48MOL0     C 6550  11.792   2.189   7.334 -1.1286 -0.5383 -0.6466
   48MOL0     C 6551  11.830   2.184   7.214  0.8404 -0.0518  0.4932
   48MOL0     C 6552  11.455   1.731   7.578 -0.6604  0.8424  0.4278
   48MOL0     C 6553  11.369   1.627   7.552 -0.6825  0.2947  0.1323
   48MOL0     C 6554  11.425   1.514   7.469  0.1141 -0.5776 -1.1646
   48MOL0     H 6555  10.807   1.535   7.522  1.8000 -0.4167 -1.3895
   48MOL0     H 6556  10.667   1.357   7.435 -1.2916  1.1873  1.3950
   48MOL0     H 6557  10.596   1.166   7.350  1.3551 -0.0801 -0.1260
   48MOL0     H 6558  10.511   1.150   7.509 -0.4619  0.2625  0.3370
   48MOL0     H 6559  10.533   0.922   7.504 -0.5063  0.5407 -0.2393
   48MOL0     H 6560  10.413   0.978   7.391 -1.3221  2.3997  3.9102
   48MOL0     H 6561  10.595   0.964   7.219 -3.7275 -1.5185  0.5489
   48MOL0     H 6562  10.711   0.897   7.333  0.7479  1.3236 -0.4783
   48MOL0     H 6563  10.574   0.689   7.370  0.2938 -0.2500 -0.7773
   48MOL0     H 6564  10.460   0.735   7.249  0.5257 -1.3686 -1.4716
   48MOL0     H 6565  10.605   0.728   7.069  0.3092  1.3098 -0.8978
   48MOL0     H 6566  10.627   0.584   7.165 -3.8848  0.7485  2.3478
   48MOL0     H 6567  10.821   0.805   7.151 -0.0381 -0.1249  1.0466
   48MOL0     H 6568  10.819   0.708   7.293  5.2199 -0.6589 -1.1038
   48MOL0     H 6569  10.882   0.604   7.008 -4.7478  2.3816  0.2457
   48MOL0     H 6570  10.837   0.499   7.148 -0.9936  1.0565  1.3331
   48MOL0     H 6571  11.072   0.667   7.090 -1.2920 -1.3777 -2.4656
   48MOL0     H 6572  11.039   0.642   7.266 -1.6193 -0.1061  0.0019
   48MOL0     H 6573  11.309   0.523   7.144  1.7388  0.5371  3.3835
   48MOL0     H 6574  11.327   0.153   7.316 -0.1886  0.3135 -0.6260
   48MOL0     H 6575  11.416   0.298   7.349  0.5800  1.7541 -1.2765
   48MOL0     H 6576  11.386   0.159   7.078  0.6195 -0.1373  0.8957
   48MOL0     H 6577  11.480   0.311   7.109 -0.1773  0.1786 -1.8105
   48MOL0     H 6578  11.623   0.180   7.266  0.4022  0.2571 -1.1655
   48MOL0     H 6579  11.520   0.035   7.253 -0.2195 -0.2161  0.1311
   48MOL0     H 6580  11.704   0.142   7.038 -1.0333  1.7799  1.8528
   48MOL0     H 6581  11.705  -0.017   7.118 -2.0806 -0.0364  3.6048
   48MOL0     H 6582  11.636  -0.210   7.099  0.4995  3.3905 -0.5524
   48MOL0     H 6583  11.641  -0.453   7.131 -0.1977  0.1302  2.7542
   48MOL0     H 6584  11.506  -0.556   7.073  0.1118 -0.1220 -0.2889
   48MOL0     H 6585  11.501  -0.476   7.230 -1.1692 -2.8619 -1.1048
   48MOL0     H 6586  10.961  -0.376   6.794  0.0331 -0.8858  0.3880
   48MOL0     H 6587  10.815  -0.531   6.689 -2.8243  2.3452  1.9561
   48MOL0     H 6588  10.579  -0.711   6.942 -1.9412 -0.6676  0.4903
   48MOL0     H 6589  10.547  -0.624   6.794 -2.2610 -0.5732  0.3116
   48MOL0     H 6590  10.497  -0.842   6.687 -2.7625 -1.8239 -0.2988
   48MOL0     H 6591  10.537  -0.923   6.841 -1.1837 -1.8018 -1.4320
   48MOL0     H 6592  10.344  -0.680   6.815  1.8045  0.7224 -0.5258
   48MOL0     H 6593  10.347  -0.792   6.948 -1.7804  1.2038  0.2672
   48MOL0     H 6594  10.288  -0.984   6.775  3.6449  1.6280  0.1739
   48MOL0     H 6595  10.237  -0.846   6.676  2.4802  1.1814  1.6985
   48MOL0     H 6596  10.127  -0.920   6.956 -2.8250  1.3665  0.8887
   48MOL0     H 6597  10.086  -0.780   6.866  2.1812  0.8635  1.7517
   48MOL0     H 6598  10.072  -1.074   6.753 -3.1604 -0.9788 -4.5743
   48MOL0     H 6599   9.993  -0.934   6.681  2.3354  3.1410  0.9258
   48MOL0     H 6600   9.897  -0.923   6.932  1.4465 -1.2150  1.1393
   48MOL0     H 6601   9.925  -1.102   6.925 -0.8992  0.9635  3.0812
   48MOL0     H 6602   9.788  -1.140   6.732  0.4260 -0.5467  0.4270
   48MOL0     H 6603   9.776  -0.958   6.708  0.8201  0.9655  0.9410
   48MOL0     H 6604  10.845  -0.794   7.017 -1.7538 -0.5275 -3.1935
   48MOL0     H 6605  10.970  -0.627   7.149 -2.7283  0.4832  0.5015
   48MOL0     H 6606  11.194  -0.233   6.879  2.0345 -1.3175 -3.5826
   48MOL0     H 6607  11.324  -0.034   6.870  0.3157  0.7187  1.7289
   48MOL0     H 6608  10.919   1.078   7.635 -2.0327  0.3265 -0.8252
   48MOL0     H 6609  11.065   1.279   7.711  1.3860  4.6155 -2.3962
   48MOL0     H 6610  11.111   1.750   7.739  1.4246  1.2747  1.9955
   48MOL0     H 6611  11.253   1.929   7.755  0.3290 -2.2180  2.7726
   48MOL0     H 6612  11.368   2.072   7.596 -0.7077  0.3665  1.6434
   48MOL0     H 6613  11.387   2.104   7.764  0.7522  0.7603 -1.2713
   48MOL0     H 6614  11.639   2.148   7.716 -0.1751  0.8470 -0.1228
   48MOL0     H 6615  11.534   2.273   7.664 -2.9594 -0.7640  2.6017
   48MOL0     H 6616  11.588   2.056   7.449 -2.0884 -0.6419  1.8783
   48MOL0     H 6617  11.568   2.238   7.426 -1.0066  0.8888  1.1374
   48MOL0     H 6618  11.800   2.078   7.522  1.6081  0.6949  0.9871
   48MOL0     H 6619  11.793   2.254   7.531 -0.7142 -0.0081  1.6703
   48MOL0     H 6620  11.871   2.204   7.117  0.4278  0.9569  0.5083
   48MOL0     H 6621  11.556   1.729   7.540 -1.2098 -3.4345 -1.3782
   48MOL0     H 6622  11.396   1.416   7.508  0.0776 -0.4534 -0.8765
   48MOL0     H 6623  11.393   1.516   7.364 -3.4428  0.7577 -0.1869
   48MOL0     H 6624  11.534   1.519   7.479 -0.0879  3.3543  1.1542
   49MOL0     O 6625   5.342   5.342   8.835  0.7199  0.0984 -0.9008
   49MOL0     C 6626   5.237   5.353   8.907 -0.1124  0.0530  0.2648
   49MOL0     O 6627   5.173   5.246   8.972 -0.5686 -1.1360  0.2702
   49MOL0     C 6628   5.223   5.117   8.966 -0.3136 -1.4469 -0.3769
   49MOL0     C 6629   5.128   5.016   8.915 -1.1005  0.1273 -0.3497
   49MOL0     C 6630   5.177   4.896   8.876 -0.5023  0.0095 -0.2485
   49MOL0     C 6631   5.315   4.857   8.891 -0.5578 -0.1792  0.4332
   49MOL0     O 6632   5.343   4.725   8.865 -0.3562 -0.0018 -0.3116
   49MOL0     C 6633   5.482   4.674   8.867 -0.7554  0.7802  0.1512
   49MOL0     C 6634   5.473   4.532   8.811 -0.7502  0.1289  0.1099
   49MOL0     C 6635   5.391   4.437   8.902 -0.5308 -0.7597 -0.3939
   49MOL0     C 6636   5.431   4.296   8.871 -1.1643 -0.0898 -1.3552
   49MOL0     C 6637   5.344   4.197   8.953 -0.5271  0.3427 -0.4758
   49MOL0     C 6638   5.431   4.083   9.002  0.3437 -1.0877 -0.6731
   49MOL0     C 6639   5.337   3.982   9.076 -0.5023  0.6053  0.2361
   49MOL0     C 6640   5.256   3.890   8.979  0.8498  0.2047 -1.2249
   49MOL0     N 6641   5.210   3.779   9.070  0.0690 -0.0347 -0.0816
   49MOL0     C 6642   5.221   3.651   9.041 -0.0972 -0.0047  0.3265
   49MOL0     C 6643   5.154   3.584   9.137 -0.5773 -0.5370 -0.0650
   49MOL0     C 6644   5.111   3.435   9.137  0.6605  1.0354 -0.7683
   49MOL0     C 6645   5.004   3.389   9.234 -0.7237 -0.4764 -0.1908
   49MOL0     C 6646   4.987   3.238   9.216 -0.3587  0.1994 -0.6313
   49MOL0     C 6647   4.929   3.153   9.331 -0.3466 -0.6355  0.5346
   49MOL0     O 6648   5.027   3.108   9.424 -0.2192  0.2758  0.1117
   49MOL0     C 6649   4.973   3.061   9.537  0.5402 -0.6849  0.3228
   49MOL0     C 6650   4.956   3.155   9.637  0.2961 -1.4519  0.1235
   49MOL0     C 6651   4.862   3.143   9.747 -0.2728  0.4158 -0.0659
   49MOL0     C 6652   4.825   3.273   9.820 -0.3461  0.7281 -0.2042
   49MOL0     C 6653   4.819   3.012   9.774  0.0875  0.4025 -0.2356
   49MOL0     C 6654   4.748   2.971   9.900 -0.2945  0.4686 -0.0312
   49MOL0     O 6655   4.691   2.853   9.894  0.6728  0.2876  0.1784
   49MOL0     C 6656   4.617   2.807  10.003  0.4471  0.2859  0.6634
   49MOL0     C 6657   4.476   2.774   9.984  0.2640 -0.2774 -0.0868
   49MOL0     C 6658   4.398   2.727  10.082 -0.4488  0.3378  0.0018
   49MOL0     C 6659   4.451   2.714  10.219 -0.6359 -1.0169 -0.2028
   49MOL0     O 6660   4.371   2.701  10.328 -0.2924 -0.0650 -0.3822
   49MOL0     C 6661   4.234   2.730  10.312  0.1093  0.1204  0.1485
   49MOL0     C 6662   4.166   2.764  10.440  0.2751  0.0318 -0.8371
   49MOL0     C 6663   4.020   2.800  10.420  0.7430 -0.1427 -0.4452
   49MOL0     C 6664   3.951   2.791  10.560  0.3881 -0.4054 -0.7205
   49MOL0     C 6665   3.804   2.825  10.548 -0.0627 -0.5179  0.6546
   49MOL0     C 6666   3.737   2.881  10.675 -0.2790  0.0576  0.2575
   49MOL0     C 6667   3.667   2.762  10.751 -0.2370  0.0552  0.0798
   49MOL0     C 6668   3.530   2.796  10.815 -0.3568  0.1016 -0.5181
   49MOL0    Cl 6669   3.513   2.671  10.944 -0.2497  0.0372 -0.4204
   49MOL0     C 6670   4.592   2.736  10.240  1.1425  0.2583  0.1157
   49MOL0     C 6671   4.670   2.783  10.135  0.2151  0.1441 -0.0010
   49MOL0     O 6672   4.773   3.032  10.007  0.8786 -0.4019  0.1074
   49MOL0     C 6673   4.852   2.910   9.677 -0.3221 -0.2456  0.4703
   49MOL0     C 6674   4.918   2.931   9.555 -0.5320  0.6116 -0.2128
   49MOL0     N 6675   5.115   3.671   9.235 -0.3629 -0.0939  0.1127
   49MOL0     N 6676   5.145   3.786   9.190 -1.0591 -0.7589  0.1872
   49MOL0     C 6677   5.402   4.951   8.951  0.1141  0.2014  0.0814
   49MOL0     C 6678   5.354   5.080   8.986  0.3830 -0.2104  0.7121
   49MOL0     C 6679   5.164   5.489   8.904 -0.3209  0.4150  0.2302
   49MOL0     C 6680   5.025   5.485   8.922  0.2763  0.2600  0.9086
   49MOL0     C 6681   4.952   5.607   8.941  0.2441 -0.2843  0.1017
   49MOL0     C 6682   5.023   5.733   8.931  1.6527  0.4343 -0.4266
   49MOL0     O 6683   4.951   5.847   8.942  0.5663  0.5419 -0.5004
   49MOL0     C 6684   4.978   5.937   8.840 -0.1368 -0.6751 -0.0459
   49MOL0     C 6685   4.881   6.049   8.842 -0.0486  0.3964  0.6482
   49MOL0     C 6686   4.925   6.172   8.917  0.5492  0.6469 -0.0736
   49MOL0     C 6687   4.928   6.134   9.067  0.5424  0.1950 -0.5697
   49MOL0     C 6688   5.063   6.092   9.120 -0.2232 -0.4794  0.7254
   49MOL0     C 6689   5.170   6.052   9.163 -0.4555  0.2824  0.3904
   49MOL0     C 6690   5.161   5.734   8.914  0.0274  0.9075  0.0034
   49MOL0     C 6691   5.234   5.612   8.896  0.3527 -0.2089  0.4147
   49MOL0     C 6692   5.380   5.620   8.883 -0.2752 -0.4855 -0.7730
   49MOL0     H 6693   5.027   5.055   8.902 -0.8977  0.5898 -0.5608
   49MOL0     H 6694   5.111   4.818   8.837  0.3812 -1.0291  0.2701
   49MOL0     H 6695   5.521   4.682   8.968 -0.3878  1.3050 -0.0324
   49MOL0     H 6696   5.547   4.719   8.792  0.7069 -1.0545  0.2563
   49MOL0     H 6697   5.428   4.533   8.711 -0.5003 -0.1471 -0.0064
   49MOL0     H 6698   5.575   4.495   8.806 -1.5665 -2.1668 -2.7097
   49MOL0     H 6699   5.413   4.479   9.001  0.3213 -0.1330 -0.8330
   49MOL0     H 6700   5.290   4.450   8.863  0.7968  1.5418 -3.5396
   49MOL0     H 6701   5.423   4.269   8.765  4.2155 -1.6479 -1.6469
   49MOL0     H 6702   5.535   4.295   8.903 -1.4467  1.3710 -0.2790
   49MOL0     H 6703   5.260   4.167   8.890  2.3534  0.1628 -4.6604
   49MOL0     H 6704   5.297   4.249   9.036  0.4572  0.8876 -0.2443
   49MOL0     H 6705   5.494   4.036   8.927  1.1416  0.0170 -0.7176
   49MOL0     H 6706   5.507   4.125   9.069  5.5201 -5.6376 -2.9333
   49MOL0     H 6707   5.259   4.023   9.141  0.6360 -0.1031  2.1177
   49MOL0     H 6708   5.401   3.918   9.137 -1.4080 -0.9481 -0.3774
   49MOL0     H 6709   5.172   3.946   8.937  2.4470  1.9916 -2.1827
   49MOL0     H 6710   5.315   3.843   8.901 -2.0786 -1.1675 -2.7806
   49MOL0     H 6711   5.266   3.615   8.949 -0.3402  1.2062 -0.2888
   49MOL0     H 6712   5.202   3.381   9.163 -0.6911  0.0617  2.4260
   49MOL0     H 6713   5.093   3.409   9.033 -0.7655  5.2406 -1.7920
   49MOL0     H 6714   5.017   3.408   9.341 -0.1449  1.7871 -0.6159
   49MOL0     H 6715   4.909   3.436   9.207 -0.3996  1.4641  1.7255
   49MOL0     H 6716   4.937   3.215   9.121 -1.6786 -0.0200  0.0900
   49MOL0     H 6717   5.089   3.199   9.211 -0.6596 -0.7155  0.1488
   49MOL0     H 6718   4.851   3.204   9.389 -0.1645  0.5774 -0.2519
   49MOL0     H 6719   4.869   3.072   9.287 -0.8385 -0.6305  1.1833
   49MOL0     H 6720   5.017   3.245   9.626  0.1534 -1.3207  0.3984
   49MOL0     H 6721   4.863   3.364   9.772 -1.4469  1.3383  0.0360
   49MOL0     H 6722   4.869   3.271   9.920  1.5305 -1.2336 -0.9903
   49MOL0     H 6723   4.715   3.272   9.820 -0.3603  1.1222  0.8528
   49MOL0     H 6724   4.442   2.800   9.884  4.3225  3.0395 -0.8952
   49MOL0     H 6725   4.295   2.724  10.050  0.0595  2.0369 -1.9748
   49MOL0     H 6726   4.224   2.815  10.243 -1.3201  0.0077  0.1916
   49MOL0     H 6727   4.192   2.641  10.265 -2.2823  1.6398 -0.7728
   49MOL0     H 6728   4.169   2.674  10.502 -0.1168 -0.3071 -1.3014
   49MOL0     H 6729   4.213   2.843  10.498 -0.3519 -1.0747  1.2686
   49MOL0     H 6730   3.965   2.747  10.343 -0.7187 -0.3080  0.6616
   49MOL0     H 6731   4.037   2.902  10.383  2.9362 -0.0979  0.5373
   49MOL0     H 6732   4.000   2.859  10.630  1.4177 -1.7170 -0.1115
   49MOL0     H 6733   3.968   2.693  10.606  2.0483  1.1439  2.2765
   49MOL0     H 6734   3.792   2.906  10.474  1.6013 -0.8226 -0.0071
   49MOL0     H 6735   3.756   2.737  10.504  0.9069  0.3935 -2.5225
   49MOL0     H 6736   3.659   2.950  10.641  1.7541  0.5250 -4.2180
   49MOL0     H 6737   3.809   2.929  10.742 -0.0281 -0.5337  0.4193
   49MOL0     H 6738   3.724   2.733  10.840  0.7396 -4.5025 -1.7204
   49MOL0     H 6739   3.634   2.682  10.684 -1.5507  1.6750 -1.3088
   49MOL0     H 6740   3.448   2.796  10.743 -1.0926  3.2580  0.1984
   49MOL0     H 6741   3.539   2.897  10.856 -2.0310  0.4926 -1.0564
   49MOL0     H 6742   4.626   2.741  10.343 -1.6441  2.2345  1.0808
   49MOL0     H 6743   4.775   2.796  10.160  0.8003 -2.4281 -0.8385
   49MOL0     H 6744   4.841   2.804   9.698 -0.6515 -0.5690 -1.2189
   49MOL0     H 6745   4.915   2.850   9.483 -0.8944  1.7052 -1.4570
   49MOL0     H 6746   5.505   4.921   8.966 -0.4310 -3.4033 -2.1475
   49MOL0     H 6747   5.423   5.154   9.025 -2.9196  4.8632 -2.0518
   49MOL0     H 6748   4.975   5.389   8.925 -1.8201  1.3364  2.4679
   49MOL0     H 6749   4.844   5.611   8.950  0.1749 -1.7135  0.1468
   49MOL0     H 6750   5.078   5.977   8.858 -0.5481  0.7430 -0.7761
   49MOL0     H 6751   4.979   5.894   8.740 -2.3260 -3.3541  0.9388
   49MOL0     H 6752   4.785   6.014   8.879 -0.7389  2.3365  0.7832
   49MOL0     H 6753   4.861   6.078   8.738  1.9556 -2.6436 -0.7483
   49MOL0     H 6754   5.019   6.208   8.873  0.0584 -2.4228 -4.2296
   49MOL0     H 6755   4.848   6.247   8.897 -0.2243  0.9453  3.4900
   49MOL0     H 6756   4.843   6.066   9.080  1.1892 -0.7158 -0.9922
   49MOL0     H 6757   4.891   6.222   9.121 -1.5094 -1.0225  0.1348
   49MOL0     H 6758   5.263   6.015   9.202  1.3796  1.7731 -2.1722
   49MOL0     H 6759   5.212   5.828   8.900 -1.6696  1.7022 -1.2692
   49MOL0     H 6760   5.402   5.574   8.787 -0.1065 -0.1154 -0.9129
   49MOL0     H 6761   5.429   5.718   8.888  1.6296 -1.3956 -0.8520
   49MOL0     H 6762   5.435   5.561   8.958  0.9200  2.0528  0.4683
   50MOL0     O 6763  11.265   7.854   6.431  0.3484 -0.6143 -0.0545
   50MOL0     C 6764  11.359   7.796   6.369  0.0656  0.2077  1.0556
   50MOL0     O 6765  11.494   7.835   6.365 -0.1235  0.4120  0.0125
   50MOL0     C 6766  11.550   7.927   6.453  0.8687 -0.5196  0.7036
   50MOL0     C 6767  11.678   7.914   6.491 -0.3194 -0.6684  0.6773
   50MOL0     C 6768  11.752   8.016   6.542  0.6813  0.4220 -0.6400
   50MOL0     C 6769  11.691   8.131   6.596 -0.5967  0.2465  0.3302
   50MOL0     O 6770  11.762   8.222   6.669  0.1741  0.6979 -0.3827
   50MOL0     C 6771  11.868   8.285   6.594 -0.6751 -0.0493 -0.1160
   50MOL0     C 6772  11.975   8.331   6.695 -0.2398 -0.9208 -0.0217
   50MOL0     C 6773  11.991   8.225   6.804 -0.8011 -0.3745 -0.4668
   50MOL0     C 6774  12.109   8.276   6.889 -1.0930 -0.6072 -0.2517
   50MOL0     C 6775  12.150   8.180   6.997 -0.1691  0.1366 -1.2700
   50MOL0     C 6776  12.057   8.177   7.121 -0.0524 -0.0666 -0.4968
   50MOL0     C 6777  12.096   8.077   7.227 -0.1909  0.0404 -0.3458
   50MOL0     C 6778  12.188   8.143   7.341  0.0423  0.2022 -1.2534
   50MOL0     N 6779  12.189   8.058   7.460  0.2461 -0.3554  0.2067
   50MOL0     C 6780  12.077   8.045   7.545  0.3013 -0.1032 -0.4723
   50MOL0     C 6781  12.121   7.955   7.639 -0.6839 -0.0334 -0.0740
   50MOL0     C 6782  12.038   7.917   7.753  0.0559 -0.2449  0.2797
   50MOL0     C 6783  12.033   8.016   7.878 -0.6164  0.0018  1.3134
   50MOL0     C 6784  12.151   8.007   7.974 -0.5025  0.0175  0.0148
   50MOL0     C 6785  12.123   8.080   8.104  0.3341  0.1586 -0.6048
   50MOL0     O 6786  12.088   8.215   8.072  0.8631 -0.6919 -0.5516
   50MOL0     C 6787  12.064   8.309   8.175  0.9035  1.1624 -0.9119
   50MOL0     C 6788  12.043   8.266   8.309 -0.5524  0.0835  0.4033
   50MOL0     C 6789  12.027   8.365   8.404  0.7584  0.1508  0.4188
   50MOL0     C 6790  12.001   8.310   8.543 -0.9684  0.3142 -0.2436
   50MOL0     C 6791  12.022   8.508   8.378 -0.1312  0.8497 -0.3927
   50MOL0     C 6792  11.991   8.619   8.475  0.3995 -0.2559  0.4934
   50MOL0     O 6793  11.995   8.578   8.611  0.1608  0.3211 -0.4479
   50MOL0     C 6794  12.015   8.670   8.710  0.4438 -0.8246 -0.1152
   50MOL0     C 6795  12.011   8.611   8.845 -0.3369 -0.1244  0.8039
   50MOL0     C 6796  12.009   8.691   8.960 -0.8409  0.4502  0.5922
   50MOL0     C 6797  12.029   8.837   8.942 -0.1442 -0.4351 -0.3559
   50MOL0     O 6798  12.031   8.928   9.045 -0.4558 -0.3301  0.5819
   50MOL0     C 6799  12.036   8.879   9.180  0.5066 -0.1388 -0.4936
   50MOL0     C 6800  12.049   8.992   9.272  0.0418 -0.3375 -0.8381
   50MOL0     C 6801  12.190   9.049   9.260  0.2813 -0.2167 -0.2621
   50MOL0     C 6802  12.212   9.157   9.368 -0.3644  0.8125 -0.2431
   50MOL0     C 6803  12.354   9.215   9.343 -0.3337 -0.1230 -1.0354
   50MOL0     C 6804  12.392   9.320   9.451 -0.1735 -0.1543  0.1989
   50MOL0     C 6805  12.516   9.396   9.403  0.1299 -0.3199  0.6723
   50MOL0     C 6806  12.586   9.494   9.509 -0.2817  1.7149  0.5207
   50MOL0    Cl 6807  12.487   9.629   9.532  0.4274  0.2671 -0.2748
   50MOL0     C 6808  12.040   8.892   8.809  1.2069  0.0048 -0.0917
   50MOL0     C 6809  12.027   8.811   8.696 -0.9034 -0.6737  0.4831
   50MOL0     O 6810  11.949   8.724   8.429  0.3352  0.3043  0.6810
   50MOL0     C 6811  12.042   8.544   8.244  1.2761  0.4901  0.1755
   50MOL0     C 6812  12.059   8.446   8.141 -0.0490 -0.1414 -0.1258
   50MOL0     N 6813  12.256   7.927   7.612 -0.1386 -0.3592 -0.0666
   50MOL0     N 6814  12.293   7.994   7.503 -0.2224  0.4255 -0.0120
   50MOL0     C 6815  11.556   8.150   6.557 -0.1141  0.1665 -0.7553
   50MOL0     C 6816  11.487   8.043   6.493 -0.2899 -0.2527  0.2469
   50MOL0     C 6817  11.318   7.681   6.280  0.1620 -0.2867  0.3173
   50MOL0     C 6818  11.364   7.666   6.149  0.5788  0.1017  0.0299
   50MOL0     C 6819  11.320   7.571   6.063  0.3283  0.4381 -0.3313
   50MOL0     C 6820  11.224   7.479   6.103  0.1751 -0.1828  0.2472
   50MOL0     O 6821  11.181   7.374   6.027  0.3523  0.0673  0.0271
   50MOL0     C 6822  11.230   7.368   5.891  0.6635  0.7399 -0.2460
   50MOL0     C 6823  11.166   7.263   5.802  0.8205 -0.9775 -0.0902
   50MOL0     C 6824  11.220   7.268   5.659 -0.3065 -0.4747 -0.4701
   50MOL0     C 6825  11.164   7.149   5.585 -0.8441  0.7274 -0.1241
   50MOL0     C 6826  11.234   7.033   5.638 -0.4128  0.4808  0.2574
   50MOL0     C 6827  11.294   6.942   5.691  0.6687 -0.3863 -0.0243
   50MOL0     C 6828  11.183   7.490   6.231 -0.3097  0.3150 -0.6996
   50MOL0     C 6829  11.223   7.585   6.322 -0.2659 -0.2446 -0.4538
   50MOL0     C 6830  11.140   7.601   6.456  0.2864 -0.7732  1.2043
   50MOL0     H 6831  11.726   7.821   6.459  0.2105 -0.5453  1.0974
   50MOL0     H 6832  11.859   8.008   6.557  0.3382 -0.4454  1.7682
   50MOL0     H 6833  11.832   8.370   6.535  0.2526 -0.1808 -0.8988
   50MOL0     H 6834  11.912   8.214   6.524 -1.9256 -2.5076  1.4490
   50MOL0     H 6835  12.071   8.336   6.643  0.5273 -0.2515  1.4114
   50MOL0     H 6836  11.943   8.433   6.722 -1.1688 -1.5886  1.4996
   50MOL0     H 6837  11.903   8.229   6.869 -0.6689  2.4987 -0.3601
   50MOL0     H 6838  11.994   8.121   6.769 -2.0032 -0.3267 -0.7681
   50MOL0     H 6839  12.200   8.276   6.829  2.5474 -0.8099  4.5843
   50MOL0     H 6840  12.101   8.380   6.921  3.2395  0.3666 -1.7169
   50MOL0     H 6841  12.251   8.204   7.031 -0.2774 -1.8293  0.6596
   50MOL0     H 6842  12.156   8.082   6.950  1.3219 -0.3277 -0.1725
   50MOL0     H 6843  12.045   8.277   7.162 -1.1004 -0.2395 -0.3578
   50MOL0     H 6844  11.960   8.147   7.081  0.1126 -0.4312 -0.6250
   50MOL0     H 6845  12.150   7.992   7.184  0.4164 -1.4570  3.0496
   50MOL0     H 6846  12.005   8.028   7.265 -0.3855 -0.1098 -0.9771
   50MOL0     H 6847  12.291   8.158   7.307  0.3584 -0.2048 -0.5055
   50MOL0     H 6848  12.143   8.241   7.362  0.3700 -0.1626  1.5023
   50MOL0     H 6849  11.986   8.102   7.530  1.3789  1.9010  0.2869
   50MOL0     H 6850  12.065   7.819   7.795  1.3450  0.8001  1.9998
   50MOL0     H 6851  11.933   7.902   7.725 -0.4732  2.2599  0.7167
   50MOL0     H 6852  12.023   8.120   7.847 -1.7997  0.3996  2.9129
   50MOL0     H 6853  11.937   7.995   7.925 -2.4390  2.3923 -1.0419
   50MOL0     H 6854  12.169   7.902   8.000 -4.3597 -0.7111  0.3764
   50MOL0     H 6855  12.238   8.058   7.932 -2.4081  2.5853 -1.0844
   50MOL0     H 6856  12.038   8.037   8.159  1.3940 -0.0531  0.9152
   50MOL0     H 6857  12.206   8.069   8.174 -1.0400 -0.8881  0.9627
   50MOL0     H 6858  12.060   8.162   8.335  0.4686 -0.3742 -1.9201
   50MOL0     H 6859  11.906   8.348   8.582 -0.0834 -0.9618  3.5461
   50MOL0     H 6860  12.082   8.340   8.610 -2.1032  2.7421  0.1431
   50MOL0     H 6861  11.996   8.201   8.538 -0.4945  0.3211 -1.0595
   50MOL0     H 6862  11.999   8.503   8.852  0.2375 -0.0837  3.9085
   50MOL0     H 6863  12.011   8.647   9.059 -2.0908 -3.4917 -0.9664
   50MOL0     H 6864  11.938   8.834   9.197  0.1645 -0.0419 -2.0629
   50MOL0     H 6865  12.125   8.815   9.188 -0.0688 -0.8664  0.2168
   50MOL0     H 6866  11.982   9.075   9.246  0.8402  0.4337 -0.4649
   50MOL0     H 6867  12.020   8.953   9.370 -2.5399  1.4997 -0.7426
   50MOL0     H 6868  12.199   9.096   9.161 -1.0655  0.7800  0.0668
   50MOL0     H 6869  12.265   8.971   9.276  1.5734  0.8027 -1.0601
   50MOL0     H 6870  12.196   9.105   9.463  1.3153  0.8089  0.0623
   50MOL0     H 6871  12.137   9.232   9.341 -2.6601 -1.7459 -1.4555
   50MOL0     H 6872  12.428   9.135   9.352 -0.1655  0.2201  1.3416
   50MOL0     H 6873  12.366   9.255   9.242 -1.0620 -1.9239 -1.8789
   50MOL0     H 6874  12.419   9.271   9.545  2.0894 -2.5354 -1.5312
   50MOL0     H 6875  12.304   9.383   9.466 -0.4370  0.0501 -1.8760
   50MOL0     H 6876  12.495   9.457   9.315 -0.6612  0.8120  1.6116
   50MOL0     H 6877  12.592   9.322   9.378  0.1010 -0.8508  2.0467
   50MOL0     H 6878  12.683   9.529   9.476 -0.1528  0.2878 -0.7378
   50MOL0     H 6879  12.595   9.430   9.598 -0.4139  1.8162  0.6084
   50MOL0     H 6880  12.053   8.999   8.794  0.9574 -0.2852 -3.0476
   50MOL0     H 6881  12.032   8.862   8.600  1.2743 -0.7707  0.4788
   50MOL0     H 6882  12.054   8.650   8.223  2.0708  0.3907  0.1067
   50MOL0     H 6883  12.080   8.467   8.037 -0.5989 -1.1766 -0.4632
   50MOL0     H 6884  11.507   8.243   6.583  0.1706  0.4767 -1.3078
   50MOL0     H 6885  11.388   8.073   6.461  0.6154  2.5966 -0.1840
   50MOL0     H 6886  11.446   7.730   6.116  0.3800  0.3553  0.0245
   50MOL0     H 6887  11.364   7.569   5.964  3.4400  3.3843  0.7704
   50MOL0     H 6888  11.215   7.462   5.837 -0.1848  0.4725 -0.4885
   50MOL0     H 6889  11.336   7.339   5.887  0.3349 -0.3497 -3.2065
   50MOL0     H 6890  11.062   7.298   5.799  2.1005  3.3138 -1.1488
   50MOL0     H 6891  11.173   7.171   5.860 -3.7035 -1.4706  0.0688
   50MOL0     H 6892  11.199   7.363   5.609  0.8873  0.3529  0.5699
   50MOL0     H 6893  11.327   7.283   5.672  0.0150 -2.5937 -0.2658
   50MOL0     H 6894  11.201   7.156   5.482  0.7852 -0.3056  0.3608
   50MOL0     H 6895  11.055   7.146   5.594 -0.6651  0.3327  4.5839
   50MOL0     H 6896  11.343   6.856   5.732  2.0508  0.7454  0.7375
   50MOL0     H 6897  11.110   7.422   6.275  1.8549 -0.4207  2.0496
   50MOL0     H 6898  11.215   7.615   6.534  2.6046 -2.2317 -0.6103
   50MOL0     H 6899  11.069   7.683   6.442  2.0647  0.6000 -0.3759
   50MOL0     H 6900  11.081   7.515   6.487  1.0417 -0.4731  3.6813
   51MOL0     O 6901   5.535  11.136   4.970  0.3776  0.0535 -0.2731
   51MOL0     C 6902   5.423  11.103   4.930 -0.9799  0.4714 -0.2212
   51MOL0     O 6903   5.402  11.049   4.812  1.1153  0.4218 -0.2984
   51MOL0     C 6904   5.485  11.082   4.704  0.5475  0.0600 -0.2003
   51MOL0     C 6905   5.457  11.003   4.593  0.3337 -0.1835  0.0790
   51MOL0     C 6906   5.534  11.027   4.473  0.3821 -0.0219  0.0423
   51MOL0     C 6907   5.631  11.125   4.464  0.2481 -0.2974 -0.0983
   51MOL0     O 6908   5.701  11.128   4.346 -0.2920  0.4026  0.1134
   51MOL0     C 6909   5.827  11.204   4.356  0.0591 -0.5210 -0.2795
   51MOL0     C 6910   5.800  11.349   4.322  0.1649  1.1838  0.1572
   51MOL0     C 6911   5.754  11.372   4.182  0.1456 -0.8538 -0.4107
   51MOL0     C 6912   5.871  11.386   4.093  0.8549 -0.8136  0.0502
   51MOL0     C 6913   5.825  11.396   3.946  0.7092 -0.3330  0.2476
   51MOL0     C 6914   5.757  11.528   3.891 -0.8228  0.8721 -0.5370
   51MOL0     C 6915   5.847  11.657   3.901 -0.2976 -0.1523  0.3172
   51MOL0     C 6916   5.793  11.772   3.810 -1.0214  0.2681  0.2197
   51MOL0     N 6917   5.658  11.823   3.836 -0.6327 -0.3858 -0.1021
   51MOL0     C 6918   5.564  11.849   3.729 -0.9212 -0.6974 -0.5336
   51MOL0     C 6919   5.459  11.902   3.794 -0.1987 -0.1488 -0.1309
   51MOL0     C 6920   5.342  11.967   3.724 -0.2196 -0.6529  0.0520
   51MOL0     C 6921   5.367  12.107   3.656  0.4682 -0.0655  0.5304
   51MOL0     C 6922   5.240  12.170   3.598 -0.6609  0.0539  0.3312
   51MOL0     C 6923   5.278  12.299   3.533 -0.8100 -0.0441  0.4668
   51MOL0     O 6924   5.171  12.364   3.475 -0.5605 -0.1843  0.0725
   51MOL0     C 6925   5.179  12.415   3.355  1.2756 -0.1273  0.5953
   51MOL0     C 6926   5.052  12.437   3.297 -0.3981 -0.1721 -0.0575
   51MOL0     C 6927   5.038  12.509   3.180  0.3971  0.2127  0.3634
   51MOL0     C 6928   4.893  12.546   3.136  0.3277  0.6880  0.6918
   51MOL0     C 6929   5.160  12.561   3.124  0.5726 -0.2189  0.3470
   51MOL0     C 6930   5.159  12.651   3.010 -0.0769  0.1367  0.8161
   51MOL0     O 6931   5.268  12.728   2.972 -0.5977 -0.2075 -0.4020
   51MOL0     C 6932   5.278  12.808   2.856  0.0738 -0.2868 -0.4466
   51MOL0     C 6933   5.399  12.882   2.838 -0.1840 -0.2638 -0.2603
   51MOL0     C 6934   5.423  12.968   2.729  0.1215 -0.3727 -0.8858
   51MOL0     C 6935   5.323  12.990   2.633  0.0528  0.5669 -0.7272
   51MOL0     O 6936   5.342  13.072   2.531  0.6084 -0.2501  1.3453
   51MOL0     C 6937   5.245  13.060   2.414  0.2583 -0.3918  0.1461
   51MOL0     C 6938   5.272  13.161   2.305  0.0315  0.8420 -0.7109
   51MOL0     C 6939   5.396  13.119   2.212  1.4195  0.6165 -0.0861
   51MOL0     C 6940   5.522  13.096   2.281  0.5025 -0.1048  0.6754
   51MOL0     C 6941   5.584  13.219   2.351  0.4104  0.4845 -0.1159
   51MOL0     C 6942   5.677  13.298   2.274 -0.6148  0.0822  0.7332
   51MOL0     C 6943   5.740  13.408   2.361  0.6590  0.4914  0.9633
   51MOL0     C 6944   5.647  13.535   2.379 -0.7633 -0.2088 -0.2936
   51MOL0    Cl 6945   5.585  13.603   2.226  0.5003  0.1027 -0.0633
   51MOL0     C 6946   5.205  12.909   2.650 -0.0150  0.5146  0.5317
   51MOL0     C 6947   5.185  12.825   2.757  0.0444  0.1058 -0.2449
   51MOL0     O 6948   5.060  12.641   2.933  0.2213  0.1900 -0.1014
   51MOL0     C 6949   5.282  12.547   3.189  0.4469 -0.6956  0.6274
   51MOL0     C 6950   5.292  12.473   3.303  0.3825 -0.5486 -0.0973
   51MOL0     N 6951   5.490  11.911   3.932 -0.0886  0.8308 -0.6573
   51MOL0     N 6952   5.603  11.861   3.956 -0.0729 -0.1342 -0.2252
   51MOL0     C 6953   5.657  11.204   4.576  0.2632 -1.0088 -0.4164
   51MOL0     C 6954   5.587  11.183   4.695 -0.3237  0.2709 -0.7117
   51MOL0     C 6955   5.310  11.095   5.027  0.0975  0.8122 -0.2943
   51MOL0     C 6956   5.203  10.999   5.006  0.0630  0.0401  0.3476
   51MOL0     C 6957   5.096  10.988   5.089 -0.1122 -0.3155 -0.8514
   51MOL0     C 6958   5.092  11.067   5.210  0.3419  0.1075  0.3423
   51MOL0     O 6959   4.994  11.040   5.300  0.1234 -0.6471 -0.8228
   51MOL0     C 6960   5.055  10.962   5.403  0.2108  0.1551 -0.0194
   51MOL0     C 6961   4.953  10.932   5.513  0.1082 -0.2579  0.1079
   51MOL0     C 6962   4.856  11.043   5.560  0.0614 -0.0062 -0.8352
   51MOL0     C 6963   4.716  10.989   5.598  0.0296 -0.3969 -0.9430
   51MOL0     C 6964   4.717  10.868   5.680 -0.7048 -0.3786 -0.5465
   51MOL0     C 6965   4.727  10.771   5.751 -1.0535 -0.4982 -0.7201
   51MOL0     C 6966   5.195  11.157   5.233 -0.0296 -0.0594 -0.0651
   51MOL0     C 6967   5.298  11.180   5.142 -0.6231  0.3501 -0.5694
   51MOL0     C 6968   5.386  11.295   5.164 -0.1580  0.2577  0.6888
   51MOL0     H 6969   5.385  10.921   4.598 -2.8190  2.3304 -0.6864
   51MOL0     H 6970   5.522  10.956   4.392 -1.2458 -0.0337  0.2587
   51MOL0     H 6971   5.904  11.168   4.287  1.6107  0.5731  0.8101
   51MOL0     H 6972   5.876  11.181   4.452 -0.4160 -1.6823 -0.3027
   51MOL0     H 6973   5.723  11.394   4.385  1.1177  4.9460 -1.1121
   51MOL0     H 6974   5.898  11.393   4.338  0.4306  0.1926  1.4648
   51MOL0     H 6975   5.691  11.291   4.146 -1.8834  1.2988 -2.0219
   51MOL0     H 6976   5.690  11.460   4.181 -3.4715 -3.2931 -0.4001
   51MOL0     H 6977   5.921  11.481   4.110  0.1600 -0.4974  0.3894
   51MOL0     H 6978   5.940  11.302   4.103  0.9433 -0.7127  0.2974
   51MOL0     H 6979   5.748  11.322   3.922 -2.2461  1.1361  4.1414
   51MOL0     H 6980   5.915  11.379   3.886  0.1373  1.8199 -1.3641
   51MOL0     H 6981   5.737  11.513   3.784 -1.0389  2.5663 -0.7712
   51MOL0     H 6982   5.661  11.530   3.943 -0.6890 -0.1565 -0.2274
   51MOL0     H 6983   5.952  11.644   3.877  0.8902  3.4502  2.6843
   51MOL0     H 6984   5.844  11.701   4.001 -0.7509 -1.0032  0.6899
   51MOL0     H 6985   5.865  11.854   3.819 -0.1629 -0.6816  3.4242
   51MOL0     H 6986   5.795  11.731   3.709 -0.7094 -0.5639  0.5555
   51MOL0     H 6987   5.569  11.826   3.622  2.5545 -2.4186 -0.1639
   51MOL0     H 6988   5.261  11.977   3.797 -0.4629 -0.8075 -0.1966
   51MOL0     H 6989   5.302  11.906   3.643 -0.0716 -2.1031  1.0202
   51MOL0     H 6990   5.408  12.172   3.733  2.1592  1.0195 -1.1980
   51MOL0     H 6991   5.443  12.094   3.578 -0.1005  0.6693 -0.1650
   51MOL0     H 6992   5.195  12.112   3.518  0.8128  1.2622 -1.4441
   51MOL0     H 6993   5.166  12.187   3.677 -1.8146 -2.7150 -0.0407
   51MOL0     H 6994   5.339  12.360   3.600  1.3955 -3.1254  1.5422
   51MOL0     H 6995   5.342  12.264   3.451 -2.2033  1.1697 -1.1901
   51MOL0     H 6996   4.972  12.372   3.330  0.0862 -0.0654  1.3938
   51MOL0     H 6997   4.869  12.527   3.031  1.4843 -1.1473  0.7102
   51MOL0     H 6998   4.893  12.652   3.161 -2.5619  1.4516 -1.9324
   51MOL0     H 6999   4.818  12.492   3.196 -0.8383 -2.0705 -2.8721
   51MOL0     H 7000   5.481  12.861   2.906 -0.6462 -0.4977  0.2358
   51MOL0     H 7001   5.520  13.015   2.716  0.0956 -0.6294 -2.1740
   51MOL0     H 7002   5.236  12.960   2.369  0.6032 -0.6267  0.5891
   51MOL0     H 7003   5.149  13.083   2.460  0.7687  1.0730  0.5150
   51MOL0     H 7004   5.185  13.186   2.244 -1.2697  0.6226  0.9749
   51MOL0     H 7005   5.294  13.258   2.350  1.7944 -0.3638  1.2194
   51MOL0     H 7006   5.412  13.198   2.138 -2.2042  0.2617 -1.4720
   51MOL0     H 7007   5.371  13.028   2.156  1.7653  0.6846 -0.3544
   51MOL0     H 7008   5.596  13.047   2.218 -2.3922 -3.0229 -0.8128
   51MOL0     H 7009   5.500  13.027   2.364 -2.3811  0.5152  0.5266
   51MOL0     H 7010   5.502  13.278   2.394  0.5167  1.5070 -1.2801
   51MOL0     H 7011   5.629  13.182   2.443 -0.5449 -2.0003 -0.5558
   51MOL0     H 7012   5.630  13.340   2.185  0.3067 -1.6736 -0.6366
   51MOL0     H 7013   5.755  13.234   2.233  0.3695  0.7668  1.4744
   51MOL0     H 7014   5.827  13.422   2.296  2.0375 -1.1867  2.3532
   51MOL0     H 7015   5.768  13.380   2.463  0.8895  0.6792  0.9510
   51MOL0     H 7016   5.708  13.603   2.439 -0.6213 -0.3863 -0.2377
   51MOL0     H 7017   5.562  13.519   2.445 -0.2897 -0.5738  0.2313
   51MOL0     H 7018   5.127  12.905   2.575  2.0672 -0.9294 -1.6899
   51MOL0     H 7019   5.085  12.785   2.762  0.0523  0.2186  1.7274
   51MOL0     H 7020   5.378  12.575   3.147 -0.3283  1.2829  0.0606
   51MOL0     H 7021   5.388  12.461   3.351  0.5332 -2.2743 -0.7667
   51MOL0     H 7022   5.726  11.288   4.571 -1.9589  0.8308 -2.7850
   51MOL0     H 7023   5.600  11.249   4.780 -0.1210 -0.9253  0.1972
   51MOL0     H 7024   5.208  10.937   4.917 -4.4237 -1.3179  0.8138
   51MOL0     H 7025   5.019  10.912   5.076 -1.4237  0.4101  1.9526
   51MOL0     H 7026   5.098  10.875   5.353 -0.4686  1.2780 -2.7983
   51MOL0     H 7027   5.131  11.018   5.457  0.0163  0.1926  0.2163
   51MOL0     H 7028   5.000  10.888   5.601 -0.0394  1.3200  1.0059
   51MOL0     H 7029   4.900  10.854   5.457  0.3801  0.2684 -0.9148
   51MOL0     H 7030   4.901  11.087   5.650  1.9653 -0.3999 -1.5636
   51MOL0     H 7031   4.837  11.120   5.485 -2.9894 -1.7773 -2.0461
   51MOL0     H 7032   4.662  10.971   5.505  0.0694 -0.4926 -0.9481
   51MOL0     H 7033   4.643  11.051   5.651  1.8650  0.0048  1.2649
   51MOL0     H 7034   4.748  10.690   5.817  4.1721  0.1891 -1.0811
   51MOL0     H 7035   5.205  11.218   5.323  1.4089  2.0566 -1.5634
   51MOL0     H 7036   5.324  11.364   5.222 -1.3966 -1.6119  1.6951
   51MOL0     H 7037   5.484  11.272   5.208 -0.0009 -1.4047 -0.4047
   51MOL0     H 7038   5.412  11.342   5.068 -1.6448 -1.3873 -0.5848
   52MOL0     O 7039   7.832   5.650   9.749  0.6496  0.0561  0.6585
   52MOL0     C 7040   7.917   5.659   9.842 -0.8147 -0.1312  0.2212
   52MOL0     O 7041   8.025   5.750   9.831 -0.2514 -0.1912 -0.7815
   52MOL0     C 7042   8.086   5.791   9.717 -0.0303  0.7880 -0.2751
   52MOL0     C 7043   8.071   5.728   9.590 -0.7065  0.1833 -0.4852
   52MOL0     C 7044   8.142   5.785   9.488  0.4876 -0.6456 -0.1896
   52MOL0     C 7045   8.208   5.911   9.503  0.9932 -0.4416  0.5850
   52MOL0     O 7046   8.278   5.956   9.400 -1.2073  0.0423  0.0518
   52MOL0     C 7047   8.260   6.091   9.368 -0.7291 -0.2173 -0.1780
   52MOL0     C 7048   8.281   6.114   9.227  0.3857 -0.8265  0.0114
   52MOL0     C 7049   8.169   6.044   9.154  0.0578 -0.7947 -0.4493
   52MOL0     C 7050   8.100   6.133   9.055 -0.2413  0.2317 -0.3171
   52MOL0     C 7051   7.986   6.058   8.982  0.2119 -1.1913 -0.3049
   52MOL0     C 7052   7.873   5.982   9.058  0.2794 -0.4582  0.5114
   52MOL0     C 7053   7.799   6.071   9.142 -0.4759  0.6235  0.2587
   52MOL0     C 7054   7.662   6.024   9.203  0.6903 -0.4189  0.0761
   52MOL0     N 7055   7.578   6.139   9.250  0.0878 -0.1662  0.2603
   52MOL0     C 7056   7.624   6.249   9.325 -0.2908  1.5709  0.7346
   52MOL0     C 7057   7.513   6.323   9.327  0.5229  0.6284  0.2524
   52MOL0     C 7058   7.495   6.453   9.400  0.7404 -0.4118  0.9569
   52MOL0     C 7059   7.362   6.457   9.480  0.3888  0.6672  0.8568
   52MOL0     C 7060   7.380   6.386   9.617 -0.1640  0.5448 -0.5411
   52MOL0     C 7061   7.263   6.409   9.720  0.2871  0.2340  0.9193
   52MOL0     O 7062   7.280   6.539   9.768 -0.7532  0.4927 -0.1876
   52MOL0     C 7063   7.185   6.595   9.856 -0.2541 -0.1285 -0.0328
   52MOL0     C 7064   7.227   6.701   9.928 -0.7130  1.0333 -0.5649
   52MOL0     C 7065   7.144   6.768  10.018  0.5838  0.0120 -0.4024
   52MOL0     C 7066   7.196   6.901  10.079 -0.0327  0.0661 -0.8860
   52MOL0     C 7067   7.015   6.717  10.050  0.3705 -0.0967 -0.2093
   52MOL0     C 7068   6.900   6.779  10.139  0.5228  0.1263 -0.8164
   52MOL0     O 7069   6.800   6.702  10.182 -0.2737 -0.1648 -1.0747
   52MOL0     C 7070   6.688   6.763  10.224  0.0261  0.5211  0.3366
   52MOL0     C 7071   6.608   6.849  10.151 -0.1570 -0.0816  0.0983
   52MOL0     C 7072   6.486   6.904  10.200  0.0577 -0.0404 -0.7222
   52MOL0     C 7073   6.446   6.862  10.325 -0.4170 -0.4225 -0.3649
   52MOL0     O 7074   6.346   6.899  10.402 -0.3398 -0.1081  0.6035
   52MOL0     C 7075   6.239   6.966  10.341  0.3006 -0.9696  0.2911
   52MOL0     C 7076   6.121   6.867  10.305 -1.0097 -0.2282  0.1399
   52MOL0     C 7077   6.007   6.958  10.250 -0.0971 -0.0561  0.1375
   52MOL0     C 7078   5.888   6.860  10.234  0.3230 -0.3225 -0.5200
   52MOL0     C 7079   5.751   6.909  10.291 -0.0128  0.3342 -0.1518
   52MOL0     C 7080   5.689   7.036  10.229  0.7748 -0.1746 -0.6636
   52MOL0     C 7081   5.575   7.082  10.333 -1.0547  1.3283  0.3069
   52MOL0     C 7082   5.511   7.212  10.298  0.2707 -0.6216 -0.4797
   52MOL0    Cl 7083   5.605   7.349  10.346  0.1903 -0.1619 -0.1258
   52MOL0     C 7084   6.524   6.773  10.400 -1.5535  0.9190 -0.8300
   52MOL0     C 7085   6.636   6.718  10.349 -0.0006 -0.3119  1.1811
   52MOL0     O 7086   6.900   6.900  10.155 -0.5098 -0.0327  0.6993
   52MOL0     C 7087   6.985   6.598   9.991  0.9894 -0.3888 -0.1236
   52MOL0     C 7088   7.059   6.538   9.891 -1.0813 -0.5495 -0.8987
   52MOL0     N 7089   7.411   6.251   9.264  0.2863  0.4551 -0.1346
   52MOL0     N 7090   7.452   6.142   9.208 -0.7164  0.0934  0.0047
   52MOL0     C 7091   8.217   5.972   9.627  0.1397  0.5896  0.4806
   52MOL0     C 7092   8.157   5.909   9.734  0.6502 -0.4583 -0.4804
   52MOL0     C 7093   7.899   5.598   9.981  0.4919 -0.1084 -0.0108
   52MOL0     C 7094   7.977   5.657  10.081 -0.7489  0.4276  0.3836
   52MOL0     C 7095   7.949   5.631  10.216 -0.3952  0.0086  0.0388
   52MOL0     C 7096   7.834   5.555  10.252 -1.0602  0.2214  1.0618
   52MOL0     O 7097   7.800   5.546  10.385 -0.0313 -0.0421  0.3389
   52MOL0     C 7098   7.734   5.431  10.432  0.1488  0.1431  0.0445
   52MOL0     C 7099   7.709   5.425  10.579 -0.0029 -0.0574  0.1477
   52MOL0     C 7100   7.663   5.293  10.622 -0.3294  0.9592  0.7197
   52MOL0     C 7101   7.751   5.163  10.620  0.4354 -0.6743  0.7182
   52MOL0     C 7102   7.866   5.185  10.707 -0.9043  0.5097  0.2357
   52MOL0     C 7103   7.939   5.205  10.794 -0.8885 -0.4483  0.0283
   52MOL0     C 7104   7.775   5.485  10.148  0.8491  0.5398 -0.2246
   52MOL0     C 7105   7.802   5.503  10.012  0.6331  0.3855  0.8400
   52MOL0     C 7106   7.727   5.421   9.906  0.7541  0.5124  0.4066
   52MOL0     H 7107   8.018   5.635   9.572 -0.7542  0.2461 -0.6636
   52MOL0     H 7108   8.138   5.734   9.392  1.3140 -1.1784  0.0405
   52MOL0     H 7109   8.351   6.142   9.401  0.0225 -1.8017  0.2866
   52MOL0     H 7110   8.167   6.126   9.415 -0.8924 -1.7438  0.7217
   52MOL0     H 7111   8.276   6.222   9.208 -3.1206 -0.8640  0.0528
   52MOL0     H 7112   8.381   6.079   9.201 -0.2642 -1.6282 -1.5128
   52MOL0     H 7113   8.206   5.955   9.100  1.6479  0.6753 -1.9283
   52MOL0     H 7114   8.088   6.024   9.224  0.0900 -1.0058 -0.4706
   52MOL0     H 7115   8.064   6.219   9.112 -1.7586 -1.2110  1.0275
   52MOL0     H 7116   8.175   6.177   8.989  0.9909  2.2559  2.2359
   52MOL0     H 7117   8.024   5.983   8.912  0.6801  3.0651 -5.2868
   52MOL0     H 7118   7.945   6.137   8.918  0.6852 -0.1611  0.6415
   52MOL0     H 7119   7.809   5.947   8.977  1.6041 -0.5761 -0.5239
   52MOL0     H 7120   7.911   5.896   9.114  0.8246  0.4585  1.5925
   52MOL0     H 7121   7.778   6.157   9.079  2.3060  1.2296  0.0391
   52MOL0     H 7122   7.869   6.102   9.220  1.0818  0.5965 -1.0718
   52MOL0     H 7123   7.599   5.964   9.137 -1.2281  0.7093  0.7983
   52MOL0     H 7124   7.697   5.961   9.285  3.0349 -1.1694 -1.3978
   52MOL0     H 7125   7.728   6.255   9.355 -0.4463 -0.8059  1.9463
   52MOL0     H 7126   7.509   6.533   9.327 -0.4384 -0.9791  0.0655
   52MOL0     H 7127   7.575   6.469   9.473 -0.6463  0.6714  2.3365
   52MOL0     H 7128   7.335   6.558   9.511 -1.3501  0.3530  0.4682
   52MOL0     H 7129   7.272   6.420   9.430  1.6457 -0.6820 -0.5381
   52MOL0     H 7130   7.402   6.282   9.595 -2.3997  0.3920 -2.4846
   52MOL0     H 7131   7.470   6.432   9.658 -1.0822  0.0718  2.1923
   52MOL0     H 7132   7.169   6.382   9.672  1.2904 -1.2202 -0.3635
   52MOL0     H 7133   7.266   6.344   9.809 -0.8026  0.7512  1.3474
   52MOL0     H 7134   7.320   6.756   9.915  0.2001  0.6787  3.2499
   52MOL0     H 7135   7.229   6.883  10.182  1.4214  1.6244 -1.0330
   52MOL0     H 7136   7.118   6.978  10.076 -0.3297 -0.2501 -2.9048
   52MOL0     H 7137   7.276   6.952  10.024  1.4533 -1.3839 -0.1652
   52MOL0     H 7138   6.646   6.882  10.054 -0.4632 -0.0652 -0.0157
   52MOL0     H 7139   6.425   6.976  10.146  0.2632  1.0427  0.4495
   52MOL0     H 7140   6.207   7.045  10.409  0.7614 -0.4917 -0.0412
   52MOL0     H 7141   6.251   7.014  10.244 -0.4867  0.9247  1.0816
   52MOL0     H 7142   6.165   6.811  10.222  2.0113  0.8047  0.9489
   52MOL0     H 7143   6.087   6.804  10.387 -3.6982  0.6914 -0.1469
   52MOL0     H 7144   6.039   7.002  10.155 -2.7305 -1.9507 -1.7913
   52MOL0     H 7145   5.989   7.043  10.317 -1.2105  0.4795 -0.7944
   52MOL0     H 7146   5.908   6.759  10.271 -1.1339 -0.9578 -1.3472
   52MOL0     H 7147   5.876   6.851  10.125 -0.4121 -1.1580 -0.3829
   52MOL0     H 7148   5.679   6.828  10.275 -1.7474  1.8490 -0.4287
   52MOL0     H 7149   5.762   6.904  10.399  1.8954 -2.1151 -0.3756
   52MOL0     H 7150   5.640   7.025  10.132  0.7763 -1.7744 -0.5196
   52MOL0     H 7151   5.752   7.125  10.233  1.3238 -0.5961  0.7985
   52MOL0     H 7152   5.616   7.091  10.434 -0.1904 -0.9373  0.2111
   52MOL0     H 7153   5.494   7.009  10.329  0.3973 -0.6731  3.5488
   52MOL0     H 7154   5.412   7.213  10.345  0.4472  3.0527  0.1422
   52MOL0     H 7155   5.505   7.218  10.189  0.7378 -2.6630 -0.6549
   52MOL0     H 7156   6.489   6.733  10.495 -1.8383 -2.0131 -2.0638
   52MOL0     H 7157   6.701   6.653  10.406 -0.5578 -1.3425  0.6639
   52MOL0     H 7158   6.898   6.545  10.028  0.4491 -0.3022 -1.2484
   52MOL0     H 7159   7.048   6.441   9.844  3.4746 -0.2953 -3.1207
   52MOL0     H 7160   8.269   6.066   9.642  3.3128 -0.9546  0.1164
   52MOL0     H 7161   8.175   5.970   9.822 -1.9935  2.6196 -1.8651
   52MOL0     H 7162   8.054   5.732  10.065 -1.0621  1.2198  2.3388
   52MOL0     H 7163   8.017   5.682  10.284  0.6405  3.3659 -3.1673
   52MOL0     H 7164   7.636   5.430  10.381 -0.2771  2.3272  0.7063
   52MOL0     H 7165   7.793   5.341  10.412 -0.1420 -0.3701  1.4451
   52MOL0     H 7166   7.633   5.502  10.598  1.3293  0.9074  1.9435
   52MOL0     H 7167   7.800   5.462  10.626 -1.0521  2.9791  0.0129
   52MOL0     H 7168   7.645   5.312  10.728  0.5938 -1.1436  1.3027
   52MOL0     H 7169   7.571   5.260  10.574  0.0505  0.4930  0.3041
   52MOL0     H 7170   7.783   5.152  10.516  2.1596  1.4036  0.9843
   52MOL0     H 7171   7.702   5.068  10.644 -0.1506 -1.4850 -3.0296
   52MOL0     H 7172   7.999   5.228  10.880 -0.1045  1.5252 -0.9757
   52MOL0     H 7173   7.692   5.420  10.171 -0.2743  1.7810 -0.6469
   52MOL0     H 7174   7.665   5.480   9.838 -0.4020 -1.0067  0.0832
   52MOL0     H 7175   7.792   5.354   9.849 -0.9608 -0.7171 -0.2073
   52MOL0     H 7176   7.656   5.358   9.961 -0.2243 -0.6683 -2.0702
   53MOL0     O 7177   8.975   3.587   1.376 -0.2108  0.5098 -0.2418
   53MOL0     C 7178   8.935   3.611   1.490  0.9118 -0.0734 -0.2780
   53MOL0     O 7179   8.823   3.693   1.521  0.2445 -0.0407 -0.4967
   53MOL0     C 7180   8.754   3.763   1.421 -1.3324  0.4369  0.3411
   53MOL0     C 7181   8.805   3.798   1.292 -0.4587 -1.1280 -0.4983
   53MOL0     C 7182   8.725   3.867   1.203  0.6510 -0.2324  0.4121
   53MOL0     C 7183   8.593   3.908   1.243  0.7866 -0.5622 -0.1915
   53MOL0     O 7184   8.501   3.978   1.168  0.7119 -0.0721 -0.6822
   53MOL0     C 7185   8.510   3.982   1.034 -0.6377  0.0286  1.0787
   53MOL0     C 7186   8.427   4.098   0.974  0.2211  1.1435  0.1496
   53MOL0     C 7187   8.451   4.230   1.044 -0.2730 -0.7656 -0.2253
   53MOL0     C 7188   8.382   4.347   0.975 -0.0235  0.1158  0.4618
   53MOL0     C 7189   8.231   4.353   1.007  0.6122 -0.2059  0.0211
   53MOL0     C 7190   8.190   4.349   1.153 -0.8681 -0.6091 -0.2634
   53MOL0     C 7191   8.043   4.384   1.171  0.1806  0.8967  0.1499
   53MOL0     C 7192   8.008   4.536   1.168  0.2863  0.1869  1.1023
   53MOL0     N 7193   7.855   4.554   1.171  0.3989  0.1294 -0.9915
   53MOL0     C 7194   7.768   4.518   1.270 -0.5281 -0.4983 -0.0868
   53MOL0     C 7195   7.651   4.558   1.224 -0.4001  0.0144 -0.2612
   53MOL0     C 7196   7.526   4.546   1.307 -0.1879  0.1806 -0.1881
   53MOL0     C 7197   7.508   4.407   1.371 -0.2603  0.7501 -0.5748
   53MOL0     C 7198   7.539   4.281   1.289  0.1310  0.6289  0.2265
   53MOL0     C 7199   7.473   4.261   1.149  0.7186 -0.2118 -0.5277
   53MOL0     O 7200   7.519   4.140   1.091  0.6317  0.3341  0.5685
   53MOL0     C 7201   7.426   4.040   1.076  0.4923  0.2548 -1.2556
   53MOL0     C 7202   7.401   3.991   0.951  0.0982  0.4492 -0.2499
   53MOL0     C 7203   7.314   3.876   0.934 -0.2506  0.0105  0.5852
   53MOL0     C 7204   7.280   3.831   0.787  0.7420  0.1136  0.0022
   53MOL0     C 7205   7.256   3.814   1.049  0.0251  0.0710 -0.8842
   53MOL0     C 7206   7.162   3.706   1.044  0.1768 -0.1544  0.2095
   53MOL0     O 7207   7.093   3.677   1.154  0.3059 -0.0171  0.2972
   53MOL0     C 7208   6.969   3.611   1.145 -1.2436  0.1375  0.9656
   53MOL0     C 7209   6.854   3.679   1.118  0.6788 -0.5466  0.6450
   53MOL0     C 7210   6.729   3.616   1.120  0.5742  0.5259 -0.1508
   53MOL0     C 7211   6.720   3.486   1.178 -0.4408  0.1609 -0.6986
   53MOL0     O 7212   6.601   3.427   1.181  0.3267 -0.2601 -0.5306
   53MOL0     C 7213   6.576   3.302   1.241  0.0093  0.6129  0.8442
   53MOL0     C 7214   6.432   3.274   1.226  0.6437 -0.3039  0.2422
   53MOL0     C 7215   6.395   3.130   1.269  0.3973  0.1034  0.0965
   53MOL0     C 7216   6.335   3.159   1.398 -0.4361  0.1013  0.0859
   53MOL0     C 7217   6.258   3.041   1.464 -0.2177 -1.1944  0.0477
   53MOL0     C 7218   6.229   3.089   1.605 -0.8577  0.6548  0.7438
   53MOL0     C 7219   6.142   2.986   1.679 -0.1619  0.0571  0.2399
   53MOL0     C 7220   6.078   3.047   1.803  0.5276  0.3716  0.6889
   53MOL0    Cl 7221   6.193   3.124   1.930  0.0179 -0.1154 -0.3563
   53MOL0     C 7222   6.844   3.426   1.221 -0.6273 -0.1884  1.2184
   53MOL0     C 7223   6.964   3.488   1.216  0.0310  0.2164  1.0690
   53MOL0     O 7224   7.148   3.647   0.943 -0.6287 -0.5363 -0.2870
   53MOL0     C 7225   7.292   3.867   1.174  0.3642  0.7991 -0.5881
   53MOL0     C 7226   7.368   3.988   1.189  0.0782  0.1045  0.9206
   53MOL0     N 7227   7.664   4.608   1.088 -0.0400  0.2595 -0.0260
   53MOL0     N 7228   7.787   4.597   1.061 -0.7343  0.3793 -0.0277
   53MOL0     C 7229   8.559   3.899   1.379  1.0032  1.0068  0.4872
   53MOL0     C 7230   8.634   3.813   1.465  1.6099 -0.7183  0.8882
   53MOL0     C 7231   8.993   3.521   1.594 -0.3073 -0.8197  0.2251
   53MOL0     C 7232   9.030   3.390   1.560 -0.4354  0.5372  0.1410
   53MOL0     C 7233   9.077   3.310   1.671  1.1412  0.1122 -0.3930
   53MOL0     C 7234   9.108   3.367   1.799 -0.4093 -0.5132  0.0742
   53MOL0     O 7235   9.177   3.287   1.884 -0.3792  0.4422  0.1259
   53MOL0     C 7236   9.137   3.287   2.020 -0.6408  0.7952 -0.8039
   53MOL0     C 7237   8.985   3.241   2.035 -0.0269 -0.2481 -0.6305
   53MOL0     C 7238   8.943   3.282   2.170  0.7613  0.3499  0.0084
   53MOL0     C 7239   8.817   3.199   2.216  0.4078 -0.6094  0.2114
   53MOL0     C 7240   8.794   3.057   2.189 -0.2378  0.1191  0.1322
   53MOL0     C 7241   8.811   2.946   2.146 -0.4780  0.6615  0.5784
   53MOL0     C 7242   9.075   3.498   1.817 -0.5106  0.2471 -0.7170
   53MOL0     C 7243   9.027   3.578   1.710 -0.3322  1.1214 -0.4158
   53MOL0     C 7244   9.020   3.736   1.724  0.6619  1.1066 -0.0543
   53MOL0     H 7245   8.904   3.777   1.252  0.7627  1.4561  0.8548
   53MOL0     H 7246   8.767   3.919   1.117  4.3949 -1.7241  1.1474
   53MOL0     H 7247   8.488   3.889   0.982  0.3298  0.6992 -0.6158
   53MOL0     H 7248   8.614   3.996   1.005  0.0316 -1.1078  2.7724
   53MOL0     H 7249   8.445   4.093   0.867  3.8740 -1.1504  0.6967
   53MOL0     H 7250   8.319   4.078   0.981  0.4767 -0.5468 -0.3622
   53MOL0     H 7251   8.427   4.228   1.150 -2.2909 -1.4651 -0.6531
   53MOL0     H 7252   8.559   4.241   1.029 -0.0102 -2.9178 -0.2924
   53MOL0     H 7253   8.424   4.437   1.021  2.5103 -0.7180 -0.0099
   53MOL0     H 7254   8.408   4.346   0.869 -0.7808 -1.3067  0.2731
   53MOL0     H 7255   8.181   4.268   0.960 -1.5917  0.9494  0.1515
   53MOL0     H 7256   8.188   4.445   0.967 -2.7636 -1.8183 -0.4722
   53MOL0     H 7257   8.190   4.241   1.173 -2.1142 -0.7391 -0.8919
   53MOL0     H 7258   8.259   4.405   1.217 -1.8069  2.8030 -1.9867
   53MOL0     H 7259   8.021   4.342   1.270 -0.3586  1.4981  0.2943
   53MOL0     H 7260   7.992   4.333   1.089 -0.3791  1.2040  0.2968
   53MOL0     H 7261   8.051   4.590   1.254 -0.3972 -0.3297  1.7848
   53MOL0     H 7262   8.022   4.580   1.069  0.7650 -1.9295  0.1790
   53MOL0     H 7263   7.786   4.467   1.364  0.1748 -0.7408 -0.3549
   53MOL0     H 7264   7.445   4.563   1.236  1.5270  4.1499 -1.4594
   53MOL0     H 7265   7.514   4.619   1.388  0.6982  1.1221 -0.8845
   53MOL0     H 7266   7.567   4.416   1.463 -0.5836 -0.4595 -0.2284
   53MOL0     H 7267   7.404   4.392   1.400 -0.8361  2.5926 -1.5196
   53MOL0     H 7268   7.646   4.285   1.268 -0.0052  0.5613 -0.4852
   53MOL0     H 7269   7.504   4.192   1.342 -1.0266  0.7852 -0.2537
   53MOL0     H 7270   7.364   4.258   1.158  0.2984  1.6979 -3.4954
   53MOL0     H 7271   7.494   4.340   1.077 -2.0319  1.1310  0.0304
   53MOL0     H 7272   7.447   4.040   0.866 -0.7755  0.1858 -0.8925
   53MOL0     H 7273   7.318   3.733   0.757  2.2877  0.6540  0.1061
   53MOL0     H 7274   7.314   3.908   0.716  2.6158  3.1450  3.8079
   53MOL0     H 7275   7.171   3.837   0.787  0.7529  0.5767  1.4901
   53MOL0     H 7276   6.855   3.786   1.098 -1.3654 -0.4548  0.8765
   53MOL0     H 7277   6.639   3.661   1.080 -0.6376 -1.9149 -0.3823
   53MOL0     H 7278   6.638   3.223   1.197 -2.1527 -2.3570  2.7617
   53MOL0     H 7279   6.591   3.317   1.348 -1.9169  0.3526  1.1732
   53MOL0     H 7280   6.367   3.345   1.279 -0.6099 -2.5601  1.9077
   53MOL0     H 7281   6.406   3.276   1.120  2.2799 -2.0859 -0.2433
   53MOL0     H 7282   6.478   3.059   1.263 -0.0049 -0.2658 -3.9928
   53MOL0     H 7283   6.312   3.090   1.210  0.5541  0.6596 -0.5069
   53MOL0     H 7284   6.263   3.240   1.390  0.3280  1.1228  2.5440
   53MOL0     H 7285   6.422   3.188   1.459  0.7856  0.1656 -1.6204
   53MOL0     H 7286   6.167   3.024   1.406  0.0807  0.1059 -0.8549
   53MOL0     H 7287   6.328   2.957   1.454 -0.0473 -1.2126  1.2341
   53MOL0     H 7288   6.181   3.187   1.600  2.2836  2.2885 -4.2869
   53MOL0     H 7289   6.327   3.094   1.653  1.1948 -0.4008 -2.9278
   53MOL0     H 7290   6.200   2.901   1.717  1.5927  2.2093  2.7420
   53MOL0     H 7291   6.059   2.943   1.622  0.4904 -0.9479  0.0172
   53MOL0     H 7292   6.026   2.973   1.865 -2.7555  1.9443  0.0303
   53MOL0     H 7293   5.997   3.113   1.770 -0.0144 -0.6967 -0.2055
   53MOL0     H 7294   6.852   3.331   1.273  0.5683  1.2673  3.8524
   53MOL0     H 7295   7.057   3.442   1.249  1.0752  1.2280 -0.3536
   53MOL0     H 7296   7.263   3.816   1.265 -3.5311 -1.3820 -2.7647
   53MOL0     H 7297   7.394   4.019   1.290  2.1187 -0.4339  0.5898
   53MOL0     H 7298   8.466   3.946   1.408 -0.5382 -0.3653 -1.8532
   53MOL0     H 7299   8.609   3.792   1.568 -0.8393  3.2919  1.3549
   53MOL0     H 7300   9.025   3.335   1.466  2.7302 -1.5452  1.0509
   53MOL0     H 7301   9.087   3.204   1.649 -1.8459 -0.3292 -0.0935
   53MOL0     H 7302   9.201   3.214   2.071 -0.7098 -0.2053 -2.0989
   53MOL0     H 7303   9.152   3.386   2.065 -1.5541  0.6922 -0.2478
   53MOL0     H 7304   8.985   3.131   2.037 -1.8472 -0.2732  1.2751
   53MOL0     H 7305   8.912   3.265   1.957  0.0245  1.7956 -0.1014
   53MOL0     H 7306   9.017   3.265   2.248 -0.3351 -0.7901  0.8315
   53MOL0     H 7307   8.915   3.388   2.180 -0.8006 -0.2327  2.7760
   53MOL0     H 7308   8.734   3.255   2.172  0.8369  1.3205  1.7171
   53MOL0     H 7309   8.817   3.217   2.324  3.8177  4.7739 -0.3371
   53MOL0     H 7310   8.835   2.854   2.097 -4.3565  0.8374 -2.0625
   53MOL0     H 7311   9.111   3.538   1.911  1.9316  0.0513 -1.5012
   53MOL0     H 7312   9.057   3.794   1.639  0.7526  4.0439  1.8323
   53MOL0     H 7313   8.915   3.759   1.742  0.4552 -0.6356  1.2696
   53MOL0     H 7314   9.087   3.772   1.803  1.0857  2.6278 -1.0810
   54MOL0     O 7315  10.340   6.917   2.127 -0.2117  0.2744 -0.8683
   54MOL0     C 7316  10.333   7.035   2.162 -0.1595 -0.2057 -0.1971
   54MOL0     O 7317  10.261   7.083   2.269 -0.7790 -0.6447  0.1341
   54MOL0     C 7318  10.160   7.013   2.336  0.1762 -0.0797  0.2961
   54MOL0     C 7319  10.119   6.878   2.328  0.3588 -0.2800  1.6164
   54MOL0     C 7320  10.014   6.820   2.394 -0.2080  0.5411  0.0157
   54MOL0     C 7321   9.949   6.895   2.490 -0.0816 -0.1086  0.3008
   54MOL0     O 7322   9.837   6.846   2.547  0.7682  0.5739  0.1753
   54MOL0     C 7323   9.770   6.727   2.512  0.6797  0.4085  0.7196
   54MOL0     C 7324   9.835   6.602   2.581  0.2197  0.2035  0.1034
   54MOL0     C 7325   9.735   6.480   2.588 -0.1030 -0.3805  0.2241
   54MOL0     C 7326   9.812   6.355   2.597 -0.5987  0.1757  0.7960
   54MOL0     C 7327   9.803   6.278   2.460 -0.1446 -0.0994  1.9301
   54MOL0     C 7328   9.876   6.141   2.483 -0.1978  0.0471 -0.2770
   54MOL0     C 7329   9.852   6.025   2.399  0.1731  0.1076 -0.1177
   54MOL0     C 7330   9.905   6.052   2.256  0.3955 -0.6423 -1.0417
   54MOL0     N 7331  10.037   5.991   2.243 -0.7797 -0.8292 -0.0209
   54MOL0     C 7332  10.080   5.861   2.242  0.4752 -0.0165 -0.7878
   54MOL0     C 7333  10.218   5.864   2.242 -0.3536 -0.0205 -0.3214
   54MOL0     C 7334  10.321   5.751   2.247  0.1326  1.2463 -0.8423
   54MOL0     C 7335  10.384   5.725   2.116  0.3342 -0.2470  0.2743
   54MOL0     C 7336  10.279   5.676   2.008 -0.4903 -0.0102  0.7327
   54MOL0     C 7337  10.341   5.625   1.872 -0.0538  0.3072 -0.0055
   54MOL0     O 7338  10.443   5.516   1.889  0.7003  0.0984  0.5286
   54MOL0     C 7339  10.476   5.447   1.769 -0.2374  0.1626 -0.3259
   54MOL0     C 7340  10.442   5.488   1.643  0.1276 -0.0610  0.0724
   54MOL0     C 7341  10.448   5.397   1.527 -0.1350  1.0929 -0.3521
   54MOL0     C 7342  10.415   5.466   1.399  0.6775 -0.4800 -0.2215
   54MOL0     C 7343  10.490   5.263   1.543  0.2806  0.0410 -0.2773
   54MOL0     C 7344  10.498   5.160   1.435 -0.7247 -1.2219  0.0448
   54MOL0     O 7345  10.396   5.165   1.345  0.5786  0.4942 -0.5670
   54MOL0     C 7346  10.373   5.054   1.260  0.3398  0.1580 -1.0664
   54MOL0     C 7347  10.250   4.987   1.262 -0.0889 -0.5567 -0.7244
   54MOL0     C 7348  10.223   4.886   1.166  0.2012  0.2595  0.0562
   54MOL0     C 7349  10.311   4.845   1.064  0.1460 -0.2384 -0.7015
   54MOL0     O 7350  10.293   4.747   0.974  0.0750  0.1096 -0.0281
   54MOL0     C 7351  10.172   4.659   0.986 -0.1317  0.1570 -0.1276
   54MOL0     C 7352  10.171   4.564   0.861  0.3028 -0.0799 -0.7498
   54MOL0     C 7353  10.291   4.467   0.867  0.2564  0.0518  0.3987
   54MOL0     C 7354  10.280   4.348   0.768  0.4901 -1.0196 -0.7373
   54MOL0     C 7355  10.406   4.264   0.762  0.8325  0.9701  0.4257
   54MOL0     C 7356  10.412   4.138   0.671  0.0251  0.5168  0.0237
   54MOL0     C 7357  10.396   4.182   0.528 -0.9931 -0.1417  0.1847
   54MOL0     C 7358  10.370   4.064   0.430  0.6560  0.8880 -0.3780
   54MOL0    Cl 7359  10.367   4.125   0.262  0.4210  0.1118  0.0815
   54MOL0     C 7360  10.428   4.911   1.067 -0.5318 -0.2533  0.7803
   54MOL0     C 7361  10.468   5.014   1.154  0.0883 -0.0934 -0.3721
   54MOL0     O 7362  10.585   5.072   1.445 -0.2880 -0.2398 -1.0455
   54MOL0     C 7363  10.540   5.231   1.672 -0.7877 -0.0527  0.7638
   54MOL0     C 7364  10.531   5.320   1.778 -0.3674  0.4447 -0.2686
   54MOL0     N 7365  10.257   6.001   2.239  0.1989  0.8343  0.0079
   54MOL0     N 7366  10.148   6.069   2.233  1.4776 -0.9063 -0.0703
   54MOL0     C 7367   9.987   7.035   2.506 -0.0417 -0.6173 -0.4322
   54MOL0     C 7368  10.083   7.093   2.427 -0.5231 -0.2716 -0.1935
   54MOL0     C 7369  10.411   7.132   2.083  0.3867  0.4858  0.7535
   54MOL0     C 7370  10.423   7.261   2.132  0.4117  0.4425 -0.6117
   54MOL0     C 7371  10.472   7.374   2.066 -0.7060  0.0368 -0.3518
   54MOL0     C 7372  10.532   7.356   1.941  0.0104 -1.2894  0.0960
   54MOL0     O 7373  10.602   7.446   1.870  0.0309  0.8044  0.1821
   54MOL0     C 7374  10.511   7.553   1.823 -0.2252  0.7838  0.7406
   54MOL0     C 7375  10.598   7.619   1.707  0.2163  0.3037 -0.4063
   54MOL0     C 7376  10.538   7.748   1.646  0.0384 -0.1669  0.2449
   54MOL0     C 7377  10.404   7.745   1.577 -0.1886 -0.1451 -0.5756
   54MOL0     C 7378  10.294   7.740   1.672  0.6045 -0.1025 -0.8723
   54MOL0     C 7379  10.195   7.737   1.738 -0.7154 -0.2479  0.6741
   54MOL0     C 7380  10.524   7.230   1.887  0.4187 -0.0933  0.4653
   54MOL0     C 7381  10.455   7.120   1.946 -0.4331  0.1100  0.1013
   54MOL0     C 7382  10.456   6.992   1.863 -0.0268  0.1009 -0.3899
   54MOL0     H 7383  10.172   6.814   2.258 -1.6337  2.2243 -2.6497
   54MOL0     H 7384   9.983   6.718   2.374 -2.0779  0.4051  3.0173
   54MOL0     H 7385   9.762   6.708   2.405 -1.2804 -1.2618  1.1058
   54MOL0     H 7386   9.667   6.741   2.548 -0.1133  1.4399 -1.7278
   54MOL0     H 7387   9.926   6.574   2.528 -0.1818  1.4895 -1.3584
   54MOL0     H 7388   9.857   6.645   2.679  1.3831  1.3713 -0.6398
   54MOL0     H 7389   9.676   6.505   2.676  1.7928 -3.1914  2.4833
   54MOL0     H 7390   9.661   6.480   2.507 -0.0584 -0.3342  0.1831
   54MOL0     H 7391   9.916   6.371   2.625 -0.1856  0.9780 -1.0555
   54MOL0     H 7392   9.765   6.284   2.666 -0.2894 -0.5000  0.3172
   54MOL0     H 7393   9.846   6.333   2.376 -1.6231 -0.5689  0.8182
   54MOL0     H 7394   9.696   6.264   2.438 -0.4551  0.4119  3.0541
   54MOL0     H 7395   9.983   6.161   2.499  0.6297 -0.5016 -4.0997
   54MOL0     H 7396   9.852   6.095   2.579 -2.6035 -2.0996 -1.7686
   54MOL0     H 7397   9.743   6.020   2.394  0.1570  1.2271 -1.4753
   54MOL0     H 7398   9.896   5.933   2.439  2.7038  0.8899 -0.9044
   54MOL0     H 7399   9.843   6.011   2.177 -0.1765 -0.0454 -0.9105
   54MOL0     H 7400   9.911   6.160   2.245  3.0071  0.3007  5.1378
   54MOL0     H 7401  10.009   5.779   2.250 -1.7883  1.5532 -3.0430
   54MOL0     H 7402  10.274   5.655   2.269  0.3460  0.5990 -3.0295
   54MOL0     H 7403  10.393   5.775   2.326 -1.2549 -1.0130  1.2309
   54MOL0     H 7404  10.425   5.817   2.074  2.1689 -0.8848  0.5712
   54MOL0     H 7405  10.462   5.648   2.118 -0.2915 -1.1242 -3.0118
   54MOL0     H 7406  10.216   5.597   2.050  0.2820 -1.1105 -0.1278
   54MOL0     H 7407  10.209   5.759   1.992 -2.3532 -1.0497  2.9561
   54MOL0     H 7408  10.257   5.581   1.817  2.1056 -2.3354 -1.4174
   54MOL0     H 7409  10.388   5.708   1.817  1.7261 -2.3527 -2.7942
   54MOL0     H 7410  10.400   5.587   1.633  0.1832 -0.0108  0.3252
   54MOL0     H 7411  10.505   5.488   1.340 -0.0926  0.7190 -0.9990
   54MOL0     H 7412  10.367   5.564   1.414 -0.8052 -1.3475  0.9569
   54MOL0     H 7413  10.353   5.400   1.338 -1.9568  0.6618  1.0701
   54MOL0     H 7414  10.176   5.005   1.339 -1.7209 -0.3849 -2.2717
   54MOL0     H 7415  10.122   4.848   1.169 -0.6060  2.3121  0.9617
   54MOL0     H 7416  10.170   4.600   1.077 -3.4279 -0.8034 -0.6708
   54MOL0     H 7417  10.072   4.701   1.005 -0.0989 -0.7791  2.5487
   54MOL0     H 7418  10.083   4.499   0.861  1.5209 -1.9214  1.9049
   54MOL0     H 7419  10.166   4.624   0.770  1.3824  1.8386  0.3941
   54MOL0     H 7420  10.294   4.435   0.971 -0.0073 -2.4869 -0.3111
   54MOL0     H 7421  10.377   4.525   0.834  1.4343 -0.9285  1.6259
   54MOL0     H 7422  10.264   4.382   0.665  1.0179 -0.2494 -0.5726
   54MOL0     H 7423  10.202   4.283   0.809 -1.2491  0.3574 -1.7572
   54MOL0     H 7424  10.494   4.322   0.733  0.3367  0.0178 -3.6543
   54MOL0     H 7425  10.416   4.236   0.867 -0.0009  1.1610  0.5657
   54MOL0     H 7426  10.328   4.077   0.707  0.4515  0.0726  0.2741
   54MOL0     H 7427  10.501   4.077   0.688 -1.7857 -1.5653  2.9497
   54MOL0     H 7428  10.482   4.244   0.503  0.2087  0.0577  4.2017
   54MOL0     H 7429  10.303   4.238   0.515 -1.6970 -1.6807 -2.0127
   54MOL0     H 7430  10.269   4.025   0.445  0.0300  2.9945  1.2344
   54MOL0     H 7431  10.444   3.984   0.441 -1.1919 -0.8361  0.0046
   54MOL0     H 7432  10.488   4.872   0.985 -1.6088  1.0108 -0.6600
   54MOL0     H 7433  10.560   5.070   1.142  2.2681 -2.0613  4.5448
   54MOL0     H 7434  10.585   5.133   1.683  0.3113  0.5216  1.6924
   54MOL0     H 7435  10.589   5.289   1.865  1.5280  1.9943 -0.9124
   54MOL0     H 7436   9.934   7.095   2.579  1.9809  0.1866  0.4515
   54MOL0     H 7437  10.113   7.197   2.423 -0.2245 -0.3853 -2.5207
   54MOL0     H 7438  10.397   7.278   2.236 -0.8785  1.4127 -1.0551
   54MOL0     H 7439  10.477   7.468   2.119  1.0050 -1.0235  1.4766
   54MOL0     H 7440  10.416   7.515   1.784 -0.8521  2.3543  0.6637
   54MOL0     H 7441  10.487   7.618   1.907  0.8627  1.2333  0.7221
   54MOL0     H 7442  10.606   7.545   1.626 -3.3590 -0.3623 -0.3205
   54MOL0     H 7443  10.697   7.644   1.745 -0.4520 -0.2129  1.8543
   54MOL0     H 7444  10.536   7.829   1.719 -1.6478  1.3060 -1.3291
   54MOL0     H 7445  10.613   7.771   1.569  0.5053  0.9368  1.0131
   54MOL0     H 7446  10.401   7.660   1.508  0.4236 -0.0946 -0.6750
   54MOL0     H 7447  10.390   7.839   1.525 -1.8827  0.8390  1.4981
   54MOL0     H 7448  10.111   7.743   1.805  0.7730  1.7960  2.5087
   54MOL0     H 7449  10.564   7.209   1.789 -0.8854 -0.7591  0.0618
   54MOL0     H 7450  10.531   6.995   1.784  1.3285  0.1649  0.8497
   54MOL0     H 7451  10.479   6.907   1.928  3.4685  0.0222 -1.5308
   54MOL0     H 7452  10.352   6.981   1.830 -0.5360  1.1112  0.7898
   55MOL0     O 7453   8.673  10.242   9.474  0.5813 -0.0198  0.2750
   55MOL0     C 7454   8.696  10.353   9.424 -0.3494  0.8596 -0.2176
   55MOL0     O 7455   8.786  10.370   9.312  0.1297  0.0074  0.4325
   55MOL0     C 7456   8.825  10.260   9.240  0.9867  0.0562 -0.4492
   55MOL0     C 7457   8.726  10.204   9.160  0.3095  0.4432 -0.8766
   55MOL0     C 7458   8.766  10.115   9.060 -0.6933  0.9100  0.3539
   55MOL0     C 7459   8.894  10.064   9.053 -0.2396  0.2816  0.5613
   55MOL0     O 7460   8.927   9.970   8.952  0.4275  0.3247 -0.1404
   55MOL0     C 7461   9.006  10.015   8.847 -0.0772  0.2306 -0.4482
   55MOL0     C 7462   9.032   9.889   8.745 -0.4490 -0.2184  0.5999
   55MOL0     C 7463   9.102   9.936   8.605 -0.6463 -0.4931 -1.0454
   55MOL0     C 7464   9.104   9.826   8.509 -0.4024  0.3037  0.8248
   55MOL0     C 7465   9.190   9.852   8.381  1.2350 -0.0568  0.1921
   55MOL0     C 7466   9.140   9.767   8.260 -1.0646 -0.0808 -0.9898
   55MOL0     C 7467   9.024   9.827   8.184  0.1432  0.1162  0.1957
   55MOL0     C 7468   8.936   9.713   8.126  0.0264 -0.3515  0.4468
   55MOL0     N 7469   8.995   9.637   8.018 -0.1311 -0.6140 -0.4465
   55MOL0     C 7470   9.082   9.530   8.054 -0.0638 -0.2665 -0.6972
   55MOL0     C 7471   9.125   9.493   7.941 -0.8516  2.1331  0.2734
   55MOL0     C 7472   9.226   9.381   7.939 -0.3767  0.1813 -0.4182
   55MOL0     C 7473   9.368   9.430   7.929 -0.1685 -0.1951 -0.5131
   55MOL0     C 7474   9.471   9.312   7.942 -0.2120 -0.3356  0.8205
   55MOL0     C 7475   9.621   9.364   7.945 -0.1814 -0.6730  0.9984
   55MOL0     O 7476   9.639   9.443   7.817  0.5055 -1.0413 -0.5134
   55MOL0     C 7477   9.757   9.511   7.800 -0.3231 -0.1731 -0.3295
   55MOL0     C 7478   9.840   9.567   7.902  1.4421 -0.1316  0.5268
   55MOL0     C 7479   9.959   9.644   7.875 -0.6135  0.2059 -0.1284
   55MOL0     C 7480  10.034   9.706   7.995  0.6312 -0.4476  0.1909
   55MOL0     C 7481   9.987   9.673   7.739 -0.4783 -0.3174  0.2373
   55MOL0     C 7482  10.099   9.751   7.688  0.1996 -0.1806 -0.7573
   55MOL0     O 7483  10.114   9.759   7.550  0.7716  0.2353  0.1077
   55MOL0     C 7484  10.204   9.838   7.497 -0.4478 -0.1999 -0.1864
   55MOL0     C 7485  10.198   9.979   7.484 -0.1782  0.1281 -0.4694
   55MOL0     C 7486  10.307  10.056   7.439  0.3921 -0.1607 -0.0156
   55MOL0     C 7487  10.422   9.994   7.393  0.2348  1.0319 -0.3725
   55MOL0     O 7488  10.520  10.078   7.352  0.5069 -0.4732  0.0287
   55MOL0     C 7489  10.663  10.071   7.373  0.1273 -0.1266  0.2850
   55MOL0     C 7490  10.713  10.159   7.494  0.1489 -0.2114  0.1746
   55MOL0     C 7491  10.642  10.135   7.637 -1.3421  0.2950 -0.3369
   55MOL0     C 7492  10.671  10.009   7.720  0.9373  0.6333 -0.3915
   55MOL0     C 7493  10.607  10.023   7.864  0.5948  0.1262  0.1177
   55MOL0     C 7494  10.621   9.897   7.951 -0.4564  0.0272 -0.4774
   55MOL0     C 7495  10.603   9.766   7.880  0.2852  0.2957  0.1497
   55MOL0     C 7496  10.477   9.758   7.789  0.7057  0.3365 -0.0424
   55MOL0    Cl 7497  10.503   9.613   7.692  0.1975  0.2784 -0.3099
   55MOL0     C 7498  10.434   9.850   7.408 -0.0823  0.0230 -0.3451
   55MOL0     C 7499  10.324   9.774   7.456 -0.5457 -0.0678  0.6925
   55MOL0     O 7500  10.161   9.820   7.773 -0.3765  0.1988 -0.1669
   55MOL0     C 7501   9.910   9.609   7.643  0.7065  0.7410  0.6832
   55MOL0     C 7502   9.810   9.524   7.677  0.5257  0.3858 -0.4475
   55MOL0     N 7503   9.053   9.546   7.843  0.1873 -0.2605  0.1375
   55MOL0     N 7504   8.983   9.646   7.881  0.8827 -0.5738 -1.1035
   55MOL0     C 7505   8.990  10.101   9.148  0.3923  0.0032  0.0172
   55MOL0     C 7506   8.958  10.212   9.233  0.8853 -0.2204 -0.5706
   55MOL0     C 7507   8.628  10.478   9.477  0.6749 -0.2564  0.3114
   55MOL0     C 7508   8.670  10.599   9.431 -1.8869  0.4347  0.0628
   55MOL0     C 7509   8.597  10.715   9.453 -0.0997  0.9944  0.8008
   55MOL0     C 7510   8.493  10.707   9.543 -0.7667 -1.7823 -0.3384
   55MOL0     O 7511   8.428  10.827   9.554  0.2341  0.1102  0.1376
   55MOL0     C 7512   8.297  10.826   9.614 -0.1195  0.5689 -0.0957
   55MOL0     C 7513   8.246  10.960   9.682  0.9068  0.3039 -0.2081
   55MOL0     C 7514   8.292  11.078   9.598  0.5944  0.4499 -0.0645
   55MOL0     C 7515   8.198  11.101   9.476 -0.0310  0.0754  0.2420
   55MOL0     C 7516   8.077  11.170   9.521 -0.9088  0.7103  1.7291
   55MOL0     C 7517   7.976  11.226   9.556 -0.5833  0.6262  0.2646
   55MOL0     C 7518   8.458  10.592   9.608  0.3797  0.8361  0.4974
   55MOL0     C 7519   8.517  10.470   9.567  0.6876 -0.6050 -0.4935
   55MOL0     C 7520   8.442  10.350   9.614 -0.1537 -0.3574 -0.5848
   55MOL0     H 7521   8.625  10.243   9.169  1.1198  3.0282 -1.9340
   55MOL0     H 7522   8.700  10.059   8.995  0.8706  1.8002 -2.1394
   55MOL0     H 7523   9.102  10.049   8.888 -0.3900 -1.5561  1.9521
   55MOL0     H 7524   8.954  10.091   8.788  2.5384  2.2917 -0.3104
   55MOL0     H 7525   9.105   9.834   8.805  0.3321  1.1112  0.9345
   55MOL0     H 7526   8.938   9.837   8.726 -2.0225  1.4821  3.0678
   55MOL0     H 7527   9.059  10.033   8.575  0.9770  0.9818  1.0402
   55MOL0     H 7528   9.206   9.965   8.624 -1.2065  0.1948  1.3157
   55MOL0     H 7529   9.121   9.728   8.555  0.7529 -0.6507 -1.4852
   55MOL0     H 7530   9.003   9.810   8.470  0.0566 -1.2030  0.1829
   55MOL0     H 7531   9.295   9.830   8.405  1.4855 -3.0713 -2.9181
   55MOL0     H 7532   9.170   9.957   8.357 -2.3927 -1.2356 -2.8225
   55MOL0     H 7533   9.220   9.762   8.186 -2.4855  2.7460 -2.9399
   55MOL0     H 7534   9.116   9.668   8.298 -1.2501  0.0731 -0.6960
   55MOL0     H 7535   9.055   9.885   8.097 -2.9000 -1.1680 -1.9349
   55MOL0     H 7536   8.952   9.886   8.241 -2.7764 -0.9465 -2.1452
   55MOL0     H 7537   8.913   9.642   8.205 -0.9643 -1.5341 -0.8512
   55MOL0     H 7538   8.843   9.764   8.098 -0.8958 -1.6568  1.0640
   55MOL0     H 7539   9.101   9.499   8.156 -1.4570  2.0934  0.3867
   55MOL0     H 7540   9.210   9.320   7.850  2.9142  0.3585 -1.2832
   55MOL0     H 7541   9.215   9.311   8.023 -1.8174 -2.0762 -2.3580
   55MOL0     H 7542   9.385   9.492   7.840  3.3247 -0.3868 -0.1523
   55MOL0     H 7543   9.379   9.502   8.011 -0.6264  0.9561 -1.4251
   55MOL0     H 7544   9.451   9.251   8.030  1.4138 -1.4142  0.4995
   55MOL0     H 7545   9.475   9.251   7.851  0.8635  1.9163 -0.7172
   55MOL0     H 7546   9.625   9.423   8.037 -3.0288 -1.6750  1.8657
   55MOL0     H 7547   9.694   9.285   7.964  1.6043  0.8237  0.7254
   55MOL0     H 7548   9.801   9.542   8.000 -1.5968 -3.0786 -1.2235
   55MOL0     H 7549  10.138   9.681   7.976 -0.0417 -2.0256 -1.7993
   55MOL0     H 7550   9.990   9.672   8.089  0.7540 -2.1607 -0.3296
   55MOL0     H 7551  10.022   9.814   7.987  2.4460 -0.0175  2.4509
   55MOL0     H 7552  10.111  10.033   7.520 -0.1945  1.0425 -1.7834
   55MOL0     H 7553  10.303  10.164   7.431 -0.5570 -0.2228 -0.4185
   55MOL0     H 7554  10.692   9.965   7.377 -0.4400 -0.4859 -2.7451
   55MOL0     H 7555  10.706  10.117   7.283 -2.5822  2.1898  0.0307
   55MOL0     H 7556  10.821  10.149   7.506 -0.0096 -0.9234  1.1969
   55MOL0     H 7557  10.693  10.264   7.472  2.4445  0.4183  0.8233
   55MOL0     H 7558  10.533  10.139   7.625 -1.9532 -0.7629  3.5274
   55MOL0     H 7559  10.669  10.209   7.713 -0.1446 -1.8784  1.4688
   55MOL0     H 7560  10.778   9.989   7.729  0.5471 -0.9804  1.7526
   55MOL0     H 7561  10.619   9.931   7.662 -2.4065  1.6771  0.9284
   55MOL0     H 7562  10.665  10.102   7.912  2.2129  0.0158 -1.5264
   55MOL0     H 7563  10.504  10.058   7.851  1.7812  3.4129 -1.3452
   55MOL0     H 7564  10.548   9.909   8.032 -1.0854  2.5038 -1.3011
   55MOL0     H 7565  10.725   9.900   7.985 -1.2933  1.9824  2.2855
   55MOL0     H 7566  10.607   9.693   7.962  2.2620  2.1738  1.8702
   55MOL0     H 7567  10.696   9.752   7.824  1.7877  3.3646  1.6252
   55MOL0     H 7568  10.457   9.842   7.723  2.1989  2.4501  2.0398
   55MOL0     H 7569  10.395   9.733   7.858  0.2248  2.9096  0.4064
   55MOL0     H 7570  10.522   9.795   7.376  1.0736  0.0566  2.5153
   55MOL0     H 7571  10.338   9.666   7.451 -2.4203 -0.2998 -3.0703
   55MOL0     H 7572   9.911   9.615   7.535  1.9125  2.4968  0.7475
   55MOL0     H 7573   9.757   9.478   7.594 -2.9811  2.4745  0.4307
   55MOL0     H 7574   9.088  10.055   9.135  1.5548  2.2524  0.2709
   55MOL0     H 7575   9.025  10.260   9.303  0.0411 -0.9736  0.7823
   55MOL0     H 7576   8.754  10.606   9.363 -0.7780  1.4981  1.4808
   55MOL0     H 7577   8.620  10.802   9.393 -0.1064  0.4121 -0.0607
   55MOL0     H 7578   8.230  10.795   9.532 -1.1859  0.4241  0.8093
   55MOL0     H 7579   8.292  10.749   9.691  2.0199  1.5021  1.0379
   55MOL0     H 7580   8.274  10.962   9.787 -2.0909 -0.8241  0.7366
   55MOL0     H 7581   8.136  10.959   9.677  0.8406  3.1014 -0.5858
   55MOL0     H 7582   8.305  11.172   9.653  3.7497 -0.1850  0.4751
   55MOL0     H 7583   8.396  11.069   9.566  0.4108  4.2544 -2.3343
   55MOL0     H 7584   8.173  11.006   9.428  1.4356 -0.9638  1.4231
   55MOL0     H 7585   8.249  11.163   9.402  1.6714 -2.6188 -1.0324
   55MOL0     H 7586   7.891  11.286   9.581 -1.5262 -0.0439 -1.1494
   55MOL0     H 7587   8.386  10.588   9.690  0.9403  0.0527  0.9687
   55MOL0     H 7588   8.504  10.261   9.631 -0.4081  0.1916  5.2028
   55MOL0     H 7589   8.424  10.371   9.720 -2.2313  2.2957 -1.3488
   55MOL0     H 7590   8.350  10.320   9.564 -0.0654  1.2447 -1.8000
   56MOL0     O 7591  11.346   3.772  10.601 -0.2855  0.2042  0.5350
   56MOL0     C 7592  11.375   3.859  10.519  0.7442 -0.1484  0.4928
   56MOL0     O 7593  11.494   3.903  10.504 -0.3275 -0.4666  0.2814
   56MOL0     C 7594  11.603   3.814  10.499  0.2791 -1.2668 -0.5671
   56MOL0     C 7595  11.599   3.688  10.439  0.5750  0.0343  0.5627
   56MOL0     C 7596  11.713   3.609  10.447 -0.5148 -0.1339  0.0560
   56MOL0     C 7597  11.834   3.661  10.502  1.1253  0.0972 -0.8615
   56MOL0     O 7598  11.958   3.595  10.506  0.0725  0.4700 -1.0396
   56MOL0     C 7599  11.971   3.451  10.488  0.1055  0.3233 -0.5804
   56MOL0     C 7600  11.930   3.373  10.616 -0.2875  0.6806 -0.5921
   56MOL0     C 7601  12.047   3.344  10.707  0.1474  1.0629  0.6431
   56MOL0     C 7602  12.121   3.464  10.762 -0.0697  1.0661 -0.7371
   56MOL0     C 7603  12.249   3.432  10.841 -0.2091  0.5163  0.5941
   56MOL0     C 7604  12.364   3.537  10.834  0.9188 -0.3103  0.3400
   56MOL0     C 7605  12.490   3.473  10.884  0.1215 -0.2668 -0.7411
   56MOL0     C 7606  12.484   3.455  11.037  0.2801 -0.4856  0.7540
   56MOL0     N 7607  12.620   3.417  11.079 -0.0400 -0.2392  0.3438
   56MOL0     C 7608  12.727   3.502  11.062  0.7827 -0.2057  0.5275
   56MOL0     C 7609  12.822   3.451  11.141  0.6542 -0.2722 -0.3400
   56MOL0     C 7610  12.961   3.498  11.163  0.5701  0.5904  0.2764
   56MOL0     C 7611  13.059   3.398  11.228 -1.0797  0.1012  0.2579
   56MOL0     C 7612  13.183   3.455  11.274  0.0786 -1.2861  0.0220
   56MOL0     C 7613  13.299   3.358  11.270  0.5786 -0.0403  0.5317
   56MOL0     O 7614  13.275   3.260  11.370 -0.3916 -0.2380 -0.3875
   56MOL0     C 7615  13.340   3.142  11.355  0.4195  0.1963 -0.0250
   56MOL0     C 7616  13.264   3.023  11.391 -0.0016 -0.3565 -0.6571
   56MOL0     C 7617  13.310   2.892  11.371 -0.5560 -0.0451 -0.1073
   56MOL0     C 7618  13.201   2.782  11.403 -0.1949 -0.5644  0.3396
   56MOL0     C 7619  13.433   2.880  11.306 -0.7910  0.2980  0.7344
   56MOL0     C 7620  13.507   2.753  11.277 -1.0696  0.0728 -0.3016
   56MOL0     O 7621  13.638   2.758  11.240  0.0851 -0.4632  0.9467
   56MOL0     C 7622  13.703   2.637  11.216  0.8564 -0.4095 -0.7061
   56MOL0     C 7623  13.703   2.588  11.084 -0.3675 -0.0412 -0.3721
   56MOL0     C 7624  13.749   2.450  11.064  0.8898  0.4963 -0.2546
   56MOL0     C 7625  13.803   2.371  11.166 -0.3630 -0.2264  0.7465
   56MOL0     O 7626  13.826   2.242  11.126  0.0416  0.8223  0.3137
   56MOL0     C 7627  13.927   2.168  11.188  0.3356 -0.0796 -0.5158
   56MOL0     C 7628  14.071   2.227  11.194  0.9304  0.4203 -0.6150
   56MOL0     C 7629  14.137   2.235  11.059  0.3463 -0.0053  1.8701
   56MOL0     C 7630  14.268   2.312  11.071  0.8385  0.0033  0.8320
   56MOL0     C 7631  14.351   2.294  10.947 -0.0370  0.6051 -0.7317
   56MOL0     C 7632  14.431   2.164  10.940 -0.0274  0.4273 -0.8936
   56MOL0     C 7633  14.504   2.157  10.804  0.4586 -0.3602  0.3562
   56MOL0     C 7634  14.416   2.102  10.705  0.5867 -0.2643 -0.0256
   56MOL0    Cl 7635  14.472   2.135  10.531  0.2198  0.1312 -0.3413
   56MOL0     C 7636  13.798   2.430  11.294  0.2995 -0.9071 -0.6369
   56MOL0     C 7637  13.757   2.563  11.314 -0.0171  0.7141  0.5109
   56MOL0     O 7638  13.433   2.657  11.282 -0.6742  1.1589  0.0045
   56MOL0     C 7639  13.503   2.993  11.264  0.6700  0.0333 -0.2594
   56MOL0     C 7640  13.456   3.124  11.285 -0.1483 -0.5610  0.5003
   56MOL0     N 7641  12.778   3.328  11.192 -0.6762  0.5040 -0.0077
   56MOL0     N 7642  12.654   3.306  11.153  1.0845 -0.3432 -0.0481
   56MOL0     C 7643  11.832   3.787  10.563  0.3726 -0.6871 -1.4372
   56MOL0     C 7644  11.716   3.864  10.561  0.4304  0.3783 -1.6264
   56MOL0     C 7645  11.267   3.944  10.453 -0.4114  0.6730  0.1175
   56MOL0     C 7646  11.310   4.066  10.401  0.2378  0.0969 -0.1561
   56MOL0     C 7647  11.221   4.156  10.342 -0.6456 -0.2554  0.2641
   56MOL0     C 7648  11.086   4.125  10.343  0.5203  0.1231 -0.0957
   56MOL0     O 7649  10.989   4.211  10.298  0.5811  0.5424 -0.2026
   56MOL0     C 7650  11.015   4.346  10.256 -0.2334  0.4737  0.6436
   56MOL0     C 7651  10.892   4.427  10.219  0.0042 -0.0984 -0.4818
   56MOL0     C 7652  10.817   4.374  10.094  0.9188 -0.7479 -0.1644
   56MOL0     C 7653  10.698   4.461  10.065  0.2799 -0.4223 -0.3969
   56MOL0     C 7654  10.609   4.400   9.968  0.3770  0.2538  0.5686
   56MOL0     C 7655  10.524   4.342   9.898  0.3127  0.2897  0.1763
   56MOL0     C 7656  11.042   3.999  10.380  0.6418  0.8001  0.4619
   56MOL0     C 7657  11.131   3.904  10.429  0.4358  0.0295  0.2759
   56MOL0     C 7658  11.079   3.777  10.464 -0.0624  1.0130 -1.0293
   56MOL0     H 7659  11.510   3.649  10.392  3.0743  0.0231 -5.0055
   56MOL0     H 7660  11.705   3.511  10.400 -2.5454 -0.0464  0.1006
   56MOL0     H 7661  12.076   3.424  10.470  0.9162  0.4096  3.1949
   56MOL0     H 7662  11.909   3.434  10.399 -0.5532 -0.8913  0.0733
   56MOL0     H 7663  11.840   3.412  10.665  0.4557  1.4295  0.2113
   56MOL0     H 7664  11.906   3.272  10.582  1.4800 -0.5349  1.5624
   56MOL0     H 7665  12.010   3.276  10.785  1.3712  1.0950  1.2849
   56MOL0     H 7666  12.117   3.274  10.661 -0.2025  1.0735  0.0925
   56MOL0     H 7667  12.147   3.530  10.679 -0.3545 -0.0978 -1.7788
   56MOL0     H 7668  12.054   3.516  10.831  0.9857  1.4540  0.0260
   56MOL0     H 7669  12.284   3.340  10.792  0.7176  1.3396 -0.3292
   56MOL0     H 7670  12.230   3.395  10.942  1.9600  0.0129  0.8833
   56MOL0     H 7671  12.389   3.563  10.731 -4.6031  3.4113 -0.5563
   56MOL0     H 7672  12.338   3.624  10.896  1.6278  0.0544  0.1284
   56MOL0     H 7673  12.574   3.539  10.858  0.2866 -1.4210 -3.3503
   56MOL0     H 7674  12.508   3.374  10.843 -0.3073 -1.3712  1.5514
   56MOL0     H 7675  12.463   3.549  11.089  1.7096  0.2249  0.1108
   56MOL0     H 7676  12.409   3.381  11.068  2.2255 -3.1303 -0.4530
   56MOL0     H 7677  12.729   3.597  11.010  0.0872 -0.2442  0.4234
   56MOL0     H 7678  12.950   3.578  11.235  0.4029  0.4727  0.3819
   56MOL0     H 7679  13.002   3.538  11.070 -3.2752  0.3185 -1.7322
   56MOL0     H 7680  13.019   3.346  11.316  1.4552  0.3471  1.6618
   56MOL0     H 7681  13.073   3.316  11.157 -3.6585  1.1930 -1.6973
   56MOL0     H 7682  13.205   3.530  11.198  1.7449  0.0597  1.7348
   56MOL0     H 7683  13.175   3.506  11.371 -0.4828  2.9054 -1.9933
   56MOL0     H 7684  13.316   3.322  11.168  4.5743  1.8142  0.3472
   56MOL0     H 7685  13.394   3.409  11.290 -0.1451  1.9589 -0.7640
   56MOL0     H 7686  13.166   3.044  11.432 -0.2108  0.3034 -1.4438
   56MOL0     H 7687  13.121   2.833  11.457  1.4540  0.7721  1.6049
   56MOL0     H 7688  13.231   2.702  11.472  0.0991  0.7556  1.7930
   56MOL0     H 7689  13.166   2.740  11.308 -3.2767  1.1510  0.5853
   56MOL0     H 7690  13.675   2.655  11.003  1.1698  1.5904  0.3801
   56MOL0     H 7691  13.746   2.411  10.963  1.2040  1.3344 -0.5974
   56MOL0     H 7692  13.893   2.133  11.286  1.1978  0.4234 -0.0241
   56MOL0     H 7693  13.938   2.078  11.127 -4.4855 -0.6197 -0.9994
   56MOL0     H 7694  14.057   2.326  11.239  2.0790  0.0175  0.7026
   56MOL0     H 7695  14.133   2.176  11.269 -1.4074 -0.5273  0.7594
   56MOL0     H 7696  14.073   2.287  10.988 -0.8063 -1.8628  1.5142
   56MOL0     H 7697  14.149   2.136  11.016 -0.3319  1.2899 -1.6530
   56MOL0     H 7698  14.321   2.273  11.159  1.1839 -2.3256 -0.3451
   56MOL0     H 7699  14.257   2.421  11.076 -0.0056  0.0207 -0.8425
   56MOL0     H 7700  14.308   2.330  10.853  1.8644  0.5765 -1.6641
   56MOL0     H 7701  14.424   2.372  10.969 -1.2612  1.7719 -0.6443
   56MOL0     H 7702  14.372   2.074  10.956  0.7113  0.1165  0.1909
   56MOL0     H 7703  14.500   2.155  11.024 -0.0840  0.0855 -0.8849
   56MOL0     H 7704  14.595   2.101  10.828  1.2887 -0.3672 -2.4609
   56MOL0     H 7705  14.528   2.257  10.766 -1.1621 -0.1394 -0.1639
   56MOL0     H 7706  14.319   2.151  10.716 -1.0647 -3.2766 -0.2028
   56MOL0     H 7707  14.393   1.997  10.723  0.3199  0.2095  2.9367
   56MOL0     H 7708  13.820   2.364  11.377  2.3429  0.3036 -0.1432
   56MOL0     H 7709  13.740   2.597  11.416 -1.0484  0.2282  0.5159
   56MOL0     H 7710  13.597   2.986  11.212  0.4216  1.2182 -0.9187
   56MOL0     H 7711  13.502   3.214  11.245 -3.0820  1.9760  2.3463
   56MOL0     H 7712  11.925   3.816  10.612 -1.1079  0.1109  1.1298
   56MOL0     H 7713  11.715   3.963  10.604 -0.8903 -0.5948  0.7535
   56MOL0     H 7714  11.412   4.104  10.399  0.6685 -1.0267 -0.0240
   56MOL0     H 7715  11.261   4.249  10.303  1.6470 -0.7926  1.1817
   56MOL0     H 7716  11.074   4.397  10.332  3.0527  0.2647 -1.5505
   56MOL0     H 7717  11.077   4.330  10.167 -0.0350  2.0959  0.4567
   56MOL0     H 7718  10.913   4.532  10.198 -0.2311 -0.2542 -1.5094
   56MOL0     H 7719  10.832   4.427  10.311  0.1255 -1.2351 -0.3846
   56MOL0     H 7720  10.885   4.373  10.009 -0.2919 -1.1210 -1.1604
   56MOL0     H 7721  10.782   4.272  10.110 -2.0062  0.4087  1.7697
   56MOL0     H 7722  10.726   4.564  10.039  0.1747  0.2864  2.0046
   56MOL0     H 7723  10.629   4.473  10.150  0.5571 -0.7319 -0.1246
   56MOL0     H 7724  10.452   4.287   9.841  0.3769  1.1168 -0.7288
   56MOL0     H 7725  10.940   3.978  10.351  1.0415  0.7258 -0.9465
   56MOL0     H 7726  11.028   3.734  10.377 -1.1005  0.0977 -0.0099
   56MOL0     H 7727  11.159   3.708  10.491 -0.3622  0.5433 -1.3210
   56MOL0     H 7728  11.004   3.790  10.542  2.3937  0.0588  1.6529
   57MOL0     O 7729   5.712   4.437   8.000  0.7246  0.3433  0.2929
   57MOL0     C 7730   5.664   4.396   7.889 -0.3620  0.1812 -0.1017
   57MOL0     O 7731   5.744   4.365   7.778 -0.2923  0.3021 -0.1721
   57MOL0     C 7732   5.875   4.404   7.783 -0.3174  0.0463 -1.0891
   57MOL0     C 7733   5.960   4.304   7.837 -0.4081 -0.0805 -0.7310
   57MOL0     C 7734   6.097   4.326   7.821 -0.7952  1.4483 -0.4135
   57MOL0     C 7735   6.142   4.456   7.783 -0.0455  0.1145  0.7304
   57MOL0     O 7736   6.275   4.466   7.802  0.0868 -0.2372 -0.5067
   57MOL0     C 7737   6.334   4.596   7.810  0.0549 -0.5865 -0.0415
   57MOL0     C 7738   6.462   4.582   7.903  0.0953 -0.1732 -0.5157
   57MOL0     C 7739   6.530   4.724   7.899 -0.2492 -0.1786  1.1175
   57MOL0     C 7740   6.677   4.717   7.932  0.1227 -0.4867 -0.1525
   57MOL0     C 7741   6.766   4.666   7.815 -0.2908 -0.3095 -1.0734
   57MOL0     C 7742   6.914   4.694   7.842 -0.2090 -0.6421  0.1683
   57MOL0     C 7743   6.993   4.662   7.709 -0.3906  0.0970 -0.1288
   57MOL0     C 7744   7.147   4.674   7.733 -0.2045 -0.1913  0.3912
   57MOL0     N 7745   7.192   4.589   7.844 -0.4148  0.6561 -0.4658
   57MOL0     C 7746   7.197   4.449   7.845  0.0723  0.2766  0.5232
   57MOL0     C 7747   7.261   4.416   7.961 -0.6506  0.3540  0.7671
   57MOL0     C 7748   7.292   4.272   8.015  0.0138  0.3661  0.2581
   57MOL0     C 7749   7.408   4.206   7.933 -0.0499  0.4445 -0.5166
   57MOL0     C 7750   7.439   4.063   7.991 -0.8380 -0.0145  0.7101
   57MOL0     C 7751   7.571   4.004   7.938 -0.0373  0.4020  0.9967
   57MOL0     O 7752   7.575   4.001   7.790 -1.1544 -0.5028 -0.0858
   57MOL0     C 7753   7.634   3.908   7.718 -0.4774 -0.1792 -0.3913
   57MOL0     C 7754   7.597   3.881   7.586 -0.5651  0.1553 -0.1900
   57MOL0     C 7755   7.675   3.790   7.512 -0.4376 -0.5312 -1.1139
   57MOL0     C 7756   7.672   3.797   7.363 -0.5286 -0.9786  0.0961
   57MOL0     C 7757   7.771   3.714   7.577 -0.3652 -0.6735  1.5555
   57MOL0     C 7758   7.842   3.602   7.504 -0.4783 -0.1585 -0.2259
   57MOL0     O 7759   7.978   3.599   7.517 -0.0666 -0.2338 -0.1490
   57MOL0     C 7760   8.048   3.495   7.458  0.2430  0.0896  0.5918
   57MOL0     C 7761   8.124   3.406   7.539 -0.7083 -1.3006 -0.4142
   57MOL0     C 7762   8.208   3.311   7.479  0.1006 -0.5730 -0.0451
   57MOL0     C 7763   8.221   3.305   7.334  0.3681 -0.0399 -0.2246
   57MOL0     O 7764   8.303   3.218   7.266  0.0361  0.2833 -0.1966
   57MOL0     C 7765   8.440   3.204   7.309 -0.0306 -0.3029  0.3045
   57MOL0     C 7766   8.525   3.150   7.197  0.2622  0.2807  0.4836
   57MOL0     C 7767   8.525   3.004   7.180  0.7879  0.6084  0.6799
   57MOL0     C 7768   8.381   2.932   7.182 -0.5365 -0.5134 -0.6134
   57MOL0     C 7769   8.380   2.780   7.182  0.3502 -0.8223  1.3682
   57MOL0     C 7770   8.479   2.716   7.277  0.7375 -0.0086 -1.7630
   57MOL0     C 7771   8.461   2.564   7.286 -0.1416 -1.2669  0.0152
   57MOL0     C 7772   8.579   2.496   7.343 -0.0051  0.5423 -0.2980
   57MOL0    Cl 7773   8.584   2.533   7.511 -0.5393 -0.4452  0.3090
   57MOL0     C 7774   8.156   3.403   7.260 -0.7291 -0.9979 -0.1780
   57MOL0     C 7775   8.066   3.493   7.323  0.7452  0.0826 -0.0849
   57MOL0     O 7776   7.775   3.532   7.430 -0.1247 -0.7270  0.9003
   57MOL0     C 7777   7.811   3.748   7.703  0.0709 -0.2376 -0.3095
   57MOL0     C 7778   7.739   3.840   7.776  0.1629  0.1404  0.9338
   57MOL0     N 7779   7.283   4.532   8.031  0.0311  0.4494  0.2659
   57MOL0     N 7780   7.234   4.641   7.966 -0.1302 -0.3542  0.3001
   57MOL0     C 7781   6.057   4.557   7.751  0.1443  0.3604  0.2783
   57MOL0     C 7782   5.925   4.526   7.742 -0.8856 -0.3443 -0.4057
   57MOL0     C 7783   5.522   4.356   7.899  0.1741  0.1882  0.1694
   57MOL0     C 7784   5.479   4.244   7.823 -0.4685  0.1485 -0.3041
   57MOL0     C 7785   5.348   4.205   7.819 -0.6266 -0.2291  0.4650
   57MOL0     C 7786   5.254   4.268   7.896 -0.1253 -0.3181  0.0012
   57MOL0     O 7787   5.116   4.261   7.887  0.3498  0.0244 -0.6177
   57MOL0     C 7788   5.059   4.164   7.799 -0.8815  0.1955  0.6253
   57MOL0     C 7789   4.908   4.166   7.813  0.1201 -0.2769  0.5116
   57MOL0     C 7790   4.839   4.286   7.764 -1.3607 -0.1288 -0.2299
   57MOL0     C 7791   4.759   4.361   7.867  0.7633  0.0826  0.0379
   57MOL0     C 7792   4.647   4.293   7.933  0.1649  1.8053  0.3122
   57MOL0     C 7793   4.552   4.235   7.987 -0.5335  0.7330  0.2303
   57MOL0     C 7794   5.287   4.371   7.974 -0.0559 -0.4671 -0.4071
   57MOL0     C 7795   5.424   4.410   7.987 -0.0485 -0.6359  0.0524
   57MOL0     C 7796   5.450   4.536   8.078 -0.9208  0.4013  0.5773
   57MOL0     H 7797   5.918   4.209   7.870  1.4795 -1.0827 -1.0963
   57MOL0     H 7798   6.173   4.253   7.847 -2.1720  0.0487 -0.2088
   57MOL0     H 7799   6.275   4.677   7.853 -0.3982 -1.4473  1.0166
   57MOL0     H 7800   6.359   4.630   7.709  3.6231 -3.5532 -0.3765
   57MOL0     H 7801   6.416   4.550   7.997 -1.6612  0.0907 -1.2621
   57MOL0     H 7802   6.531   4.504   7.870 -1.2094 -1.0942 -1.1277
   57MOL0     H 7803   6.517   4.777   7.804  1.7840  1.8259  1.8725
   57MOL0     H 7804   6.472   4.785   7.969  0.4531  4.8351 -2.1434
   57MOL0     H 7805   6.713   4.817   7.959  1.0941 -0.6985 -0.6462
   57MOL0     H 7806   6.699   4.662   8.024  0.7957  1.8348  1.1436
   57MOL0     H 7807   6.721   4.720   7.731  2.5620  2.1622 -1.1714
   57MOL0     H 7808   6.754   4.561   7.785 -0.6646 -1.4668  2.5354
   57MOL0     H 7809   6.922   4.802   7.862  1.4046 -0.0523 -2.9716
   57MOL0     H 7810   6.946   4.639   7.931 -2.0369 -3.1371 -0.6142
   57MOL0     H 7811   6.967   4.707   7.613  1.4379 -1.2365 -1.3274
   57MOL0     H 7812   6.981   4.553   7.699 -1.7494  0.2287 -0.1544
   57MOL0     H 7813   7.190   4.651   7.635 -3.0431 -1.4119 -0.6741
   57MOL0     H 7814   7.174   4.778   7.756 -0.9490  0.0159  0.3546
   57MOL0     H 7815   7.157   4.379   7.773 -0.8088  1.4357 -0.1471
   57MOL0     H 7816   7.208   4.204   7.996  0.4906 -0.8371  2.1416
   57MOL0     H 7817   7.331   4.274   8.117 -0.7738 -2.6851  0.7139
   57MOL0     H 7818   7.383   4.199   7.827 -2.3168 -1.4513  0.0634
   57MOL0     H 7819   7.499   4.267   7.941  1.0312 -0.3100 -4.6987
   57MOL0     H 7820   7.442   4.063   8.100 -1.5105 -2.1512  0.7689
   57MOL0     H 7821   7.350   4.014   7.951 -0.6588  1.3034 -1.4329
   57MOL0     H 7822   7.657   4.070   7.955 -1.2595  1.9731  1.3044
   57MOL0     H 7823   7.583   3.902   7.975 -1.5542 -0.3208 -0.4013
   57MOL0     H 7824   7.520   3.937   7.534 -1.8391 -1.8567 -0.5865
   57MOL0     H 7825   7.774   3.812   7.325  0.1641 -1.0611  1.8292
   57MOL0     H 7826   7.615   3.886   7.337 -0.3481  0.0519  2.8421
   57MOL0     H 7827   7.630   3.706   7.319 -1.0633 -1.2111  1.0646
   57MOL0     H 7828   8.115   3.414   7.647 -3.2138  1.3153 -0.6911
   57MOL0     H 7829   8.255   3.233   7.538 -1.5558 -1.6444 -0.0790
   57MOL0     H 7830   8.480   3.304   7.332  1.2350 -0.2149 -1.9743
   57MOL0     H 7831   8.433   3.140   7.398 -1.1914  1.7657  1.7935
   57MOL0     H 7832   8.494   3.197   7.103  2.8370 -0.8924 -1.0406
   57MOL0     H 7833   8.626   3.191   7.200  0.9472 -0.5147 -4.0577
   57MOL0     H 7834   8.582   2.951   7.256 -0.1400  0.0173  0.9852
   57MOL0     H 7835   8.573   2.988   7.083  0.2024  2.1080  0.1173
   57MOL0     H 7836   8.323   2.978   7.102 -2.0792  0.0108  0.7654
   57MOL0     H 7837   8.323   2.955   7.271  1.2596 -0.1455  0.5198
   57MOL0     H 7838   8.285   2.757   7.232  1.3498 -1.2191  3.1441
   57MOL0     H 7839   8.384   2.740   7.080  0.8059  1.8399  0.2481
   57MOL0     H 7840   8.469   2.759   7.377  3.6165 -0.8976 -0.9994
   57MOL0     H 7841   8.578   2.748   7.244  0.5045  0.2974 -2.1828
   57MOL0     H 7842   8.442   2.529   7.185 -0.1086 -0.5555 -0.2415
   57MOL0     H 7843   8.373   2.541   7.349  0.5293  2.2143  2.5361
   57MOL0     H 7844   8.670   2.525   7.290  0.3005 -2.4202 -1.5782
   57MOL0     H 7845   8.575   2.389   7.322  1.5991  1.0427 -3.8852
   57MOL0     H 7846   8.167   3.395   7.152 -3.2899  1.8386 -0.7916
   57MOL0     H 7847   8.006   3.558   7.260 -0.1068  0.7335  1.3659
   57MOL0     H 7848   7.898   3.702   7.749  0.5822  1.2668  0.3061
   57MOL0     H 7849   7.767   3.855   7.880  1.9230 -1.2561  0.7117
   57MOL0     H 7850   6.093   4.658   7.732  3.1723 -0.7102 -0.3077
   57MOL0     H 7851   5.857   4.604   7.708 -0.8795 -0.1138  0.1081
   57MOL0     H 7852   5.541   4.176   7.764 -0.6002 -0.3890  0.1656
   57MOL0     H 7853   5.320   4.117   7.762  1.1872  0.5488 -1.7824
   57MOL0     H 7854   5.095   4.172   7.696 -2.3991  0.8856  0.1226
   57MOL0     H 7855   5.087   4.070   7.847  2.4526  1.5795  1.6890
   57MOL0     H 7856   4.869   4.156   7.915 -0.7035  1.2614  0.3770
   57MOL0     H 7857   4.868   4.078   7.763  1.9336 -2.2973  2.4452
   57MOL0     H 7858   4.908   4.356   7.715 -0.5861 -2.6166 -2.9651
   57MOL0     H 7859   4.772   4.251   7.685 -0.0925  1.3291 -2.0628
   57MOL0     H 7860   4.716   4.445   7.811  0.7184 -1.1931 -1.9219
   57MOL0     H 7861   4.827   4.387   7.949 -0.5089  1.4772  0.6939
   57MOL0     H 7862   4.477   4.172   8.030  2.0225 -1.8189  1.2988
   57MOL0     H 7863   5.205   4.431   8.014  1.1624  1.7773 -1.1196
   57MOL0     H 7864   5.362   4.599   8.092  0.6138  2.9949 -0.6476
   57MOL0     H 7865   5.503   4.504   8.168 -0.4519  0.4449  0.3237
   57MOL0     H 7866   5.515   4.611   8.032 -1.4203  1.8092  2.0547
   58MOL0     O 7867   2.955   4.718   1.815  0.1062  0.8208  0.3984
   58MOL0     C 7868   2.979   4.750   1.698  0.4610  0.1582 -0.1618
   58MOL0     O 7869   3.107   4.785   1.659  0.7931  0.8947 -0.0561
   58MOL0     C 7870   3.138   4.805   1.529 -0.7944  0.4797  0.1251
   58MOL0     C 7871   3.111   4.928   1.473  0.9091  0.6102 -0.3949
   58MOL0     C 7872   3.155   4.954   1.349 -1.2710 -0.3312 -0.4104
   58MOL0     C 7873   3.227   4.857   1.273 -0.3334  1.0102 -0.2490
   58MOL0     O 7874   3.276   4.874   1.146 -0.0192  0.6299 -0.5671
   58MOL0     C 7875   3.268   5.006   1.094  0.6314 -0.4112 -0.7816
   58MOL0     C 7876   3.322   5.031   0.959  0.0434  0.3716  0.1832
   58MOL0     C 7877   3.320   5.178   0.919 -0.6067  0.2543  0.5705
   58MOL0     C 7878   3.442   5.245   0.990  0.9094 -0.2357 -0.0046
   58MOL0     C 7879   3.476   5.364   0.900 -0.5001 -0.1602 -0.6318
   58MOL0     C 7880   3.614   5.422   0.939  0.2223 -1.0492  0.7444
   58MOL0     C 7881   3.620   5.517   1.062  0.4832 -0.0458  0.4418
   58MOL0     C 7882   3.761   5.572   1.076 -0.4746 -0.9985 -0.7323
   58MOL0     N 7883   3.782   5.637   1.206 -0.0139 -0.4909  0.4812
   58MOL0     C 7884   3.740   5.759   1.236  0.7057 -0.2806 -0.3049
   58MOL0     C 7885   3.775   5.769   1.367  0.2308 -0.2199  0.4352
   58MOL0     C 7886   3.744   5.893   1.437  0.2413 -0.4845 -0.3799
   58MOL0     C 7887   3.843   5.930   1.550 -0.7720  0.4126  0.5116
   58MOL0     C 7888   3.979   5.947   1.478  0.4891  0.0120  0.3646
   58MOL0     C 7889   4.094   5.971   1.574  0.4143 -0.3707 -0.4732
   58MOL0     O 7890   4.053   6.073   1.667  1.3239 -0.5624 -0.8517
   58MOL0     C 7891   4.057   6.209   1.637  0.7744 -0.7911 -0.7579
   58MOL0     C 7892   4.137   6.284   1.548 -0.4617  0.3905 -0.2242
   58MOL0     C 7893   4.134   6.420   1.533  0.9187  0.1197 -0.8703
   58MOL0     C 7894   4.232   6.470   1.420 -0.1889 -0.1630 -0.2365
   58MOL0     C 7895   4.053   6.498   1.617  0.1681 -0.3122 -0.1512
   58MOL0     C 7896   4.037   6.643   1.591 -0.4401 -0.3660 -0.3479
   58MOL0     O 7897   4.137   6.727   1.642 -0.4292  0.6198  0.7077
   58MOL0     C 7898   4.153   6.855   1.593 -0.0409 -0.2263 -0.1995
   58MOL0     C 7899   4.247   6.942   1.665  0.4214  0.9686  1.2045
   58MOL0     C 7900   4.269   7.068   1.623  0.7380 -0.1155 -0.4273
   58MOL0     C 7901   4.215   7.118   1.504 -0.1338 -0.3996  0.7450
   58MOL0     O 7902   4.248   7.244   1.469 -0.5642 -0.1968  0.2227
   58MOL0     C 7903   4.192   7.349   1.542  0.2397 -0.4993 -0.3621
   58MOL0     C 7904   4.237   7.478   1.488  0.4759  0.0183  0.0006
   58MOL0     C 7905   4.143   7.542   1.384  0.9569 -0.3701 -0.3512
   58MOL0     C 7906   4.076   7.439   1.288  0.0595  0.2872 -0.0249
   58MOL0     C 7907   4.153   7.379   1.179 -1.5380  0.2253  0.3335
   58MOL0     C 7908   4.187   7.477   1.060  0.2059  0.4555  0.2272
   58MOL0     C 7909   4.299   7.400   0.973 -0.2931 -0.9901  0.1386
   58MOL0     C 7910   4.285   7.465   0.834 -1.1554  0.1807  0.2432
   58MOL0    Cl 7911   4.375   7.366   0.717 -0.1741 -0.4401 -0.3447
   58MOL0     C 7912   4.130   7.037   1.436  0.8157  0.3981  0.2076
   58MOL0     C 7913   4.099   6.907   1.475  0.9576 -0.2681 -0.7032
   58MOL0     O 7914   3.929   6.685   1.546 -0.6659 -0.7568 -0.2420
   58MOL0     C 7915   3.969   6.429   1.705  0.0558  0.7373 -1.1599
   58MOL0     C 7916   3.975   6.288   1.715 -0.6441 -0.0073  0.1818
   58MOL0     N 7917   3.835   5.648   1.412 -0.7459 -0.7499  0.1714
   58MOL0     N 7918   3.842   5.577   1.302 -0.6020 -0.0464 -0.8717
   58MOL0     C 7919   3.251   4.732   1.334 -0.4030  0.4237  0.5592
   58MOL0     C 7920   3.209   4.707   1.463  0.4897  0.5149 -0.4359
   58MOL0     C 7921   2.861   4.749   1.611  0.8666 -0.2277  1.1496
   58MOL0     C 7922   2.868   4.658   1.504  0.0944 -0.7749 -0.3184
   58MOL0     C 7923   2.753   4.640   1.415  0.0043 -0.0503  0.0560
   58MOL0     C 7924   2.626   4.697   1.437  0.5084  0.0014 -0.5606
   58MOL0     O 7925   2.517   4.663   1.362  0.3221  0.6264 -0.2670
   58MOL0     C 7926   2.410   4.757   1.378  0.3383  0.1904  0.3336
   58MOL0     C 7927   2.284   4.733   1.288  0.6578  0.1306  0.1975
   58MOL0     C 7928   2.309   4.787   1.149 -0.4211  0.2238 -0.2490
   58MOL0     C 7929   2.196   4.755   1.054  0.1990  0.6117  0.9614
   58MOL0     C 7930   2.255   4.731   0.924  0.0442  0.0654  1.2569
   58MOL0     C 7931   2.299   4.717   0.808  0.5154 -0.1572  0.1593
   58MOL0     C 7932   2.628   4.793   1.546 -0.7668 -0.6918  0.5304
   58MOL0     C 7933   2.740   4.822   1.628  0.7895  0.2606  0.3999
   58MOL0     C 7934   2.737   4.905   1.758  0.1035  0.2644  0.0541
   58MOL0     H 7935   3.054   4.997   1.534  0.9091 -0.8549  1.3255
   58MOL0     H 7936   3.150   5.053   1.304 -1.2360 -0.5189 -0.8332
   58MOL0     H 7937   3.314   5.083   1.158 -0.6969  0.5180 -0.8916
   58MOL0     H 7938   3.167   5.048   1.092  1.1537  0.8506 -2.0915
   58MOL0     H 7939   3.425   4.995   0.951  0.1315  0.9680 -2.6685
   58MOL0     H 7940   3.265   4.969   0.889  1.6610  0.3861 -1.2264
   58MOL0     H 7941   3.317   5.183   0.810 -0.4769 -0.2794  0.5368
   58MOL0     H 7942   3.224   5.213   0.958  1.1038  3.8512  1.9931
   58MOL0     H 7943   3.417   5.282   1.089  1.9698 -0.2615  0.2856
   58MOL0     H 7944   3.532   5.183   0.989 -1.2107 -3.6104 -2.0578
   58MOL0     H 7945   3.388   5.428   0.910 -1.1162 -0.6685 -2.4594
   58MOL0     H 7946   3.481   5.333   0.795  3.1179  1.8073 -1.2203
   58MOL0     H 7947   3.689   5.344   0.953  1.6275 -0.3007 -1.8094
   58MOL0     H 7948   3.636   5.487   0.853 -3.5700  1.5184  1.4621
   58MOL0     H 7949   3.583   5.454   1.143  2.5846 -0.3477  1.2275
   58MOL0     H 7950   3.559   5.608   1.064  1.0675  0.4193 -1.0974
   58MOL0     H 7951   3.832   5.489   1.066 -1.2422 -2.0144  1.5100
   58MOL0     H 7952   3.791   5.635   0.993  3.5140 -2.9186 -0.9728
   58MOL0     H 7953   3.677   5.829   1.182  1.3330  1.5155  1.1801
   58MOL0     H 7954   3.647   5.877   1.486  0.4678 -1.5517 -0.2549
   58MOL0     H 7955   3.730   5.975   1.366 -1.1720  0.1364  0.5508
   58MOL0     H 7956   3.808   6.024   1.595  3.1298  2.8719 -1.0074
   58MOL0     H 7957   3.853   5.857   1.630  3.8039 -0.4133 -0.5390
   58MOL0     H 7958   3.999   5.858   1.418 -1.5794 -1.5076  1.7746
   58MOL0     H 7959   3.969   6.030   1.408  1.3817 -1.7255 -1.9695
   58MOL0     H 7960   4.103   5.881   1.635  2.3609 -0.8603 -1.4037
   58MOL0     H 7961   4.187   5.996   1.522  0.6698  0.4218  0.3140
   58MOL0     H 7962   4.206   6.225   1.488  0.3171  1.1937 -0.1457
   58MOL0     H 7963   4.297   6.391   1.381 -2.4716 -1.4363 -1.6651
   58MOL0     H 7964   4.284   6.561   1.450 -1.4646 -0.4390  3.3163
   58MOL0     H 7965   4.166   6.483   1.334  0.3247 -2.7038 -1.1026
   58MOL0     H 7966   4.298   6.902   1.752  2.3071  1.8379  0.5723
   58MOL0     H 7967   4.332   7.128   1.689  0.7400 -1.2288  0.6285
   58MOL0     H 7968   4.083   7.341   1.533  0.3361  0.3877 -3.5424
   58MOL0     H 7969   4.224   7.353   1.646  0.8675  0.3064 -0.5789
   58MOL0     H 7970   4.234   7.542   1.576 -0.2214  0.3138 -0.2255
   58MOL0     H 7971   4.342   7.479   1.457 -0.1647 -1.2708 -2.5277
   58MOL0     H 7972   4.202   7.614   1.327  0.9862 -0.1500 -0.0422
   58MOL0     H 7973   4.073   7.602   1.442  3.2684 -0.2668  2.4950
   58MOL0     H 7974   4.010   7.507   1.235  1.2310  2.2906  0.9329
   58MOL0     H 7975   4.023   7.358   1.339  0.7431 -0.6235 -0.7315
   58MOL0     H 7976   4.247   7.342   1.221 -0.7678 -0.6133 -1.9628
   58MOL0     H 7977   4.103   7.291   1.137 -1.9840  0.2991  0.7070
   58MOL0     H 7978   4.201   7.581   1.090  0.4708  0.5312 -0.1474
   58MOL0     H 7979   4.099   7.487   0.996  1.4006 -3.4269 -2.3912
   58MOL0     H 7980   4.290   7.291   0.968  2.9161 -1.3043 -0.8312
   58MOL0     H 7981   4.398   7.412   1.017  1.1339 -4.5634 -1.6722
   58MOL0     H 7982   4.336   7.562   0.838 -0.3375 -0.2667  0.9888
   58MOL0     H 7983   4.183   7.476   0.796 -0.6423  0.7111 -1.0386
   58MOL0     H 7984   4.089   7.067   1.340  0.8033 -0.4434 -0.0647
   58MOL0     H 7985   4.017   6.852   1.431  1.7611 -2.8265  0.7779
   58MOL0     H 7986   3.907   6.492   1.768  1.0721  0.3233  0.3129
   58MOL0     H 7987   3.918   6.238   1.792 -0.3656  1.5124  1.4291
   58MOL0     H 7988   3.306   4.659   1.277 -2.8431 -0.0972 -1.3339
   58MOL0     H 7989   3.226   4.610   1.509 -1.3142  0.8947  1.1782
   58MOL0     H 7990   2.951   4.589   1.502  4.1641  3.4120  3.1076
   58MOL0     H 7991   2.760   4.564   1.338 -0.2680 -1.8469  1.7169
   58MOL0     H 7992   2.367   4.758   1.478 -3.3119 -1.6267 -1.0357
   58MOL0     H 7993   2.448   4.859   1.365 -2.5810  1.5367  1.5272
   58MOL0     H 7994   2.198   4.773   1.342  2.2314  1.6951  1.6633
   58MOL0     H 7995   2.273   4.625   1.272  1.0934  0.2569 -1.0672
   58MOL0     H 7996   2.332   4.893   1.160  2.8513 -0.2968 -1.0833
   58MOL0     H 7997   2.410   4.754   1.126 -0.0128 -1.0975  2.8417
   58MOL0     H 7998   2.129   4.842   1.046  1.0474  1.4150  2.1722
   58MOL0     H 7999   2.142   4.665   1.083  1.3779 -1.2643 -2.2033
   58MOL0     H 8000   2.336   4.708   0.708 -3.1888 -0.8658 -1.2782
   58MOL0     H 8001   2.542   4.835   1.598  1.6336  3.1841  1.7713
   58MOL0     H 8002   2.675   4.992   1.734 -0.6095 -0.3878 -0.5262
   58MOL0     H 8003   2.678   4.845   1.828 -2.3187 -1.0863 -2.8848
   58MOL0     H 8004   2.837   4.935   1.790 -0.2760  1.9813 -0.2896
   59MOL0     O 8005   9.167   2.422   2.632  0.6849 -0.1950  0.1343
   59MOL0     C 8006   9.083   2.425   2.541 -0.5537 -0.3864 -0.0477
   59MOL0     O 8007   9.113   2.427   2.408  0.4736 -0.4583  0.4587
   59MOL0     C 8008   9.219   2.354   2.362 -0.6177  0.5805 -0.0419
   59MOL0     C 8009   9.264   2.240   2.425 -0.3037  0.1725  0.1001
   59MOL0     C 8010   9.381   2.179   2.384 -0.4679  0.9811 -0.3752
   59MOL0     C 8011   9.443   2.217   2.270 -0.1621  0.5303 -0.0103
   59MOL0     O 8012   9.560   2.160   2.214 -0.3570 -1.3653 -0.1013
   59MOL0     C 8013   9.658   2.115   2.297  0.4191  0.1017 -0.2892
   59MOL0     C 8014   9.653   1.965   2.332  0.5103  0.1406 -0.0362
   59MOL0     C 8015   9.697   1.865   2.213 -0.0206 -0.1037  0.0768
   59MOL0     C 8016   9.629   1.888   2.077  0.4950  0.1385  0.6948
   59MOL0     C 8017   9.698   1.783   1.984 -0.0130 -0.7416  0.0135
   59MOL0     C 8018   9.627   1.761   1.861  0.2879  0.0939 -0.4021
   59MOL0     C 8019   9.732   1.749   1.746 -0.2824 -0.0943 -0.3285
   59MOL0     C 8020   9.655   1.722   1.612  0.4656  0.0175 -0.2668
   59MOL0     N 8021   9.613   1.581   1.620  0.6892 -0.9499 -0.1276
   59MOL0     C 8022   9.696   1.475   1.591 -0.2950  0.4140 -0.3267
   59MOL0     C 8023   9.618   1.361   1.605  0.4693 -0.2687 -0.4595
   59MOL0     C 8024   9.672   1.222   1.575  0.1833 -0.6210  1.0909
   59MOL0     C 8025   9.772   1.169   1.684 -0.3497 -0.3270  0.3427
   59MOL0     C 8026   9.908   1.237   1.703 -0.5676 -0.2621  0.5403
   59MOL0     C 8027   9.977   1.197   1.831  0.5284 -0.1881 -0.5634
   59MOL0     O 8028  10.088   1.282   1.842  0.0093  0.4027 -0.0873
   59MOL0     C 8029  10.089   1.385   1.934  1.2288  0.8858  0.3736
   59MOL0     C 8030  10.208   1.451   1.959 -0.1228  0.4750 -0.2304
   59MOL0     C 8031  10.222   1.558   2.048 -0.4040  0.2213  0.5019
   59MOL0     C 8032  10.362   1.622   2.068 -0.9725 -0.3042  0.1941
   59MOL0     C 8033  10.102   1.612   2.103  0.1766  0.3917 -0.0262
   59MOL0     C 8034  10.108   1.726   2.197  0.9423 -0.3458  0.3042
   59MOL0     O 8035  10.027   1.729   2.303  0.3719  0.0062 -0.2948
   59MOL0     C 8036  10.024   1.835   2.392  0.5929  0.0414  0.5515
   59MOL0     C 8037   9.988   1.806   2.517  0.0606 -0.0196 -0.0714
   59MOL0     C 8038   9.978   1.906   2.608 -0.1027 -0.8341 -0.4468
   59MOL0     C 8039  10.032   2.030   2.589  0.5471 -0.1534  0.4673
   59MOL0     O 8040  10.035   2.146   2.669 -0.2769 -0.0791  0.1707
   59MOL0     C 8041  10.048   2.122   2.811  0.1143 -0.5031 -0.5556
   59MOL0     C 8042   9.995   2.248   2.875 -0.8372 -1.1343 -0.2160
   59MOL0     C 8043  10.088   2.373   2.856  0.6671  0.1547 -0.3195
   59MOL0     C 8044  10.021   2.504   2.892 -0.7954  0.3508 -0.1594
   59MOL0     C 8045   9.892   2.537   2.809  0.3259 -0.9193  0.4342
   59MOL0     C 8046   9.817   2.644   2.873 -0.2331 -0.2094 -0.2464
   59MOL0     C 8047   9.680   2.671   2.797 -0.2494 -0.1121 -0.4970
   59MOL0     C 8048   9.596   2.797   2.838 -0.8298  0.0701 -0.2107
   59MOL0    Cl 8049   9.548   2.765   3.002 -0.0466  0.2733  0.0199
   59MOL0     C 8050  10.066   2.065   2.462 -0.0773 -0.7249  0.6199
   59MOL0     C 8051  10.055   1.975   2.359 -0.2717  0.3703 -0.4531
   59MOL0     O 8052  10.176   1.818   2.160  0.2759  0.0156 -0.2245
   59MOL0     C 8053   9.984   1.532   2.084 -0.0533  0.3264  0.1180
   59MOL0     C 8054   9.974   1.421   2.005  0.0025 -0.4873  0.4185
   59MOL0     N 8055   9.489   1.398   1.627  0.4167 -0.6538 -0.2010
   59MOL0     N 8056   9.481   1.530   1.626 -0.0590 -0.4544  0.6464
   59MOL0     C 8057   9.398   2.333   2.205 -0.4218 -0.1742  1.3138
   59MOL0     C 8058   9.287   2.400   2.244 -0.8168 -0.8655  0.1070
   59MOL0     C 8059   8.941   2.407   2.588 -0.3947 -0.6710 -0.4005
   59MOL0     C 8060   8.928   2.317   2.697  0.4227  0.5173 -1.1568
   59MOL0     C 8061   8.798   2.272   2.732 -0.9203  0.5179  0.2980
   59MOL0     C 8062   8.689   2.330   2.672 -0.6850  0.6030  1.4076
   59MOL0     O 8063   8.564   2.295   2.708 -0.7167 -0.4292 -0.8612
   59MOL0     C 8064   8.509   2.346   2.829 -0.0433  0.1713 -0.0091
   59MOL0     C 8065   8.452   2.491   2.797 -0.2222  0.7129  0.8259
   59MOL0     C 8066   8.374   2.507   2.667  0.5047 -0.1991 -0.7866
   59MOL0     C 8067   8.340   2.646   2.609  0.2292 -0.0987  0.6009
   59MOL0     C 8068   8.467   2.712   2.578 -0.2228 -0.0212 -0.3064
   59MOL0     C 8069   8.564   2.784   2.544  0.0238  0.7579 -0.4625
   59MOL0     C 8070   8.711   2.428   2.574  0.6598 -0.2567  0.2490
   59MOL0     C 8071   8.832   2.462   2.521  0.2284 -0.6553 -1.5141
   59MOL0     C 8072   8.849   2.558   2.403  1.1386 -0.8135  0.4875
   59MOL0     H 8073   9.231   2.189   2.515  1.8642  1.6825  1.8624
   59MOL0     H 8074   9.422   2.093   2.435 -0.3039 -0.5836 -2.9812
   59MOL0     H 8075   9.660   2.176   2.388 -1.0281 -0.4411  0.1280
   59MOL0     H 8076   9.751   2.136   2.244 -0.5855  0.5876 -1.9238
   59MOL0     H 8077   9.724   1.951   2.415 -0.7716 -1.3555  0.8508
   59MOL0     H 8078   9.558   1.930   2.373  1.6458 -3.1777  0.0697
   59MOL0     H 8079   9.806   1.872   2.208 -0.0686 -0.2054 -3.3266
   59MOL0     H 8080   9.676   1.763   2.246  3.9774 -0.3452  2.5714
   59MOL0     H 8081   9.521   1.870   2.070  0.3247  0.8482  1.3167
   59MOL0     H 8082   9.642   1.992   2.046 -1.5359 -0.0870 -1.1890
   59MOL0     H 8083   9.707   1.687   2.034 -2.4351 -1.0238  0.0284
   59MOL0     H 8084   9.802   1.813   1.966  0.2095 -2.0579 -1.0253
   59MOL0     H 8085   9.569   1.669   1.871 -1.8340  1.2128 -1.5867
   59MOL0     H 8086   9.552   1.841   1.855 -1.8271 -1.2459  3.9984
   59MOL0     H 8087   9.802   1.668   1.768 -2.2008 -1.8728 -0.5058
   59MOL0     H 8088   9.772   1.851   1.755  0.4023 -0.4265  0.5695
   59MOL0     H 8089   9.572   1.790   1.590  0.7497  0.6667  0.5994
   59MOL0     H 8090   9.728   1.728   1.531  2.2523  1.5038  1.3505
   59MOL0     H 8091   9.803   1.473   1.572  0.7817  1.4452  4.2823
   59MOL0     H 8092   9.731   1.232   1.484 -0.5841  0.3739  0.6877
   59MOL0     H 8093   9.593   1.149   1.554 -1.1274  1.1221 -0.3771
   59MOL0     H 8094   9.712   1.181   1.774 -1.4091 -1.4895 -0.1830
   59MOL0     H 8095   9.790   1.062   1.668 -1.0450 -0.4477  0.3652
   59MOL0     H 8096   9.975   1.218   1.619 -0.7712 -0.4630  0.4224
   59MOL0     H 8097   9.890   1.345   1.699 -1.0244 -0.3826 -1.3105
   59MOL0     H 8098   9.911   1.198   1.918  0.4185  0.1560 -0.6497
   59MOL0     H 8099   9.997   1.089   1.827  0.8881 -0.0989 -1.8036
   59MOL0     H 8100  10.291   1.414   1.898  1.6597 -0.6904  2.6958
   59MOL0     H 8101  10.433   1.539   2.062  1.6524  1.7727  0.8479
   59MOL0     H 8102  10.372   1.651   2.173 -0.8738 -0.5641  0.2564
   59MOL0     H 8103  10.395   1.689   1.989  3.0106 -0.7647  1.2510
   59MOL0     H 8104   9.951   1.710   2.552 -1.3839  0.5789  0.1265
   59MOL0     H 8105   9.930   1.879   2.702 -1.1732  0.0255 -0.7224
   59MOL0     H 8106   9.997   2.034   2.851  1.1527 -0.8390  0.0691
   59MOL0     H 8107  10.154   2.116   2.837  0.7318 -0.2535 -2.7779
   59MOL0     H 8108   9.893   2.258   2.836 -1.0339  0.3922  0.5933
   59MOL0     H 8109   9.985   2.236   2.983  1.1797  2.5070  0.5249
   59MOL0     H 8110  10.143   2.377   2.762  1.5606  0.4974  0.2030
   59MOL0     H 8111  10.171   2.366   2.927 -1.0398 -0.8835  1.6672
   59MOL0     H 8112  10.095   2.585   2.885  1.0721 -1.3157 -0.8917
   59MOL0     H 8113  10.002   2.513   3.000  3.3277 -1.0144  0.8676
   59MOL0     H 8114   9.913   2.549   2.703  0.9713 -0.5698  0.5917
   59MOL0     H 8115   9.823   2.453   2.815  1.5537 -2.1412 -1.4928
   59MOL0     H 8116   9.875   2.737   2.873  2.6374 -1.7756 -3.6362
   59MOL0     H 8117   9.797   2.605   2.973  0.0337 -1.7701 -0.7722
   59MOL0     H 8118   9.620   2.581   2.813 -0.0032 -0.2517 -0.3630
   59MOL0     H 8119   9.706   2.675   2.691  1.1658  0.1801 -0.1576
   59MOL0     H 8120   9.517   2.826   2.767 -0.5144  0.2510 -0.4941
   59MOL0     H 8121   9.662   2.884   2.834 -1.0429  0.2358 -0.1657
   59MOL0     H 8122  10.097   2.163   2.427  1.4120  0.1155  3.9445
   59MOL0     H 8123  10.093   2.004   2.262  1.8472 -0.2591  0.1245
   59MOL0     H 8124   9.890   1.561   2.131  1.1247  1.2840  1.9920
   59MOL0     H 8125   9.874   1.383   1.987 -0.6772  1.0205  0.8380
   59MOL0     H 8126   9.459   2.374   2.125  1.3624  0.2946  2.8258
   59MOL0     H 8127   9.254   2.481   2.180 -0.1246 -2.3981 -2.3420
   59MOL0     H 8128   9.011   2.273   2.751 -0.5683  0.3865  0.3182
   59MOL0     H 8129   8.781   2.193   2.804 -1.7912 -0.8356 -1.3257
   59MOL0     H 8130   8.422   2.289   2.862  2.5359 -3.8629  0.5910
   59MOL0     H 8131   8.589   2.332   2.903  1.0689 -1.0252 -1.3639
   59MOL0     H 8132   8.532   2.564   2.781 -1.3152  1.5971 -0.9015
   59MOL0     H 8133   8.388   2.519   2.882 -0.2590  0.2543  0.9491
   59MOL0     H 8134   8.422   2.446   2.590  1.4203  0.8962 -1.1209
   59MOL0     H 8135   8.280   2.456   2.690  0.3144  0.4095 -0.1814
   59MOL0     H 8136   8.293   2.696   2.694  0.8432 -1.3121  1.6990
   59MOL0     H 8137   8.280   2.648   2.518  1.1403  1.5056  0.0083
   59MOL0     H 8138   8.647   2.841   2.507  1.5412 -0.7069  0.5097
   59MOL0     H 8139   8.625   2.466   2.519  2.3737 -0.6438 -2.9772
   59MOL0     H 8140   8.752   2.600   2.372  1.2412  1.9005  3.3907
   59MOL0     H 8141   8.907   2.650   2.417 -4.9155  3.8487 -0.6574
   59MOL0     H 8142   8.892   2.509   2.315  1.2866 -0.1743  0.1943
   60MOL0     O 8143   6.110   7.647   5.464 -0.0258 -0.1904 -0.4215
   60MOL0     C 8144   5.997   7.617   5.442 -0.5261 -0.0074  0.2450
   60MOL0     O 8145   5.951   7.493   5.427 -0.0485  0.5985  0.0183
   60MOL0     C 8146   6.047   7.393   5.422 -0.2915 -0.6025  0.2881
   60MOL0     C 8147   6.035   7.286   5.513 -0.2233 -0.0263 -1.1895
   60MOL0     C 8148   6.121   7.180   5.498 -0.2803  1.2565  0.7441
   60MOL0     C 8149   6.224   7.174   5.399  0.4543 -1.4014 -0.3614
   60MOL0     O 8150   6.295   7.054   5.382 -0.2199  0.3687 -0.1236
   60MOL0     C 8151   6.217   6.934   5.381  0.3358 -0.0031  0.1280
   60MOL0     C 8152   6.305   6.816   5.445  0.1784  0.6025  0.5337
   60MOL0     C 8153   6.357   6.857   5.581  0.0975 -0.4348  0.7961
   60MOL0     C 8154   6.426   6.740   5.657 -0.6908  0.2244  0.8218
   60MOL0     C 8155   6.548   6.674   5.577  0.1937  0.1640 -0.3988
   60MOL0     C 8156   6.617   6.559   5.641 -0.3003 -0.1061  0.1934
   60MOL0     C 8157   6.626   6.564   5.797  0.4292  0.3690  0.0621
   60MOL0     C 8158   6.728   6.451   5.851 -0.6400  0.0178 -0.9314
   60MOL0     N 8159   6.872   6.476   5.827 -0.1654  0.5545  0.2982
   60MOL0     C 8160   6.969   6.393   5.861 -0.3684 -0.2866 -0.8245
   60MOL0     C 8161   7.077   6.450   5.808 -0.1720 -0.9322 -0.9766
   60MOL0     C 8162   7.218   6.401   5.837  0.5735  0.1436  0.4880
   60MOL0     C 8163   7.252   6.263   5.792 -0.2472  0.0343 -0.0943
   60MOL0     C 8164   7.278   6.246   5.636 -0.8248  0.1965 -0.8725
   60MOL0     C 8165   7.346   6.364   5.557  0.2583  0.1516 -0.0826
   60MOL0     O 8166   7.350   6.331   5.419 -0.4974 -0.0480  0.7710
   60MOL0     C 8167   7.432   6.229   5.381 -0.2143 -0.4928  0.0448
   60MOL0     C 8168   7.539   6.174   5.458 -0.2263  0.3540 -0.5213
   60MOL0     C 8169   7.632   6.082   5.401  0.0520  0.6148 -0.4694
   60MOL0     C 8170   7.762   6.052   5.486  0.5778 -0.0628 -0.6319
   60MOL0     C 8171   7.612   6.027   5.273  0.4548 -0.3262  0.5196
   60MOL0     C 8172   7.675   5.908   5.226  0.1032 -0.1084 -0.3830
   60MOL0     O 8173   7.716   5.817   5.325  0.1946 -0.5828  0.4395
   60MOL0     C 8174   7.802   5.723   5.291  1.1786 -0.1001  0.4942
   60MOL0     C 8175   7.766   5.587   5.306 -0.4389 -0.5422 -0.2114
   60MOL0     C 8176   7.868   5.492   5.286  0.1745  0.6790 -0.0772
   60MOL0     C 8177   7.988   5.525   5.233  0.2258 -0.4251 -1.1545
   60MOL0     O 8178   8.082   5.424   5.205  0.1841 -0.4948 -0.0769
   60MOL0     C 8179   8.200   5.449   5.117 -0.7639 -0.7089  0.1030
   60MOL0     C 8180   8.165   5.470   4.972  0.3351 -0.1443 -0.2582
   60MOL0     C 8181   8.289   5.476   4.877  1.4649  0.1779  0.3020
   60MOL0     C 8182   8.340   5.621   4.858 -0.6256  0.7430 -0.1538
   60MOL0     C 8183   8.413   5.634   4.726 -0.1295  0.3657  0.5160
   60MOL0     C 8184   8.502   5.764   4.718  0.2033 -0.1164  0.0382
   60MOL0     C 8185   8.645   5.729   4.749 -1.4077 -0.4825  0.4765
   60MOL0     C 8186   8.740   5.852   4.724  0.0461  0.4335  0.3823
   60MOL0    Cl 8187   8.917   5.805   4.769 -0.2355 -0.1580  0.2126
   60MOL0     C 8188   8.022   5.654   5.223 -0.0586 -0.1301 -0.2127
   60MOL0     C 8189   7.934   5.757   5.260 -0.1808 -0.0382  0.4326
   60MOL0     O 8190   7.702   5.899   5.106 -0.1774 -0.1644 -0.1380
   60MOL0     C 8191   7.497   6.070   5.199  0.1355  0.9089  0.9942
   60MOL0     C 8192   7.421   6.179   5.244 -0.0846  0.2672  0.8412
   60MOL0     N 8193   7.051   6.570   5.732  0.1643 -0.4422 -1.0404
   60MOL0     N 8194   6.924   6.583   5.759  1.7821  0.4082 -0.7592
   60MOL0     C 8195   6.223   7.281   5.302 -0.0639  0.4193  0.2101
   60MOL0     C 8196   6.136   7.388   5.313 -0.0831 -0.5577 -0.4967
   60MOL0     C 8197   5.902   7.720   5.402 -0.2721  0.9688  0.2032
   60MOL0     C 8198   5.821   7.707   5.285  0.3149  0.1534 -0.3248
   60MOL0     C 8199   5.730   7.811   5.231 -0.1398  0.0849  0.4105
   60MOL0     C 8200   5.712   7.920   5.318 -0.1725 -0.2332  0.7435
   60MOL0     O 8201   5.631   8.016   5.270  0.2056  0.3819  0.3569
   60MOL0     C 8202   5.609   8.129   5.353  0.4701 -0.3331  1.7348
   60MOL0     C 8203   5.520   8.236   5.261 -0.4387  0.3056 -0.1331
   60MOL0     C 8204   5.566   8.373   5.240 -0.3089 -0.6690 -0.3614
   60MOL0     C 8205   5.565   8.432   5.390  0.2918 -0.0914 -0.6500
   60MOL0     C 8206   5.603   8.573   5.389  0.6969 -0.4915 -0.2250
   60MOL0     C 8207   5.640   8.685   5.404  0.7479  0.3761  1.3272
   60MOL0     C 8208   5.803   7.934   5.428  0.0101  0.2759 -0.3114
   60MOL0     C 8209   5.886   7.836   5.480 -0.6262 -0.6683  1.3065
   60MOL0     C 8210   5.952   7.863   5.614 -0.4126 -0.0984 -0.4047
   60MOL0     H 8211   5.954   7.281   5.585  0.6222  1.6853 -0.0353
   60MOL0     H 8212   6.114   7.098   5.570 -4.6735 -2.0068 -2.8524
   60MOL0     H 8213   6.203   6.908   5.276  1.2031  0.0210  0.0070
   60MOL0     H 8214   6.122   6.932   5.436 -0.9361 -4.5639 -1.7551
   60MOL0     H 8215   6.241   6.727   5.452  2.0045 -1.4724 -4.7155
   60MOL0     H 8216   6.380   6.791   5.370  0.1281 -1.5175  1.1199
   60MOL0     H 8217   6.418   6.946   5.562 -2.9653  1.4813 -0.8994
   60MOL0     H 8218   6.274   6.896   5.640 -1.4651 -3.2048  0.5639
   60MOL0     H 8219   6.463   6.771   5.755  0.2225 -1.8218  1.1742
   60MOL0     H 8220   6.347   6.669   5.681 -1.6574  1.2808  0.8622
   60MOL0     H 8221   6.625   6.750   5.559  0.1786  0.5215  0.9277
   60MOL0     H 8222   6.529   6.650   5.472  0.0028 -2.0031  0.0799
   60MOL0     H 8223   6.573   6.462   5.615 -1.5529  0.6652 -0.6867
   60MOL0     H 8224   6.721   6.563   5.608 -0.2064  1.6978  0.6389
   60MOL0     H 8225   6.530   6.546   5.846  0.4184  0.3868  0.0476
   60MOL0     H 8226   6.659   6.662   5.831 -2.0892  1.0227  0.8519
   60MOL0     H 8227   6.709   6.418   5.954 -0.7125  0.0777 -0.9254
   60MOL0     H 8228   6.705   6.359   5.797  1.9360 -0.7923 -0.7796
   60MOL0     H 8229   6.975   6.307   5.927  1.7800  0.7293  0.3974
   60MOL0     H 8230   7.237   6.407   5.945 -1.5861 -1.7604  1.0589
   60MOL0     H 8231   7.284   6.477   5.794 -0.9770 -0.6773 -3.8058
   60MOL0     H 8232   7.353   6.247   5.830  0.8792 -3.9812 -3.9192
   60MOL0     H 8233   7.186   6.188   5.836 -0.5598  0.1524 -0.3502
   60MOL0     H 8234   7.317   6.145   5.617 -0.1860 -0.3449  2.6884
   60MOL0     H 8235   7.179   6.245   5.590 -1.2323 -2.2594 -0.0639
   60MOL0     H 8236   7.293   6.458   5.577 -1.7469 -1.1712  1.2158
   60MOL0     H 8237   7.446   6.385   5.596 -0.5713  0.6426  1.9162
   60MOL0     H 8238   7.571   6.212   5.554  1.2204  1.3948 -1.3828
   60MOL0     H 8239   7.757   5.959   5.543 -2.1297  0.0457 -0.5625
   60MOL0     H 8240   7.781   6.138   5.552  0.5068 -1.6726  1.5938
   60MOL0     H 8241   7.854   6.049   5.427  1.1286  3.9578 -0.2687
   60MOL0     H 8242   7.670   5.549   5.338  0.3340 -0.8033  1.9775
   60MOL0     H 8243   7.852   5.385   5.292  0.1601  0.7093  0.4467
   60MOL0     H 8244   8.258   5.537   5.146 -1.6396 -0.0572 -0.0871
   60MOL0     H 8245   8.266   5.363   5.128 -2.8343 -2.1302  2.7973
   60MOL0     H 8246   8.094   5.391   4.946  1.5256 -0.9090 -1.2743
   60MOL0     H 8247   8.111   5.563   4.947  2.7788  0.6759 -2.9393
   60MOL0     H 8248   8.258   5.432   4.782 -1.5263  1.9481  0.3328
   60MOL0     H 8249   8.357   5.399   4.916 -2.3180 -3.6713  0.0689
   60MOL0     H 8250   8.403   5.640   4.945 -0.1708 -0.2237 -0.2555
   60MOL0     H 8251   8.259   5.695   4.864 -0.8588  0.4440  0.4405
   60MOL0     H 8252   8.489   5.556   4.716  0.7938  1.3884 -0.8731
   60MOL0     H 8253   8.345   5.629   4.640  0.6932 -0.7795 -0.0930
   60MOL0     H 8254   8.465   5.845   4.780 -0.2362  1.9294 -2.6987
   60MOL0     H 8255   8.493   5.802   4.616 -3.3997 -3.2828 -1.1017
   60MOL0     H 8256   8.674   5.655   4.675 -0.0439  1.9727 -1.6231
   60MOL0     H 8257   8.669   5.686   4.847  2.0029 -2.0292 -0.8987
   60MOL0     H 8258   8.707   5.937   4.785  0.6204  3.2439 -2.8562
   60MOL0     H 8259   8.725   5.875   4.618 -0.2849 -0.2220  0.2837
   60MOL0     H 8260   8.115   5.686   5.177 -0.4707 -1.0785 -1.7649
   60MOL0     H 8261   7.957   5.863   5.252  0.9833 -0.1418  1.9624
   60MOL0     H 8262   7.481   6.012   5.108  1.8389 -2.8931  2.9130
   60MOL0     H 8263   7.333   6.204   5.186 -0.4498  0.3308  1.4138
   60MOL0     H 8264   6.287   7.269   5.215 -3.0340  1.4423 -2.3209
   60MOL0     H 8265   6.145   7.466   5.238 -0.0656  1.8999  1.9146
   60MOL0     H 8266   5.825   7.622   5.219 -4.6768 -0.5218 -0.1464
   60MOL0     H 8267   5.669   7.802   5.142  2.0758  0.7986 -1.2615
   60MOL0     H 8268   5.551   8.089   5.437 -2.3733 -1.7181 -0.6525
   60MOL0     H 8269   5.699   8.177   5.390  0.0050  0.6645  1.6075
   60MOL0     H 8270   5.420   8.254   5.301  0.0176  1.1405  0.6551
   60MOL0     H 8271   5.516   8.189   5.162  1.8866  0.3959 -0.3328
   60MOL0     H 8272   5.669   8.369   5.203 -0.0580 -0.4738  0.2983
   60MOL0     H 8273   5.498   8.434   5.181 -0.6356  0.2096  0.8774
   60MOL0     H 8274   5.627   8.386   5.467 -2.7042  2.1065  3.4198
   60MOL0     H 8275   5.461   8.426   5.425  0.3435 -3.2774 -0.7189
   60MOL0     H 8276   5.675   8.786   5.408  1.0172  0.4262 -1.0168
   60MOL0     H 8277   5.820   8.031   5.474  2.7899 -1.1207  1.9434
   60MOL0     H 8278   5.938   7.782   5.685 -1.8722  0.4833  0.0168
   60MOL0     H 8279   6.057   7.890   5.597 -0.9099  0.8853 -2.1732
   60MOL0     H 8280   5.894   7.950   5.649 -0.1268 -0.1971  0.3323
   61MOL0     O 8281   0.941   6.172   0.364  0.1272  0.5312  0.2472
   61MOL0     C 8282   1.044   6.117   0.389  0.5710 -0.5764  0.2640
   61MOL0     O 8283   1.098   6.121   0.512 -0.0797  0.2390  0.0626
   61MOL0     C 8284   1.054   6.210   0.611  0.0864  0.3767  0.5772
   61MOL0     C 8285   1.121   6.338   0.618  0.1292 -0.0997 -0.8281
   61MOL0     C 8286   1.077   6.434   0.715  0.2508  0.3161 -0.3121
   61MOL0     C 8287   0.966   6.409   0.796 -0.1182 -0.2605 -0.2228
   61MOL0     O 8288   0.929   6.504   0.886 -0.4501 -1.0160  0.0943
   61MOL0     C 8289   0.813   6.495   0.972 -0.1691  0.6307  0.0145
   61MOL0     C 8290   0.778   6.624   1.037  0.5504 -0.5791  0.3968
   61MOL0     C 8291   0.882   6.642   1.147 -1.2104 -0.3245 -0.4934
   61MOL0     C 8292   0.837   6.746   1.253 -0.7378  0.2303 -0.9721
   61MOL0     C 8293   0.940   6.796   1.353 -0.1954  0.1895 -0.5655
   61MOL0     C 8294   0.981   6.681   1.449 -0.2410 -0.9360 -0.4589
   61MOL0     C 8295   1.070   6.733   1.564  0.4301  0.3227 -0.0333
   61MOL0     C 8296   1.095   6.628   1.680 -0.2145 -0.0594  0.1075
   61MOL0     N 8297   1.182   6.689   1.780  0.5624  0.7009 -0.7862
   61MOL0     C 8298   1.321   6.712   1.780  0.0763 -0.6593  0.0280
   61MOL0     C 8299   1.344   6.762   1.904 -1.0094 -0.8538 -0.3830
   61MOL0     C 8300   1.463   6.827   1.968 -0.5181  0.5486  0.0256
   61MOL0     C 8301   1.545   6.713   2.040 -0.2000  0.5459 -0.9410
   61MOL0     C 8302   1.683   6.762   2.103 -0.5322  0.8778  0.1764
   61MOL0     C 8303   1.677   6.892   2.171 -0.2331 -0.5825  0.8659
   61MOL0     O 8304   1.790   6.914   2.255  0.3566 -0.9519 -0.5331
   61MOL0     C 8305   1.785   7.002   2.363 -1.3687 -0.3345 -0.6149
   61MOL0     C 8306   1.900   7.019   2.441 -0.0112  0.0005  0.1506
   61MOL0     C 8307   1.910   7.125   2.541 -0.0939 -0.1640 -0.6613
   61MOL0     C 8308   2.046   7.130   2.618  0.5108  0.4777  0.4924
   61MOL0     C 8309   1.797   7.204   2.570  0.0093  0.2139 -0.2424
   61MOL0     C 8310   1.795   7.302   2.685  1.2857  0.1302 -0.4766
   61MOL0     O 8311   1.911   7.368   2.701 -0.1406  0.0104 -0.3230
   61MOL0     C 8312   1.927   7.467   2.801 -0.0895  0.0854 -0.0981
   61MOL0     C 8313   1.859   7.472   2.926  0.2877 -0.3332  0.2298
   61MOL0     C 8314   1.892   7.575   3.014  0.7287  0.2837  0.0565
   61MOL0     C 8315   2.000   7.658   2.992 -1.5578 -0.1692 -0.2603
   61MOL0     O 8316   2.039   7.757   3.084  0.3032  0.0093  0.7140
   61MOL0     C 8317   1.955   7.835   3.160 -0.0669  0.5596 -0.5294
   61MOL0     C 8318   2.042   7.952   3.221 -0.8483 -0.8132  0.1472
   61MOL0     C 8319   1.954   8.041   3.304  0.4702  0.2755  0.4576
   61MOL0     C 8320   2.040   8.151   3.349 -0.7280 -0.8927  0.1746
   61MOL0     C 8321   1.953   8.277   3.387 -0.5901  0.1560  0.4130
   61MOL0     C 8322   2.013   8.355   3.502  0.5943  0.3325  0.6636
   61MOL0     C 8323   1.956   8.489   3.539 -0.6077 -0.2563 -0.2344
   61MOL0     C 8324   1.985   8.560   3.671  0.6571 -1.3808 -0.0923
   61MOL0    Cl 8325   1.887   8.484   3.794  0.0537 -0.4491  0.0771
   61MOL0     C 8326   2.072   7.652   2.871 -0.5638  0.6694 -0.8012
   61MOL0     C 8327   2.036   7.546   2.783 -0.7112  0.0530 -0.5844
   61MOL0     O 8328   1.681   7.319   2.744  0.0607 -0.1996  0.2860
   61MOL0     C 8329   1.679   7.175   2.500  0.0512 -0.5012  0.1936
   61MOL0     C 8330   1.672   7.076   2.406  0.1214 -0.9404  0.1624
   61MOL0     N 8331   1.232   6.759   1.975  0.0704 -0.0394  0.2207
   61MOL0     N 8332   1.135   6.710   1.902  0.5627 -0.1785 -0.3239
   61MOL0     C 8333   0.909   6.278   0.793 -0.1620 -0.2403  0.2610
   61MOL0     C 8334   0.960   6.185   0.702  0.5197  0.2875 -0.8611
   61MOL0     C 8335   1.109   6.045   0.279 -0.2842 -0.5487  0.8365
   61MOL0     C 8336   1.254   6.034   0.287  0.7164  0.0972  0.4769
   61MOL0     C 8337   1.328   5.963   0.194  0.6927 -0.3138 -0.3252
   61MOL0     C 8338   1.266   5.893   0.091  0.5567 -0.0541  0.4157
   61MOL0     O 8339   1.329   5.806   0.005  0.1885  0.2043  0.4940
   61MOL0     C 8340   1.324   5.854  -0.127  0.1411 -0.5733 -0.0068
   61MOL0     C 8341   1.424   5.798  -0.224 -1.0155  0.0391  0.6667
   61MOL0     C 8342   1.410   5.639  -0.229  1.0132  0.0794  0.1698
   61MOL0     C 8343   1.265   5.582  -0.260  0.1561  0.2877 -0.5935
   61MOL0     C 8344   1.207   5.630  -0.389 -0.2392 -0.5850  0.7967
   61MOL0     C 8345   1.166   5.671  -0.501  0.1673  0.5931  0.3177
   61MOL0     C 8346   1.126   5.906   0.078  0.1612  0.5818 -1.1947
   61MOL0     C 8347   1.048   5.982   0.166 -0.6469 -0.4629  0.3616
   61MOL0     C 8348   0.905   6.002   0.122  0.5352  0.1106  0.4217
   61MOL0     H 8349   1.199   6.364   0.547  0.7132  0.9159  0.1545
   61MOL0     H 8350   1.130   6.529   0.712  1.2687 -0.2313 -0.2397
   61MOL0     H 8351   0.832   6.422   1.051  0.6171 -0.3475 -1.0420
   61MOL0     H 8352   0.733   6.458   0.908  0.4409 -1.1018  0.1963
   61MOL0     H 8353   0.776   6.699   0.958 -4.0200  3.8757  4.0289
   61MOL0     H 8354   0.674   6.626   1.073  0.2807  0.6116 -0.4186
   61MOL0     H 8355   0.901   6.547   1.197  2.0242  0.7569  0.6311
   61MOL0     H 8356   0.974   6.677   1.098 -0.0337 -1.6628  0.6490
   61MOL0     H 8357   0.814   6.830   1.187  1.0070  0.6679 -1.0672
   61MOL0     H 8358   0.749   6.714   1.311  1.1504 -0.3253  1.7671
   61MOL0     H 8359   0.884   6.870   1.410  0.0427  1.8296 -2.3635
   61MOL0     H 8360   1.015   6.848   1.293  0.5797 -0.1868  0.0563
   61MOL0     H 8361   0.889   6.641   1.493  0.3205 -3.3602 -1.2909
   61MOL0     H 8362   1.036   6.604   1.395  0.1798  0.2567 -1.7821
   61MOL0     H 8363   1.025   6.830   1.588 -0.3708  0.3002 -1.3050
   61MOL0     H 8364   1.168   6.768   1.531 -0.4571  0.6516 -2.5739
   61MOL0     H 8365   0.999   6.596   1.721 -0.7174 -1.5182 -1.9948
   61MOL0     H 8366   1.140   6.537   1.637  0.7883  0.5796 -0.2251
   61MOL0     H 8367   1.394   6.719   1.700 -1.0664  2.2682 -0.9158
   61MOL0     H 8368   1.439   6.909   2.037 -1.4562 -1.4624  2.2080
   61MOL0     H 8369   1.537   6.860   1.895  1.0936 -1.3492  0.7300
   61MOL0     H 8370   1.491   6.661   2.119 -0.7456 -2.5670 -3.1891
   61MOL0     H 8371   1.563   6.626   1.977  0.1618 -1.6686  2.0269
   61MOL0     H 8372   1.720   6.678   2.162  3.9517  1.4214 -1.4397
   61MOL0     H 8373   1.753   6.766   2.019 -1.1898  0.8773 -0.3852
   61MOL0     H 8374   1.673   6.973   2.098 -1.8606 -0.2650  1.2604
   61MOL0     H 8375   1.584   6.889   2.228  0.8521  0.1322  2.7798
   61MOL0     H 8376   1.980   6.952   2.410 -0.4508  0.6867 -2.7007
   61MOL0     H 8377   2.036   7.132   2.727  1.0533 -2.9732  0.7280
   61MOL0     H 8378   2.101   7.222   2.593  2.3383 -1.0195 -1.3475
   61MOL0     H 8379   2.102   7.043   2.583 -0.8387  0.4466 -1.8127
   61MOL0     H 8380   1.775   7.407   2.951 -0.8017  0.3636 -1.4762
   61MOL0     H 8381   1.838   7.599   3.105  1.4428  1.0474  0.2972
   61MOL0     H 8382   1.862   7.863   3.109  0.5813  2.2543 -0.8418
   61MOL0     H 8383   1.929   7.781   3.251  1.0102 -0.0375 -0.5577
   61MOL0     H 8384   2.126   7.901   3.269  1.5717  0.0239 -2.8714
   61MOL0     H 8385   2.081   8.005   3.133 -0.7718  1.3269  1.4058
   61MOL0     H 8386   1.916   7.984   3.390  1.8423 -3.1823 -1.0395
   61MOL0     H 8387   1.872   8.079   3.243  2.1655  1.5248 -1.1303
   61MOL0     H 8388   2.124   8.170   3.281  1.3085 -3.1591  1.8613
   61MOL0     H 8389   2.113   8.120   3.425  2.6786  2.7489 -1.2428
   61MOL0     H 8390   1.955   8.333   3.294  2.7610 -0.5534 -0.0486
   61MOL0     H 8391   1.850   8.250   3.412 -0.7542  0.5713  0.1948
   61MOL0     H 8392   2.121   8.368   3.489  0.8399 -0.8843  1.3012
   61MOL0     H 8393   1.999   8.290   3.589 -2.4173  0.8446  0.6634
   61MOL0     H 8394   1.847   8.483   3.537 -0.8412  2.2430  1.2929
   61MOL0     H 8395   1.977   8.552   3.451  0.9441 -0.5984 -0.1445
   61MOL0     H 8396   1.953   8.663   3.654 -0.4218 -1.3025  2.0647
   61MOL0     H 8397   2.093   8.566   3.689  0.6478  3.2930 -0.3691
   61MOL0     H 8398   2.156   7.716   2.848  2.3718 -3.2019 -1.9270
   61MOL0     H 8399   2.083   7.536   2.686  0.3973 -2.5345  0.1253
   61MOL0     H 8400   1.583   7.223   2.518  0.5339 -0.3137  2.5797
   61MOL0     H 8401   1.575   7.060   2.361  0.7231 -0.9752 -1.1669
   61MOL0     H 8402   0.832   6.246   0.862 -0.6970 -1.6079 -0.9251
   61MOL0     H 8403   0.920   6.085   0.715  1.4918  0.1902  2.0427
   61MOL0     H 8404   1.312   6.080   0.366 -0.9574  1.6952  0.8322
   61MOL0     H 8405   1.436   5.962   0.205  0.4897  2.0830  5.1870
   61MOL0     H 8406   1.222   5.840  -0.163  0.0766 -2.0121  0.6870
   61MOL0     H 8407   1.350   5.961  -0.127 -2.3163  0.0889 -0.2799
   61MOL0     H 8408   1.526   5.814  -0.189 -1.5816 -1.4292  3.2608
   61MOL0     H 8409   1.416   5.833  -0.327  0.8041 -2.2001 -0.3292
   61MOL0     H 8410   1.490   5.590  -0.284  2.7698  3.9273 -1.0667
   61MOL0     H 8411   1.432   5.607  -0.126  0.0911  0.9109  0.6435
   61MOL0     H 8412   1.203   5.614  -0.176  2.5052  2.9896  0.2891
   61MOL0     H 8413   1.273   5.474  -0.248 -1.7857  0.3178  1.7834
   61MOL0     H 8414   1.114   5.710  -0.586  2.6113  0.9350 -1.1325
   61MOL0     H 8415   1.068   5.847   0.008  1.1173  0.0887 -1.5835
   61MOL0     H 8416   0.876   6.108   0.113 -2.3349 -0.6365 -0.2115
   61MOL0     H 8417   0.893   5.951   0.026  0.4554 -0.7387  0.8820
   61MOL0     H 8418   0.828   5.963   0.188  2.1887 -1.8732  1.2997
   62MOL0     O 8419   8.281   9.378   6.297  0.1731 -0.4729  0.9296
   62MOL0     C 8420   8.293   9.390   6.175  0.6908 -0.5979  0.3801
   62MOL0     O 8421   8.357   9.493   6.106 -1.8024 -0.6205 -0.4620
   62MOL0     C 8422   8.460   9.561   6.174  0.2106  1.3363  0.1519
   62MOL0     C 8423   8.424   9.675   6.251  1.2933 -0.4575 -0.3719
   62MOL0     C 8424   8.524   9.742   6.323  0.9174 -0.1922 -0.1562
   62MOL0     C 8425   8.657   9.701   6.328  0.0720  0.8748 -0.1140
   62MOL0     O 8426   8.747   9.775   6.400  0.0613 -0.1621  0.1838
   62MOL0     C 8427   8.786   9.735   6.530  0.3308  0.4006 -0.6082
   62MOL0     C 8428   8.696   9.791   6.644  0.0565 -0.2652 -0.3158
   62MOL0     C 8429   8.780   9.788   6.779  0.5534 -0.1013 -0.8527
   62MOL0     C 8430   8.794   9.649   6.844  0.2327  0.5205 -0.3746
   62MOL0     C 8431   8.869   9.641   6.985 -0.6192  0.4463 -0.0705
   62MOL0     C 8432   9.015   9.679   6.961  0.1239  0.0030  0.0142
   62MOL0     C 8433   9.081   9.660   7.096 -0.9831 -0.0580  0.3891
   62MOL0     C 8434   9.218   9.738   7.092 -0.8012 -0.6489 -0.0130
   62MOL0     N 8435   9.265   9.732   7.231  0.1591  0.8012 -0.4368
   62MOL0     C 8436   9.191   9.757   7.345  0.4476  0.1593 -0.4779
   62MOL0     C 8437   9.275   9.737   7.451 -0.5434 -0.2801  0.2082
   62MOL0     C 8438   9.237   9.744   7.600 -0.8376 -0.2577  0.2475
   62MOL0     C 8439   9.282   9.872   7.672  0.0554 -0.8885  0.6042
   62MOL0     C 8440   9.231   9.883   7.817 -0.3572  0.5184  0.5485
   62MOL0     C 8441   9.294  10.004   7.890 -0.5384 -0.4897  0.2271
   62MOL0     O 8442   9.328   9.961   8.024  0.2612  0.2582  0.7307
   62MOL0     C 8443   9.323  10.051   8.123  0.1897 -0.0504  0.4784
   62MOL0     C 8444   9.412  10.031   8.229  0.6022 -0.1070  0.3116
   62MOL0     C 8445   9.396  10.114   8.340 -0.6671 -0.0645 -1.3604
   62MOL0     C 8446   9.501  10.107   8.450  0.5840  0.1290  0.1752
   62MOL0     C 8447   9.296  10.210   8.349 -0.5282 -0.2208  0.1661
   62MOL0     C 8448   9.239  10.282   8.465 -0.1483  1.1414 -0.4631
   62MOL0     O 8449   9.102  10.305   8.476 -0.2466 -1.1673  0.4848
   62MOL0     C 8450   9.042  10.363   8.584 -0.6830  0.2189  1.0687
   62MOL0     C 8451   8.915  10.431   8.564 -0.8882  0.5495  0.0875
   62MOL0     C 8452   8.843  10.494   8.669 -0.7864  0.4225  0.1354
   62MOL0     C 8453   8.890  10.465   8.800  1.8493  0.0906  0.1131
   62MOL0     O 8454   8.807  10.511   8.903  1.2097 -0.3335 -0.0044
   62MOL0     C 8455   8.886  10.581   9.006 -0.5103  0.3975 -0.2888
   62MOL0     C 8456   8.796  10.668   9.083 -0.2400  0.8549  0.0702
   62MOL0     C 8457   8.708  10.775   9.019 -0.1125  0.1032  0.2800
   62MOL0     C 8458   8.639  10.865   9.116  0.5395  0.3498 -0.0397
   62MOL0     C 8459   8.563  10.964   9.035 -0.3407  0.1461  0.1775
   62MOL0     C 8460   8.418  10.930   9.049  0.2111 -0.0843  0.9237
   62MOL0     C 8461   8.312  10.992   8.960 -0.2895 -0.2160  0.2393
   62MOL0     C 8462   8.254  11.113   9.024  0.0386  0.5099 -0.5834
   62MOL0    Cl 8463   8.373  11.231   9.056 -0.1663  0.0574 -0.0904
   62MOL0     C 8464   9.009  10.386   8.822  0.7665 -0.8126 -0.1683
   62MOL0     C 8465   9.083  10.341   8.718  0.2749  0.1057 -0.3349
   62MOL0     O 8466   9.331  10.319   8.542 -0.0084 -0.1619  0.7930
   62MOL0     C 8467   9.207  10.235   8.238  0.2660  0.0298 -0.0884
   62MOL0     C 8468   9.222  10.154   8.134 -0.2414  0.4302 -0.3820
   62MOL0     N 8469   9.397   9.707   7.398  0.2252 -0.2186  0.2972
   62MOL0     N 8470   9.392   9.716   7.269 -0.1213  0.1474  0.4247
   62MOL0     C 8471   8.691   9.589   6.257  0.7363 -0.1494 -0.7170
   62MOL0     C 8472   8.590   9.517   6.185 -0.0059  0.6036  0.2146
   62MOL0     C 8473   8.234   9.282   6.092 -0.4793  0.2459  0.8320
   62MOL0     C 8474   8.219   9.305   5.950  0.2614 -0.0756  0.0973
   62MOL0     C 8475   8.161   9.212   5.868  0.9909  0.8395  1.0047
   62MOL0     C 8476   8.112   9.094   5.919 -0.3190  0.1760  1.0647
   62MOL0     O 8477   8.058   8.992   5.845  0.0987 -0.6387 -0.1624
   62MOL0     C 8478   8.030   9.024   5.703 -0.6951 -0.4919 -0.5519
   62MOL0     C 8479   7.965   8.891   5.656  0.2554 -0.2873  0.3697
   62MOL0     C 8480   7.907   8.923   5.526  0.2208  0.0689  0.8411
   62MOL0     C 8481   7.806   8.827   5.453  0.6778 -0.5683  0.9427
   62MOL0     C 8482   7.682   8.802   5.524  0.3408  0.4915  0.3032
   62MOL0     C 8483   7.572   8.750   5.560 -0.2081 -0.5671  0.0879
   62MOL0     C 8484   8.121   9.067   6.053  0.0437 -0.0437 -0.8223
   62MOL0     C 8485   8.191   9.152   6.143 -0.2446  0.5025  0.3996
   62MOL0     C 8486   8.208   9.106   6.290  0.4237  0.6951  0.8289
   62MOL0     H 8487   8.327   9.724   6.259  2.2828  1.2583  2.0359
   62MOL0     H 8488   8.512   9.829   6.387  0.2368  0.2304 -0.8365
   62MOL0     H 8489   8.884   9.779   6.551  0.4713  0.4631 -1.3657
   62MOL0     H 8490   8.797   9.627   6.543 -1.9625  0.4690  3.9743
   62MOL0     H 8491   8.674   9.895   6.620  2.9239  1.2099  2.6711
   62MOL0     H 8492   8.602   9.736   6.650  0.4384 -0.7934  2.6542
   62MOL0     H 8493   8.872   9.845   6.764  0.9755 -0.7613 -0.8053
   62MOL0     H 8494   8.718   9.847   6.846  1.4146 -1.1420  0.9209
   62MOL0     H 8495   8.694   9.605   6.855  0.2856  0.4298 -0.2511
   62MOL0     H 8496   8.830   9.574   6.772 -1.1550 -3.0358  2.2969
   62MOL0     H 8497   8.861   9.538   7.021 -0.4470  1.5151  3.4462
   62MOL0     H 8498   8.831   9.711   7.060 -2.1226 -0.4432  0.0393
   62MOL0     H 8499   9.066   9.622   6.883 -0.1533 -0.6001  0.2631
   62MOL0     H 8500   9.031   9.783   6.933  1.4637  0.5148  2.4159
   62MOL0     H 8501   9.100   9.555   7.119 -1.0077 -0.0616  0.3927
   62MOL0     H 8502   9.014   9.700   7.173 -1.2899  0.8913 -0.3483
   62MOL0     H 8503   9.294   9.700   7.023 -2.8985 -2.9867 -1.1754
   62MOL0     H 8504   9.204   9.843   7.063  0.2959 -0.1625  1.1409
   62MOL0     H 8505   9.085   9.780   7.342  0.9665  2.8489 -2.1915
   62MOL0     H 8506   9.284   9.656   7.645 -2.1438 -0.2759  1.6512
   62MOL0     H 8507   9.129   9.737   7.611 -0.7459 -2.4775  0.1955
   62MOL0     H 8508   9.392   9.869   7.668  0.0200 -0.6132 -1.8647
   62MOL0     H 8509   9.246   9.959   7.617 -0.2215  0.4588  2.7741
   62MOL0     H 8510   9.122   9.888   7.821 -0.4711 -1.3100  0.3719
   62MOL0     H 8511   9.265   9.796   7.874 -2.6687  0.1190  1.4234
   62MOL0     H 8512   9.387  10.037   7.842  0.9336 -3.4035  0.8572
   62MOL0     H 8513   9.221  10.085   7.889 -0.8442 -0.6743  2.3900
   62MOL0     H 8514   9.493   9.960   8.227  0.1880 -0.6225 -2.2899
   62MOL0     H 8515   9.546  10.008   8.441  1.1830  0.5566 -2.4736
   62MOL0     H 8516   9.449  10.109   8.546 -2.2720 -2.4224 -1.1497
   62MOL0     H 8517   9.574  10.188   8.437  0.7060 -0.2188 -1.5993
   62MOL0     H 8518   8.880  10.436   8.461  2.7724  0.6370 -1.2990
   62MOL0     H 8519   8.761  10.560   8.644  0.0923  0.1225 -4.3255
   62MOL0     H 8520   8.919  10.504   9.077 -1.3547 -0.4122 -0.7477
   62MOL0     H 8521   8.968  10.635   8.960  0.2156 -1.2602 -1.0143
   62MOL0     H 8522   8.724  10.605   9.136  0.4877  1.2323  1.5581
   62MOL0     H 8523   8.852  10.728   9.155  1.0207  0.3535 -0.4552
   62MOL0     H 8524   8.630  10.732   8.956 -0.0637 -0.4506  0.5945
   62MOL0     H 8525   8.769  10.850   8.968 -0.8702 -0.8326 -2.1478
   62MOL0     H 8526   8.703  10.932   9.175  1.6894 -1.9351  1.4438
   62MOL0     H 8527   8.579  10.809   9.188  3.2389  0.1554  2.2292
   62MOL0     H 8528   8.580  11.064   9.075  0.4646  0.1935 -0.2721
   62MOL0     H 8529   8.589  10.965   8.929  1.9226 -0.4137  0.6926
   62MOL0     H 8530   8.388  10.906   9.151 -2.7346 -4.9695 -0.7225
   62MOL0     H 8531   8.417  10.831   9.002  0.3772  1.0140 -1.5459
   62MOL0     H 8532   8.238  10.912   8.955  2.1267 -2.6364  0.3048
   62MOL0     H 8533   8.355  11.029   8.866 -3.6578  0.4229 -1.1767
   62MOL0     H 8534   8.203  11.085   9.118  1.9470 -0.9528  0.0809
   62MOL0     H 8535   8.182  11.148   8.950 -0.0065 -0.5974 -1.0878
   62MOL0     H 8536   9.034  10.355   8.923  1.2783  0.7278  0.2112
   62MOL0     H 8537   9.179  10.298   8.745 -0.2107 -2.2670 -2.0943
   62MOL0     H 8538   9.139  10.320   8.241 -0.1659 -0.2961  3.0159
   62MOL0     H 8539   9.145  10.174   8.060 -0.3932  1.6832  0.0943
   62MOL0     H 8540   8.793   9.554   6.264  1.0938 -0.5542 -5.0327
   62MOL0     H 8541   8.628   9.433   6.127  1.1272  1.0292  0.3021
   62MOL0     H 8542   8.242   9.400   5.902  2.5160 -1.4475 -1.7702
   62MOL0     H 8543   8.136   9.230   5.764  0.2117 -2.6330  0.4799
   62MOL0     H 8544   7.964   9.108   5.682 -0.2579 -0.2617 -1.0302
   62MOL0     H 8545   8.130   9.043   5.663 -1.2249  4.4216 -0.1205
   62MOL0     H 8546   7.877   8.882   5.720  0.9045  0.4859  1.3961
   62MOL0     H 8547   8.032   8.804   5.663  1.5376  0.7259  1.2425
   62MOL0     H 8548   7.850   9.016   5.527  1.1985  0.6737  1.4745
   62MOL0     H 8549   7.996   8.939   5.464  1.3830 -2.1002  1.8562
   62MOL0     H 8550   7.861   8.735   5.432 -2.4213 -2.4549  0.4781
   62MOL0     H 8551   7.780   8.866   5.354 -1.0570  1.2737  2.0440
   62MOL0     H 8552   7.474   8.726   5.595 -2.4686  3.7227 -2.4549
   62MOL0     H 8553   8.095   8.965   6.081  0.1847  0.0105 -0.4865
   62MOL0     H 8554   8.183   8.999   6.295 -2.1755  0.8380 -3.8157
   62MOL0     H 8555   8.311   9.110   6.325  1.8007 -4.6069 -1.6045
   62MOL0     H 8556   8.129   9.160   6.344 -0.4363  0.5453 -0.2342
   63MOL0     O 8557   7.723   5.951   1.833 -0.9334  0.3903 -0.1739
   63MOL0     C 8558   7.645   5.964   1.927  0.3970 -0.7722  0.2380
   63MOL0     O 8559   7.619   5.861   2.017  0.0988 -0.1761  0.3054
   63MOL0     C 8560   7.692   5.741   2.001  0.2428 -0.1012 -0.5278
   63MOL0     C 8561   7.655   5.638   1.901 -0.1489 -0.7302  0.0434
   63MOL0     C 8562   7.740   5.524   1.888 -0.5667  0.0396 -0.9324
   63MOL0     C 8563   7.849   5.508   1.967 -0.1095  0.6968 -0.0626
   63MOL0     O 8564   7.900   5.378   1.967 -0.8575  0.2906 -0.1779
   63MOL0     C 8565   8.024   5.350   2.035 -0.1141 -0.1841  0.1434
   63MOL0     C 8566   8.091   5.225   1.968  0.3027  0.6677 -1.0668
   63MOL0     C 8567   8.135   5.257   1.820  1.0333  0.5331 -0.3196
   63MOL0     C 8568   8.201   5.133   1.770  0.3882  0.1053  0.8224
   63MOL0     C 8569   8.234   5.132   1.615  0.1426 -0.2846  0.1140
   63MOL0     C 8570   8.334   5.017   1.593 -0.0566 -0.5465  0.0443
   63MOL0     C 8571   8.346   4.979   1.444 -0.5197 -0.2239 -0.5152
   63MOL0     C 8572   8.222   4.925   1.375  0.9160 -0.3400  0.1881
   63MOL0     N 8573   8.245   4.850   1.254 -0.8296 -0.2528  0.2913
   63MOL0     C 8574   8.245   4.884   1.119  0.5061 -0.3745 -0.5028
   63MOL0     C 8575   8.284   4.769   1.055 -0.2485 -0.0425 -0.7677
   63MOL0     C 8576   8.302   4.737   0.910  0.1753  0.8539  0.4070
   63MOL0     C 8577   8.174   4.777   0.838 -0.2559  0.2528  0.6067
   63MOL0     C 8578   8.187   4.760   0.681  0.1670  0.9459  1.2464
   63MOL0     C 8579   8.175   4.613   0.631 -0.4351 -0.6166  0.4493
   63MOL0     O 8580   8.063   4.547   0.680  0.2995 -0.0331  0.8517
   63MOL0     C 8581   7.938   4.554   0.629  0.2452  1.0991  0.1716
   63MOL0     C 8582   7.832   4.519   0.707 -0.2638 -0.0179  0.3532
   63MOL0     C 8583   7.702   4.525   0.641  0.2792 -1.1003  0.1692
   63MOL0     C 8584   7.585   4.494   0.735 -0.2475  0.4117 -0.4123
   63MOL0     C 8585   7.682   4.568   0.510  0.0604  0.4581 -0.3125
   63MOL0     C 8586   7.555   4.581   0.434  0.6475  0.3618 -0.2421
   63MOL0     O 8587   7.567   4.639   0.311  0.0973  0.2422 -0.5495
   63MOL0     C 8588   7.460   4.634   0.232  0.0590 -0.7544  0.3404
   63MOL0     C 8589   7.469   4.540   0.134  0.8976 -0.3416  0.3841
   63MOL0     C 8590   7.370   4.534   0.035  0.1824 -0.4991 -0.0076
   63MOL0     C 8591   7.268   4.625   0.032  0.0857  0.8228 -0.1544
   63MOL0     O 8592   7.171   4.610  -0.076 -0.6803 -0.1538 -0.1368
   63MOL0     C 8593   7.051   4.699  -0.078  0.2527  0.0043  0.3119
   63MOL0     C 8594   6.999   4.695  -0.227  0.1106  0.6872  0.0801
   63MOL0     C 8595   6.849   4.732  -0.243 -0.4412  0.0878  0.1806
   63MOL0     C 8596   6.808   4.719  -0.395 -0.0149  0.3624 -0.4865
   63MOL0     C 8597   6.687   4.794  -0.426 -0.3548  0.4044 -0.2898
   63MOL0     C 8598   6.658   4.776  -0.577 -0.0481  1.1990 -0.1436
   63MOL0     C 8599   6.514   4.838  -0.605 -0.6918  0.7374  0.2873
   63MOL0     C 8600   6.502   4.872  -0.760 -0.3064  0.3474 -0.5012
   63MOL0    Cl 8601   6.336   4.929  -0.800 -0.1042  0.0924 -0.3240
   63MOL0     C 8602   7.262   4.725   0.128 -1.0524  0.5835 -0.8171
   63MOL0     C 8603   7.358   4.719   0.230  0.5192 -0.8230  0.3843
   63MOL0     O 8604   7.450   4.526   0.480  0.0420 -0.1636  0.9941
   63MOL0     C 8605   7.795   4.599   0.438 -0.6602 -0.1365  0.1340
   63MOL0     C 8606   7.917   4.594   0.497 -0.3229  0.4210 -0.6342
   63MOL0     N 8607   8.312   4.676   1.151  0.7453  0.4021  0.2224
   63MOL0     N 8608   8.284   4.721   1.262 -0.3574  0.1057  0.0504
   63MOL0     C 8609   7.891   5.608   2.055  0.6854 -0.0903  0.0864
   63MOL0     C 8610   7.811   5.724   2.070  0.4749 -0.8690 -0.2842
   63MOL0     C 8611   7.567   6.106   1.948 -0.2805 -0.9283 -0.7313
   63MOL0     C 8612   7.523   6.137   2.080 -0.3640 -0.5314  0.1778
   63MOL0     C 8613   7.499   6.266   2.099 -0.4394 -1.3835 -0.4726
   63MOL0     C 8614   7.483   6.362   2.008  1.2643  0.1496 -0.3149
   63MOL0     O 8615   7.434   6.485   2.050  0.5916 -0.4320 -0.0156
   63MOL0     C 8616   7.386   6.590   1.960 -0.5240  0.5498  0.2659
   63MOL0     C 8617   7.301   6.692   2.035 -0.5263 -0.0145  0.0904
   63MOL0     C 8618   7.384   6.759   2.141 -0.0986 -0.5686 -0.4742
   63MOL0     C 8619   7.313   6.860   2.230 -0.3695  0.5701 -0.4531
   63MOL0     C 8620   7.186   6.812   2.291 -0.6184 -0.0372 -0.1057
   63MOL0     C 8621   7.084   6.773   2.339 -0.0644 -0.0883 -0.6443
   63MOL0     C 8622   7.510   6.331   1.873  0.3046 -0.2480  0.0648
   63MOL0     C 8623   7.548   6.202   1.840 -0.2910  0.8931  0.8497
   63MOL0     C 8624   7.550   6.154   1.700 -0.0225 -0.0571  1.1217
   63MOL0     H 8625   7.563   5.654   1.846  1.1160  0.8468 -1.7548
   63MOL0     H 8626   7.712   5.436   1.831  0.8650 -2.0121  1.2954
   63MOL0     H 8627   8.009   5.329   2.142 -0.2756 -0.3165  0.0966
   63MOL0     H 8628   8.086   5.439   2.035 -0.0625 -0.1277 -2.6839
   63MOL0     H 8629   8.178   5.201   2.029 -0.8517 -0.6869  0.1319
   63MOL0     H 8630   8.025   5.138   1.974  1.2516 -0.0971 -1.4911
   63MOL0     H 8631   8.042   5.256   1.762  0.6769  0.0811  0.2420
   63MOL0     H 8632   8.204   5.341   1.814  0.6382  0.9006  0.1958
   63MOL0     H 8633   8.294   5.107   1.821  1.3541 -1.3186 -1.4706
   63MOL0     H 8634   8.136   5.048   1.794  0.6105  0.6855  3.8668
   63MOL0     H 8635   8.284   5.227   1.595 -0.9027  0.0672 -0.9347
   63MOL0     H 8636   8.139   5.132   1.561 -0.3094 -2.9912  0.7666
   63MOL0     H 8637   8.429   5.049   1.635  1.8018 -2.2082 -2.5902
   63MOL0     H 8638   8.299   4.928   1.648  1.1504 -0.2496  1.3376
   63MOL0     H 8639   8.408   4.890   1.441  0.6789  0.4263  2.1535
   63MOL0     H 8640   8.387   5.067   1.393 -1.2893  1.1770  1.1492
   63MOL0     H 8641   8.165   4.863   1.445 -1.7023  0.6547 -0.9313
   63MOL0     H 8642   8.155   5.008   1.351 -2.6561 -1.7320  4.1474
   63MOL0     H 8643   8.227   4.980   1.073 -0.8387 -1.3922 -2.2286
   63MOL0     H 8644   8.328   4.634   0.884  4.2265  1.2865  2.1130
   63MOL0     H 8645   8.389   4.793   0.877  1.5911 -1.1659  0.5405
   63MOL0     H 8646   8.081   4.726   0.868  0.3280 -1.6467 -0.6859
   63MOL0     H 8647   8.159   4.885   0.847 -0.2696  0.3297 -0.2686
   63MOL0     H 8648   8.107   4.808   0.626 -0.1659  1.1923  1.9374
   63MOL0     H 8649   8.286   4.794   0.647  1.9271 -2.0784  2.8691
   63MOL0     H 8650   8.180   4.618   0.522 -1.9694 -0.5767  0.3553
   63MOL0     H 8651   8.269   4.566   0.660  0.6620  1.1691 -0.0744
   63MOL0     H 8652   7.852   4.487   0.809  3.0615 -0.8885 -0.4348
   63MOL0     H 8653   7.626   4.483   0.836 -1.9042 -3.3615  0.0144
   63MOL0     H 8654   7.546   4.395   0.713  1.6061 -0.2073 -1.0787
   63MOL0     H 8655   7.505   4.568   0.726  0.6445  1.3205 -1.1496
   63MOL0     H 8656   7.555   4.477   0.114  2.7365  2.5717 -1.8287
   63MOL0     H 8657   7.384   4.472  -0.053  0.8784 -3.0097  1.7701
   63MOL0     H 8658   6.977   4.647  -0.018  0.4450 -0.8071 -0.1314
   63MOL0     H 8659   7.064   4.801  -0.041 -2.2597  1.2605 -1.9094
   63MOL0     H 8660   7.067   4.754  -0.289 -1.6328  0.0312 -2.6558
   63MOL0     H 8661   7.009   4.600  -0.280 -3.4654  0.7996 -1.0807
   63MOL0     H 8662   6.816   4.832  -0.214  0.3722  2.2200 -5.0323
   63MOL0     H 8663   6.792   4.661  -0.182  1.6977 -0.2479  1.8916
   63MOL0     H 8664   6.799   4.611  -0.411 -0.3835  0.2312  0.5335
   63MOL0     H 8665   6.881   4.759  -0.465  0.9465  0.1511  0.3799
   63MOL0     H 8666   6.606   4.752  -0.366  0.2591 -3.2484 -1.7531
   63MOL0     H 8667   6.698   4.899  -0.397 -1.4255  0.1731  1.0601
   63MOL0     H 8668   6.651   4.669  -0.598  1.4977  1.0756 -0.1365
   63MOL0     H 8669   6.742   4.809  -0.639  1.8335 -1.7703  0.6308
   63MOL0     H 8670   6.507   4.936  -0.557  2.1255  1.1719 -0.0012
   63MOL0     H 8671   6.430   4.776  -0.573 -0.4320  0.2005 -0.0386
   63MOL0     H 8672   6.529   4.780  -0.812 -0.9135 -0.0253 -0.1761
   63MOL0     H 8673   6.576   4.947  -0.788 -0.0444  0.0271 -0.6724
   63MOL0     H 8674   7.183   4.799   0.136  0.6843  2.4774 -0.4109
   63MOL0     H 8675   7.354   4.796   0.307 -0.9239 -1.5866  1.1210
   63MOL0     H 8676   7.800   4.623   0.332  0.5917 -2.4737 -0.3945
   63MOL0     H 8677   8.001   4.615   0.430 -0.8554 -3.4804 -2.8120
   63MOL0     H 8678   7.980   5.594   2.115  1.3494 -0.2911 -0.9220
   63MOL0     H 8679   7.842   5.804   2.136  0.0733  1.1114 -2.3347
   63MOL0     H 8680   7.516   6.060   2.156 -0.2880 -0.4361  0.2820
   63MOL0     H 8681   7.466   6.276   2.201 -0.3397  0.1194 -0.5569
   63MOL0     H 8682   7.469   6.638   1.907 -0.0811 -1.0391 -0.5295
   63MOL0     H 8683   7.321   6.545   1.885  1.0020 -1.4988  0.0909
   63MOL0     H 8684   7.207   6.655   2.077  0.1036 -0.4435  1.1571
   63MOL0     H 8685   7.278   6.775   1.967 -0.5224  0.3122  0.4833
   63MOL0     H 8686   7.459   6.695   2.188  0.2317 -0.1050 -0.3648
   63MOL0     H 8687   7.459   6.821   2.092  0.9954 -0.3669  1.3548
   63MOL0     H 8688   7.289   6.947   2.168 -1.8959  0.5070 -0.0111
   63MOL0     H 8689   7.386   6.877   2.310  0.5711 -1.6095 -0.7698
   63MOL0     H 8690   7.003   6.744   2.403  0.6240 -0.1608  0.2118
   63MOL0     H 8691   7.493   6.404   1.795 -0.0924 -1.3178 -0.8720
   63MOL0     H 8692   7.650   6.110   1.689 -0.4271 -0.8142  0.3466
   63MOL0     H 8693   7.476   6.076   1.678  0.0918  0.1880 -0.2570
   63MOL0     H 8694   7.536   6.231   1.624 -0.7229  1.2218  2.5151
   64MOL0     O 8695   0.597   6.434   9.394  0.2303 -0.2690 -0.2774
   64MOL0     C 8696   0.550   6.323   9.386 -0.1325 -0.0199 -0.2183
   64MOL0     O 8697   0.417   6.292   9.366 -0.5414 -0.1920  0.3704
   64MOL0     C 8698   0.334   6.407   9.357  0.1932  0.7506  0.5961
   64MOL0     C 8699   0.259   6.442   9.463  0.6000  0.5536 -0.8016
   64MOL0     C 8700   0.162   6.542   9.443  0.1888 -0.0328  0.9816
   64MOL0     C 8701   0.144   6.616   9.321  0.0213  0.7604 -1.3265
   64MOL0     O 8702   0.032   6.705   9.319  0.4664 -0.4257 -0.3998
   64MOL0     C 8703   0.065   6.840   9.273  0.0124 -1.2360  0.5544
   64MOL0     C 8704  -0.074   6.907   9.231 -1.4367 -0.3661  0.5336
   64MOL0     C 8705  -0.159   6.818   9.132  0.5679 -0.1652  0.0748
   64MOL0     C 8706  -0.301   6.893   9.128 -0.4259 -0.4702  1.2918
   64MOL0     C 8707  -0.383   6.814   9.028  0.3014 -0.2368  0.1226
   64MOL0     C 8708  -0.505   6.890   8.987  0.4289 -0.2383 -0.1306
   64MOL0     C 8709  -0.482   7.038   8.915  0.1239 -0.4045 -0.3363
   64MOL0     C 8710  -0.432   7.022   8.779 -1.2940  1.1975  0.7599
   64MOL0     N 8711  -0.357   7.140   8.737  0.0316 -0.7477 -1.0349
   64MOL0     C 8712  -0.392   7.246   8.661  1.1619  0.2979  0.4645
   64MOL0     C 8713  -0.283   7.320   8.642 -0.2663 -0.4084 -0.1717
   64MOL0     C 8714  -0.280   7.462   8.591  0.0034  0.1932  0.6974
   64MOL0     C 8715  -0.283   7.474   8.441  0.4844 -0.2905 -0.1242
   64MOL0     C 8716  -0.286   7.619   8.384 -0.8527  0.1111 -0.4065
   64MOL0     C 8717  -0.365   7.611   8.259  0.5400 -0.2174 -0.6694
   64MOL0     O 8718  -0.370   7.744   8.197 -0.3141 -0.1283 -0.1876
   64MOL0     C 8719  -0.267   7.784   8.123  0.2955  0.3534 -0.2590
   64MOL0     C 8720  -0.138   7.724   8.119 -0.4604  0.4479  0.2499
   64MOL0     C 8721  -0.031   7.787   8.049  0.0832  0.5387  0.7884
   64MOL0     C 8722   0.105   7.731   8.057  0.0147 -0.0452  0.0818
   64MOL0     C 8723  -0.052   7.907   7.979  0.6156 -0.2077  0.1745
   64MOL0     C 8724   0.049   7.986   7.908 -0.0873 -0.2021 -0.8761
   64MOL0     O 8725   0.015   8.113   7.871 -0.2575  0.3628  0.2048
   64MOL0     C 8726   0.099   8.174   7.774 -0.9580 -0.1833 -1.1831
   64MOL0     C 8727   0.218   8.237   7.813  0.1164 -0.5589  0.4229
   64MOL0     C 8728   0.295   8.298   7.719 -0.8475 -1.0030 -0.2124
   64MOL0     C 8729   0.261   8.295   7.579 -0.1707 -0.5871 -0.1119
   64MOL0     O 8730   0.349   8.330   7.484 -0.4926 -0.6749  0.1881
   64MOL0     C 8731   0.368   8.472   7.474 -0.2448  0.9794 -0.6618
   64MOL0     C 8732   0.392   8.515   7.323  0.0268 -1.1041 -0.0879
   64MOL0     C 8733   0.531   8.576   7.289  0.3655  0.8005  0.1580
   64MOL0     C 8734   0.530   8.614   7.149  0.4905 -1.0184  0.5308
   64MOL0     C 8735   0.652   8.693   7.095 -0.6841 -0.8888 -0.9943
   64MOL0     C 8736   0.681   8.821   7.168 -0.8980 -0.1043  0.0950
   64MOL0     C 8737   0.788   8.917   7.116 -0.2489  1.0868  0.5580
   64MOL0     C 8738   0.920   8.841   7.126 -0.0272  0.0968  0.1792
   64MOL0    Cl 8739   0.956   8.790   7.301 -0.3198  0.0751 -0.4696
   64MOL0     C 8740   0.153   8.216   7.543  0.4072 -0.3316  0.2715
   64MOL0     C 8741   0.062   8.179   7.639 -0.5249  0.1241  0.1238
   64MOL0     O 8742   0.150   7.928   7.873  1.1907 -0.5749 -0.1936
   64MOL0     C 8743  -0.179   7.977   7.997 -0.0593  0.2448  0.4167
   64MOL0     C 8744  -0.282   7.907   8.057  0.1801  0.4323  0.6945
   64MOL0     N 8745  -0.174   7.249   8.685 -0.1303  0.3443  0.1046
   64MOL0     N 8746  -0.217   7.151   8.750 -0.9863  0.4718  0.0891
   64MOL0     C 8747   0.242   6.580   9.226 -0.2344  0.5272 -0.5577
   64MOL0     C 8748   0.336   6.481   9.244  0.1641 -0.0786 -0.1644
   64MOL0     C 8749   0.644   6.200   9.375  0.3408 -0.4934  0.3756
   64MOL0     C 8750   0.590   6.077   9.331  0.7080  0.9934 -1.2882
   64MOL0     C 8751   0.668   5.962   9.325 -0.0754 -0.7827 -0.0780
   64MOL0     C 8752   0.803   5.963   9.355  0.1242 -0.1634  0.6271
   64MOL0     O 8753   0.897   5.867   9.321 -0.2594  0.0138  0.1338
   64MOL0     C 8754   0.864   5.740   9.273  0.2963  0.2301  0.3931
   64MOL0     C 8755   0.968   5.637   9.258 -0.1893 -0.4890  0.7467
   64MOL0     C 8756   1.089   5.699   9.177  0.4785  0.0275  0.2737
   64MOL0     C 8757   1.224   5.621   9.194  0.6667  0.1702 -0.7126
   64MOL0     C 8758   1.228   5.508   9.104 -1.0136  0.2830  0.5047
   64MOL0     C 8759   1.230   5.426   9.017 -0.0061  0.5244  0.2912
   64MOL0     C 8760   0.856   6.084   9.395  0.3489  0.9759  1.2574
   64MOL0     C 8761   0.783   6.202   9.393  0.1671  0.6262 -0.9869
   64MOL0     C 8762   0.856   6.326   9.437  0.3420  0.3123  0.8758
   64MOL0     H 8763   0.253   6.369   9.543  1.3953  0.8762 -0.4365
   64MOL0     H 8764   0.090   6.562   9.522 -0.9273 -3.7767  1.0921
   64MOL0     H 8765   0.137   6.836   9.191 -0.9128 -1.3977 -0.2531
   64MOL0     H 8766   0.095   6.882   9.370 -1.0425 -0.0326  0.3882
   64MOL0     H 8767  -0.125   6.929   9.325 -0.9878  0.0136  0.6967
   64MOL0     H 8768  -0.048   7.006   9.191 -2.4830 -0.6843 -0.9672
   64MOL0     H 8769  -0.121   6.807   9.030  0.1888  0.6270 -0.1657
   64MOL0     H 8770  -0.166   6.721   9.182  1.4135 -1.0672 -1.4812
   64MOL0     H 8771  -0.350   6.894   9.226  0.9185 -0.1890  1.9930
   64MOL0     H 8772  -0.284   6.995   9.094 -0.4527 -0.7259  0.5066
   64MOL0     H 8773  -0.396   6.713   9.067 -0.8941 -0.7788 -1.5479
   64MOL0     H 8774  -0.327   6.813   8.934  2.2030 -2.9780  1.1688
   64MOL0     H 8775  -0.567   6.831   8.919  0.0842  1.5608 -1.4475
   64MOL0     H 8776  -0.568   6.904   9.076  1.0566  1.3227  0.1110
   64MOL0     H 8777  -0.413   7.103   8.969  0.6175 -1.8061  0.8017
   64MOL0     H 8778  -0.577   7.091   8.916 -0.8766 -2.0703  1.6417
   64MOL0     H 8779  -0.375   6.930   8.765 -3.1253 -0.1709  1.7489
   64MOL0     H 8780  -0.515   7.013   8.708 -0.9959  0.6870  0.4724
   64MOL0     H 8781  -0.494   7.268   8.628  0.8755 -0.7846  0.5834
   64MOL0     H 8782  -0.188   7.501   8.634  1.0048 -2.3275  1.0531
   64MOL0     H 8783  -0.357   7.529   8.629 -0.0053  0.9042 -0.4983
   64MOL0     H 8784  -0.196   7.419   8.404  0.3914 -1.2751  1.0607
   64MOL0     H 8785  -0.372   7.424   8.402 -1.1373 -0.3859  3.2915
   64MOL0     H 8786  -0.323   7.679   8.468  0.7244  0.7475 -0.1315
   64MOL0     H 8787  -0.182   7.652   8.374 -0.6556 -0.4127 -0.1233
   64MOL0     H 8788  -0.339   7.533   8.188 -2.0627 -0.0290 -1.9268
   64MOL0     H 8789  -0.465   7.588   8.295  0.6207 -3.2147 -2.1077
   64MOL0     H 8790  -0.124   7.623   8.158 -1.4414 -0.1468 -0.8610
   64MOL0     H 8791   0.126   7.670   7.968  0.1253  0.2109 -0.0685
   64MOL0     H 8792   0.106   7.667   8.146 -1.6438  0.9263  0.8271
   64MOL0     H 8793   0.188   7.801   8.069  0.2830 -0.4938  0.9881
   64MOL0     H 8794   0.257   8.229   7.914  1.7332 -3.5879 -0.3164
   64MOL0     H 8795   0.389   8.352   7.734 -1.5178  1.0099 -2.5467
   64MOL0     H 8796   0.285   8.527   7.520  0.2132 -0.8901  2.7226
   64MOL0     H 8797   0.449   8.498   7.543  0.6971  1.3925 -1.9030
   64MOL0     H 8798   0.379   8.419   7.273 -1.3930 -0.9127 -0.1127
   64MOL0     H 8799   0.320   8.593   7.295  1.3708  0.6274  1.0352
   64MOL0     H 8800   0.612   8.505   7.309  0.1124  0.2481 -0.7326
   64MOL0     H 8801   0.541   8.665   7.353  0.7282 -0.5155  2.0130
   64MOL0     H 8802   0.436   8.667   7.128  0.6649  1.1976  4.2615
   64MOL0     H 8803   0.522   8.523   7.089 -2.1087 -0.3876 -0.2065
   64MOL0     H 8804   0.741   8.628   7.089 -1.5796 -2.0305 -2.9371
   64MOL0     H 8805   0.627   8.729   6.996  3.7185  0.4438 -1.8593
   64MOL0     H 8806   0.698   8.808   7.276 -0.2466  0.3842  0.0504
   64MOL0     H 8807   0.590   8.881   7.178 -1.1736 -0.7821  2.1334
   64MOL0     H 8808   0.796   9.009   7.173  1.5678  1.2714  0.0690
   64MOL0     H 8809   0.772   8.947   7.012 -4.6090 -0.4349  0.5611
   64MOL0     H 8810   0.999   8.909   7.094  0.2261 -0.2344  0.0939
   64MOL0     H 8811   0.929   8.754   7.061 -0.8576 -0.9056  1.3508
   64MOL0     H 8812   0.127   8.202   7.439 -2.5576  0.4185  0.8070
   64MOL0     H 8813  -0.033   8.137   7.604 -0.7237  2.1767 -2.1339
   64MOL0     H 8814  -0.198   8.076   7.955  4.2490  1.4259  0.7607
   64MOL0     H 8815  -0.369   7.973   8.057 -0.4123 -0.1378 -2.6752
   64MOL0     H 8816   0.232   6.620   9.126 -0.9827 -0.7427 -1.0174
   64MOL0     H 8817   0.406   6.457   9.165 -1.6079 -0.0808 -1.8183
   64MOL0     H 8818   0.484   6.061   9.315  1.2476 -2.5018 -2.0384
   64MOL0     H 8819   0.626   5.873   9.279 -3.8415  1.3960 -1.3745
   64MOL0     H 8820   0.785   5.700   9.336 -0.3940 -0.4929 -0.8961
   64MOL0     H 8821   0.818   5.757   9.176  0.9036 -0.8230 -0.1011
   64MOL0     H 8822   0.922   5.556   9.202  2.3748 -0.3079 -1.8819
   64MOL0     H 8823   1.002   5.605   9.357  1.9062 -0.7466  0.0091
   64MOL0     H 8824   1.064   5.694   9.071  3.8338  1.7512 -0.7329
   64MOL0     H 8825   1.088   5.808   9.192 -5.2437  0.3263  0.1277
   64MOL0     H 8826   1.256   5.584   9.292 -1.0093  3.9029  1.4620
   64MOL0     H 8827   1.292   5.699   9.158  1.4044 -0.5723 -0.9461
   64MOL0     H 8828   1.233   5.377   8.922  2.0242  2.4290 -0.6986
   64MOL0     H 8829   0.963   6.078   9.408  0.3981  2.2596  1.5358
   64MOL0     H 8830   0.810   6.364   9.528  1.0751 -0.3024  1.5145
   64MOL0     H 8831   0.962   6.303   9.455  0.4881  0.8461  0.7124
   64MOL0     H 8832   0.854   6.407   9.363  0.3761 -1.8239 -1.6299
   65MOL0     O 8833   8.165   8.884   8.732 -0.1362 -0.2768 -0.3977
   65MOL0     C 8834   8.283   8.885   8.759  0.5113  0.5265 -0.2920
   65MOL0     O 8835   8.380   8.833   8.678 -0.5709  0.3466 -0.6423
   65MOL0     C 8836   8.360   8.778   8.550  0.0251  0.0381  0.6116
   65MOL0     C 8837   8.245   8.766   8.477  0.4410  0.3934 -0.0674
   65MOL0     C 8838   8.245   8.717   8.352  0.5576 -0.6825  0.3545
   65MOL0     C 8839   8.359   8.682   8.286 -0.7432  0.3281 -0.1618
   65MOL0     O 8840   8.370   8.613   8.171  0.9271 -0.1236  0.9161
   65MOL0     C 8841   8.259   8.636   8.080  0.3821 -0.3777 -0.2022
   65MOL0     C 8842   8.290   8.544   7.955 -0.1883  0.3073 -0.5172
   65MOL0     C 8843   8.400   8.602   7.874 -0.2403 -0.5550  0.0385
   65MOL0     C 8844   8.425   8.524   7.751  0.8487  0.0122  0.3124
   65MOL0     C 8845   8.332   8.579   7.637 -0.1276 -0.4950 -0.1144
   65MOL0     C 8846   8.311   8.477   7.520  0.2108  0.4493 -0.4407
   65MOL0     C 8847   8.424   8.394   7.465 -0.3926 -0.2386 -0.5267
   65MOL0     C 8848   8.361   8.303   7.359 -0.2366 -0.1016 -0.7389
   65MOL0     N 8849   8.468   8.217   7.313  0.4382  0.4565 -0.3287
   65MOL0     C 8850   8.517   8.102   7.373  0.9425  0.7621  0.3831
   65MOL0     C 8851   8.628   8.065   7.301  0.0135 -0.7171 -0.4280
   65MOL0     C 8852   8.726   7.955   7.327 -0.1262 -0.4988  0.2046
   65MOL0     C 8853   8.701   7.837   7.224  0.3225  0.0846  0.0789
   65MOL0     C 8854   8.588   7.753   7.264 -1.3708  0.1363  0.3477
   65MOL0     C 8855   8.606   7.618   7.182 -0.6889  0.2634  0.2324
   65MOL0     O 8856   8.720   7.544   7.235  0.1803  0.1169  0.2949
   65MOL0     C 8857   8.770   7.446   7.142 -0.2227 -0.4652  0.6685
   65MOL0     C 8858   8.881   7.390   7.179 -0.4929  0.3249 -0.8365
   65MOL0     C 8859   8.935   7.290   7.107 -0.5295 -0.3082 -0.1691
   65MOL0     C 8860   9.063   7.229   7.166 -0.2696  0.9019 -0.2701
   65MOL0     C 8861   8.882   7.250   6.988 -0.2006 -0.2143 -0.3655
   65MOL0     C 8862   8.947   7.137   6.899  0.6970 -0.4019 -0.5652
   65MOL0     O 8863   8.860   7.054   6.834  0.0751  0.2268 -0.5261
   65MOL0     C 8864   8.903   6.924   6.788 -0.0267 -0.2394 -1.1453
   65MOL0     C 8865   9.016   6.846   6.817  0.4638  0.0549  0.2978
   65MOL0     C 8866   9.053   6.721   6.749  0.4160  0.1358 -0.6947
   65MOL0     C 8867   8.966   6.678   6.653  0.5089 -0.0118  0.2547
   65MOL0     O 8868   8.985   6.554   6.611 -0.2849  0.9938  0.3086
   65MOL0     C 8869   8.962   6.524   6.472 -0.5775 -0.0653  0.5306
   65MOL0     C 8870   8.943   6.372   6.444  0.9183  0.2670  0.6301
   65MOL0     C 8871   8.800   6.342   6.491  0.1031  0.8297 -0.7116
   65MOL0     C 8872   8.738   6.227   6.399  0.4070  0.3062  0.5559
   65MOL0     C 8873   8.598   6.190   6.447 -0.0371 -0.0962 -0.4816
   65MOL0     C 8874   8.549   6.048   6.411  0.0871  0.1397 -0.2703
   65MOL0     C 8875   8.489   6.043   6.271  1.2769  0.1872 -0.3553
   65MOL0     C 8876   8.448   5.900   6.240  0.1529 -0.3389 -0.2918
   65MOL0    Cl 8877   8.593   5.784   6.252  0.6662 -0.4083  0.1062
   65MOL0     C 8878   8.854   6.750   6.621 -0.3686  0.4885 -0.3045
   65MOL0     C 8879   8.827   6.879   6.686 -0.0322  0.3076 -0.0133
   65MOL0     O 8880   9.071   7.117   6.898 -0.0281 -0.3432 -0.4699
   65MOL0     C 8881   8.769   7.316   6.938  0.6606 -0.4561 -0.1526
   65MOL0     C 8882   8.710   7.413   7.019 -0.4732 -0.2888  1.2777
   65MOL0     N 8883   8.663   8.170   7.214  0.1399 -0.2194 -0.5236
   65MOL0     N 8884   8.562   8.254   7.220 -0.3726 -0.3546  0.1765
   65MOL0     C 8885   8.480   8.697   8.351 -0.3553 -0.4978  0.1864
   65MOL0     C 8886   8.477   8.734   8.484  0.5555  0.3209  0.2457
   65MOL0     C 8887   8.333   8.939   8.892  0.9609 -0.4691 -0.0564
   65MOL0     C 8888   8.233   8.992   8.978 -0.0680  0.7065  0.3079
   65MOL0     C 8889   8.269   9.069   9.088 -0.3918 -0.3160 -0.0923
   65MOL0     C 8890   8.404   9.094   9.115 -0.5952 -0.5626  0.0679
   65MOL0     O 8891   8.430   9.161   9.232 -0.1983  0.0321 -0.3017
   65MOL0     C 8892   8.541   9.248   9.219 -1.0113  0.1347 -0.0200
   65MOL0     C 8893   8.648   9.218   9.324  0.0017 -0.0537 -0.4359
   65MOL0     C 8894   8.769   9.315   9.317 -0.3828 -0.0744  0.1611
   65MOL0     C 8895   8.747   9.455   9.256 -0.3183  0.2094  0.4232
   65MOL0     C 8896   8.864   9.543   9.298  1.0441  0.5846  0.2898
   65MOL0     C 8897   8.953   9.612   9.346  0.5896  0.0612 -0.3761
   65MOL0     C 8898   8.498   9.040   9.034  0.2642  0.3259 -0.4230
   65MOL0     C 8899   8.471   8.966   8.921  0.4972  0.1161 -0.3642
   65MOL0     C 8900   8.579   8.947   8.824 -0.1344 -0.2095  0.0044
   65MOL0     H 8901   8.144   8.785   8.511  0.3262  0.0343 -0.2132
   65MOL0     H 8902   8.147   8.716   8.304  1.3484  3.3045 -1.7601
   65MOL0     H 8903   8.243   8.743   8.060 -2.5671  0.1418  3.7848
   65MOL0     H 8904   8.166   8.604   8.127 -1.7987  1.8534 -2.6583
   65MOL0     H 8905   8.318   8.446   7.995  0.8743  0.8848  0.2056
   65MOL0     H 8906   8.205   8.523   7.889 -0.1160  0.7069 -0.7373
   65MOL0     H 8907   8.393   8.709   7.851  1.3705 -0.0554  1.5371
   65MOL0     H 8908   8.488   8.594   7.940 -1.2739 -0.5515  1.4619
   65MOL0     H 8909   8.532   8.522   7.730  0.5394  1.6058 -1.6785
   65MOL0     H 8910   8.387   8.423   7.771 -4.6848  1.7490  0.3676
   65MOL0     H 8911   8.353   8.674   7.588 -3.4118 -0.8836 -2.6186
   65MOL0     H 8912   8.234   8.592   7.684  0.4309  1.3621  0.6003
   65MOL0     H 8913   8.232   8.407   7.549  0.4953  1.1445  2.2612
   65MOL0     H 8914   8.279   8.539   7.436 -2.6219  0.9725  0.9068
   65MOL0     H 8915   8.464   8.340   7.551  0.3756 -2.3454 -2.1146
   65MOL0     H 8916   8.496   8.464   7.420  0.6440 -2.4212 -2.4597
   65MOL0     H 8917   8.273   8.249   7.394  0.0634  0.8170  1.6251
   65MOL0     H 8918   8.329   8.378   7.285 -0.8856  0.9839  0.5979
   65MOL0     H 8919   8.476   8.052   7.461 -1.5572 -4.1019 -3.0700
   65MOL0     H 8920   8.710   7.914   7.428  0.5396  0.1084  0.5613
   65MOL0     H 8921   8.825   8.001   7.336 -0.4847  0.0727  1.5337
   65MOL0     H 8922   8.699   7.865   7.119  3.6267 -0.0956 -0.1504
   65MOL0     H 8923   8.799   7.790   7.239  0.8628  1.1302 -0.0355
   65MOL0     H 8924   8.590   7.729   7.370 -0.3925  1.6414  0.7103
   65MOL0     H 8925   8.492   7.803   7.246 -1.4823  0.1861  1.0607
   65MOL0     H 8926   8.514   7.559   7.188 -0.8340  0.3998 -0.6092
   65MOL0     H 8927   8.625   7.656   7.081  1.2786  1.8289  1.1088
   65MOL0     H 8928   8.927   7.429   7.269 -2.0044 -0.2172  0.2213
   65MOL0     H 8929   9.065   7.120   7.158 -3.3365  0.7022  0.2025
   65MOL0     H 8930   9.089   7.255   7.269  2.6892 -2.7650  0.1227
   65MOL0     H 8931   9.142   7.267   7.101 -1.4882  1.7794 -1.2823
   65MOL0     H 8932   9.091   6.887   6.883 -0.4423  0.9835  0.7751
   65MOL0     H 8933   9.141   6.662   6.772 -1.4550 -2.3409  0.5053
   65MOL0     H 8934   8.877   6.575   6.426 -0.2419  0.0557  0.0371
   65MOL0     H 8935   9.051   6.547   6.413 -0.1679 -3.3193 -0.2997
   65MOL0     H 8936   8.943   6.359   6.335 -0.5467  4.4183 -0.0543
   65MOL0     H 8937   9.022   6.308   6.484  2.3525  1.3696 -0.3270
   65MOL0     H 8938   8.742   6.435   6.493 -2.6913 -0.8014  0.6696
   65MOL0     H 8939   8.800   6.310   6.596  3.2370  4.1810  0.5280
   65MOL0     H 8940   8.803   6.140   6.409 -0.9605 -0.6710  1.2500
   65MOL0     H 8941   8.745   6.265   6.296 -1.5040 -0.8185 -0.0355
   65MOL0     H 8942   8.606   6.201   6.555  5.8731  0.8771 -0.7325
   65MOL0     H 8943   8.517   6.258   6.420 -0.3883  0.2963  1.4267
   65MOL0     H 8944   8.476   6.036   6.492  1.5729  0.9332  1.2540
   65MOL0     H 8945   8.633   5.978   6.417 -1.7979 -2.2144  0.0466
   65MOL0     H 8946   8.566   6.076   6.200 -0.0180  4.7345  0.0973
   65MOL0     H 8947   8.404   6.111   6.263  1.6435  0.6594 -0.2780
   65MOL0     H 8948   8.405   5.895   6.140 -0.8332  0.4577  0.0664
   65MOL0     H 8949   8.371   5.872   6.313  0.2362  1.8470  0.7051
   65MOL0     H 8950   8.776   6.714   6.554 -1.7703 -1.1253  2.0215
   65MOL0     H 8951   8.736   6.934   6.666 -3.1369 -4.6365 -1.2027
   65MOL0     H 8952   8.733   7.294   6.838 -2.2691  0.6368  0.5650
   65MOL0     H 8953   8.616   7.462   6.993 -1.4916 -3.8906 -3.1794
   65MOL0     H 8954   8.577   8.690   8.302 -0.3900  0.6893 -0.0842
   65MOL0     H 8955   8.570   8.742   8.540  0.2395 -2.8548  1.3953
   65MOL0     H 8956   8.132   8.983   8.940  0.6779  2.2697 -2.2950
   65MOL0     H 8957   8.196   9.107   9.159 -1.1754  0.2667 -1.1783
   65MOL0     H 8958   8.583   9.262   9.119  0.1137  0.3553  0.4684
   65MOL0     H 8959   8.497   9.347   9.230 -0.7416  0.1431  1.0934
   65MOL0     H 8960   8.675   9.112   9.333  0.7535  0.3052  2.4959
   65MOL0     H 8961   8.599   9.234   9.420 -0.6087  0.5319 -0.8391
   65MOL0     H 8962   8.784   9.348   9.421 -0.5941  4.1062 -0.9360
   65MOL0     H 8963   8.859   9.265   9.281  0.8700  0.8012  1.8813
   65MOL0     H 8964   8.652   9.506   9.275 -0.3125  0.3156  0.1610
   65MOL0     H 8965   8.749   9.436   9.149  2.3112 -0.9658  0.6136
   65MOL0     H 8966   9.029   9.661   9.404  0.9042 -0.8388 -0.0161
   65MOL0     H 8967   8.602   9.056   9.060 -0.2189  4.1098 -0.2992
   65MOL0     H 8968   8.553   9.020   8.747  1.0851  1.2585  0.9369
   65MOL0     H 8969   8.678   8.972   8.865 -0.1079 -0.8031  0.3091
   65MOL0     H 8970   8.581   8.843   8.789  0.9763 -0.3633  0.4903
   66MOL0     O 8971   1.231   2.557   9.162 -0.4614 -0.3219 -0.2162
   66MOL0     C 8972   1.110   2.518   9.143 -0.2419  0.5761  0.3918
   66MOL0     O 8973   1.024   2.475   9.243 -0.4761 -0.2537  0.6851
   66MOL0     C 8974   1.034   2.526   9.369 -0.0428  0.0454  0.1262
   66MOL0     C 8975   1.081   2.657   9.404 -0.0963  0.2963 -0.5989
   66MOL0     C 8976   1.092   2.703   9.535  1.3060  0.0197  0.3537
   66MOL0     C 8977   1.035   2.628   9.640  0.1761  0.0297 -0.6392
   66MOL0     O 8978   1.036   2.659   9.770  0.8489  0.1688  0.2467
   66MOL0     C 8979   1.088   2.795   9.805 -0.1838  0.6053  0.3363
   66MOL0     C 8980   1.017   2.926   9.765  0.3231 -0.2752  0.6029
   66MOL0     C 8981   0.865   2.928   9.810  0.6620 -0.1875 -0.3778
   66MOL0     C 8982   0.829   2.941   9.962  0.7121  0.0362  0.8634
   66MOL0     C 8983   0.890   3.077  10.009  0.7522 -0.4634  0.0434
   66MOL0     C 8984   1.023   3.045  10.081 -0.3651 -0.4930 -0.6681
   66MOL0     C 8985   1.087   3.180  10.129 -0.3282 -0.5867 -0.1761
   66MOL0     C 8986   1.194   3.232  10.029 -0.0229  0.0845  0.4718
   66MOL0     N 8987   1.254   3.359  10.069 -0.0776 -0.0673 -0.4717
   66MOL0     C 8988   1.321   3.440   9.981 -0.2286 -0.5453  0.0740
   66MOL0     C 8989   1.332   3.559  10.045  0.0090  0.1883  0.7546
   66MOL0     C 8990   1.361   3.696   9.991 -0.2015  0.8869  0.2872
   66MOL0     C 8991   1.271   3.759   9.889  0.7450 -0.3352 -0.1125
   66MOL0     C 8992   1.342   3.859   9.796  0.0712  0.5848  0.6769
   66MOL0     C 8993   1.389   3.991   9.858 -0.2873  0.8171 -0.8406
   66MOL0     O 8994   1.429   4.069   9.750  0.5076  0.3179  0.0173
   66MOL0     C 8995   1.494   4.184   9.792  0.0895 -0.9378 -0.5572
   66MOL0     C 8996   1.529   4.222   9.928 -0.6061 -0.4814 -0.1089
   66MOL0     C 8997   1.595   4.348   9.947 -0.3140 -0.1713  0.0380
   66MOL0     C 8998   1.602   4.408  10.082 -1.6752  0.6166 -1.0450
   66MOL0     C 8999   1.633   4.428   9.831 -0.5057 -0.6002 -0.8424
   66MOL0     C 9000   1.676   4.574   9.842 -0.7308  0.6064  0.0451
   66MOL0     O 9001   1.625   4.648   9.945 -0.1057 -0.4717  0.1821
   66MOL0     C 9002   1.647   4.779   9.945 -0.5694 -0.3187  0.1427
   66MOL0     C 9003   1.753   4.828  10.030 -0.5895  0.6273  0.1409
   66MOL0     C 9004   1.771   4.963  10.043 -0.1251  0.0839 -0.1985
   66MOL0     C 9005   1.701   5.055   9.970  1.4771 -0.2626 -0.7366
   66MOL0     O 9006   1.725   5.188   9.985  0.9598 -1.0293 -0.5224
   66MOL0     C 9007   1.639   5.286   9.925 -0.6056 -0.5113 -0.6923
   66MOL0     C 9008   1.651   5.415   9.996 -0.2883 -0.0658  0.1293
   66MOL0     C 9009   1.554   5.528   9.947 -0.5908 -0.0314  0.4448
   66MOL0     C 9010   1.422   5.520  10.017 -0.3580 -0.0313 -0.3415
   66MOL0     C 9011   1.338   5.649   9.995 -0.8683 -0.5915  0.7318
   66MOL0     C 9012   1.206   5.638  10.068  0.2349 -0.4755 -0.7912
   66MOL0     C 9013   1.130   5.776  10.050 -0.3442 -0.0153 -0.1471
   66MOL0     C 9014   0.981   5.746  10.091 -0.0168  0.4244  0.5627
   66MOL0    Cl 9015   0.956   5.724  10.271 -0.0506  0.0838  0.2348
   66MOL0     C 9016   1.615   5.003   9.878 -0.4541  0.7179  0.0876
   66MOL0     C 9017   1.589   4.870   9.855 -0.9495  0.3789 -0.1306
   66MOL0     O 9018   1.760   4.611   9.757 -0.2672 -0.0730  0.1068
   66MOL0     C 9019   1.608   4.379   9.708 -0.4500 -0.3270 -0.2277
   66MOL0     C 9020   1.536   4.260   9.687 -1.1887 -0.2914 -0.0157
   66MOL0     N 9021   1.287   3.544  10.175  0.0007 -1.0826 -0.2444
   66MOL0     N 9022   1.232   3.433  10.188  0.4375 -0.2052 -0.3182
   66MOL0     C 9023   0.993   2.497   9.603 -0.1962 -0.8146  0.7002
   66MOL0     C 9024   0.989   2.448   9.475  0.4343  0.1157  1.3843
   66MOL0     C 9025   1.058   2.517   9.008 -0.1983 -0.0494 -0.6265
   66MOL0     C 9026   0.941   2.434   8.991 -0.7779  0.9540 -0.0038
   66MOL0     C 9027   0.859   2.428   8.877 -1.0112 -0.3494  1.0046
   66MOL0     C 9028   0.894   2.515   8.771 -0.4386  0.2515  0.3950
   66MOL0     O 9029   0.820   2.501   8.652 -0.8638 -0.2149  1.1052
   66MOL0     C 9030   0.879   2.496   8.520  0.7499  0.0668 -0.3427
   66MOL0     C 9031   0.969   2.382   8.490 -0.3820 -0.0722 -0.9405
   66MOL0     C 9032   0.886   2.257   8.467 -0.5938 -0.9736  0.0146
   66MOL0     C 9033   0.948   2.139   8.542 -0.5744  1.1430  0.7452
   66MOL0     C 9034   0.892   2.003   8.512 -0.2625  0.0789 -0.0760
   66MOL0     C 9035   0.854   1.887   8.482  0.8303 -0.6527 -0.2731
   66MOL0     C 9036   1.011   2.605   8.781  0.2023 -0.4796  0.6750
   66MOL0     C 9037   1.090   2.598   8.902  0.3225 -0.0014 -0.4784
   66MOL0     C 9038   1.193   2.710   8.921  0.0973  0.1354  0.4783
   66MOL0     H 9039   1.116   2.724   9.327  1.6775  1.6033  1.2334
   66MOL0     H 9040   1.137   2.802   9.544 -0.3587  0.9100 -0.5694
   66MOL0     H 9041   1.193   2.803   9.776 -0.1093 -0.7099  0.1463
   66MOL0     H 9042   1.103   2.797   9.913 -0.2270  1.8406  0.3277
   66MOL0     H 9043   1.077   3.006   9.809  1.2832 -2.1695  3.0088
   66MOL0     H 9044   1.015   2.921   9.656 -0.0559 -2.0325  0.6646
   66MOL0     H 9045   0.818   3.010   9.754 -0.0493 -0.8118 -0.7170
   66MOL0     H 9046   0.813   2.840   9.770  0.2389 -0.3684  0.5393
   66MOL0     H 9047   0.721   2.933   9.971  0.5664 -0.9333 -1.2900
   66MOL0     H 9048   0.866   2.851  10.012  2.6408  0.7789  0.8744
   66MOL0     H 9049   0.826   3.128  10.081  1.9683  0.4522  0.5266
   66MOL0     H 9050   0.908   3.142   9.922 -0.2357 -0.8227 -0.4354
   66MOL0     H 9051   0.989   2.982  10.163 -1.2806 -1.4271 -1.7500
   66MOL0     H 9052   1.098   2.983  10.031 -0.6249 -2.7027  1.5122
   66MOL0     H 9053   1.147   3.177  10.221  0.8430 -1.6962 -0.9371
   66MOL0     H 9054   1.006   3.253  10.136 -0.2578 -0.4779 -0.4891
   66MOL0     H 9055   1.277   3.164  10.010 -1.1302 -1.3598  0.6362
   66MOL0     H 9056   1.139   3.241   9.935  2.9048  1.4400 -1.2441
   66MOL0     H 9057   1.342   3.422   9.876 -0.0716  0.4050 -0.0680
   66MOL0     H 9058   1.457   3.685   9.940 -0.5978  0.0835 -0.3209
   66MOL0     H 9059   1.369   3.770  10.072  0.1806  0.1311  0.9560
   66MOL0     H 9060   1.230   3.683   9.822 -0.3903  0.1147  0.0519
   66MOL0     H 9061   1.188   3.814   9.934  0.5058  1.4837 -2.5660
   66MOL0     H 9062   1.419   3.808   9.737  0.1716  1.5122 -0.0028
   66MOL0     H 9063   1.276   3.887   9.713  2.2773  2.1799 -0.6710
   66MOL0     H 9064   1.315   4.046   9.916 -1.7599 -0.1285 -1.7647
   66MOL0     H 9065   1.472   3.965   9.925 -2.0813  0.5426  1.4246
   66MOL0     H 9066   1.501   4.164  10.015  0.3975 -2.9200 -1.3221
   66MOL0     H 9067   1.527   4.487  10.095 -1.5672  0.4893  0.4847
   66MOL0     H 9068   1.700   4.453  10.102 -0.5528 -1.6436 -1.1265
   66MOL0     H 9069   1.585   4.336  10.162  1.1170  1.9413  0.8704
   66MOL0     H 9070   1.809   4.766  10.099 -5.4117 -1.7987  2.4036
   66MOL0     H 9071   1.835   4.999  10.123 -1.1312  2.5749 -0.4077
   66MOL0     H 9072   1.657   5.308   9.819  1.8066 -0.3137 -0.2953
   66MOL0     H 9073   1.539   5.245   9.945 -0.8202 -0.5088 -1.6965
   66MOL0     H 9074   1.645   5.395  10.103  1.2038  1.6464  0.5828
   66MOL0     H 9075   1.751   5.458   9.992  0.0322 -0.7336  0.7338
   66MOL0     H 9076   1.544   5.526   9.838 -1.1090 -0.3294  0.4910
   66MOL0     H 9077   1.600   5.623   9.972 -0.7354 -0.4482  2.4567
   66MOL0     H 9078   1.426   5.504  10.126 -1.0649  1.0707 -0.1368
   66MOL0     H 9079   1.368   5.429   9.992  1.0161 -0.5915 -1.3394
   66MOL0     H 9080   1.394   5.741  10.013  1.2308 -1.6866  0.2624
   66MOL0     H 9081   1.320   5.646   9.887  1.8481 -1.6333  0.2196
   66MOL0     H 9082   1.214   5.628  10.176 -1.5904  2.1377 -0.3401
   66MOL0     H 9083   1.155   5.553  10.022  1.8336 -0.5744 -2.5478
   66MOL0     H 9084   1.142   5.810   9.947 -0.0474  0.1464 -0.0589
   66MOL0     H 9085   1.179   5.839  10.124  0.5749 -0.6493 -0.1919
   66MOL0     H 9086   0.958   5.660  10.027  1.7860  0.2087  0.1362
   66MOL0     H 9087   0.907   5.821  10.061  0.1438  1.6588  3.0237
   66MOL0     H 9088   1.561   5.072   9.814  2.3087  3.2709  0.2890
   66MOL0     H 9089   1.517   4.831   9.784  1.3221  1.5174 -3.2976
   66MOL0     H 9090   1.636   4.443   9.625 -0.6852 -1.2280 -1.0231
   66MOL0     H 9091   1.518   4.229   9.585 -0.4755 -1.8166  0.3002
   66MOL0     H 9092   0.956   2.439   9.687 -1.9500  1.1260  1.3587
   66MOL0     H 9093   0.938   2.355   9.454 -0.7723  1.3771 -1.8850
   66MOL0     H 9094   0.901   2.368   9.067 -2.5765 -0.0036 -1.6998
   66MOL0     H 9095   0.773   2.364   8.861 -1.5098  0.7135 -0.9961
   66MOL0     H 9096   0.796   2.496   8.449 -0.4405  0.6057  0.9994
   66MOL0     H 9097   0.930   2.592   8.511 -2.9146  2.4800  1.9664
   66MOL0     H 9098   1.039   2.371   8.573 -0.3460 -3.2659 -1.2891
   66MOL0     H 9099   1.033   2.398   8.403  1.5153  0.2084  0.4450
   66MOL0     H 9100   0.783   2.261   8.504 -0.5460 -1.8029  0.2555
   66MOL0     H 9101   0.883   2.241   8.359  1.4120  0.5308 -0.3223
   66MOL0     H 9102   0.945   2.149   8.651 -0.1577  0.5059  0.8196
   66MOL0     H 9103   1.052   2.137   8.509 -1.0442 -1.2245 -0.8919
   66MOL0     H 9104   0.819   1.792   8.446 -3.6413 -0.2449  2.1758
   66MOL0     H 9105   1.026   2.681   8.706 -1.7845 -2.8953 -2.4294
   66MOL0     H 9106   1.293   2.667   8.911  1.2161  2.5539  0.5074
   66MOL0     H 9107   1.189   2.791   8.848 -0.8504  0.7973  1.2293
   66MOL0     H 9108   1.189   2.754   9.021 -0.5942 -3.5987  2.2917
   67MOL0     O 9109   4.672   7.218   6.589  0.0446  0.4298  0.3585
   67MOL0     C 9110   4.673   7.276   6.698  0.4205 -0.3320 -0.2227
   67MOL0     O 9111   4.660   7.413   6.708  0.5212 -0.2079  0.3003
   67MOL0     C 9112   4.675   7.495   6.596 -1.1304 -0.2362  0.1785
   67MOL0     C 9113   4.759   7.470   6.481 -0.3430 -0.3618  0.2174
   67MOL0     C 9114   4.757   7.560   6.375  0.0194  0.7515  0.1631
   67MOL0     C 9115   4.695   7.683   6.381  0.4797 -1.1825  0.4830
   67MOL0     O 9116   4.695   7.780   6.280  0.0842  0.6033 -0.4854
   67MOL0     C 9117   4.810   7.799   6.203  1.1139 -0.2225 -0.3092
   67MOL0     C 9118   4.776   7.908   6.105  0.5988 -0.4467 -0.5012
   67MOL0     C 9119   4.790   7.881   5.950  0.8107 -0.2301 -0.4097
   67MOL0     C 9120   4.919   7.817   5.914 -1.2708  1.1623  0.3757
   67MOL0     C 9121   4.942   7.798   5.768  0.0490  0.7756  1.2459
   67MOL0     C 9122   5.057   7.704   5.740 -0.6789 -0.3784  0.7462
   67MOL0     C 9123   5.032   7.601   5.619  0.2087  0.6798  0.1834
   67MOL0     C 9124   5.166   7.544   5.574  0.6799  0.0119 -0.1274
   67MOL0     N 9125   5.130   7.425   5.502  0.0790  0.6061  0.4325
   67MOL0     C 9126   5.104   7.305   5.554  0.6418  0.1596 -0.4289
   67MOL0     C 9127   5.065   7.222   5.452  0.9112 -0.9737  0.4888
   67MOL0     C 9128   5.030   7.085   5.453 -0.2153  0.1795 -0.6289
   67MOL0     C 9129   5.152   6.988   5.452 -0.4941  0.0236 -0.3921
   67MOL0     C 9130   5.100   6.843   5.439  0.2425 -0.1262 -0.1379
   67MOL0     C 9131   5.223   6.745   5.461  0.7298  0.4105 -1.0595
   67MOL0     O 9132   5.286   6.759   5.584 -0.0578 -0.0912 -0.5150
   67MOL0     C 9133   5.408   6.809   5.605 -0.2272 -0.2622 -0.1036
   67MOL0     C 9134   5.518   6.767   5.513 -0.0190 -0.2530 -0.1178
   67MOL0     C 9135   5.652   6.787   5.550  0.0913 -0.2485  0.3670
   67MOL0     C 9136   5.765   6.739   5.460 -0.9587 -0.7013 -0.1344
   67MOL0     C 9137   5.679   6.849   5.678 -0.5128 -0.0821 -0.7339
   67MOL0     C 9138   5.815   6.872   5.730 -0.4499 -0.3578 -0.5079
   67MOL0     O 9139   5.842   6.832   5.857 -0.3186 -0.5305  0.0914
   67MOL0     C 9140   5.975   6.814   5.911  0.0899  0.5039  0.3582
   67MOL0     C 9141   6.071   6.909   5.897  0.1723 -0.5099 -1.1621
   67MOL0     C 9142   6.198   6.884   5.958  0.4670  0.7236 -0.3965
   67MOL0     C 9143   6.221   6.767   6.030  0.3981 -0.5033 -0.6508
   67MOL0     O 9144   6.346   6.728   6.093  0.8489 -0.6189  0.1163
   67MOL0     C 9145   6.454   6.816   6.080  0.0675 -0.3477 -0.4262
   67MOL0     C 9146   6.576   6.741   6.137  0.5546 -0.7625  0.5800
   67MOL0     C 9147   6.703   6.820   6.097  0.9504  0.2948 -0.8672
   67MOL0     C 9148   6.835   6.774   6.177 -0.2302 -0.3943 -0.1916
   67MOL0     C 9149   6.975   6.828   6.131  1.0757  0.3833 -0.1317
   67MOL0     C 9150   7.098   6.776   6.202 -1.3485  0.8473  0.1569
   67MOL0     C 9151   7.152   6.649   6.147 -1.3808 -0.2471 -0.1366
   67MOL0     C 9152   7.298   6.639   6.186  0.2013  1.1180 -0.5493
   67MOL0    Cl 9153   7.412   6.752   6.095  0.3590 -0.5006  0.0094
   67MOL0     C 9154   6.108   6.675   6.051  0.1778 -0.2179 -0.9429
   67MOL0     C 9155   5.984   6.703   5.989  0.2348  0.0499 -0.7988
   67MOL0     O 9156   5.892   6.927   5.652  0.1112 -0.6446 -0.2695
   67MOL0     C 9157   5.571   6.881   5.762  0.6812  1.3417  0.0577
   67MOL0     C 9158   5.443   6.871   5.725  0.4124 -0.3982 -0.0252
   67MOL0     N 9159   5.072   7.294   5.337 -0.2567 -0.6183 -0.1516
   67MOL0     N 9160   5.116   7.415   5.361  0.2835 -0.0693 -0.5502
   67MOL0     C 9161   4.609   7.709   6.493 -0.0976  0.5174  1.1895
   67MOL0     C 9162   4.598   7.616   6.594 -0.2638  0.6893  0.7833
   67MOL0     C 9163   4.701   7.210   6.828 -0.0675 -0.3563 -0.3981
   67MOL0     C 9164   4.617   7.230   6.943  0.3718  0.0945 -0.1467
   67MOL0     C 9165   4.636   7.161   7.064 -0.9792  1.1749 -0.2353
   67MOL0     C 9166   4.750   7.073   7.075  0.3532  0.8424 -0.0748
   67MOL0     O 9167   4.756   7.017   7.194  0.7596  0.2191  0.3481
   67MOL0     C 9168   4.687   6.893   7.213 -0.9510  0.0826 -0.0135
   67MOL0     C 9169   4.788   6.790   7.219  0.3329 -0.0190  0.5134
   67MOL0     C 9170   4.863   6.799   7.356  0.4672 -0.4173 -0.9894
   67MOL0     C 9171   4.984   6.699   7.359 -0.0139 -0.4427  0.2300
   67MOL0     C 9172   5.055   6.692   7.484  0.3243 -0.4390  1.1015
   67MOL0     C 9173   5.118   6.691   7.585 -0.3059  0.3990 -0.4543
   67MOL0     C 9174   4.827   7.053   6.965 -0.5306 -1.2820  0.3479
   67MOL0     C 9175   4.815   7.127   6.851 -0.1393  0.1813  0.3826
   67MOL0     C 9176   4.914   7.104   6.733 -0.7829  0.4441 -0.7110
   67MOL0     H 9177   4.809   7.374   6.472  1.5050  0.5811 -0.0473
   67MOL0     H 9178   4.789   7.537   6.274 -3.3785 -0.8086 -0.6917
   67MOL0     H 9179   4.841   7.711   6.146  3.3898  0.1379  0.2545
   67MOL0     H 9180   4.896   7.831   6.264  0.2879  0.8745  0.3116
   67MOL0     H 9181   4.674   7.945   6.120  0.6306 -0.9989  1.3358
   67MOL0     H 9182   4.837   7.997   6.123  0.0143  0.8258 -4.0017
   67MOL0     H 9183   4.708   7.817   5.916  2.2872 -1.6529 -1.4326
   67MOL0     H 9184   4.783   7.978   5.899 -2.2953 -1.2094 -2.1469
   67MOL0     H 9185   5.007   7.865   5.958  0.6611 -0.1555 -1.7879
   67MOL0     H 9186   4.899   7.713   5.942 -2.6552  1.2020 -0.3930
   67MOL0     H 9187   4.973   7.894   5.726 -1.7812  1.7713  2.0305
   67MOL0     H 9188   4.846   7.760   5.731  1.1588  0.0876 -1.1437
   67MOL0     H 9189   5.141   7.774   5.729 -1.2491  0.3646  0.9877
   67MOL0     H 9190   5.071   7.634   5.822 -2.2626 -2.2826 -0.4938
   67MOL0     H 9191   4.980   7.653   5.539  2.4161 -3.7716 -4.7605
   67MOL0     H 9192   4.965   7.520   5.649  1.0680 -1.2953 -2.8306
   67MOL0     H 9193   5.220   7.626   5.525 -1.6398  0.1748 -2.6110
   67MOL0     H 9194   5.227   7.505   5.656  0.2765 -0.5664 -0.0984
   67MOL0     H 9195   5.109   7.286   5.661  2.9237 -0.5583 -0.6143
   67MOL0     H 9196   4.965   7.059   5.369 -0.7953 -0.2246 -0.0655
   67MOL0     H 9197   4.976   7.077   5.548 -0.5739  1.8852 -0.6573
   67MOL0     H 9198   5.222   7.011   5.372  3.1937 -4.0674  1.2273
   67MOL0     H 9199   5.207   7.007   5.545  3.4568 -3.3027 -1.7159
   67MOL0     H 9200   5.026   6.833   5.518  1.9167  0.2855  1.5590
   67MOL0     H 9201   5.046   6.837   5.344  0.5613  3.2938 -0.6444
   67MOL0     H 9202   5.186   6.642   5.455 -2.7431  1.5436 -1.6194
   67MOL0     H 9203   5.292   6.762   5.378  3.2626  1.8076  1.1901
   67MOL0     H 9204   5.496   6.699   5.432  1.0533 -3.0118  1.7891
   67MOL0     H 9205   5.842   6.816   5.443 -3.2961  1.5865 -1.1697
   67MOL0     H 9206   5.732   6.714   5.359 -2.0499 -0.2430  0.0911
   67MOL0     H 9207   5.815   6.648   5.494 -1.8546 -0.6322  1.4678
   67MOL0     H 9208   6.054   6.998   5.836 -1.7705 -1.1293 -1.5974
   67MOL0     H 9209   6.263   6.970   5.943 -0.6036  1.6533  0.1537
   67MOL0     H 9210   6.458   6.831   5.972 -3.6855 -2.2225 -0.9919
   67MOL0     H 9211   6.439   6.916   6.120 -3.6666  0.0741 -2.4155
   67MOL0     H 9212   6.580   6.741   6.246  0.1730  1.6112  0.6444
   67MOL0     H 9213   6.584   6.641   6.092  0.9591 -1.0856  1.3467
   67MOL0     H 9214   6.687   6.927   6.113 -3.6811 -0.5007  1.4887
   67MOL0     H 9215   6.714   6.802   5.990  3.3564 -2.9352 -0.2410
   67MOL0     H 9216   6.848   6.666   6.171  1.0654 -0.4779  2.5815
   67MOL0     H 9217   6.821   6.815   6.277  2.1301 -0.4215  0.2267
   67MOL0     H 9218   6.975   6.810   6.023 -0.4765 -0.6803  0.0182
   67MOL0     H 9219   6.979   6.936   6.144  0.3900  0.4226 -0.2168
   67MOL0     H 9220   7.083   6.789   6.310  1.2738  0.5645  0.6407
   67MOL0     H 9221   7.177   6.850   6.187  0.2741 -0.6959  0.7595
   67MOL0     H 9222   7.150   6.652   6.038 -1.6637  0.6849 -0.1124
   67MOL0     H 9223   7.086   6.566   6.173 -4.6533  2.4732  1.0391
   67MOL0     H 9224   7.332   6.539   6.157  1.5608  1.5311 -0.4470
   67MOL0     H 9225   7.313   6.657   6.293 -4.1797 -0.3077  0.4935
   67MOL0     H 9226   6.121   6.593   6.120  0.6670 -0.1868 -0.9985
   67MOL0     H 9227   5.902   6.632   5.990  1.1678 -1.2444 -3.6826
   67MOL0     H 9228   5.568   6.914   5.865 -0.7699  0.2372  0.4064
   67MOL0     H 9229   5.360   6.898   5.789  0.8685 -0.3095  0.5353
   67MOL0     H 9230   4.548   7.798   6.484  2.6259  2.2989 -1.9234
   67MOL0     H 9231   4.529   7.624   6.678  1.5972 -0.2008  2.4819
   67MOL0     H 9232   4.531   7.295   6.926 -1.0694 -1.5730  0.4917
   67MOL0     H 9233   4.578   7.189   7.151 -1.5043  1.6642 -0.7324
   67MOL0     H 9234   4.636   6.911   7.308 -0.9529  0.6887 -0.1239
   67MOL0     H 9235   4.615   6.863   7.137 -1.7831 -0.7951  1.0947
   67MOL0     H 9236   4.852   6.801   7.131  0.4913 -1.2738  0.4466
   67MOL0     H 9237   4.741   6.691   7.214  1.5828 -0.7098  1.7058
   67MOL0     H 9238   4.902   6.900   7.366  0.9009 -0.7151  0.7615
   67MOL0     H 9239   4.799   6.770   7.440  1.2547 -1.8792 -0.8570
   67MOL0     H 9240   5.051   6.718   7.274 -1.4930 -1.4793 -1.2445
   67MOL0     H 9241   4.950   6.599   7.331  1.8187 -1.5236  1.6149
   67MOL0     H 9242   5.188   6.692   7.666 -1.3322 -2.2223  0.5924
   67MOL0     H 9243   4.916   6.991   6.974 -1.0578 -2.0960  0.0924
   67MOL0     H 9244   5.005   7.063   6.778 -1.8034 -0.5654  0.5347
   67MOL0     H 9245   4.870   7.032   6.663 -2.0888  0.0545  0.4616
   67MOL0     H 9246   4.946   7.194   6.681  0.5366  0.6108  0.3222
   68MOL0     O 9247   9.847   3.391   4.425 -0.3389  0.1589  0.6167
   68MOL0     C 9248   9.908   3.288   4.467 -0.3735  0.6144  0.0425
   68MOL0     O 9249   9.852   3.182   4.528 -0.1089 -0.8179  0.5056
   68MOL0     C 9250   9.721   3.185   4.566  0.3170  0.3917 -0.4151
   68MOL0     C 9251   9.687   3.150   4.695  0.0346 -0.0454  0.0762
   68MOL0     C 9252   9.549   3.139   4.737  0.1916  0.7833  0.8847
   68MOL0     C 9253   9.445   3.191   4.657  0.2593 -0.8000  0.6569
   68MOL0     O 9254   9.316   3.189   4.700 -0.3523  0.6176 -0.1281
   68MOL0     C 9255   9.219   3.194   4.591 -0.3356 -0.0416 -0.4307
   68MOL0     C 9256   9.083   3.148   4.640 -1.7692  0.2183 -0.0326
   68MOL0     C 9257   9.019   3.239   4.752  0.8036 -0.5303 -0.0958
   68MOL0     C 9258   8.926   3.340   4.695 -0.0319  0.3320 -0.6019
   68MOL0     C 9259   8.839   3.416   4.806  0.2153  0.1461  0.5445
   68MOL0     C 9260   8.703   3.357   4.850  0.5316 -0.4031  0.0854
   68MOL0     C 9261   8.622   3.463   4.926  0.6544 -0.0480 -0.4497
   68MOL0     C 9262   8.547   3.573   4.835  0.4345  0.6940 -0.8102
   68MOL0     N 9263   8.489   3.664   4.938  0.3193  0.0378  0.0805
   68MOL0     C 9264   8.383   3.643   5.022  0.7296 -0.9787  0.0782
   68MOL0     C 9265   8.373   3.755   5.099 -0.9638 -1.0643 -0.1418
   68MOL0     C 9266   8.269   3.785   5.210 -1.2868  0.1124 -0.0566
   68MOL0     C 9267   8.332   3.856   5.337 -0.1571  0.1286  1.1726
   68MOL0     C 9268   8.215   3.885   5.430  1.4340 -0.6384  0.5840
   68MOL0     C 9269   8.265   3.929   5.580 -0.2006 -0.0017  0.9258
   68MOL0     O 9270   8.329   4.057   5.570 -0.2477  1.1741 -0.8211
   68MOL0     C 9271   8.391   4.107   5.674  0.6506 -0.5470  0.5681
   68MOL0     C 9272   8.384   4.058   5.798 -0.5283 -0.3766  0.5119
   68MOL0     C 9273   8.433   4.118   5.909 -1.2489  0.3291  0.0391
   68MOL0     C 9274   8.425   4.046   6.040 -0.1281 -0.3399  0.1554
   68MOL0     C 9275   8.500   4.243   5.885 -0.0714  0.0968  0.1346
   68MOL0     C 9276   8.596   4.305   5.986  0.1107  0.8136  0.0253
   68MOL0     O 9277   8.586   4.266   6.116 -0.4167  0.3054  0.1979
   68MOL0     C 9278   8.675   4.331   6.202  0.3477 -0.2165 -0.3022
   68MOL0     C 9279   8.810   4.280   6.208 -0.2500 -0.2400 -0.3740
   68MOL0     C 9280   8.911   4.339   6.286  0.9841  0.1313  0.1060
   68MOL0     C 9281   8.885   4.465   6.335  0.1616  0.7540 -0.3012
   68MOL0     O 9282   8.988   4.511   6.414  0.4045  0.4724  0.2842
   68MOL0     C 9283   8.963   4.569   6.544  0.5043  0.6499 -1.3247
   68MOL0     C 9284   9.095   4.627   6.598  0.1937 -0.3354  1.2228
   68MOL0     C 9285   9.088   4.676   6.739 -0.4767 -1.0411 -0.7699
   68MOL0     C 9286   9.153   4.579   6.840 -0.2386 -0.8291  0.7103
   68MOL0     C 9287   9.148   4.626   6.982 -0.1635 -0.0628  0.4967
   68MOL0     C 9288   9.239   4.749   7.010 -0.0190 -0.8387 -0.3905
   68MOL0     C 9289   9.311   4.723   7.150  0.0509 -0.5668 -0.3591
   68MOL0     C 9290   9.363   4.858   7.198  0.3393 -0.0532  0.0802
   68MOL0    Cl 9291   9.456   4.840   7.340 -0.2448 -0.2413  0.3781
   68MOL0     C 9292   8.753   4.524   6.336  0.7297  0.0935 -0.1267
   68MOL0     C 9293   8.649   4.450   6.270  0.1470 -0.9988  0.2618
   68MOL0     O 9294   8.686   4.382   5.948 -0.1480 -0.8780  0.8268
   68MOL0     C 9295   8.493   4.305   5.759  0.5519 -0.2271  0.4777
   68MOL0     C 9296   8.430   4.240   5.652  0.5005 -0.3018 -0.2763
   68MOL0     N 9297   8.469   3.845   5.056 -0.4193  0.0594 -0.1124
   68MOL0     N 9298   8.539   3.778   4.962  0.0578 -1.1130 -0.4116
   68MOL0     C 9299   9.478   3.232   4.522 -0.7854  0.7378 -0.3621
   68MOL0     C 9300   9.615   3.218   4.476  0.7391  0.1408  0.6609
   68MOL0     C 9301  10.057   3.296   4.456  0.1007 -1.3340 -0.4386
   68MOL0     C 9302  10.125   3.189   4.501  0.1407  0.7960 -0.5191
   68MOL0     C 9303  10.259   3.168   4.513  0.6722  0.0690  0.5313
   68MOL0     C 9304  10.340   3.277   4.478 -0.7669  0.0283  0.4091
   68MOL0     O 9305  10.478   3.252   4.501  0.0650  0.2840 -0.2348
   68MOL0     C 9306  10.556   3.360   4.564 -0.2861  0.3054  0.9357
   68MOL0     C 9307  10.644   3.413   4.451  0.2351 -0.2369  1.3543
   68MOL0     C 9308  10.790   3.415   4.490  1.0856  0.0914  0.1034
   68MOL0     C 9309  10.867   3.508   4.404  0.3506 -0.5503  1.6226
   68MOL0     C 9310  10.852   3.475   4.254  1.0588  0.6298  0.1886
   68MOL0     C 9311  10.828   3.463   4.135 -0.0492  0.0961 -0.9729
   68MOL0     C 9312  10.289   3.389   4.412  0.8036 -0.3022  0.3762
   68MOL0     C 9313  10.142   3.402   4.409  0.5638  0.3121  0.2652
   68MOL0     C 9314  10.089   3.539   4.350 -0.8020  0.4837 -0.3190
   68MOL0     H 9315   9.770   3.130   4.763  1.7074 -0.3976 -1.9556
   68MOL0     H 9316   9.524   3.100   4.835  2.5021  1.3787  1.7833
   68MOL0     H 9317   9.247   3.134   4.503 -0.3408 -1.2718  0.3915
   68MOL0     H 9318   9.211   3.298   4.556 -1.4789  0.5386  1.4612
   68MOL0     H 9319   9.015   3.146   4.553  0.4555  0.7219 -1.8921
   68MOL0     H 9320   9.096   3.050   4.684  1.5984  0.6055  0.0419
   68MOL0     H 9321   8.978   3.174   4.830 -0.3480 -0.7482 -0.8532
   68MOL0     H 9322   9.094   3.294   4.809  2.1951  0.6994 -2.9022
   68MOL0     H 9323   8.977   3.423   4.645 -2.0282  1.1235 -1.4493
   68MOL0     H 9324   8.859   3.291   4.624  0.3194 -0.9458 -0.0753
   68MOL0     H 9325   8.829   3.514   4.758  2.2924 -0.0613 -0.4269
   68MOL0     H 9326   8.901   3.428   4.895  2.6228 -0.1293 -1.0173
   68MOL0     H 9327   8.651   3.324   4.759 -0.7819 -1.7787  1.2796
   68MOL0     H 9328   8.714   3.265   4.907 -1.1100 -0.3974  0.4488
   68MOL0     H 9329   8.688   3.520   4.993  1.5983 -1.6366  0.0514
   68MOL0     H 9330   8.546   3.419   4.992  1.1215 -1.5227 -0.8571
   68MOL0     H 9331   8.611   3.616   4.757 -0.8771  2.2416 -1.0910
   68MOL0     H 9332   8.477   3.517   4.772 -1.0315  2.5275 -0.9236
   68MOL0     H 9333   8.311   3.562   5.022 -0.1599 -0.2067  0.9373
   68MOL0     H 9334   8.219   3.692   5.238 -2.1805  0.5390 -0.1712
   68MOL0     H 9335   8.199   3.848   5.154 -1.6515 -0.2266  0.0135
   68MOL0     H 9336   8.401   3.782   5.380  0.8133  0.4263  0.1580
   68MOL0     H 9337   8.382   3.950   5.314  0.7977 -0.5267  0.5242
   68MOL0     H 9338   8.150   3.963   5.388 -1.6419 -3.1975  0.1505
   68MOL0     H 9339   8.146   3.800   5.422 -3.1195  2.7603 -0.4402
   68MOL0     H 9340   8.186   3.913   5.653 -0.3870 -1.9393  0.3629
   68MOL0     H 9341   8.341   3.858   5.614 -0.2162 -0.7172 -0.4708
   68MOL0     H 9342   8.351   3.956   5.816  0.5707 -0.5955  1.4062
   68MOL0     H 9343   8.520   3.998   6.066 -0.4644 -1.0148  0.1794
   68MOL0     H 9344   8.346   3.970   6.040 -0.8373  0.3833 -0.2454
   68MOL0     H 9345   8.396   4.120   6.115  0.9362  1.5262 -1.2136
   68MOL0     H 9346   8.827   4.184   6.160  2.1852  0.4240 -0.9981
   68MOL0     H 9347   9.014   4.305   6.298  0.7991 -0.2570  0.6127
   68MOL0     H 9348   8.890   4.649   6.531  0.4419  1.2473  1.8921
   68MOL0     H 9349   8.940   4.493   6.620  4.3738  2.5271  2.1177
   68MOL0     H 9350   9.168   4.545   6.599  0.6604  0.0733  1.7947
   68MOL0     H 9351   9.127   4.710   6.534 -0.2531 -2.3346 -1.7577
   68MOL0     H 9352   8.980   4.689   6.753 -0.1181  3.9620 -0.8416
   68MOL0     H 9353   9.139   4.771   6.754 -0.5725 -1.4024  2.3563
   68MOL0     H 9354   9.260   4.568   6.820 -0.1669 -0.1062  0.6481
   68MOL0     H 9355   9.107   4.480   6.841 -3.0057  0.3376  1.3066
   68MOL0     H 9356   9.046   4.645   7.017  0.9601  1.5009  3.2524
   68MOL0     H 9357   9.171   4.542   7.048  0.9689  2.0987  3.0440
   68MOL0     H 9358   9.180   4.841   7.008 -0.2617 -0.9991 -0.8230
   68MOL0     H 9359   9.315   4.758   6.932 -0.6590 -0.9921 -1.0466
   68MOL0     H 9360   9.387   4.648   7.127  0.2310  0.0655 -1.9326
   68MOL0     H 9361   9.240   4.682   7.223 -1.5032  2.0015 -0.3083
   68MOL0     H 9362   9.284   4.931   7.218  0.9039  0.1719  1.5970
   68MOL0     H 9363   9.431   4.899   7.123 -1.4602  0.7742 -1.1772
   68MOL0     H 9364   8.725   4.606   6.402 -1.3272  0.1822 -1.0232
   68MOL0     H 9365   8.548   4.489   6.262 -0.1960 -1.9822 -0.3202
   68MOL0     H 9366   8.537   4.404   5.753 -2.3269  1.1396 -0.2692
   68MOL0     H 9367   8.432   4.277   5.550  4.1907 -0.4443 -0.3880
   68MOL0     H 9368   9.406   3.259   4.445 -0.4324  0.8542 -0.6558
   68MOL0     H 9369   9.644   3.229   4.372 -1.5859 -1.4488 -0.2474
   68MOL0     H 9370  10.067   3.102   4.530  0.9876  0.4827  0.2809
   68MOL0     H 9371  10.288   3.076   4.562  0.0837 -0.1788  0.4235
   68MOL0     H 9372  10.480   3.430   4.601 -1.7325 -1.8276  2.2508
   68MOL0     H 9373  10.611   3.316   4.649 -0.5838  1.2961  1.6613
   68MOL0     H 9374  10.612   3.511   4.415  0.3977  0.5354  3.1962
   68MOL0     H 9375  10.635   3.363   4.354 -1.0407  1.7963  0.3433
   68MOL0     H 9376  10.799   3.449   4.594  2.9262 -3.5024  1.2830
   68MOL0     H 9377  10.826   3.311   4.492 -1.3751 -0.8171  1.2470
   68MOL0     H 9378  10.966   3.482   4.441  0.5505  1.3077  2.4842
   68MOL0     H 9379  10.833   3.610   4.421  0.9038 -0.0347 -0.1354
   68MOL0     H 9380  10.814   3.457   4.029 -0.6089  0.1954 -0.9095
   68MOL0     H 9381  10.354   3.471   4.383 -1.2848  1.2571 -0.1679
   68MOL0     H 9382  10.076   3.600   4.440  0.7061  1.4976 -0.7693
   68MOL0     H 9383  10.163   3.579   4.281 -0.7309  3.5767  1.3917
   68MOL0     H 9384   9.985   3.537   4.317 -1.0085  0.5601  0.3110
   69MOL0     O 9385   8.123   0.081   1.059  0.8233  0.7125 -0.1590
   69MOL0     C 9386   8.156  -0.039   1.074 -0.2799 -0.1682  0.3377
   69MOL0     O 9387   8.073  -0.135   1.112  0.0228  0.4477  0.1679
   69MOL0     C 9388   7.940  -0.111   1.098  1.0423  0.1513  0.3643
   69MOL0     C 9389   7.872  -0.106   0.970 -0.7520 -0.3076 -0.0287
   69MOL0     C 9390   7.739  -0.087   0.963 -0.3505 -0.0416  0.2820
   69MOL0     C 9391   7.660  -0.085   1.072 -0.2162 -0.4717 -0.6230
   69MOL0     O 9392   7.529  -0.064   1.067  0.3267 -0.6699  0.1515
   69MOL0     C 9393   7.446  -0.111   0.957 -0.0627 -0.6037  0.2309
   69MOL0     C 9394   7.379   0.010   0.879  0.6778  0.5149 -0.4314
   69MOL0     C 9395   7.465   0.135   0.844 -0.1013 -0.5413 -0.3778
   69MOL0     C 9396   7.382   0.229   0.757 -0.2888 -0.1058 -0.3040
   69MOL0     C 9397   7.393   0.179   0.615 -0.4801 -0.0688  0.0294
   69MOL0     C 9398   7.338   0.277   0.513  0.2850 -1.4069 -0.1179
   69MOL0     C 9399   7.408   0.295   0.371  0.1788 -0.8353 -1.5338
   69MOL0     C 9400   7.368   0.186   0.271 -0.6613 -0.9275  0.5975
   69MOL0     N 9401   7.231   0.200   0.229  0.4618 -0.6348  0.2192
   69MOL0     C 9402   7.183   0.300   0.148 -0.1253 -0.3907  0.4223
   69MOL0     C 9403   7.058   0.259   0.126  0.4079  0.2117 -0.1881
   69MOL0     C 9404   6.955   0.332   0.038  0.1513  0.4071 -0.1379
   69MOL0     C 9405   6.909   0.445   0.128  0.3062 -0.2317 -0.0330
   69MOL0     C 9406   6.801   0.408   0.234 -0.0271  0.1434  1.1428
   69MOL0     C 9407   6.749   0.522   0.321  0.2631 -0.3011 -0.3871
   69MOL0     O 9408   6.649   0.480   0.417 -0.4796  0.2889  0.2794
   69MOL0     C 9409   6.680   0.404   0.527 -0.1821 -0.4907  0.1262
   69MOL0     C 9410   6.813   0.372   0.563 -1.1298 -0.4417  0.4238
   69MOL0     C 9411   6.838   0.292   0.678 -1.0195 -0.3474  0.5150
   69MOL0     C 9412   6.973   0.221   0.683 -0.9136  0.1555  0.1457
   69MOL0     C 9413   6.729   0.253   0.763  0.7610  0.4444  0.4070
   69MOL0     C 9414   6.731   0.147   0.870 -0.1642 -0.0411  0.1621
   69MOL0     O 9415   6.618   0.072   0.878 -0.4284 -0.5342 -0.0508
   69MOL0     C 9416   6.603  -0.020   0.978 -0.9598  0.7196 -0.5807
   69MOL0     C 9417   6.609   0.029   1.111  0.4080  0.0545 -0.3291
   69MOL0     C 9418   6.575  -0.053   1.221  0.2819  0.2520 -0.6326
   69MOL0     C 9419   6.501  -0.168   1.204  0.7035  0.9052  0.9399
   69MOL0     O 9420   6.438  -0.226   1.310  0.2492  0.3734 -0.7077
   69MOL0     C 9421   6.321  -0.308   1.286 -0.7896 -0.3733 -0.2887
   69MOL0     C 9422   6.253  -0.345   1.412  0.1748 -0.0169 -0.2455
   69MOL0     C 9423   6.145  -0.452   1.384  0.0064 -0.4859  0.3632
   69MOL0     C 9424   6.053  -0.493   1.504 -1.2983 -0.5584  0.2079
   69MOL0     C 9425   5.979  -0.632   1.463  0.9676 -0.4038  0.2190
   69MOL0     C 9426   5.982  -0.719   1.581  0.5422 -0.1123  0.1539
   69MOL0     C 9427   6.119  -0.807   1.590  0.2973 -0.0278 -0.3185
   69MOL0     C 9428   6.109  -0.954   1.537  0.5354 -0.2379 -0.7832
   69MOL0    Cl 9429   5.985  -1.043   1.626  0.0612  0.3941  0.1218
   69MOL0     C 9430   6.491  -0.217   1.077 -0.3100  0.9370 -0.5233
   69MOL0     C 9431   6.549  -0.156   0.972 -0.7933  0.1478  0.5897
   69MOL0     O 9432   6.830   0.135   0.935 -0.0893 -0.3066  0.2168
   69MOL0     C 9433   6.600   0.300   0.723 -0.0027  0.6088  0.3293
   69MOL0     C 9434   6.572   0.369   0.607 -0.0565  0.5794 -0.2337
   69MOL0     N 9435   7.028   0.147   0.195  0.5395 -0.0997 -1.0236
   69MOL0     N 9436   7.133   0.112   0.266  0.5445  0.1918 -0.3251
   69MOL0     C 9437   7.719  -0.103   1.201  0.3406  0.0591 -0.3410
   69MOL0     C 9438   7.859  -0.116   1.214 -0.3232  0.1616 -0.8688
   69MOL0     C 9439   8.301  -0.059   1.071  0.3821 -0.1071 -0.0306
   69MOL0     C 9440   8.391   0.033   1.130  0.4934 -0.1028 -0.1530
   69MOL0     C 9441   8.530   0.006   1.124 -0.0581 -0.5469 -0.0482
   69MOL0     C 9442   8.586  -0.103   1.051  0.8008  0.8719 -0.4724
   69MOL0     O 9443   8.718  -0.129   1.056 -0.1940 -0.0926  0.4468
   69MOL0     C 9444   8.782  -0.113   1.184 -0.3488 -0.3119  0.5418
   69MOL0     C 9445   8.788  -0.251   1.249  0.4624 -0.6515 -0.6767
   69MOL0     C 9446   8.670  -0.266   1.352 -0.4375 -0.9832 -0.0551
   69MOL0     C 9447   8.662  -0.411   1.414  0.3009 -0.1408  0.3842
   69MOL0     C 9448   8.781  -0.467   1.485 -0.4052 -0.6445  0.6930
   69MOL0     C 9449   8.883  -0.529   1.524  0.9002  0.1271 -0.7286
   69MOL0     C 9450   8.498  -0.179   0.968 -0.0150  0.3450 -0.1603
   69MOL0     C 9451   8.358  -0.158   0.993  0.5077  1.0535 -0.0520
   69MOL0     C 9452   8.273  -0.261   0.917 -0.5636 -0.6541 -0.6268
   69MOL0     H 9453   7.925  -0.113   0.875 -1.2465 -1.5192 -0.2425
   69MOL0     H 9454   7.685  -0.059   0.873 -1.6083  0.4262  1.1553
   69MOL0     H 9455   7.371  -0.177   1.001 -2.4127  0.1769 -2.3885
   69MOL0     H 9456   7.495  -0.173   0.882 -1.8399  0.4270 -1.8779
   69MOL0     H 9457   7.353  -0.039   0.785 -0.1486 -1.3820  0.7375
   69MOL0     H 9458   7.291   0.037   0.939  1.2778 -0.3915  0.9085
   69MOL0     H 9459   7.496   0.184   0.937 -1.0388 -1.5693  0.5128
   69MOL0     H 9460   7.558   0.110   0.793  0.0382 -0.7042 -0.0455
   69MOL0     H 9461   7.278   0.226   0.790  0.5992  0.7316  2.8950
   69MOL0     H 9462   7.410   0.334   0.752 -0.3213 -0.0890 -0.1371
   69MOL0     H 9463   7.338   0.084   0.610 -1.0198  0.1963  0.7779
   69MOL0     H 9464   7.496   0.158   0.585 -0.7880  1.6528 -2.5265
   69MOL0     H 9465   7.235   0.247   0.495 -0.0009 -1.1998  1.0672
   69MOL0     H 9466   7.329   0.378   0.554  0.7462 -0.4490 -2.2489
   69MOL0     H 9467   7.516   0.296   0.392 -0.1026  1.1116  0.1948
   69MOL0     H 9468   7.386   0.397   0.341  2.4788  0.8027  1.7196
   69MOL0     H 9469   7.429   0.211   0.184 -2.9930  1.1620 -0.5758
   69MOL0     H 9470   7.388   0.087   0.311  2.0446 -0.0573  1.6367
   69MOL0     H 9471   7.221   0.389   0.100 -0.7333 -0.0701  0.5351
   69MOL0     H 9472   6.876   0.267  -0.001 -1.4493  1.8767  0.5340
   69MOL0     H 9473   7.004   0.383  -0.046 -0.4966 -1.3627 -1.6562
   69MOL0     H 9474   6.995   0.490   0.178 -0.0192  0.8393 -0.4236
   69MOL0     H 9475   6.870   0.527   0.067 -1.2108 -0.9798 -0.1056
   69MOL0     H 9476   6.707   0.373   0.189 -0.5526  2.0767  0.6135
   69MOL0     H 9477   6.839   0.323   0.291 -4.4483 -2.1473  1.1673
   69MOL0     H 9478   6.841   0.561   0.366 -0.1983  1.8167 -1.1629
   69MOL0     H 9479   6.722   0.611   0.265  2.2590  0.0941 -0.8025
   69MOL0     H 9480   6.899   0.402   0.503  0.8431  0.4378  3.4641
   69MOL0     H 9481   7.025   0.238   0.589 -0.3207 -1.1147  0.2270
   69MOL0     H 9482   6.940   0.117   0.681  3.0980 -1.2506 -1.5164
   69MOL0     H 9483   7.036   0.248   0.768  0.9299  2.8487 -1.9056
   69MOL0     H 9484   6.637   0.133   1.123 -2.7842  1.4033 -2.8881
   69MOL0     H 9485   6.589  -0.002   1.317 -2.9355  0.0626  0.0253
   69MOL0     H 9486   6.246  -0.254   1.227 -1.1369  0.3267  0.7649
   69MOL0     H 9487   6.347  -0.406   1.243  2.8921 -0.0326  0.8381
   69MOL0     H 9488   6.325  -0.387   1.483 -0.6501 -2.5554 -0.8064
   69MOL0     H 9489   6.213  -0.253   1.455 -2.7642 -2.6227  3.2282
   69MOL0     H 9490   6.188  -0.544   1.343 -1.5158 -0.9442 -0.2945
   69MOL0     H 9491   6.077  -0.407   1.312 -1.7629 -2.2708  0.8224
   69MOL0     H 9492   5.999  -0.404   1.538  1.2510  1.7402 -1.3086
   69MOL0     H 9493   6.126  -0.515   1.583 -2.0932  1.6288  1.6533
   69MOL0     H 9494   5.877  -0.616   1.428  0.8339  1.2627  1.2598
   69MOL0     H 9495   6.024  -0.688   1.381 -2.8124 -4.2841  0.4139
   69MOL0     H 9496   5.902  -0.793   1.575  0.0754  0.4835 -1.9122
   69MOL0     H 9497   5.969  -0.660   1.672  2.4437  1.1635 -0.3372
   69MOL0     H 9498   6.143  -0.814   1.696 -3.9371 -0.0262  0.8541
   69MOL0     H 9499   6.206  -0.771   1.535 -0.4791  0.2367 -1.4288
   69MOL0     H 9500   6.207  -0.999   1.553  0.4816  0.6073  2.8527
   69MOL0     H 9501   6.083  -0.942   1.432 -0.4965  0.8770 -0.4246
   69MOL0     H 9502   6.429  -0.303   1.059 -0.3420  1.2853 -2.2013
   69MOL0     H 9503   6.534  -0.196   0.873 -4.1976 -0.2438  1.1419
   69MOL0     H 9504   6.507   0.285   0.777 -0.5006 -0.8465 -0.8819
   69MOL0     H 9505   6.470   0.396   0.585 -0.7633  0.9542  3.0093
   69MOL0     H 9506   7.658  -0.096   1.291  5.0853  1.0968  3.2016
   69MOL0     H 9507   7.889  -0.139   1.316 -1.7426 -2.4700 -0.9533
   69MOL0     H 9508   8.350   0.117   1.184 -0.1401 -0.4415 -0.0968
   69MOL0     H 9509   8.583   0.091   1.166 -1.6433  0.4901 -0.0521
   69MOL0     H 9510   8.882  -0.072   1.162 -0.6082 -0.9134 -2.0358
   69MOL0     H 9511   8.723  -0.051   1.252 -2.8882  0.3405 -2.0991
   69MOL0     H 9512   8.874  -0.252   1.316 -0.1208 -0.8923  0.0901
   69MOL0     H 9513   8.788  -0.339   1.184 -1.1042 -0.2821 -1.2286
   69MOL0     H 9514   8.686  -0.194   1.432  0.0821 -2.9742  1.7126
   69MOL0     H 9515   8.583  -0.242   1.291  1.5484  0.7394 -2.4521
   69MOL0     H 9516   8.642  -0.475   1.328 -0.7843 -2.5825  2.3217
   69MOL0     H 9517   8.572  -0.419   1.475 -1.4439  2.1225 -1.7016
   69MOL0     H 9518   8.967  -0.581   1.564 -0.6987 -0.8834  1.5329
   69MOL0     H 9519   8.547  -0.256   0.910 -0.8837  0.4178 -1.0137
   69MOL0     H 9520   8.255  -0.340   0.990  2.0912 -3.3562 -2.6537
   69MOL0     H 9521   8.177  -0.223   0.880 -1.4592 -2.0690  0.1810
   69MOL0     H 9522   8.320  -0.294   0.824  0.1286 -0.0980 -0.4830
   70MOL0     O 9523   3.306   4.806   4.938 -0.9113  0.2490 -1.4950
   70MOL0     C 9524   3.348   4.693   4.936 -0.1380  1.1129 -0.6176
   70MOL0     O 9525   3.295   4.588   4.998  0.1254  0.5096 -0.3375
   70MOL0     C 9526   3.230   4.619   5.117 -0.6346 -0.0878 -0.9017
   70MOL0     C 9527   3.107   4.687   5.124  0.1859 -0.0448 -0.7780
   70MOL0     C 9528   3.045   4.715   5.248 -0.2038  0.4380 -0.6203
   70MOL0     C 9529   3.113   4.679   5.363  0.4988 -0.1940 -0.2764
   70MOL0     O 9530   3.049   4.710   5.484 -0.0608  0.4953 -0.7690
   70MOL0     C 9531   3.030   4.609   5.582  0.1071 -0.7006 -0.7564
   70MOL0     C 9532   3.143   4.600   5.698 -0.0123 -0.3467  0.8727
   70MOL0     C 9533   3.120   4.698   5.812  0.1102  0.0282 -0.1467
   70MOL0     C 9534   3.167   4.837   5.782 -0.7014 -0.0190 -0.2218
   70MOL0     C 9535   3.320   4.835   5.753 -0.2806 -0.3132 -0.0372
   70MOL0     C 9536   3.389   4.970   5.749 -0.0631  0.4146  0.7865
   70MOL0     C 9537   3.538   4.941   5.738  0.3272  0.2236 -0.1491
   70MOL0     C 9538   3.607   5.074   5.709  0.7961  0.1752 -0.4685
   70MOL0     N 9539   3.749   5.058   5.692 -0.0735 -0.9927 -0.2146
   70MOL0     C 9540   3.816   4.955   5.620  0.0611 -0.6981  0.6923
   70MOL0     C 9541   3.945   4.951   5.676 -0.3972  0.3202  0.4261
   70MOL0     C 9542   4.062   4.865   5.622 -0.2363  0.9002 -0.6746
   70MOL0     C 9543   4.172   4.840   5.727 -0.1212 -0.5517  0.2196
   70MOL0     C 9544   4.261   4.729   5.686 -0.6222 -0.0361 -0.6158
   70MOL0     C 9545   4.391   4.733   5.776  0.1221 -0.6987 -0.7816
   70MOL0     O 9546   4.360   4.677   5.902  0.1331 -0.0487  0.1915
   70MOL0     C 9547   4.461   4.650   5.989  0.2869 -0.4590 -0.2078
   70MOL0     C 9548   4.426   4.615   6.125 -0.3493 -0.2454  0.4427
   70MOL0     C 9549   4.525   4.565   6.204  0.5957  0.2537  0.0154
   70MOL0     C 9550   4.477   4.526   6.345 -0.2488 -0.4612 -0.5394
   70MOL0     C 9551   4.666   4.584   6.176 -0.6487  0.6742 -0.4961
   70MOL0     C 9552   4.773   4.558   6.277 -0.2069 -0.6988 -0.7403
   70MOL0     O 9553   4.741   4.490   6.392 -0.4320  0.3063 -0.2199
   70MOL0     C 9554   4.827   4.508   6.492 -0.1861 -0.7162  0.6752
   70MOL0     C 9555   4.821   4.629   6.565  0.2452  0.9687  0.6235
   70MOL0     C 9556   4.920   4.658   6.658  0.3202  0.3332 -0.6891
   70MOL0     C 9557   5.002   4.559   6.699 -0.4646 -0.9559  0.4018
   70MOL0     O 9558   5.102   4.597   6.788 -0.0926  0.2071  0.0331
   70MOL0     C 9559   5.155   4.490   6.866 -0.0213 -0.5892 -0.4204
   70MOL0     C 9560   5.311   4.466   6.837 -0.3189  1.2354  0.1294
   70MOL0     C 9561   5.384   4.367   6.926  0.6338 -0.0236 -0.2719
   70MOL0     C 9562   5.324   4.230   6.889 -0.1044 -0.5281  0.0912
   70MOL0     C 9563   5.406   4.130   6.958  0.3362  1.0659 -0.5751
   70MOL0     C 9564   5.386   3.980   6.925 -0.1563  0.1062 -0.3007
   70MOL0     C 9565   5.246   3.916   6.951 -0.1137 -0.0250 -0.4313
   70MOL0     C 9566   5.242   3.760   6.918 -0.0084  0.4419  0.3031
   70MOL0    Cl 9567   5.357   3.673   7.020  0.0321  0.1392  0.1331
   70MOL0     C 9568   5.022   4.441   6.619 -0.1450 -0.4180 -0.7664
   70MOL0     C 9569   4.930   4.407   6.511  0.2131 -0.3995  1.0738
   70MOL0     O 9570   4.882   4.609   6.250  0.1314 -0.0432 -0.2016
   70MOL0     C 9571   4.701   4.618   6.048 -0.1908  0.0433 -0.1639
   70MOL0     C 9572   4.600   4.660   5.959  0.6206  0.2652 -0.7391
   70MOL0     N 9573   3.953   5.042   5.780 -0.1362  0.3150 -0.1180
   70MOL0     N 9574   3.839   5.097   5.792  0.2703  0.4395  0.1643
   70MOL0     C 9575   3.240   4.614   5.352 -0.2283 -0.1495 -0.0158
   70MOL0     C 9576   3.300   4.589   5.228  0.3316  0.5145  0.1693
   70MOL0     C 9577   3.470   4.661   4.865 -0.4088  0.5430  0.9244
   70MOL0     C 9578   3.570   4.757   4.879 -0.6796 -0.6196 -0.5565
   70MOL0     C 9579   3.685   4.745   4.801  0.5857  0.8335 -0.0292
   70MOL0     C 9580   3.703   4.634   4.718 -0.4032 -1.6126  0.7829
   70MOL0     O 9581   3.824   4.605   4.675 -0.8654 -0.6487 -0.3698
   70MOL0     C 9582   3.861   4.504   4.581 -0.4295  0.4219 -0.0020
   70MOL0     C 9583   4.018   4.487   4.579 -0.8655  0.0170  0.0500
   70MOL0     C 9584   4.069   4.430   4.446 -0.6271  0.0570 -0.4200
   70MOL0     C 9585   4.207   4.375   4.455  0.7585 -0.9047 -1.1328
   70MOL0     C 9586   4.309   4.472   4.501 -0.9593 -0.7297 -0.2073
   70MOL0     C 9587   4.394   4.547   4.551 -0.0442  1.7575  0.1352
   70MOL0     C 9588   3.602   4.541   4.707 -0.0200  0.2343  0.4169
   70MOL0     C 9589   3.484   4.557   4.780  0.0937  0.9689 -0.5299
   70MOL0     C 9590   3.374   4.458   4.745  0.4334 -0.2938  0.5959
   70MOL0     H 9591   3.050   4.723   5.039  1.4206  1.5887 -0.9652
   70MOL0     H 9592   2.944   4.753   5.255  1.5078  5.8648 -0.7896
   70MOL0     H 9593   3.003   4.508   5.548  1.9772 -1.0788 -1.2219
   70MOL0     H 9594   2.939   4.639   5.635 -0.2008 -3.0853  0.2128
   70MOL0     H 9595   3.120   4.503   5.742 -0.5028 -1.7275 -2.1510
   70MOL0     H 9596   3.243   4.605   5.654 -1.3206  0.2616 -2.2865
   70MOL0     H 9597   3.014   4.694   5.837  0.1338 -1.6408 -0.1913
   70MOL0     H 9598   3.167   4.651   5.899 -2.7675 -2.2266  0.3520
   70MOL0     H 9599   3.119   4.887   5.697  1.3493 -0.9709 -2.0312
   70MOL0     H 9600   3.146   4.891   5.875  0.7029 -1.7223  1.1631
   70MOL0     H 9601   3.325   4.791   5.653 -2.2468  1.6345 -1.0795
   70MOL0     H 9602   3.384   4.775   5.817  1.5340  0.9479 -0.5829
   70MOL0     H 9603   3.356   5.021   5.658 -0.2812 -0.8767  0.1210
   70MOL0     H 9604   3.359   5.029   5.835 -0.8451  1.3494 -0.0995
   70MOL0     H 9605   3.568   4.876   5.656 -3.0708 -0.7991 -0.7617
   70MOL0     H 9606   3.568   4.899   5.835 -1.8288  1.4966  1.1646
   70MOL0     H 9607   3.580   5.112   5.610  0.9259  0.2780 -0.4646
   70MOL0     H 9608   3.589   5.151   5.785  1.7372 -0.2346  0.1922
   70MOL0     H 9609   3.779   4.892   5.540 -0.4614 -0.0357  0.4051
   70MOL0     H 9610   4.098   4.905   5.527  3.2888 -2.2666 -0.9033
   70MOL0     H 9611   4.009   4.776   5.586 -1.4755  0.8634  1.0804
   70MOL0     H 9612   4.230   4.933   5.728 -1.9095  0.6302 -0.1623
   70MOL0     H 9613   4.138   4.826   5.831  2.9676  0.6853  1.4952
   70MOL0     H 9614   4.209   4.633   5.699 -0.3318  0.1356  2.8413
   70MOL0     H 9615   4.287   4.755   5.583  0.7730  2.1348  0.2174
   70MOL0     H 9616   4.466   4.669   5.728  1.0269 -0.0096 -0.3145
   70MOL0     H 9617   4.433   4.833   5.786 -3.2400  0.6196  1.9505
   70MOL0     H 9618   4.321   4.619   6.153 -0.4628 -0.9159  0.1296
   70MOL0     H 9619   4.369   4.514   6.352 -0.5974  1.6280 -1.5619
   70MOL0     H 9620   4.500   4.601   6.421  2.2201 -2.0720  0.4292
   70MOL0     H 9621   4.522   4.430   6.374 -1.1655 -0.6261  0.4001
   70MOL0     H 9622   4.739   4.695   6.538 -1.9069 -3.0914 -4.5567
   70MOL0     H 9623   4.925   4.763   6.688  2.6113  0.0927 -0.0337
   70MOL0     H 9624   5.156   4.519   6.971 -4.1218  3.7914 -1.2547
   70MOL0     H 9625   5.088   4.404   6.864 -3.8331  2.0763  1.4454
   70MOL0     H 9626   5.317   4.442   6.730 -4.9062 -1.5799  0.2632
   70MOL0     H 9627   5.357   4.564   6.856 -3.2950  2.5519  1.1770
   70MOL0     H 9628   5.353   4.387   7.029 -2.5280  0.6297 -1.2499
   70MOL0     H 9629   5.492   4.372   6.911  0.2689  1.6546 -3.0469
   70MOL0     H 9630   5.333   4.210   6.782  1.8376 -0.7712  0.2599
   70MOL0     H 9631   5.220   4.212   6.917  0.4589 -0.2542  2.5967
   70MOL0     H 9632   5.514   4.149   6.950  1.6084 -2.8327  3.2245
   70MOL0     H 9633   5.394   4.143   7.066  0.1521 -0.0257 -0.4507
   70MOL0     H 9634   5.460   3.930   6.988  0.3310  2.0025  0.6975
   70MOL0     H 9635   5.425   3.953   6.826 -0.9723  0.4025 -0.7131
   70MOL0     H 9636   5.162   3.956   6.894 -0.9716 -0.3991  0.5450
   70MOL0     H 9637   5.227   3.931   7.058  1.7879  0.1823 -0.0906
   70MOL0     H 9638   5.261   3.735   6.814 -0.2628 -2.8422  0.9425
   70MOL0     H 9639   5.143   3.722   6.946  0.1984  0.0555  0.5268
   70MOL0     H 9640   5.107   4.376   6.640 -0.7366 -2.1226 -3.2021
   70MOL0     H 9641   4.931   4.316   6.453  2.0469  0.2230  0.0446
   70MOL0     H 9642   4.801   4.620   6.006 -0.2913 -1.2103 -0.5028
   70MOL0     H 9643   4.641   4.700   5.867  2.0775  3.1294  1.0309
   70MOL0     H 9644   3.280   4.596   5.451  0.1425  0.6950 -0.0002
   70MOL0     H 9645   3.397   4.540   5.225  2.0432  3.6679 -0.5709
   70MOL0     H 9646   3.555   4.843   4.944  0.3759  0.8612 -2.1723
   70MOL0     H 9647   3.759   4.825   4.802 -0.1988  1.5888 -0.6012
   70MOL0     H 9648   3.811   4.410   4.603  1.1777 -1.2911 -3.0408
   70MOL0     H 9649   3.828   4.534   4.481  0.2542  1.0637 -0.0482
   70MOL0     H 9650   4.038   4.411   4.655 -0.9373 -1.1089 -1.0195
   70MOL0     H 9651   4.059   4.581   4.618  0.3076 -0.8777  1.0629
   70MOL0     H 9652   4.005   4.345   4.422 -0.0851 -0.2501 -0.8078
   70MOL0     H 9653   4.051   4.505   4.368 -0.4832  1.9358  1.2860
   70MOL0     H 9654   4.230   4.326   4.360 -0.6627 -0.0756 -1.9225
   70MOL0     H 9655   4.203   4.294   4.529  0.3895  0.3154  0.2151
   70MOL0     H 9656   4.467   4.612   4.597  0.6751  0.2618  1.2229
   70MOL0     H 9657   3.603   4.454   4.642  0.3840 -0.8657  1.8387
   70MOL0     H 9658   3.418   4.362   4.772  0.6002 -0.6334 -0.7941
   70MOL0     H 9659   3.284   4.479   4.804  1.7584  1.4742  2.1217
   70MOL0     H 9660   3.366   4.466   4.636  1.1050  1.3666  0.6414
   71MOL0     O 9661   8.607   0.908  10.021  0.6495 -0.0923 -0.7182
   71MOL0     C 9662   8.720   0.872  10.008 -1.0713  0.4171 -0.0574
   71MOL0     O 9663   8.836   0.919  10.074  0.1156 -0.2481 -0.5424
   71MOL0     C 9664   8.833   1.012  10.166  1.1437  0.1414 -0.2556
   71MOL0     C 9665   8.723   1.089  10.213 -0.3453 -0.2930 -1.1073
   71MOL0     C 9666   8.731   1.183  10.316 -0.6887  0.8760 -0.8056
   71MOL0     C 9667   8.847   1.209  10.382  1.3589  0.3375 -0.6240
   71MOL0     O 9668   8.850   1.279  10.501 -0.0969 -0.5379  0.2781
   71MOL0     C 9669   8.816   1.420  10.495 -0.1728  0.0473  1.1525
   71MOL0     C 9670   8.826   1.493  10.631 -0.3758 -0.6982 -0.5016
   71MOL0     C 9671   8.772   1.396  10.742 -1.2065 -0.0564 -0.7742
   71MOL0     C 9672   8.771   1.466  10.876 -0.0306 -0.0997  0.1636
   71MOL0     C 9673   8.729   1.369  10.984 -1.4293 -0.2372  0.9832
   71MOL0     C 9674   8.758   1.424  11.128  0.9685  0.4541  0.2509
   71MOL0     C 9675   8.685   1.340  11.230 -0.0796 -0.1444  0.4776
   71MOL0     C 9676   8.754   1.211  11.272 -0.3665 -0.0414  0.0612
   71MOL0     N 9677   8.756   1.192  11.419  0.1316  0.1432 -0.5996
   71MOL0     C 9678   8.839   1.243  11.519 -0.0215  0.6659  0.3857
   71MOL0     C 9679   8.809   1.185  11.639  0.6357 -0.0096 -0.0396
   71MOL0     C 9680   8.887   1.220  11.758  0.4574 -0.7217 -0.2730
   71MOL0     C 9681   8.821   1.154  11.892  0.3922 -0.4604 -0.3002
   71MOL0     C 9682   8.701   1.226  11.949  0.1468 -0.2674  0.1271
   71MOL0     C 9683   8.739   1.360  12.009 -1.2889  0.8176  0.1059
   71MOL0     O 9684   8.846   1.358  12.098  0.2051  0.7395 -0.2282
   71MOL0     C 9685   8.918   1.469  12.118  0.4808 -0.4993 -0.5276
   71MOL0     C 9686   8.879   1.597  12.073 -0.3480 -0.3057  0.1507
   71MOL0     C 9687   8.963   1.706  12.106 -0.3924 -0.3048 -0.5217
   71MOL0     C 9688   8.942   1.836  12.039  0.4868 -0.0133  0.1339
   71MOL0     C 9689   9.073   1.694  12.200 -0.0857 -0.1295 -0.0767
   71MOL0     C 9690   9.158   1.800  12.245 -0.0168 -0.4103 -0.4917
   71MOL0     O 9691   9.088   1.909  12.285 -0.0095 -0.4238  0.4157
   71MOL0     C 9692   9.169   1.996  12.362 -0.7773 -0.0904  0.5731
   71MOL0     C 9693   9.228   2.106  12.303  0.2248  0.2041 -0.6377
   71MOL0     C 9694   9.279   2.210  12.383  0.0725  0.0786 -0.4922
   71MOL0     C 9695   9.295   2.187  12.523 -0.9242 -0.5465  0.3734
   71MOL0     O 9696   9.365   2.271  12.609 -0.6413 -0.4501  0.2984
   71MOL0     C 9697   9.340   2.410  12.592 -0.4508 -0.7487 -0.3540
   71MOL0     C 9698   9.365   2.479  12.726  0.5307 -0.2887  0.4660
   71MOL0     C 9699   9.245   2.477  12.824 -0.4750 -0.1720 -0.9384
   71MOL0     C 9700   9.179   2.340  12.838 -0.1939 -1.1194 -0.3771
   71MOL0     C 9701   9.071   2.337  12.943  0.0831  0.4255  0.4863
   71MOL0     C 9702   8.994   2.201  12.939  0.7042  0.1582 -0.2623
   71MOL0     C 9703   8.888   2.175  13.039 -0.3851  0.4827  0.6249
   71MOL0     C 9704   8.946   2.163  13.180 -0.2085  1.8345 -0.4579
   71MOL0    Cl 9705   8.835   2.195  13.312  0.1525 -0.1432  0.1418
   71MOL0     C 9706   9.245   2.075  12.578  0.4109  0.1286 -0.1685
   71MOL0     C 9707   9.175   1.985  12.500 -0.5632 -0.2728 -0.6074
   71MOL0     O 9708   9.277   1.786  12.267  0.0401  0.0239  0.2594
   71MOL0     C 9709   9.096   1.569  12.257  0.2062  0.5118 -0.2233
   71MOL0     C 9710   9.020   1.456  12.217 -0.1468 -0.0709  0.3148
   71MOL0     N 9711   8.707   1.096  11.605 -0.3693  1.0270 -0.1745
   71MOL0     N 9712   8.684   1.090  11.476 -0.1023 -0.3481 -0.5508
   71MOL0     C 9713   8.954   1.134  10.346  0.6320 -0.3494  0.0263
   71MOL0     C 9714   8.948   1.036  10.242  0.4509 -0.8810  0.2334
   71MOL0     C 9715   8.747   0.770   9.899  0.1697  0.1077 -0.2473
   71MOL0     C 9716   8.884   0.738   9.863  0.2035 -0.1078  0.0284
   71MOL0     C 9717   8.914   0.649   9.762 -0.2726  0.2808 -0.2111
   71MOL0     C 9718   8.816   0.574   9.688  0.5156  0.3992 -0.3177
   71MOL0     O 9719   8.840   0.472   9.599  0.1914  0.3434  0.3058
   71MOL0     C 9720   8.966   0.400   9.616 -0.1700 -0.3467 -1.3737
   71MOL0     C 9721   8.970   0.264   9.537  0.4658 -0.3690 -0.3680
   71MOL0     C 9722   8.865   0.170   9.587  0.5597 -0.8278 -0.2455
   71MOL0     C 9723   8.860   0.039   9.510  0.4738  0.7769  0.1228
   71MOL0     C 9724   8.986  -0.044   9.528  0.5501 -0.4621  0.6845
   71MOL0     C 9725   9.059  -0.138   9.551  0.1341 -0.5915  0.1524
   71MOL0     C 9726   8.687   0.610   9.725 -0.3642 -0.1989  0.3881
   71MOL0     C 9727   8.652   0.714   9.818 -0.2662 -0.0364 -0.1652
   71MOL0     C 9728   8.506   0.730   9.836  0.2679  0.2379 -1.4007
   71MOL0     H 9729   8.629   1.078  10.160  0.2387  1.3300 -2.5653
   71MOL0     H 9730   8.637   1.232  10.335 -1.1628 -0.6249  0.9485
   71MOL0     H 9731   8.712   1.436  10.465 -0.7031 -3.3818  0.7913
   71MOL0     H 9732   8.885   1.466  10.424  0.6988 -1.6195  0.8587
   71MOL0     H 9733   8.932   1.516  10.647 -0.5583 -0.0881 -0.1327
   71MOL0     H 9734   8.771   1.587  10.623  2.2513  0.8300 -2.5270
   71MOL0     H 9735   8.669   1.365  10.719 -1.1402  0.0038 -1.1586
   71MOL0     H 9736   8.837   1.309  10.746  0.1791  0.9873  0.4245
   71MOL0     H 9737   8.867   1.513  10.900  0.4175 -1.3078  0.7683
   71MOL0     H 9738   8.703   1.551  10.889 -0.9210 -0.5773 -1.2448
   71MOL0     H 9739   8.765   1.271  10.952  0.5535  0.5062  0.7920
   71MOL0     H 9740   8.621   1.356  10.983 -1.3346 -1.3382  2.0885
   71MOL0     H 9741   8.865   1.432  11.152  0.7944  2.4752  0.5720
   71MOL0     H 9742   8.722   1.527  11.125 -3.8592 -1.0144  0.1477
   71MOL0     H 9743   8.578   1.324  11.212 -0.8027  2.1732  2.1950
   71MOL0     H 9744   8.687   1.410  11.313  0.7720 -1.0830  1.2702
   71MOL0     H 9745   8.711   1.121  11.227  2.0971 -2.7265  2.6974
   71MOL0     H 9746   8.858   1.200  11.240 -0.1176 -2.6268  1.4967
   71MOL0     H 9747   8.920   1.314  11.507 -1.3799  2.0662 -0.9750
   71MOL0     H 9748   8.883   1.329  11.763  2.8639 -0.3034 -3.7471
   71MOL0     H 9749   8.990   1.183  11.754  2.4960  3.9058  1.9320
   71MOL0     H 9750   8.787   1.052  11.877 -0.3546 -0.0244 -1.8362
   71MOL0     H 9751   8.904   1.154  11.963  2.5908 -0.2090 -2.7255
   71MOL0     H 9752   8.624   1.236  11.872  0.2472  2.7408  0.3103
   71MOL0     H 9753   8.660   1.168  12.032 -1.8557  1.1371  0.1931
   71MOL0     H 9754   8.759   1.420  11.920  0.3868 -0.0811 -0.1823
   71MOL0     H 9755   8.647   1.400  12.052 -1.1583  0.0677  1.1250
   71MOL0     H 9756   8.792   1.616  12.011 -0.1534  1.7385  0.4295
   71MOL0     H 9757   8.928   1.825  11.931 -1.2772 -2.5621  0.5523
   71MOL0     H 9758   9.015   1.916  12.056 -0.5117  1.5918 -2.4559
   71MOL0     H 9759   8.841   1.870  12.065  0.8828  1.8379 -0.5549
   71MOL0     H 9760   9.227   2.119  12.195 -2.0192  5.4932 -0.2783
   71MOL0     H 9761   9.325   2.301  12.347  0.6949  0.2556  0.6887
   71MOL0     H 9762   9.409   2.457  12.521 -0.9361  0.0064 -0.3324
   71MOL0     H 9763   9.233   2.421  12.575 -0.8426 -2.1334  0.9674
   71MOL0     H 9764   9.449   2.432  12.778  1.7087  0.0308 -1.0946
   71MOL0     H 9765   9.383   2.587  12.721  2.1369 -0.5365  0.2911
   71MOL0     H 9766   9.181   2.563  12.801  1.5517  1.9952  0.9705
   71MOL0     H 9767   9.280   2.500  12.925 -0.7177 -1.0444 -0.6456
   71MOL0     H 9768   9.252   2.261  12.858  0.0337 -0.4149  1.8588
   71MOL0     H 9769   9.134   2.316  12.742 -2.0784  1.1198 -0.1591
   71MOL0     H 9770   9.127   2.359  13.034 -2.0761  4.3745  1.0876
   71MOL0     H 9771   8.993   2.412  12.926 -0.2703  0.9216  3.7253
   71MOL0     H 9772   9.067   2.121  12.957 -0.3115 -0.4086  1.5201
   71MOL0     H 9773   8.945   2.191  12.842 -0.0929  0.5233  0.0906
   71MOL0     H 9774   8.853   2.073  13.024  2.4565 -0.3252 -1.3021
   71MOL0     H 9775   8.801   2.239  13.022 -1.5272 -1.4888 -1.5023
   71MOL0     H 9776   9.025   2.238  13.193  3.5857 -1.5779 -1.7800
   71MOL0     H 9777   8.967   2.056  13.186 -1.7553  1.4440 -1.3820
   71MOL0     H 9778   9.243   2.053  12.684 -1.8371  2.0729  0.2628
   71MOL0     H 9779   9.124   1.897  12.539 -1.7191  1.4900  2.2144
   71MOL0     H 9780   9.176   1.555  12.329 -0.9293  1.3576  1.2593
   71MOL0     H 9781   9.040   1.360  12.263  2.7691  0.3169  0.0447
   71MOL0     H 9782   9.043   1.154  10.403 -0.2678  2.5797  0.5278
   71MOL0     H 9783   9.035   0.979  10.209 -1.5945 -2.8562 -2.1514
   71MOL0     H 9784   8.966   0.801   9.897  0.3314  3.1138 -5.2230
   71MOL0     H 9785   9.016   0.634   9.729  0.6927  3.5990  0.8867
   71MOL0     H 9786   9.056   0.457   9.591  1.9754 -1.6159  2.5621
   71MOL0     H 9787   8.971   0.373   9.722  0.6562  3.1688 -0.3909
   71MOL0     H 9788   9.070   0.223   9.553 -0.0977 -2.1480 -1.1068
   71MOL0     H 9789   8.951   0.290   9.432  0.3550 -1.9786 -0.7792
   71MOL0     H 9790   8.880   0.148   9.693 -0.3286 -5.8670 -0.9068
   71MOL0     H 9791   8.766   0.216   9.578 -0.3549 -2.2165  1.9521
   71MOL0     H 9792   8.835   0.045   9.404 -0.9947  0.0049  0.4029
   71MOL0     H 9793   8.775  -0.022   9.540  0.9711  1.6642  3.7530
   71MOL0     H 9794   9.127  -0.220   9.560  2.7409  1.4809  0.3795
   71MOL0     H 9795   8.620   0.554   9.662 -0.4883  0.3845 -0.0133
   71MOL0     H 9796   8.462   0.830   9.824 -1.7981  0.1678  3.3293
   71MOL0     H 9797   8.451   0.661   9.770  0.2656  0.4180 -1.5883
   71MOL0     H 9798   8.490   0.706   9.941 -0.5892  0.7462 -1.4026
   72MOL0     O 9799   2.347   3.371   4.091 -0.0823  0.0086  0.0024
   72MOL0     C 9800   2.462   3.329   4.125 -0.7977 -0.3471  0.3159
   72MOL0     O 9801   2.495   3.241   4.218  0.0273  0.2394 -0.0551
   72MOL0     C 9802   2.405   3.204   4.306  0.5905 -1.1722 -0.3574
   72MOL0     C 9803   2.407   3.076   4.358  0.5544  0.5351  0.6486
   72MOL0     C 9804   2.317   3.031   4.459  0.0784  0.7521 -0.8251
   72MOL0     C 9805   2.228   3.116   4.517  0.1133 -0.9238 -0.6602
   72MOL0     O 9806   2.137   3.075   4.607  0.4870  0.1922 -0.3978
   72MOL0     C 9807   2.053   3.172   4.672  0.6695  0.1725  0.4466
   72MOL0     C 9808   1.953   3.111   4.762  0.3790  0.2840  0.2707
   72MOL0     C 9809   2.022   3.019   4.865  0.3520  0.5695 -1.8115
   72MOL0     C 9810   1.923   2.976   4.987  0.4764  0.6421 -0.2298
   72MOL0     C 9811   1.992   2.885   5.088  0.2053  0.6194  0.6139
   72MOL0     C 9812   1.979   2.744   5.042  0.2930  0.0756  0.1997
   72MOL0     C 9813   2.034   2.635   5.137  0.5869  0.3468 -0.9003
   72MOL0     C 9814   2.020   2.503   5.079  0.6634  0.6532 -0.8692
   72MOL0     N 9815   2.069   2.390   5.160 -0.3967  0.5206  0.0564
   72MOL0     C 9816   2.020   2.345   5.279 -0.4517 -0.4365 -0.3738
   72MOL0     C 9817   2.105   2.250   5.326 -0.1112  0.4789  0.3513
   72MOL0     C 9818   2.115   2.175   5.450  0.4457 -0.0711 -0.2330
   72MOL0     C 9819   2.009   2.063   5.452 -0.2762 -0.2550 -0.1772
   72MOL0     C 9820   2.032   1.959   5.561 -0.3855  0.0939  0.1881
   72MOL0     C 9821   1.996   2.011   5.708  0.2886  0.5168 -0.1051
   72MOL0     O 9822   2.119   2.064   5.765  0.0561  0.2961  0.3052
   72MOL0     C 9823   2.168   2.009   5.879  0.3737  0.8329  0.3887
   72MOL0     C 9824   2.307   2.013   5.894  0.8333 -1.1139  0.0602
   72MOL0     C 9825   2.365   1.954   6.011 -0.5379 -0.3217  0.0834
   72MOL0     C 9826   2.513   1.981   6.018 -0.4631 -0.1088  0.2396
   72MOL0     C 9827   2.275   1.890   6.110 -0.5859  0.2517 -0.3233
   72MOL0     C 9828   2.320   1.814   6.222  0.3150 -0.0258 -0.4433
   72MOL0     O 9829   2.435   1.839   6.282  0.0343  0.6024  0.5891
   72MOL0     C 9830   2.469   1.766   6.396  0.4240 -0.1985  0.2906
   72MOL0     C 9831   2.479   1.836   6.515  0.9269  0.5958  0.2429
   72MOL0     C 9832   2.523   1.770   6.634  0.3116  0.1044 -0.7188
   72MOL0     C 9833   2.539   1.636   6.639 -0.4197  0.3576 -0.6330
   72MOL0     O 9834   2.557   1.559   6.750  0.4137  0.1153  0.2174
   72MOL0     C 9835   2.456   1.581   6.851 -0.9753  0.4637 -0.9038
   72MOL0     C 9836   2.479   1.500   6.978  1.0272  0.5831 -0.6460
   72MOL0     C 9837   2.621   1.516   7.050 -0.3841 -0.6291  1.3192
   72MOL0     C 9838   2.635   1.507   7.201 -0.6746 -0.1695 -1.1726
   72MOL0     C 9839   2.740   1.595   7.265  0.3897 -0.3137  0.5442
   72MOL0     C 9840   2.732   1.578   7.420 -0.8384  1.3540 -0.1030
   72MOL0     C 9841   2.825   1.654   7.512 -0.1269 -0.1744  0.5056
   72MOL0     C 9842   2.765   1.787   7.558 -0.4053 -1.5564  0.5703
   72MOL0    Cl 9843   2.639   1.766   7.681 -0.0433  0.2423 -0.3633
   72MOL0     C 9844   2.526   1.564   6.522 -0.4310 -0.4806  0.5390
   72MOL0     C 9845   2.492   1.630   6.401 -0.5586  0.5667 -0.0165
   72MOL0     O 9846   2.258   1.712   6.247 -0.5994 -0.1720  0.1534
   72MOL0     C 9847   2.139   1.897   6.091 -0.6093 -0.7118  0.4710
   72MOL0     C 9848   2.086   1.955   5.983  0.3043  0.2890 -0.2662
   72MOL0     N 9849   2.197   2.227   5.219  0.1677  0.1661 -1.0260
   72MOL0     N 9850   2.168   2.309   5.120 -0.0537  0.3716  0.7892
   72MOL0     C 9851   2.225   3.247   4.464 -0.3849  0.9282  0.4036
   72MOL0     C 9852   2.308   3.292   4.363 -0.3362  1.0656 -0.7831
   72MOL0     C 9853   2.574   3.393   4.034  0.2066  0.2547  0.7247
   72MOL0     C 9854   2.701   3.324   4.027  0.7202  0.4944 -0.1059
   72MOL0     C 9855   2.810   3.384   3.964  0.1881  0.8062  0.2362
   72MOL0     C 9856   2.794   3.506   3.891  0.3483 -0.3882  0.3276
   72MOL0     O 9857   2.900   3.565   3.824  0.0213  0.0126  0.0885
   72MOL0     C 9858   2.897   3.694   3.770 -0.5323 -0.4309  0.4337
   72MOL0     C 9859   3.032   3.764   3.787 -0.7487 -0.0458  0.1325
   72MOL0     C 9860   3.069   3.796   3.930  0.6409 -0.0050  0.8375
   72MOL0     C 9861   3.201   3.857   3.952 -0.5252  0.6814  0.0219
   72MOL0     C 9862   3.185   3.944   4.071 -0.2285 -0.5190  0.6481
   72MOL0     C 9863   3.182   4.027   4.164  0.4585 -0.3593 -1.3520
   72MOL0     C 9864   2.671   3.566   3.897  0.7500  0.0973 -0.4004
   72MOL0     C 9865   2.560   3.513   3.961 -0.4183  0.6526  0.6959
   72MOL0     C 9866   2.433   3.595   3.953 -0.0505  0.2144  0.0931
   72MOL0     H 9867   2.473   2.999   4.320 -1.1292 -0.8732  0.4386
   72MOL0     H 9868   2.326   2.931   4.501 -2.4926  0.2568 -1.2259
   72MOL0     H 9869   1.987   3.220   4.599  0.8921  2.0429  1.4171
   72MOL0     H 9870   2.110   3.237   4.739 -0.6159 -0.3453  2.1115
   72MOL0     H 9871   1.896   3.191   4.808  1.0450  2.1953 -2.0297
   72MOL0     H 9872   1.883   3.059   4.695 -2.7079  3.2495  0.9143
   72MOL0     H 9873   2.054   2.925   4.819 -0.0684 -0.9740  0.8578
   72MOL0     H 9874   2.112   3.058   4.913  0.2806 -1.6591  0.3046
   72MOL0     H 9875   1.905   3.062   5.052  3.4238  0.7766  0.5572
   72MOL0     H 9876   1.834   2.921   4.954  2.3511 -1.4234 -2.2638
   72MOL0     H 9877   1.930   2.902   5.176 -2.7449 -0.7670 -1.0254
   72MOL0     H 9878   2.095   2.912   5.109  0.8260 -1.5625  0.6447
   72MOL0     H 9879   1.870   2.732   5.037  0.3786 -0.2285 -2.1143
   72MOL0     H 9880   2.012   2.718   4.941  1.9777 -0.4108  0.8501
   72MOL0     H 9881   1.979   2.642   5.231 -1.7013 -3.6587 -1.6989
   72MOL0     H 9882   2.141   2.656   5.150  0.7560 -1.2306  0.6997
   72MOL0     H 9883   1.914   2.481   5.062  0.2357  1.6038  0.4095
   72MOL0     H 9884   2.084   2.495   4.991  3.3287  0.6696  0.9532
   72MOL0     H 9885   1.932   2.388   5.326  0.3501 -1.1998  1.9632
   72MOL0     H 9886   2.093   2.237   5.537 -2.2362  0.5213 -1.2018
   72MOL0     H 9887   2.216   2.135   5.459  0.9535 -0.4651 -4.9559
   72MOL0     H 9888   1.911   2.108   5.470 -0.5393 -0.9139  0.0888
   72MOL0     H 9889   2.002   2.027   5.349  1.9791  0.5416 -0.6578
   72MOL0     H 9890   1.959   1.883   5.529  0.6532 -0.8464  0.0130
   72MOL0     H 9891   2.132   1.916   5.556 -0.0067  1.1373 -2.2442
   72MOL0     H 9892   1.916   2.085   5.704  2.4762  3.1454  1.6232
   72MOL0     H 9893   1.959   1.923   5.762  2.3404 -1.5984 -1.9542
   72MOL0     H 9894   2.373   2.064   5.824  0.0175 -1.9033 -1.3302
   72MOL0     H 9895   2.562   1.890   6.054  3.1672  1.6240  0.0803
   72MOL0     H 9896   2.545   2.065   6.081 -1.7395  0.7367 -0.1970
   72MOL0     H 9897   2.547   1.997   5.915 -0.8886  0.6778  0.2133
   72MOL0     H 9898   2.464   1.943   6.508 -0.4575  0.3404 -1.1877
   72MOL0     H 9899   2.544   1.829   6.723  1.8715 -1.8671  0.3049
   72MOL0     H 9900   2.465   1.686   6.881  2.1969 -0.1876  0.9137
   72MOL0     H 9901   2.361   1.550   6.805  0.5174 -2.3482 -2.3515
   72MOL0     H 9902   2.411   1.537   7.055  3.0353 -0.1214  1.5844
   72MOL0     H 9903   2.456   1.393   6.967  0.1881  0.4663  1.6173
   72MOL0     H 9904   2.671   1.603   7.006  3.4325 -4.1268 -2.1536
   72MOL0     H 9905   2.681   1.437   7.004 -1.2365 -0.0639 -0.9212
   72MOL0     H 9906   2.656   1.405   7.234 -1.8456 -0.8626 -2.4466
   72MOL0     H 9907   2.534   1.528   7.237 -1.1981 -0.9825 -2.1180
   72MOL0     H 9908   2.837   1.577   7.218 -0.3179 -0.3897 -0.9434
   72MOL0     H 9909   2.716   1.696   7.232  0.4284 -0.1914  0.8914
   72MOL0     H 9910   2.737   1.469   7.434 -2.6643  0.9788 -1.8416
   72MOL0     H 9911   2.629   1.595   7.453 -0.5560  0.4695  1.3415
   72MOL0     H 9912   2.922   1.677   7.467  1.4323 -2.9814  2.0964
   72MOL0     H 9913   2.845   1.595   7.603  3.3228  0.2591  0.1931
   72MOL0     H 9914   2.732   1.847   7.473  1.3534  0.6780  1.3523
   72MOL0     H 9915   2.849   1.842   7.602 -0.8830 -0.3794  0.0573
   72MOL0     H 9916   2.546   1.457   6.526 -0.2970 -0.5378 -0.9556
   72MOL0     H 9917   2.500   1.566   6.314  0.5386  1.7125 -0.7939
   72MOL0     H 9918   2.066   1.863   6.165 -2.8649 -0.7471 -1.6326
   72MOL0     H 9919   1.980   1.971   5.963  0.0176 -1.7679 -0.6436
   72MOL0     H 9920   2.159   3.310   4.522 -1.2206 -0.2339  0.7443
   72MOL0     H 9921   2.326   3.398   4.350  1.6778  1.5669  4.1312
   72MOL0     H 9922   2.708   3.229   4.078 -0.2461  0.5502  0.1617
   72MOL0     H 9923   2.907   3.336   3.958 -0.7374 -0.9757 -2.1393
   72MOL0     H 9924   2.868   3.694   3.664 -1.7591  0.5919  0.7483
   72MOL0     H 9925   2.827   3.758   3.825 -0.1673 -0.0727  0.4817
   72MOL0     H 9926   3.032   3.854   3.724  1.2272 -0.7971 -1.0237
   72MOL0     H 9927   3.115   3.700   3.755  0.9847  2.1861 -0.0843
   72MOL0     H 9928   2.986   3.853   3.974 -0.0062 -2.5154  3.1595
   72MOL0     H 9929   3.055   3.708   3.992  1.4078  1.6568  3.5116
   72MOL0     H 9930   3.225   3.937   3.881 -0.8056  0.8123  0.0707
   72MOL0     H 9931   3.273   3.777   3.972 -0.6019  0.5090 -0.3740
   72MOL0     H 9932   3.172   4.101   4.241  0.0182  1.9414 -3.4938
   72MOL0     H 9933   2.657   3.662   3.848 -1.4983 -1.2207 -2.5689
   72MOL0     H 9934   2.381   3.600   4.049 -0.1345  2.0489 -0.0013
   72MOL0     H 9935   2.449   3.697   3.915  0.0538 -0.5439 -2.0410
   72MOL0     H 9936   2.371   3.532   3.888  1.5231 -1.1052 -0.1698
   73MOL0     O 9937   6.851   7.961   9.628  0.1376 -0.3358 -0.0182
   73MOL0     C 9938   6.903   8.033   9.705 -0.1182  0.3017  0.2836
   73MOL0     O 9939   6.919   8.004   9.842  0.6982 -0.2736  0.2768
   73MOL0     C 9940   6.886   7.875   9.879  0.2976 -0.1978  0.6422
   73MOL0     C 9941   6.749   7.820   9.876 -0.8646 -0.5519 -1.0003
   73MOL0     C 9942   6.738   7.684   9.907 -0.1163 -0.2472  0.6985
   73MOL0     C 9943   6.843   7.598   9.943 -1.3147 -0.2962 -0.9295
   73MOL0     O 9944   6.822   7.466   9.974  0.3722  0.2337  0.0817
   73MOL0     C 9945   6.755   7.454  10.106 -0.6969 -1.5035 -0.5730
   73MOL0     C 9946   6.735   7.317  10.155  0.3026  0.0547  0.0859
   73MOL0     C 9947   6.637   7.295  10.273  0.6266 -0.9296 -0.5009
   73MOL0     C 9948   6.690   7.194  10.373 -1.5787  0.2780  0.7277
   73MOL0     C 9949   6.599   7.177  10.491  0.3292 -0.1795  0.2159
   73MOL0     C 9950   6.678   7.084  10.587 -1.2279  0.7514 -0.7746
   73MOL0     C 9951   6.572   7.039  10.693  0.2514 -0.1035 -0.2581
   73MOL0     C 9952   6.645   6.973  10.817  0.6019  0.3553  0.4072
   73MOL0     N 9953   6.669   6.827  10.796 -0.0297 -0.2194  0.3638
   73MOL0     C 9954   6.578   6.724  10.762 -0.8091 -0.9566 -0.5798
   73MOL0     C 9955   6.642   6.610  10.795  0.0384 -0.2358 -0.0220
   73MOL0     C 9956   6.588   6.470  10.799  0.5884  0.8347  0.3778
   73MOL0     C 9957   6.659   6.358  10.733 -0.0748  0.5753  1.4135
   73MOL0     C 9958   6.611   6.216  10.762  0.8011  0.6036  0.3743
   73MOL0     C 9959   6.690   6.115  10.673 -0.0369 -0.3376 -0.8025
   73MOL0     O 9960   6.654   5.982  10.722 -0.6620  0.1626 -0.0884
   73MOL0     C 9961   6.685   5.871  10.640 -0.0664 -0.4852  0.4115
   73MOL0     C 9962   6.767   5.765  10.675 -0.3750  0.4836  0.3820
   73MOL0     C 9963   6.791   5.647  10.591 -0.0505 -0.9216  1.7442
   73MOL0     C 9964   6.879   5.550  10.652 -0.3289  0.8672 -0.0003
   73MOL0     C 9965   6.746   5.643  10.456  0.2972  1.0009  0.0739
   73MOL0     C 9966   6.771   5.537  10.357  0.3975  0.2040 -0.6473
   73MOL0     O 9967   6.754   5.414  10.404  0.4943 -0.4730  0.2976
   73MOL0     C 9968   6.772   5.303  10.328  0.4784  0.0090  0.2275
   73MOL0     C 9969   6.706   5.288  10.197 -0.5529  0.2880  0.4971
   73MOL0     C 9970   6.762   5.177  10.116  0.4282  0.2680 -0.3923
   73MOL0     C 9971   6.863   5.093  10.158  0.0360  0.1424  0.5689
   73MOL0     O 9972   6.913   4.986  10.083 -0.1478 -0.0625 -0.2906
   73MOL0     C 9973   6.819   4.921  10.001  0.2762 -0.0142 -0.7903
   73MOL0     C 9974   6.852   4.772   9.969 -0.2770  0.1412 -0.4907
   73MOL0     C 9975   6.991   4.758   9.898  0.6220  0.6549 -0.6775
   73MOL0     C 9976   7.030   4.610   9.868  0.2613  0.9024  0.8891
   73MOL0     C 9977   7.178   4.585   9.834 -0.3150 -0.1467  0.2181
   73MOL0     C 9978   7.214   4.607   9.687 -0.0441 -0.9400  0.4602
   73MOL0     C 9979   7.366   4.578   9.648 -0.0415  1.0354  0.7003
   73MOL0     C 9980   7.389   4.626   9.508  0.2909 -0.1570 -0.3711
   73MOL0    Cl 9981   7.364   4.795   9.482  0.7098 -0.1447  0.1796
   73MOL0     C 9982   6.921   5.112  10.286 -0.5492 -0.1733 -0.9203
   73MOL0     C 9983   6.884   5.221  10.368 -0.9567 -0.9624  0.3996
   73MOL0     O 9984   6.798   5.563  10.242  0.5127  0.1506 -0.6394
   73MOL0     C 9985   6.664   5.746  10.431 -0.3174  0.4216  1.0064
   73MOL0     C 9986   6.640   5.859  10.514 -0.2072  0.0957 -0.0397
   73MOL0     N 9987   6.768   6.643  10.841 -0.8846 -0.1715  0.0664
   73MOL0     N 9988   6.788   6.769  10.830  0.8443 -1.0482  0.0450
   73MOL0     C 9989   6.971   7.655   9.954 -1.3002 -0.5435 -0.1595
   73MOL0     C 9990   6.991   7.799   9.920 -0.0796 -0.1049  0.1424
   73MOL0     C 9991   6.950   8.173   9.665  0.6975  0.6428  0.1904
   73MOL0     C 9992   7.066   8.225   9.720 -0.0370  0.2064 -0.1617
   73MOL0     C 9993   7.109   8.361   9.692 -0.0369  0.7462 -1.5031
   73MOL0     C 9994   7.038   8.439   9.613 -0.7116 -0.2061  0.2855
   73MOL0     O 9995   7.059   8.575   9.603 -0.6323 -0.1420  0.0291
   73MOL0     C 9996   7.085   8.661   9.718  0.3026  0.3866 -0.8724
   73MOL0     C 9997   7.220   8.726   9.694 -0.9756 -1.0605 -0.1169
   73MOL0     C 9998   7.226   8.833   9.583  0.6331  0.1910 -0.6374
   73MOL0     C 9999   7.365   8.876   9.549 -0.1890  0.7131  0.2702
   73MOL0     C10000   7.443   8.767   9.487 -0.2241  0.0458  0.0122
   73MOL0     C10001   7.488   8.665   9.437 -0.5229  0.5819  0.4802
   73MOL0     C10002   6.928   8.390   9.550  0.4881  0.5193  0.2256
   73MOL0     C10003   6.879   8.262   9.579  0.2756 -0.1695 -0.0330
   73MOL0     C10004   6.747   8.225   9.522 -1.1567  0.0914 -0.5751
   73MOL0     H10005   6.667   7.886   9.850  0.1506  1.4262  0.5856
   73MOL0     H10006   6.641   7.636   9.912  0.1677 -0.9897 -0.5314
   73MOL0     H10007   6.660   7.507  10.097  0.0078 -0.4654 -2.5356
   73MOL0     H10008   6.814   7.501  10.185 -0.2625  0.2416 -1.8667
   73MOL0     H10009   6.688   7.266  10.071  2.4631 -0.6218 -0.7762
   73MOL0     H10010   6.829   7.267  10.177  1.4198  1.2038 -1.8341
   73MOL0     H10011   6.620   7.386  10.331 -2.9200 -0.4228 -2.0660
   73MOL0     H10012   6.539   7.270  10.229  0.5583  0.1485 -1.0042
   73MOL0     H10013   6.695   7.099  10.319  0.1251  0.2335  0.9150
   73MOL0     H10014   6.789   7.229  10.405 -1.3757 -0.7805  1.3029
   73MOL0     H10015   6.505   7.131  10.460  1.4862  0.2266 -4.6214
   73MOL0     H10016   6.574   7.271  10.541 -0.0618 -0.5079  0.6400
   73MOL0     H10017   6.720   6.997  10.537  0.0796  1.7496 -1.4674
   73MOL0     H10018   6.761   7.138  10.635 -0.5850  0.3673 -1.4487
   73MOL0     H10019   6.498   6.975  10.646 -1.2114 -0.2270  2.0627
   73MOL0     H10020   6.523   7.129  10.731 -0.3027  0.0795 -1.3875
   73MOL0     H10021   6.731   7.027  10.858  1.1245  1.8384 -2.3748
   73MOL0     H10022   6.575   6.968  10.901 -0.4054 -2.4733 -0.4833
   73MOL0     H10023   6.472   6.728  10.739 -1.2979 -0.1090  1.5220
   73MOL0     H10024   6.486   6.465  10.760  0.8138 -0.0213 -0.1286
   73MOL0     H10025   6.571   6.437  10.902  0.1926  0.3758  0.1701
   73MOL0     H10026   6.651   6.387  10.628  2.1285  1.7728  1.5092
   73MOL0     H10027   6.760   6.361  10.776 -0.0982 -1.2695  1.7043
   73MOL0     H10028   6.610   6.201  10.871 -3.2222 -2.0944  0.1797
   73MOL0     H10029   6.507   6.208  10.731  0.2248  1.6007  1.9422
   73MOL0     H10030   6.665   6.141  10.570 -1.2639  2.2039  0.0646
   73MOL0     H10031   6.799   6.127  10.680  0.0345 -0.4370 -1.6176
   73MOL0     H10032   6.819   5.766  10.771  2.6913 -3.7376 -0.9310
   73MOL0     H10033   6.941   5.504  10.575  3.3051 -1.1094  3.7199
   73MOL0     H10034   6.828   5.473  10.710  1.4685  0.2504  0.8305
   73MOL0     H10035   6.946   5.603  10.721 -0.2664 -1.8880  2.2600
   73MOL0     H10036   6.633   5.352  10.150 -0.4263  0.4114  0.4673
   73MOL0     H10037   6.723   5.164  10.016  1.2347 -1.7452 -0.5002
   73MOL0     H10038   6.725   4.923  10.057  1.0339 -1.5964  0.6269
   73MOL0     H10039   6.824   4.987   9.914  3.4283  1.1868  0.1679
   73MOL0     H10040   6.850   4.710  10.059 -1.4522  1.1953  0.2521
   73MOL0     H10041   6.779   4.732   9.898 -0.8782 -1.6721  1.0591
   73MOL0     H10042   7.070   4.792   9.965  0.1793 -1.5106  1.0792
   73MOL0     H10043   6.984   4.818   9.807 -1.0165  0.5537 -0.6569
   73MOL0     H10044   6.967   4.563   9.792  2.8480  2.3629 -2.4523
   73MOL0     H10045   7.009   4.549   9.956 -0.5657 -0.3086 -0.1102
   73MOL0     H10046   7.235   4.657   9.892 -0.7599 -0.3446  0.9047
   73MOL0     H10047   7.206   4.481   9.852 -2.4846 -0.9368 -0.6582
   73MOL0     H10048   7.191   4.714   9.678  0.0178 -0.7257  2.3686
   73MOL0     H10049   7.145   4.551   9.623 -1.5164  0.6097  0.6074
   73MOL0     H10050   7.389   4.471   9.645 -0.5339  0.9475 -2.2663
   73MOL0     H10051   7.436   4.632   9.713 -0.3511  1.4196  0.7194
   73MOL0     H10052   7.329   4.574   9.434  0.3408  0.6189 -0.9644
   73MOL0     H10053   7.494   4.607   9.481  0.5043  0.0242  0.3054
   73MOL0     H10054   7.000   5.052  10.329  0.1484  0.1658 -1.7030
   73MOL0     H10055   6.948   5.248  10.451  2.1494  0.5453 -2.2398
   73MOL0     H10056   6.628   5.754  10.329 -0.5464 -3.2746  0.6752
   73MOL0     H10057   6.573   5.939  10.486  0.5136 -0.1015 -2.6134
   73MOL0     H10058   7.059   7.605   9.993 -1.6276 -0.4358  0.7615
   73MOL0     H10059   7.088   7.847   9.914 -0.6658  1.0409 -0.7393
   73MOL0     H10060   7.115   8.163   9.794 -3.8824 -1.7782  0.9645
   73MOL0     H10061   7.194   8.394   9.750 -1.6376  1.9171  0.3136
   73MOL0     H10062   7.005   8.736   9.726  1.5394  1.7850 -1.1152
   73MOL0     H10063   7.094   8.601   9.809  1.0366 -0.6774 -1.6226
   73MOL0     H10064   7.289   8.644   9.672 -0.1722 -0.1521 -1.1517
   73MOL0     H10065   7.259   8.770   9.787 -2.0203  0.3610 -0.3204
   73MOL0     H10066   7.173   8.808   9.491  1.1957 -0.3646 -0.8232
   73MOL0     H10067   7.175   8.921   9.622  0.7129 -0.4317  0.9576
   73MOL0     H10068   7.405   8.921   9.640 -3.0145  2.5081  0.7343
   73MOL0     H10069   7.351   8.960   9.480 -1.5736  0.0814 -0.2672
   73MOL0     H10070   7.531   8.578   9.394  1.0533  0.3516  2.4101
   73MOL0     H10071   6.877   8.458   9.482  2.5101  1.5097 -0.3666
   73MOL0     H10072   6.705   8.314   9.475 -0.0855  1.0448  0.2336
   73MOL0     H10073   6.763   8.157   9.438  2.4951 -2.5267  1.9003
   73MOL0     H10074   6.686   8.172   9.597  2.1237  1.6776  3.6153
   74MOL0     O10075   3.719   1.797   7.878  0.0299  0.7076  0.8126
   74MOL0     C10076   3.738   1.722   7.977 -1.6122 -0.5228 -0.0201
   74MOL0     O10077   3.846   1.646   7.994 -0.1754  0.9073  0.6993
   74MOL0     C10078   3.946   1.651   7.901  0.2185 -0.1984 -0.4376
   74MOL0     C10079   4.057   1.732   7.928  0.1177 -0.0114 -0.0979
   74MOL0     C10080   4.160   1.754   7.832 -0.0601 -0.1284  0.6538
   74MOL0     C10081   4.158   1.685   7.711  1.5303  0.1528 -0.5062
   74MOL0     O10082   4.265   1.682   7.619  0.3247 -0.7140 -0.0045
   74MOL0     C10083   4.399   1.662   7.668  0.1642  0.7050  0.1610
   74MOL0     C10084   4.470   1.801   7.684  0.4577  0.6316  0.1861
   74MOL0     C10085   4.471   1.866   7.549  0.8479 -0.3658 -0.0941
   74MOL0     C10086   4.568   1.983   7.531 -1.0764 -0.1612 -1.1663
   74MOL0     C10087   4.524   2.089   7.430  0.9204  0.6534  0.6662
   74MOL0     C10088   4.612   2.208   7.442  0.0312 -0.0789 -0.1341
   74MOL0     C10089   4.568   2.314   7.336 -0.4078 -0.1369  0.1323
   74MOL0     C10090   4.614   2.455   7.377  0.2230  0.4033  0.2933
   74MOL0     N10091   4.640   2.546   7.267 -0.6725  0.0840  0.3127
   74MOL0     C10092   4.747   2.526   7.176 -0.5648  0.5054  0.5386
   74MOL0     C10093   4.751   2.642   7.098 -0.9434 -0.2337  0.6709
   74MOL0     C10094   4.844   2.653   6.972 -0.3755  0.3608 -1.7319
   74MOL0     C10095   4.812   2.541   6.875  0.7697 -0.1977 -0.3957
   74MOL0     C10096   4.672   2.553   6.811 -0.4302 -0.2473  1.2311
   74MOL0     C10097   4.659   2.673   6.716  0.5157  0.0128 -0.6379
   74MOL0     O10098   4.540   2.671   6.635  0.8624  0.0240  0.3462
   74MOL0     C10099   4.458   2.779   6.638  0.5627 -0.0709  0.2541
   74MOL0     C10100   4.386   2.792   6.512  0.8565  0.0165 -0.7869
   74MOL0     C10101   4.310   2.908   6.484  0.3570  0.4596  0.3788
   74MOL0     C10102   4.214   2.902   6.354  0.3558  0.1142 -0.6502
   74MOL0     C10103   4.313   3.020   6.572  0.8287 -0.1668 -0.2345
   74MOL0     C10104   4.232   3.145   6.548 -0.1245 -0.6959 -0.6182
   74MOL0     O10105   4.203   3.207   6.429  0.0293 -0.2040 -0.7337
   74MOL0     C10106   4.129   3.312   6.398  0.5595 -0.5000 -0.2870
   74MOL0     C10107   4.017   3.358   6.473  0.1375  0.1814  0.0334
   74MOL0     C10108   3.951   3.479   6.440 -0.4551  0.2821  0.3189
   74MOL0     C10109   3.992   3.554   6.323 -0.7542  0.1682 -0.5547
   74MOL0     O10110   3.936   3.674   6.285 -0.3204  0.6209  0.1129
   74MOL0     C10111   3.850   3.674   6.172  0.5245  0.2549 -0.2368
   74MOL0     C10112   3.775   3.807   6.155  0.1500  0.4898 -0.2780
   74MOL0     C10113   3.684   3.827   6.280 -0.5496  0.6391  0.2662
   74MOL0     C10114   3.612   3.964   6.266 -0.4877 -0.3502  0.0818
   74MOL0     C10115   3.497   3.978   6.368 -0.2270  0.2627 -0.4350
   74MOL0     C10116   3.474   4.120   6.433  0.2747 -0.4256  0.4029
   74MOL0     C10117   3.346   4.131   6.515  0.8408 -0.2109 -1.2432
   74MOL0     C10118   3.214   4.180   6.449 -0.3650 -0.4150  0.5593
   74MOL0    Cl10119   3.231   4.337   6.366 -0.2361  0.2000 -0.2676
   74MOL0     C10120   4.102   3.510   6.250  1.4174 -0.4790  0.2221
   74MOL0     C10121   4.158   3.387   6.284  1.0116 -0.2484  0.3567
   74MOL0     O10122   4.183   3.188   6.654  0.3859  0.7429 -0.3944
   74MOL0     C10123   4.393   3.008   6.691 -0.3845  0.1652 -0.2369
   74MOL0     C10124   4.462   2.889   6.719 -0.2297 -0.1374 -0.2274
   74MOL0     N10125   4.670   2.741   7.159  0.1297 -0.5252 -0.6234
   74MOL0     N10126   4.609   2.680   7.255  0.1276 -0.3909  0.2361
   74MOL0     C10127   4.044   1.611   7.680  0.0493  0.4262  0.2784
   74MOL0     C10128   3.941   1.594   7.773 -1.0084  1.0212 -0.3951
   74MOL0     C10129   3.630   1.713   8.067  1.2070 -0.4546 -0.1701
   74MOL0     C10130   3.554   1.819   8.088  0.8678 -0.4184 -0.0951
   74MOL0     C10131   3.464   1.834   8.188  0.2452  0.6836  0.5862
   74MOL0     C10132   3.437   1.719   8.276  0.9357  0.0704  0.1239
   74MOL0     O10133   3.354   1.725   8.375 -0.0064  0.0783 -0.8481
   74MOL0     C10134   3.400   1.698   8.508  0.0148  0.0281  0.1761
   74MOL0     C10135   3.285   1.639   8.589  0.1433  0.6565 -0.3906
   74MOL0     C10136   3.326   1.648   8.742  0.0890  0.4071 -0.5676
   74MOL0     C10137   3.207   1.621   8.829  0.1517 -0.3150  0.3735
   74MOL0     C10138   3.156   1.482   8.837  1.3468 -0.1322  0.6129
   74MOL0     C10139   3.094   1.364   8.843 -0.4472 -0.3294  0.4610
   74MOL0     C10140   3.512   1.601   8.246  0.8374 -0.4538  0.6840
   74MOL0     C10141   3.605   1.598   8.145 -0.1896  0.4014 -0.0161
   74MOL0     C10142   3.678   1.474   8.144 -0.0237  0.0310  1.2957
   74MOL0     H10143   4.073   1.773   8.026 -0.7406 -0.7617  0.3786
   74MOL0     H10144   4.246   1.811   7.865  2.5127 -2.2145 -1.8236
   74MOL0     H10145   4.460   1.603   7.599 -1.5946 -1.6069  0.4712
   74MOL0     H10146   4.405   1.608   7.763 -2.1088  0.4649  0.2264
   74MOL0     H10147   4.416   1.879   7.739  0.5505  2.9001 -2.6204
   74MOL0     H10148   4.571   1.786   7.721 -0.7245 -1.8177  2.7621
   74MOL0     H10149   4.490   1.797   7.467 -1.8808 -1.8309  0.3853
   74MOL0     H10150   4.368   1.904   7.538 -0.6738 -3.9812  0.3344
   74MOL0     H10151   4.578   2.037   7.626  1.4684 -2.0274 -0.2815
   74MOL0     H10152   4.666   1.951   7.496  0.8074  2.0534  1.5591
   74MOL0     H10153   4.423   2.122   7.455  0.3964 -1.6611  1.8566
   74MOL0     H10154   4.520   2.041   7.331 -0.2260 -0.4723  1.2252
   74MOL0     H10155   4.612   2.266   7.534 -0.3376  0.2789 -0.3546
   74MOL0     H10156   4.717   2.178   7.434  1.0873  3.6730 -3.4636
   74MOL0     H10157   4.459   2.316   7.320 -0.3055  1.0924 -0.5094
   74MOL0     H10158   4.611   2.290   7.238 -1.1399 -0.4133 -0.1356
   74MOL0     H10159   4.540   2.487   7.451  0.7490 -1.0791  1.5256
   74MOL0     H10160   4.710   2.450   7.429 -0.6620 -0.3775  1.9021
   74MOL0     H10161   4.801   2.437   7.147 -1.2699  0.7827 -1.8162
   74MOL0     H10162   4.944   2.636   7.014 -2.1909 -2.5538  1.9111
   74MOL0     H10163   4.829   2.746   6.915  0.7103  0.0024 -2.6558
   74MOL0     H10164   4.897   2.541   6.807  1.0031  0.3334 -0.1100
   74MOL0     H10165   4.831   2.445   6.926 -2.2308 -0.2755  0.8045
   74MOL0     H10166   4.659   2.455   6.764 -0.1235 -0.2963  1.2419
   74MOL0     H10167   4.598   2.564   6.890 -4.0829  1.6361 -2.1120
   74MOL0     H10168   4.660   2.760   6.783  0.9843 -0.2337 -0.3287
   74MOL0     H10169   4.747   2.676   6.652  2.1722 -1.0966  1.4826
   74MOL0     H10170   4.395   2.721   6.431  1.0419 -3.8217  2.2842
   74MOL0     H10171   4.108   2.887   6.378  0.7913 -1.0156  0.7029
   74MOL0     H10172   4.242   2.827   6.280 -0.7090  1.8326 -2.9105
   74MOL0     H10173   4.222   3.000   6.306 -2.7318  0.2903 -1.0285
   74MOL0     H10174   3.993   3.314   6.570 -1.4183  1.3102  0.1933
   74MOL0     H10175   3.870   3.517   6.501 -1.4281 -0.7942 -0.2622
   74MOL0     H10176   3.912   3.648   6.085  3.4071 -2.8000  2.4405
   74MOL0     H10177   3.773   3.597   6.172  0.8079 -0.0391  0.9065
   74MOL0     H10178   3.848   3.888   6.146  2.7921 -1.4829  1.7968
   74MOL0     H10179   3.708   3.801   6.069 -0.5877 -1.0590  0.3592
   74MOL0     H10180   3.741   3.824   6.373 -2.0565 -0.9664  1.2152
   74MOL0     H10181   3.609   3.747   6.283 -1.4128  1.3256 -1.4143
   74MOL0     H10182   3.581   3.990   6.164  1.5306  3.8994  0.3273
   74MOL0     H10183   3.682   4.042   6.296  1.2384 -1.4861 -0.8399
   74MOL0     H10184   3.402   3.953   6.320 -1.0935 -0.9773  1.7661
   74MOL0     H10185   3.510   3.903   6.447 -0.6580 -0.5108 -1.0850
   74MOL0     H10186   3.480   4.193   6.352  1.9414 -2.8052 -1.8097
   74MOL0     H10187   3.562   4.134   6.497  0.3017  0.3164  0.2149
   74MOL0     H10188   3.359   4.207   6.592 -1.0681  2.4628 -3.3700
   74MOL0     H10189   3.305   4.040   6.562 -1.4706  1.4164  0.0926
   74MOL0     H10190   3.142   4.194   6.531 -1.6266 -1.0228 -0.4038
   74MOL0     H10191   3.166   4.110   6.380 -0.2997 -1.6925  1.7427
   74MOL0     H10192   4.135   3.562   6.161  1.2253 -1.4851 -0.4578
   74MOL0     H10193   4.248   3.352   6.235  0.1936 -1.2552 -0.4857
   74MOL0     H10194   4.390   3.087   6.765  0.8461  0.4066 -0.4192
   74MOL0     H10195   4.515   2.885   6.814  1.4901 -1.3337 -1.1907
   74MOL0     H10196   4.054   1.546   7.593 -0.5736 -1.5100  1.5804
   74MOL0     H10197   3.875   1.512   7.747  0.4083 -0.2719 -0.0431
   74MOL0     H10198   3.570   1.908   8.028  0.9006  0.1039  0.6652
   74MOL0     H10199   3.414   1.929   8.203 -3.2027 -0.4564 -2.3726
   74MOL0     H10200   3.479   1.622   8.506 -2.4751 -2.7937  1.5791
   74MOL0     H10201   3.435   1.794   8.547 -0.4780  1.0122 -1.7059
   74MOL0     H10202   3.265   1.536   8.561  1.6446  0.2488 -0.0596
   74MOL0     H10203   3.194   1.695   8.566  0.6541  1.5860 -0.2220
   74MOL0     H10204   3.402   1.574   8.769 -2.6018 -1.2530  3.4845
   74MOL0     H10205   3.351   1.753   8.760 -3.9780  1.2415  1.3020
   74MOL0     H10206   3.130   1.682   8.780  0.5776  1.4362  1.7602
   74MOL0     H10207   3.215   1.662   8.931  0.7938  1.8111 -0.4705
   74MOL0     H10208   3.037   1.273   8.840 -1.3294  0.2164 -2.4456
   74MOL0     H10209   3.495   1.521   8.317  0.1380 -0.1535  0.8605
   74MOL0     H10210   3.698   1.446   8.040 -1.0274  1.1788  0.7711
   74MOL0     H10211   3.769   1.459   8.202  1.3856  0.6794 -0.6532
   74MOL0     H10212   3.605   1.398   8.175  0.7895 -1.4273 -0.1878
   75MOL0     O10213   8.621   0.217   7.783 -0.5139 -0.7782 -0.2711
   75MOL0     C10214   8.560   0.119   7.800  0.3536  0.4220 -0.6514
   75MOL0     O10215   8.613   0.005   7.839  0.1046  0.8074 -0.0438
   75MOL0     C10216   8.744   0.006   7.884  0.2471  0.6096  0.8756
   75MOL0     C10217   8.846  -0.049   7.806  0.4974  0.7895 -0.3407
   75MOL0     C10218   8.976  -0.066   7.849  0.5361 -0.2304  0.3299
   75MOL0     C10219   9.010  -0.017   7.974 -0.2610  1.1140  0.5974
   75MOL0     O10220   9.150  -0.027   7.997 -0.1325  0.3815 -0.6438
   75MOL0     C10221   9.202   0.032   8.112  0.2699  0.1217  0.5940
   75MOL0     C10222   9.350   0.007   8.109 -0.0940 -0.0776  0.7238
   75MOL0     C10223   9.424   0.042   8.243 -0.2664  0.2726 -0.8721
   75MOL0     C10224   9.564   0.104   8.215 -0.0273  0.1439  0.2183
   75MOL0     C10225   9.645   0.122   8.344  0.0554  0.1642  0.0173
   75MOL0     C10226   9.781   0.041   8.332  0.6545 -0.0667 -0.2938
   75MOL0     C10227   9.896   0.118   8.243 -0.4948 -0.0351  0.0021
   75MOL0     C10228  10.028   0.037   8.256  0.8973  0.2360 -0.6731
   75MOL0     N10229  10.011  -0.099   8.211 -0.9062 -0.0956 -0.6093
   75MOL0     C10230  10.044  -0.154   8.083  0.9473  0.3432 -0.2841
   75MOL0     C10231  10.013  -0.281   8.086 -0.2155 -0.3585  0.5656
   75MOL0     C10232  10.031  -0.382   7.971 -0.3887  0.2373  0.0808
   75MOL0     C10233  10.149  -0.479   8.000  0.9429 -0.0719 -1.0946
   75MOL0     C10234  10.165  -0.583   7.893  0.6220  0.1955  0.0087
   75MOL0     C10235  10.231  -0.544   7.765  0.5343  0.3911 -0.7076
   75MOL0     O10236  10.247  -0.647   7.675  0.0952 -0.4220  0.4028
   75MOL0     C10237  10.297  -0.612   7.552 -0.3574 -0.1270 -0.4409
   75MOL0     C10238  10.217  -0.613   7.444  0.1402  0.6282  0.6245
   75MOL0     C10239  10.272  -0.566   7.323 -0.4427 -0.0058  0.6205
   75MOL0     C10240  10.184  -0.583   7.202 -0.3867  0.4572  0.7706
   75MOL0     C10241  10.407  -0.523   7.319 -1.0243 -0.0697  0.0221
   75MOL0     C10242  10.482  -0.477   7.202  0.3747  0.7329  0.3823
   75MOL0     O10243  10.565  -0.367   7.219  0.0967 -0.0412 -0.1783
   75MOL0     C10244  10.602  -0.292   7.111 -1.2604  0.0968  0.4715
   75MOL0     C10245  10.510  -0.213   7.045 -0.8844 -0.2519 -0.7204
   75MOL0     C10246  10.543  -0.144   6.927  0.8176 -0.0588  0.2098
   75MOL0     C10247  10.681  -0.148   6.874  0.6768 -0.1780  0.1791
   75MOL0     O10248  10.699  -0.077   6.760  0.7860  0.0463 -0.4402
   75MOL0     C10249  10.760  -0.152   6.651 -0.3747  0.4770 -0.0361
   75MOL0     C10250  10.774  -0.060   6.545  0.1090 -0.0644  1.1104
   75MOL0     C10251  10.632   0.004   6.502 -0.4636 -0.6070 -0.3465
   75MOL0     C10252  10.625   0.029   6.352  1.4093 -0.3283  0.0365
   75MOL0     C10253  10.478   0.059   6.305 -0.3400 -0.2584  0.4729
   75MOL0     C10254  10.435   0.203   6.346  0.1235  0.2170 -0.3954
   75MOL0     C10255  10.285   0.216   6.320 -0.0659  1.0209 -0.3455
   75MOL0     C10256  10.200   0.145   6.430 -0.8979  0.2373 -0.1523
   75MOL0    Cl10257  10.232   0.219   6.588 -0.2926  0.5060 -0.1995
   75MOL0     C10258  10.769  -0.225   6.949  0.4479  0.1411 -0.0483
   75MOL0     C10259  10.739  -0.290   7.069  0.2467  0.0901 -0.3412
   75MOL0     O10260  10.465  -0.536   7.092 -0.0579  0.3547 -0.0396
   75MOL0     C10261  10.483  -0.531   7.435 -0.6366  0.0451  0.2440
   75MOL0     C10262  10.427  -0.577   7.549  0.6492  0.3184  0.1143
   75MOL0     N10263   9.967  -0.317   8.210 -0.0210 -0.6643  0.3801
   75MOL0     N10264   9.955  -0.211   8.279  0.3495 -0.3221 -0.6148
   75MOL0     C10265   8.918   0.057   8.048 -0.2803  0.2762 -0.3607
   75MOL0     C10266   8.782   0.056   8.005  0.1727  0.1833 -0.8204
   75MOL0     C10267   8.418   0.117   7.789 -0.2881 -0.8264  0.2591
   75MOL0     C10268   8.364   0.013   7.715  0.0053  0.4523  0.3958
   75MOL0     C10269   8.227   0.011   7.685  0.4040  0.4226  0.4507
   75MOL0     C10270   8.148   0.117   7.742  0.0207  0.8160 -0.7118
   75MOL0     O10271   8.011   0.131   7.719  0.5481  0.0519  0.7374
   75MOL0     C10272   7.956   0.046   7.620  0.0640 -0.0531 -0.2476
   75MOL0     C10273   7.803   0.078   7.624 -0.0792  0.3379 -1.2016
   75MOL0     C10274   7.730  -0.003   7.522 -0.4951  0.0958 -0.2101
   75MOL0     C10275   7.615   0.072   7.464 -0.4831 -0.7383  0.3516
   75MOL0     C10276   7.541   0.144   7.565 -0.3398 -0.5680  0.0966
   75MOL0     C10277   7.488   0.217   7.642  0.6589 -0.8134  0.8050
   75MOL0     C10278   8.197   0.206   7.824  0.2604 -0.8522 -0.8715
   75MOL0     C10279   8.335   0.210   7.846  0.5671 -0.5879  0.2576
   75MOL0     C10280   8.392   0.308   7.950 -0.3216 -0.1887  0.0358
   75MOL0     H10281   8.831  -0.094   7.708  0.2570  1.2978 -0.5385
   75MOL0     H10282   9.052  -0.101   7.780  0.3415 -1.3956  0.6879
   75MOL0     H10283   9.158  -0.015   8.201  0.2304 -1.6215 -0.3034
   75MOL0     H10284   9.182   0.140   8.114 -2.1268 -0.0300 -3.7051
   75MOL0     H10285   9.371  -0.092   8.068  0.9526  0.4926 -0.1617
   75MOL0     H10286   9.393   0.063   8.027  0.2893  0.7659  1.4839
   75MOL0     H10287   9.367   0.116   8.299 -0.8948  0.7133 -2.0562
   75MOL0     H10288   9.432  -0.050   8.302 -0.8137  0.7473 -0.0336
   75MOL0     H10289   9.614   0.047   8.136 -1.7991 -1.4824  0.1982
   75MOL0     H10290   9.552   0.201   8.166 -0.3689 -1.4470 -3.1089
   75MOL0     H10291   9.590   0.082   8.430 -0.5560  2.4384  0.7563
   75MOL0     H10292   9.671   0.225   8.367 -0.9157  0.4276 -0.0217
   75MOL0     H10293   9.808   0.016   8.435  2.2321  2.6682  0.0652
   75MOL0     H10294   9.750  -0.051   8.283 -0.8586  0.2682 -0.0422
   75MOL0     H10295   9.906   0.221   8.279 -2.9515  0.1470  0.2779
   75MOL0     H10296   9.859   0.108   8.141 -1.9127 -4.0785  0.7264
   75MOL0     H10297  10.116   0.087   8.214  1.1580  0.6650  0.3453
   75MOL0     H10298  10.054   0.024   8.362 -0.5314  0.0150 -0.3333
   75MOL0     H10299  10.096  -0.109   7.999 -0.1960 -0.3774 -1.4001
   75MOL0     H10300  10.039  -0.332   7.874 -2.8772  0.3793 -0.1156
   75MOL0     H10301   9.941  -0.441   7.955  0.8116 -1.6102 -0.1216
   75MOL0     H10302  10.238  -0.418   8.019  0.0619  0.2072  3.5261
   75MOL0     H10303  10.119  -0.520   8.097 -2.2422  0.4134 -1.7651
   75MOL0     H10304  10.217  -0.671   7.931  0.7791  0.0957 -0.4379
   75MOL0     H10305  10.067  -0.622   7.866  1.0877 -1.6819  0.8660
   75MOL0     H10306  10.171  -0.464   7.723 -2.4462 -0.3909  1.6823
   75MOL0     H10307  10.329  -0.509   7.798  0.5542  0.2656 -0.6296
   75MOL0     H10308  10.116  -0.651   7.455  0.8392 -1.1219  1.4839
   75MOL0     H10309  10.196  -0.498   7.133 -2.0324  0.1970  0.1195
   75MOL0     H10310  10.081  -0.594   7.236 -0.7880 -1.2803 -0.8520
   75MOL0     H10311  10.210  -0.677   7.153  0.9486  0.2320  1.8600
   75MOL0     H10312  10.409  -0.218   7.085 -0.6635 -1.4025 -0.2668
   75MOL0     H10313  10.479  -0.077   6.871  0.7837 -0.7449 -0.5865
   75MOL0     H10314  10.858  -0.180   6.690 -0.4657 -1.7221 -1.2209
   75MOL0     H10315  10.695  -0.233   6.618 -2.2564  1.2056  1.6786
   75MOL0     H10316  10.857   0.007   6.569  2.7040 -3.0337  1.2290
   75MOL0     H10317  10.802  -0.114   6.453 -4.1322  0.4881 -0.7038
   75MOL0     H10318  10.626   0.102   6.549 -0.7395  0.1100 -1.8435
   75MOL0     H10319  10.558  -0.063   6.548  0.3413 -1.0863  0.2720
   75MOL0     H10320  10.638  -0.065   6.298  1.5455 -1.3530  1.7591
   75MOL0     H10321  10.697   0.103   6.316  1.0441  1.6495  2.9450
   75MOL0     H10322  10.475   0.036   6.198  1.2879 -3.6990  1.0110
   75MOL0     H10323  10.418  -0.018   6.355  1.1617 -0.7021  1.6731
   75MOL0     H10324  10.493   0.275   6.287  0.6576 -1.3416 -1.8690
   75MOL0     H10325  10.464   0.220   6.450 -2.2463  3.5357 -0.0892
   75MOL0     H10326  10.258   0.166   6.226  0.1945 -0.9341  0.5670
   75MOL0     H10327  10.249   0.319   6.328 -1.4976  0.4004  2.7693
   75MOL0     H10328  10.228   0.039   6.427 -4.4832 -0.8601  0.1592
   75MOL0     H10329  10.093   0.151   6.409 -1.1848 -0.3755  0.9920
   75MOL0     H10330  10.874  -0.233   6.921  0.5923 -1.8585  0.8531
   75MOL0     H10331  10.820  -0.332   7.128  0.2824  1.0138  0.2769
   75MOL0     H10332  10.590  -0.513   7.434 -0.7914  1.3193 -2.6501
   75MOL0     H10333  10.489  -0.592   7.637  0.3440 -3.4836 -0.1316
   75MOL0     H10334   8.957   0.098   8.141  0.1614  0.4410 -0.6126
   75MOL0     H10335   8.712   0.103   8.075 -0.0525 -0.4904 -0.5856
   75MOL0     H10336   8.425  -0.065   7.671  1.1326  0.8847  1.1392
   75MOL0     H10337   8.190  -0.070   7.623  0.6517 -1.9199  3.1367
   75MOL0     H10338   7.993   0.070   7.520  0.2486  1.0072  0.0626
   75MOL0     H10339   7.962  -0.061   7.643  0.2166 -0.3022 -1.3711
   75MOL0     H10340   7.799   0.187   7.612  3.9220  0.9707  1.2318
   75MOL0     H10341   7.771   0.054   7.726  1.7978 -2.6271 -1.1925
   75MOL0     H10342   7.795  -0.032   7.439 -0.2328  1.9235 -0.6711
   75MOL0     H10343   7.683  -0.089   7.571  0.0644  0.6270  1.2965
   75MOL0     H10344   7.548   0.004   7.410 -0.5049 -0.5416  0.1295
   75MOL0     H10345   7.649   0.144   7.388 -2.9219  0.3355  0.1684
   75MOL0     H10346   7.446   0.284   7.714 -3.0375  1.3763 -2.9350
   75MOL0     H10347   8.135   0.282   7.870  0.0956 -3.5667  4.1859
   75MOL0     H10348   8.311   0.367   7.992  0.0573  1.4080 -1.3686
   75MOL0     H10349   8.438   0.265   8.040  0.6581  1.0442  0.1417
   75MOL0     H10350   8.465   0.374   7.902 -0.0131 -0.0056  0.7375
   76MOL0     O10351   6.863   7.798   3.222  0.0666 -0.4950 -0.7063
   76MOL0     C10352   6.969   7.862   3.248  0.0188 -0.0135  0.5289
   76MOL0     O10353   6.980   7.989   3.294  0.4344 -0.2879 -0.4053
   76MOL0     C10354   6.877   8.049   3.368 -0.7056  0.4047  0.4035
   76MOL0     C10355   6.886   8.187   3.387 -0.3318 -0.3448  0.8548
   76MOL0     C10356   6.804   8.248   3.478 -0.6714  0.0676 -0.8675
   76MOL0     C10357   6.705   8.180   3.543  0.8382 -1.1309  0.1229
   76MOL0     O10358   6.622   8.229   3.640  0.2330 -0.1195 -0.3447
   76MOL0     C10359   6.540   8.349   3.612  0.2749 -0.2192 -0.0962
   76MOL0     C10360   6.446   8.369   3.739  0.2869 -0.2973 -1.3648
   76MOL0     C10361   6.526   8.392   3.868 -0.0129 -0.1314 -0.1935
   76MOL0     C10362   6.433   8.397   3.999 -0.7619  0.6992 -0.0288
   76MOL0     C10363   6.524   8.382   4.120 -0.6268  1.3967 -0.7940
   76MOL0     C10364   6.460   8.368   4.259  0.3497 -0.3861  0.1805
   76MOL0     C10365   6.565   8.350   4.371  0.1599 -0.6323 -0.0018
   76MOL0     C10366   6.646   8.222   4.364 -0.0448  0.3048  0.1232
   76MOL0     N10367   6.575   8.091   4.392  0.0826 -0.8087 -0.1481
   76MOL0     C10368   6.529   7.986   4.305  0.3530 -0.6598 -0.8641
   76MOL0     C10369   6.473   7.890   4.379 -0.9158  0.3397 -0.4170
   76MOL0     C10370   6.397   7.785   4.333 -0.4875  0.1932 -0.2075
   76MOL0     C10371   6.268   7.831   4.268 -0.3265 -0.0742  0.0593
   76MOL0     C10372   6.201   7.711   4.216  0.7127 -0.5130 -0.3285
   76MOL0     C10373   6.072   7.748   4.158  0.3269  0.1215  1.4431
   76MOL0     O10374   5.982   7.786   4.261 -0.5768  0.5643 -0.3619
   76MOL0     C10375   5.859   7.831   4.223 -0.0146 -0.4237 -0.2271
   76MOL0     C10376   5.805   7.845   4.092 -0.8631  0.1510 -0.3462
   76MOL0     C10377   5.679   7.899   4.071  0.1789  0.1576  0.2450
   76MOL0     C10378   5.625   7.913   3.932  0.3318  0.5570 -0.8358
   76MOL0     C10379   5.598   7.943   4.179 -0.0058 -0.6890 -0.7174
   76MOL0     C10380   5.458   7.987   4.156 -0.0865  0.3164 -0.1639
   76MOL0     O10381   5.386   7.944   4.050 -1.0832 -0.0209  0.0400
   76MOL0     C10382   5.253   7.963   4.056 -0.2096 -0.2593  0.3466
   76MOL0     C10383   5.171   7.878   4.133  1.1290 -1.2228 -0.0725
   76MOL0     C10384   5.035   7.906   4.164 -1.1480 -0.4110  0.3947
   76MOL0     C10385   4.976   8.022   4.101 -0.2511  0.7517 -1.2777
   76MOL0     O10386   4.839   8.038   4.122 -0.0695 -0.1825 -0.5419
   76MOL0     C10387   4.751   8.128   4.055 -0.3574  0.1385 -0.4782
   76MOL0     C10388   4.609   8.116   4.109  0.3383 -0.5736  0.2293
   76MOL0     C10389   4.609   8.188   4.248  0.1096 -1.0430 -0.8716
   76MOL0     C10390   4.495   8.125   4.335  0.3884  0.9654  0.9971
   76MOL0     C10391   4.509   8.175   4.475  0.4136 -0.3286  0.0989
   76MOL0     C10392   4.391   8.148   4.562 -0.0046  0.5628  0.3006
   76MOL0     C10393   4.423   8.215   4.697 -0.0196 -1.0616 -0.0511
   76MOL0     C10394   4.312   8.191   4.794 -0.6114 -0.3025  0.3034
   76MOL0    Cl10395   4.377   8.274   4.946 -0.3265 -0.2833  0.1012
   76MOL0     C10396   5.054   8.106   4.025  0.2500 -0.1484  0.0332
   76MOL0     C10397   5.189   8.071   4.001  0.2837 -0.1291 -0.3870
   76MOL0     O10398   5.415   8.063   4.238 -0.0620  0.4128  0.7471
   76MOL0     C10399   5.652   7.931   4.304  0.2179 -0.3150 -0.4780
   76MOL0     C10400   5.777   7.864   4.329  1.0555 -0.7768  0.0302
   76MOL0     N10401   6.481   7.929   4.517 -0.0690  0.5495 -0.3655
   76MOL0     N10402   6.528   8.054   4.514 -0.1117 -0.3605 -0.1419
   76MOL0     C10403   6.689   8.043   3.529  0.3433  0.1344  0.0792
   76MOL0     C10404   6.779   7.985   3.436  0.7502 -0.6481 -0.2008
   76MOL0     C10405   7.094   7.817   3.191  0.2916  0.3178 -0.1204
   76MOL0     C10406   7.201   7.757   3.262  0.8725 -0.3988 -0.1015
   76MOL0     C10407   7.300   7.708   3.190  0.0899  0.1318 -0.6111
   76MOL0     C10408   7.316   7.712   3.053  0.2352  0.2154  1.0871
   76MOL0     O10409   7.430   7.687   2.985  0.1008 -0.4545 -0.4287
   76MOL0     C10410   7.558   7.696   3.050  0.9530 -1.1989 -0.3049
   76MOL0     C10411   7.672   7.706   2.948 -0.6329  0.8280 -0.2435
   76MOL0     C10412   7.821   7.696   2.994  0.4263  0.7382 -0.2128
   76MOL0     C10413   7.863   7.572   3.081  0.3495 -0.5957  0.7275
   76MOL0     C10414   7.995   7.604   3.154 -0.2221  1.5547 -0.9707
   76MOL0     C10415   8.101   7.625   3.208  0.3848 -0.4204 -0.6092
   76MOL0     C10416   7.212   7.769   2.980  0.4889 -0.1426  0.0792
   76MOL0     C10417   7.104   7.823   3.046  0.1190 -0.1408 -0.0982
   76MOL0     C10418   6.998   7.896   2.965  0.1269  0.8161 -0.4220
   76MOL0     H10419   6.950   8.245   3.321 -2.9621  0.8567 -0.8088
   76MOL0     H10420   6.811   8.353   3.505  0.4411  0.3851 -2.2520
   76MOL0     H10421   6.479   8.326   3.524 -1.3247  0.2737  0.8527
   76MOL0     H10422   6.606   8.432   3.585  1.3173 -0.7544  0.7280
   76MOL0     H10423   6.372   8.447   3.717 -2.3827 -2.5182 -0.7808
   76MOL0     H10424   6.386   8.278   3.747  0.0496 -0.0935 -0.7505
   76MOL0     H10425   6.596   8.308   3.867  0.8331  0.5101  1.0792
   76MOL0     H10426   6.584   8.485   3.865  1.0023 -0.6770  1.1421
   76MOL0     H10427   6.369   8.485   4.008 -2.2140 -0.2508 -0.7156
   76MOL0     H10428   6.367   8.311   3.987 -1.6384  0.7957  3.0474
   76MOL0     H10429   6.598   8.462   4.127  2.5052 -1.3136 -0.1633
   76MOL0     H10430   6.584   8.291   4.110  0.8894  2.1276  0.9254
   76MOL0     H10431   6.399   8.459   4.267  0.5358 -0.2591  0.1737
   76MOL0     H10432   6.412   8.270   4.258  2.1528 -1.3781  2.4229
   76MOL0     H10433   6.508   8.346   4.464  1.7458 -0.7316  1.0227
   76MOL0     H10434   6.640   8.428   4.388 -0.7262  0.0336  0.9955
   76MOL0     H10435   6.693   8.212   4.266 -2.8837  1.8305 -1.5454
   76MOL0     H10436   6.725   8.228   4.440 -2.7998 -0.4001  3.2991
   76MOL0     H10437   6.525   7.997   4.197 -2.3891 -3.2715 -1.1581
   76MOL0     H10438   6.379   7.717   4.417  2.9784 -1.4561 -0.6351
   76MOL0     H10439   6.455   7.734   4.256  1.5424  1.5290  0.3418
   76MOL0     H10440   6.197   7.866   4.343  0.1613  0.6439  0.1941
   76MOL0     H10441   6.281   7.911   4.195 -0.1588  0.7639  0.9817
   76MOL0     H10442   6.257   7.657   4.139 -1.1279 -0.9411 -1.4164
   76MOL0     H10443   6.185   7.640   4.298 -2.1712 -0.6094 -0.8856
   76MOL0     H10444   6.078   7.822   4.078  2.2054 -1.3981  0.0666
   76MOL0     H10445   6.042   7.656   4.106  0.7061 -0.8621  2.9149
   76MOL0     H10446   5.866   7.810   4.010 -0.4488  2.5113 -1.1209
   76MOL0     H10447   5.566   7.828   3.898  1.3363 -0.8776  0.8304
   76MOL0     H10448   5.722   7.920   3.880  2.3182 -0.0099  2.4991
   76MOL0     H10449   5.567   8.004   3.917 -1.6124 -0.7471 -1.5702
   76MOL0     H10450   5.216   7.801   4.195  1.7834 -0.7528  0.0341
   76MOL0     H10451   4.980   7.849   4.238 -1.0714  1.7456  2.2422
   76MOL0     H10452   4.783   8.232   4.059 -0.6773  0.2024  2.0174
   76MOL0     H10453   4.752   8.093   3.951 -1.9385  0.2725 -0.5586
   76MOL0     H10454   4.527   8.159   4.049 -0.1580 -0.0860  1.2358
   76MOL0     H10455   4.574   8.013   4.118 -0.7727 -0.3719 -1.3686
   76MOL0     H10456   4.582   8.293   4.232  0.4220 -0.9432 -0.7569
   76MOL0     H10457   4.704   8.178   4.301 -0.7038 -1.8842  0.4788
   76MOL0     H10458   4.518   8.018   4.340  1.1992  1.0713 -0.1480
   76MOL0     H10459   4.394   8.133   4.293  0.5096 -3.3758 -0.6171
   76MOL0     H10460   4.598   8.135   4.525 -0.3023  0.8364  2.4495
   76MOL0     H10461   4.515   8.284   4.473 -0.6961 -0.2392  0.6318
   76MOL0     H10462   4.366   8.044   4.586  2.3950  0.1731  1.4660
   76MOL0     H10463   4.306   8.200   4.518 -0.5300  0.7520  1.5006
   76MOL0     H10464   4.431   8.324   4.686 -0.6511 -0.8789  1.2150
   76MOL0     H10465   4.523   8.184   4.728  0.7503 -1.3248 -2.5790
   76MOL0     H10466   4.291   8.083   4.800 -0.7263 -0.3663 -0.9562
   76MOL0     H10467   4.227   8.250   4.759 -1.1085 -2.6041 -2.9324
   76MOL0     H10468   5.001   8.192   3.985 -3.1792 -2.5266 -0.9678
   76MOL0     H10469   5.256   8.135   3.943  0.6313  0.6451  0.8158
   76MOL0     H10470   5.598   7.974   4.388  1.4978  1.6421 -0.5781
   76MOL0     H10471   5.805   7.844   4.432 -0.7670  0.5420  0.8557
   76MOL0     H10472   6.620   7.981   3.585 -1.8419  1.4943 -0.9724
   76MOL0     H10473   6.761   7.879   3.425  0.0695 -0.4561 -1.0211
   76MOL0     H10474   7.214   7.749   3.370 -3.1634 -0.1246  0.5734
   76MOL0     H10475   7.385   7.686   3.253  0.2932  0.9635 -0.5912
   76MOL0     H10476   7.557   7.793   3.101 -2.2428  0.3420 -2.8805
   76MOL0     H10477   7.573   7.627   3.133 -0.9743  0.0374  1.1731
   76MOL0     H10478   7.668   7.808   2.907  2.6557  0.9903 -0.4190
   76MOL0     H10479   7.639   7.627   2.880  1.2415 -0.6170  0.4421
   76MOL0     H10480   7.880   7.688   2.903  0.6246 -0.3944  0.0031
   76MOL0     H10481   7.837   7.786   3.054  0.7637  2.3065 -2.5101
   76MOL0     H10482   7.870   7.488   3.010  0.7686 -1.9544  2.3022
   76MOL0     H10483   7.792   7.546   3.160  1.3030  1.6466  2.4360
   76MOL0     H10484   8.202   7.643   3.240  0.7767 -1.5015 -1.1813
   76MOL0     H10485   7.222   7.773   2.872 -0.3262 -1.1856 -0.0542
   76MOL0     H10486   6.900   7.849   2.960 -0.3245  1.4582  1.4377
   76MOL0     H10487   6.980   7.997   3.003 -1.4886 -0.7603  3.5619
   76MOL0     H10488   7.028   7.902   2.860  0.7138 -2.4188 -0.5277
   77MOL0     O10489   1.784   9.536   7.571  0.2764 -0.1551  0.1140
   77MOL0     C10490   1.867   9.537   7.487 -0.6429  0.0621  0.8287
   77MOL0     O10491   1.991   9.489   7.506  0.6214 -0.4812  0.6429
   77MOL0     C10492   2.021   9.376   7.577 -0.4939 -1.3814 -0.1181
   77MOL0     C10493   2.157   9.369   7.623  0.0572 -0.2054 -0.5357
   77MOL0     C10494   2.213   9.260   7.685 -0.3624  0.4870 -0.6776
   77MOL0     C10495   2.124   9.164   7.725  0.1351  0.1066 -0.0632
   77MOL0     O10496   2.156   9.061   7.819 -0.5336  0.4005  0.4318
   77MOL0     C10497   2.281   9.026   7.873 -0.1830 -0.2805  0.3865
   77MOL0     C10498   2.277   9.035   8.027 -0.3192 -0.1813  0.4184
   77MOL0     C10499   2.407   8.978   8.072  0.3263 -0.1128 -0.2410
   77MOL0     C10500   2.428   8.989   8.214 -0.7386  0.3595  0.1084
   77MOL0     C10501   2.573   8.958   8.255  1.1473 -0.0748 -0.1208
   77MOL0     C10502   2.577   8.949   8.408 -0.4787 -0.4298 -0.9002
   77MOL0     C10503   2.565   9.081   8.498 -0.0340  1.1845  0.2225
   77MOL0     C10504   2.630   9.037   8.633  0.2950 -0.1240 -0.3724
   77MOL0     N10505   2.673   9.151   8.712 -0.0013 -0.6438  0.4490
   77MOL0     C10506   2.581   9.217   8.792 -0.3649 -0.5445 -0.1406
   77MOL0     C10507   2.658   9.299   8.873 -0.1736  0.2492  0.1865
   77MOL0     C10508   2.605   9.382   8.983 -0.1526 -0.2857 -0.6053
   77MOL0     C10509   2.652   9.532   9.002  0.0221 -0.5773 -1.2348
   77MOL0     C10510   2.666   9.593   8.864  0.3625 -0.7838  0.5002
   77MOL0     C10511   2.662   9.750   8.853  0.6685 -0.2339  0.4434
   77MOL0     O10512   2.706   9.801   8.726 -0.0953  0.1162 -0.1730
   77MOL0     C10513   2.794   9.902   8.733 -0.6428  0.3656 -1.2100
   77MOL0     C10514   2.758  10.024   8.785  0.5144  0.5699  0.5651
   77MOL0     C10515   2.851  10.127   8.817 -0.3835  0.1632 -0.1870
   77MOL0     C10516   2.801  10.263   8.872  1.0096  0.3750 -0.3807
   77MOL0     C10517   2.990  10.102   8.781  0.2647 -0.9357  0.1230
   77MOL0     C10518   3.098  10.203   8.805  0.6263  0.0006  0.1218
   77MOL0     O10519   3.222  10.162   8.762 -0.1477 -1.0909 -0.2859
   77MOL0     C10520   3.331  10.244   8.784  0.2645 -0.5110 -0.1833
   77MOL0     C10521   3.391  10.253   8.909  0.7339 -0.2211  0.4564
   77MOL0     C10522   3.510  10.331   8.934 -0.3027  0.3611  0.0624
   77MOL0     C10523   3.571  10.402   8.828 -0.0492 -0.5160  0.8047
   77MOL0     O10524   3.686  10.469   8.857 -0.1517  0.8644 -0.3113
   77MOL0     C10525   3.731  10.564   8.759 -0.3451 -1.0591  0.2179
   77MOL0     C10526   3.836  10.644   8.834 -0.3317 -0.4312  0.1430
   77MOL0     C10527   3.771  10.729   8.944  0.5884  0.0659  0.3897
   77MOL0     C10528   3.871  10.784   9.045  0.0238 -0.1337 -0.2244
   77MOL0     C10529   3.806  10.903   9.113  0.0026  0.3291  0.0179
   77MOL0     C10530   3.895  10.973   9.203 -0.8278 -0.1069 -0.5692
   77MOL0     C10531   3.942  10.892   9.325  0.5752  0.3088  0.3538
   77MOL0     C10532   4.025  10.986   9.415  0.5712 -0.5865 -0.0750
   77MOL0    Cl10533   3.949  11.141   9.483  0.0101 -0.9634 -0.0682
   77MOL0     C10534   3.513  10.394   8.704  0.6300  0.8978 -0.1172
   77MOL0     C10535   3.399  10.318   8.683 -0.2886 -0.3767  0.3888
   77MOL0     O10536   3.068  10.315   8.830 -0.7952 -0.2148  0.0116
   77MOL0     C10537   3.017   9.974   8.723 -0.0355 -0.7762  0.5958
   77MOL0     C10538   2.924   9.876   8.701 -0.2042  0.3152  0.3993
   77MOL0     N10539   2.787   9.277   8.831 -0.3323 -0.0453 -0.6188
   77MOL0     N10540   2.796   9.195   8.737 -0.7247 -0.5625  0.2079
   77MOL0     C10541   1.993   9.160   7.680  0.4955  0.0030  0.4616
   77MOL0     C10542   1.933   9.270   7.609 -0.3242 -0.8613  0.5457
   77MOL0     C10543   1.849   9.626   7.369  0.1196 -0.3118 -0.6350
   77MOL0     C10544   1.947   9.661   7.280  0.0118  0.3769 -0.7147
   77MOL0     C10545   1.922   9.751   7.175  0.3777  1.3895 -0.3646
   77MOL0     C10546   1.792   9.793   7.146 -1.1929 -1.0321 -0.1145
   77MOL0     O10547   1.778   9.858   7.033 -0.2690 -0.2492  0.2431
   77MOL0     C10548   1.654   9.926   6.991 -1.0246 -0.2869 -0.5274
   77MOL0     C10549   1.568   9.858   6.890 -0.7747  0.2672  0.7916
   77MOL0     C10550   1.433   9.920   6.884  0.7035 -0.2000 -0.3915
   77MOL0     C10551   1.336   9.857   6.783  0.1000  0.8495  0.7513
   77MOL0     C10552   1.335   9.708   6.769 -0.9212  0.5277  0.4320
   77MOL0     C10553   1.363   9.590   6.765  0.2855 -0.2715 -0.5015
   77MOL0     C10554   1.692   9.747   7.230  0.1282 -0.3309  0.5226
   77MOL0     C10555   1.718   9.682   7.348 -0.2886 -0.4578  1.1187
   77MOL0     C10556   1.595   9.668   7.438 -1.1527 -0.6094  0.4067
   77MOL0     H10557   2.223   9.452   7.600 -1.4738  1.2183  0.0256
   77MOL0     H10558   2.312   9.264   7.728  0.8089  2.0325 -3.3241
   77MOL0     H10559   2.369   9.073   7.830  0.1329  0.8548  2.1707
   77MOL0     H10560   2.296   8.920   7.851  1.7364 -0.9277  4.0095
   77MOL0     H10561   2.264   9.137   8.063  0.9791 -0.5083  1.9326
   77MOL0     H10562   2.192   8.975   8.060  0.0869  0.0730  1.9752
   77MOL0     H10563   2.424   8.871   8.060 -0.5488 -0.2248 -0.5772
   77MOL0     H10564   2.491   9.032   8.026  0.8404  0.4449  1.2873
   77MOL0     H10565   2.408   9.093   8.240  0.7004  0.2933  1.6707
   77MOL0     H10566   2.349   8.929   8.260 -2.2528  1.5983 -0.8028
   77MOL0     H10567   2.644   9.031   8.216  0.7123  0.3238 -0.1779
   77MOL0     H10568   2.603   8.860   8.219  2.2368  0.9674 -2.2516
   77MOL0     H10569   2.522   8.865   8.451  0.4892 -2.4360 -3.3052
   77MOL0     H10570   2.682   8.918   8.409 -0.2567  0.2778 -1.7151
   77MOL0     H10571   2.458   9.101   8.510 -0.1719  0.7270 -0.2304
   77MOL0     H10572   2.616   9.168   8.455 -1.2807  1.6053 -0.4732
   77MOL0     H10573   2.576   8.962   8.692  3.3248 -1.5584  0.7952
   77MOL0     H10574   2.721   8.977   8.621  0.7997  0.5356  0.1078
   77MOL0     H10575   2.478   9.186   8.782  0.4181 -3.1037 -0.9965
   77MOL0     H10576   2.630   9.336   9.079 -2.6053  2.4848  1.5231
   77MOL0     H10577   2.498   9.366   8.967 -0.1589 -1.3371  0.3332
   77MOL0     H10578   2.571   9.578   9.059  0.2343 -1.7494  0.0590
   77MOL0     H10579   2.753   9.540   9.043  0.6316  2.1825 -3.0059
   77MOL0     H10580   2.756   9.551   8.818  0.7344  1.4283 -0.9433
   77MOL0     H10581   2.585   9.553   8.802  0.9271  0.3398 -1.0318
   77MOL0     H10582   2.566   9.791   8.885  0.2062 -2.3407  1.9991
   77MOL0     H10583   2.734   9.777   8.931 -0.7539 -0.1455  1.7858
   77MOL0     H10584   2.653  10.023   8.809 -0.1645  3.1022 -1.8219
   77MOL0     H10585   2.844  10.287   8.970  0.1546  2.9044 -0.5512
   77MOL0     H10586   2.692  10.258   8.879  0.8056  2.4825 -1.2798
   77MOL0     H10587   2.833  10.346   8.808  1.8349  0.6452  0.3639
   77MOL0     H10588   3.329  10.198   8.979 -2.5024  0.0797 -1.9808
   77MOL0     H10589   3.556  10.341   9.032  0.0474  0.4938 -0.1136
   77MOL0     H10590   3.770  10.520   8.667 -0.7814 -0.1878 -0.4007
   77MOL0     H10591   3.646  10.626   8.729  1.7038  2.3185  0.9465
   77MOL0     H10592   3.913  10.581   8.879 -0.4472  0.5875  1.8337
   77MOL0     H10593   3.900  10.711   8.776  1.4500 -1.2870  1.0446
   77MOL0     H10594   3.705  10.662   9.000  0.5070  1.6578  2.3254
   77MOL0     H10595   3.722  10.808   8.886  1.7348 -0.0108 -0.7347
   77MOL0     H10596   3.970  10.815   9.008  0.8823 -2.0308  0.3672
   77MOL0     H10597   3.897  10.706   9.117  1.7242 -0.2578 -0.9254
   77MOL0     H10598   3.768  10.969   9.035 -1.4078 -1.4688 -0.8993
   77MOL0     H10599   3.726  10.855   9.170  0.7364  0.9196  1.6036
   77MOL0     H10600   3.849  11.068   9.229  1.7459  0.6959  1.3290
   77MOL0     H10601   3.981  11.000   9.142 -0.8180 -0.3923 -0.6868
   77MOL0     H10602   4.000  10.802   9.308 -2.3131 -2.0492  1.9371
   77MOL0     H10603   3.862  10.844   9.382  1.5750 -2.3753 -0.3957
   77MOL0     H10604   4.118  11.021   9.369  0.9413 -0.7519  0.5255
   77MOL0     H10605   4.051  10.924   9.501 -1.4752 -1.2044  0.1398
   77MOL0     H10606   3.548  10.446   8.616 -0.4015  0.9810 -0.4912
   77MOL0     H10607   3.346  10.301   8.590  0.9232 -0.8234 -0.2339
   77MOL0     H10608   3.118   9.947   8.693  0.2131  1.6329 -1.1056
   77MOL0     H10609   2.955   9.778   8.665 -2.4581  0.1547 -1.3253
   77MOL0     H10610   1.934   9.069   7.693  1.7333 -1.0174 -0.7541
   77MOL0     H10611   1.828   9.277   7.582 -0.0297  0.8722 -0.2788
   77MOL0     H10612   2.051   9.638   7.302  0.7738  2.5911 -1.7141
   77MOL0     H10613   2.003   9.795   7.117  0.7067  1.6931  0.3205
   77MOL0     H10614   1.595   9.947   7.081  0.5312  1.3963  0.1845
   77MOL0     H10615   1.685  10.028   6.964  1.7635 -1.1003 -0.7434
   77MOL0     H10616   1.559   9.754   6.922 -0.9899 -0.4544 -1.4292
   77MOL0     H10617   1.619   9.861   6.793  0.6245 -0.1481  1.4798
   77MOL0     H10618   1.394   9.913   6.986 -0.2401 -1.3302 -0.8078
   77MOL0     H10619   1.443  10.027   6.863  2.7058 -0.1076  0.8314
   77MOL0     H10620   1.364   9.905   6.688  2.6003 -1.3780  0.2255
   77MOL0     H10621   1.232   9.881   6.807  0.1034  2.4218 -0.6690
   77MOL0     H10622   1.377   9.485   6.752  1.2375 -0.0043 -1.8619
   77MOL0     H10623   1.589   9.773   7.207  1.1880  1.4995 -2.6884
   77MOL0     H10624   1.517   9.733   7.397  1.0300  1.0522 -1.3085
   77MOL0     H10625   1.555   9.566   7.435  0.2725 -1.1912 -2.6003
   77MOL0     H10626   1.613   9.691   7.543 -0.2889 -1.2435  0.4072
   78MOL0     O10627   3.436   0.874  10.364 -0.5582  0.2371 -0.1663
   78MOL0     C10628   3.552   0.831  10.330  0.5356  0.5220  0.2510
   78MOL0     O10629   3.654   0.912  10.295  0.7813 -0.3051 -0.3921
   78MOL0     C10630   3.623   1.048  10.290 -0.7625  0.5636 -0.9795
   78MOL0     C10631   3.658   1.138  10.384 -0.9067  0.9086 -0.5886
   78MOL0     C10632   3.640   1.277  10.373  0.0330  0.3498 -0.5515
   78MOL0     C10633   3.562   1.322  10.263  0.1521  0.4099 -0.0206
   78MOL0     O10634   3.532   1.451  10.234  0.0465  0.7498  0.0154
   78MOL0     C10635   3.581   1.555  10.324 -0.0346  0.5624 -0.0256
   78MOL0     C10636   3.489   1.677  10.328 -1.0774  0.5539  0.0853
   78MOL0     C10637   3.457   1.721  10.188  0.6180  0.0506 -0.1993
   78MOL0     C10638   3.376   1.853  10.200 -0.1679  0.2458  0.2709
   78MOL0     C10639   3.228   1.821  10.229 -0.1728  0.0502 -0.3039
   78MOL0     C10640   3.132   1.941  10.229  0.3600 -0.1794  0.0469
   78MOL0     C10641   2.989   1.922  10.276  0.1136 -0.3578  0.3383
   78MOL0     C10642   2.888   1.847  10.185 -0.2724  0.2462 -0.4439
   78MOL0     N10643   2.916   1.706  10.159 -0.2176 -0.2989  0.2880
   78MOL0     C10644   2.975   1.618  10.239  0.0108 -0.9667 -0.4594
   78MOL0     C10645   2.974   1.498  10.171  0.3766 -0.8629 -0.0455
   78MOL0     C10646   3.033   1.372  10.235 -0.3028 -0.2045 -0.5728
   78MOL0     C10647   3.027   1.261  10.132  0.1860 -0.8184 -0.2067
   78MOL0     C10648   3.076   1.120  10.176 -0.3983 -0.1493  0.1990
   78MOL0     C10649   2.997   1.011  10.093 -0.4822  0.0144 -0.0849
   78MOL0     O10650   3.042   0.881  10.088 -1.2365 -0.2549  0.2070
   78MOL0     C10651   3.022   0.789  10.187 -0.6558  0.2981  0.5602
   78MOL0     C10652   3.083   0.672  10.146 -0.6527 -0.5334  0.5432
   78MOL0     C10653   3.064   0.559  10.232 -0.3074  0.0876 -0.1015
   78MOL0     C10654   3.094   0.421  10.180 -0.1147 -0.0195  0.4953
   78MOL0     C10655   2.989   0.565  10.352  0.0282 -0.6783  0.3869
   78MOL0     C10656   2.960   0.450  10.436  0.2898 -0.8933  0.0881
   78MOL0     O10657   2.833   0.429  10.485  0.4616  0.4361  0.0121
   78MOL0     C10658   2.795   0.323  10.563  0.0369  0.1429 -1.0887
   78MOL0     C10659   2.689   0.336  10.651  0.5877 -0.2886  0.2326
   78MOL0     C10660   2.650   0.229  10.722 -0.5773 -0.1276  0.1943
   78MOL0     C10661   2.695   0.097  10.700  0.2703 -0.6021 -0.9799
   78MOL0     O10662   2.624  -0.001  10.775 -0.3569  0.3202  0.7034
   78MOL0     C10663   2.702  -0.115  10.804 -0.3173  0.0879 -0.5873
   78MOL0     C10664   2.654  -0.198  10.925  1.3188  0.1712  0.1615
   78MOL0     C10665   2.767  -0.279  10.992  0.3724 -0.1521  0.0012
   78MOL0     C10666   2.829  -0.207  11.111 -0.7575  0.5328  0.9688
   78MOL0     C10667   2.904  -0.318  11.185  0.5711  0.3436  0.3330
   78MOL0     C10668   2.976  -0.269  11.310  0.8994  0.0294  0.0849
   78MOL0     C10669   3.053  -0.368  11.384 -0.5784 -0.1221 -0.2559
   78MOL0     C10670   3.204  -0.384  11.362  0.9734  0.6037 -0.3278
   78MOL0    Cl10671   3.253  -0.540  11.452  0.1668  0.2759 -0.0492
   78MOL0     C10672   2.798   0.072  10.608 -0.7539 -0.8100  0.0986
   78MOL0     C10673   2.842   0.189  10.534 -0.7338 -0.2205 -0.3290
   78MOL0     O10674   3.063   0.393  10.467 -0.5354  0.8194  0.7757
   78MOL0     C10675   2.940   0.690  10.387  0.7768  0.7685 -0.7844
   78MOL0     C10676   2.961   0.801  10.313  0.2372 -0.6888  0.8203
   78MOL0     N10677   2.898   1.513  10.053 -0.5069 -0.5770 -0.2262
   78MOL0     N10678   2.861   1.636  10.050 -0.2621  0.9851 -0.7829
   78MOL0     C10679   3.513   1.225  10.177  0.3787  0.5990 -0.7330
   78MOL0     C10680   3.539   1.089  10.192  0.0807 -0.2085 -0.1150
   78MOL0     C10681   3.606   0.692  10.373  0.5926  0.0530  0.1034
   78MOL0     C10682   3.747   0.672  10.367  0.0533  0.1083  0.7663
   78MOL0     C10683   3.802   0.550  10.403 -0.4773  0.2929 -0.1697
   78MOL0     C10684   3.717   0.453  10.462  0.8817  0.2359  0.2564
   78MOL0     O10685   3.770   0.334  10.507 -0.6916 -0.5135 -0.1804
   78MOL0     C10686   3.719   0.288  10.631 -0.2594  0.5166 -0.6121
   78MOL0     C10687   3.632   0.160  10.602 -0.2707  0.3940  0.4764
   78MOL0     C10688   3.708   0.049  10.528  0.1762  0.1081  0.4227
   78MOL0     C10689   3.659  -0.099  10.555  0.4767  0.2209 -0.1631
   78MOL0     C10690   3.655  -0.136  10.696 -0.0878 -0.9693  0.1965
   78MOL0     C10691   3.673  -0.166  10.809  0.3131  0.1164 -0.4105
   78MOL0     C10692   3.578   0.471  10.467 -0.1282  0.0483  0.1221
   78MOL0     C10693   3.518   0.588  10.419  0.0136  0.1917  1.4061
   78MOL0     C10694   3.362   0.584  10.404 -0.5666 -0.1082  0.4945
   78MOL0     H10695   3.702   1.100  10.476  3.4225  3.7694 -1.1711
   78MOL0     H10696   3.683   1.344  10.447  1.2903 -1.1523  0.1409
   78MOL0     H10697   3.680   1.576  10.280 -0.7359 -0.9154 -2.5072
   78MOL0     H10698   3.591   1.519  10.426  2.9587  0.6330 -0.2067
   78MOL0     H10699   3.397   1.638  10.374 -1.5230 -1.3516 -2.1958
   78MOL0     H10700   3.533   1.751  10.395 -0.8701  0.5321 -0.0260
   78MOL0     H10701   3.555   1.732  10.140  0.9415 -2.3138 -0.2160
   78MOL0     H10702   3.395   1.648  10.134  0.0526  1.5098 -1.6217
   78MOL0     H10703   3.423   1.920  10.273 -0.9578 -0.2715  1.2934
   78MOL0     H10704   3.383   1.916  10.111 -0.7218  1.2089  0.8843
   78MOL0     H10705   3.215   1.762  10.320  2.2387 -2.4742 -1.4604
   78MOL0     H10706   3.188   1.749  10.158 -0.9991 -0.7363  0.9184
   78MOL0     H10707   3.175   2.004  10.307 -2.8804 -0.1776  1.9901
   78MOL0     H10708   3.128   1.987  10.130 -0.3051  1.0233  0.6168
   78MOL0     H10709   2.947   2.017  10.311  1.6104 -0.3850  2.4350
   78MOL0     H10710   2.982   1.853  10.360  0.0824 -1.4398 -0.5403
   78MOL0     H10711   2.793   1.836  10.237 -2.0743  1.4433 -3.2573
   78MOL0     H10712   2.876   1.901  10.090 -1.3342  0.6000 -0.1192
   78MOL0     H10713   3.022   1.644  10.333 -0.8980  2.3887 -0.8042
   78MOL0     H10714   2.979   1.339  10.325  5.1982 -2.5522  2.4059
   78MOL0     H10715   3.135   1.392  10.269 -0.4895  1.8769 -1.1101
   78MOL0     H10716   2.920   1.250  10.113 -0.1645  3.3366 -1.7950
   78MOL0     H10717   3.080   1.291  10.041 -2.6031 -2.7527 -2.6818
   78MOL0     H10718   3.184   1.113  10.163 -0.3256  1.7731 -0.5611
   78MOL0     H10719   3.051   1.100  10.281  0.8394  2.6734  1.1275
   78MOL0     H10720   2.901   1.017  10.146  0.2205  1.4596  1.0821
   78MOL0     H10721   2.975   1.053   9.994 -2.7673  1.2860  0.8787
   78MOL0     H10722   3.122   0.643  10.049 -0.6279 -2.1032  0.9861
   78MOL0     H10723   3.134   0.433  10.079 -1.6736  3.9801  0.1818
   78MOL0     H10724   3.006   0.359  10.163  0.4364 -1.3989  2.3121
   78MOL0     H10725   3.161   0.364  10.246  0.5149  2.8631  2.5557
   78MOL0     H10726   2.640   0.433  10.657 -2.2801 -1.5987 -0.2573
   78MOL0     H10727   2.575   0.248  10.799  0.8708  2.4465  1.0901
   78MOL0     H10728   2.699  -0.173  10.712  0.1991  2.8722 -2.4904
   78MOL0     H10729   2.803  -0.080  10.831  0.0557 -1.2968 -0.1201
   78MOL0     H10730   2.594  -0.143  10.999  0.1184  1.2739 -1.5540
   78MOL0     H10731   2.589  -0.279  10.890  0.7405  0.8351 -0.3330
   78MOL0     H10732   2.852  -0.289  10.923  0.4082  2.8023 -0.5399
   78MOL0     H10733   2.717  -0.371  11.021 -2.5093  1.4248  0.3387
   78MOL0     H10734   2.757  -0.160  11.179 -1.3804 -0.0156  0.6979
   78MOL0     H10735   2.897  -0.132  11.069 -1.9593  1.8310  1.2557
   78MOL0     H10736   2.829  -0.391  11.216  1.9264 -1.7820 -1.1225
   78MOL0     H10737   2.981  -0.359  11.119 -0.1723 -2.1508  0.8803
   78MOL0     H10738   2.899  -0.226  11.375  1.7554  2.0009 -0.1407
   78MOL0     H10739   3.037  -0.184  11.278  0.5524  0.6109  0.9458
   78MOL0     H10740   3.011  -0.465  11.357 -0.0933 -0.3003 -0.3624
   78MOL0     H10741   3.032  -0.356  11.491 -1.3451  1.0380 -0.5169
   78MOL0     H10742   3.245  -0.292  11.406 -1.0366  1.1108  0.5898
   78MOL0     H10743   3.222  -0.395  11.255 -3.5178  1.6357 -1.4085
   78MOL0     H10744   2.844  -0.022  10.581  1.7193  1.2009 -3.4780
   78MOL0     H10745   2.914   0.182  10.453 -0.7511 -0.0997 -0.3557
   78MOL0     H10746   2.886   0.702  10.481 -0.3103 -2.0809 -0.9659
   78MOL0     H10747   2.936   0.898  10.357 -0.5674 -0.1324 -0.7993
   78MOL0     H10748   3.449   1.265  10.100 -1.4010  1.3470  1.0363
   78MOL0     H10749   3.499   1.025  10.115 -0.7007  0.4067 -0.2387
   78MOL0     H10750   3.816   0.744  10.325  0.7616 -1.6509 -1.2807
   78MOL0     H10751   3.905   0.518  10.397 -0.8043 -1.5025  2.2331
   78MOL0     H10752   3.801   0.260  10.696 -0.7701  1.3421  0.4157
   78MOL0     H10753   3.661   0.360  10.689 -3.2136 -0.0674 -2.5808
   78MOL0     H10754   3.536   0.183  10.555  0.4560  0.4789 -1.0502
   78MOL0     H10755   3.601   0.114  10.696 -1.2971  1.9287  0.9304
   78MOL0     H10756   3.714   0.073  10.422  0.0422  3.6430  1.1048
   78MOL0     H10757   3.815   0.046  10.551  1.0757 -2.0974 -3.2974
   78MOL0     H10758   3.731  -0.154  10.494  1.4934  2.6145 -1.2823
   78MOL0     H10759   3.561  -0.120  10.512  1.1808  0.4830 -2.0055
   78MOL0     H10760   3.676  -0.195  10.912 -1.1888 -2.7976 -1.0868
   78MOL0     H10761   3.506   0.399  10.504  1.4012 -1.8445 -0.4778
   78MOL0     H10762   3.342   0.615  10.301 -2.1960  1.0460  1.1126
   78MOL0     H10763   3.325   0.485  10.430 -1.2253  0.6671  2.7541
   78MOL0     H10764   3.303   0.640  10.477  1.5845  1.4478  1.1512
   79MOL0     O10765   2.782   8.245   0.701 -0.5554  0.1544 -0.9168
   79MOL0     C10766   2.673   8.261   0.653  0.3695 -0.4047  0.8385
   79MOL0     O10767   2.602   8.377   0.638  0.3724  1.0862 -0.3110
   79MOL0     C10768   2.629   8.499   0.703  0.0241  0.3675 -0.2914
   79MOL0     C10769   2.749   8.524   0.773 -0.2831 -0.2919  0.4580
   79MOL0     C10770   2.776   8.647   0.831 -0.3188  0.0119  0.2258
   79MOL0     C10771   2.695   8.759   0.817  1.4897  0.4954  0.6970
   79MOL0     O10772   2.710   8.892   0.837 -0.2463  0.2616 -0.2362
   79MOL0     C10773   2.805   8.928   0.944 -0.9008  0.0338  0.8821
   79MOL0     C10774   2.834   9.082   0.944  0.4394 -0.1258  0.1299
   79MOL0     C10775   2.986   9.117   0.978 -0.1670  0.5399  0.0092
   79MOL0     C10776   3.004   9.272   0.972  0.2362 -0.7969  0.7353
   79MOL0     C10777   3.142   9.302   0.994 -0.4027 -0.8429  0.1376
   79MOL0     C10778   3.148   9.425   1.096  0.5633  0.7957  0.4185
   79MOL0     C10779   3.291   9.493   1.111  0.6621  0.6145  0.2527
   79MOL0     C10780   3.331   9.580   0.988  0.3212  0.7480  0.8486
   79MOL0     N10781   3.468   9.608   0.985 -0.2737  0.3700  0.0020
   79MOL0     C10782   3.535   9.653   1.093 -1.5148 -0.4320 -0.4282
   79MOL0     C10783   3.657   9.702   1.045  1.2359 -1.0474  0.5430
   79MOL0     C10784   3.753   9.789   1.123  0.3528 -0.0435  0.4753
   79MOL0     C10785   3.827   9.896   1.037  0.9837  0.3027 -0.3053
   79MOL0     C10786   3.976   9.863   1.017 -0.3065 -0.2573  0.6311
   79MOL0     C10787   4.058   9.978   0.960  0.0986  0.7055 -0.7855
   79MOL0     O10788   4.199   9.930   0.946  0.7244 -0.2361 -0.0215
   79MOL0     C10789   4.296  10.015   0.906  0.3476  0.0461  0.6177
   79MOL0     C10790   4.409   9.955   0.846 -0.1903 -1.0417 -0.0467
   79MOL0     C10791   4.528  10.033   0.814  0.5624 -0.7955 -0.4754
   79MOL0     C10792   4.647   9.965   0.738  0.5893 -0.4645 -0.2267
   79MOL0     C10793   4.529  10.172   0.845 -0.5638  0.4866 -0.2230
   79MOL0     C10794   4.637  10.265   0.799 -0.3212  0.5541 -0.4127
   79MOL0     O10795   4.697  10.260   0.679 -0.0851  0.1007  0.7693
   79MOL0     C10796   4.810  10.336   0.655 -0.4839  0.1918 -0.6933
   79MOL0     C10797   4.782  10.462   0.615 -0.4640 -0.7137  0.1647
   79MOL0     C10798   4.891  10.543   0.586 -0.0550 -0.8946 -1.0178
   79MOL0     C10799   5.025  10.506   0.603  0.2170  0.6642 -0.3624
   79MOL0     O10800   5.132  10.587   0.555 -0.3438 -0.3888  0.5170
   79MOL0     C10801   5.184  10.669   0.662 -0.5077  0.8108 -0.1988
   79MOL0     C10802   5.282  10.774   0.617  0.8377 -0.1341  0.3781
   79MOL0     C10803   5.394  10.734   0.521 -0.6139  0.0878 -0.3324
   79MOL0     C10804   5.437  10.863   0.448  0.0114  0.8915  0.0118
   79MOL0     C10805   5.564  10.835   0.362  0.2076 -0.6914 -0.4516
   79MOL0     C10806   5.620  10.961   0.283 -0.2775  0.1094  1.1233
   79MOL0     C10807   5.760  10.944   0.226  1.0090 -0.6915  0.9746
   79MOL0     C10808   5.801  11.065   0.156 -1.0427 -0.0367 -0.6677
   79MOL0    Cl10809   5.866  11.185   0.281  0.0440  0.3405  0.1477
   79MOL0     C10810   5.049  10.371   0.646 -0.3140 -0.0022 -0.5415
   79MOL0     C10811   4.941  10.288   0.668  1.5153 -0.0723 -0.9775
   79MOL0     O10812   4.652  10.361   0.873  0.2791  1.0416 -0.0666
   79MOL0     C10813   4.415  10.225   0.909 -1.1471 -0.4369 -0.0821
   79MOL0     C10814   4.303  10.152   0.941 -0.9187 -0.3223  0.1149
   79MOL0     N10815   3.660   9.678   0.903 -0.5679 -1.1629  0.7913
   79MOL0     N10816   3.547   9.630   0.875 -0.2146 -0.5750 -0.0823
   79MOL0     C10817   2.576   8.732   0.746  0.6559  0.5834 -0.0538
   79MOL0     C10818   2.538   8.605   0.690 -0.5071 -0.3666  0.7648
   79MOL0     C10819   2.620   8.142   0.576 -0.0594  0.1777  0.1714
   79MOL0     C10820   2.687   8.026   0.593 -0.2163 -0.4188  1.2356
   79MOL0     C10821   2.637   7.908   0.542  0.1865 -0.0788  0.7037
   79MOL0     C10822   2.520   7.894   0.470  0.0329 -0.2535 -0.3223
   79MOL0     O10823   2.491   7.761   0.439 -0.4539  0.1803  0.5289
   79MOL0     C10824   2.358   7.735   0.415  0.0281  0.0211 -0.3545
   79MOL0     C10825   2.335   7.586   0.361  0.1686  0.0980 -0.3975
   79MOL0     C10826   2.414   7.478   0.438 -0.6927  0.6703  0.2956
   79MOL0     C10827   2.375   7.336   0.394  0.6631 -0.1812  0.7628
   79MOL0     C10828   2.457   7.233   0.466 -0.0197 -0.0995 -0.0963
   79MOL0     C10829   2.529   7.152   0.507 -0.1709 -0.5776  0.4026
   79MOL0     C10830   2.440   8.010   0.457 -0.7481 -0.2817 -0.3426
   79MOL0     C10831   2.488   8.132   0.515  0.2417  0.6174  0.6341
   79MOL0     C10832   2.381   8.244   0.510 -0.1631 -0.7441  0.4120
   79MOL0     H10833   2.827   8.449   0.786  0.6526  0.3258 -1.3459
   79MOL0     H10834   2.881   8.657   0.856  0.1382  0.6120 -1.8190
   79MOL0     H10835   2.898   8.873   0.929 -2.4716 -2.1271 -2.1783
   79MOL0     H10836   2.778   8.889   1.042  1.9036 -1.2780  1.2251
   79MOL0     H10837   2.816   9.119   0.842 -0.1184  2.5096  1.1124
   79MOL0     H10838   2.769   9.127   1.019 -1.5816 -0.6469 -1.2224
   79MOL0     H10839   3.025   9.077   1.072 -0.5244  1.8265  0.7376
   79MOL0     H10840   3.045   9.074   0.896 -2.0987  0.6761 -1.5132
   79MOL0     H10841   2.966   9.309   0.877 -3.0472 -1.7482  1.5471
   79MOL0     H10842   2.943   9.320   1.049  0.6612 -1.6623  1.6405
   79MOL0     H10843   3.198   9.332   0.904  3.4389  0.5524  2.7428
   79MOL0     H10844   3.203   9.223   1.038  0.6969  0.0551  0.2778
   79MOL0     H10845   3.079   9.498   1.054  1.5491  0.5817 -1.6747
   79MOL0     H10846   3.118   9.380   1.191  4.3888 -3.2848  0.0495
   79MOL0     H10847   3.364   9.416   1.137 -0.9298 -0.0868  3.0138
   79MOL0     H10848   3.285   9.542   1.208 -3.4287 -0.6645  0.8554
   79MOL0     H10849   3.294   9.528   0.899 -2.8081 -0.6226  2.7787
   79MOL0     H10850   3.270   9.670   0.995 -1.1908 -0.2186  0.6451
   79MOL0     H10851   3.496   9.659   1.194  1.6751 -0.3142  0.9073
   79MOL0     H10852   3.826   9.734   1.182  2.2969 -0.8443 -2.4269
   79MOL0     H10853   3.693   9.846   1.194 -0.9771 -1.5242  0.5886
   79MOL0     H10854   3.774   9.909   0.943 -2.7874 -3.2218  1.0338
   79MOL0     H10855   3.823   9.983   1.105 -1.0855  1.5249 -1.8736
   79MOL0     H10856   4.012   9.838   1.118 -0.5836  2.5038  1.4991
   79MOL0     H10857   3.985   9.779   0.948 -0.7729  0.6777 -0.5935
   79MOL0     H10858   4.009  10.016   0.869 -2.2384  0.2391  0.2013
   79MOL0     H10859   4.056  10.061   1.032  2.1805 -0.7587  1.0738
   79MOL0     H10860   4.409   9.849   0.822  0.9085 -0.8339 -1.0592
   79MOL0     H10861   4.700  10.030   0.669 -1.4727  1.5368 -0.0176
   79MOL0     H10862   4.608   9.885   0.675  2.1469 -0.4434 -1.2691
   79MOL0     H10863   4.712   9.927   0.819 -0.0565 -2.3487 -0.5385
   79MOL0     H10864   4.677  10.490   0.613 -0.5491 -0.7917  2.0392
   79MOL0     H10865   4.885  10.647   0.554 -2.5552 -1.0533 -1.2515
   79MOL0     H10866   5.101  10.704   0.722 -2.3085 -1.1879 -1.3635
   79MOL0     H10867   5.252  10.602   0.716  0.3778  2.7151  1.1515
   79MOL0     H10868   5.215  10.852   0.581 -0.6868  1.6546  5.9882
   79MOL0     H10869   5.310  10.821   0.712 -3.4900  0.5070  1.5596
   79MOL0     H10870   5.364  10.659   0.448 -0.2701  0.2881 -0.6824
   79MOL0     H10871   5.484  10.700   0.574  0.1797  1.5184 -0.7069
   79MOL0     H10872   5.454  10.943   0.520 -0.7066  1.1350 -0.0746
   79MOL0     H10873   5.362  10.906   0.381  1.3550 -0.0038 -2.1643
   79MOL0     H10874   5.640  10.806   0.436  0.2275  0.0232 -0.1855
   79MOL0     H10875   5.543  10.757   0.289  1.6461 -0.9936 -0.5788
   79MOL0     H10876   5.610  11.048   0.348 -0.6929  0.5881  0.4352
   79MOL0     H10877   5.545  10.973   0.204  1.7284 -2.2850 -1.3769
   79MOL0     H10878   5.757  10.867   0.149 -2.2747 -0.9695  1.2459
   79MOL0     H10879   5.830  10.910   0.302 -2.9198 -3.7376  3.6038
   79MOL0     H10880   5.724  11.120   0.101  0.1035  3.4279  0.9331
   79MOL0     H10881   5.892  11.039   0.101 -0.1622 -0.8296  1.0774
   79MOL0     H10882   5.151  10.332   0.643  0.1417  0.9365  1.0747
   79MOL0     H10883   4.952  10.189   0.711  4.4817 -0.5578 -2.5935
   79MOL0     H10884   4.422  10.324   0.954  0.3268  0.1865 -1.5583
   79MOL0     H10885   4.225  10.199   1.000 -0.5262  0.3630  0.0938
   79MOL0     H10886   2.506   8.814   0.734  0.9748  0.5503 -3.0052
   79MOL0     H10887   2.452   8.602   0.624  1.2079  0.3904 -1.6363
   79MOL0     H10888   2.776   8.024   0.655  0.0965  1.4820  0.9165
   79MOL0     H10889   2.697   7.819   0.561 -1.0871 -1.3102 -0.7523
   79MOL0     H10890   2.302   7.752   0.507  2.5993  1.0413  1.0947
   79MOL0     H10891   2.321   7.807   0.341  1.1030  2.2413  1.1865
   79MOL0     H10892   2.365   7.589   0.256 -0.4939  1.5634 -0.5672
   79MOL0     H10893   2.230   7.555   0.366 -0.1491  1.2356  4.5876
   79MOL0     H10894   2.521   7.489   0.419 -0.5049 -1.9436 -0.4973
   79MOL0     H10895   2.387   7.480   0.544 -1.0275 -0.4994  0.2384
   79MOL0     H10896   2.395   7.329   0.286 -3.0228  1.9182 -0.2398
   79MOL0     H10897   2.267   7.326   0.410  0.6052  1.5392  1.7177
   79MOL0     H10898   2.598   7.079   0.546 -0.1967 -0.6221  0.3653
   79MOL0     H10899   2.338   8.005   0.420 -1.6846  0.1562  2.0152
   79MOL0     H10900   2.421   8.322   0.444  0.0800 -0.1233  1.2736
   79MOL0     H10901   2.282   8.212   0.475  0.0720 -1.6493  0.5558
   79MOL0     H10902   2.373   8.287   0.610 -1.4947  0.5239 -0.1967
   80MOL0     O10903   7.675   6.230   7.319 -0.1568  0.1615 -0.1330
   80MOL0     C10904   7.793   6.200   7.308 -0.4176  0.2384 -0.1866
   80MOL0     O10905   7.887   6.280   7.257  0.6028 -0.4822  0.5441
   80MOL0     C10906   7.848   6.410   7.232 -0.9957 -0.1775 -0.2528
   80MOL0     C10907   7.772   6.436   7.117  1.1101 -0.7248 -0.9038
   80MOL0     C10908   7.698   6.554   7.108 -0.2477  0.6044 -0.0287
   80MOL0     C10909   7.705   6.651   7.210 -0.0284  0.7685 -0.0914
   80MOL0     O10910   7.626   6.764   7.195 -0.6683 -0.2960 -0.8561
   80MOL0     C10911   7.539   6.793   7.303  0.7142  0.1332 -0.1480
   80MOL0     C10912   7.467   6.672   7.366 -0.3072  0.0243  0.8821
   80MOL0     C10913   7.355   6.721   7.444  0.5097 -0.1066  0.3453
   80MOL0     C10914   7.324   6.617   7.546  0.3953  0.8751 -0.1290
   80MOL0     C10915   7.280   6.485   7.484  0.0437  0.1508  0.7281
   80MOL0     C10916   7.231   6.389   7.593  0.7758 -0.4067  0.1015
   80MOL0     C10917   7.316   6.368   7.724  0.1125  0.0626  0.7522
   80MOL0     C10918   7.457   6.311   7.691  0.5001 -0.3336  0.2107
   80MOL0     N10919   7.469   6.168   7.672  0.0432 -0.0598  1.4381
   80MOL0     C10920   7.403   6.100   7.584  0.3411  0.8146 -0.3214
   80MOL0     C10921   7.399   5.970   7.621 -0.3392 -1.0839  0.2660
   80MOL0     C10922   7.336   5.852   7.547 -0.5981 -0.4344 -0.1972
   80MOL0     C10923   7.433   5.782   7.457 -0.5544 -0.2940  0.3290
   80MOL0     C10924   7.471   5.835   7.321 -0.6778 -0.1476 -1.3998
   80MOL0     C10925   7.580   5.750   7.261 -0.1730  0.2267 -1.5336
   80MOL0     O10926   7.602   5.785   7.125  0.0955  0.0893 -0.1439
   80MOL0     C10927   7.701   5.742   7.050 -0.6759  0.5694  0.0999
   80MOL0     C10928   7.825   5.701   7.097 -0.2002 -0.0135 -0.1840
   80MOL0     C10929   7.935   5.667   7.015 -0.2950 -0.6513 -0.2688
   80MOL0     C10930   8.071   5.645   7.077  0.5801 -0.2137 -0.5115
   80MOL0     C10931   7.917   5.661   6.876  0.8484  0.2251  0.2542
   80MOL0     C10932   8.019   5.618   6.770  0.0258  0.0849 -0.8878
   80MOL0     O10933   7.996   5.666   6.647 -0.1872  0.3500 -0.1889
   80MOL0     C10934   8.059   5.597   6.548 -0.6958  0.0626 -0.5925
   80MOL0     C10935   7.981   5.515   6.469  0.2786 -0.8321  0.0021
   80MOL0     C10936   8.030   5.461   6.349  0.6525  0.1312  0.6674
   80MOL0     C10937   8.165   5.479   6.319  0.4026 -0.0227 -0.1941
   80MOL0     O10938   8.217   5.424   6.206  0.3719 -0.3818 -1.3124
   80MOL0     C10939   8.265   5.290   6.213 -0.0580 -0.0583 -0.2839
   80MOL0     C10940   8.186   5.196   6.119 -0.0523 -0.6025 -0.7902
   80MOL0     C10941   8.151   5.249   5.983 -0.0538  0.1285  0.0369
   80MOL0     C10942   8.270   5.258   5.895 -0.3219 -0.7713 -0.2431
   80MOL0     C10943   8.229   5.248   5.747  0.5071 -0.3399  0.6524
   80MOL0     C10944   8.366   5.259   5.670 -0.2560 -0.0411  0.7844
   80MOL0     C10945   8.356   5.222   5.520  0.5111  0.2754  0.3383
   80MOL0     C10946   8.479   5.264   5.444  0.4352  0.0784  0.4162
   80MOL0    Cl10947   8.480   5.191   5.277  0.4633 -0.3607  0.2816
   80MOL0     C10948   8.250   5.552   6.400  0.6088  0.3089  0.2362
   80MOL0     C10949   8.199   5.612   6.517  0.7964 -0.3294  0.3138
   80MOL0     O10950   8.109   5.537   6.798 -0.9765  0.3898  0.7282
   80MOL0     C10951   7.792   5.699   6.830 -0.2492  0.1567  0.4004
   80MOL0     C10952   7.688   5.743   6.911  0.2135  0.6520 -0.4032
   80MOL0     N10953   7.465   5.962   7.740  0.4137  0.5134  0.6827
   80MOL0     N10954   7.501   6.080   7.775  0.3158 -0.3714 -0.1740
   80MOL0     C10955   7.780   6.622   7.329 -0.3992  0.5599 -0.6061
   80MOL0     C10956   7.844   6.500   7.339  0.4681 -0.9205 -0.0742
   80MOL0     C10957   7.840   6.074   7.388  0.8699 -0.7734 -0.1293
   80MOL0     C10958   7.755   6.016   7.481 -0.4772 -0.0293 -0.4264
   80MOL0     C10959   7.787   5.891   7.539 -0.5066  0.2579 -0.5529
   80MOL0     C10960   7.913   5.831   7.526 -0.7724 -0.0660 -0.4076
   80MOL0     O10961   7.935   5.716   7.598 -0.1560  0.1561  0.1922
   80MOL0     C10962   8.067   5.659   7.610  0.0026  0.1137  0.1655
   80MOL0     C10963   8.096   5.553   7.501  0.2996  0.6519 -0.2237
   80MOL0     C10964   8.241   5.533   7.457  0.4730  0.0870  0.0488
   80MOL0     C10965   8.246   5.399   7.383  0.0042  0.8347 -0.9328
   80MOL0     C10966   8.268   5.293   7.495 -0.4893  0.3492  0.7250
   80MOL0     C10967   8.290   5.214   7.585 -0.3780  0.2663  0.5764
   80MOL0     C10968   7.995   5.891   7.428  0.6050 -0.9484  0.2532
   80MOL0     C10969   7.955   6.007   7.355 -0.2204  0.3591  0.8341
   80MOL0     C10970   8.052   6.057   7.250  0.3767  0.3719 -1.1349
   80MOL0     H10971   7.762   6.356   7.044  1.4199 -0.4634 -1.2372
   80MOL0     H10972   7.624   6.557   7.029 -0.7191  0.7292  0.4166
   80MOL0     H10973   7.463   6.862   7.263 -1.4837  0.3707  3.8729
   80MOL0     H10974   7.593   6.839   7.385  1.5994 -2.4018  0.7737
   80MOL0     H10975   7.423   6.609   7.288 -0.7769  0.5082  0.7478
   80MOL0     H10976   7.540   6.619   7.428  0.6306 -1.3652 -1.2978
   80MOL0     H10977   7.390   6.814   7.491  0.6727  1.1063 -2.0267
   80MOL0     H10978   7.265   6.735   7.384  1.3741  0.5811 -0.8285
   80MOL0     H10979   7.415   6.603   7.605  0.1191 -2.0202 -0.2469
   80MOL0     H10980   7.242   6.659   7.605  1.6981  1.2849  1.4647
   80MOL0     H10981   7.351   6.434   7.419  0.7024  1.7211  0.1517
   80MOL0     H10982   7.198   6.510   7.415  0.0515 -0.4534  0.4997
   80MOL0     H10983   7.134   6.431   7.620  0.8358  0.8323 -1.4771
   80MOL0     H10984   7.183   6.301   7.549 -0.6616 -0.0194  0.8253
   80MOL0     H10985   7.266   6.293   7.787 -4.2094  0.4543 -1.8241
   80MOL0     H10986   7.328   6.462   7.777  1.9290  0.3398 -0.0564
   80MOL0     H10987   7.495   6.365   7.603 -0.8185  0.3614  0.0334
   80MOL0     H10988   7.516   6.339   7.779 -0.0577 -3.4453  1.7083
   80MOL0     H10989   7.359   6.144   7.495 -2.2433  0.0513  0.5092
   80MOL0     H10990   7.258   5.894   7.482 -1.6951 -2.1599 -0.0451
   80MOL0     H10991   7.295   5.779   7.616  2.4753 -0.6487  1.5899
   80MOL0     H10992   7.525   5.762   7.514  0.3533  2.5811  0.0390
   80MOL0     H10993   7.385   5.686   7.436  0.9289 -1.7432  2.9757
   80MOL0     H10994   7.392   5.836   7.245  1.7773  3.0576 -4.2008
   80MOL0     H10995   7.502   5.939   7.326 -4.2775  1.0195  0.0573
   80MOL0     H10996   7.672   5.772   7.316 -0.1484  4.2877 -2.8214
   80MOL0     H10997   7.554   5.644   7.263 -1.7491  0.6091 -0.7727
   80MOL0     H10998   7.846   5.699   7.203 -1.3159  1.3224  0.0930
   80MOL0     H10999   8.095   5.746   7.111  3.3275 -0.4759 -1.3757
   80MOL0     H11000   8.150   5.612   7.009  0.8444 -1.0473  0.1906
   80MOL0     H11001   8.062   5.582   7.166  0.8864  2.1182  1.2628
   80MOL0     H11002   7.876   5.523   6.493  0.9317  2.3984  2.4846
   80MOL0     H11003   7.959   5.401   6.292 -1.5533 -0.8449  4.1284
   80MOL0     H11004   8.367   5.280   6.175  0.1408 -1.7138  0.5826
   80MOL0     H11005   8.275   5.260   6.317  1.3681  0.5533 -0.2211
   80MOL0     H11006   8.242   5.104   6.098  0.0352 -0.4902 -1.0464
   80MOL0     H11007   8.089   5.172   6.164 -0.3492 -0.1639 -1.1834
   80MOL0     H11008   8.097   5.344   5.987 -0.2516 -0.0149  1.0120
   80MOL0     H11009   8.084   5.172   5.945  1.6248 -2.1820  1.4845
   80MOL0     H11010   8.333   5.174   5.924 -1.7122 -0.5511  4.0663
   80MOL0     H11011   8.319   5.355   5.906  0.7579 -1.4326  0.9573
   80MOL0     H11012   8.185   5.152   5.718 -0.2370  0.1119  0.2412
   80MOL0     H11013   8.161   5.326   5.711  1.5595  1.4028  2.2673
   80MOL0     H11014   8.442   5.205   5.727 -0.3634  1.1365  2.0950
   80MOL0     H11015   8.405   5.361   5.661  0.4270 -0.4470 -1.3399
   80MOL0     H11016   8.271   5.272   5.474 -0.7157 -2.2842 -0.3357
   80MOL0     H11017   8.339   5.114   5.516  1.9000  0.0217  0.4876
   80MOL0     H11018   8.572   5.242   5.496  0.5485  0.3551  0.3347
   80MOL0     H11019   8.477   5.372   5.423  1.7934  0.5702  2.5773
   80MOL0     H11020   8.349   5.574   6.362  0.2841 -1.4015 -1.8069
   80MOL0     H11021   8.268   5.671   6.576  0.2099  2.2098 -1.3866
   80MOL0     H11022   7.775   5.695   6.723  2.2345  0.0791 -0.0417
   80MOL0     H11023   7.594   5.780   6.869 -0.9562  1.6165  2.7224
   80MOL0     H11024   7.789   6.690   7.413  1.2171 -1.0720  0.5995
   80MOL0     H11025   7.891   6.455   7.426 -0.0218  0.8732  1.1571
   80MOL0     H11026   7.658   6.056   7.509 -1.3065 -2.4502  0.3255
   80MOL0     H11027   7.722   5.835   7.605 -1.8928 -0.2189 -2.2474
   80MOL0     H11028   8.140   5.740   7.612  0.6104 -0.4263  0.2430
   80MOL0     H11029   8.081   5.606   7.705 -0.3911  1.0106  0.7351
   80MOL0     H11030   8.044   5.587   7.410  1.4540  0.4156 -0.9954
   80MOL0     H11031   8.054   5.461   7.541  0.7921  0.9166  0.9267
   80MOL0     H11032   8.266   5.621   7.396  0.8225 -0.0598 -0.0202
   80MOL0     H11033   8.318   5.525   7.534  2.3105 -2.2650 -1.8448
   80MOL0     H11034   8.334   5.396   7.318 -0.7141 -0.8392 -1.8972
   80MOL0     H11035   8.158   5.384   7.319 -2.4029  2.9769  1.5911
   80MOL0     H11036   8.295   5.165   7.679 -1.5807 -2.2786 -0.5925
   80MOL0     H11037   8.094   5.848   7.430  1.1300 -0.4750 -4.1263
   80MOL0     H11038   7.995   6.081   7.160 -1.1258 -3.6616 -1.4395
   80MOL0     H11039   8.106   6.145   7.289  1.0244  0.7578 -2.8397
   80MOL0     H11040   8.121   5.973   7.244 -0.7003 -0.8794  1.9881
   81MOL0     O11041   9.079   6.453   0.203 -0.1773 -0.1244  0.0667
   81MOL0     C11042   9.124   6.512   0.301  0.1701 -0.3269  0.6200
   81MOL0     O11043   9.128   6.466   0.434 -0.4575  0.1650 -0.1839
   81MOL0     C11044   9.095   6.334   0.460  0.3029  0.4084 -0.1161
   81MOL0     C11045   9.038   6.306   0.589  0.2146  0.1318  0.4361
   81MOL0     C11046   8.994   6.171   0.613 -0.0116 -0.0401  0.6254
   81MOL0     C11047   9.010   6.060   0.527 -0.0374  0.3591  0.4675
   81MOL0     O11048   8.973   5.936   0.577  0.6549  0.1667 -0.2440
   81MOL0     C11049   9.006   5.820   0.504  0.1766  0.6823 -0.6183
   81MOL0     C11050   8.888   5.772   0.419  0.1969 -0.4565 -0.4404
   81MOL0     C11051   8.765   5.768   0.508  0.0584  0.9983 -0.0255
   81MOL0     C11052   8.637   5.702   0.445 -0.5232  0.3717 -0.6499
   81MOL0     C11053   8.528   5.678   0.552  0.3732  0.2185 -0.0027
   81MOL0     C11054   8.396   5.632   0.499  0.7523 -0.1150  0.4190
   81MOL0     C11055   8.389   5.483   0.455  0.8704  0.6295 -0.4207
   81MOL0     C11056   8.240   5.446   0.413 -0.1892  0.7620 -0.3936
   81MOL0     N11057   8.222   5.381   0.279  0.1088  0.4347  0.2162
   81MOL0     C11058   8.269   5.425   0.161  0.7368 -0.4744 -0.6495
   81MOL0     C11059   8.174   5.378   0.073 -0.2753  0.0077 -0.9375
   81MOL0     C11060   8.176   5.398  -0.076  0.0395  0.3386  0.2860
   81MOL0     C11061   8.133   5.547  -0.121 -0.8439  0.0295  0.4608
   81MOL0     C11062   8.157   5.564  -0.276  0.0926  0.5574  0.0999
   81MOL0     C11063   8.205   5.709  -0.318  0.6243  0.4624 -0.3476
   81MOL0     O11064   8.340   5.726  -0.275  0.7283  0.1196  0.5820
   81MOL0     C11065   8.415   5.812  -0.354 -0.4827  0.8547  0.5696
   81MOL0     C11066   8.540   5.769  -0.390  0.2134  0.7327  0.7593
   81MOL0     C11067   8.628   5.851  -0.464 -0.3556  0.3031 -0.5162
   81MOL0     C11068   8.770   5.797  -0.478  0.2005 -0.2345 -0.0987
   81MOL0     C11069   8.590   5.974  -0.511  0.1673 -0.3188 -0.0086
   81MOL0     C11070   8.673   6.065  -0.587  0.1748  0.6528 -0.5533
   81MOL0     O11071   8.617   6.180  -0.627  0.1756  0.3311  0.5145
   81MOL0     C11072   8.696   6.276  -0.685 -0.4951 -0.9782  0.3806
   81MOL0     C11073   8.697   6.296  -0.825 -0.0068 -0.0402  0.0525
   81MOL0     C11074   8.784   6.392  -0.875 -0.3769  0.1819 -0.3346
   81MOL0     C11075   8.857   6.476  -0.793  0.3141  0.2188  0.4208
   81MOL0     O11076   8.930   6.563  -0.875  0.3364  0.4867 -0.2427
   81MOL0     C11077   8.950   6.698  -0.825 -0.2059 -0.3253  0.1031
   81MOL0     C11078   9.081   6.728  -0.891  0.0623  0.9129  0.4537
   81MOL0     C11079   9.120   6.877  -0.887 -0.2947  0.0466 -0.1824
   81MOL0     C11080   9.028   6.978  -0.824  1.1928  0.0970  0.5155
   81MOL0     C11081   9.094   7.116  -0.791  0.4647  0.8588  0.6153
   81MOL0     C11082   9.164   7.166  -0.915  0.5792 -0.0442  0.8267
   81MOL0     C11083   9.219   7.317  -0.908 -0.3107 -0.4495  0.0593
   81MOL0     C11084   9.310   7.328  -0.786  0.4176  1.0187  0.4632
   81MOL0    Cl11085   9.445   7.217  -0.782 -0.0299 -0.0991  0.2106
   81MOL0     C11086   8.836   6.470  -0.657 -0.1905 -0.4881 -0.0657
   81MOL0     C11087   8.768   6.366  -0.601  0.1416 -0.2141  0.8147
   81MOL0     O11088   8.791   6.034  -0.615  0.4239  0.8574  0.4276
   81MOL0     C11089   8.454   6.009  -0.478 -0.2358  0.6060 -1.3337
   81MOL0     C11090   8.372   5.933  -0.396 -0.2233 -0.7413 -0.3789
   81MOL0     N11091   8.092   5.289   0.131 -0.2009  0.3160  0.1120
   81MOL0     N11092   8.126   5.287   0.252  1.0987 -0.0355 -0.6453
   81MOL0     C11093   9.072   6.094   0.408  0.0755  0.1943  0.2812
   81MOL0     C11094   9.114   6.219   0.370  0.2609 -0.5809 -0.9702
   81MOL0     C11095   9.182   6.642   0.279  0.1546  0.2635 -0.8907
   81MOL0     C11096   9.166   6.741   0.385 -0.4676  0.5925  0.8959
   81MOL0     C11097   9.215   6.877   0.364 -0.1298 -0.1477  0.6557
   81MOL0     C11098   9.280   6.904   0.236  0.1619  0.4730  0.8439
   81MOL0     O11099   9.312   7.027   0.195 -0.8514 -0.5574 -0.9423
   81MOL0     C11100   9.234   7.141   0.230 -0.5269  0.8232  0.2432
   81MOL0     C11101   9.309   7.249   0.150  0.0728 -0.8493  0.3394
   81MOL0     C11102   9.248   7.388   0.175  0.2496 -0.4543 -0.1674
   81MOL0     C11103   9.347   7.487   0.242 -0.2571 -0.2232 -0.1684
   81MOL0     C11104   9.451   7.538   0.149 -0.5110  0.6197 -0.4613
   81MOL0     C11105   9.539   7.576   0.080  0.5735 -0.0535  0.0597
   81MOL0     C11106   9.307   6.789   0.143 -1.0984 -0.8100 -0.5757
   81MOL0     C11107   9.259   6.667   0.162  0.4867 -0.1437 -0.0048
   81MOL0     C11108   9.299   6.560   0.054  0.0068 -0.1683  0.3440
   81MOL0     H11109   9.014   6.395   0.647 -1.3952  0.4730 -0.6915
   81MOL0     H11110   8.952   6.143   0.710 -1.2951 -1.3129 -0.2526
   81MOL0     H11111   9.031   5.747   0.582 -0.7266 -2.0805 -2.7206
   81MOL0     H11112   9.097   5.826   0.442  1.3685  1.7047  1.1465
   81MOL0     H11113   8.878   5.840   0.333  0.1612 -0.4236 -0.4098
   81MOL0     H11114   8.895   5.666   0.394 -1.2870 -1.5684  3.2276
   81MOL0     H11115   8.789   5.721   0.604 -0.8428  0.7688  0.0888
   81MOL0     H11116   8.738   5.872   0.528  0.1188  1.0113 -0.0070
   81MOL0     H11117   8.602   5.772   0.368 -0.5648  0.1208 -0.8632
   81MOL0     H11118   8.664   5.607   0.397 -3.1928  0.7471 -3.1879
   81MOL0     H11119   8.504   5.778   0.588 -4.0069  0.0888 -1.9319
   81MOL0     H11120   8.557   5.618   0.640 -4.4897 -2.2652  0.2220
   81MOL0     H11121   8.314   5.652   0.569  2.2404  0.0977  2.1821
   81MOL0     H11122   8.382   5.697   0.412  2.8052  2.7582  2.0699
   81MOL0     H11123   8.420   5.414   0.533  1.5870  1.8303  0.3896
   81MOL0     H11124   8.463   5.460   0.377  2.1360  1.2843  0.5494
   81MOL0     H11125   8.192   5.377   0.482 -1.9430  0.0937 -2.1803
   81MOL0     H11126   8.169   5.529   0.406 -1.1091 -0.1569 -3.5512
   81MOL0     H11127   8.354   5.489   0.137 -2.7537  4.0819 -2.3824
   81MOL0     H11128   8.096   5.336  -0.117 -1.8395  2.4344  0.5550
   81MOL0     H11129   8.275   5.371  -0.114 -0.6136  0.1247 -1.3714
   81MOL0     H11130   8.026   5.556  -0.105 -1.8086  0.3787 -4.5760
   81MOL0     H11131   8.186   5.626  -0.068  2.0565 -0.0795 -1.9673
   81MOL0     H11132   8.227   5.492  -0.320  1.7405  3.2091 -1.9851
   81MOL0     H11133   8.059   5.550  -0.321  0.8121 -0.3109 -1.2942
   81MOL0     H11134   8.207   5.707  -0.428  1.3260 -0.5239 -0.3284
   81MOL0     H11135   8.147   5.793  -0.280  1.6617  0.8518  0.4011
   81MOL0     H11136   8.580   5.672  -0.361 -0.4105 -0.5228 -2.1852
   81MOL0     H11137   8.763   5.692  -0.449 -3.4483  0.0086  0.2745
   81MOL0     H11138   8.835   5.857  -0.414 -1.0172 -0.0952  1.0384
   81MOL0     H11139   8.800   5.806  -0.583 -0.1528 -1.5591 -0.3345
   81MOL0     H11140   8.649   6.225  -0.892  2.8970 -2.0336 -0.1218
   81MOL0     H11141   8.788   6.388  -0.984 -1.5757  2.1511 -0.5165
   81MOL0     H11142   8.874   6.772  -0.848 -2.2310 -1.9037  1.3054
   81MOL0     H11143   8.961   6.702  -0.716  2.7161 -1.0029 -0.0899
   81MOL0     H11144   9.155   6.669  -0.836 -1.8073  0.1917  2.3795
   81MOL0     H11145   9.073   6.696  -0.995 -2.8245 -1.6227  1.2879
   81MOL0     H11146   9.120   6.921  -0.987 -1.9459  1.9700  0.5893
   81MOL0     H11147   9.218   6.892  -0.840  0.4705 -2.8267 -0.6757
   81MOL0     H11148   8.984   6.946  -0.729  0.0188 -1.0705 -0.3819
   81MOL0     H11149   8.950   7.007  -0.895  1.1414 -1.1830  0.0178
   81MOL0     H11150   9.019   7.188  -0.756 -0.0833  0.9644 -0.7196
   81MOL0     H11151   9.167   7.104  -0.710 -0.2242  0.2170  1.1638
   81MOL0     H11152   9.089   7.165  -0.995 -0.1432  0.4015  1.4760
   81MOL0     H11153   9.250   7.103  -0.937  1.9359  2.0885 -0.3479
   81MOL0     H11154   9.132   7.377  -0.884  0.2670 -0.0372  1.1959
   81MOL0     H11155   9.278   7.345  -0.995  2.4503  0.6779  2.1230
   81MOL0     H11156   9.264   7.330  -0.687  0.9329  0.7620  0.7103
   81MOL0     H11157   9.352   7.429  -0.796  0.2260  0.9695 -1.2292
   81MOL0     H11158   8.880   6.542  -0.589 -0.4322  0.0491 -0.4717
   81MOL0     H11159   8.769   6.362  -0.492 -1.5305  2.7169  1.0493
   81MOL0     H11160   8.417   6.110  -0.495 -1.4912  0.8278  1.9754
   81MOL0     H11161   8.273   5.968  -0.366 -0.6943 -0.5711 -2.0378
   81MOL0     H11162   9.108   6.009   0.351 -2.2647 -1.4740  1.1342
   81MOL0     H11163   9.148   6.234   0.268  1.5186  0.2796 -0.4543
   81MOL0     H11164   9.118   6.716   0.479 -0.3074 -0.9864  0.5754
   81MOL0     H11165   9.232   6.957   0.435  3.1975  1.0445 -1.2599
   81MOL0     H11166   9.131   7.127   0.196 -0.7399 -2.9350  1.9417
   81MOL0     H11167   9.221   7.157   0.337 -3.8008 -1.3778  0.3106
   81MOL0     H11168   9.305   7.233   0.042 -1.5528 -1.1023  0.4113
   81MOL0     H11169   9.413   7.243   0.182 -0.1516 -5.2514  0.8636
   81MOL0     H11170   9.209   7.436   0.085 -0.4028 -5.1095 -2.6879
   81MOL0     H11171   9.171   7.383   0.252  2.2799  0.8746  2.0815
   81MOL0     H11172   9.391   7.452   0.335 -0.6831  1.5059  0.7437
   81MOL0     H11173   9.282   7.568   0.278  0.4272  0.3006 -0.0844
   81MOL0     H11174   9.612   7.631   0.024  2.2111  1.2596  3.1981
   81MOL0     H11175   9.363   6.808   0.052  0.8697  2.0385  1.0712
   81MOL0     H11176   9.366   6.590  -0.027 -0.7407 -2.7411 -1.3508
   81MOL0     H11177   9.369   6.491   0.102  0.1595 -0.1378  0.1651
   81MOL0     H11178   9.221   6.494   0.014  1.7452 -2.6696  0.8657
   82MOL0     O11179  10.798  10.463   1.778 -0.3134 -0.2992  0.6090
   82MOL0     C11180  10.918  10.513   1.775 -0.5076  0.1860 -0.8299
   82MOL0     O11181  11.009  10.488   1.870 -0.6663 -0.4019 -0.6905
   82MOL0     C11182  10.998  10.372   1.939 -1.2317  0.8736 -0.5440
   82MOL0     C11183  10.983  10.372   2.077  0.5217 -0.5889  0.8340
   82MOL0     C11184  10.948  10.253   2.146 -0.1829 -0.5018  0.0825
   82MOL0     C11185  10.938  10.129   2.080 -0.1296 -0.2457  0.5809
   82MOL0     O11186  10.936  10.004   2.139  0.4900 -0.9469  0.1527
   82MOL0     C11187  10.948  10.000   2.275 -0.2778 -0.4010 -0.4646
   82MOL0     C11188  11.030   9.879   2.311 -0.4909  0.3714  0.2137
   82MOL0     C11189  11.072   9.878   2.455 -0.2012  0.2332 -0.0425
   82MOL0     C11190  11.126   9.741   2.501 -0.1798  0.1842  0.8238
   82MOL0     C11191  11.214   9.741   2.623  0.5097  0.2363  0.1015
   82MOL0     C11192  11.147   9.766   2.759 -0.2053 -0.2339 -0.1140
   82MOL0     C11193  11.035   9.660   2.792 -1.1163 -0.9541 -0.1222
   82MOL0     C11194  10.996   9.670   2.933 -0.2076 -0.2448 -0.4753
   82MOL0     N11195  10.886   9.579   2.957 -0.5948 -0.4769 -0.1147
   82MOL0     C11196  10.763   9.622   2.941 -0.5039 -0.4840  0.7162
   82MOL0     C11197  10.682   9.515   2.944 -0.9927  0.5324  0.1116
   82MOL0     C11198  10.534   9.521   2.934  0.4666  0.0433  0.1889
   82MOL0     C11199  10.466   9.600   3.039 -0.2019 -0.1882  0.1088
   82MOL0     C11200  10.308   9.594   3.023 -1.0171 -0.4863 -0.7059
   82MOL0     C11201  10.234   9.669   3.129  1.0149  0.4473 -0.4197
   82MOL0     O11202  10.093   9.667   3.112  0.0117 -0.2505  0.5157
   82MOL0     C11203  10.012   9.550   3.146  0.8795  0.4853 -0.0055
   82MOL0     C11204  10.060   9.430   3.193  0.7155 -0.2933 -0.7540
   82MOL0     C11205   9.982   9.312   3.218  0.0164 -0.4866  0.4477
   82MOL0     C11206  10.062   9.195   3.272  0.1947 -0.0186  0.2839
   82MOL0     C11207   9.843   9.311   3.184 -0.0385 -1.0281 -0.7781
   82MOL0     C11208   9.740   9.198   3.200 -0.9044 -0.2015 -1.3161
   82MOL0     O11209   9.631   9.203   3.122 -0.5284  0.0710  0.5318
   82MOL0     C11210   9.551   9.090   3.105 -0.9322 -0.7865 -0.1877
   82MOL0     C11211   9.463   9.050   3.207 -0.4909 -0.2801 -0.5205
   82MOL0     C11212   9.376   8.943   3.198 -0.1509 -0.5546  0.0441
   82MOL0     C11213   9.361   8.868   3.087 -1.0391 -0.3245 -0.3661
   82MOL0     O11214   9.283   8.751   3.081 -0.0033  0.6582  0.2372
   82MOL0     C11215   9.209   8.714   2.967  0.2969  0.1743  0.3261
   82MOL0     C11216   9.090   8.631   3.011  0.0807 -1.4064  0.1939
   82MOL0     C11217   8.991   8.614   2.888 -0.2108  0.0320 -0.0983
   82MOL0     C11218   9.042   8.500   2.794  0.6048  0.4606 -0.3566
   82MOL0     C11219   8.941   8.486   2.672 -0.4154  0.4205  0.6033
   82MOL0     C11220   8.985   8.402   2.552 -0.3818 -0.1784  0.4303
   82MOL0     C11221   8.879   8.433   2.452  0.0854 -0.1578 -1.0362
   82MOL0     C11222   8.899   8.359   2.319 -0.2771 -0.3448 -0.2531
   82MOL0    Cl11223   9.062   8.328   2.285 -0.0599  0.0061 -0.3211
   82MOL0     C11224   9.436   8.910   2.971 -0.2140 -0.2641 -0.1054
   82MOL0     C11225   9.533   9.023   2.984 -0.6503  0.3814  0.2529
   82MOL0     O11226   9.771   9.108   3.275 -0.0547  0.2265 -0.0582
   82MOL0     C11227   9.794   9.428   3.128  1.0880 -0.8359  0.1469
   82MOL0     C11228   9.877   9.545   3.110 -1.0761  1.0711 -0.4642
   82MOL0     N11229  10.761   9.398   2.952  1.1859  0.0226 -0.1193
   82MOL0     N11230  10.883   9.444   2.951 -0.2671  0.4831  1.0187
   82MOL0     C11231  10.950  10.131   1.939  0.0815  1.8159 -0.4978
   82MOL0     C11232  10.981  10.249   1.875 -0.0792 -1.1455 -1.3732
   82MOL0     C11233  10.950  10.608   1.670 -0.0527 -0.4666 -0.5742
   82MOL0     C11234  10.887  10.590   1.549 -0.2726  0.4330 -0.1312
   82MOL0     C11235  10.909  10.659   1.433  0.1221 -0.7661  0.2969
   82MOL0     C11236  11.009  10.759   1.426  1.0791 -0.2590 -0.1222
   82MOL0     O11237  11.055  10.833   1.322 -0.2899  0.1595  0.1690
   82MOL0     C11238  11.002  10.829   1.194  0.3625 -0.3523 -0.5079
   82MOL0     C11239  10.995  10.976   1.144  0.2962 -0.0177 -1.0630
   82MOL0     C11240  10.932  10.997   1.006 -0.2357  0.2104  0.2887
   82MOL0     C11241  10.956  10.891   0.902  0.4770  0.2184  0.2242
   82MOL0     C11242  11.077  10.929   0.842  0.5307  0.3503 -0.3441
   82MOL0     C11243  11.183  10.968   0.800 -1.2200  0.2194 -0.6095
   82MOL0     C11244  11.083  10.781   1.547  0.0254  0.8799 -0.3850
   82MOL0     C11245  11.045  10.712   1.669 -1.5714 -0.3110  0.0169
   82MOL0     C11246  11.126  10.759   1.785 -0.2912 -0.8932 -0.5782
   82MOL0     H11247  10.985  10.463   2.137 -1.3325 -0.9784  1.5607
   82MOL0     H11248  10.946  10.271   2.253  0.7597  3.4797 -0.4128
   82MOL0     H11249  10.856   9.995   2.333 -2.1006  0.1429 -3.1020
   82MOL0     H11250  11.011  10.081   2.314 -1.7322  0.1585  0.8019
   82MOL0     H11251  10.974   9.788   2.285 -1.3346  1.5484 -2.4333
   82MOL0     H11252  11.120   9.880   2.249 -0.1256 -0.7149  0.7045
   82MOL0     H11253  11.153   9.950   2.472 -0.2098  0.3050 -0.2930
   82MOL0     H11254  10.993   9.901   2.526  0.2303 -0.0531  0.5400
   82MOL0     H11255  11.049   9.664   2.497 -0.5451  0.3408  3.4756
   82MOL0     H11256  11.191   9.708   2.419 -3.5643  1.4098 -2.6397
   82MOL0     H11257  11.297   9.810   2.603 -0.1861  1.0113 -0.1758
   82MOL0     H11258  11.246   9.637   2.624  0.1740  0.1302 -0.0921
   82MOL0     H11259  11.222   9.774   2.839 -0.5319 -1.2996  0.3195
   82MOL0     H11260  11.106   9.867   2.755  0.6435  0.1067 -0.4364
   82MOL0     H11261  11.069   9.557   2.778 -4.4700 -2.0117 -1.6211
   82MOL0     H11262  10.945   9.671   2.730 -1.4567  1.1137  0.6403
   82MOL0     H11263  11.079   9.645   3.000  0.0672 -1.4799 -1.2486
   82MOL0     H11264  10.954   9.769   2.957  0.3754  0.0462 -0.6278
   82MOL0     H11265  10.724   9.723   2.947 -1.0066 -0.6290  0.0200
   82MOL0     H11266  10.508   9.415   2.941 -1.3220  0.1908 -2.4833
   82MOL0     H11267  10.488   9.550   2.839 -0.4109  0.5531  0.7528
   82MOL0     H11268  10.499   9.558   3.135 -0.0465 -2.1466 -0.7568
   82MOL0     H11269  10.493   9.705   3.031 -1.4523  0.2823  1.5386
   82MOL0     H11270  10.290   9.650   2.930  0.9988 -0.7890 -1.3229
   82MOL0     H11271  10.271   9.492   3.032 -1.4741 -0.1166  4.8701
   82MOL0     H11272  10.263   9.631   3.228  0.9164 -2.0590 -1.2898
   82MOL0     H11273  10.268   9.773   3.122  0.5284  0.5703 -1.0611
   82MOL0     H11274  10.167   9.435   3.210  0.6997 -2.6696  0.4015
   82MOL0     H11275  10.095   9.138   3.185 -0.0147 -0.9159  0.7790
   82MOL0     H11276  10.005   9.140   3.347 -2.9800  1.9864 -0.4673
   82MOL0     H11277  10.156   9.229   3.316 -0.0046  1.1458 -0.1419
   82MOL0     H11278   9.463   9.102   3.302 -1.2504 -0.8387 -0.2038
   82MOL0     H11279   9.311   8.938   3.285  2.0658 -1.4904  1.7422
   82MOL0     H11280   9.180   8.808   2.918  0.3765 -0.5010 -1.0892
   82MOL0     H11281   9.284   8.665   2.904 -2.1082  0.9460 -3.5257
   82MOL0     H11282   9.123   8.534   3.049  1.9877 -0.0377  2.2624
   82MOL0     H11283   9.031   8.685   3.086  0.4007 -2.0895  0.9468
   82MOL0     H11284   8.980   8.711   2.839  1.4745  0.5388  0.4426
   82MOL0     H11285   8.893   8.584   2.926  0.5382 -0.0839  1.8764
   82MOL0     H11286   9.034   8.403   2.844  1.7180  0.2804 -0.5163
   82MOL0     H11287   9.139   8.528   2.753 -0.2924  1.6523 -1.7905
   82MOL0     H11288   8.848   8.453   2.719 -0.2547  1.2384  1.5247
   82MOL0     H11289   8.927   8.590   2.641 -0.2262  0.1007 -0.5927
   82MOL0     H11290   8.995   8.297   2.579 -1.8370  0.0807  2.1795
   82MOL0     H11291   9.081   8.445   2.521  0.6716 -0.0935  3.4566
   82MOL0     H11292   8.877   8.540   2.427  2.8908 -0.3262 -2.3256
   82MOL0     H11293   8.781   8.407   2.493 -0.4277 -0.5216 -2.4378
   82MOL0     H11294   8.852   8.397   2.227  2.8273 -2.1293 -2.8025
   82MOL0     H11295   8.859   8.259   2.337  3.2118 -1.6501  0.9619
   82MOL0     H11296   9.437   8.849   2.881 -1.5613  2.3005 -1.9971
   82MOL0     H11297   9.603   9.045   2.904 -1.0404  1.3306  0.1547
   82MOL0     H11298   9.694   9.448   3.090  1.7090  4.7210  0.5941
   82MOL0     H11299   9.849   9.637   3.058 -0.4402 -0.3279 -3.5097
   82MOL0     H11300  10.948  10.045   1.872  2.6468  1.8479 -0.7414
   82MOL0     H11301  11.006  10.245   1.769  2.4180 -1.6346 -0.8421
   82MOL0     H11302  10.815  10.511   1.534 -0.3505  0.6594 -1.0262
   82MOL0     H11303  10.877  10.627   1.334  2.0416  0.5440 -0.8314
   82MOL0     H11304  11.072  10.776   1.128  0.0160 -2.4755  0.7533
   82MOL0     H11305  10.901  10.788   1.186  0.1003 -0.4150  2.3767
   82MOL0     H11306  11.092  11.024   1.160  1.6693 -3.0928  0.7157
   82MOL0     H11307  10.924  11.024   1.212  1.8063  0.1827  0.4416
   82MOL0     H11308  10.823  10.997   1.018 -0.2607  0.7794  0.0968
   82MOL0     H11309  10.957  11.100   0.981  0.8218  0.7751  3.3697
   82MOL0     H11310  10.881  10.903   0.824  1.2775 -0.9093 -0.7516
   82MOL0     H11311  10.973  10.790   0.939 -1.5886 -0.0719  0.5017
   82MOL0     H11312  11.268  10.963   0.736 -0.1484 -4.0017  0.8021
   82MOL0     H11313  11.159  10.858   1.541 -0.9009  1.7042 -2.4080
   82MOL0     H11314  11.093  10.849   1.837  1.6640 -0.3434 -0.1907
   82MOL0     H11315  11.144  10.686   1.864  1.7998  0.8307  0.6463
   82MOL0     H11316  11.231  10.777   1.758 -0.5236  1.2886 -0.2169
   83MOL0     O11317   0.332   3.855  11.144  0.2242 -0.6469 -0.0773
   83MOL0     C11318   0.408   3.780  11.080  0.1196  0.0680 -0.3379
   83MOL0     O11319   0.362   3.678  11.002 -0.3737 -0.3455  0.3097
   83MOL0     C11320   0.231   3.639  10.999 -1.0748  0.0566 -0.5887
   83MOL0     C11321   0.170   3.641  10.876 -0.1059 -0.4521  0.6635
   83MOL0     C11322   0.034   3.608  10.863 -0.1314 -0.7610  0.1323
   83MOL0     C11323  -0.040   3.588  10.983 -0.4298 -0.9160  0.9154
   83MOL0     O11324  -0.174   3.562  10.978  0.6221 -0.0264 -0.5010
   83MOL0     C11325  -0.251   3.651  10.894  0.3282  0.0857 -0.3481
   83MOL0     C11326  -0.378   3.691  10.956 -0.0847 -1.0707  0.1810
   83MOL0     C11327  -0.357   3.778  11.085 -0.4838 -0.1920  0.1824
   83MOL0     C11328  -0.494   3.821  11.148 -0.1390 -0.8314 -0.0722
   83MOL0     C11329  -0.572   3.931  11.071  1.4525 -1.2027 -0.0211
   83MOL0     C11330  -0.503   4.050  11.012  0.9433 -1.1589  0.3783
   83MOL0     C11331  -0.603   4.141  10.937  0.4417 -0.6440 -0.8323
   83MOL0     C11332  -0.613   4.113  10.791 -0.6688 -0.2522  0.5293
   83MOL0     N11333  -0.702   4.202  10.714  0.9593  0.2221  0.8415
   83MOL0     C11334  -0.843   4.223  10.727 -0.7105 -0.8007 -0.4182
   83MOL0     C11335  -0.886   4.237  10.599 -0.1692  0.1119 -0.5130
   83MOL0     C11336  -1.036   4.265  10.585  0.3045  0.7296 -1.3315
   83MOL0     C11337  -1.085   4.247  10.439  0.1676  0.3348  0.4616
   83MOL0     C11338  -1.236   4.261  10.430  0.1828  0.5157 -0.1539
   83MOL0     C11339  -1.283   4.404  10.444  0.7179  0.2089  0.8629
   83MOL0     O11340  -1.433   4.415  10.451 -0.2572  0.3599  0.2719
   83MOL0     C11341  -1.496   4.534  10.442  0.1486  0.9100  1.0240
   83MOL0     C11342  -1.440   4.648  10.387  0.0551 -0.8647  1.5421
   83MOL0     C11343  -1.509   4.770  10.390  0.7346 -0.2549  0.7461
   83MOL0     C11344  -1.452   4.887  10.301 -0.0097 -0.0500  0.2227
   83MOL0     C11345  -1.630   4.773  10.450  0.3530  0.3205  0.4394
   83MOL0     C11346  -1.716   4.901  10.454 -0.8197  0.4303 -1.1424
   83MOL0     O11347  -1.646   5.003  10.510 -0.8845 -0.7635  0.0083
   83MOL0     C11348  -1.702   5.128  10.540 -0.2611 -0.6367 -0.7541
   83MOL0     C11349  -1.777   5.157  10.652  0.8161  0.6479  0.1082
   83MOL0     C11350  -1.840   5.274  10.665  0.0349 -1.0632 -0.4115
   83MOL0     C11351  -1.824   5.378  10.569 -0.2497 -1.3451 -0.1269
   83MOL0     O11352  -1.890   5.502  10.605 -1.0216 -0.2128 -1.2910
   83MOL0     C11353  -1.903   5.594  10.495  0.9978 -0.1489  0.0226
   83MOL0     C11354  -1.973   5.722  10.542 -0.5265  0.5304 -0.1904
   83MOL0     C11355  -1.893   5.800  10.648  0.0401 -0.1493 -0.4678
   83MOL0     C11356  -1.919   5.953  10.634  0.7385  0.8818 -0.8355
   83MOL0     C11357  -1.875   6.021  10.766 -0.0237  1.3830 -0.5340
   83MOL0     C11358  -1.967   6.013  10.892  0.8978 -0.3365  0.3016
   83MOL0     C11359  -1.918   6.091  11.008  0.0405 -0.8832 -0.8252
   83MOL0     C11360  -1.974   6.057  11.148 -0.8406  0.0799 -0.3324
   83MOL0    Cl11361  -1.888   6.172  11.272  0.4473 -0.7227 -0.0286
   83MOL0     C11362  -1.733   5.357  10.462  0.8691  0.4612 -0.0725
   83MOL0     C11363  -1.681   5.230  10.451  0.8483  0.2287 -0.0491
   83MOL0     O11364  -1.834   4.892  10.432  0.1703 -0.5808  0.9730
   83MOL0     C11365  -1.688   4.662  10.500  0.1746  0.8623  0.3875
   83MOL0     C11366  -1.631   4.536  10.487  0.2146  0.3661  0.5700
   83MOL0     N11367  -0.779   4.225  10.514  0.2512  0.1414  0.1665
   83MOL0     N11368  -0.672   4.209  10.583 -0.1740 -0.3168 -0.2984
   83MOL0     C11369   0.034   3.562  11.098 -0.5177 -0.6413  0.9221
   83MOL0     C11370   0.170   3.590  11.102 -0.8913 -0.0952 -0.9189
   83MOL0     C11371   0.551   3.818  11.074  0.2122 -0.3300  0.1214
   83MOL0     C11372   0.619   3.844  11.191  0.3269 -0.0385 -0.4569
   83MOL0     C11373   0.750   3.890  11.194 -0.2929  0.2910 -0.3546
   83MOL0     C11374   0.816   3.939  11.090  0.1754 -0.0810  0.8576
   83MOL0     O11375   0.935   4.015  11.082  0.2778  0.0447  0.1843
   83MOL0     C11376   1.006   4.014  11.205 -1.0402 -0.0888  0.1645
   83MOL0     C11377   1.147   4.082  11.192 -0.2996  1.3639  0.7194
   83MOL0     C11378   1.234   3.985  11.116 -0.4670  0.4306 -0.3653
   83MOL0     C11379   1.284   3.857  11.181 -0.9252  0.8022 -0.0318
   83MOL0     C11380   1.421   3.865  11.234 -0.2016  1.2055 -0.4427
   83MOL0     C11381   1.541   3.848  11.258  0.6110  0.2079 -0.5716
   83MOL0     C11382   0.750   3.919  10.969  0.7262 -0.5869 -0.0170
   83MOL0     C11383   0.621   3.845  10.958 -0.1503 -0.7935 -1.1226
   83MOL0     C11384   0.568   3.832  10.817  0.0455  0.1163 -0.9286
   83MOL0     H11385   0.236   3.651  10.790 -1.1479 -1.2836 -0.2592
   83MOL0     H11386  -0.014   3.610  10.766 -2.0153 -1.4059  0.9960
   83MOL0     H11387  -0.289   3.595  10.808 -0.5280 -0.6282  0.4675
   83MOL0     H11388  -0.185   3.733  10.865 -0.4528  1.0833  0.6251
   83MOL0     H11389  -0.438   3.735  10.875 -0.3789 -0.5795  0.6582
   83MOL0     H11390  -0.430   3.599  10.984 -1.8491 -0.1771 -0.0085
   83MOL0     H11391  -0.305   3.713  11.157  0.5696  2.3999  1.8863
   83MOL0     H11392  -0.289   3.861  11.065  2.1777 -1.8054  1.8992
   83MOL0     H11393  -0.564   3.738  11.162  0.1921 -0.8274  2.0006
   83MOL0     H11394  -0.477   3.859  11.250  0.0644 -1.0211 -0.0357
   83MOL0     H11395  -0.646   3.963  11.146  3.3458  1.8084  0.7572
   83MOL0     H11396  -0.614   3.885  10.982 -0.4025  1.7069 -0.7837
   83MOL0     H11397  -0.446   4.111  11.082  1.7541 -0.4796 -0.8396
   83MOL0     H11398  -0.420   4.022  10.946  0.2489 -1.0386 -0.5635
   83MOL0     H11399  -0.563   4.242  10.944 -2.3670  0.4622  1.0347
   83MOL0     H11400  -0.698   4.130  10.991  2.3694  0.4299  3.1377
   83MOL0     H11401  -0.513   4.127  10.749 -0.8678 -0.5183 -0.0289
   83MOL0     H11402  -0.637   4.009  10.768  1.4464  0.1692 -5.3258
   83MOL0     H11403  -0.902   4.220  10.818 -2.5849 -1.2378 -1.5846
   83MOL0     H11404  -1.048   4.368  10.620  0.4734 -0.0646  1.2686
   83MOL0     H11405  -1.094   4.200  10.650  1.0420 -0.3796 -1.7333
   83MOL0     H11406  -1.033   4.312  10.368 -0.9062  0.1603 -0.5228
   83MOL0     H11407  -1.070   4.144  10.405 -3.1062  0.2093 -0.9535
   83MOL0     H11408  -1.259   4.225  10.329  1.1121  0.7199 -0.4479
   83MOL0     H11409  -1.275   4.190  10.503  1.4990  0.1452  0.2265
   83MOL0     H11410  -1.235   4.457  10.527  0.3899  1.3836  0.3280
   83MOL0     H11411  -1.246   4.454  10.354  1.9145 -0.6221  0.8795
   83MOL0     H11412  -1.347   4.656  10.332 -1.8841  0.8963 -1.8676
   83MOL0     H11413  -1.413   4.963  10.370  1.8111  0.0976 -0.9045
   83MOL0     H11414  -1.523   4.911  10.222  2.4846  0.2806 -2.0712
   83MOL0     H11415  -1.367   4.854  10.241  1.9305  0.8850  2.2881
   83MOL0     H11416  -1.787   5.085  10.731  2.5130  1.3960  1.0759
   83MOL0     H11417  -1.904   5.305  10.747  1.1122  0.0801  0.0227
   83MOL0     H11418  -1.806   5.630  10.461  0.3431  2.3020  0.5377
   83MOL0     H11419  -1.970   5.554  10.418 -1.0360  0.8257  1.2039
   83MOL0     H11420  -1.993   5.790  10.459  0.0575  0.7985 -0.1155
   83MOL0     H11421  -2.063   5.691  10.596  0.7153 -1.8641  0.6892
   83MOL0     H11422  -1.785   5.789  10.640  0.4014  2.2810  0.3228
   83MOL0     H11423  -1.921   5.759  10.746 -0.1105 -0.9035 -0.8174
   83MOL0     H11424  -2.026   5.964  10.615  0.2635 -2.0956 -0.3454
   83MOL0     H11425  -1.866   5.990  10.546  0.0081  3.3043 -0.3378
   83MOL0     H11426  -1.774   5.987  10.790  0.8849  0.7867 -4.5375
   83MOL0     H11427  -1.874   6.127  10.737 -1.2487  1.8003  0.8083
   83MOL0     H11428  -1.967   5.909  10.927 -0.0190 -0.3695  0.2237
   83MOL0     H11429  -2.070   6.044  10.876  0.8729 -1.0684 -1.1497
   83MOL0     H11430  -1.939   6.198  10.995  0.4901 -0.6653  0.1879
   83MOL0     H11431  -1.812   6.070  11.022  0.1914  1.4302  2.7799
   83MOL0     H11432  -1.969   5.950  11.171 -0.7221 -0.3083 -1.9929
   83MOL0     H11433  -2.083   6.062  11.147 -1.0364 -1.9176 -3.6583
   83MOL0     H11434  -1.700   5.432  10.391  0.6141 -1.6938 -2.6233
   83MOL0     H11435  -1.611   5.214  10.369  0.3775  3.0391 -1.1352
   83MOL0     H11436  -1.783   4.679  10.549  1.1516  3.1222  1.6968
   83MOL0     H11437  -1.674   4.447  10.532 -0.3867  0.2295 -0.2465
   83MOL0     H11438  -0.018   3.508  11.176 -0.7663 -1.4607  0.2100
   83MOL0     H11439   0.224   3.580  11.196 -3.4385  1.9612  0.8862
   83MOL0     H11440   0.581   3.809  11.286  0.6543 -0.1416 -0.3625
   83MOL0     H11441   0.790   3.890  11.295  0.9037  0.5970 -0.8070
   83MOL0     H11442   0.948   4.070  11.279 -3.3505 -1.9751 -0.1134
   83MOL0     H11443   1.003   3.911  11.242 -0.6071  0.5134  1.9594
   83MOL0     H11444   1.187   4.085  11.294 -2.4634 -3.9530  2.0886
   83MOL0     H11445   1.152   4.166  11.123  0.9103 -2.2849 -4.1598
   83MOL0     H11446   1.209   3.955  11.014  0.8227  0.7933 -0.8020
   83MOL0     H11447   1.324   4.045  11.105 -1.8001  2.3058 -1.7248
   83MOL0     H11448   1.292   3.770  11.115 -0.6419  0.6440  0.2119
   83MOL0     H11449   1.220   3.822  11.262  0.3855 -0.9124  0.3233
   83MOL0     H11450   1.638   3.848  11.303  0.8335  2.8795 -0.8363
   83MOL0     H11451   0.802   3.962  10.884  0.9389 -1.3269 -0.2718
   83MOL0     H11452   0.640   3.859  10.739  1.3801 -1.5548 -0.3251
   83MOL0     H11453   0.539   3.730  10.793  0.8747 -0.0825 -1.1234
   83MOL0     H11454   0.476   3.891  10.818  0.4386  0.7346 -0.0234
   84MOL0     O11455   5.288   4.340   4.619  0.4686  0.3214 -0.6597
   84MOL0     C11456   5.234   4.229   4.606  0.4380  0.1594 -0.4385
   84MOL0     O11457   5.292   4.104   4.631  0.9561 -0.4120 -0.2848
   84MOL0     C11458   5.419   4.108   4.675  0.7523 -0.4274  0.1986
   84MOL0     C11459   5.510   4.050   4.592  0.5987 -1.0659 -0.3313
   84MOL0     C11460   5.643   4.031   4.637 -0.2125  0.7835 -0.1849
   84MOL0     C11461   5.683   4.078   4.763  0.8719 -0.1594  0.1332
   84MOL0     O11462   5.815   4.064   4.801  0.7277  0.1938  0.1963
   84MOL0     C11463   5.877   4.129   4.907 -1.0697 -0.2937 -0.0586
   84MOL0     C11464   6.020   4.071   4.935  0.7853 -0.0359  0.4038
   84MOL0     C11465   6.000   3.924   4.973 -0.0379 -1.0972 -0.9553
   84MOL0     C11466   6.132   3.852   4.970  1.8931 -0.1402 -0.2210
   84MOL0     C11467   6.127   3.720   5.058 -0.4884  0.4797 -0.4802
   84MOL0     C11468   6.056   3.608   4.973 -0.3615 -0.2213  0.2928
   84MOL0     C11469   6.038   3.485   5.064  0.8487  0.0423  0.0459
   84MOL0     C11470   5.944   3.383   4.993  0.5504 -0.3148 -0.1460
   84MOL0     N11471   6.013   3.312   4.883 -0.1167 -0.1484 -0.4643
   84MOL0     C11472   6.012   3.367   4.761 -0.7024 -0.6727  0.0423
   84MOL0     C11473   6.119   3.299   4.696  0.3116  0.4329  0.3687
   84MOL0     C11474   6.167   3.331   4.557  0.1687 -0.2831  1.0132
   84MOL0     C11475   6.321   3.362   4.543 -0.9646  0.3864 -0.9933
   84MOL0     C11476   6.369   3.374   4.394  0.5166 -0.3973 -0.9663
   84MOL0     C11477   6.392   3.241   4.321 -0.1251  0.6209 -0.8465
   84MOL0     O11478   6.424   3.278   4.187 -0.6121  0.2446  0.0026
   84MOL0     C11479   6.406   3.179   4.091  0.2789 -0.6131 -0.6830
   84MOL0     C11480   6.412   3.044   4.119  1.0399 -0.3947  0.5340
   84MOL0     C11481   6.376   2.952   4.003  0.6791 -0.3306 -0.6657
   84MOL0     C11482   6.382   2.803   4.025  0.1660  0.0469 -0.1169
   84MOL0     C11483   6.335   3.010   3.881  0.3510  0.5258 -0.1319
   84MOL0     C11484   6.322   2.944   3.749 -0.6704  0.4732  0.5647
   84MOL0     O11485   6.211   2.974   3.680  0.0740  0.0904  0.0209
   84MOL0     C11486   6.185   2.939   3.548  0.0954  0.6456 -0.4844
   84MOL0     C11487   6.200   2.804   3.502  0.2420 -1.2106 -0.1674
   84MOL0     C11488   6.194   2.775   3.364 -0.0474 -0.2435  0.7339
   84MOL0     C11489   6.154   2.884   3.271 -0.5298  1.1449  0.3615
   84MOL0     O11490   6.170   2.857   3.138 -0.3889  0.1969  0.3297
   84MOL0     C11491   6.101   2.737   3.083 -1.0110 -0.6397  0.4991
   84MOL0     C11492   6.038   2.759   2.949 -0.7653  0.1618  0.3619
   84MOL0     C11493   5.940   2.875   2.946  0.0835  0.2522 -0.1216
   84MOL0     C11494   6.008   2.999   2.896  0.2944  0.1433  0.0973
   84MOL0     C11495   5.915   3.106   2.837 -0.3707 -0.2960  0.3264
   84MOL0     C11496   5.973   3.243   2.855 -0.1654  1.0893  0.1435
   84MOL0     C11497   5.873   3.357   2.827  0.4414 -0.7938 -0.2192
   84MOL0     C11498   5.939   3.498   2.837 -0.5135  0.3137  1.0123
   84MOL0    Cl11499   6.027   3.513   2.996 -0.2976  0.4664  0.2887
   84MOL0     C11500   6.121   3.007   3.325 -0.1827 -0.7048  0.6527
   84MOL0     C11501   6.125   3.040   3.466 -0.4169  0.1642 -0.6635
   84MOL0     O11502   6.412   2.865   3.719 -0.1729 -0.4077 -0.3042
   84MOL0     C11503   6.322   3.146   3.867  0.0275  0.1937  0.4725
   84MOL0     C11504   6.363   3.223   3.970  0.5300 -0.3314 -0.1510
   84MOL0     N11505   6.177   3.212   4.783  0.8487  0.4352  0.6437
   84MOL0     N11506   6.099   3.210   4.894  0.3749  0.1309  0.3717
   84MOL0     C11507   5.578   4.126   4.846 -0.2050  0.3578  0.4315
   84MOL0     C11508   5.448   4.127   4.811  0.1485 -0.4978 -0.7152
   84MOL0     C11509   5.087   4.237   4.588 -0.1643 -0.2883 -0.6964
   84MOL0     C11510   5.018   4.360   4.600  0.0789  1.0366 -0.1922
   84MOL0     C11511   4.881   4.366   4.569  0.5458  0.1862 -0.6652
   84MOL0     C11512   4.810   4.258   4.529  0.6554  0.1016  0.3238
   84MOL0     O11513   4.671   4.282   4.521  0.2564  0.4461  0.7050
   84MOL0     C11514   4.588   4.184   4.450 -0.0933 -0.3850 -0.5958
   84MOL0     C11515   4.621   4.185   4.300 -0.2454 -0.0973 -0.7069
   84MOL0     C11516   4.499   4.114   4.224 -0.5416 -0.0428  0.0748
   84MOL0     C11517   4.464   4.194   4.098  0.3706 -0.9121  0.0218
   84MOL0     C11518   4.572   4.175   3.994  0.4995  0.4106 -0.5597
   84MOL0     C11519   4.649   4.134   3.913 -0.9894 -0.0305  0.2961
   84MOL0     C11520   4.872   4.135   4.526  0.5976  0.7127  0.7171
   84MOL0     C11521   5.010   4.122   4.542  0.5012  0.2710 -0.0373
   84MOL0     C11522   5.050   3.981   4.509  0.2238 -0.0064  0.0911
   84MOL0     H11523   5.483   4.027   4.490 -3.6812 -0.6892  0.5595
   84MOL0     H11524   5.712   3.987   4.565  0.3652 -1.3565  1.5733
   84MOL0     H11525   5.817   4.136   4.999 -0.3021 -0.0741  0.4323
   84MOL0     H11526   5.883   4.233   4.873  1.3179  0.4385  2.2906
   84MOL0     H11527   6.070   4.080   4.837  1.5076 -0.8576  0.6823
   84MOL0     H11528   6.080   4.133   5.002  5.0990 -1.9531 -1.2935
   84MOL0     H11529   5.970   3.933   5.078  1.6774 -1.7733 -0.3675
   84MOL0     H11530   5.926   3.877   4.909  0.5221  1.0753 -3.3516
   84MOL0     H11531   6.160   3.826   4.868 -1.1268 -0.7982 -0.9645
   84MOL0     H11532   6.213   3.909   5.016  0.3773  1.0192  1.1287
   84MOL0     H11533   6.063   3.738   5.145 -2.6515 -2.2544 -1.3538
   84MOL0     H11534   6.229   3.684   5.077 -0.6454 -0.4874 -1.3498
   84MOL0     H11535   5.956   3.635   4.935 -0.3080 -2.9516 -2.2169
   84MOL0     H11536   6.112   3.579   4.884 -0.1719  2.5815 -0.6040
   84MOL0     H11537   5.998   3.513   5.162  0.1460 -0.4324 -0.0989
   84MOL0     H11538   6.139   3.443   5.071  1.0319  0.2708 -1.0078
   84MOL0     H11539   5.902   3.312   5.066  0.4746  0.1995  0.3155
   84MOL0     H11540   5.864   3.444   4.950  0.8953  0.7427  0.6631
   84MOL0     H11541   5.937   3.435   4.723 -2.1179 -1.8584  0.6090
   84MOL0     H11542   6.112   3.420   4.527  2.7203  0.9849 -0.2372
   84MOL0     H11543   6.129   3.254   4.489 -1.9580  0.3856  1.3930
   84MOL0     H11544   6.337   3.454   4.600  1.0445 -0.2055 -0.5235
   84MOL0     H11545   6.377   3.282   4.593 -2.2392 -0.6527 -1.1612
   84MOL0     H11546   6.291   3.434   4.345  0.2848 -0.1299 -0.2774
   84MOL0     H11547   6.465   3.425   4.390 -0.6249  2.0248  0.1762
   84MOL0     H11548   6.475   3.185   4.366 -0.7130  0.1116 -0.3744
   84MOL0     H11549   6.302   3.179   4.319  0.6947 -0.5954 -1.8539
   84MOL0     H11550   6.451   3.006   4.213  0.7461  0.4912  1.0264
   84MOL0     H11551   6.486   2.770   4.021  0.3245  0.5893 -0.5774
   84MOL0     H11552   6.325   2.751   3.948  1.8923  0.3937 -1.6880
   84MOL0     H11553   6.343   2.774   4.123  0.8913  1.5949  0.6703
   84MOL0     H11554   6.252   2.744   3.576 -0.8900  0.0491  1.7189
   84MOL0     H11555   6.228   2.677   3.332  0.2888 -0.6515  2.2626
   84MOL0     H11556   6.183   2.669   3.058 -1.5717  0.2137 -4.8573
   84MOL0     H11557   6.034   2.695   3.159  0.3637  1.7048  3.1806
   84MOL0     H11558   6.120   2.779   2.879 -0.2089 -0.7998  0.7263
   84MOL0     H11559   5.993   2.667   2.910 -1.0533  0.9553 -1.2786
   84MOL0     H11560   5.906   2.883   3.050  1.0248 -0.7209  0.2898
   84MOL0     H11561   5.858   2.854   2.877 -0.5731  0.0458  0.7032
   84MOL0     H11562   6.074   2.970   2.814 -0.1394 -0.0809 -0.1716
   84MOL0     H11563   6.068   3.046   2.975 -1.8224  4.0367 -0.3612
   84MOL0     H11564   5.881   3.091   2.734 -1.2468  3.5827 -0.0741
   84MOL0     H11565   5.822   3.106   2.894  0.2803  0.4055  1.4334
   84MOL0     H11566   6.060   3.253   2.790  1.0189  2.8832  1.9010
   84MOL0     H11567   6.009   3.246   2.958  2.3781 -1.3607 -0.5409
   84MOL0     H11568   5.811   3.352   2.917  3.0004 -0.1384  1.7217
   84MOL0     H11569   5.806   3.344   2.742  2.0142 -0.6263 -1.5296
   84MOL0     H11570   5.870   3.580   2.817 -1.7674 -1.1203 -0.8953
   84MOL0     H11571   6.001   3.504   2.747  1.0271  1.8721  2.1132
   84MOL0     H11572   6.103   3.081   3.247  1.9134  0.1622  0.9122
   84MOL0     H11573   6.101   3.135   3.511  1.5349 -0.1032  1.0852
   84MOL0     H11574   6.289   3.193   3.775 -2.8083  0.8601  1.7379
   84MOL0     H11575   6.363   3.329   3.945 -4.2194 -0.2195 -0.7093
   84MOL0     H11576   5.598   4.160   4.947 -1.2343 -1.1479  1.1803
   84MOL0     H11577   5.376   4.159   4.886  3.0403  0.4352  1.8885
   84MOL0     H11578   5.068   4.452   4.629 -3.2028  3.3633 -1.3479
   84MOL0     H11579   4.831   4.462   4.562  0.9981  0.4420 -0.4933
   84MOL0     H11580   4.584   4.084   4.494  2.8625 -0.7318 -0.9501
   84MOL0     H11581   4.490   4.233   4.459  0.8843  2.2402 -2.8096
   84MOL0     H11582   4.707   4.123   4.273  1.5673  2.1783 -0.4249
   84MOL0     H11583   4.649   4.286   4.269  0.3831 -0.5192 -1.5392
   84MOL0     H11584   4.533   4.013   4.200 -3.3709 -0.8274 -1.1203
   84MOL0     H11585   4.406   4.108   4.282 -0.6107  0.7402  0.0616
   84MOL0     H11586   4.446   4.300   4.119 -1.7967 -0.6873 -2.3876
   84MOL0     H11587   4.368   4.163   4.054  0.0805 -2.6758  1.7614
   84MOL0     H11588   4.717   4.081   3.849 -0.4528 -1.5426  2.0494
   84MOL0     H11589   4.812   4.045   4.522 -0.1847  1.1494  1.9657
   84MOL0     H11590   4.972   3.929   4.453  0.4880 -0.5363  0.2068
   84MOL0     H11591   5.129   3.991   4.434 -3.4249  0.9452 -4.0703
   84MOL0     H11592   5.076   3.925   4.600  0.4504  0.4623  0.3209
   85MOL0     O11593   6.088   0.116   7.668  0.0754  0.0031  0.5541
   85MOL0     C11594   6.026   0.055   7.580  0.3142 -0.9957 -1.0708
   85MOL0     O11595   6.076  -0.042   7.499 -0.6572  0.4478 -0.8758
   85MOL0     C11596   6.210  -0.047   7.462 -0.9988  0.1527 -0.8239
   85MOL0     C11597   6.316  -0.059   7.564  0.1170 -0.2201 -0.1267
   85MOL0     C11598   6.446  -0.095   7.519 -0.5151 -0.7971 -0.1753
   85MOL0     C11599   6.466  -0.114   7.392 -0.4165  0.1940  0.6635
   85MOL0     O11600   6.596  -0.135   7.352  0.4176  1.1909  0.1830
   85MOL0     C11601   6.696  -0.046   7.396 -0.0541 -0.4101  0.6747
   85MOL0     C11602   6.832  -0.079   7.335 -0.5668 -0.9504 -0.7748
   85MOL0     C11603   6.846  -0.007   7.193 -0.1007  0.3859 -0.6488
   85MOL0     C11604   6.982  -0.039   7.123 -0.2850 -0.5264 -0.3139
   85MOL0     C11605   7.084   0.084   7.121  0.5352  0.2068  0.6207
   85MOL0     C11606   7.202   0.057   7.023  0.2064 -0.7309  0.4297
   85MOL0     C11607   7.298  -0.064   7.055 -0.4035  0.0597  0.9899
   85MOL0     C11608   7.333  -0.139   6.916 -0.1764  0.6806  0.9086
   85MOL0     N11609   7.230  -0.217   6.843 -0.5110 -0.8228 -0.9159
   85MOL0     C11610   7.134  -0.300   6.907 -0.3009  0.2172 -0.7929
   85MOL0     C11611   7.060  -0.347   6.798 -0.9121 -0.2058 -0.1464
   85MOL0     C11612   6.943  -0.447   6.791  0.0586  0.5005  0.2591
   85MOL0     C11613   6.848  -0.423   6.907 -0.6891 -0.0229 -0.9477
   85MOL0     C11614   6.766  -0.299   6.896  0.4869 -0.2321  0.4747
   85MOL0     C11615   6.625  -0.332   6.948 -0.0510  0.7641  0.3057
   85MOL0     O11616   6.624  -0.368   7.085 -0.5006  0.2883 -0.1615
   85MOL0     C11617   6.504  -0.393   7.146  0.4957 -0.5231 -0.2151
   85MOL0     C11618   6.385  -0.395   7.070  0.1871 -0.0634 -0.4307
   85MOL0     C11619   6.257  -0.410   7.124  0.2776 -0.1882  0.0104
   85MOL0     C11620   6.139  -0.392   7.025 -0.7630  0.0361 -1.4267
   85MOL0     C11621   6.246  -0.424   7.268  0.2211 -0.2410  0.0525
   85MOL0     C11622   6.125  -0.444   7.344 -0.1416 -0.3691 -0.2693
   85MOL0     O11623   6.148  -0.486   7.485  0.2414 -0.5567 -0.2173
   85MOL0     C11624   6.033  -0.510   7.566 -0.7833 -0.2210  0.2463
   85MOL0     C11625   5.957  -0.398   7.597 -0.2609  0.5103 -0.5149
   85MOL0     C11626   5.860  -0.412   7.699 -0.0330  1.2834 -0.8214
   85MOL0     C11627   5.846  -0.538   7.763  1.1155 -0.4077  0.4440
   85MOL0     O11628   5.756  -0.518   7.863 -0.4471 -0.0445 -0.3906
   85MOL0     C11629   5.718  -0.630   7.946  0.2764 -0.5812 -0.1625
   85MOL0     C11630   5.598  -0.603   8.037 -0.3677  0.3491 -0.7924
   85MOL0     C11631   5.638  -0.520   8.157  0.6102 -0.3257  0.9559
   85MOL0     C11632   5.510  -0.465   8.226 -0.6275  0.1382 -0.8823
   85MOL0     C11633   5.560  -0.404   8.361 -0.4427 -0.7598 -0.2872
   85MOL0     C11634   5.641  -0.268   8.342 -1.0625 -0.8598 -0.2826
   85MOL0     C11635   5.685  -0.216   8.479 -0.3480 -0.6254  0.1339
   85MOL0     C11636   5.764  -0.091   8.464 -0.4879 -0.3844 -0.4512
   85MOL0    Cl11637   5.651   0.032   8.403 -0.0960 -0.0696 -0.3139
   85MOL0     C11638   5.916  -0.650   7.726  0.5122 -0.3244  0.5100
   85MOL0     C11639   6.013  -0.636   7.626 -0.3332 -0.2033 -0.0426
   85MOL0     O11640   6.017  -0.419   7.299 -0.0444 -0.2272 -0.8214
   85MOL0     C11641   6.371  -0.429   7.341 -0.5797  0.2155  0.1303
   85MOL0     C11642   6.494  -0.422   7.283  0.5060  0.2924  0.5658
   85MOL0     N11643   7.122  -0.311   6.679 -0.6488  0.0737  0.6209
   85MOL0     N11644   7.223  -0.230   6.713  0.8178  0.0713  0.0928
   85MOL0     C11645   6.377  -0.092   7.289 -0.0470 -0.3956 -0.3773
   85MOL0     C11646   6.246  -0.067   7.330  0.3065  0.1351  0.0393
   85MOL0     C11647   5.882   0.094   7.563  0.1269  0.5680 -0.1118
   85MOL0     C11648   5.832   0.194   7.653  0.9621 -0.2501  0.6070
   85MOL0     C11649   5.704   0.243   7.633 -0.0150  0.2805  0.9824
   85MOL0     C11650   5.625   0.201   7.524 -0.3183  0.1649 -0.1601
   85MOL0     O11651   5.499   0.261   7.492  0.2141 -0.1075  0.5652
   85MOL0     C11652   5.462   0.388   7.557 -0.1753  0.5183  1.0507
   85MOL0     C11653   5.348   0.465   7.491  0.3035  0.1540  0.1965
   85MOL0     C11654   5.349   0.488   7.340 -0.6539  0.0959 -0.5304
   85MOL0     C11655   5.292   0.624   7.309 -0.0510 -0.1309 -0.3631
   85MOL0     C11656   5.241   0.625   7.172 -1.0284 -0.7969 -0.0786
   85MOL0     C11657   5.203   0.625   7.056  0.5611  0.3958 -0.5004
   85MOL0     C11658   5.664   0.090   7.449  0.1037 -0.2017  0.5763
   85MOL0     C11659   5.789   0.037   7.465 -0.6597  0.5107 -0.7680
   85MOL0     C11660   5.818  -0.083   7.375 -0.7426 -0.6434  0.1425
   85MOL0     H11661   6.287  -0.047   7.668 -0.0152  5.1297 -0.5182
   85MOL0     H11662   6.521  -0.130   7.588  0.6604  1.6378 -0.1290
   85MOL0     H11663   6.712  -0.042   7.504  0.1149 -1.6759  0.7148
   85MOL0     H11664   6.671   0.055   7.363  0.7746  0.5353  2.7787
   85MOL0     H11665   6.912  -0.049   7.404  0.1244 -0.1062 -1.9179
   85MOL0     H11666   6.839  -0.188   7.339  1.4338 -0.8207  1.1355
   85MOL0     H11667   6.762  -0.049   7.138  0.7296 -1.5740 -0.4939
   85MOL0     H11668   6.835   0.102   7.200 -1.3261  0.1758  3.4666
   85MOL0     H11669   7.038  -0.128   7.153  1.4491  1.1432  1.6855
   85MOL0     H11670   6.960  -0.060   7.018 -1.4350 -0.4046 -0.1054
   85MOL0     H11671   7.122   0.101   7.222  2.4821 -1.2359  0.1926
   85MOL0     H11672   7.020   0.166   7.087 -0.8740  0.4512  3.5331
   85MOL0     H11673   7.160   0.040   6.923 -1.8950 -2.2071  1.4930
   85MOL0     H11674   7.251   0.154   7.010 -1.8217  0.1270 -1.4127
   85MOL0     H11675   7.261  -0.140   7.125  1.7154  1.1866  3.5271
   85MOL0     H11676   7.380  -0.029   7.119  0.8638  1.9870 -1.4897
   85MOL0     H11677   7.376  -0.065   6.848  2.9316 -1.2609  0.5834
   85MOL0     H11678   7.409  -0.215   6.934 -0.3675 -0.0370 -1.0506
   85MOL0     H11679   7.114  -0.317   7.012 -3.4402 -2.3962 -1.6454
   85MOL0     H11680   6.979  -0.550   6.800 -2.2605 -0.5042 -1.0427
   85MOL0     H11681   6.893  -0.451   6.694  2.4649  4.2858 -1.3556
   85MOL0     H11682   6.777  -0.507   6.909 -1.8627  0.9531  0.0027
   85MOL0     H11683   6.905  -0.429   7.000 -2.8562 -0.1143  0.4335
   85MOL0     H11684   6.812  -0.229   6.967  0.7475 -1.1538  1.2451
   85MOL0     H11685   6.765  -0.271   6.791 -1.2867 -1.5117  0.1046
   85MOL0     H11686   6.558  -0.247   6.930 -1.4508 -0.3743  0.0056
   85MOL0     H11687   6.593  -0.417   6.887  2.2835 -0.5812  0.8394
   85MOL0     H11688   6.380  -0.382   6.963 -0.4333  1.0406 -0.2906
   85MOL0     H11689   6.065  -0.323   7.067  0.8956  0.3451  1.2011
   85MOL0     H11690   6.092  -0.485   6.993  0.6306 -0.7101 -1.3702
   85MOL0     H11691   6.176  -0.354   6.929 -0.0220  3.2275  0.0005
   85MOL0     H11692   5.972  -0.300   7.553 -0.7406  0.7623 -0.1270
   85MOL0     H11693   5.803  -0.327   7.733 -0.0931  0.4707  1.2594
   85MOL0     H11694   5.693  -0.721   7.891 -2.7050 -1.0380  1.7379
   85MOL0     H11695   5.802  -0.633   8.016  0.0618  0.6805  0.1721
   85MOL0     H11696   5.515  -0.563   7.977 -0.5356  1.0248 -0.1224
   85MOL0     H11697   5.565  -0.704   8.062 -0.8115  0.2732 -1.6357
   85MOL0     H11698   5.697  -0.438   8.115  1.2778 -1.1368  0.2674
   85MOL0     H11699   5.696  -0.584   8.224 -0.2946 -1.2361  0.8930
   85MOL0     H11700   5.443  -0.549   8.247 -1.0058  0.7643  0.5504
   85MOL0     H11701   5.460  -0.392   8.162  2.0685 -0.3310 -3.7292
   85MOL0     H11702   5.470  -0.388   8.421  0.0458 -3.5559  1.3165
   85MOL0     H11703   5.622  -0.465   8.427 -0.4700  0.6002  1.0511
   85MOL0     H11704   5.576  -0.193   8.295 -1.6073  0.1057  1.8783
   85MOL0     H11705   5.733  -0.287   8.286  0.2384  0.2123  1.4112
   85MOL0     H11706   5.756  -0.283   8.529  0.8381  0.4979 -0.0052
   85MOL0     H11707   5.597  -0.187   8.537 -0.1763  4.7697 -1.7065
   85MOL0     H11708   5.850  -0.101   8.397  0.0688 -5.0983  0.6524
   85MOL0     H11709   5.804  -0.054   8.558 -3.0009  3.4454 -0.6676
   85MOL0     H11710   5.897  -0.747   7.769 -1.5792  0.3795  1.3067
   85MOL0     H11711   6.073  -0.721   7.594 -0.3629  0.1437 -1.0710
   85MOL0     H11712   6.371  -0.419   7.449 -1.6854  4.8221 -0.1031
   85MOL0     H11713   6.585  -0.440   7.341  0.4569  4.0526  2.1113
   85MOL0     H11714   6.408  -0.092   7.185  0.2545  1.9984 -0.3369
   85MOL0     H11715   6.167  -0.058   7.256  0.3332  2.6294  0.2386
   85MOL0     H11716   5.891   0.233   7.735 -1.4349  1.4688  1.6469
   85MOL0     H11717   5.664   0.328   7.686 -1.0860  0.6059 -0.3043
   85MOL0     H11718   5.435   0.368   7.661  0.5129  0.7941  1.2850
   85MOL0     H11719   5.553   0.449   7.550 -0.3629  0.9138  1.9397
   85MOL0     H11720   5.312   0.554   7.544 -0.8370 -0.0370 -0.2356
   85MOL0     H11721   5.261   0.406   7.520  0.5682 -0.9084 -1.0873
   85MOL0     H11722   5.447   0.488   7.292 -1.0303  0.1365 -1.3257
   85MOL0     H11723   5.292   0.406   7.296 -0.2075 -1.4186  1.6005
   85MOL0     H11724   5.363   0.707   7.320  0.9068 -0.8490 -0.9940
   85MOL0     H11725   5.210   0.652   7.377  2.6142  1.0274  2.6129
   85MOL0     H11726   5.160   0.620   6.958  0.9378 -0.6255 -0.6227
   85MOL0     H11727   5.591   0.043   7.384 -2.1377  0.2435  2.6153
   85MOL0     H11728   5.856  -0.173   7.423 -0.7505 -0.1389  1.1217
   85MOL0     H11729   5.733  -0.095   7.307 -0.1249  0.9344 -0.9800
   85MOL0     H11730   5.904  -0.054   7.314 -0.2033  2.4617  2.1115
   86MOL0     O11731   8.654   6.252   8.547  0.3978 -0.4845 -0.5728
   86MOL0     C11732   8.550   6.198   8.514  0.3350 -0.1784 -0.5981
   86MOL0     O11733   8.535   6.067   8.511 -0.4902 -0.3503 -0.2859
   86MOL0     C11734   8.632   5.974   8.556 -0.0260  0.4975 -0.7155
   86MOL0     C11735   8.630   5.852   8.501 -0.0124 -0.2572 -0.5141
   86MOL0     C11736   8.699   5.729   8.550  0.0057 -0.1001 -0.1083
   86MOL0     C11737   8.778   5.744   8.662 -0.4159  0.5611 -1.0742
   86MOL0     O11738   8.852   5.640   8.703  0.3977  0.6383  0.1057
   86MOL0     C11739   8.936   5.644   8.810 -1.0064  0.3974 -1.2361
   86MOL0     C11740   9.017   5.519   8.799  0.4471  0.5154 -1.0888
   86MOL0     C11741   8.931   5.393   8.776  0.1913  0.3331  1.0432
   86MOL0     C11742   9.010   5.265   8.808 -0.3051 -0.6430  0.2288
   86MOL0     C11743   8.908   5.152   8.839  0.1865  0.3028 -0.5044
   86MOL0     C11744   8.972   5.018   8.895  0.5374 -0.8170 -0.0870
   86MOL0     C11745   8.866   4.915   8.914 -0.2014  0.5078  0.1865
   86MOL0     C11746   8.755   4.941   9.019  0.1056 -0.3902 -0.2656
   86MOL0     N11747   8.813   4.937   9.156  0.9579 -1.2180  0.7826
   86MOL0     C11748   8.783   5.034   9.246  0.5178 -0.1206  0.0054
   86MOL0     C11749   8.845   4.989   9.353  0.8888  0.1649  0.9986
   86MOL0     C11750   8.862   5.073   9.477 -0.4258  0.1310 -0.6856
   86MOL0     C11751   8.727   5.097   9.551 -0.1817  0.1716 -1.4830
   86MOL0     C11752   8.729   5.156   9.692 -0.4813 -1.1092  0.2006
   86MOL0     C11753   8.828   5.273   9.715 -0.0322 -0.1703 -0.0387
   86MOL0     O11754   8.809   5.382   9.624  0.1092 -0.5265 -0.3561
   86MOL0     C11755   8.894   5.487   9.640  0.4713 -0.4141  0.7097
   86MOL0     C11756   8.985   5.505   9.737 -0.0149 -0.8618 -0.2510
   86MOL0     C11757   9.057   5.628   9.753  0.3700  0.3572  0.4714
   86MOL0     C11758   9.149   5.635   9.875  1.0121  0.2192 -0.0637
   86MOL0     C11759   9.054   5.725   9.647 -0.1605  0.0254 -0.1497
   86MOL0     C11760   9.153   5.829   9.634 -1.1069  0.0729  0.1959
   86MOL0     O11761   9.280   5.811   9.671  0.0026 -0.5759 -0.4231
   86MOL0     C11762   9.358   5.908   9.720 -0.8941  0.9062  1.0624
   86MOL0     C11763   9.303   6.000   9.816  0.3482 -0.0904  0.3361
   86MOL0     C11764   9.385   6.101   9.874 -0.2927  0.7132 -0.1876
   86MOL0     C11765   9.523   6.080   9.858 -0.4667 -0.6734  0.9078
   86MOL0     O11766   9.613   6.144   9.937 -0.5712  0.1396  0.0332
   86MOL0     C11767   9.579   6.219  10.052  0.7213  0.3320 -0.1861
   86MOL0     C11768   9.691   6.279  10.138 -0.0262  0.2114  0.5125
   86MOL0     C11769   9.746   6.403  10.090  0.4881  0.0453 -0.2416
   86MOL0     C11770   9.834   6.490  10.180  0.0897 -0.0539 -0.3860
   86MOL0     C11771   9.873   6.612  10.104  0.5654  0.4764  0.1757
   86MOL0     C11772   9.953   6.719  10.183 -0.0161  0.5903 -0.0307
   86MOL0     C11773   9.888   6.792  10.305  0.1670 -0.0562  0.3657
   86MOL0     C11774   9.925   6.720  10.432  0.0939  0.3318 -0.1647
   86MOL0    Cl11775   9.859   6.820  10.552  0.0020 -0.0990  0.3904
   86MOL0     C11776   9.574   5.987   9.764  0.6471 -0.8367 -0.0288
   86MOL0     C11777   9.493   5.909   9.683 -0.1003  0.0491  0.0509
   86MOL0     O11778   9.111   5.935   9.591  0.7566  0.4145 -0.5299
   86MOL0     C11779   8.960   5.703   9.546  0.2582 -1.2679  0.7625
   86MOL0     C11780   8.878   5.586   9.543  0.5338 -0.1879 -0.4089
   86MOL0     N11781   8.910   4.870   9.332  0.1152 -0.3280 -0.0220
   86MOL0     N11782   8.890   4.840   9.205 -0.0390  0.4639  0.3915
   86MOL0     C11783   8.776   5.863   8.727  0.5952 -0.2292  0.9618
   86MOL0     C11784   8.715   5.978   8.670  1.9443  0.6695  0.2413
   86MOL0     C11785   8.440   6.284   8.457  0.1679  1.0714  1.1743
   86MOL0     C11786   8.375   6.222   8.348 -0.0452 -0.4971 -0.9766
   86MOL0     C11787   8.285   6.299   8.265 -0.2116 -0.2294 -0.1179
   86MOL0     C11788   8.246   6.426   8.311 -0.9802  0.6829 -0.5027
   86MOL0     O11789   8.151   6.496   8.245 -0.2481 -0.8181 -0.2086
   86MOL0     C11790   8.120   6.461   8.107 -0.0875 -0.9954  0.0931
   86MOL0     C11791   8.026   6.559   8.048  0.3978 -0.0263  0.8292
   86MOL0     C11792   8.079   6.710   8.051  0.4011  0.3945  0.5010
   86MOL0     C11793   8.019   6.799   8.158 -1.6135 -0.0626 -0.8714
   86MOL0     C11794   8.119   6.817   8.270  0.9444  0.0891 -0.2809
   86MOL0     C11795   8.182   6.822   8.373  0.0911  0.5958 -0.2373
   86MOL0     C11796   8.313   6.484   8.420  0.4421 -1.2161 -0.3626
   86MOL0     C11797   8.404   6.410   8.495 -0.1786 -0.3131 -0.4136
   86MOL0     C11798   8.467   6.475   8.617  0.3574  0.0735 -0.5350
   86MOL0     H11799   8.566   5.833   8.415  1.1110 -4.5968 -0.6435
   86MOL0     H11800   8.677   5.628   8.519  1.1461 -0.0115 -1.2439
   86MOL0     H11801   8.867   5.644   8.895 -2.2462  0.2907 -2.2189
   86MOL0     H11802   9.001   5.733   8.808 -3.5556  2.4537  0.5544
   86MOL0     H11803   9.085   5.549   8.718 -1.9010  4.7905 -1.8202
   86MOL0     H11804   9.072   5.502   8.891  0.0958 -4.1665 -1.5201
   86MOL0     H11805   8.844   5.394   8.843  0.9273  0.6655  2.0111
   86MOL0     H11806   8.899   5.389   8.671  1.0487 -0.9152  0.8068
   86MOL0     H11807   9.071   5.249   8.719  0.4048  1.0445  0.3703
   86MOL0     H11808   9.070   5.286   8.897  2.4615 -1.7027 -1.2831
   86MOL0     H11809   8.861   5.124   8.744  1.2072 -0.1566 -0.8784
   86MOL0     H11810   8.833   5.189   8.911  0.0141  0.1568 -0.6080
   86MOL0     H11811   9.051   4.987   8.825 -0.9597 -1.1841 -1.7091
   86MOL0     H11812   9.021   5.046   8.988  1.2111 -0.0693 -0.6521
   86MOL0     H11813   8.909   4.816   8.928 -0.0709  0.3148 -1.3770
   86MOL0     H11814   8.809   4.905   8.821  1.0875 -0.6098 -0.5083
   86MOL0     H11815   8.706   5.035   8.989 -0.9620 -1.2302 -1.2531
   86MOL0     H11816   8.681   4.861   9.022  1.7020 -1.9608 -1.0274
   86MOL0     H11817   8.734   5.128   9.221 -1.0812 -0.6855  0.8633
   86MOL0     H11818   8.903   5.174   9.463 -1.0326  0.6579  0.9956
   86MOL0     H11819   8.922   5.018   9.550 -1.1015  1.8816  1.2952
   86MOL0     H11820   8.666   5.167   9.493 -0.6154  0.7048 -0.4049
   86MOL0     H11821   8.668   5.005   9.548  2.4988 -1.9566  2.4587
   86MOL0     H11822   8.631   5.193   9.723 -0.7105 -0.7722 -0.8778
   86MOL0     H11823   8.747   5.069   9.756 -0.2437  0.6111  2.6132
   86MOL0     H11824   8.809   5.306   9.817  0.6963 -0.6047  0.2464
   86MOL0     H11825   8.930   5.234   9.704  0.9737  2.3888 -0.5090
   86MOL0     H11826   8.991   5.442   9.825  0.6631  2.4164  2.2198
   86MOL0     H11827   9.133   5.556   9.949  3.3035  0.8262  1.1973
   86MOL0     H11828   9.151   5.733   9.924 -0.0233  0.7230 -0.9880
   86MOL0     H11829   9.254   5.614   9.848  1.1588 -1.8508  1.8322
   86MOL0     H11830   9.196   6.000   9.835 -0.9110 -0.6222 -4.9995
   86MOL0     H11831   9.344   6.168   9.948  2.2579 -0.9891  2.9973
   86MOL0     H11832   9.520   6.305  10.018  0.1616 -0.0580 -0.2189
   86MOL0     H11833   9.516   6.162  10.122  1.5746 -0.6034 -0.1590
   86MOL0     H11834   9.655   6.293  10.241 -1.6819  1.4610 -0.1768
   86MOL0     H11835   9.770   6.206  10.122  1.6344  1.9636  0.2916
   86MOL0     H11836   9.666   6.462  10.045  0.5128  0.0713 -0.2503
   86MOL0     H11837   9.821   6.380  10.014 -0.1482  0.4552 -0.9987
   86MOL0     H11838   9.919   6.427  10.207  0.5549 -2.0066 -5.3068
   86MOL0     H11839   9.768   6.521  10.261 -1.6976 -1.1570 -1.3492
   86MOL0     H11840   9.952   6.582  10.035  0.0277  2.7806 -1.5511
   86MOL0     H11841   9.783   6.650  10.055  0.4076 -1.2828 -0.9982
   86MOL0     H11842   9.987   6.798  10.115  1.7990  1.4058  1.7293
   86MOL0     H11843  10.049   6.674  10.207 -0.8293 -0.2150  1.8847
   86MOL0     H11844   9.779   6.799  10.292  0.3356 -0.4789 -1.5856
   86MOL0     H11845   9.915   6.897  10.315  1.0902 -0.4027  1.8576
   86MOL0     H11846  10.034   6.716  10.437  0.1029 -2.5460 -1.0009
   86MOL0     H11847   9.881   6.619  10.428 -1.0462  0.8544 -1.9044
   86MOL0     H11848   9.681   5.967   9.758  0.3203 -3.0145  0.7006
   86MOL0     H11849   9.541   5.831   9.625  1.9271  0.6217  0.8443
   86MOL0     H11850   8.951   5.774   9.464 -0.1535 -0.7936  1.2106
   86MOL0     H11851   8.804   5.564   9.467  1.9942 -0.1508 -1.8793
   86MOL0     H11852   8.814   5.870   8.829  0.7236  1.0605  0.8415
   86MOL0     H11853   8.732   6.070   8.725  0.7388  2.0116 -1.5412
   86MOL0     H11854   8.415   6.130   8.304  7.0398  0.3948  2.1751
   86MOL0     H11855   8.238   6.244   8.184  0.6797 -0.6888 -0.3470
   86MOL0     H11856   8.203   6.451   8.036  0.7997 -1.3015  1.1342
   86MOL0     H11857   8.063   6.368   8.113 -0.0296 -1.0118  0.4395
   86MOL0     H11858   7.928   6.543   8.094 -0.3264 -0.9361 -0.8957
   86MOL0     H11859   8.005   6.527   7.945  2.6925 -1.9688  0.8821
   86MOL0     H11860   8.187   6.711   8.066  0.2031 -0.9743  2.4269
   86MOL0     H11861   8.050   6.763   7.960  3.1940  0.7953 -0.2478
   86MOL0     H11862   7.921   6.765   8.195 -2.0201  0.7617 -1.1801
   86MOL0     H11863   7.997   6.898   8.118  1.3826  0.6756 -0.9537
   86MOL0     H11864   8.251   6.835   8.454  1.3251  1.7766 -1.4137
   86MOL0     H11865   8.286   6.585   8.449  0.2291 -1.0164 -1.2199
   86MOL0     H11866   8.456   6.406   8.701 -0.8833  0.9503  0.0502
   86MOL0     H11867   8.570   6.501   8.591  0.0146 -0.3701 -2.5006
   86MOL0     H11868   8.405   6.561   8.644 -1.2664 -0.2788 -2.8723
   87MOL0     O11869   5.113   4.029   3.380 -0.1100  0.1748 -0.2025
   87MOL0     C11870   5.121   3.911   3.405  0.4650 -0.4814  0.1022
   87MOL0     O11871   5.072   3.856   3.522 -0.2521 -0.4480  0.1339
   87MOL0     C11872   5.050   3.929   3.638 -0.1540 -0.3006 -0.5975
   87MOL0     C11873   4.973   3.856   3.736  0.5143  0.5267  1.1750
   87MOL0     C11874   4.956   3.913   3.859 -0.3103  0.9314  0.2372
   87MOL0     C11875   5.008   4.041   3.887  0.4291 -0.2185 -0.5419
   87MOL0     O11876   4.981   4.088   4.015 -0.1118 -0.1925  0.1057
   87MOL0     C11877   5.022   4.224   4.049  0.1591  0.4200  0.0856
   87MOL0     C11878   4.971   4.268   4.181 -0.1629  0.2258 -0.2509
   87MOL0     C11879   5.006   4.417   4.221 -0.1813  1.3935  0.6621
   87MOL0     C11880   5.151   4.454   4.237  0.0771  0.5030 -0.2417
   87MOL0     C11881   5.170   4.610   4.251 -0.0938 -0.2267 -0.7544
   87MOL0     C11882   5.138   4.649   4.389 -0.1443  0.5175 -0.5788
   87MOL0     C11883   5.154   4.804   4.410 -0.0169  0.3017  0.5974
   87MOL0     C11884   5.043   4.893   4.353 -0.2448  0.2203 -0.3611
   87MOL0     N11885   4.902   4.855   4.367  0.4648  1.1488 -0.9014
   87MOL0     C11886   4.838   4.777   4.277  0.6203 -0.0746 -0.0617
   87MOL0     C11887   4.731   4.730   4.344 -0.0500 -0.4419 -0.4555
   87MOL0     C11888   4.619   4.639   4.290 -0.6330  0.5532 -0.4993
   87MOL0     C11889   4.480   4.717   4.264 -0.2724  0.6412  0.4414
   87MOL0     C11890   4.510   4.820   4.151  0.5440  0.2816 -0.4821
   87MOL0     C11891   4.407   4.930   4.132 -0.6158 -0.8491  0.3093
   87MOL0     O11892   4.293   4.891   4.061 -0.5754  0.0174  0.0291
   87MOL0     C11893   4.298   4.843   3.927 -0.6144  1.0505 -0.7608
   87MOL0     C11894   4.296   4.928   3.815  0.0318 -0.2835 -0.6035
   87MOL0     C11895   4.307   4.871   3.691 -0.1957  0.1366  0.1133
   87MOL0     C11896   4.298   4.963   3.581  0.0636 -0.3688  0.2152
   87MOL0     C11897   4.328   4.730   3.682  0.6510  0.2973  0.9457
   87MOL0     C11898   4.356   4.658   3.552 -0.7997  0.9784 -0.0150
   87MOL0     O11899   4.441   4.726   3.466 -0.0575  1.2537 -0.1832
   87MOL0     C11900   4.479   4.648   3.361  0.5307 -0.8379  0.3076
   87MOL0     C11901   4.602   4.588   3.346 -0.7312 -0.0727 -0.0317
   87MOL0     C11902   4.645   4.511   3.227 -0.0705  0.3114  0.6265
   87MOL0     C11903   4.550   4.494   3.126  0.6124  0.7021  0.4005
   87MOL0     O11904   4.580   4.415   3.017  0.0110 -0.9739 -0.4301
   87MOL0     C11905   4.666   4.471   2.916 -0.0397 -0.2879  0.3284
   87MOL0     C11906   4.683   4.360   2.807 -0.0113  0.7951 -0.3316
   87MOL0     C11907   4.611   4.389   2.675 -0.0999  0.4003 -0.3900
   87MOL0     C11908   4.702   4.457   2.566  0.5480  0.0795 -0.0831
   87MOL0     C11909   4.619   4.468   2.437  0.0782  0.5964  0.3743
   87MOL0     C11910   4.669   4.554   2.324 -0.5322  0.9711  0.2277
   87MOL0     C11911   4.755   4.682   2.352  0.1303  0.1175  0.1902
   87MOL0     C11912   4.852   4.725   2.240  0.9280 -1.2400  0.0652
   87MOL0    Cl11913   4.959   4.580   2.208 -0.0421  0.2936 -0.3505
   87MOL0     C11914   4.424   4.553   3.143  0.0086 -0.2112  0.0389
   87MOL0     C11915   4.394   4.635   3.252  0.3452 -0.4155  0.1319
   87MOL0     O11916   4.308   4.543   3.537  0.3952  0.6270 -0.0094
   87MOL0     C11917   4.336   4.647   3.797 -0.7302  0.2360 -0.8766
   87MOL0     C11918   4.319   4.702   3.920 -0.4970 -0.0048 -0.8717
   87MOL0     N11919   4.735   4.778   4.481  0.4531  0.6995 -0.5139
   87MOL0     N11920   4.840   4.848   4.491 -0.6521 -0.2271  0.1465
   87MOL0     C11921   5.064   4.121   3.783 -0.1738 -0.1900 -0.2159
   87MOL0     C11922   5.085   4.059   3.664 -0.3656 -0.4701 -0.5222
   87MOL0     C11923   5.166   3.803   3.302 -1.1030 -0.1587 -1.1928
   87MOL0     C11924   5.118   3.673   3.305  0.2679 -0.5412  0.4082
   87MOL0     C11925   5.177   3.569   3.233 -1.0431 -0.4937  0.2061
   87MOL0     C11926   5.280   3.606   3.149  0.2017  0.9883  0.0248
   87MOL0     O11927   5.331   3.506   3.063 -0.3925  0.5303 -0.7893
   87MOL0     C11928   5.436   3.536   2.978 -0.2634 -0.9764 -1.0020
   87MOL0     C11929   5.582   3.553   3.044  0.2532  0.2285 -0.0583
   87MOL0     C11930   5.635   3.421   3.111 -0.1091 -0.5974 -0.2200
   87MOL0     C11931   5.546   3.358   3.214 -0.6589  0.5037  1.2274
   87MOL0     C11932   5.508   3.441   3.326  0.1244 -0.7196 -0.1230
   87MOL0     C11933   5.500   3.510   3.429  0.0385 -0.3101  0.0689
   87MOL0     C11934   5.327   3.738   3.133 -0.0928  0.0572  0.4903
   87MOL0     C11935   5.267   3.840   3.208  0.5012 -0.1431  0.2623
   87MOL0     C11936   5.322   3.980   3.192  0.0120 -0.6634  0.0627
   87MOL0     H11937   4.930   3.761   3.708  1.4763  0.8562 -1.7714
   87MOL0     H11938   4.885   3.854   3.917 -2.0528  3.0588  0.3866
   87MOL0     H11939   4.978   4.297   3.980  2.9942  3.8956  1.6498
   87MOL0     H11940   5.130   4.239   4.044  0.1564  0.6569  0.6882
   87MOL0     H11941   4.862   4.263   4.167  0.1370 -2.4994 -2.6290
   87MOL0     H11942   4.990   4.204   4.268 -1.6910 -0.0323 -0.0651
   87MOL0     H11943   4.959   4.478   4.143 -2.6835  0.0814  1.0189
   87MOL0     H11944   4.958   4.437   4.318  1.2099  0.4755  1.5700
   87MOL0     H11945   5.192   4.414   4.330 -2.6218  1.8462  1.6428
   87MOL0     H11946   5.213   4.408   4.159  1.6110 -0.2758  1.3856
   87MOL0     H11947   5.100   4.654   4.179 -0.2357 -1.6054 -1.5029
   87MOL0     H11948   5.276   4.627   4.229  0.9509 -2.7153  1.7409
   87MOL0     H11949   5.039   4.609   4.414 -0.6686  1.9661 -0.2457
   87MOL0     H11950   5.210   4.603   4.456  0.1474  1.6152 -0.1105
   87MOL0     H11951   5.245   4.840   4.359  0.6475 -0.9982  0.8232
   87MOL0     H11952   5.173   4.821   4.516  0.5502 -2.8105  1.0724
   87MOL0     H11953   5.053   4.988   4.407  2.7248  0.6362 -1.4648
   87MOL0     H11954   5.069   4.903   4.247  1.6792  0.0261  0.0562
   87MOL0     H11955   4.878   4.746   4.181 -0.2725 -1.7039  0.0547
   87MOL0     H11956   4.616   4.549   4.352  3.3759 -1.4377 -2.7627
   87MOL0     H11957   4.663   4.607   4.195 -1.1140 -1.1029 -0.2001
   87MOL0     H11958   4.403   4.651   4.223  0.3092  0.2613 -0.0606
   87MOL0     H11959   4.441   4.758   4.358 -0.0875 -1.8502  1.6951
   87MOL0     H11960   4.599   4.873   4.187  0.4851  0.1877 -0.1932
   87MOL0     H11961   4.526   4.764   4.059 -1.0278  1.6259 -1.6359
   87MOL0     H11962   4.378   4.984   4.222  1.7394  0.6739  0.2327
   87MOL0     H11963   4.458   5.003   4.069  1.0430 -1.3243  1.0379
   87MOL0     H11964   4.280   5.034   3.834 -2.5532 -0.7782  0.3847
   87MOL0     H11965   4.389   5.021   3.565 -1.1823  1.3923 -0.8741
   87MOL0     H11966   4.215   5.035   3.585  3.4013  4.4650 -3.9101
   87MOL0     H11967   4.280   4.917   3.484  4.8817 -0.7800 -0.7096
   87MOL0     H11968   4.679   4.614   3.419 -0.1707  2.1438 -1.3372
   87MOL0     H11969   4.745   4.469   3.223 -0.4130 -0.5508  0.9882
   87MOL0     H11970   4.633   4.568   2.877  5.2760  1.3948 -0.8805
   87MOL0     H11971   4.762   4.490   2.966 -1.2117  1.6913  1.9917
   87MOL0     H11972   4.791   4.353   2.788 -0.2009 -0.3549 -1.0334
   87MOL0     H11973   4.654   4.266   2.855  0.2925  1.2745  0.8507
   87MOL0     H11974   4.518   4.444   2.690  1.2367  2.6272  0.2569
   87MOL0     H11975   4.583   4.290   2.638 -1.2426  0.8651 -0.8198
   87MOL0     H11976   4.794   4.400   2.550 -0.4986 -2.1449  1.2289
   87MOL0     H11977   4.732   4.554   2.606 -1.1935  0.2436  0.9351
   87MOL0     H11978   4.596   4.365   2.408  3.4061  0.5597 -2.8954
   87MOL0     H11979   4.534   4.525   2.476 -0.1892 -0.5249  1.4969
   87MOL0     H11980   4.573   4.577   2.278 -0.5130  2.0864  0.7125
   87MOL0     H11981   4.724   4.496   2.249 -0.6166 -1.0775  1.6577
   87MOL0     H11982   4.813   4.657   2.441 -0.0336 -2.7877 -0.4176
   87MOL0     H11983   4.687   4.767   2.366 -2.4129 -1.5601 -1.1828
   87MOL0     H11984   4.915   4.810   2.267  0.0818 -0.2172 -1.0592
   87MOL0     H11985   4.798   4.765   2.154  1.7523  1.4314  0.7068
   87MOL0     H11986   4.354   4.533   3.063  2.7708 -2.4228 -2.0447
   87MOL0     H11987   4.300   4.688   3.257  1.5714  1.7389  3.2815
   87MOL0     H11988   4.357   4.544   3.770 -2.1580 -0.0429 -0.9951
   87MOL0     H11989   4.325   4.649   4.015  0.3868 -1.2215 -1.5737
   87MOL0     H11990   5.076   4.228   3.795 -0.7544  0.1896 -2.4952
   87MOL0     H11991   5.148   4.122   3.601 -0.6061 -1.4091 -1.7377
   87MOL0     H11992   5.030   3.662   3.368 -0.3135 -0.0063 -0.2990
   87MOL0     H11993   5.139   3.468   3.222  0.8458 -1.4602  2.0161
   87MOL0     H11994   5.446   3.466   2.895 -0.9015 -1.9442 -0.2795
   87MOL0     H11995   5.417   3.631   2.927 -3.0388  1.4199  3.7884
   87MOL0     H11996   5.593   3.626   3.125 -0.3694 -1.0279  1.2062
   87MOL0     H11997   5.640   3.580   2.955 -0.0842 -1.2460 -0.7514
   87MOL0     H11998   5.657   3.342   3.039  2.5007 -0.4204  0.2838
   87MOL0     H11999   5.722   3.451   3.170 -0.2913 -0.5661  0.0365
   87MOL0     H12000   5.609   3.274   3.245 -2.0117 -0.8263  0.5270
   87MOL0     H12001   5.462   3.309   3.164  0.0791  1.4439 -1.0608
   87MOL0     H12002   5.484   3.578   3.511 -2.6857  0.0722 -0.6785
   87MOL0     H12003   5.412   3.763   3.071  0.0183  0.3489  0.7589
   87MOL0     H12004   5.399   3.983   3.115  2.2139 -3.9653  1.8676
   87MOL0     H12005   5.238   4.046   3.169  1.1429  1.9786  2.9209
   87MOL0     H12006   5.366   4.007   3.288  0.2128  1.3966 -0.5661
   88MOL0     O12007   0.238   9.690   4.107 -0.1334  0.3445 -0.0028
   88MOL0     C12008   0.330   9.751   4.165 -0.2595  0.1416  0.1672
   88MOL0     O12009   0.404   9.689   4.276  0.0917 -0.2968 -0.3671
   88MOL0     C12010   0.404   9.556   4.299 -0.5162 -0.5360  1.2249
   88MOL0     C12011   0.463   9.530   4.424  0.2647 -0.0096  0.1994
   88MOL0     C12012   0.476   9.399   4.465  0.7943  0.4163 -1.7705
   88MOL0     C12013   0.408   9.299   4.390 -0.1775  0.7701  0.1889
   88MOL0     O12014   0.423   9.172   4.447 -0.2321 -0.0890  0.4376
   88MOL0     C12015   0.374   9.059   4.383 -1.2814 -1.2052 -1.1771
   88MOL0     C12016   0.374   8.944   4.479  0.3303  0.4176  0.4452
   88MOL0     C12017   0.358   8.818   4.388 -0.0591  1.0123 -0.6850
   88MOL0     C12018   0.205   8.781   4.367  0.4606  0.3608 -0.9153
   88MOL0     C12019   0.183   8.677   4.270  0.0738 -0.1398  0.6219
   88MOL0     C12020   0.173   8.738   4.129 -0.7761  0.0286 -1.0528
   88MOL0     C12021   0.188   8.620   4.027  0.1576 -0.2603 -0.3207
   88MOL0     C12022   0.250   8.675   3.893  0.7527 -0.9272  0.0556
   88MOL0     N12023   0.309   8.574   3.811 -0.4079 -1.6300  0.0129
   88MOL0     C12024   0.369   8.462   3.852 -0.6929 -0.1384 -0.3912
   88MOL0     C12025   0.429   8.408   3.741 -0.3721  0.1378 -0.0371
   88MOL0     C12026   0.514   8.286   3.720 -0.0392 -0.3046 -0.1094
   88MOL0     C12027   0.419   8.180   3.676  0.1114  0.0298  0.7191
   88MOL0     C12028   0.500   8.079   3.598  0.0574 -0.6501  0.0428
   88MOL0     C12029   0.426   7.974   3.542 -0.8514 -0.5233  0.3700
   88MOL0     O12030   0.504   7.922   3.441  0.6328  0.4409  0.0175
   88MOL0     C12031   0.488   7.782   3.403 -0.1203 -0.4677 -0.0959
   88MOL0     C12032   0.576   7.744   3.299 -0.7978  0.2661 -0.2123
   88MOL0     C12033   0.564   7.612   3.249 -0.8985  0.9440  0.3219
   88MOL0     C12034   0.680   7.565   3.161  0.4235  0.0576  0.2739
   88MOL0     C12035   0.457   7.522   3.287  0.6418 -0.5260  0.3337
   88MOL0     C12036   0.450   7.383   3.233  0.6336 -0.1892  0.4660
   88MOL0     O12037   0.398   7.302   3.328  0.3798  0.3871  0.0077
   88MOL0     C12038   0.382   7.167   3.297 -0.3684  0.2249 -0.5665
   88MOL0     C12039   0.267   7.117   3.246 -0.8452 -0.0769  0.4109
   88MOL0     C12040   0.258   6.976   3.223  0.1490 -0.3164  0.5624
   88MOL0     C12041   0.358   6.885   3.240 -0.5439 -0.3089  0.5300
   88MOL0     O12042   0.326   6.755   3.216  1.2477  0.1222  0.2450
   88MOL0     C12043   0.415   6.652   3.260  0.3516 -0.4522 -0.6901
   88MOL0     C12044   0.331   6.518   3.264  0.8707  0.0079 -0.0456
   88MOL0     C12045   0.303   6.452   3.131  0.0806  0.0305  0.4187
   88MOL0     C12046   0.247   6.314   3.161  0.5411  0.1345  0.5395
   88MOL0     C12047   0.246   6.220   3.036  0.4680 -0.2332  0.0368
   88MOL0     C12048   0.381   6.169   2.973  0.3672  0.0275 -0.5978
   88MOL0     C12049   0.440   6.061   3.068  1.0853 -0.3450 -0.0640
   88MOL0     C12050   0.566   5.989   3.017 -0.0319  0.6909 -0.8027
   88MOL0    Cl12051   0.580   5.845   3.104  0.2516 -0.4621 -0.0852
   88MOL0     C12052   0.481   6.942   3.283 -0.8181 -0.2913  1.1305
   88MOL0     C12053   0.487   7.081   3.313 -0.7528 -0.6703  0.6925
   88MOL0     O12054   0.478   7.351   3.120 -0.3173 -0.3870  0.0509
   88MOL0     C12055   0.376   7.572   3.391  0.6387  0.1260  0.7993
   88MOL0     C12056   0.392   7.687   3.448 -0.3242  0.2514  0.7203
   88MOL0     N12057   0.399   8.491   3.629 -0.5943 -0.2303  0.5149
   88MOL0     N12058   0.324   8.585   3.673  0.9927 -0.8564  0.0799
   88MOL0     C12059   0.355   9.326   4.257  0.1307  0.0293 -0.2861
   88MOL0     C12060   0.360   9.461   4.212 -0.4841 -0.4522  0.5685
   88MOL0     C12061   0.362   9.897   4.129  0.0889 -0.1791 -0.3352
   88MOL0     C12062   0.381   9.982   4.240 -0.7231  0.1159 -0.2428
   88MOL0     C12063   0.402  10.111   4.220  0.4479  0.5795 -0.3952
   88MOL0     C12064   0.418  10.169   4.093 -0.3693 -0.5198 -0.2127
   88MOL0     O12065   0.456  10.302   4.059  0.4404 -0.7828  0.3146
   88MOL0     C12066   0.448  10.405   4.159 -0.2191  0.4905  0.2453
   88MOL0     C12067   0.300  10.470   4.168  0.4694 -1.3230 -0.1338
   88MOL0     C12068   0.311  10.593   4.264  0.9851 -0.3557  0.3843
   88MOL0     C12069   0.375  10.566   4.409  0.1083 -0.1546  1.0157
   88MOL0     C12070   0.285  10.466   4.470 -0.1855  0.6678  0.4879
   88MOL0     C12071   0.208  10.384   4.510 -0.8211 -0.8577 -0.0451
   88MOL0     C12072   0.399  10.082   3.983 -0.7250 -0.2811  0.2609
   88MOL0     C12073   0.369   9.947   3.998 -0.6039  0.0651 -0.0307
   88MOL0     C12074   0.347   9.864   3.873 -0.4462 -0.2916  0.1413
   88MOL0     H12075   0.504   9.614   4.479 -1.9968  0.2325  1.6436
   88MOL0     H12076   0.509   9.373   4.565  1.1824  2.1580 -1.4113
   88MOL0     H12077   0.449   9.044   4.305  0.3828 -0.5103  0.2266
   88MOL0     H12078   0.275   9.068   4.337 -0.7510 -1.4369 -2.3987
   88MOL0     H12079   0.473   8.939   4.526  0.8196 -1.4334 -0.6652
   88MOL0     H12080   0.293   8.953   4.552 -0.2521 -0.8892 -0.0037
   88MOL0     H12081   0.409   8.817   4.291  2.0799 -1.4956  0.3339
   88MOL0     H12082   0.399   8.735   4.445 -0.0424  1.7239  0.3657
   88MOL0     H12083   0.162   8.746   4.461 -0.8278 -0.9408 -1.9423
   88MOL0     H12084   0.149   8.871   4.341  3.3417  2.3521 -0.7125
   88MOL0     H12085   0.090   8.622   4.286  0.1861 -0.7209 -0.5949
   88MOL0     H12086   0.266   8.606   4.277  0.3838  0.3658  2.5094
   88MOL0     H12087   0.078   8.789   4.110 -0.7262 -0.8841 -4.3991
   88MOL0     H12088   0.246   8.818   4.115 -1.8579  0.6482 -3.8151
   88MOL0     H12089   0.083   8.593   4.009 -0.3608  1.7402 -0.4652
   88MOL0     H12090   0.242   8.534   4.069 -0.8790 -0.8213 -0.0793
   88MOL0     H12091   0.182   8.730   3.829  2.6669 -1.3608 -2.5302
   88MOL0     H12092   0.337   8.734   3.922 -0.2689 -0.5887  2.7258
   88MOL0     H12093   0.393   8.425   3.951  2.9864  0.8463 -0.7397
   88MOL0     H12094   0.569   8.253   3.809 -1.7963 -1.9039  0.4555
   88MOL0     H12095   0.574   8.308   3.632 -5.0951 -1.9509 -4.4505
   88MOL0     H12096   0.359   8.144   3.759  1.4952  1.2859  2.3325
   88MOL0     H12097   0.339   8.205   3.606 -0.4789 -2.1592  0.5177
   88MOL0     H12098   0.541   8.144   3.520  1.1708  2.3137  2.9276
   88MOL0     H12099   0.577   8.044   3.667  1.2258  1.4318 -0.1439
   88MOL0     H12100   0.414   7.891   3.612 -1.1219 -1.4267 -0.7156
   88MOL0     H12101   0.323   7.996   3.512 -0.4184  0.1706 -0.6703
   88MOL0     H12102   0.660   7.810   3.279 -3.0765  3.4640 -0.0486
   88MOL0     H12103   0.742   7.655   3.158 -0.4110  0.6364 -2.5864
   88MOL0     H12104   0.635   7.540   3.065  0.1831  1.1293  0.0914
   88MOL0     H12105   0.736   7.486   3.212  0.6956 -0.3825 -0.6896
   88MOL0     H12106   0.178   7.178   3.250 -0.2292  0.9052 -0.2829
   88MOL0     H12107   0.165   6.928   3.195  0.8057 -0.9160 -0.6939
   88MOL0     H12108   0.491   6.643   3.182  0.8763 -2.5794 -0.0123
   88MOL0     H12109   0.457   6.670   3.359 -1.9711  1.1864  0.0835
   88MOL0     H12110   0.392   6.445   3.316  2.7768  2.4303  1.3309
   88MOL0     H12111   0.237   6.542   3.316  0.6678  0.0081 -0.4089
   88MOL0     H12112   0.397   6.450   3.077  0.1251 -5.3112  0.1970
   88MOL0     H12113   0.236   6.510   3.067  0.7116  0.6189  0.2849
   88MOL0     H12114   0.149   6.333   3.206 -0.1927 -0.0223 -0.9405
   88MOL0     H12115   0.308   6.259   3.232  0.8005 -0.7729 -0.3668
   88MOL0     H12116   0.190   6.132   3.070  0.2488  0.0083  0.3027
   88MOL0     H12117   0.184   6.273   2.962  2.0251  0.2892 -0.9586
   88MOL0     H12118   0.452   6.251   2.966 -2.4481  2.7291  0.2831
   88MOL0     H12119   0.370   6.119   2.876  1.0321 -1.4433  0.0577
   88MOL0     H12120   0.366   5.987   3.098 -1.1349  1.9534  0.4883
   88MOL0     H12121   0.471   6.112   3.160 -0.2877 -0.1337  0.3094
   88MOL0     H12122   0.652   6.055   3.034 -1.0089  1.6535  0.6464
   88MOL0     H12123   0.561   5.959   2.912  2.0673 -0.1545 -0.7022
   88MOL0     H12124   0.566   6.875   3.281 -0.8792 -0.3733 -0.3539
   88MOL0     H12125   0.582   7.123   3.343 -0.3584  0.0078 -1.3566
   88MOL0     H12126   0.286   7.518   3.418  0.1830 -0.2695 -1.3306
   88MOL0     H12127   0.315   7.730   3.510 -2.6619  0.6481 -2.2070
   88MOL0     H12128   0.316   9.253   4.187  0.4359  0.4080 -0.8670
   88MOL0     H12129   0.332   9.482   4.110  1.6489  1.3679  0.2772
   88MOL0     H12130   0.363   9.936   4.337  2.5723 -0.1813  0.3377
   88MOL0     H12131   0.421  10.167   4.311 -2.1347 -0.3006  0.7714
   88MOL0     H12132   0.484  10.357   4.250  2.8584 -0.2001 -1.1937
   88MOL0     H12133   0.512  10.491   4.136 -2.4430  1.5752 -2.4769
   88MOL0     H12134   0.223  10.396   4.194 -1.8085  0.4893 -1.3322
   88MOL0     H12135   0.262  10.512   4.074  2.1444  2.2162  0.6037
   88MOL0     H12136   0.371  10.667   4.210 -1.3341  1.2436 -0.1912
   88MOL0     H12137   0.208  10.631   4.271  0.6164 -0.5044 -2.8976
   88MOL0     H12138   0.389  10.656   4.469 -2.0494  1.4356 -0.7223
   88MOL0     H12139   0.477  10.525   4.401  0.3588  0.8314 -1.7062
   88MOL0     H12140   0.136  10.323   4.561 -3.8260  3.0803  0.8888
   88MOL0     H12141   0.412  10.125   3.885  0.4237 -2.5900 -0.6891
   88MOL0     H12142   0.240   9.841   3.866  0.1607 -2.9931 -1.7012
   88MOL0     H12143   0.374   9.919   3.782 -1.1315  1.2520  0.8243
   88MOL0     H12144   0.412   9.776   3.877 -2.7134 -2.1005 -0.3002
   89MOL0     O12145   4.448   8.003   8.762  0.5315 -0.3822 -0.2860
   89MOL0     C12146   4.566   7.976   8.770 -0.0030  0.6288 -0.1426
   89MOL0     O12147   4.660   8.046   8.840  0.5406  0.7633 -0.5840
   89MOL0     C12148   4.622   8.158   8.909  0.1221 -1.1200 -0.2861
   89MOL0     C12149   4.571   8.276   8.844  0.5847  0.8753 -0.6483
   89MOL0     C12150   4.528   8.384   8.914  0.2601  0.1412 -0.5622
   89MOL0     C12151   4.518   8.384   9.045 -0.5497 -0.7098 -0.1646
   89MOL0     O12152   4.485   8.490   9.118  0.0515 -0.7300 -0.2750
   89MOL0     C12153   4.434   8.614   9.066  0.6288  0.2541 -0.3316
   89MOL0     C12154   4.383   8.709   9.174 -0.5502 -0.4823  0.2261
   89MOL0     C12155   4.392   8.856   9.133 -0.1617 -0.6219 -0.7313
   89MOL0     C12156   4.297   8.889   9.019  0.3973  0.4612 -0.1400
   89MOL0     C12157   4.243   9.034   9.015 -0.4871  0.6325 -0.5543
   89MOL0     C12158   4.134   9.049   8.915  0.7865 -0.0096 -0.1716
   89MOL0     C12159   4.141   9.186   8.855  0.2231 -0.5092 -0.0909
   89MOL0     C12160   4.108   9.300   8.948 -0.3650 -0.1191  0.3987
   89MOL0     N12161   4.074   9.424   8.877 -0.0203  0.3892 -0.0516
   89MOL0     C12162   4.159   9.494   8.798  0.5493 -0.8126  0.5718
   89MOL0     C12163   4.110   9.620   8.793 -0.6802  0.3038  0.5304
   89MOL0     C12164   4.154   9.744   8.709 -0.0242  0.0893  0.3209
   89MOL0     C12165   4.269   9.806   8.793 -0.4321  0.1893  0.3238
   89MOL0     C12166   4.334   9.919   8.711 -0.0236 -0.8565  0.7948
   89MOL0     C12167   4.456   9.985   8.770 -1.2675  0.3609  0.8340
   89MOL0     O12168   4.427  10.084   8.873  0.8321 -0.5150 -0.5904
   89MOL0     C12169   4.531  10.166   8.925  0.3985 -0.1599  0.0601
   89MOL0     C12170   4.500  10.241   9.039  0.1386  0.3085  0.2888
   89MOL0     C12171   4.592  10.329   9.103 -0.2555  0.4215  0.0026
   89MOL0     C12172   4.535  10.416   9.217 -0.4857  0.6962  0.5808
   89MOL0     C12173   4.724  10.337   9.065  0.5371  0.6182 -0.4780
   89MOL0     C12174   4.829  10.401   9.146 -0.2544 -1.1298 -0.2077
   89MOL0     O12175   4.955  10.404   9.083 -0.0371 -0.1622  0.0733
   89MOL0     C12176   5.059  10.441   9.170  0.0193  0.6448  0.5691
   89MOL0     C12177   5.089  10.347   9.272 -0.7818 -0.1339 -0.5022
   89MOL0     C12178   5.185  10.373   9.371  0.4953  0.2430 -0.1315
   89MOL0     C12179   5.245  10.502   9.378  0.0721 -0.0581  0.3609
   89MOL0     O12180   5.330  10.517   9.485 -0.5015 -0.3096 -0.3755
   89MOL0     C12181   5.341  10.652   9.540 -0.9589  0.6013 -0.5549
   89MOL0     C12182   5.319  10.653   9.690  0.8561  0.2292 -0.1685
   89MOL0     C12183   5.218  10.555   9.738 -0.2007 -0.3124  0.2610
   89MOL0     C12184   5.084  10.591   9.685  1.5667  0.4383 -0.3565
   89MOL0     C12185   4.985  10.473   9.708 -0.7145  1.0775 -0.1354
   89MOL0     C12186   4.839  10.523   9.715 -0.6678  0.2443 -0.1190
   89MOL0     C12187   4.757  10.412   9.786 -0.4408  0.0958 -1.2825
   89MOL0     C12188   4.617  10.384   9.740  0.3651 -0.7585 -0.6491
   89MOL0    Cl12189   4.537  10.526   9.810 -0.2416  0.0572  0.1546
   89MOL0     C12190   5.216  10.590   9.271 -0.7902  0.0685 -0.2647
   89MOL0     C12191   5.122  10.564   9.176  0.5687 -0.0526 -0.4264
   89MOL0     O12192   4.801  10.452   9.255 -0.6024 -0.7663  0.0062
   89MOL0     C12193   4.755  10.274   8.946  1.0045 -0.4992 -0.1234
   89MOL0     C12194   4.660  10.198   8.880  0.6088  0.9462  0.1675
   89MOL0     N12195   4.002   9.625   8.879 -0.4931  0.6431  0.7741
   89MOL0     N12196   3.984   9.510   8.925 -0.1328  0.4145 -0.3422
   89MOL0     C12197   4.565   8.276   9.112 -0.5693 -0.8063 -0.5487
   89MOL0     C12198   4.616   8.170   9.049  0.7887  0.1174  0.8203
   89MOL0     C12199   4.604   7.840   8.716 -0.2159  0.3180  0.7741
   89MOL0     C12200   4.741   7.796   8.733  0.0053  0.3256 -0.6940
   89MOL0     C12201   4.795   7.676   8.689  0.7239 -0.9226 -0.7751
   89MOL0     C12202   4.704   7.592   8.628  0.1154 -1.2277  0.0638
   89MOL0     O12203   4.763   7.470   8.606  0.0105  0.3297  0.0555
   89MOL0     C12204   4.778   7.422   8.472  0.9346  0.3126 -0.0400
   89MOL0     C12205   4.815   7.272   8.484 -0.0368 -0.5585  0.0398
   89MOL0     C12206   4.702   7.176   8.505  0.7422  0.1773 -0.5071
   89MOL0     C12207   4.602   7.150   8.389 -0.3519 -0.4508  0.0540
   89MOL0     C12208   4.660   7.084   8.273  0.5927  0.0776  1.0571
   89MOL0     C12209   4.705   7.021   8.173 -0.2255  0.7203  0.1843
   89MOL0     C12210   4.570   7.623   8.612  0.0502  0.3330  0.5554
   89MOL0     C12211   4.516   7.748   8.657 -0.3090  0.2489 -0.3617
   89MOL0     C12212   4.367   7.761   8.635  0.2100 -0.5892  0.0278
   89MOL0     H12213   4.552   8.257   8.739 -1.6564 -3.3716  0.2811
   89MOL0     H12214   4.492   8.469   8.856  0.8964 -0.4462 -1.8698
   89MOL0     H12215   4.347   8.602   8.999  1.2212  0.3902 -1.1449
   89MOL0     H12216   4.521   8.651   9.011  0.9426 -0.3061 -0.2194
   89MOL0     H12217   4.284   8.671   9.202 -0.4767  1.2254  3.3015
   89MOL0     H12218   4.442   8.705   9.266 -0.9004 -1.7362  0.4187
   89MOL0     H12219   4.369   8.919   9.220 -1.0472 -0.6418 -0.9497
   89MOL0     H12220   4.492   8.896   9.110 -0.6131  0.3334 -1.1044
   89MOL0     H12221   4.350   8.867   8.926 -1.1836 -4.0174 -0.2200
   89MOL0     H12222   4.208   8.826   9.024  0.7016 -0.0424 -0.9021
   89MOL0     H12223   4.328   9.094   8.981 -0.5769  1.8932  1.3147
   89MOL0     H12224   4.218   9.067   9.116  1.1200 -0.2016  0.1628
   89MOL0     H12225   4.118   8.969   8.843 -0.1952 -0.6953  0.7773
   89MOL0     H12226   4.041   9.054   8.972 -0.1151 -1.3082 -1.4582
   89MOL0     H12227   4.068   9.187   8.774  0.0178 -1.8612  0.0620
   89MOL0     H12228   4.244   9.208   8.826  0.7111 -0.2130  1.7350
   89MOL0     H12229   4.029   9.279   9.021 -2.3740  0.3493 -1.5305
   89MOL0     H12230   4.203   9.318   8.999  0.4174  0.0600 -1.0881
   89MOL0     H12231   4.238   9.461   8.732  0.6374  1.6065 -0.6558
   89MOL0     H12232   4.073   9.818   8.702 -1.0023 -0.9601  0.1672
   89MOL0     H12233   4.172   9.724   8.603 -2.2360  0.6092 -0.2040
   89MOL0     H12234   4.239   9.842   8.892  0.8296 -0.7008  1.0549
   89MOL0     H12235   4.339   9.724   8.811  0.0377  0.4771 -0.1584
   89MOL0     H12236   4.368   9.887   8.613  0.1254  2.2316 -0.2695
   89MOL0     H12237   4.271  10.004   8.682  3.7497  1.7295 -0.6039
   89MOL0     H12238   4.532   9.910   8.791 -0.2770  1.6391  1.9638
   89MOL0     H12239   4.510  10.032   8.687  0.6675 -0.7407  1.4030
   89MOL0     H12240   4.398  10.241   9.077  0.6504  1.6701  1.7852
   89MOL0     H12241   4.583  10.513   9.231 -1.3980  1.0989  0.9954
   89MOL0     H12242   4.546  10.357   9.309 -0.0863 -1.6299 -0.8556
   89MOL0     H12243   4.428  10.433   9.205 -0.6747 -1.8408 -3.8095
   89MOL0     H12244   5.049  10.246   9.273  0.9461 -0.8407 -0.1073
   89MOL0     H12245   5.201  10.298   9.448 -1.0725 -1.4950 -1.3941
   89MOL0     H12246   5.446  10.681   9.533 -0.9403  1.2000  1.4622
   89MOL0     H12247   5.289  10.728   9.482 -1.2615  2.0698  1.5448
   89MOL0     H12248   5.408  10.638   9.752  0.5863  0.5952  0.3153
   89MOL0     H12249   5.291  10.751   9.730  2.4987  1.1635 -1.2177
   89MOL0     H12250   5.225  10.546   9.847 -3.5642 -2.3035  0.4617
   89MOL0     H12251   5.240  10.457   9.695  0.6183  0.5397 -1.3445
   89MOL0     H12252   5.080  10.598   9.576  1.5422  0.6892 -0.3388
   89MOL0     H12253   5.052  10.689   9.722 -0.6792  0.5707 -2.3672
   89MOL0     H12254   5.001  10.404   9.625  1.1873 -0.8998  1.7441
   89MOL0     H12255   5.026  10.418   9.793  0.6574  0.2510 -1.2969
   89MOL0     H12256   4.804  10.549   9.615  3.9893  3.8564 -1.1301
   89MOL0     H12257   4.844  10.617   9.771  2.0965 -0.7990  1.5738
   89MOL0     H12258   4.759  10.433   9.893  3.1538  0.7578 -1.3356
   89MOL0     H12259   4.819  10.322   9.777  1.8949  0.9270  3.3249
   89MOL0     H12260   4.569  10.305   9.798 -1.8742  1.4202  0.6748
   89MOL0     H12261   4.603  10.378   9.631 -0.4943 -1.1202 -0.5270
   89MOL0     H12262   5.259  10.689   9.278  2.0228 -1.0167 -0.8547
   89MOL0     H12263   5.101  10.637   9.098 -3.2003 -1.7993 -1.2692
   89MOL0     H12264   4.857  10.277   8.910  1.6322  1.6670  1.6247
   89MOL0     H12265   4.699  10.151   8.791 -0.1064 -2.3103  1.4450
   89MOL0     H12266   4.570   8.264   9.220  0.9699 -0.9350 -0.6084
   89MOL0     H12267   4.658   8.080   9.091  1.2817 -1.4128 -2.5680
   89MOL0     H12268   4.805   7.859   8.794 -1.5880  1.9923 -0.6570
   89MOL0     H12269   4.896   7.638   8.700  0.8170 -0.3403  0.4532
   89MOL0     H12270   4.681   7.426   8.420  0.1367  0.7074  1.4251
   89MOL0     H12271   4.849   7.477   8.409  1.0535 -1.9751 -2.0717
   89MOL0     H12272   4.891   7.251   8.560 -2.5388 -1.7890  2.3567
   89MOL0     H12273   4.866   7.243   8.392 -0.7086  1.3408 -0.9819
   89MOL0     H12274   4.762   7.087   8.527  2.6027  1.3912 -0.4805
   89MOL0     H12275   4.638   7.190   8.593  0.5666 -0.3071 -0.5502
   89MOL0     H12276   4.553   7.241   8.354  0.8332 -0.5911 -2.2273
   89MOL0     H12277   4.529   7.076   8.422  1.3055 -3.6634 -2.7398
   89MOL0     H12278   4.757   6.993   8.084 -0.1367  1.5112 -0.0261
   89MOL0     H12279   4.500   7.551   8.569  0.1809 -1.8358  3.6377
   89MOL0     H12280   4.317   7.737   8.729  1.0153 -1.0533  0.3521
   89MOL0     H12281   4.338   7.864   8.611  1.8567  0.3807  1.9136
   89MOL0     H12282   4.333   7.690   8.560  1.3350  0.4059 -1.5052
   90MOL0     O12283   9.837   3.678  11.246  0.5196  0.8514 -0.2289
   90MOL0     C12284   9.935   3.682  11.182  0.0305  0.4274  0.4279
   90MOL0     O12285   9.945   3.724  11.046 -0.1181  0.2156 -0.1666
   90MOL0     C12286   9.823   3.776  11.003  0.2887  0.1163 -1.0671
   90MOL0     C12287   9.770   3.893  11.040  0.0245 -0.3588  0.2493
   90MOL0     C12288   9.648   3.930  10.988  0.3759 -0.2594 -0.1967
   90MOL0     C12289   9.585   3.859  10.895 -0.3542 -0.5883 -0.6553
   90MOL0     O12290   9.471   3.922  10.834  0.1256  0.3434 -0.8937
   90MOL0     C12291   9.383   3.839  10.758  0.7498 -0.1364  0.1724
   90MOL0     C12292   9.299   3.931  10.668  0.1150 -0.0344  0.1898
   90MOL0     C12293   9.229   4.051  10.725  0.1870  0.6936 -0.1933
   90MOL0     C12294   9.118   4.016  10.827 -0.3888 -0.3647  0.1180
   90MOL0     C12295   9.078   4.129  10.924 -0.3179  0.2343  0.2724
   90MOL0     C12296   9.195   4.186  11.001 -0.9115  0.1084 -0.4139
   90MOL0     C12297   9.143   4.272  11.121 -0.6949 -0.9595 -0.3991
   90MOL0     C12298   9.062   4.400  11.083  0.4524  0.5699  0.8589
   90MOL0     N12299   9.141   4.521  11.057  0.0940 -0.6888 -0.1189
   90MOL0     C12300   9.205   4.589  11.158 -0.8907 -0.0462  0.2189
   90MOL0     C12301   9.225   4.711  11.106  0.0801  0.8419 -0.3406
   90MOL0     C12302   9.287   4.834  11.167  0.0581 -0.6417 -0.0701
   90MOL0     C12303   9.425   4.851  11.101 -0.4778 -0.0945  0.2441
   90MOL0     C12304   9.497   4.977  11.167  0.8533  0.6142  0.5873
   90MOL0     C12305   9.652   4.972  11.127  0.5319 -0.9912 -0.7585
   90MOL0     O12306   9.739   5.084  11.166  0.2298  0.0824 -0.1583
   90MOL0     C12307   9.769   5.102  11.301 -0.0373  0.3948 -0.2460
   90MOL0     C12308   9.731   5.018  11.413  0.7111  1.3787 -0.8188
   90MOL0     C12309   9.771   5.059  11.543  0.8042 -0.1469  0.3635
   90MOL0     C12310   9.732   4.973  11.659  0.4656  0.3458  0.8181
   90MOL0     C12311   9.837   5.169  11.568  0.1416  0.1678 -0.4808
   90MOL0     C12312   9.881   5.213  11.699  0.3239  0.0594  0.1282
   90MOL0     O12313   9.782   5.268  11.776  0.5082  0.1323  0.6076
   90MOL0     C12314   9.803   5.322  11.901  0.2589  0.1921 -0.2517
   90MOL0     C12315   9.736   5.435  11.935  0.4564  0.4772 -0.1566
   90MOL0     C12316   9.731   5.481  12.065 -0.8393  0.1730 -0.3666
   90MOL0     C12317   9.800   5.407  12.164  0.4861 -1.1226 -0.2979
   90MOL0     O12318   9.794   5.447  12.295  0.2971  0.1363 -0.7446
   90MOL0     C12319   9.691   5.538  12.341  0.2733 -0.2114  0.4725
   90MOL0     C12320   9.687   5.537  12.497  0.2054 -0.2470 -0.1637
   90MOL0     C12321   9.664   5.399  12.557 -0.0757 -0.2922 -0.0109
   90MOL0     C12322   9.682   5.394  12.703 -0.1962  0.4930 -0.3835
   90MOL0     C12323   9.551   5.393  12.781 -0.0951  0.0394  0.8817
   90MOL0     C12324   9.581   5.413  12.934 -0.4857  0.8507  0.0936
   90MOL0     C12325   9.584   5.566  12.962 -0.3990  0.1257 -0.6438
   90MOL0     C12326   9.439   5.614  13.013 -0.4146  0.1835  0.1538
   90MOL0    Cl12327   9.453   5.771  13.094  0.0086 -0.7169 -0.2185
   90MOL0     C12328   9.863   5.292  12.145  0.4149 -0.1998  0.8096
   90MOL0     C12329   9.870   5.258  12.008 -1.1143 -0.5401 -0.5469
   90MOL0     O12330   9.993   5.189  11.739 -0.4978 -0.4383  0.1315
   90MOL0     C12331   9.884   5.245  11.460 -0.3584  0.0669  0.7211
   90MOL0     C12332   9.848   5.215  11.323 -0.7483  0.4178 -0.7777
   90MOL0     N12333   9.183   4.711  10.978 -1.8908 -0.4390 -0.5888
   90MOL0     N12334   9.137   4.595  10.953  0.2491  0.1217  0.2183
   90MOL0     C12335   9.631   3.732  10.870  0.3162 -0.9764 -0.5152
   90MOL0     C12336   9.760   3.693  10.915 -0.6095 -0.1148  0.1860
   90MOL0     C12337  10.050   3.623  11.246  0.1401 -0.3685  0.4611
   90MOL0     C12338  10.139   3.703  11.310  0.2550 -0.5558  0.3002
   90MOL0     C12339  10.262   3.641  11.356 -0.2848 -0.8711  0.1710
   90MOL0     C12340  10.278   3.503  11.360  0.2692 -0.3272  0.6052
   90MOL0     O12341  10.396   3.465  11.412 -0.2264 -0.0168  0.2844
   90MOL0     C12342  10.429   3.328  11.414 -0.0048 -0.7849 -0.6034
   90MOL0     C12343  10.568   3.344  11.496  0.3645 -0.2502 -0.7943
   90MOL0     C12344  10.539   3.358  11.651 -0.5727 -0.2137 -0.0938
   90MOL0     C12345  10.645   3.290  11.728  0.3547  0.3055 -0.3730
   90MOL0     C12346  10.609   3.257  11.869  0.3874 -0.2610  0.7575
   90MOL0     C12347  10.574   3.229  11.983  0.9710 -0.2172  0.2842
   90MOL0     C12348  10.177   3.424  11.307 -0.3533 -0.2033  0.2193
   90MOL0     C12349  10.065   3.484  11.254 -0.1728  0.2980 -0.5280
   90MOL0     C12350   9.959   3.396  11.201 -0.3547  0.3308  0.5896
   90MOL0     H12351   9.823   3.951  11.115 -0.5814  1.8484 -0.9448
   90MOL0     H12352   9.613   4.027  11.021  0.7067  0.4770 -1.9261
   90MOL0     H12353   9.327   3.783  10.834  0.7598  0.2677  0.4860
   90MOL0     H12354   9.432   3.770  10.689  0.7214 -0.6622  0.6713
   90MOL0     H12355   9.373   3.961  10.593 -1.0092  1.7386 -0.2804
   90MOL0     H12356   9.226   3.866  10.620 -1.9770  1.1755  1.5884
   90MOL0     H12357   9.304   4.114  10.775 -0.3473  1.7553 -0.6908
   90MOL0     H12358   9.197   4.118  10.644  1.5114  1.3079 -0.2499
   90MOL0     H12359   9.035   3.976  10.766 -0.6425  2.1202 -1.3079
   90MOL0     H12360   9.156   3.941  10.897  1.5516  0.2719 -0.2133
   90MOL0     H12361   9.004   4.089  10.994  0.7663 -1.3711  0.5575
   90MOL0     H12362   9.018   4.207  10.876  0.6758  0.8164 -0.0397
   90MOL0     H12363   9.267   4.108  11.029  1.9641  2.5240 -0.5708
   90MOL0     H12364   9.263   4.249  10.943 -1.1155 -0.8965 -1.8114
   90MOL0     H12365   9.227   4.301  11.184 -1.8270  0.7554  0.4121
   90MOL0     H12366   9.079   4.208  11.182 -1.5163 -0.5937 -0.8530
   90MOL0     H12367   9.000   4.371  10.998 -1.3596  0.0061  2.2939
   90MOL0     H12368   8.991   4.407  11.166  0.0873  1.5607  0.4812
   90MOL0     H12369   9.217   4.561  11.262 -0.6529 -1.2876 -0.1284
   90MOL0     H12370   9.288   4.837  11.276  0.7454 -0.8358 -0.0610
   90MOL0     H12371   9.224   4.916  11.133 -0.1304 -1.3281 -1.4483
   90MOL0     H12372   9.485   4.760  11.112  0.4098 -0.0880 -3.3803
   90MOL0     H12373   9.406   4.866  10.994 -1.1747 -1.3894  0.1679
   90MOL0     H12374   9.453   5.070  11.128  0.1794 -0.1387 -0.5068
   90MOL0     H12375   9.476   4.974  11.274 -2.2408 -2.0196  0.0939
   90MOL0     H12376   9.695   4.873  11.146 -1.6260 -1.7214  0.7450
   90MOL0     H12377   9.646   4.997  11.021 -2.4406  1.1262 -0.2043
   90MOL0     H12378   9.675   4.925  11.404  1.2196  0.8890  0.7710
   90MOL0     H12379   9.643   5.014  11.706 -2.0741 -1.9382 -1.6670
   90MOL0     H12380   9.824   4.965  11.719  1.8694  1.5393 -1.0572
   90MOL0     H12381   9.698   4.875  11.624  4.1768 -1.1219  0.7897
   90MOL0     H12382   9.694   5.493  11.853  1.9237 -0.2691 -1.4814
   90MOL0     H12383   9.688   5.578  12.082 -0.7314 -0.3623  3.8904
   90MOL0     H12384   9.707   5.642  12.309 -4.3797  0.7984  0.7232
   90MOL0     H12385   9.595   5.511  12.295  0.2571  1.7098 -0.7448
   90MOL0     H12386   9.781   5.573  12.539 -0.2732  2.3226 -1.1092
   90MOL0     H12387   9.605   5.605  12.524 -1.2299  0.0341 -4.3988
   90MOL0     H12388   9.738   5.331  12.512 -2.4771 -1.0493 -3.2095
   90MOL0     H12389   9.560   5.369  12.540 -0.0254 -0.5136  0.0671
   90MOL0     H12390   9.742   5.475  12.745 -0.1857  0.0259  0.5453
   90MOL0     H12391   9.739   5.302  12.715  1.4095  1.4358 -0.5461
   90MOL0     H12392   9.484   5.476  12.755  3.5198  2.8482 -0.3567
   90MOL0     H12393   9.508   5.295  12.760 -0.7806  0.7811 -1.5755
   90MOL0     H12394   9.667   5.350  12.959 -1.6142 -1.0536 -0.5667
   90MOL0     H12395   9.501   5.385  13.002 -0.1364 -2.9143 -0.8103
   90MOL0     H12396   9.626   5.629  12.884  0.2986  0.5905  0.0916
   90MOL0     H12397   9.645   5.577  13.052 -2.2498 -0.2167  0.6988
   90MOL0     H12398   9.390   5.536  13.072 -0.1201 -1.5967 -1.8068
   90MOL0     H12399   9.366   5.625  12.932 -0.2522 -0.2362 -0.0566
   90MOL0     H12400   9.907   5.229  12.221 -1.4190 -4.2851 -1.1732
   90MOL0     H12401   9.937   5.175  11.994 -0.5455 -0.6297  2.0715
   90MOL0     H12402   9.949   5.332  11.472  2.0244 -1.1285 -2.1345
   90MOL0     H12403   9.859   5.284  11.240 -0.7063  1.1916 -0.1536
   90MOL0     H12404   9.594   3.678  10.784  1.8855 -2.5853 -0.2482
   90MOL0     H12405   9.799   3.600  10.875  1.8365  0.3272  1.3656
   90MOL0     H12406  10.134   3.811  11.299  2.8994 -0.3637  0.2078
   90MOL0     H12407  10.345   3.706  11.384  1.3532 -2.9786  0.4175
   90MOL0     H12408  10.359   3.270  11.476 -0.0975 -0.6727 -0.6031
   90MOL0     H12409  10.450   3.289  11.314  0.2807 -1.5172 -0.2702
   90MOL0     H12410  10.625   3.432  11.466  4.5456 -2.1126  0.9015
   90MOL0     H12411  10.627   3.254  11.472  2.2395  0.6534  0.2247
   90MOL0     H12412  10.531   3.460  11.689 -1.7920 -0.7667  1.2617
   90MOL0     H12413  10.449   3.302  11.677  1.2750 -2.0939  2.9461
   90MOL0     H12414  10.738   3.348  11.736  1.0000 -0.8272  0.6567
   90MOL0     H12415  10.663   3.187  11.695  1.9957  0.1006  1.0155
   90MOL0     H12416  10.556   3.204  12.086  4.4042 -1.5687  0.6911
   90MOL0     H12417  10.190   3.317  11.297  3.9503 -0.0887  2.2521
   90MOL0     H12418   9.957   3.395  11.092  2.4823  1.2403  0.4544
   90MOL0     H12419   9.968   3.298  11.249 -2.0458 -0.5858 -0.8578
   90MOL0     H12420   9.858   3.429  11.227 -0.1530  2.4198 -1.0547
   91MOL0     O12421   0.609   4.543   4.596  0.5185 -0.1320  0.6652
   91MOL0     C12422   0.519   4.613   4.553 -0.5030  0.7382 -0.5911
   91MOL0     O12423   0.527   4.752   4.542  0.1362  0.3073 -0.5289
   91MOL0     C12424   0.652   4.810   4.555 -0.3029  0.1909  0.0431
   91MOL0     C12425   0.722   4.800   4.678 -0.1195  0.2828  0.5070
   91MOL0     C12426   0.833   4.879   4.694  0.2378 -0.1563  0.3332
   91MOL0     C12427   0.886   4.959   4.588 -0.1254  0.6838  0.6641
   91MOL0     O12428   0.992   5.042   4.600 -0.3902 -0.4096 -0.1463
   91MOL0     C12429   1.099   5.021   4.691  0.1801  0.4042 -0.6472
   91MOL0     C12430   1.160   5.161   4.696 -0.1941  0.2812  0.1670
   91MOL0     C12431   1.287   5.147   4.777  0.6076 -0.3665 -0.7881
   91MOL0     C12432   1.410   5.125   4.684 -0.4643  0.1852  0.5271
   91MOL0     C12433   1.538   5.123   4.775 -0.2235  0.4337 -0.2040
   91MOL0     C12434   1.664   5.080   4.702 -0.2787 -0.2698  0.6677
   91MOL0     C12435   1.716   5.197   4.623 -0.3047  0.0936 -0.3304
   91MOL0     C12436   1.840   5.155   4.544  0.4307  0.0948 -0.3800
   91MOL0     N12437   1.907   5.282   4.486  0.4760 -0.8170 -0.2698
   91MOL0     C12438   1.850   5.375   4.405  0.4456 -0.7440  0.3480
   91MOL0     C12439   1.951   5.461   4.381 -0.0220 -0.5334  0.1628
   91MOL0     C12440   1.949   5.590   4.300 -0.2465  0.7282  0.6746
   91MOL0     C12441   1.952   5.582   4.144 -0.6010  0.4174 -0.8040
   91MOL0     C12442   2.088   5.519   4.105  0.6781  0.2229 -0.0478
   91MOL0     C12443   2.207   5.594   4.161 -0.5685 -0.3856 -0.1170
   91MOL0     O12444   2.319   5.544   4.084  0.4201  0.4363 -0.0181
   91MOL0     C12445   2.406   5.441   4.123 -0.8026  0.5648 -0.1360
   91MOL0     C12446   2.530   5.432   4.059 -0.8812 -0.0692 -0.5831
   91MOL0     C12447   2.623   5.331   4.095  1.0470 -0.2947  0.3020
   91MOL0     C12448   2.754   5.328   4.022 -0.3137 -0.4937  1.3248
   91MOL0     C12449   2.583   5.236   4.199 -1.0889 -0.1324 -0.0152
   91MOL0     C12450   2.681   5.138   4.257  0.0086 -0.5467 -0.5945
   91MOL0     O12451   2.813   5.149   4.226  0.7379  0.6530  0.0100
   91MOL0     C12452   2.907   5.075   4.295  0.4357  1.0669 -0.1903
   91MOL0     C12453   3.009   5.005   4.233 -0.1987  0.3222  0.1116
   91MOL0     C12454   3.102   4.932   4.306 -0.2935 -0.5135 -0.4633
   91MOL0     C12455   3.100   4.927   4.444  0.5332  0.6333 -1.3211
   91MOL0     O12456   3.202   4.862   4.511 -0.4755 -0.4777  0.0443
   91MOL0     C12457   3.245   4.899   4.639  0.2583  0.5777 -0.9862
   91MOL0     C12458   3.357   4.997   4.649  0.4497 -0.3559  0.2687
   91MOL0     C12459   3.461   4.974   4.537 -0.3897 -0.1205 -0.2302
   91MOL0     C12460   3.579   5.072   4.558 -0.1700 -0.1232  0.5133
   91MOL0     C12461   3.690   5.049   4.452 -0.5460  0.1839 -0.5183
   91MOL0     C12462   3.753   4.912   4.430  0.1053  0.6481 -0.2961
   91MOL0     C12463   3.857   4.895   4.324  0.3358 -0.1946  0.1239
   91MOL0     C12464   3.883   4.747   4.298 -0.2710  0.7856  0.3842
   91MOL0    Cl12465   4.027   4.742   4.179 -0.2052  0.4463 -0.3950
   91MOL0     C12466   3.002   4.990   4.510  0.1220  0.5047 -0.2526
   91MOL0     C12467   2.917   5.071   4.438 -0.0033  0.1330  0.4363
   91MOL0     O12468   2.644   5.056   4.343  0.3676 -0.5411  0.3367
   91MOL0     C12469   2.463   5.244   4.250  1.4283  0.4116  0.2360
   91MOL0     C12470   2.367   5.346   4.218 -0.3685 -0.0049 -1.3095
   91MOL0     N12471   2.065   5.412   4.457 -0.2945  0.3921  0.2294
   91MOL0     N12472   2.030   5.310   4.518 -0.2949 -0.4076  0.0204
   91MOL0     C12473   0.816   4.952   4.456  0.0957  0.6197  0.1988
   91MOL0     C12474   0.705   4.869   4.448  0.4884  0.4851  1.1747
   91MOL0     C12475   0.393   4.558   4.520  1.2226 -0.3508 -0.3415
   91MOL0     C12476   0.337   4.606   4.403  0.8261 -0.1108 -0.6265
   91MOL0     C12477   0.204   4.576   4.371 -0.3005 -0.2056  0.3266
   91MOL0     C12478   0.126   4.490   4.451  0.7478 -0.9584  0.0208
   91MOL0     O12479  -0.005   4.483   4.425  0.0619  0.0407  1.2162
   91MOL0     C12480  -0.092   4.402   4.504  0.2750  0.0220 -0.4310
   91MOL0     C12481  -0.234   4.408   4.459 -0.1788 -0.3178  0.0842
   91MOL0     C12482  -0.264   4.361   4.309  0.4033  0.3175  0.5566
   91MOL0     C12483  -0.403   4.309   4.277  0.0510 -0.6158 -0.7633
   91MOL0     C12484  -0.428   4.184   4.359  1.0343  0.1622 -1.4738
   91MOL0     C12485  -0.473   4.077   4.397  0.2299  0.3363 -0.0580
   91MOL0     C12486   0.183   4.438   4.571 -0.4141  0.5126  0.2202
   91MOL0     C12487   0.320   4.472   4.605  0.2467 -0.3225  0.8794
   91MOL0     C12488   0.369   4.437   4.747  0.6917  0.4431  0.4848
   91MOL0     H12489   0.680   4.743   4.760  2.5985  0.3037  2.0183
   91MOL0     H12490   0.876   4.884   4.793  2.1118 -1.7377 -0.3416
   91MOL0     H12491   1.159   4.947   4.636  1.3293  2.2579 -2.0115
   91MOL0     H12492   1.070   4.983   4.789 -1.4572  1.0134 -0.8641
   91MOL0     H12493   1.171   5.205   4.596 -3.0085  0.9103  0.0639
   91MOL0     H12494   1.095   5.213   4.767  0.0614 -0.4156  0.9258
   91MOL0     H12495   1.307   5.233   4.841  5.5509 -1.8142  0.0843
   91MOL0     H12496   1.280   5.061   4.844  1.1119 -0.3411 -0.6993
   91MOL0     H12497   1.401   5.030   4.630  1.2971 -0.9390  2.0929
   91MOL0     H12498   1.414   5.213   4.619 -4.1317 -0.0380 -0.2467
   91MOL0     H12499   1.511   5.051   4.853 -1.5231  1.7030  0.5594
   91MOL0     H12500   1.557   5.213   4.833 -1.3631  1.1785 -0.9454
   91MOL0     H12501   1.741   5.057   4.776  1.4608  2.0835 -0.2787
   91MOL0     H12502   1.643   4.988   4.647 -1.1714 -0.1401  0.7842
   91MOL0     H12503   1.736   5.280   4.692  0.4235  0.5505 -1.0758
   91MOL0     H12504   1.632   5.222   4.558  0.0982  1.3482 -0.4078
   91MOL0     H12505   1.912   5.109   4.611 -0.8581  0.8804  1.6651
   91MOL0     H12506   1.809   5.096   4.457 -2.5712 -1.3422  1.5024
   91MOL0     H12507   1.750   5.386   4.363  1.1458  1.6723 -0.8615
   91MOL0     H12508   2.035   5.655   4.321  2.0093 -1.0622 -2.2472
   91MOL0     H12509   1.858   5.645   4.325  0.4073  1.5608  1.2703
   91MOL0     H12510   1.867   5.523   4.109 -0.2127 -2.4521  2.5616
   91MOL0     H12511   1.939   5.683   4.104  2.2144  1.6388  1.0260
   91MOL0     H12512   2.087   5.412   4.129  0.6373  0.0432 -0.8156
   91MOL0     H12513   2.094   5.527   3.996 -3.2459 -2.3567 -0.6414
   91MOL0     H12514   2.204   5.701   4.139  1.6887 -0.5753 -1.7207
   91MOL0     H12515   2.232   5.570   4.265  0.7060 -0.8756 -0.5226
   91MOL0     H12516   2.555   5.510   3.988 -1.0230  0.4219 -0.1006
   91MOL0     H12517   2.768   5.231   3.975  0.2640 -0.7638  2.0351
   91MOL0     H12518   2.844   5.341   4.084  0.4970  2.2137 -0.2312
   91MOL0     H12519   2.772   5.405   3.947  1.0631 -1.4911  0.5744
   91MOL0     H12520   3.018   4.996   4.126  1.6371  1.2106  0.1582
   91MOL0     H12521   3.183   4.887   4.249 -1.2459 -2.1648 -0.5671
   91MOL0     H12522   3.166   4.916   4.714 -0.2162  0.6424 -1.4908
   91MOL0     H12523   3.285   4.802   4.669 -1.9225 -1.4625 -4.0434
   91MOL0     H12524   3.307   5.094   4.635 -0.2936 -0.8879 -0.8969
   91MOL0     H12525   3.406   4.979   4.745  2.0134 -0.8451 -0.5887
   91MOL0     H12526   3.408   5.011   4.449  2.0987  4.7959 -0.0139
   91MOL0     H12527   3.501   4.873   4.526  0.1965  0.1102 -0.2846
   91MOL0     H12528   3.620   5.061   4.659  0.7007 -1.7725  0.0093
   91MOL0     H12529   3.548   5.174   4.533  0.9593 -0.6193 -3.6165
   91MOL0     H12530   3.642   5.071   4.357  0.9081  2.9160 -0.7306
   91MOL0     H12531   3.765   5.122   4.483  1.1098 -1.8858  0.6166
   91MOL0     H12532   3.675   4.837   4.420  0.4126 -0.5213  4.0829
   91MOL0     H12533   3.804   4.874   4.519  0.2325  0.5387 -0.4134
   91MOL0     H12534   3.954   4.935   4.355 -0.0828  0.6345  0.4242
   91MOL0     H12535   3.822   4.949   4.235 -1.4293  0.1830  1.0012
   91MOL0     H12536   3.796   4.709   4.242  0.5969  1.0286 -1.1766
   91MOL0     H12537   3.909   4.695   4.391  3.8989 -1.0528 -1.5684
   91MOL0     H12538   2.996   5.003   4.617  0.8260 -0.8280 -0.0419
   91MOL0     H12539   2.841   5.132   4.486  0.0324  1.3879 -1.0244
   91MOL0     H12540   2.426   5.168   4.318 -0.3700 -3.5993 -4.5161
   91MOL0     H12541   2.270   5.345   4.266 -0.4755 -4.6828 -1.1493
   91MOL0     H12542   0.861   4.997   4.368  0.5878 -1.7641 -0.8289
   91MOL0     H12543   0.659   4.849   4.351 -0.6576 -0.9251  1.9722
   91MOL0     H12544   0.394   4.677   4.344  0.7542  0.6387  0.1869
   91MOL0     H12545   0.160   4.637   4.292 -1.1159 -1.3298 -0.1106
   91MOL0     H12546  -0.057   4.298   4.500 -2.8985 -1.2581  1.1479
   91MOL0     H12547  -0.091   4.442   4.605  1.2869  1.3605 -0.9510
   91MOL0     H12548  -0.253   4.515   4.458  3.9034  0.6223 -2.8241
   91MOL0     H12549  -0.293   4.354   4.534  2.9312 -3.1688  0.7548
   91MOL0     H12550  -0.240   4.441   4.239 -0.8081  0.9101  0.7937
   91MOL0     H12551  -0.198   4.276   4.287 -3.8361 -2.8566 -1.2930
   91MOL0     H12552  -0.401   4.300   4.168 -1.6261  1.5839 -1.0481
   91MOL0     H12553  -0.472   4.392   4.295  1.0552 -0.4566  3.3911
   91MOL0     H12554  -0.507   3.978   4.422  2.9005 -1.1369 -1.7483
   91MOL0     H12555   0.117   4.371   4.625 -0.3057  0.3142  0.1120
   91MOL0     H12556   0.442   4.356   4.749 -0.9993 -1.1670  1.2888
   91MOL0     H12557   0.399   4.525   4.804 -1.5577  1.1600  0.6773
   91MOL0     H12558   0.283   4.393   4.800  1.1740 -1.0208  0.0980
   92MOL0     O12559   3.072  10.192   0.031 -0.3822 -0.1872  0.4687
   92MOL0     C12560   3.021  10.102   0.101 -0.1529 -0.0192  0.0676
   92MOL0     O12561   2.955   9.999   0.049 -0.1605 -0.2765 -0.1486
   92MOL0     C12562   2.907   9.908   0.144  0.3831 -0.0773  1.0953
   92MOL0     C12563   2.770   9.903   0.175 -0.3838  0.0205  0.5643
   92MOL0     C12564   2.730   9.817   0.269 -0.9948  0.9760  0.8771
   92MOL0     C12565   2.813   9.704   0.314  0.2174  0.3871  0.7242
   92MOL0     O12566   2.789   9.614   0.419  0.2496  0.4163  0.9703
   92MOL0     C12567   2.660   9.605   0.481  0.1730  0.1551  0.2968
   92MOL0     C12568   2.682   9.600   0.626 -0.4354  0.1183 -0.1597
   92MOL0     C12569   2.543   9.552   0.686 -0.2619  0.1111 -0.1404
   92MOL0     C12570   2.517   9.403   0.665  0.1571 -0.2607 -0.3769
   92MOL0     C12571   2.590   9.315   0.768 -0.3327 -0.1045  0.1430
   92MOL0     C12572   2.526   9.302   0.904  0.1247 -0.1096  1.1844
   92MOL0     C12573   2.397   9.228   0.898  0.2168  0.3689 -1.0545
   92MOL0     C12574   2.432   9.076   0.894 -0.2912  0.3440 -0.3124
   92MOL0     N12575   2.303   8.997   0.889 -0.1494 -0.4707 -0.4356
   92MOL0     C12576   2.218   8.990   0.991 -1.1439  0.0767  0.4236
   92MOL0     C12577   2.112   8.922   0.942 -0.0157 -0.3468  0.0369
   92MOL0     C12578   1.978   8.891   1.016  1.0929 -0.4788  0.7494
   92MOL0     C12579   1.936   8.751   1.052 -0.1449  0.5612 -0.1892
   92MOL0     C12580   1.805   8.739   1.125  0.5475  0.3033  0.0944
   92MOL0     C12581   1.816   8.643   1.236  0.8735 -0.4455 -0.3927
   92MOL0     O12582   1.812   8.507   1.195  0.6448 -0.2123 -0.4875
   92MOL0     C12583   1.823   8.415   1.293 -0.0457  0.1230  0.0972
   92MOL0     C12584   1.803   8.287   1.250  0.7258  0.0829 -0.5912
   92MOL0     C12585   1.792   8.178   1.340 -0.4579 -0.1161 -0.0795
   92MOL0     C12586   1.753   8.046   1.275 -0.2321  0.0232  0.8538
   92MOL0     C12587   1.801   8.192   1.474  0.1650  0.0086 -0.2250
   92MOL0     C12588   1.790   8.084   1.574 -0.0504  0.1930 -0.6439
   92MOL0     O12589   1.739   7.964   1.531 -1.0326 -0.4381 -0.2732
   92MOL0     C12590   1.749   7.865   1.629  0.3419 -1.1489  0.0819
   92MOL0     C12591   1.866   7.793   1.621  0.3125  0.4398 -0.3841
   92MOL0     C12592   1.860   7.668   1.680  0.1653 -0.4992  1.8675
   92MOL0     C12593   1.759   7.622   1.758  0.3915  0.1018 -0.6515
   92MOL0     O12594   1.767   7.489   1.797 -0.7823 -0.7782 -0.5556
   92MOL0     C12595   1.771   7.467   1.942  0.0045 -0.1012 -0.2897
   92MOL0     C12596   1.825   7.324   1.972  0.1650 -0.9334 -0.1876
   92MOL0     C12597   1.971   7.330   2.006 -0.7644 -0.8870 -0.2092
   92MOL0     C12598   2.018   7.205   2.087 -0.6273  0.5069  0.5197
   92MOL0     C12599   2.020   7.071   2.002 -0.2079 -1.8738  0.3610
   92MOL0     C12600   2.130   6.996   2.071  0.0827  0.6908 -0.1188
   92MOL0     C12601   2.125   6.844   2.025  0.6319  0.3349 -0.9270
   92MOL0     C12602   2.169   6.815   1.876 -0.5856 -1.0331 -0.2929
   92MOL0    Cl12603   2.104   6.663   1.824  0.5855 -0.5548  0.1197
   92MOL0     C12604   1.646   7.697   1.771 -0.8697 -0.9648 -0.2532
   92MOL0     C12605   1.638   7.817   1.700  0.3029 -0.7463 -0.3151
   92MOL0     O12606   1.818   8.116   1.688  0.0699  0.1025 -0.3758
   92MOL0     C12607   1.823   8.322   1.521  0.4835 -0.2604 -0.0898
   92MOL0     C12608   1.848   8.426   1.429  0.3960 -0.0894  0.0887
   92MOL0     N12609   2.132   8.895   0.811  0.2928 -0.3611  0.0052
   92MOL0     N12610   2.242   8.949   0.780 -0.9290  0.3685  0.0857
   92MOL0     C12611   2.932   9.687   0.247 -0.4147  0.0199 -0.2359
   92MOL0     C12612   2.980   9.792   0.171  1.0413 -0.5778 -0.2668
   92MOL0     C12613   3.021  10.127   0.248 -0.0506  0.3928  1.6603
   92MOL0     C12614   3.129  10.078   0.316  0.6523  0.2780 -0.9139
   92MOL0     C12615   3.144  10.095   0.456 -0.0794  0.3496 -0.2600
   92MOL0     C12616   3.043  10.161   0.526  0.2244 -0.0771 -0.7124
   92MOL0     O12617   3.072  10.179   0.659 -0.3298 -0.5251 -0.1120
   92MOL0     C12618   3.008  10.289   0.737 -0.0120 -0.2785 -0.4036
   92MOL0     C12619   3.117  10.370   0.827 -0.1620 -0.1337 -0.4929
   92MOL0     C12620   3.046  10.497   0.883  0.1972  0.2884  0.7629
   92MOL0     C12621   3.099  10.540   1.016  0.7451  0.2090 -0.1925
   92MOL0     C12622   3.064  10.435   1.119  0.4149  1.2607  0.2576
   92MOL0     C12623   3.053  10.345   1.203 -0.6095 -0.2831 -0.1093
   92MOL0     C12624   2.921  10.195   0.462 -0.7111  0.0411  0.1471
   92MOL0     C12625   2.912  10.178   0.323 -0.2016  0.3836  0.4479
   92MOL0     C12626   2.782  10.226   0.263  0.1683 -0.0397  0.1992
   92MOL0     H12627   2.717   9.982   0.123 -0.4320 -0.8938 -0.8169
   92MOL0     H12628   2.632   9.839   0.310 -1.1078  2.5946 -0.1683
   92MOL0     H12629   2.618   9.516   0.435  0.8028  0.3882 -0.7771
   92MOL0     H12630   2.595   9.689   0.455 -1.6966 -0.9031  1.3957
   92MOL0     H12631   2.769   9.538   0.648  0.4815  1.4162 -0.0760
   92MOL0     H12632   2.686   9.701   0.667 -2.3438  0.0121  0.4179
   92MOL0     H12633   2.534   9.576   0.792 -4.4789 -0.9092 -0.1157
   92MOL0     H12634   2.458   9.609   0.649  1.9930  4.4411  0.6222
   92MOL0     H12635   2.411   9.381   0.674  0.8621 -5.8551 -2.0729
   92MOL0     H12636   2.550   9.367   0.567 -1.8966  0.0461 -1.2273
   92MOL0     H12637   2.691   9.354   0.786  0.7377 -2.5592 -0.2610
   92MOL0     H12638   2.604   9.217   0.722 -0.7305 -1.5314  2.8661
   92MOL0     H12639   2.598   9.262   0.975  0.7443  1.1342  1.2979
   92MOL0     H12640   2.499   9.400   0.945  0.7894  0.5631  0.0825
   92MOL0     H12641   2.329   9.241   0.813 -0.3482  0.0459 -0.6616
   92MOL0     H12642   2.330   9.238   0.984  0.2191 -0.1810 -0.9858
   92MOL0     H12643   2.500   9.049   0.812 -0.0584  0.7340 -0.2485
   92MOL0     H12644   2.483   9.047   0.987  2.1342 -1.3079 -2.0273
   92MOL0     H12645   2.242   9.026   1.090  4.4428  2.1134 -1.2836
   92MOL0     H12646   1.899   8.919   0.945  3.3271  3.0210 -0.6491
   92MOL0     H12647   1.964   8.958   1.101  2.5021 -0.6833  1.1721
   92MOL0     H12648   1.925   8.692   0.961 -1.6599  0.7875 -0.1742
   92MOL0     H12649   2.017   8.712   1.114 -1.5655 -0.7398  0.9238
   92MOL0     H12650   1.774   8.834   1.170 -0.6669 -0.3795  0.7599
   92MOL0     H12651   1.726   8.711   1.055 -0.1501 -0.2093  1.0598
   92MOL0     H12652   1.904   8.653   1.300 -1.0272 -0.7077  2.4571
   92MOL0     H12653   1.724   8.659   1.294  2.1889 -2.2938  2.4095
   92MOL0     H12654   1.784   8.271   1.144 -5.5279 -1.6426  0.3739
   92MOL0     H12655   1.751   8.060   1.166 -1.1995  1.5809  1.0390
   92MOL0     H12656   1.653   8.011   1.301 -1.9830  3.0350 -1.1252
   92MOL0     H12657   1.836   7.978   1.296  0.4414  0.9838  1.4057
   92MOL0     H12658   1.953   7.805   1.557 -0.7305 -0.3568 -2.0277
   92MOL0     H12659   1.938   7.593   1.681  0.4693 -0.3032 -0.7783
   92MOL0     H12660   1.834   7.548   1.981  3.9502 -1.9782 -2.1807
   92MOL0     H12661   1.676   7.462   1.996  2.2312 -1.4287  3.9126
   92MOL0     H12662   1.768   7.297   2.061 -2.0096  0.6785 -1.0094
   92MOL0     H12663   1.803   7.255   1.890  0.6474  0.9510 -1.9946
   92MOL0     H12664   1.999   7.417   2.065  1.2347 -0.2630 -1.9685
   92MOL0     H12665   2.027   7.348   1.914  0.5813 -0.5660  0.6582
   92MOL0     H12666   1.955   7.183   2.174 -1.1767  2.9767  0.8155
   92MOL0     H12667   2.123   7.224   2.111 -0.2774  0.4393 -0.8673
   92MOL0     H12668   1.922   7.022   2.005 -1.3012  0.2665  1.8678
   92MOL0     H12669   2.054   7.102   1.903 -1.5058 -0.0187  0.4533
   92MOL0     H12670   2.111   7.011   2.177  1.6520 -0.2221  0.3230
   92MOL0     H12671   2.231   7.031   2.048 -0.1343  0.0560 -2.3038
   92MOL0     H12672   2.024   6.807   2.046 -0.1963  3.3459  1.0502
   92MOL0     H12673   2.197   6.792   2.088 -0.4311  1.0267  0.9562
   92MOL0     H12674   2.277   6.820   1.864 -0.4742 -3.3779 -0.6146
   92MOL0     H12675   2.128   6.905   1.827  2.8928  0.0794 -1.4423
   92MOL0     H12676   1.565   7.658   1.832 -1.2588 -0.3302 -0.3594
   92MOL0     H12677   1.548   7.876   1.686  0.6389 -0.6207 -2.0626
   92MOL0     H12678   1.837   8.351   1.625  0.1114  1.6476 -0.5381
   92MOL0     H12679   1.874   8.527   1.460  2.5734 -0.5556 -0.0006
   92MOL0     H12680   2.988   9.599   0.275 -5.1353 -3.2289  0.1849
   92MOL0     H12681   3.074   9.772   0.121  1.0711  1.1677 -1.0009
   92MOL0     H12682   3.202  10.018   0.262  2.0432 -1.5361  2.6439
   92MOL0     H12683   3.224  10.045   0.509 -1.4438 -2.5310 -0.6858
   92MOL0     H12684   2.964  10.364   0.670  0.0889  0.6745  0.5670
   92MOL0     H12685   2.928  10.252   0.801 -0.7291  1.6367 -0.1187
   92MOL0     H12686   3.192  10.400   0.753 -0.1514 -2.1448 -1.3779
   92MOL0     H12687   3.160  10.307   0.906 -2.1924 -0.3483  0.4995
   92MOL0     H12688   3.065  10.582   0.815 -1.8688  0.0724 -0.1553
   92MOL0     H12689   2.938  10.480   0.888  0.4174 -2.6583 -1.5657
   92MOL0     H12690   3.049  10.636   1.033 -1.4738 -1.0406  0.6439
   92MOL0     H12691   3.208  10.544   1.004  0.9778 -1.4201  1.0487
   92MOL0     H12692   3.051  10.270   1.280 -0.2844  1.1780  1.3864
   92MOL0     H12693   2.838  10.239   0.517 -1.6416 -0.1161 -1.0840
   92MOL0     H12694   2.767  10.198   0.159 -4.1568  2.6318 -0.1198
   92MOL0     H12695   2.704  10.175   0.319  0.0984 -0.4756 -0.2858
   92MOL0     H12696   2.768  10.335   0.262 -0.4714 -0.1194 -0.5394
   93MOL0     O12697   3.617   3.098   2.252 -0.5216 -0.5965  0.1722
   93MOL0     C12698   3.547   3.195   2.271 -0.4923 -0.0604  0.4145
   93MOL0     O12699   3.456   3.202   2.371 -0.1566 -0.7129 -0.2811
   93MOL0     C12700   3.463   3.103   2.466 -0.0877  0.2031  0.0895
   93MOL0     C12701   3.404   2.977   2.443 -0.0228 -0.2766  0.2768
   93MOL0     C12702   3.410   2.881   2.545  0.2802 -0.4033  0.2255
   93MOL0     C12703   3.473   2.908   2.667  0.4643  0.0944 -0.0033
   93MOL0     O12704   3.471   2.818   2.771 -0.0149 -0.2296 -0.1331
   93MOL0     C12705   3.488   2.685   2.724  0.0806  0.8538  0.2546
   93MOL0     C12706   3.521   2.592   2.841  0.0863 -0.6297  0.1948
   93MOL0     C12707   3.403   2.539   2.924 -0.5616 -0.0070  0.3097
   93MOL0     C12708   3.437   2.409   2.990  0.6290  0.5330 -0.4410
   93MOL0     C12709   3.311   2.361   3.080  0.2537  0.5927  0.0386
   93MOL0     C12710   3.336   2.226   3.159  0.0590 -0.4171 -0.3512
   93MOL0     C12711   3.209   2.149   3.216 -0.2694 -0.5847 -0.4667
   93MOL0     C12712   3.253   2.039   3.311  0.3382 -0.0016  0.1305
   93MOL0     N12713   3.144   1.981   3.388  0.1776  0.3040 -0.3417
   93MOL0     C12714   3.112   2.009   3.520 -0.1070 -0.6650  0.2405
   93MOL0     C12715   3.023   1.919   3.554  0.6746  0.2767  0.5904
   93MOL0     C12716   2.975   1.893   3.693 -0.5777  0.1479 -0.0211
   93MOL0     C12717   3.029   1.758   3.752  0.2256  0.3816 -0.1226
   93MOL0     C12718   2.973   1.758   3.899 -0.0942  0.6636 -0.6118
   93MOL0     C12719   2.942   1.609   3.937 -0.0346 -0.0270  0.2776
   93MOL0     O12720   2.856   1.543   3.834  0.4109 -0.5005  0.1340
   93MOL0     C12721   2.876   1.411   3.804 -0.0357  1.2513 -0.2420
   93MOL0     C12722   2.939   1.315   3.874  0.3046 -0.1333  0.6300
   93MOL0     C12723   2.946   1.183   3.836 -0.0871  0.2308 -0.7491
   93MOL0     C12724   3.024   1.091   3.928 -0.2526  0.4082  0.3264
   93MOL0     C12725   2.886   1.146   3.710 -0.7057 -0.1289 -0.9379
   93MOL0     C12726   2.899   1.014   3.646 -0.0557 -0.1737 -1.1822
   93MOL0     O12727   2.786   0.972   3.570  0.6158 -0.3876  0.0101
   93MOL0     C12728   2.790   0.864   3.483 -0.6759  1.1414  0.5897
   93MOL0     C12729   2.873   0.863   3.372  0.2181 -0.0745 -0.7802
   93MOL0     C12730   2.876   0.756   3.283  0.1410  0.2412  0.4028
   93MOL0     C12731   2.782   0.655   3.297 -0.1821  0.5733 -0.1134
   93MOL0     O12732   2.766   0.558   3.205 -0.5929  0.4079  0.6576
   93MOL0     C12733   2.883   0.499   3.138  0.0744 -0.2283 -1.0536
   93MOL0     C12734   2.825   0.364   3.073  0.9260  0.4695 -0.8070
   93MOL0     C12735   2.717   0.385   2.965  0.1705  0.5136  0.0981
   93MOL0     C12736   2.684   0.253   2.888 -0.3641 -0.7611  0.5163
   93MOL0     C12737   2.586   0.292   2.778  1.3750  0.0948 -0.1471
   93MOL0     C12738   2.590   0.192   2.666 -0.6521  0.1200 -0.2673
   93MOL0     C12739   2.685   0.231   2.550  0.0646  0.0156  0.1747
   93MOL0     C12740   2.690   0.121   2.447  0.9349  0.0681 -0.0371
   93MOL0    Cl12741   2.838   0.148   2.348 -0.3614  0.1088  0.0774
   93MOL0     C12742   2.702   0.645   3.407 -0.1361 -0.6448 -0.0312
   93MOL0     C12743   2.704   0.752   3.500 -0.6630  1.0317 -0.9600
   93MOL0     O12744   3.005   0.949   3.661 -0.0807  0.3286 -0.0729
   93MOL0     C12745   2.808   1.245   3.643  0.4175  0.2500  0.5588
   93MOL0     C12746   2.808   1.377   3.685 -0.9864 -0.5628 -0.3597
   93MOL0     N12747   2.973   1.851   3.439 -0.4774 -0.7371 -0.0183
   93MOL0     N12748   3.061   1.884   3.347  0.0847 -1.2016  0.0683
   93MOL0     C12749   3.524   3.031   2.681 -0.9945  0.4104  0.1489
   93MOL0     C12750   3.536   3.124   2.581 -1.6004 -0.2254  0.9694
   93MOL0     C12751   3.558   3.317   2.188 -0.5551 -0.1772  0.5609
   93MOL0     C12752   3.436   3.383   2.137 -0.0147 -0.9778  0.3503
   93MOL0     C12753   3.449   3.492   2.053  0.4850  0.3739  0.7936
   93MOL0     C12754   3.565   3.568   2.049  0.2736  0.6565  0.5931
   93MOL0     O12755   3.557   3.689   1.996  0.1677  0.6296  0.3171
   93MOL0     C12756   3.680   3.774   2.016 -0.1556 -0.4854 -0.1181
   93MOL0     C12757   3.657   3.921   1.951 -1.0695 -0.0683 -0.3620
   93MOL0     C12758   3.789   4.008   1.959 -0.0858 -0.2942  0.3497
   93MOL0     C12759   3.776   4.155   1.912  0.6849 -0.5017 -0.2408
   93MOL0     C12760   3.667   4.180   1.822  0.5159 -0.2424 -0.3696
   93MOL0     C12761   3.583   4.182   1.737  0.5506  0.1011 -0.0868
   93MOL0     C12762   3.684   3.514   2.111 -0.1123 -0.5641 -0.2949
   93MOL0     C12763   3.680   3.391   2.174  0.2405  0.0926 -0.0402
   93MOL0     C12764   3.808   3.338   2.226 -0.2476 -0.4994  0.1219
   93MOL0     H12765   3.355   2.972   2.346  1.7856 -0.5280 -0.6714
   93MOL0     H12766   3.384   2.781   2.512  1.3921 -0.4743 -0.4982
   93MOL0     H12767   3.570   2.679   2.652  1.8439 -1.0511  2.2695
   93MOL0     H12768   3.395   2.644   2.683  3.0174 -3.5036 -2.8798
   93MOL0     H12769   3.579   2.508   2.801 -1.8847 -1.8154 -0.3444
   93MOL0     H12770   3.595   2.646   2.900  1.0071 -2.0211  0.3566
   93MOL0     H12771   3.374   2.617   2.995  0.2736  0.4991  0.1044
   93MOL0     H12772   3.317   2.513   2.861  0.4898  0.1911 -1.2691
   93MOL0     H12773   3.448   2.330   2.916 -3.6346 -1.4827  0.7574
   93MOL0     H12774   3.533   2.414   3.042  0.7680  3.5729 -0.7857
   93MOL0     H12775   3.225   2.346   3.014  0.6986 -0.1683 -0.3732
   93MOL0     H12776   3.277   2.438   3.150 -1.4457 -0.6787  0.6710
   93MOL0     H12777   3.390   2.163   3.087  0.6273  1.6935 -1.8703
   93MOL0     H12778   3.402   2.251   3.243 -0.3910 -1.3863  0.3152
   93MOL0     H12779   3.144   2.113   3.135 -0.8905 -2.3112  0.7243
   93MOL0     H12780   3.134   2.211   3.265 -3.0414 -2.9207 -1.4554
   93MOL0     H12781   3.313   1.957   3.272 -0.4593 -0.8223  0.5942
   93MOL0     H12782   3.322   2.077   3.387 -1.7636 -0.5832  2.4635
   93MOL0     H12783   3.169   2.074   3.586  3.3282  0.4669 -3.4184
   93MOL0     H12784   2.867   1.900   3.680 -0.3376 -0.6498 -3.4748
   93MOL0     H12785   3.006   1.970   3.765  2.1255  2.8718 -3.6763
   93MOL0     H12786   3.006   1.663   3.702 -0.7149  0.4995  0.0563
   93MOL0     H12787   3.138   1.759   3.753  0.2311  1.8798 -0.3060
   93MOL0     H12788   3.027   1.818   3.972 -2.4282  0.2459  1.5962
   93MOL0     H12789   2.875   1.807   3.896 -0.4861 -0.1174 -3.0598
   93MOL0     H12790   3.038   1.562   3.960  1.2477  2.1600 -0.2567
   93MOL0     H12791   2.880   1.601   4.027 -1.2680  0.1684 -0.5247
   93MOL0     H12792   2.997   1.355   3.957 -0.1134 -1.9693  1.8625
   93MOL0     H12793   3.126   1.074   3.893  0.5687 -0.2469  2.8071
   93MOL0     H12794   2.974   0.995   3.945  0.1895  0.1136 -0.0460
   93MOL0     H12795   3.056   1.130   4.025  0.7027  1.6557 -0.4620
   93MOL0     H12796   2.946   0.944   3.370 -0.2002  0.5303  2.3551
   93MOL0     H12797   2.947   0.747   3.201 -0.3176  2.2639 -0.2840
   93MOL0     H12798   2.918   0.565   3.058  0.6981 -2.1446 -2.4440
   93MOL0     H12799   2.960   0.481   3.214 -1.0159 -1.7034 -0.2493
   93MOL0     H12800   2.912   0.305   3.045  0.0590 -1.6120  0.6201
   93MOL0     H12801   2.778   0.306   3.153 -3.9546  2.9087 -1.4961
   93MOL0     H12802   2.756   0.459   2.895 -0.3906 -1.3411 -2.2923
   93MOL0     H12803   2.614   0.412   2.992 -0.4515 -1.1264 -0.4946
   93MOL0     H12804   2.651   0.185   2.968  0.5309  0.1280  1.6754
   93MOL0     H12805   2.772   0.208   2.841 -0.9429 -0.8191 -0.5468
   93MOL0     H12806   2.481   0.294   2.809  1.0483 -1.4998 -1.0586
   93MOL0     H12807   2.605   0.386   2.726 -0.2320  0.1091 -0.7611
   93MOL0     H12808   2.487   0.173   2.637 -1.0801 -0.2185  1.3735
   93MOL0     H12809   2.623   0.096   2.708 -1.1027 -0.4494 -1.1910
   93MOL0     H12810   2.789   0.238   2.586  0.6572 -2.1472 -0.9445
   93MOL0     H12811   2.666   0.325   2.497  0.6972 -0.8778 -1.7190
   93MOL0     H12812   2.606   0.118   2.377  2.6983 -1.1208 -2.2636
   93MOL0     H12813   2.682   0.026   2.500 -0.1110 -0.7126 -1.5232
   93MOL0     H12814   2.645   0.554   3.419  1.4401 -1.4205  2.1914
   93MOL0     H12815   2.624   0.752   3.573 -1.4233  3.5832 -1.6870
   93MOL0     H12816   2.764   1.218   3.548 -0.6298 -2.4436  1.7186
   93MOL0     H12817   2.763   1.435   3.605 -4.1740 -1.1114  0.9058
   93MOL0     H12818   3.572   3.058   2.775 -1.0205  1.1593 -0.0446
   93MOL0     H12819   3.594   3.211   2.608 -1.7112  0.4777 -0.9274
   93MOL0     H12820   3.338   3.340   2.154 -1.7880  3.0735  1.7106
   93MOL0     H12821   3.360   3.527   2.001 -0.5803 -1.9359  0.9238
   93MOL0     H12822   3.707   3.774   2.122  0.6739 -0.4391 -0.3196
   93MOL0     H12823   3.771   3.737   1.967 -1.3656 -2.3803 -1.0544
   93MOL0     H12824   3.580   3.961   2.019  1.0083  1.0184  1.4759
   93MOL0     H12825   3.627   3.905   1.847 -1.9392 -0.6873 -0.0354
   93MOL0     H12826   3.825   3.999   2.062  0.5040  0.3118  0.2062
   93MOL0     H12827   3.867   3.962   1.897 -0.1049  0.2112 -0.0617
   93MOL0     H12828   3.865   4.187   1.857  1.6627 -1.6597  0.6058
   93MOL0     H12829   3.760   4.209   2.005  3.1959 -2.1603  1.2567
   93MOL0     H12830   3.501   4.184   1.669  0.3821 -0.6861  0.0721
   93MOL0     H12831   3.780   3.565   2.106  0.7124 -1.6005  2.6030
   93MOL0     H12832   3.832   3.240   2.182 -0.8873 -0.0651 -1.2693
   93MOL0     H12833   3.888   3.408   2.200 -1.2470  0.2734 -0.9959
   93MOL0     H12834   3.787   3.331   2.333 -2.2583 -1.5627 -0.2894
   94MOL0     O12835   6.403   0.035   4.019 -0.7599  0.4501  0.0453
   94MOL0     C12836   6.401  -0.059   4.096 -0.3772  0.5987  0.6158
   94MOL0     O12837   6.371  -0.057   4.228  0.0017  0.1664 -0.2236
   94MOL0     C12838   6.354   0.071   4.277  0.5306  0.7969 -0.6777
   94MOL0     C12839   6.455   0.171   4.274 -0.2663  0.7066 -0.9770
   94MOL0     C12840   6.422   0.298   4.325 -1.2040 -0.0060 -0.5491
   94MOL0     C12841   6.304   0.332   4.385  0.5033 -0.5326  0.1241
   94MOL0     O12842   6.252   0.448   4.431 -0.1461 -0.4667  0.2425
   94MOL0     C12843   6.353   0.551   4.451  0.3523 -0.1973 -0.4588
   94MOL0     C12844   6.289   0.667   4.537 -0.5730  0.3977 -0.1046
   94MOL0     C12845   6.269   0.620   4.695 -0.6030  1.1206  0.6581
   94MOL0     C12846   6.235   0.732   4.788 -0.4910 -0.9711  0.0382
   94MOL0     C12847   6.183   0.682   4.927 -0.3466 -0.7637  0.6371
   94MOL0     C12848   6.302   0.626   5.008  0.6905 -0.2937 -0.5100
   94MOL0     C12849   6.264   0.641   5.160  0.1260  0.4639 -0.0958
   94MOL0     C12850   6.357   0.549   5.229  0.5547 -0.5610 -0.1429
   94MOL0     N12851   6.359   0.566   5.372 -0.2433  0.6586 -0.8499
   94MOL0     C12852   6.271   0.631   5.452  0.5143  0.7119 -0.4782
   94MOL0     C12853   6.302   0.611   5.575 -0.8348 -0.1379 -0.5201
   94MOL0     C12854   6.236   0.668   5.701  0.1618 -0.1577  0.8129
   94MOL0     C12855   6.097   0.733   5.686 -0.2216 -0.9290  0.1164
   94MOL0     C12856   6.065   0.801   5.812  0.6686 -0.7842  0.4029
   94MOL0     C12857   5.949   0.901   5.796  0.6682 -0.4633  0.2168
   94MOL0     O12858   5.909   0.933   5.931 -0.2544  0.1786 -0.1635
   94MOL0     C12859   5.802   1.014   5.950 -0.9722 -0.0296  0.0648
   94MOL0     C12860   5.730   1.082   5.847  0.0330 -0.5858  0.8739
   94MOL0     C12861   5.622   1.170   5.872  0.8404  0.8590 -0.6641
   94MOL0     C12862   5.557   1.247   5.760 -0.6035 -0.4823 -0.4409
   94MOL0     C12863   5.563   1.175   6.000 -0.8734  0.3823 -0.4497
   94MOL0     C12864   5.457   1.265   6.046  0.2553  0.7471 -0.2579
   94MOL0     O12865   5.356   1.207   6.114 -1.1101  0.7920  0.1440
   94MOL0     C12866   5.268   1.271   6.191  0.2376  0.7032 -0.1362
   94MOL0     C12867   5.284   1.401   6.248  0.4391 -0.9355 -1.2719
   94MOL0     C12868   5.193   1.443   6.348 -0.3972  0.1425  0.3108
   94MOL0     C12869   5.071   1.378   6.365  0.3745 -0.2856 -0.9597
   94MOL0     O12870   4.973   1.435   6.447 -1.0178  0.1796  0.1878
   94MOL0     C12871   4.867   1.484   6.364 -0.1812  1.2741  1.4493
   94MOL0     C12872   4.735   1.489   6.440  0.1543  0.5347  0.7190
   94MOL0     C12873   4.683   1.344   6.478 -0.4970 -0.3221 -0.5947
   94MOL0     C12874   4.540   1.349   6.539 -0.0075  0.2017 -0.1820
   94MOL0     C12875   4.542   1.297   6.688  0.3592  1.0523 -0.1330
   94MOL0     C12876   4.417   1.340   6.766 -0.9223 -0.7573 -0.4721
   94MOL0     C12877   4.418   1.264   6.894 -0.7048 -0.4368  0.4175
   94MOL0     C12878   4.309   1.329   6.991  0.1476  0.7909 -0.8774
   94MOL0    Cl12879   4.289   1.225   7.133 -0.0166  0.0131 -0.3528
   94MOL0     C12880   5.046   1.259   6.300  0.3532 -0.1998  0.2474
   94MOL0     C12881   5.148   1.202   6.218  0.0198 -0.5365  0.8792
   94MOL0     O12882   5.457   1.377   6.006 -0.1159 -0.3301  0.1092
   94MOL0     C12883   5.629   1.095   6.103 -0.1091 -0.5230 -0.0730
   94MOL0     C12884   5.751   1.029   6.077  0.9172 -0.2928  0.5019
   94MOL0     N12885   6.431   0.550   5.573 -1.2315 -0.1335 -0.2651
   94MOL0     N12886   6.463   0.521   5.446 -1.0037  0.5800 -0.1899
   94MOL0     C12887   6.213   0.223   4.398 -0.4629  0.1089 -0.8225
   94MOL0     C12888   6.229   0.095   4.346 -1.2580 -0.1687  0.5863
   94MOL0     C12889   6.456  -0.183   4.040  0.0171 -0.6200  0.5841
   94MOL0     C12890   6.591  -0.208   4.056 -0.6170 -0.6179  0.1563
   94MOL0     C12891   6.645  -0.331   4.013  0.1067  0.2252  0.5138
   94MOL0     C12892   6.567  -0.432   3.962  0.2231 -0.6071 -0.2099
   94MOL0     O12893   6.620  -0.552   3.932 -0.0542  0.3249 -0.3461
   94MOL0     C12894   6.647  -0.571   3.792  0.0063  0.1963  0.3662
   94MOL0     C12895   6.516  -0.606   3.708  0.1158  0.1621 -0.4467
   94MOL0     C12896   6.538  -0.680   3.580 -0.3327 -0.3237 -0.7165
   94MOL0     C12897   6.554  -0.595   3.461  0.4607  0.2703 -0.4188
   94MOL0     C12898   6.655  -0.497   3.472 -0.3076  0.5511  0.6902
   94MOL0     C12899   6.749  -0.430   3.463 -1.3415  0.3620  0.1594
   94MOL0     C12900   6.425  -0.410   3.944 -0.4337 -1.1626  0.1970
   94MOL0     C12901   6.369  -0.288   3.990 -0.3827 -1.0219 -0.8451
   94MOL0     C12902   6.219  -0.273   3.990 -0.3898 -0.4936  0.3279
   94MOL0     H12903   6.552   0.172   4.226  0.2903  2.1405  0.1386
   94MOL0     H12904   6.500   0.372   4.312 -0.3034 -0.4431  1.8554
   94MOL0     H12905   6.388   0.593   4.357  0.3703  1.7716  0.3782
   94MOL0     H12906   6.438   0.510   4.506 -0.9416 -1.7140  0.5153
   94MOL0     H12907   6.366   0.744   4.527 -0.8912  0.8856  1.0343
   94MOL0     H12908   6.194   0.700   4.495 -0.0011  0.1372 -1.6772
   94MOL0     H12909   6.188   0.548   4.709 -1.2476  1.5224 -0.7948
   94MOL0     H12910   6.363   0.582   4.736 -0.7605  2.4143  2.3211
   94MOL0     H12911   6.324   0.794   4.802 -0.6786 -0.9321  1.0950
   94MOL0     H12912   6.163   0.799   4.741 -0.0967  0.5884  1.5638
   94MOL0     H12913   6.116   0.598   4.909 -0.9131 -0.4056  1.0269
   94MOL0     H12914   6.135   0.766   4.979  1.2919 -0.7357  2.1822
   94MOL0     H12915   6.308   0.517   4.995 -3.6238 -0.7216 -0.2653
   94MOL0     H12916   6.399   0.669   4.980 -0.2406  1.8381 -0.5612
   94MOL0     H12917   6.160   0.615   5.181  0.6723  0.9511  4.0830
   94MOL0     H12918   6.272   0.746   5.191  0.3131  0.7955 -1.2423
   94MOL0     H12919   6.332   0.447   5.199  1.6512 -0.2844 -2.1438
   94MOL0     H12920   6.454   0.565   5.182  0.0358  0.9652 -0.7682
   94MOL0     H12921   6.182   0.683   5.418  1.6607  1.2196 -2.9018
   94MOL0     H12922   6.304   0.746   5.736 -0.7161  0.9596  0.0937
   94MOL0     H12923   6.240   0.588   5.775  5.1336  1.9534  3.2708
   94MOL0     H12924   6.099   0.808   5.607 -0.8913  0.5380  1.4322
   94MOL0     H12925   6.013   0.664   5.670 -1.9560  0.8372  1.1222
   94MOL0     H12926   6.033   0.725   5.884  0.9357 -0.0836  1.2796
   94MOL0     H12927   6.149   0.846   5.867  0.5009 -0.9979  0.8346
   94MOL0     H12928   5.973   0.995   5.744  0.4303 -0.0993  0.7484
   94MOL0     H12929   5.873   0.844   5.744 -1.3082  1.6607  0.6119
   94MOL0     H12930   5.765   1.079   5.744  1.4614  1.0348  1.2592
   94MOL0     H12931   5.574   1.206   5.660 -1.2468 -0.0942 -0.7144
   94MOL0     H12932   5.597   1.348   5.765  0.2554 -0.8713  1.2235
   94MOL0     H12933   5.449   1.261   5.767 -0.6670 -1.2762  0.4147
   94MOL0     H12934   5.367   1.467   6.224  2.1662 -2.5681 -0.0338
   94MOL0     H12935   5.203   1.543   6.388 -0.3269  0.6828 -0.9928
   94MOL0     H12936   4.887   1.588   6.337 -3.1300  1.7283  0.6122
   94MOL0     H12937   4.860   1.424   6.272  2.4266  1.6044  0.9614
   94MOL0     H12938   4.728   1.546   6.534  1.3710  1.7847  0.0887
   94MOL0     H12939   4.663   1.538   6.374  0.5861  3.0274  1.9538
   94MOL0     H12940   4.751   1.283   6.538  4.5517  2.4521 -2.8894
   94MOL0     H12941   4.653   1.283   6.393 -1.1338  0.7864 -1.1853
   94MOL0     H12942   4.471   1.283   6.486  0.9630 -1.6579  0.7907
   94MOL0     H12943   4.503   1.450   6.518  2.3689  0.6915 -2.3604
   94MOL0     H12944   4.562   1.190   6.689  2.1426  1.3609 -0.1925
   94MOL0     H12945   4.623   1.344   6.743  0.9444 -0.3569  0.2467
   94MOL0     H12946   4.327   1.308   6.714 -0.9277 -0.8346 -0.4140
   94MOL0     H12947   4.409   1.448   6.778 -4.2887 -0.9670 -0.0084
   94MOL0     H12948   4.511   1.260   6.951  1.2438 -2.2366 -2.6133
   94MOL0     H12949   4.402   1.157   6.885  0.3432 -0.5776  0.1207
   94MOL0     H12950   4.205   1.339   6.959 -1.1730 -0.5167  2.5610
   94MOL0     H12951   4.351   1.424   7.023  1.5542  0.3131 -1.2273
   94MOL0     H12952   4.946   1.216   6.306 -0.0886  0.3419 -2.2297
   94MOL0     H12953   5.137   1.103   6.174  2.0746 -0.4348  0.0663
   94MOL0     H12954   5.602   1.097   6.208  4.0373 -2.4022  1.2473
   94MOL0     H12955   5.803   0.985   6.162  2.0763  1.3967  0.7151
   94MOL0     H12956   6.118   0.230   4.449 -0.9099 -2.5685 -1.1284
   94MOL0     H12957   6.154   0.018   4.361 -1.7358 -0.2891 -1.9919
   94MOL0     H12958   6.664  -0.150   4.112  0.5654 -2.6714  0.8566
   94MOL0     H12959   6.753  -0.332   4.018  0.1571 -1.1047 -0.3019
   94MOL0     H12960   6.699  -0.483   3.753 -0.0108 -0.0387 -0.1924
   94MOL0     H12961   6.721  -0.650   3.779  0.0411  0.0741  1.2408
   94MOL0     H12962   6.454  -0.517   3.698 -1.5362 -0.8034  0.7896
   94MOL0     H12963   6.454  -0.676   3.764 -0.8308  0.9667 -0.4756
   94MOL0     H12964   6.639  -0.720   3.594 -0.0585 -0.5493 -2.9701
   94MOL0     H12965   6.471  -0.766   3.568 -0.0623 -1.1938  2.9310
   94MOL0     H12966   6.463  -0.540   3.434  1.3924  2.9080  1.3550
   94MOL0     H12967   6.573  -0.656   3.372  0.4115  2.2522 -1.8582
   94MOL0     H12968   6.842  -0.380   3.441 -1.8918  0.3683 -2.4763
   94MOL0     H12969   6.364  -0.491   3.905 -0.2041 -0.7607 -1.0737
   94MOL0     H12970   6.170  -0.341   3.919  1.0161  0.9455 -2.1647
   94MOL0     H12971   6.182  -0.282   4.092  0.2114  0.4424  0.6343
   94MOL0     H12972   6.195  -0.170   3.965 -0.2764 -0.5099  0.1514
   95MOL0     O12973  10.938  10.981   3.966  0.3030 -0.2046  0.1426
   95MOL0     C12974  10.955  11.020   4.087 -0.0140 -0.2445 -0.0829
   95MOL0     O12975  10.923  10.944   4.199 -0.0770  0.8657  1.1796
   95MOL0     C12976  10.869  10.823   4.178 -0.3284  0.1569  0.1150
   95MOL0     C12977  10.938  10.714   4.114  0.1329 -0.4596 -0.5154
   95MOL0     C12978  10.866  10.585   4.112 -0.9044 -0.4059  0.4757
   95MOL0     C12979  10.741  10.577   4.170  0.2669 -1.3074 -0.8177
   95MOL0     O12980  10.687  10.453   4.178 -0.2676 -0.1575 -0.2250
   95MOL0     C12981  10.551  10.448   4.228 -0.1290  0.9081  0.5540
   95MOL0     C12982  10.472  10.325   4.185 -0.8610  0.9588  0.5652
   95MOL0     C12983  10.552  10.197   4.222 -0.3789 -0.0318 -0.4683
   95MOL0     C12984  10.466  10.073   4.208  0.2716 -0.0312  0.8724
   95MOL0     C12985  10.556   9.949   4.201 -0.0613  0.0096 -0.5192
   95MOL0     C12986  10.491   9.818   4.170  0.9734  0.3325 -0.4344
   95MOL0     C12987  10.414   9.817   4.039  0.8703 -0.3203 -0.8961
   95MOL0     C12988  10.404   9.676   3.978  0.0091 -1.0079 -0.6698
   95MOL0     N12989  10.535   9.602   3.979  0.2998  0.0933  0.8312
   95MOL0     C12990  10.635   9.630   3.884  0.1426 -0.3745  0.2825
   95MOL0     C12991  10.710   9.515   3.879  0.2381 -0.5346  0.2653
   95MOL0     C12992  10.832   9.506   3.801 -0.2965  0.1363  0.5859
   95MOL0     C12993  10.787   9.474   3.661  1.0441  0.1800  0.0003
   95MOL0     C12994  10.899   9.458   3.563 -0.2848 -0.2812  0.2183
   95MOL0     C12995  10.848   9.430   3.422  0.0980 -0.9311 -0.4091
   95MOL0     O12996  10.744   9.514   3.379  0.0305 -0.5803  0.0992
   95MOL0     C12997  10.781   9.634   3.328 -1.1009 -1.1124  0.2171
   95MOL0     C12998  10.909   9.690   3.300  2.0389 -0.2242  0.6483
   95MOL0     C12999  10.921   9.823   3.246 -0.0855  0.6108  0.4373
   95MOL0     C13000  11.061   9.872   3.237 -0.9663 -1.2476 -0.3707
   95MOL0     C13001  10.808   9.889   3.185  0.2001  0.9975 -0.6669
   95MOL0     C13002  10.814  10.020   3.105 -1.3928  0.7709  0.1372
   95MOL0     O13003  10.920  10.021   3.023 -0.3415  0.2198 -0.5801
   95MOL0     C13004  10.954  10.134   2.958  0.4194 -0.7440 -0.0764
   95MOL0     C13005  10.997  10.109   2.827 -0.3212 -0.7865 -0.1222
   95MOL0     C13006  11.044  10.215   2.741 -0.6925  0.4893 -0.5326
   95MOL0     C13007  11.043  10.348   2.795  0.0430  0.1936 -0.2005
   95MOL0     O13008  11.084  10.460   2.718  0.7066  0.2336 -0.8573
   95MOL0     C13009  11.010  10.464   2.592  0.1383 -0.2885 -0.5954
   95MOL0     C13010  11.024  10.610   2.537 -0.3410  0.3592 -0.5659
   95MOL0     C13011  10.984  10.626   2.390 -0.1004 -0.9589 -0.4118
   95MOL0     C13012  10.826  10.606   2.372  0.5370 -0.0357 -0.1447
   95MOL0     C13013  10.744  10.682   2.259  0.8059  0.0850 -0.8699
   95MOL0     C13014  10.785  10.668   2.114 -0.5355  0.3316 -0.2221
   95MOL0     C13015  10.724  10.765   2.008 -0.0395  0.2524 -0.2174
   95MOL0     C13016  10.608  10.704   1.930 -0.6607  0.4835  0.1017
   95MOL0    Cl13017  10.574  10.797   1.778 -0.4065  0.0487  0.1293
   95MOL0     C13018  11.000  10.374   2.934  0.3501  1.3114  0.9077
   95MOL0     C13019  10.958  10.262   3.010 -0.4497  0.3698 -0.4912
   95MOL0     O13020  10.729  10.110   3.110 -0.6504 -0.2957 -0.2500
   95MOL0     C13021  10.687   9.832   3.209  0.3638  0.5178  0.3163
   95MOL0     C13022  10.673   9.705   3.280 -0.6945 -1.3804  0.5160
   95MOL0     N13023  10.655   9.415   3.956 -0.1391  0.8625  0.1631
   95MOL0     N13024  10.548   9.471   4.007 -1.0513  0.0282 -0.2808
   95MOL0     C13025  10.683  10.688   4.235  0.2476 -0.7615  0.0045
   95MOL0     C13026  10.743  10.812   4.234  0.0335  0.3116 -1.0001
   95MOL0     C13027  11.029  11.146   4.113  0.0374  0.3748  0.3934
   95MOL0     C13028  10.970  11.256   4.181  0.4400  0.0800  0.3033
   95MOL0     C13029  11.045  11.368   4.205 -1.0632 -0.1201 -0.1234
   95MOL0     C13030  11.170  11.393   4.159 -0.8973 -0.0124  0.6256
   95MOL0     O13031  11.230  11.514   4.196  0.1695  0.3031 -0.1804
   95MOL0     C13032  11.340  11.552   4.117  0.0333 -0.3146  0.4352
   95MOL0     C13033  11.410  11.684   4.158 -0.2032  0.6319  0.1826
   95MOL0     C13034  11.455  11.688   4.295  0.2830 -0.7436 -0.1792
   95MOL0     C13035  11.530  11.822   4.327  0.3122  0.4580  0.4718
   95MOL0     C13036  11.429  11.923   4.341 -0.0272  0.4165  0.6063
   95MOL0     C13037  11.333  12.004   4.344 -0.3023  0.1311  0.4675
   95MOL0     C13038  11.221  11.291   4.064  0.4071 -0.7373 -0.7738
   95MOL0     C13039  11.159  11.160   4.056  0.0038  0.0249 -0.5533
   95MOL0     C13040  11.243  11.047   4.004 -0.1854 -0.0678 -0.2011
   95MOL0     H13041  11.040  10.719   4.079  0.5167 -3.6024 -0.1140
   95MOL0     H13042  10.911  10.492   4.078 -0.8030 -0.8691  1.8164
   95MOL0     H13043  10.500  10.530   4.178  2.1723  0.7891 -2.2553
   95MOL0     H13044  10.554  10.471   4.335 -0.1412  1.4306  0.4488
   95MOL0     H13045  10.376  10.323   4.237 -1.8807 -0.5218 -1.2338
   95MOL0     H13046  10.455  10.324   4.077  3.6016 -2.0051 -0.4069
   95MOL0     H13047  10.643  10.177   4.165  0.9950 -3.7866  2.5759
   95MOL0     H13048  10.576  10.206   4.328  0.0622  2.4264 -0.7338
   95MOL0     H13049  10.394  10.066   4.290 -1.2998 -0.8740 -0.5121
   95MOL0     H13050  10.407  10.088   4.117  0.2012  0.8967  1.0604
   95MOL0     H13051  10.612   9.946   4.295  1.3737 -0.4213 -1.3665
   95MOL0     H13052  10.625   9.961   4.117 -2.7783 -1.0187 -3.0876
   95MOL0     H13053  10.563   9.736   4.178  3.0064  1.7485 -2.6876
   95MOL0     H13054  10.421   9.794   4.251  1.2625 -3.0732 -1.0691
   95MOL0     H13055  10.478   9.874   3.971  0.1295 -1.1183 -2.3170
   95MOL0     H13056  10.320   9.868   4.062  1.8196  1.2912 -0.4049
   95MOL0     H13057  10.348   9.614   4.048  1.6282 -0.4419  1.2014
   95MOL0     H13058  10.357   9.690   3.880 -5.3883  1.0732  1.7884
   95MOL0     H13059  10.651   9.712   3.815 -1.2781  1.1696  1.7231
   95MOL0     H13060  10.885   9.415   3.830  0.5568  0.1805 -0.7609
   95MOL0     H13061  10.899   9.592   3.813 -1.0891  0.9313 -0.4191
   95MOL0     H13062  10.728   9.382   3.667  1.1479  0.1884  1.6434
   95MOL0     H13063  10.725   9.551   3.614  1.5422  0.9081  0.5157
   95MOL0     H13064  10.939   9.559   3.554 -3.7296  1.1407 -0.8279
   95MOL0     H13065  10.972   9.384   3.598 -0.4155 -0.6622 -0.3044
   95MOL0     H13066  10.935   9.447   3.358  1.8797  2.5896  2.5550
   95MOL0     H13067  10.823   9.324   3.415 -0.5367 -0.8257  0.2216
   95MOL0     H13068  11.002   9.643   3.328  1.3648 -0.9820  1.6933
   95MOL0     H13069  11.104   9.848   3.335  3.1005  3.5697 -0.5494
   95MOL0     H13070  11.067   9.982   3.240 -1.2430 -1.2307 -0.4436
   95MOL0     H13071  11.110   9.826   3.152  0.1714 -1.3167  0.2987
   95MOL0     H13072  10.982  10.006   2.798  1.8502 -2.3442  3.5141
   95MOL0     H13073  11.080  10.202   2.639  1.2328  1.2819  0.0051
   95MOL0     H13074  11.056  10.402   2.514 -0.3249 -2.7042  0.9501
   95MOL0     H13075  10.904  10.437   2.601 -0.2581  1.3447  0.0696
   95MOL0     H13076  10.957  10.665   2.604  1.3039 -0.6765  2.1075
   95MOL0     H13077  11.125  10.650   2.534 -0.7322  1.3462 -2.7480
   95MOL0     H13078  11.045  10.565   2.323  1.8173  0.0265  0.3571
   95MOL0     H13079  11.002  10.732   2.365  0.2854 -0.2397  2.5702
   95MOL0     H13080  10.779  10.616   2.470  0.9911 -0.7665  0.1512
   95MOL0     H13081  10.816  10.501   2.345  0.4873 -0.2958  0.8629
   95MOL0     H13082  10.640  10.646   2.266  0.7276  0.5367  0.7918
   95MOL0     H13083  10.731  10.786   2.291 -0.1766 -0.9876  2.7017
   95MOL0     H13084  10.764  10.562   2.100  0.3624  0.3417 -1.8984
   95MOL0     H13085  10.893  10.683   2.121 -0.6284  0.1873  2.8150
   95MOL0     H13086  10.807  10.802   1.947  0.7954  4.7773  3.1211
   95MOL0     H13087  10.691  10.849   2.070  2.5242 -1.2613  3.5406
   95MOL0     H13088  10.522  10.678   1.991 -1.3183  0.4340 -0.8187
   95MOL0     H13089  10.641  10.608   1.889 -0.0766 -0.1834  2.0531
   95MOL0     H13090  11.010  10.474   2.974  0.7056  1.5105  0.3302
   95MOL0     H13091  10.943  10.264   3.117 -2.2696  1.4385 -0.7324
   95MOL0     H13092  10.594   9.885   3.189 -0.2406 -0.5997  0.0626
   95MOL0     H13093  10.573   9.688   3.318 -1.3134  2.6174  1.1670
   95MOL0     H13094  10.592  10.684   4.294  0.2330 -2.5459 -0.0918
   95MOL0     H13095  10.704  10.892   4.297 -1.5139 -2.8477  2.4509
   95MOL0     H13096  10.868  11.248   4.217  0.5664 -1.4705  0.3860
   95MOL0     H13097  11.000  11.451   4.258  1.2378  0.4292  1.0834
   95MOL0     H13098  11.407  11.467   4.103  0.0474 -0.1500 -0.5675
   95MOL0     H13099  11.311  11.565   4.012  2.8006  1.0906 -0.2708
   95MOL0     H13100  11.340  11.767   4.152 -1.2466 -0.2425 -0.0112
   95MOL0     H13101  11.492  11.699   4.086  1.0382 -1.0274  1.1628
   95MOL0     H13102  11.367  11.679   4.360 -0.4313 -0.4923 -1.1001
   95MOL0     H13103  11.515  11.599   4.319  4.1381  2.2244  2.3360
   95MOL0     H13104  11.588  11.840   4.236 -1.2843  0.3423 -0.6083
   95MOL0     H13105  11.594  11.815   4.415 -2.4258 -1.8898  2.4971
   95MOL0     H13106  11.252  12.074   4.336 -1.2318 -1.0531 -0.8879
   95MOL0     H13107  11.321  11.308   4.026  1.1131  2.6319  2.1317
   95MOL0     H13108  11.344  11.077   4.031 -0.8380  3.0675 -0.8321
   95MOL0     H13109  11.227  10.952   4.055  2.6979  0.1720  1.3169
   95MOL0     H13110  11.224  11.045   3.896  0.2843 -0.9046 -0.2696
   96MOL0     O13111  11.440   6.860   0.523 -0.9297  0.4426 -0.1505
   96MOL0     C13112  11.385   6.952   0.463  0.4153  0.0273 -0.0172
   96MOL0     O13113  11.407   7.081   0.495  0.3973 -0.8882  0.4506
   96MOL0     C13114  11.507   7.105   0.582 -0.1634 -0.0230  0.3293
   96MOL0     C13115  11.639   7.106   0.527 -0.1509 -0.5561 -0.2290
   96MOL0     C13116  11.734   7.159   0.615 -1.7285 -0.2561 -1.1031
   96MOL0     C13117  11.722   7.191   0.749 -0.0331  0.4846  0.4152
   96MOL0     O13118  11.829   7.244   0.817 -0.4203 -0.0404 -0.0487
   96MOL0     C13119  11.824   7.230   0.956  0.9522 -0.3157  0.3829
   96MOL0     C13120  11.856   7.374   1.004  0.1105  0.4950  0.4194
   96MOL0     C13121  12.008   7.404   1.038  0.5375  0.0789 -0.6646
   96MOL0     C13122  12.030   7.357   1.189  1.6083 -0.6037 -0.0414
   96MOL0     C13123  12.177   7.386   1.232 -0.6642  0.3115  0.2266
   96MOL0     C13124  12.218   7.342   1.370 -0.1560  0.6696  0.0026
   96MOL0     C13125  12.378   7.339   1.385  0.1383  1.1424 -0.0483
   96MOL0     C13126  12.435   7.217   1.310 -1.5998 -0.0181  0.5835
   96MOL0     N13127  12.574   7.186   1.340  0.1666 -0.0687 -0.4908
   96MOL0     C13128  12.677   7.278   1.315 -0.3004 -0.3142  0.5843
   96MOL0     C13129  12.781   7.228   1.390 -0.5444  0.0477 -0.4927
   96MOL0     C13130  12.915   7.289   1.413 -0.5002 -0.4889  0.2147
   96MOL0     C13131  12.911   7.438   1.424 -0.3639 -0.4260  0.0706
   96MOL0     C13132  12.869   7.475   1.565 -0.4911 -0.7174 -0.1182
   96MOL0     C13133  12.915   7.610   1.602 -0.2558  0.4858 -0.5212
   96MOL0     O13134  12.844   7.697   1.513  0.0284 -0.9086  0.4977
   96MOL0     C13135  12.707   7.722   1.524  0.1285  0.2219 -0.6410
   96MOL0     C13136  12.633   7.687   1.633  0.3083 -0.5423  0.3754
   96MOL0     C13137  12.494   7.692   1.636  0.0182  0.0148  0.0448
   96MOL0     C13138  12.425   7.649   1.764  0.2430 -0.3407  0.1557
   96MOL0     C13139  12.433   7.745   1.517 -0.0882 -0.0159 -0.0025
   96MOL0     C13140  12.281   7.755   1.511  1.1505  0.2242  0.3956
   96MOL0     O13141  12.238   7.831   1.407  0.2929 -0.1432  0.4303
   96MOL0     C13142  12.104   7.826   1.356 -0.6351  0.2255  0.4820
   96MOL0     C13143  12.037   7.699   1.341 -0.1016 -0.8972  0.2305
   96MOL0     C13144  11.901   7.692   1.301 -0.9033 -0.1642 -0.3410
   96MOL0     C13145  11.836   7.804   1.260 -0.4140  0.2086 -0.8309
   96MOL0     O13146  11.706   7.808   1.212  0.0515  0.2780 -0.2275
   96MOL0     C13147  11.663   7.691   1.138 -0.3570 -0.1969 -0.0747
   96MOL0     C13148  11.575   7.728   1.019 -0.0408  0.0617 -0.7020
   96MOL0     C13149  11.520   7.611   0.937  0.2310 -0.5948 -0.2248
   96MOL0     C13150  11.411   7.680   0.838  0.0699  0.2051 -0.3135
   96MOL0     C13151  11.387   7.595   0.717  0.3878 -1.1592  0.3276
   96MOL0     C13152  11.294   7.473   0.741  0.7545 -0.3922 -0.0864
   96MOL0     C13153  11.267   7.412   0.595 -0.5018  0.9064 -0.4357
   96MOL0     C13154  11.130   7.340   0.585 -0.7875  0.4294 -0.5899
   96MOL0    Cl13155  11.094   7.219   0.707  0.4348 -0.1598 -0.6777
   96MOL0     C13156  11.904   7.924   1.264 -0.2196  0.0283 -0.6621
   96MOL0     C13157  12.042   7.933   1.310 -0.0274  0.0940 -0.0292
   96MOL0     O13158  12.210   7.684   1.582  0.3725 -0.4125  0.5290
   96MOL0     C13159  12.512   7.806   1.420  0.0224  0.1695  0.7925
   96MOL0     C13160  12.646   7.785   1.415  0.3357 -0.1473  0.4411
   96MOL0     N13161  12.732   7.113   1.457 -0.3261  0.0741 -0.6784
   96MOL0     N13162  12.611   7.093   1.429 -0.1553  0.4167  0.6464
   96MOL0     C13163  11.589   7.188   0.795 -0.2349  0.5202 -0.2004
   96MOL0     C13164  11.481   7.148   0.720 -0.4342 -0.5051  0.4006
   96MOL0     C13165  11.301   6.915   0.357  0.0764  0.5924  0.9201
   96MOL0     C13166  11.241   7.020   0.280 -0.9115 -0.3296 -0.2286
   96MOL0     C13167  11.151   6.993   0.176  0.8094 -0.8147 -0.0561
   96MOL0     C13168  11.116   6.865   0.143  0.6906  0.1725 -0.5182
   96MOL0     O13169  11.036   6.844   0.040  0.5587  0.3701 -0.4227
   96MOL0     C13170  10.992   6.717   0.002 -0.1043  1.0714 -0.8785
   96MOL0     C13171  10.874   6.735  -0.092  0.6729  0.3207 -0.4776
   96MOL0     C13172  10.757   6.822  -0.036 -0.8265  0.4344  0.0710
   96MOL0     C13173  10.635   6.810  -0.117  0.0139 -0.5079 -0.2799
   96MOL0     C13174  10.628   6.886  -0.238  1.1710  0.2715  0.7927
   96MOL0     C13175  10.608   6.952  -0.339 -0.3769  0.8365  0.2253
   96MOL0     C13176  11.168   6.758   0.217 -0.5596  0.0116  0.3142
   96MOL0     C13177  11.265   6.781   0.315 -0.1562 -0.4557  0.0300
   96MOL0     C13178  11.309   6.645   0.369  0.5902  0.0871 -0.1974
   96MOL0     H13179  11.649   7.090   0.420  2.5439  1.4142 -0.3836
   96MOL0     H13180  11.829   7.179   0.566 -0.1676 -1.4674  1.2444
   96MOL0     H13181  11.907   7.172   0.999  3.7312  2.8682 -0.1845
   96MOL0     H13182  11.733   7.196   1.006  1.5093  0.5066  2.0424
   96MOL0     H13183  11.810   7.434   0.925 -2.4398 -0.3551  1.1510
   96MOL0     H13184  11.806   7.397   1.099  2.3096  0.8861  1.5392
   96MOL0     H13185  12.074   7.348   0.972 -1.6081  0.6090 -3.4243
   96MOL0     H13186  12.026   7.511   1.026  1.2878 -0.2466 -2.8992
   96MOL0     H13187  11.959   7.414   1.250  0.0407  1.4660 -3.4759
   96MOL0     H13188  12.003   7.251   1.188 -0.6852 -0.0672 -0.3321
   96MOL0     H13189  12.194   7.494   1.220 -2.3041  0.3279 -3.0974
   96MOL0     H13190  12.244   7.344   1.156  2.9613  2.5367  1.8999
   96MOL0     H13191  12.175   7.407   1.447  0.4450  0.3959  0.5791
   96MOL0     H13192  12.169   7.247   1.394 -0.6298  0.9672  0.2338
   96MOL0     H13193  12.408   7.328   1.490  1.1624  0.6709 -0.3799
   96MOL0     H13194  12.425   7.430   1.349  4.5445 -0.3642  1.3096
   96MOL0     H13195  12.376   7.134   1.351 -1.6367  0.3251  1.2508
   96MOL0     H13196  12.403   7.204   1.206 -1.9048  1.3987  0.4849
   96MOL0     H13197  12.673   7.379   1.274  0.9604  1.7178  4.8752
   96MOL0     H13198  12.980   7.258   1.330 -0.0064  0.6381  0.1649
   96MOL0     H13199  12.969   7.240   1.495 -0.7172 -1.6763 -0.3155
   96MOL0     H13200  13.015   7.469   1.413 -0.2890  1.2891  3.7882
   96MOL0     H13201  12.850   7.482   1.344  4.2458  2.4963 -2.2263
   96MOL0     H13202  12.761   7.459   1.573 -0.3318 -1.7806  0.0243
   96MOL0     H13203  12.920   7.402   1.627 -3.3052 -3.5262 -0.8593
   96MOL0     H13204  12.898   7.623   1.709  0.4201 -0.3785 -0.2948
   96MOL0     H13205  13.019   7.609   1.569 -0.8920 -1.3482 -2.7031
   96MOL0     H13206  12.681   7.644   1.720 -1.0507 -1.3567  0.7583
   96MOL0     H13207  12.487   7.641   1.853  0.8701  1.4104 -0.0895
   96MOL0     H13208  12.364   7.558   1.759 -2.4853  1.4052 -0.8965
   96MOL0     H13209  12.350   7.723   1.795 -1.4265 -0.1771 -3.6632
   96MOL0     H13210  12.091   7.609   1.369 -2.3129 -2.1709  0.6377
   96MOL0     H13211  11.841   7.602   1.302 -0.3554 -0.5325  1.3599
   96MOL0     H13212  11.744   7.636   1.089  0.6897  0.2738  1.0548
   96MOL0     H13213  11.600   7.628   1.200 -0.8910 -0.9497 -1.3489
   96MOL0     H13214  11.494   7.794   1.052  1.7182  1.0506  1.9642
   96MOL0     H13215  11.640   7.786   0.953  1.1702  0.6045  0.9159
   96MOL0     H13216  11.474   7.544   1.010  1.3029  0.6779  1.7118
   96MOL0     H13217  11.602   7.554   0.892  0.4969 -0.6902  0.3692
   96MOL0     H13218  11.443   7.777   0.798 -0.4503  0.2678 -0.5824
   96MOL0     H13219  11.319   7.699   0.894  0.3361  1.7270 -0.3379
   96MOL0     H13220  11.343   7.666   0.646  0.2472  0.3205  1.8405
   96MOL0     H13221  11.487   7.565   0.683  0.3417 -0.3160 -0.5930
   96MOL0     H13222  11.195   7.503   0.776  0.7776 -0.1496 -0.2262
   96MOL0     H13223  11.332   7.410   0.822 -1.3676 -0.8170  0.6614
   96MOL0     H13224  11.348   7.338   0.591 -0.9261  0.4750 -1.3308
   96MOL0     H13225  11.275   7.490   0.520 -1.5751  2.0076  0.5538
   96MOL0     H13226  11.117   7.308   0.482  0.0531  2.0041 -1.2227
   96MOL0     H13227  11.058   7.422   0.592 -0.0277  1.2200 -1.7518
   96MOL0     H13228  11.852   8.011   1.224  1.1803  0.4850 -1.5654
   96MOL0     H13229  12.095   8.027   1.316  1.4245 -0.4896 -2.2668
   96MOL0     H13230  12.472   7.860   1.335 -2.4965  0.9811  2.3709
   96MOL0     H13231  12.711   7.824   1.338 -0.6628  1.7198  0.4760
   96MOL0     H13232  11.571   7.240   0.888  1.5922  0.7310  0.0787
   96MOL0     H13233  11.380   7.149   0.758  0.2424 -1.6656  2.3962
   96MOL0     H13234  11.255   7.125   0.302 -0.5928 -0.3799 -0.1780
   96MOL0     H13235  11.112   7.074   0.114  0.6456 -2.4139 -2.1498
   96MOL0     H13236  11.077   6.659  -0.036  1.2944  2.8701 -0.6454
   96MOL0     H13237  10.959   6.666   0.093  0.1047  2.2206 -0.1350
   96MOL0     H13238  10.838   6.634  -0.113  1.6430 -0.2121  0.3019
   96MOL0     H13239  10.901   6.789  -0.183 -0.9002  1.0739 -0.5259
   96MOL0     H13240  10.740   6.787   0.066 -2.6778 -0.4007 -0.4901
   96MOL0     H13241  10.785   6.927  -0.022  1.0036  0.1885 -1.3513
   96MOL0     H13242  10.543   6.826  -0.060 -0.4508 -1.0367 -0.8555
   96MOL0     H13243  10.632   6.703  -0.141 -1.8166 -0.6241  0.2506
   96MOL0     H13244  10.581   7.005  -0.428  2.2911  0.2892 -1.0171
   96MOL0     H13245  11.146   6.652   0.208 -0.8131 -0.2424  3.0422
   96MOL0     H13246  11.320   6.566   0.294 -3.3883  0.0796 -1.0154
   96MOL0     H13247  11.391   6.635   0.440 -0.3346 -2.7707  0.6074
   96MOL0     H13248  11.218   6.622   0.426  0.3024  0.3562 -0.5375
   97MOL0     O13249   1.716   0.762   4.355 -0.0994  0.4665  0.6031
   97MOL0     C13250   1.610   0.702   4.357  0.8426  0.7536 -0.1227
   97MOL0     O13251   1.574   0.607   4.263  0.1199 -0.1576 -0.2086
   97MOL0     C13252   1.652   0.612   4.153  0.0184  0.2101  0.1589
   97MOL0     C13253   1.628   0.707   4.046 -0.1344 -0.2670 -0.4042
   97MOL0     C13254   1.702   0.696   3.929 -0.1324 -0.2073 -0.6417
   97MOL0     C13255   1.789   0.586   3.919  0.2871 -0.2946 -0.1423
   97MOL0     O13256   1.879   0.573   3.818  0.0169 -0.6825 -0.5632
   97MOL0     C13257   1.817   0.535   3.694 -0.0930 -0.1675 -0.0206
   97MOL0     C13258   1.927   0.507   3.593 -0.0982  1.0921 -0.3973
   97MOL0     C13259   1.934   0.358   3.535  0.6032 -0.7807 -1.2608
   97MOL0     C13260   2.034   0.330   3.421  0.2439  0.0874 -0.3632
   97MOL0     C13261   1.999   0.193   3.362 -0.4995 -0.7952  0.0969
   97MOL0     C13262   2.003   0.075   3.468 -0.0161  0.0118 -0.0036
   97MOL0     C13263   1.976  -0.060   3.394 -0.1241  0.3151  0.3579
   97MOL0     C13264   2.060  -0.113   3.271 -0.3066  0.1509  0.5537
   97MOL0     N13265   2.200  -0.077   3.294 -0.7902  0.4761  0.0285
   97MOL0     C13266   2.289  -0.007   3.217 -0.3580  0.6208 -0.0635
   97MOL0     C13267   2.407  -0.003   3.282  0.7280  0.2737  0.3636
   97MOL0     C13268   2.528   0.058   3.215 -0.0066 -0.2340  0.2056
   97MOL0     C13269   2.621   0.105   3.324  0.6174 -0.8981 -0.4657
   97MOL0     C13270   2.580   0.247   3.372  0.5456  0.0217  0.4488
   97MOL0     C13271   2.480   0.252   3.483 -1.3020  0.4256 -0.8231
   97MOL0     O13272   2.488   0.379   3.548 -0.3585 -0.4350  0.0168
   97MOL0     C13273   2.423   0.389   3.667 -0.9463 -0.4472  0.6653
   97MOL0     C13274   2.313   0.316   3.713 -0.6350 -0.2270 -0.3190
   97MOL0     C13275   2.263   0.335   3.836  0.4834  0.5676  0.8944
   97MOL0     C13276   2.147   0.238   3.870 -0.0451 -0.0812 -0.2400
   97MOL0     C13277   2.319   0.428   3.929  0.4705 -0.2384  0.8187
   97MOL0     C13278   2.269   0.455   4.067 -0.4927 -0.3465 -0.4211
   97MOL0     O13279   2.295   0.580   4.117  0.3508  0.1315 -0.7602
   97MOL0     C13280   2.244   0.634   4.230 -0.8602  0.0439 -0.6888
   97MOL0     C13281   2.335   0.684   4.329  0.4014 -0.6222  0.8794
   97MOL0     C13282   2.277   0.743   4.446  0.2481  0.7108  0.0103
   97MOL0     C13283   2.136   0.749   4.471  1.8106  0.5629 -0.7121
   97MOL0     O13284   2.067   0.827   4.571  0.2372 -0.3424 -0.7165
   97MOL0     C13285   2.080   0.968   4.547 -0.4775  0.0878 -0.4241
   97MOL0     C13286   2.120   1.053   4.669 -0.2073  0.3767  0.0818
   97MOL0     C13287   2.028   1.037   4.789  0.1158  0.2947 -0.3605
   97MOL0     C13288   1.962   1.171   4.828 -0.3607  0.3634  0.0842
   97MOL0     C13289   1.923   1.179   4.984  0.7692 -0.3753 -0.2727
   97MOL0     C13290   2.035   1.157   5.091  0.4564  0.6426 -0.2235
   97MOL0     C13291   1.991   1.190   5.239 -0.4221 -0.2589  0.2038
   97MOL0     C13292   1.884   1.097   5.309  0.0985  0.2214  0.5993
   97MOL0    Cl13293   1.949   0.929   5.340  0.4800  0.4983  0.0143
   97MOL0     C13294   2.057   0.700   4.369  0.4623  1.0575  1.1079
   97MOL0     C13295   2.108   0.641   4.257 -0.6250  0.0523 -0.8201
   97MOL0     O13296   2.194   0.370   4.113  0.2789  0.2094 -0.2056
   97MOL0     C13297   2.414   0.511   3.881  0.3643  0.0799 -0.3617
   97MOL0     C13298   2.462   0.493   3.748 -0.1816 -0.1844 -0.2364
   97MOL0     N13299   2.400  -0.074   3.396  0.5980 -0.0016  0.0132
   97MOL0     N13300   2.284  -0.128   3.386  0.1523  0.4831  0.1222
   97MOL0     C13301   1.809   0.493   4.022 -0.3264 -0.5190  0.4484
   97MOL0     C13302   1.734   0.501   4.136  0.4354 -0.7183  0.2624
   97MOL0     C13303   1.516   0.717   4.470  0.1164  0.4779 -0.0896
   97MOL0     C13304   1.376   0.699   4.441  0.0386 -0.4037 -0.4921
   97MOL0     C13305   1.278   0.696   4.538 -0.0931  0.5299  0.2874
   97MOL0     C13306   1.307   0.702   4.671  0.2235 -1.0673 -0.7301
   97MOL0     O13307   1.217   0.675   4.765  0.2345  0.0150  0.1351
   97MOL0     C13308   1.209   0.746   4.893 -0.4381 -0.1490 -0.4670
   97MOL0     C13309   1.148   0.878   4.878 -0.2839  0.3177  0.3990
   97MOL0     C13310   1.023   0.872   4.784 -1.3628 -0.2720  0.5089
   97MOL0     C13311   0.929   0.993   4.794  0.5983  0.6707 -0.5884
   97MOL0     C13312   0.996   1.122   4.798 -0.7642  0.6865 -0.0489
   97MOL0     C13313   1.057   1.224   4.790  0.2419  0.9867  0.0658
   97MOL0     C13314   1.436   0.744   4.708 -1.8042  0.9399  0.8137
   97MOL0     C13315   1.545   0.747   4.609 -0.6526  0.6136 -0.5489
   97MOL0     C13316   1.675   0.797   4.653 -0.0796 -0.0716 -0.0841
   97MOL0     H13317   1.561   0.790   4.066  0.8239  0.5054 -0.3188
   97MOL0     H13318   1.707   0.775   3.855 -1.3944  0.5316  0.0190
   97MOL0     H13319   1.749   0.613   3.658 -1.2402 -1.2662 -0.2888
   97MOL0     H13320   1.753   0.447   3.697  0.1615 -0.4143 -1.3174
   97MOL0     H13321   1.931   0.586   3.518  2.4248  1.7140  0.2861
   97MOL0     H13322   2.022   0.524   3.645  0.0995 -2.8909  0.9416
   97MOL0     H13323   1.966   0.300   3.622 -1.0461 -2.2979 -1.6061
   97MOL0     H13324   1.835   0.337   3.492 -0.1185  3.6504 -2.3031
   97MOL0     H13325   2.030   0.403   3.339 -0.2096  2.8963  1.9942
   97MOL0     H13326   2.138   0.340   3.452  0.4994  1.5291 -1.6084
   97MOL0     H13327   2.067   0.171   3.279 -1.0029 -1.3211 -0.1831
   97MOL0     H13328   1.900   0.199   3.318  0.5542 -0.6058 -2.3960
   97MOL0     H13329   2.098   0.080   3.522  0.0605  2.0104 -0.2565
   97MOL0     H13330   1.936   0.074   3.554  1.2248  2.7674  1.1299
   97MOL0     H13331   1.872  -0.075   3.364 -0.8346  3.8318  0.5884
   97MOL0     H13332   1.994  -0.134   3.473 -1.7418  0.8821  1.3225
   97MOL0     H13333   2.047  -0.221   3.255  0.2202  0.3052 -1.0225
   97MOL0     H13334   2.024  -0.070   3.178 -0.9101 -0.0664  0.6794
   97MOL0     H13335   2.284   0.049   3.124  1.9118  0.5943 -0.2551
   97MOL0     H13336   2.498   0.145   3.156 -0.4912 -1.9278 -2.2320
   97MOL0     H13337   2.593  -0.011   3.159  0.7506  0.6694 -0.0486
   97MOL0     H13338   2.613   0.037   3.409 -2.4655  0.9707  0.9463
   97MOL0     H13339   2.721   0.113   3.281 -0.2031  3.6339 -2.1223
   97MOL0     H13340   2.672   0.290   3.412  1.2701 -0.9792 -0.0844
   97MOL0     H13341   2.551   0.322   3.297  1.4171 -1.1944 -1.1677
   97MOL0     H13342   2.379   0.230   3.446 -1.7097 -0.7589  0.8438
   97MOL0     H13343   2.518   0.179   3.555  1.6831  1.4973 -1.1670
   97MOL0     H13344   2.286   0.226   3.658 -0.7163 -1.1540  1.1908
   97MOL0     H13345   2.050   0.288   3.878  0.3975  0.5983  1.3887
   97MOL0     H13346   2.162   0.195   3.969  1.6256 -0.3596 -0.5822
   97MOL0     H13347   2.140   0.153   3.802  1.3921  1.0487 -1.9209
   97MOL0     H13348   2.443   0.677   4.322  0.3053 -3.8858  1.0855
   97MOL0     H13349   2.339   0.777   4.528 -1.9050 -1.3475  2.7248
   97MOL0     H13350   2.163   0.990   4.478  1.2555  1.3040  1.8890
   97MOL0     H13351   1.989   0.998   4.495 -0.7179 -0.3883 -0.2772
   97MOL0     H13352   2.219   1.021   4.703 -0.1140  2.1487  1.6123
   97MOL0     H13353   2.125   1.154   4.628 -0.0964  1.1053  1.8078
   97MOL0     H13354   2.093   1.013   4.874  0.5239 -2.7145 -1.4096
   97MOL0     H13355   1.943   0.969   4.778 -1.9592  2.1024  2.9575
   97MOL0     H13356   1.875   1.182   4.763 -0.8362 -0.5796  0.5474
   97MOL0     H13357   2.020   1.261   4.805 -0.6028  0.4224 -0.2917
   97MOL0     H13358   1.897   1.284   4.999 -0.5417 -0.7207  0.0338
   97MOL0     H13359   1.833   1.120   5.006  1.5173 -1.0600  1.0152
   97MOL0     H13360   2.120   1.220   5.061  0.6593  0.2584 -0.4645
   97MOL0     H13361   2.060   1.051   5.094  0.6343  0.6763 -0.4557
   97MOL0     H13362   1.948   1.291   5.234 -1.2382 -0.5318 -5.3090
   97MOL0     H13363   2.074   1.183   5.309 -0.9015 -2.7021  0.6157
   97MOL0     H13364   1.798   1.081   5.244 -1.0178  0.8506  1.8748
   97MOL0     H13365   1.856   1.147   5.402 -1.2489  1.5363 -0.4665
   97MOL0     H13366   1.950   0.714   4.365  0.1816 -0.9793  0.2117
   97MOL0     H13367   2.036   0.610   4.182  1.4464 -1.0359 -2.4428
   97MOL0     H13368   2.452   0.592   3.942  0.5193 -0.6257  0.4982
   97MOL0     H13369   2.542   0.557   3.711  1.8833 -3.1163 -1.2636
   97MOL0     H13370   1.877   0.416   3.988  0.4477  0.5418 -0.4851
   97MOL0     H13371   1.734   0.422   4.210  0.6196  1.7981  3.1369
   97MOL0     H13372   1.353   0.688   4.335  1.5648 -0.3949 -0.8426
   97MOL0     H13373   1.174   0.679   4.510 -0.0248  2.7840 -1.7133
   97MOL0     H13374   1.148   0.700   4.972  0.8874  0.4397  0.9506
   97MOL0     H13375   1.308   0.752   4.939  0.4964 -3.4166 -1.7843
   97MOL0     H13376   1.225   0.951   4.850 -0.7477  0.5931 -0.1816
   97MOL0     H13377   1.111   0.922   4.971  3.0187  4.6965  0.0124
   97MOL0     H13378   1.055   0.878   4.679  3.3628  1.3683  1.7850
   97MOL0     H13379   0.958   0.784   4.792 -0.8285 -0.6708  0.4896
   97MOL0     H13380   0.879   0.983   4.891  1.4029 -1.3959 -0.3350
   97MOL0     H13381   0.856   0.988   4.713 -0.1378 -0.3220  0.1156
   97MOL0     H13382   1.114   1.315   4.792  1.3509  0.3334 -0.7494
   97MOL0     H13383   1.464   0.776   4.808  0.1333 -1.1651  1.0395
   97MOL0     H13384   1.685   0.780   4.761  0.3560 -0.2665 -0.1500
   97MOL0     H13385   1.761   0.739   4.618 -0.9148 -3.2305  2.5876
   97MOL0     H13386   1.685   0.904   4.632  0.9224 -0.1672 -0.1529
   98MOL0     O13387  11.097   0.604   2.350  0.3518 -0.3575  0.4438
   98MOL0     C13388  11.101   0.725   2.323  0.1138  0.0706  0.4670
   98MOL0     O13389  11.027   0.818   2.390 -0.2486 -0.0248  0.0394
   98MOL0     C13390  10.949   0.762   2.488  1.0763 -0.0775  0.5254
   98MOL0     C13391  10.808   0.757   2.469  0.0702  0.2793 -0.9370
   98MOL0     C13392  10.723   0.712   2.572  0.4358 -0.2100  0.5008
   98MOL0     C13393  10.786   0.675   2.696 -0.2330 -0.8679  0.3958
   98MOL0     O13394  10.709   0.627   2.803 -0.3800 -0.3847 -0.5998
   98MOL0     C13395  10.640   0.508   2.784 -0.5736 -0.3464 -0.4996
   98MOL0     C13396  10.642   0.415   2.906 -0.1623 -0.9010  0.9573
   98MOL0     C13397  10.790   0.377   2.935 -0.6605 -0.1734 -0.0224
   98MOL0     C13398  10.841   0.470   3.054  1.0490  0.1409  0.1461
   98MOL0     C13399  10.974   0.408   3.098 -0.1695  0.1547 -0.3807
   98MOL0     C13400  10.966   0.267   3.163  0.2934  0.7246  0.2553
   98MOL0     C13401  11.085   0.245   3.260  0.1582 -0.3538  0.1330
   98MOL0     C13402  11.080   0.116   3.350 -0.2379  0.1532  0.2743
   98MOL0     N13403  11.062  -0.011   3.281 -0.6699  0.2639 -0.5454
   98MOL0     C13404  10.943  -0.075   3.241  0.2257 -0.1436  0.3749
   98MOL0     C13405  10.993  -0.168   3.164  0.1007 -0.2607  0.3151
   98MOL0     C13406  10.911  -0.275   3.093 -0.5401  0.0167 -0.4283
   98MOL0     C13407  10.908  -0.254   2.943  0.4371 -0.1351  1.0290
   98MOL0     C13408  10.798  -0.344   2.878  0.0151 -0.9660 -0.1107
   98MOL0     C13409  10.841  -0.496   2.886  1.0052  0.7097 -0.0465
   98MOL0     O13410  10.745  -0.563   2.801  0.1629 -0.5315  0.0348
   98MOL0     C13411  10.672  -0.663   2.856 -0.6839  0.2075 -0.7157
   98MOL0     C13412  10.656  -0.781   2.779  0.1700 -0.1800 -0.2083
   98MOL0     C13413  10.599  -0.891   2.826 -0.0041  0.3671  0.2162
   98MOL0     C13414  10.587  -1.011   2.738  0.1321 -0.2268 -0.4514
   98MOL0     C13415  10.557  -0.898   2.967 -0.3464  0.0928 -0.5421
   98MOL0     C13416  10.517  -1.011   3.049  0.5692  0.3436 -0.3388
   98MOL0     O13417  10.466  -1.120   2.979 -0.9783  0.6590  0.3471
   98MOL0     C13418  10.372  -1.189   3.048 -0.1229 -1.0406  0.1411
   98MOL0     C13419  10.382  -1.269   3.160 -0.3576  0.7673  0.2501
   98MOL0     C13420  10.277  -1.316   3.229  0.1938 -0.1995  0.8337
   98MOL0     C13421  10.145  -1.288   3.188 -0.2938  0.4929 -1.1101
   98MOL0     O13422  10.029  -1.339   3.230 -0.2228  0.0692 -0.0844
   98MOL0     C13423  10.026  -1.466   3.304 -1.5551 -0.3580  0.1066
   98MOL0     C13424   9.883  -1.503   3.313 -0.2422 -0.1849  1.1032
   98MOL0     C13425   9.870  -1.643   3.376 -0.4581  0.8295 -0.7203
   98MOL0     C13426   9.730  -1.699   3.374  0.0283 -0.5054  0.1525
   98MOL0     C13427   9.713  -1.836   3.454 -1.3492 -0.5348 -0.8547
   98MOL0     C13428   9.579  -1.900   3.416  0.1197 -0.3213 -0.1571
   98MOL0     C13429   9.558  -2.017   3.518  0.7692  0.0475  0.8052
   98MOL0     C13430   9.422  -2.093   3.510 -0.4305 -1.0258  0.7309
   98MOL0    Cl13431   9.384  -2.123   3.328 -0.1828 -0.0152  0.7233
   98MOL0     C13432  10.125  -1.205   3.082 -0.1939 -0.2737 -0.2530
   98MOL0     C13433  10.237  -1.157   3.013 -0.2370 -0.2388  0.3588
   98MOL0     O13434  10.539  -1.018   3.175  0.1106  0.5279 -0.2644
   98MOL0     C13435  10.558  -0.777   3.036 -1.0045 -0.2772  1.2821
   98MOL0     C13436  10.605  -0.658   2.980 -0.6482 -0.1555  0.3811
   98MOL0     N13437  11.130  -0.179   3.179 -0.0719  0.1115  0.7605
   98MOL0     N13438  11.172  -0.083   3.246  0.8525  0.2280  0.2438
   98MOL0     C13439  10.923   0.678   2.717  0.9615  0.4780 -1.1426
   98MOL0     C13440  11.000   0.707   2.605 -0.9659 -0.2345 -0.6848
   98MOL0     C13441  11.170   0.767   2.195  0.6210  0.0738  0.5468
   98MOL0     C13442  11.149   0.906   2.165  0.8593 -0.1681  0.7777
   98MOL0     C13443  11.216   0.980   2.057 -0.7253  0.5531 -0.9905
   98MOL0     C13444  11.303   0.910   1.980 -0.9935 -0.5146 -0.3482
   98MOL0     O13445  11.361   0.987   1.886 -0.7078  0.5941  0.6041
   98MOL0     C13446  11.503   0.976   1.900 -0.2016 -0.7365  0.1037
   98MOL0     C13447  11.566   0.941   1.769  0.9686  0.6130 -0.1566
   98MOL0     C13448  11.524   1.044   1.660 -0.3146  0.0503 -0.8180
   98MOL0     C13449  11.619   1.018   1.539 -0.6670 -0.3614  0.6417
   98MOL0     C13450  11.574   1.024   1.402  0.6930  0.2722  0.5342
   98MOL0     C13451  11.526   1.042   1.290  0.1138 -0.0025 -0.7122
   98MOL0     C13452  11.320   0.767   1.996 -0.7120  0.4210 -0.5063
   98MOL0     C13453  11.261   0.703   2.103 -0.2983  1.2601 -0.7271
   98MOL0     C13454  11.294   0.552   2.120  0.8010  0.4104 -0.1550
   98MOL0     H13455  10.779   0.798   2.372 -0.6380 -0.8202 -1.2019
   98MOL0     H13456  10.619   0.732   2.548  0.8165  1.7913  0.3744
   98MOL0     H13457  10.663   0.459   2.689 -0.0872 -0.1497 -0.4863
   98MOL0     H13458  10.533   0.533   2.780 -0.6279 -0.3060  0.6762
   98MOL0     H13459  10.608   0.475   2.991  4.2279  2.0058  1.0031
   98MOL0     H13460  10.573   0.331   2.890 -2.8826  0.9408  2.1546
   98MOL0     H13461  10.806   0.270   2.948  2.2765 -0.2771 -3.1786
   98MOL0     H13462  10.845   0.392   2.842 -0.1220 -3.4466 -0.3324
   98MOL0     H13463  10.863   0.574   3.028 -1.7040  0.4791 -1.1583
   98MOL0     H13464  10.766   0.462   3.133 -1.2051 -1.6599 -1.9952
   98MOL0     H13465  10.997   0.459   3.192 -1.3983 -2.5627  1.5418
   98MOL0     H13466  11.052   0.416   3.021  0.9799  0.0297  0.7208
   98MOL0     H13467  10.873   0.266   3.221 -0.8551 -0.3467 -1.4919
   98MOL0     H13468  10.957   0.182   3.094 -0.1030  1.4962 -0.6715
   98MOL0     H13469  11.080   0.324   3.335 -3.4416 -2.0728  1.9494
   98MOL0     H13470  11.176   0.247   3.198 -1.0953 -1.1270 -1.8457
   98MOL0     H13471  11.173   0.116   3.406  0.4153  3.7231 -0.5789
   98MOL0     H13472  10.997   0.130   3.421 -0.4772 -0.9468  0.2288
   98MOL0     H13473  10.842  -0.038   3.253  0.6698  0.8241  1.2426
   98MOL0     H13474  10.811  -0.280   3.137 -1.2290 -0.4171 -1.9930
   98MOL0     H13475  10.967  -0.367   3.117  0.3944  0.6908  0.0503
   98MOL0     H13476  10.866  -0.158   2.912  1.5156 -0.5704 -2.1674
   98MOL0     H13477  11.003  -0.268   2.891  0.0137  0.2213  0.1348
   98MOL0     H13478  10.702  -0.324   2.926 -0.2337  0.2413 -1.0443
   98MOL0     H13479  10.788  -0.314   2.773  0.8854  3.6698  0.9080
   98MOL0     H13480  10.938  -0.509   2.838  0.3281 -3.3992 -0.7091
   98MOL0     H13481  10.847  -0.537   2.987 -2.2454  0.1922  0.0456
   98MOL0     H13482  10.691  -0.781   2.676  0.5718  0.8326 -0.0836
   98MOL0     H13483  10.616  -0.980   2.637 -1.4131  2.2350 -0.1950
   98MOL0     H13484  10.487  -1.053   2.729  1.4631 -3.2738 -4.3310
   98MOL0     H13485  10.657  -1.088   2.774  1.3092 -0.0352 -2.1759
   98MOL0     H13486  10.478  -1.288   3.208 -0.0375  0.6139 -0.4302
   98MOL0     H13487  10.274  -1.378   3.319 -0.6410  0.0517  0.9842
   98MOL0     H13488  10.069  -1.553   3.254 -3.1554 -1.2589  0.2153
   98MOL0     H13489  10.059  -1.459   3.408 -0.8643  1.4370 -0.1997
   98MOL0     H13490   9.819  -1.439   3.375 -1.1920  0.3384 -0.3731
   98MOL0     H13491   9.843  -1.500   3.212 -1.8866 -1.1834  1.6887
   98MOL0     H13492   9.900  -1.629   3.481 -2.2463  2.5902 -0.3910
   98MOL0     H13493   9.935  -1.716   3.328  1.7283  1.5995  0.8881
   98MOL0     H13494   9.689  -1.706   3.272 -2.2154 -1.2850  1.0270
   98MOL0     H13495   9.673  -1.626   3.432  1.7840  0.9491  0.0920
   98MOL0     H13496   9.793  -1.906   3.428 -0.8456  0.5814 -2.4820
   98MOL0     H13497   9.730  -1.824   3.561  3.2050  0.3029 -1.4739
   98MOL0     H13498   9.567  -1.922   3.309 -0.3111  2.2074 -0.6973
   98MOL0     H13499   9.499  -1.826   3.431  1.5373  1.5172 -1.1827
   98MOL0     H13500   9.554  -1.975   3.619 -4.7342  0.4255  0.7440
   98MOL0     H13501   9.641  -2.084   3.491 -0.1423 -0.1216 -1.8335
   98MOL0     H13502   9.343  -2.026   3.545 -1.4290 -1.1661 -1.1265
   98MOL0     H13503   9.422  -2.180   3.576  1.6570 -0.7898  1.1069
   98MOL0     H13504  10.023  -1.195   3.045 -0.5595 -1.1546  0.4609
   98MOL0     H13505  10.216  -1.106   2.919  0.6475  0.3390  0.4617
   98MOL0     H13506  10.517  -0.779   3.136 -2.1209 -0.4834  0.8340
   98MOL0     H13507  10.607  -0.574   3.048 -0.0993  0.4533 -0.3679
   98MOL0     H13508  10.970   0.658   2.813 -3.2919  0.0976  1.0677
   98MOL0     H13509  11.108   0.703   2.617 -0.8000 -3.5390 -2.1767
   98MOL0     H13510  11.079   0.961   2.228  1.6206 -0.0826  1.5581
   98MOL0     H13511  11.201   1.087   2.051 -4.3381  0.3163  0.6822
   98MOL0     H13512  11.534   1.074   1.936 -2.0354 -1.4177  4.1068
   98MOL0     H13513  11.534   0.904   1.976 -1.9587 -0.3849  1.1888
   98MOL0     H13514  11.529   0.840   1.746  0.9697  1.0563 -2.3217
   98MOL0     H13515  11.675   0.937   1.780  1.0688  1.0487 -0.9373
   98MOL0     H13516  11.420   1.021   1.635 -0.7763  0.7615  0.3692
   98MOL0     H13517  11.517   1.150   1.689  1.4369  0.8300 -2.9669
   98MOL0     H13518  11.645   0.913   1.553  2.7495  0.0927 -1.1183
   98MOL0     H13519  11.714   1.071   1.548 -0.1686 -0.9546 -0.8454
   98MOL0     H13520  11.491   1.050   1.189 -1.5957 -1.6245 -0.3119
   98MOL0     H13521  11.387   0.710   1.933 -1.3504 -0.4407 -0.4336
   98MOL0     H13522  11.366   0.535   2.201 -2.3190 -1.0746  2.5606
   98MOL0     H13523  11.207   0.489   2.140  1.1499  0.0147  0.1381
   98MOL0     H13524  11.336   0.511   2.028  1.8737 -0.4313  0.6845
   99MOL0     O13525   8.995   2.167   3.389 -0.1102 -0.5089 -0.0082
   99MOL0     C13526   8.963   2.048   3.401 -0.4087  0.0538  0.4318
   99MOL0     O13527   8.859   1.991   3.328  0.7981  0.1341 -0.2920
   99MOL0     C13528   8.759   2.063   3.270 -0.7788 -0.3429 -0.0940
   99MOL0     C13529   8.688   2.165   3.337 -0.1348  0.6149 -0.4132
   99MOL0     C13530   8.575   2.222   3.282  0.3689 -0.2506 -0.5551
   99MOL0     C13531   8.525   2.172   3.171 -0.4248 -0.4211  0.2063
   99MOL0     O13532   8.409   2.230   3.123 -0.0415  0.0691  0.4704
   99MOL0     C13533   8.281   2.170   3.154 -0.5026 -0.3963  0.1429
   99MOL0     C13534   8.176   2.281   3.142 -0.3114 -0.2796  0.6040
   99MOL0     C13535   8.159   2.355   2.998 -0.0642  0.8913  0.7836
   99MOL0     C13536   8.038   2.454   2.990 -0.6693 -0.3198  0.2187
   99MOL0     C13537   8.057   2.569   2.903  0.2066  0.1172  0.2870
   99MOL0     C13538   7.927   2.664   2.896 -0.0944  0.6699  0.1819
   99MOL0     C13539   7.793   2.593   2.896 -1.2483 -0.1269  0.1664
   99MOL0     C13540   7.672   2.687   2.866  0.2920  0.4411 -0.1372
   99MOL0     N13541   7.662   2.786   2.968 -0.5437 -0.0462  0.0173
   99MOL0     C13542   7.608   2.779   3.096 -0.1500  0.6305 -1.2278
   99MOL0     C13543   7.618   2.897   3.149  0.6211 -0.1020 -0.3967
   99MOL0     C13544   7.602   2.925   3.297  0.2508  0.9285  0.2357
   99MOL0     C13545   7.503   3.040   3.320  0.5602  0.3994 -0.3402
   99MOL0     C13546   7.566   3.184   3.297  0.7277 -0.7388 -0.2049
   99MOL0     C13547   7.483   3.296   3.339  1.1444 -0.7307 -0.3999
   99MOL0     O13548   7.367   3.288   3.260 -0.1327 -0.2058 -0.1012
   99MOL0     C13549   7.344   3.389   3.164 -0.0789 -0.1851 -0.5725
   99MOL0     C13550   7.245   3.489   3.187 -0.9696  0.6628  0.1600
   99MOL0     C13551   7.204   3.578   3.095 -0.4406  0.9778 -0.7504
   99MOL0     C13552   7.093   3.663   3.127  0.5068 -0.3582 -0.1336
   99MOL0     C13553   7.279   3.583   2.968 -0.2859  0.1119 -0.0385
   99MOL0     C13554   7.256   3.669   2.850 -0.7113 -0.1372 -0.5264
   99MOL0     O13555   7.329   3.657   2.737  0.6343  0.4458 -0.6010
   99MOL0     C13556   7.282   3.743   2.638 -0.8375  0.8337 -0.7452
   99MOL0     C13557   7.230   3.698   2.522  0.1709  1.1633 -0.4373
   99MOL0     C13558   7.167   3.775   2.429  0.6757 -0.0651  0.6373
   99MOL0     C13559   7.155   3.922   2.454 -0.0782 -0.2904 -1.0604
   99MOL0     O13560   7.104   4.015   2.370  0.0835 -0.0025  0.3913
   99MOL0     C13561   7.091   3.969   2.235  0.6668  0.0432 -0.8576
   99MOL0     C13562   6.964   3.875   2.216 -0.5824  0.1648  0.4396
   99MOL0     C13563   6.838   3.942   2.158  0.6497 -0.1001 -0.2800
   99MOL0     C13564   6.741   3.847   2.097 -0.9724 -0.3834 -0.5703
   99MOL0     C13565   6.614   3.921   2.066  0.7760  0.3284  1.0304
   99MOL0     C13566   6.512   3.840   1.976  0.4073  0.1491 -0.0635
   99MOL0     C13567   6.363   3.887   1.992  0.1709 -0.9463 -0.1439
   99MOL0     C13568   6.263   3.774   1.966  0.2190 -0.3158  0.0811
   99MOL0    Cl13569   6.097   3.848   1.948  0.0956 -0.0751  0.4361
   99MOL0     C13570   7.218   3.969   2.579  1.1620  0.0394 -0.4650
   99MOL0     C13571   7.283   3.882   2.665  0.3304  0.3329  0.3571
   99MOL0     O13572   7.164   3.748   2.871  0.5665  0.1028 -0.5802
   99MOL0     C13573   7.372   3.483   2.942 -0.1770  0.4084  0.4435
   99MOL0     C13574   7.405   3.389   3.039 -0.3684  0.2855 -0.1615
   99MOL0     N13575   7.666   2.982   3.056 -1.1482 -0.6227  0.5108
   99MOL0     N13576   7.687   2.923   2.945 -0.7937  1.0869 -0.6289
   99MOL0     C13577   8.592   2.073   3.095 -0.1538 -0.6531  0.5403
   99MOL0     C13578   8.706   2.017   3.148 -0.8044 -0.2156 -0.6824
   99MOL0     C13579   9.047   1.955   3.480 -0.1948  0.0232 -0.2205
   99MOL0     C13580   9.032   1.815   3.452  0.8409 -0.2687 -0.5091
   99MOL0     C13581   9.104   1.718   3.522 -0.2756 -0.0364  0.1848
   99MOL0     C13582   9.199   1.759   3.619 -0.3666 -0.0058 -0.1598
   99MOL0     O13583   9.260   1.680   3.717 -0.6892  0.0236 -0.1629
   99MOL0     C13584   9.239   1.535   3.712  0.3303 -0.6177 -0.8811
   99MOL0     C13585   9.306   1.471   3.598 -0.0211 -0.2983  0.4038
   99MOL0     C13586   9.452   1.451   3.625  1.2774  0.6057  0.1012
   99MOL0     C13587   9.514   1.395   3.504 -0.4363  1.1084  0.1588
   99MOL0     C13588   9.653   1.358   3.540 -0.6883  0.0735  0.9666
   99MOL0     C13589   9.752   1.302   3.579  0.3188 -0.6265 -0.1666
   99MOL0     C13590   9.229   1.892   3.630 -0.8711  0.3912  0.0436
   99MOL0     C13591   9.155   1.998   3.572  0.3743 -0.1973 -0.1458
   99MOL0     C13592   9.200   2.142   3.614 -0.0783  0.3685  0.6843
   99MOL0     H13593   8.720   2.208   3.431 -0.7966  1.5458 -0.5983
   99MOL0     H13594   8.514   2.300   3.326 -0.0706  0.0299 -1.6403
   99MOL0     H13595   8.274   2.130   3.256 -3.7254  2.2059  1.1127
   99MOL0     H13596   8.263   2.090   3.081  1.6565 -0.9139  0.0991
   99MOL0     H13597   8.079   2.236   3.166 -0.3676  0.6897  2.3351
   99MOL0     H13598   8.200   2.357   3.217  1.1311  1.6103 -1.6402
   99MOL0     H13599   8.251   2.413   2.988  2.5044 -2.8243  0.9497
   99MOL0     H13600   8.159   2.282   2.917  3.2926 -0.7414  2.0947
   99MOL0     H13601   7.951   2.391   2.970  0.4091 -1.6891 -0.2575
   99MOL0     H13602   8.025   2.500   3.089 -1.5850  1.5987 -0.7330
   99MOL0     H13603   8.072   2.533   2.801  3.0427 -0.0324  0.6714
   99MOL0     H13604   8.133   2.640   2.936 -0.3091  0.6541  0.3435
   99MOL0     H13605   7.921   2.733   2.981  0.5646  1.9142 -0.7480
   99MOL0     H13606   7.934   2.732   2.811  1.6254  2.1850  1.4639
   99MOL0     H13607   7.771   2.559   2.997 -2.7315  0.2160 -0.0073
   99MOL0     H13608   7.796   2.512   2.822  1.3232 -0.2676  0.3512
   99MOL0     H13609   7.687   2.722   2.763 -0.6663  0.3626 -0.3064
   99MOL0     H13610   7.588   2.619   2.877  0.1840  0.5657 -0.1909
   99MOL0     H13611   7.571   2.689   3.144  3.0420 -0.2218 -0.1392
   99MOL0     H13612   7.701   2.951   3.336  0.5001 -0.7747  0.8553
   99MOL0     H13613   7.589   2.831   3.353  3.4150 -0.8877 -1.8044
   99MOL0     H13614   7.414   3.021   3.259  2.3307  1.2528 -3.4523
   99MOL0     H13615   7.487   3.044   3.428  1.4378  2.4888 -0.2314
   99MOL0     H13616   7.661   3.181   3.352 -0.0028 -1.3722  1.0471
   99MOL0     H13617   7.596   3.206   3.194  1.0760 -2.0529 -0.4068
   99MOL0     H13618   7.462   3.303   3.446  3.1570 -1.6814  0.1050
   99MOL0     H13619   7.521   3.398   3.329 -1.3477  0.4409  1.1177
   99MOL0     H13620   7.183   3.463   3.272  0.6920 -2.4641  0.5592
   99MOL0     H13621   7.007   3.626   3.070  0.2893  0.5495 -0.4017
   99MOL0     H13622   7.097   3.770   3.106  0.3879 -0.7747 -2.5372
   99MOL0     H13623   7.075   3.667   3.235 -0.8071 -0.4272 -0.3370
   99MOL0     H13624   7.218   3.591   2.505  0.9743  0.6619  1.8266
   99MOL0     H13625   7.140   3.740   2.330 -0.2425  2.3403 -0.0470
   99MOL0     H13626   7.074   4.055   2.170 -1.5683 -1.7328 -2.8166
   99MOL0     H13627   7.181   3.915   2.205  1.7294  0.8838  0.6656
   99MOL0     H13628   6.995   3.798   2.145 -0.1142  0.3759  0.4082
   99MOL0     H13629   6.933   3.816   2.303 -1.0670  1.1713  0.9758
   99MOL0     H13630   6.860   4.025   2.091  2.6217 -0.7823 -0.5391
   99MOL0     H13631   6.777   3.988   2.237  2.9663  1.7026  0.5691
   99MOL0     H13632   6.731   3.768   2.172 -0.7597  2.1465  2.2978
   99MOL0     H13633   6.800   3.814   2.010  2.1735 -0.9656  1.6332
   99MOL0     H13634   6.568   3.953   2.160 -1.3148  3.1493 -0.8075
   99MOL0     H13635   6.649   4.009   2.011  5.2431 -1.6721  0.2177
   99MOL0     H13636   6.530   3.735   2.000  1.5580  0.0651 -1.1354
   99MOL0     H13637   6.540   3.853   1.871 -3.1160  1.3254 -0.9785
   99MOL0     H13638   6.336   3.969   1.925 -1.8412  0.2772  1.9887
   99MOL0     H13639   6.343   3.932   2.090 -0.7484 -0.9907 -0.3046
   99MOL0     H13640   6.268   3.704   2.050 -0.5107 -0.5588 -0.0711
   99MOL0     H13641   6.275   3.729   1.867  0.2107 -0.1244 -0.0064
   99MOL0     H13642   7.222   4.073   2.609 -2.9110 -0.2046  1.5413
   99MOL0     H13643   7.337   3.921   2.751  2.7735 -1.4940 -0.2389
   99MOL0     H13644   7.433   3.476   2.852 -0.9332  1.6692 -0.1914
   99MOL0     H13645   7.478   3.313   3.014 -0.7179  0.3122 -1.3045
   99MOL0     H13646   8.546   2.046   3.000  3.5017 -0.7785 -1.3878
   99MOL0     H13647   8.755   1.932   3.100 -0.6136 -1.4869  1.6251
   99MOL0     H13648   8.965   1.769   3.380  1.5243  0.3915 -1.6043
   99MOL0     H13649   9.075   1.614   3.511 -0.4755  0.2601 -3.1320
   99MOL0     H13650   9.273   1.494   3.808  2.1689  1.0074 -0.7888
   99MOL0     H13651   9.131   1.517   3.711 -0.2090  2.0575  0.0322
   99MOL0     H13652   9.277   1.517   3.503 -0.4862  1.0444  1.1822
   99MOL0     H13653   9.266   1.369   3.596 -0.1647 -0.2417  0.4264
   99MOL0     H13654   9.500   1.545   3.653  0.9224  0.1389  2.5347
   99MOL0     H13655   9.463   1.390   3.715  0.5803  1.1148  0.5484
   99MOL0     H13656   9.519   1.471   3.426  0.1287  0.4179 -0.5008
   99MOL0     H13657   9.466   1.302   3.472  2.6719 -1.2474  1.7714
   99MOL0     H13658   9.839   1.267   3.631  0.2543  1.7948  1.7684
   99MOL0     H13659   9.308   1.924   3.698 -0.8790  1.0783 -0.2557
   99MOL0     H13660   9.130   2.191   3.683  1.1996  0.2871  2.0778
   99MOL0     H13661   9.295   2.156   3.666 -1.6595  0.1167  3.8714
   99MOL0     H13662   9.191   2.203   3.523 -1.1245 -3.2790 -1.9230
  100MOL0     O13663   9.880   4.357   1.259  0.9198  0.9100  1.1539
  100MOL0     C13664   9.851   4.303   1.365  0.0363 -0.7136  0.6961
  100MOL0     O13665   9.732   4.246   1.388  0.1041  0.1381  0.8091
  100MOL0     C13666   9.656   4.217   1.275  0.3805 -0.1734  0.2939
  100MOL0     C13667   9.579   4.324   1.221 -0.1847  0.7034  0.8247
  100MOL0     C13668   9.503   4.292   1.104  0.6401  1.0199  0.0429
  100MOL0     C13669   9.490   4.157   1.056 -0.5657  0.1005  0.3461
  100MOL0     O13670   9.410   4.133   0.943  0.5334 -0.3979 -0.2297
  100MOL0     C13671   9.432   4.027   0.860  0.1973  1.0665  0.2737
  100MOL0     C13672   9.382   4.073   0.714  0.1576  0.4166  0.2201
  100MOL0     C13673   9.410   3.985   0.593  0.0952  0.0620  0.6671
  100MOL0     C13674   9.361   4.062   0.466  0.8964  0.1538 -0.4284
  100MOL0     C13675   9.398   3.988   0.334  0.4445  1.4169 -0.4910
  100MOL0     C13676   9.342   4.068   0.216 -0.3064  0.7891  0.6786
  100MOL0     C13677   9.334   3.994   0.083  0.1390 -0.1060 -0.7013
  100MOL0     C13678   9.301   4.089  -0.036  0.2624  0.1146 -0.1713
  100MOL0     N13679   9.176   4.164  -0.025 -0.4596  0.6532 -0.0936
  100MOL0     C13680   9.046   4.110  -0.004 -0.5196  0.5082  0.2725
  100MOL0     C13681   8.969   4.212  -0.048  0.6830  0.1668 -0.1436
  100MOL0     C13682   8.818   4.200  -0.071  0.1519  0.0205  0.1036
  100MOL0     C13683   8.783   4.163  -0.213  0.1240 -0.1828 -0.3750
  100MOL0     C13684   8.636   4.119  -0.216  1.2183 -0.5038 -0.2869
  100MOL0     C13685   8.604   4.102  -0.366  0.2132 -0.0997 -0.8004
  100MOL0     O13686   8.571   4.229  -0.438  0.3017 -0.0664 -0.6288
  100MOL0     C13687   8.634   4.252  -0.557 -0.1534  0.4956 -0.6059
  100MOL0     C13688   8.652   4.162  -0.661 -1.3289  0.4962 -0.5079
  100MOL0     C13689   8.722   4.193  -0.779 -0.6303 -0.1077  0.1371
  100MOL0     C13690   8.706   4.102  -0.896 -0.3706  0.4258 -0.3673
  100MOL0     C13691   8.794   4.316  -0.786 -0.2225 -0.2155  0.6074
  100MOL0     C13692   8.877   4.371  -0.895  0.2969  1.1743 -0.3855
  100MOL0     O13693   8.939   4.498  -0.878  0.3760  0.2003 -0.1904
  100MOL0     C13694   9.027   4.536  -0.970 -0.2193 -0.6616 -0.0756
  100MOL0     C13695   8.998   4.649  -1.053  0.3419  0.6419  0.1436
  100MOL0     C13696   9.090   4.697  -1.146 -0.8037  0.5977 -0.2566
  100MOL0     C13697   9.210   4.626  -1.162  1.7833  0.3048 -0.5205
  100MOL0     O13698   9.295   4.672  -1.258  0.0191  0.3670 -0.0161
  100MOL0     C13699   9.425   4.702  -1.215 -0.7403 -0.8515  0.9185
  100MOL0     C13700   9.510   4.696  -1.334 -1.0485  0.6180  0.4014
  100MOL0     C13701   9.551   4.554  -1.379 -0.1650  0.0307  0.4767
  100MOL0     C13702   9.694   4.525  -1.360  0.0562 -0.2548 -0.1566
  100MOL0     C13703   9.730   4.387  -1.399  0.3122 -0.0289  0.6155
  100MOL0     C13704   9.872   4.339  -1.384  0.5352 -0.1107 -0.1274
  100MOL0     C13705   9.973   4.432  -1.453 -1.0098  0.2401  0.2226
  100MOL0     C13706  10.126   4.381  -1.438 -0.6377 -0.7804  0.8209
  100MOL0    Cl13707  10.138   4.272  -1.578  0.6606 -0.1115  0.1266
  100MOL0     C13708   9.244   4.503  -1.081 -0.3290 -0.3328  0.6607
  100MOL0     C13709   9.147   4.461  -0.990 -0.3333 -0.7998 -0.0517
  100MOL0     O13710   8.903   4.289  -0.980  0.2243 -0.0492 -0.0099
  100MOL0     C13711   8.782   4.401  -0.677 -0.3887 -0.3419 -0.6037
  100MOL0     C13712   8.710   4.364  -0.563 -0.2132  0.1469  1.1086
  100MOL0     N13713   9.039   4.321  -0.073  0.2233 -0.0245 -0.2888
  100MOL0     N13714   9.167   4.301  -0.057  0.4120  0.0411  0.1968
  100MOL0     C13715   9.574   4.057   1.117  0.2962  0.3825  0.6470
  100MOL0     C13716   9.664   4.092   1.222  0.6378 -0.3350  0.9211
  100MOL0     C13717   9.950   4.298   1.478  0.1258 -0.0838  1.1873
  100MOL0     C13718   9.936   4.197   1.577 -0.7261  0.8229 -0.5817
  100MOL0     C13719  10.032   4.187   1.673  0.3504  0.1947  0.4280
  100MOL0     C13720  10.126   4.295   1.705  0.3144 -0.3806 -0.6384
  100MOL0     O13721  10.198   4.280   1.823  0.3890 -0.0066 -0.2546
  100MOL0     C13722  10.292   4.390   1.865 -0.0786 -0.1269 -0.2282
  100MOL0     C13723  10.337   4.364   2.016  0.0311 -0.5886  0.3249
  100MOL0     C13724  10.420   4.242   2.016 -0.6497 -0.6174  0.5162
  100MOL0     C13725  10.457   4.201   2.154 -0.1992  0.4941  0.3712
  100MOL0     C13726  10.593   4.137   2.170  0.6210  0.5567 -0.0015
  100MOL0     C13727  10.703   4.076   2.172 -0.3403 -0.2409 -0.0221
  100MOL0     C13728  10.136   4.397   1.607  0.3475 -0.4360 -0.8019
  100MOL0     C13729  10.041   4.408   1.495 -0.4178  0.6360 -1.6369
  100MOL0     C13730  10.050   4.523   1.408  0.1398  0.6849 -0.5130
  100MOL0     H13731   9.587   4.426   1.256 -0.0582  1.7263 -1.9673
  100MOL0     H13732   9.445   4.358   1.040  2.3258 -0.5016 -3.2863
  100MOL0     H13733   9.368   3.941   0.883  2.3814 -0.6876  0.1755
  100MOL0     H13734   9.539   4.002   0.857 -0.4155 -2.0256  0.2450
  100MOL0     H13735   9.273   4.064   0.713  0.1570 -0.4435  2.2751
  100MOL0     H13736   9.408   4.178   0.694 -1.1932  0.8025  0.3840
  100MOL0     H13737   9.518   3.977   0.577 -0.2267 -0.6787 -1.4439
  100MOL0     H13738   9.354   3.892   0.603  1.7915 -1.3694 -2.0058
  100MOL0     H13739   9.254   4.081   0.475  1.0089 -0.2542  3.6301
  100MOL0     H13740   9.416   4.157   0.465  0.2575  0.5851 -3.4408
  100MOL0     H13741   9.352   3.889   0.333  1.3813  0.9413  0.8605
  100MOL0     H13742   9.506   3.979   0.324  1.1086  0.8658  4.3549
  100MOL0     H13743   9.242   4.104   0.240 -1.4058 -0.6654 -1.3946
  100MOL0     H13744   9.403   4.158   0.204  1.1965 -0.4230 -1.6225
  100MOL0     H13745   9.270   3.908   0.104 -1.5275  1.7711  2.7332
  100MOL0     H13746   9.431   3.964   0.040  1.7594  3.9315 -0.3055
  100MOL0     H13747   9.389   4.154  -0.041  0.7039 -0.5046 -0.5916
  100MOL0     H13748   9.284   4.025  -0.123 -2.0951 -0.8528  0.9254
  100MOL0     H13749   9.027   4.005   0.017 -1.9137  0.4782 -0.9392
  100MOL0     H13750   8.780   4.301  -0.053  3.3041  0.9601  2.2567
  100MOL0     H13751   8.772   4.136   0.004 -2.4285  0.9218 -0.6027
  100MOL0     H13752   8.798   4.256  -0.269 -0.8602 -0.1250 -0.5556
  100MOL0     H13753   8.848   4.081  -0.246  0.1998 -0.1350 -0.3468
  100MOL0     H13754   8.624   4.018  -0.177  1.2011 -0.1968  0.5124
  100MOL0     H13755   8.564   4.180  -0.161  1.4111 -0.5710  0.0430
  100MOL0     H13756   8.686   4.054  -0.420 -0.3520 -2.0140 -0.0325
  100MOL0     H13757   8.519   4.034  -0.376 -2.0713  2.5041 -0.3974
  100MOL0     H13758   8.619   4.059  -0.647  1.6101 -0.5809 -0.7697
  100MOL0     H13759   8.708   4.167  -0.985 -0.7458 -0.9142 -1.3882
  100MOL0     H13760   8.612   4.047  -0.887  0.4175 -1.3277 -2.0339
  100MOL0     H13761   8.783   4.026  -0.906  0.2631  1.0418 -0.2815
  100MOL0     H13762   8.911   4.714  -1.050  0.8532  1.2964  2.2007
  100MOL0     H13763   9.065   4.780  -1.211 -1.2950  0.9753  0.3960
  100MOL0     H13764   9.416   4.801  -1.170 -0.1071  0.6234 -1.9374
  100MOL0     H13765   9.464   4.630  -1.143 -2.7458 -1.6892  1.2153
  100MOL0     H13766   9.448   4.735  -1.415 -2.6705 -1.3650  0.6051
  100MOL0     H13767   9.591   4.769  -1.334 -2.4490  2.3453 -2.2957
  100MOL0     H13768   9.538   4.541  -1.487  5.1472  0.7492 -0.5045
  100MOL0     H13769   9.487   4.478  -1.332 -1.3011  0.2994 -0.5902
  100MOL0     H13770   9.710   4.535  -1.252 -4.3519  2.5047  0.4890
  100MOL0     H13771   9.762   4.595  -1.408 -1.7430  0.3377 -1.9875
  100MOL0     H13772   9.671   4.305  -1.356 -2.3814  1.2038 -0.4935
  100MOL0     H13773   9.706   4.386  -1.505  1.8973  1.0875  0.2236
  100MOL0     H13774   9.889   4.238  -1.420  1.6621 -0.2807  0.8386
  100MOL0     H13775   9.884   4.351  -1.276  1.5450  1.7753 -0.4032
  100MOL0     H13776   9.966   4.524  -1.395 -2.0134  0.0947  0.3463
  100MOL0     H13777   9.958   4.455  -1.559  1.1334 -0.4945 -0.2980
  100MOL0     H13778  10.142   4.325  -1.346  6.0497 -1.6474 -0.3445
  100MOL0     H13779  10.193   4.468  -1.443  1.6157 -2.4610 -2.9068
  100MOL0     H13780   9.343   4.459  -1.077  2.1416  4.5835  2.0618
  100MOL0     H13781   9.180   4.374  -0.934 -2.1018 -2.0995 -0.8970
  100MOL0     H13782   8.847   4.488  -0.669  1.2826 -1.3899 -1.9066
  100MOL0     H13783   8.704   4.432  -0.478 -1.8048 -0.8177  1.8206
  100MOL0     H13784   9.577   3.956   1.076  0.0922 -0.2209  2.0465
  100MOL0     H13785   9.739   4.029   1.269 -2.4615 -3.9438  1.5090
  100MOL0     H13786   9.849   4.136   1.555 -2.1807  2.8563 -0.7184
  100MOL0     H13787  10.015   4.107   1.745 -3.0121 -0.1650 -0.5916
  100MOL0     H13788  10.375   4.396   1.794  1.2773  0.4932  1.3292
  100MOL0     H13789  10.251   4.491   1.854  1.7614  0.6235 -0.4652
  100MOL0     H13790  10.253   4.369   2.085 -1.7284  4.0821 -1.6976
  100MOL0     H13791  10.410   4.438   2.050  2.8035 -1.3059 -3.2899
  100MOL0     H13792  10.362   4.164   1.965 -0.4974 -0.7201  0.5010
  100MOL0     H13793  10.516   4.260   1.968 -0.6592 -1.2484  0.2551
  100MOL0     H13794  10.371   4.159   2.206  0.5920 -1.2681  0.3346
  100MOL0     H13795  10.455   4.288   2.219  0.2025  1.0106 -0.2865
  100MOL0     H13796  10.796   4.023   2.165 -0.2620  0.0803 -1.7884
  100MOL0     H13797  10.215   4.471   1.613  1.5772 -1.7679  0.1049
  100MOL0     H13798  10.090   4.495   1.310 -1.6573 -1.6861 -0.6465
  100MOL0     H13799   9.949   4.559   1.391  0.2388 -0.2139 -3.5944
  100MOL0     H13800  10.117   4.592   1.460 -2.3358 -0.5752  5.1092
  101MOL0     O13801   6.830   1.667  11.033  0.4153 -0.6733 -0.0941
  101MOL0     C13802   6.711   1.701  11.007  0.7465 -0.5399 -0.2779
  101MOL0     O13803   6.646   1.658  10.893  0.4141 -0.3851 -0.3822
  101MOL0     C13804   6.725   1.591  10.810  0.2879  0.4727  0.4288
  101MOL0     C13805   6.762   1.454  10.831  0.8188 -0.2165  0.8402
  101MOL0     C13806   6.837   1.382  10.730  0.0856 -0.4810  0.0796
  101MOL0     C13807   6.875   1.451  10.616  0.3610  0.0973  0.4769
  101MOL0     O13808   6.961   1.376  10.534 -0.1483  0.2695 -0.4204
  101MOL0     C13809   7.059   1.450  10.459 -0.6562  0.6510  0.0390
  101MOL0     C13810   7.168   1.354  10.417  0.6770 -0.3315 -0.3846
  101MOL0     C13811   7.297   1.408  10.351  1.4687 -0.4828 -0.2653
  101MOL0     C13812   7.302   1.558  10.326 -0.3858 -0.2647  0.0401
  101MOL0     C13813   7.439   1.594  10.259  1.2324  0.2122 -0.2527
  101MOL0     C13814   7.462   1.748  10.274 -0.0010 -0.6153 -0.1392
  101MOL0     C13815   7.571   1.814  10.183  0.3840  1.1357 -0.2922
  101MOL0     C13816   7.575   1.967  10.202  0.1810  0.0298  0.4177
  101MOL0     N13817   7.638   2.037  10.090 -0.1373 -0.8441  0.2898
  101MOL0     C13818   7.770   2.079  10.077 -0.1241  0.1787 -0.5464
  101MOL0     C13819   7.790   2.098   9.944  0.0887  0.3925 -0.4560
  101MOL0     C13820   7.915   2.131   9.874 -0.1703 -0.0766 -0.7717
  101MOL0     C13821   7.994   2.010   9.814  0.4600  0.1593 -0.6073
  101MOL0     C13822   7.898   1.930   9.733  0.2860  0.0536 -0.3596
  101MOL0     C13823   7.961   1.823   9.649 -1.0067 -0.1723  0.3875
  101MOL0     O13824   8.050   1.881   9.550 -0.0422 -0.1997 -0.2602
  101MOL0     C13825   8.117   1.790   9.471  0.0724  0.0612 -0.4248
  101MOL0     C13826   8.240   1.825   9.417  0.0206 -0.9429 -0.2115
  101MOL0     C13827   8.308   1.739   9.348 -1.2169 -0.5567  0.3161
  101MOL0     C13828   8.442   1.792   9.292 -0.2043  0.6523  0.5733
  101MOL0     C13829   8.265   1.612   9.306  0.3141 -0.5765 -0.3725
  101MOL0     C13830   8.324   1.515   9.224 -1.7701  0.4798  0.3680
  101MOL0     O13831   8.251   1.401   9.183 -0.0921  0.5959 -0.0053
  101MOL0     C13832   8.320   1.307   9.109 -0.7969 -0.9527 -0.0991
  101MOL0     C13833   8.351   1.185   9.174  0.9011 -1.2584 -0.0173
  101MOL0     C13834   8.434   1.091   9.117  0.1860 -0.1399 -0.7977
  101MOL0     C13835   8.469   1.106   8.984 -0.5355 -0.8879  0.3914
  101MOL0     O13836   8.547   1.021   8.910 -0.3315 -0.2744 -0.2885
  101MOL0     C13837   8.658   0.970   8.975  0.2066 -0.4539 -0.4924
  101MOL0     C13838   8.773   0.931   8.876 -0.3501 -0.3184  0.2166
  101MOL0     C13839   8.844   1.052   8.809  0.5328  0.6104 -0.1034
  101MOL0     C13840   8.886   1.022   8.672  0.7736  0.4481 -0.1355
  101MOL0     C13841   8.972   1.145   8.619  0.3268 -0.5795  0.4719
  101MOL0     C13842   9.011   1.125   8.466  1.0587 -0.4268 -1.2408
  101MOL0     C13843   9.132   1.202   8.421 -0.9352  0.1395 -0.3983
  101MOL0     C13844   9.155   1.175   8.272 -0.3730  0.5708  0.9725
  101MOL0    Cl13845   9.250   1.325   8.217 -0.0313 -0.0319 -0.4691
  101MOL0     C13846   8.422   1.225   8.912  0.2518 -0.1856  0.0125
  101MOL0     C13847   8.345   1.323   8.971 -1.1968  0.5222  0.1893
  101MOL0     O13848   8.449   1.516   9.208  1.4027 -0.6244  0.4404
  101MOL0     C13849   8.133   1.585   9.350  0.9423  0.5152  0.6635
  101MOL0     C13850   8.066   1.664   9.434 -0.1054  1.3942 -0.3466
  101MOL0     N13851   7.669   2.070   9.883  0.0466  0.4984 -0.3242
  101MOL0     N13852   7.584   2.037   9.967 -0.3105  0.8773 -0.6953
  101MOL0     C13853   6.825   1.584  10.592 -0.3541  0.0194 -0.6939
  101MOL0     C13854   6.755   1.653  10.690  0.5857 -0.5760  0.9647
  101MOL0     C13855   6.635   1.771  11.108  0.6614 -0.2403 -0.2681
  101MOL0     C13856   6.702   1.888  11.162  0.0480  0.0276 -0.3975
  101MOL0     C13857   6.631   1.964  11.251 -0.0407 -0.0547 -0.6534
  101MOL0     C13858   6.504   1.929  11.283  0.0821 -0.0363  0.2512
  101MOL0     O13859   6.427   2.000  11.373 -0.1919  1.1241 -1.0261
  101MOL0     C13860   6.492   2.047  11.487  0.2819  1.5222 -0.4630
  101MOL0     C13861   6.394   2.085  11.584  0.2716  0.2557 -0.2536
  101MOL0     C13862   6.309   2.203  11.538  0.6450  0.7944 -0.3042
  101MOL0     C13863   6.337   2.340  11.595  0.7133 -0.6494 -0.0433
  101MOL0     C13864   6.314   2.348  11.738  0.5569 -1.3595  0.5179
  101MOL0     C13865   6.294   2.348  11.860 -1.5714  0.2261  0.7274
  101MOL0     C13866   6.443   1.821  11.230 -0.3397  0.1419  0.5067
  101MOL0     C13867   6.503   1.732  11.153 -1.3295 -0.5848 -1.4399
  101MOL0     C13868   6.436   1.613  11.097  0.1617  1.0350  0.2593
  101MOL0     H13869   6.720   1.405  10.918 -4.2541  1.0251 -0.5663
  101MOL0     H13870   6.866   1.278  10.733  2.9246  0.2319  0.0398
  101MOL0     H13871   7.108   1.522  10.526 -2.0742 -1.5322  3.7435
  101MOL0     H13872   7.003   1.486  10.373 -4.0077 -2.5236  0.6674
  101MOL0     H13873   7.187   1.284  10.499 -3.3080 -1.8826 -0.5584
  101MOL0     H13874   7.121   1.288  10.344  1.0294  0.1219 -1.0313
  101MOL0     H13875   7.384   1.377  10.410  0.8274  0.3400  1.1525
  101MOL0     H13876   7.302   1.366  10.250  0.5212  3.5065 -2.1760
  101MOL0     H13877   7.211   1.594  10.276 -1.4308  1.5110  2.9459
  101MOL0     H13878   7.298   1.613  10.421 -0.0632 -1.4911  0.7871
  101MOL0     H13879   7.450   1.567  10.154  2.8433  1.4970 -0.4531
  101MOL0     H13880   7.516   1.533  10.308  1.0083 -1.6443 -2.0910
  101MOL0     H13881   7.366   1.797  10.257  0.3358  0.4899  1.0370
  101MOL0     H13882   7.481   1.782  10.376  0.1963  1.2810 -0.7702
  101MOL0     H13883   7.528   1.802  10.083 -2.0609 -0.5103  0.8556
  101MOL0     H13884   7.666   1.760  10.189 -0.5443 -0.6226 -0.6221
  101MOL0     H13885   7.469   1.991  10.188  0.0690 -0.7429 -0.1207
  101MOL0     H13886   7.622   1.995  10.297  3.5381  0.8210 -1.3023
  101MOL0     H13887   7.847   2.091  10.152  0.0801  0.5475 -0.8135
  101MOL0     H13888   7.975   2.195   9.940  1.4627 -1.7729 -0.5280
  101MOL0     H13889   7.881   2.197   9.795  1.6524  0.5570 -1.0825
  101MOL0     H13890   8.084   2.045   9.761  1.1345 -1.0333 -0.2928
  101MOL0     H13891   8.040   1.948   9.891  3.4145  1.7007 -0.9557
  101MOL0     H13892   7.829   1.880   9.801 -1.9327  1.5356 -1.3882
  101MOL0     H13893   7.841   1.999   9.669 -2.9821 -0.5646  1.6459
  101MOL0     H13894   8.010   1.762   9.726 -1.2765  2.3417  2.7305
  101MOL0     H13895   7.881   1.761   9.609 -0.4964 -2.8584  3.1834
  101MOL0     H13896   8.270   1.928   9.435 -0.0600 -1.0139  0.3593
  101MOL0     H13897   8.528   1.740   9.335 -1.7247 -1.1666  1.5075
  101MOL0     H13898   8.449   1.901   9.293 -2.4179  0.9406 -2.0318
  101MOL0     H13899   8.441   1.786   9.182 -2.7525  3.0233  0.3388
  101MOL0     H13900   8.318   1.182   9.277  1.1395 -0.6653  0.0799
  101MOL0     H13901   8.456   1.009   9.184  2.1251  1.3654  0.4976
  101MOL0     H13902   8.704   1.044   9.040 -3.0902  2.7324 -1.4238
  101MOL0     H13903   8.623   0.884   9.033 -0.2019  2.1840  3.5111
  101MOL0     H13904   8.856   0.876   8.922  0.1291  1.6052  1.7867
  101MOL0     H13905   8.724   0.875   8.796  0.2498  1.0569 -1.1621
  101MOL0     H13906   8.928   1.087   8.870 -1.3369  1.7941  1.9163
  101MOL0     H13907   8.771   1.133   8.806 -0.1511 -0.0162 -1.7568
  101MOL0     H13908   8.803   1.002   8.603  2.6531 -0.1705 -2.3462
  101MOL0     H13909   8.952   0.935   8.679  0.2879 -0.0500 -1.3484
  101MOL0     H13910   8.939   1.248   8.637  1.9628 -0.0734  0.7239
  101MOL0     H13911   9.062   1.132   8.680  0.4059 -1.5782  0.1530
  101MOL0     H13912   8.928   1.158   8.403  1.2638  0.9172 -0.8522
  101MOL0     H13913   9.033   1.019   8.451 -0.8924 -0.6435 -2.9410
  101MOL0     H13914   9.218   1.169   8.479  0.3923 -0.4993 -2.6388
  101MOL0     H13915   9.125   1.311   8.412  5.2318  0.8338 -0.7194
  101MOL0     H13916   9.061   1.166   8.217  0.1724 -2.2145  0.3297
  101MOL0     H13917   9.215   1.084   8.266  0.8804  1.1662  3.2595
  101MOL0     H13918   8.452   1.239   8.809 -2.0850 -3.0789 -1.1970
  101MOL0     H13919   8.324   1.412   8.913 -0.9831  1.3170  1.3010
  101MOL0     H13920   8.090   1.488   9.326  0.8958  0.9627 -1.2294
  101MOL0     H13921   7.965   1.631   9.455  0.2168 -1.2963 -2.4389
  101MOL0     H13922   6.857   1.634  10.501 -0.0218  1.1072  0.0161
  101MOL0     H13923   6.732   1.754  10.656 -0.2448 -1.6632 -1.9829
  101MOL0     H13924   6.806   1.914  11.142  0.0397  2.2816  1.9879
  101MOL0     H13925   6.677   2.057  11.286  2.1454 -0.6192 -1.8655
  101MOL0     H13926   6.551   1.969  11.536 -1.8774  0.1370  0.1145
  101MOL0     H13927   6.548   2.138  11.465 -0.9247  1.7274 -3.0884
  101MOL0     H13928   6.436   2.119  11.679  3.8042 -0.1557 -1.4944
  101MOL0     H13929   6.327   2.001  11.604  0.4392  0.3087  0.5594
  101MOL0     H13930   6.273   2.209  11.435 -2.6784  3.9016  0.8223
  101MOL0     H13931   6.208   2.180  11.573  0.5610  0.2664 -0.8855
  101MOL0     H13932   6.275   2.419  11.552 -0.2134  0.5039  3.0912
  101MOL0     H13933   6.442   2.352  11.569  0.4659  0.3384 -0.6300
  101MOL0     H13934   6.251   2.342  11.957 -0.4457  0.3983  1.2521
  101MOL0     H13935   6.341   1.809  11.265  0.0581  0.8399  1.9636
  101MOL0     H13936   6.367   1.635  11.015 -2.5073 -1.1162  1.8016
  101MOL0     H13937   6.489   1.528  11.053 -1.1251 -0.0262  0.7155
  101MOL0     H13938   6.369   1.567  11.170  2.3706 -3.4963 -0.2492
  102MOL0     O13939  10.163   4.729   3.518  0.2997  0.1888 -0.3988
  102MOL0     C13940  10.144   4.618   3.466  0.2969 -0.8587  0.0331
  102MOL0     O13941  10.112   4.510   3.535  0.3268 -0.2426 -0.2704
  102MOL0     C13942  10.081   4.531   3.669 -0.6778 -0.8287  0.7408
  102MOL0     C13943   9.955   4.504   3.712 -0.7815  0.6549 -1.3073
  102MOL0     C13944   9.919   4.507   3.852 -0.0266  0.2806  0.3648
  102MOL0     C13945  10.011   4.525   3.949  0.2848 -0.0205 -0.5867
  102MOL0     O13946   9.982   4.510   4.084  0.1351  0.2245 -0.0817
  102MOL0     C13947   9.850   4.514   4.132  0.0172  0.7211  0.3363
  102MOL0     C13948   9.840   4.556   4.277  0.4374  0.3137 -0.4482
  102MOL0     C13949   9.933   4.481   4.377 -0.4194 -0.5258  0.9506
  102MOL0     C13950   9.895   4.513   4.524 -0.4988  0.0234 -0.2635
  102MOL0     C13951  10.003   4.460   4.623 -1.2825  0.8650 -0.0421
  102MOL0     C13952  10.060   4.320   4.588  0.5285  0.5323  0.2143
  102MOL0     C13953  10.185   4.299   4.664  0.5451 -0.7411  0.4285
  102MOL0     C13954  10.166   4.289   4.815 -0.3871  0.7157  0.5047
  102MOL0     N13955  10.308   4.265   4.866  0.5523  0.9834  0.0625
  102MOL0     C13956  10.337   4.139   4.917 -1.2936 -0.2699  0.0382
  102MOL0     C13957  10.430   4.168   5.012  0.1732  0.3205  0.4890
  102MOL0     C13958  10.508   4.064   5.090 -0.6647 -0.6192  0.4374
  102MOL0     C13959  10.622   4.014   4.997 -0.8747 -0.0002  0.0536
  102MOL0     C13960  10.703   3.893   5.042 -0.1744 -0.0645  0.3143
  102MOL0     C13961  10.612   3.778   5.082 -0.0974 -0.0473 -0.0817
  102MOL0     O13962  10.697   3.663   5.088 -0.0738 -0.0647 -0.3213
  102MOL0     C13963  10.657   3.561   5.176  0.8120  0.3636 -1.1254
  102MOL0     C13964  10.530   3.530   5.228  0.8490 -0.2147 -0.3880
  102MOL0     C13965  10.497   3.420   5.310  0.5040  0.7799  0.0879
  102MOL0     C13966  10.355   3.400   5.355 -0.5675 -0.6138  0.0160
  102MOL0     C13967  10.601   3.331   5.356  0.3280  0.1651 -0.1868
  102MOL0     C13968  10.596   3.207   5.447 -0.3973 -0.0836 -0.0551
  102MOL0     O13969  10.712   3.145   5.476  0.0454  0.1659 -0.5040
  102MOL0     C13970  10.717   3.046   5.579 -0.3980  0.3191 -0.0789
  102MOL0     C13971  10.632   3.029   5.690 -0.4677 -0.9955 -0.4852
  102MOL0     C13972  10.654   2.935   5.788 -0.0429  0.5016  0.9540
  102MOL0     C13973  10.774   2.860   5.782 -1.0043  0.5728  0.8216
  102MOL0     O13974  10.796   2.780   5.890  0.8501 -0.5448 -0.0466
  102MOL0     C13975  10.929   2.729   5.905  0.2623 -0.1161 -0.0489
  102MOL0     C13976  10.944   2.628   6.019  1.0058 -0.3201  0.3527
  102MOL0     C13977  10.860   2.499   5.988 -0.2854 -0.2329 -0.2888
  102MOL0     C13978  10.928   2.368   6.027 -1.3363  0.8592  0.0993
  102MOL0     C13979  11.008   2.295   5.914 -0.8059  0.0276 -0.3892
  102MOL0     C13980  11.052   2.148   5.966 -0.0292 -0.3628  0.9163
  102MOL0     C13981  11.163   2.158   6.077 -0.5984 -0.4586  0.3992
  102MOL0     C13982  11.233   2.023   6.116  0.5565  0.3511 -0.1893
  102MOL0    Cl13983  11.370   2.054   6.248 -0.1923  0.6188 -0.2178
  102MOL0     C13984  10.871   2.886   5.685  0.7501  0.0463  1.8468
  102MOL0     C13985  10.837   2.972   5.577  0.4765 -0.6005  0.3665
  102MOL0     O13986  10.485   3.160   5.467  0.3651 -0.1451  0.5725
  102MOL0     C13987  10.726   3.362   5.301 -0.3290 -0.5012 -1.0357
  102MOL0     C13988  10.757   3.468   5.214  0.7271  0.4197  0.3685
  102MOL0     N13989  10.457   4.305   5.012 -0.5348 -0.0798  0.4280
  102MOL0     N13990  10.387   4.366   4.922 -0.1858 -0.0524  0.7117
  102MOL0     C13991  10.140   4.573   3.908  0.6144 -0.3934  0.0476
  102MOL0     C13992  10.172   4.578   3.767  0.4267  1.0111 -0.2901
  102MOL0     C13993  10.167   4.605   3.328  0.1038  0.5381  0.1385
  102MOL0     C13994  10.138   4.706   3.242 -0.0744 -0.9687 -0.3085
  102MOL0     C13995  10.137   4.696   3.101  0.3420  0.3942  0.6526
  102MOL0     C13996  10.177   4.578   3.039  0.2188  0.4111 -0.6437
  102MOL0     O13997  10.176   4.583   2.897  0.2793  0.5941 -0.2194
  102MOL0     C13998  10.241   4.469   2.836 -0.4602  0.4628 -0.0192
  102MOL0     C13999  10.260   4.489   2.693  0.3333 -0.2754  0.6276
  102MOL0     C14000  10.388   4.571   2.664  0.2858  0.5128  0.8424
  102MOL0     C14001  10.527   4.530   2.709 -0.1278  0.9115 -0.3776
  102MOL0     C14002  10.544   4.388   2.689  0.5935  1.0705 -0.0675
  102MOL0     C14003  10.550   4.261   2.680 -0.2318 -0.4000  0.0872
  102MOL0     C14004  10.219   4.480   3.122  0.5748  0.6516  0.2333
  102MOL0     C14005  10.206   4.485   3.266 -0.5581 -0.5062  1.4169
  102MOL0     C14006  10.259   4.359   3.334  0.3016  0.2719  0.3135
  102MOL0     H14007   9.875   4.489   3.640 -0.8227  0.5317 -1.2368
  102MOL0     H14008   9.819   4.468   3.870  0.9213 -2.5398  0.0331
  102MOL0     H14009   9.806   4.414   4.133 -0.9159  1.1273  0.3018
  102MOL0     H14010   9.789   4.573   4.063  1.0309 -0.7680 -1.9566
  102MOL0     H14011   9.878   4.658   4.285  0.7997  0.1958 -0.6423
  102MOL0     H14012   9.738   4.539   4.313  0.9439 -1.0084  0.4341
  102MOL0     H14013   9.929   4.378   4.342  0.4764  0.0636 -1.0170
  102MOL0     H14014  10.035   4.516   4.362 -1.3517  1.8835 -0.4830
  102MOL0     H14015   9.895   4.622   4.517  0.4361 -0.0853 -4.2309
  102MOL0     H14016   9.793   4.488   4.554 -0.7934 -1.0261 -2.0252
  102MOL0     H14017   9.954   4.454   4.720  3.0388  0.1554  2.3445
  102MOL0     H14018  10.082   4.536   4.628  0.0973 -0.5864  1.6556
  102MOL0     H14019   9.995   4.236   4.612  0.9178 -1.0029 -3.5205
  102MOL0     H14020  10.091   4.310   4.484 -0.0662  0.1873  0.0713
  102MOL0     H14021  10.251   4.384   4.647 -3.6410  3.4156  2.4755
  102MOL0     H14022  10.242   4.220   4.615  2.5759  0.3405  0.9335
  102MOL0     H14023  10.128   4.378   4.866 -0.7062  0.4085  0.8071
  102MOL0     H14024  10.098   4.205   4.832 -0.0115  0.4722  0.8355
  102MOL0     H14025  10.311   4.037   4.893  1.1198 -0.9966  0.2239
  102MOL0     H14026  10.427   3.998   5.123 -0.5119 -0.7500  0.5550
  102MOL0     H14027  10.554   4.115   5.175  0.3054  0.2593 -0.5799
  102MOL0     H14028  10.599   3.997   4.892  1.3126  1.0373 -0.6559
  102MOL0     H14029  10.700   4.089   4.979  1.3639 -1.8512  1.5124
  102MOL0     H14030  10.764   3.868   4.955  0.3506 -0.9326  0.9083
  102MOL0     H14031  10.763   3.938   5.122 -1.6548  3.0896 -0.1765
  102MOL0     H14032  10.564   3.807   5.176 -1.4503 -0.3097 -0.6799
  102MOL0     H14033  10.531   3.764   5.010 -0.1638 -0.1230  0.0083
  102MOL0     H14034  10.445   3.586   5.191  1.1954  0.4013 -0.2623
  102MOL0     H14035  10.288   3.458   5.290 -2.6077 -0.6671  1.9411
  102MOL0     H14036  10.340   3.420   5.461 -1.6620 -1.0605 -0.0398
  102MOL0     H14037  10.319   3.297   5.345 -2.7880  0.0094  0.9597
  102MOL0     H14038  10.546   3.094   5.700  2.2982  3.0496 -0.6724
  102MOL0     H14039  10.587   2.942   5.874  0.3096 -0.5102  1.3284
  102MOL0     H14040  10.951   2.671   5.815 -0.0233 -0.2277 -0.0496
  102MOL0     H14041  10.989   2.818   5.921 -0.1164  0.6533 -2.4509
  102MOL0     H14042  11.049   2.607   6.037  0.8372  0.2945  2.2393
  102MOL0     H14043  10.899   2.679   6.104 -0.2790 -2.1597  0.8538
  102MOL0     H14044  10.825   2.494   5.885  1.2676  2.1597 -1.0160
  102MOL0     H14045  10.765   2.497   6.043 -1.9661 -2.9872 -2.9987
  102MOL0     H14046  10.850   2.295   6.051 -0.0042 -0.9824 -0.8259
  102MOL0     H14047  10.990   2.388   6.114 -2.2604  0.2256  0.9315
  102MOL0     H14048  10.956   2.277   5.820  2.8723  1.7636 -2.9785
  102MOL0     H14049  11.097   2.357   5.908 -0.6916  0.4319  3.0668
  102MOL0     H14050  11.098   2.103   5.878 -0.6774  0.1548  0.3044
  102MOL0     H14051  10.959   2.094   5.989 -1.7696  0.9197 -2.4413
  102MOL0     H14052  11.119   2.201   6.167 -0.5918 -2.1072  1.2323
  102MOL0     H14053  11.242   2.227   6.047  1.8901 -3.3798 -0.3385
  102MOL0     H14054  11.279   1.985   6.024 -2.2166  1.3922 -2.1153
  102MOL0     H14055  11.158   1.953   6.153  1.5304  0.0253  1.2668
  102MOL0     H14056  10.969   2.843   5.670  1.1734  1.3107  0.7493
  102MOL0     H14057  10.908   2.988   5.497 -0.4810  2.4161 -0.0105
  102MOL0     H14058  10.811   3.314   5.349  1.5446  1.3373 -2.3357
  102MOL0     H14059  10.859   3.477   5.177  0.7798 -2.5111 -0.4557
  102MOL0     H14060  10.220   4.592   3.980  1.1186 -0.0003 -0.5959
  102MOL0     H14061  10.270   4.603   3.729  0.0836 -1.0080 -2.8027
  102MOL0     H14062  10.117   4.795   3.300  0.1382  0.5643 -2.4625
  102MOL0     H14063  10.120   4.783   3.039  0.2932  0.7614  1.1686
  102MOL0     H14064  10.334   4.445   2.888 -0.2753  3.3732  1.1806
  102MOL0     H14065  10.171   4.387   2.855  0.6927  0.1311  3.5901
  102MOL0     H14066  10.175   4.544   2.652  0.8594 -1.3656 -2.1816
  102MOL0     H14067  10.265   4.394   2.638  1.8743 -0.7481  1.4966
  102MOL0     H14068  10.390   4.575   2.555 -0.2876 -1.3601  0.7323
  102MOL0     H14069  10.370   4.673   2.700 -4.0876 -0.6075  2.4127
  102MOL0     H14070  10.536   4.556   2.815 -1.2496 -0.7283  0.1715
  102MOL0     H14071  10.607   4.583   2.658  1.2024  0.9697  1.6716
  102MOL0     H14072  10.567   4.156   2.663 -1.5457 -0.3271 -1.9702
  102MOL0     H14073  10.243   4.384   3.078 -2.1073  0.6573 -1.4962
  102MOL0     H14074  10.291   4.281   3.264 -1.4211  1.9008 -2.4795
  102MOL0     H14075  10.338   4.386   3.405  1.5178 -2.3508  0.0585
  102MOL0     H14076  10.179   4.317   3.395  0.1769 -2.4945 -1.5512
  103MOL0     O14077   8.095   1.581   7.824 -0.3935 -0.7608 -0.5632
  103MOL0     C14078   8.072   1.636   7.935 -0.9859 -0.1152  0.0921
  103MOL0     O14079   8.034   1.570   8.050  0.4987 -0.4907 -0.4568
  103MOL0     C14080   8.027   1.438   8.074 -0.6315 -0.8128 -0.2167
  103MOL0     C14081   7.943   1.348   8.002 -0.5149 -0.5596 -1.3818
  103MOL0     C14082   7.966   1.208   8.001 -0.2108  0.0937  1.1949
  103MOL0     C14083   8.081   1.156   8.074  1.0989 -0.0761  0.2166
  103MOL0     O14084   8.115   1.025   8.087  0.2236  0.7514  0.1299
  103MOL0     C14085   8.078   0.948   7.968  1.0638  0.9500 -0.4430
  103MOL0     C14086   8.140   0.816   7.965  0.0234 -0.0491 -0.0481
  103MOL0     C14087   8.291   0.846   7.955  0.1866 -0.3003  1.2332
  103MOL0     C14088   8.371   0.724   7.918  0.0365  0.2158 -0.0790
  103MOL0     C14089   8.524   0.745   7.905  0.7454  1.0959  0.2358
  103MOL0     C14090   8.601   0.614   7.866 -0.3704 -0.5265  0.6090
  103MOL0     C14091   8.564   0.563   7.722 -0.1640  0.1421 -0.2742
  103MOL0     C14092   8.573   0.660   7.607  0.4997  0.2472  0.7229
  103MOL0     N14093   8.706   0.687   7.554  0.0079  0.1821  0.2313
  103MOL0     C14094   8.796   0.784   7.610  0.3871  0.9983  1.0511
  103MOL0     C14095   8.904   0.774   7.532 -1.0628 -0.0500 -0.3391
  103MOL0     C14096   9.025   0.862   7.547  0.0541 -0.8184 -0.2735
  103MOL0     C14097   9.144   0.782   7.612  0.9898  0.2207 -0.5779
  103MOL0     C14098   9.183   0.647   7.544 -0.1796  0.2130 -0.1316
  103MOL0     C14099   9.271   0.660   7.414  0.3696  0.1040  0.0028
  103MOL0     O14100   9.407   0.700   7.445  0.4947 -0.1675  0.4361
  103MOL0     C14101   9.500   0.695   7.345 -0.4940  0.0010  0.1743
  103MOL0     C14102   9.479   0.750   7.224 -0.2459  0.4281  0.3901
  103MOL0     C14103   9.560   0.724   7.114 -0.0838  0.4094  0.2237
  103MOL0     C14104   9.507   0.785   6.981 -0.6059  0.3856 -0.5663
  103MOL0     C14105   9.690   0.671   7.135  0.1457  0.5426  0.0425
  103MOL0     C14106   9.804   0.667   7.037 -0.5006  0.6454 -0.0031
  103MOL0     O14107   9.921   0.598   7.086  0.3555  0.0912  0.3901
  103MOL0     C14108  10.028   0.600   7.000  0.2953 -0.1549 -0.5195
  103MOL0     C14109  10.026   0.542   6.875 -0.7687  0.9326  0.5417
  103MOL0     C14110  10.132   0.551   6.794 -0.1728  0.4897  1.0434
  103MOL0     C14111  10.251   0.595   6.845 -1.0516  0.2691 -0.0182
  103MOL0     O14112  10.360   0.575   6.763 -0.1640  0.4407 -0.2755
  103MOL0     C14113  10.495   0.581   6.823  0.8923  0.0049 -0.6171
  103MOL0     C14114  10.591   0.539   6.709 -0.0564  0.4372  0.6587
  103MOL0     C14115  10.591   0.383   6.693  0.0524  0.2834 -0.1603
  103MOL0     C14116  10.666   0.300   6.807 -0.5441 -0.9463  0.1696
  103MOL0     C14117  10.825   0.319   6.780  0.1237  0.9492  0.4949
  103MOL0     C14118  10.896   0.229   6.870 -0.0170 -0.3673 -0.0710
  103MOL0     C14119  11.049   0.253   6.850  1.3761  0.5355  0.7233
  103MOL0     C14120  11.106   0.187   6.718  1.2220  0.2575 -0.5400
  103MOL0    Cl14121  11.079   0.007   6.718  0.0644  0.2219 -0.0704
  103MOL0     C14122  10.269   0.649   6.977  0.6046  1.1074 -0.5522
  103MOL0     C14123  10.145   0.651   7.059 -0.2738 -0.8820  0.3586
  103MOL0     O14124   9.797   0.724   6.927  0.7769 -0.2662  0.2178
  103MOL0     C14125   9.711   0.618   7.262 -0.8671  0.0361 -0.7125
  103MOL0     C14126   9.620   0.627   7.368 -0.7291  0.6021  0.9430
  103MOL0     N14127   8.882   0.684   7.430 -0.3380  0.6022  0.1178
  103MOL0     N14128   8.769   0.626   7.450 -0.0495 -0.7228  0.6617
  103MOL0     C14129   8.158   1.250   8.142 -0.7721  0.8065  0.6814
  103MOL0     C14130   8.127   1.387   8.156  0.4315 -0.2221  0.7286
  103MOL0     C14131   8.032   1.782   7.922 -0.2275 -0.3818 -0.5235
  103MOL0     C14132   8.008   1.851   7.801  0.4412 -0.2988 -0.2301
  103MOL0     C14133   7.986   1.991   7.790 -0.9599 -0.9625 -0.5111
  103MOL0     C14134   8.006   2.072   7.901  0.7161 -0.0818 -0.0627
  103MOL0     O14135   7.990   2.208   7.892  0.6650  0.6499  0.0368
  103MOL0     C14136   8.084   2.278   7.964 -0.2363  0.2732 -0.1596
  103MOL0     C14137   8.123   2.405   7.893 -0.4373 -0.5061 -0.5236
  103MOL0     C14138   8.204   2.362   7.766  0.3825  0.2807 -0.3546
  103MOL0     C14139   8.297   2.457   7.701  0.4766  1.1994 -0.1725
  103MOL0     C14140   8.223   2.558   7.623  0.5331 -0.5277  0.6904
  103MOL0     C14141   8.188   2.651   7.551  0.8650 -0.6291  0.4997
  103MOL0     C14142   8.007   2.004   8.025 -0.3551 -0.2655  0.5465
  103MOL0     C14143   8.026   1.872   8.037 -0.2372  0.9612  0.0608
  103MOL0     C14144   8.053   1.828   8.181  0.2062  0.4701 -0.6413
  103MOL0     H14145   7.867   1.384   7.933 -1.5675 -0.5363 -0.2568
  103MOL0     H14146   7.893   1.144   7.952  3.2491 -2.3515 -1.3330
  103MOL0     H14147   8.094   1.001   7.874 -1.5692 -2.6822 -3.2634
  103MOL0     H14148   7.970   0.933   7.980  1.0852  0.5652 -0.7153
  103MOL0     H14149   8.127   0.763   8.060  0.2171  0.6801  0.3913
  103MOL0     H14150   8.099   0.758   7.882  0.6078  0.2734 -0.5676
  103MOL0     H14151   8.303   0.922   7.877  2.6329 -0.4967  1.3495
  103MOL0     H14152   8.328   0.891   8.048  0.9759 -0.2165  0.8865
  103MOL0     H14153   8.358   0.648   7.996  2.8125 -0.6508 -0.3687
  103MOL0     H14154   8.332   0.684   7.824 -0.8458 -0.4170  0.5323
  103MOL0     H14155   8.554   0.767   8.008 -3.5431  0.2948  1.8941
  103MOL0     H14156   8.549   0.828   7.838 -0.3830 -0.2174 -1.9126
  103MOL0     H14157   8.708   0.637   7.874 -0.3166 -0.8841  0.9719
  103MOL0     H14158   8.584   0.545   7.950 -0.4231  1.1734  2.0606
  103MOL0     H14159   8.463   0.522   7.726 -0.3285  0.3125 -2.0657
  103MOL0     H14160   8.627   0.480   7.691  0.9483  0.9773 -0.3237
  103MOL0     H14161   8.515   0.611   7.528  1.6481 -0.0186  0.0249
  103MOL0     H14162   8.522   0.756   7.619 -1.3826 -0.1882 -2.5923
  103MOL0     H14163   8.777   0.848   7.696 -0.8637  1.8139  0.1986
  103MOL0     H14164   9.005   0.947   7.613  1.4555  0.3140 -1.2443
  103MOL0     H14165   9.068   0.886   7.449 -1.6696  1.9533 -0.4772
  103MOL0     H14166   9.219   0.859   7.629 -0.2250  1.8346 -2.2375
  103MOL0     H14167   9.104   0.745   7.708 -1.5948  1.7767 -0.9585
  103MOL0     H14168   9.242   0.589   7.615 -0.4699 -1.7085 -1.3901
  103MOL0     H14169   9.095   0.586   7.520  0.8743 -1.3937 -0.0652
  103MOL0     H14170   9.273   0.564   7.362  3.0794  1.5680 -3.0022
  103MOL0     H14171   9.222   0.731   7.346  0.2174  0.9807  1.0096
  103MOL0     H14172   9.390   0.810   7.207 -1.2252 -0.8324  0.8750
  103MOL0     H14173   9.403   0.816   6.994 -0.9078 -1.5967  3.0855
  103MOL0     H14174   9.510   0.713   6.899  2.2899 -2.0715  1.4661
  103MOL0     H14175   9.570   0.870   6.952  1.4159 -0.4302  1.1384
  103MOL0     H14176   9.933   0.509   6.828 -1.3211  1.8009  1.0004
  103MOL0     H14177  10.113   0.522   6.691  0.7781 -2.0358  1.5168
  103MOL0     H14178  10.520   0.682   6.856  2.8081 -0.9252  1.0210
  103MOL0     H14179  10.497   0.517   6.911  0.6769  0.9058  0.0558
  103MOL0     H14180  10.563   0.580   6.612 -3.8003 -3.3423 -0.1596
  103MOL0     H14181  10.691   0.575   6.734 -0.3989  2.4790 -0.7500
  103MOL0     H14182  10.639   0.353   6.600 -1.2549 -2.4492 -0.0608
  103MOL0     H14183  10.490   0.341   6.689  0.7750 -1.4565 -1.1847
  103MOL0     H14184  10.638   0.196   6.791  2.4000 -2.0165  1.3012
  103MOL0     H14185  10.639   0.330   6.909  2.5421 -2.4678  1.5367
  103MOL0     H14186  10.845   0.285   6.678 -2.7476 -2.3679  0.8395
  103MOL0     H14187  10.856   0.422   6.802  2.1862  0.7253 -1.0743
  103MOL0     H14188  10.863   0.125   6.863  0.1309 -0.4237  0.0621
  103MOL0     H14189  10.877   0.266   6.971  0.0009 -2.0748  0.5955
  103MOL0     H14190  11.107   0.210   6.933  4.6584  3.2160  0.0552
  103MOL0     H14191  11.059   0.362   6.846  1.1817  0.6302 -5.3358
  103MOL0     H14192  11.210   0.221   6.709  0.8077  2.4023  1.5966
  103MOL0     H14193  11.049   0.239   6.641  0.9575  1.1222  0.2204
  103MOL0     H14194  10.367   0.670   7.019  1.3267 -2.1210 -0.3766
  103MOL0     H14195  10.145   0.696   7.157 -1.8615 -0.3144  0.1125
  103MOL0     H14196   9.808   0.571   7.272 -0.1641  1.5296 -0.1255
  103MOL0     H14197   9.632   0.568   7.458 -3.5237 -1.3773  0.1611
  103MOL0     H14198   8.240   1.211   8.201  0.5048  0.1839 -1.4068
  103MOL0     H14199   8.193   1.456   8.207  0.3096 -1.1484  2.2200
  103MOL0     H14200   8.007   1.782   7.717  1.4435  0.2087 -0.6716
  103MOL0     H14201   7.956   2.023   7.691  2.2540 -1.4312 -1.7494
  103MOL0     H14202   8.046   2.306   8.063 -1.8210 -0.9344 -0.3921
  103MOL0     H14203   8.164   2.205   7.980 -1.0023 -0.3432  1.0213
  103MOL0     H14204   8.181   2.475   7.954  2.6599 -0.1036 -3.6203
  103MOL0     H14205   8.031   2.457   7.866 -1.6612 -1.3762  1.6688
  103MOL0     H14206   8.261   2.276   7.803 -2.1082 -0.5018  2.0220
  103MOL0     H14207   8.136   2.343   7.683  2.5010 -0.7577 -1.9307
  103MOL0     H14208   8.374   2.394   7.655  1.8367  2.1596  0.7276
  103MOL0     H14209   8.354   2.505   7.780 -0.7369  1.3766  0.6291
  103MOL0     H14210   8.145   2.721   7.482  0.9546 -1.0654 -0.0089
  103MOL0     H14211   8.005   2.070   8.112 -3.5083  0.6320 -0.0754
  103MOL0     H14212   7.969   1.759   8.196 -1.9999  2.5918 -2.2292
  103MOL0     H14213   8.143   1.771   8.204 -1.8289 -2.5457  0.4609
  103MOL0     H14214   8.049   1.902   8.261 -2.9560 -2.6710  2.4636
  104MOL0     O14215   7.118   1.374   4.391  0.4306  0.0437 -0.4857
  104MOL0     C14216   7.208   1.286   4.392 -0.4897 -0.7009 -0.5511
  104MOL0     O14217   7.189   1.158   4.426 -0.0129 -0.5790 -0.5154
  104MOL0     C14218   7.064   1.105   4.402  0.2799  0.9313 -0.1915
  104MOL0     C14219   7.004   1.028   4.503 -0.1774  0.7492  0.1034
  104MOL0     C14220   6.894   0.953   4.470 -0.8281 -0.2663 -0.5149
  104MOL0     C14221   6.833   0.944   4.346  0.6963 -0.8676 -0.0615
  104MOL0     O14222   6.722   0.865   4.331 -0.3267 -0.4889 -0.4229
  104MOL0     C14223   6.664   0.842   4.201 -0.3939 -0.2416  0.3714
  104MOL0     C14224   6.563   0.746   4.211 -0.1682  0.4681 -0.3619
  104MOL0     C14225   6.544   0.653   4.090  0.2486  0.6527 -0.3151
  104MOL0     C14226   6.651   0.549   4.057  0.1639  0.3155 -1.1778
  104MOL0     C14227   6.590   0.449   3.957 -0.4095  0.0711 -0.0226
  104MOL0     C14228   6.687   0.349   3.887  0.5642  0.4542 -0.7393
  104MOL0     C14229   6.793   0.412   3.784  0.2437  0.0484  0.0571
  104MOL0     C14230   6.838   0.319   3.683  0.2635  1.1449 -0.2842
  104MOL0     N14231   6.929   0.390   3.582  0.6822 -0.5318  0.3105
  104MOL0     C14232   6.890   0.441   3.457  0.2728 -0.3419 -0.2909
  104MOL0     C14233   7.002   0.510   3.415  0.0110 -0.7836 -1.1103
  104MOL0     C14234   7.012   0.600   3.291 -0.0914  0.4268  0.3182
  104MOL0     C14235   6.912   0.716   3.302 -0.7359  0.1044  0.2981
  104MOL0     C14236   6.923   0.829   3.200 -0.2868  0.5446 -0.2752
  104MOL0     C14237   6.837   0.949   3.231 -0.0422 -0.0806 -0.4103
  104MOL0     O14238   6.858   0.979   3.366  0.2706 -0.5056 -0.6880
  104MOL0     C14239   6.763   1.046   3.426  0.4948  0.1493  0.9290
  104MOL0     C14240   6.777   1.183   3.452 -0.0572  0.3515  0.5524
  104MOL0     C14241   6.672   1.268   3.499 -0.0631 -0.3392  0.8496
  104MOL0     C14242   6.699   1.410   3.505  0.4991  0.2388 -0.0070
  104MOL0     C14243   6.548   1.205   3.528 -0.1674  0.9232  0.1004
  104MOL0     C14244   6.429   1.284   3.559 -0.3530 -0.3033  0.7378
  104MOL0     O14245   6.439   1.376   3.656 -0.2372  0.2099 -0.1774
  104MOL0     C14246   6.329   1.416   3.722  0.2892 -0.3965 -0.1064
  104MOL0     C14247   6.246   1.338   3.812 -0.3099  0.1565 -0.7398
  104MOL0     C14248   6.127   1.384   3.860  1.0079  0.9731 -0.0208
  104MOL0     C14249   6.089   1.522   3.829  0.2003  0.3272  0.7866
  104MOL0     O14250   5.981   1.588   3.881 -0.2862 -0.4704  0.5361
  104MOL0     C14251   5.986   1.608   4.024 -0.5065 -0.9332  0.1648
  104MOL0     C14252   5.849   1.593   4.082  0.0260 -0.1622 -0.3067
  104MOL0     C14253   5.846   1.584   4.236  0.0988  0.6314  0.6982
  104MOL0     C14254   5.706   1.560   4.295  0.1845  0.2602  0.6149
  104MOL0     C14255   5.714   1.540   4.446 -0.2927 -0.2656  0.2142
  104MOL0     C14256   5.575   1.567   4.513 -0.2346 -0.3711 -0.3471
  104MOL0     C14257   5.466   1.455   4.478 -0.3873  0.3561 -0.7642
  104MOL0     C14258   5.465   1.357   4.592  0.8824 -0.3656 -0.2518
  104MOL0    Cl14259   5.605   1.262   4.577  0.3933 -0.1176  0.1754
  104MOL0     C14260   6.175   1.598   3.745  0.3580 -0.7308  0.5367
  104MOL0     C14261   6.283   1.538   3.688 -0.5249 -0.2836  0.0363
  104MOL0     O14262   6.327   1.270   3.487  0.2817 -0.5822 -0.5152
  104MOL0     C14263   6.543   1.063   3.504 -0.0096 -0.4543  0.4161
  104MOL0     C14264   6.651   0.984   3.465  0.2682 -0.1056 -0.0986
  104MOL0     N14265   7.098   0.500   3.508 -0.3681  0.3293  0.6206
  104MOL0     N14266   7.054   0.430   3.607  1.0241 -0.1649 -0.6609
  104MOL0     C14267   6.896   1.013   4.249  0.3593  0.6669  0.8448
  104MOL0     C14268   7.014   1.092   4.270  0.6193  0.1389  0.1002
  104MOL0     C14269   7.356   1.325   4.365 -0.2350 -0.0854  0.0793
  104MOL0     C14270   7.457   1.226   4.382 -0.0116  0.0441 -0.0349
  104MOL0     C14271   7.591   1.248   4.362  0.5432  0.2451 -0.3763
  104MOL0     C14272   7.632   1.378   4.330 -0.6869  0.0054 -0.1137
  104MOL0     O14273   7.768   1.410   4.342 -0.7881 -0.2938  1.0864
  104MOL0     C14274   7.852   1.375   4.228 -0.0988  0.1448 -0.0373
  104MOL0     C14275   7.799   1.424   4.097  0.4000 -0.2056  0.3376
  104MOL0     C14276   7.851   1.557   4.051  0.0058  0.7088  0.9512
  104MOL0     C14277   7.833   1.586   3.903  0.1540  0.5342 -0.4343
  104MOL0     C14278   7.871   1.722   3.861 -0.7402 -0.0837  1.6926
  104MOL0     C14279   7.902   1.832   3.821 -0.4572 -0.2266 -0.6448
  104MOL0     C14280   7.542   1.476   4.316 -0.0079 -0.6816  0.3033
  104MOL0     C14281   7.403   1.455   4.328  0.2286  0.6576 -0.1238
  104MOL0     C14282   7.310   1.574   4.311 -0.2665 -0.4132  0.3801
  104MOL0     H14283   7.041   1.039   4.605 -0.1321 -1.9268  0.4496
  104MOL0     H14284   6.846   0.898   4.550  0.2352 -1.0525 -0.4050
  104MOL0     H14285   6.742   0.810   4.131 -0.7074 -0.9362  0.3308
  104MOL0     H14286   6.622   0.935   4.162 -1.9930 -1.0619  0.0525
  104MOL0     H14287   6.583   0.676   4.294 -4.3019 -0.3109  0.2050
  104MOL0     H14288   6.466   0.797   4.215  1.2294  4.0221 -4.5375
  104MOL0     H14289   6.448   0.604   4.108  0.7267 -0.1582  0.0586
  104MOL0     H14290   6.523   0.713   4.001 -3.0624  1.8624  1.1061
  104MOL0     H14291   6.745   0.589   4.019  0.2211  1.0240 -0.3240
  104MOL0     H14292   6.668   0.479   4.140 -0.9018 -0.8390 -1.9012
  104MOL0     H14293   6.540   0.500   3.875  1.2327 -1.4529 -2.0716
  104MOL0     H14294   6.511   0.390   4.005 -2.5913  2.7832 -0.0287
  104MOL0     H14295   6.745   0.292   3.961 -1.0700 -0.8222 -0.3824
  104MOL0     H14296   6.626   0.272   3.838 -5.0171  1.1438  3.9943
  104MOL0     H14297   6.880   0.448   3.840 -0.5930 -1.7997  2.7481
  104MOL0     H14298   6.760   0.506   3.740 -1.7174 -0.4680  0.3079
  104MOL0     H14299   6.901   0.236   3.715 -1.8630 -0.1568  0.7783
  104MOL0     H14300   6.752   0.268   3.639  1.3574 -0.0628 -1.0620
  104MOL0     H14301   6.792   0.431   3.410  0.2418 -3.3737  0.2262
  104MOL0     H14302   6.997   0.540   3.201  2.3728 -0.3697  0.3679
  104MOL0     H14303   7.118   0.628   3.287  0.5284 -1.7784 -0.1346
  104MOL0     H14304   6.805   0.690   3.299 -0.8780  0.5771  1.1007
  104MOL0     H14305   6.920   0.762   3.401 -0.7020  2.2011 -0.6323
  104MOL0     H14306   7.020   0.879   3.204  0.2767 -0.4277 -1.1595
  104MOL0     H14307   6.885   0.801   3.102  0.6616  1.2570 -0.8555
  104MOL0     H14308   6.869   1.040   3.180 -1.2631 -0.5262 -2.0420
  104MOL0     H14309   6.730   0.935   3.215 -0.6968  0.8893  2.5137
  104MOL0     H14310   6.871   1.228   3.424  0.1774  0.3819  1.3556
  104MOL0     H14311   6.619   1.460   3.449  2.4148  0.6291 -2.5609
  104MOL0     H14312   6.801   1.434   3.474  0.5793  0.4661  0.4214
  104MOL0     H14313   6.689   1.447   3.608  0.1932 -0.7387  0.3223
  104MOL0     H14314   6.281   1.239   3.836 -0.4784  0.1953 -0.3328
  104MOL0     H14315   6.073   1.334   3.940  0.7929 -0.0796 -0.8049
  104MOL0     H14316   6.057   1.540   4.072  0.8757 -1.7407 -2.7924
  104MOL0     H14317   6.015   1.713   4.035  3.2378 -1.6303 -1.2565
  104MOL0     H14318   5.780   1.671   4.048  1.2670  0.5034 -1.3870
  104MOL0     H14319   5.816   1.498   4.037 -2.1930  0.3437  0.1462
  104MOL0     H14320   5.891   1.676   4.274  5.4988  0.7944 -4.6094
  104MOL0     H14321   5.908   1.501   4.273 -0.1667  0.9604  1.9334
  104MOL0     H14322   5.669   1.467   4.249  1.6489  0.0449 -0.1874
  104MOL0     H14323   5.636   1.637   4.261  1.2474  0.2139 -1.8686
  104MOL0     H14324   5.756   1.441   4.469  4.2621  0.7274 -2.5120
  104MOL0     H14325   5.789   1.612   4.482  0.3995 -0.7862 -0.1696
  104MOL0     H14326   5.538   1.668   4.493 -0.7507 -0.3937  0.4279
  104MOL0     H14327   5.595   1.574   4.620  2.7170  0.0423 -0.8475
  104MOL0     H14328   5.497   1.394   4.393 -1.8503 -0.7954 -0.5014
  104MOL0     H14329   5.366   1.499   4.485 -0.3601  0.1916  3.1895
  104MOL0     H14330   5.374   1.299   4.605  0.7536  0.2504  1.9140
  104MOL0     H14331   5.467   1.420   4.681  1.3810 -1.3769  0.4683
  104MOL0     H14332   6.151   1.701   3.720  0.5017 -0.0003  3.0955
  104MOL0     H14333   6.347   1.585   3.614 -1.3062  2.5872  1.0503
  104MOL0     H14334   6.451   1.008   3.519 -0.5048  0.6922  1.7793
  104MOL0     H14335   6.654   0.876   3.453 -0.2067 -0.0788 -0.4742
  104MOL0     H14336   6.853   1.010   4.149  0.7535 -2.1976  0.6843
  104MOL0     H14337   7.062   1.147   4.190  1.9909 -0.5717  0.4057
  104MOL0     H14338   7.428   1.122   4.394  1.1686 -0.1950  1.0389
  104MOL0     H14339   7.665   1.169   4.369  1.4471  1.1564  0.8971
  104MOL0     H14340   7.949   1.424   4.241 -0.6590  1.2939 -0.0917
  104MOL0     H14341   7.865   1.266   4.219 -0.9290  0.0759 -0.4563
  104MOL0     H14342   7.690   1.428   4.105  0.2836  2.5787 -1.2833
  104MOL0     H14343   7.830   1.338   4.037  2.0007 -0.9129  2.0874
  104MOL0     H14344   7.780   1.620   4.106 -0.5136 -0.0491  1.1780
  104MOL0     H14345   7.957   1.556   4.077  0.2307 -2.6343  0.3736
  104MOL0     H14346   7.734   1.554   3.871  0.7442 -2.5167  0.4856
  104MOL0     H14347   7.901   1.515   3.854 -1.3173 -4.0067  3.3783
  104MOL0     H14348   7.933   1.926   3.780  2.2962 -1.1014 -0.7980
  104MOL0     H14349   7.582   1.576   4.299  2.3424 -1.7513 -1.0349
  104MOL0     H14350   7.277   1.631   4.398 -2.5270 -1.6590  0.3984
  104MOL0     H14351   7.352   1.645   4.239 -5.6856  0.0157 -2.9377
  104MOL0     H14352   7.222   1.538   4.257  0.8151 -1.6647 -0.6515
  105MOL0     O14353   3.718   2.966  10.138 -0.5701  0.2785  0.1112
  105MOL0     C14354   3.656   3.070  10.119  0.3413 -0.7865  0.5940
  105MOL0     O14355   3.521   3.081  10.129  0.0408 -0.4079  0.6000
  105MOL0     C14356   3.439   2.971  10.157 -0.3756 -0.4705  0.2494
  105MOL0     C14357   3.330   2.939  10.082 -0.3267 -0.3865 -0.2115
  105MOL0     C14358   3.258   2.820  10.112 -0.8891  0.4012  1.1086
  105MOL0     C14359   3.288   2.750  10.231 -0.8724  0.0900 -0.2565
  105MOL0     O14360   3.235   2.635  10.262 -0.2935  0.0516 -0.8109
  105MOL0     C14361   3.254   2.517  10.178  0.2158  0.4979 -0.9070
  105MOL0     C14362   3.403   2.469  10.181 -0.0910 -0.7717 -0.7872
  105MOL0     C14363   3.454   2.407  10.320 -0.9212 -0.2927 -0.2421
  105MOL0     C14364   3.410   2.256  10.328 -0.1581 -0.1696 -0.1647
  105MOL0     C14365   3.512   2.171  10.415 -0.2374 -0.6442 -0.0810
  105MOL0     C14366   3.439   2.099  10.527  0.6512 -0.5361  0.4116
  105MOL0     C14367   3.526   1.980  10.580 -0.2432  0.3026 -1.1882
  105MOL0     C14368   3.642   2.039  10.656 -0.7471 -0.0616 -0.4051
  105MOL0     N14369   3.751   1.946  10.672  0.2332  0.9084 -0.0565
  105MOL0     C14370   3.745   1.814  10.726  0.1095  0.6709  0.5490
  105MOL0     C14371   3.869   1.773  10.716 -0.1711  0.5247 -0.4923
  105MOL0     C14372   3.929   1.651  10.774  0.8899  1.1279  0.2708
  105MOL0     C14373   3.859   1.530  10.732  0.6234  0.6396  0.0235
  105MOL0     C14374   3.821   1.445  10.852 -0.6148  0.4421  0.5696
  105MOL0     C14375   3.792   1.297  10.817 -0.2516 -0.0574  0.2777
  105MOL0     O14376   3.759   1.223  10.935 -0.1673 -0.0148  0.3674
  105MOL0     C14377   3.706   1.098  10.922  0.2045 -0.5890 -0.2095
  105MOL0     C14378   3.670   1.038  10.800  0.0958 -0.4632 -0.0847
  105MOL0     C14379   3.598   0.922  10.806  0.0446  0.4250 -0.2411
  105MOL0     C14380   3.539   0.861  10.684 -0.3697  1.1522 -0.0613
  105MOL0     C14381   3.579   0.854  10.931  0.5537 -0.4765 -0.1845
  105MOL0     C14382   3.490   0.734  10.938 -0.0462  0.6696 -0.0804
  105MOL0     O14383   3.547   0.608  10.916  0.3921 -0.4148  0.3028
  105MOL0     C14384   3.462   0.506  10.883 -0.2161  0.6648 -0.7358
  105MOL0     C14385   3.505   0.382  10.937  0.0311  0.7696  0.3049
  105MOL0     C14386   3.460   0.264  10.878 -0.4865 -0.2588  0.2268
  105MOL0     C14387   3.354   0.257  10.789  0.1438  0.1887 -0.2060
  105MOL0     O14388   3.313   0.128  10.750 -0.1331  0.1818 -0.1063
  105MOL0     C14389   3.173   0.128  10.704 -1.2223 -0.1458 -0.0875
  105MOL0     C14390   3.146  -0.006  10.655 -0.2967 -0.5971 -0.1044
  105MOL0     C14391   3.244  -0.045  10.537  0.5938 -0.0964  0.5277
  105MOL0     C14392   3.189   0.014  10.402  1.6284  0.0061  0.1240
  105MOL0     C14393   3.058  -0.050  10.339 -0.5106 -0.4312 -0.3937
  105MOL0     C14394   3.054  -0.196  10.314 -0.0418  0.2011 -0.3148
  105MOL0     C14395   2.923  -0.243  10.251 -0.6196 -0.2517 -0.0403
  105MOL0     C14396   2.903  -0.400  10.240 -0.1221  0.7580 -0.4114
  105MOL0    Cl14397   2.739  -0.434  10.185  0.4113 -0.1581 -0.0823
  105MOL0     C14398   3.314   0.379  10.741 -0.1468 -0.4211  0.4199
  105MOL0     C14399   3.357   0.499  10.788  0.2955 -0.4973 -0.1943
  105MOL0     O14400   3.372   0.763  10.945 -1.1327  0.8766  0.1306
  105MOL0     C14401   3.627   0.910  11.044  0.0427 -1.0671 -0.7643
  105MOL0     C14402   3.684   1.037  11.042  0.6043  0.9529  0.0807
  105MOL0     N14403   3.946   1.873  10.651 -0.7448  0.8504  0.2533
  105MOL0     N14404   3.871   1.971  10.622  0.0761  0.3175  0.1930
  105MOL0     C14405   3.384   2.797  10.316  0.3894  0.2468 -1.2831
  105MOL0     C14406   3.462   2.898  10.279 -0.7454  0.6976 -0.4963
  105MOL0     C14407   3.729   3.195  10.083  0.0844  0.2605 -0.8631
  105MOL0     C14408   3.670   3.299  10.009 -0.1274 -0.4464  0.1669
  105MOL0     C14409   3.740   3.419   9.979  0.4158 -0.4789 -0.1516
  105MOL0     C14410   3.869   3.444  10.034 -0.1230  0.2812 -0.6926
  105MOL0     O14411   3.944   3.553  10.004 -0.4880 -0.4201 -0.3785
  105MOL0     C14412   3.884   3.689  10.005 -0.5820  0.7184  0.5149
  105MOL0     C14413   3.837   3.702  10.152  0.4639 -0.3844 -0.3305
  105MOL0     C14414   3.793   3.844  10.190 -0.2531  0.0364 -0.2338
  105MOL0     C14415   3.769   3.872  10.335 -0.0538  0.0440 -0.6031
  105MOL0     C14416   3.654   3.799  10.382  0.7209 -0.3281 -0.1149
  105MOL0     C14417   3.551   3.764  10.436 -0.0891  0.4316 -0.0838
  105MOL0     C14418   3.927   3.351  10.116  1.3895  0.4926  0.5533
  105MOL0     C14419   3.860   3.233  10.141 -1.0340 -0.0347  0.3363
  105MOL0     C14420   3.917   3.150  10.251 -0.7042  0.0084  1.2205
  105MOL0     H14421   3.309   3.000   9.995 -0.3915 -0.3984 -0.2038
  105MOL0     H14422   3.186   2.779  10.042  0.3154 -0.0383  0.0762
  105MOL0     H14423   3.228   2.530  10.073 -2.4384  0.5981 -0.2995
  105MOL0     H14424   3.182   2.441  10.210  1.2048 -1.6560 -3.3791
  105MOL0     H14425   3.413   2.391  10.104 -1.9511 -2.9221  1.0179
  105MOL0     H14426   3.470   2.548  10.146  0.2425 -0.9838 -0.6368
  105MOL0     H14427   3.563   2.402  10.319 -0.6936  2.0213 -3.9162
  105MOL0     H14428   3.428   2.470  10.406 -0.6337  1.0101 -1.0877
  105MOL0     H14429   3.312   2.255  10.376  0.7828 -0.3474  1.8881
  105MOL0     H14430   3.416   2.223  10.224  1.5129  3.5279 -1.4182
  105MOL0     H14431   3.597   2.228  10.452  0.9520 -0.3700 -2.9824
  105MOL0     H14432   3.537   2.089  10.347 -2.1589 -3.9642  2.8479
  105MOL0     H14433   3.411   2.173  10.603  0.3620  2.2698 -2.2513
  105MOL0     H14434   3.348   2.053  10.488  1.2112 -0.7677 -0.6599
  105MOL0     H14435   3.575   1.918  10.504  5.3228  2.1684  0.3974
  105MOL0     H14436   3.477   1.906  10.645 -0.3705  0.5937 -0.9467
  105MOL0     H14437   3.681   2.129  10.607 -1.0143 -0.7035 -1.8647
  105MOL0     H14438   3.613   2.053  10.760 -3.3985  0.3860 -1.1448
  105MOL0     H14439   3.659   1.772  10.777 -0.1662 -0.2683 -0.6424
  105MOL0     H14440   3.931   1.663  10.883  2.6383  0.7356  0.3083
  105MOL0     H14441   4.033   1.659  10.742  0.6492 -0.7886 -1.1495
  105MOL0     H14442   3.774   1.557  10.668 -2.9380 -0.5554  3.7897
  105MOL0     H14443   3.936   1.474  10.677 -1.2444 -2.5109  0.3929
  105MOL0     H14444   3.904   1.454  10.922 -1.2179  4.1564  1.0181
  105MOL0     H14445   3.733   1.485  10.904 -0.8444  3.0097 -1.5660
  105MOL0     H14446   3.705   1.311  10.752 -2.4987  1.0877  3.2770
  105MOL0     H14447   3.882   1.257  10.769  0.8906 -0.2542  2.4524
  105MOL0     H14448   3.694   1.099  10.713  1.1070  2.8163  2.2673
  105MOL0     H14449   3.430   0.859  10.688 -0.3392 -0.9336  0.6074
  105MOL0     H14450   3.569   0.756  10.677 -1.9502  0.7644 -2.4448
  105MOL0     H14451   3.572   0.917  10.595  3.7838 -1.1150 -0.1994
  105MOL0     H14452   3.588   0.378  11.007  0.9280 -1.0202 -0.7836
  105MOL0     H14453   3.498   0.163  10.887 -2.2905 -1.1786 -1.5207
  105MOL0     H14454   3.105   0.146  10.788  0.0075 -3.7291  1.8985
  105MOL0     H14455   3.167   0.189  10.614 -0.1989 -0.9039 -0.6947
  105MOL0     H14456   3.172  -0.085  10.726  0.9043  0.0172  0.1808
  105MOL0     H14457   3.045  -0.010  10.613  0.8496 -0.9087 -3.1422
  105MOL0     H14458   3.248  -0.154  10.538 -0.6677 -0.2268  3.4286
  105MOL0     H14459   3.348  -0.016  10.553  0.0726  0.3791  3.6412
  105MOL0     H14460   3.272   0.003  10.331  0.0217  1.2699 -2.0908
  105MOL0     H14461   3.177   0.123  10.404 -3.0475 -0.2065 -1.8344
  105MOL0     H14462   2.970  -0.031  10.401 -1.2224  1.6873 -1.9557
  105MOL0     H14463   3.033   0.004  10.248  0.4305 -0.6812 -0.8164
  105MOL0     H14464   3.057  -0.239  10.414  2.7062 -1.7571 -1.1074
  105MOL0     H14465   3.145  -0.229  10.263  0.5313 -0.3626  1.0219
  105MOL0     H14466   2.908  -0.201  10.152 -0.3284 -0.3893 -0.1433
  105MOL0     H14467   2.837  -0.213  10.313 -1.2287  0.5970 -1.2641
  105MOL0     H14468   2.915  -0.442  10.341  2.7804  3.5210  0.5660
  105MOL0     H14469   2.984  -0.451  10.187 -0.2320  0.7523 -0.5749
  105MOL0     H14470   3.241   0.375  10.661 -3.4133 -0.6474  3.1622
  105MOL0     H14471   3.305   0.584  10.745 -1.5301 -0.7592  1.3863
  105MOL0     H14472   3.614   0.867  11.142 -1.6848 -2.6493 -1.6220
  105MOL0     H14473   3.708   1.081  11.138  2.4007 -3.1355  1.7532
  105MOL0     H14474   3.398   2.750  10.413 -0.9810  0.7513 -0.8171
  105MOL0     H14475   3.545   2.924  10.344 -0.1407  1.3449 -1.4911
  105MOL0     H14476   3.567   3.292   9.974 -0.9194  2.4463  1.5940
  105MOL0     H14477   3.685   3.506   9.943  3.6854  0.3970 -3.6740
  105MOL0     H14478   3.954   3.769   9.984  2.6215 -1.6435  1.4505
  105MOL0     H14479   3.803   3.694   9.932 -2.0142  2.6995  2.1360
  105MOL0     H14480   3.925   3.684  10.215  4.0141 -0.8634 -4.8780
  105MOL0     H14481   3.759   3.634  10.187 -0.1293  0.6850  0.4965
  105MOL0     H14482   3.862   3.921  10.157 -1.5583  0.5908 -1.7882
  105MOL0     H14483   3.699   3.858  10.135 -2.6290 -3.2086  2.5183
  105MOL0     H14484   3.762   3.976  10.370  0.6482 -0.1779  0.2461
  105MOL0     H14485   3.856   3.841  10.394  1.4026  4.7961  0.1529
  105MOL0     H14486   3.470   3.737  10.501 -0.7604 -0.3699 -1.2197
  105MOL0     H14487   4.021   3.371  10.167  1.2531  1.6063  0.3953
  105MOL0     H14488   3.952   3.057  10.205  1.4730  0.8757  1.0028
  105MOL0     H14489   4.008   3.187  10.299 -2.7189  2.8268  3.0942
  105MOL0     H14490   3.840   3.126  10.324 -1.5496 -2.4928 -0.3603
  106MOL0     O14491   8.091   7.144   4.978 -0.5544  0.2091 -0.2351
  106MOL0     C14492   8.085   7.053   4.897 -0.7906  0.5963 -0.1399
  106MOL0     O14493   7.965   6.988   4.876 -0.9948  0.0400 -0.2969
  106MOL0     C14494   7.860   7.002   4.963  0.0837 -0.7964  0.5046
  106MOL0     C14495   7.826   6.895   5.043 -0.9644 -0.2505  0.9645
  106MOL0     C14496   7.715   6.922   5.130 -1.1122  0.8119 -0.1216
  106MOL0     C14497   7.648   7.040   5.138  0.2380  0.5148  0.4202
  106MOL0     O14498   7.560   7.060   5.241  0.3759 -0.1467 -0.6561
  106MOL0     C14499   7.449   6.978   5.263 -0.6328 -0.6949  0.6322
  106MOL0     C14500   7.307   7.038   5.240 -0.0612  0.5331  0.3157
  106MOL0     C14501   7.288   7.057   5.091 -0.4873  0.0733 -0.4316
  106MOL0     C14502   7.140   7.090   5.058  0.5017 -0.0586 -0.2444
  106MOL0     C14503   7.119   7.069   4.905 -1.2609  0.2409  0.1973
  106MOL0     C14504   6.980   7.060   4.872  0.3823 -0.6751  0.4673
  106MOL0     C14505   6.984   7.016   4.717  0.6587 -0.4265 -0.2005
  106MOL0     C14506   6.863   6.932   4.672 -0.0526 -0.2420 -0.6575
  106MOL0     N14507   6.864   6.790   4.706 -0.2766 -0.3724 -0.0816
  106MOL0     C14508   6.920   6.730   4.814  0.1290  0.4718  0.0305
  106MOL0     C14509   6.911   6.599   4.784 -0.0523 -0.6817  0.1225
  106MOL0     C14510   6.980   6.509   4.878 -0.6839 -1.6034 -0.6506
  106MOL0     C14511   6.917   6.371   4.875  0.2036  0.3384 -0.3692
  106MOL0     C14512   6.981   6.303   5.004 -0.5052  0.3964 -0.2182
  106MOL0     C14513   6.967   6.151   4.991  0.7108  0.5218 -0.0141
  106MOL0     O14514   7.014   6.095   5.120  0.0611  0.5049  0.4599
  106MOL0     C14515   7.070   5.970   5.133  0.1206  0.6798  0.8475
  106MOL0     C14516   7.160   5.958   5.238 -0.7693 -0.0960 -0.6872
  106MOL0     C14517   7.247   5.846   5.257 -0.8600 -0.2567 -0.0327
  106MOL0     C14518   7.333   5.855   5.377  0.5548  0.0726 -0.2181
  106MOL0     C14519   7.223   5.731   5.170 -0.0910 -0.2740  0.0901
  106MOL0     C14520   7.291   5.599   5.178 -0.3644 -1.5683 -0.7464
  106MOL0     O14521   7.283   5.517   5.069 -0.4127  0.3515 -1.0341
  106MOL0     C14522   7.391   5.427   5.055 -0.6459  0.4539 -0.0410
  106MOL0     C14523   7.507   5.479   5.007 -1.0711  0.5566  0.0141
  106MOL0     C14524   7.613   5.385   4.976 -0.8210  0.9597  0.0652
  106MOL0     C14525   7.611   5.248   5.005  0.2179 -0.0307 -0.2838
  106MOL0     O14526   7.711   5.173   4.954  1.0073  0.5429 -0.0306
  106MOL0     C14527   7.826   5.188   5.030  0.0779 -0.0476  0.5702
  106MOL0     C14528   7.886   5.051   5.032 -0.0814 -0.7054  0.3924
  106MOL0     C14529   7.987   5.037   5.146 -0.2676 -0.0848 -0.3845
  106MOL0     C14530   8.091   4.930   5.129 -0.2847 -0.8089 -0.1619
  106MOL0     C14531   8.184   4.899   5.249  0.2821  0.1864 -0.0176
  106MOL0     C14532   8.303   4.807   5.207 -0.5374  0.4285  0.8179
  106MOL0     C14533   8.389   4.757   5.327  0.4924  0.2757  0.4073
  106MOL0     C14534   8.313   4.710   5.447 -0.2467  0.4011 -0.3591
  106MOL0    Cl14535   8.430   4.660   5.576 -0.6044 -0.3451  0.1355
  106MOL0     C14536   7.495   5.208   5.057 -0.9249 -0.8037  0.2272
  106MOL0     C14537   7.383   5.291   5.087 -0.2124  0.1129  0.9056
  106MOL0     O14538   7.365   5.580   5.278 -0.1600  0.0197 -0.2570
  106MOL0     C14539   7.124   5.745   5.060  0.0266  1.1332 -0.6591
  106MOL0     C14540   7.054   5.859   5.041  0.1215 -0.0809  0.7635
  106MOL0     N14541   6.860   6.580   4.659 -0.1325 -0.3316  1.1941
  106MOL0     N14542   6.830   6.696   4.611  0.0137 -0.6884 -0.5968
  106MOL0     C14543   7.689   7.149   5.057  0.7898 -0.6475 -0.3899
  106MOL0     C14544   7.793   7.126   4.971 -0.3442  0.9382 -0.5280
  106MOL0     C14545   8.191   7.055   4.794 -0.3935 -0.4977 -0.8556
  106MOL0     C14546   8.169   6.974   4.679  0.9028 -0.3222  0.1383
  106MOL0     C14547   8.260   6.982   4.570 -0.0689 -0.6177 -0.9111
  106MOL0     C14548   8.364   7.082   4.569 -1.2626  0.3539 -0.8505
  106MOL0     O14549   8.436   7.102   4.457  0.4154  0.7119 -0.0463
  106MOL0     C14550   8.379   7.212   4.379 -0.0025  0.7924 -0.2884
  106MOL0     C14551   8.311   7.159   4.254 -0.5033 -0.1330  0.3517
  106MOL0     C14552   8.382   7.175   4.121  0.2097  0.2032 -0.2228
  106MOL0     C14553   8.325   7.122   3.991 -0.4039 -0.7417  1.3537
  106MOL0     C14554   8.192   7.165   3.946  0.1467  0.0433  0.5512
  106MOL0     C14555   8.104   7.220   3.885 -0.6341 -0.0923 -0.6118
  106MOL0     C14556   8.393   7.146   4.688 -0.1939  0.2189  1.0232
  106MOL0     C14557   8.310   7.130   4.798 -0.3214  0.9272  0.4531
  106MOL0     C14558   8.379   7.204   4.914  0.7821  1.2015  0.9206
  106MOL0     H14559   7.885   6.804   5.034 -0.3104  0.3739 -2.6218
  106MOL0     H14560   7.686   6.845   5.201 -0.5530 -0.6310 -1.4156
  106MOL0     H14561   7.452   6.968   5.372 -1.9253  0.2065  0.7747
  106MOL0     H14562   7.459   6.876   5.225 -2.6906 -0.5957 -0.3040
  106MOL0     H14563   7.239   6.964   5.282  0.1675  0.1407  0.0051
  106MOL0     H14564   7.318   7.132   5.295  2.5530  0.9902 -0.8088
  106MOL0     H14565   7.356   7.131   5.047 -1.1512  0.7667 -0.3049
  106MOL0     H14566   7.305   6.964   5.035 -0.6872 -0.9181  1.1058
  106MOL0     H14567   7.082   7.014   5.110 -0.1855  1.4272  1.2293
  106MOL0     H14568   7.105   7.189   5.086 -2.0928 -1.8960  4.0569
  106MOL0     H14569   7.171   6.976   4.881 -0.9380  0.4308  0.1561
  106MOL0     H14570   7.171   7.147   4.849  0.3741  0.5174  1.9870
  106MOL0     H14571   6.932   6.980   4.928 -4.4067  1.0714 -0.6819
  106MOL0     H14572   6.922   7.152   4.883 -4.0364 -2.3664 -4.4477
  106MOL0     H14573   7.076   6.965   4.688  2.0574  0.9849  1.5499
  106MOL0     H14574   6.988   7.101   4.649 -0.2853 -0.4970 -0.3558
  106MOL0     H14575   6.773   6.979   4.712  0.2309  2.1152 -2.5621
  106MOL0     H14576   6.837   6.942   4.566  0.0127  0.9000 -0.5703
  106MOL0     H14577   6.963   6.774   4.903  0.3150  1.6526 -0.6258
  106MOL0     H14578   6.950   6.554   4.973 -1.4080  2.5262 -2.6301
  106MOL0     H14579   7.086   6.508   4.854 -0.4048 -0.7495  0.4929
  106MOL0     H14580   6.808   6.379   4.877  0.1583  0.9145 -2.4509
  106MOL0     H14581   6.952   6.307   4.793  2.8162  2.8859 -1.4156
  106MOL0     H14582   7.086   6.334   5.013 -0.2429 -0.9323  2.0788
  106MOL0     H14583   6.922   6.333   5.091 -1.8074 -2.0148 -0.1942
  106MOL0     H14584   6.860   6.133   4.981  0.6906  1.4596 -2.0884
  106MOL0     H14585   7.025   6.108   4.909 -0.3418 -2.7461  0.8306
  106MOL0     H14586   7.162   6.047   5.300 -2.2668  0.4328 -1.3504
  106MOL0     H14587   7.346   5.958   5.412 -0.9358 -0.0715  0.8307
  106MOL0     H14588   7.428   5.806   5.355 -1.3391 -3.7084 -0.6496
  106MOL0     H14589   7.288   5.796   5.457  0.3532  0.1680 -0.2589
  106MOL0     H14590   7.532   5.584   4.992  2.4690  0.1081  1.8072
  106MOL0     H14591   7.699   5.428   4.925  1.3651 -1.0725  1.7829
  106MOL0     H14592   7.893   5.257   4.977  0.4698  1.3981  2.7782
  106MOL0     H14593   7.824   5.227   5.133  2.1950 -0.3904  0.7918
  106MOL0     H14594   7.806   4.977   5.029  0.2294 -1.0450 -2.2891
  106MOL0     H14595   7.943   5.040   4.939  0.6051 -2.8631  1.0171
  106MOL0     H14596   7.923   5.009   5.230 -0.3098 -0.2175 -0.4601
  106MOL0     H14597   8.039   5.129   5.174  1.3255 -0.5120 -1.8175
  106MOL0     H14598   8.154   4.975   5.051 -1.8218  4.9112  1.3747
  106MOL0     H14599   8.037   4.838   5.106  2.2839 -2.0412 -1.7497
  106MOL0     H14600   8.222   4.987   5.301  1.5554 -0.3076 -0.0650
  106MOL0     H14601   8.128   4.832   5.315  1.7318 -1.3578 -0.2681
  106MOL0     H14602   8.370   4.856   5.136 -1.8433  1.2132  0.0830
  106MOL0     H14603   8.262   4.724   5.148  1.9577 -2.4363  2.8092
  106MOL0     H14604   8.454   4.842   5.350 -1.4380  3.5280 -4.3540
  106MOL0     H14605   8.444   4.675   5.280  0.6270  0.2342  0.6371
  106MOL0     H14606   8.250   4.624   5.422  2.4205 -1.6966 -0.3291
  106MOL0     H14607   8.252   4.790   5.490  2.4987  3.6158 -1.9723
  106MOL0     H14608   7.491   5.104   5.086  1.9136 -1.1235 -0.2574
  106MOL0     H14609   7.291   5.244   5.122 -0.4709 -0.0260  0.0729
  106MOL0     H14610   7.115   5.658   4.996 -1.1974 -0.8686  2.0305
  106MOL0     H14611   6.997   5.870   4.950  2.0613 -0.3217 -0.5449
  106MOL0     H14612   7.627   7.238   5.060  1.2105 -0.3765  0.3620
  106MOL0     H14613   7.830   7.203   4.904  1.9010 -0.4043 -0.9356
  106MOL0     H14614   8.083   6.907   4.673  0.8527 -0.5365  2.4522
  106MOL0     H14615   8.236   6.935   4.475  1.5008 -0.6877 -1.2919
  106MOL0     H14616   8.314   7.282   4.433  2.6740  3.7587 -0.6376
  106MOL0     H14617   8.467   7.270   4.352  1.6183 -1.9654 -1.2245
  106MOL0     H14618   8.227   7.228   4.237 -1.1033 -0.5069  1.6325
  106MOL0     H14619   8.273   7.057   4.266  0.1939 -0.9302 -3.2003
  106MOL0     H14620   8.411   7.279   4.108  0.1445  0.2802  0.2446
  106MOL0     H14621   8.479   7.131   4.143 -0.2452 -0.7503 -0.0638
  106MOL0     H14622   8.333   7.013   3.984  0.1501 -0.6280 -4.1143
  106MOL0     H14623   8.394   7.147   3.910 -1.2265 -1.7556  0.3146
  106MOL0     H14624   8.037   7.277   3.824 -2.1254 -1.1632 -0.0597
  106MOL0     H14625   8.470   7.222   4.696  0.8717 -0.7477  0.2348
  106MOL0     H14626   8.367   7.312   4.903  0.0350  0.9695 -0.8210
  106MOL0     H14627   8.331   7.184   5.010  0.0976  2.7618  0.9412
  106MOL0     H14628   8.486   7.182   4.922  0.2200 -2.5755 -0.2942
  107MOL0     O14629   3.512   2.556   1.044  0.4022  0.6951  0.0945
  107MOL0     C14630   3.586   2.649   1.072 -0.6451 -0.3321  0.0569
  107MOL0     O14631   3.562   2.779   1.031 -0.3626 -0.5677 -0.0944
  107MOL0     C14632   3.441   2.822   0.976 -0.2898  0.1221  0.5300
  107MOL0     C14633   3.371   2.744   0.875  1.3957 -0.3737 -0.2484
  107MOL0     C14634   3.237   2.778   0.842 -0.7178  0.1040 -0.3847
  107MOL0     C14635   3.174   2.877   0.901  0.5835  0.1109  0.4700
  107MOL0     O14636   3.040   2.905   0.891 -0.1992  0.4214  0.1022
  107MOL0     C14637   2.954   2.842   0.787 -0.2259 -0.4216 -0.3503
  107MOL0     C14638   2.810   2.886   0.797 -0.7938 -0.1978 -1.0269
  107MOL0     C14639   2.748   2.875   0.938 -0.0124  0.1561  0.5842
  107MOL0     C14640   2.688   2.732   0.950  0.7290  0.2455 -1.0772
  107MOL0     C14641   2.603   2.713   1.076  0.0973 -0.0740  0.1458
  107MOL0     C14642   2.679   2.729   1.210  0.5875  1.0397  0.0153
  107MOL0     C14643   2.589   2.692   1.328 -0.6190 -0.1288 -0.1692
  107MOL0     C14644   2.661   2.676   1.458 -0.6671  0.0660 -0.5367
  107MOL0     N14645   2.719   2.794   1.533 -0.4476  0.1407  0.6739
  107MOL0     C14646   2.634   2.879   1.597  0.7895  0.6090 -0.7768
  107MOL0     C14647   2.713   2.958   1.673 -0.6999  0.0901  0.2893
  107MOL0     C14648   2.667   3.066   1.764 -0.0505 -0.1911  0.9187
  107MOL0     C14649   2.640   3.188   1.676  0.4361 -0.0262 -0.4375
  107MOL0     C14650   2.622   3.319   1.764 -0.4569 -0.3340  0.4763
  107MOL0     C14651   2.501   3.335   1.848 -0.0867  0.0584  0.1719
  107MOL0     O14652   2.518   3.266   1.967 -0.2221 -0.7973 -0.6514
  107MOL0     C14653   2.413   3.292   2.064  1.2358  1.2976 -0.1390
  107MOL0     C14654   2.331   3.190   2.107 -0.4487 -0.6975  0.3870
  107MOL0     C14655   2.232   3.219   2.195  0.8593  0.7951 -0.6662
  107MOL0     C14656   2.126   3.113   2.213 -0.1378 -0.8668  0.5604
  107MOL0     C14657   2.220   3.347   2.248  0.8341  1.3608 -0.4640
  107MOL0     C14658   2.123   3.374   2.362 -0.5549 -0.9225  0.3148
  107MOL0     O14659   2.164   3.480   2.452 -0.3720 -0.1108  0.3712
  107MOL0     C14660   2.095   3.499   2.567  0.0731  0.4388 -0.4131
  107MOL0     C14661   2.178   3.454   2.672 -0.0830 -1.2966  0.5890
  107MOL0     C14662   2.137   3.464   2.808 -0.0617 -0.5685  0.8231
  107MOL0     C14663   2.005   3.502   2.837 -0.2462 -0.0366  0.3611
  107MOL0     O14664   1.964   3.503   2.960  0.5595  0.9862  0.1296
  107MOL0     C14665   2.002   3.615   3.043 -0.8106 -0.0357  0.2668
  107MOL0     C14666   1.962   3.751   2.987  0.1561 -0.0174 -0.3119
  107MOL0     C14667   1.812   3.775   2.971 -0.7005 -0.3597 -0.3078
  107MOL0     C14668   1.794   3.904   2.890  0.6325 -0.2333  0.0540
  107MOL0     C14669   1.651   3.944   2.884  0.8962 -0.5685  0.1968
  107MOL0     C14670   1.624   4.045   2.765 -0.0054 -0.0056  0.3713
  107MOL0     C14671   1.483   4.092   2.787 -0.2174  0.0125  0.0740
  107MOL0     C14672   1.379   3.992   2.729 -0.1330 -0.7536  0.4642
  107MOL0    Cl14673   1.215   4.045   2.725  0.5355 -0.1744  0.6986
  107MOL0     C14674   1.915   3.531   2.729  0.0971 -0.0173  0.1016
  107MOL0     C14675   1.962   3.540   2.597 -0.3596 -0.4239  0.1264
  107MOL0     O14676   2.022   3.313   2.368  0.0376  0.0646 -0.3137
  107MOL0     C14677   2.292   3.450   2.202 -0.5838 -1.3308  0.1640
  107MOL0     C14678   2.385   3.427   2.103 -0.3585 -0.1323 -0.5947
  107MOL0     N14679   2.847   2.925   1.648 -0.3087 -0.5442  0.3165
  107MOL0     N14680   2.845   2.820   1.570 -0.3464 -0.1604  0.0315
  107MOL0     C14681   3.243   2.955   0.999 -0.5592 -0.1205  0.9733
  107MOL0     C14682   3.373   2.927   1.035 -0.2466 -0.5683  0.7075
  107MOL0     C14683   3.709   2.634   1.146 -0.4471  1.0094 -0.4609
  107MOL0     C14684   3.810   2.730   1.145  0.8719 -0.3116  0.1076
  107MOL0     C14685   3.928   2.718   1.224  0.6677  0.0090 -0.9981
  107MOL0     C14686   3.965   2.598   1.293  0.0025 -0.0597 -1.1494
  107MOL0     O14687   4.083   2.603   1.358  0.3223  0.3372 -0.5871
  107MOL0     C14688   4.142   2.481   1.413  0.4424  0.3526  1.0741
  107MOL0     C14689   4.101   2.477   1.566 -0.0229  0.3518  0.3474
  107MOL0     C14690   3.967   2.409   1.585 -0.1169 -0.2282 -0.2534
  107MOL0     C14691   3.935   2.369   1.732  0.1191  0.0592  0.3010
  107MOL0     C14692   4.021   2.259   1.771  0.3199  0.5051  0.3567
  107MOL0     C14693   4.093   2.158   1.778  0.7849  0.5917  0.2947
  107MOL0     C14694   3.867   2.499   1.287  1.5437 -0.1932 -1.2141
  107MOL0     C14695   3.744   2.511   1.208  0.0107 -0.7496 -0.7436
  107MOL0     C14696   3.661   2.381   1.216  0.1799  0.3686  0.3005
  107MOL0     H14697   3.409   2.653   0.831  0.6481 -1.0209  0.4034
  107MOL0     H14698   3.186   2.711   0.774  0.2214 -1.4938  0.4055
  107MOL0     H14699   2.961   2.734   0.802  0.5933 -0.0006  3.0034
  107MOL0     H14700   2.993   2.879   0.692 -0.3067 -0.5488 -0.4340
  107MOL0     H14701   2.806   2.991   0.768 -0.3036 -0.3210 -1.5641
  107MOL0     H14702   2.742   2.830   0.733 -1.0206 -1.1115 -0.0201
  107MOL0     H14703   2.825   2.885   1.015 -0.4764 -3.7950  1.8111
  107MOL0     H14704   2.668   2.949   0.946  0.1425  0.2160  1.9484
  107MOL0     H14705   2.623   2.710   0.865 -0.6414  1.9375 -0.5106
  107MOL0     H14706   2.774   2.665   0.950  1.3708  1.0428 -2.0639
  107MOL0     H14707   2.566   2.612   1.056  2.1946 -0.7728 -0.5538
  107MOL0     H14708   2.519   2.782   1.068 -0.7650 -1.2527 -1.7750
  107MOL0     H14709   2.773   2.674   1.209  1.1658  1.6556  3.7913
  107MOL0     H14710   2.713   2.832   1.226 -1.0305  2.1421 -2.8766
  107MOL0     H14711   2.549   2.593   1.301  2.2063 -1.3960 -0.0623
  107MOL0     H14712   2.511   2.768   1.328 -3.0079 -2.4140  0.5638
  107MOL0     H14713   2.595   2.629   1.531  0.4630  2.1260  1.9657
  107MOL0     H14714   2.747   2.610   1.446 -1.9253 -1.5910 -0.6612
  107MOL0     H14715   2.527   2.890   1.588  0.6449 -0.9083 -1.2034
  107MOL0     H14716   2.741   3.091   1.840  2.6350 -0.3545 -1.4947
  107MOL0     H14717   2.576   3.023   1.807 -1.1027  0.1137 -0.9194
  107MOL0     H14718   2.735   3.208   1.624  1.2662  0.4566  1.1828
  107MOL0     H14719   2.552   3.178   1.612 -0.9738  3.7715  0.6715
  107MOL0     H14720   2.709   3.346   1.824 -0.6742  1.6292 -0.0126
  107MOL0     H14721   2.620   3.398   1.688 -0.3317 -0.8129 -0.0327
  107MOL0     H14722   2.479   3.440   1.871 -3.0564 -0.9494  2.6296
  107MOL0     H14723   2.412   3.299   1.796 -0.0054 -2.8948  1.8541
  107MOL0     H14724   2.330   3.094   2.057 -2.6951 -1.2029  1.2932
  107MOL0     H14725   2.115   3.091   2.319 -2.8146  2.3762  1.1269
  107MOL0     H14726   2.153   3.024   2.155 -0.9008 -0.8458  0.1528
  107MOL0     H14727   2.030   3.153   2.179 -0.8942 -4.3875 -2.0609
  107MOL0     H14728   2.279   3.418   2.653  0.2780 -0.2095  0.4112
  107MOL0     H14729   2.197   3.428   2.891  1.5656  2.3307  1.0259
  107MOL0     H14730   1.956   3.597   3.141  0.1362 -2.2871  0.3700
  107MOL0     H14731   2.111   3.621   3.053 -0.9919  2.9608  1.4049
  107MOL0     H14732   1.998   3.821   3.062  2.6770 -1.4927 -0.0427
  107MOL0     H14733   2.018   3.761   2.893  0.9196  0.8496  0.2250
  107MOL0     H14734   1.771   3.783   3.072 -1.4679 -1.7610 -0.4868
  107MOL0     H14735   1.759   3.690   2.928 -0.6851 -0.4288 -0.1921
  107MOL0     H14736   1.828   3.875   2.790 -1.6656 -2.7904 -0.0913
  107MOL0     H14737   1.856   3.983   2.934  0.7721 -0.4979  0.3398
  107MOL0     H14738   1.586   3.858   2.864 -1.4807  1.1297  0.1487
  107MOL0     H14739   1.621   3.989   2.979  1.6831 -1.3084  0.8090
  107MOL0     H14740   1.640   3.993   2.670 -1.0206  1.6436 -0.7723
  107MOL0     H14741   1.687   4.134   2.775  1.9953 -1.4599  1.0448
  107MOL0     H14742   1.482   4.188   2.735  2.2876 -1.1633 -2.4172
  107MOL0     H14743   1.467   4.107   2.895 -0.7549 -1.2056  0.1781
  107MOL0     H14744   1.385   3.903   2.794 -1.6872  0.8224  2.9511
  107MOL0     H14745   1.407   3.961   2.628  0.5426 -0.7686  0.6519
  107MOL0     H14746   1.811   3.559   2.739  0.5001  1.7702 -0.3209
  107MOL0     H14747   1.901   3.544   2.507 -3.1887  2.4824  1.9769
  107MOL0     H14748   2.275   3.550   2.242  3.8168 -0.5771  0.6430
  107MOL0     H14749   2.442   3.515   2.077  1.7372 -1.4920 -0.9124
  107MOL0     H14750   3.199   3.032   1.062  2.0323  0.7256  1.8505
  107MOL0     H14751   3.411   2.984   1.119  1.2388  1.4016 -1.1712
  107MOL0     H14752   3.791   2.819   1.085 -3.1632 -0.3328  1.0728
  107MOL0     H14753   3.993   2.804   1.232 -0.8571  1.1298 -0.2480
  107MOL0     H14754   4.098   2.400   1.353 -2.7162  2.2822  0.5294
  107MOL0     H14755   4.250   2.494   1.408  0.1594  3.5783  1.0188
  107MOL0     H14756   4.094   2.578   1.607 -0.0862  1.0000 -1.1739
  107MOL0     H14757   4.181   2.426   1.620 -1.0887  2.7622  4.6844
  107MOL0     H14758   3.884   2.471   1.553  0.6885  0.8340 -0.3292
  107MOL0     H14759   3.973   2.319   1.522  0.1177 -0.4732  0.1146
  107MOL0     H14760   3.832   2.334   1.742  0.5028 -1.5676 -0.9727
  107MOL0     H14761   3.958   2.458   1.792  1.6987  0.2403 -0.5013
  107MOL0     H14762   4.147   2.067   1.769 -0.5162 -0.2446  0.6610
  107MOL0     H14763   3.884   2.411   1.348 -0.6941  0.3372  0.2949
  107MOL0     H14764   3.635   2.359   1.112 -1.7799  2.9598  0.1534
  107MOL0     H14765   3.712   2.299   1.268  0.0671  0.9842  1.4122
  107MOL0     H14766   3.574   2.404   1.278 -0.2975 -0.4849 -0.0370
  108MOL0     O14767   5.301   6.438   5.106 -0.4967  0.0188  0.7037
  108MOL0     C14768   5.369   6.446   5.006  0.5732 -0.5343  1.0996
  108MOL0     O14769   5.356   6.364   4.889  0.3063  0.2863  0.1021
  108MOL0     C14770   5.227   6.309   4.865 -0.7393  0.5299  0.3965
  108MOL0     C14771   5.153   6.238   4.956  0.0994  0.0809 -0.0588
  108MOL0     C14772   5.023   6.202   4.929  0.5118  0.7486 -0.0375
  108MOL0     C14773   4.966   6.215   4.802  0.1944  0.3202  0.3764
  108MOL0     O14774   4.841   6.182   4.760 -0.3291 -0.3781 -0.3183
  108MOL0     C14775   4.755   6.122   4.862  0.2626  0.6813  0.5933
  108MOL0     C14776   4.609   6.099   4.807  0.7844 -0.2462  0.5799
  108MOL0     C14777   4.542   6.227   4.771  0.4038 -0.6559  0.5661
  108MOL0     C14778   4.408   6.203   4.687  0.7900  0.1136  0.2951
  108MOL0     C14779   4.430   6.165   4.532  0.6108  0.6519  0.1986
  108MOL0     C14780   4.494   6.273   4.450 -1.0919 -0.3846  0.0932
  108MOL0     C14781   4.494   6.242   4.299 -0.2209  0.5294 -0.6108
  108MOL0     C14782   4.544   6.356   4.212 -0.2969  0.0072  0.4049
  108MOL0     N14783   4.556   6.314   4.070 -0.3640  0.2954  0.1570
  108MOL0     C14784   4.473   6.238   3.995  0.7516  0.0168  0.7310
  108MOL0     C14785   4.533   6.205   3.883  0.2880  0.0403  0.1484
  108MOL0     C14786   4.471   6.135   3.766 -0.1830  0.1985 -0.0987
  108MOL0     C14787   4.562   6.042   3.681  0.5392 -0.5520  0.7102
  108MOL0     C14788   4.603   5.932   3.777  0.3074  0.3955 -0.2286
  108MOL0     C14789   4.662   5.815   3.700 -0.1456 -0.8944  0.4813
  108MOL0     O14790   4.568   5.732   3.641  0.6375  0.6401  0.8030
  108MOL0     C14791   4.601   5.607   3.601 -0.1666 -0.4309  0.0254
  108MOL0     C14792   4.730   5.549   3.572  0.6874 -1.3819  0.1958
  108MOL0     C14793   4.743   5.430   3.504 -0.7257 -0.5802  0.0398
  108MOL0     C14794   4.884   5.390   3.462 -0.0748  0.6685 -0.1733
  108MOL0     C14795   4.631   5.363   3.464  0.3116  1.0157  0.3679
  108MOL0     C14796   4.639   5.237   3.378  0.2709 -0.1908 -0.0453
  108MOL0     O14797   4.727   5.227   3.278 -0.3000 -0.3091 -0.0950
  108MOL0     C14798   4.735   5.118   3.188 -0.7224 -0.3567 -0.7730
  108MOL0     C14799   4.643   5.022   3.157 -0.1528 -0.5007 -0.5162
  108MOL0     C14800   4.662   4.912   3.067  0.0810  1.2732  0.6899
  108MOL0     C14801   4.789   4.897   3.006 -0.3099 -0.5934 -0.1019
  108MOL0     O14802   4.809   4.793   2.912 -0.2571  0.3542 -0.0324
  108MOL0     C14803   4.810   4.838   2.767 -0.3880  0.3269  0.3651
  108MOL0     C14804   4.953   4.877   2.712  0.4732 -0.4263 -0.9846
  108MOL0     C14805   5.054   4.766   2.732 -0.0195  0.5947  0.2560
  108MOL0     C14806   5.051   4.666   2.627  0.1714 -0.1165 -0.8892
  108MOL0     C14807   5.144   4.546   2.641  0.8558 -0.0165 -0.1759
  108MOL0     C14808   5.102   4.472   2.766 -0.0842 -0.7432  0.1791
  108MOL0     C14809   5.149   4.327   2.749  0.0338 -1.0116 -1.1355
  108MOL0     C14810   5.139   4.237   2.878  0.6165 -1.2307  0.2246
  108MOL0    Cl14811   5.240   4.096   2.898  0.5747  0.1296  0.3414
  108MOL0     C14812   4.891   4.981   3.048 -0.2537  0.3943 -0.5236
  108MOL0     C14813   4.859   5.096   3.130 -0.3687 -0.6362  0.5212
  108MOL0     O14814   4.548   5.156   3.411 -0.1039  0.2910 -0.2647
  108MOL0     C14815   4.503   5.413   3.495  0.1583  0.0726 -0.1735
  108MOL0     C14816   4.489   5.533   3.560 -0.4531 -0.4896  0.5258
  108MOL0     N14817   4.658   6.254   3.889  0.8316  0.4500  0.2012
  108MOL0     N14818   4.676   6.311   4.005  0.0333  0.4393 -0.1443
  108MOL0     C14819   5.035   6.291   4.711 -0.1169  0.7999  0.9110
  108MOL0     C14820   5.168   6.333   4.746  0.1194  0.0084  0.0620
  108MOL0     C14821   5.481   6.537   5.006  0.0284  0.2026 -0.0683
  108MOL0     C14822   5.474   6.646   5.101  0.6576  0.1999 -0.0649
  108MOL0     C14823   5.566   6.745   5.083 -1.0594  0.2617  0.3619
  108MOL0     C14824   5.681   6.738   4.992 -0.0800  0.8319  0.2632
  108MOL0     O14825   5.786   6.824   4.980  0.6555 -0.1271 -0.4781
  108MOL0     C14826   5.823   6.870   5.112 -0.2253  0.1233  0.5833
  108MOL0     C14827   5.831   7.020   5.112  0.3080 -0.2626 -0.2517
  108MOL0     C14828   5.952   7.059   5.027 -0.5108 -0.4372  0.2641
  108MOL0     C14829   5.958   7.210   5.016  0.1639 -0.1686 -0.5318
  108MOL0     C14830   6.070   7.249   4.934 -0.7483  0.3618 -0.2492
  108MOL0     C14831   6.184   7.268   4.897 -0.3421 -0.4896  0.4927
  108MOL0     C14832   5.696   6.614   4.936  0.1750 -0.6008 -0.4704
  108MOL0     C14833   5.598   6.519   4.928 -0.2845 -0.7724  0.0457
  108MOL0     C14834   5.628   6.404   4.838  0.1117  0.3504  0.3189
  108MOL0     H14835   5.191   6.206   5.053 -0.7924 -1.2006 -0.1099
  108MOL0     H14836   4.966   6.148   5.004  1.4788 -2.4826 -1.4629
  108MOL0     H14837   4.752   6.176   4.957 -3.1853 -0.9070  1.5307
  108MOL0     H14838   4.801   6.025   4.885  1.1847  0.8120 -0.5579
  108MOL0     H14839   4.602   6.027   4.724  0.7979  1.3998 -0.8955
  108MOL0     H14840   4.537   6.059   4.879 -2.0505 -0.5470 -2.1972
  108MOL0     H14841   4.514   6.283   4.860 -0.3958  0.1023 -0.1397
  108MOL0     H14842   4.618   6.284   4.717  0.0406  0.0880  0.8226
  108MOL0     H14843   4.361   6.118   4.738 -0.4399  1.2231  1.0870
  108MOL0     H14844   4.342   6.290   4.697  1.3085  1.0668 -3.2606
  108MOL0     H14845   4.330   6.146   4.493  0.7416 -0.6111  0.4347
  108MOL0     H14846   4.475   6.066   4.522 -3.1153 -1.1585  0.0813
  108MOL0     H14847   4.451   6.373   4.466  0.5897  0.1092  1.7450
  108MOL0     H14848   4.596   6.287   4.485 -2.3447  3.0223  3.0289
  108MOL0     H14849   4.390   6.224   4.271  0.2128 -1.6781 -0.9776
  108MOL0     H14850   4.562   6.157   4.286  0.8932  1.1164  1.0664
  108MOL0     H14851   4.460   6.426   4.215 -0.0697  0.3216 -0.4568
  108MOL0     H14852   4.633   6.398   4.259  0.7201 -0.9608 -0.6158
  108MOL0     H14853   4.369   6.213   4.013 -0.1844  1.7485 -1.6950
  108MOL0     H14854   4.430   6.220   3.710 -1.6053  0.6493  1.5338
  108MOL0     H14855   4.387   6.075   3.800  1.5028 -1.4277  1.4346
  108MOL0     H14856   4.506   5.999   3.598 -0.1705 -1.0645  1.4448
  108MOL0     H14857   4.646   6.099   3.641 -2.6311  3.5935 -0.8431
  108MOL0     H14858   4.678   5.969   3.847  0.3545  2.1942 -1.1718
  108MOL0     H14859   4.529   5.907   3.853 -2.2359  2.1874 -1.9277
  108MOL0     H14860   4.728   5.857   3.623  1.4795 -2.8870  0.7137
  108MOL0     H14861   4.727   5.756   3.765  3.1202  1.2694 -0.5719
  108MOL0     H14862   4.819   5.604   3.600  0.5697 -0.0625 -1.8267
  108MOL0     H14863   4.946   5.414   3.550 -1.4259 -0.4729  1.1553
  108MOL0     H14864   4.919   5.446   3.375  0.0155 -0.9353 -1.2021
  108MOL0     H14865   4.892   5.283   3.440 -0.3479  0.2177  1.7081
  108MOL0     H14866   4.541   5.023   3.194 -0.7875 -4.3953 -1.6757
  108MOL0     H14867   4.574   4.856   3.039  0.1257  0.9679  1.1440
  108MOL0     H14868   4.780   4.750   2.711  0.1311  0.5185 -0.2199
  108MOL0     H14869   4.741   4.919   2.744  0.5882  0.9966 -0.2793
  108MOL0     H14870   4.958   4.912   2.608  0.9108  0.5394 -0.6592
  108MOL0     H14871   4.979   4.960   2.779 -0.1064 -0.1511 -1.0956
  108MOL0     H14872   5.038   4.717   2.829 -2.3321  1.8911  0.5924
  108MOL0     H14873   5.159   4.797   2.741  0.0509  0.4749 -0.1372
  108MOL0     H14874   5.070   4.703   2.526  3.8577  0.6520 -0.0557
  108MOL0     H14875   4.950   4.625   2.613 -0.3338  0.6184  0.3521
  108MOL0     H14876   5.140   4.478   2.555 -3.4183  0.6091 -0.7029
  108MOL0     H14877   5.250   4.568   2.652  0.8988 -1.0298  1.7532
  108MOL0     H14878   4.997   4.472   2.795  0.5803 -0.4970  2.9092
  108MOL0     H14879   5.165   4.512   2.847 -2.3328 -0.1781  1.7507
  108MOL0     H14880   5.251   4.314   2.714 -0.0063 -4.5127 -0.3474
  108MOL0     H14881   5.079   4.298   2.670 -3.7088  3.8028 -0.1234
  108MOL0     H14882   5.032   4.215   2.881 -0.4858  3.1702  3.8013
  108MOL0     H14883   5.175   4.287   2.968 -0.2481 -2.2898  1.1853
  108MOL0     H14884   4.992   4.989   3.011 -0.3699  3.4994 -0.4250
  108MOL0     H14885   4.933   5.171   3.159 -1.3014 -0.0870  1.5908
  108MOL0     H14886   4.414   5.366   3.453  0.2941 -2.9527  2.5499
  108MOL0     H14887   4.389   5.574   3.575 -1.0093 -1.6531  0.0631
  108MOL0     H14888   5.003   6.321   4.612  2.5226  2.0741  0.3621
  108MOL0     H14889   5.236   6.381   4.676  0.0351 -2.2774 -1.7163
  108MOL0     H14890   5.390   6.667   5.165  2.9982 -3.0768  4.6450
  108MOL0     H14891   5.567   6.830   5.151 -1.7808  1.8030 -1.4306
  108MOL0     H14892   5.767   6.833   5.199 -0.6795  0.5246  0.4716
  108MOL0     H14893   5.920   6.822   5.125 -1.0707 -1.4184  1.5709
  108MOL0     H14894   5.855   7.057   5.212  1.4362  1.6031 -1.1734
  108MOL0     H14895   5.739   7.059   5.068 -0.1943 -2.9309 -1.7875
  108MOL0     H14896   6.043   7.016   5.071  1.5570  0.2833 -2.9257
  108MOL0     H14897   5.937   7.023   4.925  1.5126  3.7487 -1.7778
  108MOL0     H14898   5.969   7.264   5.110 -2.3924 -0.8290  0.2213
  108MOL0     H14899   5.863   7.252   4.980  0.1978  1.8402  1.4874
  108MOL0     H14900   6.283   7.290   4.862 -1.0613  1.6468 -0.3645
  108MOL0     H14901   5.795   6.600   4.894  1.0595  2.2394  0.4289
  108MOL0     H14902   5.730   6.400   4.799  0.5292 -0.8228  1.4237
  108MOL0     H14903   5.629   6.312   4.897 -3.8303 -2.3668 -3.2203
  108MOL0     H14904   5.556   6.401   4.755  1.2500  1.4639 -0.7406
  109MOL0     O14905   6.608   1.753  10.024 -0.0100  0.4124  0.3393
  109MOL0     C14906   6.495   1.763  10.081 -0.7721 -0.4126 -0.1564
  109MOL0     O14907   6.402   1.860  10.055 -0.4099  0.4749  0.2439
  109MOL0     C14908   6.455   1.951   9.962  0.1876  0.4937 -0.3720
  109MOL0     C14909   6.415   1.932   9.828 -0.0827 -0.6134  0.3390
  109MOL0     C14910   6.456   2.034   9.735  0.4860  0.2042 -0.5548
  109MOL0     C14911   6.538   2.144   9.781 -0.3534 -0.5867 -0.4011
  109MOL0     O14912   6.564   2.238   9.679 -0.2853 -0.0139 -0.3163
  109MOL0     C14913   6.666   2.343   9.684 -0.1777 -0.3511  1.3503
  109MOL0     C14914   6.675   2.430   9.559 -0.7011 -0.6319 -0.8428
  109MOL0     C14915   6.536   2.442   9.485 -0.2469 -0.3953  0.0620
  109MOL0     C14916   6.528   2.535   9.369  0.3561 -0.4870 -0.2591
  109MOL0     C14917   6.395   2.548   9.294  0.6058 -0.2302 -0.9055
  109MOL0     C14918   6.385   2.677   9.217  0.5687  0.3003  0.1695
  109MOL0     C14919   6.275   2.680   9.102  0.0646  0.1520  0.4906
  109MOL0     C14920   6.246   2.820   9.049  0.2618  0.7199 -0.0389
  109MOL0     N14921   6.155   2.896   9.134 -0.4210  1.0644  0.3834
  109MOL0     C14922   6.022   2.857   9.139 -0.7049 -0.1186  0.3961
  109MOL0     C14923   5.966   2.953   9.216  0.0963  0.2812  0.5225
  109MOL0     C14924   5.825   2.970   9.255 -0.1862 -0.1779  0.0750
  109MOL0     C14925   5.738   3.021   9.132 -0.5681  0.0053 -0.1892
  109MOL0     C14926   5.765   3.168   9.097 -0.4064  1.1840  0.3575
  109MOL0     C14927   5.640   3.220   9.010 -0.6763  1.1106  0.0962
  109MOL0     O14928   5.661   3.360   8.961  0.2875  0.7646 -0.0300
  109MOL0     C14929   5.658   3.457   9.052  0.1782 -0.3261  0.5505
  109MOL0     C14930   5.707   3.575   9.008  0.6549 -0.6302 -0.0939
  109MOL0     C14931   5.699   3.693   9.083  0.1889 -0.3304  0.8335
  109MOL0     C14932   5.746   3.828   9.027 -0.1897 -0.3646  1.0794
  109MOL0     C14933   5.641   3.687   9.212 -0.2563 -0.0446  0.5256
  109MOL0     C14934   5.639   3.796   9.322  0.9363  0.1513  0.0012
  109MOL0     O14935   5.688   3.925   9.293 -0.0047  0.3544  0.7232
  109MOL0     C14936   5.655   4.036   9.359 -0.9282  0.0390 -0.4168
  109MOL0     C14937   5.750   4.098   9.434 -0.4855 -0.0469 -0.1153
  109MOL0     C14938   5.706   4.197   9.519 -0.5367  0.6077 -0.5203
  109MOL0     C14939   5.575   4.249   9.530  0.6317  0.0125  0.5502
  109MOL0     O14940   5.529   4.354   9.614  0.3311 -0.3184  0.1867
  109MOL0     C14941   5.624   4.419   9.693 -0.2255  0.5410 -0.0762
  109MOL0     C14942   5.559   4.546   9.765  0.8099 -0.0981 -0.1141
  109MOL0     C14943   5.493   4.497   9.885  0.5645 -0.5812 -0.4281
  109MOL0     C14944   5.416   4.617   9.940 -0.3755 -0.2011  0.0577
  109MOL0     C14945   5.362   4.586  10.088 -0.8187  0.3547 -1.0051
  109MOL0     C14946   5.308   4.726  10.144  0.5082  0.0369 -1.2885
  109MOL0     C14947   5.245   4.713  10.281 -0.3287  0.2976 -0.3131
  109MOL0     C14948   5.212   4.842  10.352  0.3530 -0.4670 -0.1306
  109MOL0    Cl14949   5.189   4.803  10.524 -0.1993 -0.3705 -0.0185
  109MOL0     C14950   5.483   4.181   9.446 -0.2731  0.4859 -0.4316
  109MOL0     C14951   5.522   4.074   9.367 -1.2872 -0.0804 -0.1124
  109MOL0     O14952   5.598   3.769   9.435  0.4704  0.4118 -0.5158
  109MOL0     C14953   5.606   3.561   9.261  1.8689 -1.2978  0.2687
  109MOL0     C14954   5.605   3.453   9.175 -0.2838  1.2198 -1.0335
  109MOL0     N14955   6.055   3.044   9.249 -0.7178  0.0900  0.0202
  109MOL0     N14956   6.175   3.006   9.205  1.0397  0.3687  0.3580
  109MOL0     C14957   6.581   2.152   9.913 -0.1034  0.9426  0.7871
  109MOL0     C14958   6.536   2.058  10.008  0.0612  0.5334  0.0646
  109MOL0     C14959   6.476   1.666  10.203  0.3736  0.2511  0.3079
  109MOL0     C14960   6.349   1.656  10.249  0.0549  0.0033 -0.1775
  109MOL0     C14961   6.314   1.576  10.362 -0.2339  0.5493  0.3244
  109MOL0     C14962   6.416   1.512  10.435 -0.5389 -0.0462  0.5840
  109MOL0     O14963   6.376   1.460  10.555 -0.3432 -0.5469  0.0355
  109MOL0     C14964   6.484   1.405  10.639  0.7544 -0.2834  0.9985
  109MOL0     C14965   6.416   1.349  10.765 -0.0312  0.5750  0.1747
  109MOL0     C14966   6.371   1.210  10.757 -0.2186  0.0453  0.2837
  109MOL0     C14967   6.340   1.159  10.892  0.0922 -0.7856 -1.1040
  109MOL0     C14968   6.222   1.226  10.956  0.0938  0.0662 -0.1788
  109MOL0     C14969   6.137   1.296  11.006  0.2156  0.2025 -0.0917
  109MOL0     C14970   6.552   1.512  10.384 -0.2623  0.0041  1.2792
  109MOL0     C14971   6.577   1.581  10.259  0.1893 -0.4571 -0.3064
  109MOL0     C14972   6.724   1.587  10.211 -0.1582  0.7227  0.0931
  109MOL0     H14973   6.375   1.838   9.791 -1.5023  1.0453 -2.7427
  109MOL0     H14974   6.436   2.023   9.629  2.9219  0.1324 -1.0567
  109MOL0     H14975   6.768   2.312   9.708  0.1640  0.0288  0.4049
  109MOL0     H14976   6.628   2.397   9.771 -0.9140  0.7758  0.3560
  109MOL0     H14977   6.711   2.529   9.589 -2.5804  0.8350 -3.0318
  109MOL0     H14978   6.754   2.386   9.497  0.5216 -2.4431  1.8267
  109MOL0     H14979   6.518   2.340   9.450  2.7124 -1.2813  0.8060
  109MOL0     H14980   6.460   2.479   9.555 -0.8114  2.7758 -2.0272
  109MOL0     H14981   6.568   2.629   9.409 -0.3145 -1.1309  2.0543
  109MOL0     H14982   6.597   2.503   9.291  0.7453  0.9603 -0.5497
  109MOL0     H14983   6.317   2.541   9.370  1.2099 -1.1928 -0.3595
  109MOL0     H14984   6.380   2.469   9.220 -1.3991  0.0942 -0.9024
  109MOL0     H14985   6.371   2.754   9.293 -2.0509  0.4585 -0.3792
  109MOL0     H14986   6.482   2.705   9.175  0.6931 -1.3161 -0.7207
  109MOL0     H14987   6.181   2.646   9.147 -0.3525 -0.1041 -0.5646
  109MOL0     H14988   6.303   2.612   9.022  1.2526  0.8689  0.2586
  109MOL0     H14989   6.344   2.868   9.049  0.9671 -0.6542  0.4940
  109MOL0     H14990   6.195   2.804   8.954 -1.3367  1.8822  0.5736
  109MOL0     H14991   5.970   2.768   9.103 -0.1388 -0.3470  0.1172
  109MOL0     H14992   5.814   3.041   9.338 -0.2496  0.5526 -0.5477
  109MOL0     H14993   5.780   2.879   9.294 -0.3206  0.5223  1.6326
  109MOL0     H14994   5.761   2.945   9.057 -1.8676 -1.8410  1.1785
  109MOL0     H14995   5.632   3.007   9.155 -0.6468  0.2262 -0.4137
  109MOL0     H14996   5.754   3.218   9.194  1.5250 -0.4598  1.4874
  109MOL0     H14997   5.863   3.195   9.058  2.6288 -0.3940  5.8915
  109MOL0     H14998   5.621   3.158   8.922 -1.6370 -0.6328  1.4719
  109MOL0     H14999   5.545   3.219   9.063 -1.0438  3.3686 -0.4144
  109MOL0     H15000   5.745   3.573   8.906  1.2400 -0.2313  0.1134
  109MOL0     H15001   5.781   3.812   8.924  2.3058  0.3659  1.7598
  109MOL0     H15002   5.832   3.868   9.082 -1.8079  0.9616  2.7369
  109MOL0     H15003   5.671   3.906   9.034  1.3204  1.0871  1.6023
  109MOL0     H15004   5.854   4.068   9.426 -0.6355 -0.5985 -0.0420
  109MOL0     H15005   5.780   4.230   9.591 -2.0341  0.8210  0.9917
  109MOL0     H15006   5.687   4.363   9.763 -0.2188  1.3183  0.5610
  109MOL0     H15007   5.687   4.456   9.611 -1.0665  0.1483 -0.9165
  109MOL0     H15008   5.645   4.607   9.795 -0.3047  2.2207 -1.3621
  109MOL0     H15009   5.492   4.611   9.708 -0.1501 -0.2898  0.7727
  109MOL0     H15010   5.558   4.456   9.964  0.1261  1.7321  1.2293
  109MOL0     H15011   5.420   4.419   9.862  0.1484 -0.4666  0.4314
  109MOL0     H15012   5.331   4.647   9.878 -1.7424  1.9612  2.7601
  109MOL0     H15013   5.481   4.706   9.943 -1.0512  0.2869  1.7287
  109MOL0     H15014   5.286   4.509  10.104 -0.8841  1.1376  4.5496
  109MOL0     H15015   5.451   4.560  10.146 -2.1476 -2.6132 -0.0805
  109MOL0     H15016   5.220   4.747  10.082 -0.3868 -1.7032 -0.6941
  109MOL0     H15017   5.379   4.809  10.145 -0.4014  0.8488 -0.2911
  109MOL0     H15018   5.320   4.667  10.346 -2.2117 -1.7418  0.5510
  109MOL0     H15019   5.158   4.647  10.286 -1.4216  1.7596  1.0795
  109MOL0     H15020   5.127   4.889  10.301  1.0092  1.0059  0.0846
  109MOL0     H15021   5.301   4.905  10.353 -0.3348  0.6091  2.8688
  109MOL0     H15022   5.385   4.226   9.442 -0.2084  0.5530 -1.8036
  109MOL0     H15023   5.454   4.027   9.297 -1.8679 -1.3235  1.2352
  109MOL0     H15024   5.561   3.563   9.359  0.6106  3.4598 -0.1585
  109MOL0     H15025   5.562   3.363   9.219 -0.1662  0.6272 -2.1068
  109MOL0     H15026   6.657   2.218   9.953 -1.8522  3.2558  0.4933
  109MOL0     H15027   6.572   2.059  10.110 -2.6393 -0.8298  1.1249
  109MOL0     H15028   6.278   1.724  10.204  0.2417  0.0687 -0.3757
  109MOL0     H15029   6.215   1.573  10.406 -0.3763  0.5397  0.0127
  109MOL0     H15030   6.536   1.325  10.586  0.2119 -1.1301  1.7243
  109MOL0     H15031   6.551   1.484  10.675 -0.0600  0.5652  0.7055
  109MOL0     H15032   6.347   1.425  10.804  1.9909  1.6791  1.7882
  109MOL0     H15033   6.501   1.335  10.832  0.8630  1.0937 -0.8006
  109MOL0     H15034   6.283   1.206  10.692  0.6949  1.4042 -1.0930
  109MOL0     H15035   6.451   1.146  10.720  0.1571  0.5424  0.2247
  109MOL0     H15036   6.429   1.176  10.953  0.8605 -1.4899 -1.9893
  109MOL0     H15037   6.317   1.052  10.891 -1.5617 -0.5185  1.2166
  109MOL0     H15038   6.072   1.378  11.032 -0.2324  0.0831 -0.8253
  109MOL0     H15039   6.632   1.455  10.430  0.6053  0.3696  0.2476
  109MOL0     H15040   6.737   1.558  10.106  3.0369  0.0770  0.5683
  109MOL0     H15041   6.760   1.687  10.235 -2.8094  1.2630  2.2210
  109MOL0     H15042   6.781   1.513  10.268  2.2318  2.1383 -0.3376
  110MOL0     O15043   7.897   6.522   3.528 -0.0607  0.5445  0.4017
  110MOL0     C15044   7.960   6.627   3.545  0.2893  1.3422  0.0858
  110MOL0     O15045   8.012   6.706   3.446  0.3386  1.4528  0.3229
  110MOL0     C15046   7.973   6.697   3.316  0.3155 -0.5591  0.9844
  110MOL0     C15047   8.076   6.742   3.236  0.5058 -0.1282  0.3498
  110MOL0     C15048   8.058   6.761   3.094 -1.0637  0.2309  0.2454
  110MOL0     C15049   7.939   6.725   3.035 -0.2514 -0.0824 -0.6376
  110MOL0     O15050   7.907   6.719   2.908 -0.4070  0.5611  0.5706
  110MOL0     C15051   8.006   6.750   2.815 -0.0951 -0.3525  0.8778
  110MOL0     C15052   7.957   6.756   2.676 -0.2592  0.2137  0.3965
  110MOL0     C15053   8.059   6.831   2.592  1.1532  0.3513 -0.0006
  110MOL0     C15054   8.167   6.748   2.519  0.1582 -0.3489 -0.5979
  110MOL0     C15055   8.267   6.821   2.429  0.3701 -0.1067 -0.8429
  110MOL0     C15056   8.248   6.771   2.283  0.7449  0.8661 -0.4142
  110MOL0     C15057   8.121   6.827   2.219 -0.0803 -0.0786  0.2026
  110MOL0     C15058   8.154   6.852   2.067 -0.2623  0.2052 -0.1496
  110MOL0     N15059   8.199   6.734   1.988  0.3825  0.5228 -0.4463
  110MOL0     C15060   8.127   6.654   1.898 -0.7034 -0.4012 -0.4977
  110MOL0     C15061   8.214   6.562   1.850  0.0176  0.3968  0.2724
  110MOL0     C15062   8.175   6.458   1.755  0.8956 -0.1636 -0.3812
  110MOL0     C15063   8.279   6.346   1.738  0.0275 -0.4459  0.3468
  110MOL0     C15064   8.215   6.243   1.639 -0.4543 -0.1696 -0.5171
  110MOL0     C15065   8.308   6.129   1.622  0.0549 -0.6625 -0.2328
  110MOL0     O15066   8.340   6.106   1.487 -0.1798  0.0385  0.2733
  110MOL0     C15067   8.392   5.977   1.466  0.5598 -0.0935 -0.1710
  110MOL0     C15068   8.502   5.932   1.542 -0.3605  0.5488 -0.0879
  110MOL0     C15069   8.560   5.802   1.534 -0.4392 -0.7398 -0.8151
  110MOL0     C15070   8.695   5.781   1.594 -0.1356 -0.4668  0.0491
  110MOL0     C15071   8.495   5.719   1.441  0.2597  0.2139  0.0609
  110MOL0     C15072   8.543   5.585   1.421 -0.5253 -1.0970 -0.4890
  110MOL0     O15073   8.546   5.532   1.301  0.3975 -0.4011 -0.7990
  110MOL0     C15074   8.606   5.408   1.299  0.0069 -1.2441  1.0205
  110MOL0     C15075   8.736   5.372   1.335  0.0625  0.0698 -0.4870
  110MOL0     C15076   8.788   5.242   1.313 -0.0325 -0.4843  0.1769
  110MOL0     C15077   8.705   5.142   1.246 -0.5669 -0.8675 -0.6901
  110MOL0     O15078   8.744   5.009   1.236 -0.3889 -0.6187 -0.0030
  110MOL0     C15079   8.684   4.923   1.134  0.3320  0.2743 -0.2793
  110MOL0     C15080   8.792   4.814   1.106  0.2302  0.1645  1.0370
  110MOL0     C15081   8.759   4.718   0.988  0.0061 -0.6523 -0.4683
  110MOL0     C15082   8.882   4.658   0.932 -1.2476  0.5031 -0.6681
  110MOL0     C15083   8.844   4.562   0.835 -0.3611 -0.8188  0.3932
  110MOL0     C15084   8.824   4.625   0.688 -0.3218 -0.4860  0.2285
  110MOL0     C15085   8.841   4.523   0.573 -0.2126 -0.5318 -0.7321
  110MOL0     C15086   8.768   4.579   0.446  0.2987 -0.9390 -0.2945
  110MOL0    Cl15087   8.591   4.578   0.496  0.3688  0.0237  0.1869
  110MOL0     C15088   8.569   5.176   1.215 -0.2051  0.8233 -0.5146
  110MOL0     C15089   8.521   5.307   1.239 -0.2216  0.5200  0.1832
  110MOL0     O15090   8.582   5.529   1.526 -0.4744 -0.2760  0.8397
  110MOL0     C15091   8.391   5.766   1.358 -1.0221 -0.1912 -0.3094
  110MOL0     C15092   8.330   5.887   1.389  0.0639  0.3681 -0.2246
  110MOL0     N15093   8.340   6.602   1.900  0.2725  0.5973 -0.3718
  110MOL0     N15094   8.332   6.688   1.990  0.2122 -0.3176  1.0647
  110MOL0     C15095   7.844   6.675   3.121  0.6223  0.1567 -0.4685
  110MOL0     C15096   7.848   6.664   3.258 -0.1181  0.1295  0.1735
  110MOL0     C15097   7.985   6.675   3.681 -0.5693 -0.1595  0.1524
  110MOL0     C15098   7.975   6.822   3.703 -0.7452  1.2537  0.0289
  110MOL0     C15099   7.986   6.872   3.831  1.2090 -0.2957  0.1619
  110MOL0     C15100   8.021   6.794   3.941 -0.5472 -0.7181 -0.0155
  110MOL0     O15101   8.051   6.856   4.056  0.4821  0.1601  0.3565
  110MOL0     C15102   8.108   6.782   4.162 -0.8172  0.5113 -0.8911
  110MOL0     C15103   8.252   6.729   4.132 -0.3251 -0.4004 -0.2112
  110MOL0     C15104   8.321   6.657   4.248 -0.1133  0.3392 -0.5809
  110MOL0     C15105   8.266   6.512   4.285  0.0380 -0.2544 -0.2415
  110MOL0     C15106   8.313   6.410   4.187  0.0402 -0.2718 -0.2783
  110MOL0     C15107   8.355   6.327   4.114  1.0419  0.4955 -0.2823
  110MOL0     C15108   8.020   6.651   3.923 -0.9943  0.5964  0.9700
  110MOL0     C15109   8.006   6.593   3.798 -0.2834  0.1432 -0.4666
  110MOL0     C15110   8.024   6.447   3.791  0.5445 -0.7022  0.0230
  110MOL0     H15111   8.154   6.786   3.297 -1.5665 -0.2597  3.2842
  110MOL0     H15112   8.141   6.799   3.035 -2.4910  2.9412 -0.1507
  110MOL0     H15113   8.095   6.687   2.825 -0.2129 -0.3086  2.5162
  110MOL0     H15114   8.034   6.853   2.837  1.5077 -0.7825  0.9834
  110MOL0     H15115   7.952   6.654   2.638  1.9016 -0.0251  0.6142
  110MOL0     H15116   7.854   6.793   2.670  0.5604  2.4427 -1.2865
  110MOL0     H15117   8.006   6.876   2.507 -4.5187 -0.7562  2.5309
  110MOL0     H15118   8.097   6.916   2.649 -3.3719  2.8706 -0.2771
  110MOL0     H15119   8.218   6.695   2.601 -3.2043 -1.1929  1.1364
  110MOL0     H15120   8.117   6.664   2.471 -2.2599  1.2428 -1.0224
  110MOL0     H15121   8.369   6.800   2.462 -0.4524 -1.2410  1.2122
  110MOL0     H15122   8.241   6.926   2.444 -0.8594 -0.5328  0.2399
  110MOL0     H15123   8.332   6.805   2.222 -0.3694 -2.2643 -4.1502
  110MOL0     H15124   8.245   6.662   2.283  3.6314  0.7035 -0.9482
  110MOL0     H15125   8.079   6.914   2.270 -3.2990 -0.5895 -1.3278
  110MOL0     H15126   8.041   6.753   2.216  1.8597 -2.2952 -2.7426
  110MOL0     H15127   8.068   6.896   2.016  1.8942  3.3155 -1.4209
  110MOL0     H15128   8.232   6.929   2.061 -0.5733  0.8789  2.8353
  110MOL0     H15129   8.026   6.674   1.863 -0.1031  1.5037 -1.2754
  110MOL0     H15130   8.150   6.502   1.658  1.7870  1.4738  0.0876
  110MOL0     H15131   8.084   6.405   1.784  1.2233 -0.9669 -0.7859
  110MOL0     H15132   8.370   6.385   1.692 -1.2401  0.5214 -1.4354
  110MOL0     H15133   8.315   6.296   1.829  0.3265  2.7726  2.1715
  110MOL0     H15134   8.122   6.202   1.678 -1.4974  2.4686 -0.0109
  110MOL0     H15135   8.196   6.288   1.541 -0.1812 -1.1188 -1.0183
  110MOL0     H15136   8.390   6.138   1.693 -0.5320  1.4360  0.2446
  110MOL0     H15137   8.240   6.052   1.661 -0.4566  1.3740  3.3688
  110MOL0     H15138   8.560   5.999   1.604  2.5307 -0.0194 -2.0047
  110MOL0     H15139   8.729   5.884   1.611  0.4558 -0.4358 -1.1687
  110MOL0     H15140   8.771   5.738   1.527  0.8925  0.0876  0.8256
  110MOL0     H15141   8.695   5.719   1.684  2.2326 -0.3941  0.1830
  110MOL0     H15142   8.805   5.448   1.368 -2.6763  2.2432  0.5753
  110MOL0     H15143   8.890   5.206   1.327  1.3284  0.5154 -5.0345
  110MOL0     H15144   8.591   4.881   1.171  1.6720 -1.4526  1.3056
  110MOL0     H15145   8.668   4.982   1.043  1.3503 -0.3450 -0.8748
  110MOL0     H15146   8.887   4.863   1.081 -0.2398 -0.3304 -2.2302
  110MOL0     H15147   8.807   4.751   1.194  1.0924  0.2288  0.9483
  110MOL0     H15148   8.703   4.776   0.914 -1.8582  1.1406  2.1523
  110MOL0     H15149   8.693   4.645   1.035 -1.1450 -0.7434 -2.1437
  110MOL0     H15150   8.945   4.611   1.008  0.2208 -2.0523 -3.2279
  110MOL0     H15151   8.962   4.720   0.892 -0.1302  1.1194  2.2543
  110MOL0     H15152   8.930   4.493   0.829  1.7749  1.6869  0.5324
  110MOL0     H15153   8.763   4.496   0.867 -0.0815 -0.9392  0.8731
  110MOL0     H15154   8.905   4.698   0.677 -1.1270  0.7711  2.3071
  110MOL0     H15155   8.734   4.686   0.689  0.1305  0.3564  4.1327
  110MOL0     H15156   8.802   4.427   0.608 -4.0560  0.2739 -2.3187
  110MOL0     H15157   8.949   4.510   0.560  0.6694  3.2838  1.4428
  110MOL0     H15158   8.769   4.526   0.350  3.1233 -1.5901 -0.0040
  110MOL0     H15159   8.798   4.683   0.429 -2.8431  0.1886  0.5084
  110MOL0     H15160   8.500   5.095   1.197  1.2261 -0.3177 -1.0512
  110MOL0     H15161   8.417   5.337   1.229 -0.7962 -0.1994  3.0595
  110MOL0     H15162   8.339   5.689   1.302 -1.2197 -1.4655  1.5332
  110MOL0     H15163   8.242   5.919   1.334  0.8250  0.9208 -1.1569
  110MOL0     H15164   7.751   6.652   3.069  2.5829  0.7217 -4.5955
  110MOL0     H15165   7.761   6.619   3.306 -1.0105 -3.6118 -4.3000
  110MOL0     H15166   7.947   6.889   3.622 -1.7636 -0.4193 -1.0544
  110MOL0     H15167   7.978   6.979   3.842  2.3677  0.0317 -1.6941
  110MOL0     H15168   8.117   6.830   4.260  3.7021 -0.3123 -0.6794
  110MOL0     H15169   8.044   6.695   4.177 -1.9532  1.2086 -1.5362
  110MOL0     H15170   8.314   6.818   4.115  0.4321 -0.7121  0.8386
  110MOL0     H15171   8.253   6.670   4.040 -0.2796 -0.7459  0.0074
  110MOL0     H15172   8.429   6.645   4.242 -0.2975 -1.2089 -1.0948
  110MOL0     H15173   8.310   6.724   4.334  2.9344  1.6148 -1.0369
  110MOL0     H15174   8.156   6.507   4.280 -0.1504  2.8559 -2.1218
  110MOL0     H15175   8.297   6.479   4.384 -0.5123 -1.0092 -0.3087
  110MOL0     H15176   8.374   6.236   4.059  3.5774 -1.0024  2.7522
  110MOL0     H15177   8.047   6.585   4.005 -1.2261 -1.5113 -0.5908
  110MOL0     H15178   7.930   6.406   3.752 -0.3794 -0.9168  2.2772
  110MOL0     H15179   8.095   6.414   3.715 -1.7554 -5.3060 -0.4762
  110MOL0     H15180   8.048   6.403   3.888 -0.9363 -3.6849 -0.8412
  111MOL0     O15181   4.019   3.297   0.652 -0.1316  0.7821 -0.3210
  111MOL0     C15182   3.923   3.367   0.619  0.7601 -0.6609 -0.6453
  111MOL0     O15183   3.814   3.379   0.700 -0.3468  0.3112 -0.3496
  111MOL0     C15184   3.827   3.312   0.818  0.7098 -1.1337 -0.2094
  111MOL0     C15185   3.919   3.357   0.921  0.0654 -0.1166  0.6188
  111MOL0     C15186   3.936   3.295   1.049  0.3933 -1.0745 -0.3282
  111MOL0     C15187   3.858   3.182   1.077 -0.0895 -0.1779 -0.1801
  111MOL0     O15188   3.876   3.101   1.181  0.3859  0.2355 -0.8299
  111MOL0     C15189   3.924   3.154   1.308 -0.4157  0.4711  0.1225
  111MOL0     C15190   3.937   3.042   1.409  0.7902  0.2453 -0.4835
  111MOL0     C15191   3.802   3.003   1.467  0.9629 -0.3597 -0.1083
  111MOL0     C15192   3.778   2.880   1.549  0.0128  0.0491  0.8396
  111MOL0     C15193   3.645   2.894   1.624 -0.5683  0.5271 -0.5495
  111MOL0     C15194   3.631   2.767   1.711 -0.8684 -0.6536  0.6539
  111MOL0     C15195   3.487   2.766   1.760  0.3877 -0.1441 -0.4522
  111MOL0     C15196   3.477   2.704   1.898 -0.5304 -0.3061 -0.4523
  111MOL0     N15197   3.512   2.565   1.907  1.0861 -0.3546 -0.4829
  111MOL0     C15198   3.435   2.456   1.866  0.4205  0.0662  0.1436
  111MOL0     C15199   3.522   2.354   1.846  0.3312 -0.2636  0.6248
  111MOL0     C15200   3.486   2.217   1.792 -0.2078  0.3068  0.2167
  111MOL0     C15201   3.492   2.216   1.640 -0.3563 -0.8217  0.1710
  111MOL0     C15202   3.633   2.225   1.576  0.1349  1.0743 -0.3067
  111MOL0     C15203   3.724   2.100   1.600  0.6411 -0.2965 -0.0473
  111MOL0     O15204   3.662   1.971   1.555  0.0413 -0.0374  0.1743
  111MOL0     C15205   3.687   1.850   1.620 -0.0140  0.3953 -0.1142
  111MOL0     C15206   3.622   1.740   1.564  0.1484 -0.2808  0.4804
  111MOL0     C15207   3.623   1.609   1.617 -0.1691 -0.6885  0.0541
  111MOL0     C15208   3.530   1.514   1.561  0.1688  0.6824 -0.1648
  111MOL0     C15209   3.712   1.589   1.726 -0.3373  0.6977  0.0186
  111MOL0     C15210   3.735   1.461   1.789  0.3404 -0.8526 -0.4140
  111MOL0     O15211   3.754   1.354   1.703  0.4989 -0.8485  0.6345
  111MOL0     C15212   3.778   1.232   1.764  0.2020  0.2031 -0.8157
  111MOL0     C15213   3.896   1.206   1.842 -0.1423  0.5473 -1.0502
  111MOL0     C15214   3.902   1.086   1.919  1.6824 -0.2018  0.3191
  111MOL0     C15215   3.794   0.999   1.934 -0.1051  0.1119 -0.7753
  111MOL0     O15216   3.791   0.896   2.027 -0.0544  0.0134 -0.1444
  111MOL0     C15217   3.680   0.819   2.033 -0.2620  0.6962  1.0728
  111MOL0     C15218   3.704   0.691   2.109  0.3496  0.1356  0.0595
  111MOL0     C15219   3.795   0.593   2.047  0.6674 -0.4732 -0.5698
  111MOL0     C15220   3.785   0.450   2.107 -0.6812 -0.6046  0.1628
  111MOL0     C15221   3.800   0.449   2.262 -0.2914 -0.3260 -0.2471
  111MOL0     C15222   3.945   0.458   2.306 -0.2635  0.6061  0.6258
  111MOL0     C15223   3.962   0.435   2.458  0.4738  0.3417  0.1614
  111MOL0     C15224   4.106   0.401   2.507 -0.1169 -0.6281  0.1056
  111MOL0    Cl15225   4.099   0.422   2.681 -0.5470  0.0271 -0.7920
  111MOL0     C15226   3.678   1.022   1.853  0.5959 -1.1937 -1.3227
  111MOL0     C15227   3.674   1.144   1.780  0.8021  0.3625  0.5071
  111MOL0     O15228   3.754   1.461   1.912 -0.2941  0.1321 -0.2243
  111MOL0     C15229   3.787   1.693   1.777  0.3112 -1.2237  0.1372
  111MOL0     C15230   3.767   1.825   1.733  0.3404  0.2879  0.0439
  111MOL0     N15231   3.648   2.397   1.895  0.6019  0.3626  0.1552
  111MOL0     N15232   3.639   2.522   1.939  1.0337  0.0464 -0.4209
  111MOL0     C15233   3.767   3.134   0.974 -0.0039  0.7504 -0.6843
  111MOL0     C15234   3.753   3.195   0.849 -0.4099 -0.6703  1.2938
  111MOL0     C15235   3.907   3.411   0.475 -0.8460 -0.4119 -0.9804
  111MOL0     C15236   4.018   3.474   0.434 -0.4719 -0.3242  0.1980
  111MOL0     C15237   4.028   3.529   0.301  0.0600  0.2504  0.4403
  111MOL0     C15238   3.913   3.524   0.221 -0.4376  0.1854  0.0924
  111MOL0     O15239   3.907   3.552   0.079 -0.3046 -0.0041 -0.0764
  111MOL0     C15240   4.038   3.562   0.018  0.0886  0.1998  0.0386
  111MOL0     C15241   4.023   3.604  -0.129 -0.6715  0.2270  0.2391
  111MOL0     C15242   3.936   3.740  -0.155 -1.2472 -0.1656 -0.3174
  111MOL0     C15243   3.927   3.754  -0.313  0.3823 -0.9086 -0.0337
  111MOL0     C15244   4.059   3.771  -0.378 -0.8038  0.9283  0.3500
  111MOL0     C15245   4.174   3.797  -0.416 -0.1832  0.2817  0.0569
  111MOL0     C15246   3.796   3.457   0.260 -0.3482 -0.2328 -0.5528
  111MOL0     C15247   3.793   3.410   0.392  0.8812 -0.1523 -0.2357
  111MOL0     C15248   3.675   3.325   0.429  0.3041  0.2224  0.0049
  111MOL0     H15249   3.981   3.444   0.901  0.3700 -0.4969 -0.1274
  111MOL0     H15250   4.012   3.330   1.117  0.8981  2.0087 -2.2769
  111MOL0     H15251   3.844   3.224   1.336 -0.0235  0.5744  1.0446
  111MOL0     H15252   4.020   3.205   1.297 -1.3097  1.9260 -1.4617
  111MOL0     H15253   3.973   2.953   1.357  0.1548  1.2948 -2.8535
  111MOL0     H15254   4.011   3.086   1.477  0.0087  1.5186 -0.4051
  111MOL0     H15255   3.772   3.088   1.529 -0.8671 -1.4151  0.5241
  111MOL0     H15256   3.726   3.002   1.388  2.4205  1.5293 -1.6312
  111MOL0     H15257   3.764   2.797   1.479 -3.1032  2.1197 -1.2435
  111MOL0     H15258   3.862   2.873   1.618  0.0070  2.2148  1.1158
  111MOL0     H15259   3.566   2.885   1.549  0.2774  3.5394 -1.9490
  111MOL0     H15260   3.644   2.984   1.686  2.6902 -0.3578  1.0322
  111MOL0     H15261   3.639   2.679   1.647 -2.1492  0.3877 -0.9896
  111MOL0     H15262   3.708   2.774   1.788  0.9174  0.9532 -1.1820
  111MOL0     H15263   3.426   2.710   1.688 -0.0857 -1.0272  0.6057
  111MOL0     H15264   3.462   2.872   1.770  0.5422  0.0893 -2.2376
  111MOL0     H15265   3.543   2.768   1.956  0.6314 -0.5508 -1.4662
  111MOL0     H15266   3.377   2.724   1.936  0.6420  0.6827  2.3432
  111MOL0     H15267   3.331   2.467   1.836  0.1552  0.3413  1.1299
  111MOL0     H15268   3.385   2.195   1.829  0.2149  0.1043  1.2874
  111MOL0     H15269   3.541   2.137   1.843 -1.4506  0.8422  2.5681
  111MOL0     H15270   3.453   2.119   1.605 -1.2033 -0.5361  0.2857
  111MOL0     H15271   3.425   2.292   1.599 -2.1827 -2.6561 -0.4912
  111MOL0     H15272   3.624   2.247   1.469 -1.8614  2.6123  0.1262
  111MOL0     H15273   3.680   2.316   1.616 -0.1238 -0.4441  3.9011
  111MOL0     H15274   3.820   2.121   1.553 -0.9300  0.0980 -3.3688
  111MOL0     H15275   3.744   2.093   1.707  3.4429  0.7674 -0.4154
  111MOL0     H15276   3.560   1.750   1.476 -0.3038 -3.3076  0.3555
  111MOL0     H15277   3.570   1.464   1.472 -1.5387 -0.6040 -0.2695
  111MOL0     H15278   3.434   1.567   1.560  0.5129  1.3155 -0.7779
  111MOL0     H15279   3.525   1.436   1.637 -1.8713  2.1075  1.2624
  111MOL0     H15280   3.975   1.279   1.831  2.1110 -0.7841  3.4736
  111MOL0     H15281   3.994   1.069   1.974  3.8972  0.4667 -2.8854
  111MOL0     H15282   3.604   0.874   2.091 -0.7698  2.0848 -0.8049
  111MOL0     H15283   3.652   0.796   1.930  0.0010 -0.8152  1.3196
  111MOL0     H15284   3.750   0.722   2.204  2.0191 -2.3273  0.1533
  111MOL0     H15285   3.599   0.661   2.116  0.4497 -0.7016 -1.5839
  111MOL0     H15286   3.891   0.634   2.081 -1.3873  2.9579  1.7134
  111MOL0     H15287   3.791   0.598   1.938  1.3505 -2.0226 -0.6928
  111MOL0     H15288   3.851   0.376   2.060  1.2611  0.7249  0.6606
  111MOL0     H15289   3.682   0.419   2.090 -0.7558  0.9498 -2.7016
  111MOL0     H15290   3.752   0.542   2.293 -0.6633 -0.2249 -1.1001
  111MOL0     H15291   3.760   0.363   2.316 -1.6327  1.4453  1.7371
  111MOL0     H15292   3.998   0.549   2.276 -2.5396  2.0865  0.8590
  111MOL0     H15293   3.986   0.370   2.256 -0.7198  0.9699 -0.4242
  111MOL0     H15294   3.904   0.352   2.497 -1.6057  1.2801 -0.7942
  111MOL0     H15295   3.930   0.528   2.507 -0.4008  0.4322 -0.5631
  111MOL0     H15296   4.176   0.472   2.464 -3.1045  2.0208 -0.7812
  111MOL0     H15297   4.153   0.304   2.489 -0.3707 -0.6273 -0.5667
  111MOL0     H15298   3.584   0.969   1.866  0.5922 -1.1468 -1.1554
  111MOL0     H15299   3.584   1.172   1.726  0.8128 -1.2826 -0.4342
  111MOL0     H15300   3.853   1.678   1.862 -0.9873  0.1972  1.4569
  111MOL0     H15301   3.828   1.911   1.759  0.8565  0.4592 -1.5922
  111MOL0     H15302   3.718   3.042   1.005  1.7677  0.5958  1.9227
  111MOL0     H15303   3.686   3.155   0.773  1.0351 -2.8103  1.0340
  111MOL0     H15304   4.106   3.478   0.498  0.7321 -3.0463 -1.1536
  111MOL0     H15305   4.118   3.581   0.268 -0.6843  0.9157 -0.6021
  111MOL0     H15306   4.110   3.627   0.068 -0.2056  0.1053  0.5971
  111MOL0     H15307   4.095   3.469   0.030 -0.3663 -0.3137 -1.5543
  111MOL0     H15308   3.985   3.517  -0.183 -0.9850  0.6569 -0.2473
  111MOL0     H15309   4.128   3.617  -0.157 -0.6405  0.5346  0.4900
  111MOL0     H15310   3.834   3.721  -0.119 -1.1760 -0.3050 -0.1852
  111MOL0     H15311   3.978   3.827  -0.103 -2.5086 -0.6498  1.6102
  111MOL0     H15312   3.863   3.836  -0.348 -1.8325 -3.5321 -2.5336
  111MOL0     H15313   3.869   3.669  -0.349 -3.4091  1.2313  0.4789
  111MOL0     H15314   4.277   3.802  -0.445 -0.2147 -0.6460 -0.2359
  111MOL0     H15315   3.724   3.435   0.182 -1.6151  0.3336  0.4312
  111MOL0     H15316   3.695   3.262   0.516  1.9526 -0.5634 -0.8993
  111MOL0     H15317   3.597   3.394   0.463 -1.0702 -1.7053  0.9257
  111MOL0     H15318   3.648   3.261   0.345  2.0925  0.6585 -0.9674
  112MOL0     O15319   9.884   9.674  11.080  0.2919 -0.0946  0.2805
  112MOL0     C15320   9.818   9.766  11.026 -0.5175 -0.0509 -0.0187
  112MOL0     O15321   9.874   9.886  10.969  0.3276  0.1752  0.6583
  112MOL0     C15322   9.996   9.914  11.030  0.0367 -1.1385 -0.0645
  112MOL0     C15323  10.011  10.023  11.113  0.2180 -0.3461  0.1683
  112MOL0     C15324  10.138  10.075  11.145 -0.3528 -1.1790 -1.0367
  112MOL0     C15325  10.257   9.997  11.116 -0.2547 -0.7874  0.0847
  112MOL0     O15326  10.378  10.056  11.159  0.7089  0.1607  0.2460
  112MOL0     C15327  10.496   9.972  11.138 -0.1574 -0.5342  0.4585
  112MOL0     C15328  10.595   9.980  11.260  0.5518  1.2925 -0.8242
  112MOL0     C15329  10.693   9.871  11.248  0.7919 -0.5397  0.1518
  112MOL0     C15330  10.646   9.737  11.301  0.2074  0.1743  0.0773
  112MOL0     C15331  10.759   9.621  11.280  0.3217 -0.0795 -0.2485
  112MOL0     C15332  10.724   9.485  11.339  1.1131  0.7222 -0.0831
  112MOL0     C15333  10.840   9.385  11.335 -0.2263  0.2972 -0.7929
  112MOL0     C15334  10.895   9.378  11.476 -0.8367 -0.0183  0.0194
  112MOL0     N15335  11.014   9.289  11.470  0.0643 -0.3158 -0.2558
  112MOL0     C15336  11.014   9.152  11.471  0.8131  0.0882  0.7969
  112MOL0     C15337  11.135   9.119  11.496 -0.9570  0.2264 -0.5529
  112MOL0     C15338  11.195   8.980  11.507  0.0831  0.2694  0.5474
  112MOL0     C15339  11.331   8.958  11.440 -1.2140  0.2845  0.1932
  112MOL0     C15340  11.392   8.819  11.449 -0.4308 -0.0205  0.0377
  112MOL0     C15341  11.419   8.774  11.587  0.4185 -1.0154  0.0987
  112MOL0     O15342  11.535   8.689  11.598  0.9256  0.7781 -0.1531
  112MOL0     C15343  11.515   8.552  11.594  0.3491 -0.0711 -1.3314
  112MOL0     C15344  11.438   8.484  11.500 -0.1212  0.6094  0.4912
  112MOL0     C15345  11.432   8.342  11.489 -0.0806  0.8919 -0.0385
  112MOL0     C15346  11.367   8.282  11.377 -0.7373 -0.2302  0.6760
  112MOL0     C15347  11.499   8.261  11.590 -0.4736  0.6314  0.0177
  112MOL0     C15348  11.506   8.107  11.589 -0.5037  0.2644  0.0402
  112MOL0     O15349  11.601   8.047  11.669  0.5785  0.4525 -0.6282
  112MOL0     C15350  11.659   7.922  11.643  0.4121 -0.8171  0.7252
  112MOL0     C15351  11.689   7.839  11.753 -0.5846 -0.3349 -0.8509
  112MOL0     C15352  11.746   7.716  11.723 -0.2283  0.1366  0.4456
  112MOL0     C15353  11.777   7.674  11.598 -0.0443 -0.1673  0.2534
  112MOL0     O15354  11.808   7.539  11.588 -0.1204  0.1159 -0.2806
  112MOL0     C15355  11.866   7.493  11.472  0.6407  0.7005  0.7600
  112MOL0     C15356  11.892   7.337  11.484 -0.7791  0.0172  0.1122
  112MOL0     C15357  11.888   7.291  11.631 -0.4836 -0.9859 -0.3253
  112MOL0     C15358  11.908   7.138  11.622  0.0398  0.3979 -0.4115
  112MOL0     C15359  11.884   7.067  11.762  0.8225  0.6059  0.2044
  112MOL0     C15360  11.849   6.920  11.733  0.8519 -0.2884  0.0487
  112MOL0     C15361  11.871   6.829  11.862 -0.1670  0.8419 -0.7897
  112MOL0     C15362  11.736   6.794  11.923 -0.4482  0.5367  0.3344
  112MOL0    Cl15363  11.659   6.665  11.835 -0.5019  0.2817  0.2673
  112MOL0     C15364  11.759   7.753  11.485 -0.9895  0.6599 -0.2004
  112MOL0     C15365  11.694   7.882  11.514  0.3017  0.3898  0.9530
  112MOL0     O15366  11.431   8.047  11.512  0.5380 -0.6372  0.4442
  112MOL0     C15367  11.573   8.331  11.689  1.1639  1.2153  0.1739
  112MOL0     C15368  11.586   8.471  11.686  0.7555 -0.4840  0.2917
  112MOL0     N15369  11.220   9.230  11.528 -0.9945 -0.5953  0.5485
  112MOL0     N15370  11.141   9.331  11.498  0.6527 -0.0721 -0.1933
  112MOL0     C15371  10.232   9.885  11.046 -1.0683 -0.3426 -0.4513
  112MOL0     C15372  10.113   9.847  11.002  0.1374  0.8521  0.6008
  112MOL0     C15373   9.687   9.727  10.979 -0.0209  0.1372 -0.2001
  112MOL0     C15374   9.669   9.616  10.886 -0.5063  0.3433 -0.4471
  112MOL0     C15375   9.545   9.588  10.831  1.1991 -0.1662 -0.1491
  112MOL0     C15376   9.431   9.660  10.867 -0.1737 -0.3618 -0.0090
  112MOL0     O15377   9.315   9.657  10.789 -0.0107  0.3245  0.4962
  112MOL0     C15378   9.187   9.656  10.858  0.2756 -0.9655  0.4315
  112MOL0     C15379   9.165   9.540  10.954 -0.2017  0.3919 -0.2541
  112MOL0     C15380   9.167   9.407  10.888  0.2053  0.0091 -0.5664
  112MOL0     C15381   9.134   9.301  10.999 -0.4540 -0.6050  0.4531
  112MOL0     C15382   9.147   9.160  10.960  0.7926 -0.2852  0.4493
  112MOL0     C15383   9.174   9.058  10.893  0.7526 -0.3415  0.0500
  112MOL0     C15384   9.444   9.765  10.960 -0.4353  0.0790 -0.0217
  112MOL0     C15385   9.571   9.796  11.013 -0.3466  0.3622 -0.4662
  112MOL0     C15386   9.584   9.912  11.106 -0.0313 -0.1413 -0.5780
  112MOL0     H15387   9.922  10.082  11.133  2.3959  3.7883 -1.1080
  112MOL0     H15388  10.140  10.165  11.205  0.1449 -1.8055 -0.1046
  112MOL0     H15389  10.557  10.007  11.055 -0.1923 -0.3354  0.5169
  112MOL0     H15390  10.474   9.865  11.127  0.9810 -1.0096  2.2980
  112MOL0     H15391  10.628  10.083  11.275  0.6186  1.4331 -1.8409
  112MOL0     H15392  10.536   9.975  11.352  1.2512  1.8134 -0.3396
  112MOL0     H15393  10.713   9.867  11.140 -2.6056  0.1369 -0.6223
  112MOL0     H15394  10.784   9.889  11.306  0.2922 -1.9892  1.4422
  112MOL0     H15395  10.617   9.740  11.407 -1.1309  0.3781 -0.2678
  112MOL0     H15396  10.564   9.715  11.232  2.1287  2.1083 -3.0588
  112MOL0     H15397  10.845   9.660  11.333 -0.0852  2.3732 -1.2564
  112MOL0     H15398  10.800   9.615  11.178 -0.0890  0.8759 -0.4786
  112MOL0     H15399  10.676   9.480  11.438 -3.9189 -3.7802 -2.1946
  112MOL0     H15400  10.649   9.444  11.271  2.2737  0.1429 -1.0377
  112MOL0     H15401  10.919   9.415  11.267  0.5674 -1.8072 -0.8777
  112MOL0     H15402  10.805   9.288  11.299  2.9803 -1.3231  0.0994
  112MOL0     H15403  10.920   9.477  11.514 -0.3313 -0.3810  0.6591
  112MOL0     H15404  10.820   9.325  11.536 -1.2562 -0.2481 -0.6912
  112MOL0     H15405  10.933   9.090  11.434  2.1342 -1.1082 -0.1738
  112MOL0     H15406  11.120   8.911  11.468 -1.7344  1.5190  1.6559
  112MOL0     H15407  11.200   8.956  11.614  0.7790 -1.4912  0.1554
  112MOL0     H15408  11.329   8.992  11.336 -3.0592 -2.8316 -0.9295
  112MOL0     H15409  11.403   9.030  11.482  0.6680 -2.1456  1.4308
  112MOL0     H15410  11.333   8.748  11.390 -0.9551  0.6827 -0.2968
  112MOL0     H15411  11.491   8.813  11.401 -1.4189 -1.0015 -2.0259
  112MOL0     H15412  11.429   8.862  11.650 -3.7510  1.4466 -2.2180
  112MOL0     H15413  11.323   8.732  11.619 -0.2552  1.2237  1.1652
  112MOL0     H15414  11.381   8.538  11.425 -0.9818 -1.4577 -0.4109
  112MOL0     H15415  11.330   8.365  11.316  2.2056  1.6567  1.2600
  112MOL0     H15416  11.293   8.215  11.421 -0.1195 -1.8179 -0.5860
  112MOL0     H15417  11.444   8.234  11.315 -2.3421 -1.9717 -0.0571
  112MOL0     H15418  11.651   7.872  11.849 -1.2984 -1.0390 -0.8881
  112MOL0     H15419  11.759   7.638  11.797  0.7256  0.3580  0.5171
  112MOL0     H15420  11.791   7.510  11.395  0.7931 -0.7461  0.2558
  112MOL0     H15421  11.961   7.541  11.447  1.0562 -1.5269 -2.6389
  112MOL0     H15422  11.820   7.288  11.419 -3.1474 -0.7631  3.0836
  112MOL0     H15423  11.994   7.319  11.448  0.4629  2.2003  2.1498
  112MOL0     H15424  11.790   7.316  11.673 -0.5501 -0.5533 -0.7374
  112MOL0     H15425  11.968   7.333  11.693 -2.8246 -1.4580  3.3306
  112MOL0     H15426  12.006   7.107  11.583 -0.3314 -1.7516  0.2370
  112MOL0     H15427  11.830   7.101  11.556  2.1885 -1.3000 -2.1727
  112MOL0     H15428  11.962   7.074  11.838  0.1942  0.9469  0.8316
  112MOL0     H15429  11.799   7.123  11.804  1.0099  1.1865 -0.1753
  112MOL0     H15430  11.909   6.877  11.653 -1.3778 -1.2635 -1.1914
  112MOL0     H15431  11.744   6.918  11.701  0.3087  0.8323  1.6282
  112MOL0     H15432  11.930   6.882  11.938 -1.0478  0.5823  0.0974
  112MOL0     H15433  11.924   6.737  11.838 -2.7377 -1.6295  2.2009
  112MOL0     H15434  11.661   6.873  11.917 -1.5447 -0.1006  3.7177
  112MOL0     H15435  11.751   6.769  12.028 -1.6455  3.6577  1.3558
  112MOL0     H15436  11.795   7.721  11.388 -0.5111 -4.4672  1.3965
  112MOL0     H15437  11.666   7.944  11.430  1.9265 -1.6797 -1.2652
  112MOL0     H15438  11.605   8.258  11.763  0.0854 -1.0162 -1.4358
  112MOL0     H15439  11.635   8.531  11.762 -0.0141  1.6479 -0.7830
  112MOL0     H15440  10.317   9.825  11.017 -0.9675 -0.3931 -0.0551
  112MOL0     H15441  10.096   9.756  10.945 -2.3561 -0.0180  2.5435
  112MOL0     H15442   9.752   9.555  10.852  0.2398  0.0954  1.6787
  112MOL0     H15443   9.531   9.517  10.750 -2.6464  0.2041 -0.0185
  112MOL0     H15444   9.177   9.746  10.919  2.7362  0.6092 -1.3104
  112MOL0     H15445   9.108   9.655  10.783  1.1938  3.3863 -0.8450
  112MOL0     H15446   9.072   9.544  11.011  0.4075  2.1049  0.6907
  112MOL0     H15447   9.248   9.547  11.025 -0.7910  2.1249  0.3151
  112MOL0     H15448   9.086   9.398  10.816  1.5650  1.1501 -2.2958
  112MOL0     H15449   9.266   9.396  10.843  0.4478  1.9818 -0.5825
  112MOL0     H15450   9.028   9.318  11.020 -1.6039 -2.1908 -3.1429
  112MOL0     H15451   9.192   9.310  11.091  1.7242 -0.3128 -0.8722
  112MOL0     H15452   9.198   8.978  10.825 -2.6185 -0.8948 -0.6860
  112MOL0     H15453   9.355   9.816  10.993  0.6611 -0.3190  4.0209
  112MOL0     H15454   9.506   9.905  11.183  0.4887  4.7384  0.7725
  112MOL0     H15455   9.672   9.915  11.171 -1.6718  1.7424  1.7484
  112MOL0     H15456   9.565  10.005  11.052  0.8201 -0.3772 -1.3026
  113MOL0     O15457   0.478  10.158   2.134 -0.6028  0.9700 -0.6711
  113MOL0     C15458   0.377  10.223   2.146 -0.4806 -0.1056  0.4696
  113MOL0     O15459   0.297  10.273   2.050  0.1989 -0.6165  0.6702
  113MOL0     C15460   0.317  10.224   1.925  0.1102 -0.2518 -0.5404
  113MOL0     C15461   0.382  10.301   1.824  0.2423  0.3867 -0.5286
  113MOL0     C15462   0.404  10.253   1.695  0.3783  0.1725  0.0633
  113MOL0     C15463   0.352  10.125   1.661  0.1128  0.0450 -0.5981
  113MOL0     O15464   0.376  10.060   1.547 -0.1614 -1.4482  0.0415
  113MOL0     C15465   0.276  10.032   1.455  0.2161 -0.3227 -0.1138
  113MOL0     C15466   0.244  10.124   1.334 -0.2064 -0.1933  0.4868
  113MOL0     C15467   0.132  10.061   1.261 -0.5795 -0.2685  0.2162
  113MOL0     C15468   0.095  10.113   1.123  0.4958  0.0705 -0.2270
  113MOL0     C15469   0.160  10.035   1.009  0.5105 -0.2720 -0.3653
  113MOL0     C15470   0.127  10.091   0.866  0.1949  0.0160  0.5305
  113MOL0     C15471  -0.025  10.096   0.824  0.4946  0.2449 -0.2739
  113MOL0     C15472  -0.053  10.104   0.675 -0.0677  0.3497  0.4126
  113MOL0     N15473  -0.005   9.983   0.610 -1.2321 -0.3093  0.4060
  113MOL0     C15474  -0.080   9.868   0.594  0.4268  0.7528 -0.7293
  113MOL0     C15475   0.008   9.784   0.541  0.3009  0.4788  0.4418
  113MOL0     C15476  -0.038   9.643   0.495 -0.3642  0.5188  0.0070
  113MOL0     C15477   0.043   9.543   0.584  0.5547  1.1013  0.5622
  113MOL0     C15478  -0.013   9.535   0.732 -0.6092 -0.4259 -0.2354
  113MOL0     C15479  -0.154   9.490   0.739  0.8001 -0.3134  0.1536
  113MOL0     O15480  -0.214   9.523   0.873 -0.0258 -0.1974 -0.3248
  113MOL0     C15481  -0.348   9.492   0.889 -0.3165 -0.7390 -0.3550
  113MOL0     C15482  -0.421   9.419   0.800 -0.0156  0.6684 -0.1721
  113MOL0     C15483  -0.557   9.387   0.819  0.5736  0.2236  0.6527
  113MOL0     C15484  -0.631   9.319   0.711  0.1694 -0.0476 -0.8857
  113MOL0     C15485  -0.623   9.442   0.930 -0.0544  0.4443 -0.6289
  113MOL0     C15486  -0.768   9.416   0.960  0.5820 -0.3856 -1.5339
  113MOL0     O15487  -0.848   9.397   0.863 -0.4588 -1.0823 -0.2396
  113MOL0     C15488  -0.978   9.368   0.887  0.2719  0.7794  0.0736
  113MOL0     C15489  -1.017   9.238   0.927 -0.6811 -0.1042  0.5234
  113MOL0     C15490  -1.150   9.200   0.915  0.3514  0.0281  0.0632
  113MOL0     C15491  -1.246   9.290   0.863 -0.2271 -0.1383 -0.0339
  113MOL0     O15492  -1.378   9.262   0.847 -0.4749 -0.1524  0.0743
  113MOL0     C15493  -1.428   9.135   0.887 -0.9850 -0.3058  0.1410
  113MOL0     C15494  -1.576   9.116   0.868  0.6631 -0.3538 -0.1601
  113MOL0     C15495  -1.638   8.977   0.903 -0.0629  0.8875  1.1130
  113MOL0     C15496  -1.614   8.925   1.044  0.2568  0.3228  0.8916
  113MOL0     C15497  -1.693   8.797   1.066 -0.5534 -1.0720 -0.1828
  113MOL0     C15498  -1.694   8.750   1.210 -0.2178 -0.0104  0.4113
  113MOL0     C15499  -1.818   8.805   1.289 -0.9689 -0.6631  0.1050
  113MOL0     C15500  -1.825   8.733   1.424 -0.5847  0.8405 -0.0199
  113MOL0    Cl15501  -1.887   8.568   1.407  0.4275 -0.3160  0.4148
  113MOL0     C15502  -1.206   9.421   0.834 -0.2493  0.5859 -0.1238
  113MOL0     C15503  -1.072   9.454   0.826 -0.5097 -0.1449  0.5673
  113MOL0     O15504  -0.799   9.435   1.077 -0.2628 -0.4101 -0.8991
  113MOL0     C15505  -0.549   9.526   1.010  0.7857  0.8576 -0.0011
  113MOL0     C15506  -0.416   9.545   0.993  0.3309 -0.0729 -0.1412
  113MOL0     N15507   0.130   9.845   0.541  0.3567  0.0278  0.2021
  113MOL0     N15508   0.121   9.968   0.575 -0.7261 -0.5271  0.3425
  113MOL0     C15509   0.282  10.048   1.759  0.6175  0.0955 -0.1821
  113MOL0     C15510   0.275  10.099   1.890  0.0030  0.0747  1.0669
  113MOL0     C15511   0.345  10.269   2.288  0.4624  0.4639 -0.8421
  113MOL0     C15512   0.248  10.370   2.311  0.0297 -0.2736  0.1213
  113MOL0     C15513   0.196  10.405   2.429 -0.1940  0.5547  0.3150
  113MOL0     C15514   0.247  10.346   2.549  0.7337  0.6965  0.1263
  113MOL0     O15515   0.191  10.401   2.668 -0.1823  0.7236  0.3584
  113MOL0     C15516   0.202  10.344   2.793 -0.3433 -0.4383 -0.8860
  113MOL0     C15517   0.199  10.445   2.908 -0.2817  0.3391  0.2729
  113MOL0     C15518   0.231  10.377   3.036  0.6293  0.6858  0.3884
  113MOL0     C15519   0.377  10.341   3.061  0.0746  0.0248 -0.2909
  113MOL0     C15520   0.451  10.469   3.066  0.1505  1.3815 -0.1127
  113MOL0     C15521   0.485  10.587   3.077  0.1256 -1.2549 -0.2561
  113MOL0     C15522   0.352  10.247   2.539 -0.0950 -0.3005  0.0277
  113MOL0     C15523   0.406  10.210   2.410 -0.6481 -0.4288 -0.0704
  113MOL0     C15524   0.506  10.096   2.413 -1.0711  0.7880  0.2321
  113MOL0     H15525   0.419  10.397   1.857  1.8420 -0.5185  0.4748
  113MOL0     H15526   0.469  10.312   1.632  5.1533 -3.4044  1.0100
  113MOL0     H15527   0.191  10.003   1.519 -0.3914  2.8086  0.6423
  113MOL0     H15528   0.310   9.940   1.406 -3.0664 -1.2112 -1.0145
  113MOL0     H15529   0.221  10.222   1.377 -2.9777 -0.3327 -0.4732
  113MOL0     H15530   0.325  10.134   1.261 -1.6485  2.1500 -0.9229
  113MOL0     H15531   0.151   9.956   1.237  2.6568  0.0884  0.7425
  113MOL0     H15532   0.044  10.065   1.325 -0.8131 -1.7165  0.0126
  113MOL0     H15533  -0.013  10.097   1.114  0.3335  1.6554 -1.5616
  113MOL0     H15534   0.126  10.217   1.118 -1.6379  0.8218  0.8556
  113MOL0     H15535   0.127   9.931   1.022  0.6932 -0.0739  2.1870
  113MOL0     H15536   0.268  10.031   1.031  0.2953  2.8051  1.9128
  113MOL0     H15537   0.174  10.186   0.843  1.5276 -0.1708  2.2255
  113MOL0     H15538   0.169  10.015   0.799 -1.1482  1.6338 -2.2704
  113MOL0     H15539  -0.076  10.181   0.870  0.7284 -0.1533  0.7342
  113MOL0     H15540  -0.081  10.017   0.873 -1.0397  2.0947  1.1342
  113MOL0     H15541  -0.159  10.121   0.656 -0.4361 -0.5253  1.6013
  113MOL0     H15542  -0.004  10.191   0.630 -1.3645 -0.3627 -2.5664
  113MOL0     H15543  -0.184   9.846   0.616  0.1913  3.0938  0.8613
  113MOL0     H15544  -0.014   9.638   0.388  0.2349 -3.0776  0.1864
  113MOL0     H15545  -0.145   9.619   0.492 -0.9705  3.0426 -0.6337
  113MOL0     H15546   0.048   9.445   0.535  1.9952  1.5145 -0.1751
  113MOL0     H15547   0.144   9.584   0.597  0.0662  2.9569 -0.9790
  113MOL0     H15548   0.054   9.467   0.786 -2.2549 -0.9859  1.1953
  113MOL0     H15549  -0.003   9.630   0.786  1.8954 -1.2171  0.8714
  113MOL0     H15550  -0.208   9.556   0.671 -0.3678 -1.0029  0.3847
  113MOL0     H15551  -0.170   9.391   0.695 -2.6587  1.5126 -3.2710
  113MOL0     H15552  -0.377   9.375   0.711  1.0479  2.5466 -0.6453
  113MOL0     H15553  -0.567   9.257   0.649 -1.0281 -1.7122 -0.5222
  113MOL0     H15554  -0.684   9.394   0.651  1.4783  2.1767  0.5691
  113MOL0     H15555  -0.693   9.251   0.770  4.7520 -2.6401  1.4826
  113MOL0     H15556  -0.934   9.174   0.955 -0.0624  0.6705  0.4969
  113MOL0     H15557  -1.163   9.093   0.929  2.6575 -0.6672 -2.3412
  113MOL0     H15558  -1.380   9.053   0.832 -1.2387 -0.3115 -0.0757
  113MOL0     H15559  -1.402   9.127   0.993  1.2789  2.9144 -0.0290
  113MOL0     H15560  -1.630   9.183   0.935 -2.2668 -0.3638 -2.3268
  113MOL0     H15561  -1.604   9.146   0.766  0.9699 -0.1834 -0.1979
  113MOL0     H15562  -1.603   8.897   0.837 -1.2644 -0.6413  2.2515
  113MOL0     H15563  -1.746   8.990   0.891 -0.3063  0.1156  2.2120
  113MOL0     H15564  -1.631   9.001   1.121 -0.2082 -0.5344  1.6652
  113MOL0     H15565  -1.511   8.890   1.053  0.7495  1.3291 -0.5646
  113MOL0     H15566  -1.792   8.819   1.024 -0.7042 -2.0868 -0.3801
  113MOL0     H15567  -1.646   8.718   1.008  1.1586 -1.5926  1.7827
  113MOL0     H15568  -1.611   8.800   1.261  0.9594 -0.0014 -1.4041
  113MOL0     H15569  -1.695   8.640   1.218 -4.3774 -0.4302 -2.4625
  113MOL0     H15570  -1.912   8.788   1.236 -0.4830 -1.3869 -0.5551
  113MOL0     H15571  -1.822   8.912   1.309 -1.8131 -0.8493  1.0062
  113MOL0     H15572  -1.887   8.789   1.495 -0.7918  0.4389  0.1163
  113MOL0     H15573  -1.724   8.725   1.466 -0.0818  1.6150 -1.0348
  113MOL0     H15574  -1.277   9.499   0.809 -0.2950  0.1622 -1.4177
  113MOL0     H15575  -1.031   9.533   0.763  0.2327 -1.7568 -1.0651
  113MOL0     H15576  -0.595   9.570   1.098 -0.1738 -0.9560  0.4533
  113MOL0     H15577  -0.366   9.603   1.070 -0.8385  0.6187  0.1184
  113MOL0     H15578   0.258   9.948   1.726  2.0748 -0.5462  0.5699
  113MOL0     H15579   0.234  10.034   1.966  0.4795 -1.6989 -0.1356
  113MOL0     H15580   0.216  10.438   2.233  0.2193 -1.1594 -0.7452
  113MOL0     H15581   0.128  10.490   2.424  1.8407  2.2382  0.2156
  113MOL0     H15582   0.123  10.270   2.807  0.1935 -0.8061  0.3579
  113MOL0     H15583   0.298  10.293   2.804 -0.0845  0.4211  1.6142
  113MOL0     H15584   0.104  10.496   2.927  0.0905  1.9248 -1.6667
  113MOL0     H15585   0.270  10.523   2.878  2.7605 -1.9295  1.1548
  113MOL0     H15586   0.197  10.439   3.120  0.1753  1.1847 -0.1584
  113MOL0     H15587   0.165  10.290   3.044  1.2660  0.0574 -0.8616
  113MOL0     H15588   0.414  10.260   2.996 -1.0114 -2.0019  1.4799
  113MOL0     H15589   0.394  10.290   3.156  0.1863  0.6370  0.0214
  113MOL0     H15590   0.502  10.692   3.088  1.4280 -1.5937  1.3431
  113MOL0     H15591   0.391  10.204   2.631 -1.0394  0.9378  1.0380
  113MOL0     H15592   0.529  10.073   2.518  0.1819  0.0618 -0.1807
  113MOL0     H15593   0.472  10.006   2.362  1.6751  0.4581 -1.2402
  113MOL0     H15594   0.601  10.138   2.377 -0.0371 -0.0239  1.8568
  114MOL0     O15595   4.357   0.927   5.637  0.5741  0.1320  0.3404
  114MOL0     C15596   4.408   0.898   5.741 -0.7781 -0.0520  0.7567
  114MOL0     O15597   4.542   0.847   5.759  0.0484  0.1694  0.2441
  114MOL0     C15598   4.640   0.842   5.660  0.1244 -0.2449  0.8234
  114MOL0     C15599   4.731   0.739   5.679 -0.5616 -0.7413 -0.8534
  114MOL0     C15600   4.848   0.738   5.599 -0.0944 -0.3668 -0.5618
  114MOL0     C15601   4.870   0.831   5.495  1.1055  0.4666  0.4279
  114MOL0     O15602   4.976   0.816   5.413 -0.1832 -0.0006 -0.5016
  114MOL0     C15603   5.009   0.907   5.305  0.5861 -0.3042 -0.0679
  114MOL0     C15604   5.124   0.867   5.208  0.9744  0.3325  0.5890
  114MOL0     C15605   5.142   0.715   5.179  0.3365  0.0161  0.8724
  114MOL0     C15606   5.037   0.657   5.083  0.5420 -0.8026  0.6645
  114MOL0     C15607   5.055   0.501   5.041 -0.8995  0.6371  0.4503
  114MOL0     C15608   5.195   0.456   4.995 -0.3864  0.6206 -0.5480
  114MOL0     C15609   5.187   0.311   4.941 -0.3846  0.1741  0.3594
  114MOL0     C15610   5.322   0.261   4.889 -0.1743 -0.0864  0.0356
  114MOL0     N15611   5.313   0.124   4.856 -0.1678  0.0425  1.1041
  114MOL0     C15612   5.284   0.086   4.730  0.0986  0.5999  0.8895
  114MOL0     C15613   5.299  -0.045   4.734  0.3329  0.6464 -0.4861
  114MOL0     C15614   5.262  -0.143   4.620 -0.2065 -0.1482 -1.1456
  114MOL0     C15615   5.161  -0.249   4.664  0.1657  0.2764  0.2683
  114MOL0     C15616   5.121  -0.361   4.559 -0.7606 -0.8412  0.1353
  114MOL0     C15617   5.040  -0.461   4.640 -0.4425  0.1532 -0.2981
  114MOL0     O15618   4.950  -0.544   4.566  0.2095  0.0884  0.9145
  114MOL0     C15619   4.847  -0.611   4.621 -0.0084  0.1662 -0.5600
  114MOL0     C15620   4.799  -0.613   4.748 -0.4613 -0.7343 -0.1029
  114MOL0     C15621   4.697  -0.697   4.790 -0.7315 -0.0371 -0.4812
  114MOL0     C15622   4.656  -0.697   4.937 -0.3709 -0.0398  0.1526
  114MOL0     C15623   4.619  -0.754   4.690  1.0065  0.5093 -0.1005
  114MOL0     C15624   4.498  -0.834   4.731 -0.5760 -1.3099 -1.4613
  114MOL0     O15625   4.398  -0.816   4.647  0.0233 -0.2585 -0.0081
  114MOL0     C15626   4.278  -0.875   4.680  0.1179  0.1576 -0.0674
  114MOL0     C15627   4.219  -0.872   4.808  1.1030  0.5279 -0.7139
  114MOL0     C15628   4.102  -0.950   4.833 -0.4125  0.5476  0.0824
  114MOL0     C15629   4.040  -1.021   4.724  0.5351 -0.8332 -0.5614
  114MOL0     O15630   3.922  -1.081   4.745  0.2081 -0.4188  0.4202
  114MOL0     C15631   3.884  -1.138   4.869 -0.7605 -0.0238 -0.3376
  114MOL0     C15632   3.781  -1.263   4.866  0.9098 -1.0189  0.8054
  114MOL0     C15633   3.650  -1.229   4.788  0.0922  0.2480  0.0777
  114MOL0     C15634   3.580  -1.359   4.753 -0.4179  0.0371 -0.3857
  114MOL0     C15635   3.451  -1.337   4.673 -0.4546 -0.0684 -0.2393
  114MOL0     C15636   3.402  -1.466   4.627  0.9239 -0.0757  0.8957
  114MOL0     C15637   3.259  -1.451   4.575  0.3152  0.1103  0.6241
  114MOL0     C15638   3.179  -1.584   4.561 -0.3546  0.1736 -0.8125
  114MOL0    Cl15639   3.016  -1.560   4.515  0.1539  0.0208  0.2181
  114MOL0     C15640   4.101  -1.009   4.599  0.5170 -0.2598 -0.2987
  114MOL0     C15641   4.223  -0.945   4.582 -0.5905  0.5470  0.2444
  114MOL0     O15642   4.506  -0.914   4.829  0.7845  1.1304  0.1331
  114MOL0     C15643   4.651  -0.741   4.553  0.6411 -0.3651 -0.4347
  114MOL0     C15644   4.762  -0.675   4.524 -0.2979 -1.0450 -0.5914
  114MOL0     N15645   5.332  -0.090   4.866 -0.6303  0.1447 -0.2003
  114MOL0     N15646   5.336   0.021   4.936  0.1051 -0.6172 -0.1489
  114MOL0     C15647   4.781   0.939   5.481 -0.2108 -0.0863 -0.3899
  114MOL0     C15648   4.672   0.947   5.572 -0.0844  0.3925  0.5579
  114MOL0     C15649   4.328   0.881   5.861 -0.8723 -0.6825 -0.7801
  114MOL0     C15650   4.370   0.793   5.967 -0.3387  0.1860  0.1095
  114MOL0     C15651   4.289   0.777   6.084 -0.8191 -0.2031 -0.0766
  114MOL0     C15652   4.188   0.866   6.112  1.0644  0.1962 -0.0774
  114MOL0     O15653   4.109   0.827   6.218 -0.1680  0.3866 -0.3629
  114MOL0     C15654   3.975   0.884   6.217 -0.6144  0.1660  0.2846
  114MOL0     C15655   3.898   0.800   6.311 -0.5983  0.5321  0.4008
  114MOL0     C15656   3.908   0.869   6.457  1.0261 -0.3546  0.2228
  114MOL0     C15657   3.803   0.813   6.551  0.9121 -0.2003  0.6705
  114MOL0     C15658   3.805   0.888   6.671 -0.9789  0.4246 -0.3277
  114MOL0     C15659   3.817   0.960   6.768 -0.9697  0.6551 -0.1012
  114MOL0     C15660   4.163   0.968   6.024 -0.0384 -0.3592  0.2438
  114MOL0     C15661   4.223   0.975   5.900 -0.9334  1.5365 -0.5783
  114MOL0     C15662   4.179   1.086   5.816  0.4502 -0.2167  0.8853
  114MOL0     H15663   4.726   0.663   5.757  1.2828 -2.8609 -2.6856
  114MOL0     H15664   4.912   0.652   5.610 -0.9184 -0.9432 -0.1563
  114MOL0     H15665   5.035   1.003   5.352 -0.4444  0.0190 -0.1224
  114MOL0     H15666   4.919   0.921   5.245  0.0535 -1.0282  0.5364
  114MOL0     H15667   5.101   0.908   5.110 -1.9620 -3.5328 -0.5927
  114MOL0     H15668   5.214   0.901   5.260  3.3479 -1.4537 -2.0349
  114MOL0     H15669   5.238   0.698   5.129 -0.3808 -1.2993 -0.1089
  114MOL0     H15670   5.134   0.658   5.272 -4.5467  1.7312  1.7782
  114MOL0     H15671   4.941   0.672   5.133 -0.5696  2.8582 -2.1793
  114MOL0     H15672   5.025   0.719   4.994  1.8572 -0.2453  0.8403
  114MOL0     H15673   4.979   0.471   4.968 -0.8705  0.5741  0.4458
  114MOL0     H15674   5.035   0.439   5.129 -0.8325  1.7932  1.3129
  114MOL0     H15675   5.228   0.533   4.925 -0.4418  1.7207  0.5905
  114MOL0     H15676   5.259   0.451   5.084 -1.0916  0.7396 -0.0301
  114MOL0     H15677   5.116   0.297   4.858  0.6726  0.4743 -0.6250
  114MOL0     H15678   5.161   0.243   5.023  2.1448  0.1187  1.1839
  114MOL0     H15679   5.356   0.325   4.807 -0.6615  1.6609  1.1337
  114MOL0     H15680   5.392   0.281   4.971  0.8946  0.0057 -0.8833
  114MOL0     H15681   5.256   0.146   4.644  1.9142  2.4637  1.4985
  114MOL0     H15682   5.361  -0.182   4.594  1.6973  3.4455 -0.0158
  114MOL0     H15683   5.210  -0.091   4.538 -3.4654  1.0210  1.4381
  114MOL0     H15684   5.188  -0.284   4.764 -1.0899  2.2486  1.3521
  114MOL0     H15685   5.063  -0.206   4.689 -0.8050 -1.6157 -0.1007
  114MOL0     H15686   5.054  -0.315   4.486 -1.0935  2.6576  2.3891
  114MOL0     H15687   5.206  -0.408   4.509 -2.7087 -0.8132 -3.4956
  114MOL0     H15688   5.110  -0.524   4.695  0.3948  0.1094 -1.3921
  114MOL0     H15689   4.973  -0.418   4.715 -4.8123 -4.1463 -1.2044
  114MOL0     H15690   4.840  -0.562   4.835  1.4881 -2.4402  0.0658
  114MOL0     H15691   4.547  -0.703   4.950 -0.4233  0.8965  0.1496
  114MOL0     H15692   4.696  -0.608   4.986  4.1048 -0.6157 -1.9200
  114MOL0     H15693   4.703  -0.780   4.990  0.4112  0.0344 -0.4027
  114MOL0     H15694   4.269  -0.829   4.894  2.0835 -1.4444 -0.2392
  114MOL0     H15695   4.062  -0.946   4.934 -0.1700  2.1468  0.1478
  114MOL0     H15696   3.977  -1.179   4.911 -0.7473  1.4680  1.1809
  114MOL0     H15697   3.843  -1.059   4.932 -0.2904 -1.0186  1.2801
  114MOL0     H15698   3.837  -1.348   4.825 -1.3210 -1.1310 -2.3463
  114MOL0     H15699   3.754  -1.290   4.969  2.0800 -1.0870  1.1126
  114MOL0     H15700   3.693  -1.178   4.702  1.7380  0.4318  0.9652
  114MOL0     H15701   3.578  -1.167   4.841 -1.3505 -0.0443 -1.4635
  114MOL0     H15702   3.567  -1.419   4.844  5.2053  0.0808  0.7995
  114MOL0     H15703   3.646  -1.419   4.689  1.3512 -2.2646  3.2371
  114MOL0     H15704   3.380  -1.278   4.732  0.2016  1.4927 -0.9245
  114MOL0     H15705   3.481  -1.277   4.587 -1.4727 -1.3378 -1.5062
  114MOL0     H15706   3.393  -1.536   4.710  0.6325 -1.9962 -0.6903
  114MOL0     H15707   3.462  -1.507   4.545 -0.3772 -0.4385  0.0954
  114MOL0     H15708   3.256  -1.405   4.476 -0.2601  2.1510  1.5402
  114MOL0     H15709   3.196  -1.378   4.627  1.1490  3.8273 -2.9957
  114MOL0     H15710   3.177  -1.636   4.657  0.9896  2.6356  0.6622
  114MOL0     H15711   3.243  -1.646   4.497  1.2343  1.0194 -0.0967
  114MOL0     H15712   4.053  -1.057   4.514 -2.2720 -1.4463  1.7868
  114MOL0     H15713   4.260  -0.943   4.480 -4.2136 -2.8376 -1.3943
  114MOL0     H15714   4.574  -0.770   4.483 -1.8562  1.7285  1.2968
  114MOL0     H15715   4.784  -0.681   4.418 -1.1464 -2.1729 -0.7263
  114MOL0     H15716   4.807   1.030   5.428  2.6912 -0.5519  0.0427
  114MOL0     H15717   4.593   1.020   5.576 -1.5847 -1.0472 -0.9132
  114MOL0     H15718   4.455   0.726   5.960 -1.0140 -1.0354  2.5547
  114MOL0     H15719   4.306   0.691   6.148 -1.3246 -2.1875 -2.4336
  114MOL0     H15720   3.990   0.988   6.249  0.0031  0.6086 -1.3229
  114MOL0     H15721   3.938   0.883   6.114  2.4708  3.1310 -1.0550
  114MOL0     H15722   3.941   0.701   6.328  0.3376  1.0568  1.1778
  114MOL0     H15723   3.794   0.788   6.278 -0.2330 -0.0650 -0.5737
  114MOL0     H15724   4.011   0.863   6.494  0.4527  2.1522  2.5686
  114MOL0     H15725   3.892   0.977   6.445 -0.0327 -0.4503  0.7192
  114MOL0     H15726   3.819   0.707   6.574  2.0431 -0.1625  0.1241
  114MOL0     H15727   3.702   0.822   6.509  1.5931  0.9227 -0.8569
  114MOL0     H15728   3.830   1.006   6.863  2.2904  0.9820 -0.6064
  114MOL0     H15729   4.097   1.044   6.066  0.4889 -0.9220  2.1862
  114MOL0     H15730   4.141   1.047   5.721  1.7252 -1.1968  0.7501
  114MOL0     H15731   4.104   1.147   5.867 -0.0712  0.5054 -0.6681
  114MOL0     H15732   4.264   1.152   5.795 -0.7721  1.2626  0.4212
  115MOL0     O15733   8.028  11.196   4.641  0.2242 -0.4823  0.9011
  115MOL0     C15734   8.072  11.273   4.556 -0.3677 -0.7616  0.0074
  115MOL0     O15735   8.037  11.399   4.550 -0.0528 -0.7315  0.6194
  115MOL0     C15736   7.949  11.462   4.628  0.5324  0.1322 -1.0513
  115MOL0     C15737   7.979  11.594   4.672 -1.0558  0.9943 -0.6378
  115MOL0     C15738   7.895  11.674   4.750 -0.0198  0.6651  0.8926
  115MOL0     C15739   7.776  11.613   4.807  0.5153 -0.5139  0.5299
  115MOL0     O15740   7.711  11.688   4.900  0.3774 -0.4823  0.5273
  115MOL0     C15741   7.576  11.657   4.944  0.8459 -0.0728  0.7792
  115MOL0     C15742   7.520  11.770   5.040 -0.4818  0.3852 -0.4094
  115MOL0     C15743   7.378  11.753   5.087 -0.7075 -0.7527 -0.6938
  115MOL0     C15744   7.350  11.830   5.223 -0.3503  0.7548  0.5373
  115MOL0     C15745   7.384  11.981   5.227 -0.0542  0.4813  1.0144
  115MOL0     C15746   7.315  12.057   5.116  0.3361  0.1234  0.3426
  115MOL0     C15747   7.152  12.056   5.130 -0.1266 -0.3664  0.5351
  115MOL0     C15748   7.088  12.044   4.986  0.8427 -0.7256 -0.9111
  115MOL0     N15749   7.065  12.179   4.929  0.1576 -0.6234  0.9481
  115MOL0     C15750   7.109  12.305   4.985 -0.2855  0.0387  0.3964
  115MOL0     C15751   7.085  12.392   4.879 -0.3601  0.3475 -0.0287
  115MOL0     C15752   7.123  12.538   4.870  0.7294 -0.7949  0.2698
  115MOL0     C15753   7.199  12.589   4.989 -0.4000 -0.6734 -0.8727
  115MOL0     C15754   7.084  12.628   5.095 -1.2965  0.5346 -0.1154
  115MOL0     C15755   7.153  12.672   5.225 -0.6574 -0.2000  0.5025
  115MOL0     O15756   7.234  12.558   5.254 -0.2301  0.0543 -0.4824
  115MOL0     C15757   7.355  12.571   5.322  0.8740 -0.1253  0.4031
  115MOL0     C15758   7.423  12.452   5.334 -0.3224  0.1486  0.5215
  115MOL0     C15759   7.557  12.438   5.375 -0.8206  0.8606  0.4510
  115MOL0     C15760   7.627  12.306   5.347  0.0770 -0.1033 -0.8502
  115MOL0     C15761   7.618  12.553   5.434  0.3685 -0.6034 -0.6220
  115MOL0     C15762   7.757  12.552   5.491 -0.5320  0.8540 -0.0144
  115MOL0     O15763   7.798  12.667   5.539 -0.5648 -0.0993  0.2863
  115MOL0     C15764   7.916  12.668   5.606  0.7616 -0.3614  0.0729
  115MOL0     C15765   8.034  12.684   5.531 -1.1782  0.4103  0.1036
  115MOL0     C15766   8.157  12.670   5.610 -0.2827 -0.0320  0.8981
  115MOL0     C15767   8.156  12.669   5.747  0.1325  0.8486 -0.0319
  115MOL0     O15768   8.276  12.665   5.814 -0.2447 -0.1023  0.9552
  115MOL0     C15769   8.285  12.591   5.932  0.0281  0.1783 -0.5317
  115MOL0     C15770   8.288  12.681   6.056 -0.0324 -0.2613  1.2124
  115MOL0     C15771   8.345  12.625   6.178 -0.0527 -0.8242 -0.5221
  115MOL0     C15772   8.284  12.489   6.226 -0.1151 -0.2966 -0.0187
  115MOL0     C15773   8.327  12.456   6.374  0.1790  0.5608  0.3996
  115MOL0     C15774   8.242  12.349   6.442 -0.2698  0.6368  0.4475
  115MOL0     C15775   8.242  12.219   6.362  0.1564 -0.6496 -0.4439
  115MOL0     C15776   8.175  12.110   6.445 -0.7992 -0.4906 -0.8130
  115MOL0    Cl15777   8.122  11.987   6.341 -0.3554  0.1871  0.7967
  115MOL0     C15778   8.036  12.663   5.817 -0.4263 -0.8947  0.2964
  115MOL0     C15779   7.914  12.660   5.739  0.2736 -0.5518  1.1090
  115MOL0     O15780   7.818  12.447   5.497 -0.5052 -0.2290  0.1351
  115MOL0     C15781   7.543  12.681   5.430  0.3788  1.3814  0.1471
  115MOL0     C15782   7.414  12.687   5.374  0.8231 -0.6244  0.0429
  115MOL0     N15783   7.028  12.328   4.778 -0.0894  0.0169  0.2066
  115MOL0     N15784   7.013  12.202   4.802 -0.4690 -0.8140  0.8460
  115MOL0     C15785   7.751  11.475   4.772 -0.3297 -0.2762 -0.5383
  115MOL0     C15786   7.839  11.406   4.688  0.0763  1.1906  0.8943
  115MOL0     C15787   8.192  11.222   4.473 -0.3005  0.1815  0.0483
  115MOL0     C15788   8.280  11.131   4.547  0.2305 -0.6064  0.0240
  115MOL0     C15789   8.387  11.061   4.486  0.1145  0.6875  0.7732
  115MOL0     C15790   8.431  11.104   4.360  0.5012 -0.2893  0.5292
  115MOL0     O15791   8.529  11.032   4.301 -0.1488  0.3834  0.5772
  115MOL0     C15792   8.640  11.116   4.263  0.5347  0.3643 -0.9781
  115MOL0     C15793   8.727  11.140   4.390  0.9496 -0.2645 -0.4800
  115MOL0     C15794   8.851  11.065   4.401  0.0543  0.9270 -0.0305
  115MOL0     C15795   8.828  10.919   4.432 -0.0051  0.0990 -0.2506
  115MOL0     C15796   8.756  10.881   4.553  0.2080 -0.5030 -0.4935
  115MOL0     C15797   8.708  10.864   4.662 -0.6924  0.1367 -0.9682
  115MOL0     C15798   8.353  11.202   4.285 -0.4422 -0.8311 -0.9672
  115MOL0     C15799   8.228  11.258   4.341  0.8125 -0.8697  0.1931
  115MOL0     C15800   8.153  11.355   4.254  0.6656  0.4561 -1.1823
  115MOL0     H15801   8.077  11.635   4.648 -0.3074 -1.3412 -1.8847
  115MOL0     H15802   7.918  11.777   4.776 -1.1003  1.0209  0.5162
  115MOL0     H15803   7.592  11.564   4.998  4.3432 -0.5976 -0.8910
  115MOL0     H15804   7.512  11.656   4.856 -0.8491  2.8398  1.8286
  115MOL0     H15805   7.595  11.771   5.119 -1.0245  2.8811  0.1692
  115MOL0     H15806   7.532  11.867   4.990 -0.0106  0.2816 -0.5026
  115MOL0     H15807   7.320  11.798   5.006  0.5290  1.7876 -0.2809
  115MOL0     H15808   7.357  11.646   5.085  0.3441 -1.0044  0.5113
  115MOL0     H15809   7.244  11.817   5.247 -1.0616 -3.4711 -3.3759
  115MOL0     H15810   7.416  11.783   5.297  2.7872  2.2539 -1.1253
  115MOL0     H15811   7.492  11.988   5.210 -0.0488  3.1333  1.6233
  115MOL0     H15812   7.348  12.015   5.325 -1.5328  2.9645 -0.2718
  115MOL0     H15813   7.345  12.162   5.106  1.3485 -0.2414 -0.6565
  115MOL0     H15814   7.332  12.002   5.023  0.1779 -0.0438  0.4120
  115MOL0     H15815   7.115  12.144   5.183  1.0286  3.5465 -4.4041
  115MOL0     H15816   7.111  11.974   5.190 -1.5923  0.6746  1.0165
  115MOL0     H15817   7.158  11.994   4.919  1.0540 -1.1730 -0.3685
  115MOL0     H15818   6.994  11.989   4.997  0.2280  0.8173  4.6202
  115MOL0     H15819   7.168  12.324   5.074  1.0488  1.2655 -0.7018
  115MOL0     H15820   7.030  12.593   4.853  2.9466  2.7857 -1.6229
  115MOL0     H15821   7.176  12.565   4.778 -2.6409  0.2102 -1.5785
  115MOL0     H15822   7.272  12.511   5.012 -1.3004 -1.9828 -2.1858
  115MOL0     H15823   7.257  12.670   4.946 -2.5778  1.5583  0.1427
  115MOL0     H15824   7.020  12.708   5.055 -1.3807  0.4447 -0.1623
  115MOL0     H15825   7.016  12.546   5.119 -0.7204 -0.1255 -0.6868
  115MOL0     H15826   7.206  12.766   5.204  0.5462 -0.9643  0.0107
  115MOL0     H15827   7.071  12.689   5.295 -3.5815 -1.6652 -2.3091
  115MOL0     H15828   7.378  12.362   5.294  0.1065 -0.9481  2.3747
  115MOL0     H15829   7.559  12.240   5.292 -0.9925  0.0559  0.2317
  115MOL0     H15830   7.637  12.256   5.444  1.4435 -0.8755 -1.3639
  115MOL0     H15831   7.718  12.316   5.288  1.8193 -0.6890  1.5751
  115MOL0     H15832   8.035  12.697   5.423  0.2854  1.4083  0.2183
  115MOL0     H15833   8.257  12.686   5.569 -0.2940 -1.1375  0.3971
  115MOL0     H15834   8.201  12.521   5.943  0.0208  0.0604 -1.2777
  115MOL0     H15835   8.382  12.541   5.928 -0.4005 -0.6418 -3.4436
  115MOL0     H15836   8.344  12.766   6.018 -2.3221  1.0643  0.6076
  115MOL0     H15837   8.191  12.725   6.083 -0.6870 -2.7818  3.4969
  115MOL0     H15838   8.322  12.697   6.258 -0.6395 -1.3475 -0.2117
  115MOL0     H15839   8.453  12.627   6.164 -0.2633  0.6421 -2.2852
  115MOL0     H15840   8.322  12.408   6.164  0.2040  0.0293 -0.2514
  115MOL0     H15841   8.174  12.494   6.229 -0.1083  2.5936 -1.5036
  115MOL0     H15842   8.427  12.416   6.360 -0.5378 -1.0000 -0.4505
  115MOL0     H15843   8.331  12.546   6.436 -0.8272 -0.6368  2.2895
  115MOL0     H15844   8.140  12.386   6.455 -0.8062 -0.0652 -1.4191
  115MOL0     H15845   8.282  12.325   6.540 -1.3350  3.8562  1.8385
  115MOL0     H15846   8.343  12.186   6.333  1.4983  1.1546  1.8207
  115MOL0     H15847   8.183  12.224   6.270 -2.5891 -4.1258  0.8881
  115MOL0     H15848   8.095  12.157   6.503  1.8789  1.7314  1.3752
  115MOL0     H15849   8.252  12.074   6.513  0.6093 -0.7858 -2.4705
  115MOL0     H15850   8.027  12.656   5.924  1.5343  0.3735  0.6042
  115MOL0     H15851   7.821  12.671   5.794 -0.2751  2.3135 -0.2440
  115MOL0     H15852   7.570  12.766   5.492 -2.0347  2.6081 -0.3755
  115MOL0     H15853   7.370  12.785   5.358  2.4783 -0.2433 -2.9220
  115MOL0     H15854   7.678  11.418   4.829 -0.2185  0.4158  0.3086
  115MOL0     H15855   7.808  11.305   4.660 -1.0924  1.7337  0.1417
  115MOL0     H15856   8.260  11.111   4.652  0.2643 -0.6172  0.0284
  115MOL0     H15857   8.449  10.994   4.544  0.8282  1.4108  0.8530
  115MOL0     H15858   8.695  11.065   4.183 -3.1854 -2.2086 -2.1863
  115MOL0     H15859   8.600  11.211   4.228 -2.7321  2.0486  5.7017
  115MOL0     H15860   8.669  11.133   4.483  0.7602  4.3623 -0.0113
  115MOL0     H15861   8.754  11.246   4.386 -1.8776  0.6479  1.7572
  115MOL0     H15862   8.901  11.072   4.304  2.6892  1.5141  1.2634
  115MOL0     H15863   8.916  11.118   4.472 -1.1931  2.9209 -0.2948
  115MOL0     H15864   8.920  10.860   4.440 -0.4577 -0.4069  1.6249
  115MOL0     H15865   8.766  10.870   4.356 -1.8920 -0.9083  1.8327
  115MOL0     H15866   8.666  10.860   4.761 -1.1902  1.8110 -1.0804
  115MOL0     H15867   8.383  11.224   4.183 -2.3818  2.2963 -1.0134
  115MOL0     H15868   8.198  11.386   4.159  1.3465  1.0206 -0.6899
  115MOL0     H15869   8.058  11.308   4.227  1.3072 -1.0439 -0.9855
  115MOL0     H15870   8.137  11.445   4.314  0.6024 -2.1326  3.1490
  116MOL0     O15871   3.654  10.388   0.514 -0.8489  0.0396 -0.3541
  116MOL0     C15872   3.747  10.347   0.579  0.0420  0.6406 -0.0299
  116MOL0     O15873   3.864  10.305   0.522  0.0325 -0.9256 -0.5770
  116MOL0     C15874   3.878  10.284   0.382  0.0425 -0.2287  0.8648
  116MOL0     C15875   3.932  10.386   0.314  0.4214  0.2831  0.3957
  116MOL0     C15876   3.926  10.384   0.173  0.8854  0.2812  0.5689
  116MOL0     C15877   3.908  10.264   0.112  0.4340  0.2127 -1.1999
  116MOL0     O15878   3.931  10.241  -0.014 -0.0306  0.5339 -0.1206
  116MOL0     C15879   3.929  10.345  -0.106  0.5102 -0.0349  0.2169
  116MOL0     C15880   3.776  10.374  -0.129 -0.3771 -0.2082  0.1781
  116MOL0     C15881   3.745  10.462  -0.249 -0.6780 -0.6722 -0.6568
  116MOL0     C15882   3.596  10.492  -0.278 -0.4720 -0.1727 -0.3736
  116MOL0     C15883   3.591  10.603  -0.380 -0.0442  0.7764  0.2976
  116MOL0     C15884   3.448  10.613  -0.434  0.8300 -1.1518 -0.1988
  116MOL0     C15885   3.399  10.749  -0.497  0.3405  1.0625 -0.5415
  116MOL0     C15886   3.403  10.866  -0.405 -0.9261 -0.0967  0.6080
  116MOL0     N15887   3.428  11.000  -0.475  0.8006 -0.3529 -0.1022
  116MOL0     C15888   3.332  11.085  -0.529 -0.6474 -0.1537  0.2176
  116MOL0     C15889   3.394  11.187  -0.564  0.4934  0.3315 -0.2018
  116MOL0     C15890   3.325  11.301  -0.633  0.3899  0.3322  0.5181
  116MOL0     C15891   3.326  11.436  -0.558  0.1249 -0.5066 -0.4029
  116MOL0     C15892   3.257  11.414  -0.424  0.3457 -0.2549 -0.2418
  116MOL0     C15893   3.255  11.553  -0.358 -0.0417  0.1283 -0.2480
  116MOL0     O15894   3.378  11.603  -0.295 -0.2551  0.1975 -0.3136
  116MOL0     C15895   3.388  11.737  -0.295  0.5375  0.0092 -1.1275
  116MOL0     C15896   3.524  11.777  -0.289 -0.4791  1.0923 -0.0102
  116MOL0     C15897   3.563  11.912  -0.270  0.3957  0.2829 -0.4352
  116MOL0     C15898   3.690  11.940  -0.204  0.1683 -0.7267  0.3944
  116MOL0     C15899   3.454  12.006  -0.295 -0.5820 -0.1058  0.3734
  116MOL0     C15900   3.481  12.154  -0.286 -0.0649  0.1895  0.6516
  116MOL0     O15901   3.377  12.238  -0.251  0.5987  0.4399 -0.0875
  116MOL0     C15902   3.419  12.361  -0.221  1.2490 -0.9254 -0.2968
  116MOL0     C15903   3.370  12.469  -0.291 -0.8913  0.5005  0.3354
  116MOL0     C15904   3.433  12.591  -0.255 -0.7063  0.7452  0.2786
  116MOL0     C15905   3.533  12.607  -0.158 -0.1554  0.6691  0.0955
  116MOL0     O15906   3.621  12.715  -0.145  0.7721  0.2697  0.5342
  116MOL0     C15907   3.756  12.689  -0.164 -0.4435  0.0002 -0.9772
  116MOL0     C15908   3.825  12.799  -0.233 -0.8544  0.5564  0.8191
  116MOL0     C15909   3.971  12.748  -0.240  0.2424 -0.0439  0.7177
  116MOL0     C15910   4.053  12.855  -0.306 -0.0610 -0.2557  0.9141
  116MOL0     C15911   4.198  12.848  -0.266 -0.3281 -0.1723 -0.1355
  116MOL0     C15912   4.298  12.945  -0.337  0.0760  0.3440 -1.4855
  116MOL0     C15913   4.445  12.890  -0.314  0.7356 -0.2214  0.0441
  116MOL0     C15914   4.508  12.939  -0.186  0.6342  0.3676  0.9362
  116MOL0    Cl15915   4.440  12.837  -0.061  0.3023  0.2552  0.0935
  116MOL0     C15916   3.563  12.499  -0.072 -0.1920 -0.6991  0.9172
  116MOL0     C15917   3.515  12.374  -0.117 -0.0215 -0.1104  0.3035
  116MOL0     O15918   3.597  12.194  -0.308 -0.4131  0.3387  0.5805
  116MOL0     C15919   3.326  11.969  -0.324 -0.2671  0.7162 -0.0387
  116MOL0     C15920   3.293  11.837  -0.309 -0.4150  0.3599 -0.2095
  116MOL0     N15921   3.525  11.163  -0.549  0.5809  0.7562 -0.2149
  116MOL0     N15922   3.549  11.054  -0.493  0.0240  0.2268  0.3670
  116MOL0     C15923   3.842  10.160   0.182 -0.6623  1.1862  0.1080
  116MOL0     C15924   3.832  10.172   0.320  0.1422 -0.5013 -0.5976
  116MOL0     C15925   3.744  10.340   0.731  0.4640  0.0123  0.3596
  116MOL0     C15926   3.866  10.301   0.807  0.0827 -0.5122 -0.1901
  116MOL0     C15927   3.868  10.290   0.948 -0.3095 -0.1753  0.7638
  116MOL0     C15928   3.755  10.318   1.024 -0.4877 -0.4260  0.3253
  116MOL0     O15929   3.755  10.307   1.162 -0.5754  0.3088 -0.3980
  116MOL0     C15930   3.784  10.433   1.229 -0.0835 -0.1349 -0.6670
  116MOL0     C15931   3.744  10.426   1.378  0.3211 -0.1566  0.7525
  116MOL0     C15932   3.589  10.407   1.381 -1.0424 -0.1010  0.4020
  116MOL0     C15933   3.538  10.476   1.503 -0.5497  0.3973 -0.0044
  116MOL0     C15934   3.391  10.471   1.502  0.2852 -0.6500  0.8775
  116MOL0     C15935   3.273  10.455   1.519  0.1644 -0.7445  0.0301
  116MOL0     C15936   3.640  10.355   0.954  0.0701  0.0160 -0.0255
  116MOL0     C15937   3.626  10.366   0.810 -0.2828  0.0187 -0.6535
  116MOL0     C15938   3.483  10.398   0.764 -0.6230  0.3063  0.4716
  116MOL0     H15939   3.956  10.473   0.373 -1.4633 -0.1607  1.8909
  116MOL0     H15940   3.959  10.464   0.108 -0.0520 -1.8122 -2.7751
  116MOL0     H15941   3.970  10.322  -0.205 -0.1898  4.8249 -1.5200
  116MOL0     H15942   3.992  10.427  -0.070  0.4968  0.8861 -1.7171
  116MOL0     H15943   3.729  10.277  -0.141 -1.1566 -0.2525  2.7964
  116MOL0     H15944   3.733  10.416  -0.037  1.2786 -1.1296  1.4366
  116MOL0     H15945   3.789  10.559  -0.226 -2.4818 -0.4429  2.3225
  116MOL0     H15946   3.786  10.416  -0.339 -1.1082 -4.0890  0.7219
  116MOL0     H15947   3.553  10.401  -0.321 -1.4791  1.0399 -2.0136
  116MOL0     H15948   3.543  10.504  -0.183  2.2243  0.0806  1.2132
  116MOL0     H15949   3.650  10.587  -0.471  1.0822  1.4527  0.8833
  116MOL0     H15950   3.628  10.692  -0.327 -0.5817 -1.4985  5.1091
  116MOL0     H15951   3.434  10.540  -0.514 -1.6157  0.7473 -1.6450
  116MOL0     H15952   3.379  10.593  -0.352 -0.4232  2.1104 -0.3096
  116MOL0     H15953   3.299  10.734  -0.538  0.9635  0.0451 -1.7426
  116MOL0     H15954   3.457  10.772  -0.587  1.6874  1.5963  0.4250
  116MOL0     H15955   3.303  10.873  -0.361 -2.1065 -4.1717 -0.9799
  116MOL0     H15956   3.495  10.869  -0.344  0.9910  0.8473 -2.1231
  116MOL0     H15957   3.224  11.076  -0.527 -0.8795  2.1400  0.8923
  116MOL0     H15958   3.223  11.270  -0.660  0.7920  0.8822 -1.8623
  116MOL0     H15959   3.368  11.320  -0.731 -0.5680 -1.0687 -0.2236
  116MOL0     H15960   3.430  11.469  -0.556 -0.0681  0.2836 -2.0007
  116MOL0     H15961   3.264  11.507  -0.613 -1.2039 -2.5763 -1.7110
  116MOL0     H15962   3.156  11.380  -0.445  1.2175 -1.9696 -1.9115
  116MOL0     H15963   3.298  11.331  -0.366 -3.2943 -2.3700 -0.4152
  116MOL0     H15964   3.232  11.628  -0.434  0.7449  0.3000 -0.3315
  116MOL0     H15965   3.177  11.566  -0.283 -0.6564  1.2686 -1.0583
  116MOL0     H15966   3.605  11.704  -0.282 -0.8942  0.6253 -0.0221
  116MOL0     H15967   3.686  12.029  -0.141 -1.0389 -2.0191  2.2684
  116MOL0     H15968   3.765  11.965  -0.280 -0.8918  0.8934 -0.1703
  116MOL0     H15969   3.725  11.855  -0.144 -1.2704 -2.0118 -0.4806
  116MOL0     H15970   3.301  12.449  -0.373 -2.2072 -3.2584  2.1700
  116MOL0     H15971   3.412  12.685  -0.305 -0.2375  0.9392  0.4360
  116MOL0     H15972   3.790  12.676  -0.061 -2.3329 -2.2187 -0.5358
  116MOL0     H15973   3.765  12.591  -0.214 -0.3175  0.6419 -2.2519
  116MOL0     H15974   3.792  12.820  -0.335  0.9003 -0.2870  0.0289
  116MOL0     H15975   3.827  12.895  -0.180  2.6125  2.8857 -2.8318
  116MOL0     H15976   3.975  12.655  -0.297 -0.0940 -1.7650  3.3056
  116MOL0     H15977   4.013  12.733  -0.140  1.7615 -0.2619  0.0849
  116MOL0     H15978   4.015  12.956  -0.287 -0.2389 -0.4545  1.6356
  116MOL0     H15979   4.033  12.838  -0.412  2.4379 -2.7639  0.7310
  116MOL0     H15980   4.192  12.874  -0.160 -2.3244 -2.2488  0.3579
  116MOL0     H15981   4.226  12.742  -0.276 -0.5343 -0.3089  0.6661
  116MOL0     H15982   4.279  13.040  -0.286 -0.4300  0.7782 -2.4681
  116MOL0     H15983   4.282  12.945  -0.445 -1.7489 -3.2332 -1.3744
  116MOL0     H15984   4.509  12.914  -0.399 -1.0507 -0.2334 -1.3797
  116MOL0     H15985   4.442  12.781  -0.308 -0.9191 -0.2017  0.1405
  116MOL0     H15986   4.482  13.045  -0.173 -1.4595  0.0481 -0.2579
  116MOL0     H15987   4.618  12.936  -0.185  0.6832  1.4307  0.4207
  116MOL0     H15988   3.639  12.497   0.005 -0.1138  0.8512  0.9081
  116MOL0     H15989   3.537  12.285  -0.059 -1.0473  1.6899  3.7092
  116MOL0     H15990   3.244  12.035  -0.349 -0.2512  1.1085  0.9029
  116MOL0     H15991   3.187  11.811  -0.311 -0.1548 -0.9826  0.9704
  116MOL0     H15992   3.812  10.076   0.120 -5.1165  2.8756 -0.3346
  116MOL0     H15993   3.798  10.108   0.401  0.1069  0.0036 -0.2057
  116MOL0     H15994   3.964  10.290   0.762 -0.5224 -1.8412 -1.2376
  116MOL0     H15995   3.959  10.259   0.997  1.3602 -0.6383 -2.3698
  116MOL0     H15996   3.891  10.454   1.228  0.1899 -1.4129 -2.4410
  116MOL0     H15997   3.735  10.509   1.167 -1.1543 -1.1139 -1.0617
  116MOL0     H15998   3.770  10.517   1.432 -0.5034  0.0036  0.8886
  116MOL0     H15999   3.797  10.350   1.435 -1.7263 -0.2136  2.6911
  116MOL0     H16000   3.553  10.460   1.292 -1.9336 -1.3106  0.0189
  116MOL0     H16001   3.568  10.300   1.372 -3.3872  0.4148 -1.2102
  116MOL0     H16002   3.561  10.583   1.505 -1.0564  0.5247 -0.5975
  116MOL0     H16003   3.596  10.434   1.585 -1.4945 -0.6332  0.1677
  116MOL0     H16004   3.167  10.454   1.533  0.2163  1.7952  1.1503
  116MOL0     H16005   3.556  10.375   1.019 -0.8947 -0.7362 -1.0153
  116MOL0     H16006   3.480  10.452   0.669  1.0389 -2.6224 -1.4004
  116MOL0     H16007   3.434  10.300   0.768 -1.2628  0.6417  2.2726
  116MOL0     H16008   3.438  10.470   0.833 -2.4675  1.5101 -1.8677
  117MOL0     O16009   6.284   2.886   6.903  0.2161 -0.3323 -0.5346
  117MOL0     C16010   6.316   2.969   6.821 -0.2161  0.4333 -0.2060
  117MOL0     O16011   6.438   3.045   6.816 -0.1857 -0.1891 -0.5121
  117MOL0     C16012   6.539   2.994   6.896 -0.1151 -1.1294  0.1020
  117MOL0     C16013   6.584   2.859   6.892 -0.4802 -0.1820 -0.3365
  117MOL0     C16014   6.707   2.826   6.951  0.8220 -0.9138  0.0367
  117MOL0     C16015   6.793   2.907   7.028  0.5878 -0.4687 -0.7538
  117MOL0     O16016   6.911   2.861   7.078  0.0924 -0.1431 -0.1448
  117MOL0     C16017   6.974   2.952   7.172  0.2253  1.0632  0.0599
  117MOL0     C16018   7.061   2.880   7.271 -0.8476  0.2581  0.2148
  117MOL0     C16019   7.090   2.968   7.392 -0.3718  0.0443  0.0197
  117MOL0     C16020   7.223   2.933   7.460  0.0884 -0.0320 -0.5913
  117MOL0     C16021   7.256   3.032   7.574  0.4171  0.5020  0.6967
  117MOL0     C16022   7.153   3.033   7.692  0.3817  0.2401 -0.2341
  117MOL0     C16023   7.227   3.007   7.830  0.1793 -0.2783 -0.0542
  117MOL0     C16024   7.139   3.031   7.954  0.3902 -0.4579 -0.2937
  117MOL0     N16025   7.129   3.178   7.997 -0.5541 -0.4616  0.1158
  117MOL0     C16026   7.076   3.225   8.121 -0.4521 -0.1306  0.3037
  117MOL0     C16027   7.073   3.358   8.113  0.0370  0.2183  0.4556
  117MOL0     C16028   7.024   3.447   8.228 -0.0808 -0.3117  0.0446
  117MOL0     C16029   7.033   3.595   8.209 -0.0639 -0.1865  0.0250
  117MOL0     C16030   6.944   3.674   8.299 -0.5680  0.4416  0.6178
  117MOL0     C16031   6.956   3.824   8.265  0.9614 -0.4604  0.4188
  117MOL0     O16032   7.070   3.883   8.323  0.7656  0.1575 -0.2134
  117MOL0     C16033   7.086   3.886   8.463  0.4711 -0.2782 -0.3079
  117MOL0     C16034   7.213   3.871   8.518 -0.2534 -0.4683  0.0529
  117MOL0     C16035   7.243   3.873   8.655  0.6315 -0.9934 -0.1416
  117MOL0     C16036   7.381   3.862   8.702  0.9750  0.0192  0.3395
  117MOL0     C16037   7.131   3.897   8.740 -0.1117  0.5887 -0.2122
  117MOL0     C16038   7.139   3.915   8.888 -0.5274  0.9448 -0.2173
  117MOL0     O16039   7.095   3.807   8.952 -0.2807 -0.1052  0.2719
  117MOL0     C16040   7.038   3.829   9.072 -0.9310 -0.0726  0.0381
  117MOL0     C16041   7.038   3.729   9.167  0.3302 -0.1648  0.0570
  117MOL0     C16042   6.970   3.736   9.288 -1.0012 -0.4080 -0.2509
  117MOL0     C16043   6.892   3.856   9.309  0.5000  0.4111  0.7091
  117MOL0     O16044   6.816   3.876   9.420  0.2653  0.0460  0.1056
  117MOL0     C16045   6.769   3.769   9.499 -0.1803  1.1259  0.9374
  117MOL0     C16046   6.620   3.797   9.550  0.5511  0.5168 -0.1633
  117MOL0     C16047   6.610   3.927   9.624 -0.1197 -0.3324  1.0731
  117MOL0     C16048   6.466   3.943   9.671 -0.2189  0.3035 -0.5727
  117MOL0     C16049   6.435   4.076   9.737 -0.6467  0.0983 -0.6264
  117MOL0     C16050   6.477   4.195   9.652 -0.1881  0.4619  0.5893
  117MOL0     C16051   6.378   4.303   9.676 -0.2862  1.3428 -0.1800
  117MOL0     C16052   6.417   4.425   9.591  0.4685  0.0400  0.4507
  117MOL0    Cl16053   6.293   4.552   9.626 -0.3355  0.0504  0.0436
  117MOL0     C16054   6.888   3.963   9.216 -0.5705 -0.3940  0.2302
  117MOL0     C16055   6.968   3.949   9.096  0.0305  0.0303  0.4804
  117MOL0     O16056   7.212   4.003   8.933 -0.0514  0.4155  0.0947
  117MOL0     C16057   7.004   3.906   8.691 -0.9383 -0.3075  0.5053
  117MOL0     C16058   6.980   3.909   8.548  0.5899 -0.8682 -0.3148
  117MOL0     N16059   7.123   3.392   7.990  0.3786  0.2228 -0.1118
  117MOL0     N16060   7.160   3.287   7.924  0.2868  0.7904  0.3244
  117MOL0     C16061   6.739   3.040   7.033 -0.2714 -1.0408 -0.2710
  117MOL0     C16062   6.619   3.087   6.967 -0.6425  0.5668  0.0824
  117MOL0     C16063   6.213   3.009   6.728  0.4260 -0.6093  0.0893
  117MOL0     C16064   6.204   3.148   6.697 -0.3214 -0.5758 -0.0493
  117MOL0     C16065   6.110   3.198   6.612 -0.2471 -0.2449  0.3375
  117MOL0     C16066   6.015   3.110   6.553  0.4181  0.2358  0.6094
  117MOL0     O16067   5.923   3.148   6.457  0.1944 -0.6077  0.1624
  117MOL0     C16068   5.937   3.279   6.406  0.4226 -0.1149  0.6357
  117MOL0     C16069   5.816   3.313   6.324  0.5642 -0.1155 -0.3757
  117MOL0     C16070   5.728   3.423   6.385 -0.0255  0.1564  0.0254
  117MOL0     C16071   5.681   3.376   6.526 -0.2512 -1.5298  0.0138
  117MOL0     C16072   5.613   3.486   6.598  0.9351 -0.1269 -0.0476
  117MOL0     C16073   5.553   3.577   6.656  0.9238  1.1254  0.7658
  117MOL0     C16074   6.022   2.973   6.583  0.7315 -0.0467  0.0577
  117MOL0     C16075   6.119   2.919   6.675  0.7532  0.0001 -0.0283
  117MOL0     C16076   6.111   2.773   6.706  0.0269  0.2224  0.1869
  117MOL0     H16077   6.546   2.783   6.825 -0.6936  0.2210 -0.6781
  117MOL0     H16078   6.747   2.728   6.926 -0.6628 -2.3295  2.7625
  117MOL0     H16079   6.898   2.998   7.236 -1.0310 -2.6626  1.5380
  117MOL0     H16080   7.039   3.024   7.122  2.7678 -2.1570 -1.6890
  117MOL0     H16081   7.010   2.793   7.312  1.1215  0.1338  2.6694
  117MOL0     H16082   7.157   2.856   7.225 -0.5438 -0.1684  1.0516
  117MOL0     H16083   7.106   3.071   7.358 -0.4951 -0.1506 -0.6500
  117MOL0     H16084   7.018   2.969   7.474 -0.1926 -2.1453  0.2773
  117MOL0     H16085   7.227   2.831   7.499  0.1406  0.3736  0.4990
  117MOL0     H16086   7.307   2.932   7.389  1.8819 -1.7429  1.4197
  117MOL0     H16087   7.257   3.131   7.528  2.6406 -0.0999 -0.7085
  117MOL0     H16088   7.357   3.013   7.611  0.5390  1.6762  0.9888
  117MOL0     H16089   7.098   3.127   7.691  0.0278  0.0324 -0.8463
  117MOL0     H16090   7.085   2.951   7.669  1.0905 -0.2087 -0.8075
  117MOL0     H16091   7.307   3.082   7.831 -0.6555  0.6699 -1.3986
  117MOL0     H16092   7.269   2.906   7.837  1.4070  0.2648  0.8517
  117MOL0     H16093   7.039   2.992   7.932 -0.1996  0.2391  1.0375
  117MOL0     H16094   7.179   2.972   8.037  0.5581  1.2760  0.8961
  117MOL0     H16095   7.047   3.167   8.209 -0.5287  1.7750  1.5794
  117MOL0     H16096   7.069   3.420   8.324 -0.8246 -0.9276  0.2289
  117MOL0     H16097   6.917   3.429   8.242  0.2856 -2.9900 -0.0579
  117MOL0     H16098   7.137   3.624   8.224  0.1259  0.6018 -2.4216
  117MOL0     H16099   7.003   3.618   8.107  0.7053  0.1211 -0.1374
  117MOL0     H16100   6.840   3.640   8.303 -0.1143 -1.3619 -1.0360
  117MOL0     H16101   6.981   3.647   8.398 -0.3826 -0.5510  0.2925
  117MOL0     H16102   6.946   3.838   8.157 -2.7287 -0.1940  0.6808
  117MOL0     H16103   6.865   3.875   8.298  0.6292  0.0444 -1.1632
  117MOL0     H16104   7.294   3.839   8.453  1.8226 -0.6325  2.5416
  117MOL0     H16105   7.430   3.784   8.645 -0.9286  0.6479 -2.3516
  117MOL0     H16106   7.378   3.851   8.811  1.0136  0.4106  0.3852
  117MOL0     H16107   7.448   3.948   8.691  1.1840  0.0222  1.5237
  117MOL0     H16108   7.097   3.639   9.154  0.9581  0.1591  0.5541
  117MOL0     H16109   6.974   3.652   9.358 -0.5520 -0.4719 -0.3444
  117MOL0     H16110   6.770   3.680   9.436  0.8217 -0.7075  3.3697
  117MOL0     H16111   6.824   3.741   9.589 -0.1547  0.6521  0.7791
  117MOL0     H16112   6.560   3.807   9.459  0.2065 -0.0564 -0.0054
  117MOL0     H16113   6.572   3.717   9.609 -4.4967  0.7393 -3.3484
  117MOL0     H16114   6.630   4.001   9.546  0.4708 -1.8856 -0.2946
  117MOL0     H16115   6.680   3.933   9.708  1.8638 -1.1986 -0.4475
  117MOL0     H16116   6.446   3.855   9.732  2.3722 -0.4760 -0.7188
  117MOL0     H16117   6.402   3.940   9.583 -0.5288 -2.7285 -0.3462
  117MOL0     H16118   6.326   4.078   9.739 -0.6357  0.8783 -0.0088
  117MOL0     H16119   6.472   4.082   9.840 -0.1185 -1.7665 -0.6724
  117MOL0     H16120   6.478   4.169   9.545  1.2648  1.0988  0.4154
  117MOL0     H16121   6.576   4.237   9.670  0.5364 -1.5194  1.5312
  117MOL0     H16122   6.372   4.334   9.781  1.2148 -0.2047  0.4113
  117MOL0     H16123   6.279   4.268   9.645  0.0201 -0.3578  0.6837
  117MOL0     H16124   6.410   4.394   9.487  1.5411 -1.2832  0.7384
  117MOL0     H16125   6.518   4.457   9.618 -0.5429  3.2568  0.8943
  117MOL0     H16126   6.816   4.044   9.221 -3.0468 -2.1495 -2.7727
  117MOL0     H16127   6.953   4.023   9.018  0.2709 -0.6348 -0.2152
  117MOL0     H16128   6.920   3.928   8.755  0.4599  2.1631  1.5847
  117MOL0     H16129   6.881   3.936   8.511  0.9197  1.1517  0.1472
  117MOL0     H16130   6.786   3.127   7.078 -1.2384 -0.0282 -1.1417
  117MOL0     H16131   6.586   3.190   6.960  0.3311  0.9008  0.2944
  117MOL0     H16132   6.276   3.218   6.739  0.5944 -1.8703  0.6006
  117MOL0     H16133   6.134   3.299   6.581 -0.8689 -0.5131 -1.0917
  117MOL0     H16134   5.960   3.365   6.470 -0.7694  0.9382 -0.2968
  117MOL0     H16135   6.023   3.274   6.340  0.6947 -1.7544  1.0723
  117MOL0     H16136   5.754   3.224   6.325  2.2912 -1.3583 -0.0946
  117MOL0     H16137   5.828   3.346   6.220 -3.8685  1.1851 -0.6760
  117MOL0     H16138   5.789   3.513   6.378  1.3984 -0.8006 -0.3032
  117MOL0     H16139   5.640   3.441   6.321  0.0823 -0.9738 -0.4685
  117MOL0     H16140   5.760   3.333   6.589 -0.4602  0.2473  1.5586
  117MOL0     H16141   5.603   3.299   6.527 -1.7600 -0.0645  0.3430
  117MOL0     H16142   5.486   3.657   6.680 -0.8459 -0.2623  0.7119
  117MOL0     H16143   5.939   2.914   6.545 -0.9065  2.1202  0.0612
  117MOL0     H16144   6.201   2.718   6.676 -0.1774  0.8829 -1.7261
  117MOL0     H16145   6.094   2.770   6.815  3.1672  2.1714  0.8597
  117MOL0     H16146   6.025   2.724   6.660  0.0666 -1.4497  1.7600
  118MOL0     O16147  11.427   4.599   9.975  0.5971  0.0714  0.2729
  118MOL0     C16148  11.416   4.581  10.094  1.0592  0.5946  0.1866
  118MOL0     O16149  11.404   4.453  10.157  0.8191 -0.9320  0.2782
  118MOL0     C16150  11.422   4.345  10.078 -0.2809 -0.7240 -0.1071
  118MOL0     C16151  11.351   4.327   9.954 -0.4317 -0.1239  0.4474
  118MOL0     C16152  11.360   4.203   9.897  0.4018  0.6594 -0.3419
  118MOL0     C16153  11.456   4.114   9.938  0.4563 -1.1207  0.3560
  118MOL0     O16154  11.456   3.995   9.877  0.1063 -0.7125 -0.2046
  118MOL0     C16155  11.472   3.877   9.956  0.6987  0.3840  0.0969
  118MOL0     C16156  11.342   3.856  10.041  1.1638 -0.1960  0.3660
  118MOL0     C16157  11.324   3.715  10.114  0.1150  0.0340  0.4768
  118MOL0     C16158  11.360   3.595  10.021  0.5222 -0.7843 -0.0987
  118MOL0     C16159  11.303   3.470  10.075 -0.4847 -0.8789 -0.0871
  118MOL0     C16160  11.332   3.349   9.983  0.1967 -0.6703  0.5369
  118MOL0     C16161  11.316   3.213  10.056  0.6144  0.6416 -0.8769
  118MOL0     C16162  11.421   3.112  10.028 -0.9904 -0.3918  0.0050
  118MOL0     N16163  11.533   3.126  10.119  0.1498  0.5371  0.6565
  118MOL0     C16164  11.596   3.016  10.172 -0.5554 -0.0844  0.1289
  118MOL0     C16165  11.701   3.075  10.239  0.3187 -0.7790  0.2677
  118MOL0     C16166  11.804   3.002  10.316 -0.1563 -0.1770 -0.8015
  118MOL0     C16167  11.923   2.951  10.226 -1.1875 -0.4017  0.0912
  118MOL0     C16168  11.980   3.049  10.122 -0.7860  0.0269 -0.2251
  118MOL0     C16169  12.077   3.155  10.186  0.1368  0.0689 -0.6195
  118MOL0     O16170  12.133   3.235  10.080 -0.3394  0.0059 -0.9043
  118MOL0     C16171  12.203   3.348  10.112 -0.6379 -0.2423 -0.9909
  118MOL0     C16172  12.259   3.387  10.238  0.3550  0.2192 -0.6747
  118MOL0     C16173  12.311   3.520  10.245 -0.6925 -0.2315  0.4957
  118MOL0     C16174  12.402   3.557  10.365  0.1643  0.3037 -0.4289
  118MOL0     C16175  12.312   3.610  10.134  0.9254  0.1222 -0.5324
  118MOL0     C16176  12.361   3.753  10.132 -0.0854  0.7051 -0.4633
  118MOL0     O16177  12.431   3.803  10.016  0.2153  0.3676 -0.1591
  118MOL0     C16178  12.500   3.921  10.039 -0.1184  0.2780  0.6743
  118MOL0     C16179  12.588   3.941  10.144  1.1438 -0.0776 -0.3242
  118MOL0     C16180  12.675   4.049  10.150 -0.7647 -0.5623 -0.2941
  118MOL0     C16181  12.673   4.139  10.040  0.2004  0.3186  0.0275
  118MOL0     O16182  12.748   4.252  10.046 -0.6522 -0.2362 -0.2574
  118MOL0     C16183  12.690   4.376   9.999  1.1114 -0.1827  0.5979
  118MOL0     C16184  12.770   4.502  10.043  0.3672 -0.0474  1.1373
  118MOL0     C16185  12.717   4.626   9.981  0.0341  0.1095  0.4908
  118MOL0     C16186  12.799   4.744  10.033  0.1037  0.1515  0.3964
  118MOL0     C16187  12.781   4.863   9.952  0.5693 -0.1468  0.7478
  118MOL0     C16188  12.639   4.926   9.955 -0.2138  0.7406 -0.3274
  118MOL0     C16189  12.607   5.039   9.846  0.1642 -0.6902  0.2729
  118MOL0     C16190  12.611   4.992   9.704 -0.1641 -0.2395 -0.2833
  118MOL0    Cl16191  12.546   5.119   9.597  0.5828 -0.3360 -0.0843
  118MOL0     C16192  12.587   4.119   9.937  0.6444 -0.3676  0.0031
  118MOL0     C16193  12.500   4.006   9.932 -0.2075 -1.3062  0.4446
  118MOL0     O16194  12.333   3.821  10.233 -0.1198  0.9746  0.2982
  118MOL0     C16195  12.264   3.565  10.014  0.3682 -1.5964  0.4989
  118MOL0     C16196  12.212   3.436  10.005 -0.5797 -0.6716 -1.1791
  118MOL0     N16197  11.697   3.215  10.228  0.7374 -0.4548  0.7658
  118MOL0     N16198  11.591   3.246  10.146 -0.1294  0.5616  0.0064
  118MOL0     C16199  11.534   4.139  10.054 -0.6656 -0.9325 -0.5228
  118MOL0     C16200  11.511   4.251  10.130  0.3636 -1.4120 -0.6130
  118MOL0     C16201  11.427   4.695  10.178  0.8784 -0.4847 -0.0822
  118MOL0     C16202  11.490   4.683  10.303  0.4626  1.4167  0.0532
  118MOL0     C16203  11.515   4.791  10.393  1.0259  0.8475  0.2947
  118MOL0     C16204  11.480   4.917  10.360 -0.0745  0.7557  0.2696
  118MOL0     O16205  11.496   5.018  10.445 -0.1501  0.9536 -0.1875
  118MOL0     C16206  11.464   5.156  10.421 -0.6609 -0.1236  0.5737
  118MOL0     C16207  11.557   5.218  10.316 -0.5957 -0.2908  0.2992
  118MOL0     C16208  11.520   5.349  10.270 -0.1158  0.2519 -0.2568
  118MOL0     C16209  11.512   5.362  10.118 -0.5480 -0.1633  0.9819
  118MOL0     C16210  11.391   5.290  10.058 -0.5303 -0.3074 -0.6029
  118MOL0     C16211  11.296   5.229  10.019  0.0654 -0.4979 -0.6103
  118MOL0     C16212  11.407   4.930  10.240  0.7136 -0.1958  0.4461
  118MOL0     C16213  11.388   4.830  10.142  0.6483  0.0511  0.2821
  118MOL0     C16214  11.354   4.869  10.004 -0.1374  0.5344  0.0302
  118MOL0     H16215  11.281   4.397   9.910  2.2018  0.8962 -2.4808
  118MOL0     H16216  11.294   4.167   9.819 -1.1682 -1.7250  1.9059
  118MOL0     H16217  11.559   3.867  10.021  1.0050  1.1627 -0.1867
  118MOL0     H16218  11.483   3.799   9.879  1.1076  0.1838  0.3537
  118MOL0     H16219  11.317   3.931  10.117  1.6910 -1.5594  1.9740
  118MOL0     H16220  11.259   3.869   9.972  0.1093 -0.3568  1.5709
  118MOL0     H16221  11.385   3.704  10.204 -0.7793 -1.9162  0.8891
  118MOL0     H16222  11.218   3.709  10.141 -0.3251  3.5891  0.1255
  118MOL0     H16223  11.315   3.613   9.923  0.2681 -1.5786 -0.1326
  118MOL0     H16224  11.469   3.582  10.018  0.5218 -4.0976  4.2849
  118MOL0     H16225  11.195   3.483  10.087 -0.4013  0.0513 -0.2680
  118MOL0     H16226  11.339   3.449  10.177 -1.4749 -0.8395  0.2786
  118MOL0     H16227  11.264   3.348   9.897  1.4776 -2.5056 -0.5363
  118MOL0     H16228  11.435   3.362   9.946  0.1879  2.8625  1.4226
  118MOL0     H16229  11.219   3.175  10.022  0.4915 -0.8441  0.9660
  118MOL0     H16230  11.314   3.228  10.164  1.2153 -1.7775 -0.4767
  118MOL0     H16231  11.373   3.014  10.021 -2.9208  0.4651  0.5990
  118MOL0     H16232  11.467   3.137   9.931 -1.2679  4.9382  0.9553
  118MOL0     H16233  11.575   2.911  10.156  2.1470 -0.9255  1.4815
  118MOL0     H16234  11.754   2.924  10.375 -1.4498  0.9983 -0.2944
  118MOL0     H16235  11.842   3.069  10.394  1.0221 -0.5124 -1.0638
  118MOL0     H16236  12.008   2.917  10.285 -1.8101 -1.4821  0.3944
  118MOL0     H16237  11.886   2.866  10.168  0.8044 -1.3245  0.1221
  118MOL0     H16238  12.040   2.998  10.046 -0.2222  1.4262 -0.7585
  118MOL0     H16239  11.894   3.096  10.074 -0.1195  2.9806  1.2843
  118MOL0     H16240  12.027   3.219  10.260 -1.1293 -0.3378 -1.0840
  118MOL0     H16241  12.156   3.100  10.236  0.7519 -1.1452 -2.7888
  118MOL0     H16242  12.262   3.316  10.319  1.4183  0.1122 -0.8023
  118MOL0     H16243  12.500   3.583  10.326  0.6117 -0.2761  0.2836
  118MOL0     H16244  12.413   3.468  10.428  0.9167 -0.1047 -1.1247
  118MOL0     H16245  12.370   3.637  10.433 -1.8144 -1.0265  0.2947
  118MOL0     H16246  12.602   3.871  10.226  0.6302  2.1257  1.7945
  118MOL0     H16247  12.749   4.067  10.227  0.7229 -0.2092 -1.7368
  118MOL0     H16248  12.681   4.379   9.890  1.4374  2.4349  0.5824
  118MOL0     H16249  12.587   4.386  10.033  1.4335  1.1108  1.2460
  118MOL0     H16250  12.757   4.523  10.150  0.3874  2.3610  0.7224
  118MOL0     H16251  12.875   4.493  10.012 -0.4366 -0.4314 -1.7598
  118MOL0     H16252  12.617   4.636  10.024 -0.6631  3.2201 -1.5235
  118MOL0     H16253  12.709   4.616   9.872  2.5754 -1.2395  0.3559
  118MOL0     H16254  12.906   4.722  10.028  0.1766  0.7436 -2.1355
  118MOL0     H16255  12.759   4.760  10.133 -0.8399 -1.4545  0.3152
  118MOL0     H16256  12.853   4.933   9.996  1.7928 -0.3922 -0.7564
  118MOL0     H16257  12.822   4.835   9.854 -0.5453  5.6745 -1.8389
  118MOL0     H16258  12.608   4.965  10.052 -3.3226 -0.0526 -0.8612
  118MOL0     H16259  12.568   4.842   9.948  2.4538 -1.7699  0.8862
  118MOL0     H16260  12.677   5.123   9.855  0.0171 -0.4313 -0.8926
  118MOL0     H16261  12.514   5.086   9.878  0.0263 -0.4398 -0.4866
  118MOL0     H16262  12.547   4.903   9.694  0.0175 -0.7800  2.5449
  118MOL0     H16263  12.712   4.976   9.665 -1.2792 -0.7747 -3.2150
  118MOL0     H16264  12.568   4.181   9.851 -1.9817  1.3094  1.6526
  118MOL0     H16265  12.447   3.986   9.840  3.0147  0.2064 -1.9267
  118MOL0     H16266  12.257   3.623   9.923 -2.5779  0.5756  1.9283
  118MOL0     H16267  12.185   3.401   9.906  0.5525 -0.8724 -1.4328
  118MOL0     H16268  11.601   4.063  10.093  1.1308  1.0029  0.3511
  118MOL0     H16269  11.556   4.275  10.226 -0.0214 -2.4913 -0.1439
  118MOL0     H16270  11.535   4.585  10.322  1.2004  1.9003  0.9214
  118MOL0     H16271  11.565   4.781  10.489 -0.0976 -0.3555  0.7774
  118MOL0     H16272  11.368   5.165  10.369 -0.7824 -3.0577  0.1310
  118MOL0     H16273  11.463   5.216  10.512 -0.8235 -2.9117  2.5114
  118MOL0     H16274  11.561   5.152  10.229  0.8757 -0.6988  0.6547
  118MOL0     H16275  11.656   5.223  10.362 -0.2350 -0.1568 -0.4784
  118MOL0     H16276  11.419   5.365  10.309 -0.6615 -2.1649 -0.5215
  118MOL0     H16277  11.584   5.429  10.306 -0.6499  1.5155 -1.9896
  118MOL0     H16278  11.602   5.321  10.072 -0.1625 -3.7758  4.4989
  118MOL0     H16279  11.504   5.465  10.081 -0.0540 -0.0553  1.1773
  118MOL0     H16280  11.214   5.177   9.974  1.4500 -2.7550 -0.6613
  118MOL0     H16281  11.384   5.027  10.197  1.5616 -0.1405  0.0979
  118MOL0     H16282  11.282   4.796   9.965  1.6402 -0.5302 -1.4657
  118MOL0     H16283  11.336   4.974   9.979  4.7193  1.5358 -0.2487
  118MOL0     H16284  11.438   4.844   9.938 -0.2103  5.1184 -2.1364
  119MOL0     O16285   8.423   6.732   0.130  0.2449  0.5147  0.0757
  119MOL0     C16286   8.380   6.624   0.172  0.4517  0.4376  0.0386
  119MOL0     O16287   8.404   6.563   0.291 -0.5740 -0.3182  0.0973
  119MOL0     C16288   8.512   6.617   0.363 -0.6650 -0.0375  1.0746
  119MOL0     C16289   8.646   6.621   0.316 -0.3263 -0.0446 -0.0305
  119MOL0     C16290   8.749   6.666   0.393 -0.7732  0.4194 -0.1146
  119MOL0     C16291   8.731   6.702   0.527  0.4703 -0.4705 -0.5841
  119MOL0     O16292   8.840   6.752   0.598 -0.4162 -0.0784  1.1182
  119MOL0     C16293   8.836   6.763   0.741  0.5227  0.1672 -0.5058
  119MOL0     C16294   8.975   6.795   0.798 -0.1492  0.3419  0.7842
  119MOL0     C16295   9.080   6.670   0.788 -0.7077 -0.1398  0.1552
  119MOL0     C16296   9.229   6.700   0.822  0.2487 -1.2546  0.1328
  119MOL0     C16297   9.326   6.582   0.810 -0.1476 -0.5480 -0.3205
  119MOL0     C16298   9.372   6.557   0.665 -0.1223  0.1968 -0.1052
  119MOL0     C16299   9.398   6.405   0.645 -1.3723 -0.7059  0.0824
  119MOL0     C16300   9.461   6.375   0.509 -0.0720  1.5894  0.7098
  119MOL0     N16301   9.580   6.446   0.477  0.1123  0.7703 -0.6223
  119MOL0     C16302   9.566   6.544   0.373  0.3158  0.3673 -0.0084
  119MOL0     C16303   9.679   6.609   0.394 -0.4830  0.4404 -0.8629
  119MOL0     C16304   9.725   6.735   0.326 -0.0705  0.7803  0.1018
  119MOL0     C16305   9.670   6.868   0.382  0.2524 -0.9095  0.5579
  119MOL0     C16306   9.701   6.891   0.527  0.1460  0.7467 -0.1443
  119MOL0     C16307   9.679   7.033   0.568  0.2323  0.1860  0.1733
  119MOL0     O16308   9.541   7.066   0.544 -1.1351  0.1449  0.0076
  119MOL0     C16309   9.443   7.053   0.638  0.1875  0.4323 -0.3812
  119MOL0     C16310   9.330   7.130   0.605  0.2731  0.2045 -0.0768
  119MOL0     C16311   9.222   7.149   0.698 -0.7236  1.3912  0.1947
  119MOL0     C16312   9.116   7.251   0.669 -0.0816 -0.9368 -0.2687
  119MOL0     C16313   9.232   7.085   0.818 -0.1335  0.3932  0.2469
  119MOL0     C16314   9.127   7.085   0.923  0.0656  0.2426  0.2804
  119MOL0     O16315   9.174   7.046   1.047  0.3687  0.5105  0.3819
  119MOL0     C16316   9.080   7.045   1.153 -0.0757  1.1422  0.5495
  119MOL0     C16317   9.080   7.150   1.238 -0.5257 -0.5209 -0.1024
  119MOL0     C16318   8.986   7.163   1.339  0.2430 -0.3544  0.9725
  119MOL0     C16319   8.894   7.064   1.362 -0.3575 -0.0002 -0.3901
  119MOL0     O16320   8.806   7.084   1.466 -0.5611  0.4243 -0.0683
  119MOL0     C16321   8.673   7.090   1.418  0.1670  0.7919  0.7574
  119MOL0     C16322   8.581   7.138   1.526 -0.0261  0.1507  0.5032
  119MOL0     C16323   8.612   7.280   1.565 -0.0607  0.3663  0.6294
  119MOL0     C16324   8.538   7.331   1.688 -0.9961  0.7556  0.3412
  119MOL0     C16325   8.566   7.477   1.735 -0.0598 -0.1113  0.2883
  119MOL0     C16326   8.492   7.539   1.844 -0.3902  0.2388 -0.7860
  119MOL0     C16327   8.567   7.650   1.906  0.0153 -0.0096  0.2697
  119MOL0     C16328   8.637   7.599   2.035 -0.4904  0.2431 -0.3059
  119MOL0    Cl16329   8.500   7.580   2.167  0.1569  0.2481  0.0948
  119MOL0     C16330   8.906   6.946   1.284  0.4064  0.4368 -0.2613
  119MOL0     C16331   8.993   6.933   1.178 -0.5250 -0.2174  0.3523
  119MOL0     O16332   9.018   7.126   0.908  0.1591 -0.1523 -0.3319
  119MOL0     C16333   9.348   7.000   0.842  0.5418 -0.5336 -0.0172
  119MOL0     C16334   9.448   6.981   0.756 -0.0780  0.6057 -1.0653
  119MOL0     N16335   9.763   6.546   0.483  0.2882  0.7106  0.1590
  119MOL0     N16336   9.695   6.454   0.541 -0.3000 -0.2734 -0.2046
  119MOL0     C16337   8.603   6.694   0.578 -0.2780 -0.7203  0.8845
  119MOL0     C16338   8.496   6.664   0.490 -0.0803 -0.1407  0.0504
  119MOL0     C16339   8.265   6.569   0.090  0.4119  0.0750 -0.0853
  119MOL0     C16340   8.201   6.656  -0.006  0.2468 -0.5114  0.5989
  119MOL0     C16341   8.073   6.614  -0.070 -0.4920  0.5512  0.1105
  119MOL0     C16342   8.012   6.495  -0.037 -0.4090 -0.3509  0.5299
  119MOL0     O16343   7.898   6.442  -0.090 -0.5676 -0.1540 -0.4173
  119MOL0     C16344   7.819   6.527  -0.176 -0.3906  0.1446  0.6036
  119MOL0     C16345   7.688   6.458  -0.199  0.6044  0.3040 -0.0286
  119MOL0     C16346   7.601   6.554  -0.278  1.0785  0.5523  0.2010
  119MOL0     C16347   7.451   6.522  -0.292  0.5473  0.9553  0.0849
  119MOL0     C16348   7.383   6.529  -0.164 -0.5050 -0.2710 -0.8722
  119MOL0     C16349   7.308   6.529  -0.072  0.0282  0.4908  0.8285
  119MOL0     C16350   8.086   6.418   0.051  0.7273  0.8040  1.0700
  119MOL0     C16351   8.211   6.434   0.109 -0.1780 -1.0465 -0.5360
  119MOL0     C16352   8.277   6.332   0.200  0.2603  0.6213  0.6559
  119MOL0     H16353   8.651   6.592   0.212 -0.9850  0.6287 -0.2581
  119MOL0     H16354   8.849   6.689   0.356 -0.9423  2.9013  0.7983
  119MOL0     H16355   8.786   6.675   0.783 -2.9232  1.0115 -2.4253
  119MOL0     H16356   8.774   6.852   0.755  0.6111  0.4433 -1.7682
  119MOL0     H16357   9.026   6.885   0.762 -0.3121  0.5906  1.1727
  119MOL0     H16358   8.966   6.822   0.903 -0.4613  4.1222 -0.0636
  119MOL0     H16359   9.051   6.596   0.864  1.0259  0.2407  1.2594
  119MOL0     H16360   9.071   6.632   0.686  0.3668  3.4819 -1.4396
  119MOL0     H16361   9.268   6.787   0.769 -2.9534  0.4393  0.3065
  119MOL0     H16362   9.231   6.741   0.923 -0.3250 -1.1626  0.1121
  119MOL0     H16363   9.266   6.497   0.845  0.4912 -0.1501  1.8434
  119MOL0     H16364   9.406   6.591   0.883 -2.3751  3.2752  1.9676
  119MOL0     H16365   9.294   6.589   0.596 -0.4145  0.1375  0.1955
  119MOL0     H16366   9.462   6.617   0.648  0.2846 -0.4563 -0.3164
  119MOL0     H16367   9.300   6.357   0.652 -1.8249  0.3263  1.0390
  119MOL0     H16368   9.465   6.365   0.721  0.1630 -0.5411 -1.1162
  119MOL0     H16369   9.467   6.267   0.496  0.2634  1.8313 -1.5515
  119MOL0     H16370   9.382   6.403   0.438  1.1375 -0.1865 -1.4334
  119MOL0     H16371   9.494   6.570   0.297  1.3166  0.9093 -0.7839
  119MOL0     H16372   9.689   6.730   0.223  0.7252  1.6215 -0.2374
  119MOL0     H16373   9.834   6.737   0.320 -0.1160 -0.2587 -2.9120
  119MOL0     H16374   9.720   6.945   0.322  0.1844 -1.4037 -0.1397
  119MOL0     H16375   9.563   6.868   0.359  0.8311 -0.8172 -2.6564
  119MOL0     H16376   9.652   6.815   0.589  1.9073  1.3407  2.1352
  119MOL0     H16377   9.809   6.872   0.532  0.5676  1.9095 -3.1839
  119MOL0     H16378   9.709   7.051   0.672  2.6100 -0.1607 -0.4095
  119MOL0     H16379   9.742   7.085   0.496 -2.4081  1.0430 -1.6887
  119MOL0     H16380   9.318   7.161   0.502 -3.6271 -0.7715 -0.0623
  119MOL0     H16381   9.132   7.292   0.568  1.2160  0.1473  0.3400
  119MOL0     H16382   9.120   7.326   0.749  2.4505 -1.9664  0.6766
  119MOL0     H16383   9.015   7.210   0.661 -0.9000  0.8640  0.2566
  119MOL0     H16384   9.153   7.228   1.224 -1.6734  0.2093 -2.7370
  119MOL0     H16385   8.969   7.246   1.408 -1.0603 -2.7287  3.7250
  119MOL0     H16386   8.657   7.148   1.327 -2.2324  0.9702  1.2400
  119MOL0     H16387   8.643   6.987   1.394 -1.4347  1.3729  0.1368
  119MOL0     H16388   8.476   7.126   1.496  0.4602  1.0188 -1.7597
  119MOL0     H16389   8.593   7.067   1.608 -0.5407 -0.4066  0.1000
  119MOL0     H16390   8.592   7.350   1.484 -0.6892  1.5210  1.7550
  119MOL0     H16391   8.720   7.281   1.583  0.3191 -0.8326 -1.3513
  119MOL0     H16392   8.569   7.272   1.774 -1.4428 -0.8606 -0.5606
  119MOL0     H16393   8.435   7.316   1.654 -0.0733  1.5790 -3.2035
  119MOL0     H16394   8.668   7.477   1.776  0.2401  1.1816 -0.4021
  119MOL0     H16395   8.555   7.539   1.645 -2.7121 -1.8911 -0.7520
  119MOL0     H16396   8.472   7.460   1.916  1.7814 -0.7767 -1.2201
  119MOL0     H16397   8.400   7.575   1.797 -1.1397 -1.9345 -1.0988
  119MOL0     H16398   8.496   7.729   1.935  1.0292  1.1666 -0.3534
  119MOL0     H16399   8.634   7.687   1.828 -0.4724  0.8732  0.2499
  119MOL0     H16400   8.719   7.662   2.070  3.7643 -3.7719 -2.0628
  119MOL0     H16401   8.695   7.509   2.015 -0.6712 -0.0351  0.3863
  119MOL0     H16402   8.852   6.856   1.311 -0.3437  1.1342  0.6509
  119MOL0     H16403   9.002   6.847   1.113 -1.0603 -0.1234  0.1535
  119MOL0     H16404   9.362   6.956   0.940 -4.1855 -0.3998  0.9774
  119MOL0     H16405   9.526   6.910   0.780 -1.7430 -0.5277  1.4983
  119MOL0     H16406   8.568   6.729   0.675 -3.3975 -0.9062 -0.0859
  119MOL0     H16407   8.397   6.670   0.535  0.0604 -3.5565  1.0584
  119MOL0     H16408   8.238   6.755  -0.029 -0.5025 -0.8851 -2.7076
  119MOL0     H16409   8.025   6.677  -0.144  0.3923  0.6912 -0.3515
  119MOL0     H16410   7.796   6.622  -0.127  0.1400  1.4193 -1.4861
  119MOL0     H16411   7.876   6.550  -0.266  0.9661  1.6031  1.7674
  119MOL0     H16412   7.652   6.436  -0.098  2.4815  2.8536  1.3191
  119MOL0     H16413   7.697   6.367  -0.260  1.4267  0.4824 -0.1900
  119MOL0     H16414   7.606   6.652  -0.229 -0.7061  0.5043  0.5464
  119MOL0     H16415   7.636   6.560  -0.382  2.7765 -0.9692  0.6377
  119MOL0     H16416   7.449   6.419  -0.328  4.2670  0.7788 -0.0112
  119MOL0     H16417   7.398   6.593  -0.355 -1.4384  0.6283  1.3098
  119MOL0     H16418   7.246   6.528   0.016  0.1965  2.0011  0.9899
  119MOL0     H16419   8.051   6.321   0.084 -0.6704  2.0360  3.4305
  119MOL0     H16420   8.384   6.340   0.178  0.1919  2.2922  0.7574
  119MOL0     H16421   8.249   6.359   0.303 -1.2986 -0.9094  0.6848
  119MOL0     H16422   8.239   6.230   0.194 -0.4630  0.9696 -1.6704
  120MOL0     O16423   1.249   4.336   8.172  0.6274 -0.6279 -0.1351
  120MOL0     C16424   1.343   4.374   8.104 -0.3107 -0.1045 -0.0405
  120MOL0     O16425   1.446   4.290   8.053  0.2894 -0.0428  0.3803
  120MOL0     C16426   1.439   4.157   8.091  0.5186 -0.0669 -0.0509
  120MOL0     C16427   1.513   4.099   8.188 -0.8813 -0.2415 -0.1392
  120MOL0     C16428   1.507   3.961   8.211 -0.6627  0.5521 -0.3460
  120MOL0     C16429   1.407   3.888   8.150  0.7124  0.2558 -0.0136
  120MOL0     O16430   1.395   3.755   8.157 -0.5421  0.4402  0.4369
  120MOL0     C16431   1.349   3.708   8.278 -0.3162  0.4462  0.4201
  120MOL0     C16432   1.378   3.555   8.277 -0.6337  0.1063 -0.1022
  120MOL0     C16433   1.301   3.492   8.394 -0.0420 -0.7132  0.1083
  120MOL0     C16434   1.341   3.539   8.531  0.3197 -0.2054 -0.3682
  120MOL0     C16435   1.486   3.500   8.569  0.0296  0.6469  0.4425
  120MOL0     C16436   1.523   3.568   8.695  0.4239 -0.0374 -0.3235
  120MOL0     C16437   1.622   3.478   8.772 -0.0947  0.5363 -0.1636
  120MOL0     C16438   1.567   3.342   8.827 -0.2016  0.1286  0.3664
  120MOL0     N16439   1.436   3.376   8.889  0.5840  0.6473 -0.4181
  120MOL0     C16440   1.409   3.479   8.984  0.3679  0.4010 -0.0335
  120MOL0     C16441   1.265   3.483   8.984 -0.5658  0.8643 -0.6553
  120MOL0     C16442   1.189   3.576   9.075 -0.0450 -0.1637  1.3620
  120MOL0     C16443   1.229   3.724   9.050 -0.0570  0.3752 -0.7000
  120MOL0     C16444   1.128   3.808   9.132 -0.6277 -0.5372  0.5758
  120MOL0     C16445   1.132   3.958   9.095  0.0708  0.1238 -0.6734
  120MOL0     O16446   1.018   4.025   9.155  0.6230 -0.4432  0.0169
  120MOL0     C16447   1.000   4.162   9.129  0.2461 -0.2023 -0.5726
  120MOL0     C16448   1.092   4.245   9.066 -0.5826  0.2114  0.6036
  120MOL0     C16449   1.064   4.381   9.045  0.0240 -0.3585  0.0242
  120MOL0     C16450   1.160   4.471   8.964  1.1513 -0.9328 -0.6100
  120MOL0     C16451   0.952   4.433   9.104  1.1729 -0.3289  0.2771
  120MOL0     C16452   0.918   4.572   9.084 -0.7804 -0.1920  0.5570
  120MOL0     O16453   0.825   4.596   8.984  0.1435 -0.6273 -0.2816
  120MOL0     C16454   0.787   4.726   8.940 -0.2686 -0.1069 -0.3248
  120MOL0     C16455   0.655   4.743   8.894 -0.3887 -0.8105  0.7587
  120MOL0     C16456   0.611   4.859   8.838  0.2595  0.2610 -0.6411
  120MOL0     C16457   0.692   4.972   8.825 -0.2341  0.7345  0.9884
  120MOL0     O16458   0.660   5.080   8.753 -0.3399 -0.3017 -0.1234
  120MOL0     C16459   0.521   5.129   8.753 -0.5907  0.0548 -0.4576
  120MOL0     C16460   0.531   5.281   8.706  0.2623  0.1215 -0.2829
  120MOL0     C16461   0.389   5.316   8.648 -0.0446 -0.6508  0.1832
  120MOL0     C16462   0.272   5.296   8.755 -0.3197 -0.0414 -0.6551
  120MOL0     C16463   0.139   5.353   8.725  0.0364 -0.1951  0.0421
  120MOL0     C16464   0.048   5.344   8.843  1.1341  0.5034 -0.4957
  120MOL0     C16465  -0.100   5.382   8.823 -0.0809 -0.1802  0.7055
  120MOL0     C16466  -0.205   5.314   8.913 -0.2299 -0.8605 -0.4904
  120MOL0    Cl16467  -0.370   5.358   8.841  0.7736  0.0128 -0.0448
  120MOL0     C16468   0.823   4.959   8.874  0.3896 -0.3099  0.4869
  120MOL0     C16469   0.877   4.836   8.931  0.3157 -0.0721 -0.6974
  120MOL0     O16470   0.980   4.659   9.143 -0.2222 -0.5454  0.3004
  120MOL0     C16471   0.855   4.363   9.168  0.6189 -0.3786  0.0767
  120MOL0     C16472   0.881   4.221   9.181 -0.2755 -1.0886 -0.6246
  120MOL0     N16473   1.219   3.379   8.903 -0.3009 -0.9674 -0.5563
  120MOL0     N16474   1.319   3.316   8.844  0.2094 -0.1345 -0.3156
  120MOL0     C16475   1.325   3.949   8.057  0.6555  0.0243 -0.4477
  120MOL0     C16476   1.339   4.084   8.025 -0.3057  0.2447 -0.8225
  120MOL0     C16477   1.357   4.520   8.075  0.3595 -0.9114 -0.1149
  120MOL0     C16478   1.424   4.559   7.955  0.1789 -0.0260 -0.6245
  120MOL0     C16479   1.461   4.688   7.921  0.0222  0.8231  0.4011
  120MOL0     C16480   1.424   4.791   7.999  0.1444  0.6486 -0.6523
  120MOL0     O16481   1.463   4.920   7.967  0.3636 -0.3647 -0.1441
  120MOL0     C16482   1.399   5.029   8.032  0.5443  1.0574 -0.3461
  120MOL0     C16483   1.469   5.158   7.986  0.6948  0.0571 -1.2020
  120MOL0     C16484   1.498   5.169   7.840  0.5504 -0.6151  0.0605
  120MOL0     C16485   1.389   5.226   7.749  0.1176  0.0055 -0.6536
  120MOL0     C16486   1.412   5.205   7.605  0.6579 -0.1703 -0.9182
  120MOL0     C16487   1.431   5.196   7.482  0.0914  0.4956 -0.8931
  120MOL0     C16488   1.327   4.757   8.104 -0.6580 -0.5925 -0.0069
  120MOL0     C16489   1.291   4.627   8.140 -0.2401  1.4108 -0.0689
  120MOL0     C16490   1.200   4.613   8.253  0.7484  0.1257  0.2827
  120MOL0     H16491   1.583   4.163   8.241 -3.3099  0.2749  2.7268
  120MOL0     H16492   1.583   3.912   8.271 -0.5031  1.0749 -0.1169
  120MOL0     H16493   1.241   3.717   8.292  0.0423 -0.0324  4.6227
  120MOL0     H16494   1.396   3.763   8.360 -2.1592  1.7559  0.6656
  120MOL0     H16495   1.347   3.507   8.184 -2.5790  0.6939  0.2129
  120MOL0     H16496   1.485   3.537   8.295 -0.7410  0.3905  0.9028
  120MOL0     H16497   1.194   3.511   8.379 -1.0656 -5.4580 -0.2124
  120MOL0     H16498   1.314   3.383   8.398  3.0263 -0.4372 -0.2462
  120MOL0     H16499   1.329   3.648   8.529 -0.2649 -0.2267  0.8181
  120MOL0     H16500   1.275   3.505   8.612  1.4384  2.2549  1.7511
  120MOL0     H16501   1.561   3.530   8.495 -0.5071  0.4344 -0.2046
  120MOL0     H16502   1.489   3.392   8.581 -4.0719  0.2782 -0.2460
  120MOL0     H16503   1.567   3.667   8.682 -0.6646  0.7658  1.6018
  120MOL0     H16504   1.430   3.577   8.753 -1.8461 -3.8474 -2.8769
  120MOL0     H16505   1.654   3.541   8.856  2.8499 -0.4436 -0.4431
  120MOL0     H16506   1.716   3.453   8.721  0.7438 -0.8252  1.9113
  120MOL0     H16507   1.551   3.265   8.752  0.5526  1.5542 -1.3225
  120MOL0     H16508   1.636   3.312   8.908 -1.8119  2.0538  2.5942
  120MOL0     H16509   1.476   3.531   9.051 -0.3885 -2.0781  2.8312
  120MOL0     H16510   1.197   3.547   9.181  0.2333  0.6342  1.5639
  120MOL0     H16511   1.082   3.560   9.061  0.0602  1.8037 -3.0582
  120MOL0     H16512   1.331   3.733   9.089 -0.2216 -0.3046 -0.0778
  120MOL0     H16513   1.225   3.766   8.949 -1.0021  0.5890 -0.5922
  120MOL0     H16514   1.027   3.781   9.099 -1.2667  0.6482  1.4527
  120MOL0     H16515   1.132   3.785   9.239 -0.5752  2.6923  1.3970
  120MOL0     H16516   1.223   4.011   9.124 -1.2663  0.5889  3.3029
  120MOL0     H16517   1.125   3.966   8.986  1.5486  0.9552 -0.7311
  120MOL0     H16518   1.188   4.210   9.029  0.2376  1.2639  1.6453
  120MOL0     H16519   1.187   4.559   9.023  2.5501 -0.5313 -1.8012
  120MOL0     H16520   1.114   4.498   8.869 -2.4358  0.0097  1.1830
  120MOL0     H16521   1.250   4.418   8.932  3.3573  1.8285  0.6121
  120MOL0     H16522   0.598   4.652   8.909  1.1935 -2.1174 -0.6760
  120MOL0     H16523   0.506   4.854   8.813  0.3722  1.7281 -1.5467
  120MOL0     H16524   0.467   5.075   8.675 -0.8394  2.3095 -1.9449
  120MOL0     H16525   0.470   5.115   8.849  1.0000  0.1614  0.4298
  120MOL0     H16526   0.562   5.348   8.786  0.3737  0.9246 -0.9787
  120MOL0     H16527   0.605   5.280   8.625 -1.0723 -0.9792 -1.5678
  120MOL0     H16528   0.369   5.256   8.559 -2.1852 -2.1529  1.5606
  120MOL0     H16529   0.388   5.413   8.599 -1.3539 -0.6531  0.1584
  120MOL0     H16530   0.316   5.344   8.844  1.8467 -0.1298 -1.6247
  120MOL0     H16531   0.251   5.191   8.776 -0.7592  0.6001  2.7767
  120MOL0     H16532   0.144   5.460   8.708  0.0638  0.5413  3.7677
  120MOL0     H16533   0.084   5.303   8.645 -2.1016 -0.3194  1.5030
  120MOL0     H16534   0.091   5.402   8.926  0.1041  1.1520 -0.4025
  120MOL0     H16535   0.043   5.242   8.882  1.6074  0.8661  0.5588
  120MOL0     H16536  -0.112   5.349   8.720  3.6063 -4.5988  1.3849
  120MOL0     H16537  -0.107   5.491   8.830  1.7436 -0.1165  2.7027
  120MOL0     H16538  -0.212   5.356   9.014 -1.7469 -2.1045 -0.0408
  120MOL0     H16539  -0.178   5.208   8.917  1.4570 -0.7583 -4.2692
  120MOL0     H16540   0.896   5.038   8.860  1.5082 -1.0812  1.8048
  120MOL0     H16541   0.978   4.822   8.968  0.2968 -1.4617 -1.1352
  120MOL0     H16542   0.764   4.409   9.206  1.3279  1.9638 -0.8969
  120MOL0     H16543   0.798   4.177   9.234 -2.0415  2.2839 -0.2672
  120MOL0     H16544   1.262   3.887   7.995  1.3568 -0.9277 -0.2445
  120MOL0     H16545   1.278   4.134   7.950 -1.5794  4.2570  2.5217
  120MOL0     H16546   1.443   4.484   7.879  0.9382 -1.2141  0.6795
  120MOL0     H16547   1.518   4.717   7.833  0.3182  0.7409  0.5652
  120MOL0     H16548   1.296   5.046   7.998  0.3044  1.2761  0.4831
  120MOL0     H16549   1.396   5.013   8.140  0.3880 -1.1414 -0.6247
  120MOL0     H16550   1.563   5.157   8.042 -0.9553 -0.8499  1.7323
  120MOL0     H16551   1.413   5.239   8.032  1.2737 -2.1783  4.1669
  120MOL0     H16552   1.589   5.228   7.826 -0.1157 -0.1458 -3.2510
  120MOL0     H16553   1.522   5.071   7.796  0.0156  0.5391 -3.1260
  120MOL0     H16554   1.388   5.332   7.775 -3.2293  0.0810 -0.6079
  120MOL0     H16555   1.294   5.182   7.780  0.0919 -0.3357 -1.2009
  120MOL0     H16556   1.444   5.206   7.376  1.8840 -2.7957 -1.1210
  120MOL0     H16557   1.275   4.838   8.154 -0.9803  0.2406 -1.6399
  120MOL0     H16558   1.143   4.520   8.256 -1.3148  1.3237  0.1067
  120MOL0     H16559   1.256   4.623   8.347 -3.6234 -1.0235  3.3431
  120MOL0     H16560   1.124   4.691   8.244  0.0396 -0.1869  2.6589
  121MOL0     O16561   1.880   0.614  10.970 -0.2628  0.0460  0.8303
  121MOL0     C16562   1.774   0.639  11.031 -0.0887  1.0212 -0.1726
  121MOL0     O16563   1.755   0.723  11.122  0.1585 -0.2895 -0.3624
  121MOL0     C16564   1.854   0.813  11.157 -0.0876 -0.4354 -0.9626
  121MOL0     C16565   1.981   0.778  11.227 -0.6799 -0.7221  0.7086
  121MOL0     C16566   2.071   0.878  11.241 -0.1085  1.0504 -0.2830
  121MOL0     C16567   2.035   1.013  11.218 -0.6660 -0.3494 -0.2869
  121MOL0     O16568   2.129   1.119  11.228 -0.2633  0.0775  0.1169
  121MOL0     C16569   2.266   1.081  11.228  0.4641  0.2044  0.2226
  121MOL0     C16570   2.329   1.081  11.378  0.2634  0.1712  0.3918
  121MOL0     C16571   2.475   1.111  11.375 -0.1690  0.7285  0.1478
  121MOL0     C16572   2.570   0.996  11.326  0.4773 -0.0018 -0.1894
  121MOL0     C16573   2.721   1.028  11.340  0.5597 -0.3364 -0.4611
  121MOL0     C16574   2.804   0.901  11.323  0.8563 -0.3789  0.3243
  121MOL0     C16575   2.946   0.940  11.294 -0.4276 -0.6815  1.0215
  121MOL0     C16576   2.984   0.995  11.148 -0.9537 -0.0790  0.3219
  121MOL0     N16577   2.963   0.890  11.049  0.2082 -0.7112 -0.0338
  121MOL0     C16578   3.044   0.780  11.033 -0.1016  0.4098  0.0567
  121MOL0     C16579   3.005   0.713  10.925  0.3329 -0.4551  0.1373
  121MOL0     C16580   3.057   0.593  10.867 -0.1559  0.4478 -0.3118
  121MOL0     C16581   2.984   0.463  10.898  0.5274  0.5939 -0.6047
  121MOL0     C16582   3.019   0.383  11.022 -0.5963  0.3833  0.7610
  121MOL0     C16583   2.926   0.252  11.023  0.2149 -0.2078  0.5262
  121MOL0     O16584   2.980   0.167  11.133 -1.0868  0.3790  0.2677
  121MOL0     C16585   2.892   0.130  11.231 -0.5505 -0.6096  0.1204
  121MOL0     C16586   2.762   0.100  11.201 -0.2847  0.9147 -0.4685
  121MOL0     C16587   2.664   0.087  11.298 -0.1014 -0.0843  0.5093
  121MOL0     C16588   2.531   0.037  11.252  1.2795 -0.4408 -0.0393
  121MOL0     C16589   2.688   0.137  11.427 -0.7193  0.6311 -0.3444
  121MOL0     C16590   2.596   0.136  11.547  0.0883 -0.4006  0.0595
  121MOL0     O16591   2.656   0.121  11.669 -0.5722  0.1697  0.4109
  121MOL0     C16592   2.595   0.142  11.789  0.1530  0.8760  0.0399
  121MOL0     C16593   2.644   0.235  11.872  0.0941  0.3469 -0.4026
  121MOL0     C16594   2.577   0.261  11.994 -0.2310  1.2157 -0.1952
  121MOL0     C16595   2.476   0.180  12.050  1.5918 -0.0156 -1.4581
  121MOL0     O16596   2.418   0.227  12.162  0.4146  0.4251 -0.5458
  121MOL0     C16597   2.308   0.149  12.207 -0.1597  0.6004 -0.0794
  121MOL0     C16598   2.236   0.236  12.316  0.5624 -0.6547  0.2720
  121MOL0     C16599   2.327   0.270  12.445  0.5032 -0.0117  0.9749
  121MOL0     C16600   2.242   0.305  12.563  0.1706 -1.2769 -0.4050
  121MOL0     C16601   2.328   0.352  12.686  0.3800  0.3977 -0.3242
  121MOL0     C16602   2.241   0.387  12.812 -0.1996 -1.0562  1.0605
  121MOL0     C16603   2.330   0.458  12.916  0.4119  0.4234  0.1132
  121MOL0     C16604   2.287   0.445  13.061 -0.2779 -0.5309  0.0177
  121MOL0    Cl16605   2.291   0.274  13.122  0.3917  0.6026  0.4172
  121MOL0     C16606   2.440   0.075  11.974  0.5965  0.7029  1.4701
  121MOL0     C16607   2.492   0.060  11.838 -0.3783 -0.0475 -0.2669
  121MOL0     O16608   2.483   0.186  11.530 -1.1350 -0.8874  0.3781
  121MOL0     C16609   2.827   0.167  11.453  0.4285  0.5802 -0.0850
  121MOL0     C16610   2.928   0.168  11.356 -0.5081 -0.2058 -0.3321
  121MOL0     N16611   2.896   0.780  10.874 -0.5522  0.7254  0.5906
  121MOL0     N16612   2.874   0.885  10.945  0.4104 -0.0237 -0.0720
  121MOL0     C16613   1.910   1.045  11.171 -0.4536 -0.2899  0.4774
  121MOL0     C16614   1.816   0.952  11.143  0.3604  0.3160  0.8675
  121MOL0     C16615   1.654   0.568  10.991 -0.2310  0.3857 -0.4584
  121MOL0     C16616   1.553   0.561  11.083  0.2578  0.0261  0.4462
  121MOL0     C16617   1.431   0.500  11.060 -0.3500 -0.7726 -0.8103
  121MOL0     C16618   1.399   0.461  10.937 -0.2314 -0.1253 -0.1649
  121MOL0     O16619   1.274   0.408  10.925 -0.0833 -0.3271 -0.4039
  121MOL0     C16620   1.240   0.322  10.815 -0.5741 -0.6756  0.8331
  121MOL0     C16621   1.118   0.244  10.862  0.7644 -0.6645 -0.5977
  121MOL0     C16622   0.997   0.347  10.881 -1.1334  0.1902  0.5957
  121MOL0     C16623   0.862   0.287  10.865  0.3458 -0.2380 -0.5130
  121MOL0     C16624   0.826   0.170  10.941  0.3161 -0.1446  1.3637
  121MOL0     C16625   0.786   0.074  11.000  0.1991 -0.2330 -0.1049
  121MOL0     C16626   1.500   0.454  10.839  0.0441  0.5225  0.6657
  121MOL0     C16627   1.622   0.496  10.868  0.0852  0.1230 -0.5735
  121MOL0     C16628   1.730   0.468  10.755 -0.2101  0.0254  0.5933
  121MOL0     H16629   2.015   0.678  11.249  0.2494 -0.3460  1.0675
  121MOL0     H16630   2.169   0.856  11.282 -0.6342  0.5377  0.7222
  121MOL0     H16631   2.316   1.162  11.174 -1.3598  0.0344 -1.8327
  121MOL0     H16632   2.290   0.993  11.168  2.9046  0.9753 -0.0575
  121MOL0     H16633   2.268   1.163  11.417 -1.7962 -0.1258 -1.9390
  121MOL0     H16634   2.313   0.990  11.436  0.1234  1.3726  2.3265
  121MOL0     H16635   2.485   1.199  11.311 -1.0766  0.6356 -0.1428
  121MOL0     H16636   2.502   1.137  11.477  3.2064  0.1737 -0.5002
  121MOL0     H16637   2.545   0.911  11.389 -0.1693  0.2927 -0.0411
  121MOL0     H16638   2.541   0.976  11.222 -1.7604  2.1047 -0.0572
  121MOL0     H16639   2.734   1.060  11.444 -4.8859 -2.2401  1.1560
  121MOL0     H16640   2.751   1.112  11.277  0.3268 -0.1749 -0.3571
  121MOL0     H16641   2.801   0.836  11.411  0.9657  1.9754  2.1522
  121MOL0     H16642   2.768   0.838  11.241  2.1330  1.5663 -1.8700
  121MOL0     H16643   3.008   0.850  11.292  1.0544  0.2950 -0.2129
  121MOL0     H16644   2.974   1.009  11.374 -2.8109 -1.0926  2.2662
  121MOL0     H16645   2.924   1.086  11.136  0.3068  1.0563  2.1098
  121MOL0     H16646   3.090   1.022  11.143  0.3082 -4.4846 -0.2802
  121MOL0     H16647   3.133   0.750  11.088 -0.5198 -3.2129 -1.0159
  121MOL0     H16648   3.159   0.582  10.905 -0.3509 -0.5041 -0.0299
  121MOL0     H16649   3.054   0.604  10.759 -0.0800 -3.7761 -0.8900
  121MOL0     H16650   2.881   0.499  10.905  0.2674  1.0396 -4.7661
  121MOL0     H16651   2.988   0.396  10.812 -4.9271 -2.1342  0.7943
  121MOL0     H16652   3.124   0.353  11.012  0.1084  2.5537  1.0071
  121MOL0     H16653   2.989   0.445  11.107  1.0125  3.5564 -0.7990
  121MOL0     H16654   2.824   0.288  11.042  0.4219  0.4002  0.5096
  121MOL0     H16655   2.918   0.206  10.924 -2.3412  0.6891  0.2398
  121MOL0     H16656   2.755   0.059  11.101  2.9105  0.3827 -0.5757
  121MOL0     H16657   2.462   0.038  11.337 -0.0488  0.2776 -1.0791
  121MOL0     H16658   2.522  -0.050  11.186 -1.2387  1.2779 -2.1879
  121MOL0     H16659   2.486   0.111  11.185 -0.1377  0.7387  2.1017
  121MOL0     H16660   2.731   0.293  11.842  1.1243 -0.8707  0.1278
  121MOL0     H16661   2.613   0.349  12.047 -0.7100 -0.0602  2.4235
  121MOL0     H16662   2.245   0.138  12.118 -0.4629 -0.3210  0.2447
  121MOL0     H16663   2.328   0.051  12.250 -2.4575  0.9481  2.0320
  121MOL0     H16664   2.212   0.331  12.267 -1.1611 -0.9265  0.5224
  121MOL0     H16665   2.136   0.200  12.342 -0.8695  0.9965 -2.5207
  121MOL0     H16666   2.400   0.348  12.423 -0.0022  0.7015  1.7335
  121MOL0     H16667   2.385   0.183  12.478  4.0206  1.0095 -1.9529
  121MOL0     H16668   2.177   0.222  12.591  2.1155 -2.7209  0.0253
  121MOL0     H16669   2.191   0.400  12.541 -0.9404 -1.9203 -0.7025
  121MOL0     H16670   2.408   0.287  12.720 -1.2023 -0.2820  2.3761
  121MOL0     H16671   2.369   0.451  12.666 -0.3942  0.6701 -0.5873
  121MOL0     H16672   2.199   0.296  12.854  1.0277 -2.4811 -0.6317
  121MOL0     H16673   2.171   0.463  12.777  0.5922 -0.9244 -0.3060
  121MOL0     H16674   2.344   0.564  12.893  0.3802 -0.1130 -2.7438
  121MOL0     H16675   2.427   0.410  12.911  0.9964  1.5168  0.5237
  121MOL0     H16676   2.184   0.485  13.062 -1.3328 -2.8760  3.6392
  121MOL0     H16677   2.354   0.509  13.120  2.4910 -2.6801 -0.6277
  121MOL0     H16678   2.360   0.007  12.002  1.4399 -0.5333  0.9904
  121MOL0     H16679   2.460  -0.017  11.768  5.6685 -0.5864 -3.0321
  121MOL0     H16680   2.857   0.206  11.550  0.7708 -0.9387  0.4571
  121MOL0     H16681   3.025   0.213  11.375 -1.1770  1.5578 -0.9043
  121MOL0     H16682   1.889   1.151  11.162  0.5880  0.0561  1.8035
  121MOL0     H16683   1.718   0.992  11.118  0.9816  1.9970  1.0059
  121MOL0     H16684   1.559   0.625  11.170 -0.7191 -0.0297  0.5678
  121MOL0     H16685   1.354   0.507  11.136  0.1911 -1.6905 -0.1608
  121MOL0     H16686   1.222   0.385  10.728 -1.5763 -1.5397  0.3967
  121MOL0     H16687   1.310   0.239  10.798 -0.3914 -0.3395 -0.1045
  121MOL0     H16688   1.160   0.203  10.955  3.6901  0.9403 -1.1048
  121MOL0     H16689   1.090   0.152  10.809 -4.0373  0.1989 -0.0360
  121MOL0     H16690   1.004   0.390  10.981 -0.8321  2.0041 -0.1711
  121MOL0     H16691   1.008   0.425  10.805 -0.3791 -1.8410 -1.4882
  121MOL0     H16692   0.840   0.260  10.761  0.3711 -0.1771 -0.5344
  121MOL0     H16693   0.796   0.369  10.894 -0.7051 -1.3385  0.3205
  121MOL0     H16694   0.763  -0.007  11.065  4.3923 -0.2153  1.6659
  121MOL0     H16695   1.480   0.395  10.750 -0.5753  0.0420  1.1111
  121MOL0     H16696   1.791   0.550  10.717 -0.6163  0.2094  0.3277
  121MOL0     H16697   1.797   0.392  10.796 -2.6181 -2.1961  0.6689
  121MOL0     H16698   1.686   0.422  10.666 -1.4245  1.9578  0.1303
  122MOL0     O16699   8.629   2.362  10.470 -0.1366 -0.4090  0.4677
  122MOL0     C16700   8.683   2.400  10.364 -0.5103  0.2467 -0.0567
  122MOL0     O16701   8.674   2.336  10.240 -0.0864  0.6797  0.6068
  122MOL0     C16702   8.588   2.226  10.222  0.6360 -0.1539 -0.1200
  122MOL0     C16703   8.449   2.230  10.235 -0.5009  0.2990  0.8530
  122MOL0     C16704   8.373   2.114  10.219  0.5197  0.2144 -0.4605
  122MOL0     C16705   8.430   1.992  10.178 -0.4139 -0.1084 -0.4372
  122MOL0     O16706   8.373   1.873  10.168 -0.2754 -0.6327 -0.1884
  122MOL0     C16707   8.268   1.888  10.070 -0.1641  0.0849  0.3602
  122MOL0     C16708   8.251   1.755   9.983 -0.2423 -0.5142 -0.2170
  122MOL0     C16709   8.365   1.742   9.879  0.2716 -0.3914  0.0428
  122MOL0     C16710   8.349   1.624   9.788 -0.1047  0.0179  0.3009
  122MOL0     C16711   8.473   1.596   9.711 -0.5602  0.9573  0.5892
  122MOL0     C16712   8.471   1.455   9.653  0.2816  0.2586  0.8741
  122MOL0     C16713   8.587   1.439   9.552  0.6827 -0.4329 -0.0030
  122MOL0     C16714   8.608   1.291   9.510  0.1257  0.4239  0.4534
  122MOL0     N16715   8.714   1.297   9.410  0.1144 -0.8750 -0.0348
  122MOL0     C16716   8.693   1.313   9.270 -0.0076  0.0084  0.1990
  122MOL0     C16717   8.820   1.288   9.214  0.8418  0.7037  0.4155
  122MOL0     C16718   8.844   1.330   9.072  0.6431 -0.6183 -0.0002
  122MOL0     C16719   8.992   1.320   9.044  0.1723 -1.6798  0.4384
  122MOL0     C16720   9.067   1.443   9.086 -0.3229 -0.5296  0.2181
  122MOL0     C16721   9.222   1.435   9.057 -0.1584  0.5600  0.5317
  122MOL0     O16722   9.285   1.335   9.138  0.1222 -0.3136 -0.7017
  122MOL0     C16723   9.416   1.309   9.112 -0.7807  0.1168  0.1828
  122MOL0     C16724   9.475   1.200   9.190  0.1603  0.1510  0.4064
  122MOL0     C16725   9.618   1.172   9.193  0.2930 -0.4607 -0.2272
  122MOL0     C16726   9.666   1.062   9.283 -0.3388  0.1731 -0.3258
  122MOL0     C16727   9.708   1.238   9.095  1.2265 -0.0470 -0.4915
  122MOL0     C16728   9.857   1.222   9.089  0.1768  0.0975  0.1824
  122MOL0     O16729   9.926   1.321   9.017  0.0727 -0.1058  0.3218
  122MOL0     C16730  10.060   1.316   9.005 -0.2708  0.0359 -0.1733
  122MOL0     C16731  10.157   1.354   9.104 -0.0399 -0.3220  0.1198
  122MOL0     C16732  10.295   1.369   9.069  0.2167 -1.3340 -1.2395
  122MOL0     C16733  10.337   1.331   8.941  0.2443  0.5235 -0.5281
  122MOL0     O16734  10.466   1.346   8.896 -1.1025 -0.0591 -1.0826
  122MOL0     C16735  10.572   1.378   8.984 -0.3651 -0.4642  0.1836
  122MOL0     C16736  10.604   1.270   9.083 -0.2705  0.3803  0.6827
  122MOL0     C16737  10.629   1.135   9.009  0.1562 -0.5403  0.5943
  122MOL0     C16738  10.666   1.031   9.117  0.5401 -0.3371  0.7106
  122MOL0     C16739  10.688   0.895   9.066 -0.6109  0.2782 -0.4987
  122MOL0     C16740  10.744   0.786   9.158 -0.5798  0.2769  0.7180
  122MOL0     C16741  10.740   0.649   9.081 -0.4619  0.2467  0.6802
  122MOL0     C16742  10.734   0.533   9.184 -0.3618  0.0206 -0.8946
  122MOL0    Cl16743  10.817   0.385   9.113  0.0277 -0.1983 -0.4469
  122MOL0     C16744  10.241   1.283   8.847 -0.4959 -0.4644  0.9477
  122MOL0     C16745  10.108   1.277   8.880  0.7364  0.0287  0.7472
  122MOL0     O16746   9.912   1.128   9.137 -0.4991  0.7390  0.1289
  122MOL0     C16747   9.643   1.333   9.015 -0.2957  0.3719 -0.2704
  122MOL0     C16748   9.503   1.369   9.015  0.5462 -0.0967 -0.0312
  122MOL0     N16749   8.907   1.258   9.319  0.0609 -0.1797 -0.1847
  122MOL0     N16750   8.848   1.265   9.434 -0.3045  0.3297  0.1438
  122MOL0     C16751   8.567   1.996  10.161 -1.1836 -0.1073 -0.3816
  122MOL0     C16752   8.646   2.107  10.190  1.3351 -0.1272  0.4267
  122MOL0     C16753   8.777   2.508  10.364  0.1017 -0.7950 -0.7631
  122MOL0     C16754   8.877   2.515  10.262  0.2727  0.2751 -0.9415
  122MOL0     C16755   8.968   2.621  10.266  0.0535  1.3662  0.2559
  122MOL0     C16756   8.966   2.719  10.367 -0.1094  0.7057  0.2145
  122MOL0     O16757   9.069   2.807  10.354  0.1139 -0.2739  0.0755
  122MOL0     C16758   9.186   2.783  10.432  0.5447 -0.5369  0.1719
  122MOL0     C16759   9.300   2.848  10.362  0.2395  1.1986 -0.1266
  122MOL0     C16760   9.333   2.775  10.229  0.7517 -0.3350 -0.3413
  122MOL0     C16761   9.442   2.832  10.149 -0.8596  0.0043  0.0869
  122MOL0     C16762   9.557   2.867  10.228 -0.4785 -0.3210 -0.3679
  122MOL0     C16763   9.672   2.892  10.270  0.7193 -0.5671  0.1102
  122MOL0     C16764   8.870   2.716  10.467  0.8987  0.6701  1.0875
  122MOL0     C16765   8.768   2.614  10.465 -0.1062 -0.2545 -1.0890
  122MOL0     C16766   8.648   2.633  10.555  1.5893  0.6459 -0.3442
  122MOL0     H16767   8.407   2.316  10.287  0.8975  1.1305  0.6296
  122MOL0     H16768   8.273   2.119  10.260  1.1260 -3.6368  1.9890
  122MOL0     H16769   8.295   1.964   9.996  1.5733  1.8123  2.6320
  122MOL0     H16770   8.180   1.922  10.125  0.2428 -0.3649  1.3184
  122MOL0     H16771   8.256   1.667  10.048  1.0937 -1.3800 -1.4350
  122MOL0     H16772   8.155   1.759   9.932 -0.6793  1.4174  0.6669
  122MOL0     H16773   8.363   1.829   9.812  1.8906 -2.0924 -2.3985
  122MOL0     H16774   8.460   1.742   9.933 -0.1737  2.6270  1.0403
  122MOL0     H16775   8.326   1.538   9.852  1.3217 -3.8897 -3.8888
  122MOL0     H16776   8.264   1.643   9.722 -0.0382  1.2414  0.5558
  122MOL0     H16777   8.561   1.602   9.776  0.5051  1.4496 -0.8412
  122MOL0     H16778   8.469   1.676   9.636 -1.3702  2.8583  2.5445
  122MOL0     H16779   8.484   1.374   9.726  0.2800 -2.4285 -1.9185
  122MOL0     H16780   8.378   1.443   9.596 -1.1856 -0.7673  3.3184
  122MOL0     H16781   8.673   1.450   9.618  0.8687 -0.4329 -0.2455
  122MOL0     H16782   8.573   1.510   9.469  2.9178  3.6455  2.7680
  122MOL0     H16783   8.640   1.224   9.591  0.4504  0.6986  0.5539
  122MOL0     H16784   8.512   1.258   9.470  0.3074  1.1736 -0.6414
  122MOL0     H16785   8.602   1.334   9.215 -1.5080  0.5889  2.7346
  122MOL0     H16786   8.809   1.433   9.060  1.2739 -0.4974 -1.0013
  122MOL0     H16787   8.798   1.261   9.000  2.1107 -2.2602  0.5503
  122MOL0     H16788   9.027   1.232   9.098 -2.5289 -2.3513  1.2367
  122MOL0     H16789   9.003   1.301   8.937 -0.8438  2.7349 -0.6724
  122MOL0     H16790   9.042   1.541   9.045  0.2397  0.7870  2.8319
  122MOL0     H16791   9.043   1.446   9.192  0.9894 -2.4220  0.6246
  122MOL0     H16792   9.240   1.418   8.950 -3.9634  0.6790 -0.2474
  122MOL0     H16793   9.273   1.530   9.072  0.1928  0.6692 -1.1536
  122MOL0     H16794   9.401   1.153   9.254 -2.4638  3.5960  0.1706
  122MOL0     H16795   9.697   0.973   9.226 -0.7716 -0.5522  0.5432
  122MOL0     H16796   9.586   1.046   9.355  0.5269  0.0825  0.6352
  122MOL0     H16797   9.755   1.084   9.342  0.9592 -0.6389 -1.8828
  122MOL0     H16798  10.125   1.389   9.202  0.3443 -2.1876  0.9609
  122MOL0     H16799  10.359   1.419   9.142 -1.3242 -1.5230  0.2918
  122MOL0     H16800  10.655   1.416   8.925  0.8021 -0.4627  1.7700
  122MOL0     H16801  10.555   1.474   9.033  5.7972  1.2184 -0.1716
  122MOL0     H16802  10.696   1.315   9.122 -0.0777  2.0334 -1.4936
  122MOL0     H16803  10.531   1.251   9.162  2.6102 -4.0707  2.7248
  122MOL0     H16804  10.713   1.142   8.940  0.9563  1.0370  1.6712
  122MOL0     H16805  10.541   1.101   8.953  1.0405  1.1337 -1.9927
  122MOL0     H16806  10.594   1.035   9.199  0.4208  2.0149  0.5757
  122MOL0     H16807  10.759   1.074   9.155  0.2752  1.1669 -0.2257
  122MOL0     H16808  10.596   0.849   9.028  0.8303 -2.8334 -0.4751
  122MOL0     H16809  10.745   0.883   8.974 -0.4819 -1.7737 -0.1884
  122MOL0     H16810  10.681   0.777   9.247  0.0214 -3.5443  0.9179
  122MOL0     H16811  10.848   0.807   9.185  0.1168 -2.2644  0.1968
  122MOL0     H16812  10.825   0.626   9.017  0.1672 -2.0005  2.1838
  122MOL0     H16813  10.655   0.647   9.013 -0.2196 -0.7126  0.3831
  122MOL0     H16814  10.629   0.507   9.199 -1.6951  3.6240 -2.6622
  122MOL0     H16815  10.782   0.563   9.277 -1.3583  1.7215 -0.8721
  122MOL0     H16816  10.274   1.268   8.744 -0.1987  2.6427  0.4909
  122MOL0     H16817  10.044   1.254   8.795 -0.5759 -0.1825  1.7657
  122MOL0     H16818   9.700   1.384   8.937  0.1264  1.7604  0.9048
  122MOL0     H16819   9.463   1.454   8.961  0.6341  1.3902  2.1024
  122MOL0     H16820   8.621   1.904  10.143  2.3566  1.6764  0.3174
  122MOL0     H16821   8.754   2.098  10.187  1.3924 -0.0825  1.8569
  122MOL0     H16822   8.898   2.432  10.195 -0.4463 -1.5533  1.0060
  122MOL0     H16823   9.031   2.629  10.178  1.0216  3.0384  1.0315
  122MOL0     H16824   9.162   2.832  10.527  1.4187 -1.3453  0.8262
  122MOL0     H16825   9.195   2.679  10.466 -1.5420 -0.7765  0.1535
  122MOL0     H16826   9.386   2.850  10.429  1.6223 -1.3162 -1.6734
  122MOL0     H16827   9.284   2.952  10.332 -1.4148  0.6712 -1.2048
  122MOL0     H16828   9.354   2.668  10.238 -1.3219 -1.0244 -2.5936
  122MOL0     H16829   9.248   2.769  10.160  1.0153 -0.4633 -0.6548
  122MOL0     H16830   9.414   2.926  10.100  1.1633  0.5445 -0.0907
  122MOL0     H16831   9.476   2.754  10.080 -0.3368 -1.9391  2.4282
  122MOL0     H16832   9.772   2.917  10.300  0.3822 -0.1138  0.8808
  122MOL0     H16833   8.864   2.792  10.544 -0.3268  0.3854  1.2897
  122MOL0     H16834   8.649   2.565  10.640 -1.3004  2.1409  1.0252
  122MOL0     H16835   8.662   2.731  10.601  0.6183  1.2306 -1.2444
  122MOL0     H16836   8.552   2.625  10.504  1.8588 -0.1822 -0.7431
  123MOL0     O16837   5.073   6.504   5.645  0.0364 -0.7674  0.5539
  123MOL0     C16838   4.960   6.549   5.682 -0.9262 -0.3559  0.0985
  123MOL0     O16839   4.858   6.578   5.610  1.0084  0.0415 -0.3652
  123MOL0     C16840   4.860   6.573   5.472  0.1943 -1.0695 -0.3886
  123MOL0     C16841   4.781   6.663   5.386  0.1014 -0.0134 -1.0821
  123MOL0     C16842   4.785   6.662   5.248 -0.0561 -0.0280 -0.2984
  123MOL0     C16843   4.887   6.594   5.186 -0.3918 -0.6902  1.1502
  123MOL0     O16844   4.885   6.595   5.051  0.2282 -0.0034 -0.8302
  123MOL0     C16845   5.003   6.578   4.975  0.1245  0.5224 -0.1095
  123MOL0     C16846   5.124   6.665   4.997 -0.6151  0.0080  0.3069
  123MOL0     C16847   5.084   6.811   5.003  0.1220  0.0344 -0.8221
  123MOL0     C16848   5.198   6.910   4.981  0.4757  0.1176 -0.5335
  123MOL0     C16849   5.144   7.059   4.965  0.9985  0.1502 -0.0910
  123MOL0     C16850   5.262   7.151   4.948 -0.1779  0.1081  0.0791
  123MOL0     C16851   5.216   7.296   4.933  0.0716 -0.1108 -0.5437
  123MOL0     C16852   5.338   7.397   4.910  0.6550  0.1718  0.1632
  123MOL0     N16853   5.448   7.371   5.002  0.1143 -0.1430  0.1143
  123MOL0     C16854   5.449   7.365   5.143  0.5505 -0.4841  0.2803
  123MOL0     C16855   5.574   7.361   5.189  0.2878  0.3943 -0.4531
  123MOL0     C16856   5.609   7.356   5.335 -0.0664  0.1779 -0.2762
  123MOL0     C16857   5.534   7.237   5.410 -0.3501  0.0870 -1.1549
  123MOL0     C16858   5.601   7.194   5.545 -0.5336  0.2825 -0.0943
  123MOL0     C16859   5.667   7.305   5.628  0.1604 -0.2391 -0.3241
  123MOL0     O16860   5.701   7.250   5.753 -0.6443 -0.3837 -0.0590
  123MOL0     C16861   5.764   7.315   5.856 -0.7829  0.1385 -0.4522
  123MOL0     C16862   5.850   7.241   5.943 -0.2444 -0.3911  1.3991
  123MOL0     C16863   5.913   7.292   6.058 -0.5558 -0.2743  1.1445
  123MOL0     C16864   5.992   7.194   6.140 -0.4832  1.0504 -0.3436
  123MOL0     C16865   5.898   7.436   6.077 -0.5307  0.3563 -0.1170
  123MOL0     C16866   5.935   7.500   6.199 -0.1704 -0.0017 -0.6967
  123MOL0     O16867   6.061   7.551   6.209  0.1149 -0.1035 -0.1669
  123MOL0     C16868   6.087   7.606   6.328 -0.5757 -0.7637  0.7151
  123MOL0     C16869   6.075   7.751   6.326  0.0909  0.2347 -0.0775
  123MOL0     C16870   6.117   7.821   6.437 -0.1691  0.0268  0.4329
  123MOL0     C16871   6.167   7.752   6.550 -0.6702  0.4454  0.4176
  123MOL0     O16872   6.221   7.823   6.651 -0.7073  0.6571 -0.0736
  123MOL0     C16873   6.324   7.921   6.618  0.0122 -0.0576 -0.8110
  123MOL0     C16874   6.418   7.926   6.734 -0.3882  0.2526 -1.1164
  123MOL0     C16875   6.356   8.004   6.849 -0.1392  0.2392  0.2531
  123MOL0     C16876   6.453   8.018   6.967  0.1719 -0.0954 -0.8962
  123MOL0     C16877   6.393   8.090   7.084  0.3890 -0.3938 -0.9077
  123MOL0     C16878   6.408   8.003   7.214  0.0951 -0.3554 -0.6287
  123MOL0     C16879   6.317   8.066   7.322  1.0521  0.3275 -0.0703
  123MOL0     C16880   6.300   7.959   7.431 -0.9615  0.4988 -0.0639
  123MOL0    Cl16881   6.228   8.044   7.571  0.1406  0.3514 -0.3779
  123MOL0     C16882   6.183   7.619   6.540  1.9974  0.2311  0.1762
  123MOL0     C16883   6.139   7.538   6.436 -0.5891  0.6127  0.2607
  123MOL0     O16884   5.847   7.520   6.278 -0.1505  0.5507 -0.8099
  123MOL0     C16885   5.821   7.512   5.989 -0.2950 -0.3086 -0.2546
  123MOL0     C16886   5.758   7.452   5.873 -0.0652  0.1769 -0.4448
  123MOL0     N16887   5.659   7.365   5.075  0.3424  0.1120 -0.2092
  123MOL0     N16888   5.582   7.373   4.963 -1.0137  0.1602 -0.2073
  123MOL0     C16889   4.942   6.489   5.263 -0.8287  0.6472 -0.2328
  123MOL0     C16890   4.939   6.482   5.402  0.3170 -0.0952 -0.6173
  123MOL0     C16891   4.931   6.552   5.829 -0.6323  0.0023  0.1838
  123MOL0     C16892   4.797   6.540   5.868  0.9896  0.4733  0.8692
  123MOL0     C16893   4.755   6.563   5.996 -0.3790  0.5794 -0.1846
  123MOL0     C16894   4.854   6.589   6.094 -0.0208 -0.7736 -0.3479
  123MOL0     O16895   4.828   6.588   6.224  0.8591  0.4967  0.1951
  123MOL0     C16896   4.705   6.523   6.275 -0.7658  0.3441 -0.5397
  123MOL0     C16897   4.703   6.374   6.270 -1.0897 -0.2204 -0.3048
  123MOL0     C16898   4.817   6.306   6.352 -0.0409  0.9415  0.4383
  123MOL0     C16899   4.805   6.299   6.497  0.3148 -0.1837 -1.0061
  123MOL0     C16900   4.909   6.222   6.554  0.3020  0.5058 -0.8313
  123MOL0     C16901   5.003   6.163   6.609 -0.3247  0.3390  0.1569
  123MOL0     C16902   4.982   6.623   6.053  0.2398  0.5401  0.6350
  123MOL0     C16903   5.031   6.593   5.928  0.5045  0.0505 -0.7132
  123MOL0     C16904   5.164   6.644   5.876 -0.3133 -0.7532 -0.3995
  123MOL0     H16905   4.704   6.730   5.424 -0.8470 -2.2785  1.3217
  123MOL0     H16906   4.730   6.735   5.190  0.2656  1.7323  1.5198
  123MOL0     H16907   4.970   6.591   4.871 -0.9251 -3.0854 -0.3671
  123MOL0     H16908   5.038   6.475   4.989  0.0108  0.2442 -1.6902
  123MOL0     H16909   5.154   6.640   5.099  0.4153 -1.8591 -0.4108
  123MOL0     H16910   5.198   6.642   4.920 -0.8679 -0.0927  0.0927
  123MOL0     H16911   5.005   6.833   4.931 -1.1794 -1.3175  0.1377
  123MOL0     H16912   5.040   6.821   5.103 -0.5938 -0.6634 -1.0600
  123MOL0     H16913   5.265   6.892   5.065 -2.4427 -4.8575  1.1596
  123MOL0     H16914   5.251   6.876   4.891  2.3690 -1.9083  1.2068
  123MOL0     H16915   5.070   7.084   5.042 -1.4737  0.5641 -2.4338
  123MOL0     H16916   5.084   7.067   4.874 -1.1059  2.5205  1.3805
  123MOL0     H16917   5.326   7.151   5.037  0.1577  3.5332  0.0007
  123MOL0     H16918   5.327   7.127   4.863 -0.6403 -2.2176  0.3224
  123MOL0     H16919   5.152   7.317   5.019 -2.7949  0.1330 -2.6146
  123MOL0     H16920   5.148   7.301   4.847  1.0115  0.1736 -1.2896
  123MOL0     H16921   5.371   7.380   4.807  2.8669 -2.3452  1.1499
  123MOL0     H16922   5.319   7.504   4.924 -0.1182 -0.2245  2.8279
  123MOL0     H16923   5.361   7.351   5.205 -0.3403 -1.2729 -1.0887
  123MOL0     H16924   5.569   7.443   5.387 -3.8512 -3.0687  2.8843
  123MOL0     H16925   5.716   7.342   5.352 -0.5283 -1.2823  1.8410
  123MOL0     H16926   5.435   7.270   5.443  0.4484  2.8359 -1.2319
  123MOL0     H16927   5.515   7.150   5.347  1.8988 -1.2535 -0.1130
  123MOL0     H16928   5.514   7.170   5.608 -0.0521  1.9810  1.3081
  123MOL0     H16929   5.678   7.118   5.536  2.1898  2.3335  3.1983
  123MOL0     H16930   5.741   7.368   5.578  0.6302  2.1816  3.0888
  123MOL0     H16931   5.572   7.357   5.641 -0.7633 -2.1374  0.9474
  123MOL0     H16932   5.875   7.140   5.913  0.8120  0.6587 -1.5692
  123MOL0     H16933   6.020   7.241   6.234 -1.8850 -0.7394  1.0414
  123MOL0     H16934   6.065   7.135   6.083 -3.5031 -2.7629 -0.6470
  123MOL0     H16935   5.925   7.112   6.167 -0.4130  1.1714  0.1972
  123MOL0     H16936   6.032   7.799   6.239  1.8644  1.4366 -0.3516
  123MOL0     H16937   6.108   7.929   6.435  1.2199  0.1524 -0.2265
  123MOL0     H16938   6.385   7.895   6.531 -1.2386 -5.7369 -0.3908
  123MOL0     H16939   6.266   8.008   6.587 -2.5194 -2.2525 -2.8080
  123MOL0     H16940   6.429   7.821   6.764 -2.3291  0.1592 -0.6118
  123MOL0     H16941   6.507   7.980   6.700  0.1662  1.4623  1.9109
  123MOL0     H16942   6.279   7.942   6.896  1.1069 -1.1447  0.5469
  123MOL0     H16943   6.323   8.100   6.808  1.0286  1.4598  2.0174
  123MOL0     H16944   6.542   8.063   6.923  1.6995 -3.8652 -2.0345
  123MOL0     H16945   6.477   7.917   7.002 -0.9346 -0.6094 -1.5546
  123MOL0     H16946   6.439   8.188   7.102 -0.9495 -0.4003  3.7486
  123MOL0     H16947   6.288   8.110   7.060  0.5626  2.0863  0.1036
  123MOL0     H16948   6.515   8.012   7.236 -0.2788  1.3704  0.6956
  123MOL0     H16949   6.366   7.902   7.205 -1.7846  0.2566  0.6423
  123MOL0     H16950   6.214   8.088   7.292  1.5214  0.2362 -1.8583
  123MOL0     H16951   6.370   8.153   7.360 -1.1624  1.4316  0.6756
  123MOL0     H16952   6.400   7.922   7.457  0.1483  2.8993 -0.6637
  123MOL0     H16953   6.236   7.877   7.396  1.7561 -0.5983 -3.1051
  123MOL0     H16954   6.232   7.579   6.629 -0.9570  0.2899  1.9908
  123MOL0     H16955   6.159   7.432   6.425 -0.3482  0.7762 -1.0211
  123MOL0     H16956   5.824   7.618   6.011 -0.2302 -0.7015  1.7960
  123MOL0     H16957   5.716   7.526   5.805  0.1946  1.0029  0.2842
  123MOL0     H16958   5.007   6.418   5.213 -0.8469 -0.5386  1.3495
  123MOL0     H16959   4.981   6.397   5.456 -1.6875  0.8813  2.7475
  123MOL0     H16960   4.714   6.520   5.801 -1.4490  4.3774  2.3307
  123MOL0     H16961   4.649   6.561   6.016 -0.1589  0.6168  1.0869
  123MOL0     H16962   4.704   6.561   6.378 -0.7845  2.7994 -1.3819
  123MOL0     H16963   4.621   6.575   6.228 -1.9477 -2.7737 -2.1735
  123MOL0     H16964   4.712   6.333   6.169  0.5912 -0.8702  0.0678
  123MOL0     H16965   4.604   6.349   6.309 -1.2093 -2.2286 -1.7284
  123MOL0     H16966   4.837   6.210   6.304 -1.5026 -0.8679  3.1505
  123MOL0     H16967   4.902   6.372   6.337  0.0440  0.8025  0.3087
  123MOL0     H16968   4.714   6.261   6.545  2.4818 -0.7006  3.1155
  123MOL0     H16969   4.809   6.400   6.539 -4.4575  0.0541 -0.5941
  123MOL0     H16970   5.088   6.120   6.657  0.0847  4.2258  3.4899
  123MOL0     H16971   5.063   6.655   6.118  0.3055 -1.2161  1.4764
  123MOL0     H16972   5.220   6.696   5.954  1.6506 -2.2932 -0.7405
  123MOL0     H16973   5.232   6.561   5.858  1.6305  0.9346 -1.1936
  123MOL0     H16974   5.161   6.711   5.789  0.1552  0.0351  0.1691
  124MOL0     O16975   8.947   3.424   3.314 -0.3236 -0.2949 -0.0101
  124MOL0     C16976   8.999   3.338   3.239 -0.4909  0.1788  0.4259
  124MOL0     O16977   8.930   3.230   3.184  0.5100  0.1464  0.1591
  124MOL0     C16978   8.791   3.231   3.198 -0.1808  0.0985  0.6194
  124MOL0     C16979   8.712   3.251   3.318  0.8702 -0.3631  0.0048
  124MOL0     C16980   8.576   3.240   3.315  0.5751 -0.2584  0.0520
  124MOL0     C16981   8.512   3.213   3.192 -0.8199  0.3472  1.3655
  124MOL0     O16982   8.374   3.183   3.186 -0.7820  0.3826 -0.0425
  124MOL0     C16983   8.292   3.210   3.292 -0.0148  0.6258 -0.6431
  124MOL0     C16984   8.144   3.173   3.273 -0.2372  0.0741  0.8505
  124MOL0     C16985   8.094   3.213   3.133 -1.0980  0.1444 -0.0087
  124MOL0     C16986   7.961   3.151   3.089  0.4733  0.4760  0.4650
  124MOL0     C16987   7.939   3.189   2.937  0.4405 -0.5046  0.1398
  124MOL0     C16988   8.008   3.086   2.850  0.5558  0.0878  0.8201
  124MOL0     C16989   7.977   3.121   2.703  0.1413 -0.0537 -0.4003
  124MOL0     C16990   8.046   3.015   2.602  0.2626  0.0008  0.2331
  124MOL0     N16991   7.968   2.892   2.600  0.1781  1.1103  0.5967
  124MOL0     C16992   7.843   2.872   2.537  0.1690  0.0227 -0.2026
  124MOL0     C16993   7.845   2.740   2.510  0.3573  0.3655  1.0725
  124MOL0     C16994   7.727   2.664   2.448 -0.3021  0.3361 -0.2015
  124MOL0     C16995   7.649   2.733   2.324  0.9044  0.6671 -0.9826
  124MOL0     C16996   7.562   2.636   2.250  0.0578 -0.2842  1.1582
  124MOL0     C16997   7.488   2.529   2.337  0.0855  0.5551  0.2120
  124MOL0     O16998   7.417   2.590   2.437  1.2301 -0.2070 -0.0623
  124MOL0     C16999   7.301   2.668   2.410 -0.6788  0.6227  0.0958
  124MOL0     C17000   7.242   2.668   2.277 -0.3718 -0.0657 -0.0490
  124MOL0     C17001   7.128   2.740   2.248 -0.1463  0.0172  0.2106
  124MOL0     C17002   7.080   2.747   2.102 -0.2382 -0.6444  0.2210
  124MOL0     C17003   7.063   2.809   2.349  0.8584  0.3752  0.2119
  124MOL0     C17004   6.924   2.878   2.338 -1.4710  0.1524  0.4402
  124MOL0     O17005   6.876   2.957   2.444 -0.2619 -0.2468  0.1764
  124MOL0     C17006   6.753   3.016   2.434 -0.1777  0.1813 -0.8500
  124MOL0     C17007   6.653   2.982   2.532  0.8274  0.3393  0.6563
  124MOL0     C17008   6.534   3.055   2.535  0.6653  0.1490  0.6835
  124MOL0     C17009   6.503   3.159   2.440  0.2190 -0.4339  0.0735
  124MOL0     O17010   6.388   3.232   2.437  0.5622 -0.1904  0.1983
  124MOL0     C17011   6.267   3.165   2.478  0.8124 -0.0039  0.3160
  124MOL0     C17012   6.144   3.241   2.445 -0.1767 -0.1956  0.5369
  124MOL0     C17013   6.128   3.261   2.296 -0.2558  0.1220  0.5568
  124MOL0     C17014   6.044   3.385   2.262 -0.4312  0.1336  0.1839
  124MOL0     C17015   6.039   3.403   2.102  0.0637 -0.0523 -0.0808
  124MOL0     C17016   5.968   3.523   2.051 -0.7008 -0.5543 -0.6659
  124MOL0     C17017   5.983   3.549   1.904 -0.5050  0.1133 -0.5539
  124MOL0     C17018   5.937   3.430   1.828 -0.0141 -0.0006 -0.5882
  124MOL0    Cl17019   5.928   3.478   1.658  0.2728 -0.3715  0.2779
  124MOL0     C17020   6.601   3.198   2.350 -0.7593  0.6001  0.3084
  124MOL0     C17021   6.728   3.126   2.356  0.0744 -0.2808  0.1880
  124MOL0     O17022   6.866   2.864   2.228  0.2982 -0.1362  0.4314
  124MOL0     C17023   7.118   2.817   2.476 -0.7624  0.0571 -0.7519
  124MOL0     C17024   7.232   2.733   2.510 -0.0744  0.1335  0.1297
  124MOL0     N17025   7.956   2.678   2.544  0.2489 -0.8320  0.0207
  124MOL0     N17026   8.037   2.773   2.592  0.2298  1.0869  0.4617
  124MOL0     C17027   8.590   3.202   3.071  1.0630  0.3061  0.2812
  124MOL0     C17028   8.729   3.203   3.082 -0.0024 -0.1505  0.0892
  124MOL0     C17029   9.125   3.375   3.170 -0.0244  0.0213  0.6843
  124MOL0     C17030   9.138   3.325   3.032 -0.2876 -0.0859 -0.3186
  124MOL0     C17031   9.235   3.372   2.953 -0.3925 -1.0285 -0.0870
  124MOL0     C17032   9.321   3.473   3.008  0.6350  0.4573  0.5929
  124MOL0     O17033   9.431   3.520   2.941  0.5862 -0.3093 -0.2689
  124MOL0     C17034   9.480   3.436   2.831 -0.3783 -0.8538 -0.6751
  124MOL0     C17035   9.624   3.495   2.785  0.7702 -0.1329  0.0450
  124MOL0     C17036   9.745   3.415   2.776 -0.0742 -0.1299  0.0778
  124MOL0     C17037   9.734   3.295   2.688 -0.2560  0.4802  1.0624
  124MOL0     C17038   9.856   3.217   2.712 -0.0758 -0.3162 -1.1298
  124MOL0     C17039   9.958   3.160   2.737 -0.2554  0.4130 -0.3950
  124MOL0     C17040   9.305   3.516   3.135 -0.1302  0.2789  0.9208
  124MOL0     C17041   9.214   3.465   3.220  0.2228 -0.2947 -0.3099
  124MOL0     C17042   9.222   3.528   3.364  1.2625 -0.4732 -0.4598
  124MOL0     H17043   8.758   3.259   3.416  0.5232 -0.5868  0.1872
  124MOL0     H17044   8.525   3.261   3.409  1.4115 -0.0314  0.4653
  124MOL0     H17045   8.306   3.314   3.321  2.0010  0.6392 -1.5404
  124MOL0     H17046   8.333   3.151   3.374 -0.5382  0.0389 -0.7930
  124MOL0     H17047   8.127   3.065   3.284 -0.3375 -0.3152 -2.1450
  124MOL0     H17048   8.075   3.217   3.345  0.3187  0.7870  0.9549
  124MOL0     H17049   8.092   3.322   3.130  0.5328  0.1788 -1.0590
  124MOL0     H17050   8.167   3.191   3.054 -0.3847 -1.8644  1.1519
  124MOL0     H17051   7.986   3.045   3.097  3.0174  1.1562  4.0003
  124MOL0     H17052   7.885   3.181   3.161  0.3116 -1.0222  0.9474
  124MOL0     H17053   7.977   3.290   2.921  0.2278 -0.5205 -0.5165
  124MOL0     H17054   7.835   3.179   2.903  0.8389 -2.6516 -0.6041
  124MOL0     H17055   8.112   3.082   2.881  0.4263  2.1251  1.7224
  124MOL0     H17056   7.969   2.986   2.869 -5.9150  1.5991 -1.6690
  124MOL0     H17057   8.019   3.218   2.675 -0.3697  0.4397  0.4827
  124MOL0     H17058   7.870   3.127   2.683  0.4175  0.1740 -1.9807
  124MOL0     H17059   8.041   3.066   2.506  0.8325 -1.0408 -0.3652
  124MOL0     H17060   8.152   2.990   2.611  0.7704  0.7263 -2.8384
  124MOL0     H17061   7.758   2.939   2.540  0.0576 -0.1431  0.2825
  124MOL0     H17062   7.663   2.649   2.536  1.4285 -0.2245  1.0181
  124MOL0     H17063   7.735   2.557   2.428 -4.5763 -0.5318  1.6528
  124MOL0     H17064   7.584   2.807   2.371 -1.9712 -1.8943 -0.5700
  124MOL0     H17065   7.707   2.790   2.250  0.0263 -0.4952 -2.6510
  124MOL0     H17066   7.498   2.696   2.184 -0.5423 -1.0477  1.0378
  124MOL0     H17067   7.626   2.576   2.185  0.5395 -2.0347  3.1724
  124MOL0     H17068   7.419   2.480   2.268  2.4815 -0.5522 -1.5481
  124MOL0     H17069   7.562   2.453   2.365 -0.1074 -0.2680 -1.4171
  124MOL0     H17070   7.280   2.611   2.193  0.1297  1.8502 -1.1685
  124MOL0     H17071   6.994   2.683   2.077 -1.0932  0.2383  0.8138
  124MOL0     H17072   7.162   2.725   2.033 -2.9796 -0.1635 -3.5551
  124MOL0     H17073   7.058   2.849   2.070  0.1731 -0.1202  1.5664
  124MOL0     H17074   6.663   2.897   2.597  0.6591 -0.9190 -0.9076
  124MOL0     H17075   6.481   3.019   2.623  2.2385 -0.3338  1.4592
  124MOL0     H17076   6.260   3.063   2.438 -2.9013  1.0727 -2.2353
  124MOL0     H17077   6.253   3.157   2.586  0.4288 -0.2267  0.2518
  124MOL0     H17078   6.062   3.187   2.494 -1.1636  3.5374  3.4916
  124MOL0     H17079   6.159   3.342   2.485 -0.1557  0.0692 -0.1194
  124MOL0     H17080   6.083   3.179   2.240  0.0287  0.2571  0.1319
  124MOL0     H17081   6.229   3.275   2.257 -0.1765 -0.7885  0.4277
  124MOL0     H17082   6.080   3.472   2.318 -1.5151 -0.5800  2.1091
  124MOL0     H17083   5.942   3.375   2.303 -0.1350 -0.6574  0.7585
  124MOL0     H17084   6.142   3.430   2.077  1.0996 -1.4501  2.4093
  124MOL0     H17085   6.001   3.311   2.056 -2.5934  0.8316  0.1678
  124MOL0     H17086   5.987   3.615   2.107 -1.3793 -0.9908  0.2964
  124MOL0     H17087   5.864   3.491   2.056 -0.4483 -1.9709 -2.8161
  124MOL0     H17088   6.088   3.566   1.879 -1.1878  1.1959 -2.9301
  124MOL0     H17089   5.918   3.630   1.869 -0.0364 -0.1851 -2.1982
  124MOL0     H17090   5.842   3.387   1.862  0.3635  0.5267  1.2499
  124MOL0     H17091   6.014   3.353   1.834  1.9049  1.8869  0.2884
  124MOL0     H17092   6.577   3.269   2.271  2.8112  0.3350 -1.2460
  124MOL0     H17093   6.798   3.158   2.279  1.4021 -0.8210  1.1313
  124MOL0     H17094   7.079   2.866   2.565  1.2237  0.5598 -0.1101
  124MOL0     H17095   7.271   2.741   2.611  1.6705 -0.0489 -0.4844
  124MOL0     H17096   8.527   3.173   2.988 -2.3800 -0.0085  2.7975
  124MOL0     H17097   8.795   3.166   3.004  1.9149  0.8545  1.1485
  124MOL0     H17098   9.080   3.244   2.990 -1.6637 -0.4192  2.0278
  124MOL0     H17099   9.251   3.326   2.856 -0.2391 -0.1747 -0.4711
  124MOL0     H17100   9.494   3.337   2.876 -0.5583 -0.1451  1.0186
  124MOL0     H17101   9.409   3.425   2.749  2.1020  0.6287 -3.2303
  124MOL0     H17102   9.645   3.569   2.864 -0.3026  0.2816 -0.0406
  124MOL0     H17103   9.596   3.548   2.694 -2.6394 -0.7967  0.5657
  124MOL0     H17104   9.832   3.473   2.744 -3.2784  3.6547 -2.7789
  124MOL0     H17105   9.771   3.387   2.879  3.8339  4.0309  0.5494
  124MOL0     H17106   9.736   3.331   2.585 -2.6252 -0.9577  0.4308
  124MOL0     H17107   9.644   3.239   2.717 -0.2078  0.1320  0.5567
  124MOL0     H17108  10.052   3.113   2.753  0.0408  2.1203  4.2403
  124MOL0     H17109   9.376   3.588   3.175 -1.9305  1.6165  1.8536
  124MOL0     H17110   9.128   3.519   3.420  0.0113  2.3891 -1.8896
  124MOL0     H17111   9.303   3.491   3.427  0.2841 -0.2602  0.9652
  124MOL0     H17112   9.243   3.633   3.340 -1.1925  0.6306  1.7206
  125MOL0     O17113   6.044   7.457   3.724 -0.5256  0.9076 -0.0752
  125MOL0     C17114   5.970   7.553   3.704  0.2910 -0.4107  0.7767
  125MOL0     O17115   6.002   7.678   3.752  0.1343 -0.2164 -0.2297
  125MOL0     C17116   6.132   7.702   3.805  0.1218  0.4897  0.5937
  125MOL0     C17117   6.179   7.832   3.794 -0.6174  0.1575 -0.0198
  125MOL0     C17118   6.307   7.876   3.842  0.9993  0.2731  0.4331
  125MOL0     C17119   6.396   7.786   3.894  0.4516 -0.3255 -0.2642
  125MOL0     O17120   6.520   7.829   3.932 -0.4155 -0.0757 -0.4166
  125MOL0     C17121   6.622   7.759   3.870  0.4437 -0.2614  0.8217
  125MOL0     C17122   6.746   7.765   3.940 -0.2600  0.4724  0.1381
  125MOL0     C17123   6.740   7.682   4.068  0.3501 -0.2789 -0.9441
  125MOL0     C17124   6.868   7.692   4.147 -0.6663 -0.0984  0.0477
  125MOL0     C17125   6.874   7.612   4.285  0.0983 -1.2418  0.9379
  125MOL0     C17126   6.781   7.663   4.394 -0.1932 -0.9187  0.0057
  125MOL0     C17127   6.802   7.804   4.448 -0.5662 -0.2365 -0.6043
  125MOL0     C17128   6.923   7.830   4.532  0.2000 -0.6632 -0.3937
  125MOL0     N17129   6.941   7.965   4.583  0.2988  0.0109 -0.3748
  125MOL0     C17130   6.925   8.001   4.710 -0.7502 -0.0001  0.1954
  125MOL0     C17131   6.928   8.132   4.707 -0.1783 -0.5552  0.8158
  125MOL0     C17132   6.904   8.212   4.826 -0.3939  0.6853  0.1581
  125MOL0     C17133   6.765   8.248   4.857  0.4256  0.0725  0.9026
  125MOL0     C17134   6.697   8.325   4.755 -0.1039  0.2577 -0.0738
  125MOL0     C17135   6.762   8.458   4.737  1.0486 -0.0580  0.3503
  125MOL0     O17136   6.759   8.536   4.857  0.6080  0.6083 -1.0100
  125MOL0     C17137   6.835   8.639   4.840 -0.2037  0.6215 -1.0904
  125MOL0     C17138   6.975   8.630   4.826  0.7743  0.2331  0.4312
  125MOL0     C17139   7.055   8.750   4.803 -0.2381  0.1192 -0.6968
  125MOL0     C17140   7.206   8.730   4.782  0.2633  0.6659  0.2550
  125MOL0     C17141   6.990   8.875   4.788 -0.0986  0.8744 -0.3902
  125MOL0     C17142   7.063   8.999   4.770  0.5925 -0.0772 -1.0721
  125MOL0     O17143   7.151   9.025   4.875  0.5855 -0.1186 -0.1994
  125MOL0     C17144   7.216   9.146   4.872 -0.4740  0.4549 -1.0055
  125MOL0     C17145   7.351   9.146   4.839 -0.3603 -0.0980 -0.0212
  125MOL0     C17146   7.431   9.267   4.859 -0.8099  0.6305 -0.6874
  125MOL0     C17147   7.378   9.377   4.920 -0.1445 -0.3687 -0.5835
  125MOL0     O17148   7.454   9.490   4.937  0.1170  0.0905  0.1492
  125MOL0     C17149   7.597   9.485   4.952  0.5989 -0.3928 -0.5816
  125MOL0     C17150   7.657   9.623   4.989  0.3954  0.3164  0.7549
  125MOL0     C17151   7.796   9.604   5.054 -0.2552 -0.4018  0.2203
  125MOL0     C17152   7.908   9.560   4.960  0.0037  0.1597  0.1540
  125MOL0     C17153   8.028   9.500   5.031  0.0485 -0.8754  0.6751
  125MOL0     C17154   8.104   9.601   5.118 -0.2467  0.9633 -0.6406
  125MOL0     C17155   8.182   9.700   5.027  0.0965  0.3194  0.4758
  125MOL0     C17156   8.307   9.755   5.104 -0.5613  0.3315  0.5565
  125MOL0    Cl17157   8.239   9.871   5.235  0.1256  0.0527 -0.4816
  125MOL0     C17158   7.242   9.383   4.948 -0.8397  0.0085  0.2679
  125MOL0     C17159   7.167   9.267   4.920 -0.3955  0.2043  0.4851
  125MOL0     O17160   7.022   9.073   4.688 -0.4303 -0.6287 -0.0136
  125MOL0     C17161   6.851   8.874   4.803 -0.2940 -0.2064  0.4187
  125MOL0     C17162   6.771   8.755   4.817  0.2548 -0.1939 -0.1067
  125MOL0     N17163   6.948   8.181   4.577  0.5462 -0.4545  0.2974
  125MOL0     N17164   6.936   8.073   4.506  0.1407 -0.2191  0.1276
  125MOL0     C17165   6.349   7.654   3.913  0.1750 -0.3238  0.3089
  125MOL0     C17166   6.226   7.610   3.857  0.4334  0.3379  0.4409
  125MOL0     C17167   5.873   7.535   3.588  1.3171 -0.9894  0.1916
  125MOL0     C17168   5.816   7.657   3.529 -0.7363  0.1104  0.5013
  125MOL0     C17169   5.729   7.656   3.428 -0.1008 -0.2671 -0.1159
  125MOL0     C17170   5.696   7.534   3.368 -0.0663  0.3856 -0.4226
  125MOL0     O17171   5.601   7.535   3.264 -0.1038  0.5719 -0.8118
  125MOL0     C17172   5.514   7.417   3.230 -1.5251  0.2041  0.4462
  125MOL0     C17173   5.445   7.458   3.107  1.6429 -0.8208 -0.9442
  125MOL0     C17174   5.331   7.356   3.085 -0.2863  0.5840 -0.4517
  125MOL0     C17175   5.241   7.383   2.960 -1.3990  1.0575  0.2056
  125MOL0     C17176   5.094   7.395   2.972 -0.9973 -0.6582  0.4273
  125MOL0     C17177   4.981   7.425   2.995  0.8530  0.2549  0.8135
  125MOL0     C17178   5.731   7.417   3.434  0.0686  0.3965 -0.1179
  125MOL0     C17179   5.828   7.409   3.541 -0.1261  0.1550  0.0930
  125MOL0     C17180   5.877   7.273   3.596 -0.0865  0.5137  0.7640
  125MOL0     H17181   6.112   7.908   3.754 -1.8203 -0.7548  0.2232
  125MOL0     H17182   6.342   7.979   3.838 -0.6601  0.8723 -3.3708
  125MOL0     H17183   6.645   7.807   3.774 -1.3524 -2.6121 -0.9017
  125MOL0     H17184   6.590   7.657   3.847 -1.3596  0.1211  1.4286
  125MOL0     H17185   6.828   7.726   3.879 -0.9741 -1.1930  0.1891
  125MOL0     H17186   6.768   7.868   3.967  0.6108  0.5282 -0.7611
  125MOL0     H17187   6.658   7.712   4.134  1.8966 -0.5553  1.2207
  125MOL0     H17188   6.717   7.576   4.056  0.1134 -0.2907 -0.4013
  125MOL0     H17189   6.951   7.660   4.083 -2.4111 -2.7627 -1.0807
  125MOL0     H17190   6.883   7.799   4.164  0.7291 -0.3362  0.4479
  125MOL0     H17191   6.972   7.627   4.331 -0.1138  2.4066  0.5219
  125MOL0     H17192   6.850   7.507   4.267  1.3186 -1.8921  2.8170
  125MOL0     H17193   6.682   7.649   4.350  0.0131 -2.6835  0.0198
  125MOL0     H17194   6.793   7.589   4.474  0.9651 -0.4521  0.2934
  125MOL0     H17195   6.710   7.838   4.498 -2.2863  0.6002 -3.9679
  125MOL0     H17196   6.815   7.872   4.362 -0.1791  0.9882  0.3868
  125MOL0     H17197   6.919   7.765   4.620 -1.2801 -0.3335 -0.1899
  125MOL0     H17198   7.015   7.812   4.475 -0.2607 -1.7637 -0.8051
  125MOL0     H17199   6.888   7.953   4.800 -0.2860  0.7761  0.8164
  125MOL0     H17200   6.967   8.301   4.817 -1.4484  1.5199  0.8450
  125MOL0     H17201   6.943   8.155   4.911 -2.7729 -0.1717  0.7544
  125MOL0     H17202   6.715   8.151   4.859 -0.0977  0.2790 -0.6480
  125MOL0     H17203   6.763   8.290   4.958  1.0161 -0.3957  1.1151
  125MOL0     H17204   6.693   8.274   4.659 -2.6372 -1.0973  0.6600
  125MOL0     H17205   6.595   8.349   4.786 -0.2412  1.5186 -1.3639
  125MOL0     H17206   6.866   8.458   4.703  1.0501  2.0026  0.2178
  125MOL0     H17207   6.696   8.513   4.669 -0.6014  0.3223  2.1400
  125MOL0     H17208   7.027   8.534   4.835 -0.0230 -0.1114  1.7078
  125MOL0     H17209   7.248   8.643   4.832 -0.2497  2.2612  3.7609
  125MOL0     H17210   7.264   8.816   4.816  3.7997 -1.5486  0.2739
  125MOL0     H17211   7.232   8.726   4.676  2.6881 -2.6193  0.8352
  125MOL0     H17212   7.403   9.061   4.794  0.1158  0.3082 -0.2401
  125MOL0     H17213   7.530   9.263   4.815 -0.3585  0.9620  0.2473
  125MOL0     H17214   7.600   9.423   5.042  0.1615 -1.7110 -1.4409
  125MOL0     H17215   7.645   9.433   4.869 -0.5286 -0.1610 -1.4102
  125MOL0     H17216   7.665   9.688   4.902  4.0884  1.1968  1.6058
  125MOL0     H17217   7.588   9.672   5.059 -0.9242 -0.9710  0.4213
  125MOL0     H17218   7.786   9.540   5.141 -3.1494 -0.1980  0.1607
  125MOL0     H17219   7.811   9.709   5.081 -1.6687  0.3134 -1.4748
  125MOL0     H17220   7.945   9.650   4.910  1.9207  0.8110  2.5583
  125MOL0     H17221   7.855   9.502   4.884 -2.2828  0.6311  1.3043
  125MOL0     H17222   7.992   9.419   5.095 -0.6208 -0.7471  0.4750
  125MOL0     H17223   8.097   9.458   4.958  1.3072  2.7051 -0.4108
  125MOL0     H17224   8.170   9.546   5.186 -3.8028  2.7982  5.0417
  125MOL0     H17225   8.032   9.655   5.181 -0.2409  0.1812  0.0550
  125MOL0     H17226   8.112   9.781   5.006 -2.4520 -1.3216  2.0305
  125MOL0     H17227   8.214   9.672   4.927 -0.3344  1.8631 -0.1300
  125MOL0     H17228   8.374   9.807   5.035 -0.5201 -1.2092 -0.6323
  125MOL0     H17229   8.377   9.680   5.141  0.6207  0.2852 -1.5864
  125MOL0     H17230   7.194   9.465   5.001 -1.3037  0.5554 -0.9541
  125MOL0     H17231   7.061   9.274   4.944 -0.2031 -0.9009  1.7779
  125MOL0     H17232   6.800   8.970   4.807 -1.7844 -0.9984  2.2480
  125MOL0     H17233   6.665   8.769   4.834  0.1490 -1.0050 -0.0838
  125MOL0     H17234   6.412   7.586   3.969  2.6183  1.7620  0.3330
  125MOL0     H17235   6.210   7.505   3.881  1.4840  0.3839  1.4813
  125MOL0     H17236   5.843   7.756   3.562  1.1567  0.4502 -1.7542
  125MOL0     H17237   5.695   7.751   3.389  0.8298  0.1752  0.1095
  125MOL0     H17238   5.577   7.329   3.212 -1.2078 -0.3146  3.4446
  125MOL0     H17239   5.449   7.400   3.316  0.0949 -2.7232  1.2422
  125MOL0     H17240   5.513   7.465   3.022  1.5725  2.3411 -0.8821
  125MOL0     H17241   5.401   7.558   3.119  1.6925 -1.0183  1.5494
  125MOL0     H17242   5.378   7.257   3.087 -0.7302  0.3467  2.2247
  125MOL0     H17243   5.262   7.354   3.170 -1.9505  0.9613 -1.7262
  125MOL0     H17244   5.263   7.302   2.890  3.5408  1.3049  1.1098
  125MOL0     H17245   5.294   7.459   2.901  0.0300 -0.8710 -1.1025
  125MOL0     H17246   4.883   7.465   3.011  0.6458  0.0928 -0.0168
  125MOL0     H17247   5.690   7.323   3.400 -0.0455  0.1522  0.6584
  125MOL0     H17248   5.892   7.278   3.704  0.9597 -1.1636  0.7436
  125MOL0     H17249   5.821   7.184   3.565 -0.5809  1.1633 -0.2629
  125MOL0     H17250   5.978   7.258   3.557 -0.3236  0.2647  0.2249
  126MOL0     O17251   5.032   7.345   7.481  1.1770 -0.6541 -0.0184
  126MOL0     C17252   4.957   7.450   7.482 -1.3156  0.2566 -0.4025
  126MOL0     O17253   5.014   7.572   7.486 -0.2077  0.7023 -0.3025
  126MOL0     C17254   5.148   7.585   7.478 -2.0914  0.2927  0.0346
  126MOL0     C17255   5.224   7.599   7.596 -0.5900 -0.3159  0.3312
  126MOL0     C17256   5.369   7.612   7.587  0.2361 -0.5287  0.6941
  126MOL0     C17257   5.433   7.609   7.462  0.7543 -0.9640 -0.1132
  126MOL0     O17258   5.567   7.623   7.458 -1.1384 -0.5572 -0.2333
  126MOL0     C17259   5.635   7.618   7.334 -0.4767 -1.2334 -0.7109
  126MOL0     C17260   5.773   7.681   7.337 -0.4349  0.1827 -0.1983
  126MOL0     C17261   5.872   7.586   7.414 -0.5682  0.0729 -0.4587
  126MOL0     C17262   6.008   7.641   7.447 -0.2957 -0.6402 -0.6421
  126MOL0     C17263   6.086   7.576   7.555 -0.1626  0.5543  0.4986
  126MOL0     C17264   6.144   7.434   7.519 -0.0931  0.2027  0.1380
  126MOL0     C17265   6.213   7.371   7.641  0.4927 -0.7397  0.3460
  126MOL0     C17266   6.299   7.463   7.720 -0.2026 -0.4428  0.5792
  126MOL0     N17267   6.403   7.389   7.795 -0.1907 -0.2359 -0.3686
  126MOL0     C17268   6.389   7.272   7.861 -0.2904  0.3171 -0.2887
  126MOL0     C17269   6.511   7.259   7.931  0.9622 -0.4022 -0.4340
  126MOL0     C17270   6.565   7.157   8.025 -0.2192  0.6103  0.2507
  126MOL0     C17271   6.499   7.165   8.158 -0.3377  0.3157 -0.1554
  126MOL0     C17272   6.554   7.053   8.240  0.1238 -0.1515 -0.6335
  126MOL0     C17273   6.701   7.016   8.244 -0.3181  0.1427 -0.2073
  126MOL0     O17274   6.747   6.964   8.121 -0.6295  0.0191  0.0850
  126MOL0     C17275   6.787   6.835   8.111 -0.0864  0.3540  0.2397
  126MOL0     C17276   6.802   6.793   7.982 -0.0246 -0.4309  1.2190
  126MOL0     C17277   6.849   6.668   7.941  0.1204 -0.5001 -0.4775
  126MOL0     C17278   6.889   6.645   7.794 -0.0054  0.6888 -0.6079
  126MOL0     C17279   6.881   6.574   8.037 -0.3215  0.2192 -0.2987
  126MOL0     C17280   6.931   6.430   8.013  0.0030 -1.2352 -0.0217
  126MOL0     O17281   6.976   6.361   8.124  0.2479  0.4970  0.5907
  126MOL0     C17282   7.013   6.234   8.095  1.2089  0.1418  1.4398
  126MOL0     C17283   6.926   6.130   8.115 -0.2890 -0.5998 -0.6942
  126MOL0     C17284   6.971   5.998   8.086  0.5790  0.0787  0.2426
  126MOL0     C17285   7.102   5.975   8.043  0.4530  1.2255 -0.6428
  126MOL0     O17286   7.162   5.848   8.024 -0.1457  0.0370 -0.1281
  126MOL0     C17287   7.083   5.734   8.075 -0.6155 -0.0019 -0.1391
  126MOL0     C17288   7.170   5.614   8.048 -0.5983 -0.4039 -0.6903
  126MOL0     C17289   7.081   5.488   8.026  0.9445  1.0654 -0.1559
  126MOL0     C17290   7.160   5.384   7.950  0.0445 -0.1465 -0.0328
  126MOL0     C17291   7.091   5.250   7.936 -0.0077 -1.1547  0.8066
  126MOL0     C17292   7.072   5.169   8.068 -0.2986  0.0416  0.0597
  126MOL0     C17293   7.047   5.015   8.048  0.7032  0.0167  0.4455
  126MOL0     C17294   7.026   4.926   8.163  0.6271 -0.7536  0.1047
  126MOL0    Cl17295   6.863   4.956   8.215 -0.1258  0.0884 -0.4516
  126MOL0     C17296   7.184   6.079   8.037  0.3749  0.1765  0.6835
  126MOL0     C17297   7.139   6.209   8.060 -0.4821 -0.6654 -0.0806
  126MOL0     O17298   6.916   6.379   7.900  0.4025 -0.0995  0.2549
  126MOL0     C17299   6.859   6.609   8.173 -0.2562 -0.0872  0.5575
  126MOL0     C17300   6.815   6.739   8.206 -1.1040 -0.4141 -0.1875
  126MOL0     N17301   6.602   7.364   7.899 -0.1934  0.3798 -0.9553
  126MOL0     N17302   6.525   7.436   7.830 -0.2407  0.0418  0.3684
  126MOL0     C17303   5.351   7.578   7.347 -1.2942 -0.0027  0.1773
  126MOL0     C17304   5.213   7.572   7.351 -0.9994  1.0420 -0.0090
  126MOL0     C17305   4.811   7.428   7.488  0.0272 -0.3546 -1.1817
  126MOL0     C17306   4.764   7.309   7.438 -0.4176  0.1423  0.5854
  126MOL0     C17307   4.628   7.281   7.431 -0.0303  0.4997 -0.5938
  126MOL0     C17308   4.534   7.382   7.470  0.7096  0.2212  0.6514
  126MOL0     O17309   4.395   7.370   7.467 -0.3308 -0.3739 -0.4617
  126MOL0     C17310   4.340   7.281   7.369  0.1686  0.1369  0.3203
  126MOL0     C17311   4.186   7.278   7.367 -0.9151  0.0583  0.4743
  126MOL0     C17312   4.131   7.192   7.481 -0.8714 -0.2767  0.6761
  126MOL0     C17313   3.977   7.189   7.498  0.4387  0.2357 -0.6181
  126MOL0     C17314   3.925   7.325   7.514  0.2533 -0.1673  0.3909
  126MOL0     C17315   3.887   7.440   7.512 -1.1232 -0.3177  0.4432
  126MOL0     C17316   4.583   7.494   7.529 -0.0392 -0.2993  0.3645
  126MOL0     C17317   4.723   7.523   7.535  0.1435  0.0149 -0.5807
  126MOL0     C17318   4.750   7.656   7.601 -0.2455 -0.2555 -0.4618
  126MOL0     H17319   5.181   7.614   7.695  3.9848 -3.3064  3.1637
  126MOL0     H17320   5.421   7.626   7.681  0.0138  1.4779  0.5727
  126MOL0     H17321   5.580   7.681   7.264  1.2677  4.0466  2.1019
  126MOL0     H17322   5.645   7.521   7.283  0.1696 -0.8750 -1.2843
  126MOL0     H17323   5.798   7.699   7.232 -3.4430  0.2149 -1.0125
  126MOL0     H17324   5.767   7.780   7.382 -0.7958  0.8717 -1.7184
  126MOL0     H17325   5.809   7.580   7.503  1.7447  1.8055  1.4681
  126MOL0     H17326   5.888   7.492   7.360 -1.7651 -0.5855  0.2961
  126MOL0     H17327   6.071   7.634   7.358 -1.4743  1.2755 -1.6987
  126MOL0     H17328   5.993   7.747   7.472 -2.8119 -1.6857  3.2463
  126MOL0     H17329   6.036   7.565   7.652 -1.3466 -2.4122 -0.3144
  126MOL0     H17330   6.174   7.637   7.576  3.4661 -3.5399 -1.2051
  126MOL0     H17331   6.070   7.366   7.476  0.8121 -2.2024  2.1287
  126MOL0     H17332   6.221   7.449   7.443  1.7300 -0.8978  1.6601
  126MOL0     H17333   6.278   7.295   7.598  0.8198  0.3703 -1.2386
  126MOL0     H17334   6.135   7.328   7.704 -2.5241  2.5535 -0.7433
  126MOL0     H17335   6.341   7.536   7.650 -2.3332  0.7010  0.3895
  126MOL0     H17336   6.240   7.520   7.794  2.2736  1.5966  1.1208
  126MOL0     H17337   6.300   7.210   7.869 -1.4054  1.5948 -2.0174
  126MOL0     H17338   6.668   7.188   8.039 -1.1086  4.4657 -0.5741
  126MOL0     H17339   6.552   7.057   7.983 -1.4937  0.6874  0.4225
  126MOL0     H17340   6.508   7.263   8.206 -2.0919  2.7157 -4.1311
  126MOL0     H17341   6.391   7.153   8.149 -0.1996 -0.9249 -0.3548
  126MOL0     H17342   6.516   7.077   8.340 -1.0833 -1.6055 -0.7149
  126MOL0     H17343   6.498   6.964   8.210 -2.2827  0.8591  0.5913
  126MOL0     H17344   6.751   7.112   8.257 -0.3234  0.3539 -1.6158
  126MOL0     H17345   6.715   6.957   8.335 -1.0463  0.1107 -0.1070
  126MOL0     H17346   6.783   6.862   7.900 -0.0134 -3.3618 -1.4490
  126MOL0     H17347   6.823   6.581   7.735  3.6229 -0.7857 -3.4820
  126MOL0     H17348   6.993   6.618   7.816 -0.2904  2.4098  4.0419
  126MOL0     H17349   6.888   6.736   7.733  1.8587  0.4898 -0.9917
  126MOL0     H17350   6.830   6.156   8.159  0.4821 -1.0836  1.3418
  126MOL0     H17351   6.901   5.918   8.104 -1.1498  1.1419 -1.3474
  126MOL0     H17352   7.069   5.754   8.181 -2.9253  0.2861 -0.4525
  126MOL0     H17353   6.989   5.722   8.021 -0.2654 -1.7819 -0.4258
  126MOL0     H17354   7.235   5.627   7.962 -0.1003 -1.6157 -0.5266
  126MOL0     H17355   7.239   5.603   8.132 -1.0769 -2.2757 -0.4912
  126MOL0     H17356   6.994   5.515   7.965  1.4813 -0.4814 -1.6769
  126MOL0     H17357   7.052   5.450   8.125  0.6053 -0.4785 -0.8243
  126MOL0     H17358   7.253   5.376   8.007 -1.5515  1.2245  3.0435
  126MOL0     H17359   7.178   5.426   7.851  0.5045  1.3533  0.6474
  126MOL0     H17360   6.990   5.268   7.899 -0.2096 -0.1901  1.7631
  126MOL0     H17361   7.148   5.195   7.860 -1.6667 -1.6702 -0.0986
  126MOL0     H17362   6.984   5.227   8.095  1.1411  3.4759 -1.8830
  126MOL0     H17363   7.152   5.191   8.139  1.0377  2.4023 -1.9907
  126MOL0     H17364   7.138   4.971   8.006 -0.6802 -3.0963  0.4021
  126MOL0     H17365   6.972   5.003   7.970 -1.2697  0.1492  2.2505
  126MOL0     H17366   7.099   4.933   8.244 -0.3726  0.1361  0.9676
  126MOL0     H17367   7.033   4.820   8.137 -1.9045 -0.7198 -0.9212
  126MOL0     H17368   7.287   6.066   8.002  1.5973  2.7801  2.9596
  126MOL0     H17369   7.216   6.285   8.049 -1.5433  0.9112  2.3379
  126MOL0     H17370   6.885   6.542   8.255  2.5409 -0.4683 -0.5232
  126MOL0     H17371   6.818   6.761   8.312  1.2410  1.4949 -0.5666
  126MOL0     H17372   5.408   7.559   7.257  1.7359 -0.8411  2.1156
  126MOL0     H17373   5.148   7.539   7.271 -1.7614  2.6097 -0.0567
  126MOL0     H17374   4.837   7.236   7.405  0.4712  1.3104 -0.0894
  126MOL0     H17375   4.580   7.187   7.405 -1.5484  0.8402  0.7898
  126MOL0     H17376   4.381   7.303   7.271 -1.1116 -0.1322 -0.2960
  126MOL0     H17377   4.382   7.184   7.399 -0.8231  0.1477  1.9001
  126MOL0     H17378   4.163   7.236   7.269  1.9770  1.4879 -0.9435
  126MOL0     H17379   4.150   7.381   7.371 -0.8533  0.0914  0.2127
  126MOL0     H17380   4.162   7.088   7.465  3.4121  0.6744  1.4989
  126MOL0     H17381   4.176   7.214   7.578 -4.4528 -1.4964  2.8207
  126MOL0     H17382   3.952   7.124   7.582 -0.0567 -0.5034 -1.3268
  126MOL0     H17383   3.937   7.135   7.412  0.6251 -0.8179 -0.0643
  126MOL0     H17384   3.856   7.542   7.508 -2.4158 -0.6387  1.5053
  126MOL0     H17385   4.507   7.568   7.551  0.0417 -0.4794  1.3163
  126MOL0     H17386   4.676   7.687   7.674  0.8598 -2.6345  1.8681
  126MOL0     H17387   4.839   7.642   7.664 -0.5928 -2.5985 -0.3987
  126MOL0     H17388   4.784   7.737   7.536 -0.8952 -0.4333 -1.0245
  127MOL0     O17389   7.768   1.568   0.676  0.0604  0.5821  0.5505
  127MOL0     C17390   7.801   1.681   0.638 -0.3191  0.0397  0.3913
  127MOL0     O17391   7.926   1.738   0.660  0.3319  0.1143 -0.4715
  127MOL0     C17392   7.983   1.733   0.792  1.0158 -0.2058  1.1812
  127MOL0     C17393   8.026   1.858   0.841  0.1069 -0.4709  0.0093
  127MOL0     C17394   8.112   1.851   0.957 -0.0613 -0.0512 -0.1327
  127MOL0     C17395   8.124   1.734   1.027 -0.1308 -0.0414 -0.0395
  127MOL0     O17396   8.197   1.726   1.141 -0.2784 -0.9599  0.0109
  127MOL0     C17397   8.140   1.808   1.242  0.5567  0.2775  0.3965
  127MOL0     C17398   8.217   1.771   1.377 -0.6677 -0.5216  0.3321
  127MOL0     C17399   8.173   1.880   1.480 -0.0085 -0.9284  0.3587
  127MOL0     C17400   8.215   1.833   1.622  0.5146 -0.7392  1.0372
  127MOL0     C17401   8.195   1.937   1.720  0.2882  0.0637 -0.4449
  127MOL0     C17402   8.204   1.891   1.865 -0.9312 -0.4760  0.3844
  127MOL0     C17403   8.211   2.011   1.971  0.2165 -0.2909  0.2488
  127MOL0     C17404   8.212   1.966   2.120 -0.7178 -1.2166  0.0155
  127MOL0     N17405   8.083   1.958   2.193 -0.9630  1.3874 -1.5574
  127MOL0     C17406   7.965   2.012   2.165 -0.0932 -0.0586  1.1558
  127MOL0     C17407   7.880   1.982   2.271  0.3069  0.2631 -0.1717
  127MOL0     C17408   7.748   2.041   2.302  0.0993  0.1228  0.8626
  127MOL0     C17409   7.628   1.937   2.294 -0.1219  0.5051  0.4281
  127MOL0     C17410   7.630   1.838   2.410  0.1151 -0.5290 -0.9126
  127MOL0     C17411   7.671   1.887   2.550  0.0654 -0.4981 -0.2985
  127MOL0     O17412   7.614   2.018   2.586  0.0662 -0.7437  0.8964
  127MOL0     C17413   7.485   2.029   2.611  0.9583 -0.5098 -0.0939
  127MOL0     C17414   7.436   2.155   2.613 -0.2754  0.5210  0.1770
  127MOL0     C17415   7.306   2.181   2.667 -0.6577 -0.0383 -0.2615
  127MOL0     C17416   7.283   2.326   2.683  0.5819  0.7443 -1.1603
  127MOL0     C17417   7.224   2.075   2.711  0.2070  0.0305  0.1895
  127MOL0     C17418   7.091   2.092   2.772  0.6509 -0.4753 -0.4177
  127MOL0     O17419   7.052   1.994   2.862 -0.2792  0.5397  1.0521
  127MOL0     C17420   6.914   1.983   2.878 -0.3544 -0.2861  0.2930
  127MOL0     C17421   6.809   1.980   2.778 -0.6293  0.2645  0.4900
  127MOL0     C17422   6.671   1.956   2.806 -0.9111 -0.7947  0.0594
  127MOL0     C17423   6.634   1.949   2.941  0.3264 -0.1140 -0.1102
  127MOL0     O17424   6.502   1.927   2.975  0.4424  0.5513 -0.0953
  127MOL0     C17425   6.426   1.832   2.880 -0.8041  0.1498  0.0425
  127MOL0     C17426   6.291   1.804   2.956  0.5061  0.3496 -0.6552
  127MOL0     C17427   6.207   1.923   2.983 -0.3869 -0.1989  0.1799
  127MOL0     C17428   6.066   1.910   3.043  0.5209 -0.5770 -1.0179
  127MOL0     C17429   6.047   1.859   3.194 -0.2246 -0.4002 -0.7334
  127MOL0     C17430   6.045   1.705   3.181  0.1385 -0.5305  0.1938
  127MOL0     C17431   6.069   1.635   3.317 -0.3960 -0.7651 -0.2873
  127MOL0     C17432   6.214   1.633   3.355  0.5281  1.1597 -0.4068
  127MOL0    Cl17433   6.299   1.524   3.241 -0.2065  0.0366 -0.0034
  127MOL0     C17434   6.727   1.970   3.040  0.3006  1.0600  0.2089
  127MOL0     C17435   6.862   1.980   3.004 -0.6054 -0.8410 -1.4039
  127MOL0     O17436   7.010   2.177   2.721  0.0755 -0.0273  0.5617
  127MOL0     C17437   7.265   1.943   2.682 -0.1438  0.8908 -0.2222
  127MOL0     C17438   7.401   1.927   2.645 -0.5707 -0.4495  0.5553
  127MOL0     N17439   7.956   1.906   2.363 -0.5689 -0.2039 -0.5793
  127MOL0     N17440   8.077   1.891   2.309 -0.6409  0.2873 -0.1168
  127MOL0     C17441   8.062   1.617   0.986 -0.4001  0.5220 -0.2548
  127MOL0     C17442   7.993   1.611   0.864 -0.2863  0.3313 -0.1139
  127MOL0     C17443   7.713   1.743   0.539  1.1056 -0.5511 -0.4974
  127MOL0     C17444   7.636   1.664   0.455 -0.2315  0.1181  0.4154
  127MOL0     C17445   7.559   1.721   0.352  0.0471 -0.3154  0.4080
  127MOL0     C17446   7.559   1.859   0.329 -0.2228 -0.0451  0.2431
  127MOL0     O17447   7.503   1.923   0.219 -0.1030 -0.0879  0.8128
  127MOL0     C17448   7.439   1.858   0.110  0.1046  0.4506  0.4597
  127MOL0     C17449   7.419   1.954  -0.001 -0.6959 -0.1190  0.3655
  127MOL0     C17450   7.554   2.001  -0.063 -0.6403 -0.0135  0.0110
  127MOL0     C17451   7.538   2.001  -0.218  0.2501 -0.3589 -0.2290
  127MOL0     C17452   7.539   1.864  -0.276  0.2834 -0.3813 -0.3755
  127MOL0     C17453   7.566   1.752  -0.318 -0.4967 -0.3146  0.2862
  127MOL0     C17454   7.631   1.945   0.414 -0.4467 -0.3446  0.0566
  127MOL0     C17455   7.708   1.884   0.513 -0.4311 -0.1011 -1.2046
  127MOL0     C17456   7.763   1.977   0.618 -0.6008  0.4770 -0.0680
  127MOL0     H17457   8.014   1.950   0.785  0.5907 -0.7465 -0.5554
  127MOL0     H17458   8.170   1.931   1.002 -0.0527  1.1175 -2.1147
  127MOL0     H17459   8.034   1.781   1.248  1.2023 -2.3643  1.2775
  127MOL0     H17460   8.164   1.914   1.230  1.1582  0.2171  1.0272
  127MOL0     H17461   8.188   1.676   1.421  0.0332 -1.3612 -0.9636
  127MOL0     H17462   8.323   1.786   1.355 -1.1649  2.5842 -0.5040
  127MOL0     H17463   8.208   1.982   1.463 -1.0897 -0.5739  0.1745
  127MOL0     H17464   8.065   1.900   1.479  0.2666  0.6370 -0.6826
  127MOL0     H17465   8.166   1.739   1.649  0.0053 -0.2646  1.8196
  127MOL0     H17466   8.322   1.810   1.621  1.0328  1.3631  1.7868
  127MOL0     H17467   8.099   1.988   1.708 -0.6493 -1.6219 -0.4933
  127MOL0     H17468   8.266   2.019   1.706 -1.2163  1.8010  1.4627
  127MOL0     H17469   8.121   1.823   1.888 -0.0568 -2.4305 -1.8188
  127MOL0     H17470   8.297   1.837   1.882 -1.4562 -1.0595  1.5242
  127MOL0     H17471   8.122   2.072   1.952  1.9118  1.1865 -4.7492
  127MOL0     H17472   8.295   2.077   1.947  1.1702 -1.2421  0.9158
  127MOL0     H17473   8.262   1.869   2.125  0.3695 -0.6108  4.0254
  127MOL0     H17474   8.262   2.048   2.172 -2.0834  0.9405 -1.8336
  127MOL0     H17475   7.934   2.077   2.084 -0.4622 -0.8124  0.6775
  127MOL0     H17476   7.729   2.121   2.230 -0.6377  0.3665  1.3167
  127MOL0     H17477   7.732   2.092   2.397 -1.3964  0.0786  0.6564
  127MOL0     H17478   7.538   2.000   2.301 -0.2143  0.4917 -0.5041
  127MOL0     H17479   7.634   1.886   2.197  2.7303  0.1590  0.7189
  127MOL0     H17480   7.529   1.796   2.414  0.5113 -1.4729 -0.5655
  127MOL0     H17481   7.689   1.750   2.384  2.3401  0.5290  0.3058
  127MOL0     H17482   7.665   1.817   2.634 -0.2037  0.9054  0.9019
  127MOL0     H17483   7.777   1.913   2.544  0.3936 -0.7959  2.7540
  127MOL0     H17484   7.502   2.233   2.575 -0.1375 -0.5030 -1.8190
  127MOL0     H17485   7.203   2.332   2.758  0.5469 -2.4332 -0.8172
  127MOL0     H17486   7.247   2.358   2.584  0.6931 -0.9828 -1.7932
  127MOL0     H17487   7.373   2.380   2.713 -0.8825  1.9352  1.5474
  127MOL0     H17488   6.849   1.969   2.677  2.4338 -3.7111  1.8589
  127MOL0     H17489   6.590   1.962   2.734 -0.3341 -0.1676 -0.5622
  127MOL0     H17490   6.390   1.869   2.784 -3.8128  0.3636  1.1397
  127MOL0     H17491   6.480   1.739   2.864 -0.3326  0.3213  0.6060
  127MOL0     H17492   6.229   1.731   2.902 -2.0789  0.8905  1.3901
  127MOL0     H17493   6.303   1.756   3.053  1.2310 -0.4285 -1.1121
  127MOL0     H17494   6.192   1.972   2.887  1.2966  0.3967  0.1957
  127MOL0     H17495   6.276   1.988   3.037  1.1024 -1.5870  0.0121
  127MOL0     H17496   5.999   1.854   2.978 -0.1601 -0.5326 -0.3680
  127MOL0     H17497   6.034   2.014   3.054  1.5217 -0.3380 -0.1753
  127MOL0     H17498   6.138   1.887   3.249 -0.3692  0.3407 -0.8569
  127MOL0     H17499   5.962   1.907   3.244  2.4231  4.7923 -0.4953
  127MOL0     H17500   6.125   1.679   3.112 -0.8812  0.4038 -1.4141
  127MOL0     H17501   5.949   1.678   3.136 -2.2250 -0.7929  4.7074
  127MOL0     H17502   6.020   1.538   3.306 -1.0244 -0.4492 -0.2880
  127MOL0     H17503   6.018   1.691   3.395  0.6291  0.8852 -0.7497
  127MOL0     H17504   6.220   1.584   3.452  2.2222  1.1396 -0.4841
  127MOL0     H17505   6.273   1.724   3.370  3.3076 -1.0231  3.8428
  127MOL0     H17506   6.702   1.969   3.146  1.3041  2.2857  0.4816
  127MOL0     H17507   6.944   1.994   3.074  1.6549 -0.9492 -3.8958
  127MOL0     H17508   7.200   1.861   2.708  0.1192 -0.0806 -2.3823
  127MOL0     H17509   7.441   1.826   2.644 -0.3859 -0.4370  2.6217
  127MOL0     H17510   8.077   1.530   1.050  0.9469  0.5592 -0.4920
  127MOL0     H17511   7.940   1.521   0.835 -0.6440 -0.1477  1.8643
  127MOL0     H17512   7.615   1.558   0.463 -3.6662  0.7826  2.1896
  127MOL0     H17513   7.510   1.663   0.274 -1.6893  3.2808 -1.4145
  127MOL0     H17514   7.497   1.774   0.071 -1.2555 -1.1549  1.7240
  127MOL0     H17515   7.346   1.813   0.146 -0.6983 -0.8189 -2.8763
  127MOL0     H17516   7.368   2.039   0.045  0.9067  0.5098  1.0563
  127MOL0     H17517   7.352   1.920  -0.081  1.0255 -2.0539 -0.3332
  127MOL0     H17518   7.571   2.100  -0.022  0.9280 -0.6430  0.9965
  127MOL0     H17519   7.635   1.935  -0.030 -2.3635 -1.2402  1.9843
  127MOL0     H17520   7.628   2.048  -0.258  0.5784  0.0176  0.9021
  127MOL0     H17521   7.450   2.064  -0.235  0.3792  0.6357  2.2116
  127MOL0     H17522   7.589   1.654  -0.354  1.7553  0.1798  0.2472
  127MOL0     H17523   7.617   2.052   0.400 -1.2055 -0.3859  0.4473
  127MOL0     H17524   7.779   1.925   0.713 -1.7508  1.8335  0.9055
  127MOL0     H17525   7.855   2.024   0.580 -1.0935 -0.1148 -2.0934
  127MOL0     H17526   7.685   2.045   0.651 -1.0583 -0.1477  0.1473
  128MOL0     O17527   3.177   2.530   2.611 -0.3926  1.2754 -0.4307
  128MOL0     C17528   3.089   2.446   2.587  0.5096  0.3539  0.0178
  128MOL0     O17529   2.975   2.470   2.517  0.5727 -0.2600  0.1546
  128MOL0     C17530   2.937   2.599   2.483  0.8076 -0.4953 -0.5138
  128MOL0     C17531   2.943   2.706   2.578 -0.3494 -0.4621 -0.7586
  128MOL0     C17532   2.913   2.836   2.536  0.4664 -0.0196 -0.1357
  128MOL0     C17533   2.859   2.861   2.413 -0.1625  0.8654 -0.0731
  128MOL0     O17534   2.835   2.986   2.361  0.4456 -1.3367  0.4456
  128MOL0     C17535   2.877   3.107   2.439  1.4126  0.6761  1.0019
  128MOL0     C17536   2.853   3.238   2.359 -0.0939 -0.3577 -0.9546
  128MOL0     C17537   2.912   3.240   2.222  0.7266 -0.9344 -0.2274
  128MOL0     C17538   2.894   3.374   2.156  0.8941 -0.1748  0.3857
  128MOL0     C17539   2.921   3.373   2.007  0.8101 -0.5762 -0.2243
  128MOL0     C17540   3.063   3.366   1.960  0.3668  0.0107  0.2197
  128MOL0     C17541   3.086   3.355   1.807  1.1851 -0.3958  0.1967
  128MOL0     C17542   2.991   3.448   1.730 -0.5159 -0.3227  0.2801
  128MOL0     N17543   2.975   3.423   1.584 -0.9102  0.4056 -0.4920
  128MOL0     C17544   3.023   3.313   1.512  1.1037 -0.4906  0.2625
  128MOL0     C17545   2.986   3.343   1.386  0.2372 -0.0905 -0.3709
  128MOL0     C17546   3.000   3.241   1.281 -0.0620 -0.0447  0.1104
  128MOL0     C17547   2.914   3.117   1.298  0.0747  0.3371  0.5605
  128MOL0     C17548   2.766   3.132   1.286 -0.2444 -1.0654  0.0297
  128MOL0     C17549   2.728   3.235   1.174 -0.4432  0.1865 -0.2256
  128MOL0     O17550   2.590   3.234   1.135 -0.3431  0.0518  0.2567
  128MOL0     C17551   2.493   3.242   1.230 -0.2493  0.2926 -0.9492
  128MOL0     C17552   2.390   3.154   1.213  0.0170 -0.0460  0.5332
  128MOL0     C17553   2.283   3.139   1.305 -0.6709  0.5488  0.2638
  128MOL0     C17554   2.188   3.015   1.278 -1.1782 -1.3348  0.7991
  128MOL0     C17555   2.275   3.222   1.415  0.5426 -0.4145 -0.2347
  128MOL0     C17556   2.169   3.206   1.521  0.9523 -0.9932 -0.7215
  128MOL0     O17557   2.194   3.283   1.640  0.4644 -0.7526 -0.5182
  128MOL0     C17558   2.093   3.320   1.726  0.2587  0.2141  0.7461
  128MOL0     C17559   2.074   3.452   1.766  0.0889  0.4048 -0.4975
  128MOL0     C17560   1.988   3.475   1.877  0.4032 -0.8412  0.4709
  128MOL0     C17561   1.913   3.371   1.935  1.1781  0.1704  1.1731
  128MOL0     O17562   1.806   3.387   2.021 -0.4271  0.5091 -0.3535
  128MOL0     C17563   1.824   3.481   2.133  0.2483 -0.8855 -0.1411
  128MOL0     C17564   1.715   3.593   2.150  0.2853  0.8854  0.1091
  128MOL0     C17565   1.688   3.617   2.292 -0.7971 -0.0204 -0.9469
  128MOL0     C17566   1.588   3.518   2.359  0.3566  0.5628  0.6817
  128MOL0     C17567   1.596   3.519   2.514 -1.3511 -0.6877  0.5465
  128MOL0     C17568   1.464   3.462   2.564 -0.1151  0.0198 -0.2687
  128MOL0     C17569   1.454   3.451   2.717 -0.7469  0.5490 -0.4338
  128MOL0     C17570   1.309   3.437   2.758 -0.2755  0.5153  0.2091
  128MOL0    Cl17571   1.241   3.603   2.763 -0.4221  0.2800  0.1762
  128MOL0     C17572   1.923   3.245   1.879 -0.6919  0.0947 -0.0102
  128MOL0     C17573   2.005   3.224   1.772 -0.4098  0.1413 -0.0483
  128MOL0     O17574   2.066   3.137   1.511 -0.2517  0.5728  0.2148
  128MOL0     C17575   2.375   3.320   1.433 -0.3337  0.4345 -0.9856
  128MOL0     C17576   2.480   3.329   1.342 -0.2443 -0.1941  0.1854
  128MOL0     N17577   2.913   3.456   1.386  0.6703  0.4375 -0.0024
  128MOL0     N17578   2.903   3.501   1.508 -0.5236  0.0431  0.0535
  128MOL0     C17579   2.832   2.753   2.326 -0.9029 -0.6845  0.4031
  128MOL0     C17580   2.880   2.625   2.360 -0.9811 -0.4869  0.2642
  128MOL0     C17581   3.109   2.317   2.654  0.3946  0.1973  0.9040
  128MOL0     C17582   3.239   2.273   2.676  0.3670  0.0821 -0.3066
  128MOL0     C17583   3.269   2.159   2.750  0.5563 -0.0248 -0.3056
  128MOL0     C17584   3.166   2.082   2.796  0.1773  1.5473 -0.2836
  128MOL0     O17585   3.203   1.979   2.884 -0.2600 -0.4876  0.3384
  128MOL0     C17586   3.111   1.884   2.932  0.2146 -0.9149 -0.4578
  128MOL0     C17587   3.190   1.801   3.037  1.0997  0.1474  0.3782
  128MOL0     C17588   3.301   1.723   2.967 -0.4872 -0.1215 -0.3870
  128MOL0     C17589   3.355   1.614   3.067 -0.2811 -0.7771 -0.5192
  128MOL0     C17590   3.385   1.672   3.204  0.4587  0.9807 -0.8149
  128MOL0     C17591   3.402   1.736   3.309 -0.2309  0.8568 -0.9400
  128MOL0     C17592   3.038   2.123   2.780  0.7677 -0.4471  0.9471
  128MOL0     C17593   3.002   2.243   2.711  0.4585 -0.2091  0.0320
  128MOL0     C17594   2.859   2.284   2.712 -0.3736  0.1006  0.7374
  128MOL0     H17595   2.984   2.684   2.676 -2.4061  1.7422  0.7041
  128MOL0     H17596   2.928   2.914   2.609  1.4339 -0.4209  0.1046
  128MOL0     H17597   2.986   3.107   2.447  1.9801 -0.6517 -3.7236
  128MOL0     H17598   2.844   3.103   2.543  1.4317  0.5423  1.0029
  128MOL0     H17599   2.746   3.245   2.339 -0.2353 -3.1758 -1.5501
  128MOL0     H17600   2.891   3.314   2.429  1.2346 -1.0902 -0.8521
  128MOL0     H17601   3.018   3.219   2.240  0.2917 -1.3836  2.2687
  128MOL0     H17602   2.869   3.164   2.157 -1.7130 -0.4285  0.6550
  128MOL0     H17603   2.796   3.419   2.174  1.0952  0.6300 -0.4250
  128MOL0     H17604   2.974   3.440   2.189  2.0196  0.6107 -3.3965
  128MOL0     H17605   2.873   3.463   1.968 -1.6754 -0.7650  2.0739
  128MOL0     H17606   2.865   3.284   1.978  3.3744 -3.8433  3.7861
  128MOL0     H17607   3.121   3.454   1.989  0.3133  1.0150 -2.4339
  128MOL0     H17608   3.107   3.273   1.999  2.0367 -1.0247 -3.6474
  128MOL0     H17609   3.068   3.253   1.772 -0.9159  0.1550 -0.4807
  128MOL0     H17610   3.187   3.392   1.788  1.1994  1.4198  3.1888
  128MOL0     H17611   2.891   3.446   1.774  0.7068  0.5070  3.3360
  128MOL0     H17612   3.023   3.551   1.747 -0.2625 -0.1982 -0.8479
  128MOL0     H17613   3.063   3.218   1.548  1.6984  0.6315  2.7853
  128MOL0     H17614   3.098   3.194   1.293 -0.7949 -1.3703  1.2801
  128MOL0     H17615   2.992   3.289   1.183  3.1224  1.6973  0.5808
  128MOL0     H17616   2.940   3.040   1.225 -1.0263  1.2254 -0.8228
  128MOL0     H17617   2.932   3.069   1.394 -0.6310  0.3340  0.7027
  128MOL0     H17618   2.721   3.035   1.262  1.2361 -2.1752  1.4678
  128MOL0     H17619   2.720   3.152   1.382  1.0674 -0.7814  0.6255
  128MOL0     H17620   2.750   3.336   1.210 -1.0844  0.0790  0.4977
  128MOL0     H17621   2.786   3.219   1.082  2.7650 -0.0682  1.6817
  128MOL0     H17622   2.396   3.106   1.116 -2.5256  3.0478 -1.3809
  128MOL0     H17623   2.105   3.047   1.214  1.6285  2.8925 -1.1671
  128MOL0     H17624   2.143   2.964   1.363 -0.5099 -1.8274  0.8662
  128MOL0     H17625   2.236   2.930   1.229  1.2135  0.0670  0.5808
  128MOL0     H17626   2.124   3.536   1.719 -2.0313  2.4850  0.7656
  128MOL0     H17627   1.983   3.576   1.918 -0.7892 -0.6397 -0.1285
  128MOL0     H17628   1.822   3.417   2.222 -0.8887  1.7286  1.8526
  128MOL0     H17629   1.921   3.530   2.121 -0.4460  0.1905 -1.6852
  128MOL0     H17630   1.749   3.685   2.102  1.3010  0.5652  0.1876
  128MOL0     H17631   1.626   3.546   2.106  1.6298 -2.4459  0.6206
  128MOL0     H17632   1.630   3.709   2.297 -0.8316 -0.1120  0.6770
  128MOL0     H17633   1.787   3.631   2.334 -0.7034 -0.0240 -1.1633
  128MOL0     H17634   1.592   3.420   2.309 -1.9618  0.2783  0.9448
  128MOL0     H17635   1.485   3.546   2.333  0.5460 -1.6118 -3.1789
  128MOL0     H17636   1.680   3.462   2.555 -0.1348  2.5680  3.0327
  128MOL0     H17637   1.619   3.619   2.551  1.0809 -0.8713 -0.3032
  128MOL0     H17638   1.441   3.362   2.526  1.1394 -0.8462  1.1481
  128MOL0     H17639   1.384   3.525   2.524  0.2305 -0.1377 -1.2299
  128MOL0     H17640   1.504   3.535   2.766  3.4884 -0.9333 -1.8151
  128MOL0     H17641   1.506   3.367   2.762 -1.3806  1.9958  3.3560
  128MOL0     H17642   1.311   3.397   2.860  0.3488  1.3300  0.5307
  128MOL0     H17643   1.250   3.372   2.693  1.7854 -1.0431 -0.2065
  128MOL0     H17644   1.864   3.158   1.905  1.0052 -0.5855  1.8301
  128MOL0     H17645   1.993   3.124   1.731  0.0150 -1.2012  2.8542
  128MOL0     H17646   2.380   3.383   1.521  2.8842 -1.6681  0.5353
  128MOL0     H17647   2.566   3.391   1.366  0.2231 -0.5470 -0.5344
  128MOL0     H17648   2.789   2.779   2.230  0.4397 -0.3466 -0.1391
  128MOL0     H17649   2.877   2.545   2.287  0.9412  0.2506 -0.6788
  128MOL0     H17650   3.323   2.333   2.642 -0.4071  1.4304  0.0912
  128MOL0     H17651   3.374   2.137   2.763  0.4119 -0.7819 -0.3757
  128MOL0     H17652   3.028   1.933   2.984 -0.0590 -1.9114  0.0759
  128MOL0     H17653   3.068   1.828   2.849 -0.1684 -2.7894  0.9192
  128MOL0     H17654   3.115   1.733   3.078  0.4004 -0.6774 -2.1226
  128MOL0     H17655   3.217   1.869   3.118 -0.6901  0.7420  0.5212
  128MOL0     H17656   3.256   1.674   2.880  0.7868 -0.4819 -0.8706
  128MOL0     H17657   3.377   1.791   2.929 -1.8549  3.2737  2.3707
  128MOL0     H17658   3.446   1.564   3.033 -0.4964 -1.8449  0.4153
  128MOL0     H17659   3.286   1.529   3.070  0.3998 -1.3393 -0.5964
  128MOL0     H17660   3.380   1.789   3.400 -1.7799 -0.4343 -0.5088
  128MOL0     H17661   2.954   2.066   2.819 -1.0432  1.2255 -0.3355
  128MOL0     H17662   2.796   2.241   2.791 -0.3241 -0.6328  0.3901
  128MOL0     H17663   2.867   2.392   2.720 -0.6769  0.0845  1.4009
  128MOL0     H17664   2.808   2.250   2.622  0.2442  0.7696  0.1214
  129MOL0     O17665   4.249   5.001   5.310  0.3966 -0.5119  0.2852
  129MOL0     C17666   4.334   5.052   5.387 -0.8551  0.5529 -0.0373
  129MOL0     O17667   4.341   5.177   5.429  0.3212  0.4219  0.0380
  129MOL0     C17668   4.230   5.248   5.389  0.0367 -0.3771 -0.2470
  129MOL0     C17669   4.215   5.298   5.257 -0.2111 -0.3636  0.4805
  129MOL0     C17670   4.109   5.380   5.221 -1.0859 -0.1563  0.0670
  129MOL0     C17671   4.003   5.396   5.311  0.5871 -1.0431  0.6770
  129MOL0     O17672   3.891   5.469   5.287  0.2376 -0.2076 -0.5285
  129MOL0     C17673   3.833   5.448   5.152  0.1422  0.8143  0.2728
  129MOL0     C17674   3.688   5.503   5.146  0.2963  0.3948  0.1935
  129MOL0     C17675   3.671   5.643   5.211  0.4120  0.3966  0.7892
  129MOL0     C17676   3.524   5.698   5.223 -0.3548  0.4716  0.0149
  129MOL0     C17677   3.478   5.743   5.080 -0.2075 -0.6526 -0.2106
  129MOL0     C17678   3.342   5.804   5.090  0.0099 -0.0610  0.4454
  129MOL0     C17679   3.280   5.823   4.946 -0.3223 -1.2744 -0.1675
  129MOL0     C17680   3.127   5.862   4.954 -1.0899 -0.0094 -0.3777
  129MOL0     N17681   3.023   5.753   4.934 -0.6435  0.2281 -0.2214
  129MOL0     C17682   3.007   5.648   5.022  0.2398  0.3886  0.0640
  129MOL0     C17683   2.897   5.577   4.981 -0.3369 -0.6435 -0.8204
  129MOL0     C17684   2.850   5.431   5.013 -0.4312  0.0153  0.3949
  129MOL0     C17685   2.695   5.439   5.024  0.1387 -0.2200 -1.0244
  129MOL0     C17686   2.623   5.315   5.090 -0.4371 -0.4428  0.2181
  129MOL0     C17687   2.480   5.339   5.124 -0.6180 -1.6342  0.2884
  129MOL0     O17688   2.439   5.282   5.242  0.3554  0.5776  0.7328
  129MOL0     C17689   2.477   5.342   5.360  0.9630  0.1589 -0.0695
  129MOL0     C17690   2.413   5.298   5.473 -0.8386 -0.3304  0.2640
  129MOL0     C17691   2.443   5.336   5.601  0.1813 -1.0887  0.4494
  129MOL0     C17692   2.398   5.248   5.717 -0.2114 -0.4539 -0.5938
  129MOL0     C17693   2.535   5.442   5.619  0.9146  0.5625  0.4838
  129MOL0     C17694   2.577   5.485   5.754  0.5362  0.8299  0.3088
  129MOL0     O17695   2.616   5.617   5.771  0.9480 -0.3792  0.4222
  129MOL0     C17696   2.579   5.687   5.882 -0.2021  0.0757 -0.5624
  129MOL0     C17697   2.637   5.815   5.890  0.2623 -0.6849 -0.0145
  129MOL0     C17698   2.616   5.888   6.013 -0.4588 -0.0943  0.2691
  129MOL0     C17699   2.546   5.844   6.121 -0.2528 -0.2110 -1.2120
  129MOL0     O17700   2.513   5.928   6.224  0.8456 -0.7998  0.6622
  129MOL0     C17701   2.496   5.871   6.359 -0.0817  0.4704 -0.2596
  129MOL0     C17702   2.546   5.971   6.467  0.0624  0.2205  0.0749
  129MOL0     C17703   2.686   6.013   6.442 -0.0120 -0.4552 -0.1755
  129MOL0     C17704   2.726   6.158   6.492  0.9385  0.1834 -0.0620
  129MOL0     C17705   2.652   6.279   6.427  0.0263 -0.0562 -0.4293
  129MOL0     C17706   2.687   6.280   6.276  0.3455  0.3291  0.1886
  129MOL0     C17707   2.632   6.407   6.203 -0.0639  0.1235 -0.0139
  129MOL0     C17708   2.661   6.407   6.050  0.1016 -0.3212  0.0735
  129MOL0    Cl17709   2.587   6.563   5.992  0.3291  0.0698 -0.4998
  129MOL0     C17710   2.488   5.713   6.107 -0.3157  0.5309  0.0027
  129MOL0     C17711   2.502   5.630   5.987  0.5119  0.5207 -0.8876
  129MOL0     O17712   2.592   5.398   5.837  0.1126  0.2766  0.8022
  129MOL0     C17713   2.585   5.502   5.503  0.0802 -1.0331 -0.5064
  129MOL0     C17714   2.558   5.453   5.381 -0.0444  0.8253  0.4678
  129MOL0     N17715   2.847   5.646   4.877  0.6394 -0.6983 -0.1708
  129MOL0     N17716   2.910   5.756   4.848  0.0205  0.2260 -0.4062
  129MOL0     C17717   4.015   5.350   5.446  0.6545  0.1431  0.0916
  129MOL0     C17718   4.126   5.274   5.480 -0.0993 -0.4093 -0.8478
  129MOL0     C17719   4.451   4.957   5.413  1.0372 -0.0504 -0.2610
  129MOL0     C17720   4.476   4.853   5.329 -0.7432 -0.0285  0.7657
  129MOL0     C17721   4.582   4.764   5.347  0.1272  0.3300  1.6454
  129MOL0     C17722   4.667   4.774   5.453 -0.6145  0.0043 -0.0147
  129MOL0     O17723   4.763   4.690   5.473 -0.3690 -0.3110 -0.0376
  129MOL0     C17724   4.796   4.647   5.599 -0.0125 -0.3789 -0.4438
  129MOL0     C17725   4.906   4.538   5.578 -0.4340 -0.5177 -0.5644
  129MOL0     C17726   4.936   4.451   5.711 -0.1827  0.5502  0.1501
  129MOL0     C17727   4.835   4.340   5.743 -0.0401  0.2192 -1.1095
  129MOL0     C17728   4.850   4.315   5.885  0.3489  0.8565 -0.4263
  129MOL0     C17729   4.859   4.273   6.003 -0.5091  0.4120  0.0630
  129MOL0     C17730   4.654   4.887   5.534  0.5379  0.4429 -0.6925
  129MOL0     C17731   4.538   4.969   5.525  0.5739 -0.3554 -0.1197
  129MOL0     C17732   4.506   5.063   5.639 -0.0358 -0.8115 -0.0820
  129MOL0     H17733   4.292   5.273   5.185 -0.0764  1.7672 -0.1778
  129MOL0     H17734   4.119   5.437   5.129  1.9513  1.8271  1.4783
  129MOL0     H17735   3.826   5.340   5.135 -1.4082  1.4010 -4.4848
  129MOL0     H17736   3.891   5.491   5.070 -0.7655  0.4671 -0.5815
  129MOL0     H17737   3.664   5.512   5.040  0.6340 -0.8359 -0.0001
  129MOL0     H17738   3.618   5.432   5.191  1.5653 -2.0776 -1.5281
  129MOL0     H17739   3.724   5.649   5.306 -0.4596  1.8600  1.2278
  129MOL0     H17740   3.730   5.706   5.143  0.3972  1.3690  1.6599
  129MOL0     H17741   3.462   5.616   5.259 -0.0772 -0.3469 -1.2930
  129MOL0     H17742   3.517   5.778   5.297  1.4850 -0.7173  1.5833
  129MOL0     H17743   3.485   5.655   5.015  1.5598 -2.3125  2.0554
  129MOL0     H17744   3.540   5.821   5.035 -3.1346  0.2811 -3.0514
  129MOL0     H17745   3.271   5.746   5.150 -1.8424  0.5825 -1.0194
  129MOL0     H17746   3.353   5.896   5.148 -0.2119 -1.2259  2.4597
  129MOL0     H17747   3.297   5.732   4.887 -0.6748 -2.3406  1.3365
  129MOL0     H17748   3.342   5.898   4.895  0.2152 -1.7510 -0.2326
  129MOL0     H17749   3.105   5.921   5.043  0.8193 -1.7736  1.3807
  129MOL0     H17750   3.106   5.921   4.864 -0.7108 -0.8727 -1.0519
  129MOL0     H17751   3.077   5.613   5.096  2.4802  0.2047 -2.0017
  129MOL0     H17752   2.893   5.400   5.109  3.1626 -0.8429 -1.3293
  129MOL0     H17753   2.884   5.361   4.936 -1.5848 -2.4579  1.9844
  129MOL0     H17754   2.666   5.518   5.094 -0.1399 -0.2358 -1.1228
  129MOL0     H17755   2.661   5.461   4.923  0.7733  1.8773 -0.8273
  129MOL0     H17756   2.642   5.239   5.013  0.0432 -0.8626  0.7367
  129MOL0     H17757   2.675   5.279   5.179 -1.7694 -0.6526  0.9243
  129MOL0     H17758   2.454   5.445   5.117  4.2853 -0.2954 -1.6246
  129MOL0     H17759   2.416   5.303   5.043 -0.9730  2.5123 -1.5527
  129MOL0     H17760   2.350   5.213   5.447 -2.7526  1.7904 -2.7672
  129MOL0     H17761   2.319   5.178   5.690 -0.5750  0.4741 -2.0621
  129MOL0     H17762   2.348   5.315   5.787 -0.7394  0.9597 -2.2324
  129MOL0     H17763   2.479   5.187   5.756  0.8672  0.9210 -0.6036
  129MOL0     H17764   2.693   5.859   5.807 -0.0428  0.1908  0.2304
  129MOL0     H17765   2.647   5.991   6.028  2.3335 -1.0182  1.4489
  129MOL0     H17766   2.389   5.864   6.379  0.3984  0.0615  2.6427
  129MOL0     H17767   2.536   5.771   6.378  0.2552  1.0479  2.6903
  129MOL0     H17768   2.484   6.061   6.466 -3.4759 -2.0416  0.7881
  129MOL0     H17769   2.541   5.931   6.569 -2.4864  1.9293  0.7038
  129MOL0     H17770   2.709   5.995   6.337  0.3877 -5.6256  0.5796
  129MOL0     H17771   2.748   5.934   6.485  2.1622  1.0078 -0.4847
  129MOL0     H17772   2.833   6.165   6.468  1.2983 -2.2552  0.6310
  129MOL0     H17773   2.721   6.167   6.601  3.0303 -0.8274  0.1627
  129MOL0     H17774   2.546   6.285   6.452  0.4884  0.4828  1.5878
  129MOL0     H17775   2.696   6.374   6.456 -0.0305 -0.4546  1.0046
  129MOL0     H17776   2.643   6.192   6.228 -2.0498  1.0522  0.9309
  129MOL0     H17777   2.795   6.277   6.262  0.2477  0.1382 -0.5803
  129MOL0     H17778   2.667   6.494   6.260  2.0479  0.3981 -1.6056
  129MOL0     H17779   2.523   6.420   6.212 -0.1107  1.5780 -1.8720
  129MOL0     H17780   2.609   6.319   6.012 -0.3711  0.4044 -1.0032
  129MOL0     H17781   2.770   6.411   6.038  0.1290 -0.9553  0.0516
  129MOL0     H17782   2.418   5.672   6.178 -0.4894  0.8018 -0.0099
  129MOL0     H17783   2.442   5.541   5.977 -1.8343  2.1314 -2.2085
  129MOL0     H17784   2.645   5.593   5.513 -0.0825 -0.8254 -1.3203
  129MOL0     H17785   2.599   5.507   5.296 -0.7126  1.0536  0.2913
  129MOL0     H17786   3.943   5.377   5.523 -1.4133 -0.7862 -1.4178
  129MOL0     H17787   4.138   5.249   5.585 -3.0338 -0.3519 -0.4131
  129MOL0     H17788   4.410   4.835   5.245 -0.0767 -1.5494  0.5296
  129MOL0     H17789   4.611   4.682   5.281  0.4477  2.8604 -1.5732
  129MOL0     H17790   4.835   4.729   5.659 -0.2586  0.6290 -1.6066
  129MOL0     H17791   4.708   4.607   5.650  0.7968 -0.5553  0.8378
  129MOL0     H17792   4.999   4.587   5.548 -0.5553  0.4249  0.5192
  129MOL0     H17793   4.867   4.469   5.504 -2.2699  0.8202 -0.9061
  129MOL0     H17794   5.038   4.413   5.710 -1.0527 -2.0159 -2.0798
  129MOL0     H17795   4.936   4.524   5.793  5.0087  1.9513 -0.7423
  129MOL0     H17796   4.856   4.252   5.682  2.4015 -0.7575  0.9503
  129MOL0     H17797   4.733   4.365   5.713 -0.2494  0.0332 -0.5543
  129MOL0     H17798   4.868   4.243   6.106  2.8948  2.0449  0.3845
  129MOL0     H17799   4.731   4.908   5.607  0.5682  0.2694 -0.6757
  129MOL0     H17800   4.398   5.070   5.651 -0.0571 -1.3238  0.0770
  129MOL0     H17801   4.549   5.026   5.733  1.8298  0.4964 -0.3494
  129MOL0     H17802   4.547   5.161   5.611  0.5773 -1.4187 -1.4151
  130MOL0     O17803   3.026   9.659  10.205  0.4275  0.1219 -0.1622
  130MOL0     C17804   3.109   9.691  10.117 -0.8274  0.6329 -0.6330
  130MOL0     O17805   3.213   9.779  10.131 -0.2854  0.0790  0.3801
  130MOL0     C17806   3.228   9.839  10.253  0.5868 -0.2914  0.3780
  130MOL0     C17807   3.153   9.953  10.278  0.5138 -0.3101 -0.4940
  130MOL0     C17808   3.172  10.021  10.397  0.5897  0.4347 -0.1811
  130MOL0     C17809   3.250   9.969  10.496  0.1449 -0.6023 -0.6773
  130MOL0     O17810   3.264  10.028  10.621 -0.1304  0.2625 -0.0926
  130MOL0     C17811   3.356  10.137  10.632  0.4556 -1.0753  1.2694
  130MOL0     C17812   3.406  10.181  10.767  0.6264  0.0025  0.1052
  130MOL0     C17813   3.480  10.067  10.839 -0.0726  0.0846  0.7361
  130MOL0     C17814   3.575  10.124  10.943 -0.7471 -0.2751 -0.7550
  130MOL0     C17815   3.647  10.011  11.023  0.3474 -0.9385 -0.6792
  130MOL0     C17816   3.774  10.080  11.079  0.0344 -0.3361  0.0180
  130MOL0     C17817   3.866   9.981  11.165 -0.1212  0.2212  0.0612
  130MOL0     C17818   3.823   9.985  11.309  0.0360  0.6560  0.6607
  130MOL0     N17819   3.911   9.919  11.400  0.5582  0.3951 -0.2371
  130MOL0     C17820   4.022   9.971  11.461 -0.7763  0.1598  0.0221
  130MOL0     C17821   4.073   9.868  11.538  0.3965 -1.1761 -0.6834
  130MOL0     C17822   4.211   9.882  11.597  0.1472  0.9205  0.3712
  130MOL0     C17823   4.325   9.839  11.501 -0.8265  0.0800 -0.3241
  130MOL0     C17824   4.453   9.917  11.526 -1.0746  0.2717 -0.3063
  130MOL0     C17825   4.478  10.046  11.440  0.6323  0.2662 -0.0768
  130MOL0     O17826   4.399  10.150  11.491 -0.2270 -0.4369 -0.5962
  130MOL0     C17827   4.341  10.244  11.410 -0.6966 -0.4507  0.1506
  130MOL0     C17828   4.269  10.214  11.291 -0.7146 -0.7195 -0.2495
  130MOL0     C17829   4.209  10.315  11.215  0.3070 -0.1502  0.5992
  130MOL0     C17830   4.121  10.283  11.089  0.3643 -0.2467  0.2005
  130MOL0     C17831   4.232  10.449  11.240 -0.3639 -0.2272 -0.2747
  130MOL0     C17832   4.184  10.564  11.159  1.0155 -0.8220 -0.2181
  130MOL0     O17833   4.048  10.560  11.144  0.1632 -0.4818  1.0416
  130MOL0     C17834   3.986  10.666  11.085  0.4965 -0.3686 -0.5717
  130MOL0     C17835   4.010  10.690  10.954  0.1884 -0.1396 -0.5043
  130MOL0     C17836   3.946  10.800  10.898  0.1602 -0.1644 -0.0488
  130MOL0     C17837   3.865  10.886  10.963 -1.1292  0.8280 -0.4835
  130MOL0     O17838   3.798  10.984  10.906 -0.4188 -0.3043 -0.0193
  130MOL0     C17839   3.816  11.032  10.773 -0.1260 -0.3208  0.0443
  130MOL0     C17840   3.963  11.089  10.761 -0.6117  0.0441  0.3881
  130MOL0     C17841   3.986  11.173  10.637 -0.3177 -0.1490  0.1126
  130MOL0     C17842   4.127  11.228  10.622 -0.4768  0.9423 -0.1250
  130MOL0     C17843   4.135  11.387  10.578 -0.5918 -0.1503  0.8199
  130MOL0     C17844   4.065  11.420  10.445 -0.5377  0.6860  0.2949
  130MOL0     C17845   4.065  11.571  10.423  0.9757  0.0010  0.1420
  130MOL0     C17846   3.989  11.609  10.285 -0.9496 -0.0603  0.4990
  130MOL0    Cl17847   3.969  11.792  10.256 -0.4308 -0.0363  0.0144
  130MOL0     C17848   3.838  10.862  11.099 -0.2633  0.2509 -0.5096
  130MOL0     C17849   3.907  10.754  11.161  0.2177  0.3966  0.0630
  130MOL0     O17850   4.251  10.664  11.159 -1.0016  0.4561 -0.5373
  130MOL0     C17851   4.297  10.480  11.370 -0.9984 -0.6168  0.3381
  130MOL0     C17852   4.340  10.376  11.446 -0.9186  0.1055  0.7069
  130MOL0     N17853   3.980   9.757  11.533  0.1835  0.4005 -0.8161
  130MOL0     N17854   3.888   9.783  11.449  0.2068 -0.8420 -0.6502
  130MOL0     C17855   3.326   9.857  10.475  0.2275 -0.3651 -0.2099
  130MOL0     C17856   3.309   9.788  10.353  0.4445 -0.6353 -0.4472
  130MOL0     C17857   3.107   9.624   9.983 -0.7746  0.1745 -0.4018
  130MOL0     C17858   3.165   9.698   9.875  0.2275 -0.1289  0.0374
  130MOL0     C17859   3.151   9.648   9.745  0.0074  0.4927 -0.2595
  130MOL0     C17860   3.103   9.517   9.720 -0.1465  0.3948  0.3491
  130MOL0     O17861   3.093   9.465   9.591  0.0477  1.0235 -0.5452
  130MOL0     C17862   3.152   9.521   9.478 -1.1243 -0.7774  0.1074
  130MOL0     C17863   3.299   9.463   9.466  0.4114  0.0399  0.6802
  130MOL0     C17864   3.380   9.529   9.358  0.9408 -0.3433 -0.2024
  130MOL0     C17865   3.523   9.468   9.360  0.3158  0.5002  0.1129
  130MOL0     C17866   3.623   9.515   9.451 -0.5079 -0.2585  1.4711
  130MOL0     C17867   3.699   9.574   9.521 -0.0120 -0.0021  0.1333
  130MOL0     C17868   3.055   9.447   9.825  0.3246  0.2222 -0.3734
  130MOL0     C17869   3.048   9.495   9.961 -0.1691 -0.1177  0.9350
  130MOL0     C17870   2.993   9.414  10.065 -0.1500 -0.9432 -0.7046
  130MOL0     H17871   3.093   9.999  10.200  3.2879  2.7616 -1.0452
  130MOL0     H17872   3.109  10.108  10.412 -0.0536  0.5646 -3.0758
  130MOL0     H17873   3.305  10.224  10.588  0.1895 -1.0083  1.7023
  130MOL0     H17874   3.446  10.114  10.575 -0.2115  1.4073 -1.0129
  130MOL0     H17875   3.479  10.260  10.747  0.5757 -0.1380 -0.6865
  130MOL0     H17876   3.333  10.230  10.831  1.1754  2.8410 -1.2839
  130MOL0     H17877   3.409  10.003  10.892  2.5845 -2.9986  0.8871
  130MOL0     H17878   3.535  10.009  10.764  0.4881 -0.5645  1.6286
  130MOL0     H17879   3.654  10.164  10.879  2.1140 -1.2483  1.9263
  130MOL0     H17880   3.526  10.185  11.019 -3.2904 -0.5807 -2.0060
  130MOL0     H17881   3.684   9.944  10.945  2.3943  0.6651 -1.1523
  130MOL0     H17882   3.574   9.965  11.090  2.1024  1.3823  3.1379
  130MOL0     H17883   3.827  10.116  10.990 -1.2597 -0.2589 -0.7444
  130MOL0     H17884   3.748  10.171  11.133  0.1586  0.2858 -0.9384
  130MOL0     H17885   3.972  10.008  11.164  0.3715 -1.3902  1.9418
  130MOL0     H17886   3.859   9.879  11.126  0.5520 -0.3869  1.4493
  130MOL0     H17887   3.815  10.089  11.341  1.1782  2.0478 -3.0767
  130MOL0     H17888   3.721   9.953  11.328 -0.8214  2.3170 -0.8765
  130MOL0     H17889   4.050  10.071  11.430 -0.2130 -0.4036 -1.4122
  130MOL0     H17890   4.221   9.820  11.687 -0.3206  0.2586 -0.0258
  130MOL0     H17891   4.228   9.988  11.617  1.1028  0.9907 -0.6861
  130MOL0     H17892   4.355   9.737  11.526 -1.9699 -0.3888 -0.8123
  130MOL0     H17893   4.288   9.843  11.398  2.2225  0.1728 -1.5106
  130MOL0     H17894   4.475   9.928  11.632  2.5668 -0.0763 -0.8897
  130MOL0     H17895   4.536   9.851  11.499  0.2397  1.4578  0.6327
  130MOL0     H17896   4.581  10.081  11.450  0.6644 -0.3648  2.6784
  130MOL0     H17897   4.440  10.028  11.339 -0.2551  0.3962  0.2269
  130MOL0     H17898   4.260  10.108  11.269  1.1228 -1.3448  1.6476
  130MOL0     H17899   4.024  10.256  11.133  0.0075  1.7722  0.7599
  130MOL0     H17900   4.160  10.191  11.044  1.9811 -0.2796  1.5526
  130MOL0     H17901   4.105  10.359  11.013 -1.9458 -1.7076 -0.8814
  130MOL0     H17902   4.083  10.633  10.898 -0.4330  0.7860 -2.3242
  130MOL0     H17903   3.973  10.812  10.793 -0.0147 -3.1820 -0.5517
  130MOL0     H17904   3.794  10.963  10.691 -4.0718 -1.5457  1.8475
  130MOL0     H17905   3.748  11.114  10.749 -0.0943 -0.9969 -2.7121
  130MOL0     H17906   3.963  11.148  10.853  3.5576  0.3598  0.3987
  130MOL0     H17907   4.047  11.020  10.776 -1.0200  0.0281  2.9782
  130MOL0     H17908   3.918  11.258  10.642 -1.4049 -0.8795 -1.3460
  130MOL0     H17909   3.952  11.108  10.555 -4.8598  0.2336  1.4224
  130MOL0     H17910   4.182  11.164  10.553  2.0154  0.3291  2.2482
  130MOL0     H17911   4.180  11.223  10.718  2.0599  3.3351 -1.2573
  130MOL0     H17912   4.084  11.443  10.657  0.2442  2.3940 -0.3413
  130MOL0     H17913   4.237  11.425  10.570 -1.3694  2.4569  2.1026
  130MOL0     H17914   3.965  11.378  10.430  0.4796 -0.7389 -4.0183
  130MOL0     H17915   4.136  11.383  10.371 -0.1645  1.9116  0.0164
  130MOL0     H17916   4.168  11.608  10.421  0.7869  0.5565  0.5002
  130MOL0     H17917   4.015  11.622  10.505 -0.5447 -1.8772  0.4334
  130MOL0     H17918   3.901  11.548  10.262  0.9816 -2.6718 -0.5136
  130MOL0     H17919   4.057  11.570  10.208  2.9566  2.6808  2.2265
  130MOL0     H17920   3.780  10.925  11.165  1.9244  0.9070  0.8705
  130MOL0     H17921   3.905  10.750  11.270 -1.3679  1.2203  0.1002
  130MOL0     H17922   4.299  10.580  11.413  0.3337 -1.0716  1.3870
  130MOL0     H17923   4.385  10.391  11.544  0.4757  0.6019  0.0115
  130MOL0     H17924   3.378   9.811  10.559  1.2704  0.5170 -0.3603
  130MOL0     H17925   3.369   9.703  10.322 -0.3588 -2.0608  1.6092
  130MOL0     H17926   3.227   9.784   9.898  0.9364 -0.8798  1.0614
  130MOL0     H17927   3.195   9.696   9.659 -0.0509 -0.0906 -0.6219
  130MOL0     H17928   3.095   9.480   9.394 -3.1490 -0.8163  1.4556
  130MOL0     H17929   3.165   9.630   9.470  1.6621 -1.1471 -2.0916
  130MOL0     H17930   3.289   9.357   9.440  1.2941  0.1189 -0.0130
  130MOL0     H17931   3.348   9.473   9.563 -0.2216  0.2728  0.9843
  130MOL0     H17932   3.336   9.516   9.259 -2.5295  0.4103  1.0767
  130MOL0     H17933   3.384   9.634   9.390 -0.9790  0.1787 -1.4580
  130MOL0     H17934   3.567   9.490   9.262  0.9908  1.5525  0.6336
  130MOL0     H17935   3.526   9.358   9.361  3.1430  0.4768  1.7992
  130MOL0     H17936   3.766   9.626   9.586  2.1224 -2.6983  0.2894
  130MOL0     H17937   3.017   9.350   9.797 -0.7232  1.2173 -2.5845
  130MOL0     H17938   3.061   9.416  10.151  2.1809  1.0608 -2.4426
  130MOL0     H17939   2.891   9.450  10.083 -0.1890 -1.0490 -0.7124
  130MOL0     H17940   2.980   9.309  10.036  0.0458 -1.4122  0.8350
  131MOL0     O17941   0.067   2.834   6.174 -0.1620  0.8266  0.1879
  131MOL0     C17942   0.001   2.874   6.071  0.3669  0.2820 -0.5451
  131MOL0     O17943  -0.111   2.950   6.070  0.2851  0.5415 -0.8947
  131MOL0     C17944  -0.183   2.963   6.189  0.3396  0.3312 -0.3143
  131MOL0     C17945  -0.136   3.018   6.307  0.1665 -0.2406  0.0653
  131MOL0     C17946  -0.222   3.020   6.421  0.3888 -0.2311 -0.4654
  131MOL0     C17947  -0.355   2.977   6.417  0.5735  0.1742  0.2505
  131MOL0     O17948  -0.440   2.969   6.525 -0.9887 -0.2929  0.1552
  131MOL0     C17949  -0.386   3.009   6.647  0.6770  0.0088 -0.2391
  131MOL0     C17950  -0.498   2.996   6.756 -0.0824  0.2974  1.1701
  131MOL0     C17951  -0.609   3.097   6.726 -0.8120  0.7526 -0.0543
  131MOL0     C17952  -0.694   3.109   6.849 -0.0518  1.2085  0.0890
  131MOL0     C17953  -0.793   3.225   6.830  0.1690  0.2613 -0.7083
  131MOL0     C17954  -0.868   3.243   6.957 -0.9719 -0.7524 -0.0162
  131MOL0     C17955  -0.975   3.355   6.957 -0.8864  0.2440 -0.3501
  131MOL0     C17956  -1.054   3.357   7.096  0.5006 -0.1247  0.3687
  131MOL0     N17957  -1.133   3.238   7.121 -0.2496  0.0442  0.5856
  131MOL0     C17958  -1.212   3.168   7.030  0.1179 -0.9699 -0.5131
  131MOL0     C17959  -1.239   3.049   7.081 -0.9538 -0.3575 -0.4480
  131MOL0     C17960  -1.326   2.950   7.013  0.2821 -0.5670  0.0253
  131MOL0     C17961  -1.306   2.936   6.859  0.2958 -1.0572 -0.3998
  131MOL0     C17962  -1.317   2.789   6.810 -0.6718 -0.5208 -0.7713
  131MOL0     C17963  -1.267   2.788   6.661  0.2044  1.2057  0.8069
  131MOL0     O17964  -1.334   2.887   6.590  0.3043 -0.6770  0.4394
  131MOL0     C17965  -1.326   2.885   6.450  0.2574 -0.5650 -0.7680
  131MOL0     C17966  -1.228   2.825   6.379 -0.1425  0.0810  0.3285
  131MOL0     C17967  -1.231   2.839   6.242  0.3102  0.2333 -0.0510
  131MOL0     C17968  -1.126   2.760   6.167 -0.0403 -0.2217 -0.1681
  131MOL0     C17969  -1.324   2.919   6.167  0.1105  0.0808 -0.0021
  131MOL0     C17970  -1.334   2.932   6.021 -0.6181 -0.1548  0.0848
  131MOL0     O17971  -1.453   2.993   5.986 -0.7321  0.6128  0.6829
  131MOL0     C17972  -1.489   2.988   5.851  0.4579  0.2963  0.2795
  131MOL0     C17973  -1.625   2.972   5.825  0.0480  0.0334 -0.1721
  131MOL0     C17974  -1.678   2.988   5.700 -0.9851  0.6347 -0.1662
  131MOL0     C17975  -1.596   3.009   5.590  0.9759 -0.4126 -0.0178
  131MOL0     O17976  -1.661   3.029   5.473  0.0828  0.4035 -0.0946
  131MOL0     C17977  -1.592   2.992   5.351 -0.6959 -0.4412 -0.5986
  131MOL0     C17978  -1.528   2.855   5.358  0.9184  0.7732  0.5040
  131MOL0     C17979  -1.444   2.821   5.236  0.4906  0.6539 -0.4076
  131MOL0     C17980  -1.502   2.802   5.097 -0.4328 -0.2603 -0.8224
  131MOL0     C17981  -1.516   2.929   5.022 -0.5751 -0.4183 -0.2702
  131MOL0     C17982  -1.558   2.904   4.876  0.2597 -0.0195 -0.2750
  131MOL0     C17983  -1.438   2.854   4.788 -0.0229 -0.4240 -0.6010
  131MOL0     C17984  -1.446   2.702   4.746 -0.4668 -0.9322  0.5612
  131MOL0    Cl17985  -1.575   2.678   4.626 -0.0806  0.1278 -0.1345
  131MOL0     C17986  -1.460   3.042   5.614 -0.2457  0.1694  0.1604
  131MOL0     C17987  -1.407   3.017   5.746 -0.2056 -0.3881  0.1848
  131MOL0     O17988  -1.258   2.872   5.944 -0.3185 -0.4368  0.1497
  131MOL0     C17989  -1.427   2.975   6.249  0.4474 -0.3245  0.7489
  131MOL0     C17990  -1.425   2.954   6.388  0.5907 -0.3723  0.7048
  131MOL0     N17991  -1.178   3.051   7.213 -0.2130  0.2369 -0.0470
  131MOL0     N17992  -1.108   3.160   7.231 -0.5060  0.0623  0.1509
  131MOL0     C17993  -0.403   2.930   6.299  0.1054 -0.4707  1.0506
  131MOL0     C17994  -0.315   2.920   6.186  0.5290  0.0985 -0.0662
  131MOL0     C17995   0.051   2.818   5.942 -0.5153 -0.1999  0.0229
  131MOL0     C17996   0.165   2.733   5.942  0.7031 -0.2564 -0.5865
  131MOL0     C17997   0.212   2.673   5.831 -1.1550  0.4958 -0.5845
  131MOL0     C17998   0.172   2.702   5.707  0.2524  0.2783  0.0248
  131MOL0     O17999   0.238   2.644   5.602 -0.2273 -0.0626  0.1261
  131MOL0     C18000   0.201   2.675   5.470 -0.2803 -0.0673 -0.6195
  131MOL0     C18001   0.122   2.559   5.413  0.1358 -0.0968  0.3261
  131MOL0     C18002   0.091   2.594   5.268 -0.4512  0.2823  1.3361
  131MOL0     C18003  -0.019   2.507   5.196 -1.1696 -0.8964 -0.1289
  131MOL0     C18004   0.043   2.368   5.183  0.0109 -0.5191  0.4538
  131MOL0     C18005   0.084   2.258   5.160 -0.3486  0.7973 -0.1331
  131MOL0     C18006   0.055   2.784   5.700  0.0590 -0.0618 -0.1701
  131MOL0     C18007  -0.008   2.835   5.813  0.3787 -1.0568  0.8932
  131MOL0     C18008  -0.131   2.919   5.797 -0.0767 -0.3390  0.8297
  131MOL0     H18009  -0.040   3.066   6.295 -0.3567  0.0143 -5.9395
  131MOL0     H18010  -0.180   3.055   6.514  1.4401 -2.1866 -0.1413
  131MOL0     H18011  -0.358   3.114   6.634 -1.4621  0.7364  0.6416
  131MOL0     H18012  -0.306   2.944   6.683 -0.3588 -0.2347  1.7746
  131MOL0     H18013  -0.546   2.899   6.743 -2.1673  1.4579 -0.4627
  131MOL0     H18014  -0.447   3.018   6.850  3.3529  1.3520 -0.7618
  131MOL0     H18015  -0.575   3.200   6.712  0.4099  0.1612 -1.8468
  131MOL0     H18016  -0.656   3.065   6.633 -0.9731  0.5444  0.0986
  131MOL0     H18017  -0.753   3.019   6.871 -1.5179  1.4239 -2.5090
  131MOL0     H18018  -0.630   3.116   6.937 -1.6934  0.1453  1.4424
  131MOL0     H18019  -0.863   3.200   6.749  0.1198  1.0758 -0.9268
  131MOL0     H18020  -0.731   3.309   6.799 -1.0759  2.5969  2.6246
  131MOL0     H18021  -0.922   3.151   6.982 -2.0524 -0.0935  0.1033
  131MOL0     H18022  -0.803   3.258   7.045 -0.6819  0.6519 -0.4453
  131MOL0     H18023  -1.047   3.333   6.878  2.6288 -0.6516 -3.5970
  131MOL0     H18024  -0.930   3.451   6.931  0.0362 -0.2276 -0.5526
  131MOL0     H18025  -0.992   3.379   7.183  0.4761 -2.6528  1.0938
  131MOL0     H18026  -1.123   3.441   7.094 -0.7049 -1.0333 -2.9269
  131MOL0     H18027  -1.262   3.206   6.941 -2.6253 -0.6619  1.0611
  131MOL0     H18028  -1.434   2.966   7.023  0.3356 -0.2577  0.1216
  131MOL0     H18029  -1.314   2.849   7.055  0.7315 -0.3916  0.3309
  131MOL0     H18030  -1.376   3.004   6.812 -1.1680 -2.3035 -0.1090
  131MOL0     H18031  -1.204   2.967   6.836  0.2930 -0.4628  0.3452
  131MOL0     H18032  -1.249   2.726   6.867 -1.6286 -0.7446  0.1402
  131MOL0     H18033  -1.420   2.757   6.825 -0.2579 -1.2690  0.6504
  131MOL0     H18034  -1.158   2.802   6.663 -0.1550  6.1669 -0.8107
  131MOL0     H18035  -1.284   2.694   6.607 -3.8189  2.4444 -0.4256
  131MOL0     H18036  -1.156   2.762   6.430 -1.0052 -0.2220  1.1952
  131MOL0     H18037  -1.063   2.701   6.234 -0.3520 -1.2419 -0.7503
  131MOL0     H18038  -1.068   2.834   6.110  0.6030 -2.6740 -2.9079
  131MOL0     H18039  -1.172   2.680   6.109  0.7324  0.0655 -1.1983
  131MOL0     H18040  -1.699   2.943   5.899  0.5243 -3.0723 -0.7725
  131MOL0     H18041  -1.786   2.987   5.689 -0.9833  0.6935 -0.1931
  131MOL0     H18042  -1.665   2.996   5.270 -2.1389 -0.5119  0.6622
  131MOL0     H18043  -1.514   3.067   5.338 -0.8454  0.3858  2.5344
  131MOL0     H18044  -1.456   2.846   5.439 -0.4612 -0.9253  1.6064
  131MOL0     H18045  -1.616   2.791   5.373 -0.0971  2.3731  1.7110
  131MOL0     H18046  -1.402   2.723   5.258  0.2912  0.1056 -2.2840
  131MOL0     H18047  -1.362   2.893   5.225  1.0167  0.0876 -0.2544
  131MOL0     H18048  -1.598   2.751   5.111  0.1903 -1.3887 -0.5958
  131MOL0     H18049  -1.451   2.727   5.036 -1.4930 -0.8255 -1.0393
  131MOL0     H18050  -1.595   2.997   5.058 -0.3009  1.5294 -2.9583
  131MOL0     H18051  -1.418   2.977   5.019 -1.5356  1.7535 -4.0262
  131MOL0     H18052  -1.588   2.996   4.825 -0.1599 -0.5459 -1.0081
  131MOL0     H18053  -1.645   2.837   4.872  0.7828 -0.7971  0.8325
  131MOL0     H18054  -1.344   2.863   4.843 -0.0653 -0.4471 -0.5256
  131MOL0     H18055  -1.415   2.916   4.700 -4.0407  3.5478  0.8032
  131MOL0     H18056  -1.456   2.642   4.837 -0.0330 -0.9549  0.5990
  131MOL0     H18057  -1.348   2.684   4.701  0.0783 -0.4757  1.5273
  131MOL0     H18058  -1.395   3.078   5.535 -2.4462 -2.4487 -3.1156
  131MOL0     H18059  -1.307   3.043   5.778  0.3595 -1.2641 -0.7922
  131MOL0     H18060  -1.507   3.038   6.214  0.8600 -1.0970 -1.8016
  131MOL0     H18061  -1.505   2.992   6.449 -0.4329 -1.1872 -0.0976
  131MOL0     H18062  -0.508   2.905   6.290 -0.2727  0.6445  2.1408
  131MOL0     H18063  -0.343   2.864   6.096  4.5846 -1.8139 -0.3725
  131MOL0     H18064   0.210   2.714   6.039 -3.1945 -0.0239  1.5184
  131MOL0     H18065   0.311   2.627   5.833  1.3095  5.1397 -0.3053
  131MOL0     H18066   0.163   2.777   5.465 -2.3915 -0.7253  0.7949
  131MOL0     H18067   0.298   2.670   5.420 -0.0784  1.9606 -0.5110
  131MOL0     H18068   0.031   2.553   5.472  0.3131 -1.2425  0.5106
  131MOL0     H18069   0.160   2.456   5.407 -1.9255 -0.8335 -2.5183
  131MOL0     H18070   0.056   2.697   5.260 -2.1629 -0.3614 -0.3968
  131MOL0     H18071   0.178   2.583   5.203  1.6296  3.4391  3.3157
  131MOL0     H18072  -0.045   2.541   5.096 -1.7564 -5.1196 -1.5987
  131MOL0     H18073  -0.113   2.507   5.252 -0.2954 -0.5587  1.4145
  131MOL0     H18074   0.136   2.167   5.135  0.0281  0.8283  0.5160
  131MOL0     H18075   0.027   2.805   5.597  1.5234 -0.0328 -0.5919
  131MOL0     H18076  -0.167   2.920   5.694 -2.7089  1.4219  1.6830
  131MOL0     H18077  -0.216   2.880   5.854 -0.4538 -2.4266 -0.9748
  131MOL0     H18078  -0.110   3.025   5.810  1.9018 -0.4241 -1.0435
  132MOL0     O18079   4.443   5.106   0.890  0.0446  0.5626  0.8559
  132MOL0     C18080   4.565   5.106   0.909 -0.7534  0.5151  0.6148
  132MOL0     O18081   4.659   5.150   0.815  1.1623 -0.5192  0.0098
  132MOL0     C18082   4.615   5.222   0.708  0.0321  0.1422  0.1288
  132MOL0     C18083   4.619   5.361   0.704  0.3394 -1.2175  0.4676
  132MOL0     C18084   4.605   5.426   0.580 -0.2771 -0.1526 -0.1314
  132MOL0     C18085   4.594   5.354   0.457 -0.7037  0.2508 -0.5012
  132MOL0     O18086   4.610   5.414   0.336 -0.2663  0.7874 -0.1238
  132MOL0     C18087   4.644   5.549   0.327  0.6195 -0.8149  0.6453
  132MOL0     C18088   4.791   5.589   0.347 -0.1943  0.2371  0.5876
  132MOL0     C18089   4.876   5.494   0.244  0.3369 -0.0158 -0.2223
  132MOL0     C18090   5.023   5.536   0.224  0.0506 -0.1575  0.7417
  132MOL0     C18091   5.119   5.403   0.210  0.4282  0.4766  0.0107
  132MOL0     C18092   5.068   5.311   0.101 -0.0467 -0.5244 -0.7422
  132MOL0     C18093   5.176   5.212   0.041 -0.0498  0.6890  0.1964
  132MOL0     C18094   5.116   5.099  -0.046 -0.0059  0.4935  0.3375
  132MOL0     N18095   5.050   4.990   0.024 -0.6408  0.4231 -0.5260
  132MOL0     C18096   5.079   4.857   0.001 -0.3961  0.3995  0.3894
  132MOL0     C18097   4.961   4.797   0.037 -0.2697  0.9077  0.3358
  132MOL0     C18098   4.959   4.646   0.031 -0.0762  0.3906  0.3183
  132MOL0     C18099   5.070   4.570   0.116  0.7998  0.3648  0.7014
  132MOL0     C18100   5.054   4.593   0.269 -0.5520 -0.0535  0.7312
  132MOL0     C18101   5.132   4.493   0.363 -0.3370 -0.5185  0.4888
  132MOL0     O18102   5.115   4.520   0.493 -0.5359  0.6547 -0.2718
  132MOL0     C18103   4.991   4.509   0.555 -0.2509 -0.0019 -0.3408
  132MOL0     C18104   4.982   4.588   0.667  0.2158  0.1653 -0.0698
  132MOL0     C18105   4.865   4.595   0.740  0.9460  0.0215  0.3150
  132MOL0     C18106   4.835   4.686   0.848 -0.1742 -0.2257  0.2990
  132MOL0     C18107   4.760   4.513   0.696  0.0117 -0.1145 -0.0070
  132MOL0     C18108   4.627   4.515   0.754 -1.1244 -0.6180  0.2680
  132MOL0     O18109   4.538   4.614   0.708 -0.0199 -0.1011  0.4177
  132MOL0     C18110   4.424   4.641   0.777 -0.4115  0.9044  0.0632
  132MOL0     C18111   4.372   4.776   0.759 -0.5326  0.1086 -0.4565
  132MOL0     C18112   4.252   4.813   0.828  0.0562 -0.6707  0.3881
  132MOL0     C18113   4.177   4.714   0.901 -0.6129  0.0539 -0.6524
  132MOL0     O18114   4.062   4.753   0.955  0.0145  0.1683  0.3507
  132MOL0     C18115   3.948   4.670   0.925 -0.7101  0.6992 -0.7231
  132MOL0     C18116   3.822   4.759   0.920 -0.5440  0.3053 -0.3447
  132MOL0     C18117   3.781   4.793   1.064  0.4147 -0.0151 -0.7353
  132MOL0     C18118   3.651   4.878   1.063  0.0267 -0.2837 -0.7689
  132MOL0     C18119   3.613   4.912   1.213  1.0703 -1.0315  0.5382
  132MOL0     C18120   3.718   4.999   1.290  0.3403  0.3541  0.3630
  132MOL0     C18121   3.677   5.027   1.432 -0.4094  0.3346 -0.3028
  132MOL0     C18122   3.558   5.116   1.466 -0.7658 -0.4641  0.1172
  132MOL0    Cl18123   3.544   5.267   1.357 -0.3974 -0.0625 -0.0740
  132MOL0     C18124   4.233   4.588   0.927  0.2218 -0.4563  0.5106
  132MOL0     C18125   4.350   4.552   0.859 -0.0193 -0.0619 -0.8965
  132MOL0     O18126   4.609   4.428   0.840 -0.4248 -0.4686 -0.4113
  132MOL0     C18127   4.781   4.422   0.590 -0.7705 -0.1452 -0.3876
  132MOL0     C18128   4.895   4.427   0.517  1.0412 -0.0817  0.2006
  132MOL0     N18129   4.881   4.891   0.109 -0.1402  0.3778  0.3178
  132MOL0     N18130   4.931   5.013   0.087  0.1338  0.1349 -0.2224
  132MOL0     C18131   4.579   5.212   0.464  0.9515 -0.2696  0.2418
  132MOL0     C18132   4.590   5.152   0.593 -0.2978 -0.2251 -0.8759
  132MOL0     C18133   4.618   5.049   1.038 -0.5579  0.3120  0.2020
  132MOL0     C18134   4.756   5.059   1.058  0.4078  0.2534 -0.7477
  132MOL0     C18135   4.823   5.018   1.173 -0.5183 -0.3731  1.2416
  132MOL0     C18136   4.754   4.938   1.264  0.0436 -0.4728  0.8059
  132MOL0     O18137   4.803   4.866   1.367 -1.0904  0.1515 -0.6113
  132MOL0     C18138   4.925   4.911   1.424 -0.7829  0.7050  0.2557
  132MOL0     C18139   4.969   4.792   1.513 -0.4966 -0.0806 -0.3970
  132MOL0     C18140   4.870   4.749   1.612 -0.0243 -1.7592  0.5869
  132MOL0     C18141   4.796   4.860   1.689  0.7881  0.1854  1.5021
  132MOL0     C18142   4.890   4.936   1.771 -0.1586  1.1640  0.1219
  132MOL0     C18143   4.974   4.995   1.843  0.1274 -0.9189 -0.5568
  132MOL0     C18144   4.615   4.923   1.240  0.7227  0.3391 -0.3190
  132MOL0     C18145   4.546   4.984   1.133  0.5951 -0.0436  0.3133
  132MOL0     C18146   4.401   4.931   1.128  0.8129 -1.1695  0.3034
  132MOL0     H18147   4.655   5.418   0.788 -0.8792 -0.3609  0.4233
  132MOL0     H18148   4.615   5.535   0.581 -2.2171  0.2065 -3.4343
  132MOL0     H18149   4.586   5.607   0.400  1.3105  0.9694 -0.1752
  132MOL0     H18150   4.605   5.577   0.229  3.2590 -2.5525 -1.0620
  132MOL0     H18151   4.806   5.696   0.331 -2.9011  0.5041 -0.7900
  132MOL0     H18152   4.814   5.567   0.451  0.1262  1.9232  0.8968
  132MOL0     H18153   4.884   5.391   0.280  1.7727 -0.4193 -1.5817
  132MOL0     H18154   4.825   5.485   0.148 -1.0039  0.4852  0.4250
  132MOL0     H18155   5.012   5.605   0.140 -0.5541 -0.3206  0.6840
  132MOL0     H18156   5.060   5.593   0.310  1.1286 -1.4025  1.1439
  132MOL0     H18157   5.122   5.355   0.308  1.1118 -5.0183 -2.3614
  132MOL0     H18158   5.221   5.434   0.187 -0.1204  0.6398 -2.5083
  132MOL0     H18159   4.979   5.262   0.139  0.9210 -0.7617  1.3753
  132MOL0     H18160   5.034   5.379   0.022 -1.1336  1.8677  1.6173
  132MOL0     H18161   5.218   5.153   0.124  0.7020 -1.0937 -1.3832
  132MOL0     H18162   5.259   5.269  -0.001 -0.0220 -0.0097 -0.7174
  132MOL0     H18163   5.044   5.145  -0.114  1.1557 -4.8993 -5.4265
  132MOL0     H18164   5.186   5.048  -0.112  0.6014  1.0387  0.5510
  132MOL0     H18165   5.166   4.813  -0.047 -1.0232  0.9456 -1.3223
  132MOL0     H18166   4.977   4.624  -0.075 -1.5536 -1.3074  0.3792
  132MOL0     H18167   4.860   4.604   0.051  0.0465  0.2806  0.7006
  132MOL0     H18168   5.055   4.464   0.095  0.4495  0.8529 -1.7952
  132MOL0     H18169   5.164   4.614   0.083  1.0932  1.0934  2.3730
  132MOL0     H18170   5.076   4.698   0.293 -1.9624  1.2054 -2.8491
  132MOL0     H18171   4.955   4.584   0.314  0.3402 -2.8242  2.3580
  132MOL0     H18172   5.101   4.393   0.333  0.1623 -0.8939  1.2007
  132MOL0     H18173   5.239   4.499   0.340 -0.7252 -0.8494 -1.6609
  132MOL0     H18174   5.074   4.633   0.702  0.8067 -0.8616 -0.2515
  132MOL0     H18175   4.766   4.765   0.817 -1.6399 -2.9250 -4.2614
  132MOL0     H18176   4.926   4.728   0.893  3.0340 -2.4505 -3.4100
  132MOL0     H18177   4.783   4.646   0.935  1.5643  2.7071  2.9343
  132MOL0     H18178   4.429   4.841   0.693  1.1228  0.4282  1.1899
  132MOL0     H18179   4.206   4.911   0.818  0.0088 -0.8018 -0.8147
  132MOL0     H18180   3.956   4.624   0.827 -1.3445  0.3633 -0.6172
  132MOL0     H18181   3.935   4.585   0.992 -1.2089 -0.1502 -1.8694
  132MOL0     H18182   3.836   4.847   0.857 -3.1295  0.0255 -1.4202
  132MOL0     H18183   3.738   4.703   0.879 -3.4925  2.4975  2.2820
  132MOL0     H18184   3.853   4.841   1.131 -1.6450 -0.2632  1.7544
  132MOL0     H18185   3.772   4.697   1.115  3.9768  0.2803  0.7320
  132MOL0     H18186   3.573   4.821   1.013 -0.6774 -1.7983  1.8543
  132MOL0     H18187   3.662   4.965   0.997 -1.8310 -1.0091 -2.1082
  132MOL0     H18188   3.510   4.951   1.212  0.0455 -3.5522 -0.6391
  132MOL0     H18189   3.604   4.815   1.262 -0.5754 -1.4881 -0.5629
  132MOL0     H18190   3.730   5.093   1.236  2.0155  1.1175  1.9219
  132MOL0     H18191   3.815   4.947   1.290  0.2467  0.1792 -0.4101
  132MOL0     H18192   3.756   5.081   1.485 -0.2708  0.4421 -0.6143
  132MOL0     H18193   3.641   4.935   1.478  0.7568  0.8278  1.7285
  132MOL0     H18194   3.559   5.151   1.569 -0.2629  1.8294 -0.6051
  132MOL0     H18195   3.469   5.051   1.462 -1.4742  0.4636  0.4147
  132MOL0     H18196   4.173   4.505   0.963 -0.3169 -0.5000 -0.4694
  132MOL0     H18197   4.381   4.448   0.868 -0.5539 -0.3140 -1.8527
  132MOL0     H18198   4.698   4.367   0.547  0.6899  0.3692 -4.3087
  132MOL0     H18199   4.903   4.354   0.436 -0.4857  0.3482 -0.3693
  132MOL0     H18200   4.570   5.164   0.367 -3.3072 -1.1303  0.8440
  132MOL0     H18201   4.585   5.044   0.595 -3.1928 -0.2193 -2.7729
  132MOL0     H18202   4.821   5.119   0.994  1.6376  0.7721  0.9015
  132MOL0     H18203   4.928   5.042   1.184 -0.2278 -1.9989  2.4746
  132MOL0     H18204   4.998   4.916   1.343 -0.6668 -3.0997 -0.0482
  132MOL0     H18205   4.920   4.998   1.490 -2.2444  1.1875 -0.4525
  132MOL0     H18206   5.061   4.819   1.566 -0.8868  1.7028 -0.5654
  132MOL0     H18207   4.996   4.704   1.453 -3.8999 -1.0118 -0.7916
  132MOL0     H18208   4.792   4.700   1.553 -3.1986  3.7812 -0.5698
  132MOL0     H18209   4.913   4.681   1.686  0.1688 -1.7799  0.4586
  132MOL0     H18210   4.714   4.804   1.735 -0.9523  0.8562 -0.6061
  132MOL0     H18211   4.764   4.933   1.614  2.1957 -1.7815 -1.2094
  132MOL0     H18212   5.043   5.042   1.911 -1.0229 -1.9453  1.4343
  132MOL0     H18213   4.565   4.860   1.313 -0.0033  1.3815  0.1083
  132MOL0     H18214   4.405   4.844   1.061 -0.0088 -0.1329 -1.1357
  132MOL0     H18215   4.382   4.917   1.235 -1.5655 -0.8126 -0.0212
  132MOL0     H18216   4.332   5.007   1.091  2.5005  0.7063  0.8350
  133MOL0     O18217   1.540   7.670   0.411  0.1831 -0.2678  0.1935
  133MOL0     C18218   1.447   7.598   0.386 -0.9393  1.0076  0.4349
  133MOL0     O18219   1.328   7.593   0.458  0.0279 -0.3742  0.2924
  133MOL0     C18220   1.278   7.695   0.528 -0.7168 -0.5066  0.4943
  133MOL0     C18221   1.180   7.674   0.623 -0.2852 -0.2707 -0.5388
  133MOL0     C18222   1.129   7.784   0.702 -0.4265  0.4439  0.1968
  133MOL0     C18223   1.165   7.910   0.677 -1.1190  0.4878  0.8685
  133MOL0     O18224   1.108   8.010   0.750  0.2078  0.0580  0.2294
  133MOL0     C18225   1.175   8.136   0.774 -0.0509  0.4552 -0.0795
  133MOL0     C18226   1.274   8.140   0.889  0.5023  1.5810 -0.5957
  133MOL0     C18227   1.228   8.096   1.027  0.0902 -0.1589 -0.0500
  133MOL0     C18228   1.221   7.944   1.035 -0.2151  0.3494  0.3048
  133MOL0     C18229   1.337   7.873   1.104  0.2466 -0.5073  0.2339
  133MOL0     C18230   1.474   7.888   1.034  0.0824  0.2335 -0.5163
  133MOL0     C18231   1.485   7.804   0.917  0.6195 -0.5731 -0.0483
  133MOL0     C18232   1.616   7.811   0.850  0.0791  0.0337  0.8927
  133MOL0     N18233   1.734   7.744   0.914 -0.8440 -0.2816  0.0982
  133MOL0     C18234   1.764   7.614   0.896  0.2519 -0.5514 -1.0755
  133MOL0     C18235   1.892   7.606   0.955 -0.2461 -0.2136 -0.0329
  133MOL0     C18236   1.999   7.507   0.924 -0.1334 -0.0676  1.2432
  133MOL0     C18237   2.098   7.549   0.821 -0.4361  0.1161  0.3799
  133MOL0     C18238   2.211   7.630   0.890 -0.7144  0.0988 -1.1023
  133MOL0     C18239   2.318   7.657   0.788 -0.3764 -0.7270 -0.9546
  133MOL0     O18240   2.453   7.653   0.844 -0.6576  0.3277  0.7547
  133MOL0     C18241   2.531   7.763   0.878  0.0552  0.0953 -0.5169
  133MOL0     C18242   2.482   7.891   0.916 -0.7440  0.4383 -0.4929
  133MOL0     C18243   2.567   8.003   0.944 -1.0289 -0.1328  0.0924
  133MOL0     C18244   2.502   8.136   0.958 -0.3814  0.6432  0.0888
  133MOL0     C18245   2.711   7.991   0.951  0.6760  0.4517  0.2732
  133MOL0     C18246   2.797   8.096   0.980  0.1821 -0.4751  0.0685
  133MOL0     O18247   2.753   8.218   1.031 -0.2157  0.0479  0.4934
  133MOL0     C18248   2.842   8.310   1.084 -0.7954 -0.9150  0.1067
  133MOL0     C18249   2.972   8.288   1.141 -0.8282  0.1834 -0.2686
  133MOL0     C18250   3.033   8.397   1.195 -1.0868  0.1436  0.8870
  133MOL0     C18251   2.985   8.527   1.188 -0.0858  0.3737  0.1625
  133MOL0     O18252   3.068   8.625   1.230 -0.3482  0.0490  0.0281
  133MOL0     C18253   3.021   8.754   1.224  0.0338 -0.5065  0.3329
  133MOL0     C18254   3.134   8.840   1.286 -0.7105 -0.0729 -0.5780
  133MOL0     C18255   3.100   8.985   1.327 -0.3942 -0.5483 -0.4176
  133MOL0     C18256   3.174   9.006   1.460  0.3451 -0.0225  0.0626
  133MOL0     C18257   3.220   9.151   1.504 -0.6684 -0.4780  0.0437
  133MOL0     C18258   3.189   9.173   1.655 -0.5557 -0.8245 -0.2411
  133MOL0     C18259   3.249   9.298   1.708 -0.0394 -0.2339  0.0598
  133MOL0     C18260   3.175   9.356   1.827 -0.0103 -0.5169 -0.8431
  133MOL0    Cl18261   3.236   9.512   1.892  0.2069 -0.1889 -0.0504
  133MOL0     C18262   2.856   8.548   1.139 -0.4666 -0.3567  0.5146
  133MOL0     C18263   2.785   8.437   1.082  0.9965 -0.2137  0.5089
  133MOL0     O18264   2.911   8.082   0.931  0.6338  0.6790  0.4611
  133MOL0     C18265   2.753   7.854   0.924 -0.4369 -0.0235  0.0295
  133MOL0     C18266   2.672   7.743   0.895  0.4900  1.0162  0.1534
  133MOL0     N18267   1.927   7.722   1.016  0.0992  0.1988  0.0155
  133MOL0     N18268   1.831   7.805   0.987  0.2114 -0.4122 -0.0606
  133MOL0     C18269   1.255   7.936   0.574 -1.1304 -0.0903  0.0703
  133MOL0     C18270   1.316   7.834   0.502 -0.7216 -0.3495  0.7616
  133MOL0     C18271   1.468   7.500   0.270 -0.0661  0.5677 -0.2975
  133MOL0     C18272   1.599   7.439   0.256  0.9744 -0.1213 -0.3978
  133MOL0     C18273   1.621   7.354   0.158  0.3282 -1.5142  0.3636
  133MOL0     C18274   1.513   7.303   0.074  0.3723  0.0358 -0.7020
  133MOL0     O18275   1.545   7.227  -0.035 -0.7241 -0.2001 -0.9651
  133MOL0     C18276   1.668   7.235  -0.113 -0.1339 -0.4732  0.1492
  133MOL0     C18277   1.771   7.127  -0.082 -0.6536  1.1194 -0.6584
  133MOL0     C18278   1.751   6.988  -0.149 -0.0414  0.3993  0.1032
  133MOL0     C18279   1.881   6.891  -0.135  0.0354 -0.0874  0.0750
  133MOL0     C18280   2.008   6.922  -0.207  0.2240 -0.2794  0.1576
  133MOL0     C18281   2.100   6.953  -0.284 -1.0840 -0.0733  0.1216
  133MOL0     C18282   1.381   7.349   0.095  0.5150 -0.4080 -0.1450
  133MOL0     C18283   1.360   7.455   0.191 -0.1633  0.1386  0.6764
  133MOL0     C18284   1.216   7.509   0.184  1.2527 -0.1264  0.3918
  133MOL0     H18285   1.148   7.572   0.640 -1.3143  0.1289  0.0050
  133MOL0     H18286   1.054   7.770   0.779 -0.4537  1.2744  0.3274
  133MOL0     H18287   1.102   8.214   0.799 -0.8464 -0.7870  1.6859
  133MOL0     H18288   1.230   8.177   0.688 -1.1921  0.9459 -0.5898
  133MOL0     H18289   1.348   8.069   0.850  0.2847  0.5542  0.7995
  133MOL0     H18290   1.330   8.233   0.904 -2.6189  3.4703  0.2926
  133MOL0     H18291   1.290   8.136   1.108 -1.5919  0.4370  1.0113
  133MOL0     H18292   1.124   8.128   1.041  0.4675  1.5390 -0.8731
  133MOL0     H18293   1.142   7.919   1.105  0.0647  0.1571  0.5557
  133MOL0     H18294   1.212   7.899   0.935  1.7148 -0.0984  0.2903
  133MOL0     H18295   1.308   7.770   1.128  0.7957 -0.7762 -0.2519
  133MOL0     H18296   1.356   7.921   1.200  2.9647  1.2940 -1.1026
  133MOL0     H18297   1.508   7.990   1.011  1.3253  0.1607  0.8513
  133MOL0     H18298   1.549   7.853   1.107 -0.8406 -1.4555 -0.3299
  133MOL0     H18299   1.400   7.831   0.855 -2.1495 -1.7183  2.9658
  133MOL0     H18300   1.480   7.699   0.947 -3.5701 -0.3333  0.5771
  133MOL0     H18301   1.602   7.769   0.750  1.3842 -0.1023  0.7535
  133MOL0     H18302   1.639   7.916   0.829 -2.3946  0.4179 -0.3043
  133MOL0     H18303   1.709   7.542   0.836  0.0423  0.2881 -1.9136
  133MOL0     H18304   1.948   7.427   0.870  4.1304  0.0561 -3.7520
  133MOL0     H18305   2.046   7.495   1.022  1.2408 -0.9267  0.5021
  133MOL0     H18306   2.148   7.460   0.783  1.4150  1.4535 -0.4439
  133MOL0     H18307   2.068   7.594   0.726  5.0393 -0.7066 -2.1032
  133MOL0     H18308   2.186   7.722   0.944  0.9050 -0.1956  0.2112
  133MOL0     H18309   2.268   7.566   0.957  2.0017  0.5690 -2.8342
  133MOL0     H18310   2.307   7.581   0.711  3.4818 -0.6480 -1.7743
  133MOL0     H18311   2.309   7.760   0.751  0.9616  0.1717  0.9827
  133MOL0     H18312   2.373   7.897   0.920 -0.9659  0.0549 -3.4287
  133MOL0     H18313   2.510   8.169   1.062 -0.3564  0.4005  0.1644
  133MOL0     H18314   2.394   8.130   0.939 -0.3522  0.0595  0.0879
  133MOL0     H18315   2.540   8.210   0.888 -0.7277  1.3190  0.6007
  133MOL0     H18316   3.009   8.189   1.166  0.3948  0.8867  0.8360
  133MOL0     H18317   3.128   8.374   1.242 -0.2130 -1.6066 -1.5102
  133MOL0     H18318   3.017   8.792   1.122 -1.3947  0.6182  0.7673
  133MOL0     H18319   2.929   8.784   1.275 -1.5169  2.1964 -3.5594
  133MOL0     H18320   3.174   8.783   1.371  0.4511 -0.3217 -1.2682
  133MOL0     H18321   3.210   8.846   1.208 -1.7768  0.4080 -1.6000
  133MOL0     H18322   2.995   9.009   1.346  0.1931  1.2795  0.7606
  133MOL0     H18323   3.141   9.053   1.252 -0.8378  0.4250  0.2048
  133MOL0     H18324   3.258   8.937   1.456  0.9802  0.6430  1.4408
  133MOL0     H18325   3.106   8.969   1.537  3.2201 -2.0657  1.8317
  133MOL0     H18326   3.327   9.159   1.481  0.1306  0.1999  3.4106
  133MOL0     H18327   3.172   9.221   1.436 -0.4160  0.2461  0.5950
  133MOL0     H18328   3.233   9.089   1.709  1.5575  0.2122 -0.2222
  133MOL0     H18329   3.080   9.183   1.659 -0.3196  3.3312 -0.2469
  133MOL0     H18330   3.255   9.375   1.631 -0.0979  1.4979  1.7134
  133MOL0     H18331   3.351   9.279   1.742 -0.3578 -0.7502  0.7593
  133MOL0     H18332   3.180   9.277   1.903 -3.0598 -0.0892 -0.0387
  133MOL0     H18333   3.067   9.363   1.812  0.1610  0.9695 -1.5152
  133MOL0     H18334   2.813   8.648   1.137 -2.1656 -1.0565 -0.5646
  133MOL0     H18335   2.688   8.458   1.039  0.3017 -1.3093  1.4524
  133MOL0     H18336   2.854   7.816   0.919 -1.0477 -1.5940 -3.4690
  133MOL0     H18337   2.715   7.645   0.877 -0.7052  0.3498  0.7615
  133MOL0     H18338   1.278   8.040   0.552 -1.0578 -0.7046 -3.3347
  133MOL0     H18339   1.389   7.859   0.426 -0.9101 -1.2638  0.2586
  133MOL0     H18340   1.679   7.475   0.319  0.6376 -0.6043  0.3161
  133MOL0     H18341   1.722   7.316   0.143  0.8160 -0.3199  0.5311
  133MOL0     H18342   1.654   7.242  -0.222 -2.7794 -2.9337  0.1996
  133MOL0     H18343   1.718   7.328  -0.083  1.5862 -1.6232  0.9492
  133MOL0     H18344   1.774   7.112   0.027 -0.4309  0.1896 -0.7814
  133MOL0     H18345   1.869   7.158  -0.118  1.1860  0.0063  2.8762
  133MOL0     H18346   1.667   6.933  -0.107  0.6889 -0.7063  0.1631
  133MOL0     H18347   1.723   7.007  -0.253 -0.1860 -0.7811 -0.0877
  133MOL0     H18348   1.852   6.795  -0.179 -1.3964  0.9101 -1.2999
  133MOL0     H18349   1.904   6.863  -0.032  1.5191 -0.2379 -0.2791
  133MOL0     H18350   2.165   6.966  -0.368 -2.6431 -0.3961 -1.2004
  133MOL0     H18351   1.307   7.313   0.025 -0.4178 -0.9269  1.0919
  133MOL0     H18352   1.200   7.606   0.232  1.4800  1.9416 -3.3005
  133MOL0     H18353   1.184   7.519   0.080  0.7989 -1.0035  0.4399
  133MOL0     H18354   1.153   7.433   0.230  0.2606  1.1167  1.1580
  134MOL0     O18355   5.173   3.872   7.625 -0.3430 -0.3292 -0.1321
  134MOL0     C18356   5.276   3.823   7.572  0.2639 -0.3432  0.4476
  134MOL0     O18357   5.261   3.712   7.490 -1.1878 -0.5160  0.5280
  134MOL0     C18358   5.141   3.682   7.441  0.5827 -0.4928 -0.3863
  134MOL0     C18359   5.112   3.698   7.307  0.0459 -0.1607  0.0978
  134MOL0     C18360   4.987   3.681   7.260 -0.6170 -0.2603  0.3472
  134MOL0     C18361   4.888   3.631   7.336  0.5867 -0.4262  0.3243
  134MOL0     O18362   4.775   3.594   7.271  0.2301 -1.2272 -0.0199
  134MOL0     C18363   4.681   3.534   7.360 -0.3644 -0.4084  0.4947
  134MOL0     C18364   4.555   3.494   7.282 -0.0017 -0.1531 -0.5032
  134MOL0     C18365   4.456   3.419   7.384 -0.7619 -0.8217  0.3845
  134MOL0     C18366   4.492   3.277   7.433  0.4299  0.0442  0.8018
  134MOL0     C18367   4.547   3.175   7.323 -0.0786  0.0407 -0.3380
  134MOL0     C18368   4.594   3.036   7.376  0.0186 -0.1624  0.0928
  134MOL0     C18369   4.746   3.040   7.417 -0.4595  0.7078  0.2404
  134MOL0     C18370   4.811   2.907   7.466  0.1824  0.0793 -1.3502
  134MOL0     N18371   4.950   2.918   7.492 -0.5160  0.1638 -0.3834
  134MOL0     C18372   5.037   2.883   7.394 -0.2696  1.0262 -0.2751
  134MOL0     C18373   5.157   2.915   7.445 -0.5059 -0.1890  0.9853
  134MOL0     C18374   5.293   2.905   7.371  0.3962  0.1398 -0.0443
  134MOL0     C18375   5.390   3.008   7.428  0.3476 -0.8197 -0.7885
  134MOL0     C18376   5.516   3.050   7.348  0.0374  0.0199 -0.1650
  134MOL0     C18377   5.473   3.131   7.229 -0.3046 -1.0788  0.3566
  134MOL0     O18378   5.363   3.228   7.248 -0.3125 -0.1604 -0.1832
  134MOL0     C18379   5.316   3.274   7.127 -0.3293 -0.2674  0.7349
  134MOL0     C18380   5.371   3.251   7.000 -0.7062 -0.5097  0.2128
  134MOL0     C18381   5.309   3.284   6.882  0.8284 -0.4029 -0.6594
  134MOL0     C18382   5.382   3.249   6.752 -0.4084 -0.2945  0.2256
  134MOL0     C18383   5.187   3.358   6.883 -0.1990 -0.2871 -0.2211
  134MOL0     C18384   5.114   3.385   6.755 -0.6863  0.5741 -0.4392
  134MOL0     O18385   5.041   3.500   6.754  0.2258  0.4796  0.6552
  134MOL0     C18386   4.989   3.545   6.633  0.1581 -0.1823  0.9480
  134MOL0     C18387   4.861   3.610   6.623 -0.0651  0.4157 -0.1815
  134MOL0     C18388   4.806   3.649   6.508  0.0592 -0.7661 -0.3833
  134MOL0     C18389   4.887   3.650   6.396  0.3920  0.9962  0.9716
  134MOL0     O18390   4.857   3.711   6.275 -0.7762 -0.0628 -0.5015
  134MOL0     C18391   4.801   3.843   6.283  0.1977 -0.6559 -0.2040
  134MOL0     C18392   4.804   3.908   6.155 -0.5178  0.3713 -0.3540
  134MOL0     C18393   4.950   3.931   6.106  0.7744 -0.1593  0.2007
  134MOL0     C18394   5.023   4.024   6.200  0.3230  0.3439 -0.3011
  134MOL0     C18395   5.144   4.085   6.130  0.3691 -0.4407  0.4302
  134MOL0     C18396   5.250   3.979   6.113  0.4871  0.1182  0.3830
  134MOL0     C18397   5.341   3.944   6.234 -0.5199  0.8252  0.6506
  134MOL0     C18398   5.386   4.062   6.328 -0.3830  0.7839 -0.0973
  134MOL0    Cl18399   5.433   3.983   6.484  0.0427 -0.4752  0.1327
  134MOL0     C18400   5.016   3.597   6.402 -0.1172 -0.5534 -0.3106
  134MOL0     C18401   5.063   3.538   6.511 -0.2115 -0.2308 -0.0113
  134MOL0     O18402   5.102   3.293   6.677 -0.2035  0.6804  0.1701
  134MOL0     C18403   5.131   3.390   7.009  1.1347 -0.4418 -0.4006
  134MOL0     C18404   5.195   3.346   7.126 -0.6415 -0.6577  0.3646
  134MOL0     N18405   5.135   2.985   7.565 -0.1394  0.6110  0.0098
  134MOL0     N18406   5.014   2.979   7.601  0.1393  0.4931  0.2132
  134MOL0     C18407   4.916   3.604   7.471 -0.9322  0.3214  0.1564
  134MOL0     C18408   5.040   3.634   7.530  0.2998 -0.2763 -0.6875
  134MOL0     C18409   5.408   3.853   7.635  0.8651 -0.3038  0.0608
  134MOL0     C18410   5.416   3.865   7.772 -0.6257  0.3794  1.0402
  134MOL0     C18411   5.542   3.884   7.834  0.7817  0.6658  0.0557
  134MOL0     C18412   5.656   3.895   7.759  1.5132  0.7189 -0.7046
  134MOL0     O18413   5.781   3.901   7.812  0.6399 -0.2600  0.7195
  134MOL0     C18414   5.856   3.777   7.832  0.2652 -1.0182  0.3041
  134MOL0     C18415   6.002   3.806   7.878  0.3074  0.8500 -0.7018
  134MOL0     C18416   6.090   3.677   7.881 -0.3819 -0.0273 -0.1904
  134MOL0     C18417   6.093   3.599   7.753 -0.0852  0.0147  0.8149
  134MOL0     C18418   6.206   3.502   7.758  0.2459 -0.3240 -0.6088
  134MOL0     C18419   6.298   3.418   7.752 -0.0141  0.9920 -0.8173
  134MOL0     C18420   5.649   3.893   7.619 -0.0435 -1.3786 -0.4160
  134MOL0     C18421   5.525   3.872   7.559  0.3559  0.7065  0.6809
  134MOL0     C18422   5.525   3.875   7.409 -0.0852 -0.5573  0.1682
  134MOL0     H18423   5.199   3.736   7.254  0.7462  0.4098  1.5782
  134MOL0     H18424   4.966   3.694   7.155 -1.1441 -0.5973  0.4103
  134MOL0     H18425   4.658   3.609   7.436 -1.3679  1.5464 -1.6074
  134MOL0     H18426   4.719   3.440   7.401  1.2043 -0.0169 -0.0058
  134MOL0     H18427   4.497   3.572   7.231  2.7902  2.9335  0.6417
  134MOL0     H18428   4.576   3.430   7.196 -0.2343  0.6871 -1.2054
  134MOL0     H18429   4.426   3.487   7.464  3.4879  2.1788 -0.2411
  134MOL0     H18430   4.367   3.405   7.322 -0.0697  0.2300 -0.8861
  134MOL0     H18431   4.562   3.278   7.517  2.5245 -1.7950 -0.7949
  134MOL0     H18432   4.400   3.247   7.483 -1.9436  3.4824 -1.1431
  134MOL0     H18433   4.629   3.217   7.264  0.6791  1.5572  1.6809
  134MOL0     H18434   4.465   3.160   7.252 -1.8787  1.1314  1.4144
  134MOL0     H18435   4.527   3.020   7.461  0.1775 -0.7696  0.1148
  134MOL0     H18436   4.580   2.961   7.297  1.2600  0.4010 -0.6907
  134MOL0     H18437   4.768   3.123   7.484  0.6940 -0.7578  1.7803
  134MOL0     H18438   4.804   3.060   7.327  2.3494 -0.9417  1.5690
  134MOL0     H18439   4.760   2.890   7.561  3.6080 -0.7379  0.5008
  134MOL0     H18440   4.795   2.821   7.401  0.7179 -1.1735  0.1222
  134MOL0     H18441   5.025   2.843   7.294 -1.3681 -2.3544  1.0825
  134MOL0     H18442   5.282   2.924   7.264 -0.1229  0.4589  0.0649
  134MOL0     H18443   5.343   2.809   7.388  2.2027  1.2661  1.4497
  134MOL0     H18444   5.345   3.097   7.472  0.1828 -0.4029 -1.7910
  134MOL0     H18445   5.435   2.955   7.513  0.8501  1.4354  0.4421
  134MOL0     H18446   5.584   3.101   7.416  0.0609 -1.4683  0.9824
  134MOL0     H18447   5.580   2.969   7.310  3.4031  2.2427  0.3504
  134MOL0     H18448   5.559   3.180   7.183 -0.5155 -1.0024  0.0367
  134MOL0     H18449   5.441   3.055   7.157  1.5039 -1.9644  0.4439
  134MOL0     H18450   5.463   3.199   6.978 -0.6176 -0.4245  0.3797
  134MOL0     H18451   5.357   3.317   6.671  2.1771  1.2048  0.5766
  134MOL0     H18452   5.373   3.146   6.715  2.4719  0.2024 -2.2893
  134MOL0     H18453   5.489   3.265   6.768 -0.1100 -1.1509 -0.8261
  134MOL0     H18454   4.810   3.634   6.716 -0.0405  0.9468 -0.2993
  134MOL0     H18455   4.706   3.692   6.506  0.4681  0.6801  2.7688
  134MOL0     H18456   4.696   3.833   6.312 -0.1683 -0.0905 -1.3028
  134MOL0     H18457   4.843   3.907   6.362  1.0103 -1.1692 -0.1985
  134MOL0     H18458   4.752   3.847   6.082 -0.7463 -0.2234  0.2943
  134MOL0     H18459   4.758   4.008   6.157 -1.8074 -0.2150  0.4469
  134MOL0     H18460   4.945   3.979   6.008  0.2200 -3.1546 -1.3267
  134MOL0     H18461   5.000   3.834   6.098  1.2079  0.1134 -0.5024
  134MOL0     H18462   5.041   3.982   6.300 -0.1079 -2.8152 -1.4432
  134MOL0     H18463   4.952   4.100   6.235 -2.8601 -2.1103 -0.8752
  134MOL0     H18464   5.110   4.124   6.033 -0.3289 -1.0855  0.4037
  134MOL0     H18465   5.189   4.160   6.195  0.3772 -1.7995  2.0617
  134MOL0     H18466   5.300   4.012   6.021 -0.4579 -0.2872 -0.2879
  134MOL0     H18467   5.212   3.880   6.086  2.6415 -0.2809 -1.5477
  134MOL0     H18468   5.429   3.883   6.209 -1.0969  0.8033 -1.5444
  134MOL0     H18469   5.280   3.876   6.295  0.0056 -0.6039 -0.3535
  134MOL0     H18470   5.311   4.140   6.343 -2.2114 -0.6038 -1.5860
  134MOL0     H18471   5.465   4.118   6.276 -0.0232  2.7132  2.3545
  134MOL0     H18472   5.074   3.606   6.311  0.5626  0.6517  0.2200
  134MOL0     H18473   5.166   3.504   6.503 -0.0644  0.3295 -0.5824
  134MOL0     H18474   5.032   3.429   7.031  1.4476 -0.1220  0.4530
  134MOL0     H18475   5.161   3.358   7.228  2.4576 -1.3918  1.5819
  134MOL0     H18476   4.857   3.548   7.542 -0.2709 -0.4884  0.0853
  134MOL0     H18477   5.051   3.625   7.638 -4.3189  2.3885  0.2734
  134MOL0     H18478   5.325   3.851   7.830 -0.6318 -1.4839  0.6462
  134MOL0     H18479   5.559   3.892   7.941 -1.7349  0.9402  0.4949
  134MOL0     H18480   5.802   3.709   7.899  0.0597 -0.2315  0.9486
  134MOL0     H18481   5.859   3.734   7.731 -1.3678 -1.3516  0.3695
  134MOL0     H18482   6.011   3.836   7.983  1.0103 -1.8660  0.1069
  134MOL0     H18483   6.048   3.882   7.814  1.0525 -1.2292 -2.7743
  134MOL0     H18484   6.193   3.705   7.902 -0.6996 -0.4074  2.0594
  134MOL0     H18485   6.060   3.608   7.960 -0.0529 -1.9584 -1.6432
  134MOL0     H18486   6.122   3.656   7.664  0.0934 -3.3558 -1.4456
  134MOL0     H18487   6.002   3.540   7.737 -0.1487  0.6401 -1.5682
  134MOL0     H18488   6.364   3.334   7.742 -1.4937 -0.3842  0.4015
  134MOL0     H18489   5.737   3.903   7.557 -1.2201 -2.3315 -2.3531
  134MOL0     H18490   5.429   3.888   7.360  0.4072 -0.8610 -0.9067
  134MOL0     H18491   5.587   3.950   7.358  0.8680 -1.5329 -0.1573
  134MOL0     H18492   5.580   3.786   7.377 -0.6837 -1.1426  0.7304
  135MOL0     O18493   9.995   1.233  10.719  0.0480  0.2836 -0.7375
  135MOL0     C18494   9.971   1.286  10.831  0.6749  0.6389  0.6641
  135MOL0     O18495   9.861   1.351  10.866  0.2350  0.4991 -0.5369
  135MOL0     C18496   9.753   1.342  10.786  0.4269  0.0228  0.5362
  135MOL0     C18497   9.665   1.232  10.782  0.8316  0.0617  0.1039
  135MOL0     C18498   9.558   1.221  10.689 -0.2957 -0.3370  0.7319
  135MOL0     C18499   9.538   1.338  10.607  0.1701 -0.3283  0.1256
  135MOL0     O18500   9.421   1.331  10.529 -0.5641 -0.0963 -0.2870
  135MOL0     C18501   9.369   1.451  10.468  0.6284  0.0305  1.0437
  135MOL0     C18502   9.244   1.409  10.388 -0.2751  0.4094 -0.0020
  135MOL0     C18503   9.217   1.515  10.280 -0.6172 -0.6379  0.3003
  135MOL0     C18504   9.109   1.502  10.166  0.1850  0.6763  0.7910
  135MOL0     C18505   9.157   1.406  10.061  0.0298 -0.2702  0.3216
  135MOL0     C18506   9.067   1.400   9.942  0.5536 -0.1197 -0.2308
  135MOL0     C18507   9.100   1.271   9.867  0.1586 -0.0520 -0.3736
  135MOL0     C18508   9.027   1.256   9.734 -0.4176 -0.7789  0.0597
  135MOL0     N18509   9.072   1.133   9.673 -0.8811  1.0760 -0.0507
  135MOL0     C18510   9.152   1.123   9.562 -0.2115 -0.0624  0.5851
  135MOL0     C18511   9.178   0.991   9.554  0.1793 -0.0095  0.5813
  135MOL0     C18512   9.236   0.924   9.431  0.8934 -0.6295  1.1054
  135MOL0     C18513   9.163   0.954   9.296 -0.2742 -0.4268  0.5203
  135MOL0     C18514   9.020   0.926   9.296  0.1150 -0.4635  0.7102
  135MOL0     C18515   8.987   0.778   9.315 -0.7321 -0.7075  0.0772
  135MOL0     O18516   8.859   0.742   9.263  0.1700  0.3490  0.1206
  135MOL0     C18517   8.757   0.800   9.336  0.3261  0.0873  0.1049
  135MOL0     C18518   8.630   0.760   9.290 -1.1262 -0.1396 -0.1845
  135MOL0     C18519   8.513   0.803   9.343  0.6107  0.1476  0.7174
  135MOL0     C18520   8.392   0.740   9.286  0.7147  0.3949 -0.0835
  135MOL0     C18521   8.512   0.884   9.461  0.8558  0.0413  0.4206
  135MOL0     C18522   8.391   0.914   9.534  0.3149  0.3961  0.6430
  135MOL0     O18523   8.398   1.029   9.610  0.0066  0.1824 -0.6809
  135MOL0     C18524   8.291   1.085   9.677  0.5622  0.2651  0.0978
  135MOL0     C18525   8.145   1.066   9.661 -1.0659 -0.6466  0.3482
  135MOL0     C18526   8.061   1.130   9.749  0.3126 -0.5173 -0.3746
  135MOL0     C18527   8.108   1.197   9.860 -0.6055 -0.2765  0.1278
  135MOL0     O18528   8.022   1.240   9.948 -0.6336  0.5598 -0.3095
  135MOL0     C18529   7.945   1.347   9.909  0.3995 -0.7512  0.4649
  135MOL0     C18530   7.883   1.420  10.018 -0.1440  0.3241 -0.1690
  135MOL0     C18531   7.987   1.466  10.110 -0.5853  0.0288  0.2052
  135MOL0     C18532   7.944   1.552  10.233 -0.3063 -0.5610  0.1463
  135MOL0     C18533   7.892   1.472  10.357 -0.3909 -0.4674 -0.7302
  135MOL0     C18534   7.896   1.562  10.478  0.3528 -0.0061 -0.3174
  135MOL0     C18535   7.866   1.491  10.607  0.0860  0.3908  0.0514
  135MOL0     C18536   7.913   1.570  10.738  0.5588 -1.3030  0.3768
  135MOL0    Cl18537   8.090   1.610  10.732 -0.2971  0.0014 -0.2791
  135MOL0     C18538   8.244   1.213   9.876  0.0685  0.1961 -0.2656
  135MOL0     C18539   8.329   1.153   9.789  0.0576 -0.4950  0.7118
  135MOL0     O18540   8.297   0.828   9.538 -0.5428 -0.1422 -0.3823
  135MOL0     C18541   8.636   0.916   9.511  0.4796 -0.4884  0.1419
  135MOL0     C18542   8.759   0.872   9.456  0.3786 -0.2548 -0.2178
  135MOL0     N18543   9.133   0.918   9.655 -0.5127 -0.4667 -0.4223
  135MOL0     N18544   9.066   1.000   9.735 -0.2850  0.2339  0.1040
  135MOL0     C18545   9.618   1.441  10.614  0.3207  0.2800  1.2442
  135MOL0     C18546   9.722   1.450  10.702 -0.3450  1.0016  0.0870
  135MOL0     C18547  10.077   1.295  10.939  0.5245  0.0551 -1.3431
  135MOL0     C18548  10.048   1.386  11.041  0.0711 -0.1793  0.1992
  135MOL0     C18549  10.128   1.405  11.148 -0.0004 -0.3248 -0.6227
  135MOL0     C18550  10.241   1.331  11.164  0.1059  0.1554 -0.1241
  135MOL0     O18551  10.303   1.347  11.285  0.5206 -0.0805  0.0803
  135MOL0     C18552  10.414   1.265  11.313 -0.0719 -0.4722 -0.5302
  135MOL0     C18553  10.481   1.296  11.450 -0.6166  0.6837  0.6530
  135MOL0     C18554  10.511   1.442  11.476 -0.0913 -0.5013 -0.9248
  135MOL0     C18555  10.391   1.500  11.556  0.1743  0.2980  0.0507
  135MOL0     C18556  10.371   1.452  11.688 -1.0153  0.0749 -0.5505
  135MOL0     C18557  10.340   1.425  11.799 -0.8136  0.0268  0.0049
  135MOL0     C18558  10.276   1.236  11.069  0.2067 -0.1121 -0.2977
  135MOL0     C18559  10.194   1.218  10.957 -0.6697  0.6044  0.2640
  135MOL0     C18560  10.230   1.102  10.870 -0.0273 -0.1712 -0.1544
  135MOL0     H18561   9.677   1.147  10.850 -3.4346  0.0949  1.1691
  135MOL0     H18562   9.495   1.133  10.685  0.4587 -0.8506 -3.1706
  135MOL0     H18563   9.449   1.501  10.412  1.9984  3.3959  5.3937
  135MOL0     H18564   9.339   1.533  10.534  0.1226  1.0665 -0.4018
  135MOL0     H18565   9.256   1.314  10.334  0.1828  0.4009  0.1084
  135MOL0     H18566   9.158   1.407  10.455  0.4878  0.6211  1.0185
  135MOL0     H18567   9.185   1.605  10.334  0.3088  0.1829 -0.4813
  135MOL0     H18568   9.310   1.538  10.228 -0.0111 -1.8216  0.8393
  135MOL0     H18569   9.021   1.455  10.212  0.2844 -0.0481  0.2480
  135MOL0     H18570   9.082   1.598  10.122  0.2942 -0.2574 -1.4477
  135MOL0     H18571   9.172   1.304  10.097  0.0179 -1.5227 -2.8308
  135MOL0     H18572   9.254   1.431  10.018  1.2659 -2.1112  1.9156
  135MOL0     H18573   8.960   1.393   9.967  0.3795 -1.8020 -1.2857
  135MOL0     H18574   9.089   1.488   9.881  2.1452 -1.2574 -1.3543
  135MOL0     H18575   9.096   1.183   9.932  1.3800  0.5648  0.5571
  135MOL0     H18576   9.200   1.274   9.822 -0.7546 -2.1475 -2.8312
  135MOL0     H18577   8.921   1.235   9.750 -1.0395  1.4287 -0.8842
  135MOL0     H18578   9.041   1.324   9.650 -0.6460 -1.8678 -0.8839
  135MOL0     H18579   9.182   1.206   9.499 -0.1954 -0.9563 -0.6498
  135MOL0     H18580   9.235   0.815   9.442 -0.1495 -1.2710 -3.2498
  135MOL0     H18581   9.340   0.957   9.432  0.4987  0.6864  2.4142
  135MOL0     H18582   9.174   1.062   9.279  2.6096 -0.8755 -1.0466
  135MOL0     H18583   9.219   0.911   9.213 -0.3352 -2.8117  1.6344
  135MOL0     H18584   8.978   0.985   9.378  1.3735  0.4888  0.6988
  135MOL0     H18585   8.977   0.955   9.200  1.0409 -3.1847 -0.6171
  135MOL0     H18586   9.062   0.719   9.260  0.6016  0.8579  0.1491
  135MOL0     H18587   8.982   0.759   9.422  1.0130  2.0060  0.7373
  135MOL0     H18588   8.633   0.700   9.200  0.5941 -0.4193  0.0292
  135MOL0     H18589   8.341   0.673   9.356 -0.2850  0.7871 -0.4151
  135MOL0     H18590   8.427   0.682   9.199  2.0285 -1.7751  1.7772
  135MOL0     H18591   8.325   0.821   9.256  0.0118 -0.7989 -1.9060
  135MOL0     H18592   8.114   1.010   9.573  0.8450 -2.0322  0.4884
  135MOL0     H18593   7.953   1.124   9.740  0.1360  0.6708  0.7987
  135MOL0     H18594   8.000   1.425   9.854 -2.4666  3.4272  2.9148
  135MOL0     H18595   7.870   1.302   9.843  1.9986  0.2810 -2.2274
  135MOL0     H18596   7.822   1.506   9.990 -2.3748 -0.1345  2.7989
  135MOL0     H18597   7.828   1.344  10.075 -1.2909  0.4162 -1.1216
  135MOL0     H18598   8.055   1.534  10.058 -1.2312  3.0555  2.9552
  135MOL0     H18599   8.051   1.382  10.137 -3.4217 -1.5773  2.5296
  135MOL0     H18600   7.858   1.616  10.209 -0.8116 -2.0875 -2.5876
  135MOL0     H18601   8.025   1.620  10.261 -0.1474 -1.6072  2.4881
  135MOL0     H18602   7.792   1.429  10.344 -0.3773 -1.1586  1.1914
  135MOL0     H18603   7.959   1.386  10.367 -1.2546 -1.4754 -2.8982
  135MOL0     H18604   7.822   1.641  10.462  0.2904 -0.2767 -1.4234
  135MOL0     H18605   8.002   1.582  10.464  0.2709  0.6847  0.0136
  135MOL0     H18606   7.907   1.390  10.607  0.4741  0.4989 -2.4013
  135MOL0     H18607   7.757   1.481  10.603  0.2501 -1.7531 -0.1898
  135MOL0     H18608   7.896   1.516  10.832  0.6719 -1.1717  0.4732
  135MOL0     H18609   7.857   1.664  10.744 -1.3514 -2.4776  3.5390
  135MOL0     H18610   8.285   1.252   9.968 -0.0803 -2.2987  0.9421
  135MOL0     H18611   8.433   1.150   9.820  0.6013  1.7465 -0.6096
  135MOL0     H18612   8.644   0.976   9.601 -1.3331 -3.6673  2.6330
  135MOL0     H18613   8.845   0.914   9.507 -2.4263  1.7525  3.3495
  135MOL0     H18614   9.592   1.523  10.547  0.6968  0.6070  1.4958
  135MOL0     H18615   9.779   1.543  10.708  0.2520  0.5962  0.8977
  135MOL0     H18616   9.970   1.462  11.044 -0.8987 -0.8078 -3.7743
  135MOL0     H18617  10.109   1.473  11.230  1.4312 -0.1202 -0.4285
  135MOL0     H18618  10.372   1.164  11.310 -1.4017  0.0068  0.7066
  135MOL0     H18619  10.493   1.269  11.237  1.2829 -0.0144  0.8449
  135MOL0     H18620  10.576   1.241  11.451 -1.3587 -0.9334  4.9565
  135MOL0     H18621  10.436   1.248  11.538  2.9718 -1.9718  1.2886
  135MOL0     H18622  10.604   1.452  11.533 -1.6554  0.3794  1.6716
  135MOL0     H18623  10.514   1.499  11.383 -1.0689  2.9346  0.9727
  135MOL0     H18624  10.303   1.490  11.492  0.6734  1.3832 -0.8462
  135MOL0     H18625  10.410   1.606  11.575  0.0888  0.0309  1.7751
  135MOL0     H18626  10.291   1.400  11.891 -0.6329  0.3593  0.1929
  135MOL0     H18627  10.358   1.165  11.080  0.5138  0.2196 -0.4287
  135MOL0     H18628  10.243   1.142  10.769 -0.7140 -2.0714 -1.0518
  135MOL0     H18629  10.318   1.044  10.898 -0.1163 -0.5145 -0.5681
  135MOL0     H18630  10.141   1.040  10.853  0.3146 -0.1313 -2.5460
  136MOL0     O18631   8.975   8.468   0.596 -0.5146 -0.5068  0.4071
  136MOL0     C18632   9.034   8.498   0.496 -0.2617  0.2867 -0.3755
  136MOL0     O18633   8.976   8.541   0.383  1.1824 -0.5039  0.0063
  136MOL0     C18634   8.869   8.629   0.380 -0.4958 -0.2330 -0.6582
  136MOL0     C18635   8.806   8.655   0.258 -0.4736 -0.3434 -0.1436
  136MOL0     C18636   8.708   8.752   0.246 -0.3165 -0.7102 -0.5945
  136MOL0     C18637   8.664   8.824   0.357  0.4853 -0.6266 -0.6307
  136MOL0     O18638   8.562   8.921   0.345 -0.3747 -0.0997 -0.3109
  136MOL0     C18639   8.454   8.911   0.443  1.6000 -0.7447  0.7449
  136MOL0     C18640   8.429   9.058   0.450 -0.9542 -0.0867  0.7000
  136MOL0     C18641   8.382   9.093   0.591 -0.1965 -0.6144  0.0826
  136MOL0     C18642   8.490   9.136   0.696 -1.0954  0.0081  0.2482
  136MOL0     C18643   8.438   9.116   0.840  0.6162 -0.0411  0.0211
  136MOL0     C18644   8.529   9.172   0.947  0.2605  0.0200  0.3095
  136MOL0     C18645   8.477   9.151   1.089  0.0222 -0.1868  0.5244
  136MOL0     C18646   8.343   9.232   1.110  0.3565  0.4740 -0.2258
  136MOL0     N18647   8.313   9.233   1.253 -0.7493  0.7460 -0.8156
  136MOL0     C18648   8.271   9.126   1.332 -0.7099 -0.0859  1.0087
  136MOL0     C18649   8.291   9.170   1.459  0.3233  1.1911 -0.1587
  136MOL0     C18650   8.249   9.089   1.587 -0.1086 -0.4477  0.2253
  136MOL0     C18651   8.355   9.078   1.695  0.2986 -0.0959  0.5628
  136MOL0     C18652   8.307   8.991   1.810 -0.1585 -0.3062 -0.7747
  136MOL0     C18653   8.426   8.945   1.890  0.9437 -0.1529  0.2107
  136MOL0     O18654   8.485   9.060   1.948 -0.3511 -0.2165 -0.9704
  136MOL0     C18655   8.614   9.099   1.926  0.6008 -0.2516  0.1167
  136MOL0     C18656   8.720   9.030   1.859 -0.7202  0.3678 -0.0007
  136MOL0     C18657   8.852   9.080   1.852  0.7094  0.4631 -0.2468
  136MOL0     C18658   8.946   8.997   1.773  0.0873 -0.2408  0.5801
  136MOL0     C18659   8.882   9.196   1.933 -0.0574  0.5299  0.9758
  136MOL0     C18660   9.024   9.242   1.955 -0.2854  0.5552  1.1352
  136MOL0     O18661   9.047   9.373   1.970  0.3089  0.2907  0.1589
  136MOL0     C18662   9.165   9.440   1.972  0.0523  0.6715 -0.4038
  136MOL0     C18663   9.177   9.562   1.911 -0.3702 -0.4296  0.3497
  136MOL0     C18664   9.290   9.642   1.916  0.3326  0.6520  0.5754
  136MOL0     C18665   9.405   9.597   1.980 -0.2753 -0.3766  0.4847
  136MOL0     O18666   9.525   9.654   1.966 -1.0204 -0.9740  0.2062
  136MOL0     C18667   9.546   9.780   1.904  0.5989 -0.4932  0.6238
  136MOL0     C18668   9.666   9.843   1.952 -0.9475 -0.9102 -0.3419
  136MOL0     C18669   9.710   9.979   1.897 -0.1347 -0.0380  0.4480
  136MOL0     C18670   9.837  10.025   1.969  0.1587 -0.1869  0.9333
  136MOL0     C18671   9.857  10.184   1.965 -0.4401  0.4989 -0.2813
  136MOL0     C18672   9.869  10.238   1.825  0.0366  0.9025 -0.5261
  136MOL0     C18673   9.927  10.376   1.819  0.5203 -1.3013 -0.9632
  136MOL0     C18674   9.842  10.498   1.862  0.4593 -0.3159 -0.0130
  136MOL0    Cl18675   9.730  10.526   1.728 -0.1224 -0.2230  0.4339
  136MOL0     C18676   9.399   9.468   2.043  0.0576 -0.2211  0.1977
  136MOL0     C18677   9.275   9.402   2.048 -0.0155  0.1896  0.8234
  136MOL0     O18678   9.113   9.154   1.959  0.6421  0.0352  0.4369
  136MOL0     C18679   8.773   9.268   1.988 -1.6089 -0.0454 -0.8616
  136MOL0     C18680   8.645   9.216   1.987 -0.2593  0.1398 -0.1139
  136MOL0     N18681   8.342   9.302   1.451 -0.2321  0.5982  0.0102
  136MOL0     N18682   8.369   9.337   1.329  0.7596  0.6422 -0.3275
  136MOL0     C18683   8.724   8.796   0.480 -0.3663  0.4013 -0.5925
  136MOL0     C18684   8.825   8.699   0.490 -0.4870  0.1553 -1.0369
  136MOL0     C18685   9.170   8.446   0.474  0.3701  0.5868  1.0827
  136MOL0     C18686   9.262   8.475   0.568 -1.3598  0.2036  0.1815
  136MOL0     C18687   9.398   8.436   0.565  0.8345  0.1607  0.8114
  136MOL0     C18688   9.445   8.359   0.454  0.5295  0.0463 -0.4092
  136MOL0     O18689   9.580   8.335   0.460  0.5709  0.6118  0.5918
  136MOL0     C18690   9.649   8.266   0.354  0.0598  0.1552 -0.7078
  136MOL0     C18691   9.663   8.362   0.235 -0.7905 -0.4007 -0.2293
  136MOL0     C18692   9.743   8.297   0.118  0.5338  0.3959 -0.2322
  136MOL0     C18693   9.679   8.200   0.037  0.4351 -0.8613 -0.2042
  136MOL0     C18694   9.571   8.276  -0.043 -0.1716  1.1073 -1.3300
  136MOL0     C18695   9.497   8.346  -0.103  0.4871  0.3170  0.4147
  136MOL0     C18696   9.360   8.342   0.346  0.2493 -0.6067 -0.1571
  136MOL0     C18697   9.219   8.374   0.353  0.2986  0.2026 -0.0570
  136MOL0     C18698   9.127   8.352   0.236  0.5923 -0.3494 -0.1209
  136MOL0     H18699   8.853   8.603   0.175  0.0663 -0.4896  0.2461
  136MOL0     H18700   8.680   8.789   0.148 -0.8723  4.1322  1.1464
  136MOL0     H18701   8.474   8.870   0.542 -1.5913  2.0391  2.7373
  136MOL0     H18702   8.364   8.860   0.407  0.6078  2.9978 -2.7826
  136MOL0     H18703   8.515   9.116   0.415  0.5589 -2.4509  0.2965
  136MOL0     H18704   8.358   9.073   0.368  1.7494 -0.4919 -1.8708
  136MOL0     H18705   8.299   9.164   0.582 -0.3956 -0.9500 -0.8004
  136MOL0     H18706   8.333   9.005   0.634 -0.5371 -0.4204  0.0984
  136MOL0     H18707   8.583   9.078   0.700  0.0817  1.8793  1.8573
  136MOL0     H18708   8.529   9.233   0.663 -0.7584 -0.6271 -1.2979
  136MOL0     H18709   8.415   9.010   0.856 -2.5427  0.6510  0.5967
  136MOL0     H18710   8.340   9.164   0.840  1.5825  2.1027  1.1336
  136MOL0     H18711   8.616   9.106   0.940 -0.7427 -1.3789  0.3383
  136MOL0     H18712   8.560   9.275   0.930  0.8730  0.1142  1.9340
  136MOL0     H18713   8.555   9.186   1.158 -1.3493  0.7588  1.6751
  136MOL0     H18714   8.460   9.045   1.110  3.2825 -1.2342 -1.4987
  136MOL0     H18715   8.359   9.333   1.072 -0.8919  0.1332 -1.7270
  136MOL0     H18716   8.257   9.184   1.063  0.4394  0.3117 -0.2104
  136MOL0     H18717   8.232   9.031   1.299 -2.3062  0.7930  0.2004
  136MOL0     H18718   8.199   8.994   1.566 -2.5398  0.3288  2.0306
  136MOL0     H18719   8.161   9.128   1.638 -0.6931 -4.8141  3.0273
  136MOL0     H18720   8.443   9.021   1.663  0.4316 -1.0377  2.4576
  136MOL0     H18721   8.383   9.181   1.720 -2.1087  2.0195 -4.1909
  136MOL0     H18722   8.235   9.042   1.875 -3.3758 -1.6408 -3.0675
  136MOL0     H18723   8.265   8.900   1.767 -1.3713  0.8334 -2.1256
  136MOL0     H18724   8.384   8.876   1.964  0.0242 -0.4134 -0.5284
  136MOL0     H18725   8.498   8.892   1.826  0.0838 -4.1101  2.2388
  136MOL0     H18726   8.683   8.943   1.805  0.2230  0.3944 -0.6971
  136MOL0     H18727   8.894   8.936   1.699  0.5240  0.6776 -0.5165
  136MOL0     H18728   9.018   8.936   1.827 -0.3290 -0.9803  0.3156
  136MOL0     H18729   9.008   9.062   1.710 -2.7605 -0.4544 -2.7670
  136MOL0     H18730   9.099   9.594   1.842 -0.5483  0.2374  0.8565
  136MOL0     H18731   9.282   9.737   1.864 -2.3196  0.0995 -0.1684
  136MOL0     H18732   9.543   9.769   1.795  0.7545  1.1695  0.4374
  136MOL0     H18733   9.466   9.848   1.932 -1.2307 -1.9214 -0.8647
  136MOL0     H18734   9.657   9.838   2.061 -1.5102 -1.2453 -0.4022
  136MOL0     H18735   9.747   9.773   1.928 -2.4520 -1.2723 -5.5471
  136MOL0     H18736   9.629  10.050   1.913  0.7064  1.5019 -1.7782
  136MOL0     H18737   9.730   9.969   1.790  1.1204  2.3890  0.3961
  136MOL0     H18738   9.921   9.965   1.932 -0.3723 -0.5309  0.2682
  136MOL0     H18739   9.820  10.014   2.076  3.1879  0.7931  1.6117
  136MOL0     H18740   9.780  10.237   2.023 -1.0119  0.4888 -1.0110
  136MOL0     H18741   9.951  10.200   2.018 -0.6214  1.4114 -0.2152
  136MOL0     H18742   9.776  10.244   1.768 -0.9731  2.8199  1.2216
  136MOL0     H18743   9.925  10.170   1.760 -0.0768 -0.2023  0.4828
  136MOL0     H18744   9.950  10.392   1.713 -2.2535  0.2193 -1.4401
  136MOL0     H18745  10.019  10.381   1.878  0.0616 -2.5032 -0.0994
  136MOL0     H18746   9.902  10.588   1.879  0.2482  0.1838 -1.6990
  136MOL0     H18747   9.778  10.474   1.947  1.4963 -2.1157  0.3050
  136MOL0     H18748   9.483   9.420   2.093 -0.1091  1.2463  1.9805
  136MOL0     H18749   9.273   9.303   2.094 -2.2014  0.1757  0.8234
  136MOL0     H18750   8.796   9.355   2.049 -0.1129 -0.9166 -0.1241
  136MOL0     H18751   8.563   9.256   2.045 -1.8382 -0.1702 -2.0176
  136MOL0     H18752   8.683   8.843   0.569  3.7720  1.7089  0.8354
  136MOL0     H18753   8.877   8.682   0.584 -0.8049  1.8590 -0.5114
  136MOL0     H18754   9.229   8.520   0.662  0.3657  1.3162  0.3015
  136MOL0     H18755   9.466   8.459   0.646 -0.0894 -0.6823  1.8506
  136MOL0     H18756   9.749   8.253   0.397  0.0162  2.3018  0.1918
  136MOL0     H18757   9.615   8.167   0.323 -0.3317 -0.6151  1.9106
  136MOL0     H18758   9.721   8.451   0.261 -0.4214 -0.9142  0.7408
  136MOL0     H18759   9.562   8.394   0.210 -0.3221  0.4082 -1.1785
  136MOL0     H18760   9.770   8.380   0.052  1.5675 -1.4209 -2.2438
  136MOL0     H18761   9.839   8.257   0.151  0.5272  0.4001 -0.2067
  136MOL0     H18762   9.644   8.128   0.112  4.3555 -1.2946  1.4511
  136MOL0     H18763   9.754   8.151  -0.026  1.8474 -0.0733  0.8179
  136MOL0     H18764   9.429   8.411  -0.153  2.0156 -0.5550 -3.1664
  136MOL0     H18765   9.401   8.288   0.261  0.7551 -2.0396  0.9578
  136MOL0     H18766   9.181   8.282   0.172  2.4206  2.0308 -1.3509
  136MOL0     H18767   9.029   8.313   0.265  0.2555  1.7875  1.9898
  136MOL0     H18768   9.113   8.443   0.177  4.5364  0.0022 -0.7885
  137MOL0     O18769   5.931   2.803   8.507 -1.0983 -0.2231  0.3622
  137MOL0     C18770   5.922   2.685   8.513  0.5913 -0.6469  0.0591
  137MOL0     O18771   6.020   2.610   8.564  0.3975  1.0361  0.9801
  137MOL0     C18772   6.147   2.646   8.592 -0.1095  1.1692 -1.0292
  137MOL0     C18773   6.192   2.763   8.643 -1.0541 -0.5211 -0.4405
  137MOL0     C18774   6.322   2.783   8.674  0.7746 -0.4904  0.7529
  137MOL0     C18775   6.413   2.679   8.650 -0.8990  0.3517 -0.1729
  137MOL0     O18776   6.546   2.721   8.665 -0.2550 -0.6323 -0.8295
  137MOL0     C18777   6.636   2.630   8.734  0.1970 -0.1349  0.3523
  137MOL0     C18778   6.753   2.706   8.800 -0.3766 -0.2204 -0.7854
  137MOL0     C18779   6.861   2.756   8.696  0.9402  0.2551  0.3284
  137MOL0     C18780   6.961   2.844   8.765 -0.7733 -0.2959  0.5641
  137MOL0     C18781   6.933   2.990   8.747 -0.1618 -0.4104 -0.1558
  137MOL0     C18782   7.052   3.073   8.780  0.6991  0.4938  0.0018
  137MOL0     C18783   7.117   3.031   8.914  0.2312  0.5250 -0.1363
  137MOL0     C18784   7.209   3.133   8.969 -0.1317 -0.5298 -0.0179
  137MOL0     N18785   7.314   3.080   9.049 -0.1210  0.4322  0.0161
  137MOL0     C18786   7.286   3.012   9.166  0.2938 -0.1322  0.5098
  137MOL0     C18787   7.410   2.967   9.202  0.0513  0.1155  0.0554
  137MOL0     C18788   7.428   2.883   9.327  0.7742 -0.5657 -0.5310
  137MOL0     C18789   7.390   2.740   9.307 -0.0310 -1.0214 -0.0246
  137MOL0     C18790   7.481   2.669   9.197  0.0432  0.1540 -0.1378
  137MOL0     C18791   7.421   2.547   9.149  0.0618  0.5665 -0.0305
  137MOL0     O18792   7.294   2.572   9.093 -0.1934  0.0169 -0.5828
  137MOL0     C18793   7.225   2.474   9.028  0.0530 -0.0052  0.4546
  137MOL0     C18794   7.264   2.340   9.001  0.3528  0.1528 -0.1044
  137MOL0     C18795   7.185   2.243   8.932  0.9820 -0.2688 -0.1162
  137MOL0     C18796   7.242   2.102   8.918  0.6810  0.0584  0.1176
  137MOL0     C18797   7.063   2.290   8.868  0.1286 -0.1472 -0.6722
  137MOL0     C18798   6.962   2.213   8.806  0.5229  0.3365  0.1904
  137MOL0     O18799   7.004   2.094   8.756  0.6605  0.4765  0.2965
  137MOL0     C18800   6.920   1.990   8.707  0.1186  0.0429  0.6179
  137MOL0     C18801   6.787   1.990   8.660 -0.4131 -0.9919 -0.4938
  137MOL0     C18802   6.721   1.885   8.600  0.3593  1.0155 -0.5533
  137MOL0     C18803   6.789   1.762   8.588  1.0315 -0.1463 -0.3665
  137MOL0     O18804   6.733   1.654   8.529  0.0424  0.0092  0.4278
  137MOL0     C18805   6.653   1.670   8.413 -0.2598  1.1448 -0.2469
  137MOL0     C18806   6.623   1.533   8.363  0.7553  0.3602  0.2101
  137MOL0     C18807   6.553   1.539   8.228  1.1809 -0.0444  0.1909
  137MOL0     C18808   6.535   1.399   8.171 -0.4626 -0.1072 -0.1023
  137MOL0     C18809   6.455   1.406   8.051  1.0243 -0.2809 -1.2308
  137MOL0     C18810   6.430   1.265   7.984 -0.7828  0.4415 -0.1412
  137MOL0     C18811   6.339   1.259   7.861 -0.1011  0.2158 -0.1411
  137MOL0     C18812   6.406   1.329   7.740 -0.6533 -0.8196  0.7002
  137MOL0    Cl18813   6.561   1.253   7.677  0.0693 -0.1635 -0.2528
  137MOL0     C18814   6.909   1.750   8.648 -0.8889  0.2279 -0.0710
  137MOL0     C18815   6.979   1.864   8.697  0.5436  0.9329 -0.1884
  137MOL0     O18816   6.845   2.256   8.814 -0.7293 -0.0435 -0.2530
  137MOL0     C18817   7.032   2.432   8.887 -0.2603  0.7249 -0.0278
  137MOL0     C18818   7.107   2.516   8.960 -0.2223 -0.6205  0.6616
  137MOL0     N18819   7.509   3.015   9.105  0.5746 -0.8899 -0.2915
  137MOL0     N18820   7.444   3.078   9.018  0.3021  0.6551  0.5963
  137MOL0     C18821   6.365   2.556   8.610 -0.3421  0.6179  1.6352
  137MOL0     C18822   6.234   2.535   8.576  0.5298 -0.3196  1.3175
  137MOL0     C18823   5.794   2.630   8.460  0.4074  0.3870  0.0346
  137MOL0     C18824   5.707   2.720   8.395 -0.1247 -0.2427  0.1409
  137MOL0     C18825   5.587   2.676   8.343 -0.6395  0.3144 -0.0161
  137MOL0     C18826   5.543   2.546   8.364  0.2750  0.1858 -0.3616
  137MOL0     O18827   5.416   2.515   8.321  0.5643  0.0133 -0.1423
  137MOL0     C18828   5.324   2.442   8.412  0.2015  0.4497 -0.1091
  137MOL0     C18829   5.250   2.332   8.319 -1.5965 -0.8967 -1.0316
  137MOL0     C18830   5.183   2.382   8.195  0.6156  0.4254 -0.6538
  137MOL0     C18831   5.058   2.292   8.152 -0.1469  0.7408  0.6013
  137MOL0     C18832   4.944   2.272   8.248  0.3475 -0.4073  0.6369
  137MOL0     C18833   4.836   2.236   8.300 -0.8109  0.2996  0.0301
  137MOL0     C18834   5.626   2.452   8.436  0.1345 -0.7691  0.6714
  137MOL0     C18835   5.755   2.491   8.482  1.0445 -1.1295 -0.2592
  137MOL0     C18836   5.838   2.392   8.552 -0.2877  0.0089 -0.8374
  137MOL0     H18837   6.124   2.847   8.651  0.2726  0.9433 -3.0433
  137MOL0     H18838   6.344   2.886   8.701  2.4556 -0.8847  0.9790
  137MOL0     H18839   6.670   2.545   8.675 -0.9509 -0.0932 -0.3902
  137MOL0     H18840   6.573   2.595   8.817 -0.3638 -0.5246 -0.2309
  137MOL0     H18841   6.717   2.791   8.859  1.4533  3.0749 -3.9652
  137MOL0     H18842   6.804   2.635   8.866 -1.8588 -0.3763  0.2324
  137MOL0     H18843   6.900   2.659   8.663  1.6574 -0.6813  3.5158
  137MOL0     H18844   6.807   2.814   8.622 -0.3944  0.6244  1.5374
  137MOL0     H18845   6.963   2.822   8.872  1.4661  1.7571  1.0510
  137MOL0     H18846   7.061   2.820   8.728 -0.7568 -1.6769  1.4516
  137MOL0     H18847   6.857   3.017   8.821  0.1136  0.4436 -0.1803
  137MOL0     H18848   6.907   3.022   8.646 -1.1154  2.9617  1.0332
  137MOL0     H18849   7.130   3.057   8.705  2.0629 -1.9858  1.7976
  137MOL0     H18850   7.018   3.177   8.784 -3.2861 -0.4794 -2.3588
  137MOL0     H18851   7.174   2.939   8.899  0.8009  0.9078 -0.3277
  137MOL0     H18852   7.040   3.004   8.987  0.1380 -2.2194 -1.1275
  137MOL0     H18853   7.249   3.175   8.876 -1.2336 -2.0013 -1.2052
  137MOL0     H18854   7.151   3.208   9.023 -1.6425 -1.7188  0.0901
  137MOL0     H18855   7.196   2.983   9.218 -1.6653  1.3434 -1.8528
  137MOL0     H18856   7.366   2.927   9.404  0.5670  0.0560 -1.0470
  137MOL0     H18857   7.532   2.901   9.357  0.4508  0.3030  0.0935
  137MOL0     H18858   7.390   2.693   9.406 -0.8959 -0.0407  0.4632
  137MOL0     H18859   7.287   2.732   9.269 -0.9608 -1.5504  2.4275
  137MOL0     H18860   7.504   2.735   9.112  2.2372 -1.0906 -0.5979
  137MOL0     H18861   7.574   2.647   9.251 -0.3856  0.8330  0.9196
  137MOL0     H18862   7.481   2.500   9.071  1.8988  1.4431  0.7772
  137MOL0     H18863   7.415   2.483   9.238  0.3120 -1.2490 -1.2683
  137MOL0     H18864   7.354   2.295   9.041 -1.4017 -2.8482  0.7278
  137MOL0     H18865   7.173   2.021   8.943 -0.6269  0.3051 -2.3780
  137MOL0     H18866   7.325   2.089   8.987  0.5104  3.2533  1.0970
  137MOL0     H18867   7.283   2.093   8.816  1.6030 -0.5067  0.5255
  137MOL0     H18868   6.726   2.078   8.678  0.5872 -0.5576  0.9860
  137MOL0     H18869   6.620   1.901   8.564 -1.0102 -2.0106  1.5196
  137MOL0     H18870   6.559   1.718   8.441  0.1256  0.4781  2.4531
  137MOL0     H18871   6.716   1.722   8.340  1.5660 -2.6620 -1.6723
  137MOL0     H18872   6.712   1.471   8.350  0.2960 -1.0240  2.8458
  137MOL0     H18873   6.550   1.492   8.434 -1.8157  2.6751 -0.8996
  137MOL0     H18874   6.610   1.603   8.161  0.3865  2.4192  1.7501
  137MOL0     H18875   6.452   1.577   8.246  2.2498  1.4358  4.1742
  137MOL0     H18876   6.509   1.327   8.249  2.7994 -2.4242 -0.8908
  137MOL0     H18877   6.634   1.360   8.142  1.0008  2.2193  1.4101
  137MOL0     H18878   6.360   1.446   8.086  0.6828 -2.0743  0.0014
  137MOL0     H18879   6.495   1.483   7.984  3.6697 -0.0675  0.4586
  137MOL0     H18880   6.405   1.187   8.056  0.3061  1.0042  0.8765
  137MOL0     H18881   6.527   1.228   7.951 -0.4769 -2.0330  3.0390
  137MOL0     H18882   6.239   1.300   7.881  0.1108  0.0033  1.4792
  137MOL0     H18883   6.328   1.153   7.838  1.1865 -0.3399  1.6162
  137MOL0     H18884   6.433   1.431   7.770  0.9792 -0.1396 -2.6084
  137MOL0     H18885   6.336   1.321   7.656  1.3189  0.1141 -1.1251
  137MOL0     H18886   6.956   1.652   8.653 -1.6629 -0.3515 -2.6601
  137MOL0     H18887   7.080   1.853   8.735  0.2798 -0.0286  0.2644
  137MOL0     H18888   6.949   2.471   8.828  1.7366 -1.4705 -4.8561
  137MOL0     H18889   7.058   2.612   8.972 -3.4340 -1.9763 -0.6415
  137MOL0     H18890   6.440   2.480   8.590  1.1830  2.0022  1.9063
  137MOL0     H18891   6.190   2.444   8.537  1.4608 -0.8828  1.5540
  137MOL0     H18892   5.730   2.821   8.362 -2.0280  1.1211  2.6063
  137MOL0     H18893   5.541   2.749   8.277  1.0043  1.4213  0.0128
  137MOL0     H18894   5.369   2.400   8.502 -1.5411 -2.1501 -0.3220
  137MOL0     H18895   5.252   2.510   8.458  0.8359  0.1816  1.3144
  137MOL0     H18896   5.174   2.291   8.385  0.3671 -0.0044  1.9775
  137MOL0     H18897   5.333   2.268   8.287  2.6579  3.3768  0.2743
  137MOL0     H18898   5.146   2.485   8.199  1.0213  0.5612 -0.3014
  137MOL0     H18899   5.259   2.386   8.117 -0.6879  4.8507 -2.0289
  137MOL0     H18900   5.102   2.195   8.126 -0.1739 -0.3906  4.2759
  137MOL0     H18901   5.015   2.335   8.061 -0.4504  0.5347  0.6441
  137MOL0     H18902   4.738   2.214   8.336 -1.2113 -0.5471 -1.4776
  137MOL0     H18903   5.574   2.359   8.459 -2.9402  0.1676 -1.7483
  137MOL0     H18904   5.893   2.415   8.643 -1.0462 -1.6682  0.0823
  137MOL0     H18905   5.777   2.304   8.573  1.9457 -1.1740  1.2513
  137MOL0     H18906   5.913   2.361   8.478  1.3013 -0.8558  1.0400
  138MOL0     O18907   0.034  10.762   6.027 -0.1997  0.1405 -0.0452
  138MOL0     C18908  -0.087  10.792   6.043  1.1202  0.4909  0.0541
  138MOL0     O18909  -0.177  10.713   6.092  0.1757 -0.8438 -0.6940
  138MOL0     C18910  -0.140  10.626   6.191 -0.0419  1.3666 -1.0125
  138MOL0     C18911  -0.143  10.674   6.320 -0.0641 -0.1191  0.5573
  138MOL0     C18912  -0.126  10.578   6.419 -0.3126  0.2838 -0.5936
  138MOL0     C18913  -0.092  10.447   6.394 -0.0818  0.2461  0.0667
  138MOL0     O18914  -0.068  10.370   6.497 -0.1177  0.6125 -0.0302
  138MOL0     C18915  -0.035  10.231   6.467 -0.4453 -0.2410 -0.4099
  138MOL0     C18916   0.040  10.164   6.588  0.2852 -0.3011 -1.0300
  138MOL0     C18917   0.161  10.247   6.634  0.2727 -0.2046  0.7155
  138MOL0     C18918   0.244  10.170   6.731 -0.3577 -0.9933 -0.0969
  138MOL0     C18919   0.368  10.261   6.761 -0.2746 -0.3812 -0.8459
  138MOL0     C18920   0.448  10.219   6.882  0.2358 -0.1184 -1.2427
  138MOL0     C18921   0.577  10.296   6.877 -0.8112 -0.8611 -0.6488
  138MOL0     C18922   0.675  10.258   6.990  0.4213 -0.3669 -1.1093
  138MOL0     N18923   0.732  10.125   6.952 -0.3427  1.0911 -0.0403
  138MOL0     C18924   0.731  10.005   7.023  0.4425  0.2084  0.4725
  138MOL0     C18925   0.793   9.913   6.943  0.8069 -0.3622 -0.1662
  138MOL0     C18926   0.800   9.772   6.983 -0.1114 -0.2508 -0.2245
  138MOL0     C18927   0.936   9.737   7.055  0.5613  0.3120  0.0771
  138MOL0     C18928   0.905   9.616   7.148 -0.3796  0.6992  0.7438
  138MOL0     C18929   1.028   9.560   7.234 -0.3126 -0.3267  0.6367
  138MOL0     O18930   1.148   9.550   7.147  0.3999 -0.2266  0.0192
  138MOL0     C18931   1.256   9.498   7.214 -0.6186  0.9742  0.0267
  138MOL0     C18932   1.256   9.453   7.346 -0.7553 -0.2705 -0.1616
  138MOL0     C18933   1.359   9.379   7.400  0.1266 -1.0485 -0.6183
  138MOL0     C18934   1.336   9.338   7.543 -0.7173  0.7907  0.9326
  138MOL0     C18935   1.473   9.349   7.321  0.6222  0.9200 -0.2197
  138MOL0     C18936   1.585   9.286   7.376 -0.3918  0.4271 -0.7393
  138MOL0     O18937   1.672   9.240   7.281 -0.1643  0.0986 -0.8232
  138MOL0     C18938   1.771   9.150   7.317  0.4759 -0.1102 -0.0467
  138MOL0     C18939   1.757   9.033   7.399  0.2503 -1.1137  0.0651
  138MOL0     C18940   1.863   8.933   7.415  0.2424 -0.6758 -0.3233
  138MOL0     C18941   1.977   8.941   7.338 -1.5004 -0.2382  0.1829
  138MOL0     O18942   2.071   8.842   7.350  0.0557 -0.3381 -0.5118
  138MOL0     C18943   2.212   8.886   7.344 -0.5689  0.0180  0.2394
  138MOL0     C18944   2.312   8.778   7.387  1.2108 -0.3860  1.2457
  138MOL0     C18945   2.452   8.829   7.361  0.1123  0.7438  0.6018
  138MOL0     C18946   2.494   8.928   7.472 -1.0656  0.4256  0.1471
  138MOL0     C18947   2.647   8.955   7.474  0.5705  0.4922 -0.0216
  138MOL0     C18948   2.687   9.029   7.608  0.8521  0.2105 -0.0374
  138MOL0     C18949   2.653   8.950   7.732 -0.6001  0.1778  0.8597
  138MOL0     C18950   2.734   8.983   7.860 -0.8267 -0.3065  0.6017
  138MOL0    Cl18951   2.739   9.161   7.886  0.0958 -0.4992  0.0333
  138MOL0     C18952   1.994   9.046   7.250  0.1186 -0.6587 -0.8312
  138MOL0     C18953   1.891   9.152   7.241  0.1549  0.3267 -0.5604
  138MOL0     O18954   1.604   9.276   7.500 -0.8028  0.9652  0.0043
  138MOL0     C18955   1.471   9.400   7.188  0.1691 -0.1308 -0.4364
  138MOL0     C18956   1.361   9.465   7.139  0.3789 -0.6475 -0.3755
  138MOL0     N18957   0.827   9.976   6.827 -0.1109 -0.2739 -0.4271
  138MOL0     N18958   0.793  10.097   6.831  0.0990 -0.3705 -0.7108
  138MOL0     C18959  -0.103  10.404   6.264 -0.4589 -0.1316  0.5670
  138MOL0     C18960  -0.121  10.488   6.159 -1.0352 -0.4260  0.2737
  138MOL0     C18961  -0.134  10.921   5.986 -1.0170 -0.4511 -0.1697
  138MOL0     C18962  -0.044  11.033   6.000  0.9691 -0.0201  0.7132
  138MOL0     C18963  -0.071  11.158   5.953  0.4176 -1.0402 -0.0366
  138MOL0     C18964  -0.189  11.182   5.883 -0.1796  0.0022  0.9642
  138MOL0     O18965  -0.239  11.302   5.837 -0.8447  0.5136 -0.0336
  138MOL0     C18966  -0.187  11.425   5.892 -0.5750 -0.4847 -0.4177
  138MOL0     C18967  -0.055  11.476   5.822 -0.3533 -0.2190  0.5467
  138MOL0     C18968  -0.093  11.571   5.705 -1.1256 -0.4592 -0.0023
  138MOL0     C18969  -0.168  11.518   5.589 -0.8602 -0.1701 -0.1644
  138MOL0     C18970  -0.220  11.632   5.511  0.0868 -0.6581  0.3347
  138MOL0     C18971  -0.272  11.721   5.450  0.8882  0.3119 -0.0358
  138MOL0     C18972  -0.275  11.077   5.874 -0.1752 -0.7863  0.4740
  138MOL0     C18973  -0.252  10.947   5.916  1.1298  0.4983  0.0871
  138MOL0     C18974  -0.367  10.853   5.892 -0.1928  0.0802  1.0216
  138MOL0     H18975  -0.161  10.780   6.336  1.5529  0.3854 -0.7515
  138MOL0     H18976  -0.140  10.604   6.524  1.4526 -0.0501 -0.2476
  138MOL0     H18977   0.027  10.221   6.377 -3.4863 -0.8999 -2.5632
  138MOL0     H18978  -0.128  10.178   6.444  0.2601 -2.3597  1.3001
  138MOL0     H18979  -0.032  10.153   6.670  2.1091  5.2185  1.7970
  138MOL0     H18980   0.083  10.069   6.554 -1.6890 -0.8587 -2.1312
  138MOL0     H18981   0.220  10.280   6.547  0.1512  0.9729  1.0646
  138MOL0     H18982   0.128  10.346   6.666 -1.6856  0.0067 -1.6819
  138MOL0     H18983   0.176  10.159   6.816  1.3860  2.1915  1.9346
  138MOL0     H18984   0.263  10.069   6.696 -5.6238 -2.8755  1.5352
  138MOL0     H18985   0.335  10.364   6.778 -2.4149 -1.3554  1.6308
  138MOL0     H18986   0.430  10.256   6.671 -1.0347  0.6570 -1.4501
  138MOL0     H18987   0.406  10.252   6.977 -3.5635  1.1852 -3.1673
  138MOL0     H18988   0.459  10.110   6.879 -2.1174 -0.3888 -2.6877
  138MOL0     H18989   0.547  10.401   6.885 -1.8506 -1.2366  0.5895
  138MOL0     H18990   0.622  10.291   6.777 -1.7405  0.3534 -1.1450
  138MOL0     H18991   0.754  10.333   6.985  0.5387 -0.4696 -0.7707
  138MOL0     H18992   0.622  10.259   7.086 -1.1216  5.0812 -1.6699
  138MOL0     H18993   0.678   9.996   7.117  0.9449 -1.8435  0.6052
  138MOL0     H18994   0.804   9.706   6.895  0.5787 -0.1697 -0.2609
  138MOL0     H18995   0.710   9.751   7.041 -0.2413 -3.4643 -1.3793
  138MOL0     H18996   1.011   9.703   6.983 -2.5070 -1.1243 -2.7183
  138MOL0     H18997   0.961   9.822   7.119 -4.5482  1.2222  1.3612
  138MOL0     H18998   0.818   9.630   7.213 -0.0395  2.8071  0.8130
  138MOL0     H18999   0.872   9.550   7.067 -1.3597  3.9021 -1.6599
  138MOL0     H19000   1.046   9.624   7.321  1.0731  0.8996 -0.4916
  138MOL0     H19001   0.997   9.462   7.274 -0.9594  0.5262  2.3395
  138MOL0     H19002   1.175   9.490   7.409 -0.6160  1.3706 -0.8896
  138MOL0     H19003   1.357   9.231   7.548 -2.6309  0.3014 -0.3790
  138MOL0     H19004   1.230   9.350   7.565 -0.6437  1.4561  0.9417
  138MOL0     H19005   1.405   9.392   7.609  1.3768 -0.7063  0.1082
  138MOL0     H19006   1.674   9.017   7.467 -0.0290 -1.6198 -0.3800
  138MOL0     H19007   1.850   8.863   7.497 -0.6539 -1.7695 -1.3585
  138MOL0     H19008   2.223   8.902   7.236  0.3671 -3.5829 -0.3181
  138MOL0     H19009   2.219   8.983   7.395 -2.4756  2.3950 -3.5477
  138MOL0     H19010   2.283   8.743   7.487 -0.4798 -0.2192  0.8466
  138MOL0     H19011   2.294   8.694   7.320 -2.5378  0.1492  1.3731
  138MOL0     H19012   2.456   8.866   7.258 -0.8084  1.1088  0.6844
  138MOL0     H19013   2.523   8.747   7.376  1.3814  2.1477  2.9619
  138MOL0     H19014   2.461   8.880   7.565 -2.4929  3.1083  1.1187
  138MOL0     H19015   2.439   9.021   7.455  0.8343  1.2360 -2.0121
  138MOL0     H19016   2.697   8.858   7.476 -0.3760 -0.0027  1.8990
  138MOL0     H19017   2.679   9.005   7.382  1.2771  0.3191  0.1256
  138MOL0     H19018   2.639   9.127   7.603  1.9486  0.9483  2.4834
  138MOL0     H19019   2.794   9.052   7.610  0.7410  0.7105  1.9055
  138MOL0     H19020   2.672   8.846   7.705  3.8212  1.5730 -2.5150
  138MOL0     H19021   2.545   8.957   7.746 -0.6083 -0.2481  1.0270
  138MOL0     H19022   2.839   8.958   7.841 -0.5977 -1.7909  3.3483
  138MOL0     H19023   2.709   8.920   7.946  2.5941  0.7752  2.5876
  138MOL0     H19024   2.067   9.051   7.170  1.6437  1.5798  0.5981
  138MOL0     H19025   1.911   9.239   7.179  2.8650 -1.2872 -2.1314
  138MOL0     H19026   1.550   9.394   7.113 -0.6122 -1.1110 -1.2149
  138MOL0     H19027   1.368   9.485   7.032 -1.7236 -1.2882 -0.6824
  138MOL0     H19028  -0.099  10.299   6.236 -0.7387  0.3374 -1.4264
  138MOL0     H19029  -0.139  10.460   6.055  1.1220 -0.0303 -0.2577
  138MOL0     H19030   0.049  11.035   6.057  0.4398 -0.7158  1.6266
  138MOL0     H19031  -0.003  11.242   5.957 -0.7784  0.1052 -1.8801
  138MOL0     H19032  -0.268  11.499   5.890 -0.2909 -0.1601 -0.1050
  138MOL0     H19033  -0.157  11.416   5.997  2.2242  1.6292 -0.9108
  138MOL0     H19034   0.003  11.391   5.788  0.4322 -1.0622  3.6652
  138MOL0     H19035   0.007  11.526   5.898 -1.6128  0.9370  0.8562
  138MOL0     H19036  -0.137  11.662   5.746  1.3656  1.1280 -0.6563
  138MOL0     H19037  -0.002  11.611   5.659 -0.3193 -1.8262  0.3451
  138MOL0     H19038  -0.247  11.455   5.628  1.0097 -1.1082  2.3931
  138MOL0     H19039  -0.105  11.449   5.531 -3.0558 -0.5037 -2.3069
  138MOL0     H19040  -0.300  11.792   5.374 -1.1627  0.8334  1.1438
  138MOL0     H19041  -0.367  11.094   5.818  0.7375  0.8734 -0.6192
  138MOL0     H19042  -0.347  10.755   5.936 -1.4915 -0.4997  0.3749
  138MOL0     H19043  -0.450  10.892   5.952 -1.1125 -0.6753  0.2557
  138MOL0     H19044  -0.392  10.841   5.786  5.5520 -0.7506 -0.5824
  139MOL0     O19045   4.301  10.260   6.213 -0.8568 -0.0477  0.1362
  139MOL0     C19046   4.362  10.243   6.317 -0.0252  0.4789 -1.2463
  139MOL0     O19047   4.499  10.250   6.319  0.7016 -0.4375  0.0571
  139MOL0     C19048   4.561  10.285   6.196  0.5206 -0.0021  0.7389
  139MOL0     C19049   4.577  10.423   6.169 -0.5235  0.8069 -0.5671
  139MOL0     C19050   4.655  10.464   6.065 -0.5262 -0.6281  1.1776
  139MOL0     C19051   4.712  10.371   5.976 -0.1113  0.2731 -0.0894
  139MOL0     O19052   4.769  10.424   5.862 -0.3425  0.2626  0.2478
  139MOL0     C19053   4.828  10.343   5.766  0.0209 -0.7792  0.1197
  139MOL0     C19054   4.862  10.427   5.642 -0.1845 -0.3047  0.1907
  139MOL0     C19055   4.988  10.515   5.668 -0.0091  0.0785 -0.0497
  139MOL0     C19056   5.064  10.555   5.538  1.0275 -0.9328  0.4238
  139MOL0     C19057   5.180  10.475   5.507 -0.0656  0.1471 -0.1534
  139MOL0     C19058   5.292  10.466   5.616  0.4677  0.1308 -0.9486
  139MOL0     C19059   5.430  10.430   5.554 -0.2421 -0.6946 -0.1355
  139MOL0     C19060   5.437  10.310   5.453 -0.6740  0.1076 -0.8434
  139MOL0     N19061   5.585  10.283   5.433  0.3287  0.3744 -0.0407
  139MOL0     C19062   5.671  10.240   5.533  0.4860  0.2916 -0.5720
  139MOL0     C19063   5.790  10.249   5.488 -0.0513  0.2307  0.4176
  139MOL0     C19064   5.922  10.227   5.557 -0.2834 -0.7865 -0.0442
  139MOL0     C19065   5.926  10.120   5.665 -0.3617  0.6018 -0.0687
  139MOL0     C19066   5.901   9.971   5.625 -0.3486 -0.6488 -1.0304
  139MOL0     C19067   5.950   9.876   5.734 -0.7252 -0.1530 -0.1472
  139MOL0     O19068   5.947   9.745   5.671  0.3028  0.0311 -0.3333
  139MOL0     C19069   5.988   9.632   5.737  0.5045  0.1570  0.2971
  139MOL0     C19070   6.019   9.626   5.871  0.9021  0.0024 -0.0273
  139MOL0     C19071   6.078   9.519   5.938  0.4249 -0.5429  0.1783
  139MOL0     C19072   6.126   9.552   6.082  0.4342  0.1951  0.1166
  139MOL0     C19073   6.108   9.402   5.854  0.8806 -0.2718 -0.0706
  139MOL0     C19074   6.194   9.294   5.912 -0.4387  0.4497  0.2550
  139MOL0     O19075   6.211   9.278   6.046  0.3307 -0.9555  0.3359
  139MOL0     C19076   6.310   9.203   6.101 -0.0489  0.1711  0.2768
  139MOL0     C19077   6.274   9.080   6.139  0.2103  0.0408  0.2607
  139MOL0     C19078   6.363   9.008   6.223 -0.4544  0.3480  0.0203
  139MOL0     C19079   6.480   9.070   6.273 -0.9358  0.9255 -0.0856
  139MOL0     O19080   6.567   9.001   6.355 -0.4208 -0.3486  0.4336
  139MOL0     C19081   6.563   8.861   6.360 -0.6263  0.3867 -0.1992
  139MOL0     C19082   6.699   8.834   6.434 -0.2202  0.7438 -0.0632
  139MOL0     C19083   6.736   8.687   6.423 -0.2441 -0.3799  0.4509
  139MOL0     C19084   6.878   8.659   6.476  0.5498 -0.0023  0.1262
  139MOL0     C19085   6.920   8.514   6.463  0.2158 -0.5200 -0.1972
  139MOL0     C19086   6.814   8.412   6.516  0.7282  0.0854 -0.1329
  139MOL0     C19087   6.873   8.272   6.531 -0.0649 -1.1314 -0.4791
  139MOL0     C19088   6.773   8.170   6.585 -0.0452 -0.1474 -0.5224
  139MOL0    Cl19089   6.825   8.013   6.640  0.0175 -0.0477  0.1519
  139MOL0     C19090   6.516   9.196   6.225  0.9722  0.8109  0.0028
  139MOL0     C19091   6.427   9.266   6.144  0.0393  0.0813  0.2553
  139MOL0     O19092   6.236   9.219   5.826 -0.3499 -0.1981 -0.1830
  139MOL0     C19093   6.077   9.411   5.723 -0.9030 -0.4263 -0.2463
  139MOL0     C19094   6.010   9.518   5.666 -0.2248  0.0396  0.3616
  139MOL0     N19095   5.781  10.303   5.364 -0.5079  0.5312  0.4473
  139MOL0     N19096   5.659  10.321   5.324  0.1350  0.2859 -0.2553
  139MOL0     C19097   4.681  10.233   5.994 -0.8842 -0.2074  0.0058
  139MOL0     C19098   4.616  10.186   6.105  0.5893 -0.4764 -0.7141
  139MOL0     C19099   4.292  10.218   6.443  1.0352 -0.0818  0.5162
  139MOL0     C19100   4.358  10.254   6.557  0.0120  0.4884  0.6175
  139MOL0     C19101   4.293  10.252   6.678 -0.3355 -0.4499 -0.4220
  139MOL0     C19102   4.169  10.188   6.696 -1.2841 -0.3923 -0.4529
  139MOL0     O19103   4.109  10.185   6.822 -0.0186  0.8965  0.2246
  139MOL0     C19104   4.045  10.062   6.863 -0.3434  0.0678  0.5819
  139MOL0     C19105   3.973  10.093   6.988  0.1555  0.7969  0.0879
  139MOL0     C19106   4.057  10.121   7.110  0.2232 -0.0112  0.1816
  139MOL0     C19107   4.115  10.256   7.119  0.2240 -0.2075  0.2328
  139MOL0     C19108   4.127  10.290   7.263 -0.2015  1.1252  0.2515
  139MOL0     C19109   4.132  10.351   7.372 -0.5656 -0.2045  0.1605
  139MOL0     C19110   4.107  10.138   6.588  0.5175  0.5779  0.4277
  139MOL0     C19111   4.165  10.151   6.460  0.6305 -0.5562  0.1482
  139MOL0     C19112   4.079  10.094   6.343 -0.6669  0.1508 -1.1100
  139MOL0     H19113   4.544  10.490   6.247 -0.3390 -0.8394  1.0006
  139MOL0     H19114   4.669  10.569   6.043 -0.4313 -0.9392 -0.3728
  139MOL0     H19115   4.757  10.267   5.734  1.6900 -1.8799 -1.2062
  139MOL0     H19116   4.921  10.300   5.803  0.4622 -0.0881 -0.1514
  139MOL0     H19117   4.888  10.359   5.560 -0.5234  0.3213 -0.4549
  139MOL0     H19118   4.789  10.505   5.617  1.9636  1.2088 -1.8970
  139MOL0     H19119   4.967  10.607   5.725 -1.3258 -0.0016 -0.3555
  139MOL0     H19120   5.049  10.445   5.725 -0.9131 -0.5916  0.1160
  139MOL0     H19121   4.996  10.566   5.453 -0.1619  2.2136  1.6024
  139MOL0     H19122   5.098  10.659   5.545 -1.5690  0.2558 -2.2888
  139MOL0     H19123   5.223  10.509   5.413  1.5460 -2.5364 -0.5062
  139MOL0     H19124   5.143  10.372   5.494  0.3468 -0.1306  0.7687
  139MOL0     H19125   5.294  10.562   5.669 -2.4179 -0.4757  0.5051
  139MOL0     H19126   5.270  10.395   5.696  1.3736  0.3020 -0.5266
  139MOL0     H19127   5.489  10.398   5.640  1.0759  1.3552 -0.2036
  139MOL0     H19128   5.469  10.521   5.507  1.2968 -1.3738 -0.2115
  139MOL0     H19129   5.384  10.228   5.502 -0.8750  1.2579  0.9327
  139MOL0     H19130   5.397  10.337   5.354  1.0224  2.8237 -0.9013
  139MOL0     H19131   5.639  10.213   5.633 -0.1267  2.6358 -0.0704
  139MOL0     H19132   5.958  10.322   5.599  3.1821 -1.1354 -1.9190
  139MOL0     H19133   5.996  10.197   5.483  3.2747  0.5099  2.6824
  139MOL0     H19134   6.015  10.138   5.724  1.4611  2.3634 -3.0731
  139MOL0     H19135   5.849  10.157   5.733 -2.4300 -0.9615 -1.4086
  139MOL0     H19136   5.794   9.951   5.615 -0.9109  0.8859  1.2088
  139MOL0     H19137   5.948   9.943   5.530  0.3745 -2.5566 -0.1457
  139MOL0     H19138   6.051   9.904   5.765 -0.6616 -0.4199 -0.1143
  139MOL0     H19139   5.883   9.879   5.821  0.7546  0.3068  1.0142
  139MOL0     H19140   6.011   9.716   5.931 -0.4328  0.5294 -0.9511
  139MOL0     H19141   6.234   9.558   6.095  0.4813  0.6688 -0.4557
  139MOL0     H19142   6.087   9.468   6.140  1.9943  0.2472  1.2857
  139MOL0     H19143   6.077   9.643   6.119 -1.7838 -0.7401 -0.3338
  139MOL0     H19144   6.181   9.040   6.099  2.8533 -2.1801 -4.4519
  139MOL0     H19145   6.325   8.913   6.260  0.6238 -0.0724  0.1095
  139MOL0     H19146   6.479   8.812   6.410 -0.6468  0.6516  0.0245
  139MOL0     H19147   6.576   8.815   6.261  1.3966  1.1932 -0.3629
  139MOL0     H19148   6.777   8.895   6.387  1.3212  0.0697  1.4924
  139MOL0     H19149   6.703   8.856   6.541 -0.5379  1.0523 -0.1148
  139MOL0     H19150   6.726   8.650   6.320 -0.7936  0.5665  0.1506
  139MOL0     H19151   6.662   8.629   6.480 -2.7340  2.3639  0.2519
  139MOL0     H19152   6.873   8.699   6.578  2.9093  1.8829 -0.3964
  139MOL0     H19153   6.952   8.717   6.419  1.8703  0.7056  2.4155
  139MOL0     H19154   6.944   8.490   6.359 -0.0993 -0.3963 -0.3002
  139MOL0     H19155   7.010   8.511   6.524 -1.5704  0.5371  2.6505
  139MOL0     H19156   6.729   8.404   6.447  1.1566 -2.6197 -0.4549
  139MOL0     H19157   6.773   8.436   6.615 -1.3343  1.1787 -1.1842
  139MOL0     H19158   6.962   8.269   6.595 -1.1888 -5.3083  1.1772
  139MOL0     H19159   6.910   8.241   6.433  2.1437  0.0182 -0.0836
  139MOL0     H19160   6.713   8.153   6.495 -1.2067 -1.8697  0.5218
  139MOL0     H19161   6.712   8.209   6.667  1.6860 -2.4184  2.0122
  139MOL0     H19162   6.609   9.241   6.257  3.9014 -2.9262 -2.4209
  139MOL0     H19163   6.437   9.369   6.112 -1.7350  0.3501  0.4948
  139MOL0     H19164   6.099   9.332   5.651 -2.2972  0.3362 -1.5559
  139MOL0     H19165   5.999   9.531   5.559  0.5482  0.2392  0.3012
  139MOL0     H19166   4.730  10.157   5.934  0.7229  0.9501 -0.2149
  139MOL0     H19167   4.583  10.084   6.123  0.5530 -0.2767  0.4049
  139MOL0     H19168   4.451  10.306   6.536  0.6073 -1.0973 -0.9382
  139MOL0     H19169   4.347  10.291   6.763 -1.2757  1.6452 -0.7290
  139MOL0     H19170   3.968  10.018   6.798  0.6373 -0.2063 -0.4380
  139MOL0     H19171   4.114   9.978   6.874 -0.9869 -0.4874  0.4974
  139MOL0     H19172   3.917  10.000   7.002  0.2474  0.7934  0.4414
  139MOL0     H19173   3.904  10.178   6.988  0.3699  1.0177  1.8697
  139MOL0     H19174   3.998  10.079   7.192  1.2651 -0.6637  0.6263
  139MOL0     H19175   4.147  10.059   7.117  0.8123  1.0344  3.8457
  139MOL0     H19176   4.065  10.337   7.064  1.9202 -0.6468 -2.0701
  139MOL0     H19177   4.214  10.252   7.074 -0.0482  0.5373 -0.4560
  139MOL0     H19178   4.139  10.406   7.464 -0.9121 -0.5631  0.4025
  139MOL0     H19179   4.010  10.091   6.598  1.2288 -2.1407 -3.1731
  139MOL0     H19180   4.142  10.051   6.265  3.6356 -1.5737  2.8334
  139MOL0     H19181   4.017  10.009   6.374  0.1358  0.2038  0.8393
  139MOL0     H19182   4.010  10.172   6.310  1.2752  2.1270 -0.7462
  140MOL0     O19183   6.908   3.685   0.230 -0.2744 -0.2054  0.2568
  140MOL0     C19184   6.824   3.764   0.265 -0.5440 -0.1558  0.0337
  140MOL0     O19185   6.747   3.841   0.180 -0.2604  1.0485 -0.4377
  140MOL0     C19186   6.785   3.837   0.049 -0.6003 -0.4846  0.9212
  140MOL0     C19187   6.862   3.940  -0.012 -0.3511 -0.8435 -0.1765
  140MOL0     C19188   6.883   3.941  -0.148  0.8368 -0.9133 -1.1382
  140MOL0     C19189   6.826   3.838  -0.236 -0.1041 -0.4485 -0.4398
  140MOL0     O19190   6.835   3.833  -0.370  0.0113 -0.4423  0.0723
  140MOL0     C19191   6.825   3.956  -0.442 -0.7696  0.3044  0.2786
  140MOL0     C19192   6.780   3.933  -0.594  0.9728  0.2186 -0.3446
  140MOL0     C19193   6.893   3.842  -0.658  0.9769  0.8039 -0.1452
  140MOL0     C19194   6.866   3.817  -0.806  0.1590  0.1251  1.0732
  140MOL0     C19195   6.984   3.733  -0.865  0.2174 -0.3402 -0.2374
  140MOL0     C19196   6.956   3.672  -0.998 -1.0068 -0.3409 -0.2196
  140MOL0     C19197   6.944   3.771  -1.116  0.2200  0.3131 -0.5583
  140MOL0     C19198   6.962   3.696  -1.260  0.6975 -0.5782 -0.6440
  140MOL0     N19199   6.919   3.787  -1.374  0.5200 -0.2905  0.0071
  140MOL0     C19200   6.983   3.897  -1.420 -0.4947  1.2158 -0.3165
  140MOL0     C19201   6.920   3.946  -1.526 -1.5636 -0.5422  0.0561
  140MOL0     C19202   7.002   4.044  -1.605  1.2842  0.7425  0.4843
  140MOL0     C19203   6.927   4.087  -1.732  0.6642  0.2393 -0.4464
  140MOL0     C19204   6.990   4.213  -1.802  0.2976 -0.7615 -0.6070
  140MOL0     C19205   6.939   4.245  -1.938 -0.2788  0.5506 -0.1275
  140MOL0     O19206   6.998   4.362  -1.993 -0.9035 -0.0292 -0.2444
  140MOL0     C19207   7.014   4.380  -2.127  0.0617  0.5503  0.8751
  140MOL0     C19208   7.027   4.509  -2.182  0.7022 -0.1650  0.2012
  140MOL0     C19209   7.032   4.524  -2.324 -0.7082 -1.0910  0.1892
  140MOL0     C19210   7.063   4.664  -2.358  0.2556 -1.0084 -0.5481
  140MOL0     C19211   7.023   4.416  -2.414 -0.2377  0.2969  0.0415
  140MOL0     C19212   7.036   4.435  -2.560  0.9350  0.8969  0.1191
  140MOL0     O19213   6.934   4.379  -2.634 -0.0241  0.7825  0.0525
  140MOL0     C19214   6.954   4.360  -2.770 -0.0932 -0.5471 -0.1161
  140MOL0     C19215   6.907   4.460  -2.862  1.2955  0.0476 -1.2139
  140MOL0     C19216   6.950   4.457  -2.992  0.0781 -1.1885  0.4727
  140MOL0     C19217   7.051   4.374  -3.045  0.9169  0.1216 -0.8701
  140MOL0     O19218   7.098   4.380  -3.173 -0.2571 -0.0048 -1.1676
  140MOL0     C19219   7.019   4.425  -3.281 -0.8931 -0.2078  0.4764
  140MOL0     C19220   6.885   4.352  -3.292 -0.2963 -0.3596 -0.4122
  140MOL0     C19221   6.804   4.398  -3.407  1.1882 -0.7978 -0.5424
  140MOL0     C19222   6.705   4.294  -3.454 -0.0440  0.7301  0.3185
  140MOL0     C19223   6.556   4.313  -3.402  0.0305  0.2939  0.5541
  140MOL0     C19224   6.454   4.229  -3.487 -0.0366 -0.5456  0.1779
  140MOL0     C19225   6.458   4.083  -3.445 -0.6422  1.0047  0.2533
  140MOL0     C19226   6.353   4.006  -3.529 -0.8335 -0.6470  0.0326
  140MOL0    Cl19227   6.330   3.850  -3.447  0.0837 -0.0753  0.0384
  140MOL0     C19228   7.092   4.280  -2.958  0.1754  0.2353 -0.4590
  140MOL0     C19229   7.045   4.275  -2.822  0.4680 -0.2480  0.0581
  140MOL0     O19230   7.135   4.481  -2.613  0.2668  0.2932 -0.4827
  140MOL0     C19231   7.012   4.287  -2.365  0.1353  0.3479  0.1489
  140MOL0     C19232   7.000   4.276  -2.222 -1.0294  0.5681  0.3653
  140MOL0     N19233   6.828   3.850  -1.556  0.7460 -0.2318 -0.8839
  140MOL0     N19234   6.817   3.758  -1.464 -0.6598  0.9161 -0.8684
  140MOL0     C19235   6.768   3.727  -0.176 -0.0676 -0.7712 -0.7813
  140MOL0     C19236   6.740   3.733  -0.033  0.4645 -0.3590 -0.0216
  140MOL0     C19237   6.780   3.759   0.413  0.3654  0.6491  0.2598
  140MOL0     C19238   6.659   3.834   0.444  0.0690  0.0259 -1.1145
  140MOL0     C19239   6.606   3.859   0.574 -0.1795 -0.9256 -0.3918
  140MOL0     C19240   6.669   3.800   0.680  0.0529  0.7117 -0.6034
  140MOL0     O19241   6.636   3.814   0.817  0.4454 -0.0065  0.6223
  140MOL0     C19242   6.533   3.900   0.855 -0.3159  0.3880  0.4220
  140MOL0     C19243   6.565   3.952   0.998  0.8018 -0.3407 -0.0690
  140MOL0     C19244   6.460   4.065   1.029  0.7150 -0.4175  0.4867
  140MOL0     C19245   6.487   4.099   1.178  0.1583  0.0835  0.1059
  140MOL0     C19246   6.408   4.210   1.239  0.1862 -0.7333  0.5636
  140MOL0     C19247   6.348   4.299   1.288 -0.6740 -0.4254  0.4807
  140MOL0     C19248   6.792   3.726   0.658  0.8742 -0.3500  0.1401
  140MOL0     C19249   6.842   3.708   0.529 -0.3791  0.4357 -0.2363
  140MOL0     C19250   6.980   3.648   0.520  0.2029 -0.7674  0.4292
  140MOL0     H19251   6.905   4.024   0.041 -4.6907  1.9875 -0.6918
  140MOL0     H19252   6.937   4.022  -0.196 -1.3407  0.4127 -1.5080
  140MOL0     H19253   6.921   4.008  -0.442 -0.4490 -0.1696  2.6363
  140MOL0     H19254   6.763   4.032  -0.392  0.3650  0.4087  1.5812
  140MOL0     H19255   6.685   3.879  -0.602 -0.2875  2.5621 -2.5981
  140MOL0     H19256   6.761   4.036  -0.627 -2.2038 -0.3318 -0.5174
  140MOL0     H19257   6.988   3.896  -0.648 -0.2563  3.3150 -1.0761
  140MOL0     H19258   6.895   3.743  -0.613 -2.4323 -0.4570 -2.3745
  140MOL0     H19259   6.774   3.765  -0.836 -0.8114  2.4452 -0.2352
  140MOL0     H19260   6.862   3.911  -0.862  1.9600 -1.4595 -1.9778
  140MOL0     H19261   6.983   3.647  -0.798  1.5771  0.4097  0.7856
  140MOL0     H19262   7.079   3.785  -0.850  0.8437 -1.4895 -0.1291
  140MOL0     H19263   7.035   3.598  -1.015 -0.3928 -0.6735  3.3307
  140MOL0     H19264   6.857   3.625  -0.999  0.1803 -3.0190 -0.6395
  140MOL0     H19265   7.033   3.834  -1.103  0.5761 -0.1707 -0.6261
  140MOL0     H19266   6.853   3.832  -1.115 -1.9896 -2.7105 -1.6550
  140MOL0     H19267   7.064   3.660  -1.273  0.2945 -2.1846  0.3873
  140MOL0     H19268   6.895   3.610  -1.258 -0.4643  0.3088  0.2089
  140MOL0     H19269   7.073   3.948  -1.387 -0.0849  0.7730 -0.7299
  140MOL0     H19270   7.103   4.008  -1.624  0.6459 -1.8992  1.6621
  140MOL0     H19271   7.016   4.135  -1.545  4.5758 -0.1802  1.3042
  140MOL0     H19272   6.909   4.003  -1.800 -0.2339 -2.6487  3.0788
  140MOL0     H19273   6.827   4.122  -1.706  0.3384  1.6488 -3.2240
  140MOL0     H19274   6.969   4.303  -1.743  0.4175 -1.0734 -0.0800
  140MOL0     H19275   7.099   4.206  -1.805  0.3010 -1.4154  0.5335
  140MOL0     H19276   6.962   4.155  -1.996 -0.8077  1.3231 -1.5772
  140MOL0     H19277   6.830   4.251  -1.934 -0.2193  1.4430  0.2591
  140MOL0     H19278   7.042   4.593  -2.115  0.9003 -1.3565  1.7234
  140MOL0     H19279   7.010   4.699  -2.447  1.2807 -0.6851 -1.0534
  140MOL0     H19280   7.168   4.684  -2.384  0.0264  3.8112  1.1765
  140MOL0     H19281   7.027   4.727  -2.276 -2.0947 -0.0287 -2.2117
  140MOL0     H19282   6.827   4.526  -2.830  0.2287 -0.9494 -1.7801
  140MOL0     H19283   6.902   4.526  -3.061 -0.8213 -0.3132  1.9088
  140MOL0     H19284   7.005   4.533  -3.276 -0.0942 -0.1069  0.7221
  140MOL0     H19285   7.079   4.395  -3.367 -0.0052  3.1227 -0.1781
  140MOL0     H19286   6.903   4.245  -3.302  1.4341 -0.2250  0.7748
  140MOL0     H19287   6.821   4.366  -3.204 -2.8771 -1.7590 -1.9445
  140MOL0     H19288   6.867   4.438  -3.487 -1.6023  3.8246 -0.8217
  140MOL0     H19289   6.750   4.487  -3.372  0.8696 -0.4673 -1.8378
  140MOL0     H19290   6.733   4.197  -3.413 -0.5446  1.1394  1.6970
  140MOL0     H19291   6.710   4.285  -3.563 -0.5514  0.7335  0.2942
  140MOL0     H19292   6.559   4.291  -3.294  4.1532 -4.2338 -0.1257
  140MOL0     H19293   6.539   4.421  -3.406 -2.3970 -0.0632 -0.4612
  140MOL0     H19294   6.465   4.243  -3.595 -2.3819 -0.1263 -0.0605
  140MOL0     H19295   6.350   4.254  -3.465 -1.0720 -2.9189 -1.5996
  140MOL0     H19296   6.434   4.073  -3.339 -2.7529  0.6685 -0.2264
  140MOL0     H19297   6.555   4.034  -3.456 -1.9499 -1.4507 -1.3305
  140MOL0     H19298   6.381   4.002  -3.635 -1.4765 -1.9608 -0.1076
  140MOL0     H19299   6.260   4.064  -3.529  0.1973  1.0679  0.8253
  140MOL0     H19300   7.157   4.197  -2.982 -2.6333 -1.4308 -2.7708
  140MOL0     H19301   7.085   4.197  -2.758 -0.4237  0.1810  1.1761
  140MOL0     H19302   6.998   4.207  -2.436 -4.7342  0.4130  0.7115
  140MOL0     H19303   6.981   4.177  -2.183 -1.9800  0.7588  0.3940
  140MOL0     H19304   6.755   3.636  -0.235  0.4664 -0.7285 -0.9697
  140MOL0     H19305   6.681   3.657   0.016 -0.8821  0.5882 -0.1145
  140MOL0     H19306   6.606   3.889   0.367 -0.4502  1.3636  0.1413
  140MOL0     H19307   6.516   3.917   0.592  1.6310  1.8380  0.4184
  140MOL0     H19308   6.518   3.979   0.781  1.4049 -0.9614 -1.4872
  140MOL0     H19309   6.443   3.839   0.849 -1.5201  2.0706  0.5871
  140MOL0     H19310   6.665   3.993   1.007  1.8972 -3.1302  2.4062
  140MOL0     H19311   6.577   3.868   1.068  1.7705 -0.0021  0.1831
  140MOL0     H19312   6.473   4.160   0.976  1.8110  0.5951  2.4528
  140MOL0     H19313   6.357   4.028   1.021  0.3138  0.9116 -1.1635
  140MOL0     H19314   6.596   4.108   1.185  0.3989 -3.0973  2.2463
  140MOL0     H19315   6.459   4.019   1.247  0.2129  3.1317  4.0328
  140MOL0     H19316   6.301   4.391   1.316  2.1286  1.3567 -0.2981
  140MOL0     H19317   6.863   3.701   0.735  2.6667 -0.3227 -1.4183
  140MOL0     H19318   7.040   3.736   0.492 -1.5888  0.6610  0.8438
  140MOL0     H19319   7.006   3.594   0.612 -0.7599  0.7374  1.6466
  140MOL0     H19320   6.993   3.572   0.444 -1.8971 -2.3628  1.5592
  141MOL0     O19321   0.486   0.604   6.524 -0.3073 -0.0210 -0.1471
  141MOL0     C19322   0.459   0.582   6.403  0.4672 -0.9035 -1.2454
  141MOL0     O19323   0.527   0.486   6.333 -0.7430 -0.1141  0.5440
  141MOL0     C19324   0.620   0.410   6.409 -0.1380  0.2640  0.0439
  141MOL0     C19325   0.567   0.307   6.484 -0.3433  0.5225  0.2169
  141MOL0     C19326   0.638   0.216   6.560 -0.6032 -0.3432  0.4987
  141MOL0     C19327   0.775   0.224   6.553 -0.4379 -0.0470 -0.3846
  141MOL0     O19328   0.844   0.119   6.607  0.1749 -0.1084 -0.0401
  141MOL0     C19329   0.983   0.090   6.572 -0.2087 -0.3961 -0.1499
  141MOL0     C19330   1.030   0.016   6.693 -0.8080 -0.3509 -0.5888
  141MOL0     C19331   1.191   0.023   6.687  0.2130  0.2212 -0.6033
  141MOL0     C19332   1.245  -0.027   6.817  0.6409 -0.0887  0.0144
  141MOL0     C19333   1.379   0.032   6.867  0.3391 -0.1705 -0.4678
  141MOL0     C19334   1.503   0.000   6.790  0.6396 -0.0672 -0.3400
  141MOL0     C19335   1.631   0.040   6.863  0.3034  0.3388 -0.0074
  141MOL0     C19336   1.753  -0.022   6.788  0.3213  0.0853 -0.2611
  141MOL0     N19337   1.806   0.055   6.679  0.5509 -0.4323  0.2888
  141MOL0     C19338   1.916   0.124   6.689 -0.5621  0.0158  0.1346
  141MOL0     C19339   1.919   0.192   6.575 -0.6904 -0.9643  0.2114
  141MOL0     C19340   2.040   0.255   6.513  0.3674 -0.8548  0.3033
  141MOL0     C19341   2.108   0.157   6.418 -1.6106 -0.6675 -0.2466
  141MOL0     C19342   2.040   0.115   6.292 -0.3303 -0.2849 -0.1303
  141MOL0     C19343   2.131   0.033   6.197 -0.0234 -0.4035 -0.0852
  141MOL0     O19344   2.067   0.039   6.068  0.7084 -1.0920  0.9484
  141MOL0     C19345   1.965  -0.046   6.037  0.2445  0.2001 -0.1693
  141MOL0     C19346   1.886  -0.015   5.928 -0.0529 -0.7469  0.0071
  141MOL0     C19347   1.786  -0.102   5.882 -0.0242 -0.4076  0.1495
  141MOL0     C19348   1.702  -0.077   5.763  0.2411  0.0149  0.7234
  141MOL0     C19349   1.747  -0.210   5.961 -0.8857  0.3980  0.7195
  141MOL0     C19350   1.636  -0.309   5.939  0.8916  0.0131  0.1068
  141MOL0     O19351   1.575  -0.361   6.052 -1.2913  0.2036 -0.2209
  141MOL0     C19352   1.495  -0.461   6.039  0.7952  0.6149 -0.3845
  141MOL0     C19353   1.529  -0.593   6.080  0.5293 -1.5960 -1.3391
  141MOL0     C19354   1.455  -0.706   6.048  0.5128 -0.3052  0.5200
  141MOL0     C19355   1.335  -0.698   5.990 -0.4522 -0.0747  0.1788
  141MOL0     O19356   1.248  -0.801   5.973 -0.1604 -0.6505  0.0761
  141MOL0     C19357   1.296  -0.939   5.981 -0.5499  0.5977  0.1157
  141MOL0     C19358   1.158  -1.016   5.990 -0.3390 -0.2185  0.7397
  141MOL0     C19359   1.170  -1.156   5.947  0.5529 -0.3325  0.0932
  141MOL0     C19360   1.036  -1.222   5.913  0.7080  0.1944 -0.1386
  141MOL0     C19361   1.038  -1.370   5.889 -0.1583 -0.1353 -0.4609
  141MOL0     C19362   0.900  -1.428   5.874  0.2311  0.2588  0.2173
  141MOL0     C19363   0.895  -1.578   5.863  0.4325  0.8750 -0.5651
  141MOL0     C19364   1.008  -1.651   5.943  1.0095  0.5397 -0.7705
  141MOL0    Cl19365   0.956  -1.655   6.114  0.0763 -0.0743 -0.3319
  141MOL0     C19366   1.295  -0.568   5.954 -0.0927  0.3963  0.0575
  141MOL0     C19367   1.375  -0.459   5.974 -0.1301 -0.2392  0.7606
  141MOL0     O19368   1.609  -0.346   5.822 -0.3723  0.3753 -0.1827
  141MOL0     C19369   1.833  -0.236   6.065  0.7684 -0.0081  0.7427
  141MOL0     C19370   1.938  -0.161   6.103  0.2939 -0.2586  0.6984
  141MOL0     N19371   1.811   0.163   6.498 -0.2742 -0.2116 -0.5596
  141MOL0     N19372   1.740   0.082   6.567 -0.5453 -0.3238  0.0998
  141MOL0     C19373   0.843   0.326   6.473 -0.2207 -0.3651 -1.0096
  141MOL0     C19374   0.762   0.422   6.403 -0.1767 -0.0919 -0.0685
  141MOL0     C19375   0.347   0.656   6.351  0.4230  0.1984 -0.4602
  141MOL0     C19376   0.298   0.772   6.420 -0.0782 -0.0465  0.3316
  141MOL0     C19377   0.183   0.841   6.394  0.2144  0.0848  0.9866
  141MOL0     C19378   0.101   0.788   6.295  0.9343  0.4728  0.0604
  141MOL0     O19379  -0.014   0.867   6.273 -0.1264  0.4084  0.0753
  141MOL0     C19380  -0.120   0.825   6.173 -1.1077 -0.3897 -0.3184
  141MOL0     C19381  -0.106   0.915   6.044 -0.5317 -0.7367 -0.0246
  141MOL0     C19382  -0.095   1.070   6.084 -0.2585  0.0427 -0.2140
  141MOL0     C19383  -0.065   1.153   5.959 -0.2989 -0.1672 -0.0494
  141MOL0     C19384  -0.184   1.161   5.876 -0.0961 -0.1213  0.2304
  141MOL0     C19385  -0.284   1.155   5.815  0.1750 -0.0777 -0.5219
  141MOL0     C19386   0.128   0.663   6.231 -0.2055 -0.7030  1.0654
  141MOL0     C19387   0.251   0.604   6.249 -0.7339  0.2809  0.3863
  141MOL0     C19388   0.275   0.473   6.170 -0.2491  0.1498  0.3329
  141MOL0     H19389   0.459   0.295   6.480 -0.3584  0.8471 -3.0673
  141MOL0     H19390   0.586   0.146   6.624  0.7332  3.0322  5.9650
  141MOL0     H19391   1.040   0.182   6.555  2.0497 -1.8039 -0.6571
  141MOL0     H19392   0.990   0.031   6.480  2.6168  0.7569 -0.7588
  141MOL0     H19393   0.999   0.061   6.788  0.8034  0.1060 -0.2479
  141MOL0     H19394   0.989  -0.083   6.673 -0.2310 -0.5456 -0.8160
  141MOL0     H19395   1.229  -0.040   6.607  1.0181  2.1661 -1.8285
  141MOL0     H19396   1.241   0.119   6.672  1.6186 -0.0409  1.9772
  141MOL0     H19397   1.176   0.005   6.896 -0.3246  1.5087 -1.4034
  141MOL0     H19398   1.252  -0.136   6.815 -2.7301 -0.3829 -1.4203
  141MOL0     H19399   1.396  -0.007   6.968 -1.6186 -0.8615 -0.3534
  141MOL0     H19400   1.368   0.141   6.862 -6.5820 -0.3197  0.9299
  141MOL0     H19401   1.505  -0.105   6.761  4.1901 -0.3643  0.4845
  141MOL0     H19402   1.497   0.060   6.698 -0.5272 -1.8073 -1.4512
  141MOL0     H19403   1.634  -0.010   6.960 -1.7259 -0.4917 -0.3243
  141MOL0     H19404   1.646   0.149   6.866  0.3034  0.3790 -1.0917
  141MOL0     H19405   1.836  -0.042   6.856 -2.2485 -0.1546  3.0312
  141MOL0     H19406   1.725  -0.116   6.740 -0.6593  1.3841 -2.4315
  141MOL0     H19407   1.998   0.117   6.760  0.1876  1.4556 -0.5397
  141MOL0     H19408   2.112   0.300   6.582  0.1429 -1.6419  1.0679
  141MOL0     H19409   2.001   0.345   6.466 -1.7328 -0.8337  1.9188
  141MOL0     H19410   2.209   0.185   6.387 -0.7389 -3.9947 -0.8645
  141MOL0     H19411   2.129   0.066   6.476 -1.8514 -3.8866 -4.7075
  141MOL0     H19412   1.961   0.046   6.321 -0.6531  0.7821  1.7041
  141MOL0     H19413   1.984   0.195   6.243 -2.5566 -2.7202 -1.8365
  141MOL0     H19414   2.231   0.077   6.192  0.8998 -2.5022 -1.9832
  141MOL0     H19415   2.145  -0.073   6.221 -1.4803 -0.9006 -1.2876
  141MOL0     H19416   1.914   0.072   5.870 -4.2501  0.1436 -1.0393
  141MOL0     H19417   1.719   0.022   5.720 -0.8500  0.6873  1.8012
  141MOL0     H19418   1.595  -0.097   5.772  0.4742 -1.6578  0.1154
  141MOL0     H19419   1.734  -0.151   5.689  3.3839  1.8005  0.0893
  141MOL0     H19420   1.618  -0.607   6.139  0.6901  0.8583 -0.9069
  141MOL0     H19421   1.485  -0.801   6.091 -2.7228 -1.6717  0.0808
  141MOL0     H19422   1.350  -0.976   5.893  1.3259  1.3806  0.8953
  141MOL0     H19423   1.352  -0.972   6.069  0.8547 -4.1140 -2.1907
  141MOL0     H19424   1.125  -1.007   6.094  2.0157 -0.4821  1.5660
  141MOL0     H19425   1.081  -0.976   5.923 -0.9688 -1.1865  0.8785
  141MOL0     H19426   1.212  -1.213   6.031 -1.9778 -0.6907  1.2305
  141MOL0     H19427   1.221  -1.169   5.851  0.2015  4.5924 -1.0206
  141MOL0     H19428   0.994  -1.172   5.825  1.9375  2.0280  0.2357
  141MOL0     H19429   0.951  -1.202   5.979  0.1158 -1.4123 -0.3733
  141MOL0     H19430   1.104  -1.382   5.802  2.6316  0.8051  1.3663
  141MOL0     H19431   1.082  -1.415   5.978 -0.0636 -1.0742 -0.9747
  141MOL0     H19432   0.842  -1.384   5.793  1.0200 -1.8403 -1.6296
  141MOL0     H19433   0.844  -1.386   5.957  0.4714  2.9480 -0.8706
  141MOL0     H19434   0.903  -1.610   5.758  1.2864 -1.7268  0.2271
  141MOL0     H19435   0.795  -1.604   5.899  0.9394 -1.0620 -0.4507
  141MOL0     H19436   1.109  -1.609   5.939  0.6563  2.9699  5.2377
  141MOL0     H19437   1.013  -1.751   5.900  2.6884  1.0483 -1.8510
  141MOL0     H19438   1.194  -0.556   5.917  0.5462  1.6377 -1.3644
  141MOL0     H19439   1.336  -0.364   5.938  1.7362  0.5562  0.7325
  141MOL0     H19440   1.809  -0.323   6.125 -0.2649  0.3554  0.8761
  141MOL0     H19441   1.994  -0.181   6.194  0.6049  4.2921  1.7901
  141MOL0     H19442   0.950   0.336   6.464 -0.0260 -0.1495  1.1537
  141MOL0     H19443   0.808   0.489   6.331 -1.5528  0.3838 -0.5338
  141MOL0     H19444   0.361   0.811   6.499  0.8222 -1.7834  0.5215
  141MOL0     H19445   0.157   0.933   6.444  0.2161  0.9151 -0.4747
  141MOL0     H19446  -0.107   0.723   6.137 -1.0916 -0.5205  0.0556
  141MOL0     H19447  -0.220   0.825   6.216 -1.0282  1.9947  0.0151
  141MOL0     H19448  -0.184   0.890   5.971 -1.5903  2.4806 -0.1663
  141MOL0     H19449  -0.011   0.895   5.995  1.0856  0.0349  2.6069
  141MOL0     H19450  -0.189   1.101   6.130 -0.5828 -1.9176  0.5454
  141MOL0     H19451  -0.014   1.088   6.156 -3.6451 -0.4948  4.2046
  141MOL0     H19452   0.001   1.101   5.889  2.3736  0.2302  2.0278
  141MOL0     H19453  -0.029   1.252   5.987 -1.3546 -0.1142  1.2421
  141MOL0     H19454  -0.369   1.147   5.750  0.0774  0.7525 -0.5064
  141MOL0     H19455   0.064   0.619   6.155 -1.4427 -0.5881  2.0024
  141MOL0     H19456   0.263   0.384   6.232  1.2350 -0.7535 -0.5945
  141MOL0     H19457   0.206   0.475   6.085  0.2125 -2.0647 -0.1688
  141MOL0     H19458   0.379   0.483   6.135 -1.1566  1.1000 -2.3399
  142MOL0     O19459   3.684   4.203   2.787  0.3257 -0.4504  0.0591
  142MOL0     C19460   3.755   4.247   2.879  1.0413  0.2351  0.7388
  142MOL0     O19461   3.724   4.237   3.011  0.5817 -0.1709  0.1305
  142MOL0     C19462   3.595   4.195   3.048  0.2267  0.9526 -0.4646
  142MOL0     C19463   3.480   4.277   3.023  0.3133  1.4027 -0.3290
  142MOL0     C19464   3.355   4.223   3.060  0.2658 -0.6238 -0.1651
  142MOL0     C19465   3.338   4.091   3.098  0.1009  0.0779 -0.1506
  142MOL0     O19466   3.212   4.057   3.110 -0.2661  0.1862  0.3182
  142MOL0     C19467   3.162   3.927   3.116  0.3481 -0.2680 -0.2477
  142MOL0     C19468   3.011   3.940   3.141 -0.4686  0.6507 -0.1718
  142MOL0     C19469   2.965   4.049   3.239 -0.1447  0.6347 -0.3383
  142MOL0     C19470   3.015   4.047   3.392  0.9945  0.5198  0.2118
  142MOL0     C19471   2.979   4.175   3.468  0.5407 -1.2743 -0.0847
  142MOL0     C19472   3.034   4.164   3.605  0.0877  0.2736  0.3028
  142MOL0     C19473   2.991   4.296   3.685 -0.4854  0.3101  0.4687
  142MOL0     C19474   3.077   4.319   3.816  0.5856  0.4803  0.0576
  142MOL0     N19475   3.220   4.353   3.808  0.6179 -0.3664 -0.2327
  142MOL0     C19476   3.310   4.270   3.763  0.3023  0.1649 -0.2571
  142MOL0     C19477   3.405   4.346   3.715  0.6212  0.2684 -0.5022
  142MOL0     C19478   3.520   4.301   3.643  0.3612  0.2725 -0.2181
  142MOL0     C19479   3.500   4.314   3.489  0.0799 -0.8503 -0.5914
  142MOL0     C19480   3.379   4.240   3.437  0.5809  0.2487  0.2888
  142MOL0     C19481   3.402   4.087   3.444 -0.1130 -0.1709  1.4575
  142MOL0     O19482   3.374   4.037   3.576 -0.0783 -0.5226  0.1594
  142MOL0     C19483   3.383   3.899   3.598 -0.0480 -0.2009  0.6798
  142MOL0     C19484   3.441   3.859   3.720  0.6075  0.1156 -0.4078
  142MOL0     C19485   3.443   3.724   3.760 -0.1103 -0.1277  0.0784
  142MOL0     C19486   3.516   3.684   3.883 -0.5597 -0.6136  0.4736
  142MOL0     C19487   3.382   3.631   3.670 -0.7071  0.8057 -0.2063
  142MOL0     C19488   3.384   3.482   3.699 -0.4383  0.0052 -0.9647
  142MOL0     O19489   3.290   3.404   3.635  0.4675  0.2503  0.5394
  142MOL0     C19490   3.263   3.277   3.674 -0.1122  0.0315 -0.2016
  142MOL0     C19491   3.329   3.176   3.611  0.7281  0.5886  1.1037
  142MOL0     C19492   3.311   3.046   3.654  0.1511  0.2637  0.2290
  142MOL0     C19493   3.221   3.008   3.753 -0.0448 -0.7195  0.1914
  142MOL0     O19494   3.196   2.876   3.783  0.8009 -0.2398  0.5891
  142MOL0     C19495   3.067   2.823   3.805 -0.9725  0.0862  0.7443
  142MOL0     C19496   3.058   2.782   3.954  0.8122  0.7282 -0.2938
  142MOL0     C19497   2.919   2.727   3.989 -0.3733  0.5938  0.0433
  142MOL0     C19498   2.875   2.589   3.937  0.6752  0.5934 -0.2549
  142MOL0     C19499   2.724   2.575   3.958 -0.4255 -0.2350 -0.2697
  142MOL0     C19500   2.645   2.635   3.840 -0.4109 -0.5058  0.5183
  142MOL0     C19501   2.495   2.610   3.848 -0.4726  0.5307  0.1129
  142MOL0     C19502   2.389   2.729   3.801  0.2647  0.4165  1.0456
  142MOL0    Cl19503   2.382   2.860   3.926 -0.7197 -0.4136  0.0575
  142MOL0     C19504   3.157   3.119   3.817 -0.3499  0.4029  1.1729
  142MOL0     C19505   3.163   3.247   3.782  0.4994  0.1953 -0.0564
  142MOL0     O19506   3.478   3.443   3.767  0.3805  0.2453 -1.1718
  142MOL0     C19507   3.325   3.670   3.555  0.4588 -0.3895  0.0411
  142MOL0     C19508   3.320   3.802   3.506 -0.9236 -0.4052  0.3834
  142MOL0     N19509   3.376   4.478   3.732  0.4383 -1.2057  0.1877
  142MOL0     N19510   3.261   4.484   3.793 -0.1123  0.1226  0.7946
  142MOL0     C19511   3.451   4.011   3.120 -0.9916 -0.0243 -0.2973
  142MOL0     C19512   3.580   4.066   3.097  0.5667  0.9168 -0.4702
  142MOL0     C19513   3.885   4.317   2.857 -0.4457 -0.0593 -0.3618
  142MOL0     C19514   3.995   4.276   2.938 -0.6654 -0.0653  0.7586
  142MOL0     C19515   4.114   4.348   2.926 -0.0529  0.0953  0.9728
  142MOL0     C19516   4.141   4.443   2.821  0.0038  0.1822 -0.5130
  142MOL0     O19517   4.263   4.500   2.807 -0.1881 -0.4704  0.8414
  142MOL0     C19518   4.281   4.636   2.761 -0.3133  0.0709 -0.3186
  142MOL0     C19519   4.283   4.735   2.872  0.3726 -0.2667  0.0666
  142MOL0     C19520   4.313   4.879   2.827  0.1095 -0.3109 -0.2583
  142MOL0     C19521   4.446   4.887   2.761 -1.2469 -0.0261  0.5808
  142MOL0     C19522   4.478   5.024   2.755  0.5062 -0.0918 -0.3254
  142MOL0     C19523   4.481   5.148   2.754  0.6270  0.0873  0.8185
  142MOL0     C19524   4.026   4.488   2.748  0.3768 -0.9698 -0.0566
  142MOL0     C19525   3.907   4.414   2.761 -0.2859 -0.4508 -0.6729
  142MOL0     C19526   3.789   4.483   2.700  0.9189 -0.3414 -0.0322
  142MOL0     H19527   3.470   4.379   2.989 -3.3085  0.4018 -2.9016
  142MOL0     H19528   3.265   4.284   3.062 -1.6905 -3.3272 -0.5235
  142MOL0     H19529   3.202   3.870   3.201 -0.2444 -2.8221 -1.5834
  142MOL0     H19530   3.184   3.874   3.023  0.9201  2.2833 -1.6553
  142MOL0     H19531   2.964   3.979   3.050  1.6473  1.2657 -1.0697
  142MOL0     H19532   2.974   3.839   3.161  1.4728 -0.3338 -1.2846
  142MOL0     H19533   3.001   4.145   3.201 -1.7109  3.0165  3.5772
  142MOL0     H19534   2.856   4.055   3.245 -0.0043  1.9325  1.7832
  142MOL0     H19535   2.962   3.961   3.435  0.0935 -1.3601 -4.0991
  142MOL0     H19536   3.122   4.028   3.402  0.6923 -0.4088  2.4390
  142MOL0     H19537   2.871   4.188   3.474  0.5175 -0.4336 -1.6678
  142MOL0     H19538   2.997   4.265   3.407  0.0415 -3.2027 -3.3398
  142MOL0     H19539   3.015   4.069   3.655  1.1592  0.1840  0.5747
  142MOL0     H19540   3.142   4.161   3.589  0.0887  1.5122 -0.0775
  142MOL0     H19541   2.884   4.288   3.706 -0.0041 -0.5508  2.9734
  142MOL0     H19542   3.007   4.383   3.620 -1.4992  0.8614  0.9483
  142MOL0     H19543   3.017   4.396   3.865 -0.9983  0.9898 -2.5156
  142MOL0     H19544   3.068   4.226   3.874 -1.0652 -0.1154 -1.0740
  142MOL0     H19545   3.295   4.163   3.767 -1.3502  0.3868 -0.0342
  142MOL0     H19546   3.546   4.198   3.671  0.5430  0.4417  0.2328
  142MOL0     H19547   3.604   4.369   3.658 -0.1088  1.1793 -1.4680
  142MOL0     H19548   3.495   4.422   3.470  3.5354 -0.2733  1.0250
  142MOL0     H19549   3.596   4.286   3.445  1.7232 -0.4478  2.4748
  142MOL0     H19550   3.292   4.279   3.492 -0.2841  0.6544 -1.2847
  142MOL0     H19551   3.357   4.264   3.333 -2.6278  1.0419  1.0168
  142MOL0     H19552   3.335   4.037   3.374 -1.1810 -0.0276  2.3515
  142MOL0     H19553   3.508   4.070   3.423 -0.6327 -1.3597 -0.4130
  142MOL0     H19554   3.468   3.938   3.789 -0.7449 -0.0946  0.3879
  142MOL0     H19555   3.606   3.633   3.849 -1.0330  0.6522 -3.1176
  142MOL0     H19556   3.451   3.615   3.938 -0.5471  0.1488  1.4733
  142MOL0     H19557   3.540   3.779   3.930  0.0456  1.3515 -3.3717
  142MOL0     H19558   3.391   3.194   3.524  0.7601 -2.0669  0.4941
  142MOL0     H19559   3.356   2.970   3.590  0.2739  1.3515 -1.0269
  142MOL0     H19560   2.984   2.885   3.770 -0.0104  1.2757  0.5169
  142MOL0     H19561   3.049   2.738   3.738 -2.9889  0.9264  0.1288
  142MOL0     H19562   3.140   2.713   3.973  1.1657  1.5341  1.3083
  142MOL0     H19563   3.080   2.868   4.018 -0.8517 -0.0704  1.4152
  142MOL0     H19564   2.844   2.794   3.946 -1.6773 -1.5002 -1.1329
  142MOL0     H19565   2.904   2.713   4.097 -4.2173  2.7283 -0.0520
  142MOL0     H19566   2.926   2.513   3.997  1.7465  0.7583 -0.9263
  142MOL0     H19567   2.907   2.585   3.833 -0.8418  0.4864 -0.7387
  142MOL0     H19568   2.709   2.467   3.956 -2.9511  0.0740 -2.2030
  142MOL0     H19569   2.702   2.616   4.057  1.0717  5.1834 -1.8318
  142MOL0     H19570   2.682   2.595   3.745  2.8897 -0.1495  1.5592
  142MOL0     H19571   2.656   2.744   3.836 -0.6236 -0.4790 -3.2684
  142MOL0     H19572   2.470   2.570   3.947 -5.6704  4.7928  1.0022
  142MOL0     H19573   2.470   2.524   3.785  0.9599  0.2325 -0.0903
  142MOL0     H19574   2.288   2.691   3.782 -0.5605  3.7167 -2.4168
  142MOL0     H19575   2.403   2.768   3.700  1.5056 -1.8808  0.2593
  142MOL0     H19576   3.086   3.096   3.896 -0.7678  0.2468  0.7504
  142MOL0     H19577   3.108   3.327   3.831 -1.5898 -1.1549 -0.0668
  142MOL0     H19578   3.276   3.603   3.486 -1.6664  3.0846 -2.0848
  142MOL0     H19579   3.253   3.826   3.424 -0.9483 -2.4230 -0.2344
  142MOL0     H19580   3.450   3.915   3.170  0.9337 -0.0402 -0.2078
  142MOL0     H19581   3.675   4.017   3.116  1.3928  2.6464  0.1074
  142MOL0     H19582   3.991   4.190   3.004 -2.6497  0.6299  1.6324
  142MOL0     H19583   4.186   4.314   2.999 -1.7226  0.1294  2.7306
  142MOL0     H19584   4.377   4.635   2.709  0.0992  1.7136  0.3555
  142MOL0     H19585   4.214   4.663   2.679  0.1137 -2.1830 -1.4940
  142MOL0     H19586   4.356   4.711   2.950  2.3938  0.1194 -1.5899
  142MOL0     H19587   4.180   4.728   2.907 -0.3526  2.7483 -1.0842
  142MOL0     H19588   4.238   4.911   2.755 -0.1245  0.5974  0.3753
  142MOL0     H19589   4.310   4.943   2.915 -0.3591  0.9496 -1.1731
  142MOL0     H19590   4.443   4.843   2.661 -0.7078 -2.2421  1.4782
  142MOL0     H19591   4.518   4.832   2.823 -2.8629  1.4359  4.0097
  142MOL0     H19592   4.500   5.252   2.737  0.7581 -0.3581 -2.2705
  142MOL0     H19593   4.019   4.565   2.672 -1.8110  0.0635  1.1044
  142MOL0     H19594   3.784   4.461   2.593  2.2583  1.5263 -0.5224
  142MOL0     H19595   3.688   4.449   2.725  0.7641  0.2169  0.1275
  142MOL0     H19596   3.788   4.591   2.719 -5.5043  0.1965 -1.1590
  143MOL0     O19597  11.402  10.603   9.460  0.6262  0.0185  0.1295
  143MOL0     C19598  11.360  10.703   9.394  0.0400 -0.8414  0.6127
  143MOL0     O19599  11.255  10.696   9.303  0.0202  0.9080  0.0652
  143MOL0     C19600  11.169  10.591   9.302  0.0332  0.1706  0.2614
  143MOL0     C19601  11.158  10.526   9.183 -0.1467  1.0373  0.3981
  143MOL0     C19602  11.069  10.424   9.160 -0.0453  0.6163 -0.1260
  143MOL0     C19603  10.997  10.370   9.269 -0.0490 -0.0177  0.1039
  143MOL0     O19604  10.916  10.263   9.247 -0.2384  0.4982 -0.5701
  143MOL0     C19605  10.820  10.211   9.345  0.2198 -0.9713 -0.0933
  143MOL0     C19606  10.713  10.121   9.279  0.4505 -0.0208 -0.0136
  143MOL0     C19607  10.600  10.086   9.389 -0.7325  0.1671 -0.9570
  143MOL0     C19608  10.470  10.047   9.314 -0.1599 -0.1329 -0.4618
  143MOL0     C19609  10.348  10.014   9.404 -0.7564  0.4828 -0.4887
  143MOL0     C19610  10.268   9.896   9.363 -0.4077  0.4821  0.8254
  143MOL0     C19611  10.161   9.917   9.246  0.0351 -0.8294 -0.8383
  143MOL0     C19612  10.011   9.963   9.288  0.7804  0.1695  0.9639
  143MOL0     N19613   9.907   9.885   9.217 -0.1640 -0.2905  0.6676
  143MOL0     C19614   9.901   9.859   9.083 -0.1671  0.5973 -0.0558
  143MOL0     C19615   9.809   9.764   9.069 -0.0747 -1.0587 -0.6685
  143MOL0     C19616   9.781   9.686   8.949  0.5675  0.7832 -1.3457
  143MOL0     C19617   9.905   9.605   8.915 -0.0110  0.8893  0.4203
  143MOL0     C19618   9.854   9.473   8.852  0.1043 -0.1446 -1.0381
  143MOL0     C19619   9.958   9.397   8.774 -0.1039  0.3633 -0.0076
  143MOL0     O19620   9.909   9.391   8.638  0.2952  0.2567  0.4306
  143MOL0     C19621   9.959   9.312   8.545 -0.0907  0.0825 -0.1925
  143MOL0     C19622   9.876   9.285   8.433 -0.0356 -0.3544  0.4997
  143MOL0     C19623   9.923   9.215   8.318 -1.3101 -0.1638  0.1753
  143MOL0     C19624   9.836   9.214   8.194  0.6687  0.2297  0.0258
  143MOL0     C19625  10.060   9.175   8.314 -0.1127 -0.3217 -0.5109
  143MOL0     C19626  10.115   9.114   8.189  0.7925 -0.5833 -0.1985
  143MOL0     O19627  10.072   9.172   8.071 -0.6113 -0.3171  0.1492
  143MOL0     C19628  10.149   9.174   7.958  0.3746 -0.4764 -0.2910
  143MOL0     C19629  10.204   9.067   7.901 -0.3079  0.3767  0.2061
  143MOL0     C19630  10.250   9.066   7.762  1.6671  0.0258 -0.0181
  143MOL0     C19631  10.255   9.186   7.685  0.1415  0.7911 -0.1601
  143MOL0     O19632  10.294   9.194   7.553 -0.0622 -0.2959 -0.2618
  143MOL0     C19633  10.189   9.216   7.462 -1.0593  0.8662  0.6586
  143MOL0     C19634  10.172   9.359   7.420 -1.2273  0.1003  0.5369
  143MOL0     C19635  10.062   9.392   7.319 -0.4470  0.5603 -0.6515
  143MOL0     C19636   9.930   9.336   7.367  0.8296 -0.4060 -0.1948
  143MOL0     C19637   9.818   9.413   7.294 -0.6040 -0.1078  0.0698
  143MOL0     C19638   9.677   9.365   7.326  0.8561 -0.2443 -0.2000
  143MOL0     C19639   9.625   9.242   7.247 -1.3410 -0.4970  0.9421
  143MOL0     C19640   9.516   9.166   7.313  1.3514  0.0665  0.0923
  143MOL0    Cl19641   9.591   9.057   7.425  0.2241 -0.1301  0.4061
  143MOL0     C19642  10.224   9.301   7.760  0.4954 -1.0429 -0.0623
  143MOL0     C19643  10.164   9.293   7.890 -0.2356 -1.0108 -0.2021
  143MOL0     O19644  10.211   9.042   8.203 -0.7366  0.5610 -0.4392
  143MOL0     C19645  10.142   9.188   8.429  0.0141  0.6766  0.6934
  143MOL0     C19646  10.094   9.263   8.537  0.8402  0.0683  0.2442
  143MOL0     N19647   9.748   9.749   9.191  0.0918  0.3593 -0.0121
  143MOL0     N19648   9.810   9.819   9.279  0.5832 -0.4603  0.5652
  143MOL0     C19649  11.005  10.435   9.396 -0.3058 -0.0398 -0.3826
  143MOL0     C19650  11.094  10.545   9.408 -1.0163  0.3764  0.0650
  143MOL0     C19651  11.412  10.843   9.416 -0.5015 -0.4011 -0.1981
  143MOL0     C19652  11.529  10.864   9.498  1.0116  0.4136  0.0107
  143MOL0     C19653  11.580  10.995   9.511  0.0142 -0.1245  0.5094
  143MOL0     C19654  11.523  11.108   9.457  0.1888 -0.0913 -0.0615
  143MOL0     O19655  11.595  11.224   9.469 -0.6465 -0.1821  0.2179
  143MOL0     C19656  11.533  11.355   9.450 -0.0433 -0.7539  0.9508
  143MOL0     C19657  11.615  11.465   9.506 -0.6640 -0.6961  0.0143
  143MOL0     C19658  11.590  11.499   9.653 -0.4522 -0.0028 -0.3768
  143MOL0     C19659  11.636  11.639   9.705  1.6271  0.2098  0.3277
  143MOL0     C19660  11.778  11.661   9.673  1.1468 -0.2573 -0.0250
  143MOL0     C19661  11.896  11.682   9.639 -0.0181 -0.4534 -0.3874
  143MOL0     C19662  11.406  11.089   9.385  0.2447  0.1244 -0.2437
  143MOL0     C19663  11.342  10.963   9.369  1.0122 -0.0294 -0.7281
  143MOL0     C19664  11.221  10.966   9.275 -0.1061 -0.2295  0.3723
  143MOL0     H19665  11.232  10.559   9.110  3.2263  0.2281  3.1373
  143MOL0     H19666  11.048  10.380   9.063  0.9897 -0.3532  0.0729
  143MOL0     H19667  10.764  10.296   9.386 -2.2139 -2.4749 -0.1033
  143MOL0     H19668  10.873  10.149   9.418 -2.5498 -2.7820  0.5100
  143MOL0     H19669  10.664  10.173   9.197 -3.5756  0.9635  2.6891
  143MOL0     H19670  10.750  10.026   9.240 -1.3052 -1.0522  0.6992
  143MOL0     H19671  10.634  10.000   9.448 -2.4946 -0.5400 -0.9059
  143MOL0     H19672  10.562  10.164   9.454 -0.1756 -0.0205 -0.3967
  143MOL0     H19673  10.438  10.128   9.248 -1.4529  0.2391  0.5910
  143MOL0     H19674  10.483   9.963   9.246 -2.1042  0.1705 -1.2444
  143MOL0     H19675  10.289  10.105   9.420  1.8059  2.0663  0.6225
  143MOL0     H19676  10.394   9.986   9.499 -0.5965  1.5867 -0.2242
  143MOL0     H19677  10.340   9.818   9.337  1.4795  2.3733  0.0468
  143MOL0     H19678  10.210   9.861   9.450 -0.9575 -1.1209 -0.1379
  143MOL0     H19679  10.162   9.823   9.190  0.3873 -0.0035 -2.2537
  143MOL0     H19680  10.197   9.985   9.169  0.1817 -1.4331 -1.3063
  143MOL0     H19681   9.999   9.957   9.397  0.5813  1.2185  1.0103
  143MOL0     H19682   9.990  10.068   9.264 -0.4002 -0.8597 -3.2154
  143MOL0     H19683   9.965   9.880   8.998 -2.7504  1.6744 -1.8976
  143MOL0     H19684   9.744   9.740   8.861 -0.7643  0.5191 -0.9574
  143MOL0     H19685   9.701   9.616   8.975  1.6742  0.5474  1.7953
  143MOL0     H19686   9.956   9.658   8.834  0.4194 -0.6822 -0.3856
  143MOL0     H19687   9.965   9.579   9.003  0.8405  1.5925  0.0606
  143MOL0     H19688   9.824   9.416   8.941  2.7112 -0.8041 -0.4743
  143MOL0     H19689   9.763   9.489   8.794 -0.2783 -3.1418 -1.4025
  143MOL0     H19690  10.052   9.451   8.790  2.1238 -3.1940  0.2821
  143MOL0     H19691   9.963   9.299   8.823 -0.3739  0.4478  0.1852
  143MOL0     H19692   9.779   9.334   8.433 -0.0233 -0.2974  1.7180
  143MOL0     H19693   9.862   9.292   8.122  2.7864  0.4846  0.9748
  143MOL0     H19694   9.732   9.225   8.226  0.5636 -2.3079  0.7550
  143MOL0     H19695   9.827   9.122   8.136  2.2437 -0.6134  1.0162
  143MOL0     H19696  10.213   8.969   7.947 -0.5772 -0.0560 -0.6239
  143MOL0     H19697  10.279   8.975   7.711 -3.1517 -1.8482  0.0955
  143MOL0     H19698  10.214   9.158   7.373 -2.1807 -0.5082  1.2059
  143MOL0     H19699  10.096   9.168   7.494 -0.2355  1.7950  5.0761
  143MOL0     H19700  10.173   9.427   7.505 -2.4517  0.0781  0.5867
  143MOL0     H19701  10.261   9.393   7.367 -1.1676  1.9111  1.7191
  143MOL0     H19702  10.077   9.341   7.223 -1.0063  3.1274 -2.2268
  143MOL0     H19703  10.062   9.500   7.300  2.2878  0.1660 -4.0722
  143MOL0     H19704   9.911   9.356   7.472  1.6718  1.7737 -0.4057
  143MOL0     H19705   9.933   9.227   7.355 -1.5446 -0.9062  2.6994
  143MOL0     H19706   9.831   9.519   7.319  2.4838 -0.9237  2.7628
  143MOL0     H19707   9.832   9.403   7.186  0.1698  3.7959 -0.3704
  143MOL0     H19708   9.608   9.448   7.307 -0.0239 -0.9084  0.0408
  143MOL0     H19709   9.670   9.339   7.432 -3.3334 -1.3382 -0.5991
  143MOL0     H19710   9.706   9.168   7.244 -0.5009  0.3952 -2.2261
  143MOL0     H19711   9.605   9.267   7.143  2.7293  3.4412  0.7757
  143MOL0     H19712   9.462   9.123   7.228 -3.0889 -0.5875  2.9408
  143MOL0     H19713   9.438   9.230   7.354 -0.3479  0.2311 -3.0862
  143MOL0     H19714  10.228   9.399   7.715  0.9048 -0.7671  0.5646
  143MOL0     H19715  10.117   9.379   7.938  2.1941  1.1210 -1.4354
  143MOL0     H19716  10.248   9.167   8.428  0.1121  0.9396  2.4515
  143MOL0     H19717  10.167   9.282   8.614  0.6420  2.2407 -0.0488
  143MOL0     H19718  10.948  10.389   9.476 -0.6616  2.1628  0.7400
  143MOL0     H19719  11.110  10.584   9.509 -0.3428 -0.4008  0.2687
  143MOL0     H19720  11.589  10.781   9.534 -1.7614 -0.4831  3.1009
  143MOL0     H19721  11.664  11.026   9.573 -1.4766  2.7216  1.3014
  143MOL0     H19722  11.539  11.364   9.341 -0.4058  4.2156  1.1310
  143MOL0     H19723  11.436  11.363   9.501 -0.4434  0.3605  0.0596
  143MOL0     H19724  11.606  11.557   9.448 -0.8714 -0.3230  0.6361
  143MOL0     H19725  11.718  11.426   9.501 -0.6827 -0.7924  0.3902
  143MOL0     H19726  11.483  11.485   9.670 -0.4769 -0.5092 -0.9152
  143MOL0     H19727  11.646  11.423   9.708  1.3687 -0.0189 -2.1357
  143MOL0     H19728  11.624  11.641   9.814 -0.3294  0.8182  0.1349
  143MOL0     H19729  11.583  11.723   9.659  1.0626  1.3234  2.8305
  143MOL0     H19730  12.002  11.697   9.630  0.2472 -0.0259  2.3640
  143MOL0     H19731  11.355  11.180   9.359  0.1499  0.6047  1.4809
  143MOL0     H19732  11.244  10.940   9.172 -0.5155  1.3494 -0.1366
  143MOL0     H19733  11.145  10.895   9.309 -0.4134 -0.6891 -1.2368
  143MOL0     H19734  11.173  11.064   9.279 -0.2919 -0.3321  3.2956
  144MOL0     O19735   1.228   0.110  11.231  0.1708 -1.0994  0.0789
  144MOL0     C19736   1.158   0.079  11.327 -0.3371  0.7501  0.5041
  144MOL0     O19737   1.164   0.132  11.454 -0.7343  0.1275  0.5414
  144MOL0     C19738   1.242   0.246  11.471 -0.0391  0.0708  0.4624
  144MOL0     C19739   1.214   0.364  11.400  0.7726 -0.9147 -0.5192
  144MOL0     C19740   1.280   0.479  11.431  0.7574  0.9985 -0.2313
  144MOL0     C19741   1.380   0.481  11.516 -0.4282 -0.9400 -0.5256
  144MOL0     O19742   1.459   0.597  11.531 -0.1514  0.0684  0.7991
  144MOL0     C19743   1.601   0.576  11.489 -0.2643  0.5463 -0.6490
  144MOL0     C19744   1.669   0.702  11.444  0.0276 -0.0830  0.7275
  144MOL0     C19745   1.704   0.794  11.556 -0.0715 -0.2113  0.6635
  144MOL0     C19746   1.802   0.915  11.524 -0.4361 -0.6105  0.4604
  144MOL0     C19747   1.876   0.968  11.651  1.0382  0.1587 -0.9150
  144MOL0     C19748   1.992   1.057  11.641  0.2862 -0.4075 -0.3222
  144MOL0     C19749   2.040   1.105  11.781 -0.8068  0.1680 -0.7953
  144MOL0     C19750   2.146   1.002  11.834  1.6660  0.2496  0.2321
  144MOL0     N19751   2.237   1.074  11.923  0.0640  1.0462  0.2415
  144MOL0     C19752   2.363   1.016  11.943  0.2824  0.5263  0.0037
  144MOL0     C19753   2.416   1.101  12.040 -0.0491  0.5418 -0.3328
  144MOL0     C19754   2.558   1.089  12.091  0.1673 -0.7061 -0.1889
  144MOL0     C19755   2.561   1.038  12.244 -0.6550  0.0265  0.0115
  144MOL0     C19756   2.596   0.887  12.239 -0.0500 -0.5205 -0.4031
  144MOL0     C19757   2.621   0.831  12.382 -0.1319 -0.0004  0.0299
  144MOL0     O19758   2.517   0.864  12.477  0.2941  0.2290  0.1456
  144MOL0     C19759   2.556   0.835  12.606  1.0468  0.7828 -0.4601
  144MOL0     C19760   2.583   0.701  12.649  0.5150 -0.4790 -0.0087
  144MOL0     C19761   2.617   0.675  12.783 -0.9885  0.3208 -0.0084
  144MOL0     C19762   2.647   0.537  12.808  1.0138  0.4169  0.2157
  144MOL0     C19763   2.638   0.778  12.877  0.1360 -0.9932  0.5144
  144MOL0     C19764   2.692   0.771  13.023 -0.4387  0.0399  0.0946
  144MOL0     O19765   2.660   0.870  13.107 -0.1201 -0.5200 -0.0834
  144MOL0     C19766   2.758   0.909  13.197 -0.8822 -0.6542 -1.2436
  144MOL0     C19767   2.895   0.865  13.210 -1.1736  0.3547 -0.3362
  144MOL0     C19768   2.977   0.889  13.318  0.0777 -0.0422  0.0460
  144MOL0     C19769   2.923   0.972  13.418  0.1764  0.0795  0.5035
  144MOL0     O19770   2.992   1.027  13.524 -0.1703  0.0007 -0.1315
  144MOL0     C19771   3.137   0.984  13.541  0.4584 -0.8471  0.6698
  144MOL0     C19772   3.201   1.053  13.661  0.2233  0.3156  0.2696
  144MOL0     C19773   3.131   1.004  13.785  0.1173 -0.1877 -0.5358
  144MOL0     C19774   3.227   1.012  13.899 -0.1029 -0.5180  0.0557
  144MOL0     C19775   3.178   0.970  14.044  0.1717 -0.2268 -0.4881
  144MOL0     C19776   3.234   1.061  14.153 -1.4615  0.6071  0.8312
  144MOL0     C19777   3.196   1.203  14.151 -0.3609  0.3464 -0.0290
  144MOL0     C19778   3.293   1.287  14.239 -0.0504  0.1846 -1.2884
  144MOL0    Cl19779   3.341   1.207  14.396  0.0431 -0.1598 -0.3944
  144MOL0     C19780   2.794   1.036  13.412  0.2110  0.5444 -0.9671
  144MOL0     C19781   2.718   0.990  13.302  0.7269 -0.5714 -0.9787
  144MOL0     O19782   2.761   0.674  13.043 -0.5281 -0.3136 -0.5165
  144MOL0     C19783   2.617   0.904  12.826  0.1613 -1.4146 -0.5707
  144MOL0     C19784   2.579   0.934  12.700 -0.0402 -0.5823  0.7514
  144MOL0     N19785   2.317   1.192  12.080 -0.0215  0.7105  0.0624
  144MOL0     N19786   2.211   1.182  11.998 -0.4061  0.8811  0.3484
  144MOL0     C19787   1.410   0.366  11.590 -0.4367  0.1447  0.7003
  144MOL0     C19788   1.340   0.247  11.566  0.7010  0.1702 -0.3236
  144MOL0     C19789   1.051  -0.031  11.317  0.1828 -0.5719  0.5688
  144MOL0     C19790   0.933  -0.008  11.384  0.9548  0.7760 -0.1180
  144MOL0     C19791   0.821  -0.088  11.372  0.2598 -0.3329 -0.4053
  144MOL0     C19792   0.823  -0.205  11.299 -0.4684  0.1945 -0.0054
  144MOL0     O19793   0.714  -0.288  11.289 -0.2169  0.0743  0.4767
  144MOL0     C19794   0.653  -0.329  11.413  0.2081  0.0708 -0.7877
  144MOL0     C19795   0.509  -0.288  11.446 -0.7563  0.1337  0.0572
  144MOL0     C19796   0.441  -0.333  11.578 -0.5975  0.5497 -0.9429
  144MOL0     C19797   0.530  -0.280  11.696 -0.1597 -0.4126  0.6314
  144MOL0     C19798   0.451  -0.297  11.823 -0.2560 -0.5298  0.4053
  144MOL0     C19799   0.385  -0.285  11.919 -0.6645  0.9702 -0.9521
  144MOL0     C19800   0.938  -0.222  11.218 -0.2634  0.3586  0.6759
  144MOL0     C19801   1.050  -0.142  11.233  0.2833 -0.8412  0.1292
  144MOL0     C19802   1.156  -0.157  11.132 -0.7597  0.5831 -0.2128
  144MOL0     H19803   1.134   0.367  11.327  0.4418  0.6522 -0.1409
  144MOL0     H19804   1.256   0.572  11.381  0.1179  1.3144  0.6488
  144MOL0     H19805   1.612   0.501  11.410  0.6744 -0.4281  0.3664
  144MOL0     H19806   1.646   0.518  11.570 -1.1418  2.4837  1.3159
  144MOL0     H19807   1.766   0.680  11.400  1.3707  2.1539  2.3391
  144MOL0     H19808   1.607   0.749  11.366  1.1696 -1.5925 -1.1869
  144MOL0     H19809   1.612   0.836  11.599 -0.3363 -0.4990  0.3844
  144MOL0     H19810   1.763   0.741  11.631 -0.5648 -1.8091 -0.0228
  144MOL0     H19811   1.879   0.871  11.460 -1.5757 -2.1309  0.0774
  144MOL0     H19812   1.754   0.996  11.470  1.3600 -0.1287 -0.4897
  144MOL0     H19813   1.908   0.886  11.716 -0.7264  0.9249  1.0200
  144MOL0     H19814   1.804   1.025  11.710  2.4797  1.7951 -0.6635
  144MOL0     H19815   2.065   0.999  11.584 -0.2328 -2.0576  0.6266
  144MOL0     H19816   1.969   1.140  11.573 -3.4049 -1.5481 -0.7365
  144MOL0     H19817   1.954   1.112  11.849 -0.4160 -0.1462 -0.2604
  144MOL0     H19818   2.084   1.203  11.760  1.0628 -0.7770 -1.4878
  144MOL0     H19819   2.100   0.912  11.874  4.1356 -1.6363 -0.9053
  144MOL0     H19820   2.202   0.959  11.750 -0.0628 -0.8579 -0.4123
  144MOL0     H19821   2.408   0.926  11.902 -1.8159 -0.8325  0.5087
  144MOL0     H19822   2.604   1.188  12.098 -0.7977 -0.3539  2.3847
  144MOL0     H19823   2.624   1.028  12.029 -0.5184  0.6221 -2.3549
  144MOL0     H19824   2.636   1.079  12.311  1.7761 -1.3486 -1.6953
  144MOL0     H19825   2.460   1.056  12.282 -1.0045  0.5398 -1.0989
  144MOL0     H19826   2.505   0.835  12.208 -1.7191  2.6629 -1.3538
  144MOL0     H19827   2.670   0.859  12.164 -0.1981  1.3586 -1.3030
  144MOL0     H19828   2.639   0.723  12.382  1.9238  0.2199  3.2934
  144MOL0     H19829   2.713   0.870  12.426  0.6784 -0.8433 -0.8694
  144MOL0     H19830   2.564   0.619  12.581  0.2878  1.0991 -1.9529
  144MOL0     H19831   2.638   0.502  12.911  2.0443  0.8691  0.4734
  144MOL0     H19832   2.749   0.509  12.779 -0.1565 -0.5875 -3.3533
  144MOL0     H19833   2.585   0.477  12.741  2.7698 -2.1023  0.6984
  144MOL0     H19834   2.939   0.803  13.133  2.2756  2.0091  0.0815
  144MOL0     H19835   3.074   0.841  13.331  1.4026  2.4428 -0.0501
  144MOL0     H19836   3.140   0.875  13.543  0.5084 -1.0495 -3.1400
  144MOL0     H19837   3.197   1.018  13.456  2.0292  1.5034  2.5656
  144MOL0     H19838   3.309   1.041  13.664  0.3873  1.1801 -1.1106
  144MOL0     H19839   3.177   1.160  13.658 -0.8855  0.1965  2.7876
  144MOL0     H19840   3.096   0.901  13.772  0.8556 -0.4189 -0.7082
  144MOL0     H19841   3.041   1.064  13.800  1.8376  2.1654  1.1728
  144MOL0     H19842   3.274   1.111  13.899 -1.7127  0.2731 -0.5160
  144MOL0     H19843   3.305   0.943  13.866  0.8268  0.7531 -0.4895
  144MOL0     H19844   3.069   0.962  14.055 -0.0953  0.4701 -2.3375
  144MOL0     H19845   3.212   0.867  14.049 -0.2761 -0.4278 -1.4344
  144MOL0     H19846   3.341   1.057  14.130 -1.7184 -0.7355 -0.2817
  144MOL0     H19847   3.214   1.011  14.248 -2.6545 -1.7105 -0.5602
  144MOL0     H19848   3.094   1.221  14.187  0.1479  0.2377  1.5339
  144MOL0     H19849   3.207   1.258  14.057  2.2705  0.4674  0.2869
  144MOL0     H19850   3.246   1.383  14.264 -0.0096 -0.0360 -0.3468
  144MOL0     H19851   3.386   1.309  14.186 -0.4616  1.9262 -1.3470
  144MOL0     H19852   2.762   1.107  13.487 -0.5607 -1.6797  0.9563
  144MOL0     H19853   2.616   1.026  13.303  1.1294  0.7040  1.7155
  144MOL0     H19854   2.631   0.994  12.884  0.8521 -2.5313  1.0736
  144MOL0     H19855   2.581   1.040  12.678  3.5829 -0.6192  0.3303
  144MOL0     H19856   1.498   0.370  11.653 -1.1038  1.9502  1.5919
  144MOL0     H19857   1.351   0.162  11.634  0.5853  0.4360  0.0331
  144MOL0     H19858   0.934   0.069  11.461  1.7783 -0.4062  1.0873
  144MOL0     H19859   0.730  -0.052  11.419 -0.4467 -0.4954 -1.6198
  144MOL0     H19860   0.649  -0.438  11.411 -1.4987  0.0983 -3.4110
  144MOL0     H19861   0.720  -0.288  11.489 -0.3673 -0.3679 -0.0283
  144MOL0     H19862   0.452  -0.335  11.366 -2.2125 -2.5788  2.5127
  144MOL0     H19863   0.511  -0.178  11.448 -0.9173  0.2502 -2.8082
  144MOL0     H19864   0.338  -0.296  11.581 -1.4128 -1.6215  1.4739
  144MOL0     H19865   0.438  -0.443  11.579  2.0216  0.3908  1.3063
  144MOL0     H19866   0.551  -0.173  11.685 -0.6965 -0.5637 -3.7828
  144MOL0     H19867   0.629  -0.327  11.692 -1.7697 -4.0790 -1.4146
  144MOL0     H19868   0.329  -0.286  12.010 -0.9500 -1.2458 -1.0856
  144MOL0     H19869   0.939  -0.299  11.141 -1.4740  3.3034 -2.5483
  144MOL0     H19870   1.252  -0.150  11.184  0.8478 -0.1566 -2.8174
  144MOL0     H19871   1.153  -0.241  11.061  1.6630  3.5977 -4.2851
  144MOL0     H19872   1.144  -0.064  11.076 -3.6830  2.0313  2.5473
  145MOL0     O19873   7.055   9.928   6.122 -0.2095  0.2534  0.6837
  145MOL0     C19874   6.950   9.924   6.050  0.9233 -1.0572  0.1432
  145MOL0     O19875   6.836   9.970   6.096 -0.1976  0.2795  0.0290
  145MOL0     C19876   6.822  10.030   6.219 -0.5554 -0.7147  0.0315
  145MOL0     C19877   6.768   9.946   6.314 -1.1503  0.2676  0.6712
  145MOL0     C19878   6.744   9.990   6.439  0.6212 -0.1018  0.2471
  145MOL0     C19879   6.780  10.121   6.477  0.4396  0.3816  0.4138
  145MOL0     O19880   6.774  10.164   6.608  0.6587  0.0612 -0.5445
  145MOL0     C19881   6.805  10.295   6.643 -0.6418 -0.4095  0.7811
  145MOL0     C19882   6.781  10.308   6.794  0.5966  0.2504  0.7988
  145MOL0     C19883   6.824  10.180   6.880 -0.1168 -0.3419 -0.7067
  145MOL0     C19884   6.777  10.208   7.029 -0.5602  0.2527  0.1512
  145MOL0     C19885   6.859  10.123   7.125  0.3594 -0.3271 -0.1197
  145MOL0     C19886   6.828  10.163   7.269 -0.1548 -0.3506  0.1691
  145MOL0     C19887   6.937  10.123   7.371 -0.1708  1.1856  0.7842
  145MOL0     C19888   6.944   9.966   7.389  0.1357  0.0043 -0.1404
  145MOL0     N19889   7.024   9.927   7.507 -0.7081  0.4199  0.1247
  145MOL0     C19890   6.991   9.947   7.645 -0.3735 -0.3434  0.4079
  145MOL0     C19891   7.087   9.871   7.711  0.2259 -1.0330  0.1473
  145MOL0     C19892   7.110   9.864   7.853  0.1830  0.4948 -0.4565
  145MOL0     C19893   6.991   9.832   7.948 -0.8384 -0.0539  0.6342
  145MOL0     C19894   6.986   9.880   8.097  0.1581 -0.7307  0.4719
  145MOL0     C19895   6.925   9.773   8.186  1.4636 -0.2263  0.1054
  145MOL0     O19896   6.992   9.761   8.309  0.6924 -0.7002  0.6767
  145MOL0     C19897   6.983   9.864   8.400 -0.6267  0.1265 -0.3782
  145MOL0     C19898   6.885   9.961   8.410 -0.3733  0.1997 -0.5213
  145MOL0     C19899   6.883  10.054   8.505  0.4182 -0.3113  0.2464
  145MOL0     C19900   6.770  10.159   8.515 -0.5375 -0.8191  0.1715
  145MOL0     C19901   6.995  10.061   8.595  0.4149  0.6622 -0.0473
  145MOL0     C19902   7.013  10.165   8.697  0.1865  0.2726 -0.4944
  145MOL0     O19903   7.032  10.129   8.830 -0.3885 -0.1413 -0.0892
  145MOL0     C19904   7.059  10.215   8.930  0.1527  0.5220 -0.5795
  145MOL0     C19905   6.977  10.324   8.959  0.1694 -0.2118  0.4154
  145MOL0     C19906   7.001  10.397   9.087 -0.0251 -0.4094  0.3665
  145MOL0     C19907   7.093  10.347   9.181 -0.2743  0.0944  0.5602
  145MOL0     O19908   7.114  10.441   9.289 -0.0118 -0.2786 -0.0871
  145MOL0     C19909   7.186  10.400   9.402  1.2414 -0.3420 -0.5090
  145MOL0     C19910   7.131  10.465   9.530 -0.6445 -0.5899  0.1098
  145MOL0     C19911   7.233  10.452   9.642  0.9912  0.0915  0.2728
  145MOL0     C19912   7.178  10.489   9.780  0.1766 -0.1062  0.3637
  145MOL0     C19913   7.084  10.388   9.833  0.8307  1.5926  0.2539
  145MOL0     C19914   7.130  10.244   9.818 -0.0869 -0.0759  0.1003
  145MOL0     C19915   7.056  10.148   9.915  0.3488  0.1666 -0.5109
  145MOL0     C19916   7.109  10.004   9.891  0.6902  0.3979  0.4900
  145MOL0    Cl19917   7.056   9.944   9.734 -0.1414  0.3388 -0.1190
  145MOL0     C19918   7.165  10.230   9.156  0.0837  0.4637  0.5241
  145MOL0     C19919   7.144  10.167   9.027 -0.0030 -0.6494 -1.0426
  145MOL0     O19920   7.033  10.278   8.644  0.2696 -0.1142  0.6045
  145MOL0     C19921   7.092   9.952   8.596  0.3694 -0.6768 -0.3192
  145MOL0     C19922   7.077   9.849   8.503  0.8865  0.3618  0.2071
  145MOL0     N19923   7.177   9.820   7.614 -0.1999  0.4430 -0.7757
  145MOL0     N19924   7.134   9.850   7.495 -0.0395  0.5176  0.1585
  145MOL0     C19925   6.844  10.204   6.381 -0.2688  0.0558 -0.2523
  145MOL0     C19926   6.865  10.155   6.251 -0.4468  0.3002  0.7090
  145MOL0     C19927   6.955   9.888   5.906  0.4570 -0.6227 -0.5171
  145MOL0     C19928   6.835   9.900   5.836  0.2993  0.1539 -0.1318
  145MOL0     C19929   6.827   9.871   5.689 -0.3239 -0.0520  0.3143
  145MOL0     C19930   6.949   9.844   5.623 -0.3599 -0.3089  0.6929
  145MOL0     O19931   6.950   9.844   5.493  0.3639 -0.0206 -0.0458
  145MOL0     C19932   6.967   9.714   5.442  0.3047  0.4415  0.3744
  145MOL0     C19933   6.873   9.690   5.321  0.0004  0.3128  0.0219
  145MOL0     C19934   6.889   9.544   5.269 -0.2864 -1.0200  0.9640
  145MOL0     C19935   6.872   9.547   5.115  0.1847 -0.6435  0.6919
  145MOL0     C19936   6.844   9.414   5.067 -0.1647 -0.3777 -0.4894
  145MOL0     C19937   6.804   9.301   5.033  0.7526 -0.2781 -0.8904
  145MOL0     C19938   7.066   9.822   5.693  0.4132 -0.8439  0.8734
  145MOL0     C19939   7.064   9.837   5.832 -1.1695 -0.1509  0.4669
  145MOL0     C19940   7.196   9.815   5.900 -0.6087 -0.1654  0.0398
  145MOL0     H19941   6.738   9.845   6.291  0.7014  0.0475 -1.0424
  145MOL0     H19942   6.703   9.920   6.510 -2.8102  0.6646 -0.7980
  145MOL0     H19943   6.754  10.374   6.587 -1.1355 -1.1532  0.1620
  145MOL0     H19944   6.914  10.295   6.631 -0.7766 -1.9593 -0.8630
  145MOL0     H19945   6.848  10.385   6.833  1.5385 -0.2525  0.2060
  145MOL0     H19946   6.674  10.327   6.807  1.3230  3.7460  2.6736
  145MOL0     H19947   6.778  10.091   6.837  0.1767 -0.1726 -1.3747
  145MOL0     H19948   6.932  10.173   6.867 -0.0544  0.7149 -0.8189
  145MOL0     H19949   6.794  10.310   7.064  2.0954  0.8241 -2.4604
  145MOL0     H19950   6.672  10.182   7.044 -0.0460 -2.2141 -0.0002
  145MOL0     H19951   6.965  10.132   7.100  0.8721 -1.3204  1.5003
  145MOL0     H19952   6.848  10.014   7.129  0.0430 -0.2636  1.2361
  145MOL0     H19953   6.818  10.271   7.277 -1.3333 -0.5080  1.0781
  145MOL0     H19954   6.729  10.125   7.297  1.2229 -1.9707  3.3066
  145MOL0     H19955   6.911  10.167   7.467  3.0916  3.3099  0.8443
  145MOL0     H19956   7.033  10.163   7.339 -0.7355  1.2071 -1.0123
  145MOL0     H19957   6.842   9.932   7.406 -0.2190  0.5393 -1.1562
  145MOL0     H19958   6.985   9.903   7.309  1.5157  0.2519  0.3367
  145MOL0     H19959   6.922  10.012   7.698 -0.1385 -1.1469  1.7463
  145MOL0     H19960   7.143   9.963   7.886 -1.7172  1.2522 -0.6907
  145MOL0     H19961   7.186   9.786   7.864 -2.0773 -1.9271 -0.9774
  145MOL0     H19962   6.894   9.855   7.902 -0.9888 -4.2113 -1.5551
  145MOL0     H19963   6.995   9.724   7.933  0.3252 -0.0081  0.5527
  145MOL0     H19964   7.086   9.888   8.139  0.4911 -1.6876 -0.0930
  145MOL0     H19965   6.933   9.974   8.110  4.1048  1.7654  0.1514
  145MOL0     H19966   6.816   9.783   8.194  1.0429 -3.1980 -0.7510
  145MOL0     H19967   6.933   9.679   8.132 -0.1396 -0.5498  0.3859
  145MOL0     H19968   6.810   9.970   8.332 -1.2912 -3.0559 -0.1578
  145MOL0     H19969   6.765  10.207   8.613  0.9991 -2.6049  1.2044
  145MOL0     H19970   6.674  10.116   8.487  0.6087 -2.9958 -0.5948
  145MOL0     H19971   6.794  10.229   8.434 -1.5465 -1.3386 -0.5918
  145MOL0     H19972   6.898  10.355   8.892  0.8789  0.8480  0.0491
  145MOL0     H19973   6.966  10.499   9.100 -2.5871 -1.0222 -1.0596
  145MOL0     H19974   7.174  10.292   9.418 -0.1348 -0.1367  0.0139
  145MOL0     H19975   7.292  10.427   9.398  0.7383  1.6882 -1.4955
  145MOL0     H19976   7.126  10.573   9.511 -4.5580 -0.6772 -0.1760
  145MOL0     H19977   7.028  10.431   9.546 -1.0379  0.1840 -0.6902
  145MOL0     H19978   7.299  10.537   9.626 -0.8122  2.1493  3.0253
  145MOL0     H19979   7.278  10.352   9.646 -1.6512 -1.1572  1.1939
  145MOL0     H19980   7.127  10.586   9.778 -0.1677 -0.2680  0.8713
  145MOL0     H19981   7.263  10.501   9.848  0.8234 -0.6686 -0.3266
  145MOL0     H19982   7.064  10.422   9.936 -2.7039  0.4556  0.0903
  145MOL0     H19983   6.990  10.401   9.779  0.5248 -0.1612  0.2863
  145MOL0     H19984   7.236  10.243   9.845  0.2785 -2.1739 -1.1608
  145MOL0     H19985   7.114  10.224   9.712  0.0066  0.1634  0.0409
  145MOL0     H19986   6.949  10.150   9.893  0.1370 -2.3310 -0.0344
  145MOL0     H19987   7.084  10.174  10.018  6.0481  1.1344 -1.9542
  145MOL0     H19988   7.075   9.936   9.969 -2.8760  0.6793 -0.6308
  145MOL0     H19989   7.218  10.001   9.897  0.8267 -0.7335 -1.5284
  145MOL0     H19990   7.246  10.203   9.222  0.9606 -1.4566 -1.2083
  145MOL0     H19991   7.206  10.079   9.007  0.4060 -0.5959 -0.0631
  145MOL0     H19992   7.169   9.947   8.672 -1.9302 -2.3695  2.0943
  145MOL0     H19993   7.146   9.767   8.519 -1.0809 -1.0705  1.7100
  145MOL0     H19994   6.887  10.296   6.420  1.4613 -0.9435  0.2624
  145MOL0     H19995   6.922  10.221   6.186  2.3437 -0.9032  1.7926
  145MOL0     H19996   6.743   9.933   5.883  1.4994  1.7266  1.2272
  145MOL0     H19997   6.728   9.869   5.646 -0.4407 -0.9994  0.6120
  145MOL0     H19998   7.068   9.696   5.404 -1.2235 -2.2840 -2.9668
  145MOL0     H19999   6.946   9.640   5.520  0.3433 -1.1259 -1.0622
  145MOL0     H20000   6.907   9.767   5.251 -0.4310  2.7774  2.3708
  145MOL0     H20001   6.773   9.719   5.354  1.1975  2.8543  1.6623
  145MOL0     H20002   6.985   9.498   5.297  0.4847  0.1292  0.2743
  145MOL0     H20003   6.816   9.476   5.315  0.6473 -1.8915  1.2076
  145MOL0     H20004   6.966   9.587   5.075  0.3848  2.0729  3.4746
  145MOL0     H20005   6.792   9.616   5.085  1.5290  0.7926  0.2384
  145MOL0     H20006   6.771   9.204   5.000  2.1198 -1.1058  0.0500
  145MOL0     H20007   7.163   9.798   5.650  0.5312  0.3471  0.4480
  145MOL0     H20008   7.262   9.746   5.846  2.1466  2.4988 -0.2405
  145MOL0     H20009   7.243   9.911   5.923  1.0233 -0.5617 -1.4478
  145MOL0     H20010   7.167   9.762   5.991 -0.1614 -1.1364 -0.3683
  146MOL0     O20011   1.137   4.863   6.282  0.3942 -0.2439 -0.1648
  146MOL0     C20012   1.242   4.824   6.329 -0.9081  0.0765 -0.9631
  146MOL0     O20013   1.324   4.904   6.404  0.4727 -0.7688 -0.5382
  146MOL0     C20014   1.272   5.002   6.470  0.9745 -0.0037 -0.2623
  146MOL0     C20015   1.333   5.129   6.441 -0.2691  1.0897  0.1398
  146MOL0     C20016   1.285   5.242   6.498 -0.6064 -0.4209 -0.3134
  146MOL0     C20017   1.172   5.241   6.581  1.3089 -0.5008 -0.3332
  146MOL0     O20018   1.106   5.343   6.635  0.2753 -0.0272  0.2633
  146MOL0     C20019   1.163   5.469   6.609  0.2830 -1.2304 -0.0995
  146MOL0     C20020   1.093   5.579   6.692 -1.0142 -0.3170 -0.2901
  146MOL0     C20021   1.145   5.725   6.684 -1.0921  0.6966  0.5603
  146MOL0     C20022   1.070   5.798   6.567 -0.5691 -1.1982  0.7175
  146MOL0     C20023   1.154   5.923   6.530  0.2383  0.9426  0.2108
  146MOL0     C20024   1.076   5.997   6.426  0.3265  0.4819 -0.1256
  146MOL0     C20025   1.145   6.132   6.382 -0.5527  0.5349 -0.0773
  146MOL0     C20026   1.294   6.121   6.323 -0.1069  0.2197  0.1947
  146MOL0     N20027   1.404   6.091   6.413  0.6709 -0.3317  0.1606
  146MOL0     C20028   1.464   5.969   6.423  0.7275  0.0719  0.1273
  146MOL0     C20029   1.563   5.985   6.515 -0.5615 -0.2858 -0.8109
  146MOL0     C20030   1.651   5.876   6.566  0.5672  0.1369 -0.9421
  146MOL0     C20031   1.560   5.778   6.643 -0.0265  0.9342 -0.5425
  146MOL0     C20032   1.495   5.834   6.779  0.4307 -0.4692 -0.7007
  146MOL0     C20033   1.482   5.718   6.881 -0.1034 -1.4579  0.2890
  146MOL0     O20034   1.509   5.756   7.018  0.1215  0.1854  0.1271
  146MOL0     C20035   1.632   5.814   7.050 -1.2841 -0.1413 -0.0496
  146MOL0     C20036   1.633   5.897   7.160 -0.1710 -0.5037 -0.6485
  146MOL0     C20037   1.751   5.969   7.201 -0.6386 -0.1924  0.0491
  146MOL0     C20038   1.739   6.064   7.312 -0.3539 -0.3417  0.5708
  146MOL0     C20039   1.869   5.952   7.122 -0.3643  0.1383 -0.0645
  146MOL0     C20040   1.992   6.033   7.143 -0.3937  1.4776  0.9202
  146MOL0     O20041   2.014   6.108   7.252 -0.1493  0.2345  0.4048
  146MOL0     C20042   2.124   6.194   7.254  0.3712 -0.0973 -0.1281
  146MOL0     C20043   2.210   6.183   7.357  0.6751  0.2171  0.1451
  146MOL0     C20044   2.311   6.272   7.370  0.4708  0.4971  0.1642
  146MOL0     C20045   2.332   6.379   7.283  0.1810 -0.6407  0.0780
  146MOL0     O20046   2.444   6.466   7.292 -0.0432  0.3870 -0.2127
  146MOL0     C20047   2.420   6.605   7.257 -0.1830 -0.4789 -0.5033
  146MOL0     C20048   2.522   6.704   7.315 -0.8219  0.3897  0.3125
  146MOL0     C20049   2.507   6.852   7.246  0.2689  0.0378  0.2784
  146MOL0     C20050   2.369   6.905   7.220  0.0184  0.8652  0.8118
  146MOL0     C20051   2.375   7.037   7.149  0.2597  0.2233 -0.3630
  146MOL0     C20052   2.288   7.135   7.219  0.6749 -0.2265  0.4736
  146MOL0     C20053   2.333   7.279   7.164  0.6576  0.2639 -0.8212
  146MOL0     C20054   2.265   7.318   7.033  0.2477  0.0232 -0.4393
  146MOL0    Cl20055   2.334   7.471   6.952  0.1667  0.0254  0.1916
  146MOL0     C20056   2.239   6.396   7.175  0.1669  0.8022 -0.7053
  146MOL0     C20057   2.127   6.307   7.170 -0.4290 -0.0553  0.5397
  146MOL0     O20058   2.072   6.034   7.051  1.1306 -0.0572  0.4581
  146MOL0     C20059   1.869   5.868   7.007 -0.1619 -0.4110 -0.8878
  146MOL0     C20060   1.758   5.792   6.976  1.0310  0.0002  0.7786
  146MOL0     N20061   1.561   6.114   6.572  0.3887 -0.0212 -1.2386
  146MOL0     N20062   1.468   6.176   6.504  0.4136  0.8010 -0.6651
  146MOL0     C20063   1.123   5.116   6.628 -1.2994 -0.3753  0.8855
  146MOL0     C20064   1.179   4.995   6.576 -0.2976 -0.5098 -0.2444
  146MOL0     C20065   1.296   4.687   6.305 -0.2324  0.4849  0.4939
  146MOL0     C20066   1.395   4.641   6.392 -1.0282 -0.4495  0.5717
  146MOL0     C20067   1.443   4.512   6.380 -0.5679  0.2665 -0.6671
  146MOL0     C20068   1.404   4.428   6.277 -0.0049 -0.1119 -0.4061
  146MOL0     O20069   1.451   4.293   6.260  0.1577 -0.5065  0.0620
  146MOL0     C20070   1.565   4.237   6.329  0.0799 -0.1959 -0.2689
  146MOL0     C20071   1.602   4.094   6.273  0.4230 -0.4534 -0.3379
  146MOL0     C20072   1.694   4.011   6.360  0.1924  0.5624 -0.1091
  146MOL0     C20073   1.834   4.075   6.386 -0.4965  0.6076  0.4125
  146MOL0     C20074   1.916   4.046   6.269 -0.5334  0.6469  0.3967
  146MOL0     C20075   1.984   4.026   6.177  1.1962 -0.5705  0.8730
  146MOL0     C20076   1.313   4.478   6.185 -0.0010  0.3326 -0.2979
  146MOL0     C20077   1.256   4.605   6.199 -0.1720  0.0952  0.1829
  146MOL0     C20078   1.153   4.635   6.086  0.1529 -0.7543 -0.0723
  146MOL0     H20079   1.426   5.128   6.384  0.5103  1.9185  1.3681
  146MOL0     H20080   1.344   5.330   6.475 -0.1704 -1.3051 -2.9626
  146MOL0     H20081   1.149   5.486   6.501 -2.3235 -2.5679 -0.0267
  146MOL0     H20082   1.270   5.474   6.633  0.6487 -1.7799 -1.4925
  146MOL0     H20083   0.984   5.576   6.678 -1.6219  0.8387  3.0501
  146MOL0     H20084   1.111   5.552   6.797  1.1731  0.9759 -0.2706
  146MOL0     H20085   1.120   5.785   6.773  0.1592  2.9084 -0.4731
  146MOL0     H20086   1.253   5.711   6.671 -1.3818 -0.5172 -0.6404
  146MOL0     H20087   1.054   5.735   6.479  2.5096 -1.0947 -0.0171
  146MOL0     H20088   0.974   5.825   6.613 -0.3014 -3.2704  2.7018
  146MOL0     H20089   1.249   5.888   6.490  0.4385  0.1593  1.3049
  146MOL0     H20090   1.185   5.990   6.611  0.8357  2.8545 -1.4987
  146MOL0     H20091   1.065   5.933   6.338  1.4618 -2.3173  1.6213
  146MOL0     H20092   0.973   6.011   6.460 -0.2331 -1.8327 -0.7109
  146MOL0     H20093   1.151   6.202   6.466  0.2051 -0.5782  0.8308
  146MOL0     H20094   1.073   6.162   6.306  0.2030 -3.4938 -2.7170
  146MOL0     H20095   1.291   6.035   6.255 -0.9302 -1.3053  2.0709
  146MOL0     H20096   1.323   6.214   6.275  2.6626 -0.8049 -0.3046
  146MOL0     H20097   1.448   5.878   6.366 -3.2647  0.7745 -0.1095
  146MOL0     H20098   1.725   5.919   6.635  2.7222  1.2404 -3.7072
  146MOL0     H20099   1.725   5.828   6.502  1.1419 -0.9415  0.4906
  146MOL0     H20100   1.481   5.747   6.574 -0.5638 -0.1624  0.5270
  146MOL0     H20101   1.609   5.684   6.668  1.5246  1.7425 -0.4358
  146MOL0     H20102   1.558   5.914   6.820 -2.6247  1.7578 -0.0113
  146MOL0     H20103   1.397   5.876   6.756 -0.0796 -0.3267  1.5341
  146MOL0     H20104   1.380   5.678   6.885  0.4387 -2.9396  0.0421
  146MOL0     H20105   1.545   5.632   6.856  1.1510 -1.4395  3.0541
  146MOL0     H20106   1.544   5.895   7.223  1.5874 -3.4226  2.0105
  146MOL0     H20107   1.809   6.039   7.393  0.1303  5.4341  2.4319
  146MOL0     H20108   1.643   6.066   7.364 -1.0454  1.5592 -0.6531
  146MOL0     H20109   1.765   6.165   7.278 -2.7858  0.6149  1.3736
  146MOL0     H20110   2.209   6.095   7.422  0.7929  0.1289  0.0275
  146MOL0     H20111   2.379   6.259   7.453  1.3770 -0.5489 -0.6975
  146MOL0     H20112   2.419   6.611   7.148  2.0154  1.2777 -0.4849
  146MOL0     H20113   2.320   6.639   7.286  0.3199  1.4288 -0.9297
  146MOL0     H20114   2.506   6.721   7.422 -2.5546 -1.2342  0.3684
  146MOL0     H20115   2.623   6.667   7.297 -1.7075 -0.7540 -2.9764
  146MOL0     H20116   2.563   6.845   7.152  0.9036 -2.8201  0.7680
  146MOL0     H20117   2.544   6.923   7.321 -1.6239 -0.6366  1.9302
  146MOL0     H20118   2.301   6.904   7.307 -0.3666  1.7266  0.5307
  146MOL0     H20119   2.332   6.824   7.157  2.5877 -0.0680  0.3890
  146MOL0     H20120   2.475   7.074   7.128  0.4593  0.7525  1.3598
  146MOL0     H20121   2.322   7.023   7.054  0.2909  1.7534 -0.6300
  146MOL0     H20122   2.296   7.126   7.327 -0.5143  2.7046  0.9004
  146MOL0     H20123   2.185   7.100   7.206  0.9366 -1.6620  1.8963
  146MOL0     H20124   2.441   7.284   7.151  0.8858  0.5954  1.0370
  146MOL0     H20125   2.308   7.351   7.242  1.1545  1.0358 -1.3579
  146MOL0     H20126   2.159   7.339   7.048  0.3518  0.6237 -0.5146
  146MOL0     H20127   2.275   7.228   6.971 -1.7565 -2.0630  2.0509
  146MOL0     H20128   2.265   6.471   7.102  3.3813  1.1080  0.5757
  146MOL0     H20129   2.065   6.318   7.082  0.6301  0.5258 -0.1558
  146MOL0     H20130   1.958   5.861   6.945  0.9650 -0.2700  0.6576
  146MOL0     H20131   1.782   5.728   6.891  1.3228 -0.9515  1.5637
  146MOL0     H20132   1.046   5.117   6.705 -0.5161 -0.8425  1.6897
  146MOL0     H20133   1.131   4.904   6.611 -0.9663  0.4105  1.3490
  146MOL0     H20134   1.419   4.700   6.480  1.2630  2.0319 -1.5403
  146MOL0     H20135   1.506   4.477   6.461 -1.5594  0.8225  0.3706
  146MOL0     H20136   1.644   4.311   6.315  0.9039 -0.8684  0.6905
  146MOL0     H20137   1.538   4.227   6.434  3.7478  2.0580  1.0631
  146MOL0     H20138   1.652   4.108   6.177 -2.1501  2.4564 -1.4500
  146MOL0     H20139   1.506   4.046   6.250  0.7973 -0.3862 -2.2458
  146MOL0     H20140   1.648   4.003   6.459  0.3346 -3.0669 -0.2335
  146MOL0     H20141   1.709   3.907   6.333  4.9076  0.8241  0.5535
  146MOL0     H20142   1.873   4.037   6.481 -1.4727 -1.9367 -0.1183
  146MOL0     H20143   1.826   4.183   6.400 -0.1954  0.5974  0.6765
  146MOL0     H20144   2.038   3.997   6.089  0.3518 -2.7856  1.0308
  146MOL0     H20145   1.278   4.421   6.099  1.0969 -0.2038 -0.4095
  146MOL0     H20146   1.129   4.550   6.022 -1.5083 -0.9023  0.7004
  146MOL0     H20147   1.058   4.671   6.126 -0.6291 -1.9300 -0.8318
  146MOL0     H20148   1.196   4.716   6.026  2.2624 -1.6038  0.2090
  147MOL0     O20149   3.508   5.229   7.943 -0.0867 -1.4313 -0.2929
  147MOL0     C20150   3.447   5.200   8.041  0.0036 -0.6096 -0.1456
  147MOL0     O20151   3.489   5.115   8.138 -0.7361  0.0463 -0.1291
  147MOL0     C20152   3.597   5.028   8.125 -0.5312  0.0337  0.5214
  147MOL0     C20153   3.721   5.079   8.080 -0.8764 -0.1891  0.3716
  147MOL0     C20154   3.824   4.999   8.071 -0.6641  0.3571 -0.7086
  147MOL0     C20155   3.817   4.869   8.114 -0.6354 -0.1514 -0.2042
  147MOL0     O20156   3.922   4.787   8.105 -0.1209 -0.0917  0.2073
  147MOL0     C20157   3.982   4.765   8.230  0.2007  0.5460  0.2816
  147MOL0     C20158   4.047   4.630   8.236 -0.5133 -0.4058 -0.6971
  147MOL0     C20159   4.153   4.607   8.129  0.1070 -0.0230 -0.1395
  147MOL0     C20160   4.102   4.511   8.012 -0.0444 -0.0256 -0.7974
  147MOL0     C20161   4.223   4.480   7.921 -0.0238 -0.2371  0.9553
  147MOL0     C20162   4.182   4.425   7.793 -0.5011  0.5469  0.1626
  147MOL0     C20163   4.287   4.376   7.708  0.3874  0.5908  0.1225
  147MOL0     C20164   4.401   4.477   7.678 -0.1366 -0.6419  0.8364
  147MOL0     N20165   4.497   4.428   7.577 -0.1465  0.2141 -0.8404
  147MOL0     C20166   4.579   4.509   7.508 -0.9245 -0.0185  0.7519
  147MOL0     C20167   4.661   4.431   7.433  0.3548 -0.4793  0.0229
  147MOL0     C20168   4.787   4.488   7.361  1.0094  0.5915  0.2817
  147MOL0     C20169   4.779   4.521   7.211  0.0954 -0.4759 -0.2493
  147MOL0     C20170   4.918   4.566   7.139 -0.3439 -0.2843  0.2491
  147MOL0     C20171   4.973   4.689   7.200 -0.4416 -0.6275  0.1416
  147MOL0     O20172   5.102   4.715   7.136  0.3764  0.2771  0.2198
  147MOL0     C20173   5.197   4.808   7.166 -0.0086 -0.7746  0.2865
  147MOL0     C20174   5.301   4.842   7.074  1.2335  0.4533 -0.3938
  147MOL0     C20175   5.398   4.945   7.100  0.0585  0.6997  1.0531
  147MOL0     C20176   5.508   4.958   6.995 -0.0758 -0.6376 -0.7952
  147MOL0     C20177   5.397   4.990   7.228  0.3860 -0.2183 -0.3351
  147MOL0     C20178   5.495   5.093   7.272 -0.4821  0.6016  0.1915
  147MOL0     O20179   5.555   5.079   7.391 -0.7617  0.5335  0.1298
  147MOL0     C20180   5.638   5.176   7.431 -0.5790 -0.0808 -0.1295
  147MOL0     C20181   5.591   5.281   7.500  0.3092 -0.4642 -0.2339
  147MOL0     C20182   5.685   5.376   7.558 -0.2579 -0.5504 -0.0995
  147MOL0     C20183   5.823   5.369   7.545 -0.3881  0.0615 -0.7211
  147MOL0     O20184   5.908   5.451   7.608 -0.2423 -0.2067 -0.7171
  147MOL0     C20185   6.043   5.482   7.547  0.4502  0.6390 -0.2517
  147MOL0     C20186   6.111   5.561   7.660  1.0234  0.2533 -0.3388
  147MOL0     C20187   6.197   5.468   7.749 -0.4832  1.0272  1.3572
  147MOL0     C20188   6.255   5.539   7.873 -0.2670  0.0975  0.0744
  147MOL0     C20189   6.386   5.470   7.923 -0.3361 -0.5635  0.5166
  147MOL0     C20190   6.376   5.327   7.969  0.7960  0.8677 -0.5210
  147MOL0     C20191   6.479   5.282   8.072 -0.3490 -1.1984 -0.0233
  147MOL0     C20192   6.618   5.278   8.005  1.2102  0.5250 -0.4942
  147MOL0    Cl20193   6.615   5.119   7.917 -0.1478 -0.3279  0.1832
  147MOL0     C20194   5.862   5.257   7.466 -0.7836 -0.8806  0.4012
  147MOL0     C20195   5.777   5.175   7.406  0.8989  0.6421 -0.7496
  147MOL0     O20196   5.514   5.187   7.195 -0.2702 -0.3190  0.9173
  147MOL0     C20197   5.289   4.966   7.318  0.3001 -0.8035 -0.6125
  147MOL0     C20198   5.181   4.882   7.283  0.1766  0.3999  0.2623
  147MOL0     N20199   4.621   4.300   7.463  0.4925 -0.7166 -0.3279
  147MOL0     N20200   4.528   4.298   7.556 -0.0764  0.5083 -0.0032
  147MOL0     C20201   3.696   4.814   8.161 -0.2351  1.0282  0.1186
  147MOL0     C20202   3.581   4.891   8.157 -0.0662  0.2016  0.1191
  147MOL0     C20203   3.307   5.244   8.051 -0.1877 -0.5953 -0.0608
  147MOL0     C20204   3.215   5.155   8.123 -0.5119  0.0613 -0.1789
  147MOL0     C20205   3.079   5.180   8.120  0.6385 -0.2222 -0.1853
  147MOL0     C20206   3.027   5.294   8.051 -0.2212  0.3908 -0.0266
  147MOL0     O20207   2.900   5.335   8.058  0.8343 -0.2148 -0.7173
  147MOL0     C20208   2.848   5.333   8.186 -0.6963  0.2807 -0.5211
  147MOL0     C20209   2.712   5.413   8.196 -0.1881 -0.8039 -0.1565
  147MOL0     C20210   2.595   5.327   8.140  0.2194 -0.0309 -0.6915
  147MOL0     C20211   2.543   5.366   7.998  0.2848 -0.1949 -0.3436
  147MOL0     C20212   2.654   5.374   7.902 -0.2653  0.1269 -0.4905
  147MOL0     C20213   2.728   5.379   7.806 -0.1655 -0.6203 -0.0050
  147MOL0     C20214   3.115   5.373   7.990 -0.0833  0.1378  1.3185
  147MOL0     C20215   3.249   5.349   7.982 -1.3810  0.0698  0.1076
  147MOL0     C20216   3.329   5.441   7.888  0.2263 -0.2244  0.4641
  147MOL0     H20217   3.730   5.174   8.028  0.8763 -1.0729 -1.0615
  147MOL0     H20218   3.909   5.032   8.013 -2.4608  0.8668 -3.2167
  147MOL0     H20219   3.923   4.763   8.322 -1.1939 -1.8368 -0.5857
  147MOL0     H20220   4.054   4.846   8.245 -1.6885  1.8375  3.3914
  147MOL0     H20221   4.096   4.633   8.333  2.0213  2.1770 -1.8935
  147MOL0     H20222   3.978   4.546   8.229  0.2956 -0.9463 -4.3980
  147MOL0     H20223   4.181   4.700   8.079 -3.4845  0.9956 -0.5167
  147MOL0     H20224   4.240   4.552   8.167 -0.7278 -2.3145 -1.3072
  147MOL0     H20225   4.061   4.414   8.042 -0.9423  0.5161 -0.2052
  147MOL0     H20226   4.014   4.555   7.964  0.0748  1.7193  0.4913
  147MOL0     H20227   4.290   4.407   7.967  0.1033 -1.1253 -0.5662
  147MOL0     H20228   4.279   4.572   7.903 -0.7245 -0.0565 -0.4393
  147MOL0     H20229   4.103   4.349   7.798 -0.9621  0.8256 -1.9000
  147MOL0     H20230   4.141   4.506   7.731  1.4878  0.4338 -1.3659
  147MOL0     H20231   4.243   4.332   7.618 -1.3014  0.2626  1.0716
  147MOL0     H20232   4.331   4.297   7.770  0.4021  1.2793  1.0021
  147MOL0     H20233   4.366   4.578   7.655  5.2093  0.9724 -1.8713
  147MOL0     H20234   4.464   4.489   7.766 -0.2699  0.0761  0.8399
  147MOL0     H20235   4.580   4.618   7.509  1.8659  0.0202  1.9014
  147MOL0     H20236   4.861   4.411   7.382 -1.4729 -1.5671  1.8215
  147MOL0     H20237   4.832   4.571   7.416 -1.7476  0.8173  2.4300
  147MOL0     H20238   4.739   4.430   7.166  1.0168 -0.2669 -1.5307
  147MOL0     H20239   4.696   4.590   7.193  0.7163  0.6299  0.9685
  147MOL0     H20240   4.992   4.485   7.147 -0.7580 -0.7126 -0.2428
  147MOL0     H20241   4.890   4.580   7.034 -0.8667 -3.4821 -0.1397
  147MOL0     H20242   4.916   4.780   7.180  1.1793  0.4843  0.3533
  147MOL0     H20243   4.990   4.672   7.306 -0.4132  0.0246  0.2448
  147MOL0     H20244   5.304   4.781   6.984 -3.6910 -1.0673  0.1487
  147MOL0     H20245   5.476   5.028   6.918 -1.9932 -1.2165 -0.5718
  147MOL0     H20246   5.531   4.867   6.938 -0.7226 -1.8090  0.7551
  147MOL0     H20247   5.599   5.005   7.033  0.2347  0.8963 -3.1956
  147MOL0     H20248   5.484   5.290   7.511  0.2452 -3.3397  2.8162
  147MOL0     H20249   5.643   5.452   7.622 -0.9072  0.8657 -2.1244
  147MOL0     H20250   6.100   5.394   7.517  1.6215  0.8334  1.2633
  147MOL0     H20251   6.037   5.544   7.457  1.8212 -3.2597 -3.2570
  147MOL0     H20252   6.173   5.646   7.630  1.3357  0.1051 -0.1044
  147MOL0     H20253   6.033   5.612   7.718  1.7580  1.1041 -0.0761
  147MOL0     H20254   6.273   5.428   7.682 -0.5938  2.6950  0.1890
  147MOL0     H20255   6.144   5.383   7.794  1.9129  0.5545  3.4770
  147MOL0     H20256   6.186   5.546   7.958  0.7604 -0.5290  0.9873
  147MOL0     H20257   6.274   5.642   7.840 -2.4596  0.7462  0.6558
  147MOL0     H20258   6.470   5.467   7.853 -1.3345 -1.2470 -0.6925
  147MOL0     H20259   6.411   5.522   8.016  0.3231  2.3414 -1.1639
  147MOL0     H20260   6.372   5.255   7.887  6.1607 -2.3040  1.4912
  147MOL0     H20261   6.282   5.333   8.025  0.2648 -0.5024 -1.2111
  147MOL0     H20262   6.456   5.182   8.111  0.4346 -0.5292  2.3794
  147MOL0     H20263   6.470   5.358   8.151 -2.9679 -0.8069 -0.5957
  147MOL0     H20264   6.678   5.270   8.096 -0.8518 -2.3981  0.7611
  147MOL0     H20265   6.652   5.367   7.952  0.3049 -0.2840 -2.5333
  147MOL0     H20266   5.966   5.239   7.438 -0.6550 -1.1791  1.0567
  147MOL0     H20267   5.823   5.102   7.340  3.5123  3.3350 -2.1685
  147MOL0     H20268   5.301   5.012   7.415  1.2433  2.4142 -2.0959
  147MOL0     H20269   5.108   4.875   7.363  1.1302 -1.8700  1.0375
  147MOL0     H20270   3.696   4.707   8.181  0.3642  0.5038 -2.3158
  147MOL0     H20271   3.484   4.851   8.184 -0.4815  2.4545  2.3596
  147MOL0     H20272   3.252   5.071   8.180 -2.6837 -0.0892  1.1195
  147MOL0     H20273   2.999   5.127   8.171  0.3372  0.0251 -0.3894
  147MOL0     H20274   2.833   5.234   8.230  0.4229  0.2647 -0.1429
  147MOL0     H20275   2.923   5.376   8.254 -0.2194 -2.3132  0.6987
  147MOL0     H20276   2.722   5.496   8.126  3.9411 -1.1368 -0.2310
  147MOL0     H20277   2.689   5.444   8.298 -2.7901 -2.8447 -0.0263
  147MOL0     H20278   2.624   5.221   8.144 -0.6278 -0.2282  0.9775
  147MOL0     H20279   2.510   5.337   8.208 -1.5936 -3.4427 -2.1802
  147MOL0     H20280   2.505   5.467   8.018 -1.5527 -0.6336 -1.3708
  147MOL0     H20281   2.460   5.310   7.955 -0.0719  0.6351 -0.7614
  147MOL0     H20282   2.783   5.378   7.714  2.8037 -1.4852  1.6383
  147MOL0     H20283   3.063   5.444   7.927 -0.8956 -1.3782  0.2206
  147MOL0     H20284   3.262   5.523   7.859  0.7971 -0.3284 -1.3118
  147MOL0     H20285   3.426   5.476   7.923  0.2299 -1.7782  2.1251
  147MOL0     H20286   3.348   5.384   7.796  2.3224 -2.9674  2.4232
  148MOL0     O20287   0.161   3.936   1.710  0.7415  0.0665  0.6138
  148MOL0     C20288   0.265   3.985   1.752 -0.7844  0.0981 -0.0273
  148MOL0     O20289   0.289   4.116   1.767  0.4278 -0.6758  0.0728
  148MOL0     C20290   0.178   4.201   1.779 -0.1584 -0.2964  0.7504
  148MOL0     C20291   0.135   4.241   1.904 -0.2402  0.5228  0.2049
  148MOL0     C20292   0.032   4.324   1.937  0.2757  0.0176  0.8303
  148MOL0     C20293  -0.039   4.381   1.831  0.4676 -0.0310 -0.2159
  148MOL0     O20294  -0.137   4.469   1.866 -0.8082 -1.1266  0.2993
  148MOL0     C20295  -0.140   4.598   1.800  0.2274  0.0733  0.7262
  148MOL0     C20296  -0.254   4.688   1.866 -0.2520 -0.4059  0.0748
  148MOL0     C20297  -0.254   4.704   2.012  0.0158  0.2212  0.3802
  148MOL0     C20298  -0.362   4.795   2.066  0.3349  0.0631  0.3773
  148MOL0     C20299  -0.368   4.790   2.213 -0.6101 -0.3525  0.4540
  148MOL0     C20300  -0.472   4.880   2.280 -0.0531  0.7193  0.5543
  148MOL0     C20301  -0.479   4.863   2.440  1.1073 -0.7151 -0.0505
  148MOL0     C20302  -0.590   4.952   2.496  0.4654 -0.2320  0.6860
  148MOL0     N20303  -0.632   4.939   2.637  0.5418  0.3598 -0.4832
  148MOL0     C20304  -0.576   5.000   2.740 -0.3171  0.3961 -0.4584
  148MOL0     C20305  -0.638   4.950   2.852  0.3750  0.0565 -0.7800
  148MOL0     C20306  -0.619   4.982   3.003 -0.1108  0.0176  0.8919
  148MOL0     C20307  -0.695   5.111   3.029  0.0133  0.1382  0.2976
  148MOL0     C20308  -0.698   5.158   3.174 -0.0423  0.0925  0.3027
  148MOL0     C20309  -0.810   5.258   3.211  0.1521 -0.1661 -0.0834
  148MOL0     O20310  -0.787   5.329   3.336 -0.0838  0.3224 -1.4859
  148MOL0     C20311  -0.876   5.415   3.386  0.3923  0.0535 -0.2771
  148MOL0     C20312  -0.855   5.463   3.517 -0.8187 -0.2859 -0.3096
  148MOL0     C20313  -0.945   5.556   3.569  0.0774  0.0953 -0.3280
  148MOL0     C20314  -0.933   5.573   3.723 -0.5585  0.4493 -0.6409
  148MOL0     C20315  -1.052   5.608   3.491 -0.6438 -0.2454 -1.5572
  148MOL0     C20316  -1.150   5.703   3.548 -0.1991 -0.0299  0.7015
  148MOL0     O20317  -1.170   5.706   3.681 -0.5850  0.0676  0.0053
  148MOL0     C20318  -1.281   5.761   3.743 -1.0899  0.2482  0.1398
  148MOL0     C20319  -1.261   5.784   3.884  0.9192  0.4871 -0.9052
  148MOL0     C20320  -1.367   5.845   3.955  0.1975 -0.2015 -0.1218
  148MOL0     C20321  -1.491   5.862   3.899  0.6502  0.2566  1.0031
  148MOL0     O20322  -1.589   5.935   3.963 -0.1536  0.2238 -0.0784
  148MOL0     C20323  -1.590   5.952   4.109 -0.0034 -0.6809 -0.5626
  148MOL0     C20324  -1.499   6.071   4.147  0.0251  0.3302  0.1681
  148MOL0     C20325  -1.569   6.163   4.253 -0.4123  0.3479 -0.1294
  148MOL0     C20326  -1.554   6.113   4.404  0.0974 -0.6182  0.4892
  148MOL0     C20327  -1.621   6.221   4.503 -0.7298  0.1676  0.2785
  148MOL0     C20328  -1.572   6.209   4.638 -0.4155  0.0769 -0.3701
  148MOL0     C20329  -1.609   6.079   4.708 -0.8860  0.2372  0.3271
  148MOL0     C20330  -1.532   6.071   4.838  0.0868 -0.2028 -0.7914
  148MOL0    Cl20331  -1.373   6.149   4.845  0.4259  0.2777  0.3086
  148MOL0     C20332  -1.515   5.817   3.764 -0.8061 -0.6023 -0.0959
  148MOL0     C20333  -1.410   5.763   3.686  0.4209 -0.1341 -0.6589
  148MOL0     O20334  -1.212   5.768   3.461  0.0347 -0.8467  0.4358
  148MOL0     C20335  -1.078   5.555   3.373 -1.1083  0.1647 -0.2774
  148MOL0     C20336  -0.991   5.455   3.317  0.2345 -0.1680  0.2867
  148MOL0     N20337  -0.739   4.869   2.806  0.1383  0.5143 -1.0701
  148MOL0     N20338  -0.740   4.864   2.675  0.1458 -0.1588  0.7792
  148MOL0     C20339  -0.007   4.346   1.697 -0.0398 -0.0387 -0.7078
  148MOL0     C20340   0.100   4.253   1.677  0.3087 -0.1187 -0.0225
  148MOL0     C20341   0.379   3.897   1.789 -0.1450  0.0844 -0.2832
  148MOL0     C20342   0.498   3.958   1.843  0.4766  0.3016  0.0142
  148MOL0     C20343   0.614   3.886   1.865 -0.1228 -0.5594  0.0123
  148MOL0     C20344   0.611   3.749   1.850 -0.6654 -0.2167 -0.2642
  148MOL0     O20345   0.722   3.681   1.890 -0.3550  0.4340 -0.5296
  148MOL0     C20346   0.706   3.585   1.995  0.0788  0.1885  0.2251
  148MOL0     C20347   0.764   3.448   1.961  0.3180 -0.8062 -0.5345
  148MOL0     C20348   0.736   3.382   1.820 -0.3105  0.7694  0.1187
  148MOL0     C20349   0.608   3.300   1.810 -0.9406  0.0881  0.4516
  148MOL0     C20350   0.592   3.233   1.671  0.2989 -0.0302  0.0359
  148MOL0     C20351   0.590   3.201   1.554 -0.5871 -0.9834  0.4931
  148MOL0     C20352   0.497   3.683   1.801 -0.0365  0.1649 -0.2433
  148MOL0     C20353   0.383   3.754   1.775 -0.4743 -0.1323 -0.4387
  148MOL0     C20354   0.280   3.669   1.705  0.0449 -1.2903  1.3199
  148MOL0     H20355   0.186   4.194   1.988 -0.8763 -1.4425 -0.4581
  148MOL0     H20356   0.008   4.351   2.039 -1.1450 -3.0926  1.4224
  148MOL0     H20357  -0.152   4.594   1.691  1.0245 -1.6925  0.6629
  148MOL0     H20358  -0.046   4.654   1.810  0.6871 -0.9698  2.8428
  148MOL0     H20359  -0.247   4.786   1.818 -0.9886 -1.0084 -1.3305
  148MOL0     H20360  -0.351   4.647   1.835  0.1333 -2.4363  1.3742
  148MOL0     H20361  -0.269   4.607   2.059 -1.3749  0.3662  0.2583
  148MOL0     H20362  -0.160   4.737   2.058  0.5476 -3.1319  2.0085
  148MOL0     H20363  -0.337   4.899   2.043 -2.0781  0.1206 -2.5435
  148MOL0     H20364  -0.459   4.769   2.024  1.4180 -3.7309 -0.1491
  148MOL0     H20365  -0.271   4.823   2.251  0.1576 -0.4965 -1.2946
  148MOL0     H20366  -0.383   4.687   2.247 -0.8877 -0.3382  0.3784
  148MOL0     H20367  -0.460   4.987   2.259  1.1284  0.4987  0.0300
  148MOL0     H20368  -0.568   4.849   2.237 -0.1575  1.0176  0.5689
  148MOL0     H20369  -0.392   4.905   2.493 -2.3025  1.0137  4.9791
  148MOL0     H20370  -0.496   4.758   2.465  2.7373 -0.6206  1.7189
  148MOL0     H20371  -0.553   5.054   2.491 -0.3883  0.0510 -0.3769
  148MOL0     H20372  -0.681   4.952   2.434 -0.7296 -2.5520  2.2515
  148MOL0     H20373  -0.507   5.083   2.745 -2.4101  2.1832  0.2262
  148MOL0     H20374  -0.514   4.985   3.036 -0.4132  0.2606  1.8734
  148MOL0     H20375  -0.670   4.905   3.062 -2.0142  1.5435  1.3459
  148MOL0     H20376  -0.654   5.193   2.969  1.2772  1.0747  2.3126
  148MOL0     H20377  -0.799   5.102   2.998 -0.1655  2.6969 -0.0741
  148MOL0     H20378  -0.711   5.073   3.242 -1.2425  0.2734  0.3259
  148MOL0     H20379  -0.603   5.207   3.196 -0.5164  1.1724  0.0067
  148MOL0     H20380  -0.824   5.331   3.131  1.6522  1.5545  1.1402
  148MOL0     H20381  -0.902   5.199   3.215  2.0313 -3.3108 -0.0468
  148MOL0     H20382  -0.775   5.415   3.573 -1.2838 -2.3038 -1.2576
  148MOL0     H20383  -0.956   5.672   3.764 -1.2899  0.0944 -0.1920
  148MOL0     H20384  -0.838   5.546   3.771 -2.6129  0.4061  3.8309
  148MOL0     H20385  -1.007   5.507   3.768  0.9385 -1.4980 -0.8664
  148MOL0     H20386  -1.169   5.746   3.927  0.1356 -1.2854 -0.6862
  148MOL0     H20387  -1.356   5.880   4.057 -1.4647  2.9606 -0.9076
  148MOL0     H20388  -1.694   5.961   4.143  0.1502 -0.8733 -0.0209
  148MOL0     H20389  -1.556   5.861   4.159  0.8568 -1.5724 -2.6714
  148MOL0     H20390  -1.400   6.038   4.179  2.0088  1.8837 -3.6684
  148MOL0     H20391  -1.481   6.141   4.065  3.6835 -0.6351 -0.0106
  148MOL0     H20392  -1.677   6.165   4.237 -1.1074  0.5836  3.5582
  148MOL0     H20393  -1.517   6.259   4.256  0.1001  0.0934  3.4956
  148MOL0     H20394  -1.447   6.110   4.428  0.6221 -0.3415 -1.6616
  148MOL0     H20395  -1.597   6.014   4.419 -0.8195 -0.1921  0.7836
  148MOL0     H20396  -1.583   6.321   4.482  1.7598 -0.7903 -0.1849
  148MOL0     H20397  -1.729   6.209   4.499 -0.8471 -0.2316  2.9523
  148MOL0     H20398  -1.613   6.289   4.700 -0.6084 -0.8371  0.7371
  148MOL0     H20399  -1.465   6.222   4.621 -0.1258  0.8566  1.7350
  148MOL0     H20400  -1.576   5.987   4.659 -0.2793  1.1090 -0.9723
  148MOL0     H20401  -1.715   6.080   4.733 -1.3557 -2.2137 -1.2949
  148MOL0     H20402  -1.534   5.970   4.879 -3.6195  1.2309  3.2473
  148MOL0     H20403  -1.578   6.126   4.920  0.8838 -0.8141  0.0764
  148MOL0     H20404  -1.612   5.839   3.720 -2.0800 -1.3895  2.1273
  148MOL0     H20405  -1.434   5.736   3.584 -2.6050 -0.1367 -0.0394
  148MOL0     H20406  -1.166   5.587   3.317 -0.0563  1.5465 -1.2102
  148MOL0     H20407  -1.007   5.428   3.214  1.3117 -0.0464  0.0702
  148MOL0     H20408  -0.055   4.388   1.610  0.0554 -0.2511 -0.8630
  148MOL0     H20409   0.109   4.221   1.574  2.2026 -0.0377  0.0859
  148MOL0     H20410   0.504   4.065   1.856 -0.1833  0.6911 -2.4032
  148MOL0     H20411   0.706   3.928   1.904  0.0091  1.0767 -1.9097
  148MOL0     H20412   0.746   3.627   2.087  0.7955  0.0196 -0.0017
  148MOL0     H20413   0.599   3.568   2.013 -0.1048 -0.2889 -1.1604
  148MOL0     H20414   0.734   3.376   2.037 -2.1783 -1.0443 -1.6472
  148MOL0     H20415   0.873   3.462   1.968  0.2408 -0.3269 -0.1991
  148MOL0     H20416   0.753   3.455   1.740 -3.1218  0.4078 -0.8924
  148MOL0     H20417   0.808   3.299   1.813 -0.6243  0.4950  0.1429
  148MOL0     H20418   0.527   3.372   1.817  0.6664  2.1430 -0.8904
  148MOL0     H20419   0.607   3.223   1.889 -0.4361  0.4075  0.7780
  148MOL0     H20420   0.585   3.175   1.450  2.1724 -3.6516  0.8671
  148MOL0     H20421   0.487   3.575   1.801 -0.1648  0.1719  0.5738
  148MOL0     H20422   0.182   3.664   1.752 -0.7828 -0.0322 -0.1757
  148MOL0     H20423   0.249   3.699   1.605 -1.6664  1.1698  2.4991
  148MOL0     H20424   0.298   3.561   1.709 -0.9634 -1.6034 -1.0953
  149MOL0     O20425   0.720   0.003   4.485  0.2856  0.4515  0.5455
  149MOL0     C20426   0.691  -0.116   4.498  0.3011 -0.9950 -0.0352
  149MOL0     O20427   0.573  -0.171   4.545 -0.3064 -1.0623  0.3589
  149MOL0     C20428   0.476  -0.074   4.573 -0.1047 -0.7192  0.9041
  149MOL0     C20429   0.469   0.006   4.689 -0.6006  0.1556 -0.2786
  149MOL0     C20430   0.364   0.089   4.716  0.4421 -0.7680 -0.9579
  149MOL0     C20431   0.257   0.103   4.627 -0.2936 -0.4983 -0.1912
  149MOL0     O20432   0.156   0.192   4.658 -0.4355 -0.4917 -0.2106
  149MOL0     C20433   0.104   0.192   4.795  0.0087  1.3760  0.7717
  149MOL0     C20434  -0.010   0.288   4.814  0.0299 -0.4343  0.0492
  149MOL0     C20435  -0.137   0.246   4.745 -0.0820  1.1624  0.2842
  149MOL0     C20436  -0.277   0.306   4.798 -0.6773 -0.3405  0.9584
  149MOL0     C20437  -0.305   0.242   4.937  0.3691  0.4284 -0.0825
  149MOL0     C20438  -0.401   0.308   5.040 -0.1939  0.5237 -0.3117
  149MOL0     C20439  -0.544   0.263   5.004  0.5123 -0.4385  0.0439
  149MOL0     C20440  -0.609   0.388   4.938 -0.0258  0.3948 -0.1722
  149MOL0     N20441  -0.753   0.359   4.925 -0.0037 -1.0947  0.4022
  149MOL0     C20442  -0.823   0.324   4.816 -0.9203 -0.4287 -0.1558
  149MOL0     C20443  -0.953   0.323   4.850  0.1321 -0.0332  0.7321
  149MOL0     C20444  -1.059   0.283   4.744 -0.5814 -0.2461  0.1567
  149MOL0     C20445  -1.111   0.394   4.651  0.4208  0.6375  0.2019
  149MOL0     C20446  -1.077   0.376   4.497 -0.6661 -0.3091 -1.3068
  149MOL0     C20447  -1.031   0.511   4.431  0.0998  0.5284 -0.1908
  149MOL0     O20448  -1.133   0.581   4.352 -0.0045  0.0467 -0.2202
  149MOL0     C20449  -1.156   0.538   4.224 -0.1701  0.3309  0.7031
  149MOL0     C20450  -1.271   0.591   4.156 -0.4116 -0.3598 -1.0052
  149MOL0     C20451  -1.309   0.570   4.019  0.5071  1.0214 -0.4236
  149MOL0     C20452  -1.422   0.658   3.966  1.9557  0.4349  1.1030
  149MOL0     C20453  -1.241   0.471   3.948  1.1968  0.1300 -0.7465
  149MOL0     C20454  -1.279   0.428   3.810  1.2638 -0.7149 -0.1627
  149MOL0     O20455  -1.207   0.326   3.760  0.7402  0.2618 -1.2707
  149MOL0     C20456  -1.206   0.312   3.625 -0.2907  0.2551  0.2079
  149MOL0     C20457  -1.145   0.425   3.546 -0.1484  0.2430  0.0139
  149MOL0     C20458  -1.102   0.397   3.415 -0.2381 -0.4796  0.3868
  149MOL0     C20459  -1.117   0.268   3.357  0.2949  0.2217  0.2380
  149MOL0     O20460  -1.078   0.258   3.225  0.2846 -0.6723  0.6867
  149MOL0     C20461  -1.147   0.172   3.132  0.2187  0.4648  0.0687
  149MOL0     C20462  -1.037   0.095   3.060 -0.0544 -0.2858 -0.5988
  149MOL0     C20463  -1.046  -0.051   3.121  0.0273 -0.8281 -0.5096
  149MOL0     C20464  -1.166  -0.135   3.074  1.2058 -0.6168 -0.3061
  149MOL0     C20465  -1.172  -0.266   3.151  0.2674 -0.1704 -0.3961
  149MOL0     C20466  -1.257  -0.376   3.074  0.2378 -0.8853  0.7250
  149MOL0     C20467  -1.407  -0.354   3.075 -0.7887  0.7863 -1.5751
  149MOL0     C20468  -1.458  -0.340   3.219 -0.3188  0.0786  0.6814
  149MOL0    Cl20469  -1.627  -0.304   3.186  0.0867 -0.5485  0.4191
  149MOL0     C20470  -1.176   0.166   3.436 -0.2542 -0.3800  0.5286
  149MOL0     C20471  -1.213   0.188   3.567 -0.7024 -0.1686  0.8326
  149MOL0     O20472  -1.371   0.486   3.753  0.4384  0.1446  0.4818
  149MOL0     C20473  -1.133   0.400   4.006  0.4495 -1.1695  0.1355
  149MOL0     C20474  -1.087   0.433   4.148  1.1654 -0.0897 -1.0726
  149MOL0     N20475  -0.968   0.362   4.982  0.2490  0.3682 -0.1505
  149MOL0     N20476  -0.849   0.393   5.027  0.6627 -0.2628 -0.0407
  149MOL0     C20477   0.258   0.028   4.513 -0.3580 -0.1210 -0.7628
  149MOL0     C20478   0.372  -0.057   4.480  0.9259 -0.3612  0.7566
  149MOL0     C20479   0.795  -0.230   4.476  0.4744 -0.2823 -0.2463
  149MOL0     C20480   0.753  -0.370   4.486  0.3853 -1.1506  0.9443
  149MOL0     C20481   0.849  -0.468   4.468  0.2632  1.4828  0.3755
  149MOL0     C20482   0.986  -0.434   4.434  0.1745 -0.4525  0.4831
  149MOL0     O20483   1.077  -0.533   4.439  0.5596  0.5787 -0.7413
  149MOL0     C20484   1.188  -0.522   4.348  0.5841  0.4731  0.5010
  149MOL0     C20485   1.250  -0.662   4.318 -0.1184 -0.0760 -0.4346
  149MOL0     C20486   1.151  -0.746   4.236  0.0715  0.0928  0.3519
  149MOL0     C20487   1.161  -0.703   4.084  0.5627 -0.1214 -0.1966
  149MOL0     C20488   1.080  -0.798   4.006  0.1303  0.3667  0.1707
  149MOL0     C20489   1.031  -0.894   3.959  0.1058 -0.0422 -0.8773
  149MOL0     C20490   1.025  -0.298   4.422  0.1860  0.0040  0.2542
  149MOL0     C20491   0.929  -0.199   4.443 -0.0866 -0.8922  0.3881
  149MOL0     C20492   0.980  -0.051   4.439 -0.8572  0.4289  0.4270
  149MOL0     H20493   0.550   0.011   4.762  0.3129  0.7038 -1.3034
  149MOL0     H20494   0.365   0.142   4.811  0.6765 -1.4687 -0.5628
  149MOL0     H20495   0.181   0.221   4.867 -0.9125  2.3114  1.4230
  149MOL0     H20496   0.084   0.088   4.821  6.9704 -0.6401 -0.0902
  149MOL0     H20497  -0.022   0.291   4.923 -0.3071  0.8208 -0.0041
  149MOL0     H20498   0.027   0.386   4.781 -2.6637  1.6217  2.5982
  149MOL0     H20499  -0.139   0.275   4.639  2.4302  1.1470  0.1621
  149MOL0     H20500  -0.155   0.139   4.748  2.9308  0.4027 -2.5059
  149MOL0     H20501  -0.258   0.414   4.807  2.6461 -1.0016  5.1311
  149MOL0     H20502  -0.356   0.281   4.726  0.3646  0.5367 -0.5442
  149MOL0     H20503  -0.208   0.231   4.988  1.5783  3.0418 -1.6006
  149MOL0     H20504  -0.340   0.140   4.921 -0.6101  0.9923 -1.7451
  149MOL0     H20505  -0.380   0.275   5.142  3.0357 -1.0547 -1.3479
  149MOL0     H20506  -0.393   0.417   5.036 -2.4400  0.7465  0.0145
  149MOL0     H20507  -0.588   0.230   5.098  0.9812  0.4707  0.6041
  149MOL0     H20508  -0.548   0.175   4.940 -0.9804 -0.9216  0.7445
  149MOL0     H20509  -0.591   0.484   4.987  0.2551  0.2557 -0.0009
  149MOL0     H20510  -0.565   0.392   4.838 -0.5008 -1.7089 -0.5033
  149MOL0     H20511  -0.786   0.301   4.717 -0.7703 -0.8668 -0.0004
  149MOL0     H20512  -1.137   0.224   4.794 -2.7785  2.6230  0.3215
  149MOL0     H20513  -0.998   0.214   4.685  0.5352  1.7978 -1.1931
  149MOL0     H20514  -1.219   0.407   4.649  0.4835  1.3555 -2.7158
  149MOL0     H20515  -1.069   0.487   4.692 -1.4285  3.1701 -3.1985
  149MOL0     H20516  -0.995   0.305   4.480  0.4206  0.1026  1.6590
  149MOL0     H20517  -1.155   0.319   4.446 -1.6854 -3.4044  3.1645
  149MOL0     H20518  -0.981   0.578   4.501 -1.1647 -0.2957  1.5788
  149MOL0     H20519  -0.946   0.485   4.367 -0.0824 -3.1918  0.8585
  149MOL0     H20520  -1.312   0.675   4.210  2.1982  0.0375  0.5216
  149MOL0     H20521  -1.376   0.735   3.904 -1.2508  1.9054  0.3286
  149MOL0     H20522  -1.478   0.711   4.044  0.6127 -0.1713  0.5794
  149MOL0     H20523  -1.500   0.618   3.901  0.3538  1.9226  2.0117
  149MOL0     H20524  -1.126   0.518   3.599 -1.5604  0.7744 -0.3869
  149MOL0     H20525  -1.050   0.466   3.350 -1.9879  0.4392 -0.0863
  149MOL0     H20526  -1.214   0.102   3.183  2.0511 -0.3556  1.4427
  149MOL0     H20527  -1.201   0.226   3.053  1.8009 -1.1257 -2.2437
  149MOL0     H20528  -1.063   0.069   2.958  1.9054 -2.0432 -0.7228
  149MOL0     H20529  -0.936   0.138   3.068  0.1973 -1.0815  0.9031
  149MOL0     H20530  -1.042  -0.053   3.230 -0.3644  1.7333 -0.3877
  149MOL0     H20531  -0.950  -0.101   3.102  2.6459  3.0635  1.3079
  149MOL0     H20532  -1.156  -0.162   2.968  1.3575 -1.5447 -0.0631
  149MOL0     H20533  -1.261  -0.083   3.089  0.8737 -0.9542 -1.1893
  149MOL0     H20534  -1.076  -0.318   3.154 -0.2505 -1.0969  2.2280
  149MOL0     H20535  -1.198  -0.256   3.256 -0.4063  0.7851 -0.6400
  149MOL0     H20536  -1.237  -0.477   3.108  1.5425 -2.1569 -3.2209
  149MOL0     H20537  -1.228  -0.386   2.969  1.4709  1.5647  0.7520
  149MOL0     H20538  -1.442  -0.448   3.031  1.6192 -0.6460 -0.5807
  149MOL0     H20539  -1.444  -0.270   3.014  0.4627  1.9571 -0.7869
  149MOL0     H20540  -1.409  -0.259   3.274  0.0205  0.4250 -0.1206
  149MOL0     H20541  -1.433  -0.429   3.277  0.1995  0.0919  0.4761
  149MOL0     H20542  -1.195   0.072   3.385  2.0512 -1.2126  1.0761
  149MOL0     H20543  -1.261   0.111   3.627 -2.4881  2.1731  2.6246
  149MOL0     H20544  -1.077   0.321   3.957  1.5100 -1.2360  1.3862
  149MOL0     H20545  -0.999   0.387   4.191  0.5697  0.4611  0.8167
  149MOL0     H20546   0.174   0.038   4.446 -0.7373 -1.3521 -0.4914
  149MOL0     H20547   0.375  -0.117   4.390  0.9466 -0.7114  0.9914
  149MOL0     H20548   0.647  -0.386   4.504 -0.3739  1.7173 -0.4420
  149MOL0     H20549   0.818  -0.571   4.457  2.1366  1.1976 -3.8422
  149MOL0     H20550   1.166  -0.470   4.254  2.8616  1.2808  0.3551
  149MOL0     H20551   1.266  -0.465   4.398  1.6010 -0.1804 -0.3074
  149MOL0     H20552   1.272  -0.705   4.416 -2.3532 -2.0523 -0.7107
  149MOL0     H20553   1.344  -0.643   4.264  0.9111 -3.4612 -0.0470
  149MOL0     H20554   1.178  -0.850   4.257 -0.6070 -0.1465  0.0426
  149MOL0     H20555   1.049  -0.730   4.271 -1.1886 -2.3325 -1.9217
  149MOL0     H20556   1.260  -0.707   4.038 -1.0979  1.3742 -4.4087
  149MOL0     H20557   1.132  -0.597   4.081 -0.2008 -0.2226  1.8090
  149MOL0     H20558   0.981  -0.980   3.920 -0.1349 -0.8338  1.0465
  149MOL0     H20559   1.131  -0.280   4.403  1.0143 -2.4990  1.9653
  149MOL0     H20560   1.084  -0.064   4.409 -1.1816 -0.7211 -0.2646
  149MOL0     H20561   0.926   0.001   4.359 -2.9925  0.1784  1.6371
  149MOL0     H20562   0.964   0.007   4.530  0.6875 -0.1536  1.1021
  150MOL0     O20563  11.493   9.123  10.816 -0.7427  0.1176 -0.3325
  150MOL0     C20564  11.482   9.185  10.922 -0.2155 -0.3768  0.4287
  150MOL0     O20565  11.586   9.240  10.988 -0.2772  0.3720 -0.5388
  150MOL0     C20566  11.712   9.190  10.957  0.3122  0.9388 -1.1627
  150MOL0     C20567  11.755   9.078  11.037 -1.1199  0.0740 -0.0455
  150MOL0     C20568  11.876   9.019  11.009  1.1206 -0.0758  0.1128
  150MOL0     C20569  11.957   9.064  10.904 -0.3479 -0.1360  0.4570
  150MOL0     O20570  12.076   9.002  10.854  0.6114  0.9816 -0.4996
  150MOL0     C20571  12.049   8.915  10.745 -0.8197 -1.0712 -0.2561
  150MOL0     C20572  12.068   8.768  10.789  0.6353  0.1424 -0.3005
  150MOL0     C20573  12.064   8.685  10.666 -0.6290  0.1813 -0.3436
  150MOL0     C20574  12.088   8.541  10.715 -0.6020  0.0165  0.3922
  150MOL0     C20575  12.040   8.433  10.612 -0.6204  0.1615 -0.1645
  150MOL0     C20576  12.136   8.431  10.491  0.2019 -0.5361  0.3024
  150MOL0     C20577  12.146   8.291  10.424  1.2042 -0.6704  0.3508
  150MOL0     C20578  12.255   8.305  10.317  0.4161  0.2247  1.0829
  150MOL0     N20579  12.222   8.195  10.220  0.4348  0.1991  0.1286
  150MOL0     C20580  12.261   8.062  10.221 -0.8571 -0.1875 -0.3390
  150MOL0     C20581  12.198   8.003  10.115 -0.4104  0.4637 -0.4508
  150MOL0     C20582  12.200   7.857  10.057  0.3850 -0.0475  0.0367
  150MOL0     C20583  12.326   7.805   9.970  0.1197  0.3255 -0.8199
  150MOL0     C20584  12.437   7.778  10.069 -1.0680 -0.0644 -0.7785
  150MOL0     C20585  12.550   7.708   9.991 -0.1779 -0.4654 -0.8452
  150MOL0     O20586  12.603   7.792   9.886 -0.2934 -0.5595 -0.7310
  150MOL0     C20587  12.675   7.739   9.783  0.0305  0.1640  0.6651
  150MOL0     C20588  12.694   7.832   9.672  0.7870 -0.0993  0.0593
  150MOL0     C20589  12.750   7.790   9.556 -0.3878  0.6706  0.6786
  150MOL0     C20590  12.775   7.887   9.444 -0.1263  0.2816  0.5212
  150MOL0     C20591  12.801   7.657   9.546 -0.1618 -0.5102 -0.8009
  150MOL0     C20592  12.845   7.606   9.420  0.4526 -0.6102  0.2093
  150MOL0     O20593  12.748   7.626   9.321  0.0618 -0.0188 -0.4812
  150MOL0     C20594  12.783   7.594   9.187  0.6865  0.2427  0.3488
  150MOL0     C20595  12.891   7.637   9.115 -0.6855  0.2090  0.7086
  150MOL0     C20596  12.914   7.605   8.979  1.0310 -0.2105 -0.0404
  150MOL0     C20597  12.820   7.518   8.918 -0.2019 -0.3123  0.9878
  150MOL0     O20598  12.824   7.492   8.787 -0.1028  0.1980  0.5666
  150MOL0     C20599  12.955   7.497   8.731  0.7587  0.7554 -0.5376
  150MOL0     C20600  12.951   7.474   8.582  0.4843  1.0297  0.4381
  150MOL0     C20601  13.080   7.490   8.510  0.1133 -0.2664  0.3336
  150MOL0     C20602  13.159   7.625   8.530  0.0082  0.8835 -0.6801
  150MOL0     C20603  13.281   7.641   8.446 -0.1421 -0.4114  0.7746
  150MOL0     C20604  13.348   7.773   8.486  0.2947  0.0008 -0.0884
  150MOL0     C20605  13.463   7.828   8.391  0.5670  0.7475 -0.0494
  150MOL0     C20606  13.588   7.738   8.412  0.0795 -0.0259  0.7745
  150MOL0    Cl20607  13.577   7.572   8.350  0.0626  0.3102 -0.2236
  150MOL0     C20608  12.709   7.466   8.986 -0.1772  0.1638 -0.9511
  150MOL0     C20609  12.693   7.512   9.122  0.3936  0.0344  0.2176
  150MOL0     O20610  12.957   7.556   9.409  0.4925 -0.0346  0.2385
  150MOL0     C20611  12.785   7.565   9.650 -0.3024 -0.4102  0.2456
  150MOL0     C20612  12.726   7.607   9.775 -0.0092 -0.3252  0.1285
  150MOL0     N20613  12.126   8.104  10.050 -0.9246 -0.1494  0.2957
  150MOL0     N20614  12.140   8.216  10.117  0.2536 -0.5135  0.0264
  150MOL0     C20615  11.911   9.173  10.832  0.1519 -0.2057  0.4677
  150MOL0     C20616  11.790   9.236  10.851 -0.1443  0.3807 -0.6254
  150MOL0     C20617  11.332   9.213  10.949  0.7077  0.6704  0.3276
  150MOL0     C20618  11.235   9.161  10.848 -0.9140  1.2120  0.6202
  150MOL0     C20619  11.098   9.174  10.869 -0.0559  0.1113  0.3673
  150MOL0     C20620  11.052   9.244  10.980 -0.1670  0.3188 -0.5845
  150MOL0     O20621  10.918   9.271  10.991  0.0133  0.1858 -0.6568
  150MOL0     C20622  10.868   9.340  10.872  0.4388 -0.1939  0.1826
  150MOL0     C20623  10.750   9.263  10.823 -0.7778  0.0686 -0.2483
  150MOL0     C20624  10.690   9.340  10.707 -0.2948 -0.9914 -0.6004
  150MOL0     C20625  10.730   9.290  10.569 -0.2014 -0.2731 -0.3859
  150MOL0     C20626  10.878   9.325  10.551 -0.8514  1.0195  0.6070
  150MOL0     C20627  11.002   9.342  10.538  0.0735  0.4730 -0.4338
  150MOL0     C20628  11.144   9.285  11.077 -1.3254 -0.9006  0.2200
  150MOL0     C20629  11.285   9.271  11.063  0.7038  0.7743  0.2311
  150MOL0     C20630  11.372   9.304  11.180  0.2930 -0.1635  0.5963
  150MOL0     H20631  11.692   9.037  11.115 -2.2288 -3.0223 -2.3497
  150MOL0     H20632  11.912   8.942  11.077 -0.7229 -0.7151  0.4257
  150MOL0     H20633  12.124   8.933  10.667 -0.0488  0.1654  0.7183
  150MOL0     H20634  11.949   8.933  10.706 -1.1366  0.4582  1.1375
  150MOL0     H20635  12.157   8.748  10.850 -1.5998 -2.1890  2.5401
  150MOL0     H20636  11.985   8.734  10.852  0.4590 -0.0306 -0.6216
  150MOL0     H20637  11.962   8.678  10.627 -0.2915 -3.4755 -0.8974
  150MOL0     H20638  12.147   8.712  10.601  2.3588 -2.5099  1.9688
  150MOL0     H20639  12.193   8.520  10.736 -0.3315  0.8188 -0.1234
  150MOL0     H20640  12.035   8.527  10.810  1.7750 -2.2483  1.5117
  150MOL0     H20641  11.938   8.461  10.586 -1.2959  0.7755  2.7875
  150MOL0     H20642  12.036   8.335  10.660  1.6851  0.9766  1.9312
  150MOL0     H20643  12.107   8.517  10.431 -1.4345  1.5190  3.7631
  150MOL0     H20644  12.237   8.461  10.520  0.4440 -1.5415  0.5567
  150MOL0     H20645  12.049   8.275  10.377  2.0037  0.9394 -2.0518
  150MOL0     H20646  12.164   8.203  10.486  0.4811  0.2918  1.9994
  150MOL0     H20647  12.258   8.398  10.259  0.2810 -0.5253 -0.1687
  150MOL0     H20648  12.345   8.278  10.372  0.7301  2.8974  2.0477
  150MOL0     H20649  12.334   8.011  10.283 -0.6633  0.1763 -0.2630
  150MOL0     H20650  12.112   7.851   9.992 -0.0450  0.5247  0.5508
  150MOL0     H20651  12.180   7.792  10.142 -0.7162  1.7710  1.2371
  150MOL0     H20652  12.297   7.709   9.927 -3.5100 -0.2024  2.2800
  150MOL0     H20653  12.351   7.883   9.897  1.0197  1.7804  0.9468
  150MOL0     H20654  12.477   7.871  10.109  1.5719 -0.6680 -1.7773
  150MOL0     H20655  12.402   7.718  10.153 -0.6149 -3.2704 -2.6854
  150MOL0     H20656  12.629   7.690  10.064 -0.4772 -1.8545 -0.8402
  150MOL0     H20657  12.521   7.607   9.960  0.3286 -1.0311  0.4423
  150MOL0     H20658  12.681   7.940   9.678 -1.7563 -0.3238 -0.1148
  150MOL0     H20659  12.878   7.867   9.411  0.4100 -1.2399  2.9027
  150MOL0     H20660  12.781   7.994   9.467  2.0283  0.2409  0.3941
  150MOL0     H20661  12.699   7.868   9.368  0.1311 -2.0470  0.7702
  150MOL0     H20662  12.964   7.697   9.168 -0.1398  0.0029  0.2142
  150MOL0     H20663  13.007   7.636   8.932 -0.4525  3.5129 -0.8436
  150MOL0     H20664  12.991   7.599   8.747 -1.3734  1.2863  1.4507
  150MOL0     H20665  13.014   7.425   8.788 -1.8452 -2.4871 -1.6487
  150MOL0     H20666  12.926   7.367   8.578  0.6322  0.9480  1.4116
  150MOL0     H20667  12.873   7.524   8.525 -2.5797 -3.3054  0.3425
  150MOL0     H20668  13.069   7.469   8.403 -1.3263 -1.6842  0.7271
  150MOL0     H20669  13.154   7.414   8.537 -1.2100 -1.4695  0.6615
  150MOL0     H20670  13.178   7.646   8.635 -1.1447  0.1381 -0.3000
  150MOL0     H20671  13.098   7.708   8.493  2.2410  1.5003 -3.2906
  150MOL0     H20672  13.353   7.563   8.472 -0.6701 -1.2776 -0.3082
  150MOL0     H20673  13.259   7.629   8.340 -1.4609  1.8190  0.7286
  150MOL0     H20674  13.386   7.749   8.585 -0.8961  0.2002  0.4330
  150MOL0     H20675  13.280   7.859   8.486 -1.0284 -0.9942 -1.4646
  150MOL0     H20676  13.476   7.932   8.420  2.6787  0.6238 -0.4238
  150MOL0     H20677  13.421   7.824   8.290  0.9125  0.6918 -0.1928
  150MOL0     H20678  13.630   7.755   8.512  3.2123 -0.1030 -0.4112
  150MOL0     H20679  13.659   7.792   8.348 -0.4329  0.9556  1.0042
  150MOL0     H20680  12.637   7.405   8.932 -1.6058  2.1294 -1.3814
  150MOL0     H20681  12.613   7.464   9.179  2.2276 -2.7086  0.6955
  150MOL0     H20682  12.823   7.463   9.638 -0.5927 -0.4249 -0.5636
  150MOL0     H20683  12.693   7.540   9.854 -0.2869  1.2444  1.4090
  150MOL0     H20684  11.979   9.206  10.754  1.1809 -2.7988  0.1715
  150MOL0     H20685  11.766   9.320  10.786  1.3843  1.2413 -0.1347
  150MOL0     H20686  11.272   9.124  10.753  0.7929 -1.4535  2.2041
  150MOL0     H20687  11.031   9.125  10.800 -0.1870  0.4206  0.2701
  150MOL0     H20688  10.829   9.422  10.933 -0.2969 -3.5491  4.7024
  150MOL0     H20689  10.940   9.363  10.794  1.0095 -0.3750  0.6529
  150MOL0     H20690  10.672   9.256  10.899 -0.1387  1.5435  0.5946
  150MOL0     H20691  10.781   9.163  10.792  0.0144  0.3679 -0.4605
  150MOL0     H20692  10.582   9.326  10.707 -0.5028  0.3875  0.7687
  150MOL0     H20693  10.716   9.445  10.724  0.1394 -1.2121  0.1428
  150MOL0     H20694  10.668   9.339  10.494 -1.0987 -1.2603 -0.3201
  150MOL0     H20695  10.715   9.183  10.549 -2.6089  0.5128 -3.5188
  150MOL0     H20696  11.104   9.371  10.521  0.6813 -0.5416  1.1877
  150MOL0     H20697  11.110   9.322  11.173 -0.2488  1.2355 -0.1681
  150MOL0     H20698  11.435   9.219  11.211  2.4861  0.4255 -1.8488
  150MOL0     H20699  11.440   9.383  11.147 -1.3681  0.8325 -0.5486
  150MOL0     H20700  11.310   9.331  11.266  0.0273 -1.8338  0.9728
  151MOL0     O20701   5.232  11.367   6.710  0.6018 -0.4273  0.4858
  151MOL0     C20702   5.136  11.306   6.665  1.5497  0.1007  0.9382
  151MOL0     O20703   5.135  11.181   6.607 -0.3433 -0.0497  0.3531
  151MOL0     C20704   5.252  11.114   6.600  0.0355  0.0448 -1.1545
  151MOL0     C20705   5.328  11.081   6.714 -0.4555  0.2083 -0.1806
  151MOL0     C20706   5.427  10.974   6.688  0.0801 -0.0048 -1.0341
  151MOL0     C20707   5.450  10.916   6.569 -0.5149 -0.5089  0.2684
  151MOL0     O20708   5.553  10.820   6.564  0.2968  0.2051  0.5287
  151MOL0     C20709   5.666  10.833   6.472  0.7096 -0.7259 -0.3937
  151MOL0     C20710   5.774  10.723   6.473 -0.1138  0.5610  0.5045
  151MOL0     C20711   5.713  10.600   6.427  0.6043 -0.1202  0.0561
  151MOL0     C20712   5.816  10.481   6.455 -0.1056 -0.1748 -0.3154
  151MOL0     C20713   5.759  10.349   6.409 -0.0132 -0.0929 -0.0837
  151MOL0     C20714   5.669  10.268   6.512  0.9253 -0.1788 -0.9063
  151MOL0     C20715   5.750  10.201   6.629 -0.6223 -0.6052 -1.1024
  151MOL0     C20716   5.665  10.203   6.759  0.2354  0.3939 -0.1103
  151MOL0     N20717   5.630  10.341   6.805  0.7020 -0.1576 -0.1617
  151MOL0     C20718   5.520  10.418   6.803 -0.5849  0.1402  0.4805
  151MOL0     C20719   5.545  10.534   6.864 -0.6583  0.0154  0.1430
  151MOL0     C20720   5.448  10.650   6.877 -0.0299  0.3946  0.7047
  151MOL0     C20721   5.454  10.723   7.008  0.9414 -0.4990  0.0311
  151MOL0     C20722   5.315  10.772   7.058 -0.7767 -0.1457  0.5625
  151MOL0     C20723   5.333  10.838   7.195  0.1272 -0.0859 -0.5532
  151MOL0     O20724   5.207  10.835   7.265 -0.4914 -0.4262 -0.3983
  151MOL0     C20725   5.203  10.839   7.402  0.5017  0.4689  0.0419
  151MOL0     C20726   5.076  10.874   7.454 -0.4612  0.7827  0.8437
  151MOL0     C20727   5.053  10.875   7.591 -0.1098 -0.3331  0.8940
  151MOL0     C20728   4.905  10.879   7.629 -0.2455 -0.1850  0.6467
  151MOL0     C20729   5.155  10.870   7.682 -0.4514 -0.0849  0.2971
  151MOL0     C20730   5.138  10.893   7.824 -0.3426  0.4107 -0.0283
  151MOL0     O20731   5.244  10.841   7.901  0.3818  0.2427 -0.9496
  151MOL0     C20732   5.242  10.832   8.037  0.2812  0.4532  0.2786
  151MOL0     C20733   5.325  10.736   8.087 -0.4238 -0.9475  0.2735
  151MOL0     C20734   5.343  10.727   8.224  0.3440 -0.0880  0.0898
  151MOL0     C20735   5.285  10.804   8.314 -0.2430 -0.7676  0.3881
  151MOL0     O20736   5.324  10.784   8.446  0.5033  0.1121  0.2279
  151MOL0     C20737   5.212  10.798   8.540 -0.7234 -0.2590  0.2903
  151MOL0     C20738   5.259  10.765   8.686  0.4289 -0.2281 -0.5462
  151MOL0     C20739   5.365  10.846   8.749 -0.2424  0.4580  0.4405
  151MOL0     C20740   5.357  10.997   8.718  0.0172 -0.0126 -0.6725
  151MOL0     C20741   5.453  11.074   8.818  0.3676  0.3750 -0.0980
  151MOL0     C20742   5.445  11.226   8.812 -0.2015 -0.0544 -0.2464
  151MOL0     C20743   5.560  11.312   8.871 -0.1201 -0.0443  0.6563
  151MOL0     C20744   5.534  11.461   8.860 -0.4588 -0.4577  0.9725
  151MOL0    Cl20745   5.414  11.507   8.980  0.6336  0.0572  0.2877
  151MOL0     C20746   5.205  10.906   8.266  0.5934 -0.0581 -0.4559
  151MOL0     C20747   5.186  10.919   8.129 -0.4831  0.0991 -0.2670
  151MOL0     O20748   5.032  10.939   7.867 -0.2905  0.2496  0.2164
  151MOL0     C20749   5.281  10.830   7.632 -0.3084 -1.0870  0.4250
  151MOL0     C20750   5.306  10.818   7.490 -0.8322 -1.2297 -1.1518
  151MOL0     N20751   5.678  10.531   6.907  0.5175  1.0488 -1.3352
  151MOL0     N20752   5.725  10.411   6.870  0.0416 -0.4020 -0.4995
  151MOL0     C20753   5.380  10.953   6.461 -0.0982  0.0602 -0.0786
  151MOL0     C20754   5.282  11.054   6.481 -0.2815 -0.3612  0.4751
  151MOL0     C20755   4.989  11.358   6.677 -0.1005  0.1377 -0.3358
  151MOL0     C20756   4.886  11.272   6.656 -0.5306  0.2014 -0.7526
  151MOL0     C20757   4.749  11.313   6.662  0.3197 -0.4177 -0.0974
  151MOL0     C20758   4.720  11.445   6.690  0.8186  0.0263 -0.7512
  151MOL0     O20759   4.593  11.470   6.674 -0.0386 -0.6691 -0.2204
  151MOL0     C20760   4.537  11.582   6.740  0.1170  0.6448 -0.2874
  151MOL0     C20761   4.387  11.602   6.695 -0.1212 -0.6469 -0.9085
  151MOL0     C20762   4.286  11.508   6.762  0.1751 -0.5833 -0.0889
  151MOL0     C20763   4.143  11.546   6.723  0.1318  0.3275 -0.3656
  151MOL0     C20764   4.042  11.459   6.789  0.7491 -0.8378 -0.5460
  151MOL0     C20765   3.957  11.395   6.853  0.4466 -0.4989 -0.5511
  151MOL0     C20766   4.824  11.537   6.724  0.5633  0.0467  0.1952
  151MOL0     C20767   4.952  11.495   6.701  0.3996  0.4240 -0.0522
  151MOL0     C20768   5.065  11.594   6.730  0.4564 -0.8950 -1.3378
  151MOL0     H20769   5.303  11.112   6.815  0.2699 -1.2651  0.4939
  151MOL0     H20770   5.486  10.945   6.774  1.7782 -0.7931 -2.4065
  151MOL0     H20771   5.716  10.929   6.460 -0.6111 -0.2330 -2.3600
  151MOL0     H20772   5.622  10.820   6.373 -0.7345  1.5447 -0.1025
  151MOL0     H20773   5.857  10.748   6.407 -0.4734 -2.5251 -1.3192
  151MOL0     H20774   5.816  10.700   6.571  4.7691 -0.7511 -1.5941
  151MOL0     H20775   5.610  10.593   6.463 -0.7244  0.6465 -3.1690
  151MOL0     H20776   5.696  10.602   6.318 -1.2388 -3.5059  0.1346
  151MOL0     H20777   5.908  10.498   6.398 -1.7575  3.5521 -2.1713
  151MOL0     H20778   5.842  10.479   6.561  2.1708 -0.5601 -0.8333
  151MOL0     H20779   5.830  10.284   6.355  1.2746  2.0234 -1.0841
  151MOL0     H20780   5.696  10.364   6.321  0.4970 -1.6663 -0.7737
  151MOL0     H20781   5.593  10.328   6.565  0.5833 -0.5274 -1.0026
  151MOL0     H20782   5.605  10.198   6.458  3.1690 -0.3820 -3.4796
  151MOL0     H20783   5.840  10.256   6.658 -0.5770  0.1286 -2.5045
  151MOL0     H20784   5.792  10.105   6.601 -1.5759 -2.7065  3.7202
  151MOL0     H20785   5.570  10.150   6.746  1.2809 -2.0243  1.4224
  151MOL0     H20786   5.717  10.147   6.837 -1.1957  0.9774  1.3128
  151MOL0     H20787   5.419  10.406   6.764 -0.4517  0.3138  0.0750
  151MOL0     H20788   5.346  10.609   6.874  0.6520 -1.4422  1.3217
  151MOL0     H20789   5.457  10.718   6.792 -1.1244  2.2555  1.9922
  151MOL0     H20790   5.505  10.671   7.089 -0.3527 -1.0530  0.5290
  151MOL0     H20791   5.513  10.811   6.983  0.7469 -0.6049 -0.8603
  151MOL0     H20792   5.275  10.823   6.970  3.0633  0.6860 -0.9180
  151MOL0     H20793   5.244  10.689   7.065 -3.3992  1.8431 -0.9021
  151MOL0     H20794   5.400  10.785   7.264 -1.2997  0.8248  1.6281
  151MOL0     H20795   5.369  10.941   7.189 -1.0721  0.3116 -1.0924
  151MOL0     H20796   4.994  10.877   7.383 -0.1122  0.6646  0.4341
  151MOL0     H20797   4.883  10.969   7.687  2.4340  0.7258  0.3778
  151MOL0     H20798   4.875  10.783   7.673 -1.4121 -1.2039 -2.1710
  151MOL0     H20799   4.841  10.886   7.541  0.7963 -0.6629 -0.1654
  151MOL0     H20800   5.386  10.663   8.035 -2.1999 -2.6746  0.4727
  151MOL0     H20801   5.414  10.659   8.269 -0.0720  0.8391  2.2834
  151MOL0     H20802   5.186  10.903   8.556  2.3611  0.4119  1.8163
  151MOL0     H20803   5.127  10.736   8.510 -0.1701 -1.6036  1.4050
  151MOL0     H20804   5.176  10.756   8.757  0.4312 -0.3564 -0.5583
  151MOL0     H20805   5.295  10.661   8.689 -4.4047 -2.1507 -0.1340
  151MOL0     H20806   5.461  10.813   8.710 -0.2109 -0.0430  0.9292
  151MOL0     H20807   5.373  10.830   8.857  1.9185 -1.8157  0.0105
  151MOL0     H20808   5.259  11.036   8.748 -0.3629 -1.5416  0.1678
  151MOL0     H20809   5.380  11.016   8.613  0.4778 -1.3193 -0.8168
  151MOL0     H20810   5.424  11.043   8.919 -1.0766  0.6518 -0.3966
  151MOL0     H20811   5.557  11.042   8.810  0.7276  1.2872  0.8122
  151MOL0     H20812   5.351  11.251   8.863 -0.6056 -1.2132 -0.4105
  151MOL0     H20813   5.438  11.252   8.706  3.5156 -0.1205 -0.6446
  151MOL0     H20814   5.655  11.278   8.828 -0.6507 -0.7487  0.0232
  151MOL0     H20815   5.589  11.286   8.973  1.1553  1.5602  0.7548
  151MOL0     H20816   5.503  11.479   8.757  0.0369 -0.7392  0.7698
  151MOL0     H20817   5.627  11.517   8.873 -0.9658  1.6059 -2.8759
  151MOL0     H20818   5.150  10.964   8.339 -5.6028 -4.2557 -1.0133
  151MOL0     H20819   5.118  10.996   8.093 -0.6337  0.0279 -0.1349
  151MOL0     H20820   5.373  10.833   7.690 -0.9683 -1.2218  1.5121
  151MOL0     H20821   5.405  10.788   7.457 -0.9038 -1.7332 -0.9253
  151MOL0     H20822   5.380  10.895   6.369 -4.0547 -2.5187  1.2997
  151MOL0     H20823   5.217  11.088   6.401  1.4657  3.5924  0.4725
  151MOL0     H20824   4.906  11.173   6.615 -1.2264  0.8407 -2.7712
  151MOL0     H20825   4.669  11.241   6.644 -1.6160  1.4959  0.4248
  151MOL0     H20826   4.540  11.559   6.847 -3.6208 -0.8053 -0.3472
  151MOL0     H20827   4.582  11.678   6.713  1.9215  0.3759  1.4845
  151MOL0     H20828   4.369  11.582   6.589  0.1674 -1.8036 -0.7476
  151MOL0     H20829   4.365  11.707   6.719  2.7137 -0.0893 -0.3415
  151MOL0     H20830   4.301  11.400   6.755  0.9064 -0.5717  1.0340
  151MOL0     H20831   4.300  11.528   6.869  1.7306  1.5238 -0.6091
  151MOL0     H20832   4.127  11.547   6.615 -3.7727  2.6220  0.0246
  151MOL0     H20833   4.141  11.644   6.771  1.0087  1.0743 -1.8044
  151MOL0     H20834   3.893  11.328   6.908 -1.6134  0.2765 -1.8887
  151MOL0     H20835   4.794  11.630   6.771 -2.6483  0.4702 -2.3257
  151MOL0     H20836   5.018  11.692   6.728  0.9827 -0.6419 -1.3820
  151MOL0     H20837   5.114  11.569   6.825  2.1934  1.4290 -1.5557
  151MOL0     H20838   5.141  11.599   6.651  1.5693  3.0047 -0.2140
  152MOL0     O20839   5.572   7.937  10.542  0.4144 -0.0819 -0.3195
  152MOL0     C20840   5.640   7.859  10.605 -0.5994  0.6023  0.0948
  152MOL0     O20841   5.617   7.822  10.737  0.4927 -0.6549  0.3101
  152MOL0     C20842   5.513   7.870  10.808  0.2682 -0.9144  0.1213
  152MOL0     C20843   5.444   7.778  10.896 -1.0597  0.0153 -0.9377
  152MOL0     C20844   5.337   7.827  10.977 -0.4863 -0.2618 -0.1822
  152MOL0     C20845   5.290   7.958  10.968 -1.1275 -0.4304  0.0242
  152MOL0     O20846   5.173   7.998  11.028  0.5612  0.3872  0.0570
  152MOL0     C20847   5.135   7.925  11.153  0.0612 -0.1304 -0.1124
  152MOL0     C20848   5.056   8.019  11.252 -0.0414  1.1287  1.3174
  152MOL0     C20849   4.930   8.088  11.188  0.3929  0.6679 -0.1810
  152MOL0     C20850   4.875   8.166  11.308 -0.0021 -0.8078  0.0106
  152MOL0     C20851   4.786   8.281  11.270  0.2314 -0.4900  0.3014
  152MOL0     C20852   4.667   8.224  11.197  0.7320 -0.4617 -0.2440
  152MOL0     C20853   4.594   8.330  11.116  0.6326  0.2834 -0.6449
  152MOL0     C20854   4.449   8.279  11.083 -0.9136  0.5956 -0.6248
  152MOL0     N20855   4.356   8.384  11.045 -0.2801 -0.0479  0.3979
  152MOL0     C20856   4.362   8.468  10.943  0.9364 -0.4292  0.5876
  152MOL0     C20857   4.251   8.550  10.961  0.4735 -0.0428  0.3510
  152MOL0     C20858   4.213   8.685  10.894 -0.6280  0.4571 -0.1305
  152MOL0     C20859   4.283   8.694  10.758 -0.0522  0.4797 -0.0447
  152MOL0     C20860   4.233   8.800  10.659  0.5836  0.6672 -0.2535
  152MOL0     C20861   4.342   8.850  10.556 -0.0935  0.1638 -0.7541
  152MOL0     O20862   4.442   8.936  10.609 -0.7231 -0.4595  0.7862
  152MOL0     C20863   4.519   9.016  10.524  0.3381  0.2187  0.3516
  152MOL0     C20864   4.602   9.117  10.586 -0.6983  0.2923 -0.2185
  152MOL0     C20865   4.677   9.202  10.513 -0.4346  0.6883  0.3764
  152MOL0     C20866   4.767   9.291  10.584 -0.2341 -0.0236 -0.3291
  152MOL0     C20867   4.665   9.192  10.369 -0.2124 -0.6271 -0.8757
  152MOL0     C20868   4.729   9.291  10.276 -0.4369  0.9922 -0.2705
  152MOL0     O20869   4.783   9.409  10.320  0.5664  0.5601  0.0518
  152MOL0     C20870   4.851   9.473  10.233 -0.1112 -1.2045  0.7010
  152MOL0     C20871   4.969   9.422  10.182 -0.5373  0.2416  0.5526
  152MOL0     C20872   5.049   9.497  10.090  0.3734  0.1481  0.5256
  152MOL0     C20873   5.024   9.629  10.059  0.2101 -0.9087 -0.4432
  152MOL0     O20874   5.123   9.704   9.994 -0.1029  0.1620  0.2371
  152MOL0     C20875   5.095   9.842   9.965 -0.0981 -0.4032 -0.3033
  152MOL0     C20876   5.221   9.913   9.900 -0.0289 -0.8182 -0.4050
  152MOL0     C20877   5.180  10.055   9.857 -0.1722 -0.7342 -0.8707
  152MOL0     C20878   5.287  10.112   9.773 -0.5016 -0.1462 -0.4397
  152MOL0     C20879   5.428  10.137   9.837 -0.8318  0.3156 -0.2757
  152MOL0     C20880   5.438  10.253   9.936  0.1798 -0.6642 -0.5407
  152MOL0     C20881   5.575  10.265   9.998  0.3469 -0.4167 -0.4248
  152MOL0     C20882   5.597  10.399  10.078  1.0152  0.5009  1.4296
  152MOL0    Cl20883   5.739  10.413  10.200  0.1508 -0.4557  0.6296
  152MOL0     C20884   4.904   9.679  10.113 -0.3199  0.6217 -0.2452
  152MOL0     C20885   4.820   9.611  10.194 -0.1055  0.2967 -0.4510
  152MOL0     O20886   4.742   9.243  10.156  0.3992  0.7410 -0.2194
  152MOL0     C20887   4.582   9.097  10.309  0.6819 -0.1435  0.2019
  152MOL0     C20888   4.512   9.006  10.388  0.5815  1.0771 -0.7971
  152MOL0     N20889   4.183   8.510  11.071 -0.2961 -0.5884 -0.1269
  152MOL0     N20890   4.247   8.415  11.124  0.4034  0.2918  0.4064
  152MOL0     C20891   5.362   8.046  10.890  0.4905  0.8539 -0.2702
  152MOL0     C20892   5.471   8.006  10.805  0.1484 -0.3604  0.5269
  152MOL0     C20893   5.751   7.785  10.548  0.6259  0.0253 -0.5643
  152MOL0     C20894   5.877   7.788  10.610  0.1996  0.0107 -1.1723
  152MOL0     C20895   5.992   7.722  10.563 -0.1771 -0.7213  0.1489
  152MOL0     C20896   5.977   7.633  10.449  0.2328 -0.3613 -0.4401
  152MOL0     O20897   6.074   7.561  10.373 -0.1926 -0.0933  0.1729
  152MOL0     C20898   6.178   7.485  10.438 -0.4818  0.5371  0.2991
  152MOL0     C20899   6.264   7.415  10.332 -0.3914 -0.2687  0.2634
  152MOL0     C20900   6.371   7.509  10.286  0.8997 -0.5384 -0.0829
  152MOL0     C20901   6.334   7.654  10.272 -1.2151 -0.7747  0.3273
  152MOL0     C20902   6.438   7.741  10.205  0.2849 -0.5755 -0.8781
  152MOL0     C20903   6.512   7.826  10.161  0.1359  0.0959 -0.0866
  152MOL0     C20904   5.854   7.649  10.379  0.2215 -0.4725  0.3165
  152MOL0     C20905   5.745   7.730  10.416  0.2214  1.0831 -0.8651
  152MOL0     C20906   5.624   7.724  10.323 -0.3649 -0.4088  0.5427
  152MOL0     H20907   5.454   7.669  10.895  0.7217  0.1484 -1.8385
  152MOL0     H20908   5.273   7.747  11.014 -0.9709  0.6135  0.9099
  152MOL0     H20909   5.230   7.901  11.201  0.3910 -1.8797 -1.5747
  152MOL0     H20910   5.078   7.834  11.133 -1.1956  0.8069 -1.0294
  152MOL0     H20911   5.032   7.968  11.346  2.3398 -0.2463  1.2585
  152MOL0     H20912   5.131   8.094  11.277 -0.5617  1.3757  2.2191
  152MOL0     H20913   4.950   8.143  11.096  1.4057  2.7243  1.1988
  152MOL0     H20914   4.850   8.020  11.157 -0.2414  2.5465 -3.0103
  152MOL0     H20915   4.831   8.107  11.390  0.7968 -0.8709  0.3981
  152MOL0     H20916   4.966   8.213  11.345 -0.3494  0.3510 -0.5569
  152MOL0     H20917   4.836   8.356  11.208 -0.4981 -2.3012 -2.7131
  152MOL0     H20918   4.754   8.328  11.363  3.0135  0.2351  0.9892
  152MOL0     H20919   4.695   8.159  11.113  0.0844 -2.6837  1.1617
  152MOL0     H20920   4.606   8.163  11.264 -0.5328 -1.6000 -2.3207
  152MOL0     H20921   4.649   8.335  11.021 -1.9790 -1.5073 -2.4105
  152MOL0     H20922   4.587   8.419  11.180 -1.1772 -2.2831  3.1204
  152MOL0     H20923   4.450   8.206  11.001  1.1626 -0.8449  0.5984
  152MOL0     H20924   4.397   8.232  11.167 -0.1206 -0.2180 -0.5809
  152MOL0     H20925   4.440   8.485  10.870 -1.1810  0.8393 -1.5292
  152MOL0     H20926   4.231   8.759  10.972  2.1238 -0.9816  0.7231
  152MOL0     H20927   4.105   8.684  10.874 -0.7288 -0.0523  0.4124
  152MOL0     H20928   4.389   8.716  10.777  0.2796  0.3893 -1.6919
  152MOL0     H20929   4.294   8.595  10.715  2.7732  0.9858 -0.6676
  152MOL0     H20930   4.134   8.766  10.627 -0.6286  1.8637  1.9412
  152MOL0     H20931   4.225   8.891  10.720  0.5710 -0.5488  1.6599
  152MOL0     H20932   4.381   8.769  10.494 -2.1333  1.7643 -4.4697
  152MOL0     H20933   4.289   8.917  10.488 -1.2552  0.3143  0.2447
  152MOL0     H20934   4.588   9.113  10.693 -2.0249  4.4733 -0.0425
  152MOL0     H20935   4.813   9.243  10.670  0.6778 -3.3635 -2.4839
  152MOL0     H20936   4.712   9.383  10.605  1.7767  1.3853 -0.9323
  152MOL0     H20937   4.848   9.335  10.525  0.4319  0.6990  1.0875
  152MOL0     H20938   5.008   9.326  10.214  2.1175  0.2863 -2.1172
  152MOL0     H20939   5.135   9.441  10.056 -1.0678 -0.4491 -2.5882
  152MOL0     H20940   5.011   9.843   9.895 -0.0923 -2.2082 -0.3756
  152MOL0     H20941   5.080   9.894  10.060 -1.3445 -0.0634 -0.6754
  152MOL0     H20942   5.302   9.919   9.972 -0.8443  0.7937  0.4363
  152MOL0     H20943   5.246   9.857   9.809 -3.6015 -1.2397 -1.3069
  152MOL0     H20944   5.169  10.118   9.946 -0.8815 -2.0991  0.0470
  152MOL0     H20945   5.085  10.051   9.803  0.0718 -0.3328 -1.3344
  152MOL0     H20946   5.240  10.204   9.738 -0.7069  0.5717  1.5621
  152MOL0     H20947   5.306  10.054   9.682  2.0515  0.2202 -0.2129
  152MOL0     H20948   5.472  10.047   9.881  2.0775  2.3394  1.1688
  152MOL0     H20949   5.491  10.157   9.750 -2.6941 -1.1605 -2.0891
  152MOL0     H20950   5.362  10.234  10.012  0.0706  1.2304 -0.1072
  152MOL0     H20951   5.422  10.350   9.888  3.0085 -0.4727 -1.2790
  152MOL0     H20952   5.655  10.258   9.923  0.8563  2.2161 -0.2101
  152MOL0     H20953   5.578  10.186  10.073 -2.7547  1.8128  2.3353
  152MOL0     H20954   5.508  10.415  10.140  0.5216 -1.2003  1.2333
  152MOL0     H20955   5.603  10.476  10.001 -1.5434  0.0070  0.6281
  152MOL0     H20956   4.881   9.785  10.107 -2.4294  0.2565  0.4918
  152MOL0     H20957   4.741   9.664  10.247  1.6033 -1.1771  4.0689
  152MOL0     H20958   4.555   9.090  10.204 -1.5729 -1.6086  0.8054
  152MOL0     H20959   4.458   8.930  10.332  0.5533  0.8903 -0.5174
  152MOL0     H20960   5.325   8.146  10.871 -1.6606  0.0091 -0.9530
  152MOL0     H20961   5.503   8.087  10.740 -3.5977  0.1156 -0.9525
  152MOL0     H20962   5.887   7.847  10.701 -2.8506 -1.2265  0.0900
  152MOL0     H20963   6.093   7.737  10.600  1.0591 -0.4546 -3.0525
  152MOL0     H20964   6.242   7.524  10.517 -1.0450 -2.2282  2.2763
  152MOL0     H20965   6.121   7.408  10.491 -0.4953  1.2356  1.3240
  152MOL0     H20966   6.196   7.386  10.252  0.8827  1.7521 -1.7100
  152MOL0     H20967   6.303   7.322  10.374 -1.6130 -1.0032 -0.1824
  152MOL0     H20968   6.464   7.503  10.344  0.5647  0.3539  0.5611
  152MOL0     H20969   6.401   7.468  10.189  0.7269 -0.2945 -0.2385
  152MOL0     H20970   6.328   7.696  10.373 -0.8519 -1.6446  0.7162
  152MOL0     H20971   6.231   7.664  10.237 -1.5575 -1.4563  1.1119
  152MOL0     H20972   6.596   7.878  10.120 -0.2938  1.4542  0.6909
  152MOL0     H20973   5.820   7.584  10.299 -0.5283 -2.7713  2.3741
  152MOL0     H20974   5.648   7.779  10.231 -0.2069  1.3770  1.6130
  152MOL0     H20975   5.601   7.617  10.320 -2.2622 -0.5396  6.7662
  152MOL0     H20976   5.537   7.764  10.375 -0.6974 -1.8973  1.1658
  153MOL0     O20977   3.595  11.252   3.980  1.2952  0.2561  0.2901
  153MOL0     C20978   3.488  11.272   3.920  0.0908 -0.1467  0.7313
  153MOL0     O20979   3.478  11.357   3.811 -0.1833 -0.2996  0.3721
  153MOL0     C20980   3.596  11.423   3.770  0.9138  0.1307 -0.5438
  153MOL0     C20981   3.676  11.385   3.662 -0.8863 -0.9758  0.7137
  153MOL0     C20982   3.790  11.470   3.630  0.2441 -0.2891 -0.0905
  153MOL0     C20983   3.818  11.587   3.706 -0.4275  1.0384  0.4651
  153MOL0     O20984   3.921  11.675   3.684 -0.6912  0.1832  0.3574
  153MOL0     C20985   4.053  11.620   3.654  0.0332  0.0803 -0.1636
  153MOL0     C20986   4.180  11.688   3.707 -0.2647  0.9317  0.3261
  153MOL0     C20987   4.179  11.834   3.664 -0.2352 -0.3883 -0.1260
  153MOL0     C20988   4.307  11.912   3.704 -0.5204  0.1649  0.0908
  153MOL0     C20989   4.306  12.056   3.672  0.7670 -0.3626  0.9021
  153MOL0     C20990   4.349  12.088   3.528 -0.6080 -0.6716  0.6119
  153MOL0     C20991   4.382  12.245   3.516 -0.5834  0.0627  0.2252
  153MOL0     C20992   4.446  12.268   3.378  0.4618 -0.4755 -0.7993
  153MOL0     N20993   4.580  12.206   3.378 -0.4347  0.7068  0.7871
  153MOL0     C20994   4.682  12.214   3.474  1.2258  0.3938  0.3678
  153MOL0     C20995   4.774  12.128   3.438  0.9040  0.0423 -0.4332
  153MOL0     C20996   4.905  12.119   3.495  0.5443  0.2345  0.2992
  153MOL0     C20997   4.930  11.988   3.570  0.4980 -0.4544  0.2415
  153MOL0     C20998   4.889  12.022   3.710  0.6491 -0.2247 -0.9584
  153MOL0     C20999   4.900  11.900   3.804 -0.9115 -0.9840 -0.5777
  153MOL0     O21000   4.816  11.922   3.919  0.8653  0.2815  0.8324
  153MOL0     C21001   4.833  11.840   4.027  0.3154  0.1100 -0.5415
  153MOL0     C21002   4.917  11.727   4.027 -0.1405 -0.0842  0.2326
  153MOL0     C21003   4.935  11.650   4.148  0.7689 -1.2574 -0.5314
  153MOL0     C21004   4.986  11.516   4.114  0.0511  0.1238 -0.5116
  153MOL0     C21005   4.890  11.695   4.273  0.8250  0.4364 -0.1482
  153MOL0     C21006   4.916  11.633   4.401 -0.6440 -0.0077  0.4562
  153MOL0     O21007   4.814  11.647   4.497  0.0237  0.0785  0.3309
  153MOL0     C21008   4.833  11.593   4.619  0.9820 -0.7213 -0.2240
  153MOL0     C21009   4.940  11.620   4.704 -0.0121 -0.0076  0.0457
  153MOL0     C21010   4.943  11.571   4.835 -0.1449  0.0905 -0.5713
  153MOL0     C21011   4.842  11.481   4.878  0.1167  0.5468  0.4641
  153MOL0     O21012   4.833  11.416   4.995 -0.1320  0.0217  0.0388
  153MOL0     C21013   4.957  11.349   5.035  0.3528  0.3731  0.4739
  153MOL0     C21014   5.020  11.427   5.150  0.1219  0.5030  1.2506
  153MOL0     C21015   4.931  11.412   5.276 -0.8431  0.2616 -1.0190
  153MOL0     C21016   5.000  11.456   5.403 -1.0166  0.2027 -0.2271
  153MOL0     C21017   5.034  11.605   5.396 -0.0364  0.6269 -0.0915
  153MOL0     C21018   5.118  11.656   5.513 -0.4523  0.5299 -0.3940
  153MOL0     C21019   5.172  11.798   5.496 -0.7946  0.2984 -0.2128
  153MOL0     C21020   5.199  11.869   5.633  0.1247  1.0796  0.0346
  153MOL0    Cl21021   5.229  12.050   5.597  0.2145 -0.3593 -0.8631
  153MOL0     C21022   4.728  11.468   4.797 -0.3719  0.0429  0.5226
  153MOL0     C21023   4.729  11.520   4.671 -0.1888  0.7187  0.3580
  153MOL0     O21024   5.032  11.580   4.425  0.8663 -0.3009  0.5634
  153MOL0     C21025   4.814  11.814   4.274 -0.4013  1.0686 -0.4170
  153MOL0     C21026   4.789  11.880   4.150  0.2452 -0.3893 -0.2979
  153MOL0     N21027   4.730  12.061   3.324  0.8588  0.0646 -0.2582
  153MOL0     N21028   4.617  12.112   3.284 -0.1298 -0.0374 -0.3330
  153MOL0     C21029   3.730  11.614   3.813 -0.3306 -0.6778  0.2966
  153MOL0     C21030   3.624  11.534   3.842  0.5463  0.9872  0.5330
  153MOL0     C21031   3.358  11.227   3.981 -0.1661 -0.2590  0.4545
  153MOL0     C21032   3.237  11.299   3.938  0.0876  0.2333 -0.6658
  153MOL0     C21033   3.120  11.252   3.991 -0.5359  0.4030  0.1154
  153MOL0     C21034   3.103  11.154   4.100 -0.7857  0.1172  0.3148
  153MOL0     O21035   2.972  11.124   4.145 -0.4703 -0.1485 -0.0688
  153MOL0     C21036   2.952  11.066   4.277 -0.9505 -0.6357  0.3698
  153MOL0     C21037   2.870  10.942   4.267  0.1239 -0.2369  0.3259
  153MOL0     C21038   2.738  10.975   4.198  0.0259  0.8152 -0.2245
  153MOL0     C21039   2.639  10.855   4.211 -0.2287  0.0657 -0.5486
  153MOL0     C21040   2.675  10.731   4.135  0.8011  1.2274 -0.2022
  153MOL0     C21041   2.706  10.632   4.070  0.3603  0.3077  0.4580
  153MOL0     C21042   3.220  11.091   4.134 -0.2370 -0.0804 -0.3727
  153MOL0     C21043   3.338  11.121   4.078 -0.4516 -0.0271 -0.6642
  153MOL0     C21044   3.456  11.029   4.125 -0.7163  0.6742  0.3760
  153MOL0     H21045   3.637  11.299   3.608 -0.5079  0.2111 -1.5305
  153MOL0     H21046   3.849  11.457   3.540 -0.4892  2.5691 -1.0855
  153MOL0     H21047   4.062  11.626   3.545 -1.8654 -2.2167 -0.5267
  153MOL0     H21048   4.072  11.518   3.689  1.0424  0.9680  2.0816
  153MOL0     H21049   4.198  11.690   3.815  1.4127 -0.3978  0.1130
  153MOL0     H21050   4.261  11.638   3.652  1.8281  5.4328 -1.1538
  153MOL0     H21051   4.165  11.844   3.556 -1.5785  2.2602  0.2026
  153MOL0     H21052   4.097  11.879   3.720 -0.8997 -1.1517 -0.4584
  153MOL0     H21053   4.319  11.908   3.812  1.6393  2.8628  0.0561
  153MOL0     H21054   4.401  11.868   3.669  1.2534  3.2763  0.5501
  153MOL0     H21055   4.369  12.101   3.749  0.7225 -2.2462  2.0883
  153MOL0     H21056   4.207  12.101   3.681  0.3555 -1.0568 -0.0135
  153MOL0     H21057   4.441  12.030   3.516 -0.4428 -0.1599 -0.8272
  153MOL0     H21058   4.268  12.051   3.465 -0.8366  0.5426  0.1488
  153MOL0     H21059   4.439  12.289   3.599  0.0117  0.4111 -0.3646
  153MOL0     H21060   4.289  12.301   3.512  0.7977  2.4090 -1.4581
  153MOL0     H21061   4.395  12.221   3.293 -0.5554 -1.1033  0.1433
  153MOL0     H21062   4.441  12.376   3.361 -1.4974  0.0442  2.3158
  153MOL0     H21063   4.686  12.285   3.556 -0.0503 -0.3307  1.0981
  153MOL0     H21064   4.925  12.206   3.558  1.7785  1.6766 -1.9598
  153MOL0     H21065   4.978  12.121   3.414 -0.8613  0.9950 -0.9904
  153MOL0     H21066   4.884  11.901   3.523 -0.1458  0.5727 -1.1122
  153MOL0     H21067   5.035  11.958   3.576  0.4623 -0.2929  2.3613
  153MOL0     H21068   4.946  12.105   3.753  0.3257  0.6287 -2.1411
  153MOL0     H21069   4.783  12.048   3.704  0.3824 -0.3098  1.9698
  153MOL0     H21070   4.870  11.808   3.754 -0.6335  0.2098 -3.1082
  153MOL0     H21071   5.005  11.900   3.836 -0.6568  2.6552 -1.0044
  153MOL0     H21072   4.955  11.694   3.930  0.5266  1.1734  0.0444
  153MOL0     H21073   5.055  11.523   4.029 -0.7903  0.5980 -1.1748
  153MOL0     H21074   4.910  11.442   4.089 -1.7893  0.7620  2.7351
  153MOL0     H21075   5.035  11.476   4.204  1.0808 -0.6745 -1.3944
  153MOL0     H21076   5.012  11.695   4.673 -0.0449  0.5792  1.3094
  153MOL0     H21077   5.021  11.595   4.906 -1.0979  2.6498 -0.2638
  153MOL0     H21078   4.929  11.255   5.082  1.7819 -0.4065 -0.1859
  153MOL0     H21079   5.024  11.335   4.949 -0.6103  3.4930 -0.9586
  153MOL0     H21080   5.118  11.384   5.170 -0.7304 -3.0561 -1.2713
  153MOL0     H21081   5.025  11.533   5.121 -1.4072 -0.1556 -1.9708
  153MOL0     H21082   4.898  11.309   5.292  2.1842 -0.4507  1.4821
  153MOL0     H21083   4.841  11.472   5.260 -1.0043  1.1748  2.5374
  153MOL0     H21084   5.080  11.383   5.414 -1.5572 -0.5604 -1.1614
  153MOL0     H21085   4.933  11.433   5.486 -2.4590 -1.4121 -1.7370
  153MOL0     H21086   5.082  11.636   5.303  0.2196 -2.9167 -1.2715
  153MOL0     H21087   4.933  11.646   5.402 -0.8392 -1.1362 -0.9141
  153MOL0     H21088   5.206  11.592   5.518 -1.0747 -0.5164 -1.8324
  153MOL0     H21089   5.043  11.648   5.593 -0.7986 -0.7086 -0.8209
  153MOL0     H21090   5.103  11.853   5.432 -1.9753 -1.2295 -0.3146
  153MOL0     H21091   5.264  11.788   5.438 -1.0197  1.8665 -0.8790
  153MOL0     H21092   5.283  11.842   5.698  1.8293  0.9903 -2.1070
  153MOL0     H21093   5.104  11.879   5.686  0.1127  1.3535 -0.0366
  153MOL0     H21094   4.641  11.418   4.838  0.7051 -2.1558  0.2332
  153MOL0     H21095   4.631  11.507   4.626 -0.3871  0.5795  0.8216
  153MOL0     H21096   4.775  11.853   4.368 -2.0505 -1.9842  0.2860
  153MOL0     H21097   4.733  11.972   4.160 -0.7246 -1.0218  0.2040
  153MOL0     H21098   3.749  11.707   3.866 -3.3489  2.3189 -3.2752
  153MOL0     H21099   3.555  11.563   3.920 -2.0749  0.7702 -1.5521
  153MOL0     H21100   3.242  11.387   3.873  2.0065 -0.0745 -0.9959
  153MOL0     H21101   3.030  11.309   3.969 -0.2328  1.1212  0.6781
  153MOL0     H21102   3.036  11.030   4.337 -1.8176 -0.1870  1.9049
  153MOL0     H21103   2.912  11.141   4.345 -1.3957  0.8985 -1.5048
  153MOL0     H21104   2.857  10.891   4.363  0.2035 -1.9144 -0.5131
  153MOL0     H21105   2.921  10.866   4.207  1.0262 -0.6183  1.5312
  153MOL0     H21106   2.696  11.063   4.249  2.2373  1.1722  1.0997
  153MOL0     H21107   2.749  10.983   4.090 -1.3187 -1.8114 -0.6480
  153MOL0     H21108   2.536  10.885   4.194  0.5000  3.1978 -0.1358
  153MOL0     H21109   2.630  10.837   4.318  2.3162 -1.8451 -0.5699
  153MOL0     H21110   2.744  10.559   4.001 -1.2225  2.3130 -2.7834
  153MOL0     H21111   3.220  11.015   4.212  2.6051  1.0425  0.8939
  153MOL0     H21112   3.418  10.927   4.140  1.0087  0.0488  0.6433
  153MOL0     H21113   3.527  11.020   4.043 -2.9370 -2.3634 -1.4197
  153MOL0     H21114   3.505  11.064   4.216 -1.2115 -0.3505  1.0667
  154MOL0     O21115   9.407  11.075   2.531 -0.0122 -0.2006  0.9072
  154MOL0     C21116   9.293  11.109   2.556  0.4958 -0.3017 -0.2389
  154MOL0     O21117   9.237  11.079   2.679 -0.3007  0.1396  1.2870
  154MOL0     C21118   9.265  10.975   2.761  0.1449  0.0652  0.9001
  154MOL0     C21119   9.326  10.851   2.731  0.6007  0.2414  0.4593
  154MOL0     C21120   9.359  10.753   2.828  0.8949  0.3161 -0.4333
  154MOL0     C21121   9.323  10.783   2.960  0.6839 -0.2127  0.3374
  154MOL0     O21122   9.335  10.696   3.064 -0.0075  0.0412 -0.3848
  154MOL0     C21123   9.371  10.563   3.021  0.2119  0.1998 -0.0731
  154MOL0     C21124   9.369  10.467   3.144 -0.7943 -0.6160  0.8820
  154MOL0     C21125   9.241  10.495   3.226  0.1954 -0.3193  0.3516
  154MOL0     C21126   9.243  10.406   3.351 -0.0573  0.7051 -0.7457
  154MOL0     C21127   9.114  10.418   3.436  0.0515  0.4916 -0.0434
  154MOL0     C21128   9.127  10.318   3.557 -0.1573 -0.3546 -0.2868
  154MOL0     C21129   9.001  10.301   3.633  0.3231  0.7493 -0.2914
  154MOL0     C21130   8.944  10.428   3.692  0.9496 -0.5020  1.0059
  154MOL0     N21131   8.808  10.413   3.740  0.1444 -0.5405 -0.5717
  154MOL0     C21132   8.770  10.402   3.878  1.1288 -0.5668 -0.1318
  154MOL0     C21133   8.638  10.414   3.875  0.5599  0.6796 -0.6976
  154MOL0     C21134   8.549  10.401   3.989 -0.3645 -0.1581 -0.1199
  154MOL0     C21135   8.423  10.310   3.969 -0.3153 -0.5454 -0.0076
  154MOL0     C21136   8.341  10.278   4.100 -0.4414 -1.5636 -0.7146
  154MOL0     C21137   8.261  10.407   4.130 -0.5944 -0.9038 -0.7004
  154MOL0     O21138   8.157  10.439   4.037  0.4817 -0.1993 -0.2107
  154MOL0     C21139   8.045  10.360   4.057 -0.8460  0.4706  0.0820
  154MOL0     C21140   7.957  10.368   4.169  0.0501  0.0690 -0.3988
  154MOL0     C21141   7.842  10.287   4.184 -0.4249 -0.4251 -0.5589
  154MOL0     C21142   7.762  10.323   4.309 -0.3928  0.1644  0.9593
  154MOL0     C21143   7.811  10.185   4.089 -0.6292 -0.7595 -0.7132
  154MOL0     C21144   7.705  10.086   4.102  0.6054  0.4084 -0.0283
  154MOL0     O21145   7.668  10.011   3.987  0.2517  0.5143  0.4971
  154MOL0     C21146   7.624   9.881   4.000  0.0130 -0.2293  0.5316
  154MOL0     C21147   7.676   9.791   4.094 -0.3973  0.6577 -0.3675
  154MOL0     C21148   7.605   9.667   4.107 -1.0721 -0.1378 -0.2445
  154MOL0     C21149   7.487   9.642   4.036 -0.2069  1.0404 -0.3305
  154MOL0     O21150   7.406   9.533   4.053  0.1682  0.4953  0.1339
  154MOL0     C21151   7.442   9.441   4.159 -0.2249  0.1793  0.2352
  154MOL0     C21152   7.335   9.348   4.191 -0.5531  0.0298  0.2046
  154MOL0     C21153   7.360   9.243   4.297 -0.3978 -0.6992 -0.0300
  154MOL0     C21154   7.477   9.152   4.268 -0.2164 -0.3294  0.3195
  154MOL0     C21155   7.446   9.015   4.333 -0.1256  0.0954  0.3508
  154MOL0     C21156   7.344   8.924   4.262 -0.6721  0.5358  1.0200
  154MOL0     C21157   7.387   8.777   4.265 -0.1905  0.4795  0.5572
  154MOL0     C21158   7.365   8.712   4.401 -0.5955  0.6645  0.4251
  154MOL0    Cl21159   7.407   8.533   4.406 -0.2124  0.1912 -0.2014
  154MOL0     C21160   7.438   9.739   3.947  0.4164  0.4406 -0.9344
  154MOL0     C21161   7.509   9.856   3.929 -1.1984 -0.1047  0.1528
  154MOL0     O21162   7.637  10.090   4.209  0.2350 -0.0339  0.1350
  154MOL0     C21163   7.904  10.173   3.981  0.2501 -0.2742 -0.0691
  154MOL0     C21164   8.024  10.255   3.970 -0.3338 -0.2370  0.0219
  154MOL0     N21165   8.592  10.442   3.745 -0.2028 -0.6287 -0.4103
  154MOL0     N21166   8.701  10.455   3.663  0.2657 -0.4388  0.1856
  154MOL0     C21167   9.265  10.905   2.999 -0.3579 -0.4909  0.4697
  154MOL0     C21168   9.232  10.995   2.899 -0.6068 -0.5877 -0.5146
  154MOL0     C21169   9.210  11.198   2.468  0.2149  0.5877  0.3007
  154MOL0     C21170   9.077  11.237   2.496 -0.0518 -0.1368  0.1130
  154MOL0     C21171   9.000  11.302   2.404 -1.2765 -0.4131  0.7162
  154MOL0     C21172   9.044  11.336   2.281 -0.1014 -0.8700 -0.4655
  154MOL0     O21173   8.969  11.408   2.197  0.6958 -0.1557 -0.2778
  154MOL0     C21174   9.005  11.442   2.062  0.3910 -0.3938  0.3651
  154MOL0     C21175   9.063  11.587   2.055  0.6354 -0.2052 -0.5531
  154MOL0     C21176   9.176  11.614   2.156 -0.6515  1.1179 -0.1494
  154MOL0     C21177   9.239  11.751   2.128 -0.4670 -0.4442  0.2567
  154MOL0     C21178   9.303  11.804   2.254  0.4278  0.6974  0.8506
  154MOL0     C21179   9.355  11.845   2.349 -1.1400  0.2188 -0.2697
  154MOL0     C21180   9.183  11.308   2.253 -0.0338  0.0133 -0.2983
  154MOL0     C21181   9.263  11.239   2.340  0.2403  0.0807 -0.5919
  154MOL0     C21182   9.403  11.219   2.284 -0.6066  0.4560  0.6196
  154MOL0     H21183   9.362  10.829   2.631 -1.2507 -0.5366 -0.0725
  154MOL0     H21184   9.382  10.664   2.771 -2.5910 -0.2527 -1.1814
  154MOL0     H21185   9.473  10.570   2.982  0.3616  3.6083  0.6763
  154MOL0     H21186   9.294  10.534   2.950  1.0570 -2.1965 -0.1383
  154MOL0     H21187   9.389  10.360   3.129  0.5002 -0.0323 -2.4011
  154MOL0     H21188   9.463  10.498   3.190  0.0222  2.5204 -2.4242
  154MOL0     H21189   9.221  10.594   3.268  0.7493  0.5341 -1.3214
  154MOL0     H21190   9.155  10.480   3.160 -0.4718  3.4606  0.1180
  154MOL0     H21191   9.260  10.303   3.320 -1.6773  1.0090 -2.9489
  154MOL0     H21192   9.330  10.418   3.415 -2.2331  1.0586  2.3431
  154MOL0     H21193   9.036  10.375   3.374  1.9692 -3.4048 -0.0888
  154MOL0     H21194   9.101  10.515   3.484 -0.8715 -0.4471  1.7315
  154MOL0     H21195   9.155  10.220   3.517  0.3180 -0.7670  1.0029
  154MOL0     H21196   9.220  10.351   3.603  0.8982  1.1019 -3.2457
  154MOL0     H21197   9.017  10.220   3.704  0.7444  0.2964 -0.8974
  154MOL0     H21198   8.921  10.275   3.563  1.1232  1.6467 -1.6007
  154MOL0     H21199   8.999  10.458   3.781 -0.4602 -0.5854  1.9445
  154MOL0     H21200   8.942  10.500   3.609 -1.9352 -2.4127 -0.7792
  154MOL0     H21201   8.826  10.400   3.971 -0.0653  4.4447  0.9717
  154MOL0     H21202   8.510  10.503   3.996  2.1399  0.9724 -1.4469
  154MOL0     H21203   8.606  10.373   4.078  1.7424 -1.2694 -1.7278
  154MOL0     H21204   8.355  10.347   3.892 -2.8669  2.3802  3.2999
  154MOL0     H21205   8.460  10.216   3.926  2.5922  1.3806 -2.0944
  154MOL0     H21206   8.275  10.192   4.085 -0.3189 -1.7092 -0.4246
  154MOL0     H21207   8.411  10.240   4.174 -1.4127 -0.8524  0.6005
  154MOL0     H21208   8.212  10.398   4.228 -0.4888 -0.8891 -0.6456
  154MOL0     H21209   8.325  10.494   4.151 -1.0491 -1.0472  1.5132
  154MOL0     H21210   7.991  10.437   4.246  0.0118  0.4897 -0.7570
  154MOL0     H21211   7.768  10.242   4.383 -0.5842 -2.0010 -1.2869
  154MOL0     H21212   7.666  10.347   4.264  1.0873  1.8325 -1.5889
  154MOL0     H21213   7.799  10.416   4.354 -0.8454  1.4951 -1.3023
  154MOL0     H21214   7.778   9.784   4.131 -1.1757 -2.3612  1.6565
  154MOL0     H21215   7.649   9.600   4.180 -3.5286 -1.8744 -0.2568
  154MOL0     H21216   7.524   9.373   4.133 -2.9246 -2.0534 -3.5564
  154MOL0     H21217   7.468   9.504   4.244  1.2943  0.1827 -0.1948
  154MOL0     H21218   7.244   9.399   4.223 -0.6473 -0.3380  0.5378
  154MOL0     H21219   7.300   9.290   4.105 -1.6087 -1.6294  1.6658
  154MOL0     H21220   7.272   9.180   4.315  1.1596 -2.3299  2.7134
  154MOL0     H21221   7.371   9.307   4.385  2.7579 -1.3644  0.1736
  154MOL0     H21222   7.567   9.199   4.309 -0.9017  2.7491 -1.3595
  154MOL0     H21223   7.501   9.140   4.162  0.8537 -0.9318  0.6235
  154MOL0     H21224   7.544   8.967   4.337  0.2831  0.7940 -0.9576
  154MOL0     H21225   7.415   9.039   4.436 -1.4807  0.5356 -0.1317
  154MOL0     H21226   7.361   8.948   4.157 -1.5182  3.0244  1.3805
  154MOL0     H21227   7.238   8.941   4.283 -0.2692  1.5023  2.3999
  154MOL0     H21228   7.487   8.779   4.222  0.7086 -1.2265  2.4110
  154MOL0     H21229   7.326   8.723   4.192 -1.0625  2.1529  0.0071
  154MOL0     H21230   7.258   8.721   4.422 -0.2077  1.6822  2.1861
  154MOL0     H21231   7.414   8.759   4.486 -4.5497 -0.8171  3.8723
  154MOL0     H21232   7.340   9.719   3.905  0.9674 -3.6317 -0.6512
  154MOL0     H21233   7.463   9.935   3.870  0.7728 -0.3732 -1.8799
  154MOL0     H21234   7.882  10.114   3.893 -2.5614  0.9149 -0.2477
  154MOL0     H21235   8.104  10.253   3.896  0.6511  2.3607  0.9141
  154MOL0     H21236   9.232  10.922   3.101 -1.2811 -1.4682  0.3494
  154MOL0     H21237   9.173  11.083   2.921 -3.2375 -1.3595 -3.6708
  154MOL0     H21238   9.035  11.194   2.586  1.4662 -1.7016  0.1468
  154MOL0     H21239   8.897  11.319   2.436 -1.2516  0.4717  0.3401
  154MOL0     H21240   9.083  11.372   2.030  2.1480  0.9604  1.5099
  154MOL0     H21241   8.928  11.421   1.987 -1.4131 -0.2547  2.1160
  154MOL0     H21242   8.981  11.658   2.062  1.2833  0.7074 -1.7602
  154MOL0     H21243   9.108  11.607   1.956 -2.9228  4.1805 -1.5883
  154MOL0     H21244   9.130  11.624   2.255 -2.0845  2.0721 -0.8778
  154MOL0     H21245   9.251  11.535   2.164 -2.2745 -0.4172  0.6471
  154MOL0     H21246   9.149  11.811   2.113  1.0327  2.3310  1.6241
  154MOL0     H21247   9.316  11.751   2.051  1.0603  1.3517  1.6894
  154MOL0     H21248   9.410  11.883   2.432  1.5122 -3.3001 -0.1757
  154MOL0     H21249   9.237  11.340   2.164 -3.0365  2.5541 -1.3814
  154MOL0     H21250   9.418  11.111   2.273  3.4429  0.7252  2.0478
  154MOL0     H21251   9.424  11.258   2.184  0.0128 -4.7284 -1.5835
  154MOL0     H21252   9.476  11.254   2.357  2.3785  0.6793 -2.1967
  155MOL0     O21253   7.869  11.128   6.686  0.0536 -0.4854 -0.2677
  155MOL0     C21254   7.809  11.166   6.588 -0.4836  0.3703  0.5225
  155MOL0     O21255   7.806  11.294   6.542 -0.3119  0.0275  0.5465
  155MOL0     C21256   7.914  11.373   6.540  0.3232 -0.0293  0.7479
  155MOL0     C21257   8.047  11.328   6.577  0.2523  0.9408 -0.4958
  155MOL0     C21258   8.160  11.412   6.567  0.2145 -0.0180 -0.5289
  155MOL0     C21259   8.141  11.544   6.524  0.2802 -0.1887 -0.8580
  155MOL0     O21260   8.251  11.619   6.498 -0.2288 -0.2785  0.9985
  155MOL0     C21261   8.343  11.574   6.404 -0.3365  0.1964  0.7335
  155MOL0     C21262   8.420  11.696   6.359  0.1910 -0.2026  0.1073
  155MOL0     C21263   8.547  11.645   6.286  0.2763 -0.3746  0.1098
  155MOL0     C21264   8.522  11.589   6.144 -0.2263  0.0728 -0.1468
  155MOL0     C21265   8.646  11.523   6.077 -0.5242  0.1330 -0.7615
  155MOL0     C21266   8.759  11.620   6.036  0.3241 -0.2214  0.3139
  155MOL0     C21267   8.878  11.547   5.964  0.7067 -0.2121 -0.8179
  155MOL0     C21268   8.995  11.628   5.960 -0.8441 -0.4376  0.1736
  155MOL0     N21269   8.995  11.728   5.859  0.2713  0.5279 -0.5042
  155MOL0     C21270   8.995  11.704   5.729  0.5223 -0.0659 -0.8532
  155MOL0     C21271   9.066  11.809   5.685 -0.3383  0.0451 -0.1694
  155MOL0     C21272   9.092  11.826   5.538 -0.0800  0.3587  0.3274
  155MOL0     C21273   9.029  11.962   5.487  0.5054  0.6365 -1.1125
  155MOL0     C21274   9.098  12.102   5.542 -0.4574 -0.3115 -0.6941
  155MOL0     C21275   9.034  12.226   5.485 -0.3973  0.1384  0.0625
  155MOL0     O21276   9.026  12.234   5.344 -0.2430  0.4635  0.2246
  155MOL0     C21277   8.942  12.329   5.291  0.8651  0.6650  0.4033
  155MOL0     C21278   8.954  12.349   5.153 -1.0092  0.1956 -0.0934
  155MOL0     C21279   8.882  12.447   5.078 -0.0558  0.4186 -0.8029
  155MOL0     C21280   8.879  12.428   4.935 -0.0079 -0.3390  0.1746
  155MOL0     C21281   8.797  12.536   5.144 -0.3345 -0.3752  0.3227
  155MOL0     C21282   8.732  12.656   5.082  0.5200 -0.4289 -1.1362
  155MOL0     O21283   8.780  12.704   4.967 -0.2274  0.3254 -0.2530
  155MOL0     C21284   8.704  12.785   4.885 -0.4710  0.2424 -1.0141
  155MOL0     C21285   8.785  12.856   4.794 -0.3994  1.6595  0.2024
  155MOL0     C21286   8.714  12.934   4.703 -0.6806  0.7215  1.4965
  155MOL0     C21287   8.578  12.942   4.699  0.1751 -0.0315 -0.9075
  155MOL0     O21288   8.509  13.023   4.612  0.3092  0.2305 -0.9544
  155MOL0     C21289   8.478  13.157   4.674  0.3668  0.2004 -0.0150
  155MOL0     C21290   8.545  13.267   4.586  0.0865 -1.1032 -1.3803
  155MOL0     C21291   8.496  13.410   4.609  1.1879  0.0679  0.3131
  155MOL0     C21292   8.563  13.507   4.516 -0.3519  0.6805 -0.1115
  155MOL0     C21293   8.524  13.655   4.542  0.1678 -0.6676  0.1221
  155MOL0     C21294   8.609  13.752   4.456 -0.4453  1.1082  0.3591
  155MOL0     C21295   8.549  13.893   4.455 -0.5940  0.1070  0.1501
  155MOL0     C21296   8.629  13.987   4.364  0.3783  0.1576 -0.6137
  155MOL0    Cl21297   8.565  14.145   4.374  0.4482  0.0551  0.1548
  155MOL0     C21298   8.501  12.867   4.784 -0.0193 -0.3034  1.0684
  155MOL0     C21299   8.564  12.790   4.877  0.1113  0.4289 -1.1732
  155MOL0     O21300   8.653  12.722   5.155 -0.5560  0.1799 -0.5438
  155MOL0     C21301   8.791  12.516   5.291  0.4599  0.1413 -0.1468
  155MOL0     C21302   8.858  12.414   5.357  0.4850 -0.1755 -0.4855
  155MOL0     N21303   9.102  11.902   5.788 -0.4635 -0.4117  0.3328
  155MOL0     N21304   9.044  11.851   5.883  0.0902 -0.0977 -0.3046
  155MOL0     C21305   8.013  11.588   6.490  0.5610 -0.6876  0.0320
  155MOL0     C21306   7.904  11.506   6.492 -0.5804 -0.3107 -1.0798
  155MOL0     C21307   7.736  11.059   6.510 -0.3700 -0.1612 -0.4924
  155MOL0     C21308   7.734  10.920   6.554  0.9359 -0.4211  0.0871
  155MOL0     C21309   7.650  10.822   6.507  0.3716  0.5741 -0.0909
  155MOL0     C21310   7.595  10.841   6.377  0.1101 -0.2274 -0.1570
  155MOL0     O21311   7.532  10.729   6.320  0.4181 -0.0891 -0.4200
  155MOL0     C21312   7.575  10.705   6.193  0.3727  0.1771  0.0650
  155MOL0     C21313   7.487  10.586   6.134 -1.4546  1.0797 -0.0561
  155MOL0     C21314   7.490  10.572   5.983  0.1632 -0.3644 -0.1388
  155MOL0     C21315   7.633  10.562   5.923 -0.1608  0.4966  0.0648
  155MOL0     C21316   7.630  10.623   5.788 -0.8474 -0.6850 -0.6789
  155MOL0     C21317   7.617  10.668   5.682 -0.0266  0.9238  0.3523
  155MOL0     C21318   7.608  10.963   6.322  1.1524 -0.4782  0.2670
  155MOL0     C21319   7.671  11.075   6.384 -0.7906  0.1496 -0.0250
  155MOL0     C21320   7.659  11.203   6.304  0.1162  0.0987 -0.2526
  155MOL0     H21321   8.055  11.224   6.608 -1.5383  0.5129 -1.3009
  155MOL0     H21322   8.259  11.383   6.601  0.8037  0.5723 -1.6801
  155MOL0     H21323   8.290  11.528   6.320 -1.6277  0.5774  1.3173
  155MOL0     H21324   8.411  11.497   6.443  0.2105  0.3493  0.1074
  155MOL0     H21325   8.362  11.749   6.284  1.7459  0.3465 -0.7528
  155MOL0     H21326   8.432  11.755   6.450 -4.2935 -2.1921  2.2836
  155MOL0     H21327   8.614  11.729   6.263 -0.4315 -0.7517 -4.0051
  155MOL0     H21328   8.593  11.568   6.349  0.3125 -2.3615 -2.2142
  155MOL0     H21329   8.459  11.499   6.144  1.4600 -1.2345  2.1309
  155MOL0     H21330   8.475  11.658   6.074 -1.0692 -0.1682  0.1744
  155MOL0     H21331   8.619  11.463   5.990 -0.6001 -0.5836 -0.2568
  155MOL0     H21332   8.690  11.465   6.159 -0.1922 -0.2419 -1.1980
  155MOL0     H21333   8.720  11.692   5.964 -0.7412 -1.8918 -0.8593
  155MOL0     H21334   8.802  11.677   6.119 -0.6944  1.5218 -0.3116
  155MOL0     H21335   8.853  11.499   5.869 -2.2923 -1.2398  0.3901
  155MOL0     H21336   8.891  11.462   6.031 -0.9345  0.0429 -0.1532
  155MOL0     H21337   8.992  11.686   6.053  1.1797  0.3546 -0.2166
  155MOL0     H21338   9.080  11.560   5.956 -1.0229 -0.6379 -0.2292
  155MOL0     H21339   8.948  11.623   5.673 -2.3050  1.2637 -0.5934
  155MOL0     H21340   9.038  11.749   5.482 -0.7865  0.8008  0.3952
  155MOL0     H21341   9.196  11.811   5.507 -0.2733 -1.1897  0.3497
  155MOL0     H21342   9.023  11.973   5.378 -3.8858 -0.9064 -1.2454
  155MOL0     H21343   8.927  11.959   5.528  0.0352  1.0734 -2.1977
  155MOL0     H21344   9.097  12.110   5.651  0.7128  1.7030 -0.7805
  155MOL0     H21345   9.204  12.092   5.515  1.0666 -0.0262  4.2353
  155MOL0     H21346   8.933  12.238   5.524 -0.0659  2.1602  0.4212
  155MOL0     H21347   9.092  12.315   5.514 -1.2934 -0.2781  3.5152
  155MOL0     H21348   9.031  12.298   5.096 -1.3374 -0.0435 -0.3258
  155MOL0     H21349   8.881  12.320   4.919  0.1328  0.0682 -3.3815
  155MOL0     H21350   8.968  12.474   4.889 -0.0239  0.5248  0.9613
  155MOL0     H21351   8.784  12.466   4.897 -1.5040 -2.4102  1.6336
  155MOL0     H21352   8.893  12.845   4.801 -0.6958 -1.1812  5.6993
  155MOL0     H21353   8.777  12.984   4.630 -0.2133 -2.4078 -0.4815
  155MOL0     H21354   8.371  13.167   4.650  0.5217  0.6709 -0.5523
  155MOL0     H21355   8.499  13.161   4.781  3.3455 -1.7633 -0.3844
  155MOL0     H21356   8.653  13.259   4.597  0.7384  0.6219 -5.0391
  155MOL0     H21357   8.523  13.251   4.480  0.1467 -1.9771 -1.2662
  155MOL0     H21358   8.533  13.443   4.707  0.6528  0.3139  0.4303
  155MOL0     H21359   8.387  13.414   4.602  0.8480 -1.6781  2.8074
  155MOL0     H21360   8.538  13.486   4.411  0.8764  1.2814 -0.5577
  155MOL0     H21361   8.673  13.509   4.514 -0.3637  2.3092 -0.3748
  155MOL0     H21362   8.418  13.659   4.514 -0.2918  1.0289  1.8825
  155MOL0     H21363   8.536  13.692   4.644 -0.9595 -1.9473  0.7561
  155MOL0     H21364   8.612  13.723   4.350 -1.8310 -1.6165  0.9870
  155MOL0     H21365   8.708  13.751   4.502  0.5401  1.7179 -1.6398
  155MOL0     H21366   8.565  13.933   4.556 -0.2346 -0.1862  0.2149
  155MOL0     H21367   8.444  13.883   4.428 -0.6986 -3.2878  1.2977
  155MOL0     H21368   8.596  13.934   4.274 -2.6715 -1.9497  1.5601
  155MOL0     H21369   8.735  13.983   4.391  0.6502 -3.3058 -1.6989
  155MOL0     H21370   8.393  12.871   4.784 -0.0540 -1.0652  1.2342
  155MOL0     H21371   8.508  12.725   4.943  2.5197 -0.1083  0.4683
  155MOL0     H21372   8.741  12.590   5.353  0.8298 -2.1351  3.0938
  155MOL0     H21373   8.843  12.407   5.464 -0.6438  1.3793 -0.5079
  155MOL0     H21374   8.010  11.682   6.435 -2.2323 -0.2396  0.7720
  155MOL0     H21375   7.808  11.547   6.462 -0.5382  0.2919 -0.4283
  155MOL0     H21376   7.781  10.892   6.648  1.0157 -0.4651  0.0336
  155MOL0     H21377   7.644  10.724   6.554  4.1513  0.9924  1.5813
  155MOL0     H21378   7.569  10.794   6.129 -1.0542  0.9058  1.1449
  155MOL0     H21379   7.679  10.673   6.201  0.1629 -0.1028  2.1775
  155MOL0     H21380   7.385  10.610   6.165 -1.5732 -0.4259  0.8054
  155MOL0     H21381   7.515  10.491   6.180  2.3564  2.1507  0.1998
  155MOL0     H21382   7.448  10.473   5.961  1.8409 -0.8894 -1.2008
  155MOL0     H21383   7.432  10.650   5.933  2.4448  1.3030 -0.3553
  155MOL0     H21384   7.670  10.459   5.923 -1.7971 -0.1201 -0.0773
  155MOL0     H21385   7.705  10.620   5.982  0.2393  1.0577 -0.9443
  155MOL0     H21386   7.609  10.700   5.580 -1.4676  0.5060  0.3221
  155MOL0     H21387   7.570  10.991   6.224  2.4470  0.7970  0.0963
  155MOL0     H21388   7.613  11.283   6.363  3.7321  1.6362  0.8187
  155MOL0     H21389   7.751  11.259   6.281  0.2234 -0.1090 -0.3350
  155MOL0     H21390   7.612  11.180   6.208  1.0297 -2.2398 -0.2015
  156MOL0     O21391  10.491   3.734   4.435  0.5838 -0.2505  0.8012
  156MOL0     C21392  10.450   3.806   4.526 -1.1449  0.0051  0.2199
  156MOL0     O21393  10.511   3.835   4.638 -0.2554  0.1230 -0.0149
  156MOL0     C21394  10.624   3.778   4.677 -0.4956  0.4349  0.0729
  156MOL0     C21395  10.624   3.662   4.747  0.9828 -0.5515 -0.2028
  156MOL0     C21396  10.742   3.600   4.788 -0.7693 -0.3153 -0.6073
  156MOL0     C21397  10.865   3.654   4.755 -0.2637  0.4053  0.4123
  156MOL0     O21398  10.975   3.586   4.788  0.5993  0.2621  0.1089
  156MOL0     C21399  11.024   3.638   4.912 -0.3408  0.5741  0.7990
  156MOL0     C21400  11.180   3.595   4.912  0.1918  0.2966  0.0452
  156MOL0     C21401  11.253   3.686   4.812  0.3675  0.7277  0.9951
  156MOL0     C21402  11.401   3.652   4.817 -0.0722  0.1706  0.4384
  156MOL0     C21403  11.438   3.522   4.733 -0.5012  1.0957 -0.3135
  156MOL0     C21404  11.551   3.539   4.625 -0.6987 -0.3811 -0.2875
  156MOL0     C21405  11.479   3.590   4.498  0.5413  0.4751  0.2323
  156MOL0     C21406  11.567   3.604   4.364  0.5995 -0.2682  0.2558
  156MOL0     N21407  11.636   3.733   4.342 -0.2999  0.5567 -0.5842
  156MOL0     C21408  11.572   3.845   4.288 -0.2606  0.6726 -0.0194
  156MOL0     C21409  11.672   3.941   4.304 -0.1139  0.6753 -0.0412
  156MOL0     C21410  11.668   4.093   4.274  0.1888  0.4552  0.4475
  156MOL0     C21411  11.711   4.111   4.131  0.1323 -0.2370  0.4428
  156MOL0     C21412  11.723   4.257   4.106 -0.2031 -0.4480 -0.9569
  156MOL0     C21413  11.856   4.323   4.146  0.0768  1.1199  0.4237
  156MOL0     O21414  11.868   4.440   4.066  0.0048  0.4868  0.5995
  156MOL0     C21415  11.973   4.529   4.083 -0.3182  0.2069  1.0894
  156MOL0     C21416  12.097   4.500   4.142  0.2098 -0.2761 -0.1972
  156MOL0     C21417  12.198   4.600   4.162 -0.0786 -0.3124 -0.4258
  156MOL0     C21418  12.324   4.549   4.229 -0.9956  0.2519 -0.8647
  156MOL0     C21419  12.175   4.730   4.113  0.2092  0.3164 -0.0844
  156MOL0     C21420  12.276   4.836   4.104 -1.5252  1.3310  1.1267
  156MOL0     O21421  12.250   4.935   4.013 -0.4785  0.0103  0.6967
  156MOL0     C21422  12.341   5.042   4.008 -0.4049  0.5495  0.6824
  156MOL0     C21423  12.318   5.150   4.093  0.9449 -0.3018  0.3134
  156MOL0     C21424  12.414   5.252   4.104  0.8463 -0.1812  0.5464
  156MOL0     C21425  12.525   5.258   4.027  0.1315  0.2758 -0.3223
  156MOL0     O21426  12.614   5.357   4.043  0.4418 -1.3062  0.5367
  156MOL0     C21427  12.750   5.334   4.010  0.0307  0.0865 -0.5521
  156MOL0     C21428  12.813   5.459   3.950  0.0363  0.8667 -0.2267
  156MOL0     C21429  12.756   5.508   3.820 -0.1817 -0.4389 -0.1637
  156MOL0     C21430  12.809   5.648   3.777  0.4310  0.4838 -1.0316
  156MOL0     C21431  12.722   5.706   3.661 -0.8166  1.8613 -0.2813
  156MOL0     C21432  12.785   5.838   3.614 -0.3618  0.1454  0.2250
  156MOL0     C21433  12.679   5.904   3.515  0.1498 -0.4266  0.1848
  156MOL0     C21434  12.715   6.045   3.491  0.1478  0.0116  0.2175
  156MOL0    Cl21435  12.667   6.157   3.630  0.4184  0.3315 -0.2168
  156MOL0     C21436  12.546   5.155   3.937  0.6020  0.5161  1.1280
  156MOL0     C21437  12.453   5.048   3.930 -0.3658 -0.0142 -0.5650
  156MOL0     O21438  12.386   4.819   4.165 -0.5786 -0.4898 -0.0905
  156MOL0     C21439  12.049   4.756   4.063 -0.2174 -0.7180  0.6112
  156MOL0     C21440  11.948   4.657   4.053 -0.6151 -0.0890 -0.3858
  156MOL0     N21441  11.783   3.882   4.360  0.3541  0.9775 -0.1272
  156MOL0     N21442  11.759   3.756   4.383 -0.5893  0.3086 -0.2080
  156MOL0     C21443  10.872   3.772   4.686 -0.9389  0.1579  0.9767
  156MOL0     C21444  10.749   3.837   4.655  0.8773  0.7470 -0.1335
  156MOL0     C21445  10.311   3.861   4.527 -0.9175  0.0517 -0.3432
  156MOL0     C21446  10.230   3.853   4.644 -0.2257  0.4528  1.0094
  156MOL0     C21447  10.098   3.885   4.635  0.4136 -0.9718 -0.8302
  156MOL0     C21448  10.043   3.937   4.518  0.2632  0.4346  0.4298
  156MOL0     O21449   9.912   3.965   4.508  0.0462 -0.5581 -0.9354
  156MOL0     C21450   9.845   3.896   4.405  0.5965  0.0902  0.4181
  156MOL0     C21451   9.723   3.983   4.362 -0.0099  1.0017 -0.2871
  156MOL0     C21452   9.610   3.994   4.466 -0.3774 -0.2274 -0.3477
  156MOL0     C21453   9.494   3.901   4.450 -1.0077  1.3063  0.4579
  156MOL0     C21454   9.523   3.759   4.450 -0.8132  0.5831  0.2069
  156MOL0     C21455   9.552   3.638   4.458 -0.7871 -0.6869 -1.3511
  156MOL0     C21456  10.126   3.948   4.409  0.6542 -0.4222  0.8123
  156MOL0     C21457  10.262   3.926   4.418  0.6836  0.8556  0.2148
  156MOL0     C21458  10.349   3.943   4.293 -0.7517  0.1542  0.2760
  156MOL0     H21459  10.539   3.600   4.771  0.6515  0.4880  1.4958
  156MOL0     H21460  10.747   3.510   4.850 -1.3490  1.2820  1.9337
  156MOL0     H21461  10.968   3.590   4.993 -1.2212 -0.8112 -0.5713
  156MOL0     H21462  11.013   3.745   4.929 -1.5870  0.7668 -0.9445
  156MOL0     H21463  11.210   3.621   5.014 -1.8539 -0.2482  0.8399
  156MOL0     H21464  11.197   3.491   4.883 -0.3813  0.4723 -0.9571
  156MOL0     H21465  11.223   3.674   4.708  1.4812 -2.7586  0.9448
  156MOL0     H21466  11.252   3.792   4.840  1.5520  0.9471  0.2764
  156MOL0     H21467  11.451   3.734   4.763 -1.7395  0.5847 -0.5760
  156MOL0     H21468  11.441   3.643   4.918  0.9790  2.0656  0.2326
  156MOL0     H21469  11.353   3.475   4.684  1.8648 -3.4469 -0.5596
  156MOL0     H21470  11.483   3.441   4.791  1.4994  2.1432 -0.3033
  156MOL0     H21471  11.624   3.613   4.658 -2.1641  0.6700  0.7074
  156MOL0     H21472  11.599   3.440   4.622  1.0525  0.4025  0.1994
  156MOL0     H21473  11.439   3.690   4.520  1.2906  1.1496 -1.3072
  156MOL0     H21474  11.397   3.519   4.482  1.4134 -1.1806  2.5935
  156MOL0     H21475  11.637   3.522   4.345  0.6269  0.3945 -3.0380
  156MOL0     H21476  11.486   3.593   4.292  0.0596  2.1188  0.3893
  156MOL0     H21477  11.469   3.855   4.256  0.4982  0.2499 -2.8261
  156MOL0     H21478  11.734   4.152   4.339  3.1825 -0.4338 -1.5891
  156MOL0     H21479  11.564   4.128   4.276  0.1833  0.5631  3.1300
  156MOL0     H21480  11.803   4.054   4.116 -0.2376 -0.7892  0.2743
  156MOL0     H21481  11.632   4.080   4.062 -0.7268  1.4712  0.6059
  156MOL0     H21482  11.718   4.268   3.998  0.1794  0.5669 -0.8819
  156MOL0     H21483  11.641   4.309   4.155  0.2032 -0.9052  0.2621
  156MOL0     H21484  11.868   4.347   4.252  1.0902 -0.9799  0.8466
  156MOL0     H21485  11.934   4.253   4.115 -0.0734  2.6140 -4.0218
  156MOL0     H21486  12.110   4.394   4.161  3.0363 -0.5363 -2.7404
  156MOL0     H21487  12.337   4.572   4.335 -1.1789 -1.4473 -0.4446
  156MOL0     H21488  12.410   4.587   4.173 -0.7918  2.4120  0.7953
  156MOL0     H21489  12.330   4.440   4.221  0.0036  0.2060  0.2930
  156MOL0     H21490  12.227   5.166   4.149  0.7387 -3.2718  1.0136
  156MOL0     H21491  12.393   5.337   4.169 -0.2060  0.1216 -0.1588
  156MOL0     H21492  12.789   5.307   4.109 -1.2671 -0.6802 -0.2259
  156MOL0     H21493  12.765   5.254   3.936 -1.4290  0.3115 -1.1267
  156MOL0     H21494  12.803   5.543   4.020 -1.4490  0.6804 -0.1683
  156MOL0     H21495  12.920   5.447   3.932 -0.2352 -0.8500 -0.8712
  156MOL0     H21496  12.648   5.511   3.835 -0.0484 -3.5556  2.7049
  156MOL0     H21497  12.767   5.438   3.737  1.5821 -1.7146  1.0733
  156MOL0     H21498  12.910   5.632   3.737  1.8639  3.0278  1.2739
  156MOL0     H21499  12.817   5.723   3.856 -1.3148 -0.3713  0.0043
  156MOL0     H21500  12.740   5.638   3.576  2.6855  0.3636  1.4362
  156MOL0     H21501  12.618   5.715   3.693 -0.8193  0.6920  0.0945
  156MOL0     H21502  12.884   5.838   3.569 -0.6858  3.0721 -0.7003
  156MOL0     H21503  12.790   5.898   3.706 -3.4577 -0.5751  0.9911
  156MOL0     H21504  12.581   5.901   3.564  0.3615 -1.2876  0.5666
  156MOL0     H21505  12.691   5.848   3.421  2.3038  0.6551 -0.2394
  156MOL0     H21506  12.661   6.073   3.400 -1.4331 -1.6845  0.5719
  156MOL0     H21507  12.820   6.042   3.460  0.2491  1.0428  0.4270
  156MOL0     H21508  12.623   5.146   3.862 -0.2292 -1.2498  0.4287
  156MOL0     H21509  12.464   4.970   3.855  1.7427 -0.3549  0.0377
  156MOL0     H21510  12.026   4.857   4.031 -2.8346 -0.1379  3.7611
  156MOL0     H21511  11.850   4.675   4.009 -0.2857 -2.9422 -2.6115
  156MOL0     H21512  10.970   3.810   4.662 -0.4805 -1.3023  0.3975
  156MOL0     H21513  10.738   3.931   4.603  0.8725  0.1509 -1.2476
  156MOL0     H21514  10.277   3.814   4.735 -0.3981  1.1576  1.4068
  156MOL0     H21515  10.030   3.879   4.719 -1.9859  0.4180 -2.5418
  156MOL0     H21516   9.898   3.863   4.316 -2.3507  1.7725 -2.1900
  156MOL0     H21517   9.808   3.805   4.453 -1.3765  1.2387  1.2496
  156MOL0     H21518   9.673   3.949   4.270 -0.6510  3.5355 -0.9400
  156MOL0     H21519   9.760   4.082   4.334  0.0640  0.8435 -0.7706
  156MOL0     H21520   9.650   3.978   4.567  2.3041 -0.5317 -1.3776
  156MOL0     H21521   9.565   4.093   4.470 -2.6210 -1.1632  3.7859
  156MOL0     H21522   9.472   3.922   4.345  2.7935  0.5543 -0.6452
  156MOL0     H21523   9.418   3.935   4.521  1.2465  1.2228  3.0421
  156MOL0     H21524   9.583   3.536   4.460 -1.8590 -1.1946 -4.6577
  156MOL0     H21525  10.088   3.989   4.316  2.9810  2.8795  1.1440
  156MOL0     H21526  10.306   4.016   4.225  0.0406  0.7540  0.4005
  156MOL0     H21527  10.454   3.964   4.316 -0.3387 -0.7603 -0.6899
  156MOL0     H21528  10.347   3.850   4.235 -2.8533 -0.8403  1.8317
  157MOL0     O21529  10.133   6.175   6.970 -0.0927  0.9064  0.9885
  157MOL0     C21530  10.031   6.238   6.948  0.1406  0.5922  0.5981
  157MOL0     O21531  10.007   6.370   6.982  0.5287  0.5022  0.7323
  157MOL0     C21532  10.108   6.458   7.004 -0.4823  0.2111  0.5005
  157MOL0     C21533  10.097   6.583   6.956  0.2462 -0.9383 -0.0265
  157MOL0     C21534  10.203   6.672   6.971 -0.3564 -0.5735 -0.1262
  157MOL0     C21535  10.319   6.636   7.033  0.0284 -0.3771  0.8093
  157MOL0     O21536  10.417   6.736   7.037  0.3294 -0.3287 -0.3243
  157MOL0     C21537  10.486   6.748   7.163 -0.5067  0.8083 -0.8238
  157MOL0     C21538  10.571   6.875   7.138  0.7780  0.5716 -0.6345
  157MOL0     C21539  10.487   7.002   7.150  0.3698 -0.3344 -0.4584
  157MOL0     C21540  10.562   7.124   7.200 -0.1930  0.2365  1.7924
  157MOL0     C21541  10.490   7.250   7.166 -0.6644  0.2211  0.4030
  157MOL0     C21542  10.403   7.308   7.277  0.4542  0.1975  0.3489
  157MOL0     C21543  10.297   7.405   7.218 -0.1985  0.3651 -0.2991
  157MOL0     C21544  10.351   7.535   7.146  0.3073  0.0810 -1.0617
  157MOL0     N21545  10.430   7.611   7.238 -0.5920 -0.2596  0.4803
  157MOL0     C21546  10.528   7.701   7.202 -0.2497 -0.1519 -0.4021
  157MOL0     C21547  10.570   7.757   7.318 -0.1579  0.1029  0.5966
  157MOL0     C21548  10.685   7.850   7.347  0.4538 -0.1771 -0.4709
  157MOL0     C21549  10.690   7.904   7.488  0.7270  0.1266 -0.0846
  157MOL0     C21550  10.788   7.828   7.580  0.1662  0.0516 -1.1127
  157MOL0     C21551  10.780   7.897   7.722 -0.9165  0.5116  0.1216
  157MOL0     O21552  10.734   7.810   7.818  0.1378  0.0439 -0.2745
  157MOL0     C21553  10.808   7.699   7.869  1.0543 -0.4038 -0.4896
  157MOL0     C21554  10.949   7.679   7.859  0.2254 -0.3935  0.9442
  157MOL0     C21555  11.013   7.569   7.912 -0.1096  0.6681 -0.3701
  157MOL0     C21556  11.156   7.552   7.877  0.8915  0.3628 -0.6307
  157MOL0     C21557  10.942   7.482   7.994 -0.1276 -0.3652 -0.1602
  157MOL0     C21558  10.994   7.353   8.054 -0.6906 -0.5415  0.2419
  157MOL0     O21559  10.986   7.317   8.188 -0.8260  0.1856  0.2269
  157MOL0     C21560  11.046   7.203   8.242 -1.6294  0.4507  0.2648
  157MOL0     C21561  10.969   7.141   8.344  0.0533  0.4781  0.9548
  157MOL0     C21562  11.012   7.018   8.392 -0.3210 -0.8977 -0.3049
  157MOL0     C21563  11.139   6.966   8.360  0.5402  0.1793  0.5845
  157MOL0     O21564  11.177   6.849   8.415  0.2179 -0.5196 -0.5242
  157MOL0     C21565  11.308   6.813   8.404  0.2356  0.0564 -0.9737
  157MOL0     C21566  11.353   6.730   8.523  0.8745 -0.4475  0.1825
  157MOL0     C21567  11.496   6.673   8.498  0.3693 -0.5879 -0.9170
  157MOL0     C21568  11.605   6.779   8.507  0.4066 -0.2395  0.1222
  157MOL0     C21569  11.745   6.710   8.486 -0.5869  0.1327  1.0147
  157MOL0     C21570  11.864   6.807   8.473 -0.2303 -0.1740 -0.6020
  157MOL0     C21571  11.848   6.922   8.370 -0.4927  0.0139  0.7734
  157MOL0     C21572  11.879   6.877   8.225 -0.5882 -0.4646 -0.0213
  157MOL0    Cl21573  12.056   6.847   8.210  0.3896 -0.2711  0.0297
  157MOL0     C21574  11.213   7.031   8.260  0.0490 -0.1860 -0.3278
  157MOL0     C21575  11.166   7.148   8.199 -0.4030  0.0298  0.0067
  157MOL0     O21576  11.035   7.282   7.965 -0.1553  0.0074  0.1007
  157MOL0     C21577  10.805   7.516   8.018  0.8843  0.1873  0.5660
  157MOL0     C21578  10.742   7.622   7.959  0.2282 -1.2068  0.2728
  157MOL0     N21579  10.478   7.721   7.414 -0.3562 -0.5462  0.6223
  157MOL0     N21580  10.397   7.634   7.367 -0.2007 -0.6968  0.7563
  157MOL0     C21581  10.324   6.511   7.094  1.0880  0.4634 -0.2036
  157MOL0     C21582  10.215   6.420   7.087  0.1687 -0.0805  0.4389
  157MOL0     C21583   9.930   6.161   6.877 -0.1523  0.4859  0.3328
  157MOL0     C21584   9.816   6.232   6.834  0.1035 -0.1573 -0.0675
  157MOL0     C21585   9.714   6.173   6.758 -1.2211  0.0688  0.6230
  157MOL0     C21586   9.715   6.037   6.734  0.1113  0.8740 -0.4837
  157MOL0     O21587   9.619   5.957   6.670 -0.0001  0.0084 -0.6759
  157MOL0     C21588   9.491   6.012   6.643  0.6257 -0.2832  0.5273
  157MOL0     C21589   9.406   5.926   6.558 -0.0716  0.0684 -0.3022
  157MOL0     C21590   9.482   5.887   6.430  0.5838 -0.0541 -0.7701
  157MOL0     C21591   9.467   5.988   6.311  0.6358 -0.4199 -0.3069
  157MOL0     C21592   9.508   5.950   6.174  0.2512 -0.3886 -0.2669
  157MOL0     C21593   9.552   5.903   6.075  0.2695 -0.6636  1.1969
  157MOL0     C21594   9.829   5.965   6.781  0.4555 -0.3013 -0.2315
  157MOL0     C21595   9.921   6.024   6.857 -0.9084 -0.3915 -0.8297
  157MOL0     C21596  10.022   5.932   6.918 -0.5964 -0.1080 -0.3128
  157MOL0     H21597   9.996   6.604   6.921 -0.5939 -1.7248  1.7505
  157MOL0     H21598  10.198   6.777   6.944  2.4252 -0.7088 -1.5114
  157MOL0     H21599  10.548   6.660   7.184 -0.4776  0.4135 -2.3797
  157MOL0     H21600  10.415   6.771   7.242 -0.4746  2.1706 -1.1617
  157MOL0     H21601  10.640   6.872   7.223  0.1565 -2.4064 -0.1186
  157MOL0     H21602  10.621   6.865   7.041 -1.1443  0.7325 -1.6787
  157MOL0     H21603  10.446   7.016   7.050  1.8566 -0.8555 -1.1627
  157MOL0     H21604  10.401   6.998   7.219  0.3191  2.9288 -0.1743
  157MOL0     H21605  10.594   7.115   7.304 -1.3909  1.4642  2.2979
  157MOL0     H21606  10.643   7.146   7.129 -2.5387  2.9136 -0.2987
  157MOL0     H21607  10.443   7.239   7.068  1.8515 -0.3619 -0.8336
  157MOL0     H21608  10.558   7.330   7.137  3.3243 -2.2679  2.0588
  157MOL0     H21609  10.337   7.236   7.328  1.0916 -1.6233 -1.2646
  157MOL0     H21610  10.460   7.357   7.357  0.0706 -0.1891  0.8719
  157MOL0     H21611  10.236   7.438   7.303  2.6624  2.1593  1.1915
  157MOL0     H21612  10.232   7.361   7.141  0.0122 -1.4624  0.4987
  157MOL0     H21613  10.402   7.508   7.053 -0.5050  2.1594 -2.1714
  157MOL0     H21614  10.269   7.597   7.109 -2.4656 -1.0971  2.4257
  157MOL0     H21615  10.575   7.718   7.106  2.0390  1.0241  0.8355
  157MOL0     H21616  10.694   7.937   7.280  1.4645 -0.6326 -0.9393
  157MOL0     H21617  10.785   7.811   7.329  1.2897  1.1032  1.2049
  157MOL0     H21618  10.722   8.008   7.479 -1.2783  0.8151  0.1314
  157MOL0     H21619  10.592   7.924   7.533  1.3759 -0.8514  1.8812
  157MOL0     H21620  10.758   7.724   7.594 -0.6005 -0.1448 -3.6455
  157MOL0     H21621  10.891   7.826   7.543  0.3735  3.1224 -0.9749
  157MOL0     H21622  10.882   7.930   7.744 -0.6262  0.0329 -0.4691
  157MOL0     H21623  10.713   7.983   7.719 -0.1283  1.2637  2.3198
  157MOL0     H21624  10.997   7.746   7.788 -1.4226  2.4372  2.3419
  157MOL0     H21625  11.223   7.542   7.963 -2.9987 -2.2752  2.4125
  157MOL0     H21626  11.180   7.625   7.799 -1.8164  3.8724  1.4699
  157MOL0     H21627  11.164   7.453   7.831  2.8119 -0.0402  0.4458
  157MOL0     H21628  10.874   7.180   8.379  0.4224  1.1654  1.2052
  157MOL0     H21629  10.947   6.965   8.461  0.6269  0.4569  1.7476
  157MOL0     H21630  11.325   6.749   8.317 -0.1092  1.3849 -2.0419
  157MOL0     H21631  11.377   6.897   8.416  2.4425 -2.0112  2.5943
  157MOL0     H21632  11.344   6.795   8.610  0.4873  0.0693 -0.2322
  157MOL0     H21633  11.277   6.653   8.537  0.1063  0.3659  0.5271
  157MOL0     H21634  11.497   6.612   8.407  2.8830 -1.2542 -0.5366
  157MOL0     H21635  11.510   6.609   8.586 -0.4377 -3.5296 -2.7670
  157MOL0     H21636  11.597   6.842   8.595 -2.8052  0.5662 -0.6109
  157MOL0     H21637  11.584   6.851   8.427 -0.6769  0.1463  0.7367
  157MOL0     H21638  11.770   6.646   8.572 -1.1041 -1.3941  0.0667
  157MOL0     H21639  11.717   6.644   8.404  1.1287  1.7067 -0.9182
  157MOL0     H21640  11.961   6.766   8.446  0.2173 -1.1692  2.1876
  157MOL0     H21641  11.868   6.850   8.574  0.3889 -0.9180 -0.3040
  157MOL0     H21642  11.918   7.001   8.395  1.4650 -1.1494 -0.7054
  157MOL0     H21643  11.749   6.969   8.378  0.4987  3.1152 -2.5618
  157MOL0     H21644  11.845   6.948   8.149  0.0588  1.1977  1.1709
  157MOL0     H21645  11.824   6.783   8.219  0.3495 -0.9409 -1.6114
  157MOL0     H21646  11.308   7.003   8.215  0.5537  3.6293 -2.0591
  157MOL0     H21647  11.224   7.201   8.124 -1.2700  1.3862  0.2690
  157MOL0     H21648  10.750   7.455   8.088  3.4564 -0.8074  1.8303
  157MOL0     H21649  10.639   7.653   7.968  0.7331 -0.0122  2.3776
  157MOL0     H21650  10.401   6.484   7.166 -0.1658 -2.0168  0.2845
  157MOL0     H21651  10.212   6.325   7.140 -0.7378 -1.1474 -1.4053
  157MOL0     H21652   9.806   6.340   6.837  0.0447 -0.0599 -2.2755
  157MOL0     H21653   9.642   6.236   6.705  1.3954  1.3118 -1.7199
  157MOL0     H21654   9.436   6.038   6.733  3.5809  0.9950  2.0903
  157MOL0     H21655   9.508   6.105   6.588 -0.8795  0.9280  2.0035
  157MOL0     H21656   9.319   5.983   6.523 -0.8880 -0.8131  0.2165
  157MOL0     H21657   9.382   5.830   6.606  2.1578 -0.5879 -0.3867
  157MOL0     H21658   9.587   5.872   6.455  0.8260  2.8050  0.2258
  157MOL0     H21659   9.462   5.787   6.390 -0.0398  0.1785 -1.0513
  157MOL0     H21660   9.539   6.064   6.344  1.6068 -0.8585 -1.3543
  157MOL0     H21661   9.369   6.034   6.292  0.6118 -0.0811  0.5512
  157MOL0     H21662   9.586   5.858   5.983 -1.9455  3.0766 -1.7668
  157MOL0     H21663   9.831   5.859   6.761 -1.7945  0.1040 -3.4039
  157MOL0     H21664   9.999   5.825   6.915  1.0603 -0.5844  1.3444
  157MOL0     H21665  10.118   5.949   6.867  0.2934 -3.6226 -0.0737
  157MOL0     H21666  10.032   5.939   7.027 -2.6623  0.3596 -0.1104
  158MOL0     O21667   9.522   7.784   7.915  0.4648  0.2880 -0.2371
  158MOL0     C21668   9.615   7.707   7.931  0.4550  0.4285 -0.2867
  158MOL0     O21669   9.667   7.666   8.048 -0.6637  0.1146 -0.4488
  158MOL0     C21670   9.619   7.740   8.153 -1.1997  0.6451  0.1181
  158MOL0     C21671   9.542   7.678   8.252 -0.0298 -0.6332 -0.6535
  158MOL0     C21672   9.493   7.743   8.367  0.0667 -0.3451  0.4139
  158MOL0     C21673   9.520   7.883   8.379 -0.3640 -0.9555  0.1910
  158MOL0     O21674   9.469   7.939   8.492  0.6405  0.1289 -0.4620
  158MOL0     C21675   9.468   8.081   8.515 -0.7191  0.1384 -0.0877
  158MOL0     C21676   9.333   8.150   8.499  0.1023 -0.3100  0.4117
  158MOL0     C21677   9.342   8.304   8.519 -0.7481 -0.6037  0.1147
  158MOL0     C21678   9.199   8.358   8.524  0.5474  0.4766 -0.6001
  158MOL0     C21679   9.188   8.495   8.444  0.0942  0.0327 -0.2411
  158MOL0     C21680   9.044   8.540   8.423 -0.6638  0.6893 -0.6860
  158MOL0     C21681   9.028   8.695   8.392 -0.0768  1.0800  0.1782
  158MOL0     C21682   9.112   8.741   8.268  0.2657  0.2614 -0.4105
  158MOL0     N21683   9.096   8.661   8.151  0.0541 -0.2719 -0.3302
  158MOL0     C21684   9.192   8.571   8.108  0.2834  0.0366  0.1872
  158MOL0     C21685   9.135   8.510   8.000 -0.1363 -0.7098  0.2510
  158MOL0     C21686   9.193   8.408   7.910 -0.0484  0.4406 -0.6267
  158MOL0     C21687   9.263   8.458   7.786 -0.6043  0.0786  0.4623
  158MOL0     C21688   9.383   8.554   7.819 -0.8105  0.2339 -0.4645
  158MOL0     C21689   9.442   8.588   7.679  0.0378 -0.1102 -0.4757
  158MOL0     O21690   9.544   8.686   7.700 -0.3255  0.1898  0.0186
  158MOL0     C21691   9.672   8.650   7.729  0.3110  1.0420  0.3045
  158MOL0     C21692   9.736   8.540   7.676 -0.5867  0.5910 -0.0015
  158MOL0     C21693   9.876   8.527   7.694 -0.5762  0.9994 -0.4466
  158MOL0     C21694   9.941   8.416   7.610 -0.3758  0.0913  0.2744
  158MOL0     C21695   9.952   8.620   7.772  0.1138  0.9213  0.1591
  158MOL0     C21696  10.093   8.604   7.803  0.1110  0.3000  0.6419
  158MOL0     O21697  10.161   8.719   7.844  0.2670 -0.3755 -0.2372
  158MOL0     C21698  10.278   8.687   7.908 -0.6772  0.3208  0.3886
  158MOL0     C21699  10.400   8.694   7.835 -0.1132 -0.0950 -0.6247
  158MOL0     C21700  10.523   8.672   7.907 -0.0618 -0.7406  0.6208
  158MOL0     C21701  10.520   8.635   8.042  0.3179  0.5750  0.2061
  158MOL0     O21702  10.625   8.626   8.115 -1.0153  0.8097  0.4445
  158MOL0     C21703  10.749   8.680   8.067  0.2132 -0.0892  0.5137
  158MOL0     C21704  10.854   8.694   8.183 -0.1420 -0.2764 -0.6082
  158MOL0     C21705  10.803   8.754   8.316  0.2716  0.6534 -0.1048
  158MOL0     C21706  10.711   8.879   8.309  0.4798  0.1929 -0.5177
  158MOL0     C21707  10.681   8.948   8.439  1.1030 -0.5926 -0.6825
  158MOL0     C21708  10.620   8.847   8.539  0.2646  0.4178 -0.9378
  158MOL0     C21709  10.549   8.930   8.661  0.2719 -0.2393 -0.2132
  158MOL0     C21710  10.460   9.045   8.613  0.6550  0.5599 -0.1298
  158MOL0    Cl21711  10.340   9.109   8.730 -0.2137 -0.4827  0.0525
  158MOL0     C21712  10.395   8.625   8.109 -0.7472 -0.3021 -0.6339
  158MOL0     C21713  10.274   8.651   8.037  0.3152 -0.4882  0.5405
  158MOL0     O21714  10.130   8.485   7.816 -0.6018  0.0044  0.4952
  158MOL0     C21715   9.883   8.728   7.828 -0.0362  0.5936  0.5532
  158MOL0     C21716   9.741   8.736   7.811 -0.1257 -0.2727  0.6503
  158MOL0     N21717   9.016   8.583   7.968  0.6110  0.5937 -0.5545
  158MOL0     N21718   8.998   8.677   8.057 -0.7699 -0.8487 -0.6171
  158MOL0     C21719   9.586   7.949   8.274  0.1780  1.0170  0.6399
  158MOL0     C21720   9.637   7.879   8.171  0.5428 -0.2740 -0.1193
  158MOL0     C21721   9.678   7.633   7.814  0.1583 -0.7360  1.0544
  158MOL0     C21722   9.804   7.584   7.831 -0.0446  0.0739 -0.4861
  158MOL0     C21723   9.885   7.537   7.726  0.0410  0.1836  0.5716
  158MOL0     C21724   9.822   7.532   7.592 -0.1979 -0.6514  0.6491
  158MOL0     O21725   9.876   7.465   7.487  0.6115  0.3210  0.0552
  158MOL0     C21726  10.018   7.481   7.461 -0.1650  0.3128  0.8037
  158MOL0     C21727  10.065   7.629   7.455 -0.2861  0.3292  0.6788
  158MOL0     C21728  10.000   7.697   7.329 -0.5931  0.6197  0.2172
  158MOL0     C21729   9.974   7.848   7.362  0.2147 -0.5744  0.4470
  158MOL0     C21730   9.947   7.915   7.237  0.4600  0.0990 -0.0637
  158MOL0     C21731   9.927   7.959   7.122  0.2811 -0.4560  0.0587
  158MOL0     C21732   9.686   7.562   7.579 -0.0009 -0.1035  0.4609
  158MOL0     C21733   9.614   7.614   7.684 -0.1750  0.3457 -0.4389
  158MOL0     C21734   9.467   7.670   7.641 -0.5838 -0.3262 -0.3085
  158MOL0     H21735   9.514   7.574   8.239 -0.9434 -0.8310  2.1985
  158MOL0     H21736   9.445   7.687   8.447  0.0191  0.4003  0.9231
  158MOL0     H21737   9.540   8.134   8.452 -1.9130  2.1183  0.1045
  158MOL0     H21738   9.490   8.089   8.622 -2.8680 -0.9378  0.4895
  158MOL0     H21739   9.304   8.142   8.393  2.0461 -0.8218 -0.1241
  158MOL0     H21740   9.255   8.103   8.560 -1.5769 -1.3930 -2.3526
  158MOL0     H21741   9.384   8.323   8.618 -2.0610  0.8292  0.4420
  158MOL0     H21742   9.413   8.349   8.449  3.0098  1.7766  4.8023
  158MOL0     H21743   9.136   8.282   8.476  1.7545 -1.5505  0.9066
  158MOL0     H21744   9.176   8.371   8.630 -1.3732  1.0454 -1.0403
  158MOL0     H21745   9.233   8.476   8.346 -2.3480 -2.1531 -1.0510
  158MOL0     H21746   9.258   8.566   8.490  2.5718  0.9525 -4.7640
  158MOL0     H21747   9.008   8.477   8.341 -4.6332  1.2788  0.4024
  158MOL0     H21748   8.999   8.516   8.520  2.1771  0.2071  0.6054
  158MOL0     H21749   9.063   8.740   8.485  1.1851 -1.4805  1.0367
  158MOL0     H21750   8.922   8.708   8.370 -1.0361 -2.8063  1.7129
  158MOL0     H21751   9.080   8.844   8.246 -4.3759 -0.8325  0.1715
  158MOL0     H21752   9.218   8.744   8.292  0.2745  3.0415 -0.4573
  158MOL0     H21753   9.287   8.542   8.151  1.1843  3.9089  1.1916
  158MOL0     H21754   9.120   8.328   7.895  1.1595 -1.2601  1.8111
  158MOL0     H21755   9.275   8.360   7.963  0.2310  2.7028  1.1566
  158MOL0     H21756   9.308   8.374   7.732 -1.8358  0.2269 -0.8309
  158MOL0     H21757   9.193   8.511   7.722 -0.3189  1.2167  1.0715
  158MOL0     H21758   9.351   8.644   7.872 -2.9360  0.5065 -2.0681
  158MOL0     H21759   9.454   8.503   7.886 -1.0658 -0.3562 -0.6320
  158MOL0     H21760   9.473   8.496   7.629  0.6054  0.6519 -1.5550
  158MOL0     H21761   9.357   8.627   7.623 -0.1970 -0.0695 -0.0969
  158MOL0     H21762   9.679   8.476   7.610 -2.4146  1.6136  0.5068
  158MOL0     H21763   9.934   8.323   7.668  0.5419  0.5866  1.2184
  158MOL0     H21764  10.046   8.433   7.587 -0.9573  1.2228 -1.7337
  158MOL0     H21765   9.882   8.401   7.519 -0.9743 -1.1026  0.8353
  158MOL0     H21766  10.396   8.709   7.727 -0.6354  1.0850 -0.4586
  158MOL0     H21767  10.619   8.686   7.859 -1.8776  4.0404 -2.3593
  158MOL0     H21768  10.790   8.624   7.983 -2.0806 -0.5086 -0.3966
  158MOL0     H21769  10.726   8.785   8.047  1.8774  1.1522  4.1559
  158MOL0     H21770  10.908   8.599   8.179  0.0891 -0.1164 -1.5132
  158MOL0     H21771  10.942   8.756   8.161  1.2056 -1.9683 -0.2527
  158MOL0     H21772  10.885   8.778   8.384  2.1821 -1.2406 -1.6155
  158MOL0     H21773  10.746   8.670   8.357  0.5149  1.6042  2.3316
  158MOL0     H21774  10.620   8.843   8.260 -0.7865 -1.8179  2.9143
  158MOL0     H21775  10.759   8.942   8.234 -2.3445 -1.3313 -3.8910
  158MOL0     H21776  10.762   8.997   8.495 -0.6687  0.5354  1.0006
  158MOL0     H21777  10.612   9.027   8.407  0.7733 -0.5265  0.1626
  158MOL0     H21778  10.693   8.770   8.566 -0.9234 -0.6563 -0.6884
  158MOL0     H21779  10.537   8.789   8.496 -1.5686 -0.1242  2.8454
  158MOL0     H21780  10.614   8.967   8.741 -1.1990  1.7911  0.1274
  158MOL0     H21781  10.474   8.863   8.706  0.8936  1.2934  3.4782
  158MOL0     H21782  10.398   9.013   8.529 -0.6407 -0.3721  1.1374
  158MOL0     H21783  10.525   9.125   8.574 -0.3293 -0.1079 -3.4955
  158MOL0     H21784  10.398   8.612   8.216  0.6487 -1.7886 -0.8191
  158MOL0     H21785  10.180   8.651   8.091  0.5980 -2.5367  1.1196
  158MOL0     H21786   9.936   8.809   7.876  3.5537 -1.1374 -0.1694
  158MOL0     H21787   9.683   8.819   7.849  1.6961  1.1722  0.4530
  158MOL0     H21788   9.607   8.055   8.276 -1.3056  1.3256  1.1567
  158MOL0     H21789   9.679   7.922   8.080 -1.6436 -0.8436 -1.4609
  158MOL0     H21790   9.844   7.596   7.931 -0.7685  0.0255 -0.1825
  158MOL0     H21791   9.988   7.505   7.737  1.2501  3.6475  0.5549
  158MOL0     H21792  10.070   7.427   7.541 -3.2631  1.5107  3.9208
  158MOL0     H21793  10.022   7.431   7.364  2.3786  1.4839  0.2472
  158MOL0     H21794  10.173   7.631   7.440 -0.4068  1.0556 -0.2014
  158MOL0     H21795  10.047   7.686   7.547  0.5351  2.4519 -0.3959
  158MOL0     H21796  10.071   7.680   7.247  1.1987  1.5873  1.5005
  158MOL0     H21797   9.902   7.660   7.295 -1.0213  1.1529  0.8463
  158MOL0     H21798  10.058   7.898   7.411 -0.9534  1.7506  0.2250
  158MOL0     H21799   9.884   7.860   7.423 -0.3263 -1.0148 -0.2471
  158MOL0     H21800   9.905   8.007   7.029 -3.1967 -0.4821  0.7160
  158MOL0     H21801   9.637   7.538   7.485 -2.0203  4.8809 -0.0205
  158MOL0     H21802   9.387   7.630   7.704 -1.9564 -3.8647 -3.8898
  158MOL0     H21803   9.459   7.778   7.625 -0.2425 -0.3939 -0.9989
  158MOL0     H21804   9.444   7.630   7.542  0.5202 -1.3017 -0.1853
  159MOL0     O21805   7.518  11.166   4.967  0.6354 -0.0549  0.6456
  159MOL0     C21806   7.451  11.187   4.864  0.9014 -0.5093  0.7397
  159MOL0     O21807   7.316  11.240   4.868 -0.5039  1.2990 -0.7200
  159MOL0     C21808   7.262  11.261   4.986 -0.0997 -0.0077 -0.6895
  159MOL0     C21809   7.251  11.158   5.076 -0.1563  0.0070  0.0904
  159MOL0     C21810   7.183  11.186   5.195 -0.0172  0.4521 -0.1710
  159MOL0     C21811   7.137  11.320   5.227  0.3260  0.5508  0.5660
  159MOL0     O21812   7.067  11.338   5.341  0.7399  1.1975  0.2690
  159MOL0     C21813   6.995  11.235   5.398 -0.1708  0.3473 -0.8667
  159MOL0     C21814   6.924  11.266   5.531  0.3389 -0.5397  0.0125
  159MOL0     C21815   6.836  11.141   5.571 -0.4542 -0.1061 -0.3771
  159MOL0     C21816   6.686  11.173   5.588 -0.7920  0.0225  0.8843
  159MOL0     C21817   6.683  11.273   5.698 -0.3654  0.3803 -0.4333
  159MOL0     C21818   6.539  11.297   5.744  0.4559 -0.1747 -0.1186
  159MOL0     C21819   6.516  11.424   5.827 -0.0315 -0.4381 -0.1429
  159MOL0     C21820   6.592  11.410   5.967 -0.1365 -1.2559  0.3794
  159MOL0     N21821   6.589  11.518   6.067 -0.1237 -0.2503  0.5942
  159MOL0     C21822   6.483  11.591   6.111  0.5671  0.5516 -0.2657
  159MOL0     C21823   6.525  11.665   6.207 -0.3914 -0.8994  0.5334
  159MOL0     C21824   6.430  11.755   6.286 -0.3636  0.3521 -0.5648
  159MOL0     C21825   6.484  11.823   6.420  0.7231  0.1606 -0.4054
  159MOL0     C21826   6.612  11.905   6.403 -0.8922  0.2682 -0.0654
  159MOL0     C21827   6.629  12.015   6.519  0.4014 -0.0920 -0.6231
  159MOL0     O21828   6.767  12.048   6.565  0.1695 -0.1946  0.0617
  159MOL0     C21829   6.773  12.164   6.643 -0.5218  0.0842  0.7825
  159MOL0     C21830   6.662  12.246   6.676 -0.7483  0.9389 -0.8506
  159MOL0     C21831   6.677  12.371   6.740  0.0677  0.4837  0.3685
  159MOL0     C21832   6.545  12.448   6.752  0.7476 -0.3210 -0.6517
  159MOL0     C21833   6.805  12.414   6.778 -0.1003  0.1196 -0.0939
  159MOL0     C21834   6.833  12.557   6.838  0.6599  0.1491 -0.1635
  159MOL0     O21835   6.961  12.596   6.856 -0.8456 -0.4401  0.0597
  159MOL0     C21836   6.990  12.725   6.896 -0.5337  0.2077  0.8225
  159MOL0     C21837   6.921  12.843   6.860 -0.3125 -0.9178  0.1271
  159MOL0     C21838   6.966  12.967   6.901 -0.7965 -0.0321 -1.0880
  159MOL0     C21839   7.080  12.988   6.988  0.7573 -0.0822  1.0428
  159MOL0     O21840   7.117  13.118   7.026 -0.0831 -0.1327  0.3941
  159MOL0     C21841   7.239  13.135   7.100  0.4524 -0.8670  0.3466
  159MOL0     C21842   7.308  13.264   7.077 -0.0530  0.1498 -0.0902
  159MOL0     C21843   7.443  13.278   7.152  0.3848 -0.8579  0.8628
  159MOL0     C21844   7.434  13.393   7.251  1.1586 -0.1399 -0.9631
  159MOL0     C21845   7.571  13.438   7.304 -0.1359  0.2060 -0.9417
  159MOL0     C21846   7.553  13.532   7.424 -0.6016 -0.5727 -0.3370
  159MOL0     C21847   7.681  13.609   7.476 -1.1936 -0.5018 -0.6890
  159MOL0     C21848   7.664  13.706   7.589  0.4026  0.4611  0.1820
  159MOL0    Cl21849   7.563  13.616   7.712  0.1899  0.5069  0.0048
  159MOL0     C21850   7.143  12.866   7.023 -0.2333 -0.0306 -0.4301
  159MOL0     C21851   7.098  12.744   6.977  0.4449  0.5269  0.5488
  159MOL0     O21852   6.735  12.621   6.877 -0.1002 -0.7278  0.2577
  159MOL0     C21853   6.920  12.336   6.740 -0.2546 -0.3193 -0.3663
  159MOL0     C21854   6.897  12.214   6.681 -0.0437  0.1503  0.0601
  159MOL0     N21855   6.662  11.652   6.223 -0.1458  0.7532 -0.0143
  159MOL0     N21856   6.695  11.564   6.138 -0.2048 -0.2597 -0.4862
  159MOL0     C21857   7.159  11.427   5.138  0.0816  0.4780 -0.0524
  159MOL0     C21858   7.218  11.394   5.020 -0.4098  0.1903 -0.0505
  159MOL0     C21859   7.512  11.160   4.731 -0.3623 -1.0240 -0.0765
  159MOL0     C21860   7.449  11.215   4.613  0.4397 -0.2683 -0.3287
  159MOL0     C21861   7.487  11.193   4.479 -0.4353 -0.5224  0.3620
  159MOL0     C21862   7.595  11.108   4.460  0.6585  0.2553 -0.1287
  159MOL0     O21863   7.637  11.071   4.333 -0.5436 -0.9127 -0.1656
  159MOL0     C21864   7.756  11.134   4.292 -0.7768  0.3605  0.0315
  159MOL0     C21865   7.771  11.104   4.147  0.1249  0.3611  0.2281
  159MOL0     C21866   7.697  11.210   4.056  0.0874 -0.3734  0.7387
  159MOL0     C21867   7.556  11.175   4.038 -0.6303  0.1306  0.1026
  159MOL0     C21868   7.513  11.051   3.961  0.1101  0.2485 -0.2060
  159MOL0     C21869   7.451  10.957   3.905 -0.4031  0.0031 -0.1746
  159MOL0     C21870   7.666  11.059   4.571 -0.3219  0.8939 -0.4053
  159MOL0     C21871   7.624  11.068   4.706 -0.2678  0.8188 -0.6346
  159MOL0     C21872   7.690  10.991   4.815  0.3664 -0.4898  0.0069
  159MOL0     H21873   7.285  11.058   5.054 -0.7680 -0.0233 -0.7579
  159MOL0     H21874   7.176  11.109   5.271 -1.7950 -0.0790 -0.8276
  159MOL0     H21875   7.065  11.161   5.438  1.1785  0.7906 -2.3095
  159MOL0     H21876   6.920  11.189   5.333  0.8366 -0.5971 -1.3957
  159MOL0     H21877   6.989  11.294   5.614 -0.2860  0.3093  0.2313
  159MOL0     H21878   6.867  11.354   5.498 -0.6489 -1.7145 -1.5599
  159MOL0     H21879   6.840  11.062   5.495  1.9868 -0.0035 -0.4229
  159MOL0     H21880   6.884  11.089   5.655 -2.1343 -0.6920  0.2579
  159MOL0     H21881   6.644  11.218   5.497  1.2963  0.0410 -0.1257
  159MOL0     H21882   6.637  11.078   5.608 -0.6483 -0.6709 -1.7393
  159MOL0     H21883   6.718  11.375   5.682  0.0805  0.9298  3.1291
  159MOL0     H21884   6.741  11.241   5.785 -0.5081  0.9221 -0.1299
  159MOL0     H21885   6.490  11.310   5.648  0.9786  0.4524 -0.3081
  159MOL0     H21886   6.495  11.206   5.786  3.3965 -2.0287 -0.7268
  159MOL0     H21887   6.408  11.441   5.839  0.1397  0.7773 -0.1377
  159MOL0     H21888   6.540  11.516   5.774  0.4551 -1.6207 -2.0567
  159MOL0     H21889   6.537  11.333   6.021 -3.3372  0.6137  0.0645
  159MOL0     H21890   6.695  11.376   5.951 -0.8259 -3.1060 -0.4764
  159MOL0     H21891   6.377  11.593   6.089  0.7221  0.3144 -1.0464
  159MOL0     H21892   6.342  11.695   6.312 -2.3565  1.5601 -3.8622
  159MOL0     H21893   6.382  11.839   6.235  2.0094  1.3103 -1.3381
  159MOL0     H21894   6.414  11.903   6.448  0.0730 -1.5063  3.3590
  159MOL0     H21895   6.499  11.742   6.492 -0.1454 -0.1192 -0.5274
  159MOL0     H21896   6.698  11.838   6.411  0.4081  2.0011  1.7341
  159MOL0     H21897   6.614  11.955   6.306  1.8962  0.7034  0.1224
  159MOL0     H21898   6.585  12.104   6.474  0.3852  0.3152  0.1741
  159MOL0     H21899   6.572  11.991   6.609  2.1951 -0.0234  0.5804
  159MOL0     H21900   6.565  12.216   6.638 -0.3216  0.0550 -1.2988
  159MOL0     H21901   6.547  12.546   6.703  0.1817 -0.6138 -1.2743
  159MOL0     H21902   6.524  12.466   6.858 -2.9867 -2.4466 -0.8587
  159MOL0     H21903   6.456  12.394   6.717  0.6178 -3.0421  3.2631
  159MOL0     H21904   6.832  12.835   6.799 -0.2945 -0.1904 -0.0031
  159MOL0     H21905   6.919  13.059   6.867 -0.1140  0.1623 -1.5165
  159MOL0     H21906   7.210  13.133   7.206  2.7046 -1.2001  1.0101
  159MOL0     H21907   7.310  13.054   7.082 -0.4976 -1.1166 -2.8266
  159MOL0     H21908   7.330  13.278   6.971  2.1662 -2.4046 -0.0427
  159MOL0     H21909   7.240  13.348   7.100 -0.1658  1.0033 -3.1554
  159MOL0     H21910   7.533  13.282   7.091 -0.3196 -2.2659 -0.3467
  159MOL0     H21911   7.451  13.180   7.200 -4.1917 -1.8344  0.1552
  159MOL0     H21912   7.372  13.348   7.328  0.2814  1.0463 -0.9534
  159MOL0     H21913   7.384  13.481   7.210 -0.5855  0.5304  2.2668
  159MOL0     H21914   7.623  13.350   7.343  0.4455 -0.1437 -2.4152
  159MOL0     H21915   7.634  13.483   7.227  3.6483 -1.1519  1.0759
  159MOL0     H21916   7.497  13.482   7.504 -0.4797 -1.8751 -1.0391
  159MOL0     H21917   7.491  13.617   7.392 -1.6910 -0.6238  1.4418
  159MOL0     H21918   7.722  13.675   7.399 -3.0778  1.7455  0.1046
  159MOL0     H21919   7.762  13.539   7.499 -1.7216 -1.1513 -0.7694
  159MOL0     H21920   7.606  13.795   7.562  1.3605  0.5667 -1.7464
  159MOL0     H21921   7.751  13.745   7.643 -1.0236  1.8418  1.5836
  159MOL0     H21922   7.217  12.876   7.101  0.6280  2.2207 -1.4432
  159MOL0     H21923   7.137  12.647   7.006  0.9216  0.6067  0.1763
  159MOL0     H21924   7.021  12.373   6.757 -0.9313  1.6935 -0.4335
  159MOL0     H21925   6.979  12.152   6.647 -1.3892 -1.2608 -0.7532
  159MOL0     H21926   7.129  11.528   5.165  0.4766 -0.1815  3.4278
  159MOL0     H21927   7.228  11.480   4.954 -0.6214  1.5105  1.5731
  159MOL0     H21928   7.358  11.274   4.624 -0.5053 -0.9301 -3.6109
  159MOL0     H21929   7.423  11.229   4.399  0.1484 -2.3854 -1.0149
  159MOL0     H21930   7.750  11.241   4.310  0.1582  0.3134  0.6997
  159MOL0     H21931   7.837  11.083   4.346 -1.4094 -2.5373 -1.5119
  159MOL0     H21932   7.735  11.003   4.126  3.1829 -0.7181 -0.2945
  159MOL0     H21933   7.874  11.101   4.111  0.1079  1.9857 -0.0361
  159MOL0     H21934   7.726  11.305   4.102  1.8829 -1.0026  0.9908
  159MOL0     H21935   7.753  11.193   3.964  0.8234 -1.4906  1.3683
  159MOL0     H21936   7.513  11.250   3.970  0.0324  0.5585  0.1462
  159MOL0     H21937   7.503  11.178   4.134 -0.1842 -1.5475  0.4331
  159MOL0     H21938   7.384  10.897   3.847 -0.5167  3.3043 -3.9521
  159MOL0     H21939   7.748  10.991   4.553  1.2221  1.0160  4.6665
  159MOL0     H21940   7.755  11.062   4.866 -1.3410  0.4298  0.9848
  159MOL0     H21941   7.614  10.959   4.887  0.7826 -0.6613  0.3755
  159MOL0     H21942   7.746  10.906   4.774  1.8602 -0.2549  1.4619
  160MOL0     O21943   6.047  11.429   4.565 -0.2234 -0.2472  0.6483
  160MOL0     C21944   5.979  11.449   4.667 -0.3983 -0.3874 -0.0716
  160MOL0     O21945   6.000  11.384   4.785  0.5015  1.3106 -0.2446
  160MOL0     C21946   6.087  11.280   4.768 -0.0879  0.5316 -0.7970
  160MOL0     C21947   6.204  11.266   4.846 -0.1285  0.0564 -0.9791
  160MOL0     C21948   6.294  11.156   4.832 -0.1882 -1.0381 -1.0897
  160MOL0     C21949   6.263  11.052   4.742  0.0833  0.3452 -0.2540
  160MOL0     O21950   6.336  10.942   4.727 -0.0312 -0.3466  0.1457
  160MOL0     C21951   6.296  10.821   4.667 -0.0704 -0.3158 -0.7170
  160MOL0     C21952   6.423  10.749   4.614  0.6382 -0.4032 -0.2552
  160MOL0     C21953   6.511  10.705   4.724  0.0393 -0.3955 -0.0559
  160MOL0     C21954   6.638  10.630   4.671  0.1831 -0.4957  0.3187
  160MOL0     C21955   6.722  10.605   4.794 -1.0506  0.7827  1.0209
  160MOL0     C21956   6.851  10.531   4.763  0.4919  0.7935  0.6719
  160MOL0     C21957   6.932  10.510   4.892  0.1160  0.3695  0.0362
  160MOL0     C21958   7.059  10.422   4.870  0.2224 -0.2480  0.8254
  160MOL0     N21959   7.159  10.430   4.978  1.0416  0.0420 -0.4461
  160MOL0     C21960   7.128  10.390   5.106  0.0686 -0.0025  0.4307
  160MOL0     C21961   7.244  10.393   5.182  1.1025 -0.4780 -0.6105
  160MOL0     C21962   7.268  10.387   5.333  0.9069 -0.4542  0.9493
  160MOL0     C21963   7.415  10.404   5.364 -0.1416 -0.1707 -0.1002
  160MOL0     C21964   7.445  10.388   5.510 -0.3494  1.2050  0.1746
  160MOL0     C21965   7.351  10.467   5.597 -0.1982 -0.5976 -0.6277
  160MOL0     O21966   7.217  10.408   5.635  0.1761 -0.0855 -0.5176
  160MOL0     C21967   7.175  10.430   5.758 -0.5547  0.6105 -0.6073
  160MOL0     C21968   7.088  10.529   5.784 -1.0718 -0.8104  0.5206
  160MOL0     C21969   7.050  10.581   5.909  0.5076  1.0754 -0.7996
  160MOL0     C21970   6.952  10.706   5.904 -0.2308 -0.1560 -0.4864
  160MOL0     C21971   7.118  10.515   6.017 -0.3777 -0.2840 -0.4765
  160MOL0     C21972   7.078  10.547   6.156 -0.5101  0.8402 -0.6736
  160MOL0     O21973   7.124  10.463   6.262 -0.0639  0.3092  0.1678
  160MOL0     C21974   7.106  10.485   6.394  0.1694 -0.4878  0.6802
  160MOL0     C21975   6.999  10.556   6.465 -0.7238 -0.2095  0.3502
  160MOL0     C21976   7.007  10.568   6.601  0.0683  0.1003 -0.0100
  160MOL0     C21977   7.105  10.491   6.685  0.1281 -0.3841 -0.8684
  160MOL0     O21978   7.092  10.499   6.817 -0.4307 -0.1015  0.8212
  160MOL0     C21979   7.185  10.423   6.891  0.8338 -0.3391 -0.7650
  160MOL0     C21980   7.145  10.417   7.047 -0.0943 -0.0943 -0.1970
  160MOL0     C21981   7.126  10.554   7.110  0.0534 -0.7789 -0.0749
  160MOL0     C21982   7.177  10.562   7.246 -0.7380  0.2835  0.8131
  160MOL0     C21983   7.248  10.700   7.269 -0.6841  0.0246  0.3735
  160MOL0     C21984   7.157  10.823   7.241  0.1006 -0.5223 -0.0929
  160MOL0     C21985   7.221  10.958   7.264 -0.6636 -0.2564 -0.0687
  160MOL0     C21986   7.115  11.058   7.252 -0.5070  0.1512 -0.1523
  160MOL0    Cl21987   7.185  11.214   7.308 -0.1560 -0.5779  0.3766
  160MOL0     C21988   7.202  10.420   6.615  0.2310  0.2659  0.7000
  160MOL0     C21989   7.203  10.420   6.471  0.1395  0.7350 -0.0095
  160MOL0     O21990   6.998  10.635   6.173  0.3005 -0.2495 -0.1249
  160MOL0     C21991   7.203  10.402   5.990 -0.3566 -0.1070  0.3587
  160MOL0     C21992   7.233  10.353   5.865  0.2201 -0.4550 -0.4651
  160MOL0     N21993   7.339  10.443   5.090  0.9010 -0.8718  0.5659
  160MOL0     N21994   7.293  10.454   4.973  0.3653  1.5353 -0.5982
  160MOL0     C21995   6.139  11.059   4.665  0.0273  0.2518  0.5401
  160MOL0     C21996   6.048  11.174   4.684 -0.7322 -0.2137 -0.1926
  160MOL0     C21997   5.880  11.558   4.647  0.0997  0.4545 -0.1001
  160MOL0     C21998   5.858  11.617   4.520 -0.6536  0.4061  0.1286
  160MOL0     C21999   5.746  11.691   4.501  0.3386 -0.2277  0.2292
  160MOL0     C22000   5.654  11.722   4.599  0.5505 -1.2929  0.1361
  160MOL0     O22001   5.540  11.801   4.587  0.0247  0.1449  0.3353
  160MOL0     C22002   5.487  11.832   4.461  0.3806  0.2261 -0.0748
  160MOL0     C22003   5.401  11.722   4.393 -0.5185  0.0219  0.2796
  160MOL0     C22004   5.419  11.731   4.242 -0.0626  0.7199  0.6334
  160MOL0     C22005   5.333  11.622   4.158 -0.3965 -0.0273  0.1432
  160MOL0     C22006   5.371  11.487   4.194 -0.3882 -0.1240 -0.0379
  160MOL0     C22007   5.402  11.379   4.230 -0.6554  1.1138 -0.0978
  160MOL0     C22008   5.685  11.677   4.723  0.4251  0.4269  0.0656
  160MOL0     C22009   5.786  11.579   4.751 -0.1513 -0.3421 -0.3989
  160MOL0     C22010   5.783  11.523   4.890 -0.6021 -0.6837 -0.6955
  160MOL0     H22011   6.233  11.348   4.911 -1.6854 -0.8019  0.9066
  160MOL0     H22012   6.390  11.157   4.882 -0.9585  1.0543  0.4904
  160MOL0     H22013   6.225  10.836   4.585 -0.2079  2.9743 -0.1094
  160MOL0     H22014   6.250  10.759   4.744  0.3697 -0.8047 -0.8382
  160MOL0     H22015   6.390  10.656   4.566 -2.2414  0.0394  0.6256
  160MOL0     H22016   6.484  10.810   4.547  2.9732 -2.9342 -0.5918
  160MOL0     H22017   6.534  10.790   4.789 -2.7349  0.7536 -0.4213
  160MOL0     H22018   6.460  10.633   4.790  0.8616  0.1700  1.2412
  160MOL0     H22019   6.609  10.536   4.623  1.2690  0.1675 -1.7355
  160MOL0     H22020   6.689  10.687   4.593 -1.0610  0.6106  0.2776
  160MOL0     H22021   6.665  10.537   4.858  1.9930 -1.0510  1.9848
  160MOL0     H22022   6.744  10.696   4.850  1.1723 -0.0177  1.5299
  160MOL0     H22023   6.816  10.434   4.727  0.6107  0.4232  1.5553
  160MOL0     H22024   6.893  10.587   4.678  1.4224 -0.6900  0.1230
  160MOL0     H22025   6.876  10.448   4.963  0.1131 -0.0622 -0.3400
  160MOL0     H22026   6.963  10.603   4.939 -0.9277 -0.9760  3.7891
  160MOL0     H22027   7.023  10.323   4.841 -3.9048  1.1355  0.4827
  160MOL0     H22028   7.112  10.468   4.786  0.3117  0.9711  1.5238
  160MOL0     H22029   7.027  10.360   5.131 -0.7377  1.0424 -1.4152
  160MOL0     H22030   7.233  10.289   5.366  0.2373 -0.3078  0.6955
  160MOL0     H22031   7.207  10.463   5.383  1.2827  1.1378 -0.8672
  160MOL0     H22032   7.476  10.329   5.314  1.4085  0.6637  0.4473
  160MOL0     H22033   7.452  10.500   5.325  1.4031 -0.3338  0.8594
  160MOL0     H22034   7.456  10.285   5.543  1.6199  0.8727 -1.3338
  160MOL0     H22035   7.540  10.439   5.532  0.9013 -1.2251  0.6744
  160MOL0     H22036   7.403  10.480   5.693 -0.6879 -5.5045  0.5547
  160MOL0     H22037   7.343  10.562   5.543  2.8526 -0.5469 -1.1655
  160MOL0     H22038   7.057  10.570   5.689 -0.4583 -0.9678  0.2503
  160MOL0     H22039   7.008  10.788   5.949  1.8582 -2.6236  1.8147
  160MOL0     H22040   6.865  10.690   5.969 -1.6821  1.0003 -2.0851
  160MOL0     H22041   6.914  10.720   5.803 -1.0373 -1.4917 -0.3964
  160MOL0     H22042   6.920  10.593   6.400  0.7715  0.3002 -1.2485
  160MOL0     H22043   6.921  10.609   6.652  1.3533  1.3576  1.2385
  160MOL0     H22044   7.199  10.320   6.858 -0.0197  0.1267 -2.7261
  160MOL0     H22045   7.282  10.472   6.892  0.3219  0.7509  1.3862
  160MOL0     H22046   7.052  10.361   7.066 -0.6214  0.7139 -0.3328
  160MOL0     H22047   7.228  10.361   7.091  1.9142  1.8164 -1.4132
  160MOL0     H22048   7.027  10.598   7.103 -0.2523 -1.2228  1.1656
  160MOL0     H22049   7.186  10.613   7.040 -1.8258 -1.3991 -2.3181
  160MOL0     H22050   7.266  10.498   7.258  0.5613  2.2429  2.3939
  160MOL0     H22051   7.104  10.545   7.325  1.7146  1.2976  3.4986
  160MOL0     H22052   7.277  10.697   7.374 -0.7726 -1.4243  0.3829
  160MOL0     H22053   7.345  10.689   7.220 -0.0877 -1.2786  1.7772
  160MOL0     H22054   7.071  10.823   7.310 -1.7046  3.8723 -1.9699
  160MOL0     H22055   7.119  10.827   7.139  0.7756  1.5227 -0.2920
  160MOL0     H22056   7.301  10.974   7.192  1.3407  0.3790  2.1513
  160MOL0     H22057   7.266  10.956   7.364  1.7737 -2.5133 -1.0951
  160MOL0     H22058   7.042  11.032   7.329  0.9700 -0.8274  0.9711
  160MOL0     H22059   7.064  11.046   7.155  0.3987 -1.8521 -0.4493
  160MOL0     H22060   7.271  10.361   6.675  1.8176  1.6196  0.3031
  160MOL0     H22061   7.272  10.361   6.412  1.1031  1.0855  0.7404
  160MOL0     H22062   7.243  10.356   6.080  2.9252  2.3576  0.3167
  160MOL0     H22063   7.295  10.265   5.855  1.2016 -0.0583  1.5558
  160MOL0     H22064   6.115  10.990   4.585 -2.2519 -1.6979  2.7667
  160MOL0     H22065   5.952  11.197   4.641 -0.6170  1.6575  0.4585
  160MOL0     H22066   5.910  11.584   4.431  0.6808  3.1695 -0.2247
  160MOL0     H22067   5.739  11.719   4.396 -0.1646 -1.8984 -0.2130
  160MOL0     H22068   5.422  11.920   4.460 -1.8389 -1.1898 -4.1843
  160MOL0     H22069   5.576  11.853   4.401  0.8184 -1.4543 -0.0656
  160MOL0     H22070   5.298  11.750   4.417  0.6736  3.8400  1.6755
  160MOL0     H22071   5.431  11.623   4.431  1.7820 -0.4093 -2.3594
  160MOL0     H22072   5.388  11.832   4.213 -2.5068 -0.2667 -0.4409
  160MOL0     H22073   5.522  11.711   4.210 -1.5017 -3.1283 -2.4117
  160MOL0     H22074   5.343  11.641   4.050 -1.9481 -2.7804 -0.6042
  160MOL0     H22075   5.228  11.619   4.190 -0.1027  0.4654  1.1647
  160MOL0     H22076   5.435  11.279   4.247 -0.4039  0.6559 -2.7611
  160MOL0     H22077   5.610  11.702   4.798 -0.4378  1.6171 -1.1516
  160MOL0     H22078   5.714  11.566   4.964  0.0149 -1.0377  0.0968
  160MOL0     H22079   5.765  11.416   4.880  2.1906 -1.2059 -0.8342
  160MOL0     H22080   5.883  11.526   4.933 -1.9391 -0.8249  2.7601
  161MOL0     O22081   8.692   2.766   2.978 -0.7833  0.2007 -0.0789
  161MOL0     C22082   8.657   2.672   3.054 -0.3004 -0.0203 -0.4862
  161MOL0     O22083   8.727   2.562   3.100  0.4484  0.0017  0.1400
  161MOL0     C22084   8.848   2.519   3.054 -0.3745  0.3731  0.5875
  161MOL0     C22085   8.935   2.577   2.965  0.6760 -1.0714 -0.2597
  161MOL0     C22086   9.060   2.512   2.948  0.4569 -0.0761  0.4629
  161MOL0     C22087   9.086   2.388   3.001  0.1366 -0.5150  0.2809
  161MOL0     O22088   9.203   2.319   2.985  0.3134 -0.0951  0.0961
  161MOL0     C22089   9.324   2.392   2.994  0.3867 -0.3405 -0.1911
  161MOL0     C22090   9.397   2.341   3.124  0.1255 -0.2924  0.1385
  161MOL0     C22091   9.521   2.424   3.149 -0.9138  0.2133 -0.5519
  161MOL0     C22092   9.611   2.384   3.262 -0.5936  0.3237 -0.0899
  161MOL0     C22093   9.681   2.253   3.231  0.6264  0.1753 -0.0025
  161MOL0     C22094   9.809   2.234   3.301  0.4342 -0.7202  0.5427
  161MOL0     C22095   9.923   2.329   3.257  1.1527  0.6856 -0.3474
  161MOL0     C22096  10.061   2.272   3.285  0.0045  1.7519 -0.3794
  161MOL0     N22097  10.093   2.129   3.247 -0.4997  0.0128  0.0976
  161MOL0     C22098  10.076   2.021   3.330  0.2123  0.0826 -0.7599
  161MOL0     C22099  10.145   1.918   3.273  0.1894  0.0591  0.3742
  161MOL0     C22100  10.154   1.781   3.330  0.4774 -0.3318 -0.1736
  161MOL0     C22101  10.045   1.690   3.280  0.0770  0.8216 -0.7654
  161MOL0     C22102  10.057   1.655   3.129  0.2157  0.9207 -0.5489
  161MOL0     C22103   9.951   1.564   3.080  0.7966 -0.3091 -0.6191
  161MOL0     O22104   9.822   1.613   3.112 -0.4949 -0.6509 -0.1696
  161MOL0     C22105   9.784   1.713   3.021  0.0361  0.0160 -0.0012
  161MOL0     C22106   9.712   1.675   2.909  0.4933 -0.0805 -0.3830
  161MOL0     C22107   9.662   1.765   2.822 -0.5149 -0.1400  0.2303
  161MOL0     C22108   9.605   1.706   2.693 -0.1657 -1.4133 -0.4280
  161MOL0     C22109   9.678   1.906   2.848 -0.8460  1.3084  0.3806
  161MOL0     C22110   9.611   2.014   2.767 -0.6144 -0.1276 -0.3839
  161MOL0     O22111   9.672   2.135   2.778  0.1709 -0.3511 -0.3196
  161MOL0     C22112   9.637   2.235   2.691 -0.1263 -0.9674 -0.5619
  161MOL0     C22113   9.512   2.294   2.685  0.2716 -0.1477 -0.0041
  161MOL0     C22114   9.498   2.414   2.612 -0.0131 -0.0564 -0.6663
  161MOL0     C22115   9.604   2.455   2.531 -0.7038 -0.6997 -0.8932
  161MOL0     O22116   9.585   2.575   2.468 -0.3394  0.3750  0.0454
  161MOL0     C22117   9.639   2.589   2.336  0.8331  1.1774 -0.4507
  161MOL0     C22118   9.544   2.679   2.265  0.1785 -1.1856 -0.2055
  161MOL0     C22119   9.586   2.745   2.130 -0.1888  0.1531 -0.4721
  161MOL0     C22120   9.657   2.647   2.054 -0.1568  0.1499 -0.5363
  161MOL0     C22121   9.654   2.693   1.909 -1.2862 -0.0028 -0.1189
  161MOL0     C22122   9.714   2.585   1.823  0.3643 -0.5927  0.0454
  161MOL0     C22123   9.724   2.629   1.665 -0.5907  0.3325  0.5816
  161MOL0     C22124   9.686   2.525   1.553 -0.1269 -0.6682 -0.1467
  161MOL0    Cl22125   9.824   2.458   1.479 -0.6814 -0.0970  0.2399
  161MOL0     C22126   9.721   2.386   2.522  0.0858  0.8086 -0.0789
  161MOL0     C22127   9.736   2.271   2.596 -0.0488 -0.4018 -0.3668
  161MOL0     O22128   9.519   1.992   2.695 -0.6242  1.1546  0.5004
  161MOL0     C22129   9.749   1.949   2.966 -1.0615  1.6425 -1.0685
  161MOL0     C22130   9.804   1.851   3.046  0.5134 -0.1305  0.3946
  161MOL0     N22131  10.187   1.963   3.153 -0.2314  0.3759  0.0415
  161MOL0     N22132  10.147   2.084   3.131 -0.4489 -0.3027  0.0204
  161MOL0     C22133   8.989   2.323   3.068 -1.0300  0.2688 -0.1180
  161MOL0     C22134   8.876   2.392   3.102  0.3077 -0.3965 -0.0716
  161MOL0     C22135   8.515   2.677   3.109  0.4545  0.2817  0.7158
  161MOL0     C22136   8.480   2.580   3.210 -0.0092  0.1609 -0.4305
  161MOL0     C22137   8.359   2.580   3.276 -0.0923  0.1547 -0.0701
  161MOL0     C22138   8.272   2.681   3.254 -0.4052  0.7669 -0.1174
  161MOL0     O22139   8.154   2.671   3.316  0.1846  0.1365 -1.1832
  161MOL0     C22140   8.054   2.770   3.300  0.4825  0.6387  0.5258
  161MOL0     C22141   7.953   2.773   3.423 -1.2286 -0.5077 -0.8254
  161MOL0     C22142   8.030   2.837   3.541  0.2405 -0.0721  0.2435
  161MOL0     C22143   7.929   2.878   3.653 -0.0557 -0.1482  0.9086
  161MOL0     C22144   7.849   2.990   3.606 -0.2971 -0.3743 -0.4233
  161MOL0     C22145   7.775   3.085   3.595  0.1610  0.6227  0.3491
  161MOL0     C22146   8.291   2.766   3.143 -0.9797  0.3600 -0.4977
  161MOL0     C22147   8.408   2.772   3.075 -0.5006 -0.2544  0.1937
  161MOL0     C22148   8.420   2.859   2.950  1.3276  0.1808  0.0594
  161MOL0     H22149   8.912   2.672   2.918 -0.2773 -1.3671 -0.4005
  161MOL0     H22150   9.136   2.538   2.874 -0.3565 -0.4412 -0.5266
  161MOL0     H22151   9.312   2.500   3.006 -0.0769 -0.4813  0.7179
  161MOL0     H22152   9.392   2.384   2.909  2.1999  2.0600  0.8833
  161MOL0     H22153   9.331   2.357   3.210  2.5975  2.9550  1.6162
  161MOL0     H22154   9.425   2.237   3.106 -1.0522 -0.6415  0.1889
  161MOL0     H22155   9.577   2.440   3.056 -4.8574  3.0860 -2.7789
  161MOL0     H22156   9.480   2.516   3.192 -2.1043 -1.2360  1.5861
  161MOL0     H22157   9.688   2.460   3.285 -1.4865  1.8769 -1.9921
  161MOL0     H22158   9.553   2.372   3.354  1.7590 -0.0221  1.4638
  161MOL0     H22159   9.701   2.257   3.124 -0.9163 -2.9791 -0.5124
  161MOL0     H22160   9.615   2.166   3.235  0.5064  0.2919  0.6607
  161MOL0     H22161   9.799   2.233   3.410  0.7401 -2.3723  0.5811
  161MOL0     H22162   9.836   2.129   3.283  1.3929 -0.7294  1.8998
  161MOL0     H22163   9.900   2.422   3.309  1.2595  1.4981 -1.7013
  161MOL0     H22164   9.923   2.352   3.150  5.9600  3.0879 -0.0924
  161MOL0     H22165  10.138   2.332   3.235  2.0144  0.4113  0.9351
  161MOL0     H22166  10.081   2.285   3.392 -0.3983  0.3629 -0.1278
  161MOL0     H22167  10.020   2.012   3.422 -0.5625  1.6148 -1.0521
  161MOL0     H22168  10.141   1.795   3.438 -3.2171 -1.5293 -0.3453
  161MOL0     H22169  10.251   1.735   3.308  0.2749  0.8973 -4.4182
  161MOL0     H22170  10.042   1.595   3.334 -0.9186  0.3769 -1.5667
  161MOL0     H22171   9.955   1.746   3.309  1.2454  0.4504  4.5018
  161MOL0     H22172  10.068   1.741   3.061  0.1999 -0.8855 -2.9488
  161MOL0     H22173  10.153   1.602   3.129  0.1237  0.4709 -4.2643
  161MOL0     H22174   9.973   1.541   2.975 -0.9520 -1.2352 -0.8123
  161MOL0     H22175   9.963   1.466   3.127 -3.7427 -0.8548 -0.2124
  161MOL0     H22176   9.705   1.566   2.904 -2.3113 -0.0700  1.3423
  161MOL0     H22177   9.642   1.606   2.670  0.6732 -1.0595 -0.6563
  161MOL0     H22178   9.631   1.773   2.611  1.1067  0.8521  1.6985
  161MOL0     H22179   9.497   1.692   2.706 -0.2874 -2.1604 -1.9861
  161MOL0     H22180   9.434   2.259   2.752  0.3432  0.7339  0.5565
  161MOL0     H22181   9.403   2.466   2.624  0.5296  0.4971  1.9470
  161MOL0     H22182   9.733   2.645   2.337  0.4154  2.0408  3.4805
  161MOL0     H22183   9.638   2.499   2.273 -1.3369  2.5300 -2.5335
  161MOL0     H22184   9.452   2.624   2.244  0.3374 -2.0251  1.1961
  161MOL0     H22185   9.529   2.761   2.336  1.2989 -0.1506 -1.1281
  161MOL0     H22186   9.665   2.821   2.141  0.1492 -0.4481  1.8166
  161MOL0     H22187   9.497   2.792   2.087  0.8249  3.7469  0.9599
  161MOL0     H22188   9.604   2.551   2.057 -1.1635  0.5839 -2.5619
  161MOL0     H22189   9.755   2.635   2.102 -0.5047  0.6645  0.3261
  161MOL0     H22190   9.553   2.718   1.878 -0.8483  1.5897 -0.3422
  161MOL0     H22191   9.715   2.784   1.909 -1.1056 -0.1133 -0.8225
  161MOL0     H22192   9.655   2.493   1.825 -0.4687 -0.0957  3.3091
  161MOL0     H22193   9.817   2.558   1.846 -0.2558 -1.7539  1.6264
  161MOL0     H22194   9.822   2.673   1.643 -0.5551 -1.3307 -3.3355
  161MOL0     H22195   9.646   2.706   1.653 -1.9291 -0.9402  0.7938
  161MOL0     H22196   9.623   2.570   1.476  0.0044  3.6651  2.0231
  161MOL0     H22197   9.626   2.447   1.600  0.7338  0.5159  3.1780
  161MOL0     H22198   9.804   2.410   2.456  0.1735 -2.7479 -1.4891
  161MOL0     H22199   9.826   2.212   2.603  2.0941  2.2517 -2.9408
  161MOL0     H22200   9.777   2.053   2.979 -1.4177  2.0376 -3.0733
  161MOL0     H22201   9.852   1.878   3.140 -0.7150 -2.1988  1.6745
  161MOL0     H22202   9.015   2.231   3.119 -2.2313  0.6265  1.2121
  161MOL0     H22203   8.804   2.359   3.176 -1.6374  0.1734 -1.6101
  161MOL0     H22204   8.550   2.506   3.247 -1.8400 -1.6026 -0.2783
  161MOL0     H22205   8.338   2.508   3.354  2.6517  1.9835  2.5957
  161MOL0     H22206   8.094   2.871   3.304  1.5708  0.2534 -0.4490
  161MOL0     H22207   7.996   2.744   3.211 -3.0130 -0.3546  2.8697
  161MOL0     H22208   7.922   2.669   3.439 -1.6048 -0.0895  1.6101
  161MOL0     H22209   7.866   2.829   3.388 -0.4493  0.3517 -1.4057
  161MOL0     H22210   8.108   2.765   3.569  0.5032  1.0892  2.7859
  161MOL0     H22211   8.084   2.931   3.526  1.7679 -0.5341  2.2659
  161MOL0     H22212   7.979   2.894   3.749  2.9330 -1.9366 -0.2293
  161MOL0     H22213   7.859   2.796   3.672 -1.0628  0.5168  0.1806
  161MOL0     H22214   7.701   3.163   3.588  0.6673  1.1361  0.6522
  161MOL0     H22215   8.203   2.825   3.119 -1.8842  0.3670  2.4676
  161MOL0     H22216   8.452   2.792   2.870  1.4210  0.9535 -0.5606
  161MOL0     H22217   8.330   2.917   2.926  1.4782  0.1878 -0.5091
  161MOL0     H22218   8.496   2.936   2.958  0.0650  1.5199 -0.4226
  162MOL0     O22219   3.885   8.642   6.162 -0.0264  0.4555 -0.3959
  162MOL0     C22220   4.000   8.599   6.139  0.4878  0.8137  0.0638
  162MOL0     O22221   4.084   8.555   6.235  0.1555 -0.2858 -0.2595
  162MOL0     C22222   4.056   8.516   6.368  0.4686 -0.5245  0.1070
  162MOL0     C22223   3.946   8.442   6.398 -0.3943  0.9116 -0.3586
  162MOL0     C22224   3.927   8.385   6.522  0.6578 -0.7945 -0.4345
  162MOL0     C22225   4.018   8.400   6.622  0.1349  0.0570 -0.0436
  162MOL0     O22226   4.003   8.332   6.745 -0.8364 -0.3313  0.6829
  162MOL0     C22227   3.870   8.283   6.788  0.4325  0.2442 -0.9005
  162MOL0     C22228   3.844   8.137   6.737  0.1430  0.4343 -0.0886
  162MOL0     C22229   3.946   8.040   6.782 -0.3152  0.5486 -0.2230
  162MOL0     C22230   3.867   7.934   6.857  0.1154 -0.2416  0.9372
  162MOL0     C22231   3.807   7.833   6.761 -0.1146  0.0116  0.0636
  162MOL0     C22232   3.738   7.730   6.851 -0.1503 -0.2934 -0.0028
  162MOL0     C22233   3.646   7.635   6.773  0.6359  0.4039  0.0215
  162MOL0     C22234   3.567   7.523   6.856 -0.7386  0.0348  0.4505
  162MOL0     N22235   3.643   7.404   6.894 -0.2928  0.9102 -0.7158
  162MOL0     C22236   3.732   7.396   7.004  1.2210 -0.3408 -0.8229
  162MOL0     C22237   3.748   7.261   7.021 -0.9601 -0.9878  0.6861
  162MOL0     C22238   3.830   7.206   7.114  0.1891  0.4258 -0.3736
  162MOL0     C22239   3.951   7.135   7.049  0.0745  0.6721  0.2617
  162MOL0     C22240   3.917   6.999   6.974  0.2037 -0.9989  0.1113
  162MOL0     C22241   3.837   6.890   7.053 -0.4584  0.4739  0.3372
  162MOL0     O22242   3.875   6.860   7.188  0.3719 -0.3659 -0.1690
  162MOL0     C22243   3.992   6.799   7.202  0.0568  0.2699 -0.4716
  162MOL0     C22244   4.090   6.844   7.279  1.1019 -0.4556 -0.6569
  162MOL0     C22245   4.211   6.772   7.298 -0.0851  0.2663 -0.4732
  162MOL0     C22246   4.312   6.842   7.385  0.6031 -0.3167  0.2076
  162MOL0     C22247   4.228   6.644   7.239  0.3164  0.0673  0.1730
  162MOL0     C22248   4.357   6.569   7.245  0.5415 -0.1044 -0.4419
  162MOL0     O22249   4.349   6.446   7.306  0.2908  0.1924 -0.3877
  162MOL0     C22250   4.455   6.371   7.324  0.2592  0.6695 -0.0864
  162MOL0     C22251   4.440   6.238   7.281 -0.1245  0.1242 -0.0555
  162MOL0     C22252   4.546   6.148   7.292 -1.0238  0.0921 -0.0577
  162MOL0     C22253   4.673   6.198   7.338  1.2970 -0.3368 -0.1609
  162MOL0     O22254   4.770   6.109   7.360  0.0625 -0.0070 -0.2666
  162MOL0     C22255   4.848   6.103   7.242  0.6514 -0.4155  0.2815
  162MOL0     C22256   4.971   6.034   7.286  0.0467  0.1271  0.9758
  162MOL0     C22257   5.054   5.980   7.171  0.5852  0.3432  0.1489
  162MOL0     C22258   5.127   6.094   7.094 -0.5660 -0.5263  0.2194
  162MOL0     C22259   5.246   6.045   7.013  0.8876  0.0651  0.0479
  162MOL0     C22260   5.334   6.157   6.954 -0.4867 -0.1033  0.1154
  162MOL0     C22261   5.471   6.109   6.897 -0.6771 -0.1579  0.3277
  162MOL0     C22262   5.477   6.004   6.792  0.1925 -0.4766  0.5764
  162MOL0    Cl22263   5.646   5.971   6.747 -0.4643 -0.2213  0.0535
  162MOL0     C22264   4.683   6.332   7.375  0.3707 -0.2642 -0.5934
  162MOL0     C22265   4.575   6.426   7.381  0.3934  0.1077  0.3689
  162MOL0     O22266   4.458   6.617   7.197  0.1106 -0.8400  0.2063
  162MOL0     C22267   4.124   6.592   7.166  0.5573 -0.8229 -0.7731
  162MOL0     C22268   4.009   6.663   7.154 -0.0391  0.0301 -1.1537
  162MOL0     N22269   3.690   7.185   6.921  0.5230 -0.0981 -0.6288
  162MOL0     N22270   3.617   7.275   6.854  0.1147  0.1951 -0.6934
  162MOL0     C22271   4.127   8.487   6.597 -0.2471 -0.0186  0.6345
  162MOL0     C22272   4.142   8.547   6.470 -0.3370  0.9417 -0.7682
  162MOL0     C22273   4.068   8.597   6.004  0.8523 -0.0852 -0.1468
  162MOL0     C22274   4.203   8.580   5.999 -0.1684 -0.1685 -0.2617
  162MOL0     C22275   4.280   8.594   5.887  0.2459  0.0409 -0.2095
  162MOL0     C22276   4.221   8.633   5.768  1.0810 -0.8775  0.1449
  162MOL0     O22277   4.298   8.661   5.654 -0.3519 -0.2225 -0.7656
  162MOL0     C22278   4.425   8.599   5.636 -0.4498 -0.0184 -1.0864
  162MOL0     C22279   4.537   8.689   5.691  1.2117  0.0583 -0.1555
  162MOL0     C22280   4.665   8.668   5.605  0.1151  0.3451 -0.3086
  162MOL0     C22281   4.766   8.775   5.661  0.1097  0.1422  0.6297
  162MOL0     C22282   4.743   8.922   5.624 -0.3705  0.3848 -0.5058
  162MOL0     C22283   4.737   9.039   5.583  0.2497  0.2150 -0.1730
  162MOL0     C22284   4.084   8.640   5.759 -0.7770 -0.0199 -0.0602
  162MOL0     C22285   4.007   8.628   5.875 -0.3140  0.4327  0.7389
  162MOL0     C22286   3.859   8.649   5.866 -0.0833  0.5974  0.5642
  162MOL0     H22287   3.877   8.426   6.316 -1.8622 -0.5852  1.0934
  162MOL0     H22288   3.836   8.327   6.536  0.9435 -0.7042  2.4091
  162MOL0     H22289   3.797   8.353   6.748 -1.2647 -1.4604 -0.9179
  162MOL0     H22290   3.878   8.279   6.897 -0.4878 -0.3342 -0.8403
  162MOL0     H22291   3.741   8.109   6.761 -1.1590  1.8088 -3.5007
  162MOL0     H22292   3.834   8.116   6.630  1.6585  0.4618 -0.2487
  162MOL0     H22293   4.004   7.993   6.702 -0.9318  1.8091 -1.4424
  162MOL0     H22294   4.016   8.089   6.851  0.7992  2.1169 -2.3572
  162MOL0     H22295   3.929   7.882   6.931  0.8229 -1.2522 -0.3191
  162MOL0     H22296   3.785   7.979   6.914 -1.6960 -1.8967 -0.2183
  162MOL0     H22297   3.880   7.786   6.695 -2.4643 -1.6098 -1.5788
  162MOL0     H22298   3.733   7.883   6.697  0.2903  1.5527  0.7733
  162MOL0     H22299   3.798   7.667   6.918  0.8191  1.2322  0.6234
  162MOL0     H22300   3.673   7.795   6.910 -2.7362 -0.5834 -2.3669
  162MOL0     H22301   3.710   7.586   6.699  1.0974  1.2829 -0.1759
  162MOL0     H22302   3.577   7.695   6.713  3.1373  1.9545 -1.5234
  162MOL0     H22303   3.525   7.559   6.951 -1.2384 -0.1203  0.2890
  162MOL0     H22304   3.480   7.493   6.798 -0.4949  1.2994 -0.6198
  162MOL0     H22305   3.776   7.474   7.066 -1.7994  0.3405  0.6456
  162MOL0     H22306   3.767   7.133   7.166 -2.1220  2.3074 -0.3796
  162MOL0     H22307   3.855   7.283   7.188  0.5253 -0.9074  0.9609
  162MOL0     H22308   4.003   7.208   6.987  0.6010  1.7186  1.8738
  162MOL0     H22309   4.033   7.106   7.115 -0.2751 -3.3643 -0.8137
  162MOL0     H22310   3.883   7.012   6.870  1.9241 -2.6522 -0.7132
  162MOL0     H22311   4.018   6.962   6.955  0.5590 -0.2537  0.4900
  162MOL0     H22312   3.732   6.918   7.068 -2.2432 -5.0599  0.3047
  162MOL0     H22313   3.843   6.798   6.995 -2.3091 -2.4673  4.3350
  162MOL0     H22314   4.091   6.947   7.315  0.1928 -0.3206 -1.0009
  162MOL0     H22315   4.329   6.949   7.366  3.4874 -0.5242  1.0357
  162MOL0     H22316   4.411   6.796   7.376  0.7770 -0.3973  2.1074
  162MOL0     H22317   4.289   6.820   7.489 -1.0300 -0.1874 -0.1127
  162MOL0     H22318   4.350   6.207   7.231 -0.1637 -0.0228  0.1062
  162MOL0     H22319   4.542   6.052   7.242 -0.8157 -1.5520  2.8973
  162MOL0     H22320   4.800   6.040   7.167 -3.2482  2.2369  0.2301
  162MOL0     H22321   4.875   6.197   7.194  1.3399 -3.0027 -5.0694
  162MOL0     H22322   5.035   6.099   7.346 -0.9632 -0.1082  2.3487
  162MOL0     H22323   4.948   5.943   7.341 -4.5599  0.4920  0.0442
  162MOL0     H22324   4.988   5.936   7.096  0.1449  1.6033 -0.2370
  162MOL0     H22325   5.127   5.913   7.216  0.8455 -0.0882 -0.8994
  162MOL0     H22326   5.157   6.175   7.162 -2.2002  1.2417 -1.0329
  162MOL0     H22327   5.057   6.136   7.021 -0.4060 -0.2681  0.2132
  162MOL0     H22328   5.307   5.982   7.079  0.3427  0.6314  1.1280
  162MOL0     H22329   5.213   5.985   6.928 -0.9691 -0.5594  1.1630
  162MOL0     H22330   5.362   6.224   7.036 -1.1860 -1.5211  1.5544
  162MOL0     H22331   5.280   6.221   6.883  0.4070  2.9752  2.0317
  162MOL0     H22332   5.519   6.074   6.989 -1.4004  2.9603  2.0621
  162MOL0     H22333   5.530   6.196   6.867 -0.8066  0.1717  1.0011
  162MOL0     H22334   5.418   6.043   6.708  1.0167 -0.0428  0.1833
  162MOL0     H22335   5.440   5.910   6.833 -2.2199  0.8758  1.7366
  162MOL0     H22336   4.781   6.368   7.403  0.4394 -0.8592 -0.0417
  162MOL0     H22337   4.581   6.527   7.419  0.3777 -0.5205  2.1559
  162MOL0     H22338   4.142   6.492   7.128 -1.0601 -1.2999 -0.3656
  162MOL0     H22339   3.922   6.623   7.102 -2.7678  1.1778  2.1190
  162MOL0     H22340   4.204   8.514   6.669  2.6670  2.6563 -3.0779
  162MOL0     H22341   4.230   8.610   6.461  1.3237 -1.3160 -1.1672
  162MOL0     H22342   4.258   8.580   6.093  0.0449 -2.5567 -0.3057
  162MOL0     H22343   4.386   8.573   5.885  0.6921  1.8282  1.4861
  162MOL0     H22344   4.422   8.502   5.685 -2.1831  0.3819 -0.3413
  162MOL0     H22345   4.432   8.586   5.528 -0.7802 -3.7101 -0.7910
  162MOL0     H22346   4.544   8.670   5.799  0.4320 -1.1638 -0.3004
  162MOL0     H22347   4.502   8.791   5.671 -1.5043 -0.5011  1.2180
  162MOL0     H22348   4.700   8.565   5.621  1.0604  0.6874 -0.0637
  162MOL0     H22349   4.652   8.691   5.499  1.6042 -3.4816 -1.5149
  162MOL0     H22350   4.855   8.730   5.617 -2.5956 -2.6624 -2.6357
  162MOL0     H22351   4.777   8.757   5.768 -1.5737  0.1817  0.8456
  162MOL0     H22352   4.731   9.144   5.563 -2.9820 -0.2318 -2.2493
  162MOL0     H22353   4.049   8.667   5.660  1.1687 -2.5190 -1.5427
  162MOL0     H22354   3.812   8.602   5.779  2.0164 -0.3066 -0.1426
  162MOL0     H22355   3.823   8.596   5.954 -0.8577 -0.0794 -0.1367
  162MOL0     H22356   3.824   8.752   5.875  1.8094  1.2962  0.3249
  163MOL0     O22357   5.088   5.356   7.843 -0.1922  0.8900 -0.2971
  163MOL0     C22358   5.099   5.242   7.811  0.1333  0.3905  0.4706
  163MOL0     O22359   4.995   5.164   7.768 -0.0077 -0.4697  0.4040
  163MOL0     C22360   4.867   5.213   7.772  0.4040 -0.1426 -0.4622
  163MOL0     C22361   4.830   5.344   7.730  0.1173 -0.5308 -0.7549
  163MOL0     C22362   4.696   5.384   7.728  0.9378  0.1234  0.7100
  163MOL0     C22363   4.583   5.297   7.753 -0.5602 -0.2860  0.2093
  163MOL0     O22364   4.453   5.350   7.743 -0.6769 -0.5983  0.4734
  163MOL0     C22365   4.349   5.285   7.821 -0.0958 -0.7170  0.4504
  163MOL0     C22366   4.229   5.369   7.800  0.1509  0.6572 -0.5798
  163MOL0     C22367   4.159   5.340   7.671  0.1629  0.0233 -0.5868
  163MOL0     C22368   4.034   5.251   7.682 -0.7488  0.3409 -0.0549
  163MOL0     C22369   3.924   5.305   7.766  0.0171 -0.3208 -0.4835
  163MOL0     C22370   3.868   5.451   7.737 -0.1536 -0.1260 -0.0919
  163MOL0     C22371   3.754   5.492   7.837  0.2728  0.8177  0.3712
  163MOL0     C22372   3.807   5.499   7.984  1.1397  0.9614 -0.0614
  163MOL0     N22373   3.912   5.595   8.004 -0.9339 -0.8411  0.3202
  163MOL0     C22374   3.915   5.724   7.953  1.0579  0.2448 -0.3986
  163MOL0     C22375   4.043   5.765   7.970 -0.2077 -0.8062 -0.1363
  163MOL0     C22376   4.081   5.914   7.935 -0.5825 -0.2996  0.3712
  163MOL0     C22377   4.143   5.990   8.050 -1.2917 -0.6100 -0.0848
  163MOL0     C22378   4.203   6.125   8.014  0.8028  0.5380  0.9114
  163MOL0     C22379   4.255   6.200   8.134 -0.6727 -0.3015  0.1447
  163MOL0     O22380   4.382   6.260   8.081  0.2021  0.2783 -0.3450
  163MOL0     C22381   4.497   6.187   8.097 -0.2736  0.9382 -0.6208
  163MOL0     C22382   4.607   6.258   8.064 -1.0421 -0.1660  0.0868
  163MOL0     C22383   4.738   6.200   8.062  0.0892 -0.2767 -0.8488
  163MOL0     C22384   4.849   6.288   8.002  0.3535 -0.1296  0.1880
  163MOL0     C22385   4.756   6.064   8.107  0.5412  1.2066  0.1453
  163MOL0     C22386   4.879   5.989   8.095 -0.5369 -1.3584 -0.5331
  163MOL0     O22387   4.957   6.014   7.996 -0.2556  0.0190 -0.1264
  163MOL0     C22388   5.076   5.949   7.974 -0.5285 -0.0322 -0.5359
  163MOL0     C22389   5.178   6.022   7.931 -1.2690 -0.3405 -0.3973
  163MOL0     C22390   5.303   5.958   7.889  0.4593 -0.1158  0.1760
  163MOL0     C22391   5.317   5.822   7.896  0.5793  0.1010 -0.0415
  163MOL0     O22392   5.435   5.762   7.855  0.4484 -0.2507 -0.6516
  163MOL0     C22393   5.552   5.840   7.873  0.0117 -0.6286  0.2889
  163MOL0     C22394   5.661   5.746   7.841 -0.5203  0.3644 -0.5894
  163MOL0     C22395   5.685   5.669   7.969 -0.4593 -0.0220 -0.2483
  163MOL0     C22396   5.787   5.553   7.954 -0.5543  0.8152  0.2979
  163MOL0     C22397   5.808   5.474   8.075 -0.3297 -0.1127  0.3640
  163MOL0     C22398   5.682   5.407   8.122 -0.4829  0.0629  0.3256
  163MOL0     C22399   5.687   5.330   8.255 -0.0534  0.5486  0.5112
  163MOL0     C22400   5.721   5.184   8.241  0.1204  0.5126 -0.4435
  163MOL0    Cl22401   5.570   5.093   8.201  0.2139  0.1272 -0.1019
  163MOL0     C22402   5.208   5.745   7.934 -0.2881  0.8484  1.3935
  163MOL0     C22403   5.082   5.804   7.972 -0.4100 -0.0429  0.2444
  163MOL0     O22404   4.908   5.914   8.194  0.2611 -0.6208  0.1942
  163MOL0     C22405   4.640   5.997   8.153  0.3530  0.7743 -0.0772
  163MOL0     C22406   4.512   6.062   8.155 -0.2038  0.0979  0.8551
  163MOL0     N22407   4.114   5.663   8.023 -0.5857 -0.4937 -0.4825
  163MOL0     N22408   4.036   5.563   8.050 -0.0427  0.0174  0.4551
  163MOL0     C22409   4.621   5.158   7.786 -0.9140 -1.0573 -0.0082
  163MOL0     C22410   4.757   5.120   7.791 -0.4230  0.7232  0.5672
  163MOL0     C22411   5.225   5.183   7.814 -0.9249 -0.1469  0.6518
  163MOL0     C22412   5.251   5.067   7.733  0.1627  0.6949  0.3529
  163MOL0     C22413   5.372   4.993   7.730  0.4167 -0.6727  0.6824
  163MOL0     C22414   5.480   5.025   7.809 -0.5516 -0.4817 -1.0210
  163MOL0     O22415   5.595   4.952   7.801  0.8693 -0.0318  0.1975
  163MOL0     C22416   5.710   4.979   7.882  0.5208  0.0721 -0.5779
  163MOL0     C22417   5.792   5.100   7.829  0.9995 -0.7309 -0.2267
  163MOL0     C22418   5.924   5.099   7.890  0.7841 -0.1688  0.1748
  163MOL0     C22419   6.007   4.983   7.829 -0.3721  0.2912 -0.6721
  163MOL0     C22420   6.154   4.993   7.874 -0.1944 -0.6463  0.6684
  163MOL0     C22421   6.267   4.993   7.916 -0.9539 -0.0283  0.3733
  163MOL0     C22422   5.462   5.153   7.879 -0.3574  0.5927 -0.4560
  163MOL0     C22423   5.341   5.233   7.880 -0.1789  0.1917 -0.7660
  163MOL0     C22424   5.341   5.341   7.977 -0.0405 -0.4929 -0.1021
  163MOL0     H22425   4.909   5.410   7.696  1.2938 -0.3375  2.1072
  163MOL0     H22426   4.667   5.481   7.690 -0.3349 -2.0150 -4.5786
  163MOL0     H22427   4.399   5.301   7.917 -1.2884  5.1571  0.4648
  163MOL0     H22428   4.337   5.180   7.792 -0.4261 -0.0787 -1.8819
  163MOL0     H22429   4.181   5.331   7.890  1.5300  1.2468  0.4321
  163MOL0     H22430   4.236   5.478   7.793 -1.9372  0.7558 -5.2358
  163MOL0     H22431   4.127   5.418   7.602  0.9295  0.8768  0.0020
  163MOL0     H22432   4.227   5.275   7.614 -0.4081 -0.2681 -0.9449
  163MOL0     H22433   4.004   5.238   7.578 -0.8372  1.3646 -0.1617
  163MOL0     H22434   4.065   5.154   7.724 -0.8339 -0.7134 -2.2949
  163MOL0     H22435   3.956   5.290   7.870  0.9675 -3.1583 -1.0941
  163MOL0     H22436   3.838   5.238   7.757 -0.6708  0.2454  1.2655
  163MOL0     H22437   3.939   5.535   7.740 -1.2727  1.0223 -2.4646
  163MOL0     H22438   3.836   5.459   7.632  1.4086  1.2087 -0.5080
  163MOL0     H22439   3.685   5.407   7.828  1.2353  0.2179 -2.2937
  163MOL0     H22440   3.692   5.576   7.802 -1.1421 -1.1288 -2.2168
  163MOL0     H22441   3.729   5.544   8.045  0.6146  2.3681 -1.6717
  163MOL0     H22442   3.836   5.400   8.021  0.2174  0.1322 -1.4600
  163MOL0     H22443   3.839   5.776   7.896 -0.7193 -1.1235  0.6084
  163MOL0     H22444   3.994   5.971   7.902  1.8964  2.2374 -2.3388
  163MOL0     H22445   4.149   5.911   7.850  0.5650 -3.3395  1.2609
  163MOL0     H22446   4.058   6.022   8.111 -0.3349  0.3474  0.7792
  163MOL0     H22447   4.210   5.919   8.098  1.0799  0.4344 -1.6365
  163MOL0     H22448   4.277   6.114   7.934 -0.0972  1.9501 -0.1622
  163MOL0     H22449   4.132   6.194   7.967  1.0457 -0.4508 -0.9890
  163MOL0     H22450   4.186   6.280   8.164  0.9736  1.3624 -0.2653
  163MOL0     H22451   4.266   6.139   8.224 -0.2220 -1.0860 -0.4308
  163MOL0     H22452   4.583   6.357   8.029 -0.6818  0.0434  0.4276
  163MOL0     H22453   4.954   6.259   8.017  0.4276  0.8644  1.7931
  163MOL0     H22454   4.832   6.380   8.059 -3.1303 -0.7430  0.3366
  163MOL0     H22455   4.829   6.303   7.895 -0.0610 -1.6712  0.0218
  163MOL0     H22456   5.147   6.122   7.903  3.5182  2.4611  2.8449
  163MOL0     H22457   5.371   6.029   7.843 -1.7412  2.5118  0.6999
  163MOL0     H22458   5.564   5.910   7.789  3.0317  0.5163  1.5448
  163MOL0     H22459   5.554   5.898   7.966 -0.0640 -1.2106  0.6588
  163MOL0     H22460   5.631   5.683   7.758 -1.3751  2.6883 -2.1634
  163MOL0     H22461   5.755   5.795   7.814 -0.8769  1.6610  0.4049
  163MOL0     H22462   5.592   5.622   8.004  0.0277 -0.5073  0.4304
  163MOL0     H22463   5.702   5.736   8.054 -3.0374 -2.1736  2.2129
  163MOL0     H22464   5.886   5.591   7.928  0.8698 -2.1019  0.9781
  163MOL0     H22465   5.747   5.483   7.880  0.6381 -1.9882  2.1281
  163MOL0     H22466   5.885   5.403   8.042 -2.0996 -1.7564 -0.3866
  163MOL0     H22467   5.840   5.546   8.151  2.3317  0.7585 -1.3785
  163MOL0     H22468   5.637   5.342   8.047 -2.1978 -0.3539  1.6481
  163MOL0     H22469   5.609   5.485   8.145 -1.0042  0.6768 -2.9371
  163MOL0     H22470   5.593   5.334   8.312 -0.9913  0.5017 -0.9885
  163MOL0     H22471   5.765   5.367   8.323 -0.0589  2.9147 -0.6768
  163MOL0     H22472   5.772   5.142   8.329 -0.4391 -0.0679 -0.3865
  163MOL0     H22473   5.803   5.180   8.168  0.7601  0.5101  0.2607
  163MOL0     H22474   5.211   5.636   7.940  1.6108  0.8724  1.4587
  163MOL0     H22475   4.995   5.748   8.005 -1.2816  0.4498 -1.1398
  163MOL0     H22476   4.651   5.891   8.175  0.4718  0.8265  0.1233
  163MOL0     H22477   4.434   6.006   8.204  1.8207 -2.5538  1.3268
  163MOL0     H22478   4.533   5.100   7.815 -1.9957  1.4840  2.2851
  163MOL0     H22479   4.788   5.017   7.800 -1.2138  0.3094 -1.0568
  163MOL0     H22480   5.168   5.013   7.689  2.4627 -0.1491 -3.3283
  163MOL0     H22481   5.370   4.911   7.658 -2.0943  1.6211 -2.1314
  163MOL0     H22482   5.677   5.002   7.984  0.8365  0.3520 -0.5368
  163MOL0     H22483   5.769   4.888   7.880  1.5068  0.7102 -2.4486
  163MOL0     H22484   5.749   5.199   7.848  0.1800 -1.2026  0.3903
  163MOL0     H22485   5.802   5.092   7.720  3.2626  1.1776 -0.2455
  163MOL0     H22486   5.965   5.194   7.855 -0.7336 -0.1122 -1.5889
  163MOL0     H22487   5.925   5.103   7.999 -0.4393  0.7555  0.1665
  163MOL0     H22488   6.001   4.983   7.720  1.3605  3.6294 -0.8998
  163MOL0     H22489   5.977   4.883   7.862  1.2234 -0.7310 -2.0933
  163MOL0     H22490   6.365   5.014   7.954 -0.5429 -0.6505 -0.3084
  163MOL0     H22491   5.542   5.179   7.947 -1.6898 -0.5521  1.6321
  163MOL0     H22492   5.429   5.342   8.042 -1.0939  0.6728  1.3856
  163MOL0     H22493   5.331   5.438   7.927  2.1999 -0.4855 -0.6284
  163MOL0     H22494   5.250   5.321   8.034  0.2155  1.6778  1.1620
  164MOL0     O22495   9.047   2.641  10.775  0.8205 -0.1628  0.5178
  164MOL0     C22496   9.096   2.735  10.830 -0.1997 -0.6999  0.1887
  164MOL0     O22497   9.024   2.821  10.914 -0.4760  0.5308 -0.0452
  164MOL0     C22498   8.889   2.796  10.928  0.0598 -0.0244 -0.5859
  164MOL0     C22499   8.837   2.684  10.996 -0.5703  0.3634  0.2981
  164MOL0     C22500   8.699   2.676  11.020  0.2272  0.3194  0.5159
  164MOL0     C22501   8.608   2.761  10.956  0.4790 -0.2140 -0.2176
  164MOL0     O22502   8.472   2.759  10.986 -0.9152 -1.2251  0.2313
  164MOL0     C22503   8.439   2.773  11.123 -0.3135  0.3580 -0.4012
  164MOL0     C22504   8.286   2.783  11.150 -0.3277 -0.6561 -0.4283
  164MOL0     C22505   8.212   2.673  11.070  0.4273  0.1039 -0.4724
  164MOL0     C22506   8.224   2.538  11.136  1.1847 -0.2585 -0.5230
  164MOL0     C22507   8.137   2.433  11.065 -0.0577 -0.1347 -0.9020
  164MOL0     C22508   8.122   2.311  11.166  0.9987 -0.3308  0.2124
  164MOL0     C22509   8.025   2.208  11.103 -0.3539  0.3698  0.0306
  164MOL0     C22510   8.014   2.075  11.182  0.1851  0.4112 -0.5161
  164MOL0     N22511   8.144   2.028  11.239  0.2354  0.2297  0.6250
  164MOL0     C22512   8.250   1.991  11.160  0.1426  0.4191  0.4305
  164MOL0     C22513   8.351   1.965  11.253 -0.3956 -0.6415  0.3450
  164MOL0     C22514   8.472   1.906  11.203 -0.4667  0.3835  0.2780
  164MOL0     C22515   8.571   1.868  11.316  0.0467 -0.4828  0.9374
  164MOL0     C22516   8.710   1.839  11.273 -0.3563  0.7253 -0.1247
  164MOL0     C22517   8.795   1.791  11.400  0.1734 -0.2608  0.9037
  164MOL0     O22518   8.920   1.739  11.353 -0.4401 -0.0286 -0.0690
  164MOL0     C22519   8.986   1.670  11.447 -0.6682  0.4653  1.0239
  164MOL0     C22520   9.064   1.568  11.397 -0.3825  0.0732  0.0578
  164MOL0     C22521   9.149   1.480  11.477  0.8156 -0.2336  0.0175
  164MOL0     C22522   9.205   1.362  11.402 -0.5811 -0.3548 -0.6779
  164MOL0     C22523   9.137   1.496  11.624 -0.2952 -0.4138  0.3725
  164MOL0     C22524   9.212   1.416  11.726  0.2616 -0.4129 -0.6122
  164MOL0     O22525   9.161   1.401  11.853 -0.5111 -0.1964  0.0616
  164MOL0     C22526   9.253   1.352  11.943  0.3038 -0.6144  0.0281
  164MOL0     C22527   9.235   1.222  11.993  1.0557 -0.3080  0.6626
  164MOL0     C22528   9.325   1.165  12.075  0.3100 -0.0550 -1.2578
  164MOL0     C22529   9.429   1.248  12.132  0.0727  1.0577 -0.8732
  164MOL0     O22530   9.532   1.200  12.213 -0.2362  0.5621  0.4738
  164MOL0     C22531   9.532   1.065  12.259  0.9321  0.5078  0.0433
  164MOL0     C22532   9.645   1.051  12.358 -0.7977  0.3515  0.0451
  164MOL0     C22533   9.621   1.125  12.488  0.3021 -0.0831 -0.7419
  164MOL0     C22534   9.549   1.044  12.607  1.1499  0.1099 -0.1472
  164MOL0     C22535   9.477   1.128  12.718  0.7510 -0.5641  0.3869
  164MOL0     C22536   9.388   1.042  12.801 -0.5483  0.2945  0.6236
  164MOL0     C22537   9.325   1.144  12.896  0.9779  1.3115  0.0128
  164MOL0     C22538   9.301   1.072  13.025 -0.1414  0.1092 -0.1402
  164MOL0    Cl22539   9.153   0.978  13.018  0.2399 -0.0277  0.0684
  164MOL0     C22540   9.433   1.384  12.092  0.1655 -0.0291  0.7426
  164MOL0     C22541   9.351   1.439  11.990 -0.6074  0.4920 -0.9390
  164MOL0     O22542   9.311   1.357  11.688  0.1640 -0.3993 -0.5494
  164MOL0     C22543   9.057   1.601  11.671  0.4189 -0.2863 -0.0834
  164MOL0     C22544   8.988   1.689  11.585 -0.4169 -0.4127 -0.0538
  164MOL0     N22545   8.308   2.002  11.378 -0.2800 -0.3829  0.2853
  164MOL0     N22546   8.188   2.044  11.373  0.3654 -0.0185  0.3777
  164MOL0     C22547   8.661   2.877  10.883  0.5414 -0.4215  0.2779
  164MOL0     C22548   8.800   2.893  10.876 -0.1794  0.2867  0.4336
  164MOL0     C22549   9.244   2.762  10.810 -0.5688 -0.4653  0.0618
  164MOL0     C22550   9.323   2.649  10.796 -0.2762 -0.4390 -0.6234
  164MOL0     C22551   9.464   2.660  10.794  0.3195  0.2288 -0.4846
  164MOL0     C22552   9.521   2.781  10.791 -0.1237  0.3113 -0.1127
  164MOL0     O22553   9.656   2.780  10.799  0.0664 -0.1420  0.1054
  164MOL0     C22554   9.724   2.890  10.752 -0.5372  0.1918  0.1783
  164MOL0     C22555   9.866   2.848  10.750 -0.4705 -0.3470  0.0498
  164MOL0     C22556   9.909   2.758  10.629  0.0134 -0.7352 -1.0686
  164MOL0     C22557  10.064   2.725  10.640  0.6919 -0.5925  0.3061
  164MOL0     C22558  10.139   2.844  10.662  0.0947 -0.6491 -0.4722
  164MOL0     C22559  10.197   2.943  10.684  0.0710  0.0960 -0.5923
  164MOL0     C22560   9.441   2.898  10.772  0.0483 -0.3490 -0.2927
  164MOL0     C22561   9.298   2.889  10.793 -0.2813  0.3682  0.4337
  164MOL0     C22562   9.224   3.023  10.794 -1.3803  1.7451  0.3102
  164MOL0     H22563   8.895   2.597  11.024 -2.9588 -2.0776 -1.7801
  164MOL0     H22564   8.658   2.609  11.095  1.9259  0.6940  1.8335
  164MOL0     H22565   8.486   2.859  11.172 -1.7555  1.5841 -1.0715
  164MOL0     H22566   8.467   2.678  11.169  0.8856  0.9198  0.0572
  164MOL0     H22567   8.258   2.778  11.256  0.2012 -1.3197 -0.3100
  164MOL0     H22568   8.252   2.880  11.112 -1.4341 -0.4838  0.9228
  164MOL0     H22569   8.106   2.695  11.050  0.6300  0.8592 -0.7769
  164MOL0     H22570   8.254   2.676  10.969  0.3198 -0.4626 -0.5377
  164MOL0     H22571   8.329   2.509  11.133  1.8253  1.6849  0.8928
  164MOL0     H22572   8.187   2.557  11.238  1.8214  0.3539 -0.3964
  164MOL0     H22573   8.183   2.409  10.969 -1.6192  0.0605 -1.7365
  164MOL0     H22574   8.037   2.471  11.042  0.3352  1.9315  0.5450
  164MOL0     H22575   8.214   2.258  11.192  0.7712 -0.6657  0.3407
  164MOL0     H22576   8.074   2.341  11.259 -1.9420  1.1013 -1.6156
  164MOL0     H22577   8.072   2.180  11.009 -0.9245  3.8786 -1.4555
  164MOL0     H22578   7.925   2.252  11.094 -0.7246  0.1341  2.3429
  164MOL0     H22579   7.947   2.100  11.265  2.6032  1.1648  1.3249
  164MOL0     H22580   7.977   1.995  11.118  1.0418 -1.6026  1.3915
  164MOL0     H22581   8.252   1.960  11.056 -2.5924  2.8016 -0.4499
  164MOL0     H22582   8.528   1.984  11.151  2.3725  0.1598  2.7529
  164MOL0     H22583   8.447   1.821  11.138 -0.2606 -1.7454  2.7946
  164MOL0     H22584   8.584   1.951  11.386  3.1901  0.1997 -0.2917
  164MOL0     H22585   8.529   1.780  11.366  2.8310 -3.4595 -1.4934
  164MOL0     H22586   8.716   1.757  11.202  4.0767 -1.3986  2.3261
  164MOL0     H22587   8.747   1.928  11.220 -0.6210  0.3204 -1.0145
  164MOL0     H22588   8.806   1.876  11.467 -1.3308  0.7671 -0.0888
  164MOL0     H22589   8.738   1.707  11.440  2.4005 -2.1549  0.3726
  164MOL0     H22590   9.067   1.554  11.290 -1.4872  1.7687 -0.2179
  164MOL0     H22591   9.137   1.277  11.392  2.8674 -3.7817  2.1326
  164MOL0     H22592   9.289   1.320  11.459  0.2052  0.4425 -1.2299
  164MOL0     H22593   9.224   1.389  11.298  0.0107 -2.2363 -1.0934
  164MOL0     H22594   9.144   1.167  11.973  0.4006  0.5296  1.2503
  164MOL0     H22595   9.305   1.064  12.111 -1.4619  0.6889 -0.0030
  164MOL0     H22596   9.435   1.051  12.308  1.6382 -0.0622  1.3263
  164MOL0     H22597   9.540   0.991  12.179  1.1525 -1.0530  1.4615
  164MOL0     H22598   9.659   0.945  12.381 -0.3225  0.9752  3.0807
  164MOL0     H22599   9.735   1.087  12.307 -0.1760  0.1985  1.0054
  164MOL0     H22600   9.563   1.213  12.458 -1.3780 -1.2326 -0.9869
  164MOL0     H22601   9.717   1.166  12.521  1.1373 -2.1241 -0.4857
  164MOL0     H22602   9.623   0.978  12.653  0.2988 -1.7894 -1.3811
  164MOL0     H22603   9.487   0.964  12.566  2.3661 -0.9731  0.0535
  164MOL0     H22604   9.556   1.170  12.781  0.8705 -2.0150  1.2584
  164MOL0     H22605   9.408   1.201  12.674  0.5645 -0.8635  0.1787
  164MOL0     H22606   9.452   0.963  12.840  1.5230  1.4137 -0.2982
  164MOL0     H22607   9.309   1.006  12.735  0.1086  1.8690 -1.1421
  164MOL0     H22608   9.232   1.191  12.863 -0.6807 -0.4745  1.8955
  164MOL0     H22609   9.398   1.224  12.914  0.7988  1.7664 -1.1528
  164MOL0     H22610   9.316   1.135  13.113 -0.7740  0.2904 -0.1571
  164MOL0     H22611   9.379   0.997  13.037 -0.0022  0.2290 -0.2919
  164MOL0     H22612   9.515   1.444  12.131 -1.0249  2.4425 -0.3679
  164MOL0     H22613   9.366   1.545  11.970 -0.7407  0.5339 -0.8171
  164MOL0     H22614   9.051   1.643  11.771 -2.5219  2.3273 -1.1978
  164MOL0     H22615   8.912   1.762  11.612 -2.3789 -2.8934  1.5483
  164MOL0     H22616   8.589   2.950  10.847 -0.9203 -1.5056  0.8771
  164MOL0     H22617   8.840   2.984  10.832 -0.8392  0.5937  0.4539
  164MOL0     H22618   9.285   2.549  10.775 -0.7723 -0.0695 -1.5565
  164MOL0     H22619   9.534   2.582  10.823  0.1487 -0.2347 -1.2759
  164MOL0     H22620   9.687   2.934  10.659 -2.7855  1.1179  1.4179
  164MOL0     H22621   9.708   2.970  10.825  1.3331  0.4144  0.3816
  164MOL0     H22622   9.886   2.790  10.841 -0.5549 -2.4267 -1.1986
  164MOL0     H22623   9.926   2.939  10.756  1.1334 -1.4319  4.1846
  164MOL0     H22624   9.851   2.666  10.614 -0.5125 -0.6454  0.2791
  164MOL0     H22625   9.907   2.824  10.542  7.9930  0.9032 -0.7865
  164MOL0     H22626  10.103   2.663  10.560 -1.3486 -0.7217 -0.6646
  164MOL0     H22627  10.066   2.663  10.730 -2.8401  0.1973  1.1131
  164MOL0     H22628  10.245   3.026  10.732 -1.5135  0.1136  1.0568
  164MOL0     H22629   9.498   2.991  10.777  0.2441 -0.5077  0.8499
  164MOL0     H22630   9.124   3.004  10.833 -2.0329  0.8777 -1.6238
  164MOL0     H22631   9.280   3.096  10.853  1.7303  0.8027 -1.2466
  164MOL0     H22632   9.225   3.051  10.688  4.2612 -1.1288 -0.7809
  165MOL0     O22633   9.967   0.717   2.398 -0.1127 -0.1870 -0.4211
  165MOL0     C22634  10.052   0.763   2.476 -0.3064 -1.2993 -0.4763
  165MOL0     O22635  10.073   0.895   2.502 -0.5845  0.1547 -0.0895
  165MOL0     C22636  10.000   0.995   2.439 -1.0049  0.7152 -0.0835
  165MOL0     C22637  10.076   1.106   2.390 -0.2967 -0.5807  0.0837
  165MOL0     C22638  10.012   1.218   2.338 -0.1269  0.9303  0.6385
  165MOL0     C22639   9.869   1.222   2.339 -0.1928  0.2425  0.0989
  165MOL0     O22640   9.813   1.335   2.278  0.1059  0.1910 -0.7386
  165MOL0     C22641   9.670   1.343   2.280 -1.2216 -0.5911 -0.3704
  165MOL0     C22642   9.630   1.490   2.266 -0.3194  0.2204  0.5623
  165MOL0     C22643   9.479   1.511   2.277  0.2835  0.6175 -0.5250
  165MOL0     C22644   9.434   1.509   2.426  0.7559 -0.1844 -0.7159
  165MOL0     C22645   9.288   1.527   2.447 -0.2786  0.0659  0.4850
  165MOL0     C22646   9.252   1.675   2.438  0.0502  1.3424  0.1094
  165MOL0     C22647   9.102   1.702   2.429  0.4069 -0.3973  0.1366
  165MOL0     C22648   9.012   1.658   2.547  0.9032 -0.2739 -0.3222
  165MOL0     N22649   9.054   1.714   2.676 -0.2715  0.0964 -0.4502
  165MOL0     C22650   9.055   1.846   2.714  0.3568 -0.2836 -0.0925
  165MOL0     C22651   9.140   1.859   2.821  0.2243  0.0609 -0.0715
  165MOL0     C22652   9.161   1.976   2.912  0.1191 -0.4520  0.1544
  165MOL0     C22653   9.170   1.934   3.065 -0.0990  0.3482  0.4595
  165MOL0     C22654   9.311   1.869   3.097 -0.2926 -0.2874  0.2420
  165MOL0     C22655   9.373   1.912   3.227 -0.2362 -0.5562 -0.0207
  165MOL0     O22656   9.486   1.827   3.261 -0.5688  0.3806  0.4768
  165MOL0     C22657   9.552   1.848   3.377  0.6058  0.5922 -0.3828
  165MOL0     C22658   9.640   1.752   3.426  0.4370 -0.1297  0.7170
  165MOL0     C22659   9.713   1.764   3.541  1.7935 -1.0113 -1.7441
  165MOL0     C22660   9.816   1.670   3.575  1.0824 -0.5171  0.2732
  165MOL0     C22661   9.701   1.888   3.613 -0.5115 -0.4901  1.0886
  165MOL0     C22662   9.775   1.923   3.734  0.7600 -0.1364 -0.2667
  165MOL0     O22663   9.860   2.035   3.727 -0.4088 -1.1276 -1.1269
  165MOL0     C22664   9.930   2.063   3.847 -0.3468  0.0185  0.2752
  165MOL0     C22665   9.984   2.190   3.837 -0.4269  0.8410 -0.0693
  165MOL0     C22666  10.058   2.243   3.944  0.3530  1.1191  0.7198
  165MOL0     C22667  10.105   2.160   4.054 -0.1910  0.9755  0.3653
  165MOL0     O22668  10.190   2.204   4.155 -0.8947  0.4672 -1.0093
  165MOL0     C22669  10.245   2.334   4.151 -1.1797  0.6532  0.0746
  165MOL0     C22670  10.277   2.378   4.297  0.0244 -0.2186  0.0628
  165MOL0     C22671  10.404   2.462   4.300  0.0054 -0.1061  0.2195
  165MOL0     C22672  10.387   2.573   4.405  0.0431  0.2494  0.1361
  165MOL0     C22673  10.457   2.705   4.369 -0.6938 -0.0624  0.3845
  165MOL0     C22674  10.490   2.781   4.497  0.5387  0.1473  0.5788
  165MOL0     C22675  10.581   2.902   4.488  0.3219  0.7377 -0.3723
  165MOL0     C22676  10.614   2.958   4.626  0.2453  0.2295 -0.9576
  165MOL0    Cl22677  10.728   2.852   4.711  0.1308 -0.0554 -0.0262
  165MOL0     C22678  10.056   2.031   4.061  0.2426  0.6537 -0.4353
  165MOL0     C22679   9.975   1.978   3.953  0.1609  0.6346 -0.2183
  165MOL0     O22680   9.776   1.835   3.821  0.2785 -0.2526  0.1050
  165MOL0     C22681   9.616   1.988   3.562 -0.1662 -0.4461  0.6081
  165MOL0     C22682   9.540   1.964   3.447  0.3871  0.3126  0.0683
  165MOL0     N22683   9.192   1.738   2.836  0.7245  0.8543 -1.0191
  165MOL0     N22684   9.150   1.648   2.749  0.1413 -0.6963  0.0723
  165MOL0     C22685   9.799   1.111   2.388 -0.0877  0.4240 -0.5767
  165MOL0     C22686   9.864   0.995   2.436  0.2318  0.5694  0.3220
  165MOL0     C22687  10.141   0.666   2.540  0.2166  1.0743  0.0976
  165MOL0     C22688  10.201   0.567   2.460  0.0151 -0.4772 -0.2900
  165MOL0     C22689  10.288   0.470   2.515 -0.2229 -0.2723 -1.1445
  165MOL0     C22690  10.291   0.459   2.657  0.1174  0.3300  0.9125
  165MOL0     O22691  10.361   0.356   2.717 -0.3188  0.0290  0.1587
  165MOL0     C22692  10.452   0.265   2.645  0.8977  0.7348  1.1082
  165MOL0     C22693  10.380   0.149   2.579  0.7255  0.9781  0.3911
  165MOL0     C22694  10.424   0.016   2.640 -0.3377  0.5964  0.5266
  165MOL0     C22695  10.356  -0.100   2.563  0.1385 -0.4170 -0.0120
  165MOL0     C22696  10.418  -0.220   2.597 -0.4861 -0.0094  0.1988
  165MOL0     C22697  10.472  -0.325   2.618 -0.0753  0.3230  0.5528
  165MOL0     C22698  10.240   0.561   2.736 -0.4843  0.2468 -0.8368
  165MOL0     C22699  10.162   0.663   2.679  0.3026 -0.6214 -0.5324
  165MOL0     C22700  10.099   0.760   2.776  0.5986  0.3431 -0.3041
  165MOL0     H22701  10.183   1.091   2.397 -0.6384 -2.5809  1.9119
  165MOL0     H22702  10.064   1.310   2.313  0.3517  0.5042  0.0274
  165MOL0     H22703   9.636   1.317   2.381 -0.5849  0.1524  0.0457
  165MOL0     H22704   9.611   1.292   2.203  0.0178  2.9436 -4.0312
  165MOL0     H22705   9.668   1.554   2.346 -1.1079  1.6932 -0.1753
  165MOL0     H22706   9.659   1.535   2.170 -0.7875  0.8058  0.6879
  165MOL0     H22707   9.448   1.611   2.245 -0.3083  1.6361  2.7869
  165MOL0     H22708   9.425   1.439   2.215 -1.0671  3.1253 -2.4694
  165MOL0     H22709   9.464   1.411   2.465  0.3479  0.1302  0.4024
  165MOL0     H22710   9.486   1.575   2.495  5.6010 -3.1722 -0.9986
  165MOL0     H22711   9.249   1.490   2.542 -2.5668 -1.7209 -1.0042
  165MOL0     H22712   9.239   1.483   2.359 -1.2687 -0.0646  1.0887
  165MOL0     H22713   9.296   1.738   2.516  2.1243 -0.7615  0.7704
  165MOL0     H22714   9.288   1.713   2.341 -0.9054  0.8097 -0.4694
  165MOL0     H22715   9.055   1.654   2.342  0.1973 -0.2206  0.1485
  165MOL0     H22716   9.090   1.811   2.421  3.4532  0.0507  0.4455
  165MOL0     H22717   8.913   1.694   2.516  1.0381  0.8625  0.4780
  165MOL0     H22718   9.021   1.549   2.551 -0.7791 -0.4130  2.6222
  165MOL0     H22719   8.988   1.921   2.673 -0.5472 -0.3500  1.2015
  165MOL0     H22720   9.070   2.036   2.913  0.2925 -0.1357  2.7767
  165MOL0     H22721   9.237   2.046   2.876 -0.5628  0.5388  0.5989
  165MOL0     H22722   9.143   2.017   3.131  0.7561  0.4144  0.7385
  165MOL0     H22723   9.103   1.850   3.090  1.1948 -1.2759 -1.2468
  165MOL0     H22724   9.292   1.762   3.110  1.7626 -0.7345 -0.0723
  165MOL0     H22725   9.393   1.877   3.025 -0.6495 -0.2106 -0.1645
  165MOL0     H22726   9.405   2.016   3.210  0.4091 -0.9488 -1.3667
  165MOL0     H22727   9.305   1.915   3.312  2.5627  3.9227  2.4384
  165MOL0     H22728   9.673   1.677   3.355 -0.2483  1.4363 -1.3648
  165MOL0     H22729   9.822   1.653   3.683  1.1312  1.7745  0.6765
  165MOL0     H22730   9.909   1.706   3.529  0.2654 -0.8196 -1.7310
  165MOL0     H22731   9.794   1.572   3.531  0.8477 -0.6380  0.6578
  165MOL0     H22732   9.961   2.257   3.755 -2.3484 -0.8506 -1.0164
  165MOL0     H22733  10.081   2.350   3.939 -0.1829  1.2539 -3.7405
  165MOL0     H22734  10.334   2.314   4.091 -2.3319  0.4692 -1.6553
  165MOL0     H22735  10.190   2.413   4.100  2.0660  2.4103 -0.9310
  165MOL0     H22736  10.192   2.433   4.339  0.5307 -1.0942  2.3467
  165MOL0     H22737  10.288   2.294   4.365  1.0640 -0.8255 -0.8145
  165MOL0     H22738  10.428   2.508   4.203 -0.2307  0.4718  0.4325
  165MOL0     H22739  10.493   2.404   4.325 -0.8349 -1.2031  0.7576
  165MOL0     H22740  10.423   2.532   4.500  0.6977  1.7390  0.5600
  165MOL0     H22741  10.280   2.597   4.408 -0.3081 -0.5352 -2.9941
  165MOL0     H22742  10.554   2.684   4.324  0.7583 -1.4017  3.7684
  165MOL0     H22743  10.398   2.775   4.309 -1.1771  0.1707  1.1091
  165MOL0     H22744  10.523   2.695   4.556 -1.4260  0.4683  2.2522
  165MOL0     H22745  10.398   2.824   4.538 -0.7130  0.8085 -2.6270
  165MOL0     H22746  10.525   2.982   4.441  0.6124  3.6943  3.7719
  165MOL0     H22747  10.666   2.862   4.431 -1.6798 -3.8968 -0.5912
  165MOL0     H22748  10.524   2.974   4.687  1.5142  1.8072  0.5837
  165MOL0     H22749  10.659   3.057   4.612 -4.1924  2.8904  1.0438
  165MOL0     H22750  10.082   1.964   4.142  3.8983  0.4930 -1.5781
  165MOL0     H22751   9.950   1.873   3.956  2.4766  0.0012 -0.7594
  165MOL0     H22752   9.616   2.079   3.620  0.3638 -1.5105  2.3627
  165MOL0     H22753   9.466   2.040   3.421  0.7746 -0.2328 -2.9864
  165MOL0     H22754   9.691   1.109   2.389 -0.2274  3.3104 -0.9880
  165MOL0     H22755   9.814   0.903   2.465  2.7320 -1.5646 -1.6875
  165MOL0     H22756  10.178   0.564   2.354 -3.2473  3.7470  0.0450
  165MOL0     H22757  10.341   0.417   2.436 -0.0048  1.2465 -2.0493
  165MOL0     H22758  10.502   0.312   2.560 -1.1079  0.0622 -0.5164
  165MOL0     H22759  10.530   0.231   2.714  0.2144 -0.1854  1.4358
  165MOL0     H22760  10.393   0.145   2.470  1.2053 -1.6034  0.4777
  165MOL0     H22761  10.271   0.155   2.577  0.6159 -0.6044  0.3536
  165MOL0     H22762  10.534   0.016   2.645 -0.3968  0.0734  4.2928
  165MOL0     H22763  10.378   0.012   2.739  0.6834  0.6744  1.0148
  165MOL0     H22764  10.365  -0.073   2.457  1.9535  3.1944  0.8968
  165MOL0     H22765  10.249  -0.103   2.584  0.3164 -0.8430  0.8793
  165MOL0     H22766  10.503  -0.426   2.632  0.7795  0.6273  0.9209
  165MOL0     H22767  10.256   0.563   2.844  0.7923  0.6518 -1.0192
  165MOL0     H22768  10.170   0.843   2.773  1.3854 -0.1660  2.2085
  165MOL0     H22769   9.994   0.777   2.749 -0.2945 -2.0745  1.3116
  165MOL0     H22770  10.104   0.712   2.874 -3.0876 -2.6505 -1.3334
  166MOL0     O22771   3.107  11.338   9.979  0.1583 -0.5135 -0.0091
  166MOL0     C22772   3.057  11.268   9.896  0.3616  0.7610 -0.0060
  166MOL0     O22773   2.994  11.149   9.923 -0.6828 -0.4137 -0.7771
  166MOL0     C22774   2.927  11.081   9.831  1.0103  0.9820 -0.4373
  166MOL0     C22775   2.783  11.053   9.854  0.6552  0.7143 -1.2670
  166MOL0     C22776   2.715  10.986   9.754 -0.7477  0.2074  1.0767
  166MOL0     C22777   2.776  10.939   9.638 -0.1804 -0.8291 -0.9896
  166MOL0     O22778   2.703  10.851   9.562  0.1866  0.6216  0.4654
  166MOL0     C22779   2.730  10.875   9.424  0.3163  0.7919  0.1973
  166MOL0     C22780   2.649  10.786   9.333 -0.4746 -0.2054 -0.1557
  166MOL0     C22781   2.666  10.834   9.184 -0.9379  0.6168 -0.0093
  166MOL0     C22782   2.625  10.733   9.079 -0.1537  0.4331  0.3712
  166MOL0     C22783   2.663  10.771   8.932  0.0494 -0.2577 -0.5439
  166MOL0     C22784   2.811  10.748   8.897 -0.0970 -0.0345 -0.4978
  166MOL0     C22785   2.837  10.823   8.761  0.0506 -0.6396  0.5908
  166MOL0     C22786   2.978  10.791   8.705  0.4454 -0.6374 -1.2375
  166MOL0     N22787   2.954  10.685   8.601  0.3912  0.5008  0.2766
  166MOL0     C22788   2.945  10.551   8.619  0.0804  0.3201 -0.2108
  166MOL0     C22789   2.906  10.499   8.501 -0.5086  0.6421  0.4688
  166MOL0     C22790   2.901  10.351   8.450 -0.3369 -0.3771 -0.0339
  166MOL0     C22791   3.045  10.308   8.445 -0.2494  0.2430  0.6178
  166MOL0     C22792   3.042  10.171   8.377  0.8017  0.0848 -0.2536
  166MOL0     C22793   3.185  10.139   8.319  0.6003 -0.1304  0.5068
  166MOL0     O22794   3.285  10.139   8.421 -0.1751 -0.1596 -0.3383
  166MOL0     C22795   3.418  10.145   8.392  0.2076 -0.2730  0.1262
  166MOL0     C22796   3.504  10.130   8.500  0.2431  0.3696  1.0011
  166MOL0     C22797   3.634  10.115   8.485 -1.5254 -0.1685  0.2046
  166MOL0     C22798   3.717  10.106   8.613  0.2317  0.2391  0.3211
  166MOL0     C22799   3.696  10.115   8.352 -0.0810 -0.9656  0.1614
  166MOL0     C22800   3.837  10.082   8.334 -0.8006  1.0993 -0.3668
  166MOL0     O22801   3.891   9.989   8.425  0.0806 -0.1026  0.1101
  166MOL0     C22802   4.027   9.953   8.395 -0.3344  0.9752  0.3798
  166MOL0     C22803   4.135  10.031   8.413  1.0107 -0.0377  0.2227
  166MOL0     C22804   4.255  10.005   8.360  0.3440  0.4079  0.4142
  166MOL0     C22805   4.272   9.872   8.298 -0.6997 -0.8040 -0.5914
  166MOL0     O22806   4.388   9.817   8.257 -0.4799 -0.0279  0.3480
  166MOL0     C22807   4.515   9.874   8.299  0.3005 -0.0386 -0.2653
  166MOL0     C22808   4.632   9.798   8.228  0.4116  0.0167  0.6018
  166MOL0     C22809   4.674   9.667   8.297  0.2786 -0.9115  0.2224
  166MOL0     C22810   4.807   9.611   8.237  0.7387  0.1412 -0.5706
  166MOL0     C22811   4.842   9.484   8.324 -0.9432 -0.6000 -0.0239
  166MOL0     C22812   4.941   9.532   8.438  0.3242 -1.1889 -0.4443
  166MOL0     C22813   5.088   9.535   8.388  0.1608 -0.6954 -0.1796
  166MOL0     C22814   5.173   9.574   8.502  0.8628  0.4628 -0.2073
  166MOL0    Cl22815   5.189   9.433   8.616  0.2029  0.0027 -0.3553
  166MOL0     C22816   4.162   9.785   8.282 -1.0143 -1.2415  0.2630
  166MOL0     C22817   4.043   9.831   8.334 -0.1345  0.8616  0.2294
  166MOL0     O22818   3.888  10.125   8.236 -0.0632 -0.6531  0.1734
  166MOL0     C22819   3.606  10.152   8.246  0.4011  0.3236 -0.2666
  166MOL0     C22820   3.468  10.164   8.267  0.2050 -0.4340  0.0708
  166MOL0     N22821   2.888  10.605   8.409 -0.4423  0.1972  0.1366
  166MOL0     N22822   2.927  10.713   8.472  0.3057  1.0898 -0.2324
  166MOL0     C22823   2.916  10.951   9.633 -0.1196  0.0200 -0.4309
  166MOL0     C22824   2.996  11.022   9.729 -0.6201 -1.3372 -0.2344
  166MOL0     C22825   3.073  11.318   9.762 -0.0838 -0.3574  0.0859
  166MOL0     C22826   2.958  11.322   9.676 -0.6481 -0.3689  0.0050
  166MOL0     C22827   2.965  11.368   9.541  0.3011 -0.1749 -1.1004
  166MOL0     C22828   3.089  11.420   9.491  0.9548  0.5032 -0.3164
  166MOL0     O22829   3.093  11.496   9.375 -0.0634 -0.2925 -0.3885
  166MOL0     C22830   3.083  11.635   9.406  0.3794 -0.2071 -0.0729
  166MOL0     C22831   3.214  11.711   9.361 -0.2580 -0.3028 -0.1467
  166MOL0     C22832   3.240  11.692   9.210 -0.0045 -0.4524  0.0248
  166MOL0     C22833   3.390  11.706   9.183 -0.0312  0.0561 -0.5440
  166MOL0     C22834   3.407  11.687   9.044  0.3553 -0.3699  0.1780
  166MOL0     C22835   3.415  11.658   8.924  0.2288  0.4005 -0.9820
  166MOL0     C22836   3.199  11.417   9.576  0.6993 -0.6866  0.7057
  166MOL0     C22837   3.193  11.370   9.712 -0.2764 -1.1652  0.0620
  166MOL0     C22838   3.328  11.356   9.779 -0.6308  0.0518  0.5047
  166MOL0     H22839   2.731  11.116   9.926 -2.4980  0.0325 -2.7672
  166MOL0     H22840   2.608  10.967   9.759 -0.3520 -2.6964  0.2883
  166MOL0     H22841   2.836  10.857   9.403  0.3799 -0.2773  1.3075
  166MOL0     H22842   2.709  10.979   9.399  1.1173  0.6672 -1.0990
  166MOL0     H22843   2.683  10.682   9.341 -1.8048 -0.9634 -3.1138
  166MOL0     H22844   2.544  10.786   9.365 -0.0704  2.1555  1.3752
  166MOL0     H22845   2.618  10.930   9.162 -0.7000  0.6234 -0.5030
  166MOL0     H22846   2.771  10.864   9.173 -1.2210  1.0728 -1.9792
  166MOL0     H22847   2.676  10.642   9.111  0.3923  0.9346  0.9748
  166MOL0     H22848   2.516  10.727   9.083 -0.6708  5.3857 -0.2503
  166MOL0     H22849   2.630  10.873   8.909 -0.3412 -0.2455  0.0522
  166MOL0     H22850   2.604  10.715   8.858 -1.2084  1.5851 -1.0250
  166MOL0     H22851   2.867  10.799   8.976 -2.6247  2.2021  0.0217
  166MOL0     H22852   2.836  10.642   8.894 -0.0673 -0.0557  0.2745
  166MOL0     H22853   2.824  10.931   8.768  1.2714 -0.2340 -2.0750
  166MOL0     H22854   2.763  10.794   8.685 -0.1837 -0.5561  0.7860
  166MOL0     H22855   3.023  10.882   8.664 -2.5121  1.7920  0.5519
  166MOL0     H22856   3.034  10.745   8.787 -0.8914 -0.5408 -0.2343
  166MOL0     H22857   2.969  10.485   8.702 -2.0005 -0.7697 -0.4050
  166MOL0     H22858   2.853  10.337   8.354 -2.1479  1.2817  0.5494
  166MOL0     H22859   2.840  10.289   8.517 -2.1270  1.0183 -0.2879
  166MOL0     H22860   3.099  10.382   8.385  2.9869  0.5159  3.5536
  166MOL0     H22861   3.093  10.301   8.543  0.0145  0.9608  0.5520
  166MOL0     H22862   3.012  10.086   8.440 -2.3234  1.6863  0.6376
  166MOL0     H22863   2.969  10.156   8.297 -0.8582 -0.2797  1.2502
  166MOL0     H22864   3.170  10.046   8.262 -2.6626 -0.2327  1.3175
  166MOL0     H22865   3.205  10.217   8.245  0.2223  0.4465  1.0081
  166MOL0     H22866   3.454  10.104   8.592 -0.9636  1.2676  0.6308
  166MOL0     H22867   3.761  10.012   8.645  2.0044  1.2118  0.9073
  166MOL0     H22868   3.666  10.143   8.703  1.0816 -0.1277  0.9656
  166MOL0     H22869   3.802  10.172   8.592 -0.6554  1.7292  1.2269
  166MOL0     H22870   4.117  10.122   8.470 -1.4763  0.2629 -0.8891
  166MOL0     H22871   4.326  10.083   8.387  2.1415 -0.9144 -0.3104
  166MOL0     H22872   4.526   9.977   8.261  0.5814 -0.1637 -0.5253
  166MOL0     H22873   4.525   9.861   8.407 -2.5257 -4.8479 -0.3173
  166MOL0     H22874   4.588   9.791   8.128 -1.5548  1.2940  1.3122
  166MOL0     H22875   4.719   9.865   8.223 -0.2788  0.8535 -1.5255
  166MOL0     H22876   4.598   9.591   8.277  0.6561 -0.6306 -2.6645
  166MOL0     H22877   4.679   9.684   8.405 -3.5943  4.5237 -0.0333
  166MOL0     H22878   4.887   9.685   8.238 -0.0859  1.0994 -1.8187
  166MOL0     H22879   4.793   9.581   8.133 -3.5760  3.4535 -1.2401
  166MOL0     H22880   4.753   9.443   8.371 -1.1670  0.5158  0.5602
  166MOL0     H22881   4.903   9.411   8.269  0.8346  0.5260  0.3496
  166MOL0     H22882   4.926   9.463   8.521 -0.1705 -0.6793 -0.0994
  166MOL0     H22883   4.917   9.633   8.472  3.5513 -0.3145 -0.4430
  166MOL0     H22884   5.097   9.610   8.308 -0.3968  1.7442  1.9070
  166MOL0     H22885   5.115   9.433   8.359  1.5687 -0.7978  1.3926
  166MOL0     H22886   5.143   9.665   8.554 -1.0082  0.2167 -0.7727
  166MOL0     H22887   5.270   9.580   8.453 -0.0254 -1.9212 -2.4932
  166MOL0     H22888   4.183   9.698   8.221 -0.7748 -2.1464  1.6033
  166MOL0     H22889   3.969   9.751   8.338  0.2802  0.3083 -1.9559
  166MOL0     H22890   3.631  10.162   8.140 -0.1401  1.6544 -0.2969
  166MOL0     H22891   3.411  10.195   8.179 -0.8762  0.3308  1.0127
  166MOL0     H22892   2.967  10.886   9.563 -2.9015 -0.4617 -2.1582
  166MOL0     H22893   3.102  11.040   9.720 -1.0048  1.5467 -0.1027
  166MOL0     H22894   2.858  11.292   9.707 -1.1051  1.1800  0.1627
  166MOL0     H22895   2.875  11.394   9.486  0.3881  1.7694 -0.4310
  166MOL0     H22896   2.989  11.682   9.376  1.0835  1.8295  0.7540
  166MOL0     H22897   3.086  11.648   9.514  1.1269 -1.6873  0.1080
  166MOL0     H22898   3.289  11.668   9.428 -1.0949 -0.0702  0.9756
  166MOL0     H22899   3.209  11.818   9.385 -0.8073 -0.0355 -1.3827
  166MOL0     H22900   3.209  11.595   9.169  1.6415 -1.0893  0.1955
  166MOL0     H22901   3.186  11.765   9.149  0.8676  1.3776  1.3418
  166MOL0     H22902   3.454  11.634   9.236 -0.4507  0.6653  0.8324
  166MOL0     H22903   3.423  11.806   9.213  3.0130 -0.4500 -1.8692
  166MOL0     H22904   3.432  11.637   8.820 -1.8049 -0.9209 -1.0938
  166MOL0     H22905   3.293  11.459   9.543  1.0694  1.9549  4.4717
  166MOL0     H22906   3.408  11.393   9.714  0.2036 -1.7446  0.4496
  166MOL0     H22907   3.336  11.404   9.876  2.6337  0.8290 -0.0417
  166MOL0     H22908   3.359  11.252   9.794 -1.6585 -0.0985  1.8029
  167MOL0     O22909   1.109   2.417   4.030 -0.1054  0.7574  0.1046
  167MOL0     C22910   0.998   2.434   4.076  0.7638 -0.1988  0.2230
  167MOL0     O22911   0.954   2.553   4.139 -0.5765  0.8761 -0.0992
  167MOL0     C22912   1.028   2.671   4.137  0.3825 -0.3835 -0.9155
  167MOL0     C22913   1.166   2.667   4.166 -0.4807 -0.6674 -0.5597
  167MOL0     C22914   1.241   2.785   4.172 -0.5747  0.4504  0.6500
  167MOL0     C22915   1.178   2.908   4.151 -0.9153  0.1495 -0.5605
  167MOL0     O22916   1.249   3.025   4.144  0.8644 -0.0220  0.4234
  167MOL0     C22917   1.316   3.060   4.266  0.0505 -0.0651 -0.2395
  167MOL0     C22918   1.380   3.206   4.253 -0.4305 -0.4845  0.6163
  167MOL0     C22919   1.264   3.313   4.250 -0.2076  0.1847  0.5369
  167MOL0     C22920   1.288   3.445   4.187 -0.0920 -0.7318 -0.8512
  167MOL0     C22921   1.155   3.523   4.173  0.1750 -0.2540  0.0878
  167MOL0     C22922   1.191   3.664   4.098 -0.7472 -0.6613 -0.8569
  167MOL0     C22923   1.071   3.719   4.021 -0.5865 -0.0541 -0.6370
  167MOL0     C22924   1.111   3.854   3.939 -0.1374  1.0788 -0.1607
  167MOL0     N22925   1.146   3.964   4.030 -1.3122 -0.3081  0.4619
  167MOL0     C22926   1.046   4.029   4.100  0.5611  0.6746 -0.5122
  167MOL0     C22927   1.096   4.149   4.134  0.2919 -0.1803 -0.3426
  167MOL0     C22928   1.016   4.268   4.170 -0.2569 -0.1409 -0.0906
  167MOL0     C22929   1.019   4.303   4.322  0.3743 -0.2187 -0.0605
  167MOL0     C22930   1.156   4.371   4.358  0.2852  0.1035 -0.6721
  167MOL0     C22931   1.163   4.522   4.340  0.3043 -0.8897  0.6461
  167MOL0     O22932   1.294   4.564   4.381  0.1512 -0.0899 -0.0397
  167MOL0     C22933   1.337   4.692   4.353  0.0712 -0.0092  1.0913
  167MOL0     C22934   1.261   4.788   4.300  0.2389 -0.5670 -0.9358
  167MOL0     C22935   1.307   4.923   4.277  1.1165 -0.9206  0.0158
  167MOL0     C22936   1.197   5.032   4.256 -0.9661 -0.7364 -0.6824
  167MOL0     C22937   1.445   4.951   4.302  0.1921  0.1927  1.0342
  167MOL0     C22938   1.512   5.085   4.301  0.0427 -0.8376 -0.0231
  167MOL0     O22939   1.439   5.195   4.332  0.7767 -0.7975  0.5382
  167MOL0     C22940   1.484   5.324   4.310 -0.1545  1.4171  0.5412
  167MOL0     C22941   1.558   5.365   4.197 -0.1673  0.3349 -0.7112
  167MOL0     C22942   1.594   5.497   4.181 -0.0620 -0.4755  0.3271
  167MOL0     C22943   1.562   5.593   4.273  0.4802 -0.3559  0.2100
  167MOL0     O22944   1.617   5.719   4.256  0.0749  0.4387 -0.0537
  167MOL0     C22945   1.545   5.847   4.281  1.0189  0.0359  0.1571
  167MOL0     C22946   1.421   5.863   4.179  0.0121  0.0348 -0.5408
  167MOL0     C22947   1.451   5.841   4.032  0.2448 -1.4546  0.6738
  167MOL0     C22948   1.548   5.949   3.983 -0.5323  0.3946 -0.1589
  167MOL0     C22949   1.569   5.953   3.830 -0.8048 -1.4539  0.0514
  167MOL0     C22950   1.640   5.822   3.778  0.7212 -0.9837  0.3724
  167MOL0     C22951   1.795   5.837   3.795 -0.9672 -0.3962  0.3730
  167MOL0     C22952   1.867   5.719   3.722 -0.0266 -0.5390  0.8448
  167MOL0    Cl22953   2.038   5.699   3.752  0.0279  0.3125  0.0935
  167MOL0     C22954   1.486   5.556   4.386  0.2011 -0.0731 -0.1839
  167MOL0     C22955   1.444   5.423   4.395  0.0997  0.5230 -0.6444
  167MOL0     O22956   1.633   5.096   4.275  0.0399  0.2333 -0.2201
  167MOL0     C22957   1.527   4.838   4.329 -0.2786 -0.1060  0.1358
  167MOL0     C22958   1.472   4.717   4.357  0.5187  0.0904 -0.3438
  167MOL0     N22959   1.230   4.148   4.095 -0.2576 -0.6723 -0.5156
  167MOL0     N22960   1.260   4.035   4.052 -0.2052 -0.1802 -0.9308
  167MOL0     C22961   1.039   2.908   4.138 -0.2901  0.0247 -0.4602
  167MOL0     C22962   0.965   2.794   4.122 -0.0798 -0.3506  0.3365
  167MOL0     C22963   0.902   2.321   4.081  0.0203 -0.1905 -0.9076
  167MOL0     C22964   0.825   2.293   4.200 -0.4633  0.1156 -0.6778
  167MOL0     C22965   0.744   2.177   4.206  0.7561  0.3295 -0.2078
  167MOL0     C22966   0.735   2.090   4.098  0.9734 -0.3689 -0.1026
  167MOL0     O22967   0.667   1.976   4.122  0.9482  0.4204 -0.6533
  167MOL0     C22968   0.628   1.890   4.005 -0.5177  0.0094 -0.0020
  167MOL0     C22969   0.723   1.771   4.015 -0.3757 -0.4124  0.2596
  167MOL0     C22970   0.740   1.699   3.875  0.0055 -0.0429  0.4189
  167MOL0     C22971   0.674   1.561   3.875  0.3515  0.6732  0.1928
  167MOL0     C22972   0.631   1.515   3.739  1.2906 -0.1461 -0.4043
  167MOL0     C22973   0.634   1.447   3.638 -1.0503 -0.3718  0.0808
  167MOL0     C22974   0.806   2.124   3.983 -0.4046  0.2845 -0.7537
  167MOL0     C22975   0.885   2.237   3.971  0.9114  0.1301 -0.0593
  167MOL0     C22976   0.958   2.266   3.845 -0.1274  0.3724 -0.0858
  167MOL0     H22977   1.236   2.587   4.184  0.8313  0.7197  0.7596
  167MOL0     H22978   1.348   2.778   4.190 -0.9129  1.9159  3.9321
  167MOL0     H22979   1.400   2.989   4.269  0.8749  0.4057 -4.8738
  167MOL0     H22980   1.256   3.061   4.357 -1.4655  1.9322 -1.1959
  167MOL0     H22981   1.440   3.227   4.342  1.3586 -2.8473  0.0871
  167MOL0     H22982   1.441   3.199   4.163 -0.9542  0.6453  0.1504
  167MOL0     H22983   1.177   3.264   4.207 -1.2624  0.3749  2.3439
  167MOL0     H22984   1.229   3.339   4.350 -1.7134 -3.6160  1.1483
  167MOL0     H22985   1.360   3.503   4.246  0.3052  1.6202 -3.4387
  167MOL0     H22986   1.341   3.439   4.092  2.6042  3.2588  0.1305
  167MOL0     H22987   1.114   3.545   4.272  0.7721 -1.1781  0.5508
  167MOL0     H22988   1.086   3.459   4.116 -0.2732  1.2801 -1.1681
  167MOL0     H22989   1.223   3.733   4.177  0.6401 -2.1619 -0.0355
  167MOL0     H22990   1.270   3.652   4.024 -0.2317 -0.7369 -0.3041
  167MOL0     H22991   0.986   3.751   4.082  0.2690  2.9633 -0.8390
  167MOL0     H22992   1.028   3.653   3.946  0.2236  0.3209 -1.4408
  167MOL0     H22993   1.196   3.835   3.874 -0.4332  0.7462 -0.4551
  167MOL0     H22994   1.029   3.891   3.877 -0.6606  2.1678  1.1184
  167MOL0     H22995   0.945   3.991   4.108  1.3627 -1.1310  2.4819
  167MOL0     H22996   0.911   4.259   4.140 -0.2497 -0.5384  0.0041
  167MOL0     H22997   1.051   4.359   4.120 -0.5133  1.0869  1.8588
  167MOL0     H22998   0.936   4.367   4.353  2.1443  1.9512  0.4849
  167MOL0     H22999   1.014   4.206   4.372  0.0182 -2.6007 -4.2744
  167MOL0     H23000   1.166   4.348   4.464 -3.5214  0.1650 -0.1598
  167MOL0     H23001   1.227   4.309   4.302 -2.1491 -4.0897  0.4379
  167MOL0     H23002   1.150   4.546   4.234 -1.1885 -2.6817  0.3735
  167MOL0     H23003   1.081   4.573   4.393  1.2982  0.6146  0.7738
  167MOL0     H23004   1.154   4.774   4.292  0.4903 -2.1023 -1.9624
  167MOL0     H23005   1.214   5.116   4.324  1.5815 -0.8756 -1.0510
  167MOL0     H23006   1.103   4.977   4.259  0.4343 -3.2704  0.4506
  167MOL0     H23007   1.207   5.066   4.152  0.1020  0.1267 -0.3134
  167MOL0     H23008   1.590   5.290   4.126 -1.2405 -1.9059  1.0369
  167MOL0     H23009   1.646   5.508   4.087 -0.0430  2.7252  0.6019
  167MOL0     H23010   1.503   5.865   4.380  2.4961  2.1207  0.4555
  167MOL0     H23011   1.604   5.939   4.276 -0.4265  1.1237  1.7770
  167MOL0     H23012   1.349   5.785   4.202 -1.3681  2.0069  2.5284
  167MOL0     H23013   1.364   5.953   4.201 -2.4545 -0.8308 -2.8667
  167MOL0     H23014   1.355   5.863   3.984  0.0653 -1.7378  0.9031
  167MOL0     H23015   1.486   5.742   4.002 -0.1842 -0.4564 -3.9818
  167MOL0     H23016   1.644   5.939   4.033  0.3675  0.1747 -1.8373
  167MOL0     H23017   1.520   6.051   4.013  2.5070  0.2266  4.1096
  167MOL0     H23018   1.474   5.966   3.779  0.2157  0.6696 -1.4586
  167MOL0     H23019   1.631   6.040   3.806 -0.2195 -1.8462  0.1100
  167MOL0     H23020   1.633   5.812   3.669 -1.6251 -1.4208  0.5122
  167MOL0     H23021   1.604   5.728   3.823  1.0703 -0.5739  1.5508
  167MOL0     H23022   1.822   5.831   3.901 -2.4683 -1.3267  0.7421
  167MOL0     H23023   1.838   5.932   3.764 -1.9386  1.0390  3.0984
  167MOL0     H23024   1.842   5.717   3.616 -1.3423 -1.4475  1.1398
  167MOL0     H23025   1.822   5.629   3.765 -1.6323 -0.7040 -1.0358
  167MOL0     H23026   1.471   5.620   4.472 -0.9828 -1.1817  0.4709
  167MOL0     H23027   1.396   5.388   4.486 -0.2111  0.0035 -1.0017
  167MOL0     H23028   1.634   4.839   4.348 -0.4878 -0.4990  1.4410
  167MOL0     H23029   1.533   4.640   4.403 -1.5170 -0.1521  2.2412
  167MOL0     H23030   1.000   3.008   4.122  0.4164  0.4912  0.6304
  167MOL0     H23031   0.858   2.793   4.103 -0.0431  2.3004 -0.4878
  167MOL0     H23032   0.835   2.359   4.286  0.9439 -0.5484 -0.2871
  167MOL0     H23033   0.685   2.158   4.295 -1.0644  2.0973 -0.9596
  167MOL0     H23034   0.523   1.862   4.018 -0.3708 -0.3291  0.5085
  167MOL0     H23035   0.634   1.946   3.912 -3.9012 -0.1752 -0.4481
  167MOL0     H23036   0.680   1.704   4.091 -1.0801 -0.2226  0.0372
  167MOL0     H23037   0.818   1.806   4.057 -1.6300  1.6690  1.5621
  167MOL0     H23038   0.700   1.775   3.808  2.4633  1.2302  0.2759
  167MOL0     H23039   0.844   1.699   3.841 -0.5663 -1.0053 -1.4980
  167MOL0     H23040   0.583   1.560   3.937  2.1866 -1.6939  3.1249
  167MOL0     H23041   0.744   1.485   3.908  0.3240 -1.1741 -3.5276
  167MOL0     H23042   0.645   1.392   3.546 -0.2614  1.4427 -0.9719
  167MOL0     H23043   0.805   2.052   3.902  1.4060  0.8414 -1.3170
  167MOL0     H23044   0.956   2.374   3.826  2.8710  0.3674 -0.9978
  167MOL0     H23045   1.066   2.249   3.848  0.1234  1.9264  1.0807
  167MOL0     H23046   0.924   2.203   3.763  1.9326  0.6042 -1.1894
  168MOL0     O23047   7.158   9.110   6.676 -0.3492  0.9412  0.1686
  168MOL0     C23048   7.083   9.018   6.718 -0.0961 -0.0897  0.9625
  168MOL0     O23049   7.113   8.885   6.726 -0.0828 -0.6340  0.0718
  168MOL0     C23050   7.204   8.829   6.641  0.1365  0.7609 -0.1476
  168MOL0     C23051   7.295   8.733   6.689  0.5168  0.2865 -0.2707
  168MOL0     C23052   7.364   8.665   6.591 -0.3182 -0.2021  0.1096
  168MOL0     C23053   7.349   8.684   6.449 -0.7652  0.1807 -0.2452
  168MOL0     O23054   7.417   8.623   6.350 -0.4491  0.1205  0.3970
  168MOL0     C23055   7.430   8.479   6.353 -0.7185 -0.2581  0.5975
  168MOL0     C23056   7.441   8.427   6.209 -0.9565 -0.6049 -0.0374
  168MOL0     C23057   7.451   8.271   6.212  0.3841  0.1485  0.8792
  168MOL0     C23058   7.319   8.209   6.267  0.4777  0.2709 -0.3120
  168MOL0     C23059   7.310   8.052   6.255 -0.8893  0.9716  0.0906
  168MOL0     C23060   7.181   7.991   6.303  0.5071  0.3361  0.1615
  168MOL0     C23061   7.194   7.844   6.253 -0.2681  0.3769 -1.3066
  168MOL0     C23062   7.069   7.757   6.275 -0.2632 -0.7875  0.8556
  168MOL0     N23063   7.099   7.627   6.334 -0.7791 -0.3453  0.1425
  168MOL0     C23064   7.130   7.508   6.268  1.0362 -0.6926  0.5233
  168MOL0     C23065   7.162   7.428   6.365  0.2633  1.2476  0.0253
  168MOL0     C23066   7.220   7.293   6.351 -0.2794 -0.1530  0.3119
  168MOL0     C23067   7.363   7.282   6.396  0.6466 -0.6276  0.9000
  168MOL0     C23068   7.408   7.139   6.363 -0.8953  0.8747  0.3356
  168MOL0     C23069   7.531   7.104   6.444 -0.4938  0.5898 -0.2788
  168MOL0     O23070   7.587   6.970   6.425 -0.2549 -0.2405  0.1493
  168MOL0     C23071   7.638   6.918   6.314 -0.9461  0.3239  0.5893
  168MOL0     C23072   7.654   6.973   6.187  0.6440 -0.3750  0.3628
  168MOL0     C23073   7.737   6.910   6.090  1.3200 -0.4096 -0.5361
  168MOL0     C23074   7.750   6.997   5.967  0.2181  0.4683  0.0506
  168MOL0     C23075   7.778   6.778   6.109  0.0887 -0.0419 -0.7228
  168MOL0     C23076   7.823   6.691   5.998  0.1262  0.0855 -0.6946
  168MOL0     O23077   7.884   6.577   6.045 -0.0127 -0.3436 -0.1479
  168MOL0     C23078   7.921   6.480   5.962 -0.8298 -0.6858  0.2588
  168MOL0     C23079   8.050   6.427   5.968  1.1668 -0.4968 -0.0696
  168MOL0     C23080   8.099   6.321   5.891  0.2700 -0.3903 -0.0109
  168MOL0     C23081   8.012   6.271   5.790  0.1119 -0.0089 -0.6607
  168MOL0     O23082   8.042   6.152   5.726 -0.2765 -0.0163  0.7701
  168MOL0     C23083   8.107   6.152   5.598  0.2009 -0.4918 -1.2337
  168MOL0     C23084   8.260   6.118   5.631  0.2204  0.1898  0.0952
  168MOL0     C23085   8.345   6.079   5.514 -0.1077 -0.0805 -0.5761
  168MOL0     C23086   8.271   6.028   5.383 -0.2913  0.1010  0.4499
  168MOL0     C23087   8.368   5.964   5.279  1.1595 -0.0662 -0.2935
  168MOL0     C23088   8.398   5.825   5.332  0.2547 -0.1498  0.0619
  168MOL0     C23089   8.478   5.745   5.226  0.3952 -0.0874  0.2674
  168MOL0     C23090   8.531   5.601   5.257 -0.3100 -0.6480 -0.5596
  168MOL0    Cl23091   8.682   5.609   5.355  0.7909  0.6635 -0.0360
  168MOL0     C23092   7.879   6.330   5.776 -0.2284 -0.1888  0.3123
  168MOL0     C23093   7.839   6.432   5.862  0.6982  1.0770 -0.0886
  168MOL0     O23094   7.812   6.724   5.876 -0.5665 -0.0580  1.2044
  168MOL0     C23095   7.758   6.721   6.237 -0.3350 -1.1878 -0.9046
  168MOL0     C23096   7.691   6.798   6.337 -0.3405  0.4399  0.7248
  168MOL0     N23097   7.139   7.492   6.484 -0.6216  0.2352 -0.3674
  168MOL0     N23098   7.105   7.611   6.471 -0.7583 -0.2455 -0.4542
  168MOL0     C23099   7.264   8.790   6.406 -0.9655 -0.0092  0.0316
  168MOL0     C23100   7.196   8.858   6.507  0.1850  0.2084 -0.6232
  168MOL0     C23101   6.962   9.060   6.803  1.0188  0.7063  0.8594
  168MOL0     C23102   6.952   9.004   6.929 -0.1100  0.2640 -0.2787
  168MOL0     C23103   6.837   9.042   7.011  0.7060  0.5611 -0.2544
  168MOL0     C23104   6.734   9.122   6.955  0.0515 -0.5855 -0.6464
  168MOL0     O23105   6.626   9.166   7.035  0.4861 -0.1589 -0.4300
  168MOL0     C23106   6.603   9.113   7.165 -0.5135  0.0618 -0.0751
  168MOL0     C23107   6.458   9.132   7.223  0.2926 -0.6911  0.9222
  168MOL0     C23108   6.355   9.009   7.180  0.5393  0.5162  0.6102
  168MOL0     C23109   6.222   8.996   7.254  0.2333  0.2324 -0.0122
  168MOL0     C23110   6.120   8.926   7.169  0.5691 -0.4367  0.3890
  168MOL0     C23111   6.020   8.867   7.115  0.9878  0.1513  0.0049
  168MOL0     C23112   6.744   9.164   6.819 -0.3820  0.2280 -1.1370
  168MOL0     C23113   6.857   9.141   6.745  0.3423 -0.2702  0.4019
  168MOL0     C23114   6.858   9.182   6.599 -0.5315 -1.1570 -0.1854
  168MOL0     H23115   7.296   8.710   6.795 -0.3626  0.4361 -0.2241
  168MOL0     H23116   7.440   8.593   6.618 -3.1028 -2.9984  1.0604
  168MOL0     H23117   7.343   8.430   6.399  1.0313 -3.7617  0.4880
  168MOL0     H23118   7.528   8.467   6.399 -0.5946  1.5505  0.9040
  168MOL0     H23119   7.346   8.458   6.164 -0.5050  2.8489  1.1127
  168MOL0     H23120   7.522   8.473   6.151 -2.5977  2.1007 -0.3783
  168MOL0     H23121   7.463   8.235   6.109  2.5328  1.2646  0.6901
  168MOL0     H23122   7.526   8.231   6.281  1.2637  0.6040  0.2056
  168MOL0     H23123   7.318   8.225   6.375  1.5241 -2.9528  0.2809
  168MOL0     H23124   7.237   8.267   6.223 -1.0771 -1.0123  0.7938
  168MOL0     H23125   7.388   8.001   6.311 -1.4801  1.2155  1.1591
  168MOL0     H23126   7.329   8.030   6.149 -3.0102 -2.3503  0.2536
  168MOL0     H23127   7.175   8.000   6.412 -2.8882  0.0017  0.0998
  168MOL0     H23128   7.097   8.052   6.266  0.1188  0.8042  1.7261
  168MOL0     H23129   7.275   7.802   6.313 -3.2919 -2.5199  1.1527
  168MOL0     H23130   7.226   7.840   6.148  0.1185 -1.2027 -1.1394
  168MOL0     H23131   7.008   7.821   6.340 -0.2494 -0.0024  0.1110
  168MOL0     H23132   7.015   7.758   6.180  0.4661  1.4946  0.3886
  168MOL0     H23133   7.140   7.500   6.160 -1.9565  0.8949  0.0253
  168MOL0     H23134   7.216   7.267   6.244  3.3485 -1.2926  0.3028
  168MOL0     H23135   7.161   7.216   6.400  3.0196 -2.1974  1.3500
  168MOL0     H23136   7.424   7.346   6.332 -1.3945 -1.6094 -2.2817
  168MOL0     H23137   7.390   7.313   6.497  2.1782 -0.1479  0.3716
  168MOL0     H23138   7.325   7.071   6.384 -0.1960  0.2787  1.2573
  168MOL0     H23139   7.414   7.125   6.255  2.1195  0.1289  0.5215
  168MOL0     H23140   7.611   7.177   6.431  0.9439 -0.8040  0.3660
  168MOL0     H23141   7.492   7.111   6.546 -0.0812  0.3485 -0.1032
  168MOL0     H23142   7.614   7.073   6.172 -0.4251 -1.1056 -2.1415
  168MOL0     H23143   7.856   7.024   5.957  0.6869  0.2374  3.3121
  168MOL0     H23144   7.683   7.083   5.968 -1.4682 -0.7677 -1.3038
  168MOL0     H23145   7.734   6.951   5.869 -3.0009  1.0340  0.2067
  168MOL0     H23146   8.111   6.464   6.050  0.1042  1.3969 -0.0688
  168MOL0     H23147   8.196   6.273   5.896 -0.4619 -1.8527  1.2066
  168MOL0     H23148   8.062   6.064   5.551 -0.2082 -1.5072  0.9530
  168MOL0     H23149   8.087   6.244   5.541 -0.2865 -1.2205 -2.2689
  168MOL0     H23150   8.306   6.204   5.680 -1.1148  0.8461  0.2392
  168MOL0     H23151   8.267   6.041   5.708  1.5277 -0.3100 -0.4880
  168MOL0     H23152   8.414   6.004   5.554 -0.1911 -0.2424 -0.7333
  168MOL0     H23153   8.412   6.164   5.504  0.8521 -0.3804  2.4054
  168MOL0     H23154   8.214   6.107   5.333 -0.1711 -0.9319 -1.3900
  168MOL0     H23155   8.199   5.952   5.414 -0.1924  0.8720  2.8091
  168MOL0     H23156   8.328   5.956   5.177  0.9947 -2.6226 -0.0874
  168MOL0     H23157   8.459   6.026   5.277  2.3565 -1.7348  0.4360
  168MOL0     H23158   8.305   5.769   5.343 -1.4635  2.5602  0.2608
  168MOL0     H23159   8.457   5.828   5.425 -0.1540  1.0921  0.3081
  168MOL0     H23160   8.560   5.809   5.191 -0.8993 -0.2490 -3.4896
  168MOL0     H23161   8.405   5.728   5.147 -1.5925 -2.0751  2.4040
  168MOL0     H23162   8.557   5.551   5.163  2.7420 -1.6214  0.6714
  168MOL0     H23163   8.454   5.553   5.318 -0.4979  0.6794  0.2812
  168MOL0     H23164   7.823   6.289   5.693  0.5768  0.0966 -0.3970
  168MOL0     H23165   7.733   6.451   5.850  0.2362 -2.0474 -2.0255
  168MOL0     H23166   7.790   6.618   6.250 -4.6446 -2.7850 -1.4692
  168MOL0     H23167   7.685   6.754   6.437  2.0994 -2.0784 -0.1019
  168MOL0     H23168   7.258   8.811   6.300 -0.2765 -3.1379 -0.7429
  168MOL0     H23169   7.137   8.938   6.463 -1.2489 -0.2698  0.3571
  168MOL0     H23170   7.026   8.938   6.973  1.3585  0.5337 -2.1966
  168MOL0     H23171   6.826   9.005   7.113  4.2381  0.4085  0.1874
  168MOL0     H23172   6.625   9.006   7.173  0.2332  0.3088  1.7392
  168MOL0     H23173   6.668   9.171   7.230 -1.2635 -0.1056  0.8431
  168MOL0     H23174   6.411   9.220   7.177  1.0949 -0.8946 -0.3311
  168MOL0     H23175   6.446   9.152   7.330 -0.7058  0.4813  0.6152
  168MOL0     H23176   6.338   9.028   7.074  4.0457 -0.6841 -0.3255
  168MOL0     H23177   6.403   8.911   7.190 -2.3363 -1.0112  0.2526
  168MOL0     H23178   6.181   9.095   7.276 -1.9099 -0.2862 -1.3824
  168MOL0     H23179   6.240   8.954   7.353 -0.9175  2.6881  1.3251
  168MOL0     H23180   5.938   8.814   7.070  1.5060 -1.0395  0.4060
  168MOL0     H23181   6.656   9.216   6.782 -0.3057  1.0736 -0.1767
  168MOL0     H23182   6.915   9.114   6.535 -0.3471 -0.4844 -0.7565
  168MOL0     H23183   6.759   9.178   6.552 -0.2990  0.4917 -0.8869
  168MOL0     H23184   6.910   9.278   6.586 -1.4275 -0.6937 -0.4952
  169MOL0     O23185   8.435   9.887   1.645 -0.2784  0.7041  0.4717
  169MOL0     C23186   8.411   9.891   1.763  0.0315 -0.3937 -0.4212
  169MOL0     O23187   8.347   9.992   1.834  0.0356 -0.7611  0.8109
  169MOL0     C23188   8.315  10.113   1.778  0.5615  0.3177  0.6169
  169MOL0     C23189   8.250  10.204   1.863 -0.7045  0.2707  0.3177
  169MOL0     C23190   8.226  10.333   1.825  0.5898 -0.9445 -0.9101
  169MOL0     C23191   8.253  10.388   1.697 -1.5127  0.1434  0.5574
  169MOL0     O23192   8.252  10.519   1.671 -0.2787 -0.5400 -0.8136
  169MOL0     C23193   8.207  10.616   1.773 -0.4586  0.0556 -0.3248
  169MOL0     C23194   8.194  10.756   1.717 -0.4060 -0.1192 -0.6772
  169MOL0     C23195   8.068  10.835   1.766 -0.1912 -0.0202 -0.2154
  169MOL0     C23196   8.103  10.883   1.902 -0.6141 -0.0466 -0.1356
  169MOL0     C23197   8.039  11.016   1.928  0.1644  0.1001 -0.0981
  169MOL0     C23198   8.083  11.078   2.060 -0.5567  1.0511 -0.1066
  169MOL0     C23199   8.071  11.231   2.056  0.4657 -0.7048  0.0285
  169MOL0     C23200   8.144  11.294   2.181  0.5439 -0.3304  0.8588
  169MOL0     N23201   8.087  11.426   2.200  0.0690 -0.3257  0.4210
  169MOL0     C23202   7.967  11.452   2.264  0.6774  0.7776  0.4155
  169MOL0     C23203   7.967  11.584   2.304  0.5408 -0.3383  0.0361
  169MOL0     C23204   7.851  11.649   2.370 -0.6612  0.4889  1.3137
  169MOL0     C23205   7.844  11.808   2.338 -0.0720  0.6658  0.4430
  169MOL0     C23206   7.707  11.864   2.395  0.2528 -0.3408  0.0619
  169MOL0     C23207   7.711  12.014   2.388 -0.0099  0.0064 -0.0488
  169MOL0     O23208   7.718  12.064   2.255  0.3212  0.4206 -0.9116
  169MOL0     C23209   7.802  12.168   2.236 -0.2671  0.5853  0.3466
  169MOL0     C23210   7.805  12.267   2.337  0.2024  0.4426  0.7107
  169MOL0     C23211   7.891  12.381   2.328  0.5117  0.1413  0.3927
  169MOL0     C23212   7.900  12.480   2.448  0.4089 -0.5807  0.9660
  169MOL0     C23213   7.970  12.397   2.209  0.4404 -0.1965 -0.6253
  169MOL0     C23214   8.062  12.512   2.182 -0.0898 -0.1672  0.1829
  169MOL0     O23215   8.082  12.527   2.042  0.4639 -0.5901  0.2288
  169MOL0     C23216   8.194  12.589   2.005  0.5103  0.2658  0.2170
  169MOL0     C23217   8.292  12.522   1.926  0.9966  0.1340  0.5977
  169MOL0     C23218   8.399  12.591   1.873  0.1764 -1.0251  0.0665
  169MOL0     C23219   8.427  12.725   1.916  0.8959  0.1063 -0.8099
  169MOL0     O23220   8.541  12.790   1.876 -0.2782 -0.4742  0.8646
  169MOL0     C23221   8.529  12.934   1.883  0.3427  0.3363  0.3659
  169MOL0     C23222   8.426  12.986   1.774  0.5567 -0.4066 -0.9558
  169MOL0     C23223   8.514  13.020   1.653 -1.0307 -0.3996 -0.3284
  169MOL0     C23224   8.438  13.039   1.524  0.0032 -0.7069  0.3581
  169MOL0     C23225   8.533  13.033   1.395 -0.1263 -0.0900 -0.8883
  169MOL0     C23226   8.603  13.158   1.386  0.6757  0.0026 -0.5176
  169MOL0     C23227   8.654  13.179   1.243  0.1210  0.6579  0.6184
  169MOL0     C23228   8.767  13.283   1.257  0.0295 -0.6057  0.0607
  169MOL0    Cl23229   8.711  13.453   1.274 -0.1962 -0.0663 -0.0639
  169MOL0     C23230   8.327  12.788   1.995  0.6576 -0.7334 -0.0188
  169MOL0     C23231   8.202  12.729   2.028 -0.3589  0.3697 -0.3596
  169MOL0     O23232   8.106  12.581   2.269 -0.3851  0.5617  0.7207
  169MOL0     C23233   7.951  12.301   2.106  0.8456  0.5409 -0.6791
  169MOL0     C23234   7.880  12.182   2.126  0.2070 -0.4122 -0.7656
  169MOL0     N23235   8.086  11.636   2.267 -0.0092  0.5788  0.2330
  169MOL0     N23236   8.161  11.542   2.207  0.0009 -0.5556  0.1461
  169MOL0     C23237   8.322  10.306   1.608 -0.8313  0.0209 -0.6857
  169MOL0     C23238   8.355  10.168   1.652 -0.5931 -0.7877  0.1146
  169MOL0     C23239   8.466   9.781   1.846 -0.4013  0.3675 -1.6858
  169MOL0     C23240   8.464   9.812   1.989 -0.4544  0.1855  0.2749
  169MOL0     C23241   8.507   9.721   2.089 -0.3747  0.1226 -0.6144
  169MOL0     C23242   8.557   9.599   2.052  0.6588 -0.3797  0.2421
  169MOL0     O23243   8.585   9.493   2.145  0.5942 -0.4474 -0.0445
  169MOL0     C23244   8.558   9.515   2.288  0.5903  0.4241  0.0584
  169MOL0     C23245   8.544   9.373   2.356 -0.1225 -0.8862 -0.5715
  169MOL0     C23246   8.654   9.272   2.372  0.4168 -0.2956 -0.3326
  169MOL0     C23247   8.781   9.348   2.424  0.5291  0.0085 -0.3323
  169MOL0     C23248   8.894   9.306   2.346 -0.2449  0.5906  0.2525
  169MOL0     C23249   9.000   9.276   2.288 -0.1769 -0.1340 -0.5652
  169MOL0     C23250   8.553   9.561   1.913  0.1255  0.1174  0.3611
  169MOL0     C23251   8.511   9.647   1.812  0.1127 -0.5066  0.3978
  169MOL0     C23252   8.527   9.612   1.662  0.3172 -0.6587 -0.8106
  169MOL0     H23253   8.236  10.180   1.968 -0.3433  2.0107  0.8089
  169MOL0     H23254   8.189  10.398   1.904  1.4140 -0.9884 -0.4782
  169MOL0     H23255   8.276  10.624   1.857 -4.4621  2.2221  3.1365
  169MOL0     H23256   8.111  10.580   1.809 -0.3504 -0.9002 -0.9516
  169MOL0     H23257   8.280  10.822   1.732 -1.3542  1.0600 -0.2584
  169MOL0     H23258   8.186  10.749   1.608  1.0605 -0.1713 -0.7943
  169MOL0     H23259   8.049  10.919   1.699 -1.1940 -0.6896 -0.7973
  169MOL0     H23260   7.979  10.770   1.772 -0.7323  0.5335 -1.8114
  169MOL0     H23261   8.073  10.807   1.975  0.0075  2.1850  2.6351
  169MOL0     H23262   8.211  10.884   1.922 -0.0909 -0.5015 -2.6021
  169MOL0     H23263   7.929  11.021   1.927  0.1694  0.2183 -0.0876
  169MOL0     H23264   8.062  11.078   1.841  3.1180 -1.1426 -0.3180
  169MOL0     H23265   8.027  11.034   2.143  0.7746 -3.1990 -1.1843
  169MOL0     H23266   8.188  11.056   2.080  0.4555  2.3768 -3.3192
  169MOL0     H23267   7.965  11.255   2.067  0.2658 -0.5201 -1.8875
  169MOL0     H23268   8.109  11.285   1.968  0.2141  0.0260  0.3640
  169MOL0     H23269   8.121  11.240   2.273 -0.1740  2.4046  2.3954
  169MOL0     H23270   8.251  11.310   2.162  0.1456  0.6394 -0.7577
  169MOL0     H23271   7.890  11.376   2.268  1.5138 -0.1592 -0.6100
  169MOL0     H23272   7.849  11.623   2.476  2.5781 -0.1494  1.2900
  169MOL0     H23273   7.759  11.604   2.330  0.4095 -0.6532  0.0466
  169MOL0     H23274   7.915  11.866   2.398 -2.4017  4.4042 -0.0954
  169MOL0     H23275   7.860  11.825   2.231 -1.1740  2.0659  0.4729
  169MOL0     H23276   7.612  11.833   2.350  0.7676 -1.5935 -0.1762
  169MOL0     H23277   7.694  11.831   2.499 -1.1113  2.6941  0.9947
  169MOL0     H23278   7.615  12.045   2.432  0.0652  2.5203 -1.4653
  169MOL0     H23279   7.785  12.045   2.462 -0.6784 -0.0381  0.6625
  169MOL0     H23280   7.742  12.269   2.426  1.8945  0.7732  1.9643
  169MOL0     H23281   7.997  12.478   2.498  1.0006 -1.2410 -0.1806
  169MOL0     H23282   7.826  12.449   2.523  0.7916  1.0337  2.0576
  169MOL0     H23283   7.887  12.584   2.416  2.5890 -0.9284 -1.3046
  169MOL0     H23284   8.270  12.417   1.912 -0.3670  0.2620  1.5738
  169MOL0     H23285   8.463  12.540   1.803  4.1826 -0.7563  3.1491
  169MOL0     H23286   8.499  12.978   1.979 -1.3885  0.8714 -0.3716
  169MOL0     H23287   8.624  12.980   1.855 -0.6860  1.3757 -1.6373
  169MOL0     H23288   8.347  12.912   1.758 -0.7800  0.1980  2.0731
  169MOL0     H23289   8.378  13.080   1.804 -0.2945 -0.4395 -2.1392
  169MOL0     H23290   8.596  12.950   1.631  0.0374  1.1064 -1.3703
  169MOL0     H23291   8.564  13.114   1.680 -2.4138 -0.1515  1.4874
  169MOL0     H23292   8.392  13.138   1.524  3.5132  1.0899  1.4109
  169MOL0     H23293   8.369  12.955   1.514  0.1344 -0.7074 -0.6054
  169MOL0     H23294   8.595  12.944   1.407  1.0786  0.7466 -0.7074
  169MOL0     H23295   8.465  13.019   1.311  0.3244 -0.2080 -1.2316
  169MOL0     H23296   8.688  13.155   1.454 -0.6969  1.0821  1.3274
  169MOL0     H23297   8.531  13.237   1.410 -1.3457 -1.1863 -2.2927
  169MOL0     H23298   8.586  13.228   1.173  2.8990  1.1558 -1.9609
  169MOL0     H23299   8.689  13.084   1.201  0.5887  1.8097 -1.7906
  169MOL0     H23300   8.825  13.259   1.168  0.2752 -0.3879  0.1613
  169MOL0     H23301   8.834  13.256   1.340 -2.5308  0.3965  2.6225
  169MOL0     H23302   8.328  12.891   2.027  1.5903 -1.0791  1.1286
  169MOL0     H23303   8.122  12.769   2.088 -0.9293 -0.2597 -0.6861
  169MOL0     H23304   7.996  12.290   2.007  0.7364  0.3531 -0.7088
  169MOL0     H23305   7.884  12.106   2.048 -3.8702 -1.2572 -0.4142
  169MOL0     H23306   8.359  10.336   1.511 -2.8810 -0.2874 -1.6260
  169MOL0     H23307   8.409  10.102   1.585 -1.4542 -0.4133 -1.0074
  169MOL0     H23308   8.432   9.902   2.040 -0.1477 -1.5157  3.8640
  169MOL0     H23309   8.506   9.750   2.194  0.3926 -0.3802 -0.4614
  169MOL0     H23310   8.633   9.570   2.345 -0.0495  0.2314  1.1023
  169MOL0     H23311   8.467   9.574   2.297  0.3585  1.1382 -4.3717
  169MOL0     H23312   8.460   9.320   2.311 -1.0517  1.3642 -1.6722
  169MOL0     H23313   8.515   9.396   2.459  1.1563  2.0295 -0.7592
  169MOL0     H23314   8.630   9.186   2.436 -1.7105  1.1428  0.9418
  169MOL0     H23315   8.666   9.226   2.274 -0.7902  2.0159 -1.6439
  169MOL0     H23316   8.794   9.320   2.529  0.9216 -0.0855 -0.4018
  169MOL0     H23317   8.779   9.457   2.427 -2.9310  0.0280  1.1594
  169MOL0     H23318   9.101   9.268   2.253 -0.8145  1.0893 -2.9161
  169MOL0     H23319   8.586   9.460   1.891  0.3119  0.2456  0.0415
  169MOL0     H23320   8.582   9.695   1.616 -0.3452 -0.1961 -0.7950
  169MOL0     H23321   8.581   9.524   1.628  2.3653  1.1163 -2.4352
  169MOL0     H23322   8.434   9.604   1.604  1.1709  1.3771 -2.6043
  170MOL0     O23323  10.380   3.112   1.422 -0.6392 -0.2211 -0.3866
  170MOL0     C23324  10.338   3.075   1.315 -0.1012  0.6757  0.1333
  170MOL0     O23325  10.408   2.997   1.221 -0.2136 -0.5285 -0.2122
  170MOL0     C23326  10.525   2.939   1.276 -0.1795  0.5834 -0.0877
  170MOL0     C23327  10.513   2.835   1.372  0.6718 -0.4456  0.5069
  170MOL0     C23328  10.629   2.762   1.414  0.3158 -1.0127 -0.0792
  170MOL0     C23329  10.752   2.787   1.355  0.8483 -0.5811  0.5718
  170MOL0     O23330  10.868   2.726   1.382 -0.3027 -0.3276  0.1027
  170MOL0     C23331  10.890   2.672   1.512  0.0882 -0.4329  0.2084
  170MOL0     C23332  11.032   2.699   1.562 -0.4245  0.0396  0.5316
  170MOL0     C23333  11.119   2.574   1.556  0.3454 -0.4501 -0.1532
  170MOL0     C23334  11.254   2.620   1.601 -0.4210  0.2816  0.0407
  170MOL0     C23335  11.350   2.503   1.623 -0.2366  0.1881 -0.3371
  170MOL0     C23336  11.298   2.379   1.708 -1.3432 -0.0267  0.5909
  170MOL0     C23337  11.235   2.414   1.850 -0.3451  0.2089 -0.0526
  170MOL0     C23338  11.353   2.450   1.944  0.1626  0.0249  0.0433
  170MOL0     N23339  11.311   2.502   2.078 -0.4319 -0.2971 -0.3904
  170MOL0     C23340  11.265   2.631   2.119 -0.0821  0.0173 -0.5086
  170MOL0     C23341  11.246   2.623   2.252  0.3117  0.3919 -0.4950
  170MOL0     C23342  11.178   2.732   2.330  0.4169  0.4574  0.4542
  170MOL0     C23343  11.231   2.764   2.473 -0.1138 -0.0484 -0.0909
  170MOL0     C23344  11.203   2.652   2.576  0.8301  0.5312  1.3760
  170MOL0     C23345  11.215   2.698   2.716 -0.0122  0.2430  0.2839
  170MOL0     O23346  11.132   2.810   2.750  0.3063 -0.6219 -0.6959
  170MOL0     C23347  11.167   2.893   2.857  0.3489 -0.4843  0.6411
  170MOL0     C23348  11.137   3.031   2.853  0.0947  0.9604 -0.6275
  170MOL0     C23349  11.172   3.112   2.964  1.0605 -0.5091  0.2113
  170MOL0     C23350  11.138   3.254   2.959 -0.2174  0.2900 -0.1972
  170MOL0     C23351  11.223   3.057   3.077 -0.4774 -0.2582  0.1017
  170MOL0     C23352  11.239   3.129   3.210  0.6876  0.3612  0.1921
  170MOL0     O23353  11.320   3.244   3.218  0.3227 -0.0380  0.1377
  170MOL0     C23354  11.298   3.314   3.344  0.4076  0.7383 -0.4839
  170MOL0     C23355  11.195   3.399   3.355 -0.4118  0.0150 -0.2387
  170MOL0     C23356  11.181   3.477   3.461  1.0885 -0.6781 -0.7676
  170MOL0     C23357  11.269   3.476   3.567 -0.5859  0.0548 -0.7089
  170MOL0     O23358  11.278   3.541   3.679  0.2530  0.9002 -0.0044
  170MOL0     C23359  11.183   3.641   3.716  0.3240 -0.1733 -0.4262
  170MOL0     C23360  11.219   3.662   3.865  0.1336  0.3097  0.8310
  170MOL0     C23361  11.192   3.543   3.958 -0.3553 -0.9713 -0.6792
  170MOL0     C23362  11.256   3.562   4.098 -0.3682  0.3544  0.9575
  170MOL0     C23363  11.211   3.439   4.176 -1.4302  0.2530  0.5322
  170MOL0     C23364  11.315   3.320   4.186  0.1782 -0.0383 -1.2803
  170MOL0     C23365  11.269   3.213   4.292  0.5604  0.8727  0.4566
  170MOL0     C23366  11.117   3.181   4.278 -0.0027 -0.6510  0.2671
  170MOL0    Cl23367  11.061   3.024   4.350  0.1225  0.3600 -0.3819
  170MOL0     C23368  11.365   3.369   3.570 -0.4814  0.4169  1.3698
  170MOL0     C23369  11.378   3.289   3.451  0.1290  0.2909 -0.1846
  170MOL0     O23370  11.174   3.077   3.299 -0.7529 -0.0680  0.0848
  170MOL0     C23371  11.234   2.920   3.084 -0.3668  0.3819  0.2581
  170MOL0     C23372  11.212   2.835   2.975 -0.0987 -0.7334 -0.4076
  170MOL0     N23373  11.271   2.494   2.286 -0.3307  0.2893  0.4847
  170MOL0     N23374  11.311   2.422   2.182  0.0989  0.0045 -0.0940
  170MOL0     C23375  10.762   2.887   1.259  0.6512  0.0730  0.0266
  170MOL0     C23376  10.652   2.966   1.216  0.6243 -0.3374  0.6235
  170MOL0     C23377  10.210   3.135   1.259  0.3247  0.7462  0.7822
  170MOL0     C23378  10.144   3.238   1.339 -0.1362  0.5739  0.2594
  170MOL0     C23379  10.030   3.305   1.296  0.5133  0.8911 -0.1987
  170MOL0     C23380   9.976   3.272   1.168  0.0690 -0.6307  0.3425
  170MOL0     O23381   9.859   3.326   1.123  0.3328  0.2324 -0.0778
  170MOL0     C23382   9.857   3.349   0.988  0.2186  1.1279  0.4735
  170MOL0     C23383   9.713   3.327   0.936 -0.4792 -0.3936 -0.2152
  170MOL0     C23384   9.665   3.193   0.916  0.6204 -0.1043  0.2155
  170MOL0     C23385   9.525   3.186   0.837 -0.1828  0.8781 -0.7265
  170MOL0     C23386   9.498   3.043   0.793 -0.1265 -0.2179 -0.5465
  170MOL0     C23387   9.463   2.925   0.772 -0.5767 -0.3698 -0.7529
  170MOL0     C23388  10.031   3.160   1.102 -0.3916  0.2383 -0.0725
  170MOL0     C23389  10.153   3.095   1.135 -0.5974  0.0384  0.2147
  170MOL0     C23390  10.207   2.995   1.031  0.7464 -0.1802 -0.0216
  170MOL0     H23391  10.420   2.817   1.426 -0.3470  0.5388 -0.8419
  170MOL0     H23392  10.616   2.682   1.487  0.7495 -0.7024  0.3402
  170MOL0     H23393  10.861   2.567   1.512  2.4750 -1.1631  0.3058
  170MOL0     H23394  10.826   2.720   1.587  0.2122 -2.1262  1.4690
  170MOL0     H23395  11.077   2.772   1.494  0.1512  0.4180  1.3131
  170MOL0     H23396  11.041   2.745   1.660  2.6955  1.5084 -0.3203
  170MOL0     H23397  11.068   2.511   1.629 -1.6054  1.9827  0.7323
  170MOL0     H23398  11.126   2.530   1.456  2.3448  2.6914 -1.5462
  170MOL0     H23399  11.299   2.675   1.518  0.3741  0.4405  0.5597
  170MOL0     H23400  11.257   2.674   1.696 -1.8695  2.7780 -1.2497
  170MOL0     H23401  11.440   2.547   1.668 -2.3097  1.7098  2.5665
  170MOL0     H23402  11.371   2.460   1.524 -2.8966  1.9755 -1.8060
  170MOL0     H23403  11.224   2.326   1.647 -0.6199 -1.3271  0.7879
  170MOL0     H23404  11.377   2.304   1.722 -2.2009 -1.1475 -0.2939
  170MOL0     H23405  11.174   2.332   1.888 -0.6327  0.5478  0.2220
  170MOL0     H23406  11.171   2.502   1.843  2.4454  2.4616  0.6277
  170MOL0     H23407  11.413   2.359   1.953 -0.6065 -0.5128 -0.1881
  170MOL0     H23408  11.421   2.516   1.890 -0.2498 -2.4110 -3.7968
  170MOL0     H23409  11.246   2.714   2.052 -1.3932  0.6544  0.6120
  170MOL0     H23410  11.073   2.702   2.334  0.8473 -1.2007  0.2129
  170MOL0     H23411  11.186   2.819   2.264  2.3414 -0.8035 -1.1058
  170MOL0     H23412  11.334   2.800   2.476 -1.5687  4.7496  0.5323
  170MOL0     H23413  11.177   2.854   2.501  1.9778  1.5329 -0.8852
  170MOL0     H23414  11.099   2.618   2.568  0.5016  1.1738  2.6891
  170MOL0     H23415  11.261   2.560   2.564 -1.2601 -1.0373  2.5190
  170MOL0     H23416  11.191   2.610   2.777 -0.3881 -0.1255 -0.3895
  170MOL0     H23417  11.319   2.717   2.742 -0.0090  0.5301  0.0600
  170MOL0     H23418  11.083   3.075   2.769 -0.1042 -3.2285 -2.9475
  170MOL0     H23419  11.132   3.291   2.856 -4.4448  1.2101  0.1943
  170MOL0     H23420  11.217   3.314   3.004 -0.8735  1.9232 -1.1229
  170MOL0     H23421  11.044   3.281   3.009 -0.5236 -0.5559 -0.2951
  170MOL0     H23422  11.138   3.423   3.265  0.3231 -0.2637 -0.7962
  170MOL0     H23423  11.105   3.556   3.463  2.2002  0.4136 -0.0044
  170MOL0     H23424  11.198   3.730   3.653 -1.2963 -0.9548 -2.0369
  170MOL0     H23425  11.080   3.608   3.701 -0.9008  3.7182 -1.9301
  170MOL0     H23426  11.325   3.689   3.865 -0.1971  1.8390 -1.0437
  170MOL0     H23427  11.153   3.743   3.900 -1.5834 -0.0830 -1.2857
  170MOL0     H23428  11.237   3.453   3.917 -0.0945 -1.6040  0.9142
  170MOL0     H23429  11.084   3.534   3.976 -0.2330 -0.8031  0.1920
  170MOL0     H23430  11.240   3.661   4.142  2.9315  0.9163  1.1854
  170MOL0     H23431  11.365   3.555   4.089 -0.2781 -2.2892  2.9678
  170MOL0     H23432  11.202   3.477   4.278  1.8770  0.9112  0.7045
  170MOL0     H23433  11.112   3.406   4.146 -2.0799  3.0121 -0.6982
  170MOL0     H23434  11.408   3.364   4.224 -0.5484 -0.4125  1.1092
  170MOL0     H23435  11.329   3.279   4.085  0.5327  0.2197 -1.3405
  170MOL0     H23436  11.288   3.239   4.397 -1.3503 -0.8182  1.3184
  170MOL0     H23437  11.331   3.125   4.269  0.6780  1.7681 -3.2899
  170MOL0     H23438  11.085   3.179   4.173  1.8730 -1.4494 -0.3421
  170MOL0     H23439  11.071   3.261   4.336  2.6840  0.5332  0.9605
  170MOL0     H23440  11.430   3.356   3.655  0.8855 -0.8932  0.1906
  170MOL0     H23441  11.460   3.218   3.443 -0.8499 -0.9118  0.0189
  170MOL0     H23442  11.257   2.880   3.182 -1.3284  1.1157  0.8019
  170MOL0     H23443  11.221   2.727   2.977 -0.6839 -0.8430 -1.8586
  170MOL0     H23444  10.854   2.903   1.204 -0.5639  1.4492 -1.7060
  170MOL0     H23445  10.663   3.033   1.131  0.6342 -1.2149 -0.0778
  170MOL0     H23446  10.197   3.284   1.422  3.5771 -2.1765 -0.3432
  170MOL0     H23447   9.991   3.387   1.356 -0.8368 -1.5799  2.5695
  170MOL0     H23448   9.898   3.450   0.977  2.9557 -0.0569 -1.5226
  170MOL0     H23449   9.923   3.288   0.925 -1.4333  1.1203 -1.3413
  170MOL0     H23450   9.702   3.379   0.840  0.1709 -1.3033 -0.7954
  170MOL0     H23451   9.645   3.375   1.007 -2.3589  0.0233 -2.1997
  170MOL0     H23452   9.743   3.152   0.852  0.0373  1.5076 -1.6228
  170MOL0     H23453   9.654   3.142   1.012 -0.7527 -1.0334 -0.4190
  170MOL0     H23454   9.531   3.254   0.751 -0.2267 -0.6670 -1.9802
  170MOL0     H23455   9.452   3.213   0.914  2.6198  1.1467  2.0506
  170MOL0     H23456   9.443   2.820   0.764  1.3034 -0.9677  1.5269
  170MOL0     H23457   9.991   3.132   1.006 -0.9290  1.2897 -0.1725
  170MOL0     H23458  10.292   3.049   0.988 -0.2057  0.1293 -1.5805
  170MOL0     H23459  10.223   2.893   1.068 -4.1943 -1.1706  0.0906
  170MOL0     H23460  10.149   2.988   0.939 -0.6898  3.3209  0.4670
  171MOL0     O23461   7.549   4.155   3.026  0.2923  0.8321 -0.6822
  171MOL0     C23462   7.459   4.111   3.102 -0.5000  0.1327 -0.5147
  171MOL0     O23463   7.329   4.151   3.100  0.0148  0.8458 -0.6182
  171MOL0     C23464   7.297   4.223   2.988  0.4728 -0.7964 -0.4398
  171MOL0     C23465   7.353   4.346   2.949 -0.9418 -0.2810 -0.0930
  171MOL0     C23466   7.319   4.419   2.830  0.1166 -0.2619 -0.6335
  171MOL0     C23467   7.224   4.371   2.750  0.8789  0.3490 -1.0873
  171MOL0     O23468   7.185   4.430   2.629 -0.2509 -0.3410 -0.3289
  171MOL0     C23469   7.081   4.375   2.545  0.8204 -0.4685  0.6411
  171MOL0     C23470   7.100   4.446   2.405 -0.0070 -0.3295  0.5459
  171MOL0     C23471   7.222   4.379   2.339 -0.7139  0.0740 -1.0821
  171MOL0     C23472   7.224   4.428   2.201 -0.7522 -0.8992  0.7117
  171MOL0     C23473   7.323   4.343   2.126  1.0117  0.1251  0.9931
  171MOL0     C23474   7.330   4.388   1.979  0.0501 -0.2535  0.5506
  171MOL0     C23475   7.442   4.306   1.914  0.3276  0.5979  0.8908
  171MOL0     C23476   7.482   4.340   1.769  0.1797  0.3111 -0.0070
  171MOL0     N23477   7.367   4.329   1.675  0.0120 -1.1826  0.5216
  171MOL0     C23478   7.323   4.215   1.628  0.8871  0.1418 -1.0265
  171MOL0     C23479   7.201   4.233   1.569 -0.4139  0.5382 -0.0204
  171MOL0     C23480   7.133   4.135   1.486  0.0090  0.1732 -0.2419
  171MOL0     C23481   7.053   4.199   1.367  0.4433  0.3385 -0.6139
  171MOL0     C23482   7.029   4.090   1.250  0.8640  0.0368  0.1322
  171MOL0     C23483   7.033   4.148   1.108 -0.0232 -0.6615 -0.3278
  171MOL0     O23484   7.034   4.039   1.012 -1.0342 -0.1706 -0.6155
  171MOL0     C23485   7.041   4.081   0.880  0.2860  0.0486  0.8704
  171MOL0     C23486   7.145   4.155   0.825  0.0553 -0.1975 -0.3196
  171MOL0     C23487   7.160   4.160   0.684  0.5462  0.7399 -1.2177
  171MOL0     C23488   7.279   4.253   0.638  0.1301 -0.7185 -0.3230
  171MOL0     C23489   7.070   4.106   0.598 -0.2053  0.1065 -0.0081
  171MOL0     C23490   7.089   4.112   0.444 -0.8190  0.5048  0.0038
  171MOL0     O23491   7.211   4.130   0.384 -0.5420  0.0992 -0.1912
  171MOL0     C23492   7.208   4.108   0.249 -1.0380  0.5655 -0.0951
  171MOL0     C23493   7.231   4.210   0.157  0.4620  0.9566 -0.2467
  171MOL0     C23494   7.250   4.180   0.022 -0.5215  1.2124  0.2615
  171MOL0     C23495   7.232   4.050  -0.036 -0.0796 -0.1770 -0.5550
  171MOL0     O23496   7.261   4.028  -0.166 -0.3728 -0.8461  0.6868
  171MOL0     C23497   7.234   3.896  -0.226  0.7454 -0.2573 -0.0951
  171MOL0     C23498   7.280   3.887  -0.373 -0.1282 -0.2621 -0.5431
  171MOL0     C23499   7.220   3.758  -0.433 -1.1452 -0.1799 -0.3055
  171MOL0     C23500   7.298   3.731  -0.570 -0.2437 -1.1256  0.1079
  171MOL0     C23501   7.247   3.601  -0.633  0.2671 -0.3468 -0.1533
  171MOL0     C23502   7.321   3.581  -0.769  0.5949 -0.0865  0.2664
  171MOL0     C23503   7.329   3.436  -0.813 -0.2318 -0.7139  0.0172
  171MOL0     C23504   7.347   3.434  -0.965  0.8487  0.0861 -1.0881
  171MOL0    Cl23505   7.364   3.266  -1.019 -0.0653 -0.4068  0.2953
  171MOL0     C23506   7.203   3.951   0.062  0.2593 -0.5355 -0.4212
  171MOL0     C23507   7.188   3.980   0.200 -0.0498  0.5269 -0.4143
  171MOL0     O23508   6.987   4.096   0.375 -0.0079  0.6013  1.0644
  171MOL0     C23509   6.953   4.051   0.657  0.4303 -0.1148 -1.1228
  171MOL0     C23510   6.945   4.032   0.799 -0.3338  0.0140 -0.1821
  171MOL0     N23511   7.165   4.357   1.593 -0.5722 -0.0613  0.0169
  171MOL0     N23512   7.260   4.410   1.670  0.1895  0.5957  0.0494
  171MOL0     C23513   7.164   4.248   2.789  0.3761  0.7523  0.0239
  171MOL0     C23514   7.203   4.173   2.900 -0.2949  0.1143  0.1626
  171MOL0     C23515   7.497   4.018   3.205 -0.4409 -0.0577  0.6820
  171MOL0     C23516   7.427   3.896   3.212  0.0875 -0.2322 -1.1434
  171MOL0     C23517   7.445   3.803   3.309 -0.5541  1.0003  0.3037
  171MOL0     C23518   7.534   3.824   3.420  0.6551  0.5240 -0.7716
  171MOL0     O23519   7.545   3.746   3.533  0.2278 -0.6347  0.0328
  171MOL0     C23520   7.458   3.636   3.537  0.0974  0.5013 -0.3285
  171MOL0     C23521   7.324   3.671   3.618 -0.4268 -0.8331 -0.8609
  171MOL0     C23522   7.376   3.711   3.758  0.1751 -0.8156  0.5272
  171MOL0     C23523   7.255   3.744   3.843  1.1095 -0.0191  0.1566
  171MOL0     C23524   7.164   3.628   3.874 -1.1720 -0.8156  0.3413
  171MOL0     C23525   7.089   3.539   3.912 -0.3935 -0.3988  0.3780
  171MOL0     C23526   7.598   3.945   3.420  0.9111 -0.7882 -0.2029
  171MOL0     C23527   7.591   4.041   3.309  0.1519  0.1415 -0.4701
  171MOL0     C23528   7.665   4.168   3.318 -0.2354 -0.2594  0.0825
  171MOL0     H23529   7.436   4.390   3.003  0.6264  1.2648 -3.4316
  171MOL0     H23530   7.378   4.507   2.804  1.4242 -1.0609 -0.4519
  171MOL0     H23531   6.979   4.401   2.576 -0.3525 -0.9437 -2.4831
  171MOL0     H23532   7.084   4.265   2.539 -0.0872 -0.4450 -0.7067
  171MOL0     H23533   7.000   4.448   2.360  0.8749  2.5222 -1.5965
  171MOL0     H23534   7.131   4.548   2.432 -1.7941  0.5464 -0.4647
  171MOL0     H23535   7.314   4.394   2.397 -1.7425 -0.8348  0.8692
  171MOL0     H23536   7.206   4.271   2.337 -2.9520  0.3691 -1.3493
  171MOL0     H23537   7.123   4.413   2.162 -0.6938  3.2973 -1.7633
  171MOL0     H23538   7.261   4.530   2.184 -0.1800 -1.2992 -0.5722
  171MOL0     H23539   7.304   4.236   2.136  0.7665 -0.3197 -2.6579
  171MOL0     H23540   7.425   4.348   2.165  1.4354 -0.5012  0.0155
  171MOL0     H23541   7.233   4.368   1.933 -0.2215  1.3691  0.3715
  171MOL0     H23542   7.348   4.496   1.972  2.5186 -0.7096 -1.5357
  171MOL0     H23543   7.419   4.200   1.924  0.3832  0.6812  1.9442
  171MOL0     H23544   7.538   4.309   1.966 -0.9830 -1.3094  3.6732
  171MOL0     H23545   7.532   4.436   1.759 -1.6718  1.2672 -0.4906
  171MOL0     H23546   7.551   4.264   1.731  0.9555  2.5965 -3.6326
  171MOL0     H23547   7.386   4.127   1.633  0.0140 -0.4131  0.8912
  171MOL0     H23548   7.065   4.089   1.559  0.3675 -0.7149 -0.4562
  171MOL0     H23549   7.197   4.051   1.457 -2.9616 -2.6542  0.7224
  171MOL0     H23550   6.953   4.237   1.393 -0.3724 -1.7059 -0.5677
  171MOL0     H23551   7.116   4.282   1.335  4.6344 -1.6923  1.6031
  171MOL0     H23552   7.110   4.018   1.264 -0.9587 -2.0298  0.6264
  171MOL0     H23553   6.933   4.038   1.261 -1.5978  3.8764 -0.8478
  171MOL0     H23554   6.956   4.224   1.093  2.3758  1.9239 -0.5199
  171MOL0     H23555   7.128   4.201   1.098  2.5439 -4.8051 -0.0486
  171MOL0     H23556   7.215   4.198   0.895  0.4425  0.7253 -1.2380
  171MOL0     H23557   7.236   4.337   0.581 -2.6032  0.3952  3.0421
  171MOL0     H23558   7.359   4.201   0.586  1.8186  2.9304 -1.7583
  171MOL0     H23559   7.337   4.297   0.719 -2.3907 -0.9759  1.7341
  171MOL0     H23560   7.233   4.315   0.184 -2.0708  1.4427 -1.6124
  171MOL0     H23561   7.288   4.261  -0.040 -0.1552 -0.0695 -1.2325
  171MOL0     H23562   7.276   3.815  -0.165  0.1365 -0.1072  0.5369
  171MOL0     H23563   7.125   3.883  -0.230  0.8807 -1.2084 -2.1618
  171MOL0     H23564   7.232   3.961  -0.439  0.0542  1.5941  1.2959
  171MOL0     H23565   7.388   3.901  -0.384 -0.0385 -1.8867 -2.4195
  171MOL0     H23566   7.114   3.770  -0.455 -0.9835  1.1388 -0.4883
  171MOL0     H23567   7.245   3.671  -0.372 -0.9646  1.9116  2.8316
  171MOL0     H23568   7.403   3.718  -0.545 -0.0822  2.6559  2.0791
  171MOL0     H23569   7.291   3.818  -0.636 -0.6691 -0.4539  1.0094
  171MOL0     H23570   7.282   3.522  -0.566  2.0747  1.1581  0.7708
  171MOL0     H23571   7.140   3.620  -0.649  1.0327  3.8678 -1.6580
  171MOL0     H23572   7.426   3.614  -0.769  0.5191  0.1851 -0.4068
  171MOL0     H23573   7.276   3.645  -0.846 -0.5232 -0.7975  0.3176
  171MOL0     H23574   7.247   3.372  -0.778 -1.0977  1.1986  1.6513
  171MOL0     H23575   7.413   3.388  -0.763 -1.6005  0.2496  3.5385
  171MOL0     H23576   7.439   3.487  -0.990  0.5795  2.6969  2.5848
  171MOL0     H23577   7.257   3.473  -1.011  1.4338  1.0298 -1.4586
  171MOL0     H23578   7.178   3.850   0.031  3.3358 -1.3870 -0.4108
  171MOL0     H23579   7.155   3.898   0.263  0.4885 -0.4492 -1.3698
  171MOL0     H23580   6.865   4.025   0.599  0.4462 -3.4316  0.1581
  171MOL0     H23581   6.871   3.977   0.856  0.5752  1.8006  2.9761
  171MOL0     H23582   7.085   4.195   2.735 -0.0384 -0.4052  1.6662
  171MOL0     H23583   7.163   4.077   2.932 -0.8992  0.8066  1.5811
  171MOL0     H23584   7.352   3.875   3.137  0.1212 -4.6478 -0.2389
  171MOL0     H23585   7.372   3.723   3.301 -0.0964  0.7163 -1.4027
  171MOL0     H23586   7.444   3.590   3.439 -0.2953 -1.4781  0.6290
  171MOL0     H23587   7.515   3.563   3.595  1.9490  2.5597  0.6117
  171MOL0     H23588   7.252   3.589   3.618  1.1980 -2.3421  0.1121
  171MOL0     H23589   7.274   3.752   3.564 -1.5871 -0.8780  0.1111
  171MOL0     H23590   7.448   3.640   3.800 -0.7121 -2.0974 -0.0654
  171MOL0     H23591   7.432   3.804   3.748  1.8828 -1.6185  1.9787
  171MOL0     H23592   7.189   3.820   3.800  0.3511 -0.7575  0.0031
  171MOL0     H23593   7.289   3.780   3.941 -3.5173  0.5252  1.7849
  171MOL0     H23594   7.026   3.459   3.948  0.1362 -0.5121  1.0916
  171MOL0     H23595   7.660   3.962   3.508 -0.7526 -1.1474  1.0863
  171MOL0     H23596   7.589   4.246   3.312  1.4153  1.4987  0.8971
  171MOL0     H23597   7.725   4.172   3.409 -1.3499 -0.1681  0.8255
  171MOL0     H23598   7.749   4.177   3.247  0.5030 -3.8904  0.3395
  172MOL0     O23599   0.199   4.173   1.311 -0.7533 -0.0288 -0.7273
  172MOL0     C23600   0.083   4.199   1.280  0.6198  0.0437 -0.4954
  172MOL0     O23601   0.001   4.120   1.210  0.3267 -0.4291 -0.1195
  172MOL0     C23602   0.027   3.984   1.237  1.1900  0.1121 -0.6978
  172MOL0     C23603   0.025   3.925   1.368 -0.1657  0.7031  0.2776
  172MOL0     C23604   0.074   3.792   1.394 -0.1068 -0.9635 -0.4845
  172MOL0     C23605   0.109   3.711   1.284 -0.4565  0.7759  0.2127
  172MOL0     O23606   0.154   3.583   1.311 -0.0336 -0.0317  0.5976
  172MOL0     C23607   0.066   3.483   1.327  0.1465  0.0755  0.2258
  172MOL0     C23608   0.075   3.397   1.206 -0.4805  0.1006  0.9362
  172MOL0     C23609  -0.012   3.447   1.087 -0.0958 -0.5755  0.7405
  172MOL0     C23610  -0.162   3.481   1.119 -0.0716 -0.2181 -0.4861
  172MOL0     C23611  -0.251   3.489   1.001 -0.3075 -0.1910 -0.7075
  172MOL0     C23612  -0.389   3.564   1.039 -0.5346 -0.0181  0.6564
  172MOL0     C23613  -0.389   3.714   0.997  0.0941  0.3033  0.3640
  172MOL0     C23614  -0.260   3.801   1.039 -0.4883  0.5792  0.9747
  172MOL0     N23615  -0.262   3.933   0.971 -0.0739  0.9432 -0.4766
  172MOL0     C23616  -0.344   4.043   1.001  0.8000  0.6010 -0.8827
  172MOL0     C23617  -0.305   4.143   0.923 -0.5408  0.6051 -0.0673
  172MOL0     C23618  -0.361   4.279   0.895 -0.1396 -0.1385 -0.3346
  172MOL0     C23619  -0.263   4.394   0.915 -0.7380 -0.3373  0.3165
  172MOL0     C23620  -0.302   4.534   0.904  0.0002  0.3970 -0.6401
  172MOL0     C23621  -0.412   4.564   0.807 -0.0636  0.4164  0.2387
  172MOL0     O23622  -0.374   4.522   0.675 -0.7495 -0.0987 -0.8078
  172MOL0     C23623  -0.339   4.612   0.576  0.6362  0.8777 -0.4558
  172MOL0     C23624  -0.321   4.746   0.594 -0.5969 -0.7527  0.3717
  172MOL0     C23625  -0.323   4.840   0.485 -0.6324 -0.0864  0.6480
  172MOL0     C23626  -0.305   4.982   0.516  0.0986 -0.0016 -0.2963
  172MOL0     C23627  -0.309   4.786   0.348  1.0323  0.5392 -0.5467
  172MOL0     C23628  -0.320   4.871   0.221  0.8343 -0.1230  0.2529
  172MOL0     O23629  -0.366   4.994   0.240 -0.4071  0.2944 -0.3447
  172MOL0     C23630  -0.342   5.092   0.143 -0.0090 -0.1386 -0.1579
  172MOL0     C23631  -0.240   5.085   0.044 -0.6106 -0.7705  0.2718
  172MOL0     C23632  -0.241   5.175  -0.059  0.4549 -0.0619 -0.1856
  172MOL0     C23633  -0.333   5.280  -0.061  0.0924 -0.3167  0.0665
  172MOL0     O23634  -0.328   5.369  -0.166 -0.0606 -1.0319  0.0981
  172MOL0     C23635  -0.413   5.483  -0.172 -0.4600  0.7666 -0.2173
  172MOL0     C23636  -0.361   5.581  -0.070 -0.3230 -0.6190 -1.1334
  172MOL0     C23637  -0.475   5.675  -0.022 -0.3887 -0.6655 -0.5321
  172MOL0     C23638  -0.422   5.798   0.058  0.5399  0.0712  0.5868
  172MOL0     C23639  -0.514   5.918   0.068 -0.0751 -0.8442  0.5184
  172MOL0     C23640  -0.446   6.051   0.124  0.2564 -0.1434  0.0409
  172MOL0     C23641  -0.512   6.185   0.075 -0.0406  0.1622 -0.2747
  172MOL0     C23642  -0.452   6.311   0.130 -0.2123  0.4057  0.1177
  172MOL0    Cl23643  -0.343   6.375   0.010 -0.8250 -0.1655  0.2350
  172MOL0     C23644  -0.435   5.288   0.042 -0.6735 -0.2741  1.1969
  172MOL0     C23645  -0.442   5.192   0.145 -0.6684 -0.5271  0.3984
  172MOL0     O23646  -0.308   4.816   0.110 -0.4377 -0.1705  0.0785
  172MOL0     C23647  -0.298   4.643   0.345  0.2103 -0.1953  1.0200
  172MOL0     C23648  -0.317   4.567   0.449 -0.6471  0.9771  0.4565
  172MOL0     N23649  -0.195   4.093   0.854 -0.4135 -0.5042 -0.5378
  172MOL0     N23650  -0.177   3.964   0.872  0.0279 -0.9903 -0.2910
  172MOL0     C23651   0.093   3.760   1.152 -0.4362 -0.2908  0.0423
  172MOL0     C23652   0.051   3.896   1.127  0.0725  0.2572 -0.3111
  172MOL0     C23653   0.041   4.341   1.284  0.1225 -1.0004 -0.4837
  172MOL0     C23654  -0.087   4.375   1.274  0.0750  0.5385  0.1292
  172MOL0     C23655  -0.143   4.504   1.296  0.0739  0.1874  0.2346
  172MOL0     C23656  -0.051   4.611   1.298  0.3737 -0.6379 -1.0492
  172MOL0     O23657  -0.106   4.736   1.316  0.1182 -0.3079  0.4113
  172MOL0     C23658  -0.024   4.830   1.382  0.1013 -0.2868 -0.1342
  172MOL0     C23659  -0.036   4.794   1.531 -0.6491 -0.1308  0.3561
  172MOL0     C23660   0.031   4.914   1.619 -1.3349  0.1525  0.0917
  172MOL0     C23661  -0.042   5.050   1.622 -0.0779  0.4081  0.0582
  172MOL0     C23662  -0.175   5.043   1.669  1.7532 -0.4248  0.0417
  172MOL0     C23663  -0.283   5.065   1.719  0.0954  0.8064  0.1605
  172MOL0     C23664   0.086   4.584   1.292  0.1352 -1.3040  0.3694
  172MOL0     C23665   0.128   4.455   1.282 -0.0239  0.2818  0.6076
  172MOL0     C23666   0.276   4.442   1.266 -0.4166 -0.1826  0.0585
  172MOL0     H23667  -0.003   3.976   1.459 -1.3310  0.5541  0.0110
  172MOL0     H23668   0.096   3.759   1.495  1.8176  2.2959  0.3297
  172MOL0     H23669  -0.030   3.529   1.351  1.2504  2.8085 -0.3206
  172MOL0     H23670   0.106   3.421   1.408  1.1911  0.7772  0.2619
  172MOL0     H23671   0.180   3.392   1.175 -0.5393 -4.2901  0.9364
  172MOL0     H23672   0.040   3.298   1.235  2.3102 -1.9228 -1.9847
  172MOL0     H23673   0.037   3.533   1.042 -1.4281  1.0216  2.1759
  172MOL0     H23674  -0.010   3.368   1.012  1.2529  2.0727 -2.2525
  172MOL0     H23675  -0.197   3.401   1.185 -0.6866 -0.7431 -1.4290
  172MOL0     H23676  -0.171   3.580   1.166 -0.5015 -0.7085  0.4867
  172MOL0     H23677  -0.264   3.391   0.954  0.1902 -1.0930  0.9704
  172MOL0     H23678  -0.199   3.545   0.922  0.0811  0.2766 -0.1312
  172MOL0     H23679  -0.478   3.523   0.990  1.1782 -1.0943 -1.7607
  172MOL0     H23680  -0.399   3.569   1.148 -0.1719 -0.5514  0.7191
  172MOL0     H23681  -0.471   3.757   1.055  0.4315 -1.3444  2.1712
  172MOL0     H23682  -0.399   3.721   0.888  2.2410 -0.5672  0.0523
  172MOL0     H23683  -0.252   3.811   1.148  2.6131  2.3308  0.7009
  172MOL0     H23684  -0.169   3.748   1.009 -1.8311 -1.7587  0.7825
  172MOL0     H23685  -0.441   4.042   1.050  0.7459  2.9696 -0.8093
  172MOL0     H23686  -0.448   4.284   0.960 -0.4320 -2.4486 -0.4747
  172MOL0     H23687  -0.405   4.280   0.795 -4.0099 -1.4578  1.1667
  172MOL0     H23688  -0.215   4.381   1.013 -0.6819  0.8045  0.4470
  172MOL0     H23689  -0.189   4.376   0.837  0.2122  0.6343  0.9779
  172MOL0     H23690  -0.328   4.559   1.007  2.3543 -0.8974  0.3468
  172MOL0     H23691  -0.215   4.595   0.878 -1.5297  2.2839 -1.5648
  172MOL0     H23692  -0.499   4.506   0.841  0.0997 -1.6539 -2.4823
  172MOL0     H23693  -0.438   4.670   0.810 -1.6308  0.0487  2.2675
  172MOL0     H23694  -0.332   4.798   0.689 -2.4627  0.1223 -0.2667
  172MOL0     H23695  -0.269   5.006   0.617 -2.6593  0.0854  0.7511
  172MOL0     H23696  -0.401   5.033   0.521 -0.3680 -0.9325  0.5013
  172MOL0     H23697  -0.246   5.030   0.437  1.4753 -0.8312  0.1814
  172MOL0     H23698  -0.157   5.015   0.044  0.9481  0.9387 -1.9707
  172MOL0     H23699  -0.157   5.174  -0.127  1.6056 -0.1044  1.1688
  172MOL0     H23700  -0.399   5.530  -0.270  0.3285 -0.9465 -0.9783
  172MOL0     H23701  -0.521   5.465  -0.169 -0.6447  0.9330 -2.7921
  172MOL0     H23702  -0.302   5.535   0.010  0.3797  0.5485 -0.9669
  172MOL0     H23703  -0.279   5.636  -0.117  0.0511  0.0520  0.2612
  172MOL0     H23704  -0.549   5.620   0.037 -0.7963 -0.4159 -0.8066
  172MOL0     H23705  -0.524   5.712  -0.112 -3.2426  1.8132  1.8182
  172MOL0     H23706  -0.327   5.837   0.021 -1.0577  2.4992 -1.2612
  172MOL0     H23707  -0.400   5.765   0.160  1.6113  0.8348  0.6238
  172MOL0     H23708  -0.560   5.933  -0.030 -0.0345 -1.0362  0.4697
  172MOL0     H23709  -0.586   5.899   0.148 -1.9164 -1.0293 -1.1229
  172MOL0     H23710  -0.342   6.058   0.089  0.1129  3.7808 -0.0188
  172MOL0     H23711  -0.448   6.042   0.233  2.6417  1.3656  0.2859
  172MOL0     H23712  -0.616   6.179   0.108 -0.3231 -0.1351 -1.1984
  172MOL0     H23713  -0.508   6.186  -0.034 -3.1165  2.0548 -0.5103
  172MOL0     H23714  -0.414   6.279   0.227  0.4725 -2.6585 -1.0657
  172MOL0     H23715  -0.539   6.376   0.143  1.9270  3.5231 -0.0982
  172MOL0     H23716  -0.509   5.367   0.044 -0.9797 -0.5648  1.5005
  172MOL0     H23717  -0.515   5.202   0.224 -2.1019 -0.7640 -0.8467
  172MOL0     H23718  -0.281   4.599   0.247 -1.8836  0.5820  0.2672
  172MOL0     H23719  -0.321   4.460   0.434  0.6233  1.0149 -0.3498
  172MOL0     H23720   0.132   3.704   1.067 -1.1313 -2.6283  1.1885
  172MOL0     H23721   0.040   3.938   1.027 -3.2316  0.3637 -0.0006
  172MOL0     H23722  -0.163   4.297   1.268  1.4065 -1.0327  2.3253
  172MOL0     H23723  -0.251   4.521   1.298 -0.3096 -1.9105  0.0926
  172MOL0     H23724   0.078   4.837   1.343 -0.6678 -1.1018 -2.4443
  172MOL0     H23725  -0.072   4.927   1.363 -1.5152 -0.9239  0.5632
  172MOL0     H23726   0.009   4.694   1.538 -3.8720 -1.9837 -2.4298
  172MOL0     H23727  -0.140   4.772   1.555 -1.3283  2.2689 -0.1240
  172MOL0     H23728   0.065   4.879   1.717 -1.0826 -0.3426 -0.1637
  172MOL0     H23729   0.129   4.938   1.577  0.0013 -2.9843  1.1174
  172MOL0     H23730  -0.050   5.093   1.522  0.2401 -0.0505 -0.1635
  172MOL0     H23731   0.018   5.126   1.673 -0.1011  1.0957 -0.9017
  172MOL0     H23732  -0.373   5.054   1.776 -0.9968 -0.3776 -1.6984
  172MOL0     H23733   0.151   4.670   1.306 -0.9672 -0.5293  0.8718
  172MOL0     H23734   0.311   4.371   1.191  0.5387  1.4172 -1.0592
  172MOL0     H23735   0.313   4.539   1.232 -0.6160  0.2368  0.9876
  172MOL0     H23736   0.321   4.429   1.365  0.8746  1.6180 -0.2426
  173MOL0     O23737   6.471   1.468   0.159 -0.4643 -0.5909  0.0230
  173MOL0     C23738   6.569   1.515   0.091  0.3947  0.3948  1.3756
  173MOL0     O23739   6.632   1.646   0.097  0.1415  0.7666 -0.1267
  173MOL0     C23740   6.583   1.749   0.176  0.5797 -0.2625 -0.4358
  173MOL0     C23741   6.671   1.862   0.184  0.6514  0.2778 -1.2160
  173MOL0     C23742   6.634   1.963   0.271 -0.1184  0.1726 -0.0684
  173MOL0     C23743   6.524   1.952   0.356  0.4871 -0.3363 -0.2484
  173MOL0     O23744   6.512   2.047   0.455 -0.8929  0.6894 -0.7371
  173MOL0     C23745   6.471   1.999   0.585  0.3344  0.3106  0.5917
  173MOL0     C23746   6.443   2.104   0.688 -0.5102 -0.7173  0.3439
  173MOL0     C23747   6.575   2.174   0.740  0.2367  0.2069  0.7926
  173MOL0     C23748   6.576   2.325   0.732 -0.4799 -0.5692 -0.8288
  173MOL0     C23749   6.476   2.395   0.825  0.3052 -0.2129 -0.9069
  173MOL0     C23750   6.479   2.547   0.824  0.2789  0.3492 -0.1936
  173MOL0     C23751   6.608   2.614   0.876 -0.2687  1.0811  0.0558
  173MOL0     C23752   6.589   2.765   0.892  0.4950  0.7929 -0.5865
  173MOL0     N23753   6.571   2.844   0.769  0.8707 -1.2116 -0.0057
  173MOL0     C23754   6.675   2.907   0.692 -0.1122  0.1931 -0.5090
  173MOL0     C23755   6.603   2.958   0.591  0.8826 -0.4957 -0.2665
  173MOL0     C23756   6.655   3.029   0.469  0.5380 -1.2677  0.2224
  173MOL0     C23757   6.698   2.933   0.365 -0.4232 -0.0932 -0.0241
  173MOL0     C23758   6.597   2.840   0.313  0.8144  0.1023 -0.5931
  173MOL0     C23759   6.471   2.918   0.261 -0.1115 -0.0009  0.7432
  173MOL0     O23760   6.416   2.835   0.151 -0.0285  0.9435  0.3674
  173MOL0     C23761   6.331   2.889   0.059  0.2419 -0.7461 -0.6179
  173MOL0     C23762   6.290   3.021   0.043 -0.1062  0.2080 -0.8726
  173MOL0     C23763   6.192   3.051  -0.054  0.0428 -0.2489  0.5264
  173MOL0     C23764   6.147   3.196  -0.056 -0.3817 -0.1284  0.0904
  173MOL0     C23765   6.139   2.944  -0.133 -0.2002 -0.3226  0.4095
  173MOL0     C23766   6.046   2.974  -0.248 -0.6149 -0.1452 -1.0325
  173MOL0     O23767   5.959   2.862  -0.273 -0.1771  0.3327  0.0101
  173MOL0     C23768   5.836   2.886  -0.320  0.6616 -0.7619 -0.9506
  173MOL0     C23769   5.781   2.781  -0.395  0.4973 -0.0357 -0.3981
  173MOL0     C23770   5.656   2.797  -0.456 -1.4122  1.0806 -0.7758
  173MOL0     C23771   5.583   2.913  -0.434 -0.4510  0.6671 -0.6366
  173MOL0     O23772   5.458   2.929  -0.480 -0.5353 -0.7482 -0.4630
  173MOL0     C23773   5.370   2.820  -0.484  0.2860  0.9255 -0.1898
  173MOL0     C23774   5.222   2.869  -0.485  0.0360  0.4600 -0.0683
  173MOL0     C23775   5.200   2.999  -0.400  1.2287  0.2778 -0.2811
  173MOL0     C23776   5.063   3.057  -0.391  0.3961  0.4244  0.6005
  173MOL0     C23777   5.060   3.194  -0.327 -0.0162 -0.6601 -0.3031
  173MOL0     C23778   4.925   3.264  -0.328  0.7673 -0.0483  0.0272
  173MOL0     C23779   4.927   3.404  -0.260 -0.5248 -0.1407  0.7612
  173MOL0     C23780   5.016   3.514  -0.332 -0.2885 -0.0184  0.1727
  173MOL0    Cl23781   4.961   3.668  -0.269  0.3375  0.6661 -0.0030
  173MOL0     C23782   5.639   3.020  -0.363  0.4981 -0.4001 -0.5815
  173MOL0     C23783   5.765   3.000  -0.302  0.6719 -0.3363 -0.3187
  173MOL0     O23784   6.047   3.089  -0.301 -0.3197  0.5812  0.6320
  173MOL0     C23785   6.173   2.818  -0.114 -0.2521  0.5160  0.3089
  173MOL0     C23786   6.266   2.788  -0.014  0.0874 -0.2692 -0.5487
  173MOL0     N23787   6.466   2.944   0.617  0.8317 -0.7944  0.5740
  173MOL0     N23788   6.451   2.874   0.719  0.4454 -1.0914  0.6457
  173MOL0     C23789   6.425   1.855   0.328  0.7447 -0.0585  0.6994
  173MOL0     C23790   6.461   1.758   0.237  1.0894 -0.5929  0.1124
  173MOL0     C23791   6.592   1.428  -0.033  0.4302  0.0399 -0.1048
  173MOL0     C23792   6.649   1.489  -0.144 -0.0615 -0.3449 -0.6272
  173MOL0     C23793   6.670   1.417  -0.256 -0.4227  0.1607  0.0430
  173MOL0     C23794   6.648   1.279  -0.263 -0.2341  0.5819  1.3784
  173MOL0     O23795   6.667   1.226  -0.391 -0.1367 -0.9289 -0.0117
  173MOL0     C23796   6.692   1.088  -0.399  0.1074  0.0461  0.0352
  173MOL0     C23797   6.834   1.040  -0.357 -0.8913 -0.1691  0.7682
  173MOL0     C23798   6.949   1.087  -0.469 -0.6042 -1.2074 -0.2103
  173MOL0     C23799   6.948   1.023  -0.608 -0.1007  0.8249  0.6077
  173MOL0     C23800   7.029   0.894  -0.591 -0.0712  0.1593  0.2382
  173MOL0     C23801   7.093   0.795  -0.567 -0.4525  0.0817  0.2195
  173MOL0     C23802   6.591   1.209  -0.149 -0.3621 -0.2381  0.5155
  173MOL0     C23803   6.564   1.285  -0.032  0.0090  0.2779  0.5051
  173MOL0     C23804   6.513   1.213   0.090  0.0820 -0.0423 -0.6649
  173MOL0     H23805   6.770   1.848   0.143  1.3884 -1.6544  1.0238
  173MOL0     H23806   6.696   2.051   0.281  0.3279 -0.2030  0.5553
  173MOL0     H23807   6.546   1.932   0.627  0.1254  0.3799  1.0916
  173MOL0     H23808   6.377   1.945   0.575 -0.7382  2.3306 -1.0620
  173MOL0     H23809   6.379   2.184   0.651  0.7400  1.3411  2.3549
  173MOL0     H23810   6.411   2.050   0.777  1.8970 -0.2992  1.5442
  173MOL0     H23811   6.583   2.145   0.845  0.2022 -0.5221  0.6031
  173MOL0     H23812   6.656   2.134   0.678  0.6383  0.9144  0.8616
  173MOL0     H23813   6.680   2.352   0.752  1.0078 -4.6587 -1.9534
  173MOL0     H23814   6.561   2.362   0.630  1.7211 -1.4155 -1.5201
  173MOL0     H23815   6.509   2.362   0.924  0.8269  2.2343 -0.2085
  173MOL0     H23816   6.378   2.355   0.798 -1.0040  1.4300  1.1139
  173MOL0     H23817   6.457   2.575   0.721  0.0151 -1.1410 -0.5526
  173MOL0     H23818   6.394   2.584   0.882 -0.8302 -3.2245  0.6578
  173MOL0     H23819   6.691   2.592   0.808  0.1463 -0.7855  1.0847
  173MOL0     H23820   6.623   2.561   0.971  2.3283 -2.0285 -1.8612
  173MOL0     H23821   6.499   2.782   0.951 -1.5240  1.0870 -3.5587
  173MOL0     H23822   6.677   2.798   0.948  1.0774  0.2247 -1.1474
  173MOL0     H23823   6.782   2.921   0.705 -0.2444  1.0052 -0.2365
  173MOL0     H23824   6.741   3.095   0.490 -1.8319  1.4206  2.2977
  173MOL0     H23825   6.576   3.092   0.428  0.9926 -0.9788 -0.2341
  173MOL0     H23826   6.734   2.989   0.278 -1.0254  2.6030  1.3382
  173MOL0     H23827   6.787   2.880   0.399  1.7772  2.1062 -1.9627
  173MOL0     H23828   6.631   2.782   0.227  1.5051 -0.1156 -0.1780
  173MOL0     H23829   6.568   2.772   0.393 -3.2196  1.1378 -0.9758
  173MOL0     H23830   6.387   2.919   0.331 -2.2677 -1.2886 -1.6862
  173MOL0     H23831   6.498   3.017   0.223 -1.1481 -0.0452 -0.1657
  173MOL0     H23832   6.340   3.092   0.109 -0.8424 -0.9271  0.9948
  173MOL0     H23833   6.169   3.240   0.042  0.0918 -1.2380  0.4895
  173MOL0     H23834   6.041   3.210  -0.079 -0.1352  3.3560  0.4752
  173MOL0     H23835   6.208   3.245  -0.133 -0.8476  0.0306 -0.1787
  173MOL0     H23836   5.841   2.691  -0.401  0.5352 -0.2134  1.7435
  173MOL0     H23837   5.621   2.721  -0.525  3.3334 -3.6826  1.3362
  173MOL0     H23838   5.387   2.753  -0.569  0.5929 -1.2377  1.4896
  173MOL0     H23839   5.395   2.756  -0.400 -0.0277  0.8743 -0.1347
  173MOL0     H23840   5.193   2.883  -0.589  0.1281  1.1786 -0.0037
  173MOL0     H23841   5.157   2.787  -0.455  1.1569 -2.3118 -4.3017
  173MOL0     H23842   5.262   3.083  -0.434  0.6357  1.0743  0.5503
  173MOL0     H23843   5.236   2.967  -0.302  0.6538  0.3146 -0.0518
  173MOL0     H23844   4.999   2.994  -0.329  2.8242 -1.5615  1.2314
  173MOL0     H23845   5.012   3.063  -0.488  1.9411 -0.7050 -0.3183
  173MOL0     H23846   5.111   3.196  -0.230  0.8750 -0.1885 -0.7668
  173MOL0     H23847   5.127   3.257  -0.386 -0.0099  0.9031  1.2758
  173MOL0     H23848   4.847   3.206  -0.277  0.1497  2.9674  2.7932
  173MOL0     H23849   4.883   3.279  -0.428  1.7631 -2.1626 -0.7823
  173MOL0     H23850   4.960   3.395  -0.156 -0.3996  0.7215  0.7991
  173MOL0     H23851   4.825   3.443  -0.268  0.0373  1.2300 -0.0541
  173MOL0     H23852   5.007   3.499  -0.440 -0.9648  0.6692  0.1274
  173MOL0     H23853   5.122   3.500  -0.310  0.1004 -1.4233 -2.1700
  173MOL0     H23854   5.578   3.110  -0.353 -0.5441 -0.9824 -1.4504
  173MOL0     H23855   5.796   3.078  -0.232 -4.4005  0.1631  1.7925
  173MOL0     H23856   6.146   2.739  -0.183  0.5942  0.3366  0.1685
  173MOL0     H23857   6.298   2.684  -0.006 -1.5079 -0.6376  2.4252
  173MOL0     H23858   6.329   1.848   0.378 -0.1671 -0.1091 -0.9788
  173MOL0     H23859   6.397   1.670   0.235  0.1876  0.0137  1.0937
  173MOL0     H23860   6.669   1.595  -0.146 -0.5058 -0.2542 -0.4440
  173MOL0     H23861   6.710   1.470  -0.341 -0.8770 -1.7492 -1.4291
  173MOL0     H23862   6.614   1.024  -0.357  1.2168 -1.5958 -0.2819
  173MOL0     H23863   6.675   1.063  -0.504 -0.9305  3.4616 -0.7403
  173MOL0     H23864   6.830   0.931  -0.364 -2.0979 -0.3505  3.1629
  173MOL0     H23865   6.861   1.059  -0.253 -0.4804  1.1446  0.4420
  173MOL0     H23866   6.947   1.195  -0.483 -0.5326 -1.5208 -3.1297
  173MOL0     H23867   7.048   1.070  -0.426  0.0772  1.6527 -0.4820
  173MOL0     H23868   6.993   1.089  -0.683 -0.1597  0.7599  0.5164
  173MOL0     H23869   6.847   1.002  -0.642  0.4234 -0.8528 -0.0170
  173MOL0     H23870   7.156   0.709  -0.560  0.1617  0.3295 -1.6497
  173MOL0     H23871   6.555   1.107  -0.157 -0.2843 -0.4550  2.4480
  173MOL0     H23872   6.407   1.240   0.094  0.5234  1.7446  0.4485
  173MOL0     H23873   6.530   1.105   0.090 -2.3983 -0.4836  0.0317
  173MOL0     H23874   6.555   1.236   0.189 -2.1532 -3.7339  1.3416
  174MOL0     O23875  11.065   4.033   5.044 -0.5869  0.0117 -0.5218
  174MOL0     C23876  11.175   4.015   5.079 -1.1208  0.6777 -0.3857
  174MOL0     O23877  11.210   3.970   5.204  0.1709  0.8269  0.4316
  174MOL0     C23878  11.131   3.881   5.266 -0.2557  0.1182 -0.1220
  174MOL0     C23879  11.169   3.745   5.274 -0.0907 -1.1943  0.5396
  174MOL0     C23880  11.086   3.649   5.329 -0.7842  0.0522 -0.2512
  174MOL0     C23881  10.963   3.675   5.390  0.5013 -0.3974  0.2934
  174MOL0     O23882  10.896   3.582   5.467 -0.1495  0.9527  0.0585
  174MOL0     C23883  10.923   3.601   5.606 -0.2177  0.5838 -0.1404
  174MOL0     C23884  11.032   3.495   5.649 -0.1870  0.6228 -0.2190
  174MOL0     C23885  10.966   3.370   5.690  0.2896  0.3974  0.3641
  174MOL0     C23886  10.891   3.374   5.821 -0.0186  0.6119 -0.6456
  174MOL0     C23887  10.989   3.362   5.952  0.6806  0.4946  0.4094
  174MOL0     C23888  10.929   3.342   6.086  0.2534  0.4040 -0.4669
  174MOL0     C23889  11.032   3.363   6.205  1.4761  0.2133 -0.1334
  174MOL0     C23890  10.961   3.320   6.343  1.0139  1.0987  0.3537
  174MOL0     N23891  11.031   3.354   6.464  0.7506  0.1407 -0.0765
  174MOL0     C23892  11.171   3.339   6.488  1.0038 -0.9740  0.2678
  174MOL0     C23893  11.186   3.420   6.597 -0.1501  0.6255  0.1677
  174MOL0     C23894  11.301   3.440   6.687  0.2016 -0.6994  0.6138
  174MOL0     C23895  11.444   3.418   6.621  0.2649 -0.5505 -0.3610
  174MOL0     C23896  11.443   3.476   6.474 -0.1483  0.0520  0.1973
  174MOL0     C23897  11.581   3.462   6.413 -0.0765 -1.3236 -0.0240
  174MOL0     O23898  11.602   3.331   6.365  0.6112  0.8250  0.3763
  174MOL0     C23899  11.719   3.306   6.293  0.1438  0.5433  0.5248
  174MOL0     C23900  11.843   3.345   6.331  0.0049 -0.6809  0.4081
  174MOL0     C23901  11.958   3.321   6.253  0.2359  0.5397 -0.1463
  174MOL0     C23902  12.085   3.402   6.296 -0.1781 -0.3493  0.3642
  174MOL0     C23903  11.958   3.234   6.141 -0.8311  0.4666 -0.1028
  174MOL0     C23904  12.082   3.190   6.067 -0.4797  0.2581 -0.1151
  174MOL0     O23905  12.060   3.133   5.954 -0.0072  0.7493 -0.0997
  174MOL0     C23906  12.154   3.113   5.851  0.6173 -0.1187 -0.6530
  174MOL0     C23907  12.278   3.190   5.830 -0.7871  0.4469 -0.1187
  174MOL0     C23908  12.369   3.157   5.724  0.0046 -1.0558 -0.3655
  174MOL0     C23909  12.337   3.052   5.644  0.1694  0.0984  0.4150
  174MOL0     O23910  12.411   3.033   5.529 -0.3232 -1.2167 -0.3076
  174MOL0     C23911  12.500   2.924   5.550 -0.4041  0.1405  0.7512
  174MOL0     C23912  12.588   2.913   5.437 -0.6192  0.1117  0.2330
  174MOL0     C23913  12.709   3.008   5.426 -0.7667  0.4437  0.7844
  174MOL0     C23914  12.750   3.061   5.283  0.4608  0.4225 -0.4905
  174MOL0     C23915  12.648   3.155   5.231  0.1127  0.0408 -0.2048
  174MOL0     C23916  12.717   3.217   5.106  1.0353  0.8244 -0.4201
  174MOL0     C23917  12.614   3.325   5.074  0.7068  0.2286 -0.2377
  174MOL0     C23918  12.677   3.424   4.970 -0.8958 -0.0927 -0.3557
  174MOL0    Cl23919  12.700   3.323   4.821 -0.1047  0.0345  0.1375
  174MOL0     C23920  12.223   2.973   5.674  0.2734 -0.4437  0.1981
  174MOL0     C23921  12.129   3.014   5.768 -0.0161  0.3734  0.4687
  174MOL0     O23922  12.192   3.203   6.124  0.4110  0.1314  0.6525
  174MOL0     C23923  11.828   3.193   6.100 -1.0333 -0.1039 -0.6290
  174MOL0     C23924  11.713   3.225   6.170 -0.3790 -0.4528  0.0445
  174MOL0     N23925  11.069   3.474   6.636  0.7035 -0.8382 -1.0242
  174MOL0     N23926  10.972   3.441   6.553 -0.2663 -0.2148 -0.7062
  174MOL0     C23927  10.919   3.809   5.370 -0.3690  0.2239  0.1113
  174MOL0     C23928  11.002   3.908   5.315 -0.1500  0.0817  0.7400
  174MOL0     C23929  11.284   4.050   4.994 -0.4924 -0.5709  0.5224
  174MOL0     C23930  11.421   4.029   5.044  0.0123  0.2163  0.1812
  174MOL0     C23931  11.535   4.071   4.979 -0.6871  1.3567  0.1677
  174MOL0     C23932  11.519   4.113   4.846 -0.6295 -0.3202  0.0549
  174MOL0     O23933  11.629   4.167   4.785  0.3580  0.1411  0.3911
  174MOL0     C23934  11.676   4.084   4.680 -0.5782  0.0034 -0.2272
  174MOL0     C23935  11.741   3.949   4.715 -0.2202 -0.2823 -0.6975
  174MOL0     C23936  11.847   3.953   4.820 -0.6758 -0.0673 -1.0117
  174MOL0     C23937  11.893   3.820   4.867 -1.1603  0.1284  0.2049
  174MOL0     C23938  11.934   3.741   4.753 -0.1897 -1.1598 -0.0874
  174MOL0     C23939  11.965   3.676   4.653 -0.3606 -0.6921 -0.4176
  174MOL0     C23940  11.392   4.127   4.793  0.1389 -1.1710 -0.0418
  174MOL0     C23941  11.278   4.111   4.864  0.3286 -0.2659 -0.5601
  174MOL0     C23942  11.147   4.153   4.796 -0.3691  0.4251  0.0908
  174MOL0     H23943  11.267   3.721   5.235 -0.9064  1.1987 -3.5906
  174MOL0     H23944  11.125   3.550   5.353 -2.4147 -0.3206  1.0783
  174MOL0     H23945  10.836   3.603   5.672  0.0104  0.7790  0.1598
  174MOL0     H23946  10.968   3.699   5.625  0.3178  0.2050  0.5980
  174MOL0     H23947  11.103   3.476   5.568  0.0765 -1.5060  0.4447
  174MOL0     H23948  11.089   3.533   5.735 -0.5277  0.2176  0.1943
  174MOL0     H23949  10.894   3.334   5.616 -0.7100 -0.2503  1.6227
  174MOL0     H23950  11.050   3.300   5.689  1.3057  1.5795 -0.1776
  174MOL0     H23951  10.825   3.462   5.821 -2.2577 -0.9040  1.8197
  174MOL0     H23952  10.822   3.289   5.832  0.2836  0.4727  0.2920
  174MOL0     H23953  11.054   3.448   5.968 -0.2605  1.0593  1.3160
  174MOL0     H23954  11.058   3.278   5.937 -0.9400 -1.0594  1.2745
  174MOL0     H23955  10.835   3.393   6.107  0.3281  1.6301 -2.8307
  174MOL0     H23956  10.912   3.234   6.077  0.3811  0.5643 -3.3046
  174MOL0     H23957  11.058   3.468   6.217 -2.6501  1.8846 -3.7068
  174MOL0     H23958  11.123   3.305   6.181  0.4367 -1.9103  0.7532
  174MOL0     H23959  10.859   3.359   6.345  0.7344  0.5972 -1.5760
  174MOL0     H23960  10.947   3.212   6.340  0.1240  1.2226 -1.1058
  174MOL0     H23961  11.238   3.278   6.427 -1.5676 -0.8217 -2.9667
  174MOL0     H23962  11.300   3.401   6.789 -0.2418  1.9984  1.7306
  174MOL0     H23963  11.299   3.547   6.709 -0.3378  0.4828 -4.1009
  174MOL0     H23964  11.521   3.457   6.687 -1.7567 -0.2126  1.9644
  174MOL0     H23965  11.459   3.310   6.611 -2.7742 -1.0692 -0.3375
  174MOL0     H23966  11.380   3.429   6.398  0.3400  0.2039 -0.3088
  174MOL0     H23967  11.422   3.583   6.477 -2.1787 -0.3357  0.9152
  174MOL0     H23968  11.596   3.530   6.328 -1.4195 -1.0458 -0.0621
  174MOL0     H23969  11.656   3.492   6.487 -0.9183  2.1484 -0.4114
  174MOL0     H23970  11.861   3.395   6.425 -1.0478 -1.3986  1.0163
  174MOL0     H23971  12.135   3.447   6.210 -0.3318 -1.2974 -0.2339
  174MOL0     H23972  12.160   3.340   6.346 -1.0445 -1.0761  0.8098
  174MOL0     H23973  12.057   3.482   6.365 -1.8803 -1.3376  0.8718
  174MOL0     H23974  12.314   3.257   5.907  0.3940 -0.8618  0.5097
  174MOL0     H23975  12.457   3.217   5.705  0.9405 -2.0738  0.5979
  174MOL0     H23976  12.559   2.947   5.639  2.0717 -3.5272  0.2900
  174MOL0     H23977  12.439   2.835   5.569 -0.0323 -0.2019  0.3627
  174MOL0     H23978  12.604   2.805   5.447 -1.6681 -0.0211  0.5847
  174MOL0     H23979  12.540   2.918   5.339  3.1891  0.8035 -1.8092
  174MOL0     H23980  12.789   2.959   5.481 -1.0160  2.9109  3.6436
  174MOL0     H23981  12.697   3.098   5.488  0.8114  2.6295 -1.8253
  174MOL0     H23982  12.755   2.983   5.207  0.3354 -0.9369  0.8376
  174MOL0     H23983  12.852   3.095   5.299  1.1061 -2.0220  1.2097
  174MOL0     H23984  12.556   3.102   5.205  0.0792  0.0450 -0.0962
  174MOL0     H23985  12.618   3.226   5.309 -0.9876 -0.1520 -0.4485
  174MOL0     H23986  12.746   3.138   5.036 -1.8061  0.5762 -1.4387
  174MOL0     H23987  12.809   3.265   5.140 -0.8317  1.7152  4.0855
  174MOL0     H23988  12.608   3.390   5.161 -0.3094  3.0605 -2.2687
  174MOL0     H23989  12.514   3.288   5.048  1.2317 -1.1332 -0.4330
  174MOL0     H23990  12.776   3.459   5.001  0.3581 -3.6474  0.1688
  174MOL0     H23991  12.607   3.505   4.952  3.5829  4.5794  0.7655
  174MOL0     H23992  12.209   2.890   5.605 -0.7943 -1.0361  1.0937
  174MOL0     H23993  12.041   2.957   5.797 -0.3039  1.4055  1.7345
  174MOL0     H23994  11.825   3.140   6.005  3.7174 -1.4121 -0.2919
  174MOL0     H23995  11.617   3.181   6.144 -0.2402 -2.5851  2.6506
  174MOL0     H23996  10.826   3.834   5.421  1.5945  4.5923  2.0121
  174MOL0     H23997  10.955   4.006   5.319 -1.5871 -0.5232 -0.4103
  174MOL0     H23998  11.438   3.979   5.138 -0.5716 -1.7504 -0.7205
  174MOL0     H23999  11.639   4.064   5.009  0.0031  0.3872 -2.1786
  174MOL0     H24000  11.605   4.056   4.601  1.7965 -1.1931 -2.0966
  174MOL0     H24001  11.750   4.149   4.632  0.3201  0.4921  1.7476
  174MOL0     H24002  11.783   3.915   4.620  0.2016  0.1720 -0.6781
  174MOL0     H24003  11.662   3.883   4.752  1.2493 -0.5618  2.1876
  174MOL0     H24004  11.932   4.016   4.793 -0.3570 -0.8947 -1.9992
  174MOL0     H24005  11.806   4.002   4.909  1.2912  3.1221 -1.7059
  174MOL0     H24006  11.812   3.773   4.924 -2.4535 -2.1320 -3.1220
  174MOL0     H24007  11.982   3.826   4.930 -1.1070 -0.1213  0.1529
  174MOL0     H24008  11.986   3.611   4.571 -0.8297 -0.1303 -0.9949
  174MOL0     H24009  11.385   4.180   4.698  2.5579  0.4184  0.5903
  174MOL0     H24010  11.154   4.255   4.758 -3.3053  0.3273 -0.9971
  174MOL0     H24011  11.122   4.078   4.721  1.1696 -1.6950  1.5840
  174MOL0     H24012  11.054   4.161   4.855  0.0157  0.2329  0.7350
  175MOL0     O24013   6.945   0.989   0.441 -0.6666  0.4005 -0.0878
  175MOL0     C24014   6.829   0.974   0.409  0.0365  1.1615  0.3997
  175MOL0     O24015   6.778   0.959   0.277  0.6235 -0.0111  0.1211
  175MOL0     C24016   6.874   0.955   0.179 -0.5025 -0.6775 -0.7562
  175MOL0     C24017   6.955   0.838   0.173  0.1388 -0.5093 -0.2297
  175MOL0     C24018   7.055   0.832   0.081 -0.8995 -0.5671  0.8689
  175MOL0     C24019   7.088   0.936  -0.010  0.1423  0.5221 -1.5627
  175MOL0     O24020   7.175   0.902  -0.111 -0.7901 -0.5413  0.3211
  175MOL0     C24021   7.214   1.000  -0.207  0.3314 -0.2532  0.7192
  175MOL0     C24022   7.300   0.943  -0.316 -0.0296 -0.5379  0.0576
  175MOL0     C24023   7.448   0.940  -0.281 -1.2778 -0.0866 -0.3016
  175MOL0     C24024   7.510   1.059  -0.225 -0.3881 -0.9180 -0.0413
  175MOL0     C24025   7.643   1.031  -0.146  0.0966  0.4789  0.1485
  175MOL0     C24026   7.687   1.142  -0.046 -0.9690  0.3369 -0.0929
  175MOL0     C24027   7.839   1.123  -0.027  0.9227 -0.3341  0.7508
  175MOL0     C24028   7.920   1.224   0.058 -0.7102  0.0896 -0.2899
  175MOL0     N24029   7.874   1.357   0.059 -0.1858  0.4999 -0.1505
  175MOL0     C24030   7.958   1.461   0.040  0.8314 -0.3534  0.2934
  175MOL0     C24031   7.883   1.563   0.087 -0.4308 -0.5946  0.4586
  175MOL0     C24032   7.932   1.707   0.094 -0.0961  0.4723  0.1145
  175MOL0     C24033   8.036   1.721   0.197 -0.2460 -0.1668  0.0479
  175MOL0     C24034   8.101   1.860   0.203  0.1775  0.5297 -0.2708
  175MOL0     C24035   8.133   1.893   0.351 -0.0325  0.2026  0.3266
  175MOL0     O24036   8.196   2.018   0.352  0.1081 -0.5698  0.0890
  175MOL0     C24037   8.254   2.067   0.472  0.2300 -0.3052 -0.5576
  175MOL0     C24038   8.318   2.196   0.481  1.4635  0.6683  0.3437
  175MOL0     C24039   8.377   2.245   0.596  0.2091 -1.1779  0.0423
  175MOL0     C24040   8.443   2.378   0.576  0.3025  0.5389  0.4683
  175MOL0     C24041   8.357   2.175   0.721  0.0476  0.1741  0.2626
  175MOL0     C24042   8.394   2.227   0.857  0.3611  0.0378  0.3404
  175MOL0     O24043   8.377   2.136   0.960  0.3539  0.6355 -0.4959
  175MOL0     C24044   8.374   2.180   1.088 -0.1697 -0.4970 -0.9886
  175MOL0     C24045   8.253   2.218   1.138  0.0687  0.3040  0.1745
  175MOL0     C24046   8.248   2.260   1.273 -0.1362 -0.2869 -0.3862
  175MOL0     C24047   8.363   2.264   1.356  0.2002 -1.2429  0.0923
  175MOL0     O24048   8.350   2.297   1.486 -0.4019  0.4483  0.4071
  175MOL0     C24049   8.467   2.324   1.560  0.7893 -0.0981 -0.1769
  175MOL0     C24050   8.426   2.376   1.699  0.0674 -0.4817 -0.7335
  175MOL0     C24051   8.346   2.506   1.693 -0.3043  0.2041 -0.2407
  175MOL0     C24052   8.300   2.532   1.837 -0.8379  0.0494  0.5785
  175MOL0     C24053   8.207   2.657   1.852  0.7198  0.5801  0.3824
  175MOL0     C24054   8.275   2.792   1.840  0.8464 -0.1926 -0.2008
  175MOL0     C24055   8.407   2.795   1.918  0.0663 -0.5337 -0.2002
  175MOL0     C24056   8.450   2.950   1.928  0.2876  1.4347 -0.4633
  175MOL0    Cl24057   8.512   3.017   1.777 -0.1409  0.0564 -0.2177
  175MOL0     C24058   8.482   2.214   1.295  0.1133 -1.4782 -0.3437
  175MOL0     C24059   8.493   2.172   1.163  0.8560 -0.0456  0.0791
  175MOL0     O24060   8.433   2.342   0.874 -0.2384  0.0863 -0.5343
  175MOL0     C24061   8.304   2.040   0.710 -0.2407 -0.8506 -0.6735
  175MOL0     C24062   8.248   1.991   0.590  0.1459 -1.3484  0.0619
  175MOL0     N24063   7.761   1.523   0.137 -0.1576  0.8676 -0.0896
  175MOL0     N24064   7.756   1.395   0.119  0.1641 -0.5117  0.2713
  175MOL0     C24065   7.021   1.054  -0.001  0.6399 -0.1252  1.6563
  175MOL0     C24066   6.915   1.068   0.094 -0.0900 -0.5831 -0.8978
  175MOL0     C24067   6.731   0.953   0.527 -0.0062 -0.1795 -0.6472
  175MOL0     C24068   6.596   0.928   0.496  0.5289 -0.1993  0.1086
  175MOL0     C24069   6.496   0.912   0.592 -0.3635  0.1458 -0.8965
  175MOL0     C24070   6.536   0.918   0.728 -0.2958 -0.4943  0.2791
  175MOL0     O24071   6.437   0.890   0.825  0.3565 -0.1012 -0.0154
  175MOL0     C24072   6.466   0.920   0.960  0.1495  0.0769  0.6832
  175MOL0     C24073   6.337   0.905   1.040 -0.2608  0.1032  0.5234
  175MOL0     C24074   6.374   0.893   1.186  0.6585 -0.4103  0.4239
  175MOL0     C24075   6.255   0.884   1.282  0.4650 -0.8637  0.8344
  175MOL0     C24076   6.171   0.772   1.266 -0.1725  0.3203 -0.2978
  175MOL0     C24077   6.109   0.666   1.245  0.7217 -0.2494 -0.4831
  175MOL0     C24078   6.671   0.942   0.763  0.5070  0.0739 -1.1824
  175MOL0     C24079   6.768   0.962   0.668  0.1740 -0.2395 -0.4606
  175MOL0     C24080   6.903   0.992   0.724  0.0504 -0.1822 -0.0679
  175MOL0     H24081   6.932   0.751   0.234 -0.8260  1.2219  2.0533
  175MOL0     H24082   7.113   0.741   0.076  0.8886  0.5184  1.1009
  175MOL0     H24083   7.253   1.091  -0.161  0.6669 -0.1666  0.2743
  175MOL0     H24084   7.120   1.040  -0.246 -0.4478 -1.3718  1.3808
  175MOL0     H24085   7.264   0.844  -0.348  0.2194 -0.1227 -1.5783
  175MOL0     H24086   7.282   0.993  -0.411 -0.3136 -5.0179 -2.5614
  175MOL0     H24087   7.443   0.864  -0.203 -1.2668 -1.0791 -1.2487
  175MOL0     H24088   7.504   0.890  -0.361 -1.0191  0.2658 -0.3411
  175MOL0     H24089   7.533   1.131  -0.305 -0.8371 -0.2554  0.4178
  175MOL0     H24090   7.443   1.102  -0.150 -1.1657 -1.9791 -0.1136
  175MOL0     H24091   7.716   1.002  -0.223 -0.3934  1.6392 -0.7821
  175MOL0     H24092   7.621   0.946  -0.081 -1.3868  0.8630  0.1793
  175MOL0     H24093   7.670   1.242  -0.088  1.2824 -0.2964 -2.8230
  175MOL0     H24094   7.635   1.132   0.050 -1.6600  0.5991 -0.4267
  175MOL0     H24095   7.894   1.121  -0.122  1.1409  0.1315  0.8641
  175MOL0     H24096   7.848   1.024   0.019  2.2475  0.0688  1.4147
  175MOL0     H24097   7.908   1.185   0.159 -1.7971  1.0559 -0.0328
  175MOL0     H24098   8.026   1.213   0.034 -0.7730 -1.2061 -0.0311
  175MOL0     H24099   8.056   1.467  -0.006 -0.0646  2.6218 -1.4893
  175MOL0     H24100   7.846   1.760   0.136  1.9749  2.7602  1.7500
  175MOL0     H24101   7.964   1.747  -0.003  0.2181  0.5675  0.2550
  175MOL0     H24102   7.993   1.696   0.294  2.5208 -0.1328  1.3924
  175MOL0     H24103   8.116   1.648   0.179 -1.3078 -1.7160  1.2701
  175MOL0     H24104   8.191   1.869   0.141  2.2290  1.9212  2.6660
  175MOL0     H24105   8.029   1.938   0.174  0.2317  1.5757  2.1627
  175MOL0     H24106   8.047   1.900   0.419  0.7014 -3.8103  1.8967
  175MOL0     H24107   8.190   1.814   0.398  0.6017 -1.9362 -3.6203
  175MOL0     H24108   8.320   2.250   0.387  2.0188 -0.6058 -0.4017
  175MOL0     H24109   8.384   2.457   0.622  3.2585  3.1044  0.1295
  175MOL0     H24110   8.451   2.406   0.470 -2.0367  0.0299  0.0965
  175MOL0     H24111   8.541   2.377   0.623 -0.1118  2.6382  1.5024
  175MOL0     H24112   8.163   2.210   1.079  0.2865 -1.1381 -0.0180
  175MOL0     H24113   8.154   2.300   1.308  0.2445  0.7288 -0.4762
  175MOL0     H24114   8.520   2.231   1.577  1.0500  0.1037  0.1169
  175MOL0     H24115   8.524   2.396   1.500  2.4266 -0.0396  1.3844
  175MOL0     H24116   8.368   2.299   1.751 -1.7150  1.5795  0.5330
  175MOL0     H24117   8.515   2.404   1.757  0.2668  0.9850 -1.7094
  175MOL0     H24118   8.264   2.501   1.621 -0.4145  3.5901 -0.4750
  175MOL0     H24119   8.414   2.582   1.653 -0.0514 -0.0922 -0.3803
  175MOL0     H24120   8.389   2.537   1.899 -1.1798 -3.6541  1.5965
  175MOL0     H24121   8.243   2.446   1.872  0.8021 -0.1216  3.0005
  175MOL0     H24122   8.125   2.649   1.781  1.7641  0.8655 -0.9005
  175MOL0     H24123   8.162   2.637   1.950 -0.9781 -2.6461 -0.8971
  175MOL0     H24124   8.205   2.870   1.872  1.6985  0.4229  0.1998
  175MOL0     H24125   8.303   2.816   1.737  1.9055 -1.1085 -0.1465
  175MOL0     H24126   8.485   2.739   1.865 -0.1656 -1.1541  0.1048
  175MOL0     H24127   8.394   2.768   2.023 -3.3527  2.3704  0.3125
  175MOL0     H24128   8.527   2.970   2.003 -1.3787  5.2845  0.4569
  175MOL0     H24129   8.375   3.017   1.970  0.3169 -0.3288  2.7060
  175MOL0     H24130   8.576   2.213   1.348 -0.0463  0.3628  0.0507
  175MOL0     H24131   8.583   2.120   1.131  0.6137  0.2617 -1.1607
  175MOL0     H24132   8.301   1.978   0.799  1.0154  1.6498  1.2289
  175MOL0     H24133   8.215   1.887   0.592  0.8998 -1.5890  0.2877
  175MOL0     H24134   7.045   1.138  -0.067  0.7820  0.3576  2.3084
  175MOL0     H24135   6.854   1.157   0.104  0.8698 -0.1198  1.6832
  175MOL0     H24136   6.566   0.923   0.392  0.3373  2.1232  0.0005
  175MOL0     H24137   6.395   0.880   0.572 -0.4281  0.4684 -1.0984
  175MOL0     H24138   6.538   0.848   1.001 -0.4928 -0.7756  0.3543
  175MOL0     H24139   6.487   1.026   0.951 -1.0467  0.1428 -3.0286
  175MOL0     H24140   6.299   0.809   1.003  0.3765 -0.1054  0.3937
  175MOL0     H24141   6.272   0.991   1.022 -0.1399 -0.0283 -0.5589
  175MOL0     H24142   6.444   0.810   1.196 -0.2419 -1.6979 -2.6951
  175MOL0     H24143   6.435   0.978   1.215  1.5624 -0.6736 -0.6337
  175MOL0     H24144   6.188   0.969   1.268 -0.5607 -1.7726  0.0292
  175MOL0     H24145   6.294   0.873   1.383 -0.7006  1.2517  1.5664
  175MOL0     H24146   6.043   0.582   1.234 -1.5681  1.1276  1.5454
  175MOL0     H24147   6.694   0.966   0.867  0.6098 -3.0661 -0.3898
  175MOL0     H24148   6.968   0.909   0.697 -1.8455 -0.4341 -4.5743
  175MOL0     H24149   6.948   1.077   0.671  1.7085 -1.7637 -1.3234
  175MOL0     H24150   6.896   1.020   0.830 -3.3695 -0.1771 -0.1878
  176MOL0     O24151  10.686   4.629   8.633  0.2767  0.3573  0.5753
  176MOL0     C24152  10.783   4.665   8.571 -0.4971 -0.7943 -0.3586
  176MOL0     O24153  10.806   4.649   8.438 -0.2766 -0.3329  0.6018
  176MOL0     C24154  10.707   4.631   8.344  0.0915 -0.2573  0.3262
  176MOL0     C24155  10.571   4.679   8.351 -0.1513  0.3693  0.8618
  176MOL0     C24156  10.491   4.659   8.239  0.0175 -0.4567 -0.1264
  176MOL0     C24157  10.528   4.618   8.113 -0.9507 -0.7652 -0.1900
  176MOL0     O24158  10.462   4.635   7.995 -0.7128 -0.4352  0.4754
  176MOL0     C24159  10.411   4.517   7.936 -0.1661 -0.1439  0.0344
  176MOL0     C24160  10.255   4.524   7.949  0.8596  1.3082 -0.1504
  176MOL0     C24161  10.185   4.401   7.885 -0.0319 -0.1064  0.4728
  176MOL0     C24162  10.034   4.401   7.895 -0.8099  0.3080  0.7470
  176MOL0     C24163   9.983   4.372   7.763  1.4183 -0.0218 -0.1621
  176MOL0     C24164   9.982   4.220   7.741  0.2926  0.3997  0.1177
  176MOL0     C24165   9.952   4.185   7.596  0.5493  0.0957  0.2639
  176MOL0     C24166   9.980   4.033   7.569  1.1349  0.0881 -1.2690
  176MOL0     N24167   9.964   4.008   7.428  0.4701  0.9595 -0.3486
  176MOL0     C24168   9.999   4.091   7.324  0.2273 -0.8381 -0.5309
  176MOL0     C24169   9.944   4.039   7.215 -0.0667 -0.4113 -0.2329
  176MOL0     C24170   9.971   4.069   7.070  1.5208 -0.3452 -0.4388
  176MOL0     C24171   9.931   4.214   7.044 -1.3109 -0.2240  0.3392
  176MOL0     C24172   9.945   4.258   6.898  0.1714  0.7208 -0.0457
  176MOL0     C24173  10.086   4.336   6.885  0.2055  0.9928  0.6220
  176MOL0     O24174  10.192   4.239   6.886 -0.8048 -0.4090  0.5491
  176MOL0     C24175  10.326   4.288   6.904  0.3907  0.7429  0.8036
  176MOL0     C24176  10.352   4.423   6.943 -0.2152 -0.1161 -0.1751
  176MOL0     C24177  10.486   4.460   6.964 -0.7545  0.0892 -0.1998
  176MOL0     C24178  10.511   4.586   7.043  0.8718  0.3687 -0.4907
  176MOL0     C24179  10.590   4.377   6.910  0.3868 -0.2001 -0.1689
  176MOL0     C24180  10.739   4.392   6.935 -0.4597 -0.1555 -0.1539
  176MOL0     O24181  10.824   4.285   6.902 -0.4227 -0.1885 -0.5770
  176MOL0     C24182  10.964   4.286   6.926 -0.0881  0.2601 -0.1337
  176MOL0     C24183  11.046   4.213   6.835 -0.1417 -0.2052  0.7912
  176MOL0     C24184  11.179   4.208   6.849 -0.6134  0.2526  0.6242
  176MOL0     C24185  11.237   4.278   6.950  0.3166  0.1404 -0.6659
  176MOL0     O24186  11.374   4.268   6.972  0.4511  0.2138 -0.1776
  176MOL0     C24187  11.417   4.140   6.993 -0.1801 -0.2166 -0.2853
  176MOL0     C24188  11.552   4.146   7.064 -0.2470  0.6132  0.1131
  176MOL0     C24189  11.577   3.997   7.112 -0.1709 -0.0497 -0.4843
  176MOL0     C24190  11.711   3.994   7.189 -0.4136  0.8745 -0.2920
  176MOL0     C24191  11.728   3.862   7.269 -0.0579 -0.4946  0.9072
  176MOL0     C24192  11.868   3.841   7.327 -0.6613  0.1329  0.2278
  176MOL0     C24193  11.880   3.713   7.405 -0.3139 -0.3259  0.0359
  176MOL0     C24194  11.967   3.608   7.332  0.8343  0.1466  0.0966
  176MOL0    Cl24195  12.138   3.672   7.319  0.1952 -0.1051  0.4134
  176MOL0     C24196  11.161   4.347   7.042  0.1667  0.3450 -0.3285
  176MOL0     C24197  11.024   4.356   7.031  0.7348  0.7002 -0.1901
  176MOL0     O24198  10.779   4.502   6.975  0.3947 -0.0591 -0.2442
  176MOL0     C24199  10.557   4.252   6.858  0.0641  0.3353 -0.3902
  176MOL0     C24200  10.425   4.203   6.858 -0.6413 -0.7296  0.2524
  176MOL0     N24201   9.885   3.918   7.244 -1.1824 -0.5481 -1.9728
  176MOL0     N24202   9.885   3.906   7.379 -0.0766  0.6812 -0.2188
  176MOL0     C24203  10.662   4.581   8.107 -0.8208 -0.2129  0.5604
  176MOL0     C24204  10.744   4.570   8.224 -0.4358 -0.0735  0.1457
  176MOL0     C24205  10.893   4.736   8.643  0.1018  0.1722  0.1789
  176MOL0     C24206  10.963   4.843   8.584  0.2029 -0.9289  0.6531
  176MOL0     C24207  11.083   4.887   8.640  0.3431  1.5034  0.0001
  176MOL0     C24208  11.134   4.842   8.756  0.0199  0.3686 -0.3337
  176MOL0     O24209  11.263   4.873   8.794 -1.0691  0.0853 -0.4027
  176MOL0     C24210  11.353   4.959   8.717  0.4816  0.3296 -0.6764
  176MOL0     C24211  11.496   4.929   8.762  0.3437 -0.2440 -0.7433
  176MOL0     C24212  11.552   4.790   8.753  0.1922  1.0195  0.0900
  176MOL0     C24213  11.703   4.771   8.776  0.5064 -0.8856  0.2016
  176MOL0     C24214  11.776   4.841   8.669  0.5191 -0.6509 -0.0521
  176MOL0     C24215  11.806   4.908   8.573 -0.1838  0.2460 -0.6366
  176MOL0     C24216  11.064   4.748   8.821 -0.5406 -0.1846 -0.2765
  176MOL0     C24217  10.942   4.695   8.776  0.6008 -0.0344  0.0503
  176MOL0     C24218  10.868   4.585   8.861 -1.0411  0.0771  0.1853
  176MOL0     H24219  10.537   4.737   8.436 -2.2145  1.3606 -0.5513
  176MOL0     H24220  10.394   4.707   8.248  0.6460  0.6741  0.9382
  176MOL0     H24221  10.452   4.426   7.979 -0.1871 -0.3088 -0.2892
  176MOL0     H24222  10.435   4.531   7.830 -1.4795  3.0436  0.0458
  176MOL0     H24223  10.234   4.522   8.057  0.2694  0.3142 -0.2666
  176MOL0     H24224  10.225   4.621   7.908  4.2119  2.1448 -0.8882
  176MOL0     H24225  10.222   4.411   7.782 -1.2441 -0.3189 -0.0063
  176MOL0     H24226  10.217   4.309   7.935 -0.1869 -0.2509  0.3064
  176MOL0     H24227  10.017   4.325   7.972 -2.3500  0.7290  0.8588
  176MOL0     H24228   9.997   4.496   7.936 -0.0995  1.8902 -2.0189
  176MOL0     H24229  10.037   4.431   7.688  1.2868  0.2749 -0.0279
  176MOL0     H24230   9.877   4.401   7.763  1.6218  1.1743  3.3535
  176MOL0     H24231  10.084   4.184   7.762  0.7323  0.4398 -1.7927
  176MOL0     H24232   9.906   4.172   7.804 -0.7942  2.2953  0.3146
  176MOL0     H24233  10.021   4.242   7.533 -1.5508  1.4711 -0.9188
  176MOL0     H24234   9.850   4.217   7.571  1.1136  0.7993 -1.2485
  176MOL0     H24235  10.083   4.006   7.597  1.7095  1.1451 -2.2570
  176MOL0     H24236   9.908   3.968   7.619  1.5146 -0.8834 -1.9355
  176MOL0     H24237  10.069   4.174   7.324 -0.0498 -0.6037 -0.5024
  176MOL0     H24238   9.914   4.001   7.006  2.1528 -0.6332 -0.7040
  176MOL0     H24239  10.077   4.064   7.044  1.1006 -0.1465 -2.3671
  176MOL0     H24240   9.829   4.229   7.082 -1.2365  0.3189  0.3409
  176MOL0     H24241   9.997   4.272   7.109 -3.1061  1.6180  0.6418
  176MOL0     H24242   9.927   4.182   6.822  1.5392  1.3896 -1.0917
  176MOL0     H24243   9.860   4.323   6.875 -2.2240 -2.4553 -0.7441
  176MOL0     H24244  10.085   4.391   6.790 -0.5107 -1.3167 -0.7733
  176MOL0     H24245  10.089   4.406   6.969  0.9841 -1.9801  3.2824
  176MOL0     H24246  10.278   4.492   6.983 -1.4166 -2.5443  2.1690
  176MOL0     H24247  10.419   4.635   7.073  2.5974  3.3517  0.3156
  176MOL0     H24248  10.573   4.652   6.982  1.2834  0.5167  0.0774
  176MOL0     H24249  10.565   4.563   7.136 -0.3785 -3.4231 -0.5070
  176MOL0     H24250  10.995   4.155   6.758 -1.0242  0.3152  0.9695
  176MOL0     H24251  11.243   4.147   6.787 -2.0408 -1.8775  1.1524
  176MOL0     H24252  11.343   4.088   7.055  1.7313 -0.4042  1.9746
  176MOL0     H24253  11.428   4.083   6.900  1.6620 -1.1542  0.4534
  176MOL0     H24254  11.629   4.181   6.994 -0.7973 -1.6744 -1.7548
  176MOL0     H24255  11.555   4.221   7.144  4.3787  1.3255 -0.4288
  176MOL0     H24256  11.593   3.924   7.033  0.9547  0.5984 -0.8695
  176MOL0     H24257  11.500   3.972   7.187 -0.6155  1.7155 -0.3156
  176MOL0     H24258  11.732   4.077   7.257  4.9233 -0.0748 -0.3774
  176MOL0     H24259  11.791   3.997   7.115 -1.1660  1.2369 -1.1168
  176MOL0     H24260  11.654   3.865   7.350 -1.8338 -0.2831 -0.6464
  176MOL0     H24261  11.693   3.778   7.206 -0.6929 -0.1829  0.8333
  176MOL0     H24262  11.897   3.922   7.396  1.8683  0.0135 -0.5855
  176MOL0     H24263  11.942   3.855   7.247 -0.2583 -1.5007  0.2858
  176MOL0     H24264  11.780   3.683   7.439 -0.4232  2.6977  2.8643
  176MOL0     H24265  11.936   3.734   7.497  0.5092  0.8762 -0.7053
  176MOL0     H24266  11.931   3.606   7.229 -1.0065 -0.0917  0.7222
  176MOL0     H24267  11.953   3.511   7.380  2.3227 -0.2234 -0.1510
  176MOL0     H24268  11.218   4.397   7.119 -0.5431  1.7605 -0.6849
  176MOL0     H24269  10.968   4.421   7.098  0.1744  0.1447 -0.1173
  176MOL0     H24270  10.632   4.175   6.844 -1.3135 -1.0571 -0.3790
  176MOL0     H24271  10.408   4.112   6.801 -0.8143 -0.6316  0.1487
  176MOL0     H24272  10.704   4.551   8.011  0.5949 -4.5887  2.3071
  176MOL0     H24273  10.848   4.543   8.214 -0.6789 -0.3723 -2.3035
  176MOL0     H24274  10.930   4.904   8.501 -1.7793 -0.5625  1.6514
  176MOL0     H24275  11.130   4.964   8.579 -0.7546  1.4871 -0.9109
  176MOL0     H24276  11.345   4.943   8.609 -3.7503  1.1306 -0.6532
  176MOL0     H24277  11.325   5.063   8.733 -2.2782 -0.3853 -0.2500
  176MOL0     H24278  11.494   4.968   8.865 -2.9998 -2.2932  0.1459
  176MOL0     H24279  11.555   4.997   8.700  4.2699 -1.6670  1.1216
  176MOL0     H24280  11.502   4.730   8.830 -2.9561  0.4329 -2.2107
  176MOL0     H24281  11.526   4.763   8.650  0.2516 -1.9571  0.7555
  176MOL0     H24282  11.724   4.664   8.776 -2.7908 -1.6319  0.5718
  176MOL0     H24283  11.735   4.819   8.869  1.1466  0.6559 -0.7652
  176MOL0     H24284  11.806   4.972   8.486 -1.6572 -1.1165 -1.7049
  176MOL0     H24285  11.108   4.706   8.911  3.3179 -0.1828 -1.9725
  176MOL0     H24286  10.894   4.485   8.827 -0.8456  1.2955 -3.7296
  176MOL0     H24287  10.894   4.599   8.967 -0.1871 -0.8480  0.1094
  176MOL0     H24288  10.760   4.599   8.858 -0.9833  0.3799 -2.2776
  177MOL0     O24289   5.871  10.986   6.164  0.0139  1.0323 -0.3248
  177MOL0     C24290   5.812  11.009   6.059 -0.1965  0.3561  0.6599
  177MOL0     O24291   5.726  11.111   6.044 -0.6953  0.0791  0.1455
  177MOL0     C24292   5.696  11.195   6.143 -0.3791  0.0989  0.0754
  177MOL0     C24293   5.745  11.322   6.134 -0.5938 -0.1843  0.1701
  177MOL0     C24294   5.728  11.421   6.227 -1.1134 -0.7166 -0.6931
  177MOL0     C24295   5.651  11.404   6.334  0.0587  0.5738 -1.0450
  177MOL0     O24296   5.599  11.511   6.410 -0.5007  0.5300  0.3943
  177MOL0     C24297   5.529  11.474   6.526 -0.9195  0.0470 -0.1076
  177MOL0     C24298   5.479  11.596   6.608  0.4377 -0.8275 -0.0276
  177MOL0     C24299   5.597  11.680   6.659 -0.2036 -0.5532 -0.2656
  177MOL0     C24300   5.730  11.606   6.691  1.2876  1.3765 -0.6894
  177MOL0     C24301   5.814  11.681   6.792 -0.4493 -0.5017  0.1429
  177MOL0     C24302   5.846  11.831   6.742  0.2639  0.2475 -0.3173
  177MOL0     C24303   5.931  11.832   6.611  0.1848 -1.0445 -0.0728
  177MOL0     C24304   5.992  11.972   6.594  0.1108  0.9630  0.2740
  177MOL0     N24305   6.096  12.014   6.688 -0.9188 -0.8132  0.2567
  177MOL0     C24306   6.059  12.087   6.802 -0.8655  0.0028 -0.6005
  177MOL0     C24307   6.177  12.147   6.835  0.7803  0.1935  0.1250
  177MOL0     C24308   6.181  12.243   6.951 -1.0117 -0.4137  0.6639
  177MOL0     C24309   6.243  12.167   7.063  0.1652  0.8944 -0.7703
  177MOL0     C24310   6.267  12.266   7.182 -0.6054  0.5721  0.0094
  177MOL0     C24311   6.375  12.212   7.279  0.1058 -0.5074  1.0174
  177MOL0     O24312   6.504  12.237   7.207  0.0963 -1.0215 -0.0806
  177MOL0     C24313   6.566  12.133   7.142 -0.4780 -0.0778 -1.1019
  177MOL0     C24314   6.554  12.003   7.178  0.5961  0.5523  0.1154
  177MOL0     C24315   6.593  11.892   7.097 -0.6719  0.9710  0.2129
  177MOL0     C24316   6.551  11.754   7.146  1.2764  0.0645  1.2151
  177MOL0     C24317   6.687  11.916   6.986  0.1139  0.4708  0.1577
  177MOL0     C24318   6.772  11.813   6.919 -0.4792 -0.3413 -0.7714
  177MOL0     O24319   6.902  11.853   6.868  0.0930 -0.6514 -0.2562
  177MOL0     C24320   6.967  11.796   6.758 -0.9250 -0.1928 -0.6826
  177MOL0     C24321   7.108  11.785   6.751  0.7593  0.1076 -0.6333
  177MOL0     C24322   7.163  11.725   6.640 -0.0357  0.1788  0.5706
  177MOL0     C24323   7.090  11.702   6.527  0.0473  0.3025  1.5116
  177MOL0     O24324   7.149  11.658   6.407 -0.4381  0.4356  0.6520
  177MOL0     C24325   7.130  11.522   6.372 -0.3641  0.3034  0.1143
  177MOL0     C24326   7.172  11.513   6.228  0.6771  0.5284 -0.0631
  177MOL0     C24327   7.074  11.589   6.148  0.0730  0.3509  0.6085
  177MOL0     C24328   7.150  11.728   6.113 -0.5381 -0.1449 -0.3245
  177MOL0     C24329   7.051  11.817   6.027  0.2614  0.6263 -0.6777
  177MOL0     C24330   6.967  11.904   6.127 -1.3139  0.1451 -0.7865
  177MOL0     C24331   6.890  12.010   6.043  1.2409 -0.4133 -0.5247
  177MOL0     C24332   6.767  12.069   6.114 -0.2496 -0.4737 -0.1858
  177MOL0    Cl24333   6.808  12.147   6.269  0.2547 -0.3395  0.7400
  177MOL0     C24334   6.947  11.704   6.533  0.0847 -0.1615  0.2756
  177MOL0     C24335   6.893  11.750   6.653  0.5699 -0.8312  0.2424
  177MOL0     O24336   6.716  11.707   6.892 -0.4548 -0.1179 -0.1756
  177MOL0     C24337   6.709  12.053   6.963  0.5731 -0.0147  0.4546
  177MOL0     C24338   6.655  12.158   7.038 -0.4667 -0.4381  0.4226
  177MOL0     N24339   6.276  12.121   6.734 -0.1893  0.2308  0.1420
  177MOL0     N24340   6.225  12.031   6.649 -0.9921 -0.7250  0.4336
  177MOL0     C24341   5.615  11.269   6.360 -0.4908 -0.1701  0.8451
  177MOL0     C24342   5.640  11.168   6.266  0.7829 -0.3419  0.1556
  177MOL0     C24343   5.851  10.927   5.937 -0.4417  0.0732 -0.7119
  177MOL0     C24344   5.905  10.993   5.821  0.3002 -0.4032 -0.2533
  177MOL0     C24345   5.976  10.921   5.726 -0.0852  0.0646  0.1987
  177MOL0     C24346   5.979  10.784   5.730  0.7267  0.0024  0.1119
  177MOL0     O24347   6.047  10.719   5.625 -0.3215 -0.3773 -0.2535
  177MOL0     C24348   6.031  10.584   5.602 -0.4640  0.2781  0.2946
  177MOL0     C24349   6.111  10.543   5.473  0.5094 -0.3064 -1.1601
  177MOL0     C24350   6.249  10.507   5.518  0.1477 -0.4806  1.1040
  177MOL0     C24351   6.339  10.463   5.401 -0.4520 -0.0337  0.3782
  177MOL0     C24352   6.298  10.334   5.342 -0.2820  0.2365  1.0633
  177MOL0     C24353   6.237  10.227   5.310 -0.7692  0.4322  0.5417
  177MOL0     C24354   5.910  10.712   5.838 -0.9936  0.1238  0.4823
  177MOL0     C24355   5.854  10.789   5.946 -0.2537 -0.0456  1.0516
  177MOL0     C24356   5.799  10.731   6.071 -0.2803  0.3262  0.0273
  177MOL0     H24357   5.803  11.341   6.045  3.1146  1.2644  2.6252
  177MOL0     H24358   5.768  11.520   6.207 -0.2764 -0.6531  1.1043
  177MOL0     H24359   5.588  11.407   6.590 -1.3317 -0.8747 -0.6697
  177MOL0     H24360   5.443  11.417   6.490  0.2381 -2.4141  0.8137
  177MOL0     H24361   5.410  11.660   6.553 -1.2245 -1.1553  1.6004
  177MOL0     H24362   5.428  11.557   6.696 -0.3133  0.4618  0.1406
  177MOL0     H24363   5.629  11.754   6.584  1.7602 -1.1464 -0.0579
  177MOL0     H24364   5.561  11.741   6.742 -0.9345  1.3385 -1.8610
  177MOL0     H24365   5.700  11.508   6.731  1.1561  2.1802  1.3160
  177MOL0     H24366   5.785  11.584   6.599 -1.3154  1.0592 -2.2430
  177MOL0     H24367   5.908  11.627   6.808 -0.6031 -1.7201 -2.3864
  177MOL0     H24368   5.768  11.699   6.889 -0.2238  0.6362  0.0532
  177MOL0     H24369   5.752  11.885   6.736  1.4137  3.3139  4.1064
  177MOL0     H24370   5.908  11.885   6.816 -0.6591  0.2270  0.4894
  177MOL0     H24371   5.880  11.796   6.521 -2.3806  1.3318  0.2934
  177MOL0     H24372   6.012  11.759   6.615  0.6608 -0.5390 -0.2998
  177MOL0     H24373   6.046  11.978   6.499 -0.3523 -1.3069 -0.1840
  177MOL0     H24374   5.914  12.049   6.593  0.9357  1.9018 -2.4308
  177MOL0     H24375   5.963  12.086   6.853 -0.1456 -2.1294  0.8186
  177MOL0     H24376   6.077  12.270   6.973 -1.6273 -1.8070 -0.4020
  177MOL0     H24377   6.248  12.324   6.920  1.0879 -2.1328  0.5122
  177MOL0     H24378   6.194  12.073   7.091 -0.8015  2.1198  2.0373
  177MOL0     H24379   6.336  12.124   7.026 -2.5089 -2.9607 -3.7787
  177MOL0     H24380   6.289  12.363   7.136 -2.4178  0.1940 -1.8146
  177MOL0     H24381   6.178  12.279   7.244  0.6607  2.6944  1.4951
  177MOL0     H24382   6.370  12.286   7.360  0.9960  1.7688 -0.8787
  177MOL0     H24383   6.350  12.114   7.321  0.1946 -0.8464  0.2928
  177MOL0     H24384   6.498  11.982   7.269  0.6725 -0.1650 -0.0046
  177MOL0     H24385   6.442  11.760   7.145  1.2201  1.2563 -2.4785
  177MOL0     H24386   6.597  11.752   7.245 -2.3656 -4.2232  3.1760
  177MOL0     H24387   6.572  11.661   7.092 -1.0467 -0.7942  1.6808
  177MOL0     H24388   7.161  11.820   6.839 -1.7612 -0.8404  1.4249
  177MOL0     H24389   7.270  11.717   6.623 -0.4706 -2.1090 -1.7986
  177MOL0     H24390   7.200  11.464   6.432  0.0086  0.0521 -0.5604
  177MOL0     H24391   7.028  11.486   6.388 -0.7963  0.7097 -1.6021
  177MOL0     H24392   7.272  11.556   6.221  1.7358 -1.5194  1.3286
  177MOL0     H24393   7.166  11.412   6.185 -3.5703  0.9488 -0.9359
  177MOL0     H24394   6.973  11.590   6.190  1.5917  0.1729  4.6644
  177MOL0     H24395   7.059  11.544   6.049  3.0957  1.6887 -0.5928
  177MOL0     H24396   7.239  11.706   6.054  0.2191 -0.5733  0.9336
  177MOL0     H24397   7.190  11.777   6.202  0.0172 -0.5317 -0.3616
  177MOL0     H24398   7.119  11.870   5.959  1.0326 -0.2043 -0.5743
  177MOL0     H24399   6.987  11.741   5.982  1.4109 -1.0047  0.3481
  177MOL0     H24400   7.040  11.960   6.186  0.4767  0.2854 -2.9789
  177MOL0     H24401   6.900  11.853   6.196 -0.4303 -0.5663 -0.4392
  177MOL0     H24402   6.861  11.960   5.950 -2.2082  1.1819 -0.4593
  177MOL0     H24403   6.951  12.098   6.020  0.2817  0.4413  0.0946
  177MOL0     H24404   6.693  11.989   6.126  1.4905 -2.1086  0.2294
  177MOL0     H24405   6.722  12.137   6.041 -0.1913 -0.5763 -0.3178
  177MOL0     H24406   6.883  11.670   6.452  0.5681 -1.1249  0.2804
  177MOL0     H24407   6.786  11.752   6.667  0.6273  0.9178  0.6473
  177MOL0     H24408   6.775  12.090   6.885  0.2934  0.4866  0.4538
  177MOL0     H24409   6.670  12.263   7.014 -3.1617 -0.0560  0.1557
  177MOL0     H24410   5.547  11.235   6.438 -0.3940 -0.6275  0.7360
  177MOL0     H24411   5.609  11.064   6.277  0.4638 -0.1185  1.4029
  177MOL0     H24412   5.904  11.101   5.815 -0.0279 -0.2323  2.1034
  177MOL0     H24413   6.006  10.972   5.636 -1.3160  0.2452 -0.1205
  177MOL0     H24414   6.058  10.523   5.688 -0.5917 -3.0579 -1.8656
  177MOL0     H24415   5.924  10.571   5.582 -0.1037  0.3939 -1.9007
  177MOL0     H24416   6.111  10.624   5.399 -1.2539  0.3326 -0.5068
  177MOL0     H24417   6.058  10.456   5.432 -0.5461 -1.4690  2.3044
  177MOL0     H24418   6.286  10.589   5.581  0.0188  0.6935 -0.3129
  177MOL0     H24419   6.241  10.419   5.583  0.3283 -3.4943 -2.6226
  177MOL0     H24420   6.439  10.441   5.440  0.5752  2.3970 -0.6993
  177MOL0     H24421   6.352  10.542   5.326  1.5513  1.2056  1.9177
  177MOL0     H24422   6.183  10.135   5.309  0.0549 -0.0712 -1.4299
  177MOL0     H24423   5.929  10.605   5.840 -1.4595 -0.0128 -1.1480
  177MOL0     H24424   5.860  10.746   6.161  0.7556  1.6245 -0.8550
  177MOL0     H24425   5.709  10.783   6.103  1.5143  2.0933  2.6816
  177MOL0     H24426   5.780  10.625   6.049  3.5135 -0.9098  1.7054
  178MOL0     O24427   5.127   0.622   6.685 -0.7952  0.8598  0.3294
  178MOL0     C24428   5.176   0.506   6.678  0.2903 -0.0693 -0.0697
  178MOL0     O24429   5.123   0.396   6.736  0.7135  0.0429 -0.6524
  178MOL0     C24430   5.002   0.412   6.811 -0.8883  0.4120 -0.3914
  178MOL0     C24431   4.893   0.485   6.762  1.2270  0.1194  0.7781
  178MOL0     C24432   4.793   0.521   6.853  0.4981 -0.2025 -0.1767
  178MOL0     C24433   4.793   0.473   6.985  0.1193 -1.1923 -0.0379
  178MOL0     O24434   4.690   0.504   7.072  0.8994  0.1842  1.1502
  178MOL0     C24435   4.633   0.418   7.175 -1.0283  0.6075 -1.0080
  178MOL0     C24436   4.518   0.325   7.119  0.0525  0.2906 -0.1444
  178MOL0     C24437   4.411   0.415   7.062 -0.1793 -1.0369  0.4329
  178MOL0     C24438   4.280   0.346   7.036  0.1991 -0.3584 -0.2102
  178MOL0     C24439   4.182   0.445   6.960 -0.8640 -0.1454  0.4251
  178MOL0     C24440   4.040   0.390   6.939 -0.7652 -0.0100  0.0263
  178MOL0     C24441   3.943   0.505   6.886  0.2070  0.7015 -0.6247
  178MOL0     C24442   3.808   0.446   6.856 -0.2255 -0.3771 -0.4047
  178MOL0     N24443   3.709   0.554   6.846 -0.2363 -0.2461 -0.0046
  178MOL0     C24444   3.681   0.654   6.936  0.6600 -0.8595 -0.8968
  178MOL0     C24445   3.577   0.720   6.886  0.5206 -0.6857 -0.2036
  178MOL0     C24446   3.507   0.833   6.949  0.0166 -0.3449  0.1236
  178MOL0     C24447   3.446   0.808   7.089  0.1027  0.6184  0.3614
  178MOL0     C24448   3.376   0.676   7.106  0.4466 -0.2130  0.5093
  178MOL0     C24449   3.401   0.608   7.244  0.0894  0.1639  0.6776
  178MOL0     O24450   3.515   0.528   7.222  0.2527  0.1810  0.5448
  178MOL0     C24451   3.569   0.460   7.329  1.4225 -0.3370 -0.0412
  178MOL0     C24452   3.670   0.372   7.314  0.6336  0.0243  0.0160
  178MOL0     C24453   3.730   0.309   7.419  0.0253  0.4135 -0.4232
  178MOL0     C24454   3.851   0.225   7.379  0.0374 -0.7192 -1.2079
  178MOL0     C24455   3.666   0.300   7.542  0.0509 -0.0982 -0.2046
  178MOL0     C24456   3.699   0.199   7.646  0.1424 -0.2602  0.2695
  178MOL0     O24457   3.779   0.093   7.619 -0.0087  0.2914  0.1015
  178MOL0     C24458   3.789  -0.009   7.718  0.8098  0.4641  1.1455
  178MOL0     C24459   3.880   0.003   7.816  0.2429  0.4282 -1.6567
  178MOL0     C24460   3.899  -0.106   7.900  0.7892  0.6562 -0.8861
  178MOL0     C24461   3.835  -0.231   7.877 -0.1583  1.8448  0.0990
  178MOL0     O24462   3.886  -0.344   7.942 -0.1948 -0.1100  0.4451
  178MOL0     C24463   3.811  -0.433   8.018  0.5614  0.5212  0.6720
  178MOL0     C24464   3.907  -0.543   8.081  0.6661  0.5643 -0.0781
  178MOL0     C24465   4.024  -0.591   7.991 -0.4541 -0.0629 -0.7302
  178MOL0     C24466   4.092  -0.722   8.058 -0.7356  0.5050 -0.2635
  178MOL0     C24467   4.238  -0.755   7.995 -0.5956  0.8751 -0.2569
  178MOL0     C24468   4.318  -0.833   8.102 -1.1060  0.7978 -0.3793
  178MOL0     C24469   4.234  -0.959   8.147 -0.3123 -0.1288  1.6974
  178MOL0     C24470   4.331  -1.073   8.188  0.1780 -0.0931 -0.3038
  178MOL0    Cl24471   4.237  -1.224   8.225  0.5399  0.3788  0.1134
  178MOL0     C24472   3.746  -0.245   7.776  0.0581  0.6977 -1.0839
  178MOL0     C24473   3.722  -0.132   7.698 -0.0760  1.3465 -1.0672
  178MOL0     O24474   3.642   0.217   7.756 -0.0156  0.2646 -0.0876
  178MOL0     C24475   3.557   0.385   7.558  1.1269 -0.8227  0.7568
  178MOL0     C24476   3.511   0.466   7.454 -0.0319 -0.3250 -0.2028
  178MOL0     N24477   3.539   0.668   6.767 -0.0552  0.0476 -0.2836
  178MOL0     N24478   3.611   0.559   6.747 -0.0431 -0.5465 -0.3427
  178MOL0     C24479   4.899   0.393   7.025 -0.0509  0.3759 -0.3592
  178MOL0     C24480   5.010   0.367   6.946 -0.0137  0.8612 -0.3834
  178MOL0     C24481   5.303   0.493   6.607 -0.2962 -0.2784  0.4909
  178MOL0     C24482   5.400   0.574   6.640 -0.7811 -0.7082  0.6997
  178MOL0     C24483   5.528   0.568   6.574  0.4589 -0.2011 -0.1875
  178MOL0     C24484   5.547   0.486   6.461  0.6290 -0.0672  0.0065
  178MOL0     O24485   5.678   0.487   6.414 -0.2610 -0.7182 -0.0271
  178MOL0     C24486   5.703   0.455   6.280 -0.2734  0.0912 -0.0661
  178MOL0     C24487   5.841   0.517   6.273 -2.1642  0.0342 -0.0367
  178MOL0     C24488   5.916   0.479   6.150  0.6285 -1.4423 -0.6047
  178MOL0     C24489   6.037   0.394   6.181 -0.6007 -0.5258 -1.1910
  178MOL0     C24490   6.120   0.370   6.062  0.1817  0.3327  0.2515
  178MOL0     C24491   6.190   0.340   5.962  0.0781  0.6259 -0.0318
  178MOL0     C24492   5.442   0.409   6.433  0.6197 -0.1414  1.0059
  178MOL0     C24493   5.319   0.411   6.495 -0.5803  0.1126  0.0695
  178MOL0     C24494   5.226   0.311   6.445  0.0362  0.0564 -0.4424
  178MOL0     H24495   4.889   0.506   6.656 -2.9508  3.9095  1.3707
  178MOL0     H24496   4.704   0.575   6.822 -1.9255 -2.7341  1.8278
  178MOL0     H24497   4.595   0.477   7.259 -1.8644  0.4197 -1.2439
  178MOL0     H24498   4.718   0.361   7.215 -1.1675  1.4210  0.5397
  178MOL0     H24499   4.550   0.248   7.047 -1.4469 -2.3894  1.8969
  178MOL0     H24500   4.475   0.269   7.202 -3.3605  1.5855 -0.8761
  178MOL0     H24501   4.390   0.504   7.123  0.1926  0.1064 -1.0594
  178MOL0     H24502   4.444   0.465   6.970 -0.5616  0.7482  1.2121
  178MOL0     H24503   4.296   0.249   6.989 -0.3629 -0.5961  0.0748
  178MOL0     H24504   4.233   0.335   7.134  1.5997  0.8220  0.6383
  178MOL0     H24505   4.241   0.472   6.872  2.5443 -0.9750  2.2317
  178MOL0     H24506   4.166   0.532   7.024 -0.0680 -1.0767  1.9686
  178MOL0     H24507   4.038   0.309   6.865  3.6792 -0.0695 -0.2884
  178MOL0     H24508   4.005   0.338   7.029  1.2613 -0.3349  0.6575
  178MOL0     H24509   3.981   0.565   6.803 -2.1667 -0.0661 -2.3639
  178MOL0     H24510   3.940   0.559   6.981 -0.8906  0.1307 -0.3212
  178MOL0     H24511   3.805   0.397   6.758 -2.4530  0.4408 -0.8037
  178MOL0     H24512   3.768   0.386   6.938 -1.7095  1.2989  0.1624
  178MOL0     H24513   3.737   0.678   7.026  2.2522 -1.5563 -1.6650
  178MOL0     H24514   3.421   0.872   6.894  0.1665 -1.2803 -0.8084
  178MOL0     H24515   3.587   0.909   6.951 -0.0697 -0.2602  0.4936
  178MOL0     H24516   3.533   0.813   7.155  0.6968  0.3133 -0.3833
  178MOL0     H24517   3.372   0.885   7.114 -2.2010 -1.5349  0.6503
  178MOL0     H24518   3.269   0.692   7.092  0.5403  0.1544  0.1948
  178MOL0     H24519   3.410   0.610   7.025  0.9524  2.0545 -1.2121
  178MOL0     H24520   3.432   0.679   7.321  1.6706  1.6131 -1.2012
  178MOL0     H24521   3.318   0.548   7.282 -0.4773 -0.3683 -1.2811
  178MOL0     H24522   3.701   0.368   7.210  1.1816  0.6083  0.1512
  178MOL0     H24523   3.890   0.254   7.281  1.0355  1.1457 -0.3349
  178MOL0     H24524   3.817   0.122   7.368  1.7001 -2.0669  3.7186
  178MOL0     H24525   3.940   0.239   7.441  0.5040  0.4678 -2.1099
  178MOL0     H24526   3.937   0.095   7.828 -1.2589  1.0878  1.6828
  178MOL0     H24527   3.967  -0.119   7.983  1.1805  0.9262 -1.1582
  178MOL0     H24528   3.745  -0.394   8.096  1.8703  2.1246  1.0237
  178MOL0     H24529   3.740  -0.490   7.957 -0.7073  2.3745  0.3321
  178MOL0     H24530   3.933  -0.508   8.182 -5.7374  1.5531  1.6840
  178MOL0     H24531   3.854  -0.637   8.095 -1.0149  1.2661 -1.3952
  178MOL0     H24532   4.101  -0.513   7.997  1.2557 -1.7840  1.1973
  178MOL0     H24533   4.012  -0.593   7.882  0.7526  0.1040 -0.8806
  178MOL0     H24534   4.022  -0.806   8.062  0.7587 -0.7331  0.8535
  178MOL0     H24535   4.110  -0.695   8.162 -1.8113  0.0847  0.0434
  178MOL0     H24536   4.241  -0.812   7.901 -1.5962  0.6099 -0.1395
  178MOL0     H24537   4.292  -0.662   7.973 -0.2637  0.8850  0.5613
  178MOL0     H24538   4.336  -0.778   8.196 -0.4734  0.2933 -0.2039
  178MOL0     H24539   4.415  -0.848   8.055 -0.5730  1.0308  0.5950
  178MOL0     H24540   4.179  -0.994   8.060 -0.8809  3.8217  0.2749
  178MOL0     H24541   4.169  -0.925   8.229 -1.5229  1.8530  0.0143
  178MOL0     H24542   4.398  -1.046   8.270  0.8454  0.7651 -1.0923
  178MOL0     H24543   4.389  -1.087   8.096 -1.5356 -0.1510 -1.4181
  178MOL0     H24544   3.712  -0.341   7.737  2.1753 -1.6775  2.4048
  178MOL0     H24545   3.649  -0.147   7.619  1.3185 -0.9866 -1.9871
  178MOL0     H24546   3.492   0.384   7.645 -3.1784  2.6255 -1.9629
  178MOL0     H24547   3.425   0.529   7.472 -0.3469 -0.8310  0.0785
  178MOL0     H24548   4.904   0.356   7.127 -0.1778 -0.1704 -0.5460
  178MOL0     H24549   5.089   0.303   6.984 -1.4297 -0.8199 -0.1471
  178MOL0     H24550   5.403   0.618   6.739  1.4010  1.3708 -0.2085
  178MOL0     H24551   5.613   0.626   6.608  0.9670  1.9695 -4.4523
  178MOL0     H24552   5.698   0.347   6.265  2.8065 -0.0573 -0.7664
  178MOL0     H24553   5.641   0.511   6.209  0.8957 -0.1611 -1.3252
  178MOL0     H24554   5.909   0.492   6.354  0.4190  1.5503 -1.5928
  178MOL0     H24555   5.823   0.624   6.283  1.1326  0.4676  3.6897
  178MOL0     H24556   5.853   0.428   6.077  0.6073 -0.6655 -1.1400
  178MOL0     H24557   5.948   0.565   6.090 -0.6901 -2.9895 -3.7548
  178MOL0     H24558   6.008   0.301   6.229  0.8226  1.1107  3.3665
  178MOL0     H24559   6.102   0.445   6.253 -0.6021 -1.1423 -0.7516
  178MOL0     H24560   6.235   0.316   5.868 -0.2199 -0.4945  0.0948
  178MOL0     H24561   5.451   0.330   6.359  0.5873  0.0533  0.7905
  178MOL0     H24562   5.142   0.365   6.399  0.8404  1.8141  0.0744
  178MOL0     H24563   5.275   0.241   6.377  3.8536 -0.5978  2.6227
  178MOL0     H24564   5.190   0.252   6.530 -0.9248  0.2985 -0.6609
  179MOL0     O24565   6.296   4.669   8.314  0.1897 -0.0404  0.0647
  179MOL0     C24566   6.314   4.559   8.357  0.1401 -0.3396 -0.2143
  179MOL0     O24567   6.414   4.526   8.443 -0.3319 -0.9455  0.9837
  179MOL0     C24568   6.500   4.632   8.484 -0.4344  0.3226  0.5983
  179MOL0     C24569   6.495   4.688   8.608 -0.2896 -0.4681 -0.0197
  179MOL0     C24570   6.597   4.775   8.654 -0.3847 -0.1728  0.6876
  179MOL0     C24571   6.704   4.806   8.574 -0.9627  0.3895 -0.4902
  179MOL0     O24572   6.806   4.892   8.613 -0.9751  0.0312 -0.9862
  179MOL0     C24573   6.833   4.914   8.750  0.2578  0.2058  0.6479
  179MOL0     C24574   6.963   4.987   8.772 -0.2340 -0.5834  0.0095
  179MOL0     C24575   7.075   4.925   8.688  0.3291 -0.3318  0.0477
  179MOL0     C24576   7.102   4.776   8.716  0.1234 -0.4319  0.2224
  179MOL0     C24577   7.214   4.718   8.625  0.4751  0.9357 -0.6235
  179MOL0     C24578   7.191   4.751   8.481  1.1357  0.5397  0.2027
  179MOL0     C24579   7.287   4.668   8.393 -0.0393 -0.2335  0.0209
  179MOL0     C24580   7.432   4.731   8.387 -0.6200  0.6633  1.6735
  179MOL0     N24581   7.444   4.851   8.300  0.2892  0.4673 -0.0618
  179MOL0     C24582   7.453   4.842   8.164  0.6126 -1.4143 -0.6765
  179MOL0     C24583   7.501   4.958   8.131 -0.2883  0.2184 -0.3189
  179MOL0     C24584   7.544   4.992   7.989 -0.0709  0.4405  0.0255
  179MOL0     C24585   7.432   4.977   7.897 -0.0567 -0.6787 -0.4266
  179MOL0     C24586   7.468   5.023   7.757  0.0803 -0.0482 -0.6209
  179MOL0     C24587   7.377   4.954   7.647 -0.1550 -1.5200  1.0855
  179MOL0     O24588   7.244   4.992   7.670  0.0922  0.1911  0.4969
  179MOL0     C24589   7.148   4.966   7.577  0.7824 -0.8930  0.0480
  179MOL0     C24590   7.018   4.995   7.614  0.0652 -0.1623  0.1560
  179MOL0     C24591   6.907   4.961   7.540  1.1444  0.7352  0.0231
  179MOL0     C24592   6.785   5.016   7.609 -0.6749 -0.4078  0.5385
  179MOL0     C24593   6.932   4.911   7.411  0.6548  0.1248  0.0564
  179MOL0     C24594   6.823   4.913   7.315  0.7762 -0.0461  0.7000
  179MOL0     O24595   6.860   4.900   7.183 -0.3757  0.7770 -0.4692
  179MOL0     C24596   6.760   4.894   7.091 -0.1231 -0.1595 -0.6038
  179MOL0     C24597   6.734   4.774   7.040  0.1683 -0.3640  0.3674
  179MOL0     C24598   6.630   4.751   6.947 -0.2360 -0.5789 -0.3625
  179MOL0     C24599   6.552   4.860   6.901  0.1109 -0.6514 -0.1240
  179MOL0     O24600   6.429   4.842   6.828 -0.0855  0.7153 -0.1381
  179MOL0     C24601   6.456   4.771   6.699  0.1450  0.8807 -0.1458
  179MOL0     C24602   6.316   4.765   6.629 -0.2636 -0.4736 -0.4816
  179MOL0     C24603   6.205   4.687   6.698  0.5712 -0.1094  0.1558
  179MOL0     C24604   6.067   4.687   6.623  0.6291  0.4232 -0.3128
  179MOL0     C24605   5.954   4.626   6.713 -0.4516  0.2847 -0.2290
  179MOL0     C24606   5.914   4.701   6.838  0.4790 -0.5961  0.7903
  179MOL0     C24607   5.792   4.651   6.904  0.6881  0.8601 -0.2783
  179MOL0     C24608   5.795   4.686   7.049 -0.8325 -0.5277 -0.1928
  179MOL0    Cl24609   5.822   4.858   7.076 -0.2667  0.1080 -0.3795
  179MOL0     C24610   6.583   4.986   6.951  0.1628 -0.9365 -0.0644
  179MOL0     C24611   6.699   5.009   7.030 -0.7464  0.7846 -0.0764
  179MOL0     O24612   6.704   4.911   7.354 -0.5758 -0.2592 -0.5997
  179MOL0     C24613   7.060   4.876   7.367 -0.5366  0.7372 -1.0838
  179MOL0     C24614   7.162   4.898   7.453 -0.4377  0.3458  0.5001
  179MOL0     N24615   7.526   5.036   8.237 -0.3902 -0.4853 -0.0639
  179MOL0     N24616   7.507   4.965   8.338 -0.4240  0.5067  0.3029
  179MOL0     C24617   6.709   4.750   8.442 -0.0986 -0.0383 -0.0399
  179MOL0     C24618   6.604   4.672   8.398 -0.3289 -0.4638 -0.6919
  179MOL0     C24619   6.231   4.445   8.305 -0.1378 -0.2798  0.5855
  179MOL0     C24620   6.267   4.310   8.344 -0.7924  0.0576  0.3115
  179MOL0     C24621   6.185   4.208   8.304  0.2409 -0.0072 -0.8696
  179MOL0     C24622   6.070   4.219   8.238  0.4201 -0.9589  0.3756
  179MOL0     O24623   5.993   4.110   8.221 -0.2197  0.3904  0.1550
  179MOL0     C24624   5.845   4.122   8.234 -0.4434 -0.3924 -0.9110
  179MOL0     C24625   5.786   3.993   8.299  0.2767 -0.0614 -0.7563
  179MOL0     C24626   5.775   3.878   8.198  0.4541  0.5376  0.6156
  179MOL0     C24627   5.717   3.753   8.260 -0.2964  0.4913  0.8119
  179MOL0     C24628   5.743   3.630   8.192 -0.1136 -0.2655  0.4773
  179MOL0     C24629   5.770   3.515   8.155 -0.2915  0.4161  1.1433
  179MOL0     C24630   6.044   4.347   8.184 -0.5899  0.6315 -0.5167
  179MOL0     C24631   6.115   4.460   8.216  0.2507  0.3424 -0.3182
  179MOL0     C24632   6.065   4.592   8.149  0.0176 -0.2090  0.0544
  179MOL0     H24633   6.420   4.650   8.676  1.4458 -2.0478  1.1261
  179MOL0     H24634   6.578   4.800   8.758 -1.0539 -0.9495  0.7649
  179MOL0     H24635   6.845   4.818   8.801 -2.0573 -0.2367  0.4533
  179MOL0     H24636   6.751   4.977   8.786 -0.6042  0.4808 -1.6832
  179MOL0     H24637   6.943   5.093   8.755 -1.9088 -0.9539 -0.5465
  179MOL0     H24638   6.985   4.967   8.877  0.8926 -0.2182 -0.1402
  179MOL0     H24639   7.050   4.944   8.583 -0.3200  0.6992  0.3675
  179MOL0     H24640   7.162   4.983   8.719  0.7545  0.1309 -1.8501
  179MOL0     H24641   7.130   4.758   8.820  0.8929 -1.5091 -0.1528
  179MOL0     H24642   7.010   4.718   8.698 -0.5944  0.3656  1.2028
  179MOL0     H24643   7.226   4.610   8.638  1.0045  0.8292 -1.9464
  179MOL0     H24644   7.310   4.765   8.650  2.2830 -1.1606 -3.1749
  179MOL0     H24645   7.090   4.721   8.450  0.9236 -2.6683  3.3089
  179MOL0     H24646   7.207   4.857   8.461  0.3607  0.3595 -1.5876
  179MOL0     H24647   7.241   4.668   8.294 -2.0187 -1.8360  0.8511
  179MOL0     H24648   7.291   4.566   8.432  0.0509 -0.4121 -0.4506
  179MOL0     H24649   7.476   4.747   8.486  1.4020 -1.3850  1.1872
  179MOL0     H24650   7.496   4.653   8.345  0.2613  1.4170  1.5870
  179MOL0     H24651   7.437   4.757   8.098  2.6554 -1.5719 -1.0346
  179MOL0     H24652   7.614   4.917   7.951 -0.6678  0.1165 -0.4518
  179MOL0     H24653   7.593   5.090   7.987  0.0021  0.4957 -4.0290
  179MOL0     H24654   7.411   4.871   7.880 -0.3258 -0.9176  1.2894
  179MOL0     H24655   7.338   5.019   7.933 -0.4191  0.7816 -2.8213
  179MOL0     H24656   7.448   5.131   7.752 -1.1382 -0.2525 -0.5015
  179MOL0     H24657   7.576   5.010   7.754  0.5307  2.6042  0.6527
  179MOL0     H24658   7.403   4.991   7.547 -2.7527 -2.4296 -0.0250
  179MOL0     H24659   7.391   4.846   7.648  1.7681 -1.2971  1.2546
  179MOL0     H24660   7.013   5.049   7.709 -2.2605  1.8795 -1.0010
  179MOL0     H24661   6.761   5.116   7.571 -0.6548 -0.5204  0.2304
  179MOL0     H24662   6.791   5.026   7.718  0.0971  1.0468  0.3878
  179MOL0     H24663   6.698   4.952   7.594 -1.4308  0.7305 -0.1085
  179MOL0     H24664   6.801   4.690   7.055  0.8358 -0.1409 -1.1672
  179MOL0     H24665   6.592   4.655   6.914  0.4134 -0.7593 -0.6027
  179MOL0     H24666   6.523   4.837   6.642 -1.1884  1.4161 -1.1386
  179MOL0     H24667   6.508   4.675   6.693 -2.1311 -0.2980 -2.9061
  179MOL0     H24668   6.271   4.864   6.618  1.0387  0.2213  0.3372
  179MOL0     H24669   6.330   4.713   6.534 -1.8175 -1.1662 -0.3822
  179MOL0     H24670   6.189   4.718   6.802 -3.3798 -0.2781 -0.2544
  179MOL0     H24671   6.233   4.582   6.710 -0.7652 -0.3743  1.2216
  179MOL0     H24672   6.071   4.633   6.529 -0.4663 -2.8526  1.3737
  179MOL0     H24673   6.046   4.794   6.613 -1.6654 -0.1826 -3.7778
  179MOL0     H24674   5.871   4.595   6.649  0.5809 -1.3832 -0.8159
  179MOL0     H24675   5.999   4.532   6.745 -0.5520  0.2226 -0.2675
  179MOL0     H24676   5.890   4.805   6.812  1.8034 -0.1006  1.4991
  179MOL0     H24677   6.001   4.701   6.904  3.4987 -0.0513 -2.8466
  179MOL0     H24678   5.797   4.542   6.894  2.7823  0.7358  1.4314
  179MOL0     H24679   5.697   4.683   6.862  0.2295  1.4169  1.1538
  179MOL0     H24680   5.883   4.634   7.088  1.4388  3.3060  0.3967
  179MOL0     H24681   5.703   4.656   7.098 -1.7714 -0.5361 -1.8921
  179MOL0     H24682   6.519   5.071   6.929  2.2539  0.4830 -0.8948
  179MOL0     H24683   6.728   5.105   7.070  2.2767 -0.4133  0.8751
  179MOL0     H24684   7.081   4.839   7.267 -1.8671 -0.0768 -1.0869
  179MOL0     H24685   7.261   4.878   7.413 -0.2184 -1.6796  1.8754
  179MOL0     H24686   6.798   4.765   8.382  1.0574  1.1729  1.8469
  179MOL0     H24687   6.597   4.620   8.303  1.2152 -3.8108  0.8514
  179MOL0     H24688   6.344   4.288   8.417 -1.0424  0.1616  0.6064
  179MOL0     H24689   6.205   4.110   8.344  0.7459  0.7701  0.8664
  179MOL0     H24690   5.807   4.209   8.289 -1.5043 -0.7517 -1.0575
  179MOL0     H24691   5.802   4.130   8.134 -1.6374  1.4176 -0.3137
  179MOL0     H24692   5.681   4.000   8.327  0.7037  2.0039  0.5397
  179MOL0     H24693   5.848   3.964   8.384 -0.3682 -1.2949 -0.6911
  179MOL0     H24694   5.718   3.905   8.109  0.6166 -1.6731 -0.2310
  179MOL0     H24695   5.874   3.865   8.153  0.7837  0.8722  1.2213
  179MOL0     H24696   5.609   3.762   8.278 -0.9798 -2.0113 -1.3161
  179MOL0     H24697   5.753   3.735   8.362 -3.2077  0.6895  1.9741
  179MOL0     H24698   5.806   3.424   8.111 -1.2319  1.2068 -1.4035
  179MOL0     H24699   5.951   4.367   8.132 -1.4888  1.3997  1.2901
  179MOL0     H24700   5.984   4.585   8.075 -1.4683  0.4921  1.5341
  179MOL0     H24701   6.023   4.653   8.230  0.4057 -1.2231  1.0327
  179MOL0     H24702   6.150   4.643   8.102 -0.6570  1.0106  0.1018
  180MOL0     O24703   0.241   5.018   9.032  0.4664 -0.2137  0.0237
  180MOL0     C24704   0.198   5.095   9.125 -1.4055 -0.0837 -0.5426
  180MOL0     O24705   0.283   5.168   9.207  0.1406  0.9792 -0.3446
  180MOL0     C24706   0.414   5.184   9.181  0.1482  0.0015 -0.3908
  180MOL0     C24707   0.449   5.310   9.217 -0.3783 -0.2491 -0.5134
  180MOL0     C24708   0.584   5.339   9.213  0.9490  0.5066 -0.1826
  180MOL0     C24709   0.687   5.255   9.183  0.0802 -0.7166 -0.4794
  180MOL0     O24710   0.814   5.300   9.206  0.2319  0.2611  0.0870
  180MOL0     C24711   0.922   5.239   9.144  0.2316  0.0126  0.7631
  180MOL0     C24712   0.992   5.155   9.245 -0.5770  0.0534  0.5333
  180MOL0     C24713   1.078   5.047   9.168  0.0439  0.5364 -1.0236
  180MOL0     C24714   1.142   4.968   9.284 -0.1148  0.4139 -0.3927
  180MOL0     C24715   1.247   4.868   9.237 -0.2772 -0.1288 -0.4494
  180MOL0     C24716   1.269   4.769   9.354  0.0678 -0.1788 -0.4084
  180MOL0     C24717   1.381   4.675   9.319 -0.1925 -0.5829  0.0615
  180MOL0     C24718   1.413   4.573   9.437 -1.2159 -0.6433  0.4414
  180MOL0     N24719   1.302   4.504   9.492  0.5335 -0.4008 -0.4587
  180MOL0     C24720   1.221   4.424   9.408 -0.5458 -0.1046 -0.3052
  180MOL0     C24721   1.128   4.368   9.488 -0.1342  0.5866 -0.1327
  180MOL0     C24722   1.038   4.263   9.437  0.8083  0.2316  0.2492
  180MOL0     C24723   1.029   4.142   9.534 -1.1816 -1.2067  0.4037
  180MOL0     C24724   0.910   4.052   9.516 -0.4708  0.3149 -0.2884
  180MOL0     C24725   0.937   3.909   9.563 -0.6490  0.4185 -0.0028
  180MOL0     O24726   1.033   3.837   9.478  0.5044  0.6130 -0.3037
  180MOL0     C24727   1.071   3.713   9.523 -0.1214 -0.3206  0.1501
  180MOL0     C24728   0.992   3.622   9.584 -0.0796  1.0044 -0.3290
  180MOL0     C24729   1.030   3.497   9.635  0.4831 -0.5645  0.1156
  180MOL0     C24730   0.938   3.403   9.695 -0.1174  1.1530  0.2566
  180MOL0     C24731   1.173   3.469   9.607 -0.5107 -1.4214 -0.3479
  180MOL0     C24732   1.238   3.341   9.641 -0.0884 -0.4680  0.1669
  180MOL0     O24733   1.370   3.321   9.644 -0.5685  0.1099 -0.3020
  180MOL0     C24734   1.418   3.193   9.678 -0.2761 -0.2121 -0.4595
  180MOL0     C24735   1.456   3.147   9.807  0.2136 -0.3776 -0.0095
  180MOL0     C24736   1.495   3.010   9.827 -0.2175 -0.6364 -0.2848
  180MOL0     C24737   1.469   2.920   9.732 -0.5864  0.1728  0.6840
  180MOL0     O24738   1.458   2.791   9.779  0.4521 -0.3723 -0.1511
  180MOL0     C24739   1.451   2.693   9.684 -0.1200  0.2642  0.1233
  180MOL0     C24740   1.459   2.546   9.732 -0.4031 -0.9959 -0.8543
  180MOL0     C24741   1.508   2.455   9.617  0.2427  0.3600 -0.0633
  180MOL0     C24742   1.391   2.397   9.536  0.6239 -0.0766 -0.3034
  180MOL0     C24743   1.417   2.279   9.446 -0.7008  1.0188  1.0395
  180MOL0     C24744   1.280   2.222   9.393  0.4126 -0.4354  0.2416
  180MOL0     C24745   1.277   2.084   9.328  0.8340 -0.6350  0.3994
  180MOL0     C24746   1.393   2.067   9.227 -0.3121  0.0361  0.8424
  180MOL0    Cl24747   1.387   1.892   9.162 -0.2164  0.1929 -0.0142
  180MOL0     C24748   1.464   2.967   9.600  0.1235  0.5762 -0.6102
  180MOL0     C24749   1.429   3.101   9.575  0.4457 -0.5060  0.0935
  180MOL0     O24750   1.164   3.250   9.676  0.8951  0.0363 -0.2112
  180MOL0     C24751   1.254   3.554   9.541 -0.7511 -0.8602  0.0706
  180MOL0     C24752   1.204   3.677   9.493 -1.2229  0.5026 -0.8889
  180MOL0     N24753   1.164   4.402   9.621  0.4538 -0.0675  0.4169
  180MOL0     N24754   1.269   4.480   9.620 -0.9804 -0.7559  0.2601
  180MOL0     C24755   0.646   5.126   9.133 -0.0279 -0.2761  0.8408
  180MOL0     C24756   0.507   5.092   9.132  0.1074  1.0677 -0.3928
  180MOL0     C24757   0.053   5.089   9.161  0.0006 -1.6502 -0.5539
  180MOL0     C24758  -0.016   4.975   9.119  0.8832  0.1124 -0.3887
  180MOL0     C24759  -0.151   4.953   9.133  0.4205 -0.0386  0.4699
  180MOL0     C24760  -0.225   5.058   9.203  0.9240 -0.5195  0.6408
  180MOL0     O24761  -0.358   5.064   9.226 -0.1258  0.6773 -0.1413
  180MOL0     C24762  -0.445   5.001   9.123  0.1693  0.3386  0.2138
  180MOL0     C24763  -0.587   4.989   9.176 -0.4455  0.0624  0.8539
  180MOL0     C24764  -0.591   4.898   9.299 -0.5526 -0.6983 -0.0300
  180MOL0     C24765  -0.601   4.747   9.264  0.4682 -0.4919  0.5148
  180MOL0     C24766  -0.461   4.678   9.251  0.5448 -0.8440  0.2440
  180MOL0     C24767  -0.368   4.610   9.256 -0.3162  0.7904 -0.2817
  180MOL0     C24768  -0.159   5.164   9.254 -0.3924 -0.4206 -0.1310
  180MOL0     C24769  -0.021   5.185   9.241 -0.6332 -0.2506  0.0458
  180MOL0     C24770   0.039   5.311   9.297 -0.1281 -0.7766 -0.3213
  180MOL0     H24771   0.384   5.386   9.260  1.6080  0.2965  1.7886
  180MOL0     H24772   0.616   5.438   9.243 -1.3343  1.4333 -0.6365
  180MOL0     H24773   0.986   5.321   9.112 -2.0547  2.1182  1.2813
  180MOL0     H24774   0.898   5.183   9.052  3.7128  1.5791 -1.2850
  180MOL0     H24775   1.052   5.208   9.320 -1.2273  0.9879  0.4067
  180MOL0     H24776   0.906   5.109   9.295 -0.5238 -0.4752  0.1443
  180MOL0     H24777   1.008   4.983   9.114 -0.4572  0.8582 -0.7716
  180MOL0     H24778   1.146   5.108   9.108  1.2321  2.5788  2.1454
  180MOL0     H24779   1.187   5.040   9.353  1.6671 -1.7815  0.9044
  180MOL0     H24780   1.066   4.923   9.348  2.9329 -1.3517  2.3181
  180MOL0     H24781   1.333   4.920   9.193  0.4025 -2.0810 -1.5863
  180MOL0     H24782   1.205   4.805   9.159 -1.6457 -1.2160  1.1090
  180MOL0     H24783   1.292   4.846   9.428  0.2000  0.5317 -1.1732
  180MOL0     H24784   1.179   4.713   9.381  0.9749 -1.6460 -0.3571
  180MOL0     H24785   1.468   4.740   9.306 -1.1583  0.6535 -0.4916
  180MOL0     H24786   1.363   4.622   9.225 -0.8577 -0.3082  0.0287
  180MOL0     H24787   1.477   4.498   9.391  0.9067 -0.0594  2.2559
  180MOL0     H24788   1.475   4.610   9.520  0.4264  0.5851 -1.2491
  180MOL0     H24789   1.249   4.402   9.305  4.2736 -2.1369  1.1698
  180MOL0     H24790   1.085   4.233   9.343 -1.5321  0.1014 -0.9677
  180MOL0     H24791   0.946   4.320   9.418  3.1477  4.1675 -0.3673
  180MOL0     H24792   1.125   4.089   9.538 -1.1518 -1.2029 -0.1723
  180MOL0     H24793   1.005   4.176   9.635 -0.7044  0.4448 -0.0184
  180MOL0     H24794   0.831   4.099   9.574  2.3721  1.8692  2.6489
  180MOL0     H24795   0.882   4.058   9.410 -1.6926 -2.0704 -0.1745
  180MOL0     H24796   0.983   3.911   9.662 -0.4239 -1.6739 -0.0295
  180MOL0     H24797   0.842   3.856   9.568 -0.3708 -0.4200 -2.2965
  180MOL0     H24798   0.885   3.629   9.603  0.0305 -2.2921  2.8189
  180MOL0     H24799   0.845   3.453   9.723 -1.5091 -0.2738 -1.5027
  180MOL0     H24800   0.987   3.378   9.789  0.5585 -1.1509 -0.6393
  180MOL0     H24801   0.924   3.313   9.635  2.5326 -0.7332  2.2259
  180MOL0     H24802   1.465   3.215   9.891 -0.5482  0.2027 -0.3855
  180MOL0     H24803   1.524   2.975   9.926  0.4479  3.7274  1.2504
  180MOL0     H24804   1.360   2.700   9.624  1.6114  0.1472 -2.6910
  180MOL0     H24805   1.534   2.698   9.612 -0.3605  0.8667 -0.1210
  180MOL0     H24806   1.519   2.527   9.822  0.1102 -0.1701 -1.0104
  180MOL0     H24807   1.362   2.521   9.775 -1.2992  0.0150 -2.1970
  180MOL0     H24808   1.554   2.366   9.660 -2.8719 -2.3635 -1.8687
  180MOL0     H24809   1.574   2.504   9.545  0.0480 -0.2193 -0.6452
  180MOL0     H24810   1.344   2.474   9.475  0.6671  1.1972  1.2070
  180MOL0     H24811   1.314   2.364   9.606  1.4973  0.9583  1.2195
  180MOL0     H24812   1.482   2.302   9.362 -0.0026 -2.7911  0.3434
  180MOL0     H24813   1.467   2.201   9.505  0.1005 -0.1106 -1.0192
  180MOL0     H24814   1.236   2.298   9.328  0.2237 -0.4297  0.3724
  180MOL0     H24815   1.203   2.220   9.471 -0.8730  4.5109 -0.5724
  180MOL0     H24816   1.186   2.079   9.268  1.4273  1.0866 -0.7222
  180MOL0     H24817   1.278   2.000   9.399  2.3647 -1.0351 -0.0507
  180MOL0     H24818   1.494   2.079   9.269 -0.2547  1.6869  0.3331
  180MOL0     H24819   1.397   2.131   9.138 -1.0656 -1.5728 -0.4021
  180MOL0     H24820   1.463   2.901   9.514 -3.7484 -0.9313  0.3311
  180MOL0     H24821   1.379   3.135   9.485 -0.0139  2.5195  1.3557
  180MOL0     H24822   1.358   3.531   9.520 -0.5836 -0.5582  0.5523
  180MOL0     H24823   1.264   3.751   9.442 -1.3074  1.0306 -0.2384
  180MOL0     H24824   0.712   5.043   9.112 -1.9509 -2.2784  2.2122
  180MOL0     H24825   0.464   4.996   9.104  0.2421  0.1823  2.0927
  180MOL0     H24826   0.044   4.908   9.059  1.8394  0.5517  0.0561
  180MOL0     H24827  -0.200   4.863   9.098 -0.2047  0.8024 -0.9296
  180MOL0     H24828  -0.446   5.054   9.028  1.1236 -0.7647 -0.4399
  180MOL0     H24829  -0.407   4.900   9.105  0.9577  0.3481  1.6858
  180MOL0     H24830  -0.657   4.940   9.108 -2.7364  0.2420  2.9406
  180MOL0     H24831  -0.617   5.094   9.190 -1.0546 -0.2875  2.3046
  180MOL0     H24832  -0.507   4.910   9.369 -2.3580  1.4011  1.9378
  180MOL0     H24833  -0.679   4.925   9.358  1.0258 -1.1551  2.7157
  180MOL0     H24834  -0.665   4.733   9.176  0.2565 -0.2362  0.6279
  180MOL0     H24835  -0.644   4.680   9.339 -1.2095 -1.5366 -1.2892
  180MOL0     H24836  -0.290   4.539   9.277 -0.5903  1.0628  1.8638
  180MOL0     H24837  -0.211   5.233   9.319 -2.1003 -1.3169 -0.4832
  180MOL0     H24838   0.104   5.369   9.231 -2.1103  2.4565  0.3455
  180MOL0     H24839  -0.032   5.387   9.330  1.7755  0.3075  1.4963
  180MOL0     H24840   0.095   5.293   9.389  3.7836 -0.6271 -2.4356
  181MOL0     O24841  10.496   5.682   9.175 -0.6896  0.7262  0.4095
  181MOL0     C24842  10.375   5.696   9.169  0.7248 -0.4209 -0.4849
  181MOL0     O24843  10.288   5.676   9.067  0.0087  0.7198 -0.2243
  181MOL0     C24844  10.328   5.631   8.948  1.9084 -0.1776 -0.6852
  181MOL0     C24845  10.261   5.694   8.839  0.1578 -0.8645 -0.5642
  181MOL0     C24846  10.299   5.670   8.713  0.2456  0.1655  0.2164
  181MOL0     C24847  10.400   5.575   8.686 -0.2777  1.1565 -0.1486
  181MOL0     O24848  10.439   5.557   8.554 -0.5501  0.2809  0.1825
  181MOL0     C24849  10.521   5.667   8.510  0.3816  0.2693  0.4842
  181MOL0     C24850  10.495   5.678   8.361  1.2030  0.0283 -0.0150
  181MOL0     C24851  10.557   5.802   8.292 -0.0645  0.1649 -0.9831
  181MOL0     C24852  10.700   5.776   8.244  0.9566  0.6029 -0.4732
  181MOL0     C24853  10.781   5.893   8.219  0.5439  0.1329 -0.3994
  181MOL0     C24854  10.807   5.979   8.348  0.3209  0.2515 -0.2299
  181MOL0     C24855  10.902   6.093   8.333  0.1667 -0.5319 -1.0248
  181MOL0     C24856  10.918   6.190   8.458  0.5676 -0.1773  0.7497
  181MOL0     N24857  11.017   6.145   8.553  0.6209  0.2586 -0.0933
  181MOL0     C24858  10.984   6.087   8.668  0.2932 -0.5465  0.3106
  181MOL0     C24859  11.102   6.080   8.739  0.3359  0.0698  0.0952
  181MOL0     C24860  11.112   6.026   8.877  0.1891  0.1125  0.2884
  181MOL0     C24861  11.264   5.980   8.899  0.2738 -0.1530 -0.4973
  181MOL0     C24862  11.286   5.884   9.010 -0.3072  0.8227  0.0168
  181MOL0     C24863  11.397   5.783   8.986  0.6443 -0.3068  0.1332
  181MOL0     O24864  11.398   5.683   9.090 -0.7561  0.1558 -0.2707
  181MOL0     C24865  11.525   5.661   9.144 -0.2088  1.4395  0.5052
  181MOL0     C24866  11.635   5.669   9.059 -1.0547  0.3366  0.6164
  181MOL0     C24867  11.763   5.655   9.110  0.3732 -0.1181 -0.3366
  181MOL0     C24868  11.872   5.653   9.015  0.1905  0.2354  0.4069
  181MOL0     C24869  11.779   5.663   9.254  0.8741  0.6964  1.1522
  181MOL0     C24870  11.910   5.643   9.321 -0.2152  0.1928 -0.4910
  181MOL0     O24871  11.901   5.586   9.443  0.1838 -0.0322 -0.1297
  181MOL0     C24872  12.012   5.557   9.507 -0.0249 -0.6527 -0.0495
  181MOL0     C24873  12.085   5.659   9.570  0.6641 -0.0967  0.1921
  181MOL0     C24874  12.205   5.633   9.639  0.1222  0.1244 -0.5084
  181MOL0     C24875  12.241   5.510   9.658  0.7312 -0.3757  0.1268
  181MOL0     O24876  12.346   5.491   9.743  0.1736 -0.0976 -0.4003
  181MOL0     C24877  12.471   5.497   9.681 -0.5476  0.5742  0.4660
  181MOL0     C24878  12.570   5.437   9.772 -0.5621 -0.2587 -0.3464
  181MOL0     C24879  12.712   5.472   9.733  0.1144 -0.3293  0.7257
  181MOL0     C24880  12.762   5.396   9.606 -0.3000 -0.0932  0.0218
  181MOL0     C24881  12.919   5.413   9.609  0.0292 -0.1697  0.0787
  181MOL0     C24882  12.980   5.391   9.476  0.2421 -0.5565  0.2137
  181MOL0     C24883  12.989   5.240   9.448 -0.2081  0.7973  0.0594
  181MOL0     C24884  13.014   5.215   9.305 -0.6138  0.2323  0.1441
  181MOL0    Cl24885  13.181   5.244   9.269  0.0564  0.4110  0.2534
  181MOL0     C24886  12.175   5.402   9.592 -0.2141  0.6368 -0.4383
  181MOL0     C24887  12.065   5.429   9.514 -0.2097 -0.2100 -0.2481
  181MOL0     O24888  12.015   5.657   9.259  0.6864  0.4695 -0.2157
  181MOL0     C24889  11.661   5.676   9.334  0.1519 -0.1290 -0.0152
  181MOL0     C24890  11.537   5.671   9.285  0.1612  0.2786  1.0592
  181MOL0     N24891  11.187   6.152   8.659  0.7746  0.5466 -0.1267
  181MOL0     N24892  11.145   6.185   8.550  0.5569  0.9628 -0.2918
  181MOL0     C24893  10.458   5.497   8.790  0.1036 -1.3014 -1.0551
  181MOL0     C24894  10.424   5.530   8.928 -0.4136 -0.2382 -0.5636
  181MOL0     C24895  10.318   5.759   9.284  0.6803 -0.4606  0.5234
  181MOL0     C24896  10.255   5.883   9.253  0.0659  0.1133  1.0097
  181MOL0     C24897  10.206   5.968   9.350 -0.1133  0.2718  0.6721
  181MOL0     C24898  10.225   5.928   9.486  0.1890  0.2617  1.3003
  181MOL0     O24899  10.195   6.005   9.590 -0.2242  0.0333  0.9232
  181MOL0     C24900  10.099   6.107   9.567 -0.5274  0.1914  0.0483
  181MOL0     C24901  10.029   6.143   9.702 -0.3665 -0.1358  0.2544
  181MOL0     C24902  10.120   6.174   9.816  0.4918 -0.1949  0.9582
  181MOL0     C24903  10.052   6.250   9.922  0.1096  0.0155  0.0805
  181MOL0     C24904  10.148   6.256  10.034 -0.2817  0.4109  0.4469
  181MOL0     C24905  10.216   6.262  10.140  1.1034  0.4521  0.0601
  181MOL0     C24906  10.275   5.804   9.515 -0.5308  0.8298  0.3338
  181MOL0     C24907  10.331   5.720   9.419  0.2789 -0.7461  0.5501
  181MOL0     C24908  10.388   5.592   9.450  0.0490  0.5557 -0.7020
  181MOL0     H24909  10.185   5.770   8.859  1.3712 -0.1779  1.8106
  181MOL0     H24910  10.264   5.724   8.625  0.0449  0.4033  0.4413
  181MOL0     H24911  10.627   5.648   8.528  0.5681 -0.0168 -0.7995
  181MOL0     H24912  10.496   5.767   8.549  0.7003 -0.0096  1.4273
  181MOL0     H24913  10.540   5.587   8.319 -1.2325 -3.0741  3.4296
  181MOL0     H24914  10.387   5.678   8.345  1.0987 -1.7705  0.4121
  181MOL0     H24915  10.490   5.815   8.207 -5.4361 -1.0772  2.5875
  181MOL0     H24916  10.540   5.889   8.357 -0.1102 -0.2478 -0.4355
  181MOL0     H24917  10.745   5.704   8.312 -1.6552 -1.1248 -0.4429
  181MOL0     H24918  10.690   5.729   8.145 -1.1835 -1.3490  0.5765
  181MOL0     H24919  10.729   5.959   8.149  1.7995  1.9996  0.3661
  181MOL0     H24920  10.877   5.880   8.167 -0.3603  0.3399 -2.2236
  181MOL0     H24921  10.716   6.029   8.379  1.7811  3.3118 -0.4858
  181MOL0     H24922  10.848   5.913   8.426 -0.0097 -0.6899 -0.8301
  181MOL0     H24923  10.885   6.153   8.243  1.5341  1.0281 -0.2888
  181MOL0     H24924  10.994   6.040   8.307 -0.0772 -2.0578  1.0058
  181MOL0     H24925  10.959   6.282   8.415  1.2610 -0.7750  0.0938
  181MOL0     H24926  10.825   6.206   8.513  0.9080 -1.1551  1.6573
  181MOL0     H24927  10.889   6.049   8.706 -0.2995 -1.1144 -1.6291
  181MOL0     H24928  11.050   5.938   8.895 -0.5434  0.8866  1.7231
  181MOL0     H24929  11.077   6.099   8.950 -1.6113  1.8299 -2.0974
  181MOL0     H24930  11.295   5.926   8.809  3.9841 -0.4965  0.8263
  181MOL0     H24931  11.326   6.068   8.920  2.8244 -2.0488  0.4379
  181MOL0     H24932  11.310   5.947   9.095  0.3472  1.0274 -0.3119
  181MOL0     H24933  11.198   5.820   9.023  2.0853 -2.1638  3.2175
  181MOL0     H24934  11.385   5.730   8.891 -1.6645 -0.2958  0.3623
  181MOL0     H24935  11.484   5.848   8.975  0.3119 -0.1493 -2.1025
  181MOL0     H24936  11.629   5.672   8.950 -2.1404 -2.1840  0.5327
  181MOL0     H24937  11.855   5.673   8.909  2.3197  0.7446  0.1090
  181MOL0     H24938  11.922   5.556   9.015 -0.5327 -0.1950 -1.6739
  181MOL0     H24939  11.947   5.728   9.044  1.4283 -0.9367  0.3334
  181MOL0     H24940  12.046   5.759   9.553  0.1073 -0.4334 -0.5983
  181MOL0     H24941  12.254   5.724   9.671  0.1524 -0.0994  0.0956
  181MOL0     H24942  12.462   5.440   9.588 -0.9283  0.1229  0.7749
  181MOL0     H24943  12.500   5.600   9.657 -1.2554  0.4379 -1.1473
  181MOL0     H24944  12.553   5.480   9.871  2.5367  5.2613 -1.8129
  181MOL0     H24945  12.562   5.328   9.772  0.4538 -0.3407 -0.5324
  181MOL0     H24946  12.771   5.460   9.824 -1.5996 -0.9648  1.8011
  181MOL0     H24947  12.712   5.580   9.719  0.9417 -0.5625 -1.3226
  181MOL0     H24948  12.712   5.438   9.518  0.2756  1.3268  0.3412
  181MOL0     H24949  12.732   5.292   9.619 -0.1064 -0.0541  0.8746
  181MOL0     H24950  12.951   5.514   9.638 -1.1928  1.1062 -2.6847
  181MOL0     H24951  12.962   5.359   9.694  1.0575  0.9805  0.3205
  181MOL0     H24952  13.078   5.438   9.484  0.2517 -0.7810  1.5159
  181MOL0     H24953  12.927   5.450   9.400 -1.4819  0.9737  2.4831
  181MOL0     H24954  12.893   5.189   9.458 -0.8935  1.5741 -1.9242
  181MOL0     H24955  13.062   5.179   9.502  1.1083  0.1885 -2.2299
  181MOL0     H24956  12.953   5.268   9.231  1.2393  1.7055 -0.4216
  181MOL0     H24957  13.006   5.107   9.290 -0.4105 -0.5785  4.5618
  181MOL0     H24958  12.222   5.308   9.621 -0.2812  0.8494  0.3681
  181MOL0     H24959  11.996   5.357   9.471 -2.9055  1.1635  1.5321
  181MOL0     H24960  11.678   5.674   9.441 -1.3372  0.7660  0.2658
  181MOL0     H24961  11.460   5.677   9.362  1.5955  3.5225  2.4070
  181MOL0     H24962  10.527   5.415   8.769  0.2932 -1.0447 -1.4473
  181MOL0     H24963  10.475   5.482   9.010 -0.9828  1.6140  0.9729
  181MOL0     H24964  10.240   5.916   9.150 -2.0594 -1.8236  0.6198
  181MOL0     H24965  10.162   6.064   9.328  0.4288  0.0351 -1.7286
  181MOL0     H24966  10.147   6.191   9.516  1.9818 -2.7108 -2.8134
  181MOL0     H24967  10.019   6.058   9.512 -0.3046  0.3724 -0.4383
  181MOL0     H24968   9.959   6.061   9.723 -0.4152  0.4512  2.6265
  181MOL0     H24969   9.958   6.225   9.683 -0.5124 -0.2768  0.1894
  181MOL0     H24970  10.156   6.079   9.858  0.9023  0.8992  3.2250
  181MOL0     H24971  10.196   6.246   9.785 -2.2621  2.2653 -0.5933
  181MOL0     H24972   9.961   6.203   9.959 -0.5717  0.8008 -0.5689
  181MOL0     H24973  10.029   6.356   9.905 -0.6408  0.1062  1.4651
  181MOL0     H24974  10.273   6.247  10.229 -0.3397 -1.3800  0.7535
  181MOL0     H24975  10.295   5.774   9.617  0.2147  1.8705  0.5096
  181MOL0     H24976  10.497   5.594   9.436  0.2071 -1.6390 -0.1771
  181MOL0     H24977  10.367   5.573   9.556 -0.2348  0.0012 -0.8520
  181MOL0     H24978  10.348   5.511   9.388 -0.4260 -0.9392  1.4192
  182MOL0     O24979   2.366  10.175   6.913  0.0029  0.3124 -0.1955
  182MOL0     C24980   2.268  10.244   6.906  0.0824  0.7511  0.3763
  182MOL0     O24981   2.142  10.205   6.862 -0.1395  0.0237 -0.0384
  182MOL0     C24982   2.119  10.087   6.811 -0.2665  0.5656 -0.0322
  182MOL0     C24983   2.208  10.035   6.710  0.1295 -0.5962 -0.5636
  182MOL0     C24984   2.190   9.902   6.674 -0.3987  0.0476 -0.1855
  182MOL0     C24985   2.105   9.815   6.734 -0.4310  1.3778  0.5614
  182MOL0     O24986   2.098   9.685   6.689  0.7645 -0.2696  0.3025
  182MOL0     C24987   2.186   9.594   6.740 -0.0328 -0.0399 -0.1021
  182MOL0     C24988   2.166   9.562   6.893 -0.9216  0.3412  0.3405
  182MOL0     C24989   2.280   9.463   6.933  0.7104 -0.4586  0.0666
  182MOL0     C24990   2.270   9.424   7.081  0.1081  0.6193  1.2017
  182MOL0     C24991   2.376   9.315   7.107  0.8392  0.7841 -0.1916
  182MOL0     C24992   2.359   9.256   7.244  0.4762 -0.5548 -0.5798
  182MOL0     C24993   2.387   9.347   7.365  0.3625  0.4893  0.5448
  182MOL0     C24994   2.537   9.410   7.365  0.2336 -0.1441 -0.1943
  182MOL0     N24995   2.584   9.437   7.507  0.0457 -0.0971 -1.0880
  182MOL0     C24996   2.707   9.486   7.524  0.4620 -1.6969  0.3061
  182MOL0     C24997   2.712   9.562   7.637  0.3885  0.1519  0.2163
  182MOL0     C24998   2.814   9.640   7.706  0.4003  1.3859  0.2012
  182MOL0     C24999   2.765   9.787   7.700 -0.5469  0.0767 -0.2457
  182MOL0     C25000   2.799   9.846   7.564 -0.0197  0.6065 -0.2376
  182MOL0     C25001   2.762  10.005   7.561 -0.6957  0.7102 -0.5763
  182MOL0     O25002   2.619  10.011   7.560  0.6662 -0.1144  0.5462
  182MOL0     C25003   2.550  10.123   7.596  0.4280  1.0188 -0.4899
  182MOL0     C25004   2.471  10.176   7.495 -0.3732 -0.0229  0.8418
  182MOL0     C25005   2.378  10.276   7.515  0.4839 -0.7883  0.0192
  182MOL0     C25006   2.297  10.321   7.388  0.4180  0.1447  0.3075
  182MOL0     C25007   2.370  10.337   7.645 -0.3051 -0.6987  1.1578
  182MOL0     C25008   2.277  10.455   7.683 -0.2135 -0.4665 -0.8187
  182MOL0     O25009   2.184  10.494   7.592  0.3034 -0.0689  0.5736
  182MOL0     C25010   2.133  10.622   7.585  0.9497 -0.3429  0.6687
  182MOL0     C25011   2.148  10.694   7.463  0.3118  0.3236 -0.5455
  182MOL0     C25012   2.106  10.830   7.451  0.7597  1.4459 -0.2898
  182MOL0     C25013   2.033  10.892   7.550  0.2162 -0.8269 -0.1884
  182MOL0     O25014   1.983  11.012   7.523 -0.7631 -0.4090 -0.3170
  182MOL0     C25015   1.841  11.012   7.521  1.1528 -0.0153  0.1138
  182MOL0     C25016   1.787  11.148   7.564  0.9080 -0.9677 -0.3690
  182MOL0     C25017   1.637  11.158   7.524  0.2965 -0.8861  0.4127
  182MOL0     C25018   1.563  11.277   7.583  0.3189 -0.6408  0.2268
  182MOL0     C25019   1.605  11.411   7.539  0.8947 -0.5416  0.2509
  182MOL0     C25020   1.499  11.527   7.573 -0.2034  0.2299 -0.3557
  182MOL0     C25021   1.507  11.575   7.729  0.0819  0.1510  0.1019
  182MOL0     C25022   1.359  11.609   7.782  0.2244 -0.5097 -0.4595
  182MOL0    Cl25023   1.298  11.741   7.677 -0.2551  0.0317 -0.0392
  182MOL0     C25024   2.034  10.829   7.677  0.8651  0.0130  0.5523
  182MOL0     C25025   2.078  10.695   7.693 -0.5697  0.5145 -0.0120
  182MOL0     O25026   2.303  10.510   7.784 -0.6551 -0.1122 -0.3395
  182MOL0     C25027   2.460  10.290   7.744  0.2271 -0.9219  1.1038
  182MOL0     C25028   2.539  10.180   7.718  0.2730 -0.0505  0.3135
  182MOL0     N25029   2.583   9.555   7.689 -0.0068  0.0618  0.3722
  182MOL0     N25030   2.506   9.476   7.614 -0.0881  0.0772  0.4181
  182MOL0     C25031   2.022   9.868   6.833 -0.1102  0.6810  0.0541
  182MOL0     C25032   2.023  10.003   6.876  0.5186  0.5542  0.0822
  182MOL0     C25033   2.286  10.388   6.951  1.2022 -0.7178  0.3122
  182MOL0     C25034   2.179  10.477   6.921 -0.3844 -0.4935 -0.0504
  182MOL0     C25035   2.186  10.603   6.963 -0.3774 -0.6005  0.2339
  182MOL0     C25036   2.296  10.656   7.030 -0.2638  0.5434  0.0804
  182MOL0     O25037   2.306  10.786   7.067 -0.5802  0.3997 -0.4885
  182MOL0     C25038   2.368  10.879   6.970 -0.0211  0.0215 -0.2991
  182MOL0     C25039   2.341  11.026   7.010  0.2564  0.0162  0.4850
  182MOL0     C25040   2.399  11.066   7.139 -1.0343  0.2406 -0.7618
  182MOL0     C25041   2.350  11.195   7.199  0.4204  0.4910  0.2604
  182MOL0     C25042   2.359  11.298   7.094  0.2422  0.1548  0.4350
  182MOL0     C25043   2.378  11.384   7.009  0.0292  0.5436  1.0070
  182MOL0     C25044   2.407  10.566   7.051  0.6897 -0.3720 -0.3539
  182MOL0     C25045   2.401  10.433   7.019  0.4917  0.0766  0.9633
  182MOL0     C25046   2.516  10.349   7.076 -0.1494  0.0584 -0.9264
  182MOL0     H25047   2.282  10.103   6.669  0.7979 -0.7644  0.3492
  182MOL0     H25048   2.261   9.855   6.606 -1.7417  0.3134 -1.8287
  182MOL0     H25049   2.293   9.610   6.721  0.4960  0.4570  2.7840
  182MOL0     H25050   2.168   9.494   6.699 -1.5537 -0.7812  2.1738
  182MOL0     H25051   2.187   9.648   6.958  0.6293  2.3052 -2.5146
  182MOL0     H25052   2.064   9.523   6.908  0.0957 -2.7414 -0.1028
  182MOL0     H25053   2.278   9.377   6.865  1.0284  1.1326 -2.0694
  182MOL0     H25054   2.374   9.513   6.907  2.0827 -1.9273  1.9840
  182MOL0     H25055   2.299   9.512   7.139  3.4526 -0.8161  1.9755
  182MOL0     H25056   2.172   9.388   7.111  0.6550  1.1570  3.8458
  182MOL0     H25057   2.478   9.353   7.095  1.2466  0.0703  0.8641
  182MOL0     H25058   2.359   9.238   7.032  3.1131  0.4640 -0.4488
  182MOL0     H25059   2.258   9.215   7.255  0.8433 -1.2965  0.1387
  182MOL0     H25060   2.427   9.171   7.246  1.0019 -0.2391 -2.8219
  182MOL0     H25061   2.372   9.290   7.457 -3.8418  0.2592 -0.1111
  182MOL0     H25062   2.312   9.426   7.373 -1.5846 -1.3547  1.4434
  182MOL0     H25063   2.607   9.336   7.327 -1.1773 -2.2515  1.1128
  182MOL0     H25064   2.544   9.500   7.303 -0.2630 -1.6556 -2.5396
  182MOL0     H25065   2.792   9.479   7.456  0.1956 -0.8176 -0.1322
  182MOL0     H25066   2.909   9.634   7.651 -0.8490  2.0783 -2.1761
  182MOL0     H25067   2.833   9.600   7.806  0.4277 -0.0447 -0.3483
  182MOL0     H25068   2.656   9.786   7.708 -0.6548 -0.2918 -1.5118
  182MOL0     H25069   2.805   9.852   7.779 -1.1755 -0.0291  0.1681
  182MOL0     H25070   2.906   9.842   7.542  0.1797 -1.9557  0.8530
  182MOL0     H25071   2.736   9.797   7.489 -1.2879  2.1868 -0.2693
  182MOL0     H25072   2.793  10.058   7.652 -1.6510  1.7647 -0.8461
  182MOL0     H25073   2.799  10.059   7.474  1.7382 -1.2157 -0.8528
  182MOL0     H25074   2.472  10.126   7.399 -1.2780 -1.2009  1.4181
  182MOL0     H25075   2.340  10.263   7.306 -1.9195  0.1195 -0.9582
  182MOL0     H25076   2.326  10.426   7.380 -0.0555  0.3663  1.2785
  182MOL0     H25077   2.192  10.291   7.396  0.7406 -1.5072 -1.0720
  182MOL0     H25078   2.197  10.644   7.380  2.4087 -0.8187  1.2737
  182MOL0     H25079   2.122  10.887   7.360  1.4776  0.5165 -0.7662
  182MOL0     H25080   1.807  11.008   7.418 -0.1336  1.3397  0.4373
  182MOL0     H25081   1.795  10.944   7.594  1.3028  0.3861  0.5928
  182MOL0     H25082   1.809  11.153   7.671  1.1512 -0.0546 -0.4604
  182MOL0     H25083   1.858  11.214   7.514 -0.7582  0.3636 -1.0336
  182MOL0     H25084   1.576  11.068   7.534  1.5015 -1.8713 -0.7049
  182MOL0     H25085   1.639  11.175   7.416  2.4273  0.2070  0.5806
  182MOL0     H25086   1.578  11.271   7.691  0.8024  0.8939  0.2652
  182MOL0     H25087   1.457  11.258   7.567  1.0312 -2.7676 -2.6455
  182MOL0     H25088   1.705  11.429   7.579  2.3301 -4.1061 -1.2496
  182MOL0     H25089   1.623  11.419   7.431  3.0491 -0.7533  0.5411
  182MOL0     H25090   1.405  11.484   7.538  1.0042 -2.5706 -0.4558
  182MOL0     H25091   1.523  11.619   7.519  0.1785  0.5765  0.3823
  182MOL0     H25092   1.572  11.662   7.742  0.6551  0.0072 -1.5409
  182MOL0     H25093   1.555  11.504   7.797 -0.6216  1.1959  1.7436
  182MOL0     H25094   1.355  11.643   7.886  1.0740 -1.3280 -0.1480
  182MOL0     H25095   1.291  11.524   7.780 -0.4495 -0.0197  0.9078
  182MOL0     H25096   2.004  10.869   7.773 -0.8575 -3.5672  1.6770
  182MOL0     H25097   2.052  10.641   7.784  1.3983 -2.2790 -0.9942
  182MOL0     H25098   2.465  10.327   7.846  0.9147  0.8118  0.4856
  182MOL0     H25099   2.613  10.148   7.790  1.0991  1.1348  0.0050
  182MOL0     H25100   1.952   9.805   6.887 -0.2873  2.4033  1.9959
  182MOL0     H25101   1.937  10.025   6.940  1.1136 -1.9153  1.9074
  182MOL0     H25102   2.085  10.449   6.873  0.6049 -3.4328 -0.4522
  182MOL0     H25103   2.101  10.670   6.954 -0.8742 -1.4238 -1.8727
  182MOL0     H25104   2.475  10.861   6.975  0.3932  1.2909 -2.9374
  182MOL0     H25105   2.339  10.858   6.867  1.1439 -0.6280 -0.5066
  182MOL0     H25106   2.235  11.042   7.030  0.9582  3.2119  2.4882
  182MOL0     H25107   2.369  11.093   6.928  0.5790 -1.1683 -0.4112
  182MOL0     H25108   2.379  10.985   7.210 -2.2834  1.1145 -0.0812
  182MOL0     H25109   2.508  11.077   7.131 -0.9189 -1.1065 -1.3510
  182MOL0     H25110   2.411  11.233   7.281  1.9026  0.0983 -0.6226
  182MOL0     H25111   2.247  11.183   7.234  0.9606 -1.3364  1.2945
  182MOL0     H25112   2.418  11.440   6.926 -1.2262 -0.0937 -0.0661
  182MOL0     H25113   2.490  10.597   7.113  2.0827  0.0014 -2.3308
  182MOL0     H25114   2.466  10.263   7.121 -2.2216  2.5522  2.0135
  182MOL0     H25115   2.592  10.314   7.006 -0.7062 -0.2894 -1.3701
  182MOL0     H25116   2.572  10.403   7.153  0.9068 -2.0177 -0.1776
  183MOL0     O25117   3.864   8.721  10.630 -0.3803  0.3427 -0.5678
  183MOL0     C25118   3.832   8.838  10.644  0.5518 -0.4013 -0.0174
  183MOL0     O25119   3.773   8.882  10.753  0.0917  0.9116  0.0038
  183MOL0     C25120   3.733   8.787  10.849 -0.1537 -0.6679  0.6135
  183MOL0     C25121   3.818   8.764  10.950  0.3276  0.5162  1.0470
  183MOL0     C25122   3.780   8.665  11.037  0.0793 -0.4299 -0.7463
  183MOL0     C25123   3.657   8.602  11.034 -0.2719 -0.3354  0.6261
  183MOL0     O25124   3.615   8.494  11.113 -0.0523 -0.3052  0.9839
  183MOL0     C25125   3.594   8.523  11.256  0.8009 -0.6002 -0.9707
  183MOL0     C25126   3.486   8.424  11.309  0.2324 -0.0749  0.5439
  183MOL0     C25127   3.449   8.468  11.448  0.7966 -0.5812 -0.7973
  183MOL0     C25128   3.537   8.442  11.560  1.3710  0.5079  0.5250
  183MOL0     C25129   3.556   8.292  11.595  0.3400  1.1607 -0.1165
  183MOL0     C25130   3.654   8.241  11.707 -0.5826 -0.3546 -0.8100
  183MOL0     C25131   3.640   8.310  11.841 -1.0288 -0.0682 -0.0275
  183MOL0     C25132   3.510   8.256  11.921  0.2573  0.0884  0.3909
  183MOL0     N25133   3.553   8.132  11.984 -0.4040  0.1379 -0.5183
  183MOL0     C25134   3.488   8.012  11.981  0.5303 -0.3432 -0.0721
  183MOL0     C25135   3.566   7.921  12.042 -0.5511 -0.1161  0.2256
  183MOL0     C25136   3.542   7.778  12.074  0.4434  0.2781 -0.5790
  183MOL0     C25137   3.439   7.760  12.200  0.3448  1.0076  0.0273
  183MOL0     C25138   3.480   7.827  12.333  0.1375  0.1809 -0.3962
  183MOL0     C25139   3.373   7.806  12.445  0.4435 -0.8073  0.9880
  183MOL0     O25140   3.443   7.818  12.573  0.2801  0.7351 -0.5043
  183MOL0     C25141   3.452   7.932  12.642  0.1046 -0.3596 -0.1650
  183MOL0     C25142   3.522   7.933  12.762 -0.5073  0.8895 -0.1927
  183MOL0     C25143   3.556   8.049  12.834 -0.3476  0.2336 -0.7979
  183MOL0     C25144   3.643   8.036  12.963 -0.6008  0.6197  0.5200
  183MOL0     C25145   3.511   8.175  12.782 -0.6945 -1.2276 -0.2350
  183MOL0     C25146   3.546   8.295  12.849 -0.8318  0.2860  0.1970
  183MOL0     O25147   3.443   8.382  12.860 -0.1178 -0.1128 -0.0509
  183MOL0     C25148   3.453   8.495  12.931  0.2977 -1.5022 -0.8916
  183MOL0     C25149   3.434   8.622  12.882 -0.7708 -0.5541  0.6309
  183MOL0     C25150   3.456   8.727  12.970 -0.7885  0.2384  0.4075
  183MOL0     C25151   3.485   8.719  13.110 -1.0394 -0.1186  0.0581
  183MOL0     O25152   3.514   8.827  13.194  0.0472  0.4124  0.6605
  183MOL0     C25153   3.607   8.914  13.128  0.4951 -0.0930  0.3831
  183MOL0     C25154   3.676   9.010  13.216 -0.4078  0.2759  0.5893
  183MOL0     C25155   3.593   9.066  13.322 -0.2932 -0.4014 -0.3951
  183MOL0     C25156   3.685   9.141  13.421  0.1042 -0.4057  1.2824
  183MOL0     C25157   3.602   9.220  13.523 -0.1936 -0.4578 -0.9045
  183MOL0     C25158   3.560   9.133  13.648 -0.4008 -0.7724 -0.2570
  183MOL0     C25159   3.679   9.131  13.740 -0.8376 -0.9567  0.2455
  183MOL0     C25160   3.691   8.991  13.797  0.0717 -0.5725  0.6814
  183MOL0    Cl25161   3.826   8.987  13.918  0.2783 -0.0981  0.6500
  183MOL0     C25162   3.504   8.589  13.156  0.7532 -0.6024  0.2094
  183MOL0     C25163   3.489   8.478  13.067 -0.2435 -0.1508 -0.3454
  183MOL0     O25164   3.665   8.319  12.872  0.6686  0.0972  0.5788
  183MOL0     C25165   3.426   8.178  12.673 -0.2209  1.1801 -0.6416
  183MOL0     C25166   3.406   8.058  12.603  0.1739  1.0331 -0.3442
  183MOL0     N25167   3.673   7.991  12.096 -0.5862  0.1619  0.4501
  183MOL0     N25168   3.663   8.119  12.058 -0.0362  0.7324  0.3390
  183MOL0     C25169   3.566   8.633  10.941 -0.7127 -0.4441  0.4639
  183MOL0     C25170   3.613   8.723  10.844 -0.0215  0.1681 -0.3616
  183MOL0     C25171   3.879   8.936  10.542 -0.6174 -0.6932 -0.6327
  183MOL0     C25172   3.877   9.071  10.567 -0.7607 -0.9931 -0.1455
  183MOL0     C25173   3.935   9.171  10.487  0.6398  0.3265 -0.2679
  183MOL0     C25174   3.984   9.139  10.361  1.1174  0.4388 -0.2457
  183MOL0     O25175   4.014   9.250  10.278 -0.4875  0.0371  0.1460
  183MOL0     C25176   4.014   9.229  10.140 -0.0593 -0.0607 -0.5500
  183MOL0     C25177   4.158   9.228  10.097  0.1327 -0.5402 -0.8499
  183MOL0     C25178   4.230   9.359  10.114  0.5491  0.6108 -0.1003
  183MOL0     C25179   4.377   9.349  10.057 -0.0977 -0.3321 -0.5140
  183MOL0     C25180   4.437   9.483  10.048 -0.2308  0.7620 -0.1645
  183MOL0     C25181   4.496   9.585  10.053 -1.1370  0.6786  0.8960
  183MOL0     C25182   3.992   9.001  10.333  0.5698  0.5037  0.4173
  183MOL0     C25183   3.934   8.906  10.411  0.2379  0.2574  0.2498
  183MOL0     C25184   3.909   8.772  10.350  1.0316 -0.0188 -0.0521
  183MOL0     H25185   3.922   8.794  10.956  0.2153  1.0189  0.5140
  183MOL0     H25186   3.845   8.630  11.117 -1.6389 -4.3188 -0.8360
  183MOL0     H25187   3.563   8.627  11.269  2.0316 -0.1478 -1.4942
  183MOL0     H25188   3.683   8.506  11.316  0.8918 -0.0771 -0.9484
  183MOL0     H25189   3.397   8.440  11.247  0.8817  0.4445 -0.2671
  183MOL0     H25190   3.516   8.320  11.302 -1.6814 -0.6593  0.4924
  183MOL0     H25191   3.420   8.573  11.442  1.3422 -0.2982  0.8873
  183MOL0     H25192   3.350   8.428  11.472  0.8206 -0.8425 -1.1179
  183MOL0     H25193   3.636   8.485  11.541  0.6833  1.9165 -0.0379
  183MOL0     H25194   3.499   8.508  11.639 -0.0716  2.1449 -1.4461
  183MOL0     H25195   3.584   8.234  11.507  0.5262  2.1410 -0.7108
  183MOL0     H25196   3.456   8.253  11.619  0.5196  0.1698 -0.9006
  183MOL0     H25197   3.641   8.134  11.726 -0.9363 -0.0168  1.0890
  183MOL0     H25198   3.760   8.259  11.684  1.2752 -5.3622  2.2640
  183MOL0     H25199   3.627   8.418  11.827  0.5183  0.1127 -0.2344
  183MOL0     H25200   3.729   8.303  11.904  1.0788 -0.0432 -2.7920
  183MOL0     H25201   3.485   8.323  12.004 -0.1726 -0.7595  0.9541
  183MOL0     H25202   3.424   8.242  11.855 -1.1187 -4.9093  2.7696
  183MOL0     H25203   3.392   7.989  11.933  1.8543  0.4968 -3.4117
  183MOL0     H25204   3.637   7.736  12.108 -0.1133 -0.3531  0.2717
  183MOL0     H25205   3.498   7.722  11.991 -1.0029 -1.2785  1.1436
  183MOL0     H25206   3.335   7.777  12.171  0.0049 -0.2967  0.4518
  183MOL0     H25207   3.427   7.652  12.199  1.7507  0.7712 -3.2811
  183MOL0     H25208   3.582   7.795  12.355 -0.7648 -2.4214  0.3611
  183MOL0     H25209   3.493   7.935  12.323  0.7485  0.2056  0.6125
  183MOL0     H25210   3.284   7.869  12.441  0.6660 -0.5421  0.0267
  183MOL0     H25211   3.342   7.702  12.430  0.5829 -0.8041  0.6688
  183MOL0     H25212   3.551   7.831  12.786  0.5300  1.8565  3.3081
  183MOL0     H25213   3.690   7.938  12.974  1.5676  1.2692 -1.8216
  183MOL0     H25214   3.584   8.054  13.053  2.4746  1.3144  2.5480
  183MOL0     H25215   3.729   8.104  12.960 -1.4603  1.7209 -1.3669
  183MOL0     H25216   3.421   8.626  12.774  0.6542  1.4823  0.4902
  183MOL0     H25217   3.465   8.822  12.918  0.4239 -0.1443 -0.1247
  183MOL0     H25218   3.671   8.863  13.055 -0.8482 -0.0033 -0.8955
  183MOL0     H25219   3.541   8.978  13.069  0.1117  0.2012  1.1210
  183MOL0     H25220   3.766   8.963  13.256  0.1392  0.7214 -0.0995
  183MOL0     H25221   3.723   9.085  13.151  2.2424 -0.7599  1.1727
  183MOL0     H25222   3.549   8.988  13.384 -1.6818  1.3260  0.8873
  183MOL0     H25223   3.520   9.137  13.281 -0.0600  1.3768  2.0489
  183MOL0     H25224   3.750   9.213  13.370 -1.5876 -0.1860 -0.6961
  183MOL0     H25225   3.750   9.062  13.459  1.2653 -1.7750 -2.9693
  183MOL0     H25226   3.651   9.312  13.556  1.5009 -1.3927 -0.6667
  183MOL0     H25227   3.514   9.251  13.466 -0.1874  2.5868  0.5382
  183MOL0     H25228   3.516   9.035  13.628 -3.3032 -0.3688  3.2416
  183MOL0     H25229   3.476   9.179  13.701  0.7533  1.3429 -0.1429
  183MOL0     H25230   3.670   9.204  13.821 -4.0137  0.4079 -1.2117
  183MOL0     H25231   3.770   9.142  13.681 -0.0802 -2.2939  1.0861
  183MOL0     H25232   3.718   8.921  13.718  0.8157  2.7388 -2.2890
  183MOL0     H25233   3.595   8.956  13.835 -0.3478  0.9097  1.0797
  183MOL0     H25234   3.539   8.575  13.257 -1.2529 -0.2726  0.9924
  183MOL0     H25235   3.529   8.382  13.100  3.0861  1.4437  0.6042
  183MOL0     H25236   3.375   8.269  12.641 -1.3397  1.7654  2.4396
  183MOL0     H25237   3.375   8.064  12.499  2.3535  1.8109 -1.0236
  183MOL0     H25238   3.469   8.583  10.938 -1.6525  1.3087  0.2943
  183MOL0     H25239   3.546   8.743  10.761 -0.0516 -2.4462 -1.0837
  183MOL0     H25240   3.836   9.101  10.663  2.7148 -0.7755  1.4242
  183MOL0     H25241   3.922   9.274  10.520 -2.1500  0.9233 -2.7263
  183MOL0     H25242   3.972   9.134  10.106  0.4736 -0.5509  0.1266
  183MOL0     H25243   3.962   9.307  10.083 -0.4128  0.7696  0.8849
  183MOL0     H25244   4.181   9.180  10.001  0.7506 -0.9571 -0.5057
  183MOL0     H25245   4.203   9.162  10.172 -3.3133 -0.2696  1.6410
  183MOL0     H25246   4.177   9.430  10.051 -1.5317  1.4890  2.4699
  183MOL0     H25247   4.232   9.390  10.218  1.7830  0.9159 -0.2037
  183MOL0     H25248   4.366   9.290   9.966 -1.4449 -1.2290  0.2033
  183MOL0     H25249   4.423   9.287  10.135  1.0507  1.6834  0.4987
  183MOL0     H25250   4.543   9.681  10.045 -0.2872  0.1469 -0.8415
  183MOL0     H25251   4.019   8.971  10.232 -1.8819  1.3748 -0.5652
  183MOL0     H25252   3.939   8.758  10.246 -1.6198 -0.8251 -0.7779
  183MOL0     H25253   3.961   8.700  10.415  1.5030  0.7884  0.4754
  183MOL0     H25254   3.808   8.731  10.360  1.4792 -1.7342 -1.8459
  184MOL0     O25255   5.857   2.985   5.183 -0.9807 -0.9676 -0.5681
  184MOL0     C25256   5.884   3.002   5.300 -0.7505  0.1188 -0.6734
  184MOL0     O25257   5.997   2.967   5.362  0.5141  0.2829  0.6576
  184MOL0     C25258   6.093   2.907   5.287  0.3990 -0.3562 -0.6313
  184MOL0     C25259   6.135   2.792   5.338 -0.4789 -0.1065  0.2711
  184MOL0     C25260   6.217   2.704   5.268  0.2706  0.9549 -0.3763
  184MOL0     C25261   6.261   2.747   5.145 -0.7646 -0.2278 -0.0825
  184MOL0     O25262   6.340   2.665   5.069 -0.5365  0.6299  0.0469
  184MOL0     C25263   6.452   2.594   5.133 -0.0228  0.0255  0.5768
  184MOL0     C25264   6.573   2.693   5.149  0.7745 -0.5186  0.6726
  184MOL0     C25265   6.712   2.629   5.120 -0.3029  0.1528 -0.3557
  184MOL0     C25266   6.822   2.700   5.194 -0.1870 -0.0075 -0.5969
  184MOL0     C25267   6.964   2.637   5.182 -0.6559  0.7569  0.1300
  184MOL0     C25268   7.044   2.686   5.299 -0.3396  0.3688  0.1064
  184MOL0     C25269   7.187   2.636   5.299 -0.4377 -0.0147 -0.6403
  184MOL0     C25270   7.271   2.723   5.383 -0.3547  0.0801  0.3529
  184MOL0     N25271   7.255   2.720   5.524 -0.5265  0.7610  0.0960
  184MOL0     C25272   7.282   2.605   5.600  0.4602  0.4226  0.1285
  184MOL0     C25273   7.257   2.635   5.730  0.2097 -0.1927  0.1865
  184MOL0     C25274   7.267   2.542   5.847  0.0911  0.1075  0.6978
  184MOL0     C25275   7.135   2.469   5.859  0.9548 -0.8966  0.0828
  184MOL0     C25276   7.109   2.403   5.996 -0.1564  0.8765  0.5923
  184MOL0     C25277   7.214   2.298   6.051  0.0193  0.3472 -0.5746
  184MOL0     O25278   7.240   2.194   5.959 -0.3913 -0.6475  0.5480
  184MOL0     C25279   7.144   2.095   5.936  0.7679  0.7141  0.0895
  184MOL0     C25280   7.163   2.027   5.811  0.4068 -0.6503 -0.5336
  184MOL0     C25281   7.081   1.918   5.793  0.2105 -0.6576  0.4140
  184MOL0     C25282   7.090   1.852   5.653 -0.3002  0.0036  0.1260
  184MOL0     C25283   6.980   1.875   5.879 -0.1307  0.3209  0.1083
  184MOL0     C25284   6.869   1.779   5.849  0.1049 -1.0172  0.0178
  184MOL0     O25285   6.825   1.715   5.967  0.0873 -1.0443  0.3021
  184MOL0     C25286   6.712   1.643   5.958 -0.1911  1.0941 -0.7802
  184MOL0     C25287   6.623   1.672   6.069 -0.1921  0.2284  0.2539
  184MOL0     C25288   6.515   1.592   6.084  0.0760 -0.1749 -0.5402
  184MOL0     C25289   6.488   1.493   5.995  0.3409 -0.3811  0.6021
  184MOL0     O25290   6.367   1.439   6.013  0.1023 -0.6775  0.0626
  184MOL0     C25291   6.320   1.326   5.929  0.2160 -1.0304  0.4521
  184MOL0     C25292   6.181   1.294   5.966 -1.0848  0.4804  0.1435
  184MOL0     C25293   6.085   1.411   5.941  0.6350  0.3860 -0.5515
  184MOL0     C25294   5.937   1.358   5.957  0.1451 -0.5332  1.8081
  184MOL0     C25295   5.833   1.478   5.977 -0.2042 -0.3512 -0.6528
  184MOL0     C25296   5.823   1.577   5.862 -0.5398  0.2064 -0.0405
  184MOL0     C25297   5.733   1.685   5.900  0.3497 -0.3370  0.1457
  184MOL0     C25298   5.586   1.656   5.873  0.2317 -0.2137 -0.0156
  184MOL0    Cl25299   5.487   1.710   6.018  0.1698  0.3179 -0.1003
  184MOL0     C25300   6.569   1.464   5.888 -0.5394 -0.8707  0.8822
  184MOL0     C25301   6.692   1.528   5.882  0.6295 -0.4932 -0.1320
  184MOL0     O25302   6.821   1.774   5.736  0.3677  0.3506 -0.8444
  184MOL0     C25303   6.968   1.935   6.003 -0.3504  0.0689 -0.6855
  184MOL0     C25304   7.053   2.041   6.031  0.5525 -0.8127  0.0337
  184MOL0     N25305   7.223   2.773   5.730  0.6670 -0.5173 -0.7134
  184MOL0     N25306   7.211   2.816   5.610  0.2019  0.4872 -0.4273
  184MOL0     C25307   6.225   2.871   5.093 -0.5827  0.0857 -0.1334
  184MOL0     C25308   6.148   2.952   5.168 -0.8979 -0.5590  0.3831
  184MOL0     C25309   5.777   3.058   5.395  0.3180 -0.5930 -0.5490
  184MOL0     C25310   5.793   3.053   5.525 -0.9193  0.1216  0.3773
  184MOL0     C25311   5.694   3.099   5.614 -1.0540  0.6058 -0.5216
  184MOL0     C25312   5.563   3.149   5.576 -0.3440 -0.1440  0.1005
  184MOL0     O25313   5.463   3.203   5.660  0.1374  0.6411 -0.2476
  184MOL0     C25314   5.463   3.171   5.804 -1.1818  0.7754 -0.2850
  184MOL0     C25315   5.368   3.273   5.866  0.3195 -0.3970  0.1285
  184MOL0     C25316   5.379   3.424   5.824  0.0032  0.6977  0.1236
  184MOL0     C25317   5.280   3.518   5.884 -0.7815 -1.0154 -0.0821
  184MOL0     C25318   5.324   3.561   6.017  0.5827  0.8670 -0.5887
  184MOL0     C25319   5.352   3.585   6.129 -1.3436 -0.7973  0.7280
  184MOL0     C25320   5.543   3.146   5.438  0.0363  0.5248 -0.1024
  184MOL0     C25321   5.650   3.107   5.349  0.0708  0.3699 -0.5423
  184MOL0     C25322   5.614   3.143   5.209 -0.1028  0.1410  0.5689
  184MOL0     H25323   6.097   2.761   5.434  2.0175 -1.8562  0.8172
  184MOL0     H25324   6.238   2.611   5.321 -3.5736  0.4144  0.4864
  184MOL0     H25325   6.487   2.522   5.059  2.3972  2.6756 -1.0529
  184MOL0     H25326   6.434   2.553   5.233  0.4570 -1.0697  0.2392
  184MOL0     H25327   6.553   2.780   5.086 -0.7195 -0.2314  1.5002
  184MOL0     H25328   6.568   2.730   5.251 -0.0117  1.0424  0.1049
  184MOL0     H25329   6.698   2.527   5.158  0.6135  0.4100  0.6938
  184MOL0     H25330   6.736   2.629   5.013 -0.2226  3.1882 -0.4018
  184MOL0     H25331   6.817   2.807   5.172  0.9945  1.1974  3.8681
  184MOL0     H25332   6.802   2.693   5.302 -0.7879  0.2177 -0.6911
  184MOL0     H25333   7.020   2.661   5.091  0.0233  2.2588  0.8972
  184MOL0     H25334   6.957   2.528   5.186 -2.2308  0.8388  0.3306
  184MOL0     H25335   7.046   2.794   5.279 -1.0910  0.3444 -0.1318
  184MOL0     H25336   6.997   2.662   5.395 -2.8564 -2.0461 -1.5947
  184MOL0     H25337   7.228   2.648   5.198  2.2454 -0.3513  0.3254
  184MOL0     H25338   7.202   2.531   5.325  2.6729  0.2049 -1.1811
  184MOL0     H25339   7.376   2.702   5.358 -1.0541 -1.1648 -1.8392
  184MOL0     H25340   7.245   2.828   5.364 -0.9114 -0.5021 -2.5459
  184MOL0     H25341   7.318   2.508   5.567  2.8545  1.5758 -0.8539
  184MOL0     H25342   7.259   2.596   5.943 -2.1873 -0.2450  0.7660
  184MOL0     H25343   7.355   2.478   5.839  1.3580  1.7516  0.9129
  184MOL0     H25344   7.055   2.542   5.844  0.0194 -2.0221 -0.5467
  184MOL0     H25345   7.127   2.397   5.777 -0.4810 -0.0448 -0.5513
  184MOL0     H25346   7.090   2.481   6.070 -2.1684  0.8263  0.2069
  184MOL0     H25347   7.015   2.347   5.984  0.3494 -0.2486  1.6439
  184MOL0     H25348   7.306   2.353   6.070  0.1888 -0.6840  2.0846
  184MOL0     H25349   7.182   2.255   6.146 -0.7190  2.6177  0.2900
  184MOL0     H25350   7.229   2.059   5.731 -1.1111  2.4099 -0.6874
  184MOL0     H25351   7.065   1.747   5.673 -3.0334  0.5491  0.0147
  184MOL0     H25352   7.183   1.862   5.598 -0.4699 -0.4146 -0.2480
  184MOL0     H25353   7.020   1.883   5.575  0.1201  1.5655  0.3394
  184MOL0     H25354   6.649   1.727   6.159  1.1901 -2.0809  1.3577
  184MOL0     H25355   6.441   1.604   6.163  2.4832  1.2889  1.6389
  184MOL0     H25356   6.324   1.361   5.825  1.7183  1.3537  1.2181
  184MOL0     H25357   6.386   1.240   5.945  0.4495 -0.7788  0.8597
  184MOL0     H25358   6.151   1.210   5.904 -0.7984 -0.3525  1.1155
  184MOL0     H25359   6.170   1.257   6.068  1.5386 -1.3332 -0.1420
  184MOL0     H25360   6.108   1.458   5.845  1.6105  0.9954 -0.0355
  184MOL0     H25361   6.086   1.486   6.021 -1.2572  1.9743 -1.9003
  184MOL0     H25362   5.923   1.298   6.048 -1.8432 -0.0930  1.8456
  184MOL0     H25363   5.915   1.298   5.868  1.6080  1.5221 -0.0209
  184MOL0     H25364   5.734   1.438   6.002 -0.6383  1.8748  1.6302
  184MOL0     H25365   5.870   1.536   6.063  2.1054 -0.5197 -1.4766
  184MOL0     H25366   5.791   1.521   5.774 -3.0408 -0.1210  0.9945
  184MOL0     H25367   5.920   1.626   5.848 -0.7953  0.9780  0.8085
  184MOL0     H25368   5.758   1.777   5.846 -0.0951  0.3687  1.1099
  184MOL0     H25369   5.741   1.715   6.005 -2.9503  0.6732  0.2399
  184MOL0     H25370   5.561   1.551   5.855  0.6978 -0.2834 -0.2626
  184MOL0     H25371   5.556   1.699   5.777 -2.6313  1.5465  1.5392
  184MOL0     H25372   6.536   1.390   5.814 -2.3020  0.5771  0.1449
  184MOL0     H25373   6.760   1.508   5.800 -1.8285 -0.6537 -2.2551
  184MOL0     H25374   6.896   1.930   6.084  1.6024 -0.9959  1.0684
  184MOL0     H25375   7.058   2.072   6.135 -0.5641  1.0011 -0.4267
  184MOL0     H25376   6.262   2.910   4.999 -0.0264  0.2493  0.1491
  184MOL0     H25377   6.118   3.049   5.131  1.5408  0.6842  1.4962
  184MOL0     H25378   5.885   3.020   5.571 -0.8432 -0.9838 -0.5289
  184MOL0     H25379   5.708   3.091   5.721 -1.4516  1.2384 -0.4150
  184MOL0     H25380   5.428   3.070   5.829  0.6062  0.3475  0.5727
  184MOL0     H25381   5.558   3.192   5.853 -1.6029 -1.9937  2.0202
  184MOL0     H25382   5.382   3.265   5.974  1.1237 -1.5683 -0.0420
  184MOL0     H25383   5.267   3.246   5.834  1.1428 -1.1021 -2.1085
  184MOL0     H25384   5.478   3.469   5.836  0.5479  0.0161 -1.5751
  184MOL0     H25385   5.362   3.423   5.716  6.0674 -1.7189 -1.2074
  184MOL0     H25386   5.194   3.451   5.893 -3.0226  1.6344 -0.3220
  184MOL0     H25387   5.244   3.598   5.819 -0.5859 -0.0986  0.8956
  184MOL0     H25388   5.374   3.607   6.232 -1.0111 -2.7697  1.1172
  184MOL0     H25389   5.440   3.173   5.416 -1.9953 -1.1501  5.6454
  184MOL0     H25390   5.693   3.214   5.184 -1.1545  1.1928  0.0967
  184MOL0     H25391   5.605   3.058   5.141  3.0867 -1.2586  1.7120
  184MOL0     H25392   5.526   3.208   5.213  1.6586  2.6184  1.7156
  185MOL0     O25393   9.548  10.013   9.771  0.0578 -0.0489  0.5522
  185MOL0     C25394   9.659  10.043   9.728  0.2122 -0.3667 -0.0779
  185MOL0     O25395   9.679  10.164   9.664  0.2496 -0.6661  0.7450
  185MOL0     C25396   9.612  10.268   9.719 -0.0327  0.0207 -0.1216
  185MOL0     C25397   9.520  10.349   9.645  1.0937 -0.5969 -0.6180
  185MOL0     C25398   9.440  10.442   9.700  0.1889 -0.5409 -0.2833
  185MOL0     C25399   9.447  10.475   9.834  0.0760 -0.2877 -0.4948
  185MOL0     O25400   9.365  10.560   9.900 -0.9317  0.7745  0.8011
  185MOL0     C25401   9.231  10.578   9.844  0.1841 -0.2148 -0.5993
  185MOL0     C25402   9.151  10.692   9.904 -0.2877 -0.4527  0.0904
  185MOL0     C25403   9.143  10.692  10.051  0.0571  0.3744 -0.0443
  185MOL0     C25404   9.018  10.778  10.093  0.8351 -0.5520  0.2564
  185MOL0     C25405   8.983  10.752  10.240 -0.9173 -0.0210  0.1853
  185MOL0     C25406   9.055  10.844  10.340  0.0130  0.1341 -0.5964
  185MOL0     C25407   9.022  10.827  10.492 -0.1650  0.3020  0.1557
  185MOL0     C25408   8.876  10.865  10.514  0.4554  0.3181  0.3665
  185MOL0     N25409   8.847  10.908  10.657  0.2830  0.3750  0.3174
  185MOL0     C25410   8.900  10.841  10.771  0.5301 -0.1309 -0.1334
  185MOL0     C25411   8.863  10.910  10.880  0.0605  0.8129  0.0615
  185MOL0     C25412   8.897  10.863  11.018  0.2014 -0.4428 -0.0712
  185MOL0     C25413   8.908  10.708  11.040 -0.3633  0.1739  0.0341
  185MOL0     C25414   8.959  10.668  11.180 -1.1952 -0.8048  0.6007
  185MOL0     C25415   9.112  10.690  11.205 -0.2055  0.5953 -0.8290
  185MOL0     O25416   9.200  10.596  11.137  0.5198 -0.1559 -0.4287
  185MOL0     C25417   9.318  10.652  11.103  0.7175  0.3586  0.2407
  185MOL0     C25418   9.410  10.665  11.204 -0.7518 -0.1676  0.1797
  185MOL0     C25419   9.537  10.723  11.183  0.5456  0.6167  1.2485
  185MOL0     C25420   9.619  10.755  11.302  0.2025 -0.2243 -0.5395
  185MOL0     C25421   9.568  10.759  11.047  0.5882 -1.2717  0.1357
  185MOL0     C25422   9.692  10.834  11.013  0.2182  0.0605 -1.0271
  185MOL0     O25423   9.748  10.809  10.889 -0.0847 -0.1482 -0.8735
  185MOL0     C25424   9.863  10.875  10.862  0.5223 -0.0305  0.1579
  185MOL0     C25425   9.863  11.010  10.820  0.2398 -0.2662 -0.6953
  185MOL0     C25426   9.979  11.079  10.788  0.3315 -0.4384 -0.5201
  185MOL0     C25427  10.100  11.009  10.794  0.4142 -0.7238  0.3688
  185MOL0     O25428  10.229  11.063  10.778  0.0191  0.0050  1.2892
  185MOL0     C25429  10.258  11.187  10.852  0.2450 -0.9785 -0.5217
  185MOL0     C25430  10.397  11.183  10.913  0.0970  0.6294 -0.4861
  185MOL0     C25431  10.447  11.323  10.931  0.4147 -0.0847  0.3086
  185MOL0     C25432  10.459  11.397  10.791 -1.2947 -0.9426  0.4033
  185MOL0     C25433  10.603  11.459  10.772  0.0848 -0.2496 -0.2893
  185MOL0     C25434  10.707  11.352  10.766  0.2559  0.2052  0.6886
  185MOL0     C25435  10.848  11.404  10.802  0.6736 -1.2473  0.5686
  185MOL0     C25436  10.952  11.299  10.814  0.8919 -0.8496 -0.2175
  185MOL0    Cl25437  11.118  11.374  10.813 -0.1812  0.1901 -0.7147
  185MOL0     C25438  10.098  10.866  10.825  0.8308  0.3438  0.4791
  185MOL0     C25439   9.977  10.803  10.862  0.0407  0.4477  0.0127
  185MOL0     O25440   9.722  10.929  11.084 -0.6935  0.0640  0.5015
  185MOL0     C25441   9.479  10.733  10.951  0.3516  0.2604 -0.0407
  185MOL0     C25442   9.354  10.673  10.975  0.6260 -0.4677  0.0460
  185MOL0     N25443   8.781  11.006  10.830 -0.4563 -0.0098 -0.5904
  185MOL0     N25444   8.766  11.008  10.704 -1.3534  0.1449 -0.1295
  185MOL0     C25445   9.540  10.408   9.915 -0.7618 -0.2696 -0.6068
  185MOL0     C25446   9.613  10.302   9.858 -0.1152  0.6978  0.3708
  185MOL0     C25447   9.761   9.935   9.735  0.3700  0.2662  0.5129
  185MOL0     C25448   9.722   9.810   9.784  0.2735 -0.7568  0.1368
  185MOL0     C25449   9.797   9.695   9.749  0.3266 -0.6086 -0.2870
  185MOL0     C25450   9.918   9.709   9.686  0.0138  0.1850  0.9181
  185MOL0     O25451   9.999   9.604   9.646  0.1517 -0.2361  0.1106
  185MOL0     C25452   9.953   9.548   9.521 -0.0262 -0.2135  0.3370
  185MOL0     C25453  10.069   9.500   9.443  0.3460 -0.0434  0.1695
  185MOL0     C25454  10.023   9.405   9.326  0.4558 -0.8991  0.2297
  185MOL0     C25455  10.138   9.392   9.223 -0.0318 -0.2479 -0.4925
  185MOL0     C25456  10.122   9.272   9.145 -1.0301 -0.1165 -0.3430
  185MOL0     C25457  10.093   9.182   9.070 -0.6287 -1.1763  0.1458
  185MOL0     C25458   9.966   9.840   9.661 -0.0533 -0.2787 -1.0949
  185MOL0     C25459   9.887   9.947   9.685 -0.3283 -0.4525 -0.4010
  185MOL0     C25460   9.942  10.077   9.634  0.8511  0.0301  0.4145
  185MOL0     H25461   9.518  10.325   9.539  2.3816 -2.5158 -0.2676
  185MOL0     H25462   9.389  10.494   9.619  1.0883 -2.3097 -2.0690
  185MOL0     H25463   9.179  10.484   9.867 -1.1883  0.6872  0.1182
  185MOL0     H25464   9.232  10.588   9.736  1.8648 -1.1631 -0.7114
  185MOL0     H25465   9.180  10.786   9.855  0.8541  0.5590  2.5496
  185MOL0     H25466   9.054  10.665   9.863 -0.0460 -1.2785  0.0305
  185MOL0     H25467   9.143  10.589  10.088  3.6130 -0.2024 -1.3641
  185MOL0     H25468   9.225  10.754  10.089 -1.9342  2.2937  1.4059
  185MOL0     H25469   9.041  10.882  10.071  4.1435 -1.4810 -1.2695
  185MOL0     H25470   8.925  10.748  10.042  1.6385 -4.3402  0.6774
  185MOL0     H25471   9.004  10.647  10.262 -1.9438 -0.4184 -0.6157
  185MOL0     H25472   8.875  10.768  10.247 -0.9001  0.2176 -0.0697
  185MOL0     H25473   9.163  10.826  10.337 -0.2951 -1.8685 -0.5801
  185MOL0     H25474   9.030  10.940  10.293  1.5206  0.2923 -1.1355
  185MOL0     H25475   9.100  10.885  10.544 -3.6557  3.2600  2.5841
  185MOL0     H25476   9.040  10.723  10.517 -0.9514  0.8133  3.2028
  185MOL0     H25477   8.852  10.947  10.446 -2.5061 -1.0178 -0.3715
  185MOL0     H25478   8.811  10.781  10.488  1.7323 -0.6044  0.0818
  185MOL0     H25479   8.970  10.758  10.775  2.0454  1.1013 -0.3079
  185MOL0     H25480   8.828  10.912  11.088  2.5265  1.9789  0.6825
  185MOL0     H25481   8.996  10.904  11.040  1.2220 -2.9122  0.2610
  185MOL0     H25482   8.806  10.672  11.024 -0.6913  0.1780  1.8057
  185MOL0     H25483   8.975  10.654  10.973 -1.3649 -0.7988 -0.2090
  185MOL0     H25484   8.903  10.738  11.243 -0.4336  0.4188 -0.0537
  185MOL0     H25485   8.932  10.565  11.202 -2.2782 -1.2109 -2.2175
  185MOL0     H25486   9.134  10.796  11.188  2.9530  0.5021  1.7640
  185MOL0     H25487   9.132  10.675  11.311  4.3418  1.6710 -1.3398
  185MOL0     H25488   9.384  10.627  11.302  0.1521 -1.7627 -0.1664
  185MOL0     H25489   9.603  10.859  11.333  1.7721  0.0770 -0.6756
  185MOL0     H25490   9.723  10.759  11.270 -0.2503 -2.0052 -2.4232
  185MOL0     H25491   9.600  10.686  11.385  0.6249 -0.2176 -0.4377
  185MOL0     H25492   9.765  11.055  10.823  1.2236  2.1638 -2.1585
  185MOL0     H25493   9.974  11.187  10.782 -1.6410 -0.4961 -0.4755
  185MOL0     H25494  10.243  11.264  10.776 -0.0033  1.9764  2.2931
  185MOL0     H25495  10.191  11.197  10.938 -0.2058  0.2603 -0.9988
  185MOL0     H25496  10.391  11.137  11.012 -0.3610  1.2313 -0.2214
  185MOL0     H25497  10.469  11.131  10.851  3.3812  2.9112  1.0989
  185MOL0     H25498  10.543  11.331  10.983  0.8631  1.9580 -0.7287
  185MOL0     H25499  10.375  11.375  10.994 -1.0978 -1.3827 -0.2986
  185MOL0     H25500  10.390  11.482  10.787  1.0917  1.0968  0.1493
  185MOL0     H25501  10.441  11.322  10.714 -2.1652 -1.9262  1.5242
  185MOL0     H25502  10.595  11.502  10.671 -0.6576  1.5389  0.4764
  185MOL0     H25503  10.609  11.538  10.847 -0.4035 -0.5997  0.1303
  185MOL0     H25504  10.705  11.299  10.670 -0.2354 -2.0425  1.8584
  185MOL0     H25505  10.706  11.267  10.835  2.0018  0.7129  1.4049
  185MOL0     H25506  10.835  11.461  10.895 -0.4808 -1.5196  0.5889
  185MOL0     H25507  10.879  11.464  10.716  1.0066 -0.7212  1.0447
  185MOL0     H25508  10.949  11.253  10.715  0.6908  1.2355 -1.2080
  185MOL0     H25509  10.935  11.226  10.895 -0.0939  1.1873  1.4996
  185MOL0     H25510  10.188  10.806  10.830 -0.0088 -0.9152  0.9315
  185MOL0     H25511   9.973  10.697  10.882 -4.0334  0.1764 -1.3815
  185MOL0     H25512   9.502  10.762  10.848 -2.6160 -3.9389 -2.1663
  185MOL0     H25513   9.287  10.653  10.892  1.8858 -3.8777 -0.2979
  185MOL0     H25514   9.548  10.443  10.017 -0.1100 -1.7340 -0.1327
  185MOL0     H25515   9.686  10.261   9.927  0.6158  3.1280  1.1375
  185MOL0     H25516   9.634   9.780   9.840  0.6821 -3.9253 -0.7033
  185MOL0     H25517   9.751   9.600   9.772  2.7252 -1.2585  2.3926
  185MOL0     H25518   9.871   9.483   9.553 -1.6532  0.8641 -1.4456
  185MOL0     H25519   9.914   9.630   9.460  2.6274 -0.8613 -2.4440
  185MOL0     H25520  10.131   9.432   9.501  2.4433  1.7662  0.1880
  185MOL0     H25521  10.130   9.586   9.412  1.4431 -0.9055 -0.1220
  185MOL0     H25522   9.985   9.309   9.361 -1.3147 -0.9220 -1.5898
  185MOL0     H25523   9.941   9.455   9.273  2.3021  0.3007 -1.6924
  185MOL0     H25524  10.240   9.393   9.264  0.0490  1.5506 -0.6453
  185MOL0     H25525  10.121   9.468   9.147  2.7442 -0.1590 -1.1239
  185MOL0     H25526  10.081   9.104   8.998 -1.7317  0.1464 -1.1684
  185MOL0     H25527  10.058   9.846   9.603 -0.1451  0.1159 -1.2035
  185MOL0     H25528   9.897  10.090   9.535  1.3572 -0.3520  0.1292
  185MOL0     H25529   9.906  10.156   9.701  0.5214  0.6621 -0.4944
  185MOL0     H25530  10.051  10.078   9.638  0.8405 -1.3893  1.8699
  186MOL0     O25531   0.768   4.386   5.223 -1.1350 -0.2772  1.0087
  186MOL0     C25532   0.877   4.435   5.220 -0.8042  0.9288 -0.5900
  186MOL0     O25533   0.950   4.477   5.337  0.5769 -0.0860  0.4033
  186MOL0     C25534   0.903   4.464   5.461  0.9081  0.7200 -0.2484
  186MOL0     C25535   0.782   4.410   5.502 -0.5954  0.4482  0.3861
  186MOL0     C25536   0.760   4.381   5.646 -0.2445 -1.0532  0.5566
  186MOL0     C25537   0.857   4.423   5.735 -0.1086  0.3507  0.3223
  186MOL0     O25538   0.831   4.426   5.868 -0.1831  0.5395  0.4530
  186MOL0     C25539   0.807   4.308   5.935  1.2697  1.1181 -1.4673
  186MOL0     C25540   0.742   4.334   6.071 -0.4209 -0.2901 -0.4449
  186MOL0     C25541   0.608   4.410   6.068 -0.3496 -0.3155  0.6472
  186MOL0     C25542   0.579   4.458   6.206  0.7373 -0.2036  0.6602
  186MOL0     C25543   0.432   4.499   6.234  0.0040  0.4429  0.7293
  186MOL0     C25544   0.407   4.617   6.146 -0.7544 -0.2653 -0.0322
  186MOL0     C25545   0.259   4.658   6.166  0.1376 -0.3465  0.0329
  186MOL0     C25546   0.216   4.754   6.064 -0.0261 -0.3183  0.0411
  186MOL0     N25547   0.070   4.743   6.058  0.7390 -0.2582 -0.1913
  186MOL0     C25548  -0.020   4.825   6.132 -0.4834  0.3033 -0.4939
  186MOL0     C25549  -0.144   4.780   6.092  0.5326 -0.4412 -0.2447
  186MOL0     C25550  -0.273   4.827   6.151  0.4131  0.8487 -0.2583
  186MOL0     C25551  -0.293   4.786   6.302 -0.0234  0.8175  0.1350
  186MOL0     C25552  -0.411   4.858   6.371  0.4223  0.9653  0.5888
  186MOL0     C25553  -0.412   5.011   6.366 -0.1640 -0.1293  0.7305
  186MOL0     O25554  -0.282   5.064   6.393 -0.1679  0.0364 -0.0021
  186MOL0     C25555  -0.257   5.194   6.429  0.5296 -0.1909 -0.3107
  186MOL0     C25556  -0.125   5.225   6.457 -0.0852  0.6365 -0.5347
  186MOL0     C25557  -0.096   5.341   6.527  0.2384 -0.4899 -0.4406
  186MOL0     C25558   0.035   5.344   6.602  0.7474  0.4281  0.0979
  186MOL0     C25559  -0.189   5.447   6.525  0.7377 -0.9195  0.2068
  186MOL0     C25560  -0.162   5.577   6.595  0.9074  0.6853 -0.6428
  186MOL0     O25561  -0.182   5.687   6.519  0.8826 -0.2666  0.1283
  186MOL0     C25562  -0.138   5.809   6.569  0.5888  0.3922  1.1164
  186MOL0     C25563  -0.088   5.905   6.484  0.9669 -0.3158 -0.3516
  186MOL0     C25564  -0.040   6.033   6.536 -0.0780 -0.2788  0.0557
  186MOL0     C25565  -0.054   6.065   6.668  0.6677 -0.0327  0.0694
  186MOL0     O25566  -0.015   6.185   6.714  0.0397 -0.5132  0.2179
  186MOL0     C25567   0.109   6.175   6.786 -0.3143  0.3925  0.3560
  186MOL0     C25568   0.226   6.252   6.729  0.2427  0.0805 -0.2695
  186MOL0     C25569   0.182   6.383   6.666 -0.2608  0.1022  0.4306
  186MOL0     C25570   0.289   6.465   6.590  0.0388 -0.2407  0.0673
  186MOL0     C25571   0.430   6.462   6.641 -1.3540  0.5523 -0.0384
  186MOL0     C25572   0.456   6.513   6.779  0.2126 -0.6349  0.1562
  186MOL0     C25573   0.494   6.664   6.785 -0.7098  1.1291  0.4552
  186MOL0     C25574   0.372   6.758   6.835 -0.2844 -0.0855  0.2778
  186MOL0    Cl25575   0.441   6.920   6.874  0.5015 -0.3730  0.1754
  186MOL0     C25576  -0.121   5.971   6.752  0.2323  0.0196 -0.5048
  186MOL0     C25577  -0.161   5.847   6.703  0.4279 -0.1263 -0.7970
  186MOL0     O25578  -0.110   5.568   6.710 -0.4663  0.4433 -0.1487
  186MOL0     C25579  -0.314   5.429   6.476  0.7989  0.5956  1.1579
  186MOL0     C25580  -0.356   5.295   6.446 -0.0405  0.8565  0.7812
  186MOL0     N25581  -0.123   4.676   6.003  0.7527 -0.1980 -0.3740
  186MOL0     N25582  -0.000   4.663   5.974  0.0646 -0.2169  0.9311
  186MOL0     C25583   0.969   4.483   5.692 -0.1068 -0.1014 -0.0467
  186MOL0     C25584   0.993   4.497   5.552 -0.4876 -0.9793 -0.3990
  186MOL0     C25585   0.940   4.464   5.085 -0.0488 -0.0867  0.4141
  186MOL0     C25586   1.078   4.484   5.091  1.0222  1.3764 -0.6156
  186MOL0     C25587   1.165   4.477   4.979 -0.7576  0.1548  1.7075
  186MOL0     C25588   1.104   4.477   4.852  0.6489  0.1376 -0.2612
  186MOL0     O25589   1.184   4.488   4.735 -0.0744 -0.4773 -0.7385
  186MOL0     C25590   1.327   4.528   4.744 -0.3176 -0.4602  0.2776
  186MOL0     C25591   1.346   4.684   4.738 -0.0660  0.4382 -0.4421
  186MOL0     C25592   1.467   4.722   4.819 -0.6846  0.3209 -0.1054
  186MOL0     C25593   1.599   4.668   4.759  0.0693 -0.4913 -0.2919
  186MOL0     C25594   1.639   4.542   4.810  0.6839  0.5112 -0.3159
  186MOL0     C25595   1.676   4.445   4.868  0.7852 -0.4068 -0.1682
  186MOL0     C25596   0.965   4.475   4.842 -0.2571 -0.5761  0.0021
  186MOL0     C25597   0.878   4.464   4.959 -0.1491 -0.6147  0.3800
  186MOL0     C25598   0.727   4.488   4.939  0.8294 -0.0658 -0.1888
  186MOL0     H25599   0.698   4.389   5.437 -0.3390  1.0896 -0.1681
  186MOL0     H25600   0.666   4.348   5.689 -1.0345  2.8058  2.2160
  186MOL0     H25601   0.901   4.256   5.951  0.3750  0.2887  1.8252
  186MOL0     H25602   0.734   4.240   5.890  0.6124  1.4751 -0.9527
  186MOL0     H25603   0.740   4.244   6.134 -0.7273  1.3925  2.1102
  186MOL0     H25604   0.803   4.402   6.132 -2.7301  0.2201  1.4423
  186MOL0     H25605   0.607   4.489   5.992  1.6147 -0.0935  0.8074
  186MOL0     H25606   0.527   4.337   6.051 -2.3694  1.5122  1.9239
  186MOL0     H25607   0.615   4.388   6.281  3.1636  1.2553  0.9579
  186MOL0     H25608   0.636   4.550   6.226 -0.3962  1.6786 -3.6474
  186MOL0     H25609   0.411   4.525   6.339  0.5055  1.4433  0.5961
  186MOL0     H25610   0.376   4.411   6.202  4.1177 -1.7817 -1.0364
  186MOL0     H25611   0.470   4.703   6.169 -1.9368  0.7822 -0.5998
  186MOL0     H25612   0.411   4.597   6.038 -3.1874  2.4864 -0.7515
  186MOL0     H25613   0.247   4.699   6.267 -1.4182 -0.2642 -0.1676
  186MOL0     H25614   0.195   4.570   6.156 -0.2015 -0.0923 -0.0581
  186MOL0     H25615   0.241   4.854   6.099 -3.1214 -0.3444  2.7869
  186MOL0     H25616   0.260   4.728   5.967 -1.0993  2.7704 -1.4092
  186MOL0     H25617  -0.008   4.897   6.212  1.7853 -2.3979  1.8577
  186MOL0     H25618  -0.362   4.804   6.092 -0.2046  4.2668 -0.8449
  186MOL0     H25619  -0.270   4.936   6.144  0.7419  0.9318  1.0518
  186MOL0     H25620  -0.294   4.679   6.326  0.6901  1.0155  1.1167
  186MOL0     H25621  -0.197   4.821   6.342  0.5175  1.0141 -1.2841
  186MOL0     H25622  -0.504   4.819   6.328  0.9593  1.5775 -1.1732
  186MOL0     H25623  -0.416   4.828   6.477  0.1575 -1.6283 -0.0774
  186MOL0     H25624  -0.440   5.044   6.266 -1.9582 -0.7234  0.9986
  186MOL0     H25625  -0.488   5.043   6.438 -2.2390 -0.5414 -1.1921
  186MOL0     H25626  -0.054   5.144   6.455  0.7382  1.0471  3.7519
  186MOL0     H25627   0.092   5.432   6.572  1.7634  0.6183  2.4288
  186MOL0     H25628   0.107   5.266   6.576  1.6897  0.6633  1.8537
  186MOL0     H25629   0.012   5.343   6.709 -0.7640  4.7928  0.0013
  186MOL0     H25630  -0.073   5.889   6.377  0.5543  1.4386 -0.7004
  186MOL0     H25631  -0.003   6.112   6.472  1.3948 -0.7224  0.3252
  186MOL0     H25632   0.090   6.214   6.887 -0.6074 -3.7304  2.0952
  186MOL0     H25633   0.137   6.070   6.799  1.3503  0.9347  1.4505
  186MOL0     H25634   0.290   6.271   6.815  0.5874  1.4222 -0.8007
  186MOL0     H25635   0.282   6.195   6.654 -2.3685  0.2654 -2.5283
  186MOL0     H25636   0.130   6.437   6.745  1.8886 -0.9597  2.6907
  186MOL0     H25637   0.101   6.362   6.595 -1.1606  0.6559  1.2846
  186MOL0     H25638   0.266   6.572   6.593  1.1488 -0.0057  1.0587
  186MOL0     H25639   0.301   6.420   6.491  0.7215 -0.3788  0.2107
  186MOL0     H25640   0.467   6.359   6.639 -0.9156  0.7306 -1.5859
  186MOL0     H25641   0.493   6.517   6.572 -0.2162 -0.4208  0.1881
  186MOL0     H25642   0.532   6.456   6.834  2.3325  3.6912  2.1536
  186MOL0     H25643   0.359   6.502   6.828 -0.3367 -0.0862 -0.7839
  186MOL0     H25644   0.514   6.695   6.681  0.1030  1.2125  0.6325
  186MOL0     H25645   0.587   6.680   6.840  1.4602 -1.9627 -1.9089
  186MOL0     H25646   0.322   6.723   6.926  3.0288  1.7242  3.0621
  186MOL0     H25647   0.309   6.767   6.747 -0.2265 -1.2878  0.0907
  186MOL0     H25648  -0.143   5.982   6.857  0.4012 -1.3009 -0.3150
  186MOL0     H25649  -0.217   5.780   6.767 -2.0162  1.3613 -1.2641
  186MOL0     H25650  -0.384   5.512   6.477 -0.6056 -0.5381  1.9711
  186MOL0     H25651  -0.460   5.280   6.419  0.4382 -2.0775  0.3067
  186MOL0     H25652   1.033   4.524   5.769 -0.7015  2.8150 -0.9717
  186MOL0     H25653   1.088   4.541   5.521 -2.9469  3.7692 -2.2883
  186MOL0     H25654   1.133   4.489   5.185  1.5245 -4.7811 -0.1842
  186MOL0     H25655   1.269   4.477   5.008 -0.2325  1.6836 -0.0135
  186MOL0     H25656   1.372   4.477   4.830  1.8916 -0.0788 -0.5948
  186MOL0     H25657   1.381   4.492   4.656 -0.8886  2.2084 -1.2609
  186MOL0     H25658   1.254   4.724   4.781 -0.6487 -1.8888  0.6032
  186MOL0     H25659   1.352   4.718   4.634  1.3840 -0.7644 -0.7909
  186MOL0     H25660   1.476   4.830   4.803  0.3897 -0.1542 -3.7508
  186MOL0     H25661   1.457   4.711   4.927 -1.1249  1.3136 -0.0381
  186MOL0     H25662   1.670   4.749   4.777  0.2213  0.0608 -2.9776
  186MOL0     H25663   1.599   4.665   4.650 -0.1909 -0.3206 -0.2981
  186MOL0     H25664   1.688   4.353   4.923 -3.6330 -0.2439  1.5199
  186MOL0     H25665   0.938   4.493   4.739  0.7149  1.2693  0.0363
  186MOL0     H25666   0.699   4.579   4.994  2.9740  0.0059  0.9076
  186MOL0     H25667   0.715   4.508   4.832  1.6169 -2.6645 -0.8238
  186MOL0     H25668   0.667   4.402   4.970  0.5303  0.4202  0.5992
  187MOL0     O25669  10.968   7.471   3.431 -0.6242 -0.8173 -0.2687
  187MOL0     C25670  11.074   7.430   3.381  0.8391 -0.6227  0.5556
  187MOL0     O25671  11.137   7.311   3.411 -0.7356 -0.1578  0.2283
  187MOL0     C25672  11.076   7.233   3.498 -0.3301  0.7974 -0.1942
  187MOL0     C25673  11.150   7.206   3.612 -0.0075  0.6425  0.0522
  187MOL0     C25674  11.090   7.119   3.706 -0.0603 -0.4642  0.4648
  187MOL0     C25675  10.959   7.077   3.699 -0.2599  0.2505  0.0464
  187MOL0     O25676  10.923   6.994   3.799 -0.2565  0.1857 -0.2808
  187MOL0     C25677  10.816   7.036   3.893 -0.8028  0.3915  0.9678
  187MOL0     C25678  10.876   7.047   4.035  0.5857  0.1130  0.2940
  187MOL0     C25679  11.019   7.101   4.054 -0.9192 -0.7282 -0.5287
  187MOL0     C25680  11.057   7.070   4.196  0.6454  0.3188  0.1478
  187MOL0     C25681  11.195   7.129   4.228  0.0641  0.0206  0.1498
  187MOL0     C25682  11.264   7.075   4.356  0.3113  0.1895 -0.0794
  187MOL0     C25683  11.352   7.182   4.424 -0.0344  1.1268 -0.6717
  187MOL0     C25684  11.489   7.180   4.362 -0.3406  0.3264  0.3751
  187MOL0     N25685  11.579   7.287   4.405 -1.6505  0.1391 -0.1307
  187MOL0     C25686  11.712   7.278   4.443 -1.4918  0.3627 -0.0435
  187MOL0     C25687  11.754   7.408   4.458 -0.4871 -0.0166 -0.3686
  187MOL0     C25688  11.891   7.471   4.504 -0.1146  0.6661 -0.7329
  187MOL0     C25689  11.910   7.484   4.648 -0.0464 -0.1446  0.3291
  187MOL0     C25690  12.042   7.561   4.691 -0.6247 -0.1764 -0.1776
  187MOL0     C25691  12.166   7.479   4.652 -1.1207 -0.4400 -0.3877
  187MOL0     O25692  12.287   7.541   4.698 -0.5930  0.2432  0.3366
  187MOL0     C25693  12.403   7.457   4.692  0.4362  0.2705  0.7370
  187MOL0     C25694  12.494   7.458   4.795 -0.1772  0.3818 -0.2937
  187MOL0     C25695  12.600   7.366   4.798  0.1406 -0.2304 -0.4145
  187MOL0     C25696  12.705   7.360   4.899 -0.5903 -0.1490 -1.0287
  187MOL0     C25697  12.614   7.282   4.691  0.1991  1.0583 -0.4270
  187MOL0     C25698  12.713   7.172   4.669 -0.7690 -0.3868  0.1434
  187MOL0     O25699  12.837   7.185   4.719  0.1407 -0.2471  0.1799
  187MOL0     C25700  12.907   7.069   4.744 -0.5798 -0.1842 -0.0581
  187MOL0     C25701  12.924   6.960   4.662 -0.2173  0.1552 -0.5192
  187MOL0     C25702  12.991   6.839   4.706  0.4586 -0.4417  0.4826
  187MOL0     C25703  13.041   6.829   4.837 -0.2678 -0.3619  0.3335
  187MOL0     O25704  13.106   6.726   4.895  0.3148  0.1218 -0.3460
  187MOL0     C25705  13.129   6.609   4.822  0.2208  1.1204 -0.1098
  187MOL0     C25706  13.029   6.500   4.879  0.0783  1.0013  0.4071
  187MOL0     C25707  13.014   6.374   4.788  0.6621 -0.5668  0.1555
  187MOL0     C25708  12.907   6.272   4.854  0.8117 -0.6220 -0.0347
  187MOL0     C25709  12.969   6.180   4.961  0.7776  0.3501  1.0561
  187MOL0     C25710  12.873   6.059   4.995  0.7684  0.4953 -0.6080
  187MOL0     C25711  12.939   5.974   5.093 -0.7927 -0.7060 -0.5913
  187MOL0     C25712  12.842   5.876   5.142 -0.2374 -0.6625  0.5598
  187MOL0    Cl25713  12.912   5.760   5.239 -0.1997 -0.0739  0.1306
  187MOL0     C25714  13.038   6.949   4.907 -0.5191  0.4799  0.7044
  187MOL0     C25715  12.981   7.062   4.867  0.2820 -0.1700 -0.0133
  187MOL0     O25716  12.673   7.074   4.606  0.1043 -0.5900 -0.0957
  187MOL0     C25717  12.541   7.312   4.573  0.0684  0.6350 -0.2567
  187MOL0     C25718  12.427   7.379   4.583  0.6330 -0.6106 -0.4339
  187MOL0     N25719  11.644   7.496   4.429 -0.3108  0.5222 -0.1194
  187MOL0     N25720  11.539   7.419   4.401  0.4132  0.0757 -0.1284
  187MOL0     C25721  10.890   7.092   3.580  0.1853  0.9190  0.2965
  187MOL0     C25722  10.949   7.169   3.483 -0.2870  0.0732  0.5649
  187MOL0     C25723  11.144   7.529   3.296  0.5977 -0.3792  0.4785
  187MOL0     C25724  11.154   7.655   3.355  0.1521 -1.2463 -0.0641
  187MOL0     C25725  11.232   7.756   3.298  0.2745  0.8049  0.6302
  187MOL0     C25726  11.301   7.728   3.178 -0.5958  0.1917  0.5538
  187MOL0     O25727  11.375   7.830   3.118 -0.2169  0.8064  0.0607
  187MOL0     C25728  11.363   7.846   2.979 -1.1703  0.6191 -0.1331
  187MOL0     C25729  11.445   7.962   2.942 -0.2463 -0.0573  0.2030
  187MOL0     C25730  11.433   7.997   2.791 -0.4218  0.1640 -0.1344
  187MOL0     C25731  11.572   8.043   2.741  0.0372 -0.1023 -0.0594
  187MOL0     C25732  11.608   8.175   2.786 -0.1598  0.5243  0.6382
  187MOL0     C25733  11.664   8.284   2.806 -0.2755 -0.1261  0.1320
  187MOL0     C25734  11.278   7.610   3.106  0.8661  0.3061  0.1585
  187MOL0     C25735  11.199   7.508   3.168  0.4461  1.3155  0.7394
  187MOL0     C25736  11.162   7.385   3.083  0.3713 -0.1354 -0.3081
  187MOL0     H25737  11.250   7.241   3.636 -0.2128 -0.7181  3.5880
  187MOL0     H25738  11.142   7.081   3.794 -0.4613  0.6650  1.2171
  187MOL0     H25739  10.751   6.948   3.889  0.1410 -0.2868 -0.2450
  187MOL0     H25740  10.767   7.130   3.866  1.4671  1.0571 -1.1910
  187MOL0     H25741  10.804   7.098   4.100  1.3522  3.0565 -0.9993
  187MOL0     H25742  10.878   6.949   4.085 -0.0668  0.9938  2.1252
  187MOL0     H25743  11.082   7.054   3.978 -2.0269 -0.3596 -1.7097
  187MOL0     H25744  11.024   7.210   4.046  1.8370 -0.7255  0.0217
  187MOL0     H25745  10.981   7.112   4.262 -0.5261  0.4183 -1.1991
  187MOL0     H25746  11.062   6.962   4.210 -0.7416 -0.3448 -3.3645
  187MOL0     H25747  11.168   7.234   4.245  0.1201 -0.1335  1.2722
  187MOL0     H25748  11.258   7.117   4.140  0.0168 -2.4612  0.3826
  187MOL0     H25749  11.178   7.043   4.416 -0.2102  0.0072 -0.8977
  187MOL0     H25750  11.315   6.981   4.330  0.2165  0.8802 -3.2008
  187MOL0     H25751  11.365   7.170   4.532  0.5664  2.6136 -0.5551
  187MOL0     H25752  11.303   7.279   4.415  0.9475  1.5911 -1.1726
  187MOL0     H25753  11.539   7.084   4.379 -2.7981 -1.0900  0.1246
  187MOL0     H25754  11.480   7.192   4.253 -1.6403  0.0920  0.4442
  187MOL0     H25755  11.773   7.190   4.460  0.2502  1.5007 -0.2082
  187MOL0     H25756  11.895   7.565   4.448  0.5775  1.0544 -0.0481
  187MOL0     H25757  11.969   7.401   4.473 -0.5784 -0.6306  0.8836
  187MOL0     H25758  11.829   7.541   4.694  0.6879  3.4121 -2.3517
  187MOL0     H25759  11.887   7.388   4.695 -0.3569  0.3388  1.1903
  187MOL0     H25760  12.042   7.660   4.646  0.0833 -0.1794 -0.1975
  187MOL0     H25761  12.040   7.563   4.801 -1.5945  0.0926 -0.1994
  187MOL0     H25762  12.166   7.375   4.686  2.4954 -0.5610 -0.3636
  187MOL0     H25763  12.171   7.468   4.543 -3.9846 -2.5498 -0.4081
  187MOL0     H25764  12.486   7.525   4.881  0.9375  2.4096 -1.6885
  187MOL0     H25765  12.671   7.401   4.995 -0.8460 -1.2394 -0.6415
  187MOL0     H25766  12.801   7.401   4.868  0.8317 -0.8943  2.0141
  187MOL0     H25767  12.724   7.254   4.920 -1.5103 -0.5478 -2.0954
  187MOL0     H25768  12.892   6.944   4.559  0.8883 -0.3664 -0.7949
  187MOL0     H25769  12.994   6.754   4.639  1.4548 -2.1982  2.6460
  187MOL0     H25770  13.128   6.621   4.713  2.1567  0.5398 -0.2367
  187MOL0     H25771  13.230   6.575   4.846  0.0654  0.8488  0.1665
  187MOL0     H25772  13.070   6.464   4.974 -1.8140  1.2523  1.3751
  187MOL0     H25773  12.932   6.545   4.904 -1.7236 -2.0696 -0.4995
  187MOL0     H25774  13.113   6.329   4.777  1.5042  0.5976  2.2692
  187MOL0     H25775  12.978   6.408   4.691 -2.2750 -0.4401  1.1764
  187MOL0     H25776  12.847   6.225   4.775  0.2217 -0.9068  0.5684
  187MOL0     H25777  12.828   6.320   4.912  0.7552 -1.5754  0.7113
  187MOL0     H25778  13.071   6.146   4.940 -0.2146 -0.3222 -3.5544
  187MOL0     H25779  12.980   6.239   5.053 -1.7742  2.1989  0.3149
  187MOL0     H25780  12.847   6.000   4.907 -6.5136  4.0020 -1.5765
  187MOL0     H25781  12.780   6.099   5.038  2.0963  0.2795  2.7775
  187MOL0     H25782  12.955   6.031   5.184 -1.5805 -2.6923  0.8683
  187MOL0     H25783  13.030   5.934   5.047  1.1504  2.4406  0.2161
  187MOL0     H25784  12.803   5.831   5.050  0.4235 -2.7000  1.2177
  187MOL0     H25785  12.763   5.933   5.191  2.3113  4.6629 -0.7030
  187MOL0     H25786  13.078   6.944   5.008  0.0779 -2.0215  0.4281
  187MOL0     H25787  13.004   7.149   4.928 -0.8886  0.3811 -0.3313
  187MOL0     H25788  12.562   7.277   4.472  0.2919  0.4874 -0.1598
  187MOL0     H25789  12.354   7.376   4.503 -1.6967 -4.1601  1.5839
  187MOL0     H25790  10.794   7.043   3.564 -0.5777  2.2507  0.6788
  187MOL0     H25791  10.888   7.183   3.394  0.0240 -2.7543 -0.1782
  187MOL0     H25792  11.104   7.685   3.447  3.3554  1.5212  0.9760
  187MOL0     H25793  11.235   7.854   3.344 -0.7017 -0.5440  3.8455
  187MOL0     H25794  11.399   7.763   2.918 -2.6373  1.3189 -2.0844
  187MOL0     H25795  11.257   7.857   2.953 -1.5636  1.4396  1.6632
  187MOL0     H25796  11.549   7.942   2.970 -0.5934 -1.7369  0.3781
  187MOL0     H25797  11.406   8.048   2.998  2.3542  1.6890 -0.4578
  187MOL0     H25798  11.405   7.907   2.735 -2.9523  0.6394  0.2345
  187MOL0     H25799  11.353   8.065   2.758 -0.9990 -1.6577 -2.8382
  187MOL0     H25800  11.577   8.052   2.632 -2.0159 -2.7881 -0.4817
  187MOL0     H25801  11.656   7.979   2.767  0.7964 -0.3721 -2.8220
  187MOL0     H25802  11.731   8.368   2.808  0.5777 -0.8070  0.7839
  187MOL0     H25803  11.314   7.581   3.008  0.4560 -0.5467  0.2436
  187MOL0     H25804  11.202   7.297   3.134  1.5469  0.3062 -0.4364
  187MOL0     H25805  11.053   7.384   3.090  0.4500 -0.1828  1.4172
  187MOL0     H25806  11.204   7.390   2.982 -0.4274 -1.4122 -0.7194
  188MOL0     O25807  10.644   4.297   5.876  0.5747  0.3386 -0.1202
  188MOL0     C25808  10.677   4.371   5.978  0.1288 -0.4852  0.2769
  188MOL0     O25809  10.596   4.460   6.042 -0.0199  1.0896  0.4273
  188MOL0     C25810  10.470   4.490   5.993 -0.1682 -0.0894  0.9193
  188MOL0     C25811  10.440   4.513   5.853 -0.6502 -0.5911  0.7346
  188MOL0     C25812  10.319   4.555   5.813  0.3299 -0.3455 -0.8001
  188MOL0     C25813  10.216   4.577   5.900 -1.1277  0.4407 -0.7394
  188MOL0     O25814  10.095   4.612   5.837 -0.2687 -0.0153  0.0174
  188MOL0     C25815  10.015   4.701   5.900 -0.1817  1.0555 -0.4837
  188MOL0     C25816   9.914   4.747   5.791 -0.3653 -0.8035 -0.0893
  188MOL0     C25817   9.821   4.637   5.732 -0.3065 -0.6457 -0.4244
  188MOL0     C25818   9.759   4.537   5.835  0.8952 -1.4232 -0.2174
  188MOL0     C25819   9.637   4.467   5.783 -0.3927 -0.5218  0.4411
  188MOL0     C25820   9.668   4.382   5.665  0.0135 -0.2476 -0.7078
  188MOL0     C25821   9.538   4.319   5.608 -1.1007  0.0555 -0.5366
  188MOL0     C25822   9.464   4.407   5.514 -0.8259  0.4901  0.0203
  188MOL0     N25823   9.368   4.318   5.446 -0.4778  0.1562  0.9442
  188MOL0     C25824   9.266   4.250   5.506 -0.4123  0.4002 -0.1402
  188MOL0     C25825   9.194   4.203   5.395 -1.0309  0.4175 -0.5132
  188MOL0     C25826   9.066   4.121   5.390  0.2952  0.3411  0.0977
  188MOL0     C25827   9.099   3.970   5.393 -0.3019  0.4511 -0.2329
  188MOL0     C25828   9.104   3.910   5.528 -0.2353  0.2549  0.1597
  188MOL0     C25829   9.111   3.760   5.538 -0.8692  0.0256  0.2131
  188MOL0     O25830   9.234   3.714   5.481 -0.4000  0.4027 -0.3006
  188MOL0     C25831   9.269   3.581   5.478  0.2773  0.0564  1.0435
  188MOL0     C25832   9.185   3.476   5.513  0.2514 -0.7776  0.7342
  188MOL0     C25833   9.215   3.341   5.498 -0.4144  0.2673 -0.4467
  188MOL0     C25834   9.121   3.242   5.570 -0.4558 -0.3845  0.7003
  188MOL0     C25835   9.338   3.308   5.431  0.6333  0.1101  0.0171
  188MOL0     C25836   9.371   3.166   5.411  0.3963  0.4102  0.6632
  188MOL0     O25837   9.504   3.135   5.415 -0.4278 -0.8320  0.4027
  188MOL0     C25838   9.549   3.026   5.351  0.4444  0.4728  0.4997
  188MOL0     C25839   9.595   2.920   5.430  0.8538  0.1123 -0.6662
  188MOL0     C25840   9.635   2.805   5.363 -0.0145 -0.3222 -1.3629
  188MOL0     C25841   9.630   2.798   5.229  0.4166  0.1339 -0.3528
  188MOL0     O25842   9.677   2.681   5.177  0.2499  0.1649 -0.1455
  188MOL0     C25843   9.644   2.635   5.050 -0.8814 -0.0001 -0.2947
  188MOL0     C25844   9.757   2.531   4.999 -0.5331 -0.8201 -0.4533
  188MOL0     C25845   9.729   2.474   4.858  0.7427  0.3719 -0.5187
  188MOL0     C25846   9.841   2.392   4.813 -0.2428 -0.0764  0.6844
  188MOL0     C25847   9.897   2.281   4.899 -0.0088 -0.1169  0.0039
  188MOL0     C25848  10.009   2.208   4.837  0.0750 -0.2825  0.4480
  188MOL0     C25849  10.015   2.068   4.892  0.3190 -0.1846  0.8277
  188MOL0     C25850  10.014   2.064   5.042  0.4595  0.1878 -0.3021
  188MOL0    Cl25851  10.126   2.186   5.119 -0.0035  0.3163 -0.2641
  188MOL0     C25852   9.600   2.909   5.145  0.2781  0.2454  0.6914
  188MOL0     C25853   9.552   3.022   5.208 -1.0262  0.5198 -0.3458
  188MOL0     O25854   9.280   3.081   5.388 -0.4061 -0.8483 -0.2197
  188MOL0     C25855   9.432   3.410   5.393  0.0276  0.4574  0.6098
  188MOL0     C25856   9.395   3.543   5.417  0.7125 -0.7066 -0.3410
  188MOL0     N25857   9.258   4.243   5.278  0.0490 -0.9241 -0.8900
  188MOL0     N25858   9.356   4.317   5.309 -0.3075 -0.0295 -0.2599
  188MOL0     C25859  10.234   4.563   6.039  0.1252 -1.1683  0.3331
  188MOL0     C25860  10.368   4.518   6.080  0.1701 -1.0878 -0.2801
  188MOL0     C25861  10.810   4.351   6.030 -0.0818 -0.3851 -0.2872
  188MOL0     C25862  10.870   4.221   6.021 -0.2132 -0.4817 -0.2217
  188MOL0     C25863  10.997   4.183   6.087 -0.5481 -0.7744  0.1475
  188MOL0     C25864  11.082   4.294   6.130 -0.0073 -0.0084 -0.7220
  188MOL0     O25865  11.205   4.265   6.174 -0.2848 -0.5446  0.1529
  188MOL0     C25866  11.287   4.376   6.224 -0.4251 -0.9731  0.3235
  188MOL0     C25867  11.410   4.300   6.275 -0.9321  0.2012  0.2725
  188MOL0     C25868  11.533   4.389   6.298 -0.7142  0.1313 -0.2695
  188MOL0     C25869  11.527   4.478   6.426 -0.1771 -0.6858  0.3879
  188MOL0     C25870  11.514   4.408   6.548  0.0420 -0.2940 -0.5791
  188MOL0     C25871  11.489   4.352   6.653  0.6207  0.3236 -0.5620
  188MOL0     C25872  11.021   4.423   6.139  0.5492  1.6329  0.3229
  188MOL0     C25873  10.884   4.445   6.097 -0.2153  0.1580  0.7621
  188MOL0     C25874  10.836   4.581   6.128  0.2157  0.4235  0.3036
  188MOL0     H25875  10.514   4.513   5.774 -0.4449 -2.3851  0.8852
  188MOL0     H25876  10.313   4.573   5.707  2.0230 -1.9822 -1.2240
  188MOL0     H25877  10.076   4.787   5.930 -3.0306  3.1767 -0.3182
  188MOL0     H25878   9.955   4.661   5.982 -0.0636 -0.8624 -1.2949
  188MOL0     H25879   9.861   4.838   5.821  1.9079  1.4296 -2.2550
  188MOL0     H25880   9.966   4.785   5.702 -1.1284  2.3554  0.7045
  188MOL0     H25881   9.734   4.688   5.689  0.4290  3.1073  2.0709
  188MOL0     H25882   9.873   4.592   5.647 -0.7637 -0.7559 -0.6506
  188MOL0     H25883   9.831   4.460   5.867  0.2863 -2.1263 -0.5248
  188MOL0     H25884   9.730   4.575   5.934 -0.1697 -3.8833  0.4946
  188MOL0     H25885   9.557   4.535   5.750  0.8084  0.4123 -0.6512
  188MOL0     H25886   9.602   4.396   5.859 -0.4702 -1.1677 -0.1798
  188MOL0     H25887   9.718   4.430   5.581 -0.1711 -1.5164 -1.5821
  188MOL0     H25888   9.741   4.305   5.691 -0.2683  0.0807  1.1659
  188MOL0     H25889   9.486   4.288   5.699  2.1732  1.6626  2.0909
  188MOL0     H25890   9.573   4.233   5.550  0.2989  0.2683 -0.0367
  188MOL0     H25891   9.405   4.480   5.570 -0.5104 -0.6126  1.8860
  188MOL0     H25892   9.527   4.456   5.440 -0.3424  0.0707  0.1498
  188MOL0     H25893   9.248   4.233   5.611  0.2054 -2.0655 -0.3543
  188MOL0     H25894   9.016   4.133   5.294  1.2471 -4.4615 -1.2682
  188MOL0     H25895   9.005   4.152   5.475  1.2739  0.4099  0.7925
  188MOL0     H25896   9.019   3.916   5.343 -0.2783  0.4569 -0.2763
  188MOL0     H25897   9.190   3.939   5.340 -0.7643 -0.7535 -0.3582
  188MOL0     H25898   9.186   3.957   5.585  0.9319  0.9244 -1.9746
  188MOL0     H25899   9.002   3.932   5.560  0.0650  2.2485 -0.0975
  188MOL0     H25900   9.115   3.731   5.643  1.2957  1.7566  0.6757
  188MOL0     H25901   9.026   3.709   5.492  1.3560 -0.6289 -3.7078
  188MOL0     H25902   9.088   3.499   5.557 -0.6226  3.5565 -2.7403
  188MOL0     H25903   9.089   3.170   5.494  0.9872 -1.2866  0.8980
  188MOL0     H25904   9.033   3.297   5.603 -0.6639 -1.0489  1.2666
  188MOL0     H25905   9.171   3.209   5.661 -0.7379 -0.1205  0.9532
  188MOL0     H25906   9.586   2.922   5.539 -1.2401  1.7176 -0.8162
  188MOL0     H25907   9.679   2.723   5.420  1.4084  2.2641  1.5544
  188MOL0     H25908   9.549   2.580   5.049  1.0026 -3.6035 -0.4064
  188MOL0     H25909   9.638   2.719   4.981 -2.0631  0.8725  0.8293
  188MOL0     H25910   9.855   2.580   5.002 -0.1036 -1.6675 -0.4755
  188MOL0     H25911   9.769   2.454   5.076  3.2761 -2.3500 -2.3219
  188MOL0     H25912   9.703   2.546   4.779 -1.4839 -3.0602 -3.1907
  188MOL0     H25913   9.643   2.408   4.860  0.7950  0.2456 -1.6506
  188MOL0     H25914   9.929   2.449   4.783  0.1479 -0.3161  1.3476
  188MOL0     H25915   9.802   2.348   4.720  0.8568  0.3184  0.0181
  188MOL0     H25916   9.947   2.332   4.982  2.3544 -1.4000 -0.5503
  188MOL0     H25917   9.808   2.226   4.932  1.6807 -1.8202  2.0240
  188MOL0     H25918  10.112   2.245   4.837  0.2279 -0.6739  1.1500
  188MOL0     H25919   9.987   2.201   4.730 -1.1031 -1.0410  0.7251
  188MOL0     H25920  10.106   2.019   4.858 -2.0566 -2.4055 -3.2296
  188MOL0     H25921   9.935   2.004   4.852  1.8111 -3.1137  2.2722
  188MOL0     H25922  10.031   1.960   5.073  0.1249 -1.3965 -4.7644
  188MOL0     H25923   9.913   2.085   5.079 -0.6620  0.6330 -3.3568
  188MOL0     H25924   9.601   2.913   5.037  0.3863 -0.1312  0.6772
  188MOL0     H25925   9.518   3.111   5.156 -1.2921  0.8501  0.3806
  188MOL0     H25926   9.525   3.389   5.341 -1.4791 -1.7278 -1.4297
  188MOL0     H25927   9.456   3.629   5.393 -2.4634  1.8953  0.1675
  188MOL0     H25928  10.157   4.581   6.113  0.1693  1.1482 -0.1141
  188MOL0     H25929  10.390   4.514   6.187 -0.3818 -4.0115 -0.2109
  188MOL0     H25930  10.820   4.133   5.983  2.1550 -2.1003  0.2349
  188MOL0     H25931  11.035   4.082   6.082  1.0972 -0.1187 -2.0685
  188MOL0     H25932  11.297   4.437   6.134 -5.4589  2.8206  1.9451
  188MOL0     H25933  11.237   4.437   6.300 -0.8275  0.2658 -0.9035
  188MOL0     H25934  11.442   4.219   6.209 -0.0929 -0.2266  1.1690
  188MOL0     H25935  11.380   4.252   6.368  0.2856 -2.5240 -0.6371
  188MOL0     H25936  11.626   4.333   6.314 -0.7624  0.1252 -0.0191
  188MOL0     H25937  11.558   4.447   6.209 -0.5510  1.3766  0.5670
  188MOL0     H25938  11.445   4.551   6.426  2.9705  3.2350 -1.2351
  188MOL0     H25939  11.615   4.542   6.434 -0.8586  0.4751 -1.0614
  188MOL0     H25940  11.474   4.308   6.749  1.7554  1.0169 -0.0502
  188MOL0     H25941  11.071   4.505   6.189  1.0476  1.0343  0.8253
  188MOL0     H25942  10.926   4.629   6.169  2.3539 -0.8025 -2.5728
  188MOL0     H25943  10.803   4.632   6.037 -0.4827 -1.4301 -0.5333
  188MOL0     H25944  10.750   4.581   6.195 -0.5525 -0.1708 -0.6613
  189MOL0     O25945   2.186   4.021   8.492 -0.8337 -0.7459  0.4256
  189MOL0     C25946   2.087   4.055   8.555  0.4832 -0.1848  0.5704
  189MOL0     O25947   1.973   4.109   8.509 -0.0364  0.3980  0.0940
  189MOL0     C25948   1.970   4.206   8.412  0.5289  0.2966 -0.4129
  189MOL0     C25949   1.841   4.239   8.356  0.2577 -0.0240 -0.0513
  189MOL0     C25950   1.826   4.352   8.264 -0.6500  0.1307  0.5820
  189MOL0     C25951   1.929   4.444   8.247  0.0362  0.0022  0.1397
  189MOL0     O25952   1.927   4.567   8.178  0.3405 -0.2839 -0.4503
  189MOL0     C25953   1.853   4.568   8.058  0.2041  0.1122  0.0224
  189MOL0     C25954   1.892   4.695   7.988 -0.1741 -0.7560  0.8621
  189MOL0     C25955   1.807   4.810   8.046 -0.0800 -0.4079  0.5397
  189MOL0     C25956   1.841   4.951   7.991 -0.4251  0.2562  0.6315
  189MOL0     C25957   1.831   4.947   7.840 -1.0906 -0.6743  0.5811
  189MOL0     C25958   1.866   5.091   7.781 -0.3655 -0.3008 -0.2374
  189MOL0     C25959   1.806   5.113   7.634  0.0524  0.8719  0.5552
  189MOL0     C25960   1.912   5.193   7.553  0.3063  0.4698  0.4966
  189MOL0     N25961   1.846   5.262   7.439  0.3577  0.3938  0.0580
  189MOL0     C25962   1.814   5.392   7.456 -0.3428 -0.2562 -0.4903
  189MOL0     C25963   1.815   5.448   7.339  0.8119  0.1553 -0.2892
  189MOL0     C25964   1.809   5.603   7.315 -0.0670  0.2785  0.1790
  189MOL0     C25965   1.948   5.666   7.298  0.1536 -0.4359  0.3837
  189MOL0     C25966   2.042   5.651   7.406 -1.0908  0.6772 -0.6687
  189MOL0     C25967   2.159   5.747   7.387 -0.6579 -0.5063  0.2529
  189MOL0     O25968   2.256   5.744   7.493  0.1297 -0.2472 -0.2763
  189MOL0     C25969   2.358   5.833   7.511  0.1938 -0.1845  0.1575
  189MOL0     C25970   2.427   5.830   7.637 -0.1890  0.2924 -0.3280
  189MOL0     C25971   2.529   5.914   7.671  0.0996 -0.0850  0.3000
  189MOL0     C25972   2.612   5.890   7.791  0.3966  0.4384  0.0168
  189MOL0     C25973   2.566   6.015   7.577 -0.1291 -0.8347  0.4824
  189MOL0     C25974   2.675   6.108   7.603 -0.1029  0.1306 -0.3746
  189MOL0     O25975   2.733   6.176   7.490  0.2736 -0.1971 -0.8328
  189MOL0     C25976   2.806   6.294   7.508 -0.6827 -0.0129  0.1705
  189MOL0     C25977   2.740   6.418   7.508  0.1133  0.5448  0.4087
  189MOL0     C25978   2.818   6.535   7.500  0.1839 -0.2916 -0.1010
  189MOL0     C25979   2.952   6.540   7.491  0.4822  1.1372  0.5728
  189MOL0     O25980   3.017   6.654   7.497 -0.6211  0.2155  0.2513
  189MOL0     C25981   2.956   6.766   7.429  0.1346 -1.0590 -0.1307
  189MOL0     C25982   3.049   6.828   7.319  0.1455  0.2720  0.0014
  189MOL0     C25983   3.006   6.953   7.254  0.0088  0.6499 -0.2326
  189MOL0     C25984   2.910   6.931   7.144  0.8580  0.2252 -0.1305
  189MOL0     C25985   2.801   7.040   7.125 -0.2748  0.2311 -0.1394
  189MOL0     C25986   2.836   7.185   7.084 -0.1005 -0.1316  0.4990
  189MOL0     C25987   2.717   7.283   7.084  0.4524 -0.7212  0.5981
  189MOL0     C25988   2.758   7.413   7.018 -1.4201  0.4146  0.0992
  189MOL0    Cl25989   2.805   7.395   6.853 -0.0043 -0.0990 -0.2619
  189MOL0     C25990   3.020   6.417   7.495  0.0812  0.5418 -0.4301
  189MOL0     C25991   2.952   6.297   7.515  0.1395  0.3438 -0.1382
  189MOL0     O25992   2.719   6.142   7.715 -0.7453  0.6116  0.2678
  189MOL0     C25993   2.495   6.017   7.454  0.3783 -0.1571 -0.0650
  189MOL0     C25994   2.395   5.922   7.420 -0.6411 -0.8398  0.1452
  189MOL0     N25995   1.849   5.354   7.241  0.5347 -0.8827  1.0879
  189MOL0     N25996   1.870   5.242   7.305  0.4721 -0.1545 -1.6019
  189MOL0     C25997   2.052   4.407   8.306  0.5298  0.3140 -0.1807
  189MOL0     C25998   2.074   4.297   8.388 -0.3378 -0.0863  1.3633
  189MOL0     C25999   2.089   4.006   8.701  0.3384 -0.5084 -0.6455
  189MOL0     C26000   2.208   4.017   8.773  0.7150 -0.4481  0.3593
  189MOL0     C26001   2.220   3.965   8.898 -0.3380  0.9822 -0.3966
  189MOL0     C26002   2.118   3.884   8.958  0.9484 -0.0608  1.0183
  189MOL0     O26003   2.153   3.830   9.078  0.7507  0.2701  0.3247
  189MOL0     C26004   2.066   3.734   9.144  0.5481 -0.6457 -0.9038
  189MOL0     C26005   2.161   3.622   9.187  0.0546  0.2923  0.9978
  189MOL0     C26006   2.097   3.501   9.240  0.8562 -0.2403 -0.2807
  189MOL0     C26007   2.201   3.383   9.266  0.2752  0.2771 -0.3112
  189MOL0     C26008   2.137   3.256   9.302 -0.3800 -0.0203  0.2162
  189MOL0     C26009   2.061   3.173   9.339 -0.2984  0.8247 -0.1210
  189MOL0     C26010   1.994   3.877   8.886 -0.2064  0.6407 -0.1579
  189MOL0     C26011   1.986   3.927   8.756 -0.3703 -0.2075  0.0925
  189MOL0     C26012   1.861   3.887   8.684 -0.1366  0.5578 -0.1328
  189MOL0     H26013   1.757   4.171   8.368 -1.3003  1.4887 -1.8403
  189MOL0     H26014   1.730   4.370   8.218  0.4706  1.0723 -1.5239
  189MOL0     H26015   1.748   4.573   8.090  0.0285  2.2217 -0.7390
  189MOL0     H26016   1.878   4.474   8.007 -0.0910 -1.1186  2.0347
  189MOL0     H26017   1.994   4.722   8.013  0.1911  0.3575 -1.5675
  189MOL0     H26018   1.872   4.680   7.881 -4.1201  2.5934  0.8867
  189MOL0     H26019   1.703   4.787   8.020  0.7183 -5.0689  0.7077
  189MOL0     H26020   1.815   4.809   8.155 -2.4848  3.2910  0.9448
  189MOL0     H26021   1.780   5.032   8.031  0.3060  1.9858 -1.5681
  189MOL0     H26022   1.944   4.976   8.019 -0.4344  3.5208 -1.6646
  189MOL0     H26023   1.733   4.909   7.809 -0.7770 -1.4650  0.5466
  189MOL0     H26024   1.911   4.883   7.803 -0.7823 -1.3877  2.3668
  189MOL0     H26025   1.829   5.175   7.841  1.1538  1.3557 -1.5152
  189MOL0     H26026   1.975   5.090   7.787 -0.4196 -0.2586  1.0094
  189MOL0     H26027   1.711   5.166   7.641  0.9846  2.4270  2.1083
  189MOL0     H26028   1.805   5.015   7.585  3.8558 -0.6233  3.0456
  189MOL0     H26029   1.951   5.275   7.614 -2.7161  4.1033 -1.9373
  189MOL0     H26030   1.988   5.134   7.502 -1.5644 -1.6428 -0.0284
  189MOL0     H26031   1.785   5.439   7.550 -0.5557 -1.4878  0.0753
  189MOL0     H26032   1.768   5.658   7.400 -2.1206 -0.7698 -0.0703
  189MOL0     H26033   1.753   5.626   7.224  2.1139 -0.6476 -1.4969
  189MOL0     H26034   1.991   5.609   7.215  0.7063 -1.2584  1.2217
  189MOL0     H26035   1.943   5.769   7.262  2.0348 -0.0706  1.0636
  189MOL0     H26036   1.997   5.669   7.504  1.0375  0.8479  0.3323
  189MOL0     H26037   2.081   5.548   7.409  0.6647  1.3210 -0.4505
  189MOL0     H26038   2.197   5.721   7.288 -0.9841  5.4279 -1.8275
  189MOL0     H26039   2.130   5.848   7.358 -1.8119 -1.1853 -1.0780
  189MOL0     H26040   2.395   5.756   7.710 -0.1881  1.5504  0.9993
  189MOL0     H26041   2.570   5.963   7.861 -2.0504 -0.6409 -0.2242
  189MOL0     H26042   2.715   5.910   7.763  0.0288 -0.3139 -2.0329
  189MOL0     H26043   2.608   5.790   7.835 -1.3585  1.1679  1.6979
  189MOL0     H26044   2.633   6.403   7.509  0.1077  0.1384 -1.6695
  189MOL0     H26045   2.772   6.633   7.500  1.0383  0.1820 -2.3237
  189MOL0     H26046   2.867   6.747   7.369  1.0468 -3.0264 -0.9487
  189MOL0     H26047   2.928   6.840   7.505 -0.7213 -0.7353 -0.7491
  189MOL0     H26048   3.144   6.837   7.373 -0.1345  0.9028  0.3906
  189MOL0     H26049   3.068   6.753   7.241  2.7689 -2.3660  2.9214
  189MOL0     H26050   3.096   7.010   7.231  0.6917  0.4453  1.7099
  189MOL0     H26051   2.954   7.015   7.329 -3.6612 -1.0612 -1.1141
  189MOL0     H26052   2.864   6.831   7.143 -1.8216  1.2243 -4.4503
  189MOL0     H26053   2.972   6.926   7.054  3.4790 -0.3151  1.5936
  189MOL0     H26054   2.727   7.009   7.051 -2.1000  0.3187  1.5680
  189MOL0     H26055   2.747   7.053   7.220 -0.1460 -0.8497  0.0877
  189MOL0     H26056   2.868   7.177   6.980  2.8913  1.4475  1.1810
  189MOL0     H26057   2.921   7.227   7.138  0.9041  0.6314 -1.5690
  189MOL0     H26058   2.692   7.312   7.187 -1.7422  2.3031 -0.6506
  189MOL0     H26059   2.629   7.243   7.033 -1.8723  2.1474  2.1007
  189MOL0     H26060   2.850   7.453   7.060 -1.0666 -1.1497  0.9023
  189MOL0     H26061   2.673   7.480   7.035  0.2567  2.1966  1.9820
  189MOL0     H26062   3.128   6.426   7.489  0.3737 -1.5650  0.8061
  189MOL0     H26063   2.998   6.199   7.524 -2.0407 -0.8782 -1.5416
  189MOL0     H26064   2.532   6.084   7.377  0.0897 -1.1738 -1.1078
  189MOL0     H26065   2.356   5.923   7.319 -0.0624  0.1106 -0.0839
  189MOL0     H26066   2.126   4.487   8.299  0.0530  0.8906  1.0587
  189MOL0     H26067   2.172   4.276   8.430  1.1282  0.7498 -1.3549
  189MOL0     H26068   2.300   4.057   8.730  1.2267 -0.7567  1.1255
  189MOL0     H26069   2.314   3.965   8.952 -1.4933 -0.6088  1.7239
  189MOL0     H26070   2.011   3.770   9.231  2.3727 -1.4479  0.6447
  189MOL0     H26071   2.001   3.690   9.068 -2.5617  1.2256  0.5039
  189MOL0     H26072   2.226   3.661   9.267  0.1388  2.0265  0.1197
  189MOL0     H26073   2.217   3.602   9.095  1.7505  2.5428  1.4499
  189MOL0     H26074   2.042   3.525   9.332  0.8255 -1.6855  0.1102
  189MOL0     H26075   2.022   3.460   9.172  1.7010 -1.6803 -0.3873
  189MOL0     H26076   2.261   3.423   9.349 -1.6148  4.6345 -0.8114
  189MOL0     H26077   2.261   3.355   9.179  0.5238  0.9760 -0.3708
  189MOL0     H26078   1.986   3.102   9.366  1.8335 -2.4282 -2.1081
  189MOL0     H26079   1.907   3.828   8.927  1.4946 -1.4440  1.1532
  189MOL0     H26080   1.800   3.814   8.738 -0.6753 -2.4357 -4.2830
  189MOL0     H26081   1.798   3.973   8.662 -1.1186 -0.5755 -1.9945
  189MOL0     H26082   1.880   3.838   8.588  2.8464 -2.2492  1.6520
  190MOL0     O26083   7.036   6.780   2.666  0.7668 -0.1424  0.3697
  190MOL0     C26084   6.987   6.837   2.767 -0.6669  0.7049  0.6572
  190MOL0     O26085   6.977   6.974   2.774  0.5813 -0.7110 -0.8635
  190MOL0     C26086   7.019   7.037   2.665 -0.1373 -0.6327  0.2642
  190MOL0     C26087   6.926   7.069   2.567  0.9366 -0.1406 -0.2557
  190MOL0     C26088   6.962   7.122   2.442  1.3405  0.0089  0.2971
  190MOL0     C26089   7.097   7.141   2.414 -0.5303 -0.7373 -0.6045
  190MOL0     O26090   7.136   7.194   2.289  1.1720  1.1546 -0.0480
  190MOL0     C26091   7.225   7.305   2.284  0.3578  1.1360  0.0912
  190MOL0     C26092   7.236   7.367   2.150 -0.8585  0.6689  0.4655
  190MOL0     C26093   7.274   7.262   2.040 -0.7601  0.2161 -0.4458
  190MOL0     C26094   7.234   7.314   1.902 -0.1403  0.1864 -0.1322
  190MOL0     C26095   7.282   7.229   1.794 -0.3622  0.4764  0.5269
  190MOL0     C26096   7.194   7.110   1.762  0.7969 -0.7530  1.2672
  190MOL0     C26097   7.242   7.039   1.634 -0.5802  0.2222 -0.6173
  190MOL0     C26098   7.135   6.951   1.565 -0.2692 -0.2386 -0.1225
  190MOL0     N26099   7.134   6.810   1.625 -0.0587 -0.3970 -0.0264
  190MOL0     C26100   7.010   6.754   1.668 -0.3456  0.1318 -0.2071
  190MOL0     C26101   7.039   6.625   1.682  0.7015 -0.2835 -0.2533
  190MOL0     C26102   6.935   6.531   1.735  0.0133 -0.1224 -0.3469
  190MOL0     C26103   6.977   6.464   1.865 -0.4878  0.0992 -0.2178
  190MOL0     C26104   7.079   6.360   1.830 -0.2339  0.5444 -0.0394
  190MOL0     C26105   7.128   6.287   1.954  0.2006  0.3940 -0.6169
  190MOL0     O26106   7.015   6.228   2.014  0.0024  0.6842  0.3225
  190MOL0     C26107   7.013   6.106   2.061 -0.6880  0.6871 -1.2750
  190MOL0     C26108   6.890   6.066   2.105  0.0427 -0.1899 -0.1316
  190MOL0     C26109   6.858   5.946   2.167 -0.1468  1.2259  1.2125
  190MOL0     C26110   6.712   5.944   2.222 -0.3408  0.6319 -0.1035
  190MOL0     C26111   6.967   5.852   2.176 -0.6071 -0.1471  1.6305
  190MOL0     C26112   6.947   5.711   2.218 -0.6339  0.0708 -0.5743
  190MOL0     O26113   7.056   5.648   2.260  1.0853  0.9666 -0.1887
  190MOL0     C26114   7.053   5.514   2.305  0.1408  0.0397 -0.3397
  190MOL0     C26115   7.086   5.420   2.207 -0.3140 -0.3921  0.6929
  190MOL0     C26116   7.070   5.283   2.232  0.3836 -0.3664 -0.0743
  190MOL0     C26117   7.048   5.237   2.365  0.1493  0.6460  0.1258
  190MOL0     O26118   7.051   5.099   2.389  0.5516 -0.4468  0.4184
  190MOL0     C26119   6.960   5.056   2.490 -0.7302 -0.9048 -0.1591
  190MOL0     C26120   6.963   4.903   2.524 -0.3421 -0.8558 -0.6529
  190MOL0     C26121   6.863   4.855   2.629  1.0384 -0.6165  0.2705
  190MOL0     C26122   6.893   4.715   2.666  1.8786  1.0005  0.6837
  190MOL0     C26123   7.018   4.699   2.750 -0.0161 -0.0967  0.0807
  190MOL0     C26124   7.027   4.787   2.886  0.1481  0.0913  0.6707
  190MOL0     C26125   6.915   4.771   2.987  0.4168  0.1530  0.5542
  190MOL0     C26126   6.965   4.773   3.130  0.0759  0.7282  0.5152
  190MOL0    Cl26127   6.964   4.947   3.175  0.1803 -0.3618 -0.4996
  190MOL0     C26128   7.018   5.334   2.460  0.1954 -0.6951  0.0002
  190MOL0     C26129   7.031   5.470   2.435  1.0661  1.0088  0.9721
  190MOL0     O26130   6.831   5.661   2.230 -0.4224 -0.6161 -0.1630
  190MOL0     C26131   7.099   5.889   2.121  0.8256  0.0119 -0.4376
  190MOL0     C26132   7.120   6.015   2.068 -0.3979 -0.2422 -0.0069
  190MOL0     N26133   7.176   6.600   1.646  0.2510  0.6715  0.4001
  190MOL0     N26134   7.227   6.711   1.607  0.4011  0.0912 -0.2592
  190MOL0     C26135   7.197   7.098   2.504  0.9502 -0.2668  0.4144
  190MOL0     C26136   7.162   7.053   2.631 -0.1501  0.1601  0.9090
  190MOL0     C26137   6.928   6.759   2.884  0.8318  0.1998  0.9251
  190MOL0     C26138   6.877   6.834   2.988 -0.1438  0.9057  0.4169
  190MOL0     C26139   6.831   6.776   3.105  0.4990 -0.6074  0.0607
  190MOL0     C26140   6.840   6.633   3.122 -0.3060  0.0642  0.0689
  190MOL0     O26141   6.812   6.556   3.236  0.2527 -0.3934 -0.5769
  190MOL0     C26142   6.833   6.621   3.363 -0.5093  0.7591  0.2087
  190MOL0     C26143   6.768   6.530   3.474 -0.2472  0.0083 -0.3162
  190MOL0     C26144   6.613   6.556   3.503  0.1152  0.0046 -0.3447
  190MOL0     C26145   6.601   6.658   3.625  0.3835  0.5313 -0.2790
  190MOL0     C26146   6.479   6.673   3.701  0.2187 -0.2810 -0.7074
  190MOL0     C26147   6.390   6.696   3.774  0.7495  0.2155 -0.1310
  190MOL0     C26148   6.888   6.554   3.015 -0.0060  0.1275 -0.3863
  190MOL0     C26149   6.937   6.617   2.898  0.8869  0.1400 -0.2280
  190MOL0     C26150   7.030   6.533   2.816  0.2073  0.5151  0.7314
  190MOL0     H26151   6.823   7.055   2.598  0.1789  3.4083 -0.7111
  190MOL0     H26152   6.890   7.165   2.373  0.6456  0.3722  1.2345
  190MOL0     H26153   7.328   7.272   2.305  2.2870  3.4331 -4.3840
  190MOL0     H26154   7.194   7.382   2.355 -0.2773  1.0723 -0.1171
  190MOL0     H26155   7.135   7.405   2.131 -1.1348 -0.0074  0.5603
  190MOL0     H26156   7.305   7.452   2.154 -1.0368  0.7691  1.4506
  190MOL0     H26157   7.381   7.244   2.039 -0.5998  1.0762 -0.0717
  190MOL0     H26158   7.218   7.170   2.058 -1.5746  0.2849 -2.4103
  190MOL0     H26159   7.125   7.310   1.896 -0.1083 -2.2123  0.0843
  190MOL0     H26160   7.259   7.420   1.894 -1.2275  0.4882  0.2833
  190MOL0     H26161   7.381   7.192   1.822 -1.8669 -1.2735  4.1053
  190MOL0     H26162   7.303   7.285   1.702  1.3513 -1.1926 -0.1619
  190MOL0     H26163   7.196   7.051   1.854  0.7604 -0.4682  1.4529
  190MOL0     H26164   7.093   7.150   1.747  1.2957 -0.2863 -1.3368
  190MOL0     H26165   7.333   6.982   1.654 -0.0786  1.1449 -0.1820
  190MOL0     H26166   7.261   7.122   1.564  0.3769  1.3769  0.9481
  190MOL0     H26167   7.039   7.003   1.577  0.5555  1.5975 -1.0016
  190MOL0     H26168   7.157   6.947   1.458 -0.4417 -1.7094 -0.1201
  190MOL0     H26169   6.911   6.797   1.673 -0.2348  0.3034  3.5609
  190MOL0     H26170   6.906   6.457   1.660  0.3287 -0.4874 -0.1096
  190MOL0     H26171   6.842   6.587   1.750 -0.4894 -1.2239  0.8381
  190MOL0     H26172   7.027   6.542   1.924  3.9255 -2.0953 -0.6321
  190MOL0     H26173   6.888   6.437   1.921 -0.0964  0.1912  0.4679
  190MOL0     H26174   7.034   6.292   1.757 -0.4365 -0.4880  1.0019
  190MOL0     H26175   7.168   6.410   1.792  0.1557  2.8696  3.4353
  190MOL0     H26176   7.201   6.210   1.930 -0.1949 -1.1992  2.6559
  190MOL0     H26177   7.177   6.358   2.022 -2.7005 -0.3575  2.5650
  190MOL0     H26178   6.808   6.133   2.084 -0.6013 -0.8142  0.3466
  190MOL0     H26179   6.649   5.869   2.174 -0.8120  1.3750 -0.6823
  190MOL0     H26180   6.663   6.040   2.204 -0.7498  0.7228  1.3836
  190MOL0     H26181   6.718   5.927   2.330  1.7659 -3.6769 -0.7062
  190MOL0     H26182   7.099   5.452   2.104  2.5511 -0.2080  1.0310
  190MOL0     H26183   7.074   5.210   2.151 -0.5106  2.0105 -2.3877
  190MOL0     H26184   7.002   5.101   2.581 -0.2926  0.7629 -1.1528
  190MOL0     H26185   6.860   5.098   2.480  0.5627  3.6404  2.8436
  190MOL0     H26186   6.944   4.837   2.439  4.5889  1.0554 -3.6744
  190MOL0     H26187   7.056   4.872   2.573 -0.8608  0.3209  1.2150
  190MOL0     H26188   6.765   4.855   2.579  0.5054  1.8075  1.1735
  190MOL0     H26189   6.850   4.913   2.721 -0.9178 -2.7955  1.4700
  190MOL0     H26190   6.912   4.656   2.576 -1.5360  0.3993  0.2200
  190MOL0     H26191   6.809   4.673   2.721  0.4969  0.4755 -1.6668
  190MOL0     H26192   7.028   4.593   2.776 -0.0504 -0.2710 -0.6080
  190MOL0     H26193   7.103   4.727   2.687 -1.5423 -1.5887 -2.8241
  190MOL0     H26194   7.044   4.889   2.850  0.8593 -0.7875 -1.7045
  190MOL0     H26195   7.117   4.752   2.936 -0.6463  0.5871  2.5252
  190MOL0     H26196   6.867   4.673   2.971 -0.6891  0.2675  2.7040
  190MOL0     H26197   6.839   4.848   2.972 -0.3871 -0.5585  0.8457
  190MOL0     H26198   7.063   4.727   3.138 -1.1106 -1.7884  1.8363
  190MOL0     H26199   6.891   4.721   3.192  2.5340 -3.8434 -0.0338
  190MOL0     H26200   6.999   5.303   2.562  0.4003  0.9340  0.5531
  190MOL0     H26201   7.006   5.547   2.508 -3.0079  0.2166  0.6182
  190MOL0     H26202   7.180   5.817   2.127  2.1286  1.5085  0.6187
  190MOL0     H26203   7.224   6.028   2.042 -0.0991  0.3891  1.3847
  190MOL0     H26204   7.298   7.123   2.473  2.3498 -3.1959  2.1871
  190MOL0     H26205   7.245   7.030   2.697  0.9348 -0.8381 -0.7238
  190MOL0     H26206   6.858   6.940   2.971  1.4025  0.9088 -1.5766
  190MOL0     H26207   6.793   6.840   3.184 -1.3148 -0.4149 -0.9116
  190MOL0     H26208   6.941   6.620   3.379  0.0669  4.0776 -2.4895
  190MOL0     H26209   6.797   6.724   3.367 -0.1595  0.9508 -1.2461
  190MOL0     H26210   6.833   6.532   3.561  1.5984 -0.8877 -1.6202
  190MOL0     H26211   6.769   6.422   3.457  0.5911 -0.8490  4.0792
  190MOL0     H26212   6.565   6.604   3.417 -2.0585 -1.3024  0.0827
  190MOL0     H26213   6.567   6.464   3.541  4.1577 -2.3035 -0.4307
  190MOL0     H26214   6.630   6.760   3.598 -0.7523  2.6697  5.3043
  190MOL0     H26215   6.672   6.620   3.699  0.5696 -3.4796 -2.2160
  190MOL0     H26216   6.310   6.714   3.843  1.8673 -1.2096  1.6256
  190MOL0     H26217   6.892   6.449   3.042 -2.2840  0.4836  1.6497
  190MOL0     H26218   7.006   6.545   2.710 -1.9027  4.4828  1.4619
  190MOL0     H26219   7.137   6.552   2.830  0.8318 -1.2695 -0.9973
  190MOL0     H26220   7.021   6.426   2.838 -0.2775  0.1796 -0.8999
  191MOL0     O26221   3.667   1.243   7.820  0.2194 -0.2619 -0.2507
  191MOL0     C26222   3.730   1.240   7.716 -0.0804 -0.7171 -1.2625
  191MOL0     O26223   3.807   1.137   7.684  0.6795  0.1521  0.5053
  191MOL0     C26224   3.866   1.052   7.782 -0.0636 -0.8686 -0.5612
  191MOL0     C26225   3.887   1.087   7.920 -0.5074  0.0295 -0.3386
  191MOL0     C26226   3.960   0.998   8.000 -0.0324  1.1264  0.2881
  191MOL0     C26227   4.036   0.892   7.947 -0.4774  0.3384  1.4565
  191MOL0     O26228   4.134   0.829   8.022  0.4439 -0.4389  0.0003
  191MOL0     C26229   4.228   0.910   8.087 -1.0548  0.9134 -0.3452
  191MOL0     C26230   4.243   0.867   8.234 -0.0830  0.4085 -0.4323
  191MOL0     C26231   4.331   0.967   8.303 -1.3025  0.4018  0.0870
  191MOL0     C26232   4.268   1.108   8.320  0.1674 -0.3344 -0.3901
  191MOL0     C26233   4.351   1.205   8.403  0.6858 -0.3410  0.2072
  191MOL0     C26234   4.363   1.157   8.556 -0.4357 -0.4618  0.0692
  191MOL0     C26235   4.378   1.273   8.659  0.0570  0.2908 -0.2482
  191MOL0     C26236   4.440   1.223   8.791  0.2193  0.3477 -0.3852
  191MOL0     N26237   4.459   1.329   8.891  0.0311  0.2176 -0.1139
  191MOL0     C26238   4.356   1.403   8.941  0.1164 -0.3976 -0.1003
  191MOL0     C26239   4.410   1.500   9.012 -0.2532  0.4039  0.6182
  191MOL0     C26240   4.336   1.607   9.084 -1.1885  0.2508 -0.2452
  191MOL0     C26241   4.369   1.607   9.242 -0.4071  0.1042  0.7014
  191MOL0     C26242   4.465   1.716   9.275 -0.5910 -0.0833  0.2958
  191MOL0     C26243   4.554   1.679   9.392  0.2949 -0.3089 -0.0674
  191MOL0     O26244   4.647   1.781   9.419  0.5244 -0.1221  0.2145
  191MOL0     C26245   4.754   1.804   9.338 -0.4454 -0.4311  0.1881
  191MOL0     C26246   4.828   1.921   9.378  0.5588  0.7853 -0.0487
  191MOL0     C26247   4.946   1.952   9.317  0.1342 -0.0506 -0.7570
  191MOL0     C26248   5.032   2.066   9.371 -0.1249 -0.2011 -0.0128
  191MOL0     C26249   4.983   1.881   9.197 -0.0809 -0.5604  0.0570
  191MOL0     C26250   5.113   1.915   9.128  0.3303  0.7582 -0.2905
  191MOL0     O26251   5.226   1.946   9.203 -0.9222  0.5000  0.5117
  191MOL0     C26252   5.328   2.008   9.132  1.0268 -0.4800 -0.4229
  191MOL0     C26253   5.383   2.131   9.178 -0.6346 -0.0707 -0.4692
  191MOL0     C26254   5.486   2.195   9.102  0.8847  0.8982 -0.8005
  191MOL0     C26255   5.539   2.146   8.988  0.2859  1.0185  1.2804
  191MOL0     O26256   5.650   2.188   8.921 -0.2637  0.3436  0.0385
  191MOL0     C26257   5.671   2.327   8.935 -0.1522 -0.1073  0.7883
  191MOL0     C26258   5.825   2.357   8.902 -0.4347 -0.1154  0.4795
  191MOL0     C26259   5.901   2.338   9.032 -0.8036 -0.0785 -0.5901
  191MOL0     C26260   6.061   2.322   9.013  0.4742 -0.5190  0.5455
  191MOL0     C26261   6.113   2.178   9.017  0.6941  0.5368  0.3045
  191MOL0     C26262   6.269   2.170   8.998  0.4439  0.2946  0.2883
  191MOL0     C26263   6.319   2.212   8.859  0.3292 -0.1767 -0.0493
  191MOL0     C26264   6.417   2.324   8.868  0.1285 -0.4457  0.2636
  191MOL0    Cl26265   6.546   2.295   8.991 -0.4719  0.5804  0.2695
  191MOL0     C26266   5.493   2.020   8.941 -1.4385  0.3758 -0.6067
  191MOL0     C26267   5.385   1.955   9.009 -0.2670  0.1051 -1.6122
  191MOL0     O26268   5.110   1.915   9.005 -0.2785  0.9068  0.3471
  191MOL0     C26269   4.894   1.778   9.145 -0.2424 -0.0166 -0.3953
  191MOL0     C26270   4.788   1.735   9.217  0.5217  0.8107 -0.6489
  191MOL0     N26271   4.547   1.491   9.004 -0.3898 -0.0702  0.3317
  191MOL0     N26272   4.580   1.389   8.931  0.7360  0.0706  0.4175
  191MOL0     C26273   4.014   0.858   7.817 -0.2920  0.2475 -0.0026
  191MOL0     C26274   3.937   0.940   7.735 -0.6582 -0.5380 -0.3059
  191MOL0     C26275   3.709   1.340   7.605 -0.1472  1.1072  0.7608
  191MOL0     C26276   3.781   1.328   7.485  0.1378 -0.3952  0.2723
  191MOL0     C26277   3.761   1.415   7.371  0.4319 -0.6194 -0.3940
  191MOL0     C26278   3.678   1.536   7.385 -0.0136  0.2708 -0.0103
  191MOL0     O26279   3.653   1.620   7.278 -0.5004  0.4799 -0.3840
  191MOL0     C26280   3.766   1.645   7.188  0.3320 -0.1261  0.4339
  191MOL0     C26281   3.876   1.724   7.259  0.0811  0.7402  0.0422
  191MOL0     C26282   4.004   1.747   7.187  0.0130  0.4817 -0.3528
  191MOL0     C26283   4.084   1.618   7.146  0.0814 -0.5655 -0.2547
  191MOL0     C26284   4.112   1.525   7.254  0.6895 -0.8127 -0.8941
  191MOL0     C26285   4.121   1.468   7.361 -0.8915  0.0315  0.3037
  191MOL0     C26286   3.617   1.552   7.507  0.0471 -0.1786  0.2089
  191MOL0     C26287   3.629   1.456   7.609  0.1237 -0.9196 -0.7368
  191MOL0     C26288   3.534   1.483   7.725  0.3541  0.4434 -0.0859
  191MOL0     H26289   3.858   1.180   7.969  1.3603  1.1452 -1.2438
  191MOL0     H26290   3.991   1.048   8.092  1.0663  2.0719 -0.5648
  191MOL0     H26291   4.209   1.016   8.064 -2.0525  0.6388 -0.8126
  191MOL0     H26292   4.322   0.883   8.038 -0.8525 -3.4905  1.9883
  191MOL0     H26293   4.146   0.856   8.283  0.9277 -2.6940  1.0840
  191MOL0     H26294   4.294   0.771   8.237 -0.8898 -0.0080  0.3062
  191MOL0     H26295   4.353   0.916   8.397 -0.4126 -1.6933 -1.1943
  191MOL0     H26296   4.424   0.984   8.248  1.6272  0.5990  4.5456
  191MOL0     H26297   4.248   1.158   8.225 -0.5819  1.8246  0.8471
  191MOL0     H26298   4.174   1.114   8.375  1.1757  1.8716  1.2671
  191MOL0     H26299   4.309   1.306   8.403 -0.3222 -0.7523  0.4254
  191MOL0     H26300   4.451   1.215   8.361  0.3100 -0.0172 -0.6312
  191MOL0     H26301   4.278   1.098   8.590 -0.5726 -0.6468 -0.5719
  191MOL0     H26302   4.445   1.086   8.559 -0.5991 -0.6733 -0.3823
  191MOL0     H26303   4.279   1.313   8.682  0.7379  0.8233  2.0146
  191MOL0     H26304   4.430   1.356   8.609 -0.1371 -1.3807 -3.4380
  191MOL0     H26305   4.377   1.143   8.830  0.3138 -2.1410 -4.6988
  191MOL0     H26306   4.533   1.176   8.758 -0.3525 -0.3544 -1.0177
  191MOL0     H26307   4.248   1.398   8.930 -0.2200  1.8319  1.3785
  191MOL0     H26308   4.229   1.586   9.078 -0.8628 -1.1146 -2.4126
  191MOL0     H26309   4.355   1.704   9.039 -0.7731 -0.6708 -2.1598
  191MOL0     H26310   4.274   1.623   9.293 -1.0637  1.1697 -0.7693
  191MOL0     H26311   4.398   1.507   9.276 -2.1060  0.3256  3.0475
  191MOL0     H26312   4.530   1.746   9.192 -0.1348 -0.7486  0.4086
  191MOL0     H26313   4.414   1.810   9.300 -0.5486 -0.2363  0.9625
  191MOL0     H26314   4.499   1.645   9.480  1.1483  0.6964  0.8985
  191MOL0     H26315   4.622   1.600   9.359  3.1202  2.6734 -2.0371
  191MOL0     H26316   4.785   1.967   9.466 -2.3425 -0.7226 -0.5398
  191MOL0     H26317   5.125   2.022   9.407  0.1137 -0.2630 -0.6906
  191MOL0     H26318   4.977   2.115   9.452 -1.1107  2.3583 -2.1017
  191MOL0     H26319   5.050   2.137   9.290 -0.4229 -0.1217 -0.0106
  191MOL0     H26320   5.369   2.167   9.279  1.4858  1.0377 -0.5119
  191MOL0     H26321   5.540   2.266   9.164  1.5541 -0.5148  0.2886
  191MOL0     H26322   5.614   2.383   8.860 -1.0605 -0.4577  1.2037
  191MOL0     H26323   5.642   2.385   9.024  0.0360  1.9418 -0.4147
  191MOL0     H26324   5.861   2.298   8.817 -3.0723  1.0238 -1.5650
  191MOL0     H26325   5.822   2.460   8.867 -1.9320 -0.8476 -1.7752
  191MOL0     H26326   5.862   2.247   9.078 -2.5810 -1.4789 -4.4373
  191MOL0     H26327   5.887   2.428   9.091 -0.4233  0.0766 -0.7325
  191MOL0     H26328   6.100   2.372   9.102  0.5829 -2.1437  1.4662
  191MOL0     H26329   6.083   2.371   8.917 -0.0275  0.5205  0.9545
  191MOL0     H26330   6.096   2.129   9.114 -1.4463  0.1362 -0.2306
  191MOL0     H26331   6.070   2.118   8.936  3.1611  0.8075 -1.3140
  191MOL0     H26332   6.306   2.070   9.023  1.5829  1.1441  2.1515
  191MOL0     H26333   6.308   2.233   9.078  2.6857 -0.4927 -0.1042
  191MOL0     H26334   6.244   2.238   8.784 -1.4920 -0.8734  1.4407
  191MOL0     H26335   6.366   2.116   8.839 -0.2058 -0.7077  1.1380
  191MOL0     H26336   6.360   2.412   8.900 -1.1749 -1.6727  1.4472
  191MOL0     H26337   6.468   2.346   8.773  3.0144  2.6565  2.2831
  191MOL0     H26338   5.526   1.979   8.846  1.1037  2.3862 -0.6953
  191MOL0     H26339   5.357   1.862   8.960  2.0045 -0.5497 -1.7816
  191MOL0     H26340   4.939   1.732   9.058 -0.2629 -0.2830 -0.2655
  191MOL0     H26341   4.736   1.643   9.197 -3.2106  1.2685  4.7791
  191MOL0     H26342   4.090   0.793   7.775  0.9401  1.9892 -0.6226
  191MOL0     H26343   3.938   0.923   7.628  2.6589  1.3929 -0.7066
  191MOL0     H26344   3.836   1.236   7.466 -0.3172 -0.5826 -0.1482
  191MOL0     H26345   3.820   1.383   7.286  2.7706  0.3493  0.7599
  191MOL0     H26346   3.794   1.553   7.137 -2.1518 -2.4659  2.8785
  191MOL0     H26347   3.718   1.713   7.118 -0.1050 -1.2509 -0.3987
  191MOL0     H26348   3.911   1.678   7.352  0.2684 -0.6595 -0.7041
  191MOL0     H26349   3.832   1.821   7.286  0.4800  0.2869  2.5540
  191MOL0     H26350   3.986   1.799   7.092 -1.5695  1.1077  0.2612
  191MOL0     H26351   4.058   1.818   7.250 -1.1066 -0.3288  1.5890
  191MOL0     H26352   4.181   1.639   7.099  0.6407 -0.1236  1.0400
  191MOL0     H26353   4.020   1.563   7.078 -2.1990 -1.1202  2.1642
  191MOL0     H26354   4.149   1.396   7.435  0.6596  0.6928  0.3991
  191MOL0     H26355   3.553   1.640   7.510  0.3381  0.0994 -1.1020
  191MOL0     H26356   3.600   1.492   7.811 -0.9655  1.9106  0.8193
  191MOL0     H26357   3.486   1.581   7.717 -2.8089 -0.6196  3.1528
  191MOL0     H26358   3.455   1.411   7.748  2.1375 -1.2995  0.9037
  192MOL0     O26359   4.186   5.463   7.204 -0.9315  0.0441  0.2897
  192MOL0     C26360   4.102   5.551   7.184 -0.3671 -0.6013 -1.1092
  192MOL0     O26361   4.060   5.595   7.060 -0.3618 -0.3983  0.0210
  192MOL0     C26362   4.082   5.508   6.950  0.4586  0.1465 -0.3751
  192MOL0     C26363   3.972   5.428   6.907 -0.2507  0.1134 -1.0059
  192MOL0     C26364   3.996   5.351   6.795 -0.0146 -0.1063 -0.1181
  192MOL0     C26365   4.114   5.357   6.720 -0.1350 -0.4418  0.3425
  192MOL0     O26366   4.113   5.304   6.591 -0.3935 -0.2881 -0.1596
  192MOL0     C26367   4.083   5.166   6.565 -0.0920 -0.7891 -0.4988
  192MOL0     C26368   4.060   5.129   6.419  0.3114 -0.3187 -0.8033
  192MOL0     C26369   3.924   5.198   6.363 -0.3661  0.0545 -0.0739
  192MOL0     C26370   3.881   5.145   6.227  0.3258 -0.6616  0.3872
  192MOL0     C26371   3.747   5.186   6.172 -0.6937  0.4092  0.2449
  192MOL0     C26372   3.624   5.147   6.261 -0.6663  0.1462 -0.0843
  192MOL0     C26373   3.503   5.219   6.211 -0.5492 -0.0424  0.6449
  192MOL0     C26374   3.499   5.370   6.237 -0.1755 -0.0304 -0.2890
  192MOL0     N26375   3.588   5.427   6.339  0.5030 -0.9308  0.0101
  192MOL0     C26376   3.694   5.519   6.316  1.0432  0.6998 -1.0636
  192MOL0     C26377   3.752   5.546   6.436  0.1165  1.0910 -0.1554
  192MOL0     C26378   3.875   5.636   6.464 -0.2666  0.8743 -0.4968
  192MOL0     C26379   3.896   5.660   6.621  0.2181  0.5812  0.4256
  192MOL0     C26380   3.813   5.775   6.685 -0.0301  0.8172  0.3636
  192MOL0     C26381   3.828   5.919   6.633 -0.1823  0.5480 -0.6513
  192MOL0     O26382   3.969   5.956   6.609  0.4403 -0.1148 -0.4566
  192MOL0     C26383   4.001   6.087   6.582 -0.1707 -0.3233 -0.8387
  192MOL0     C26384   4.127   6.144   6.625 -0.2194  0.1675  0.0231
  192MOL0     C26385   4.152   6.278   6.604 -0.3102  0.0330 -0.5971
  192MOL0     C26386   4.282   6.320   6.670 -0.1178  0.5348 -0.0142
  192MOL0     C26387   4.062   6.355   6.531  0.1723 -0.0971  0.1493
  192MOL0     C26388   4.089   6.496   6.484 -0.4076  0.6276  0.3298
  192MOL0     O26389   3.979   6.576   6.469 -0.3674 -0.1523  0.2484
  192MOL0     C26390   3.997   6.719   6.477  1.1243 -0.0440  1.1409
  192MOL0     C26391   3.933   6.803   6.381  1.5164 -0.8316 -0.8193
  192MOL0     C26392   3.930   6.944   6.408  0.0654  0.3417 -0.1800
  192MOL0     C26393   3.989   7.005   6.518 -0.6945  0.7494 -0.0229
  192MOL0     O26394   4.017   7.140   6.516  1.0143 -0.4289  0.0545
  192MOL0     C26395   3.972   7.209   6.637 -0.8208  0.7017  0.0500
  192MOL0     C26396   3.944   7.348   6.594 -0.4937  0.2159  0.2463
  192MOL0     C26397   3.816   7.360   6.507  0.5418 -0.0761 -0.0673
  192MOL0     C26398   3.816   7.505   6.461  0.1252  0.0265  0.2382
  192MOL0     C26399   3.669   7.556   6.426  0.2866  0.1216 -0.2858
  192MOL0     C26400   3.655   7.707   6.407 -0.8496  0.3069 -0.1811
  192MOL0     C26401   3.746   7.753   6.280  1.1114  0.4267 -0.2051
  192MOL0     C26402   3.718   7.903   6.245 -0.2647 -0.0053  0.2390
  192MOL0    Cl26403   3.722   8.009   6.390  0.5423  0.2429  0.0675
  192MOL0     C26404   4.051   6.919   6.614  1.3310  1.4573 -0.2136
  192MOL0     C26405   4.045   6.780   6.589 -0.7344 -0.9111 -0.1382
  192MOL0     O26406   4.204   6.530   6.457 -0.2755  0.5458  0.5519
  192MOL0     C26407   3.938   6.302   6.485  0.2210  1.0530  1.0980
  192MOL0     C26408   3.907   6.172   6.515  0.2076 -0.0275  0.5224
  192MOL0     N26409   3.668   5.483   6.528 -0.3465  0.7008 -0.3329
  192MOL0     N26410   3.570   5.418   6.473  0.5979 -0.4304  0.2530
  192MOL0     C26411   4.223   5.429   6.776  0.2301 -0.3518  0.3846
  192MOL0     C26412   4.205   5.499   6.887  0.1774 -0.1345 -0.7986
  192MOL0     C26413   4.049   5.619   7.306  0.0064  0.5828 -0.1849
  192MOL0     C26414   4.118   5.630   7.421 -0.0603 -0.5344 -0.0188
  192MOL0     C26415   4.080   5.703   7.526  0.0253  0.8531  0.7426
  192MOL0     C26416   3.952   5.761   7.533 -0.7891 -0.4431 -0.1628
  192MOL0     O26417   3.902   5.826   7.648  0.1501 -0.1215  0.2174
  192MOL0     C26418   3.845   5.955   7.624 -0.1996 -0.1008  0.5009
  192MOL0     C26419   3.925   6.058   7.558 -0.2668 -0.4701  0.3910
  192MOL0     C26420   3.825   6.167   7.505 -0.1282  0.2765 -0.0260
  192MOL0     C26421   3.905   6.284   7.441  0.4149  0.3286  0.4925
  192MOL0     C26422   3.822   6.388   7.365  0.1235  0.0271  0.8149
  192MOL0     C26423   3.756   6.478   7.317  0.3826  0.0681 -0.0426
  192MOL0     C26424   3.864   5.746   7.421 -0.1565  0.3597  0.2300
  192MOL0     C26425   3.914   5.680   7.308  0.1238  0.6911  0.1367
  192MOL0     C26426   3.819   5.681   7.191 -0.2290  0.4249  0.1350
  192MOL0     H26427   3.879   5.425   6.962 -0.1392 -1.4187 -0.8420
  192MOL0     H26428   3.913   5.290   6.761  1.2773 -1.3011 -1.2548
  192MOL0     H26429   3.994   5.145   6.625  0.1213  2.2396  1.0897
  192MOL0     H26430   4.165   5.102   6.600  0.7875 -0.3464 -1.6860
  192MOL0     H26431   4.135   5.179   6.356 -0.4381  1.9735  0.0436
  192MOL0     H26432   4.066   5.019   6.420 -0.7338 -0.3851  0.6144
  192MOL0     H26433   3.852   5.175   6.441 -0.8475 -3.7178 -1.4496
  192MOL0     H26434   3.939   5.305   6.345 -0.4447 -0.3421 -3.0622
  192MOL0     H26435   3.963   5.167   6.158 -0.2507  2.7723  0.6166
  192MOL0     H26436   3.869   5.037   6.237 -1.1717 -0.5997 -0.4492
  192MOL0     H26437   3.734   5.134   6.077  3.2618 -0.0577 -0.1910
  192MOL0     H26438   3.755   5.293   6.148  0.8922  0.7313  1.9729
  192MOL0     H26439   3.601   5.040   6.252 -3.1172  0.6564 -0.4317
  192MOL0     H26440   3.639   5.163   6.368 -3.1580 -0.3494  0.4026
  192MOL0     H26441   3.415   5.185   6.266 -0.6291  1.0150  1.2135
  192MOL0     H26442   3.480   5.202   6.106 -2.6177 -0.9695  1.1844
  192MOL0     H26443   3.525   5.420   6.143  3.0845 -1.5669 -0.3726
  192MOL0     H26444   3.396   5.386   6.269  0.6586  1.6624  1.7535
  192MOL0     H26445   3.729   5.555   6.220 -1.2517  0.2757 -2.1359
  192MOL0     H26446   3.877   5.731   6.411 -1.5911  0.2186 -1.8022
  192MOL0     H26447   3.965   5.583   6.433  0.4512  2.0981 -0.5450
  192MOL0     H26448   3.874   5.571   6.680 -0.6679  1.2441  1.1273
  192MOL0     H26449   3.998   5.698   6.629  0.4072  1.1609 -3.1592
  192MOL0     H26450   3.708   5.745   6.675  1.1317 -3.8718 -0.0837
  192MOL0     H26451   3.829   5.774   6.793 -3.0968 -1.0788  0.9443
  192MOL0     H26452   3.758   5.939   6.551 -0.7291 -0.2188 -0.3810
  192MOL0     H26453   3.782   5.982   6.710  0.2052  0.6941 -0.5378
  192MOL0     H26454   4.204   6.087   6.676 -0.8363 -0.6047  0.1041
  192MOL0     H26455   4.281   6.296   6.777  3.5638  1.5968  0.3908
  192MOL0     H26456   4.300   6.427   6.658  2.3181  0.0865 -0.7669
  192MOL0     H26457   4.365   6.273   6.618 -2.1826 -1.4115 -1.7564
  192MOL0     H26458   3.878   6.776   6.292 -1.2025  1.7635 -0.1058
  192MOL0     H26459   3.886   6.997   6.324  0.0518 -0.3128 -0.5980
  192MOL0     H26460   3.888   7.154   6.681 -0.8839  0.4137 -0.4329
  192MOL0     H26461   4.057   7.204   6.706  1.8080  0.8115 -2.9749
  192MOL0     H26462   3.938   7.403   6.689 -1.0467  0.0269  0.3224
  192MOL0     H26463   4.035   7.386   6.547  2.9115 -1.6036  4.6372
  192MOL0     H26464   3.729   7.341   6.571 -0.1394  0.2427 -0.8805
  192MOL0     H26465   3.824   7.294   6.420  2.4658  0.3016 -0.2068
  192MOL0     H26466   3.881   7.510   6.373 -0.9522 -1.9735 -0.7329
  192MOL0     H26467   3.861   7.579   6.528  0.5766  3.4473 -3.4283
  192MOL0     H26468   3.629   7.507   6.337  1.3107 -0.7801 -0.2638
  192MOL0     H26469   3.604   7.527   6.509 -0.4477 -2.1994 -1.5855
  192MOL0     H26470   3.699   7.762   6.491  1.3743  1.0993 -1.7438
  192MOL0     H26471   3.550   7.733   6.395 -1.0850  0.0077  1.1417
  192MOL0     H26472   3.722   7.692   6.192 -2.1938  1.0287  0.1698
  192MOL0     H26473   3.853   7.742   6.303  0.9395 -1.1615 -0.0415
  192MOL0     H26474   3.621   7.896   6.195  0.9871 -1.0541 -2.2004
  192MOL0     H26475   3.793   7.938   6.174  0.1192 -1.7612 -0.2682
  192MOL0     H26476   4.100   6.947   6.706  0.7328 -0.0918  0.6179
  192MOL0     H26477   4.096   6.719   6.663  1.6063 -0.2931 -1.1598
  192MOL0     H26478   3.884   6.365   6.414  1.2343  0.9542  0.2152
  192MOL0     H26479   3.804   6.144   6.492  0.8950  0.1604 -3.5544
  192MOL0     H26480   4.310   5.444   6.714  2.1375 -0.9158  2.7817
  192MOL0     H26481   4.291   5.558   6.917  1.3947 -1.4069 -1.6587
  192MOL0     H26482   4.218   5.588   7.421  0.7865  1.2284 -2.9543
  192MOL0     H26483   4.150   5.703   7.610  2.9709  2.5070 -1.5007
  192MOL0     H26484   3.760   5.938   7.558 -1.0532 -0.9936  1.7789
  192MOL0     H26485   3.807   5.973   7.725 -0.1954  0.7275  0.3554
  192MOL0     H26486   3.983   6.021   7.473 -2.9541 -0.0935 -1.7685
  192MOL0     H26487   3.995   6.115   7.619 -0.7912  4.0698 -2.7731
  192MOL0     H26488   3.749   6.121   7.443  1.0492 -0.6910 -0.7978
  192MOL0     H26489   3.778   6.213   7.593  2.3890  1.2169  0.9384
  192MOL0     H26490   3.971   6.244   7.364  0.1600 -0.7045  0.8010
  192MOL0     H26491   3.968   6.336   7.514  0.6354 -0.5294  0.9226
  192MOL0     H26492   3.709   6.566   7.278  0.9729  1.3822  2.0609
  192MOL0     H26493   3.770   5.797   7.406  0.2433  0.4217 -2.6465
  192MOL0     H26494   3.816   5.594   7.125 -1.9664 -1.3689  2.4418
  192MOL0     H26495   3.724   5.726   7.221  0.5969  1.4337  1.3425
  192MOL0     H26496   3.857   5.756   7.120 -0.8619  1.7812  1.1993
  193MOL0     O26497   7.490   6.438   1.158  0.3041 -0.1599 -0.2048
  193MOL0     C26498   7.368   6.435   1.114 -1.0425  0.3774 -0.0856
  193MOL0     O26499   7.327   6.482   0.993 -0.4162 -0.1524 -0.8760
  193MOL0     C26500   7.420   6.552   0.917  0.1376 -0.4341  0.3158
  193MOL0     C26501   7.493   6.476   0.828  0.1026 -0.7894  1.0556
  193MOL0     C26502   7.587   6.524   0.739  0.6180 -1.3247  0.8612
  193MOL0     C26503   7.599   6.673   0.738 -0.0080 -0.9461 -0.6781
  193MOL0     O26504   7.689   6.717   0.641  0.4519  0.1638 -0.3894
  193MOL0     C26505   7.698   6.859   0.626  0.2842 -0.2045  0.0871
  193MOL0     C26506   7.764   6.891   0.488  0.3997 -0.4329  0.2299
  193MOL0     C26507   7.797   7.041   0.474 -0.3641  0.8052  0.3371
  193MOL0     C26508   7.673   7.126   0.452 -0.2591  1.2201 -0.2646
  193MOL0     C26509   7.710   7.264   0.420 -0.1105  0.0999  0.2630
  193MOL0     C26510   7.581   7.348   0.428 -0.2757 -0.0029 -0.7243
  193MOL0     C26511   7.613   7.480   0.507  0.0741  0.0171 -0.2850
  193MOL0     C26512   7.688   7.580   0.408 -0.1146  0.2586  0.7338
  193MOL0     N26513   7.611   7.657   0.304 -0.5650  1.2492 -0.8021
  193MOL0     C26514   7.579   7.792   0.320  1.0079  0.0625  0.0855
  193MOL0     C26515   7.470   7.791   0.238 -0.5640 -0.7821  0.0927
  193MOL0     C26516   7.352   7.881   0.242 -0.2958 -0.6846  0.8797
  193MOL0     C26517   7.381   8.014   0.174 -0.4176 -0.2366  0.7010
  193MOL0     C26518   7.353   8.134   0.250  0.3975  0.2562 -0.6098
  193MOL0     C26519   7.313   8.264   0.176  0.0807  0.3707 -0.7333
  193MOL0     O26520   7.301   8.363   0.281 -0.5416 -0.0576  0.0899
  193MOL0     C26521   7.239   8.475   0.252  0.3487 -0.4394  0.0677
  193MOL0     C26522   7.279   8.587   0.326  0.4262  0.3961 -0.7305
  193MOL0     C26523   7.216   8.708   0.314  0.0566 -0.3601  0.6159
  193MOL0     C26524   7.262   8.828   0.407 -0.2207  0.1491  1.2991
  193MOL0     C26525   7.130   8.732   0.210 -0.1276 -0.6789  1.2181
  193MOL0     C26526   7.055   8.862   0.170 -0.3059  0.3839 -0.3092
  193MOL0     O26527   6.961   8.867   0.069 -0.5991 -0.4232 -0.0762
  193MOL0     C26528   6.896   8.977   0.034  0.2741  1.0525  0.6292
  193MOL0     C26529   6.881   9.003  -0.101 -0.1426  0.3514 -0.2662
  193MOL0     C26530   6.781   9.087  -0.154 -0.0575 -0.5804  0.3024
  193MOL0     C26531   6.723   9.177  -0.065  0.0341 -0.0633 -0.3699
  193MOL0     O26532   6.644   9.284  -0.100  0.7220  1.2244 -0.0083
  193MOL0     C26533   6.603   9.304  -0.240  0.1151  0.1712  0.7013
  193MOL0     C26534   6.500   9.414  -0.245  0.7966  0.4667 -0.1593
  193MOL0     C26535   6.497   9.520  -0.363  1.2305 -0.8911  0.5952
  193MOL0     C26536   6.379   9.623  -0.366  0.1730  0.2820  0.3861
  193MOL0     C26537   6.374   9.710  -0.489 -1.0026  0.1705 -0.6401
  193MOL0     C26538   6.238   9.761  -0.508  0.5890 -0.2507  0.5457
  193MOL0     C26539   6.217   9.815  -0.657 -0.1640 -0.4583 -1.1931
  193MOL0     C26540   6.066   9.832  -0.687 -0.6005  0.3648  0.4135
  193MOL0    Cl26541   5.989   9.908  -0.546 -0.0650  0.1163 -0.2509
  193MOL0     C26542   6.729   9.157   0.074  0.2035 -0.8783  0.2952
  193MOL0     C26543   6.818   9.053   0.119  0.1777  0.6615 -1.1271
  193MOL0     O26544   7.072   8.956   0.242  0.2472 -0.1204 -0.2937
  193MOL0     C26545   7.102   8.628   0.123  0.1859  0.4813 -0.4946
  193MOL0     C26546   7.142   8.493   0.149 -0.8767 -0.2328  0.3399
  193MOL0     N26547   7.473   7.686   0.155 -0.4500 -0.4747 -0.1432
  193MOL0     N26548   7.568   7.607   0.189  0.1762  0.2142  0.2683
  193MOL0     C26549   7.531   6.750   0.832 -0.7623 -0.2461  0.7424
  193MOL0     C26550   7.431   6.690   0.913 -0.1122  0.6475 -0.4913
  193MOL0     C26551   7.257   6.365   1.195  0.5037 -0.6965 -0.1885
  193MOL0     C26552   7.149   6.298   1.136 -0.7546 -0.0128 -0.5955
  193MOL0     C26553   7.051   6.219   1.207  0.1943 -0.4244  0.4204
  193MOL0     C26554   7.055   6.216   1.352  0.1306 -0.5584 -0.0232
  193MOL0     O26555   6.952   6.165   1.432 -0.0323  0.0829 -0.9425
  193MOL0     C26556   6.912   6.029   1.420 -0.8969  0.1944 -0.4988
  193MOL0     C26557   7.030   5.955   1.489 -0.0556  0.6418 -1.0965
  193MOL0     C26558   7.011   5.937   1.641 -0.5120 -0.2322 -0.7399
  193MOL0     C26559   7.128   5.852   1.707  0.5049  0.2862  0.0681
  193MOL0     C26560   7.063   5.729   1.769 -1.1826  0.1861  0.1766
  193MOL0     C26561   7.030   5.624   1.822 -0.4790 -0.4493 -0.6620
  193MOL0     C26562   7.162   6.282   1.416  0.2605 -0.7383  0.4921
  193MOL0     C26563   7.258   6.359   1.342  0.1312 -0.9711 -0.8664
  193MOL0     C26564   7.360   6.441   1.421 -0.4024  1.1351 -1.3005
  193MOL0     H26565   7.478   6.368   0.824 -0.2632 -0.6958 -1.6098
  193MOL0     H26566   7.644   6.459   0.674  1.0644  0.0325 -0.1542
  193MOL0     H26567   7.762   6.892   0.709 -1.6966  0.0451  1.5815
  193MOL0     H26568   7.600   6.908   0.626  0.2547 -0.2654 -0.2343
  193MOL0     H26569   7.850   6.824   0.477  0.0914 -0.7481 -0.2633
  193MOL0     H26570   7.700   6.863   0.404  0.9064  2.7040 -1.3496
  193MOL0     H26571   7.842   7.082   0.564  0.1176  0.9055  0.0517
  193MOL0     H26572   7.862   7.058   0.388 -1.1344 -2.5415 -1.0342
  193MOL0     H26573   7.622   7.077   0.368 -3.0983  1.0058  1.4327
  193MOL0     H26574   7.617   7.124   0.546  0.0036 -0.4132 -0.1066
  193MOL0     H26575   7.746   7.265   0.317 -0.8864  0.5709 -0.0104
  193MOL0     H26576   7.786   7.300   0.491  0.9669  2.4605 -1.9401
  193MOL0     H26577   7.533   7.362   0.331  0.3398  0.5928 -0.9487
  193MOL0     H26578   7.508   7.292   0.489  1.0960 -2.0496 -0.8835
  193MOL0     H26579   7.677   7.467   0.595 -0.4810 -1.0141 -0.0158
  193MOL0     H26580   7.519   7.531   0.530 -1.8159 -2.6879 -1.4927
  193MOL0     H26581   7.752   7.642   0.471  0.9776 -3.0450  3.2113
  193MOL0     H26582   7.768   7.530   0.352  0.6821  3.8041 -1.5757
  193MOL0     H26583   7.623   7.858   0.395  1.0531 -0.7963  0.8380
  193MOL0     H26584   7.328   7.912   0.344  0.7479  1.0090  0.6551
  193MOL0     H26585   7.258   7.838   0.206 -0.7448  1.2699 -0.3930
  193MOL0     H26586   7.482   8.018   0.133 -0.0617  1.9677  1.6237
  193MOL0     H26587   7.312   8.020   0.089 -0.9348 -1.5871  0.9988
  193MOL0     H26588   7.273   8.126   0.324  0.8729 -0.3278 -0.1381
  193MOL0     H26589   7.443   8.150   0.310  0.1565 -0.7724  0.0581
  193MOL0     H26590   7.389   8.298   0.105  0.4036 -0.5729 -0.8587
  193MOL0     H26591   7.220   8.240   0.123 -0.5080  0.1632  0.3437
  193MOL0     H26592   7.361   8.581   0.397 -1.6114 -1.4311  1.6624
  193MOL0     H26593   7.180   8.866   0.468 -0.3514  0.7438  0.7693
  193MOL0     H26594   7.295   8.904   0.336  0.1123 -0.4125  0.8485
  193MOL0     H26595   7.351   8.791   0.458 -0.3530 -1.5643  0.3619
  193MOL0     H26596   6.931   8.943  -0.176  2.1395  0.9986  0.6536
  193MOL0     H26597   6.761   9.082  -0.260  0.8916 -1.8488  0.1640
  193MOL0     H26598   6.693   9.337  -0.294  0.3290  0.4547  1.2221
  193MOL0     H26599   6.571   9.212  -0.290  0.6766  0.2353  0.2112
  193MOL0     H26600   6.399   9.372  -0.236  0.5921  0.6982 -1.2332
  193MOL0     H26601   6.516   9.469  -0.152  1.0762 -2.4925  1.6919
  193MOL0     H26602   6.475   9.458  -0.451 -2.6381 -0.8482  1.3422
  193MOL0     H26603   6.589   9.577  -0.370 -0.1118  1.9081  3.5474
  193MOL0     H26604   6.377   9.684  -0.276 -1.7671  1.3593 -0.3173
  193MOL0     H26605   6.284   9.570  -0.358  0.5735 -0.6501 -0.7230
  193MOL0     H26606   6.446   9.793  -0.492 -2.1936  1.2105 -2.4925
  193MOL0     H26607   6.408   9.661  -0.581  1.6935  0.8717 -0.1228
  193MOL0     H26608   6.209   9.832  -0.430  4.7661  1.4349  0.8022
  193MOL0     H26609   6.171   9.674  -0.505 -0.6859  0.7057  2.2941
  193MOL0     H26610   6.251   9.736  -0.725 -2.4875 -1.7206 -0.9915
  193MOL0     H26611   6.271   9.909  -0.665  1.5136 -1.5354 -4.0114
  193MOL0     H26612   6.008   9.739  -0.688  0.2208 -0.2474 -2.9698
  193MOL0     H26613   6.038   9.881  -0.781  0.1277  2.3601  1.1891
  193MOL0     H26614   6.677   9.227   0.139 -2.0005 -2.5560  0.4327
  193MOL0     H26615   6.832   9.047   0.227 -1.2551 -1.0071 -0.9843
  193MOL0     H26616   7.049   8.643   0.029  1.3229  1.8049 -0.9777
  193MOL0     H26617   7.122   8.416   0.075  1.0950 -2.8451  2.3095
  193MOL0     H26618   7.554   6.856   0.838  2.3791 -0.7497 -0.2988
  193MOL0     H26619   7.365   6.745   0.980 -0.4618 -3.5598  3.0315
  193MOL0     H26620   7.152   6.316   1.029  0.5072  0.4815 -0.4951
  193MOL0     H26621   6.985   6.164   1.141  2.4345 -1.3884 -1.1580
  193MOL0     H26622   6.815   6.026   1.470 -2.3451  2.1431 -2.9422
  193MOL0     H26623   6.876   5.980   1.329  0.7501  0.9525 -1.6067
  193MOL0     H26624   7.128   6.003   1.481 -0.2450  1.2097 -0.1862
  193MOL0     H26625   7.040   5.856   1.444 -0.7537 -0.1914  0.5032
  193MOL0     H26626   7.004   6.035   1.690  4.6500 -0.2450  0.6524
  193MOL0     H26627   6.913   5.892   1.653 -0.9509  0.0648 -2.7538
  193MOL0     H26628   7.173   5.913   1.785  0.4166 -0.4927  0.7495
  193MOL0     H26629   7.207   5.810   1.644  1.2717 -1.9496  2.3137
  193MOL0     H26630   6.989   5.530   1.853 -2.2332  0.4445 -0.1368
  193MOL0     H26631   7.178   6.278   1.524  4.5485 -1.4739  0.0121
  193MOL0     H26632   7.337   6.448   1.528  0.4417 -0.4649 -0.9916
  193MOL0     H26633   7.461   6.399   1.418 -0.4555  0.7032  1.0063
  193MOL0     H26634   7.360   6.540   1.375  0.4181  1.9804  0.4053
  194MOL0     O26635   8.554   1.846   1.997 -0.3509  0.3059  0.9037
  194MOL0     C26636   8.665   1.793   2.013 -0.3614 -0.4883  0.5111
  194MOL0     O26637   8.720   1.761   2.134  0.1514 -0.7682 -0.0119
  194MOL0     C26638   8.656   1.807   2.251  0.1758  0.6320 -0.7695
  194MOL0     C26639   8.727   1.880   2.355  0.0249 -0.5695  0.4994
  194MOL0     C26640   8.659   1.924   2.474 -0.2928 -0.3507  0.2792
  194MOL0     C26641   8.523   1.911   2.481  0.6667 -0.1084 -0.0499
  194MOL0     O26642   8.453   1.966   2.584 -0.4101  0.6792  0.3207
  194MOL0     C26643   8.315   1.949   2.594  1.3229 -0.4014 -0.4998
  194MOL0     C26644   8.255   2.037   2.711 -0.0629 -0.7881  0.3480
  194MOL0     C26645   8.100   2.005   2.710 -0.2094 -0.2261  0.9277
  194MOL0     C26646   8.020   2.040   2.830  0.5298 -0.0664  0.2352
  194MOL0     C26647   7.873   2.001   2.818  1.1566 -0.6839  0.5568
  194MOL0     C26648   7.784   2.056   2.934 -0.3422 -0.8557  0.6140
  194MOL0     C26649   7.636   2.045   2.894  0.6011  0.1575  0.4967
  194MOL0     C26650   7.540   2.072   3.006 -0.1217 -0.6415  0.7853
  194MOL0     N26651   7.560   2.210   3.057  0.1018  0.6946  0.1262
  194MOL0     C26652   7.611   2.234   3.179 -0.1341 -0.8015 -0.9600
  194MOL0     C26653   7.599   2.364   3.191 -0.1315 -0.0586 -1.2351
  194MOL0     C26654   7.654   2.447   3.315 -0.3271  1.0789 -0.4212
  194MOL0     C26655   7.546   2.471   3.432 -0.1406  0.0290 -0.0247
  194MOL0     C26656   7.629   2.531   3.547  0.0403  0.8287  1.0229
  194MOL0     C26657   7.540   2.552   3.672 -0.4415  0.5758  0.0876
  194MOL0     O26658   7.464   2.428   3.686  0.5458  0.0780 -0.0083
  194MOL0     C26659   7.360   2.433   3.773 -0.2314 -0.1364 -0.3277
  194MOL0     C26660   7.354   2.514   3.893 -0.1622  0.2224  0.4295
  194MOL0     C26661   7.257   2.495   3.984  1.2793 -0.0674 -0.0734
  194MOL0     C26662   7.256   2.605   4.083 -0.1849  0.3979 -0.1262
  194MOL0     C26663   7.162   2.392   3.976 -0.2327 -0.0789 -0.2055
  194MOL0     C26664   7.048   2.369   4.067  1.4601 -0.9579  0.9526
  194MOL0     O26665   6.975   2.261   4.038  0.3282  0.6030  0.2699
  194MOL0     C26666   6.877   2.220   4.123  0.5521  0.3761 -0.0201
  194MOL0     C26667   6.769   2.301   4.168  0.3623  0.3035 -0.1580
  194MOL0     C26668   6.661   2.250   4.238  0.3038 -0.5733 -1.0062
  194MOL0     C26669   6.657   2.114   4.271  0.2677  0.4388  0.1789
  194MOL0     O26670   6.544   2.054   4.327  1.1763  0.0680  0.0646
  194MOL0     C26671   6.470   2.098   4.439  0.6282 -0.0088 -0.9129
  194MOL0     C26672   6.382   1.985   4.470  0.1737  0.1326 -0.4326
  194MOL0     C26673   6.317   2.027   4.601  1.1635 -0.1521  0.2479
  194MOL0     C26674   6.235   1.907   4.654  0.0355  0.6645 -0.5702
  194MOL0     C26675   6.191   1.918   4.804  0.7357 -0.1687  0.0709
  194MOL0     C26676   6.077   2.015   4.842 -0.0048  0.0215  0.2395
  194MOL0     C26677   5.946   1.954   4.894 -0.2637 -0.3235  0.2550
  194MOL0     C26678   5.842   2.060   4.933  0.6113 -0.7535 -0.5432
  194MOL0    Cl26679   5.795   2.152   4.780  0.2500  0.1720 -0.6702
  194MOL0     C26680   6.758   2.027   4.228  0.3385 -0.1265 -0.1462
  194MOL0     C26681   6.861   2.086   4.150  0.2543  1.3914  0.0551
  194MOL0     O26682   7.014   2.458   4.142 -0.4465  0.3515 -1.2813
  194MOL0     C26683   7.170   2.301   3.865 -0.6050 -0.0972 -1.1675
  194MOL0     C26684   7.268   2.328   3.767  0.3803  0.0963  0.0026
  194MOL0     N26685   7.544   2.414   3.079 -0.7862  0.5863 -0.0778
  194MOL0     N26686   7.515   2.324   2.995 -0.1520 -0.3019  0.3356
  194MOL0     C26687   8.462   1.834   2.384  0.0716 -1.1686 -0.4531
  194MOL0     C26688   8.518   1.783   2.271 -0.1731  0.4298  0.2501
  194MOL0     C26689   8.751   1.764   1.898  0.2752 -0.1298 -0.3439
  194MOL0     C26690   8.881   1.704   1.921  0.4980  0.6310 -0.3744
  194MOL0     C26691   8.976   1.688   1.817 -0.5378 -0.0558 -0.0329
  194MOL0     C26692   8.936   1.710   1.684 -0.7545  0.4742  0.0455
  194MOL0     O26693   9.007   1.682   1.573  0.2313 -0.4629  0.3176
  194MOL0     C26694   9.130   1.611   1.587 -0.0537  0.2653  0.8242
  194MOL0     C26695   9.165   1.541   1.457 -0.9204  0.5740  0.6164
  194MOL0     C26696   9.198   1.637   1.340 -0.1581  0.4650 -0.1861
  194MOL0     C26697   9.214   1.568   1.211 -0.0494  0.3353  1.0546
  194MOL0     C26698   9.089   1.512   1.151  0.1886  0.0862  0.4007
  194MOL0     C26699   9.006   1.458   1.083  0.0134  0.1310  0.5846
  194MOL0     C26700   8.805   1.761   1.665 -0.9070  0.7578  0.0977
  194MOL0     C26701   8.722   1.803   1.767 -0.0987 -0.0199 -0.0422
  194MOL0     C26702   8.612   1.893   1.726 -0.4858  0.8835  0.0289
  194MOL0     H26703   8.832   1.900   2.340 -0.1890  1.4378  1.3289
  194MOL0     H26704   8.715   1.967   2.557 -0.7926  1.7129 -0.4036
  194MOL0     H26705   8.301   1.844   2.623  0.2814 -0.9975 -2.9563
  194MOL0     H26706   8.261   1.969   2.501  1.0750  1.6120  0.0393
  194MOL0     H26707   8.295   2.031   2.812  0.9427 -1.2524 -0.0742
  194MOL0     H26708   8.272   2.140   2.675  1.1090 -0.7512  0.9638
  194MOL0     H26709   8.053   2.062   2.630  1.5510 -1.0077 -0.7524
  194MOL0     H26710   8.093   1.898   2.687 -0.6645  0.0923 -0.5087
  194MOL0     H26711   8.065   1.988   2.915 -2.9521 -3.8927  0.0484
  194MOL0     H26712   8.018   2.148   2.843 -4.4081  0.0779  0.0824
  194MOL0     H26713   7.851   1.894   2.814  0.4737 -0.6288  2.2250
  194MOL0     H26714   7.836   2.050   2.728  1.5999 -3.4758 -1.2691
  194MOL0     H26715   7.806   2.005   3.028  0.0622  1.2598  1.7135
  194MOL0     H26716   7.797   2.164   2.946  0.2245 -0.7706 -0.5813
  194MOL0     H26717   7.615   1.944   2.856 -2.1782  0.5017  0.8935
  194MOL0     H26718   7.598   2.115   2.819 -0.9484 -1.6161 -0.4900
  194MOL0     H26719   7.435   2.062   2.980  0.0460 -2.2774  0.6242
  194MOL0     H26720   7.549   1.988   3.076 -0.8126 -2.1596 -0.8895
  194MOL0     H26721   7.652   2.160   3.248  0.9219 -1.4646 -2.2404
  194MOL0     H26722   7.696   2.541   3.277 -1.8521  2.4923  1.2019
  194MOL0     H26723   7.739   2.396   3.362  0.0736  2.1106 -0.0047
  194MOL0     H26724   7.463   2.536   3.403 -0.0914 -0.0084 -0.2545
  194MOL0     H26725   7.505   2.375   3.462 -1.4410  0.6576  0.2879
  194MOL0     H26726   7.716   2.473   3.580 -0.5986  0.3778  1.9481
  194MOL0     H26727   7.672   2.628   3.522 -2.5263  2.1830  1.5555
  194MOL0     H26728   7.609   2.568   3.754  0.2093  0.3295 -0.4042
  194MOL0     H26729   7.476   2.641   3.670 -0.6020  0.4553 -0.3563
  194MOL0     H26730   7.428   2.593   3.898  3.3036 -2.4333 -2.6938
  194MOL0     H26731   7.349   2.660   4.097 -0.9290  1.3490  1.2543
  194MOL0     H26732   7.236   2.549   4.175  1.3418 -1.2424 -0.7235
  194MOL0     H26733   7.173   2.673   4.065 -0.2207 -0.4429 -4.0438
  194MOL0     H26734   6.759   2.408   4.156 -2.8007 -0.0368 -1.5538
  194MOL0     H26735   6.570   2.309   4.247  0.4301 -0.5134  0.0175
  194MOL0     H26736   6.545   2.113   4.517  1.9274  0.8144 -2.2677
  194MOL0     H26737   6.411   2.189   4.422 -1.5601 -0.9760  0.9278
  194MOL0     H26738   6.304   1.976   4.393  1.2995  2.6114 -1.9760
  194MOL0     H26739   6.435   1.892   4.491 -2.5244 -1.0863  1.5714
  194MOL0     H26740   6.252   2.113   4.583  0.5882 -0.7434 -0.5922
  194MOL0     H26741   6.396   2.056   4.670  0.0431  2.8221  0.4273
  194MOL0     H26742   6.296   1.816   4.649  0.3642  0.8850 -0.5432
  194MOL0     H26743   6.140   1.887   4.603 -0.1738  1.6709 -0.5838
  194MOL0     H26744   6.148   1.820   4.828  0.6310  0.4414  2.7413
  194MOL0     H26745   6.275   1.933   4.873  1.3430  0.2196 -0.7466
  194MOL0     H26746   6.057   2.068   4.749 -1.3730 -0.6541  0.1308
  194MOL0     H26747   6.119   2.090   4.909 -2.2901  1.5939 -0.0059
  194MOL0     H26748   5.983   1.891   4.976 -2.8127 -2.1737  0.0989
  194MOL0     H26749   5.906   1.884   4.820  0.5443 -1.0889  0.5144
  194MOL0     H26750   5.870   2.123   5.018 -0.4965 -1.3875  0.3164
  194MOL0     H26751   5.753   2.002   4.959  0.7966 -0.6070  0.4724
  194MOL0     H26752   6.760   1.920   4.249  2.1379 -0.1270 -0.2400
  194MOL0     H26753   6.929   2.022   4.094 -1.4520  0.2967 -0.8581
  194MOL0     H26754   7.104   2.218   3.842 -0.1732 -0.5013 -0.9695
  194MOL0     H26755   7.283   2.269   3.677 -1.2604 -0.1751 -0.1238
  194MOL0     H26756   8.355   1.813   2.392 -1.4022  5.0117  2.9999
  194MOL0     H26757   8.452   1.715   2.218  2.5570 -2.3627  0.1274
  194MOL0     H26758   8.905   1.679   2.023 -1.6743  1.9914  0.5462
  194MOL0     H26759   9.076   1.650   1.839 -0.2055  1.7391  1.9772
  194MOL0     H26760   9.211   1.668   1.632  2.8681 -0.4576 -3.0942
  194MOL0     H26761   9.118   1.533   1.664 -0.7358  0.4081  0.8723
  194MOL0     H26762   9.099   1.459   1.427  1.6310 -1.4226  0.0243
  194MOL0     H26763   9.257   1.484   1.473 -0.8669  0.7604  0.9891
  194MOL0     H26764   9.113   1.707   1.335 -0.5066  0.2201  1.5580
  194MOL0     H26765   9.295   1.682   1.361 -0.6377  2.0239 -1.1508
  194MOL0     H26766   9.284   1.484   1.222  0.0502  0.6621  3.5381
  194MOL0     H26767   9.254   1.643   1.142 -1.9911  0.0364 -0.4786
  194MOL0     H26768   8.953   1.412   1.003  1.3452 -3.1582  1.4032
  194MOL0     H26769   8.787   1.780   1.560  0.3434  1.1334 -0.0715
  194MOL0     H26770   8.612   1.985   1.785  1.3649 -0.5378  2.4726
  194MOL0     H26771   8.600   1.929   1.624 -0.1906  3.4073  0.8075
  194MOL0     H26772   8.521   1.832   1.734  0.0404 -0.1737 -1.6725
  195MOL0     O26773  10.784   1.094   6.771  0.4267  0.4599  0.1200
  195MOL0     C26774  10.724   0.988   6.794  0.7855  0.3785 -0.2193
  195MOL0     O26775  10.769   0.870   6.795 -0.5206  0.9707 -0.1804
  195MOL0     C26776  10.908   0.851   6.806  0.2863  0.3152 -0.1065
  195MOL0     C26777  10.960   0.733   6.745 -0.7397  0.4516 -0.9246
  195MOL0     C26778  11.090   0.691   6.769 -0.6290 -0.3516 -0.2865
  195MOL0     C26779  11.167   0.771   6.854  0.8923 -0.0418 -0.3764
  195MOL0     O26780  11.296   0.743   6.886 -0.2109  0.3156  0.2383
  195MOL0     C26781  11.386   0.681   6.790  0.5317 -0.7596 -0.2962
  195MOL0     C26782  11.518   0.749   6.825 -0.2768  0.6140  0.4945
  195MOL0     C26783  11.568   0.719   6.971 -0.0083 -0.3422  0.6810
  195MOL0     C26784  11.657   0.841   7.002 -1.8536 -0.6973 -0.2515
  195MOL0     C26785  11.697   0.835   7.153  1.2636 -0.9884  0.3199
  195MOL0     C26786  11.799   0.721   7.179  0.6874 -0.0272  0.7817
  195MOL0     C26787  11.837   0.709   7.324  0.2871 -0.3578  0.3776
  195MOL0     C26788  11.952   0.621   7.349  0.9143 -0.2807 -0.5064
  195MOL0     N26789  11.926   0.480   7.337 -0.8288  0.2060  0.6431
  195MOL0     C26790  11.947   0.378   7.430  0.2996  0.0641 -0.5129
  195MOL0     C26791  11.919   0.258   7.372 -0.1586 -0.6280  0.6933
  195MOL0     C26792  11.926   0.119   7.431  0.1855 -0.1832  0.4574
  195MOL0     C26793  12.074   0.067   7.428 -0.4155  0.8067  0.2722
  195MOL0     C26794  12.079  -0.091   7.438 -1.5516  0.2223  0.6731
  195MOL0     C26795  12.201  -0.177   7.416 -0.1988  0.4167 -0.5791
  195MOL0     O26796  12.298  -0.145   7.520 -0.6928  0.9226 -0.2687
  195MOL0     C26797  12.415  -0.088   7.469 -0.5348  0.1912  0.2430
  195MOL0     C26798  12.500  -0.174   7.400 -0.5737  0.4448  0.6364
  195MOL0     C26799  12.607  -0.115   7.325 -1.2661 -0.4892 -0.0529
  195MOL0     C26800  12.695  -0.200   7.237 -1.4628  0.2849  0.4320
  195MOL0     C26801  12.643   0.021   7.347  0.5806 -0.5651 -0.6703
  195MOL0     C26802  12.752   0.097   7.278  0.1802 -0.4886 -0.4501
  195MOL0     O26803  12.778   0.223   7.322 -0.5417 -0.2790  0.0882
  195MOL0     C26804  12.837   0.309   7.239 -0.0950 -0.2595 -0.0351
  195MOL0     C26805  12.777   0.342   7.121  0.6127  0.0435  0.1804
  195MOL0     C26806  12.834   0.429   7.033 -0.1916 -0.0013 -0.0086
  195MOL0     C26807  12.954   0.490   7.066  0.8029  0.2548 -0.4765
  195MOL0     O26808  13.023   0.580   6.974  0.3429 -0.6635  0.0469
  195MOL0     C26809  12.974   0.604   6.835  0.0595  0.5024  0.5175
  195MOL0     C26810  13.012   0.490   6.742 -1.1369  0.9153  0.3616
  195MOL0     C26811  13.027   0.538   6.596 -0.0305  0.5901  0.0239
  195MOL0     C26812  13.077   0.444   6.501  0.1284 -0.2019  0.3763
  195MOL0     C26813  12.999   0.314   6.516 -0.4857 -0.4512  0.5387
  195MOL0     C26814  12.864   0.327   6.440 -0.7417  0.5885 -0.1312
  195MOL0     C26815  12.863   0.306   6.289  0.8255  0.2284  0.0391
  195MOL0     C26816  12.718   0.292   6.234 -0.0644  0.2997 -0.6720
  195MOL0    Cl26817  12.644   0.144   6.288  0.0680  0.0433  0.6051
  195MOL0     C26818  13.021   0.455   7.184 -0.4261 -0.2492 -0.6221
  195MOL0     C26819  12.956   0.364   7.270  0.1400 -0.6112 -0.4321
  195MOL0     O26820  12.812   0.048   7.186 -0.0118 -0.2071 -0.2119
  195MOL0     C26821  12.560   0.102   7.433  0.4918  0.0796 -0.4331
  195MOL0     C26822  12.454   0.050   7.498  0.5205 -0.1229  0.2374
  195MOL0     N26823  11.871   0.286   7.244 -0.4572 -0.4604 -0.7823
  195MOL0     N26824  11.885   0.419   7.216  0.8553 -0.0425  0.1298
  195MOL0     C26825  11.117   0.887   6.911  1.3113 -0.3004  0.3076
  195MOL0     C26826  10.992   0.925   6.894  0.1991 -0.4400  0.6359
  195MOL0     C26827  10.576   1.000   6.816  0.0877 -0.4346 -0.2440
  195MOL0     C26828  10.489   0.946   6.720 -0.3939  0.6211  0.0432
  195MOL0     C26829  10.348   0.936   6.736 -0.5405 -1.2634  0.5518
  195MOL0     C26830  10.297   0.989   6.856  0.6064  0.5966  0.6061
  195MOL0     O26831  10.165   1.017   6.884  0.4877 -0.6499 -0.6839
  195MOL0     C26832  10.056   0.956   6.815 -0.6460 -0.8405  0.1713
  195MOL0     C26833  10.007   1.052   6.714  0.0114 -0.2904 -0.9920
  195MOL0     C26834   9.847   1.032   6.714 -0.1654 -0.7250 -0.3039
  195MOL0     C26835   9.786   1.117   6.595 -0.1950  0.3343  0.1766
  195MOL0     C26836   9.827   1.261   6.592  0.2710  0.5277  1.3960
  195MOL0     C26837   9.867   1.376   6.575  0.0472 -0.0175  0.3233
  195MOL0     C26838  10.383   1.045   6.951  0.0771  0.3232  0.0704
  195MOL0     C26839  10.520   1.062   6.927  0.2889 -0.5163  0.0921
  195MOL0     C26840  10.605   1.136   7.024 -0.0055  0.3032  0.7617
  195MOL0     H26841  10.903   0.671   6.677  0.9587 -1.7472 -0.4881
  195MOL0     H26842  11.119   0.591   6.737 -1.5147 -0.7050 -0.0333
  195MOL0     H26843  11.350   0.708   6.690 -2.9522 -0.6476  0.8440
  195MOL0     H26844  11.386   0.572   6.802 -1.0941 -0.8283 -0.6359
  195MOL0     H26845  11.592   0.717   6.752  2.2144  1.9830  2.2310
  195MOL0     H26846  11.506   0.854   6.795  1.7116  0.3055 -1.6029
  195MOL0     H26847  11.486   0.725   7.043  0.2617  1.3645  0.8928
  195MOL0     H26848  11.607   0.618   6.979  3.5930  0.7160 -1.2659
  195MOL0     H26849  11.744   0.849   6.936 -2.3125  0.5205 -0.7353
  195MOL0     H26850  11.603   0.934   6.986 -0.0376  0.3953 -0.3334
  195MOL0     H26851  11.609   0.814   7.214 -3.4661  3.5617 -3.9549
  195MOL0     H26852  11.736   0.936   7.174  1.0426 -1.0046  0.8190
  195MOL0     H26853  11.754   0.626   7.148 -2.4488  1.6223 -0.1158
  195MOL0     H26854  11.894   0.746   7.130 -0.1342  0.0150 -0.8450
  195MOL0     H26855  11.750   0.677   7.384 -1.3496  0.2821 -1.5470
  195MOL0     H26856  11.854   0.805   7.374 -1.4351 -0.4947  1.3127
  195MOL0     H26857  12.025   0.655   7.275  3.3050  1.7325  2.5251
  195MOL0     H26858  12.003   0.643   7.443 -0.7393 -0.7239  0.5402
  195MOL0     H26859  11.971   0.391   7.535 -0.0249 -0.4664 -0.3700
  195MOL0     H26860  11.860   0.055   7.373  2.2548 -0.4830 -1.7280
  195MOL0     H26861  11.878   0.102   7.527 -3.8572  0.6097 -1.2276
  195MOL0     H26862  12.125   0.093   7.335  0.5840  3.5062  1.4757
  195MOL0     H26863  12.137   0.115   7.504  1.8254  1.6570 -1.9823
  195MOL0     H26864  12.042  -0.116   7.538 -1.0452 -1.8743  0.3931
  195MOL0     H26865  12.018  -0.137   7.359  1.1646  2.3686 -3.0203
  195MOL0     H26866  12.181  -0.284   7.419 -1.0503  0.5911  0.7315
  195MOL0     H26867  12.243  -0.157   7.317 -1.2411  0.3842 -1.0377
  195MOL0     H26868  12.474  -0.279   7.391 -1.5316  0.4741  2.5784
  195MOL0     H26869  12.670  -0.306   7.252  2.1475 -0.8794 -0.7076
  195MOL0     H26870  12.798  -0.191   7.273 -1.5004 -2.3019  1.4313
  195MOL0     H26871  12.686  -0.189   7.129  1.6630 -3.8140 -0.4931
  195MOL0     H26872  12.693   0.287   7.082  0.4283  0.7211 -0.3852
  195MOL0     H26873  12.782   0.431   6.938  0.3988 -2.2886 -0.4253
  195MOL0     H26874  12.865   0.609   6.830 -0.0853 -1.1188  1.2402
  195MOL0     H26875  13.011   0.698   6.793 -0.5810  0.6088  0.1786
  195MOL0     H26876  13.113   0.460   6.772 -1.0280  0.2967 -0.5883
  195MOL0     H26877  12.932   0.417   6.752  0.6752 -1.3678 -0.7899
  195MOL0     H26878  13.092   0.625   6.592 -1.3470  1.6528  0.7736
  195MOL0     H26879  12.927   0.583   6.589 -0.0634  0.7986  1.5108
  195MOL0     H26880  13.180   0.424   6.531  0.1610 -0.5852  0.0337
  195MOL0     H26881  13.075   0.485   6.399  0.1853  2.5215  1.3982
  195MOL0     H26882  13.056   0.235   6.466  0.5062 -0.3128  1.4378
  195MOL0     H26883  12.974   0.277   6.615  0.7498 -2.4713  0.1487
  195MOL0     H26884  12.813   0.420   6.465 -2.0235  0.6985 -2.7704
  195MOL0     H26885  12.803   0.252   6.492  0.5473  1.0781  2.2537
  195MOL0     H26886  12.925   0.224   6.252  0.2821  0.0068 -0.3871
  195MOL0     H26887  12.912   0.393   6.244  0.4709 -0.3714 -1.6044
  195MOL0     H26888  12.707   0.304   6.126 -2.3999  2.4841 -0.2958
  195MOL0     H26889  12.662   0.370   6.286  1.6017  2.9022 -2.5534
  195MOL0     H26890  13.116   0.501   7.211 -1.9897  2.2242  1.0970
  195MOL0     H26891  12.993   0.336   7.368 -1.9674  0.5892  0.7864
  195MOL0     H26892  12.575   0.210   7.434 -0.0333  0.1730 -1.3351
  195MOL0     H26893  12.407   0.106   7.578  0.4845 -0.2204  0.2847
  195MOL0     H26894  11.182   0.948   6.972 -0.6431  1.0058  1.1965
  195MOL0     H26895  10.964   1.016   6.945 -3.7471 -0.3018 -1.4086
  195MOL0     H26896  10.520   0.914   6.621  1.1196  0.6531  0.4895
  195MOL0     H26897  10.279   0.903   6.659  1.4195 -3.6769 -0.3012
  195MOL0     H26898  10.078   0.858   6.771 -0.8164 -0.6947 -0.2427
  195MOL0     H26899   9.975   0.937   6.887 -1.5975 -1.5142 -1.0272
  195MOL0     H26900  10.044   1.028   6.614  2.9578 -1.1906  0.2030
  195MOL0     H26901  10.032   1.151   6.753 -2.0870 -0.0744 -0.0396
  195MOL0     H26902   9.824   0.925   6.709 -0.1634 -0.8581  1.6784
  195MOL0     H26903   9.822   1.065   6.816  2.4555  0.6889 -0.0270
  195MOL0     H26904   9.677   1.104   6.594  0.0150 -2.2189 -2.4066
  195MOL0     H26905   9.816   1.077   6.498 -3.2842 -2.1056  0.0747
  195MOL0     H26906   9.887   1.481   6.565  0.9301 -0.3177 -1.2742
  195MOL0     H26907  10.341   1.080   7.045  1.6875 -0.4272  1.1035
  195MOL0     H26908  10.693   1.074   7.046 -0.1060 -0.3418 -0.5796
  195MOL0     H26909  10.657   1.218   6.974  3.3304 -0.9163  1.9559
  195MOL0     H26910  10.554   1.180   7.110 -0.5225  3.4955 -1.0017
  196MOL0     O26911   3.912   6.251   2.089 -0.3243 -0.5338  0.4466
  196MOL0     C26912   3.940   6.215   2.204  0.4669  0.5310 -0.0547
  196MOL0     O26913   3.874   6.263   2.319  0.5135  0.8527 -0.9328
  196MOL0     C26914   3.769   6.347   2.313  0.2083  0.5584 -0.6322
  196MOL0     C26915   3.792   6.473   2.284  1.0446  0.0947 -0.2425
  196MOL0     C26916   3.686   6.570   2.276 -0.3535  0.4160 -0.1649
  196MOL0     C26917   3.559   6.527   2.293  0.5639 -0.6585  0.5700
  196MOL0     O26918   3.454   6.614   2.285  0.1206 -0.4539 -0.1154
  196MOL0     C26919   3.359   6.622   2.394  0.0033 -0.1501  0.7666
  196MOL0     C26920   3.251   6.719   2.363 -0.5517 -0.1359  0.1544
  196MOL0     C26921   3.295   6.863   2.377 -0.0709  1.0867 -0.4918
  196MOL0     C26922   3.412   6.927   2.297 -0.8398 -0.3608 -1.1057
  196MOL0     C26923   3.410   7.079   2.297 -0.6538  1.1398 -1.3396
  196MOL0     C26924   3.536   7.136   2.229  1.1687  1.0397 -0.6167
  196MOL0     C26925   3.644   7.201   2.313 -0.1553 -0.0624 -0.1043
  196MOL0     C26926   3.739   7.100   2.365 -0.8972 -0.0735  0.1984
  196MOL0     N26927   3.865   7.161   2.406  0.2524  0.4489  0.3032
  196MOL0     C26928   3.956   7.213   2.316  0.3016 -0.0407 -0.0543
  196MOL0     C26929   4.068   7.255   2.393  0.4904  0.2944 -0.6004
  196MOL0     C26930   4.186   7.338   2.355 -0.6909  0.4039  0.5878
  196MOL0     C26931   4.246   7.304   2.225  0.2673 -1.1699  0.1995
  196MOL0     C26932   4.284   7.159   2.210 -0.3460 -0.7427 -0.6570
  196MOL0     C26933   4.373   7.130   2.090 -0.5224  0.4224  0.4052
  196MOL0     O26934   4.392   6.989   2.074 -0.5440 -0.2737 -0.4169
  196MOL0     C26935   4.478   6.933   1.981  0.0794 -0.0959 -0.7013
  196MOL0     C26936   4.591   6.994   1.927 -0.2668 -1.2421  0.1573
  196MOL0     C26937   4.676   6.928   1.845 -0.2356  0.5204  0.3142
  196MOL0     C26938   4.803   6.991   1.809  0.0209 -0.0028  0.4802
  196MOL0     C26939   4.652   6.791   1.818  0.4359 -0.6658 -0.4739
  196MOL0     C26940   4.753   6.709   1.755  0.3420  0.1808 -1.5804
  196MOL0     O26941   4.701   6.599   1.691 -0.3426 -0.2245  0.7937
  196MOL0     C26942   4.790   6.541   1.608 -0.0811  0.8146 -0.1087
  196MOL0     C26943   4.757   6.549   1.479 -0.0972 -0.2515  0.5476
  196MOL0     C26944   4.823   6.466   1.391 -1.2896 -0.1276 -0.7504
  196MOL0     C26945   4.919   6.371   1.429  0.6704 -0.5177 -0.4821
  196MOL0     O26946   4.968   6.301   1.322 -0.6285 -0.3664 -0.3250
  196MOL0     C26947   5.042   6.181   1.340 -0.0937  0.0736 -0.9667
  196MOL0     C26948   4.954   6.065   1.384 -0.0484 -0.2961  0.0166
  196MOL0     C26949   5.029   5.957   1.457  0.1394 -0.1722 -0.2706
  196MOL0     C26950   5.092   5.841   1.375  0.6454 -0.1066 -0.8996
  196MOL0     C26951   5.223   5.874   1.292  0.9634  0.7399  0.6832
  196MOL0     C26952   5.267   5.754   1.212  0.3736 -1.0401 -0.7558
  196MOL0     C26953   5.172   5.701   1.104  0.5968  0.0347 -0.5425
  196MOL0     C26954   5.149   5.808   0.993  0.8553 -0.1895  0.2846
  196MOL0    Cl26955   5.032   5.933   1.046  0.0708 -0.0927 -0.1691
  196MOL0     C26956   4.961   6.366   1.558 -0.3417  0.8654 -0.6045
  196MOL0     C26957   4.895   6.453   1.649  0.1715  0.8928  0.0724
  196MOL0     O26958   4.874   6.735   1.761  0.1775 -0.5488  0.1919
  196MOL0     C26959   4.533   6.725   1.869  0.6312  1.2802 -0.3949
  196MOL0     C26960   4.448   6.795   1.955  0.7207  0.4035  0.5241
  196MOL0     N26961   4.041   7.208   2.530 -0.9736  0.0938  0.9600
  196MOL0     N26962   3.922   7.161   2.531  0.4062 -0.0714 -0.2250
  196MOL0     C26963   3.527   6.393   2.314  0.0522 -1.0421  0.1501
  196MOL0     C26964   3.640   6.295   2.322  0.1384 -0.1342  0.4944
  196MOL0     C26965   4.061   6.137   2.239 -0.3456 -0.9961  1.0055
  196MOL0     C26966   4.101   6.113   2.370 -0.1146 -0.4448 -0.2012
  196MOL0     C26967   4.205   6.027   2.408  0.4157 -0.4050 -0.2039
  196MOL0     C26968   4.295   5.971   2.314  0.5264 -0.9467 -0.3520
  196MOL0     O26969   4.408   5.900   2.339  0.6906  0.2326  0.0173
  196MOL0     C26970   4.436   5.842   2.468 -1.0796  0.3262  0.0838
  196MOL0     C26971   4.532   5.721   2.473  1.2168  0.4146  0.3667
  196MOL0     C26972   4.453   5.606   2.404  0.1350 -1.0165 -0.5042
  196MOL0     C26973   4.548   5.491   2.367  0.3531 -0.6167 -0.4045
  196MOL0     C26974   4.626   5.435   2.484  0.2874  0.1202 -0.1642
  196MOL0     C26975   4.704   5.405   2.569 -0.4296 -0.2044 -0.7029
  196MOL0     C26976   4.269   6.019   2.194 -0.7104  0.1935  0.8778
  196MOL0     C26977   4.153   6.084   2.149 -0.5683 -0.3672 -0.0702
  196MOL0     C26978   4.150   6.105   2.002  0.7834 -0.4124 -0.1595
  196MOL0     H26979   3.891   6.510   2.257  2.1529 -0.3917  2.7364
  196MOL0     H26980   3.716   6.670   2.244  1.7858 -0.1646 -0.1370
  196MOL0     H26981   3.410   6.642   2.488 -0.4267 -0.7333  1.1318
  196MOL0     H26982   3.308   6.526   2.407 -2.8863  0.8947 -1.7099
  196MOL0     H26983   3.218   6.698   2.261  2.9469 -0.7930 -1.0060
  196MOL0     H26984   3.173   6.698   2.437  1.2491 -0.7267  1.9804
  196MOL0     H26985   3.210   6.930   2.366 -1.9956 -1.4604 -2.5474
  196MOL0     H26986   3.330   6.861   2.481 -1.2280 -3.8180  0.0416
  196MOL0     H26987   3.507   6.899   2.344 -0.4719  3.4139  0.8067
  196MOL0     H26988   3.411   6.872   2.202  0.7363 -2.4597  0.0188
  196MOL0     H26989   3.395   7.116   2.398 -0.2109 -0.7072 -0.5481
  196MOL0     H26990   3.331   7.106   2.226 -0.2427  1.4298 -1.6954
  196MOL0     H26991   3.568   7.056   2.161 -2.6503 -1.1210 -0.1259
  196MOL0     H26992   3.504   7.214   2.160  1.2225 -0.9671 -3.0770
  196MOL0     H26993   3.593   7.238   2.403  2.9133 -1.4424  2.4050
  196MOL0     H26994   3.696   7.280   2.257 -0.9150 -1.2755 -2.6349
  196MOL0     H26995   3.702   7.054   2.457 -1.6239 -0.5094 -0.3144
  196MOL0     H26996   3.751   7.023   2.289  1.2402 -0.3597  0.7521
  196MOL0     H26997   3.954   7.224   2.208  1.5021 -2.3217 -0.3766
  196MOL0     H26998   4.269   7.321   2.423 -0.9251  1.4127  1.1418
  196MOL0     H26999   4.167   7.445   2.370 -0.8111  0.4222  0.3157
  196MOL0     H27000   4.185   7.340   2.142  0.7310 -0.5423  0.1147
  196MOL0     H27001   4.341   7.359   2.224  1.3132 -2.8807  1.3068
  196MOL0     H27002   4.332   7.118   2.299  1.2041 -1.5164 -1.8022
  196MOL0     H27003   4.190   7.108   2.187 -0.1460  0.6230 -5.6961
  196MOL0     H27004   4.341   7.167   1.992  0.4595 -2.8097 -1.2945
  196MOL0     H27005   4.466   7.186   2.102 -0.1111  0.9027 -3.5119
  196MOL0     H27006   4.607   7.096   1.960 -1.4268 -0.4685 -1.5078
  196MOL0     H27007   4.863   6.952   1.893 -1.3594 -1.4744  0.8272
  196MOL0     H27008   4.797   7.099   1.827  0.1229  0.0977 -0.0681
  196MOL0     H27009   4.848   6.970   1.712  0.0417 -0.1042  0.5116
  196MOL0     H27010   4.683   6.616   1.438  1.4143  1.0448 -0.1547
  196MOL0     H27011   4.781   6.459   1.291  1.4673 -2.6077 -1.8788
  196MOL0     H27012   5.100   6.147   1.255 -1.4126 -0.0667 -1.8435
  196MOL0     H27013   5.110   6.213   1.419 -0.7205  1.9112 -1.1166
  196MOL0     H27014   4.873   6.102   1.447  1.0052 -0.0929  1.2702
  196MOL0     H27015   4.905   6.015   1.299  0.9260 -0.1952 -0.6232
  196MOL0     H27016   4.948   5.924   1.522  0.5787  0.0911  0.4227
  196MOL0     H27017   5.108   5.995   1.523 -0.1067  1.7707 -1.0259
  196MOL0     H27018   4.999   5.811   1.325 -1.7628 -2.8579  4.3362
  196MOL0     H27019   5.100   5.745   1.429 -4.6403 -0.2662  0.1073
  196MOL0     H27020   5.232   5.963   1.230 -1.4067  0.5634 -0.0082
  196MOL0     H27021   5.301   5.874   1.368  3.0941  2.2867 -1.3802
  196MOL0     H27022   5.284   5.674   1.285  0.4875 -1.1534 -0.9072
  196MOL0     H27023   5.368   5.770   1.173  0.0016 -2.1918 -2.2499
  196MOL0     H27024   5.081   5.656   1.146 -0.0968 -0.8457 -2.8428
  196MOL0     H27025   5.220   5.610   1.068  2.4705 -0.3977  2.6784
  196MOL0     H27026   5.103   5.781   0.898 -0.2738 -0.8487  0.9929
  196MOL0     H27027   5.247   5.855   0.977  2.6252 -3.3536  0.9729
  196MOL0     H27028   5.049   6.306   1.580 -3.0866 -2.6808  1.9811
  196MOL0     H27029   4.901   6.435   1.756 -2.2033 -2.3237 -0.1914
  196MOL0     H27030   4.517   6.619   1.857  4.5456  0.4658  0.3132
  196MOL0     H27031   4.361   6.751   2.003  1.3402  0.3654  1.6464
  196MOL0     H27032   3.426   6.359   2.332 -0.5629  0.4360 -0.3388
  196MOL0     H27033   3.606   6.193   2.329 -0.8408 -0.0966 -2.4710
  196MOL0     H27034   4.050   6.169   2.448  0.5990  1.4681 -1.0285
  196MOL0     H27035   4.225   6.013   2.513  2.2704 -1.1582 -0.6207
  196MOL0     H27036   4.468   5.923   2.533 -2.2160  1.6157 -0.8968
  196MOL0     H27037   4.341   5.812   2.513 -3.5458  3.8182 -2.2074
  196MOL0     H27038   4.560   5.699   2.577 -0.8799 -0.8810  0.7177
  196MOL0     H27039   4.622   5.742   2.415 -0.6404  1.2203 -2.3793
  196MOL0     H27040   4.380   5.562   2.473 -0.4527 -0.1807 -0.5784
  196MOL0     H27041   4.403   5.629   2.309  1.0775 -3.5641 -1.6974
  196MOL0     H27042   4.629   5.532   2.308  0.7683 -1.7405 -0.6505
  196MOL0     H27043   4.491   5.409   2.321 -0.4474 -0.8491  0.9247
  196MOL0     H27044   4.773   5.395   2.650 -0.8830  2.5754  0.1350
  196MOL0     H27045   4.346   5.993   2.122  0.5302  0.9665  1.8754
  196MOL0     H27046   4.059   6.067   1.955  1.8056 -2.4649 -0.5844
  196MOL0     H27047   4.154   6.210   1.969  0.5840 -1.2231 -3.0150
  196MOL0     H27048   4.237   6.062   1.951 -2.0016 -3.6115 -2.6540
  197MOL0     O27049  11.359   6.720   1.499  0.4106 -0.5593  0.0881
  197MOL0     C27050  11.447   6.780   1.563  0.3606 -0.5024  0.4433
  197MOL0     O27051  11.555   6.722   1.630  0.1818 -0.1292  0.5675
  197MOL0     C27052  11.560   6.581   1.624 -0.5399 -0.1891 -0.3984
  197MOL0     C27053  11.639   6.526   1.526 -1.1208  0.3656 -0.2675
  197MOL0     C27054  11.648   6.385   1.518 -0.8410 -0.5244  0.2990
  197MOL0     C27055  11.594   6.303   1.623  0.3319 -0.5762 -0.4620
  197MOL0     O27056  11.608   6.167   1.618 -0.0288  0.8656 -0.7684
  197MOL0     C27057  11.743   6.115   1.595 -0.3614 -0.6006  0.6241
  197MOL0     C27058  11.740   5.963   1.580  0.4391  0.0587  0.8733
  197MOL0     C27059  11.643   5.926   1.461  0.4194 -0.1314 -0.6395
  197MOL0     C27060  11.621   5.774   1.472 -0.4557  0.1223 -1.0780
  197MOL0     C27061  11.743   5.693   1.475 -0.5708  0.1951  0.7236
  197MOL0     C27062  11.712   5.541   1.462  0.4879 -0.7488  0.3765
  197MOL0     C27063  11.839   5.459   1.509  1.5187  0.3651 -0.0207
  197MOL0     C27064  11.836   5.323   1.439 -0.2593 -0.6301 -0.3959
  197MOL0     N27065  11.937   5.228   1.494 -0.0922  0.0366 -0.0494
  197MOL0     C27066  12.071   5.256   1.500  0.3010  0.5645  0.7779
  197MOL0     C27067  12.131   5.166   1.579  0.0334 -0.0981 -0.4403
  197MOL0     C27068  12.278   5.147   1.603  0.6530  0.7654  0.1037
  197MOL0     C27069  12.300   5.153   1.753  0.4190  0.3772  0.0412
  197MOL0     C27070  12.296   5.289   1.808  0.2986 -0.1547 -0.3790
  197MOL0     C27071  12.157   5.331   1.846  1.0360 -0.4133 -0.3637
  197MOL0     O27072  12.142   5.462   1.910 -0.6422  0.2012 -1.2910
  197MOL0     C27073  12.017   5.509   1.942  0.4108  0.1536 -0.1487
  197MOL0     C27074  11.907   5.424   1.948  1.2416 -0.8433 -0.1463
  197MOL0     C27075  11.777   5.463   1.980  0.4115  0.4638 -0.3700
  197MOL0     C27076  11.668   5.350   1.986 -0.6552  0.1668  0.8123
  197MOL0     C27077  11.758   5.594   2.023  1.1233  0.2929  0.9045
  197MOL0     C27078  11.630   5.647   2.070  0.8803  0.9585 -1.0364
  197MOL0     O27079  11.621   5.779   2.105 -0.6102 -0.3803 -0.0772
  197MOL0     C27080  11.525   5.851   2.169  0.8526  0.1993  0.7444
  197MOL0     C27081  11.539   5.987   2.206 -0.3691 -0.2269 -0.1547
  197MOL0     C27082  11.431   6.067   2.255  0.0541  0.5219  0.4632
  197MOL0     C27083  11.303   5.999   2.279 -0.0305 -0.6199 -0.1554
  197MOL0     O27084  11.194   6.070   2.317  0.3080 -0.1373 -0.1893
  197MOL0     C27085  11.203   6.211   2.317  0.1163  1.5893 -0.1578
  197MOL0     C27086  11.065   6.283   2.356 -0.0459 -0.7276  0.1920
  197MOL0     C27087  11.079   6.434   2.319  0.2260  0.0436 -0.3319
  197MOL0     C27088  10.971   6.519   2.382 -0.4165 -0.2916  0.6905
  197MOL0     C27089  10.995   6.666   2.331 -0.3122  0.7130  0.1029
  197MOL0     C27090  10.892   6.699   2.219  0.1098  0.1121  0.5110
  197MOL0     C27091  10.883   6.848   2.176  0.3528  0.9928  0.3192
  197MOL0     C27092  10.777   6.862   2.069  0.1692  0.7097 -0.7885
  197MOL0    Cl27093  10.809   6.997   1.971  0.3475  0.1643  0.0150
  197MOL0     C27094  11.297   5.858   2.270  0.9720 -0.3561  0.0797
  197MOL0     C27095  11.407   5.793   2.216  1.4804 -0.0317 -0.3099
  197MOL0     O27096  11.532   5.570   2.077  1.3264  0.3306 -0.4297
  197MOL0     C27097  11.867   5.685   2.002 -0.0191 -0.4956  0.3223
  197MOL0     C27098  11.997   5.641   1.971  0.3339  1.2584  0.4436
  197MOL0     N27099  12.030   5.081   1.628 -0.8607  0.1260 -0.0789
  197MOL0     N27100  11.913   5.136   1.592 -0.0578 -0.1721 -0.0627
  197MOL0     C27101  11.524   6.360   1.729  0.0730  0.3641 -0.1784
  197MOL0     C27102  11.510   6.496   1.727  1.0655 -0.2618  0.3074
  197MOL0     C27103  11.436   6.929   1.577  0.5786 -0.1935  0.1308
  197MOL0     C27104  11.551   6.994   1.622  0.3151 -0.7371 -0.0540
  197MOL0     C27105  11.544   7.130   1.645 -0.3102 -0.3361 -0.3772
  197MOL0     C27106  11.431   7.210   1.612 -0.0700  0.2819  0.1264
  197MOL0     O27107  11.442   7.338   1.638 -0.9108  0.4541  0.5097
  197MOL0     C27108  11.332   7.423   1.642 -0.4467  0.3721  1.0079
  197MOL0     C27109  11.364   7.530   1.733  0.7778 -0.7001 -0.1713
  197MOL0     C27110  11.356   7.501   1.890  0.6496 -1.2440 -0.0259
  197MOL0     C27111  11.392   7.633   1.959 -0.5440 -0.3168 -0.5297
  197MOL0     C27112  11.540   7.652   1.972  0.4263  0.3389  0.5609
  197MOL0     C27113  11.661   7.673   1.986 -0.2036  0.1805 -0.8043
  197MOL0     C27114  11.314   7.137   1.571 -0.4767 -0.1044  0.0992
  197MOL0     C27115  11.314   6.996   1.553  0.0206 -0.5762  0.5886
  197MOL0     C27116  11.179   6.943   1.509 -0.7542 -0.1813  0.2860
  197MOL0     H27117  11.674   6.596   1.451 -1.3809 -0.8988 -1.6143
  197MOL0     H27118  11.692   6.353   1.424  0.1318  0.6125  0.3486
  197MOL0     H27119  11.808   6.136   1.681  4.0902 -1.6696 -2.1534
  197MOL0     H27120  11.785   6.164   1.507 -1.2193  1.5386  1.3244
  197MOL0     H27121  11.836   5.916   1.559 -0.3460 -0.8952 -0.7505
  197MOL0     H27122  11.699   5.928   1.674 -0.3708  1.5930  1.1285
  197MOL0     H27123  11.546   5.976   1.470  0.7039  0.0030  3.0907
  197MOL0     H27124  11.696   5.957   1.370 -2.3529  0.5675 -2.1255
  197MOL0     H27125  11.567   5.743   1.562  2.7616 -1.4535  0.4703
  197MOL0     H27126  11.572   5.740   1.380 -1.5875 -0.8061 -0.1681
  197MOL0     H27127  11.788   5.702   1.574 -1.7011  0.0135  1.2670
  197MOL0     H27128  11.824   5.711   1.403  1.6482 -1.1786  2.7274
  197MOL0     H27129  11.640   5.504   1.535  2.0308 -1.6099  1.5430
  197MOL0     H27130  11.670   5.523   1.363 -1.0188  0.0104  0.8538
  197MOL0     H27131  11.830   5.442   1.616 -1.1612 -2.7741 -0.6006
  197MOL0     H27132  11.936   5.504   1.485  0.9701  0.6387 -1.9165
  197MOL0     H27133  11.736   5.278   1.444 -0.5577 -0.0429 -0.8939
  197MOL0     H27134  11.858   5.332   1.332  0.2450 -0.4321 -0.2762
  197MOL0     H27135  12.125   5.333   1.446 -2.8776  1.5596 -1.2550
  197MOL0     H27136  12.346   5.208   1.543  2.1017 -0.9166 -0.0472
  197MOL0     H27137  12.298   5.049   1.559 -0.3025  1.3577 -1.7448
  197MOL0     H27138  12.233   5.088   1.810  0.8766 -0.7740 -0.6943
  197MOL0     H27139  12.400   5.121   1.785 -0.0286 -0.0004  1.1050
  197MOL0     H27140  12.369   5.300   1.890  0.0583  0.5011 -0.2475
  197MOL0     H27141  12.327   5.355   1.727  0.3446 -0.7187 -0.8231
  197MOL0     H27142  12.092   5.333   1.758 -0.9885 -2.2211  1.0028
  197MOL0     H27143  12.128   5.255   1.918 -0.9040  0.2594 -0.3782
  197MOL0     H27144  11.918   5.323   1.911  3.3473 -0.6693 -0.1340
  197MOL0     H27145  11.583   5.374   1.922 -2.5585 -2.3494  2.2257
  197MOL0     H27146  11.631   5.337   2.088 -1.3060 -1.3874  0.4112
  197MOL0     H27147  11.708   5.255   1.949  0.4095  1.0332 -0.3394
  197MOL0     H27148  11.629   6.046   2.191 -0.9747  1.4905  2.1959
  197MOL0     H27149  11.458   6.170   2.272  0.2900  0.8315 -1.5755
  197MOL0     H27150  11.281   6.253   2.381  1.3868 -0.5593 -0.1702
  197MOL0     H27151  11.226   6.244   2.216 -0.4445 -0.9516 -1.1872
  197MOL0     H27152  10.971   6.239   2.321 -0.8289  0.5014  0.6577
  197MOL0     H27153  11.066   6.265   2.464  2.7020 -1.1903  0.1723
  197MOL0     H27154  11.092   6.446   2.211  1.4578 -2.2346 -0.4901
  197MOL0     H27155  11.175   6.469   2.359  0.8537 -1.7689 -0.1728
  197MOL0     H27156  10.979   6.509   2.491  1.2579  1.8854  0.8404
  197MOL0     H27157  10.874   6.478   2.354 -0.4802 -0.3842  1.0374
  197MOL0     H27158  10.972   6.732   2.415  1.9099  4.2436 -1.8418
  197MOL0     H27159  11.100   6.685   2.309 -0.2647  0.0142 -0.3055
  197MOL0     H27160  10.796   6.668   2.260  0.2637 -2.4846 -0.8840
  197MOL0     H27161  10.926   6.647   2.129  1.4540  0.5779  0.7163
  197MOL0     H27162  10.976   6.884   2.130 -0.1198  0.8846 -0.7332
  197MOL0     H27163  10.858   6.903   2.267 -0.1366  0.7321  0.3455
  197MOL0     H27164  10.679   6.876   2.114  0.5412 -2.2150  1.1946
  197MOL0     H27165  10.779   6.772   2.008  2.6603  0.0637  0.1312
  197MOL0     H27166  11.224   5.783   2.298 -1.8050  2.0078 -0.3099
  197MOL0     H27167  11.399   5.685   2.200 -1.6811  0.0815 -0.1521
  197MOL0     H27168  11.859   5.793   2.015 -0.5713 -0.5030  0.0528
  197MOL0     H27169  12.079   5.712   1.967  0.5165  1.1118  1.3579
  197MOL0     H27170  11.483   6.313   1.817  1.0651  0.3081  0.2656
  197MOL0     H27171  11.451   6.542   1.806  0.6555  1.4351 -0.9174
  197MOL0     H27172  11.645   6.944   1.639  1.8634  2.4781  1.8234
  197MOL0     H27173  11.629   7.185   1.683  0.4670 -1.0407 -1.0575
  197MOL0     H27174  11.309   7.461   1.542  1.0941  0.1173  0.5327
  197MOL0     H27175  11.245   7.364   1.673 -1.5005  0.5327 -1.3583
  197MOL0     H27176  11.291   7.606   1.707  0.6357 -1.0396 -0.7833
  197MOL0     H27177  11.463   7.569   1.708  0.9541 -1.7508 -1.1989
  197MOL0     H27178  11.252   7.474   1.910 -0.3250  0.2953 -2.4541
  197MOL0     H27179  11.425   7.420   1.914  2.6968  0.6526  0.8136
  197MOL0     H27180  11.350   7.627   2.060  0.2984 -3.4452 -0.2641
  197MOL0     H27181  11.345   7.717   1.907  1.4780  0.6173 -0.9125
  197MOL0     H27182  11.764   7.694   2.008 -0.4939  3.1121 -1.8420
  197MOL0     H27183  11.219   7.173   1.536 -0.2194 -1.9922 -2.8978
  197MOL0     H27184  11.143   6.864   1.575  0.1875  0.4042  1.5362
  197MOL0     H27185  11.100   7.019   1.500 -2.9702 -2.5590 -2.4040
  197MOL0     H27186  11.177   6.901   1.408 -0.0145  1.6381 -0.5419
  198MOL0     O27187   5.831   9.552   2.723 -1.0288  0.1157 -0.1553
  198MOL0     C27188   5.824   9.557   2.844  1.0157  0.4970 -0.3274
  198MOL0     O27189   5.915   9.509   2.936 -0.1417 -0.3752 -0.6703
  198MOL0     C27190   6.034   9.443   2.897 -0.0144 -0.0597 -0.9418
  198MOL0     C27191   6.038   9.339   2.804 -0.2431 -0.3060  0.3824
  198MOL0     C27192   6.167   9.276   2.775  0.3665  0.1595 -0.0028
  198MOL0     C27193   6.276   9.314   2.843 -0.3367  0.6429 -0.4914
  198MOL0     O27194   6.400   9.266   2.828  0.6024 -0.2938 -0.1311
  198MOL0     C27195   6.413   9.142   2.765  0.5890  1.1585  0.2683
  198MOL0     C27196   6.557   9.111   2.777  0.2708  0.0235  0.1720
  198MOL0     C27197   6.579   8.972   2.716 -0.9034 -0.8216 -0.8090
  198MOL0     C27198   6.732   8.940   2.700  0.6427  0.3161 -0.0049
  198MOL0     C27199   6.758   8.801   2.650  0.5622 -0.1586  0.0062
  198MOL0     C27200   6.896   8.776   2.594 -0.5388  0.0380  1.3437
  198MOL0     C27201   7.020   8.757   2.688 -0.0531  0.1393  0.0114
  198MOL0     C27202   7.084   8.885   2.748 -0.1499  0.3108 -0.5918
  198MOL0     N27203   7.152   8.857   2.874 -0.0413 -0.4013  0.8211
  198MOL0     C27204   7.277   8.791   2.882 -0.5553 -0.8996  0.1046
  198MOL0     C27205   7.281   8.769   3.021 -0.0018 -0.4681 -0.1775
  198MOL0     C27206   7.396   8.703   3.087 -0.6062 -0.4690 -0.1426
  198MOL0     C27207   7.466   8.805   3.184  0.0230 -0.3969  0.2135
  198MOL0     C27208   7.465   8.755   3.331  0.1886  0.1603  0.3622
  198MOL0     C27209   7.535   8.619   3.356 -0.4538  0.0043 -0.0629
  198MOL0     O27210   7.435   8.515   3.375 -0.4851 -0.9570 -0.4928
  198MOL0     C27211   7.472   8.386   3.388 -0.6990 -1.0117 -0.7916
  198MOL0     C27212   7.376   8.293   3.418  1.0433 -0.3703  0.2031
  198MOL0     C27213   7.401   8.153   3.443 -0.2579 -0.4431  0.9446
  198MOL0     C27214   7.283   8.070   3.463  0.4659  0.8412  0.4985
  198MOL0     C27215   7.538   8.112   3.422  0.9904  0.4792 -1.0294
  198MOL0     C27216   7.580   7.969   3.421  0.8492  0.1838  0.4785
  198MOL0     O27217   7.500   7.881   3.503 -0.7297  0.5650 -0.8977
  198MOL0     C27218   7.519   7.740   3.525 -0.7229 -0.9187  0.8527
  198MOL0     C27219   7.575   7.659   3.418  0.4265 -1.0116  0.3356
  198MOL0     C27220   7.613   7.525   3.439  0.3067 -0.3773 -0.3526
  198MOL0     C27221   7.573   7.470   3.572  0.3004  0.5313  0.9400
  198MOL0     O27222   7.622   7.346   3.596  0.5129 -0.1699  0.1135
  198MOL0     C27223   7.562   7.251   3.687  0.1476 -0.1786 -0.0694
  198MOL0     C27224   7.619   7.109   3.673  0.2604 -0.4867 -0.8892
  198MOL0     C27225   7.574   7.064   3.526  0.2102 -0.0842 -0.4886
  198MOL0     C27226   7.569   6.917   3.518  0.3937 -0.0525 -0.0298
  198MOL0     C27227   7.591   6.870   3.372  0.5030 -0.2559  0.5981
  198MOL0     C27228   7.449   6.887   3.298 -0.3521  0.2645 -0.0108
  198MOL0     C27229   7.446   6.794   3.160 -0.4040  0.6292  0.7120
  198MOL0     C27230   7.314   6.726   3.131 -0.1060  0.3183 -0.2388
  198MOL0    Cl27231   7.201   6.860   3.077 -0.2287 -0.3539  0.4250
  198MOL0     C27232   7.494   7.546   3.655  0.1858  0.4221 -0.3003
  198MOL0     C27233   7.473   7.679   3.640  0.6344 -0.0068  0.9427
  198MOL0     O27234   7.682   7.934   3.358  0.6860  0.1781  0.5279
  198MOL0     C27235   7.629   8.206   3.371 -1.0027 -0.1333  0.6437
  198MOL0     C27236   7.605   8.344   3.363 -0.5974  0.3203 -0.1902
  198MOL0     N27237   7.166   8.822   3.085  0.2781  0.6827  0.7782
  198MOL0     N27238   7.100   8.870   2.993  0.8302 -0.2229  0.7152
  198MOL0     C27239   6.267   9.398   2.949 -0.3399 -0.7903 -0.7810
  198MOL0     C27240   6.147   9.467   2.970 -0.3836  1.0546 -0.0140
  198MOL0     C27241   5.714   9.635   2.896  0.4988  0.5925  0.7468
  198MOL0     C27242   5.718   9.686   3.030 -0.5390  0.5241  0.3370
  198MOL0     C27243   5.619   9.766   3.083 -1.2715  0.6692 -0.6662
  198MOL0     C27244   5.532   9.830   2.997 -0.5511  0.4879 -0.3185
  198MOL0     O27245   5.458   9.930   3.029  0.3557  0.6763  0.1188
  198MOL0     C27246   5.340   9.891   3.086 -0.4834 -0.3508 -0.8517
  198MOL0     C27247   5.224   9.940   3.014 -0.6428  0.2814 -0.9856
  198MOL0     C27248   5.082   9.898   3.067 -0.2918 -0.2934 -0.2567
  198MOL0     C27249   5.040   9.976   3.192  0.8885  0.5707 -0.2312
  198MOL0     C27250   5.129   9.959   3.310  0.4712 -0.1679  0.2528
  198MOL0     C27251   5.180   9.934   3.420  0.2115 -1.7445  0.2100
  198MOL0     C27252   5.516   9.776   2.873  0.2847  0.4926 -0.2541
  198MOL0     C27253   5.595   9.666   2.822 -0.0033 -0.1764  0.0930
  198MOL0     C27254   5.543   9.601   2.693  0.4565  0.1065  0.1289
  198MOL0     H27255   5.943   9.317   2.755 -1.7306  1.7494  2.1599
  198MOL0     H27256   6.179   9.215   2.686  0.1229  3.2513 -2.3312
  198MOL0     H27257   6.392   9.151   2.658  2.9716 -1.4909 -0.5487
  198MOL0     H27258   6.349   9.067   2.812  1.7977  0.2546  0.5350
  198MOL0     H27259   6.598   9.185   2.708 -2.6804  1.3905 -0.2773
  198MOL0     H27260   6.599   9.117   2.878  0.2721  1.3898  0.1014
  198MOL0     H27261   6.530   8.899   2.781 -1.3168  0.1480 -0.0018
  198MOL0     H27262   6.535   8.958   2.616 -2.0977  1.1605 -0.6226
  198MOL0     H27263   6.773   9.008   2.624  3.3376 -1.6347 -0.4546
  198MOL0     H27264   6.773   8.971   2.796 -0.7993 -0.2361  0.8135
  198MOL0     H27265   6.684   8.774   2.574 -0.4362  2.1517  0.0416
  198MOL0     H27266   6.723   8.739   2.732  0.6989  0.4893  0.5650
  198MOL0     H27267   6.891   8.696   2.520 -1.7619  0.4686  0.9414
  198MOL0     H27268   6.913   8.861   2.528 -0.0708  0.2404  1.7120
  198MOL0     H27269   7.102   8.712   2.631  1.6694  0.8782  1.8212
  198MOL0     H27270   7.000   8.674   2.758 -1.8223 -1.3510 -2.0989
  198MOL0     H27271   7.153   8.938   2.682 -0.0034  0.8997  0.0232
  198MOL0     H27272   6.998   8.946   2.777  1.1464  0.4953  3.3843
  198MOL0     H27273   7.351   8.753   2.812 -0.2138 -3.2678  1.6160
  198MOL0     H27274   7.471   8.668   3.015 -0.1383  3.4442 -1.8221
  198MOL0     H27275   7.350   8.624   3.146  3.9769 -2.7843  0.7655
  198MOL0     H27276   7.565   8.826   3.143 -0.4170 -2.1861 -1.9458
  198MOL0     H27277   7.410   8.899   3.196 -1.6850 -1.5203  1.6754
  198MOL0     H27278   7.512   8.834   3.391 -0.3520  1.1670 -0.4858
  198MOL0     H27279   7.365   8.760   3.374  0.6282 -1.9456  1.7629
  198MOL0     H27280   7.610   8.607   3.277  1.4163  3.0539  1.0302
  198MOL0     H27281   7.592   8.621   3.450 -0.6499 -2.6912  0.1744
  198MOL0     H27282   7.274   8.328   3.410  1.5199  0.8015 -1.5044
  198MOL0     H27283   7.194   8.131   3.480 -0.1309 -0.6328  3.3504
  198MOL0     H27284   7.296   8.011   3.555  1.1671 -0.2222 -0.2581
  198MOL0     H27285   7.266   7.999   3.382  1.4175 -2.6968  3.1168
  198MOL0     H27286   7.625   7.694   3.329 -0.5337 -0.3868  0.0273
  198MOL0     H27287   7.668   7.467   3.366  1.2966  1.3469 -1.0332
  198MOL0     H27288   7.597   7.276   3.788  2.6613 -0.4393 -0.8248
  198MOL0     H27289   7.453   7.256   3.693  0.2383  3.6159  1.1053
  198MOL0     H27290   7.726   7.112   3.691 -0.2496 -2.3053  3.6889
  198MOL0     H27291   7.573   7.054   3.755 -2.0700  0.3408 -1.5506
  198MOL0     H27292   7.649   7.098   3.454  0.6392 -0.2548 -0.1272
  198MOL0     H27293   7.474   7.100   3.499 -0.4007 -1.0011  0.4707
  198MOL0     H27294   7.469   6.896   3.558  0.9225  0.6785  1.8163
  198MOL0     H27295   7.642   6.861   3.578  1.8498 -0.0134 -1.6831
  198MOL0     H27296   7.666   6.932   3.323 -2.6600  0.7431 -3.5384
  198MOL0     H27297   7.618   6.763   3.370 -2.0382 -0.9546  0.6486
  198MOL0     H27298   7.425   6.989   3.267  0.3541 -0.8311 -5.0611
  198MOL0     H27299   7.378   6.845   3.370 -0.6958  1.4036  0.3300
  198MOL0     H27300   7.523   6.717   3.178 -0.3437  0.1220 -1.4424
  198MOL0     H27301   7.478   6.856   3.075  1.2866  0.9835  1.5540
  198MOL0     H27302   7.280   6.667   3.216 -1.4965 -0.4481 -1.2906
  198MOL0     H27303   7.322   6.660   3.044 -1.3137  1.1516 -1.0176
  198MOL0     H27304   7.462   7.511   3.752 -1.3804 -0.8280 -1.2293
  198MOL0     H27305   7.412   7.738   3.707  0.1697 -2.1431  2.5156
  198MOL0     H27306   7.730   8.173   3.348 -1.8177 -1.9603 -0.5308
  198MOL0     H27307   7.686   8.410   3.336 -1.0174  0.8619 -0.1454
  198MOL0     H27308   6.351   9.403   3.018  0.2127 -2.1387 -1.3166
  198MOL0     H27309   6.147   9.536   3.054  2.2378  2.0349 -0.7041
  198MOL0     H27310   5.805   9.655   3.088 -0.2537 -2.6453 -1.5226
  198MOL0     H27311   5.623   9.810   3.183 -3.4746  2.1250 -1.1427
  198MOL0     H27312   5.337   9.782   3.093  1.1339 -0.3369  0.7351
  198MOL0     H27313   5.344   9.938   3.185 -0.0076  2.4668 -2.1161
  198MOL0     H27314   5.240   9.894   2.916 -0.7986 -2.0070  0.0048
  198MOL0     H27315   5.226  10.049   3.004 -1.9171  0.4705  0.4563
  198MOL0     H27316   5.017   9.901   2.979 -0.5935 -3.4920 -0.2658
  198MOL0     H27317   5.091   9.791   3.088 -1.8288 -0.5412 -0.7593
  198MOL0     H27318   4.941   9.936   3.219  2.6181 -3.2775  1.0687
  198MOL0     H27319   5.045  10.085   3.187  3.0078  0.5833  1.1277
  198MOL0     H27320   5.210   9.904   3.518 -0.5630 -0.4955  0.8520
  198MOL0     H27321   5.432   9.812   2.814 -1.7849 -0.8616  1.7089
  198MOL0     H27322   5.573   9.496   2.692 -1.7575 -0.5699 -0.5715
  198MOL0     H27323   5.434   9.602   2.679  0.1122  0.7457  2.3997
  198MOL0     H27324   5.592   9.653   2.610  0.3272  0.7833  0.4632
  199MOL0     O27325  11.275   3.680   9.370 -0.4054  0.3149 -0.4525
  199MOL0     C27326  11.158   3.710   9.364 -0.1031 -0.5120 -0.0427
  199MOL0     O27327  11.069   3.686   9.255  0.4919  0.5050  0.5332
  199MOL0     C27328  11.122   3.617   9.146  0.8869 -0.0247  0.2587
  199MOL0     C27329  11.124   3.475   9.141  0.4201 -0.4864 -0.1401
  199MOL0     C27330  11.185   3.418   9.035 -1.5349 -0.1133  0.3463
  199MOL0     C27331  11.218   3.484   8.926  0.6486 -1.0102  0.3435
  199MOL0     O27332  11.268   3.420   8.814 -0.3692 -0.0312 -0.4679
  199MOL0     C27333  11.185   3.439   8.699  0.3241  0.9236  0.2101
  199MOL0     C27334  11.163   3.306   8.624  0.0436  0.4351 -0.1716
  199MOL0     C27335  11.111   3.195   8.714 -0.4045 -0.4425  0.5540
  199MOL0     C27336  11.083   3.069   8.636  1.2522 -0.0498  0.5579
  199MOL0     C27337  11.022   2.944   8.699 -0.8018 -1.1846  0.4359
  199MOL0     C27338  11.027   2.814   8.606 -0.3124  0.1591 -0.0015
  199MOL0     C27339  10.915   2.831   8.507 -0.5797  0.4532 -0.0735
  199MOL0     C27340  10.892   2.709   8.415  0.2215 -0.8023 -0.2104
  199MOL0     N27341  10.892   2.574   8.478 -0.1581  0.2074  0.4204
  199MOL0     C27342  10.780   2.522   8.533  0.4289  0.3276  0.0062
  199MOL0     C27343  10.834   2.404   8.581 -0.0517  0.2225 -0.2612
  199MOL0     C27344  10.740   2.297   8.627 -0.0840  0.1191 -0.2553
  199MOL0     C27345  10.802   2.216   8.745 -0.5612  0.4355 -0.8696
  199MOL0     C27346  10.720   2.103   8.799  0.2142  0.5819  0.2680
  199MOL0     C27347  10.758   2.064   8.939  0.5640 -0.1187  0.3496
  199MOL0     O27348  10.634   2.026   9.008  0.2109  0.6418  0.2737
  199MOL0     C27349  10.642   1.935   9.112 -0.5848 -0.5523  0.0476
  199MOL0     C27350  10.747   1.936   9.209 -0.3481 -0.2077 -0.2851
  199MOL0     C27351  10.746   1.851   9.323  0.6327 -1.3051  0.4957
  199MOL0     C27352  10.854   1.869   9.419 -0.2196 -0.5880  0.6417
  199MOL0     C27353  10.633   1.767   9.340 -0.0041 -0.0878 -0.2795
  199MOL0     C27354  10.626   1.653   9.430 -0.0252  0.6562 -0.5872
  199MOL0     O27355  10.551   1.542   9.393  0.4738 -0.1738 -0.1964
  199MOL0     C27356  10.539   1.430   9.475 -0.0008 -0.8204 -0.8547
  199MOL0     C27357  10.433   1.350   9.446  0.6830  0.2336 -0.5956
  199MOL0     C27358  10.415   1.218   9.518  0.1382  0.0952  0.4528
  199MOL0     C27359  10.515   1.175   9.601  0.3572 -0.7736  0.0427
  199MOL0     O27360  10.518   1.063   9.676  0.2147  0.4182 -0.0647
  199MOL0     C27361  10.405   0.981   9.664  0.6360  0.2666  0.0919
  199MOL0     C27362  10.404   0.870   9.767 -0.1591  0.1346 -0.0867
  199MOL0     C27363  10.475   0.743   9.750 -0.1376  0.0060  0.4817
  199MOL0     C27364  10.430   0.633   9.846  0.1681 -0.1482  0.5729
  199MOL0     C27365  10.499   0.497   9.814  0.1748  0.7668  0.7781
  199MOL0     C27366  10.521   0.411   9.940 -0.2973 -0.0519 -0.6346
  199MOL0     C27367  10.576   0.269   9.931  0.0884 -0.3612  0.0853
  199MOL0     C27368  10.717   0.269   9.870 -1.1327 -0.1747 -1.0263
  199MOL0    Cl27369  10.707   0.309   9.691  0.0453  0.4752 -0.6846
  199MOL0     C27370  10.620   1.261   9.634 -0.2226  0.0046  0.3110
  199MOL0     C27371  10.632   1.386   9.571 -0.0126  0.5994  0.0402
  199MOL0     O27372  10.678   1.669   9.538 -0.1522 -0.3407 -0.1572
  199MOL0     C27373  10.526   1.767   9.242  0.0452  0.0843  0.5788
  199MOL0     C27374  10.534   1.852   9.128  0.3841  0.1550 -0.4754
  199MOL0     N27375  10.958   2.382   8.526  0.8348 -0.5233 -0.5579
  199MOL0     N27376  11.005   2.487   8.483  0.7441 -0.5025 -0.2845
  199MOL0     C27377  11.198   3.627   8.918 -0.2314  0.8678 -0.2954
  199MOL0     C27378  11.161   3.693   9.034  0.0037  0.2234 -0.3224
  199MOL0     C27379  11.093   3.771   9.483 -0.4435 -0.4381  1.0339
  199MOL0     C27380  10.990   3.701   9.544  0.6685  0.8054  0.7382
  199MOL0     C27381  10.929   3.745   9.663  0.7442 -0.1554 -0.0816
  199MOL0     C27382  10.964   3.869   9.712 -0.8383  0.7885  0.3509
  199MOL0     O27383  10.923   3.897   9.840 -0.0303  1.0813 -0.1231
  199MOL0     C27384  10.968   4.005   9.912  0.1351 -0.3144 -0.5850
  199MOL0     C27385  10.898   3.996  10.044  0.3400  0.1665 -0.4824
  199MOL0     C27386  10.748   3.998  10.018 -0.9688  0.0222 -0.1290
  199MOL0     C27387  10.678   3.981  10.156 -1.1819 -0.4938  0.9756
  199MOL0     C27388  10.535   4.018  10.130  0.3739  0.1202 -0.1841
  199MOL0     C27389  10.423   4.068  10.103 -0.8643  0.5777 -0.1036
  199MOL0     C27390  11.070   3.942   9.650  0.8497 -0.5509  0.3475
  199MOL0     C27391  11.131   3.891   9.535 -0.5473  0.6115  0.1727
  199MOL0     C27392  11.240   3.974   9.481 -0.0150 -0.4955 -0.4952
  199MOL0     H27393  11.082   3.409   9.217 -0.7449  0.7675  0.3279
  199MOL0     H27394  11.199   3.311   9.024 -1.3495  0.1469 -3.1104
  199MOL0     H27395  11.227   3.512   8.629  2.8216 -1.3311 -0.8586
  199MOL0     H27396  11.085   3.475   8.724  0.5293  1.9283 -0.3774
  199MOL0     H27397  11.110   3.320   8.529 -1.4466  0.9900  0.7015
  199MOL0     H27398  11.261   3.263   8.602  0.2709  2.1542 -2.9745
  199MOL0     H27399  11.176   3.165   8.796  0.0916 -1.7363 -0.2965
  199MOL0     H27400  11.019   3.232   8.762  0.8986  0.3806  2.5828
  199MOL0     H27401  11.016   3.097   8.554  1.0204 -0.6471  0.5431
  199MOL0     H27402  11.172   3.031   8.585 -0.2266 -3.8187  0.5060
  199MOL0     H27403  10.923   2.975   8.735 -0.0289  0.0183  1.6338
  199MOL0     H27404  11.080   2.918   8.788 -0.3554 -1.0241  0.1967
  199MOL0     H27405  11.122   2.804   8.551  0.8602 -0.3996  2.0164
  199MOL0     H27406  11.013   2.719   8.659  1.5279 -0.7774 -1.0548
  199MOL0     H27407  10.937   2.912   8.436 -2.4455 -1.5373 -3.1436
  199MOL0     H27408  10.822   2.857   8.558 -0.6412  2.0024 -0.9282
  199MOL0     H27409  10.803   2.735   8.357  0.5331  1.1776  0.1416
  199MOL0     H27410  10.968   2.716   8.336 -0.3308  1.7451 -0.5984
  199MOL0     H27411  10.675   2.548   8.531  0.4733  0.7111  1.5130
  199MOL0     H27412  10.736   2.228   8.543  1.5129 -1.0174  0.5429
  199MOL0     H27413  10.637   2.331   8.642 -1.1218 -1.8879 -2.2319
  199MOL0     H27414  10.898   2.175   8.712 -0.1363 -0.6069  1.4643
  199MOL0     H27415  10.831   2.291   8.819 -0.0486 -0.1315 -0.4985
  199MOL0     H27416  10.614   2.126   8.788 -0.0876  1.1888  3.5232
  199MOL0     H27417  10.734   2.021   8.728  0.0822  2.0678 -1.5359
  199MOL0     H27418  10.821   1.975   8.932 -2.2753 -2.4184  1.8452
  199MOL0     H27419  10.821   2.138   8.989  2.7046 -0.8639 -1.1141
  199MOL0     H27420  10.832   2.000   9.188 -0.0299 -0.4972  0.1089
  199MOL0     H27421  10.932   1.937   9.384  0.6926 -0.0292  3.4285
  199MOL0     H27422  10.891   1.772   9.454 -1.3475 -0.4680  2.3101
  199MOL0     H27423  10.812   1.921   9.507 -2.9498  0.0887 -0.9534
  199MOL0     H27424  10.351   1.371   9.378  1.1863  0.8745 -1.0205
  199MOL0     H27425  10.329   1.158   9.487 -0.6239  1.4849 -0.2431
  199MOL0     H27426  10.309   1.030   9.675  1.8139  2.5112  1.0383
  199MOL0     H27427  10.404   0.941   9.562  3.0475 -1.6066  0.6950
  199MOL0     H27428  10.443   0.912   9.860  1.7380 -4.1876  1.3072
  199MOL0     H27429  10.301   0.833   9.779 -0.2939  1.2006  2.5784
  199MOL0     H27430  10.582   0.754   9.770  0.0096 -0.3560 -0.0786
  199MOL0     H27431  10.458   0.722   9.644 -1.2068  5.9584 -0.8806
  199MOL0     H27432  10.322   0.613   9.846  0.0350  0.4420  1.9915
  199MOL0     H27433  10.458   0.662   9.948 -0.7212 -1.0428  1.0931
  199MOL0     H27434  10.454   0.432   9.738  1.0441 -0.9981  1.7135
  199MOL0     H27435  10.591   0.518   9.759 -0.9228  0.4048 -1.3145
  199MOL0     H27436  10.424   0.385   9.984  0.7841 -1.4726  1.0469
  199MOL0     H27437  10.586   0.462  10.012 -1.8795 -0.4805  1.2008
  199MOL0     H27438  10.507   0.204   9.877  1.2931 -3.2321  1.7689
  199MOL0     H27439  10.566   0.226  10.031 -0.8299  3.4274  1.8289
  199MOL0     H27440  10.759   0.169   9.882 -2.1047 -0.3800  1.1638
  199MOL0     H27441  10.780   0.337   9.927 -0.5983  1.0718 -2.9945
  199MOL0     H27442  10.696   1.234   9.706 -0.8794  2.7017  2.1720
  199MOL0     H27443  10.723   1.443   9.581  0.2741 -0.2313  2.8126
  199MOL0     H27444  10.436   1.707   9.245  1.3869 -2.2683 -1.6543
  199MOL0     H27445  10.441   1.847   9.072 -0.4018  0.0964  0.7977
  199MOL0     H27446  11.210   3.688   8.829 -2.0993  1.2530 -0.3258
  199MOL0     H27447  11.147   3.800   9.033  0.3499  0.2758  0.2494
  199MOL0     H27448  10.964   3.604   9.503 -1.9062  0.9606  1.8151
  199MOL0     H27449  10.848   3.703   9.723  1.7654 -1.1973  0.6189
  199MOL0     H27450  11.076   3.987   9.920  0.9554  3.3437 -1.4849
  199MOL0     H27451  10.943   4.101   9.866 -2.0862 -0.7070 -0.3221
  199MOL0     H27452  10.914   4.083  10.108 -1.1949  1.5614 -1.9151
  199MOL0     H27453  10.925   3.901  10.091 -1.9468 -1.7526 -2.7225
  199MOL0     H27454  10.709   4.093   9.981  0.2668  0.4953 -0.2555
  199MOL0     H27455  10.722   3.921   9.944 -0.7642 -0.6434  0.4750
  199MOL0     H27456  10.717   4.054  10.228 -2.8865  1.1306  0.3238
  199MOL0     H27457  10.677   3.881  10.200 -3.4866  0.1704  2.6155
  199MOL0     H27458  10.322   4.084  10.071 -0.7937  1.5106  0.1228
  199MOL0     H27459  11.097   4.038   9.691 -0.0606 -0.7482  1.4513
  199MOL0     H27460  11.218   4.001   9.377 -2.7284 -0.9374 -0.1149
  199MOL0     H27461  11.260   4.055   9.551  1.6688  0.2419 -1.7448
  199MOL0     H27462  11.327   3.909   9.476  1.1657  0.8300  1.4404
  200MOL0     O27463   6.914   2.988   8.324  0.8475  0.5556 -0.1429
  200MOL0     C27464   6.837   2.894   8.342 -0.6271 -0.7433  0.6452
  200MOL0     O27465   6.882   2.764   8.343  1.1951 -0.7153 -0.1647
  200MOL0     C27466   7.016   2.736   8.337 -0.2059 -0.0638  0.1310
  200MOL0     C27467   7.062   2.625   8.258  0.1549  0.5437  0.1795
  200MOL0     C27468   7.194   2.599   8.245  0.1730 -0.4233 -0.5803
  200MOL0     C27469   7.287   2.686   8.306 -0.6593  0.2007  0.7538
  200MOL0     O27470   7.408   2.649   8.259  0.8696 -0.2327  0.5481
  200MOL0     C27471   7.518   2.716   8.318  0.5645  0.7102  0.6145
  200MOL0     C27472   7.652   2.687   8.249 -0.4026  0.1530 -0.7779
  200MOL0     C27473   7.760   2.792   8.292 -0.1438 -0.1117  0.0131
  200MOL0     C27474   7.897   2.741   8.247 -0.1538 -0.2778 -0.3078
  200MOL0     C27475   8.010   2.821   8.312  0.7846  0.1331  0.2055
  200MOL0     C27476   8.131   2.808   8.212  0.5029  0.2539 -0.9587
  200MOL0     C27477   8.177   2.670   8.188 -0.1936  0.0746 -0.3800
  200MOL0     C27478   8.242   2.604   8.310  0.4684 -0.2054 -0.0274
  200MOL0     N27479   8.197   2.463   8.313 -0.2311 -0.1315 -0.6085
  200MOL0     C27480   8.093   2.424   8.392 -0.0596  0.2198 -0.3864
  200MOL0     C27481   8.086   2.287   8.366 -0.3257  1.0095  0.7589
  200MOL0     C27482   8.001   2.185   8.426  0.9976  0.7621 -1.0337
  200MOL0     C27483   8.057   2.125   8.558 -0.0025 -0.5840  0.4377
  200MOL0     C27484   8.061   1.968   8.567 -0.2299 -0.5841  0.1770
  200MOL0     C27485   8.145   1.919   8.685 -0.4074  0.7980 -0.6521
  200MOL0     O27486   8.280   1.958   8.662  0.2430  0.3840  0.4223
  200MOL0     C27487   8.374   1.898   8.749 -0.2284 -0.6553  0.4781
  200MOL0     C27488   8.488   1.978   8.754 -1.2390 -0.3149  0.6591
  200MOL0     C27489   8.595   1.941   8.838 -0.1288 -0.4855  0.5685
  200MOL0     C27490   8.706   2.045   8.836 -0.7895 -0.0157  0.8594
  200MOL0     C27491   8.593   1.818   8.904 -0.3041  0.6994 -0.0245
  200MOL0     C27492   8.717   1.766   8.966 -0.0950  0.6616 -0.1912
  200MOL0     O27493   8.707   1.743   9.095  0.9694 -0.2775 -1.0308
  200MOL0     C27494   8.823   1.724   9.169  1.0260  0.0816  0.1241
  200MOL0     C27495   8.820   1.641   9.283 -0.1929  0.0459 -0.3235
  200MOL0     C27496   8.935   1.619   9.365  0.5418 -0.4363 -0.5222
  200MOL0     C27497   9.052   1.685   9.330 -0.2038  0.2838  0.2828
  200MOL0     O27498   9.166   1.681   9.401  0.4991  0.1856 -0.1354
  200MOL0     C27499   9.168   1.581   9.506  0.0754  0.1294 -0.3467
  200MOL0     C27500   9.314   1.584   9.558 -0.2945 -0.3022  0.1549
  200MOL0     C27501   9.356   1.699   9.646 -0.2528 -0.3313 -0.6923
  200MOL0     C27502   9.496   1.673   9.700 -0.2144  0.0344  0.0930
  200MOL0     C27503   9.559   1.794   9.752 -0.4011  1.3905 -0.7205
  200MOL0     C27504   9.640   1.879   9.653  0.2522 -0.1783 -0.2424
  200MOL0     C27505   9.773   1.932   9.703  0.3858 -0.1867  0.7422
  200MOL0     C27506   9.814   2.026   9.590 -0.9558  0.5255 -0.0080
  200MOL0    Cl27507   9.969   2.093   9.646 -0.0531  0.4614 -0.8051
  200MOL0     C27508   9.044   1.782   9.225  0.2914 -0.2486 -0.5291
  200MOL0     C27509   8.936   1.804   9.142  0.6349 -0.4035  0.4201
  200MOL0     O27510   8.811   1.742   8.893  0.2405  0.5584  0.7592
  200MOL0     C27511   8.476   1.732   8.909  0.1985 -0.8227  0.1560
  200MOL0     C27512   8.363   1.779   8.828 -0.4868 -0.5133 -0.0790
  200MOL0     N27513   8.189   2.254   8.283 -0.2547  0.9964  0.0867
  200MOL0     N27514   8.257   2.361   8.260 -0.1674  0.6840  0.0528
  200MOL0     C27515   7.246   2.794   8.387  0.5402 -0.3605  0.2285
  200MOL0     C27516   7.107   2.805   8.411  0.5590  0.8989 -0.4225
  200MOL0     C27517   6.691   2.921   8.338 -0.1049  0.7601  1.0174
  200MOL0     C27518   6.599   2.811   8.347 -0.3276  0.8049  0.4167
  200MOL0     C27519   6.463   2.827   8.343  0.7076  0.5510 -0.2783
  200MOL0     C27520   6.409   2.956   8.333  0.4582 -0.8926 -0.2280
  200MOL0     O27521   6.281   2.978   8.370  0.1315 -1.1330 -0.5381
  200MOL0     C27522   6.186   2.974   8.258 -0.0220  0.2053 -0.0204
  200MOL0     C27523   6.199   3.080   8.141  0.3359  0.5498 -0.0166
  200MOL0     C27524   6.096   3.189   8.157 -1.0731  0.3399 -0.0725
  200MOL0     C27525   6.139   3.310   8.237  0.0502 -0.0741 -0.2001
  200MOL0     C27526   6.247   3.397   8.183  0.3142 -0.6766  0.3881
  200MOL0     C27527   6.314   3.485   8.131 -0.6580 -0.1267  0.1236
  200MOL0     C27528   6.495   3.064   8.328  0.1450 -0.3822 -0.3527
  200MOL0     C27529   6.634   3.051   8.317 -0.2834 -1.2761  0.8727
  200MOL0     C27530   6.713   3.175   8.301 -0.0734 -0.5700 -0.5611
  200MOL0     H27531   6.994   2.566   8.198  0.8052  2.7502 -3.0185
  200MOL0     H27532   7.217   2.520   8.174  0.5040  0.7893 -1.8658
  200MOL0     H27533   7.524   2.700   8.426 -2.5549  1.7996  1.0741
  200MOL0     H27534   7.499   2.823   8.301 -0.5200  0.5732  0.8831
  200MOL0     H27535   7.683   2.585   8.277 -1.5595  0.1026  0.4231
  200MOL0     H27536   7.638   2.705   8.143 -0.3387 -0.9787 -0.9926
  200MOL0     H27537   7.738   2.886   8.240 -0.7777  1.2437  2.5900
  200MOL0     H27538   7.752   2.794   8.401 -3.6079 -2.0454 -0.0650
  200MOL0     H27539   7.900   2.635   8.274 -0.3566 -0.9516 -2.7065
  200MOL0     H27540   7.896   2.755   8.138 -2.2734  1.1467 -0.1561
  200MOL0     H27541   8.035   2.785   8.412  0.0389  3.3535  1.7071
  200MOL0     H27542   7.982   2.927   8.311 -1.3184 -0.3797 -0.5783
  200MOL0     H27543   8.095   2.851   8.118 -1.0707  2.5473  0.5749
  200MOL0     H27544   8.214   2.870   8.247 -0.7584  1.8072 -0.5428
  200MOL0     H27545   8.246   2.681   8.103 -0.8183 -2.3061 -1.2804
  200MOL0     H27546   8.094   2.610   8.150  0.3819 -1.0759  0.0993
  200MOL0     H27547   8.351   2.595   8.301  0.3949  0.9130 -4.6459
  200MOL0     H27548   8.223   2.654   8.405 -0.0690 -1.0600  0.3198
  200MOL0     H27549   8.035   2.487   8.459  2.0641 -1.3653  3.1971
  200MOL0     H27550   8.001   2.096   8.362 -0.9506 -1.0615  1.2936
  200MOL0     H27551   7.897   2.215   8.436 -0.3998 -3.5842 -0.2754
  200MOL0     H27552   8.157   2.169   8.572 -1.3980  2.6129  1.3996
  200MOL0     H27553   8.003   2.155   8.648  0.6071 -1.0950  0.9800
  200MOL0     H27554   7.958   1.935   8.583 -0.1450 -0.4110  1.1423
  200MOL0     H27555   8.101   1.909   8.484  1.5897 -1.8866  1.8692
  200MOL0     H27556   8.119   1.960   8.783  2.7429 -0.0475  0.6632
  200MOL0     H27557   8.134   1.810   8.689  1.0730  0.5682 -1.8573
  200MOL0     H27558   8.488   2.057   8.680  1.7434 -1.6661 -0.9373
  200MOL0     H27559   8.664   2.145   8.846  2.5305  1.6671 -0.5288
  200MOL0     H27560   8.754   2.047   8.738 -2.3156  0.1729  0.0982
  200MOL0     H27561   8.773   2.018   8.919  0.8891 -3.0576 -1.2876
  200MOL0     H27562   8.734   1.578   9.300  0.5177 -1.2931 -1.5147
  200MOL0     H27563   8.924   1.552   9.450 -0.0848  1.7044  1.1641
  200MOL0     H27564   9.102   1.611   9.588 -2.8665  3.4251 -3.5245
  200MOL0     H27565   9.128   1.485   9.471 -0.3481 -0.6532  2.1030
  200MOL0     H27566   9.334   1.488   9.606 -1.2300 -0.5695  0.0355
  200MOL0     H27567   9.364   1.586   9.461 -0.8084 -1.9109 -0.1848
  200MOL0     H27568   9.291   1.709   9.733  1.4431  1.7255  0.4373
  200MOL0     H27569   9.355   1.799   9.600  1.1208 -0.4440 -1.0169
  200MOL0     H27570   9.550   1.627   9.617 -0.0238  0.4694 -0.0305
  200MOL0     H27571   9.484   1.601   9.781 -2.8137  2.2612  1.8534
  200MOL0     H27572   9.482   1.855   9.799 -1.6465  1.0437 -2.2014
  200MOL0     H27573   9.622   1.762   9.835  1.4339 -2.9060 -3.4069
  200MOL0     H27574   9.579   1.967   9.632  0.2644 -0.3458 -1.0466
  200MOL0     H27575   9.649   1.819   9.561  1.3131 -0.6852  0.1732
  200MOL0     H27576   9.845   1.853   9.724  0.0881 -1.0363 -1.2176
  200MOL0     H27577   9.769   2.004   9.785 -0.0876  1.3120 -0.5453
  200MOL0     H27578   9.736   2.102   9.580 -1.0925  0.6641  1.7263
  200MOL0     H27579   9.830   1.973   9.496 -0.2472 -3.2540  2.0034
  200MOL0     H27580   9.134   1.840   9.207 -0.6467  0.9911 -1.4211
  200MOL0     H27581   8.943   1.868   9.054 -2.9678  1.6820  1.4067
  200MOL0     H27582   8.460   1.644   8.969 -1.6325 -0.7139 -0.1249
  200MOL0     H27583   8.273   1.718   8.830 -0.1935 -1.4537 -4.4930
  200MOL0     H27584   7.309   2.874   8.426 -2.0591  2.3556 -0.7266
  200MOL0     H27585   7.071   2.875   8.486 -1.3757  1.4793 -1.7949
  200MOL0     H27586   6.640   2.713   8.367 -2.2494 -0.5669 -1.9001
  200MOL0     H27587   6.398   2.741   8.360 -0.9763  1.3590 -2.2570
  200MOL0     H27588   6.184   2.873   8.214 -3.0522  0.0448  0.2571
  200MOL0     H27589   6.094   2.992   8.315 -0.5003 -0.2695 -0.6249
  200MOL0     H27590   6.181   3.022   8.050  1.4544 -2.6046  1.6326
  200MOL0     H27591   6.296   3.128   8.127 -1.4051  3.8509 -2.2542
  200MOL0     H27592   6.064   3.217   8.056 -0.9377  0.8387  0.0231
  200MOL0     H27593   6.007   3.145   8.202  1.0036 -1.2108  2.8967
  200MOL0     H27594   6.176   3.269   8.331 -2.3816 -1.2904  0.3257
  200MOL0     H27595   6.053   3.373   8.263  1.3316  0.8080  2.1659
  200MOL0     H27596   6.352   3.573   8.083  0.2198  0.4251  1.7704
  200MOL0     H27597   6.456   3.165   8.336 -0.9785 -0.6401 -2.0245
  200MOL0     H27598   6.653   3.265   8.287  1.4209  0.2246 -2.3685
  200MOL0     H27599   6.776   3.195   8.389 -0.8721  0.6569 -0.2397
  200MOL0     H27600   6.762   3.164   8.203 -0.8714 -1.4686 -0.8669
  201MOL0     O27601   5.771   6.936   9.452 -0.3428 -0.2726  0.2991
  201MOL0     C27602   5.658   6.970   9.453 -0.2212 -0.1061 -0.8225
  201MOL0     O27603   5.574   6.947   9.351 -0.5038  0.1708 -1.0507
  201MOL0     C27604   5.609   6.865   9.248  0.2007  0.9735  0.9321
  201MOL0     C27605   5.685   6.749   9.267  0.6705  0.1506 -1.0655
  201MOL0     C27606   5.731   6.677   9.157 -0.1148 -0.2204  0.7583
  201MOL0     C27607   5.684   6.708   9.036 -0.1422 -0.7242 -0.1306
  201MOL0     O27608   5.750   6.648   8.930  0.0091  0.2736 -0.4881
  201MOL0     C27609   5.832   6.743   8.855 -0.0204  0.4151  0.2142
  201MOL0     C27610   5.956   6.673   8.787  0.5684  0.6324 -0.0555
  201MOL0     C27611   6.011   6.552   8.865 -0.1396 -0.1695  0.1813
  201MOL0     C27612   5.928   6.430   8.819  0.7042  0.8885 -0.3746
  201MOL0     C27613   5.969   6.299   8.890 -0.0743 -0.0007 -0.3206
  201MOL0     C27614   5.941   6.280   9.045 -0.7589  1.0968  0.2918
  201MOL0     C27615   6.020   6.159   9.096  0.4335  0.6851 -0.9073
  201MOL0     C27616   6.050   6.171   9.241  0.1793 -0.0997 -0.3077
  201MOL0     N27617   5.941   6.143   9.336 -0.5954 -0.2033 -0.1863
  201MOL0     C27618   5.855   6.242   9.377  1.0451 -0.4613  0.6821
  201MOL0     C27619   5.748   6.175   9.431  0.0059  1.2652 -0.0780
  201MOL0     C27620   5.640   6.249   9.493 -0.0351  0.6361  0.2728
  201MOL0     C27621   5.505   6.170   9.504  0.4172 -0.5127 -0.3597
  201MOL0     C27622   5.401   6.266   9.559 -0.2410 -0.2860  0.2439
  201MOL0     C27623   5.270   6.197   9.608 -0.6237 -0.4866 -0.4613
  201MOL0     O27624   5.217   6.264   9.721  0.1716 -0.4694 -0.1352
  201MOL0     C27625   5.112   6.208   9.786 -0.8029 -0.7022 -0.0083
  201MOL0     C27626   5.051   6.102   9.746 -0.4751 -0.3186 -0.2215
  201MOL0     C27627   4.950   6.033   9.818 -0.0827 -0.6491  0.1961
  201MOL0     C27628   4.910   5.896   9.761 -0.4088 -0.0639 -0.5932
  201MOL0     C27629   4.910   6.085   9.941 -0.2376  0.3255  0.5714
  201MOL0     C27630   4.824   6.018  10.039 -0.6395 -0.3921  1.1033
  201MOL0     O27631   4.864   5.920  10.122 -0.0994 -0.1782  0.0815
  201MOL0     C27632   4.759   5.832  10.163  0.6697  0.1950 -0.2694
  201MOL0     C27633   4.656   5.775  10.082 -0.1727 -0.1723 -0.2970
  201MOL0     C27634   4.536   5.726  10.139 -0.0343  0.7360 -0.3939
  201MOL0     C27635   4.512   5.725  10.276  0.0668  0.7992 -0.6017
  201MOL0     O27636   4.397   5.670  10.324  0.5950 -0.1406 -0.0680
  201MOL0     C27637   4.344   5.692  10.466  0.1500  0.6335 -0.1710
  201MOL0     C27638   4.386   5.567  10.542 -0.6999 -0.6626 -0.4225
  201MOL0     C27639   4.306   5.538  10.672 -0.0754  0.7644 -0.9760
  201MOL0     C27640   4.354   5.407  10.740  0.1998 -0.3573 -0.5905
  201MOL0     C27641   4.290   5.367  10.878  0.6774 -0.2907  0.0056
  201MOL0     C27642   4.355   5.229  10.913  0.0159 -0.7972 -0.1605
  201MOL0     C27643   4.319   5.173  11.055  0.9307  0.5491  0.6813
  201MOL0     C27644   4.234   5.048  11.062 -0.4425  0.5634  0.1060
  201MOL0    Cl27645   4.150   5.039  11.213 -0.0155  0.5964 -0.3086
  201MOL0     C27646   4.616   5.768  10.360  0.0096 -0.9413  0.3195
  201MOL0     C27647   4.736   5.811  10.300 -0.8500 -0.6945 -0.4534
  201MOL0     O27648   4.711   6.062  10.030 -0.5660  0.7883 -0.5519
  201MOL0     C27649   4.971   6.201   9.983 -0.4176 -0.0268  0.0794
  201MOL0     C27650   5.059   6.271   9.903  0.0921  0.0196  0.1417
  201MOL0     N27651   5.776   6.043   9.440 -0.6197 -0.7425 -0.5544
  201MOL0     N27652   5.898   6.031   9.385  1.0235  0.7862  0.1420
  201MOL0     C27653   5.597   6.810   9.016 -0.0585 -0.8286 -0.2979
  201MOL0     C27654   5.571   6.895   9.119 -0.3460  0.9262 -0.0925
  201MOL0     C27655   5.604   7.048   9.562 -0.5903 -0.9983 -1.2103
  201MOL0     C27656   5.480   7.101   9.551 -0.1776 -0.2952 -0.5115
  201MOL0     C27657   5.417   7.162   9.654  0.8167 -0.0913 -0.2090
  201MOL0     C27658   5.489   7.196   9.776  0.9788 -0.3931  0.5744
  201MOL0     O27659   5.416   7.277   9.868 -1.2740 -0.0505  0.5550
  201MOL0     C27660   5.488   7.368   9.950  0.6873  0.9392 -0.5763
  201MOL0     C27661   5.497   7.498   9.872  0.5870  0.6720  0.1876
  201MOL0     C27662   5.367   7.548   9.804  0.1718 -0.3699 -0.2180
  201MOL0     C27663   5.245   7.585   9.894  0.2636  0.6141  0.7917
  201MOL0     C27664   5.279   7.671  10.003  0.3959 -0.1249  0.8649
  201MOL0     C27665   5.291   7.737  10.107  0.4233 -0.2728 -0.6725
  201MOL0     C27666   5.618   7.147   9.785  1.0741 -0.2627 -0.3386
  201MOL0     C27667   5.679   7.081   9.679 -0.5858 -1.2073  1.1706
  201MOL0     C27668   5.816   7.032   9.706 -0.1284  0.7315  0.6326
  201MOL0     H27669   5.721   6.732   9.368  1.1067  1.7438 -0.9234
  201MOL0     H27670   5.811   6.604   9.169  0.6769  0.7149  1.3424
  201MOL0     H27671   5.867   6.830   8.911 -1.8578  0.7043  0.9748
  201MOL0     H27672   5.771   6.780   8.772  0.8506 -0.2827 -0.7805
  201MOL0     H27673   5.925   6.645   8.685 -0.1208  2.9918 -0.5581
  201MOL0     H27674   6.034   6.748   8.773  0.9570  0.3329  0.5151
  201MOL0     H27675   6.116   6.532   8.844 -0.0788 -0.4440  0.7346
  201MOL0     H27676   5.997   6.564   8.972 -0.7547  1.7313 -0.0717
  201MOL0     H27677   5.821   6.436   8.843  0.8946  2.5074  0.2452
  201MOL0     H27678   5.945   6.422   8.711  0.6381  3.3858 -0.6369
  201MOL0     H27679   6.078   6.308   8.881 -0.0419  0.9954  0.9006
  201MOL0     H27680   5.933   6.208   8.840 -0.4932 -0.9588  1.6001
  201MOL0     H27681   5.984   6.369   9.091  0.8028  0.6686 -0.2679
  201MOL0     H27682   5.834   6.266   9.067 -0.3597 -1.2245  1.0874
  201MOL0     H27683   6.113   6.171   9.038  1.5877 -2.1661  0.2015
  201MOL0     H27684   5.975   6.060   9.089  1.8603 -0.1498  0.8641
  201MOL0     H27685   6.125   6.094   9.261  1.4547  1.3437  0.6531
  201MOL0     H27686   6.093   6.269   9.261  0.8732 -0.8505  2.1893
  201MOL0     H27687   5.849   6.346   9.349 -0.2752 -0.4053  1.1119
  201MOL0     H27688   5.635   6.345   9.440  3.0529  0.2403 -0.9176
  201MOL0     H27689   5.671   6.273   9.594  0.3082  1.7739 -0.0845
  201MOL0     H27690   5.466   6.131   9.409  0.9430 -0.1168 -0.7474
  201MOL0     H27691   5.525   6.087   9.572 -0.4257  0.3737  1.0004
  201MOL0     H27692   5.446   6.312   9.647 -1.2001 -1.2535  1.2677
  201MOL0     H27693   5.385   6.345   9.485  6.0097  1.1252 -0.1470
  201MOL0     H27694   5.196   6.190   9.527  1.1907  0.2310 -2.2548
  201MOL0     H27695   5.310   6.099   9.634  0.1909  0.3707  1.6986
  201MOL0     H27696   5.095   6.046   9.664  1.5495 -0.6780  1.0413
  201MOL0     H27697   4.851   5.836   9.832 -0.3233  0.0897 -0.3928
  201MOL0     H27698   4.995   5.836   9.726 -2.5848 -2.6302 -1.8901
  201MOL0     H27699   4.841   5.908   9.676 -2.0682  0.5779  0.7952
  201MOL0     H27700   4.656   5.805   9.978  1.7262  1.6069  0.1373
  201MOL0     H27701   4.450   5.689  10.085 -0.3264  3.4562 -1.9512
  201MOL0     H27702   4.389   5.785  10.501 -1.7468  0.9027  1.7280
  201MOL0     H27703   4.236   5.706  10.457 -0.6943 -2.5247  2.8542
  201MOL0     H27704   4.373   5.487  10.469 -0.1220 -1.4277  0.2969
  201MOL0     H27705   4.494   5.568  10.560 -0.1084  1.4156 -3.3327
  201MOL0     H27706   4.207   5.520  10.629  0.8396  0.0726 -2.9209
  201MOL0     H27707   4.301   5.618  10.747  0.8090  0.4716 -0.5909
  201MOL0     H27708   4.459   5.423  10.766 -0.3739 -1.6780  3.1818
  201MOL0     H27709   4.350   5.331  10.662 -0.1620 -1.2752  0.3129
  201MOL0     H27710   4.314   5.434  10.960 -0.7837  2.1104 -1.4225
  201MOL0     H27711   4.181   5.360  10.868  0.4685  2.1430  0.1563
  201MOL0     H27712   4.462   5.252  10.917 -0.7301  3.5325 -0.4413
  201MOL0     H27713   4.322   5.158  10.837 -1.3974  1.7634 -2.0736
  201MOL0     H27714   4.277   5.252  11.118  0.6939 -0.7625  2.2329
  201MOL0     H27715   4.419   5.151  11.094  1.6646  4.1012  1.1711
  201MOL0     H27716   4.294   4.967  11.020  4.5860  4.1280 -0.4416
  201MOL0     H27717   4.151   5.060  10.991  0.7334 -0.5204 -1.5398
  201MOL0     H27718   4.615   5.751  10.467 -0.5673 -1.7527  0.1921
  201MOL0     H27719   4.816   5.846  10.365  0.6330 -3.3999 -0.6800
  201MOL0     H27720   4.944   6.236  10.082  3.2247  0.4286  1.0570
  201MOL0     H27721   5.098   6.369   9.927  0.2325  0.5401 -2.0073
  201MOL0     H27722   5.560   6.848   8.922 -1.4920  1.5250  1.1066
  201MOL0     H27723   5.507   6.982   9.112  0.4756  1.4452 -1.6554
  201MOL0     H27724   5.427   7.091   9.457 -0.9254 -3.7521  0.1304
  201MOL0     H27725   5.310   7.182   9.659  0.0807 -3.5257  0.2191
  201MOL0     H27726   5.442   7.382  10.048 -0.7502  1.4943 -1.3055
  201MOL0     H27727   5.590   7.332   9.967  1.7525  3.5894 -0.7653
  201MOL0     H27728   5.566   7.484   9.788  1.0241  0.8021  0.5197
  201MOL0     H27729   5.535   7.575   9.939 -1.9920 -0.5913  3.3616
  201MOL0     H27730   5.394   7.633   9.740  2.7356 -0.3739  0.7502
  201MOL0     H27731   5.338   7.467   9.735  1.0039 -1.4585  0.6771
  201MOL0     H27732   5.215   7.482   9.916  1.6531  0.1122  0.3872
  201MOL0     H27733   5.165   7.628   9.832  1.8571  1.4288 -0.7639
  201MOL0     H27734   5.302   7.800  10.193  1.3268  0.4614 -1.3069
  201MOL0     H27735   5.672   7.164   9.877 -1.6841 -1.2665  1.5833
  201MOL0     H27736   5.858   7.071   9.799  2.7385  1.8223 -0.9677
  201MOL0     H27737   5.823   6.922   9.708 -0.3981  0.7111  3.2601
  201MOL0     H27738   5.883   7.080   9.634  0.2830  0.2846  0.7094
  202MOL0     O27739   7.324   4.140   4.006 -0.5983  0.0202 -0.1690
  202MOL0     C27740   7.364   4.062   4.095 -0.5813  0.3485  0.8377
  202MOL0     O27741   7.291   3.976   4.165 -0.0157 -0.3253 -0.3391
  202MOL0     C27742   7.158   3.984   4.164 -0.1078  0.1044  0.2369
  202MOL0     C27743   7.090   4.110   4.163 -0.7603 -0.7281  1.5644
  202MOL0     C27744   6.952   4.124   4.153  0.1686 -0.3886  0.0196
  202MOL0     C27745   6.889   4.012   4.124 -0.2632  0.6284  0.0527
  202MOL0     O27746   6.753   4.024   4.083 -0.0338  0.7340 -0.4682
  202MOL0     C27747   6.707   3.944   3.978  0.0837  0.4992 -0.0879
  202MOL0     C27748   6.789   3.964   3.842 -0.4003  0.7289 -0.1786
  202MOL0     C27749   6.748   3.857   3.736  0.6557  0.8889  0.7825
  202MOL0     C27750   6.627   3.889   3.659  0.3524 -0.5570 -0.4610
  202MOL0     C27751   6.655   3.986   3.543 -0.5109  0.0981 -0.3614
  202MOL0     C27752   6.526   4.030   3.470 -0.4366  0.2282  0.4999
  202MOL0     C27753   6.574   4.091   3.327  0.4768  0.7340 -0.3195
  202MOL0     C27754   6.452   4.153   3.255 -0.0283  1.0755 -0.8396
  202MOL0     N27755   6.382   4.266   3.324  0.3194  0.1589  0.6102
  202MOL0     C27756   6.261   4.322   3.291 -0.6751 -0.2720 -0.9180
  202MOL0     C27757   6.260   4.435   3.360 -0.0760 -0.3366  0.9960
  202MOL0     C27758   6.150   4.525   3.369  0.1957 -1.0482 -0.4357
  202MOL0     C27759   6.166   4.643   3.268  0.6134 -0.8501  0.4672
  202MOL0     C27760   6.092   4.774   3.322  0.4805  0.9562  0.0233
  202MOL0     C27761   5.934   4.752   3.327 -0.2271 -0.4636 -1.0590
  202MOL0     O27762   5.896   4.861   3.419 -0.7053  0.7419  0.3813
  202MOL0     C27763   5.768   4.900   3.428  0.0095  0.2384 -0.7646
  202MOL0     C27764   5.656   4.881   3.346 -0.1699 -0.1788  1.1106
  202MOL0     C27765   5.530   4.944   3.371 -0.8926  0.3009  0.1489
  202MOL0     C27766   5.419   4.901   3.281 -0.1823  1.4078  0.2825
  202MOL0     C27767   5.515   5.021   3.495 -0.4544  0.2433  0.0758
  202MOL0     C27768   5.388   5.094   3.529  1.5374 -0.4332 -0.4207
  202MOL0     O27769   5.407   5.196   3.625  0.1698  0.8664 -0.1824
  202MOL0     C27770   5.299   5.259   3.681  0.6008  0.0763 -0.3055
  202MOL0     C27771   5.310   5.393   3.720 -0.4362 -0.0246 -0.1016
  202MOL0     C27772   5.199   5.455   3.778  0.1621 -0.1070  0.6439
  202MOL0     C27773   5.083   5.383   3.811  0.2656 -0.7877  0.0827
  202MOL0     O27774   4.976   5.460   3.857  0.0942  1.0522  0.3803
  202MOL0     C27775   4.850   5.392   3.893  0.9526  0.6852 -0.1973
  202MOL0     C27776   4.775   5.497   3.978  0.2643  0.3556  0.7834
  202MOL0     C27777   4.656   5.446   4.053  0.9876  1.3129 -0.4163
  202MOL0     C27778   4.525   5.461   3.968 -0.2057 -0.1479  0.6820
  202MOL0     C27779   4.401   5.410   4.045 -0.2383 -0.0695  0.1683
  202MOL0     C27780   4.285   5.363   3.960 -0.0920 -1.1326  0.0904
  202MOL0     C27781   4.240   5.466   3.859  0.7708  0.4957  0.0426
  202MOL0     C27782   4.100   5.500   3.903 -0.0329 -0.3209  0.2123
  202MOL0    Cl27783   4.073   5.657   3.818  0.2792 -0.0321 -0.2366
  202MOL0     C27784   5.092   5.247   3.800 -0.0286  0.4555 -1.0005
  202MOL0     C27785   5.200   5.182   3.730  0.1111  0.3146 -0.2419
  202MOL0     O27786   5.279   5.071   3.476 -0.3737  0.1302 -1.1057
  202MOL0     C27787   5.632   5.028   3.575  0.1172 -1.0281  1.0506
  202MOL0     C27788   5.748   4.972   3.545  0.3694  0.6584 -0.0833
  202MOL0     N27789   6.376   4.459   3.427 -0.3283  0.8035  0.5844
  202MOL0     N27790   6.448   4.356   3.397 -0.7884 -0.0701  0.0370
  202MOL0     C27791   6.939   3.881   4.137 -0.0706  0.5759  0.6473
  202MOL0     C27792   7.075   3.870   4.164 -0.0542  0.1037 -0.1399
  202MOL0     C27793   7.512   4.053   4.127  0.5917 -0.4451  0.0086
  202MOL0     C27794   7.598   4.124   4.039  1.4276  0.3559  0.3522
  202MOL0     C27795   7.738   4.133   4.066  0.5872  0.6342  0.0850
  202MOL0     C27796   7.797   4.065   4.165 -0.0913 -0.7181  0.6660
  202MOL0     O27797   7.931   4.074   4.161 -0.1295  0.8065  0.4799
  202MOL0     C27798   7.996   4.026   4.281 -0.3074  0.7008 -0.5763
  202MOL0     C27799   8.131   4.092   4.320  0.1988 -0.1620  0.2104
  202MOL0     C27800   8.252   4.089   4.212 -0.1182  0.9298  0.7889
  202MOL0     C27801   8.257   4.220   4.138 -0.2116  0.0721 -0.7688
  202MOL0     C27802   8.377   4.226   4.063 -0.8908 -0.8538 -0.2922
  202MOL0     C27803   8.488   4.200   4.006 -0.7287 -0.6588  0.0992
  202MOL0     C27804   7.707   3.984   4.241 -0.4881  0.5286  0.2179
  202MOL0     C27805   7.569   3.977   4.217  0.1187  0.2358  0.3545
  202MOL0     C27806   7.512   3.862   4.286  0.2140 -0.5163  0.1465
  202MOL0     H27807   7.148   4.202   4.164 -1.8647  0.0594 -0.5686
  202MOL0     H27808   6.891   4.213   4.141  0.3544  0.2189  2.9248
  202MOL0     H27809   6.601   3.962   3.958  0.4988  1.0013 -2.0580
  202MOL0     H27810   6.722   3.845   4.021 -0.3734  0.5415  0.1840
  202MOL0     H27811   6.776   4.066   3.804 -0.0437  2.0502  2.9499
  202MOL0     H27812   6.892   3.949   3.874 -0.3248 -1.2981 -1.2318
  202MOL0     H27813   6.828   3.829   3.667  2.1228 -1.0944  3.1047
  202MOL0     H27814   6.725   3.759   3.780  3.0865 -1.1152 -2.0472
  202MOL0     H27815   6.601   3.793   3.615  2.8598  0.0190 -3.4954
  202MOL0     H27816   6.546   3.929   3.722  1.7101 -0.4836  1.3200
  202MOL0     H27817   6.724   3.943   3.471 -1.3663  1.4729 -2.0739
  202MOL0     H27818   6.709   4.071   3.585  0.5654 -0.0408 -1.4275
  202MOL0     H27819   6.461   3.943   3.455  0.1704 -0.4003  1.3949
  202MOL0     H27820   6.474   4.108   3.526 -0.7681  1.0267 -0.8820
  202MOL0     H27821   6.621   4.023   3.256 -1.0621 -1.7361  0.9090
  202MOL0     H27822   6.650   4.164   3.356 -1.5161  1.8406  2.5594
  202MOL0     H27823   6.485   4.190   3.157  2.8181 -1.0718 -0.7963
  202MOL0     H27824   6.380   4.072   3.245  0.5182  0.8042 -3.2016
  202MOL0     H27825   6.191   4.274   3.223 -2.0870  3.4895 -2.3616
  202MOL0     H27826   6.153   4.565   3.471  1.6355 -3.0078  0.3475
  202MOL0     H27827   6.053   4.475   3.361 -1.1134  1.1072  0.8571
  202MOL0     H27828   6.271   4.664   3.247  0.6821 -0.7247  0.9199
  202MOL0     H27829   6.147   4.616   3.164  1.7346  0.8163 -0.2001
  202MOL0     H27830   6.127   4.794   3.423 -1.2114 -0.5205  0.9551
  202MOL0     H27831   6.113   4.865   3.264 -1.3905  0.0679 -2.2080
  202MOL0     H27832   5.878   4.755   3.234 -3.0807  0.7992  0.5618
  202MOL0     H27833   5.903   4.663   3.382 -1.9640  1.0155  0.5147
  202MOL0     H27834   5.664   4.815   3.261  0.4169  0.8542  0.3445
  202MOL0     H27835   5.360   4.818   3.321  0.5724 -1.3857 -3.8487
  202MOL0     H27836   5.449   4.884   3.177 -2.4526  0.2621 -0.2648
  202MOL0     H27837   5.351   4.985   3.260  0.4533  2.0281  0.6490
  202MOL0     H27838   5.392   5.450   3.678  0.9248 -3.0849 -1.9747
  202MOL0     H27839   5.187   5.563   3.769  0.0605 -0.2561 -1.6446
  202MOL0     H27840   4.790   5.364   3.807 -1.2371  2.4902  0.6349
  202MOL0     H27841   4.867   5.304   3.955 -1.8694  0.9804  1.1802
  202MOL0     H27842   4.854   5.535   4.043  3.2155 -1.9452 -1.1692
  202MOL0     H27843   4.747   5.583   3.916  5.2333  2.6402  1.2305
  202MOL0     H27844   4.643   5.510   4.141 -1.8953 -2.5473  2.3010
  202MOL0     H27845   4.678   5.344   4.087 -1.3980  0.5592 -0.9654
  202MOL0     H27846   4.544   5.415   3.871  0.0056 -1.9296  1.5227
  202MOL0     H27847   4.511   5.569   3.961  2.1336  0.2405  1.3476
  202MOL0     H27848   4.432   5.322   4.102  2.0256 -0.5929 -1.7311
  202MOL0     H27849   4.363   5.487   4.112 -2.2889  0.3500 -1.3617
  202MOL0     H27850   4.201   5.334   4.023 -1.5218  0.1868 -1.1216
  202MOL0     H27851   4.314   5.278   3.898 -1.0166  0.7984 -3.2392
  202MOL0     H27852   4.232   5.433   3.755  0.6374  0.2922  0.1159
  202MOL0     H27853   4.292   5.562   3.867 -0.5919  1.2391  0.2808
  202MOL0     H27854   4.079   5.520   4.009  1.9274  2.3473  0.2219
  202MOL0     H27855   4.024   5.426   3.877 -2.1210  0.9517  2.3148
  202MOL0     H27856   5.018   5.186   3.851  0.3018  1.1705  0.3743
  202MOL0     H27857   5.200   5.075   3.716  0.4967  0.0718  1.3462
  202MOL0     H27858   5.621   5.081   3.669  0.8391  3.3029 -1.0242
  202MOL0     H27859   5.829   4.986   3.616 -0.0957  0.5512  0.4833
  202MOL0     H27860   6.871   3.797   4.130 -3.7738  3.3906 -0.8851
  202MOL0     H27861   7.121   3.773   4.181 -0.8119 -0.4874 -1.3362
  202MOL0     H27862   7.559   4.189   3.962 -0.4285 -1.2447 -0.1418
  202MOL0     H27863   7.801   4.194   4.003 -2.2654  2.3928 -1.2665
  202MOL0     H27864   7.924   4.039   4.362  1.1638 -1.5708  1.2312
  202MOL0     H27865   8.023   3.921   4.268  0.1003  0.7524 -0.1748
  202MOL0     H27866   8.169   4.023   4.397 -1.8706 -1.6082  0.0358
  202MOL0     H27867   8.121   4.196   4.352  1.1721  0.4717 -1.4716
  202MOL0     H27868   8.344   4.072   4.269  0.9017  0.1729 -0.9830
  202MOL0     H27869   8.243   4.007   4.139  3.9416  0.3862  0.6286
  202MOL0     H27870   8.254   4.312   4.198  1.4664 -0.4934  0.2692
  202MOL0     H27871   8.173   4.221   4.069 -0.9970  0.7349  0.1803
  202MOL0     H27872   8.586   4.187   3.963 -0.5669 -0.4394  0.3979
  202MOL0     H27873   7.748   3.924   4.321 -2.0304 -1.6493 -0.5363
  202MOL0     H27874   7.586   3.819   4.354  0.5387  2.6428  2.0155
  202MOL0     H27875   7.437   3.905   4.353  0.7356  3.4955 -1.5491
  202MOL0     H27876   7.474   3.796   4.208 -1.3247  0.9657 -0.4173
  203MOL0     O27877  10.589   7.775   0.428 -0.6869 -0.2068  0.2721
  203MOL0     C27878  10.612   7.685   0.346  0.7878  0.6302 -1.1873
  203MOL0     O27879  10.516   7.603   0.279  0.6046 -0.7314  0.1090
  203MOL0     C27880  10.385   7.605   0.326 -0.0093  0.8558  0.5849
  203MOL0     C27881  10.292   7.562   0.233 -0.1558 -1.1157  0.9118
  203MOL0     C27882  10.153   7.545   0.261  0.3868 -0.2267 -0.3681
  203MOL0     C27883  10.105   7.558   0.397 -0.0347  0.3541  0.0834
  203MOL0     O27884   9.975   7.543   0.446 -0.1932 -0.2333  1.0584
  203MOL0     C27885   9.883   7.463   0.375  0.8888 -0.3129 -0.7208
  203MOL0     C27886   9.741   7.471   0.447 -0.8879 -0.1286  0.0833
  203MOL0     C27887   9.752   7.410   0.591  0.4056  0.6980  0.1301
  203MOL0     C27888   9.624   7.398   0.676 -0.7513 -0.4676  0.3730
  203MOL0     C27889   9.552   7.537   0.697  0.3829  0.8029 -0.0998
  203MOL0     C27890   9.429   7.519   0.778 -0.1022 -0.9995  0.3386
  203MOL0     C27891   9.381   7.660   0.823  1.1869 -0.9652 -0.2212
  203MOL0     C27892   9.256   7.662   0.917  0.3333 -0.0270  1.3971
  203MOL0     N27893   9.292   7.639   1.057 -0.0318 -0.3704  0.0034
  203MOL0     C27894   9.400   7.683   1.133  0.4802 -0.2161 -0.8953
  203MOL0     C27895   9.385   7.614   1.256 -0.6948 -0.2343 -0.3241
  203MOL0     C27896   9.467   7.641   1.379 -0.3890 -1.0403 -0.4099
  203MOL0     C27897   9.391   7.717   1.480  0.1793  0.0718 -0.5018
  203MOL0     C27898   9.402   7.650   1.629  0.4796 -0.4616 -0.0755
  203MOL0     C27899   9.333   7.737   1.739 -0.7608  0.5803 -0.8886
  203MOL0     O27900   9.369   7.680   1.868 -0.3853  0.8652 -0.5084
  203MOL0     C27901   9.286   7.688   1.972  0.2377 -0.5727 -0.1931
  203MOL0     C27902   9.296   7.584   2.067  0.0878  0.2703  0.3307
  203MOL0     C27903   9.208   7.566   2.173  0.8090  0.2883 -1.0430
  203MOL0     C27904   9.224   7.432   2.248 -0.7680  0.2354 -0.0696
  203MOL0     C27905   9.109   7.660   2.189  0.7082 -0.2274 -0.2175
  203MOL0     C27906   9.012   7.664   2.303  0.5037  1.4935 -0.0014
  203MOL0     O27907   8.908   7.746   2.286  0.5917 -0.5459  0.0272
  203MOL0     C27908   8.830   7.764   2.392 -0.3408  0.5434  0.6749
  203MOL0     C27909   8.848   7.881   2.466 -0.0061 -0.5227  0.1317
  203MOL0     C27910   8.760   7.900   2.574  0.2721  0.4483  0.9151
  203MOL0     C27911   8.658   7.813   2.601  0.0712 -0.7374  0.1511
  203MOL0     O27912   8.552   7.839   2.687 -0.7519 -0.3298  0.2005
  203MOL0     C27913   8.530   7.736   2.789 -0.0384 -1.0254  0.0555
  203MOL0     C27914   8.407   7.768   2.849  0.0009 -0.3836 -0.1991
  203MOL0     C27915   8.362   7.663   2.963 -1.3192 -0.5772  0.1638
  203MOL0     C27916   8.255   7.581   2.909  0.7890 -0.5667 -0.3707
  203MOL0     C27917   8.273   7.506   2.774 -0.5913  0.5388 -0.5079
  203MOL0     C27918   8.147   7.425   2.739 -0.0057  0.5523  0.0881
  203MOL0     C27919   8.153   7.348   2.604 -0.7757 -1.1380  0.7125
  203MOL0     C27920   8.168   7.201   2.631  0.0592  0.1611  0.7410
  203MOL0    Cl27921   8.313   7.167   2.732  0.3978  0.4949 -0.2291
  203MOL0     C27922   8.641   7.700   2.520  0.4566 -0.1224 -0.8442
  203MOL0     C27923   8.733   7.671   2.427 -0.3012  0.4509  0.2031
  203MOL0     O27924   9.026   7.589   2.400  0.1517  0.3586  0.0773
  203MOL0     C27925   9.113   7.771   2.105  0.5762  0.2971  0.1768
  203MOL0     C27926   9.192   7.778   1.993  0.0414 -0.1944 -0.3819
  203MOL0     N27927   9.281   7.518   1.243  0.3740  0.3532  0.1018
  203MOL0     N27928   9.232   7.537   1.129 -0.2870  0.8020  0.3113
  203MOL0     C27929  10.198   7.610   0.488  0.2349 -0.8559 -0.5381
  203MOL0     C27930  10.337   7.625   0.457  0.3504  0.3298 -0.8418
  203MOL0     C27931  10.753   7.649   0.318  0.1879  0.6773  0.4840
  203MOL0     C27932  10.780   7.587   0.195  0.1174  0.1343  0.2488
  203MOL0     C27933  10.919   7.555   0.156 -0.1061  0.4220  0.3834
  203MOL0     C27934  11.016   7.570   0.255 -1.8660 -0.3501  0.0133
  203MOL0     O27935  11.153   7.520   0.248  0.1436  0.5575  0.1967
  203MOL0     C27936  11.188   7.472   0.114  0.0216 -0.5683 -0.0834
  203MOL0     C27937  11.331   7.419   0.120 -0.6851  0.0973 -0.7274
  203MOL0     C27938  11.392   7.387  -0.021  0.0242 -0.5968 -1.0525
  203MOL0     C27939  11.514   7.303  -0.028  0.4299  0.1102  0.1566
  203MOL0     C27940  11.496   7.162   0.026  0.3203 -0.7891 -1.0123
  203MOL0     C27941  11.500   7.051   0.076  0.0500  0.7602  0.3166
  203MOL0     C27942  10.995   7.638   0.376 -0.9396  0.1667  0.6261
  203MOL0     C27943  10.860   7.673   0.407 -0.4107 -1.3139  0.1182
  203MOL0     C27944  10.852   7.740   0.547 -0.5568 -0.7704  0.6628
  203MOL0     H27945  10.334   7.557   0.133 -0.8787 -1.6024  0.6181
  203MOL0     H27946  10.085   7.502   0.188 -0.6244 -0.1140  0.4681
  203MOL0     H27947   9.909   7.358   0.395 -2.9134 -1.8334 -2.6828
  203MOL0     H27948   9.869   7.492   0.270 -0.5386 -2.9238 -1.3437
  203MOL0     H27949   9.719   7.578   0.455 -1.3002 -0.1344 -0.9091
  203MOL0     H27950   9.673   7.421   0.377  1.2760 -2.4110 -0.5190
  203MOL0     H27951   9.802   7.313   0.585  2.1342  1.5741 -0.1776
  203MOL0     H27952   9.821   7.478   0.640 -0.3264  0.9804  0.7871
  203MOL0     H27953   9.563   7.317   0.634  0.0449 -0.7561 -0.2435
  203MOL0     H27954   9.650   7.358   0.774 -2.6782  0.8301  1.4782
  203MOL0     H27955   9.528   7.602   0.613 -0.7760  0.2760 -0.1945
  203MOL0     H27956   9.621   7.602   0.752 -1.0828  3.1066 -0.8642
  203MOL0     H27957   9.360   7.471   0.709 -1.2169  0.8621  0.0980
  203MOL0     H27958   9.448   7.451   0.862  3.4326 -3.3920 -2.1157
  203MOL0     H27959   9.347   7.718   0.736  0.8301 -1.9511 -0.7549
  203MOL0     H27960   9.462   7.714   0.873  2.9261 -3.1727 -0.4552
  203MOL0     H27961   9.189   7.749   0.914 -1.4200 -1.2588  2.6800
  203MOL0     H27962   9.190   7.579   0.892  0.9397  0.4848 -2.4736
  203MOL0     H27963   9.469   7.765   1.116  3.1163 -1.6426  2.0785
  203MOL0     H27964   9.548   7.701   1.337 -0.9234  0.1658  0.2231
  203MOL0     H27965   9.510   7.546   1.411 -2.4807 -1.7715  0.3976
  203MOL0     H27966   9.435   7.816   1.491 -1.0402  0.8861 -2.3488
  203MOL0     H27967   9.286   7.723   1.451 -0.1852 -1.4633  0.3693
  203MOL0     H27968   9.353   7.552   1.639  0.5378 -1.1275 -4.4173
  203MOL0     H27969   9.505   7.634   1.660 -0.3337 -0.9968  2.6479
  203MOL0     H27970   9.363   7.842   1.740  0.8416  0.1475 -0.4615
  203MOL0     H27971   9.224   7.726   1.730 -0.4307 -4.8631 -1.3321
  203MOL0     H27972   9.370   7.505   2.051 -0.6980 -1.0740  2.8226
  203MOL0     H27973   9.264   7.451   2.348 -1.6108 -1.6784  0.6829
  203MOL0     H27974   9.288   7.354   2.208 -0.3118  0.4531  0.2251
  203MOL0     H27975   9.127   7.381   2.255 -0.5922 -0.0549  0.3191
  203MOL0     H27976   8.919   7.957   2.436 -0.8051 -0.4867 -1.7975
  203MOL0     H27977   8.784   7.984   2.639  0.0098  1.3590 -0.1496
  203MOL0     H27978   8.522   7.640   2.736 -0.4621  0.2288 -2.2634
  203MOL0     H27979   8.618   7.730   2.854  0.5006 -1.7077 -0.7094
  203MOL0     H27980   8.427   7.866   2.893  3.0836 -0.9140 -0.2248
  203MOL0     H27981   8.320   7.786   2.785  0.6696 -0.3216 -1.0997
  203MOL0     H27982   8.320   7.724   3.044  2.3345  0.8639  1.1830
  203MOL0     H27983   8.449   7.613   3.006 -2.4189 -1.0329  1.9605
  203MOL0     H27984   8.181   7.658   2.887  2.5515  0.7765 -1.9501
  203MOL0     H27985   8.221   7.517   2.990  2.2658  2.0938  2.5804
  203MOL0     H27986   8.304   7.579   2.699 -0.5031  3.5677  2.2436
  203MOL0     H27987   8.348   7.430   2.795  1.3406  1.9838 -1.7843
  203MOL0     H27988   8.048   7.468   2.757 -1.1115 -0.2402 -3.2958
  203MOL0     H27989   8.141   7.357   2.824 -2.4329  2.0737  1.2459
  203MOL0     H27990   8.234   7.395   2.548 -1.0812 -0.8985  0.4705
  203MOL0     H27991   8.060   7.360   2.548 -0.2030 -0.6374 -0.1570
  203MOL0     H27992   8.211   7.158   2.540  3.2897  4.2329  0.0261
  203MOL0     H27993   8.077   7.161   2.676  0.0690  2.7551  3.3306
  203MOL0     H27994   8.553   7.639   2.536 -2.8871  3.5199 -3.3503
  203MOL0     H27995   8.708   7.585   2.366 -1.5806  0.2913  0.9201
  203MOL0     H27996   9.054   7.862   2.118  1.0087  0.7323 -0.8464
  203MOL0     H27997   9.197   7.866   1.929  1.1401  0.8089  1.0034
  203MOL0     H27998  10.165   7.636   0.588  0.3450  1.2293 -0.9863
  203MOL0     H27999  10.389   7.655   0.547  0.6900  3.5488 -1.9693
  203MOL0     H28000  10.697   7.568   0.129 -0.4482 -0.5398  1.1248
  203MOL0     H28001  10.932   7.520   0.053  1.2147  1.5230  0.1451
  203MOL0     H28002  11.125   7.386   0.087  3.2875 -2.4031 -2.5767
  203MOL0     H28003  11.172   7.553   0.042  3.3451  0.3759  0.0549
  203MOL0     H28004  11.335   7.333   0.187 -0.8691 -1.4335 -2.5996
  203MOL0     H28005  11.389   7.487   0.183 -0.9592 -0.8155  0.5700
  203MOL0     H28006  11.312   7.354  -0.088 -1.3368  0.4070  0.0349
  203MOL0     H28007  11.407   7.490  -0.053 -0.1748  0.1305  1.0098
  203MOL0     H28008  11.591   7.366   0.019 -0.7462  1.6943  0.0457
  203MOL0     H28009  11.536   7.296  -0.135 -2.3555  0.9224 -0.5411
  203MOL0     H28010  11.515   6.956   0.124  0.5347  1.3064  1.2678
  203MOL0     H28011  11.070   7.672   0.447 -0.0458 -0.3488 -0.0445
  203MOL0     H28012  10.751   7.735   0.588  0.3210 -0.4189  2.9764
  203MOL0     H28013  10.918   7.697   0.623 -1.2530 -1.4260  0.9076
  203MOL0     H28014  10.878   7.845   0.533  0.5778 -1.2638 -1.4690
  204MOL0     O28015   5.111   4.327   5.276  0.3411  0.5625  0.4823
  204MOL0     C28016   5.223   4.288   5.248  0.0729  0.4178 -0.8243
  204MOL0     O28017   5.256   4.194   5.154 -0.2709 -0.1493  0.4959
  204MOL0     C28018   5.152   4.125   5.085 -0.8141  0.5984 -0.8610
  204MOL0     C28019   5.172   3.984   5.058  0.4377 -1.2161  0.5418
  204MOL0     C28020   5.076   3.915   4.976 -0.1998  0.1769 -0.2892
  204MOL0     C28021   4.963   3.978   4.929  0.4202 -0.9237  1.8105
  204MOL0     O28022   4.884   3.915   4.832 -0.6227 -0.9759  0.4605
  204MOL0     C28023   4.835   3.790   4.870  0.4207 -0.4860  0.1895
  204MOL0     C28024   4.741   3.725   4.769  0.7154  0.0292 -0.1776
  204MOL0     C28025   4.708   3.571   4.786 -0.5088 -1.2525  0.0563
  204MOL0     C28026   4.604   3.537   4.677 -0.2836  0.6879 -0.4208
  204MOL0     C28027   4.616   3.387   4.667  0.1637  0.3792  0.0969
  204MOL0     C28028   4.565   3.311   4.795  0.1999 -0.0308 -0.1240
  204MOL0     C28029   4.501   3.172   4.762 -0.7302  1.3862  0.7038
  204MOL0     C28030   4.611   3.059   4.726 -0.3445  0.6646 -0.0712
  204MOL0     N28031   4.684   3.012   4.845  0.0019  0.3325  0.6634
  204MOL0     C28032   4.656   2.892   4.902  0.7920 -1.5862 -0.1343
  204MOL0     C28033   4.765   2.856   4.974  0.0415  0.9141 -0.8218
  204MOL0     C28034   4.774   2.720   5.043  0.2392  0.0226 -0.1509
  204MOL0     C28035   4.668   2.710   5.151 -0.2148 -0.7730 -0.2339
  204MOL0     C28036   4.696   2.773   5.276 -0.5099  0.2298 -0.0845
  204MOL0     C28037   4.783   2.901   5.266  0.0884 -1.4170 -0.7415
  204MOL0     O28038   4.794   2.958   5.400  0.4136 -0.3674 -0.3222
  204MOL0     C28039   4.697   3.047   5.436  0.1492  0.5361  0.1083
  204MOL0     C28040   4.597   3.011   5.526  0.1956 -1.0799  0.5503
  204MOL0     C28041   4.493   3.099   5.553 -0.3734 -0.3684 -0.2170
  204MOL0     C28042   4.391   3.038   5.656  0.4917  0.2095  0.7652
  204MOL0     C28043   4.481   3.219   5.473  0.6515 -0.0264  0.7157
  204MOL0     C28044   4.376   3.323   5.517  0.4406  0.2940  0.0462
  204MOL0     O28045   4.409   3.454   5.476  0.9218  0.2745 -0.2019
  204MOL0     C28046   4.292   3.529   5.444 -0.4692  0.7660  0.5883
  204MOL0     C28047   4.220   3.506   5.329  0.6397  0.0814  1.3714
  204MOL0     C28048   4.107   3.577   5.282 -0.3396 -0.0948  0.0858
  204MOL0     C28049   4.060   3.676   5.378  0.0599  0.5228  0.5019
  204MOL0     O28050   3.943   3.746   5.341  0.6435  0.0481 -0.4681
  204MOL0     C28051   3.837   3.729   5.431  0.2553 -0.2455 -0.8269
  204MOL0     C28052   3.724   3.798   5.374  0.7138  1.3373  0.3816
  204MOL0     C28053   3.718   3.820   5.212 -0.2167  0.6270 -0.8397
  204MOL0     C28054   3.675   3.676   5.147 -0.5539  0.7949  0.1152
  204MOL0     C28055   3.739   3.661   5.011 -0.2925 -0.2927  0.0081
  204MOL0     C28056   3.728   3.516   4.953  0.5952 -0.3585 -0.6836
  204MOL0     C28057   3.576   3.475   4.950 -1.3660  0.0897  0.4118
  204MOL0     C28058   3.545   3.345   4.885  0.3274  0.5664 -0.5183
  204MOL0    Cl28059   3.651   3.222   4.965  0.3075 -0.0111 -0.3550
  204MOL0     C28060   4.123   3.701   5.501 -0.5282 -0.1531  0.3612
  204MOL0     C28061   4.242   3.623   5.536 -0.0393 -1.5695 -0.3129
  204MOL0     O28062   4.271   3.293   5.574 -0.0698  0.3867  0.3389
  204MOL0     C28063   4.574   3.252   5.372  0.4861 -0.4167 -0.3542
  204MOL0     C28064   4.674   3.164   5.353  0.1368  0.2446 -0.2888
  204MOL0     N28065   4.859   2.953   4.948  0.2601  0.3894 -0.1953
  204MOL0     N28066   4.810   3.041   4.869 -0.2832 -1.4538  0.3073
  204MOL0     C28067   4.958   4.116   4.950 -0.1208 -1.6282  0.2924
  204MOL0     C28068   5.050   4.191   5.023  0.6114  0.3487 -0.1825
  204MOL0     C28069   5.333   4.356   5.329 -0.6527 -0.2374  0.5900
  204MOL0     C28070   5.299   4.476   5.386 -0.3494 -0.5286  0.2667
  204MOL0     C28071   5.380   4.533   5.487  0.3351 -0.2589  0.3150
  204MOL0     C28072   5.507   4.483   5.512  0.6573  1.0720  0.5040
  204MOL0     O28073   5.580   4.557   5.599  0.1633  0.9060  0.2873
  204MOL0     C28074   5.718   4.538   5.622 -0.1459  0.4632  0.5734
  204MOL0     C28075   5.771   4.656   5.708 -0.3800 -0.2529 -0.8430
  204MOL0     C28076   5.684   4.674   5.836  0.4879  0.1518 -0.4259
  204MOL0     C28077   5.757   4.778   5.927  0.8645  0.5958  0.9125
  204MOL0     C28078   5.678   4.795   6.054  2.2938  0.7174  0.2336
  204MOL0     C28079   5.594   4.797   6.145 -0.1190  0.5071 -0.1138
  204MOL0     C28080   5.541   4.366   5.442  0.1977  0.4504  0.6459
  204MOL0     C28081   5.455   4.298   5.351 -0.7754  0.7837 -0.1260
  204MOL0     C28082   5.491   4.164   5.300 -0.2071 -0.2482 -0.8911
  204MOL0     H28083   5.265   3.947   5.102 -0.4134 -1.8411  1.8894
  204MOL0     H28084   5.099   3.811   4.954 -1.0402 -0.2022  0.5679
  204MOL0     H28085   4.785   3.800   4.968  0.6409  1.7607  0.1310
  204MOL0     H28086   4.921   3.723   4.874  0.7527 -0.0305  1.2308
  204MOL0     H28087   4.644   3.773   4.784  1.1474  1.9203 -2.7238
  204MOL0     H28088   4.772   3.749   4.666 -0.5729  1.4120 -0.2776
  204MOL0     H28089   4.803   3.518   4.776 -1.1098 -2.3099 -0.1260
  204MOL0     H28090   4.666   3.560   4.886 -0.9580 -0.1335  0.0091
  204MOL0     H28091   4.506   3.575   4.708 -0.5352  0.4338 -0.8852
  204MOL0     H28092   4.629   3.582   4.581  0.7709 -1.9830 -1.5056
  204MOL0     H28093   4.720   3.361   4.646  0.4685  2.4528 -1.1795
  204MOL0     H28094   4.551   3.348   4.587 -1.0719  0.1369  1.1784
  204MOL0     H28095   4.651   3.299   4.862  1.8979 -4.3523 -2.6515
  204MOL0     H28096   4.490   3.364   4.854  1.4863 -0.6825  2.2422
  204MOL0     H28097   4.429   3.192   4.682 -1.0840 -1.0107  0.3494
  204MOL0     H28098   4.453   3.120   4.846 -0.2827 -1.5739 -0.7498
  204MOL0     H28099   4.560   2.968   4.692  2.2770 -0.1946 -2.0230
  204MOL0     H28100   4.676   3.091   4.644  0.5102 -4.9253 -1.9673
  204MOL0     H28101   4.565   2.833   4.894  0.0448 -0.3271 -1.3920
  204MOL0     H28102   4.875   2.698   5.076 -0.0686 -4.6523 -1.5164
  204MOL0     H28103   4.762   2.636   4.973  1.3578  0.1914 -0.5620
  204MOL0     H28104   4.573   2.749   5.115  0.2892 -1.2096 -2.1571
  204MOL0     H28105   4.648   2.604   5.163  3.4855 -1.5749  0.0673
  204MOL0     H28106   4.601   2.786   5.329  0.4224  1.3620  1.3724
  204MOL0     H28107   4.754   2.694   5.325 -1.3505 -0.1207  0.3652
  204MOL0     H28108   4.872   2.861   5.217  0.1124 -1.2421 -0.8408
  204MOL0     H28109   4.732   2.964   5.192 -2.5494 -2.6512 -0.0946
  204MOL0     H28110   4.597   2.918   5.582 -0.2240 -0.2742  1.9394
  204MOL0     H28111   4.314   2.976   5.609 -1.0461  1.0726  2.0488
  204MOL0     H28112   4.333   3.110   5.714  0.2722  1.8203 -1.3266
  204MOL0     H28113   4.446   2.975   5.727  0.3021  0.2473  0.9449
  204MOL0     H28114   4.271   3.420   5.286  1.6090  1.2406  0.0943
  204MOL0     H28115   4.052   3.567   5.189 -0.1364 -1.9626  0.1249
  204MOL0     H28116   3.816   3.622   5.434 -0.3454 -0.1141  1.2571
  204MOL0     H28117   3.860   3.759   5.534 -0.9077 -1.3763 -0.2059
  204MOL0     H28118   3.627   3.751   5.394 -0.0764  2.7614 -0.0067
  204MOL0     H28119   3.711   3.893   5.425 -2.7223  2.6849 -2.5549
  204MOL0     H28120   3.814   3.856   5.173 -0.3064  1.1010 -0.6264
  204MOL0     H28121   3.641   3.885   5.171 -1.1706 -2.3653 -4.3511
  204MOL0     H28122   3.566   3.673   5.156 -0.8005 -1.7671 -2.3600
  204MOL0     H28123   3.716   3.593   5.204  0.9171  0.5104 -1.2879
  204MOL0     H28124   3.686   3.739   4.955 -3.2014 -0.9264  1.6656
  204MOL0     H28125   3.843   3.694   5.017 -0.5962  0.5792  0.6767
  204MOL0     H28126   3.790   3.460   5.023  1.1312  1.5272  0.4237
  204MOL0     H28127   3.761   3.505   4.849 -0.4279 -2.4314 -0.8237
  204MOL0     H28128   3.516   3.553   4.902  0.6292  2.8910  2.1926
  204MOL0     H28129   3.534   3.462   5.050 -0.3656 -2.2013  0.5847
  204MOL0     H28130   3.559   3.344   4.776  0.5948 -1.0216 -0.5044
  204MOL0     H28131   3.444   3.311   4.911  0.0878  0.5114 -1.4925
  204MOL0     H28132   4.089   3.775   5.573  1.9703  1.9477 -0.4522
  204MOL0     H28133   4.302   3.634   5.625 -1.0835 -2.5620  0.5494
  204MOL0     H28134   4.574   3.347   5.319  0.6362  0.8847  1.8625
  204MOL0     H28135   4.737   3.191   5.269 -1.3019  1.3427 -1.0571
  204MOL0     H28136   4.874   4.170   4.907  0.2840 -0.4655  0.9132
  204MOL0     H28137   5.042   4.299   5.036  0.8912  0.3805 -0.2676
  204MOL0     H28138   5.214   4.530   5.345  1.3215  2.1762  0.0810
  204MOL0     H28139   5.337   4.613   5.547 -1.0373  0.6965 -1.8048
  204MOL0     H28140   5.732   4.439   5.665 -0.7731 -0.3922 -1.1099
  204MOL0     H28141   5.771   4.537   5.526 -1.7903  1.3393 -0.3906
  204MOL0     H28142   5.780   4.749   5.652  1.1109 -1.3933 -2.6722
  204MOL0     H28143   5.877   4.640   5.729 -0.9302  0.8396  3.5885
  204MOL0     H28144   5.584   4.713   5.815  0.4879  1.2904  1.4792
  204MOL0     H28145   5.661   4.578   5.883 -1.3029  0.0694 -1.3959
  204MOL0     H28146   5.757   4.870   5.867 -0.0209  0.7063  1.0705
  204MOL0     H28147   5.856   4.739   5.949  0.9982 -0.8019 -1.7789
  204MOL0     H28148   5.514   4.787   6.215 -1.2645 -0.7650 -1.5391
  204MOL0     H28149   5.637   4.323   5.467 -0.2698  0.1066  1.9198
  204MOL0     H28150   5.512   4.160   5.193 -1.6431  1.7300 -1.2959
  204MOL0     H28151   5.571   4.122   5.362 -3.1000  0.5275  3.8873
  204MOL0     H28152   5.411   4.092   5.323 -1.3356  1.1607 -0.2685
  205MOL0     O28153   5.361   6.119   8.596  0.5946 -0.6581  0.7009
  205MOL0     C28154   5.277   6.086   8.519  0.4945 -0.2315  0.1423
  205MOL0     O28155   5.291   5.983   8.425  0.2405 -0.6710 -0.3992
  205MOL0     C28156   5.393   5.884   8.434  0.3179  0.6891 -0.7226
  205MOL0     C28157   5.413   5.809   8.549 -0.9811  0.2088 -0.0687
  205MOL0     C28158   5.521   5.713   8.544  0.6333 -0.1261 -0.4126
  205MOL0     C28159   5.609   5.697   8.441  0.0170  0.5988  1.4743
  205MOL0     O28160   5.725   5.620   8.447 -0.0087 -0.5579 -0.0342
  205MOL0     C28161   5.803   5.612   8.558  0.1861 -0.4337 -0.7597
  205MOL0     C28162   5.956   5.583   8.541 -0.2370 -0.7591  0.3846
  205MOL0     C28163   5.998   5.461   8.469 -0.3480 -0.0410 -0.1392
  205MOL0     C28164   6.118   5.464   8.391 -0.9323 -0.3626 -0.1064
  205MOL0     C28165   6.136   5.346   8.291 -0.2599  0.0042  0.4777
  205MOL0     C28166   6.147   5.208   8.354 -0.0718  0.2890 -0.3003
  205MOL0     C28167   6.163   5.099   8.244 -0.1663 -0.2361  0.3655
  205MOL0     C28168   6.155   4.954   8.282  0.5422 -0.8341 -0.7512
  205MOL0     N28169   6.026   4.929   8.354 -0.7520  0.5153 -0.0662
  205MOL0     C28170   5.914   4.879   8.297  0.2702 -0.3503 -0.2435
  205MOL0     C28171   5.825   4.849   8.395 -0.1120 -0.2861  0.3924
  205MOL0     C28172   5.690   4.792   8.371 -0.3036 -0.4496 -0.2660
  205MOL0     C28173   5.663   4.664   8.456 -0.4969 -0.5746 -0.4993
  205MOL0     C28174   5.762   4.554   8.413  0.6029 -0.7101  0.0473
  205MOL0     C28175   5.730   4.422   8.488 -0.8868 -0.5353  0.2714
  205MOL0     O28176   5.622   4.363   8.416 -0.0638  0.7247 -0.0345
  205MOL0     C28177   5.562   4.256   8.473 -0.2460 -1.2768  1.0997
  205MOL0     C28178   5.634   4.166   8.549 -0.3467 -0.2765 -0.2999
  205MOL0     C28179   5.573   4.039   8.581 -0.1291  0.6242 -0.4894
  205MOL0     C28180   5.659   3.948   8.674  0.0687  0.3604 -0.7060
  205MOL0     C28181   5.447   4.011   8.542 -0.3706 -0.5890  0.4675
  205MOL0     C28182   5.383   3.884   8.581  1.0884  1.2642  0.4262
  205MOL0     O28183   5.452   3.767   8.609  0.2960 -0.3792  0.0064
  205MOL0     C28184   5.391   3.640   8.619  0.2047 -0.9634 -0.2917
  205MOL0     C28185   5.322   3.568   8.522  0.4625  0.9484  0.7709
  205MOL0     C28186   5.279   3.442   8.553 -0.7571 -0.4393 -0.4111
  205MOL0     C28187   5.307   3.383   8.671  0.5354 -0.2185 -0.2390
  205MOL0     O28188   5.255   3.257   8.689 -0.5241  0.1279  0.0469
  205MOL0     C28189   5.188   3.239   8.817 -0.0601 -0.0337  0.1702
  205MOL0     C28190   5.162   3.091   8.831 -0.1386 -0.2434 -0.9796
  205MOL0     C28191   5.069   3.037   8.720 -0.7920  0.5034 -0.4736
  205MOL0     C28192   5.020   2.890   8.752  0.2450  0.6645 -0.6301
  205MOL0     C28193   4.950   2.826   8.626  0.2282  0.3301 -0.9744
  205MOL0     C28194   4.831   2.726   8.666  0.0042  0.8571 -0.1885
  205MOL0     C28195   4.744   2.692   8.551  0.8513  0.1925 -0.3329
  205MOL0     C28196   4.626   2.602   8.584  0.1183  0.9250  0.1371
  205MOL0    Cl28197   4.642   2.430   8.563  0.5390  0.1266  0.3294
  205MOL0     C28198   5.397   3.435   8.758 -0.5957 -0.9083 -0.4212
  205MOL0     C28199   5.438   3.571   8.736 -0.3354 -0.0372  0.6828
  205MOL0     O28200   5.261   3.898   8.590  0.1759  0.7888  0.3244
  205MOL0     C28201   5.366   4.113   8.474 -0.0900  1.3061 -0.5425
  205MOL0     C28202   5.427   4.238   8.438 -0.3537  0.6991 -0.4741
  205MOL0     N28203   5.885   4.891   8.510  0.6747 -0.4252 -0.3851
  205MOL0     N28204   5.999   4.944   8.488 -0.6156 -0.0768  0.6790
  205MOL0     C28205   5.580   5.773   8.328 -0.0090 -0.4380  0.3207
  205MOL0     C28206   5.475   5.862   8.323 -0.5498 -0.5864  0.2265
  205MOL0     C28207   5.146   6.162   8.507 -0.8699 -0.1737 -1.0589
  205MOL0     C28208   5.044   6.103   8.427 -0.0189 -0.3838 -0.9096
  205MOL0     C28209   4.914   6.164   8.421  0.5370  0.3453 -0.4332
  205MOL0     C28210   4.882   6.281   8.490  0.0089  1.1364 -0.5756
  205MOL0     O28211   4.768   6.353   8.479  0.9566  1.3894  0.1310
  205MOL0     C28212   4.641   6.282   8.481  0.1109 -0.0990 -0.1798
  205MOL0     C28213   4.518   6.368   8.527 -0.1311  0.2191 -0.3375
  205MOL0     C28214   4.516   6.510   8.481  0.0023 -0.4270  0.3711
  205MOL0     C28215   4.415   6.578   8.563 -0.1027 -0.3580 -0.5963
  205MOL0     C28216   4.389   6.707   8.492 -0.2239 -0.2728 -0.1351
  205MOL0     C28217   4.365   6.818   8.441 -0.0545 -0.0142  0.0360
  205MOL0     C28218   4.981   6.340   8.562 -0.1256 -0.2241  0.1728
  205MOL0     C28219   5.110   6.279   8.574 -0.7846 -0.6063 -0.3796
  205MOL0     C28220   5.210   6.356   8.662 -0.9551  0.1205 -0.0940
  205MOL0     H28221   5.358   5.826   8.641  0.8551 -3.1727  1.8425
  205MOL0     H28222   5.535   5.646   8.629 -0.6424  0.0212 -0.0679
  205MOL0     H28223   5.764   5.529   8.618  2.5487  0.0720  1.6654
  205MOL0     H28224   5.797   5.707   8.610  1.3527  1.0286 -3.1283
  205MOL0     H28225   5.991   5.672   8.489 -1.0324 -1.2799 -1.0978
  205MOL0     H28226   6.013   5.569   8.634 -0.3232 -2.4386  0.2134
  205MOL0     H28227   5.987   5.383   8.544  0.0238 -0.5024 -0.5627
  205MOL0     H28228   5.909   5.447   8.407 -1.8107 -1.6646  2.1959
  205MOL0     H28229   6.126   5.557   8.334 -3.4450  0.9910  1.5441
  205MOL0     H28230   6.197   5.460   8.467 -1.1696  0.8749  0.2423
  205MOL0     H28231   6.230   5.366   8.239 -1.5362 -1.5528 -2.7207
  205MOL0     H28232   6.054   5.352   8.218 -0.0521  1.5436  0.3338
  205MOL0     H28233   6.225   5.201   8.429 -1.2342  0.0926  0.9272
  205MOL0     H28234   6.052   5.202   8.409  1.5050  0.7915  2.6523
  205MOL0     H28235   6.255   5.114   8.186 -0.5785  2.8328  0.3242
  205MOL0     H28236   6.087   5.120   8.169  1.1644 -0.8981 -1.2255
  205MOL0     H28237   6.158   4.900   8.187 -2.2396 -0.4709 -1.1281
  205MOL0     H28238   6.242   4.928   8.344  0.6220 -4.8741 -2.2866
  205MOL0     H28239   5.888   4.875   8.191  1.2983  1.6484 -0.6093
  205MOL0     H28240   5.671   4.765   8.266  0.1040  1.1802 -0.7862
  205MOL0     H28241   5.619   4.871   8.396  1.1670  0.4207  1.3812
  205MOL0     H28242   5.676   4.689   8.562 -1.0284  0.0986 -0.5875
  205MOL0     H28243   5.562   4.635   8.425 -2.0708  3.2032  0.5005
  205MOL0     H28244   5.756   4.531   8.306 -4.0067 -1.8468  0.3427
  205MOL0     H28245   5.865   4.589   8.427  1.5156 -2.1600 -2.4359
  205MOL0     H28246   5.822   4.362   8.477  0.8936  2.0982 -0.2688
  205MOL0     H28247   5.702   4.438   8.592 -2.6610  0.6103 -0.3500
  205MOL0     H28248   5.739   4.185   8.568 -0.8059 -0.1247  2.5725
  205MOL0     H28249   5.694   3.868   8.609 -0.3306 -0.8473  0.5315
  205MOL0     H28250   5.607   3.895   8.754  2.2347 -1.7927 -0.6272
  205MOL0     H28251   5.741   4.004   8.720  1.4786 -0.0705 -2.5854
  205MOL0     H28252   5.307   3.616   8.425  3.2134  0.4365  0.0065
  205MOL0     H28253   5.225   3.380   8.481 -0.3991  0.2711 -1.3097
  205MOL0     H28254   5.258   3.269   8.896 -1.6174  2.8865  0.5763
  205MOL0     H28255   5.092   3.291   8.825 -0.4752 -1.0286  3.0484
  205MOL0     H28256   5.249   3.025   8.832  2.5523  3.0599 -0.1045
  205MOL0     H28257   5.122   3.075   8.931 -2.4345 -0.0207 -1.7879
  205MOL0     H28258   5.132   3.031   8.631 -0.9449  3.0184 -0.8171
  205MOL0     H28259   4.979   3.095   8.698  0.5388  2.5627 -0.6504
  205MOL0     H28260   4.948   2.893   8.834  1.3267 -1.8245  0.5025
  205MOL0     H28261   5.102   2.821   8.772  2.1685  2.0239 -3.1728
  205MOL0     H28262   4.914   2.911   8.568  3.6131  5.0226  2.9064
  205MOL0     H28263   5.020   2.780   8.556  1.0347  1.0281 -0.6468
  205MOL0     H28264   4.770   2.773   8.743 -0.9764 -1.3557  0.4725
  205MOL0     H28265   4.875   2.639   8.716 -0.7542  0.2131 -0.6099
  205MOL0     H28266   4.801   2.657   8.464  0.3180  0.9074 -0.9898
  205MOL0     H28267   4.701   2.789   8.526 -2.6135 -0.6904  1.5835
  205MOL0     H28268   4.543   2.632   8.519  0.4603 -0.4313 -0.9536
  205MOL0     H28269   4.599   2.629   8.686  3.1774 -2.4114  2.0667
  205MOL0     H28270   5.441   3.379   8.840 -0.3001 -0.5277 -0.3137
  205MOL0     H28271   5.505   3.620   8.805  1.6041 -0.0331 -1.0947
  205MOL0     H28272   5.267   4.090   8.436  0.5145  1.0339 -2.0140
  205MOL0     H28273   5.354   4.306   8.394 -0.6742  1.0489  0.5678
  205MOL0     H28274   5.637   5.750   8.239  0.0666 -0.8292  0.4704
  205MOL0     H28275   5.450   5.924   8.237 -1.4284 -0.0144  0.8767
  205MOL0     H28276   5.051   6.006   8.379 -3.2642 -1.0569 -0.2700
  205MOL0     H28277   4.853   6.122   8.341  1.8605 -0.9154 -0.8276
  205MOL0     H28278   4.625   6.236   8.383  2.8518 -4.0182  0.9563
  205MOL0     H28279   4.647   6.204   8.558  0.3890  0.3922  0.3005
  205MOL0     H28280   4.508   6.368   8.636  0.2667  1.7631 -0.2666
  205MOL0     H28281   4.422   6.327   8.495 -2.5859  3.2146  2.4290
  205MOL0     H28282   4.612   6.562   8.490 -0.7110  0.9009  0.3853
  205MOL0     H28283   4.489   6.507   8.376 -1.8201  0.6499  0.7816
  205MOL0     H28284   4.451   6.600   8.664  0.1282  1.2019 -0.9919
  205MOL0     H28285   4.320   6.525   8.567 -0.1301 -0.2414  1.8768
  205MOL0     H28286   4.330   6.904   8.388 -0.0412  2.2578  3.3664
  205MOL0     H28287   4.972   6.434   8.615 -0.5927 -0.9026  1.3386
  205MOL0     H28288   5.276   6.414   8.597 -1.4056  0.4590 -0.2576
  205MOL0     H28289   5.146   6.426   8.718 -2.7758 -0.3865 -1.4476
  205MOL0     H28290   5.273   6.300   8.731 -1.1808  2.5429  2.2381
  206MOL0     O28291   9.566   1.861   1.314 -0.0853 -0.2441 -0.5797
  206MOL0     C28292   9.538   1.967   1.262 -0.0438  0.4385 -0.9277
  206MOL0     O28293   9.469   2.075   1.328  0.1939  0.0592 -0.1714
  206MOL0     C28294   9.426   2.047   1.458  0.7572  0.3188 -0.9340
  206MOL0     C28295   9.296   2.010   1.472 -1.2283 -0.2743 -0.0231
  206MOL0     C28296   9.240   1.996   1.596 -0.0187  0.1059 -0.6206
  206MOL0     C28297   9.319   2.013   1.711  0.6057 -0.3560 -0.2321
  206MOL0     O28298   9.250   1.984   1.826 -0.3380 -0.1146 -0.1987
  206MOL0     C28299   9.278   2.091   1.923 -1.2818 -0.2215 -0.1881
  206MOL0     C28300   9.206   2.047   2.053  1.1859  0.5025  0.2950
  206MOL0     C28301   9.053   2.065   2.029 -0.2673  0.1707 -0.2783
  206MOL0     C28302   8.993   2.130   2.157 -0.8334 -0.5553 -0.6495
  206MOL0     C28303   8.840   2.157   2.153 -0.6453 -0.2420  0.0548
  206MOL0     C28304   8.800   2.230   2.283  0.9353  0.3665  0.5554
  206MOL0     C28305   8.658   2.294   2.259 -0.3760  0.6309 -0.2903
  206MOL0     C28306   8.555   2.195   2.197  0.6370 -0.5149 -0.4584
  206MOL0     N28307   8.422   2.258   2.188  1.6139 -0.5242  0.0630
  206MOL0     C28308   8.339   2.253   2.304  0.1106 -0.2648  0.1042
  206MOL0     C28309   8.255   2.356   2.284 -0.2029 -0.5715  0.3693
  206MOL0     C28310   8.157   2.408   2.384 -0.5645 -0.0223  0.4645
  206MOL0     C28311   8.029   2.327   2.393  0.4002  0.2634 -0.2378
  206MOL0     C28312   7.913   2.377   2.300  0.1178 -0.7859  0.7133
  206MOL0     C28313   7.954   2.352   2.153  0.9730  0.1916 -0.2137
  206MOL0     O28314   7.827   2.357   2.081 -0.2527  0.0731 -1.1505
  206MOL0     C28315   7.822   2.357   1.949  0.0872 -0.4545  0.5840
  206MOL0     C28316   7.935   2.335   1.869 -0.3351  0.1949  0.2037
  206MOL0     C28317   7.920   2.326   1.719 -0.3690 -0.1479 -0.7189
  206MOL0     C28318   8.041   2.295   1.641 -1.1450 -0.2494 -0.0348
  206MOL0     C28319   7.789   2.336   1.659  0.3798 -0.4479  0.1289
  206MOL0     C28320   7.755   2.303   1.515  0.1516 -0.8764  0.8957
  206MOL0     O28321   7.857   2.243   1.443  0.5686 -0.8492 -0.4517
  206MOL0     C28322   7.845   2.245   1.307 -0.3741 -0.0545  0.1806
  206MOL0     C28323   7.884   2.137   1.238 -0.1656  1.0682 -0.0488
  206MOL0     C28324   7.907   2.145   1.094  1.0082 -0.6791 -0.4964
  206MOL0     C28325   7.883   2.260   1.027  0.1913 -0.4670  0.0877
  206MOL0     O28326   7.922   2.270   0.893 -0.1280 -0.1162  0.1459
  206MOL0     C28327   7.949   2.402   0.850 -1.0432 -0.2765  0.8878
  206MOL0     C28328   8.039   2.397   0.715  0.2206  0.1698 -0.2208
  206MOL0     C28329   7.951   2.411   0.595  0.4686 -0.6668  0.1825
  206MOL0     C28330   8.003   2.330   0.474  0.3270 -0.1043  0.3605
  206MOL0     C28331   7.934   2.355   0.350  0.0264  0.4351 -0.9340
  206MOL0     C28332   7.986   2.269   0.246  1.0106  0.2614 -0.4333
  206MOL0     C28333   7.907   2.284   0.110  0.0441 -0.3066  0.1964
  206MOL0     C28334   7.883   2.434   0.071 -0.8758  0.3441 -0.7722
  206MOL0    Cl28335   8.051   2.498   0.043  0.2548 -0.6328 -0.0220
  206MOL0     C28336   7.833   2.364   1.098  0.1951 -0.5040 -0.4888
  206MOL0     C28337   7.818   2.365   1.234  0.0845  1.2600  0.7259
  206MOL0     O28338   7.639   2.297   1.481 -0.7296 -0.6100 -0.1167
  206MOL0     C28339   7.684   2.369   1.745  1.3196 -0.6153 -0.0435
  206MOL0     C28340   7.697   2.377   1.885 -0.4511 -0.4942 -0.4297
  206MOL0     N28341   8.281   2.420   2.164  0.3785  0.1512  0.0293
  206MOL0     N28342   8.380   2.356   2.110  0.6222 -0.2016 -0.3544
  206MOL0     C28343   9.455   2.038   1.697 -0.6028  0.8083  0.1056
  206MOL0     C28344   9.508   2.066   1.570  0.4793 -0.4735  0.1230
  206MOL0     C28345   9.571   1.972   1.112  0.4836 -1.2911 -0.0580
  206MOL0     C28346   9.540   1.873   1.023  1.0072 -0.8200 -0.9037
  206MOL0     C28347   9.580   1.868   0.891 -0.6441 -0.9848 -1.0403
  206MOL0     C28348   9.657   1.966   0.834 -1.5850 -0.6175 -0.5725
  206MOL0     O28349   9.706   1.971   0.701  0.2185 -0.4593  0.3623
  206MOL0     C28350   9.708   1.853   0.629  0.7113  0.3569  0.0456
  206MOL0     C28351   9.793   1.739   0.692 -0.2480 -0.9096  0.3477
  206MOL0     C28352   9.797   1.628   0.583 -0.1227  0.9526  0.3052
  206MOL0     C28353   9.922   1.540   0.600  1.1313  0.0796  0.2011
  206MOL0     C28354   9.911   1.433   0.702  1.0193 -0.0425 -0.2757
  206MOL0     C28355   9.921   1.329   0.759 -0.3863 -0.3075 -1.2878
  206MOL0     C28356   9.685   2.076   0.918  0.1594 -0.2218  0.0575
  206MOL0     C28357   9.644   2.086   1.049  0.4476  1.1407  0.3290
  206MOL0     C28358   9.694   2.213   1.117 -0.5541  0.1443 -0.5227
  206MOL0     H28359   9.240   1.992   1.380  0.2036 -0.3010 -0.9170
  206MOL0     H28360   9.144   1.946   1.608  0.7401 -0.8590  2.4694
  206MOL0     H28361   9.227   2.183   1.892  1.1562  1.1319 -0.4439
  206MOL0     H28362   9.384   2.104   1.944 -1.5121  2.9268 -0.5226
  206MOL0     H28363   9.220   1.943   2.082 -0.2650  0.9173  2.7907
  206MOL0     H28364   9.232   2.119   2.131  0.5080  0.0054  0.9894
  206MOL0     H28365   9.024   2.128   1.944  1.7288 -0.1381 -1.2462
  206MOL0     H28366   9.006   1.967   2.015 -0.7149  0.0620  1.7676
  206MOL0     H28367   9.011   2.065   2.244  0.7850 -0.0563 -0.5845
  206MOL0     H28368   9.034   2.230   2.170  1.7137 -0.8697 -4.6393
  206MOL0     H28369   8.777   2.072   2.125 -1.0952  0.1209 -0.0480
  206MOL0     H28370   8.824   2.224   2.068 -2.0160 -2.4107 -1.5017
  206MOL0     H28371   8.785   2.161   2.367 -0.8684  0.9788  0.7890
  206MOL0     H28372   8.867   2.311   2.313  0.8629  0.4079  0.6063
  206MOL0     H28373   8.674   2.383   2.198  3.0653  1.8315  2.0869
  206MOL0     H28374   8.626   2.325   2.359  2.2483  2.6853  0.0231
  206MOL0     H28375   8.587   2.168   2.096 -1.5791 -3.4333 -0.5147
  206MOL0     H28376   8.548   2.100   2.250  1.7626 -3.0821 -4.4717
  206MOL0     H28377   8.351   2.198   2.396  0.9364  0.1728  0.2694
  206MOL0     H28378   8.126   2.512   2.368  0.2677  0.5005  2.1443
  206MOL0     H28379   8.204   2.401   2.482 -2.0238 -0.2216  1.1740
  206MOL0     H28380   8.058   2.222   2.382 -2.3481 -0.8247  1.7784
  206MOL0     H28381   7.986   2.345   2.492 -0.6765  2.0148 -0.9891
  206MOL0     H28382   7.822   2.324   2.328 -1.0190 -0.9699 -2.8443
  206MOL0     H28383   7.905   2.486   2.295  1.5154 -0.6974 -0.4852
  206MOL0     H28384   8.028   2.426   2.121  1.3660 -1.1220 -2.5933
  206MOL0     H28385   8.001   2.253   2.147 -0.8525 -1.0276  2.8758
  206MOL0     H28386   8.033   2.323   1.914  0.8376 -0.9902 -2.4733
  206MOL0     H28387   8.062   2.353   1.550 -0.2852 -0.9046 -0.2733
  206MOL0     H28388   8.043   2.191   1.607 -1.8899 -0.0923 -0.5908
  206MOL0     H28389   8.132   2.299   1.701  0.5388  2.1891 -2.4758
  206MOL0     H28390   7.907   2.045   1.292  0.5406  2.8020  2.7781
  206MOL0     H28391   7.947   2.062   1.037 -2.0925 -1.6676 -1.4431
  206MOL0     H28392   7.855   2.458   0.848 -1.6761 -1.3223  0.3109
  206MOL0     H28393   8.012   2.450   0.926  0.1032 -0.4229  0.0395
  206MOL0     H28394   8.117   2.473   0.720 -0.7842  1.1529  1.9360
  206MOL0     H28395   8.081   2.296   0.712  3.3748  1.3460  0.3311
  206MOL0     H28396   7.952   2.514   0.559  1.6854 -0.5433  0.5242
  206MOL0     H28397   7.851   2.372   0.615 -0.1483 -0.7024 -2.5682
  206MOL0     H28398   7.996   2.223   0.496  4.4697 -0.3595  1.3153
  206MOL0     H28399   8.108   2.354   0.456  0.3718  0.6546  1.5298
  206MOL0     H28400   7.826   2.343   0.360  0.4944 -2.1999  3.6885
  206MOL0     H28401   7.930   2.462   0.328 -3.4737  0.2429 -1.8325
  206MOL0     H28402   7.971   2.164   0.274  3.3435 -0.6863 -2.3584
  206MOL0     H28403   8.094   2.270   0.230  1.1346  0.3653  0.3737
  206MOL0     H28404   7.816   2.227   0.128  1.8579 -3.3898  0.3826
  206MOL0     H28405   7.961   2.231   0.032  0.3596  1.5111 -0.8816
  206MOL0     H28406   7.836   2.495   0.148 -0.9704  1.4048 -1.6500
  206MOL0     H28407   7.820   2.436  -0.019  0.4623 -0.4025 -1.7685
  206MOL0     H28408   7.805   2.459   1.054  0.8707 -1.8436 -4.1397
  206MOL0     H28409   7.780   2.455   1.281  0.5015  0.6972  2.2306
  206MOL0     H28410   7.595   2.399   1.691  0.2207 -2.5567  0.6086
  206MOL0     H28411   7.611   2.384   1.951 -1.1482 -0.0453 -1.3577
  206MOL0     H28412   9.528   2.029   1.778 -0.7439  1.7193  0.3468
  206MOL0     H28413   9.614   2.089   1.574  0.2143  0.6222  2.3008
  206MOL0     H28414   9.494   1.782   1.062  1.8687 -0.3411  1.3958
  206MOL0     H28415   9.553   1.779   0.835 -2.8992 -1.9216  1.3018
  206MOL0     H28416   9.605   1.819   0.618  0.5370  1.3638 -1.9599
  206MOL0     H28417   9.760   1.875   0.535  1.0166 -1.2257 -0.1897
  206MOL0     H28418   9.753   1.703   0.788 -2.1320  1.1363  0.4235
  206MOL0     H28419   9.896   1.773   0.698 -0.0066 -1.3583 -0.9615
  206MOL0     H28420   9.704   1.572   0.571 -0.1763  0.5781  2.0897
  206MOL0     H28421   9.828   1.684   0.495  4.4154  1.9870  2.2245
  206MOL0     H28422  10.010   1.595   0.634 -0.3795  3.3373 -0.7952
  206MOL0     H28423   9.923   1.486   0.505 -0.9954  1.1840 -0.5038
  206MOL0     H28424   9.928   1.245   0.825 -2.7911  3.3752  4.4210
  206MOL0     H28425   9.744   2.162   0.889  2.1119  0.1606  4.3496
  206MOL0     H28426   9.803   2.228   1.116  0.0483 -3.3388  0.2892
  206MOL0     H28427   9.654   2.300   1.065  1.8249 -0.2945 -3.2951
  206MOL0     H28428   9.659   2.205   1.221 -0.2499  1.3423 -0.3165
  207MOL0     O28429   1.283   4.815   3.638  0.2695 -0.3091 -0.4916
  207MOL0     C28430   1.206   4.845   3.731 -0.0832 -0.3209  1.1112
  207MOL0     O28431   1.215   4.955   3.817 -1.6855  1.1828  0.2168
  207MOL0     C28432   1.333   5.022   3.821 -0.4025  0.6643 -0.9561
  207MOL0     C28433   1.431   4.992   3.917 -0.9895  0.4592  0.1269
  207MOL0     C28434   1.548   5.064   3.930  0.5385 -0.7205  0.4437
  207MOL0     C28435   1.566   5.174   3.847 -0.2631  0.4357  0.3049
  207MOL0     O28436   1.680   5.239   3.860 -0.0004 -0.1177  0.1067
  207MOL0     C28437   1.735   5.331   3.764 -0.7005  0.4236 -0.1094
  207MOL0     C28438   1.879   5.367   3.789  0.6033 -0.0889  0.5460
  207MOL0     C28439   1.964   5.242   3.793  0.5033 -0.2631 -1.3915
  207MOL0     C28440   2.123   5.270   3.806 -0.4104  0.4390 -0.1293
  207MOL0     C28441   2.185   5.166   3.901  0.7019  0.3149 -0.1185
  207MOL0     C28442   2.164   5.022   3.841  0.1753 -0.6525 -0.2645
  207MOL0     C28443   2.240   4.925   3.941  0.1333  0.6872 -0.7851
  207MOL0     C28444   2.209   4.780   3.897  1.1946 -0.0155 -0.3658
  207MOL0     N28445   2.219   4.747   3.754  0.7102  0.0840 -1.1828
  207MOL0     C28446   2.132   4.660   3.680 -0.2699 -0.0943  0.7527
  207MOL0     C28447   2.186   4.658   3.554  0.0347 -0.8428  0.9414
  207MOL0     C28448   2.128   4.604   3.429  0.5794  0.8436 -0.7493
  207MOL0     C28449   2.228   4.579   3.314  0.3006  0.1198 -0.2434
  207MOL0     C28450   2.177   4.521   3.176 -1.1199 -0.3812  0.2588
  207MOL0     C28451   2.058   4.600   3.143 -0.1199  0.4030 -0.3220
  207MOL0     O28452   2.088   4.740   3.131 -0.1071 -0.5584  0.3495
  207MOL0     C28453   2.007   4.827   3.068  0.3806 -0.7053  0.8169
  207MOL0     C28454   1.879   4.846   3.109  0.1635  0.1044 -0.4901
  207MOL0     C28455   1.801   4.939   3.048  0.6212  0.5645  0.1056
  207MOL0     C28456   1.652   4.950   3.091 -0.2562  0.0590  0.0697
  207MOL0     C28457   1.845   5.012   2.936  0.2784 -0.8653 -0.1849
  207MOL0     C28458   1.766   5.107   2.846  0.6112 -0.5138 -0.2738
  207MOL0     O28459   1.645   5.059   2.803  0.0352  0.5603 -0.6896
  207MOL0     C28460   1.554   5.156   2.762  0.5515  1.1487  0.0258
  207MOL0     C28461   1.547   5.288   2.791 -0.3583  0.4540  0.1728
  207MOL0     C28462   1.443   5.367   2.748 -0.9024 -0.2168 -0.0210
  207MOL0     C28463   1.337   5.318   2.676 -0.2794 -0.2420  0.4993
  207MOL0     O28464   1.228   5.399   2.640  0.6399 -0.3202  0.8235
  207MOL0     C28465   1.242   5.545   2.624  0.5870 -0.0913 -0.3819
  207MOL0     C28466   1.295   5.579   2.487 -1.8390  0.3368 -0.9119
  207MOL0     C28467   1.302   5.727   2.441  0.0436 -0.3062  0.1408
  207MOL0     C28468   1.425   5.789   2.511 -0.2563  0.1955 -0.7013
  207MOL0     C28469   1.395   5.941   2.525  0.0570 -0.1944  0.3828
  207MOL0     C28470   1.300   5.973   2.646 -0.8965  0.1975 -0.1822
  207MOL0     C28471   1.365   5.945   2.787  0.3606  0.3216 -0.6332
  207MOL0     C28472   1.356   6.050   2.905 -0.7985  0.6695 -0.8374
  207MOL0    Cl28473   1.498   6.160   2.877  0.0078 -0.1174  0.2565
  207MOL0     C28474   1.347   5.182   2.631  0.4069  0.3920  1.1004
  207MOL0     C28475   1.450   5.099   2.682  0.0868  0.5678 -0.4766
  207MOL0     O28476   1.822   5.215   2.822  0.3727  0.3572  0.4838
  207MOL0     C28477   1.977   4.990   2.897  0.8128 -1.1561 -0.2083
  207MOL0     C28478   2.060   4.908   2.972  0.8073  0.0278  0.2400
  207MOL0     N28479   2.295   4.747   3.550 -0.2281 -0.8789 -0.6231
  207MOL0     N28480   2.311   4.796   3.665 -0.7774 -0.4589 -0.5200
  207MOL0     C28481   1.472   5.213   3.753  0.0798  1.1217  0.7380
  207MOL0     C28482   1.351   5.137   3.737 -0.7690  0.3582 -0.2853
  207MOL0     C28483   1.088   4.770   3.739  0.2606  1.2372 -0.4461
  207MOL0     C28484   1.034   4.741   3.612  0.1380  0.3928  1.1088
  207MOL0     C28485   0.908   4.668   3.594  0.1541  0.6963 -0.2568
  207MOL0     C28486   0.849   4.604   3.706  0.3800  0.0870  0.1888
  207MOL0     O28487   0.735   4.530   3.678  0.0672 -0.6127  0.6064
  207MOL0     C28488   0.728   4.404   3.738 -0.1753  0.0155  0.8055
  207MOL0     C28489   0.623   4.317   3.663 -0.3620 -0.2843 -0.2861
  207MOL0     C28490   0.619   4.192   3.747 -1.0576  0.1333 -0.8231
  207MOL0     C28491   0.492   4.115   3.700  0.0012 -0.0437  0.3604
  207MOL0     C28492   0.471   3.986   3.768 -0.2253 -1.3630 -0.3678
  207MOL0     C28493   0.455   3.889   3.836  0.3546 -0.3555  0.3380
  207MOL0     C28494   0.890   4.643   3.841 -0.4135 -0.4596  0.7335
  207MOL0     C28495   1.014   4.725   3.851 -0.2648  1.0157  0.0325
  207MOL0     C28496   1.071   4.767   3.983 -0.3059  0.1639 -0.0779
  207MOL0     H28497   1.410   4.916   3.992  2.3169 -0.8776 -0.1137
  207MOL0     H28498   1.629   5.046   4.000  0.5277 -4.7636 -0.3109
  207MOL0     H28499   1.683   5.428   3.767 -1.0577  0.2202  0.7994
  207MOL0     H28500   1.725   5.295   3.662 -1.6025 -0.0477  0.1318
  207MOL0     H28501   1.921   5.432   3.711  0.3688  2.4320  2.3909
  207MOL0     H28502   1.891   5.414   3.887  2.9387 -2.5211  1.5430
  207MOL0     H28503   1.919   5.200   3.883 -1.4159  1.7147 -1.3537
  207MOL0     H28504   1.940   5.182   3.704  0.4541 -1.3686 -0.6480
  207MOL0     H28505   2.172   5.281   3.710 -4.4248 -0.3316 -2.5117
  207MOL0     H28506   2.137   5.368   3.852 -0.8810  1.3962 -1.9577
  207MOL0     H28507   2.132   5.171   3.997  0.2563  0.4564 -0.3725
  207MOL0     H28508   2.290   5.185   3.924  1.0773  0.5052 -1.8901
  207MOL0     H28509   2.061   4.988   3.851  0.7376 -2.6551 -0.8675
  207MOL0     H28510   2.197   5.010   3.738 -0.0807  0.5881 -0.5123
  207MOL0     H28511   2.215   4.949   4.045 -1.4058  0.8792 -1.1755
  207MOL0     H28512   2.345   4.949   3.924  0.4793 -1.2671 -1.6733
  207MOL0     H28513   2.295   4.725   3.939  2.4637  0.7808 -1.8253
  207MOL0     H28514   2.110   4.757   3.938  0.4357  0.7927 -1.6947
  207MOL0     H28515   2.039   4.610   3.706 -0.7979  0.7878  0.6052
  207MOL0     H28516   2.052   4.679   3.407  2.3267  2.3029 -2.0705
  207MOL0     H28517   2.089   4.508   3.466  2.4678  0.0369 -0.7310
  207MOL0     H28518   2.268   4.677   3.287 -0.9026  0.4144 -1.0413
  207MOL0     H28519   2.316   4.529   3.355  1.0863  1.8385  0.2712
  207MOL0     H28520   2.244   4.531   3.090 -1.1244  0.6187  0.3600
  207MOL0     H28521   2.151   4.415   3.186 -0.5652 -0.9318 -2.9015
  207MOL0     H28522   2.027   4.580   3.040 -1.2549  3.1608 -0.6030
  207MOL0     H28523   1.978   4.570   3.211 -0.1490  1.9637  0.3671
  207MOL0     H28524   1.834   4.800   3.196  0.6079  1.3987  0.4609
  207MOL0     H28525   1.583   4.900   3.021 -1.2678  3.5480 -1.6775
  207MOL0     H28526   1.626   5.056   3.082 -1.8895 -0.2813  0.4698
  207MOL0     H28527   1.630   4.915   3.192 -1.0736 -0.3798 -0.2452
  207MOL0     H28528   1.627   5.338   2.845  0.2179 -0.3756  0.0888
  207MOL0     H28529   1.457   5.467   2.789  1.0486 -0.5669  0.2563
  207MOL0     H28530   1.145   5.595   2.626 -0.5572 -2.0267 -2.2939
  207MOL0     H28531   1.294   5.586   2.711 -1.1388 -0.6434  0.9800
  207MOL0     H28532   1.388   5.523   2.491 -2.1503 -0.1820 -0.7749
  207MOL0     H28533   1.239   5.521   2.412 -2.9167 -0.0713  0.1851
  207MOL0     H28534   1.205   5.771   2.466  0.6884  1.9068 -0.9893
  207MOL0     H28535   1.303   5.735   2.332 -0.8188 -0.0010  0.1500
  207MOL0     H28536   1.517   5.762   2.458  0.4204  0.1550  0.4375
  207MOL0     H28537   1.430   5.757   2.616 -4.2831  1.6874  0.1194
  207MOL0     H28538   1.490   5.988   2.548 -0.3707 -0.5797  3.2312
  207MOL0     H28539   1.361   5.986   2.431 -1.5583 -1.1330  0.4744
  207MOL0     H28540   1.202   5.926   2.637 -1.2436  0.6577  0.9893
  207MOL0     H28541   1.286   6.081   2.634  2.3827  0.9693  1.8236
  207MOL0     H28542   1.472   5.926   2.780  0.4019  0.0123  0.5435
  207MOL0     H28543   1.305   5.861   2.824 -0.4545  0.9304 -0.5290
  207MOL0     H28544   1.373   6.002   3.002 -0.1037 -1.2968 -1.8834
  207MOL0     H28545   1.261   6.104   2.902 -0.5809  1.0351 -1.5603
  207MOL0     H28546   1.264   5.139   2.576 -1.0721  1.4860  2.3914
  207MOL0     H28547   1.465   5.002   2.636  2.3294  0.9416 -0.6460
  207MOL0     H28548   2.020   5.040   2.811 -0.1483 -2.2177 -1.3447
  207MOL0     H28549   2.163   4.895   2.941  0.7189 -3.1929  0.9444
  207MOL0     H28550   1.495   5.290   3.680 -0.7542  3.2406  2.5830
  207MOL0     H28551   1.271   5.153   3.666  1.9127  2.5186 -3.1112
  207MOL0     H28552   1.088   4.765   3.522  1.0043 -1.0996  1.2079
  207MOL0     H28553   0.874   4.636   3.496 -2.0487  0.4898  0.5240
  207MOL0     H28554   0.826   4.357   3.734 -0.8257 -1.3779  0.4564
  207MOL0     H28555   0.700   4.426   3.841 -5.1367  1.7704 -0.6272
  207MOL0     H28556   0.647   4.284   3.561 -2.7473 -3.6362  0.0764
  207MOL0     H28557   0.526   4.369   3.673 -1.8074 -2.7485 -0.7622
  207MOL0     H28558   0.709   4.133   3.727 -0.3586  1.1447 -0.7133
  207MOL0     H28559   0.594   4.211   3.852 -2.7481  0.0739 -1.1915
  207MOL0     H28560   0.503   4.076   3.598 -0.3237 -2.1510  1.0662
  207MOL0     H28561   0.411   4.188   3.712 -1.1309 -0.8055 -1.9574
  207MOL0     H28562   0.438   3.805   3.901  0.4468  2.1050  3.7872
  207MOL0     H28563   0.841   4.592   3.924 -1.0191 -0.4662  0.3730
  207MOL0     H28564   1.174   4.733   3.991 -0.4617 -0.0424  1.2763
  207MOL0     H28565   1.066   4.872   4.014  2.0996 -0.6324  3.6404
  207MOL0     H28566   1.021   4.709   4.061  0.3152 -1.3238 -0.7532
  208MOL0     O28567  10.993   7.621  10.751 -0.1470  0.5074  0.4472
  208MOL0     C28568  10.955   7.680  10.654 -0.5264 -0.1783 -0.4922
  208MOL0     O28569  11.009   7.668  10.527  0.6234  0.0209 -0.0548
  208MOL0     C28570  11.065   7.544  10.494 -0.1196  0.2090 -0.7007
  208MOL0     C28571  11.023   7.461  10.383  0.2052  0.0233 -0.2589
  208MOL0     C28572  11.061   7.333  10.357 -0.1636 -0.8743  0.3881
  208MOL0     C28573  11.146   7.273  10.454  0.1445 -0.0460  0.5389
  208MOL0     O28574  11.214   7.161  10.414  0.4698  0.4601 -0.3699
  208MOL0     C28575  11.310   7.083  10.497  0.4184 -0.4033  0.2164
  208MOL0     C28576  11.343   6.957  10.415  0.9917 -0.4819  0.0314
  208MOL0     C28577  11.439   6.857  10.481  0.0541 -0.2521  0.9332
  208MOL0     C28578  11.534   6.795  10.365  0.2246 -0.1135  0.5166
  208MOL0     C28579  11.645   6.714  10.438  0.6041  0.5784 -0.4754
  208MOL0     C28580  11.732   6.635  10.342  0.4616 -0.0800  0.3387
  208MOL0     C28581  11.873   6.578  10.380 -0.6493  0.1894 -0.0992
  208MOL0     C28582  11.969   6.676  10.438  0.1125 -0.2917 -0.3294
  208MOL0     N28583  12.099   6.618  10.422 -0.1493 -0.1931  1.1828
  208MOL0     C28584  12.180   6.649  10.315 -0.4709 -0.1772  0.7106
  208MOL0     C28585  12.298   6.581  10.331  0.1232 -0.7628  0.2760
  208MOL0     C28586  12.418   6.562  10.245 -0.0664 -0.6085  0.6199
  208MOL0     C28587  12.534   6.655  10.287 -0.5370 -0.0705 -0.0793
  208MOL0     C28588  12.563   6.770  10.185 -0.1811 -1.3668  0.1487
  208MOL0     C28589  12.663   6.867  10.254  0.1870 -0.3073 -0.4674
  208MOL0     O28590  12.787   6.812  10.273 -0.2661  0.5710 -1.0866
  208MOL0     C28591  12.884   6.825  10.180  0.2460  0.0666  0.3472
  208MOL0     C28592  13.016   6.806  10.210  0.2636  0.0164  0.0475
  208MOL0     C28593  13.119   6.834  10.120  0.1758  0.1853 -0.6153
  208MOL0     C28594  13.255   6.844  10.182  0.0965 -0.3417  0.1025
  208MOL0     C28595  13.088   6.871   9.989  1.2862  0.5678  0.6300
  208MOL0     C28596  13.182   6.906   9.884 -0.3371 -0.2879 -0.1737
  208MOL0     O28597  13.280   6.992   9.931 -0.7827 -0.1233 -0.6159
  208MOL0     C28598  13.372   7.043   9.843  1.0735 -0.5153 -0.0352
  208MOL0     C28599  13.475   6.978   9.814 -0.7931 -0.7566  0.1841
  208MOL0     C28600  13.577   7.034   9.731  0.0291  0.0635 -0.3204
  208MOL0     C28601  13.559   7.169   9.680  0.5395  0.7043  0.1384
  208MOL0     O28602  13.645   7.212   9.587 -0.6261  0.4852  0.0879
  208MOL0     C28603  13.594   7.284   9.480  0.4059 -1.4078 -1.4108
  208MOL0     C28604  13.650   7.424   9.493  0.4267 -0.5077  0.2393
  208MOL0     C28605  13.799   7.428   9.460 -1.0709  0.2688 -0.5185
  208MOL0     C28606  13.846   7.556   9.388 -1.0428 -0.0538  0.7384
  208MOL0     C28607  13.788   7.567   9.239  0.6364  0.1571 -0.1613
  208MOL0     C28608  13.818   7.708   9.174  0.2905  0.1959 -0.2480
  208MOL0     C28609  13.727   7.821   9.223 -0.2822 -0.6474  0.9920
  208MOL0     C28610  13.789   7.957   9.215 -0.7311  0.0620  0.1565
  208MOL0    Cl28611  13.915   7.978   9.329 -0.2486 -0.4996  0.4492
  208MOL0     C28612  13.447   7.240   9.731 -0.5581  0.2921 -0.1475
  208MOL0     C28613  13.359   7.179   9.816  0.1042 -0.7563 -1.2382
  208MOL0     O28614  13.174   6.855   9.774  0.3287 -0.2568 -0.0159
  208MOL0     C28615  12.953   6.861   9.955 -1.2961  0.2782 -0.5047
  208MOL0     C28616  12.853   6.846  10.049 -0.1004 -0.0568 -0.2934
  208MOL0     N28617  12.280   6.511  10.451  0.1718 -0.4236  0.6232
  208MOL0     N28618  12.169   6.535  10.504  0.3033 -0.7524  0.1359
  208MOL0     C28619  11.191   7.346  10.567 -0.9469  1.1268 -1.0261
  208MOL0     C28620  11.170   7.485  10.583 -0.4564  0.2424 -0.4795
  208MOL0     C28621  10.845   7.790  10.664 -0.3607  1.0830 -0.0594
  208MOL0     C28622  10.835   7.878  10.555  0.4286  1.1449 -0.0524
  208MOL0     C28623  10.750   7.990  10.562  0.9751 -0.0203 -0.0856
  208MOL0     C28624  10.672   8.020  10.674  0.5008  0.9407 -0.0634
  208MOL0     O28625  10.586   8.125  10.664  0.0754 -1.1875 -0.3850
  208MOL0     C28626  10.487   8.137  10.758  0.1047  0.0616 -0.0416
  208MOL0     C28627  10.435   8.278  10.764  0.7666  0.2050 -0.6140
  208MOL0     C28628  10.334   8.297  10.873 -0.3303 -0.1105 -0.0661
  208MOL0     C28629  10.322   8.445  10.922 -0.4076 -0.2294  0.1602
  208MOL0     C28630  10.261   8.524  10.816 -0.8689  0.1161 -0.4099
  208MOL0     C28631  10.226   8.592  10.724  0.0573  0.1218 -0.0345
  208MOL0     C28632  10.670   7.917  10.775 -0.0922  0.1564  0.2890
  208MOL0     C28633  10.756   7.804  10.771  0.6042 -0.6220 -0.4622
  208MOL0     C28634  10.748   7.715  10.891  0.5715  1.5522 -0.0695
  208MOL0     H28635  10.952   7.514  10.320  1.3460 -0.0071 -1.6180
  208MOL0     H28636  11.040   7.267  10.273  3.0333 -1.4847 -0.0551
  208MOL0     H28637  11.258   7.063  10.591 -2.2297  1.2009 -0.7972
  208MOL0     H28638  11.403   7.138  10.512  1.3801 -1.2505 -2.0437
  208MOL0     H28639  11.243   6.916  10.396  0.5984  1.1994 -1.8737
  208MOL0     H28640  11.381   6.973  10.314 -0.8301 -1.9441 -0.9397
  208MOL0     H28641  11.497   6.911  10.557  2.5768 -2.0864  0.4587
  208MOL0     H28642  11.380   6.773  10.518 -2.1440  0.5006 -0.6928
  208MOL0     H28643  11.482   6.724  10.300  2.7631  0.9442 -2.9211
  208MOL0     H28644  11.584   6.878  10.314 -0.2853 -0.0636  0.0863
  208MOL0     H28645  11.598   6.641  10.505  0.4418 -0.2571 -1.4721
  208MOL0     H28646  11.709   6.783  10.493  0.4836  1.2407 -1.1649
  208MOL0     H28647  11.671   6.556  10.299  0.1591 -1.0930  2.4660
  208MOL0     H28648  11.763   6.699  10.259 -0.1486 -1.2912 -0.8598
  208MOL0     H28649  11.918   6.546  10.286  0.4717  2.4811 -0.4155
  208MOL0     H28650  11.860   6.493  10.448  2.9860 -1.2981 -1.0455
  208MOL0     H28651  11.975   6.777  10.396  0.4283 -0.3591 -0.4566
  208MOL0     H28652  11.958   6.688  10.546 -0.1915 -2.1429 -0.1131
  208MOL0     H28653  12.160   6.712  10.229  0.2761  3.9526  3.2554
  208MOL0     H28654  12.387   6.589  10.144 -0.8205 -2.1633  0.4006
  208MOL0     H28655  12.457   6.460  10.234 -1.4397 -1.5451  3.3542
  208MOL0     H28656  12.507   6.702  10.382 -0.8806  0.4759 -0.4408
  208MOL0     H28657  12.618   6.586  10.293 -0.2619  0.0995 -1.5778
  208MOL0     H28658  12.608   6.729  10.095 -1.1514 -1.6431 -0.2259
  208MOL0     H28659  12.473   6.826  10.157  0.8090  0.6520  0.8142
  208MOL0     H28660  12.680   6.949  10.183 -2.4337  0.4469 -0.3318
  208MOL0     H28661  12.623   6.914  10.345 -1.9362 -1.7063 -0.6215
  208MOL0     H28662  13.040   6.789  10.315 -0.4287  1.4800  0.4613
  208MOL0     H28663  13.341   6.851  10.115  0.7275 -0.5024  0.8695
  208MOL0     H28664  13.267   6.753  10.242  1.1092 -0.1863  0.1594
  208MOL0     H28665  13.248   6.924  10.257 -1.3547 -0.7350  0.4212
  208MOL0     H28666  13.510   6.881   9.848  3.7201  0.7877  0.5979
  208MOL0     H28667  13.657   6.967   9.701  1.5760  1.3483  0.7417
  208MOL0     H28668  13.617   7.236   9.385  3.7777 -0.8718 -0.9791
  208MOL0     H28669  13.485   7.294   9.491  0.4339 -1.3004 -1.2126
  208MOL0     H28670  13.604   7.491   9.420  2.6512 -0.5728 -1.3419
  208MOL0     H28671  13.633   7.464   9.593  3.3806 -0.1302  0.6971
  208MOL0     H28672  13.823   7.336   9.406  0.7308  0.2425  0.2487
  208MOL0     H28673  13.853   7.412   9.554 -0.9569  0.5803 -0.5303
  208MOL0     H28674  13.956   7.552   9.387 -1.0478 -1.6571  1.8504
  208MOL0     H28675  13.816   7.646   9.442  1.9040  1.0372  0.7628
  208MOL0     H28676  13.822   7.492   9.166 -0.1634 -0.8829  0.5104
  208MOL0     H28677  13.679   7.557   9.248  0.5626  0.7690 -0.3289
  208MOL0     H28678  13.813   7.696   9.066  1.0277  0.8782 -0.3649
  208MOL0     H28679  13.918   7.741   9.202 -0.7350  2.4592  1.0942
  208MOL0     H28680  13.681   7.797   9.319 -1.5907  1.4046  0.9297
  208MOL0     H28681  13.647   7.839   9.151  0.7203  0.8973  0.2145
  208MOL0     H28682  13.717   8.037   9.233 -0.4144  0.9147 -2.0772
  208MOL0     H28683  13.823   7.982   9.115 -0.0691  2.0961  0.8449
  208MOL0     H28684  13.449   7.343   9.697 -0.3197 -0.8254 -4.0017
  208MOL0     H28685  13.273   7.237   9.850  0.1650  0.9913 -3.7440
  208MOL0     H28686  12.919   6.864   9.852 -0.1875 -1.4708 -0.9683
  208MOL0     H28687  12.751   6.850  10.012 -0.3459 -3.7909 -0.4377
  208MOL0     H28688  11.266   7.312  10.637 -3.6312  0.1240  1.6172
  208MOL0     H28689  11.205   7.538  10.671  0.7632  0.1401 -0.8875
  208MOL0     H28690  10.886   7.872  10.459 -1.4893 -0.1096 -1.0613
  208MOL0     H28691  10.741   8.059  10.479 -1.4498 -0.6745 -0.4431
  208MOL0     H28692  10.399   8.072  10.746 -1.6389  2.4003 -0.5517
  208MOL0     H28693  10.535   8.124  10.855 -0.2130 -0.0838  0.0973
  208MOL0     H28694  10.375   8.300  10.675 -5.1708 -1.1561  2.4654
  208MOL0     H28695  10.519   8.344  10.783 -0.8311  1.3633  3.8780
  208MOL0     H28696  10.235   8.264  10.841 -0.1998 -0.4585 -0.1125
  208MOL0     H28697  10.361   8.230  10.955  1.4758 -0.6744 -1.0734
  208MOL0     H28698  10.415   8.484  10.964  0.0079 -1.3043  0.2613
  208MOL0     H28699  10.258   8.443  11.012 -0.8442  1.0168 -0.1079
  208MOL0     H28700  10.199   8.662  10.648 -3.7188 -0.5125  0.5474
  208MOL0     H28701  10.594   7.918  10.852  0.4743  2.6122  0.8893
  208MOL0     H28702  10.757   7.608  10.869 -2.0634  1.0932  0.7846
  208MOL0     H28703  10.816   7.734  10.975  0.5842  1.6188 -0.0949
  208MOL0     H28704  10.642   7.719  10.917  0.7565 -3.6657  2.9505
  209MOL0     O28705   3.133  11.000   2.936 -0.7045  0.1008 -0.1309
  209MOL0     C28706   3.058  10.952   2.849 -0.9394 -0.9430 -0.1279
  209MOL0     O28707   3.069  10.814   2.807 -0.3122  0.1152 -0.5303
  209MOL0     C28708   3.139  10.736   2.897 -0.0047  0.1847  1.0110
  209MOL0     C28709   3.063  10.661   2.993 -0.3203 -0.4732  0.4695
  209MOL0     C28710   3.133  10.597   3.095  0.1059 -0.3385  0.5610
  209MOL0     C28711   3.274  10.593   3.100 -0.5063 -0.5599  0.1587
  209MOL0     O28712   3.334  10.527   3.212 -0.0904 -0.9559 -1.0605
  209MOL0     C28713   3.473  10.547   3.237 -0.3245  0.0977 -0.1191
  209MOL0     C28714   3.578  10.466   3.159  0.4388  0.3293  0.1874
  209MOL0     C28715   3.718  10.532   3.182  0.2504  0.1552  0.6376
  209MOL0     C28716   3.830  10.420   3.183  0.0901 -0.4426 -0.0173
  209MOL0     C28717   3.958  10.489   3.119 -0.3821  0.3680 -0.1728
  209MOL0     C28718   4.065  10.407   3.058 -0.3726 -0.4432 -0.6890
  209MOL0     C28719   4.159  10.339   3.167 -0.2604  0.0772  0.5593
  209MOL0     C28720   4.098  10.206   3.215  0.4182  0.1897 -0.0618
  209MOL0     N28721   4.180  10.144   3.323  0.2521  0.4879 -0.0835
  209MOL0     C28722   4.205  10.170   3.452 -0.2920 -0.0922 -0.1321
  209MOL0     C28723   4.285  10.069   3.493  0.1724  0.0486  0.0847
  209MOL0     C28724   4.336  10.039   3.634 -0.5435  0.7327 -0.6901
  209MOL0     C28725   4.378  10.157   3.716 -0.6469 -0.5811 -0.3663
  209MOL0     C28726   4.504  10.231   3.668 -0.7797  0.8772  0.8816
  209MOL0     C28727   4.514  10.371   3.740  0.8461 -0.0228 -0.2338
  209MOL0     O28728   4.439  10.478   3.686  0.4203  0.2274 -0.1399
  209MOL0     C28729   4.467  10.506   3.556 -0.0751 -0.3398 -0.2150
  209MOL0     C28730   4.581  10.461   3.479 -0.0423 -0.4602 -1.0078
  209MOL0     C28731   4.600  10.495   3.344  0.3128  1.0920 -0.1988
  209MOL0     C28732   4.715  10.438   3.273 -0.1350 -0.1218  0.1434
  209MOL0     C28733   4.505  10.566   3.273  0.0268 -0.3993 -0.2903
  209MOL0     C28734   4.514  10.605   3.132 -0.5229  0.0532 -0.3261
  209MOL0     O28735   4.394  10.613   3.069  0.2800  0.4771 -0.5025
  209MOL0     C28736   4.390  10.633   2.930 -0.8049  0.1411 -1.4542
  209MOL0     C28737   4.392  10.757   2.874  1.0171 -1.2032 -0.6366
  209MOL0     C28738   4.381  10.778   2.739  0.4511 -0.2241 -0.4154
  209MOL0     C28739   4.360  10.669   2.656  0.5231 -0.1135 -0.6675
  209MOL0     O28740   4.328  10.669   2.519  0.2327  0.4902 -0.8099
  209MOL0     C28741   4.404  10.753   2.434 -0.2422  0.6757 -0.2574
  209MOL0     C28742   4.390  10.707   2.284 -0.4052  0.3466 -0.1190
  209MOL0     C28743   4.374  10.829   2.191  0.2251 -0.0492  0.6941
  209MOL0     C28744   4.332  10.785   2.049 -0.3144  0.0715 -0.2809
  209MOL0     C28745   4.235  10.896   1.984  0.4020 -1.0309  0.2228
  209MOL0     C28746   4.298  11.035   1.988 -0.3769 -0.0324 -0.1147
  209MOL0     C28747   4.198  11.125   1.922  0.1367  0.3567 -1.1891
  209MOL0     C28748   4.255  11.268   1.894  0.0037  0.4534 -0.7252
  209MOL0    Cl28749   4.285  11.340   2.052 -0.2298  0.1137  0.0385
  209MOL0     C28750   4.349  10.544   2.711  0.0871 -0.1429  0.8880
  209MOL0     C28751   4.360  10.529   2.851  0.1190  0.2607  0.3490
  209MOL0     O28752   4.623  10.614   3.079  0.6346  0.2690  0.8459
  209MOL0     C28753   4.384  10.615   3.348 -0.0342  0.3327 -0.2879
  209MOL0     C28754   4.376  10.581   3.485  0.4450  0.2377  0.9187
  209MOL0     N28755   4.302   9.984   3.390  0.0574 -0.5446  0.5756
  209MOL0     N28756   4.241  10.032   3.290 -0.3835  0.1588 -0.2116
  209MOL0     C28757   3.346  10.668   3.003 -0.2913  1.0480  0.1874
  209MOL0     C28758   3.279  10.743   2.903 -0.1816  0.6301 -0.7536
  209MOL0     C28759   2.956  11.034   2.781 -0.2588 -0.3708 -0.1144
  209MOL0     C28760   2.879  10.966   2.693 -0.6347 -1.1563 -0.4638
  209MOL0     C28761   2.777  11.037   2.630 -0.5067  0.1750  0.0513
  209MOL0     C28762   2.757  11.168   2.649  0.5475  0.2291 -0.9590
  209MOL0     O28763   2.657  11.236   2.594  0.0477 -1.3304 -0.0604
  209MOL0     C28764   2.562  11.183   2.503 -0.1834  0.1157 -0.0712
  209MOL0     C28765   2.472  11.304   2.449  0.3661 -0.2754 -0.6312
  209MOL0     C28766   2.403  11.264   2.312 -0.4271 -1.0573  0.1974
  209MOL0     C28767   2.399  11.379   2.217  0.6636 -0.2877 -0.4272
  209MOL0     C28768   2.293  11.474   2.254 -0.0074 -0.2413  0.5520
  209MOL0     C28769   2.203  11.548   2.276  0.4676 -0.7584  0.5102
  209MOL0     C28770   2.833  11.232   2.749  0.4818 -0.3059  0.0889
  209MOL0     C28771   2.936  11.170   2.811 -0.1633 -0.2314  0.0460
  209MOL0     C28772   3.018  11.274   2.897 -0.4459 -0.5755  0.2617
  209MOL0     H28773   2.956  10.644   2.988 -0.0495 -2.0662 -0.4209
  209MOL0     H28774   3.078  10.530   3.160 -0.4243  0.4526  0.9406
  209MOL0     H28775   3.496  10.517   3.340 -1.0291 -0.8405 -0.2260
  209MOL0     H28776   3.495  10.654   3.224  1.7365 -0.6558 -4.7662
  209MOL0     H28777   3.575  10.363   3.197 -0.7417  0.7449  1.3261
  209MOL0     H28778   3.559  10.470   3.052  0.5334  0.7037  0.1845
  209MOL0     H28779   3.728  10.610   3.106  0.6960  1.7640  2.2506
  209MOL0     H28780   3.728  10.598   3.269 -1.7768  0.2107  0.8889
  209MOL0     H28781   3.849  10.382   3.284  2.8939  1.5620  0.3379
  209MOL0     H28782   3.821  10.343   3.106  2.6160 -1.0878  0.2462
  209MOL0     H28783   4.004  10.555   3.192  0.1617  1.5500 -1.5529
  209MOL0     H28784   3.926  10.548   3.033  0.9611  0.6876 -0.4655
  209MOL0     H28785   4.029  10.334   2.984  0.4094  0.8712 -2.4410
  209MOL0     H28786   4.124  10.475   2.997  0.2175 -0.9787 -0.7333
  209MOL0     H28787   4.184  10.404   3.252  0.5272 -0.3030  0.6318
  209MOL0     H28788   4.260  10.317   3.132  0.0023  1.4293  0.4220
  209MOL0     H28789   4.004  10.239   3.260  1.9183  0.2376  3.3914
  209MOL0     H28790   4.065  10.142   3.133  1.4354 -1.3893  0.7112
  209MOL0     H28791   4.173  10.251   3.517  2.7071  1.4697 -0.4391
  209MOL0     H28792   4.415   9.963   3.639 -0.9093  0.1741 -2.6228
  209MOL0     H28793   4.252   9.992   3.686 -0.4561  0.2865 -0.9457
  209MOL0     H28794   4.295  10.228   3.709 -3.8423 -3.9049  0.5932
  209MOL0     H28795   4.391  10.131   3.821 -2.7634 -0.0143  0.0830
  209MOL0     H28796   4.599  10.181   3.690 -0.2694  2.2810  2.0492
  209MOL0     H28797   4.494  10.226   3.559 -1.6666  0.0484  0.9838
  209MOL0     H28798   4.468  10.343   3.835  0.1557 -1.7908 -1.0492
  209MOL0     H28799   4.617  10.405   3.756  0.8540  0.5269 -1.3376
  209MOL0     H28800   4.661  10.404   3.524 -3.0568 -3.2629  1.2919
  209MOL0     H28801   4.755  10.363   3.341  1.4875 -1.3475 -2.0256
  209MOL0     H28802   4.788  10.518   3.264  1.7082 -1.6516  0.8562
  209MOL0     H28803   4.693  10.395   3.174 -0.4085  0.9757 -0.2885
  209MOL0     H28804   4.390  10.846   2.935 -0.3669 -0.4949 -1.6455
  209MOL0     H28805   4.393  10.882   2.708  0.5704  0.8960  3.0130
  209MOL0     H28806   4.366  10.855   2.443  0.8045  0.9340  1.9556
  209MOL0     H28807   4.510  10.752   2.464 -0.0529 -2.5929 -0.6672
  209MOL0     H28808   4.467  10.637   2.251 -0.0634  0.8662 -0.4205
  209MOL0     H28809   4.298  10.648   2.284  0.7588 -1.6372 -2.4492
  209MOL0     H28810   4.466  10.888   2.180  1.1158 -1.3162  1.1388
  209MOL0     H28811   4.298  10.894   2.234 -1.9357 -2.2416  0.4069
  209MOL0     H28812   4.288  10.685   2.045  1.0485 -0.5272 -2.4221
  209MOL0     H28813   4.425  10.772   1.992 -0.1715 -0.6867  0.1048
  209MOL0     H28814   4.210  10.891   1.877  1.9069  2.1169 -0.4114
  209MOL0     H28815   4.146  10.892   2.048 -0.8829 -1.5259 -1.5071
  209MOL0     H28816   4.393  11.035   1.933  1.5002 -0.5687  2.8632
  209MOL0     H28817   4.316  11.059   2.093 -0.2252 -3.5639  0.8261
  209MOL0     H28818   4.111  11.134   1.988  0.9092  0.4040 -0.1535
  209MOL0     H28819   4.151  11.090   1.830 -1.0646 -0.1937 -0.3921
  209MOL0     H28820   4.172  11.319   1.843  0.1605  0.0869 -1.3541
  209MOL0     H28821   4.344  11.270   1.829  0.9147  2.7329  0.4698
  209MOL0     H28822   4.328  10.451   2.659  1.6666 -0.0765  0.0818
  209MOL0     H28823   4.363  10.431   2.897  2.8969  0.3466  0.5314
  209MOL0     H28824   4.305  10.679   3.310 -2.8062 -1.1144  2.5594
  209MOL0     H28825   4.287  10.601   3.545 -1.6722 -3.4756 -0.6332
  209MOL0     H28826   3.453  10.682   3.007  0.1895 -2.2718  2.4572
  209MOL0     H28827   3.339  10.821   2.857 -0.0804  1.2140  0.3199
  209MOL0     H28828   2.888  10.858   2.682  1.4822 -0.9852 -0.7816
  209MOL0     H28829   2.723  10.982   2.553 -1.0385 -1.0722  1.2586
  209MOL0     H28830   2.629  11.139   2.429  0.9050  0.7984  0.4859
  209MOL0     H28831   2.503  11.102   2.549 -0.9119  0.9299  0.4573
  209MOL0     H28832   2.542  11.389   2.447  2.4418 -1.8743  0.5512
  209MOL0     H28833   2.392  11.329   2.520  2.2747  0.4549  1.3939
  209MOL0     H28834   2.464  11.197   2.251 -0.5222  0.6551 -1.9319
  209MOL0     H28835   2.301  11.226   2.326 -0.3568 -1.5467 -0.5764
  209MOL0     H28836   2.383  11.329   2.120  0.0544  1.4310 -1.2619
  209MOL0     H28837   2.492  11.427   2.185 -2.0888  4.3111 -2.5576
  209MOL0     H28838   2.110  11.599   2.290 -0.3419 -2.3228  1.0857
  209MOL0     H28839   2.811  11.334   2.778 -1.4145 -1.2546  2.2490
  209MOL0     H28840   2.952  11.339   2.956  2.5096  3.4538 -0.4592
  209MOL0     H28841   3.079  11.217   2.968  1.1777  0.8705  0.0865
  209MOL0     H28842   3.092  11.329   2.839  0.6065  0.1118  2.1644
  210MOL0     O28843   9.450   8.431   5.092  0.2454 -0.3942  0.4539
  210MOL0     C28844   9.409   8.363   5.000  0.2002  0.1617  0.2592
  210MOL0     O28845   9.417   8.225   4.994  0.0063 -0.5575  0.1518
  210MOL0     C28846   9.472   8.156   5.099  0.0341 -0.0414 -0.8903
  210MOL0     C28847   9.605   8.171   5.138 -0.6975  0.2496 -0.3592
  210MOL0     C28848   9.663   8.100   5.244  0.1900 -0.5048 -0.4911
  210MOL0     C28849   9.579   8.004   5.315 -0.2204 -0.4037  0.0611
  210MOL0     O28850   9.616   7.922   5.415  0.7198 -1.0526 -0.3786
  210MOL0     C28851   9.741   7.928   5.470 -0.6576  0.4469  1.4860
  210MOL0     C28852   9.822   7.803   5.416 -0.9504  0.6736 -0.4639
  210MOL0     C28853   9.968   7.825   5.466 -0.3525  0.0568  0.1963
  210MOL0     C28854  10.012   7.766   5.605  0.9606  0.2443  0.5558
  210MOL0     C28855  10.163   7.764   5.636 -0.1461 -0.1802  0.1043
  210MOL0     C28856  10.228   7.644   5.569 -0.5395  0.0922 -0.1045
  210MOL0     C28857  10.374   7.628   5.611  0.2637  0.1685  0.4200
  210MOL0     C28858  10.388   7.576   5.764  0.1931  0.0780  0.5370
  210MOL0     N28859  10.409   7.432   5.767  0.0059 -1.4316  0.3428
  210MOL0     C28860  10.322   7.326   5.774  0.1028 -0.0311 -0.3978
  210MOL0     C28861  10.401   7.213   5.790  0.3152  0.1632  0.8005
  210MOL0     C28862  10.345   7.074   5.792 -0.5035 -0.6506 -0.3453
  210MOL0     C28863  10.399   6.972   5.896 -0.9183 -0.0906 -0.2558
  210MOL0     C28864  10.378   7.027   6.043 -1.1057  1.0058  1.1189
  210MOL0     C28865  10.373   6.916   6.139  0.0105 -0.4137 -0.6276
  210MOL0     O28866  10.278   6.819   6.100  0.4768 -0.6337  0.8837
  210MOL0     C28867  10.286   6.692   6.145 -0.5943 -1.1797 -0.4123
  210MOL0     C28868  10.213   6.586   6.083 -0.5215 -0.3220 -0.8774
  210MOL0     C28869  10.241   6.452   6.115  0.2989  0.2068 -0.4282
  210MOL0     C28870  10.152   6.342   6.056  0.2006 -0.0670  0.5608
  210MOL0     C28871  10.347   6.416   6.207 -1.0097 -0.4928 -0.2885
  210MOL0     C28872  10.400   6.271   6.226  0.5820 -0.3807  0.2120
  210MOL0     O28873  10.328   6.164   6.182 -1.2948  0.4810 -0.1501
  210MOL0     C28874  10.381   6.037   6.202  0.0302  0.4336  0.0280
  210MOL0     C28875  10.418   5.949   6.106 -0.4702 -0.3150  0.6770
  210MOL0     C28876  10.472   5.826   6.138 -0.4964 -0.3262 -0.1689
  210MOL0     C28877  10.478   5.778   6.270  0.0510 -0.6430  1.7407
  210MOL0     O28878  10.509   5.648   6.289  0.3080  0.1613  0.4826
  210MOL0     C28879  10.411   5.573   6.371  0.2814 -0.2886 -0.8026
  210MOL0     C28880  10.323   5.481   6.285  0.3804 -0.1865  0.8909
  210MOL0     C28881  10.237   5.547   6.169  0.4232  0.4436 -1.5423
  210MOL0     C28882  10.126   5.646   6.219 -0.0653  0.2477 -0.9568
  210MOL0     C28883  10.037   5.699   6.107 -0.7163 -1.3285  0.1858
  210MOL0     C28884  10.101   5.825   6.031 -0.1993  0.1890 -0.7237
  210MOL0     C28885  10.041   5.863   5.891 -0.3776  0.2892 -0.4480
  210MOL0     C28886   9.905   5.914   5.916 -0.6967 -0.5766 -0.0708
  210MOL0    Cl28887   9.838   5.897   5.756 -0.0149 -0.8588 -0.1147
  210MOL0     C28888  10.448   5.872   6.367  0.1439  0.0497  0.6074
  210MOL0     C28889  10.391   5.996   6.337 -0.3529  0.2386  1.1049
  210MOL0     O28890  10.508   6.255   6.284  0.2723 -0.7030 -0.3919
  210MOL0     C28891  10.407   6.520   6.279  0.6093 -0.1942  0.3791
  210MOL0     C28892  10.372   6.654   6.251  1.1870 -0.6902 -0.3696
  210MOL0     N28893  10.534   7.255   5.773  0.0560 -0.3922 -0.7233
  210MOL0     N28894  10.535   7.380   5.767 -0.4447 -0.5985  0.2701
  210MOL0     C28895   9.447   7.999   5.280  0.2107 -0.8032 -0.3693
  210MOL0     C28896   9.393   8.069   5.168 -0.4842  0.0377 -0.1544
  210MOL0     C28897   9.341   8.420   4.884  0.3906  0.8512  0.5002
  210MOL0     C28898   9.232   8.353   4.826  0.8617 -0.3085 -0.2235
  210MOL0     C28899   9.158   8.400   4.719 -0.7675  0.1066  0.4252
  210MOL0     C28900   9.199   8.513   4.650  0.6331  0.1912 -1.3915
  210MOL0     O28901   9.133   8.552   4.539  0.6946 -0.4605 -0.1581
  210MOL0     C28902   9.198   8.595   4.421 -0.0375  0.4316  0.7532
  210MOL0     C28903   9.289   8.497   4.353  0.6009  0.3163  0.5404
  210MOL0     C28904   9.361   8.551   4.229  0.6650  0.1767  0.2834
  210MOL0     C28905   9.503   8.574   4.279  0.6934 -0.7939  0.4788
  210MOL0     C28906   9.598   8.592   4.167 -0.6683 -0.6110  0.2731
  210MOL0     C28907   9.677   8.619   4.072  0.2464 -0.2133 -0.2878
  210MOL0     C28908   9.300   8.589   4.712 -0.0195 -0.2173 -0.3110
  210MOL0     C28909   9.366   8.549   4.826  0.6595  0.7417 -0.1750
  210MOL0     C28910   9.473   8.645   4.881 -0.4069  0.5079  0.5191
  210MOL0     H28911   9.681   8.224   5.083  0.7189  0.2901  1.5358
  210MOL0     H28912   9.768   8.105   5.268 -0.3675 -0.4588  2.3481
  210MOL0     H28913   9.743   7.913   5.578  1.4498 -3.0139  1.0941
  210MOL0     H28914   9.795   8.018   5.437  0.2244 -1.3254 -2.4453
  210MOL0     H28915   9.772   7.706   5.424 -2.9834  1.7095  0.2102
  210MOL0     H28916   9.829   7.818   5.308 -0.9517 -0.2423 -0.5932
  210MOL0     H28917  10.038   7.772   5.400  0.9025 -2.5441  3.3265
  210MOL0     H28918   9.992   7.931   5.454 -0.0783  0.1041  1.1064
  210MOL0     H28919   9.963   7.832   5.677  0.2684  1.5713 -1.0701
  210MOL0     H28920   9.980   7.663   5.620 -1.8590  1.0390  0.5302
  210MOL0     H28921  10.168   7.771   5.745 -1.7037 -0.0109  0.1845
  210MOL0     H28922  10.209   7.860   5.609 -0.9560  0.7583  1.9152
  210MOL0     H28923  10.169   7.554   5.586 -0.1969 -0.2141 -0.5245
  210MOL0     H28924  10.241   7.668   5.463  0.5969 -1.7620 -0.4249
  210MOL0     H28925  10.432   7.719   5.598  0.1963  0.1877  0.2604
  210MOL0     H28926  10.415   7.553   5.542  0.0423 -1.8719  2.3541
  210MOL0     H28927  10.473   7.630   5.806 -0.9178  1.4189  1.1402
  210MOL0     H28928  10.293   7.591   5.817 -2.1650 -1.1937 -2.8911
  210MOL0     H28929  10.214   7.328   5.773 -0.0726 -3.4458  0.2866
  210MOL0     H28930  10.367   7.047   5.688 -0.8705 -0.0568 -0.5849
  210MOL0     H28931  10.238   7.086   5.811 -0.5396 -1.8274  0.2497
  210MOL0     H28932  10.347   6.875   5.891  0.1246 -0.6160 -1.2792
  210MOL0     H28933  10.504   6.948   5.881 -0.4256 -0.9104  3.4832
  210MOL0     H28934  10.470   7.075   6.075  0.0999 -0.9985  0.8306
  210MOL0     H28935  10.285   7.085   6.044 -1.6272  0.1744  1.3043
  210MOL0     H28936  10.473   6.872   6.145  1.6425  3.0424 -0.0267
  210MOL0     H28937  10.363   6.958   6.240  2.2354 -3.9395  1.2879
  210MOL0     H28938  10.144   6.612   6.004  2.2594  1.1765 -2.9921
  210MOL0     H28939  10.090   6.295   6.133  1.0477  3.3979  3.6400
  210MOL0     H28940  10.220   6.277   6.000  1.8046  2.3123 -0.4338
  210MOL0     H28941  10.088   6.389   5.981 -0.4605  3.7860  3.2348
  210MOL0     H28942  10.436   5.977   6.003  0.5498 -0.0525  0.9146
  210MOL0     H28943  10.496   5.757   6.058  1.1359 -0.3512  0.3081
  210MOL0     H28944  10.455   5.512   6.450 -0.6462  0.5385  0.3908
  210MOL0     H28945  10.343   5.643   6.421  1.2505 -0.5714  0.9918
  210MOL0     H28946  10.378   5.399   6.238 -1.1070 -2.0248  2.2198
  210MOL0     H28947  10.255   5.422   6.347  1.1571 -1.0806  0.9269
  210MOL0     H28948  10.187   5.461   6.123  5.6719 -2.5769 -2.3995
  210MOL0     H28949  10.307   5.580   6.092  3.1541 -1.3521  0.0019
  210MOL0     H28950  10.164   5.726   6.283 -2.6488 -0.2804  1.4469
  210MOL0     H28951  10.054   5.592   6.281 -0.3668  1.3942 -0.2658
  210MOL0     H28952  10.019   5.633   6.021 -2.2036 -0.1137 -0.5060
  210MOL0     H28953   9.936   5.718   6.146 -0.9838  0.1155 -1.0933
  210MOL0     H28954  10.207   5.802   6.024  0.3767  1.6792  1.8167
  210MOL0     H28955  10.086   5.915   6.091  0.9318 -0.2128  0.2103
  210MOL0     H28956  10.040   5.770   5.833  2.3455  0.0841 -0.3071
  210MOL0     H28957  10.119   5.928   5.849  0.2191  0.1028  0.3342
  210MOL0     H28958   9.901   6.018   5.951 -1.0709 -0.5047 -0.3257
  210MOL0     H28959   9.852   5.848   5.984  0.6703 -0.4488  1.1754
  210MOL0     H28960  10.469   5.832   6.465 -1.3299 -0.3113  0.8062
  210MOL0     H28961  10.354   6.060   6.417 -2.0513 -0.1273  0.6584
  210MOL0     H28962  10.484   6.497   6.352 -0.7313 -4.4236  0.7712
  210MOL0     H28963  10.426   6.727   6.312 -0.0661 -1.0432  1.2169
  210MOL0     H28964   9.364   7.939   5.317 -0.7540  0.5987 -0.2056
  210MOL0     H28965   9.288   8.049   5.149 -0.7729  0.9868  0.4276
  210MOL0     H28966   9.196   8.257   4.860 -1.7369  0.4293 -0.6980
  210MOL0     H28967   9.075   8.339   4.685 -1.8736  1.2027  1.0763
  210MOL0     H28968   9.128   8.621   4.341 -1.8124 -4.1518  0.4931
  210MOL0     H28969   9.261   8.681   4.445  2.0891 -1.1007  0.9631
  210MOL0     H28970   9.232   8.411   4.316  1.9935 -0.5624  0.3610
  210MOL0     H28971   9.358   8.456   4.426 -0.1021  0.6222  1.3925
  210MOL0     H28972   9.369   8.482   4.144  0.2628  1.5252 -0.8974
  210MOL0     H28973   9.322   8.645   4.190  3.5112  1.5759  0.5133
  210MOL0     H28974   9.539   8.488   4.336  1.4286 -2.1983 -1.9530
  210MOL0     H28975   9.510   8.668   4.334  1.6073 -1.4219  1.4702
  210MOL0     H28976   9.739   8.643   3.988 -0.1903 -1.1708 -0.9073
  210MOL0     H28977   9.310   8.692   4.678 -2.3012  1.2940  3.0867
  210MOL0     H28978   9.477   8.653   4.990  2.2886  3.7380  0.3525
  210MOL0     H28979   9.571   8.615   4.842 -0.9264  0.9390 -1.1973
  210MOL0     H28980   9.446   8.743   4.839  1.8952  0.6012 -0.9077
  211MOL0     O28981   3.374   5.972   7.813 -0.2905  0.8330 -0.8653
  211MOL0     C28982   3.375   6.027   7.700 -0.0834  0.7095  0.3738
  211MOL0     O28983   3.403   5.967   7.584 -0.7289  0.2934  1.1823
  211MOL0     C28984   3.441   5.830   7.560  0.6930 -0.4844 -0.9234
  211MOL0     C28985   3.461   5.726   7.652  0.2766 -0.1379 -0.4007
  211MOL0     C28986   3.497   5.595   7.619  0.4797  0.0790  0.5332
  211MOL0     C28987   3.524   5.573   7.488  0.1724  0.0647 -0.0519
  211MOL0     O28988   3.568   5.446   7.442 -0.4153 -0.1493  0.6550
  211MOL0     C28989   3.551   5.316   7.511 -0.1218  0.9343  0.7065
  211MOL0     C28990   3.609   5.215   7.422  0.4048  0.4178  0.4559
  211MOL0     C28991   3.760   5.243   7.404 -0.0091 -0.0108 -0.4294
  211MOL0     C28992   3.804   5.206   7.267  0.3703  0.5732  0.5722
  211MOL0     C28993   3.956   5.201   7.232 -0.2563 -0.7420 -0.0554
  211MOL0     C28994   3.968   5.141   7.091 -0.4241 -0.5551 -0.7855
  211MOL0     C28995   4.118   5.117   7.040  0.0958 -0.8868  0.4389
  211MOL0     C28996   4.180   4.998   7.105 -0.7210 -0.1717 -0.9142
  211MOL0     N28997   4.317   4.955   7.056  0.1577  0.5826  0.1286
  211MOL0     C28998   4.438   4.951   7.128 -0.3599  0.5707 -0.7042
  211MOL0     C28999   4.536   4.923   7.043  0.1743  0.7591  0.0428
  211MOL0     C29000   4.682   4.881   7.070  0.4911  0.4822 -0.3385
  211MOL0     C29001   4.777   5.009   7.045  1.0252 -1.1966 -0.7428
  211MOL0     C29002   4.865   4.999   6.926  0.5061 -0.4135 -0.4750
  211MOL0     C29003   4.994   5.077   6.933 -0.8272  1.3821  0.1026
  211MOL0     O29004   4.964   5.213   6.967  0.3744 -0.2136 -0.4719
  211MOL0     C29005   5.064   5.306   6.976 -0.4001  0.3958  0.6751
  211MOL0     C29006   5.043   5.429   6.922  0.0453 -0.7147 -0.4398
  211MOL0     C29007   5.139   5.532   6.932  0.4449 -0.9143 -0.2681
  211MOL0     C29008   5.081   5.670   6.904 -0.7349  1.1340 -0.0920
  211MOL0     C29009   5.265   5.512   6.999  0.5162  0.5253  0.6158
  211MOL0     C29010   5.372   5.615   7.032 -0.9505 -0.1309  0.3876
  211MOL0     O29011   5.483   5.560   7.098  0.2525 -0.0612 -0.8477
  211MOL0     C29012   5.608   5.621   7.118 -0.3509 -0.1820  0.6738
  211MOL0     C29013   5.700   5.545   7.194  0.3141 -0.4227  0.8830
  211MOL0     C29014   5.831   5.595   7.213 -0.4802 -0.6775  0.3836
  211MOL0     C29015   5.875   5.714   7.142  0.4108  0.4014  0.1759
  211MOL0     O29016   6.012   5.746   7.140  0.2310 -0.4205  0.5190
  211MOL0     C29017   6.106   5.642   7.103  0.6035  0.2124 -0.6524
  211MOL0     C29018   6.232   5.710   7.062 -0.1145 -0.7160  0.2102
  211MOL0     C29019   6.232   5.842   6.979  0.8452  0.5228 -0.1514
  211MOL0     C29020   6.142   5.822   6.852 -0.2049  0.0988  0.0967
  211MOL0     C29021   6.167   5.939   6.742 -0.4033 -0.6138  0.2830
  211MOL0     C29022   6.152   6.078   6.804  0.1627  0.7339  0.1018
  211MOL0     C29023   6.022   6.126   6.860  1.2382  0.5161  0.2096
  211MOL0     C29024   6.022   6.262   6.919 -0.3170  0.2277  0.1607
  211MOL0    Cl29025   6.102   6.390   6.833  0.0495  0.0429  0.7852
  211MOL0     C29026   5.769   5.795   7.084 -0.1018  0.3771  0.8476
  211MOL0     C29027   5.640   5.747   7.074  0.2554  0.4009 -0.6062
  211MOL0     O29028   5.374   5.726   6.973  0.0076 -0.8926 -0.2900
  211MOL0     C29029   5.286   5.378   7.050  1.2777 -0.0452  0.4964
  211MOL0     C29030   5.183   5.290   7.045  0.0376  1.5187 -0.3532
  211MOL0     N29031   4.485   4.930   6.909  0.0580  0.3247  0.1199
  211MOL0     N29032   4.355   4.950   6.921  0.0508 -0.0264  0.2634
  211MOL0     C29033   3.513   5.672   7.388 -0.4078 -0.2300  0.0609
  211MOL0     C29034   3.477   5.803   7.429 -1.1440  0.3674  0.0171
  211MOL0     C29035   3.359   6.170   7.709  0.7136 -0.1043 -0.3980
  211MOL0     C29036   3.466   6.249   7.663  0.8084  0.4629  0.0931
  211MOL0     C29037   3.454   6.391   7.671  0.0336  0.3435 -0.6797
  211MOL0     C29038   3.337   6.454   7.725  0.2690  0.0479  0.4699
  211MOL0     O29039   3.350   6.588   7.725  0.1906  0.4490  0.0692
  211MOL0     C29040   3.330   6.656   7.852 -0.3110 -0.3963 -0.9647
  211MOL0     C29041   3.466   6.656   7.935 -1.3897 -0.5932 -0.5078
  211MOL0     C29042   3.442   6.690   8.086 -0.2860 -0.4523  0.1654
  211MOL0     C29043   3.573   6.713   8.168  0.3795 -0.8981 -0.1849
  211MOL0     C29044   3.644   6.835   8.132 -0.7460 -0.4709 -0.1180
  211MOL0     C29045   3.721   6.921   8.095 -0.1446  0.8464 -1.2611
  211MOL0     C29046   3.246   6.366   7.793  0.2847 -1.1996  0.2239
  211MOL0     C29047   3.251   6.223   7.781 -1.1636 -0.4467  1.3654
  211MOL0     C29048   3.131   6.148   7.823 -0.3646  0.1247 -0.2641
  211MOL0     H29049   3.440   5.748   7.756  0.0322  1.0243 -0.6796
  211MOL0     H29050   3.510   5.514   7.690 -0.2519  0.9613  1.6980
  211MOL0     H29051   3.442   5.304   7.516 -0.0123 -2.1419 -1.3622
  211MOL0     H29052   3.604   5.305   7.606  2.5089 -0.1032 -0.7912
  211MOL0     H29053   3.603   5.120   7.476  2.3670  0.0289  0.0863
  211MOL0     H29054   3.556   5.206   7.326  2.4148 -0.8618 -0.6206
  211MOL0     H29055   3.793   5.345   7.427 -0.1357 -0.2187  0.7010
  211MOL0     H29056   3.817   5.183   7.475  0.9864  1.3333 -0.0320
  211MOL0     H29057   3.782   5.101   7.245 -0.6234  1.0279 -0.7641
  211MOL0     H29058   3.736   5.255   7.195 -0.5967 -0.3458  0.8236
  211MOL0     H29059   4.004   5.136   7.305  0.4102  0.0326  0.2159
  211MOL0     H29060   4.001   5.301   7.237 -1.0418 -0.2450 -1.9379
  211MOL0     H29061   3.929   5.039   7.087 -1.6104 -0.0881 -3.8121
  211MOL0     H29062   3.915   5.203   7.018  2.0514 -0.0686 -2.2974
  211MOL0     H29063   4.180   5.206   7.043 -1.8942  0.5510  1.5399
  211MOL0     H29064   4.101   5.101   6.933 -0.2806  0.8090  0.2119
  211MOL0     H29065   4.192   5.009   7.214  1.3439  3.8950 -1.3752
  211MOL0     H29066   4.112   4.918   7.076  1.2277 -2.2519 -0.0469
  211MOL0     H29067   4.449   4.943   7.236 -0.9291  2.7277 -0.4533
  211MOL0     H29068   4.720   4.809   6.997  3.2401  1.6580 -0.1974
  211MOL0     H29069   4.689   4.851   7.175  0.4510  0.2793 -0.3953
  211MOL0     H29070   4.714   5.098   7.042  1.1707 -1.1173 -1.9126
  211MOL0     H29071   4.825   5.012   7.143  0.3408 -1.5803 -0.3845
  211MOL0     H29072   4.898   4.895   6.925 -1.1789 -0.9917  0.6435
  211MOL0     H29073   4.814   5.020   6.831 -0.0957 -2.9613 -0.8075
  211MOL0     H29074   5.061   5.030   7.005  0.1493 -0.9995 -2.2267
  211MOL0     H29075   5.044   5.070   6.836  0.3274  0.2728  0.7572
  211MOL0     H29076   4.949   5.456   6.875 -0.8600 -1.5230  0.8625
  211MOL0     H29077   5.041   5.702   7.001 -1.8501 -1.6353  0.4454
  211MOL0     H29078   5.003   5.658   6.829 -0.9729 -2.5100  0.5429
  211MOL0     H29079   5.165   5.729   6.866  0.7588 -1.4367 -1.0107
  211MOL0     H29080   5.663   5.458   7.248 -4.4927  2.6078  3.1707
  211MOL0     H29081   5.893   5.525   7.268  1.7445  0.6827 -0.2517
  211MOL0     H29082   6.112   5.571   7.186 -2.5233 -2.2976 -2.3655
  211MOL0     H29083   6.064   5.594   7.014  0.9511 -0.8264 -0.2635
  211MOL0     H29084   6.281   5.744   7.154 -0.1919 -2.0394  0.7795
  211MOL0     H29085   6.305   5.641   7.018  2.2985  1.9519 -0.2396
  211MOL0     H29086   6.335   5.872   6.956  1.4574 -0.9641  0.5110
  211MOL0     H29087   6.186   5.922   7.037  3.1249  2.1330 -0.4240
  211MOL0     H29088   6.038   5.841   6.877 -0.4306  0.7484 -1.2261
  211MOL0     H29089   6.145   5.722   6.806  2.3184  0.2319 -0.1781
  211MOL0     H29090   6.269   5.922   6.706 -1.5602 -2.2326 -2.6068
  211MOL0     H29091   6.089   5.922   6.667 -1.0988 -1.9497  1.2760
  211MOL0     H29092   6.170   6.154   6.728  0.5427 -1.9797 -2.7225
  211MOL0     H29093   6.226   6.075   6.885  0.3323 -3.2842 -0.0075
  211MOL0     H29094   5.985   6.057   6.936  1.9713 -0.3910 -0.2253
  211MOL0     H29095   5.952   6.122   6.777  0.2464 -3.3350  1.0264
  211MOL0     H29096   6.063   6.262   7.021 -1.2060 -2.1479  0.5862
  211MOL0     H29097   5.916   6.285   6.933 -0.7497 -1.1755 -0.6539
  211MOL0     H29098   5.798   5.894   7.050  3.4653 -0.4168  1.1958
  211MOL0     H29099   5.563   5.822   7.057  1.1833  1.4023 -0.4146
  211MOL0     H29100   5.371   5.331   7.098  0.3051 -3.1683 -0.5838
  211MOL0     H29101   5.208   5.195   7.093 -0.7293  1.9175  0.8829
  211MOL0     H29102   3.534   5.658   7.282  1.1214  2.6085 -0.1120
  211MOL0     H29103   3.473   5.881   7.353  2.6236  1.0839  0.3728
  211MOL0     H29104   3.553   6.201   7.620  0.1956 -0.0279 -0.6201
  211MOL0     H29105   3.528   6.462   7.637  2.7904 -0.1943  3.5325
  211MOL0     H29106   3.297   6.757   7.827  2.3119  0.5136 -1.0530
  211MOL0     H29107   3.248   6.611   7.909 -0.7027  0.3146 -0.9523
  211MOL0     H29108   3.527   6.740   7.903  0.1486 -0.9415  1.3238
  211MOL0     H29109   3.525   6.566   7.918  1.5329  1.3640 -1.3419
  211MOL0     H29110   3.382   6.777   8.113  1.5127  0.6920  0.6311
  211MOL0     H29111   3.384   6.607   8.126 -1.6865  0.7671  0.7499
  211MOL0     H29112   3.633   6.624   8.148  3.4207  1.5312 -2.9522
  211MOL0     H29113   3.543   6.714   8.274  1.7614  2.2941  0.2824
  211MOL0     H29114   3.798   6.996   8.091 -0.1084  0.8004 -1.4113
  211MOL0     H29115   3.160   6.417   7.835 -0.4477 -1.4485 -0.9219
  211MOL0     H29116   3.063   6.213   7.878 -3.2612 -3.6722  1.1100
  211MOL0     H29117   3.052   6.113   7.756 -2.1286 -3.2266  3.1547
  211MOL0     H29118   3.154   6.062   7.887 -3.0286  0.2216  0.9574
  212MOL0     O29119   7.627   7.684   5.110  0.1476 -0.1844  0.5164
  212MOL0     C29120   7.542   7.628   5.171  0.5890  0.6061 -0.7750
  212MOL0     O29121   7.550   7.601   5.303 -0.1147 -0.0751  0.0402
  212MOL0     C29122   7.674   7.621   5.372 -0.5199 -0.7457 -0.1413
  212MOL0     C29123   7.710   7.535   5.477  0.1981  1.3326 -0.4572
  212MOL0     C29124   7.836   7.546   5.540  0.1484 -0.7608 -0.1802
  212MOL0     C29125   7.923   7.656   5.518  0.1472 -0.3298  0.4801
  212MOL0     O29126   8.046   7.663   5.579  0.8030 -0.3643  0.4496
  212MOL0     C29127   8.144   7.765   5.539  0.6042  0.2229 -0.3930
  212MOL0     C29128   8.268   7.751   5.628  0.9472 -0.0037  0.0950
  212MOL0     C29129   8.388   7.842   5.578 -1.3358 -0.6632 -0.7266
  212MOL0     C29130   8.491   7.872   5.684 -0.0259 -0.0274 -0.6919
  212MOL0     C29131   8.622   7.930   5.640 -0.6126  0.2535  0.2450
  212MOL0     C29132   8.741   7.930   5.740  0.8980  0.3441  0.2458
  212MOL0     C29133   8.724   8.041   5.851  0.3598 -0.4948  0.0146
  212MOL0     C29134   8.744   8.176   5.782 -0.1516 -0.3749 -0.4317
  212MOL0     N29135   8.765   8.280   5.876 -0.8074  0.3254 -0.3100
  212MOL0     C29136   8.689   8.298   5.990  0.4285 -0.2262 -0.6108
  212MOL0     C29137   8.752   8.407   6.048  0.4462 -0.3449  0.6981
  212MOL0     C29138   8.716   8.470   6.179  0.2104 -0.4964 -0.6256
  212MOL0     C29139   8.828   8.456   6.284  0.2739  1.2606  0.0221
  212MOL0     C29140   8.838   8.324   6.351 -0.2651 -0.3118 -0.1281
  212MOL0     C29141   8.720   8.309   6.445  0.5624 -0.9691  0.3483
  212MOL0     O29142   8.719   8.366   6.580  0.0157  0.1151 -0.0594
  212MOL0     C29143   8.604   8.364   6.655 -0.2267 -0.9797  0.9262
  212MOL0     C29144   8.599   8.461   6.750  0.1711 -0.1928 -0.1242
  212MOL0     C29145   8.493   8.475   6.845  0.8745  0.3846  0.7892
  212MOL0     C29146   8.514   8.594   6.947 -0.2847 -0.0300  0.0894
  212MOL0     C29147   8.380   8.384   6.829  1.0139  0.3897 -0.0025
  212MOL0     C29148   8.252   8.390   6.907  0.1285 -0.4622 -0.3376
  212MOL0     O29149   8.147   8.315   6.861  0.4964 -0.3193 -0.0178
  212MOL0     C29150   8.034   8.291   6.940 -0.3708 -0.7954  0.6603
  212MOL0     C29151   8.049   8.246   7.073  0.3676  0.0592 -0.0704
  212MOL0     C29152   7.936   8.211   7.134 -0.2787 -0.2492 -0.2968
  212MOL0     C29153   7.811   8.213   7.068  0.6217 -0.2034 -0.1711
  212MOL0     O29154   7.708   8.164   7.147 -0.4551 -0.1137  0.0478
  212MOL0     C29155   7.577   8.138   7.086  0.6503  0.4231  0.0868
  212MOL0     C29156   7.455   8.095   7.169 -0.2790  0.0978  0.1448
  212MOL0     C29157   7.400   8.207   7.255 -0.2572  0.5788  0.3210
  212MOL0     C29158   7.272   8.163   7.327  0.1487  0.0062  0.4413
  212MOL0     C29159   7.260   8.244   7.452  0.4981 -0.2231  0.5639
  212MOL0     C29160   7.121   8.212   7.524 -0.4211 -0.3417 -0.4007
  212MOL0     C29161   7.117   8.294   7.654 -0.1687  0.2915 -0.3758
  212MOL0     C29162   7.027   8.233   7.761  0.7053 -0.4028 -0.5115
  212MOL0    Cl29163   7.016   8.327   7.905  0.1412  0.5394  0.2107
  212MOL0     C29164   7.798   8.263   6.941  0.5157  0.4318 -0.2263
  212MOL0     C29165   7.912   8.315   6.877 -0.1462 -0.5794 -0.0228
  212MOL0     O29166   8.248   8.457   7.007 -0.4457  0.2818 -0.2351
  212MOL0     C29167   8.387   8.279   6.733  0.7570  0.2076  0.3899
  212MOL0     C29168   8.498   8.266   6.648 -0.0030 -0.9072 -0.3898
  212MOL0     N29169   8.860   8.453   5.974 -0.5648 -0.4676  0.0612
  212MOL0     N29170   8.866   8.370   5.872  0.0223 -0.0358 -0.5995
  212MOL0     C29171   7.878   7.754   5.432 -0.2065 -0.3117  0.2822
  212MOL0     C29172   7.756   7.736   5.362 -0.0270  0.5215 -0.1184
  212MOL0     C29173   7.436   7.584   5.073  0.1882  0.5638 -0.1452
  212MOL0     C29174   7.439   7.625   4.939 -0.7485  0.0976  0.7746
  212MOL0     C29175   7.340   7.589   4.848  0.1153  0.0158  0.2000
  212MOL0     C29176   7.234   7.510   4.887  0.3516 -0.7123 -0.3966
  212MOL0     O29177   7.134   7.476   4.802  0.1813  0.1821  0.5602
  212MOL0     C29178   7.111   7.532   4.683 -0.3157 -1.0267  0.0714
  212MOL0     C29179   7.182   7.478   4.557 -0.5467  0.4238 -0.6053
  212MOL0     C29180   7.120   7.347   4.499 -0.0056 -0.3966  0.1574
  212MOL0     C29181   7.141   7.318   4.350 -0.3301 -0.2318  0.9946
  212MOL0     C29182   7.055   7.208   4.301  0.0068 -0.6195  0.5441
  212MOL0     C29183   6.990   7.115   4.283 -0.4059  0.3887 -1.4962
  212MOL0     C29184   7.232   7.463   5.021  0.6461 -0.2313  0.3280
  212MOL0     C29185   7.326   7.502   5.111 -0.1572 -0.3723 -0.6533
  212MOL0     C29186   7.323   7.444   5.250  0.6480 -0.9874  0.6041
  212MOL0     H29187   7.649   7.447   5.493  0.0563  0.5918 -4.1904
  212MOL0     H29188   7.875   7.473   5.609 -0.7367 -2.0317 -0.9866
  212MOL0     H29189   8.113   7.870   5.541  1.1145  0.3929  1.9441
  212MOL0     H29190   8.175   7.744   5.437  1.9062  2.3508 -0.4808
  212MOL0     H29191   8.239   7.763   5.732  0.6235 -2.0456  0.2938
  212MOL0     H29192   8.286   7.643   5.628 -2.7574 -0.7423  0.5598
  212MOL0     H29193   8.443   7.807   5.490 -0.8354  2.3603 -1.7207
  212MOL0     H29194   8.353   7.938   5.539  1.9525 -0.2561 -3.0751
  212MOL0     H29195   8.453   7.953   5.747  3.6757 -2.6749  6.0424
  212MOL0     H29196   8.510   7.789   5.753  0.7107 -0.2235 -1.1253
  212MOL0     H29197   8.612   8.032   5.602  0.3884  0.3795  0.2911
  212MOL0     H29198   8.644   7.864   5.555  2.2482 -0.5830  1.5219
  212MOL0     H29199   8.740   7.830   5.786 -2.8989 -1.6788 -3.4847
  212MOL0     H29200   8.834   7.941   5.684 -0.3860 -1.3111 -2.4054
  212MOL0     H29201   8.808   8.024   5.920  1.1305 -1.9477 -1.2172
  212MOL0     H29202   8.627   8.038   5.901 -0.3279  0.9842 -1.1440
  212MOL0     H29203   8.825   8.164   5.709 -0.0810  0.0527 -0.4272
  212MOL0     H29204   8.660   8.211   5.721 -0.6161 -0.1935  0.3016
  212MOL0     H29205   8.600   8.241   6.015  1.0517 -0.0851  2.2270
  212MOL0     H29206   8.619   8.432   6.213 -0.1949 -0.1760 -1.4022
  212MOL0     H29207   8.704   8.575   6.153  2.3785 -0.0152  0.0911
  212MOL0     H29208   8.924   8.475   6.235  0.7306 -2.4856 -0.8198
  212MOL0     H29209   8.826   8.532   6.363 -0.8091  0.9206  0.3347
  212MOL0     H29210   8.840   8.243   6.278 -0.0463 -0.6925  0.3048
  212MOL0     H29211   8.924   8.322   6.418 -3.2224 -1.8111  4.0090
  212MOL0     H29212   8.627   8.343   6.398  1.6206 -2.4527 -3.1421
  212MOL0     H29213   8.726   8.200   6.455  1.0860 -0.8679  1.1905
  212MOL0     H29214   8.685   8.525   6.764  0.0436  0.2688 -1.3063
  212MOL0     H29215   8.418   8.636   6.979  0.1543 -0.8628  2.8092
  212MOL0     H29216   8.594   8.663   6.921  0.5296 -0.5571  1.1248
  212MOL0     H29217   8.551   8.546   7.038 -1.8089  0.5115  1.0279
  212MOL0     H29218   8.140   8.222   7.128 -1.2035 -0.4753  2.4352
  212MOL0     H29219   7.947   8.171   7.234  4.0915  2.5999  0.6271
  212MOL0     H29220   7.545   8.235   7.044 -2.8314 -0.2524  0.8620
  212MOL0     H29221   7.589   8.056   7.015  1.9584 -0.3764  1.1879
  212MOL0     H29222   7.382   8.073   7.091  0.6229 -0.1225 -0.6663
  212MOL0     H29223   7.478   8.010   7.233 -2.1431  3.0029  5.1921
  212MOL0     H29224   7.382   8.278   7.173 -1.2322 -1.1273 -1.0037
  212MOL0     H29225   7.474   8.238   7.329  3.0075 -3.0436 -1.0855
  212MOL0     H29226   7.291   8.056   7.341  2.5963  0.4371  0.9198
  212MOL0     H29227   7.188   8.172   7.258 -0.5860  2.6100  1.5404
  212MOL0     H29228   7.354   8.240   7.507  0.5185 -1.5593  0.4541
  212MOL0     H29229   7.255   8.349   7.422  1.5009  0.3679  2.3277
  212MOL0     H29230   7.132   8.104   7.538 -1.6665 -0.1907  2.6065
  212MOL0     H29231   7.035   8.242   7.462 -0.9663 -1.3125 -0.1315
  212MOL0     H29232   7.090   8.398   7.630  2.9610  0.7304 -2.6327
  212MOL0     H29233   7.218   8.299   7.694 -0.5197  1.0570  0.4593
  212MOL0     H29234   7.055   8.129   7.782 -1.0686 -1.0840 -1.2827
  212MOL0     H29235   6.930   8.242   7.710  0.1879  1.3445  0.6737
  212MOL0     H29236   7.701   8.255   6.892  1.9022 -0.8532 -2.9922
  212MOL0     H29237   7.912   8.361   6.778 -4.2631 -1.2516 -0.5245
  212MOL0     H29238   8.311   8.202   6.724  1.2523 -0.2467 -0.0064
  212MOL0     H29239   8.502   8.189   6.572  0.9484 -0.2938 -0.9804
  212MOL0     H29240   7.931   7.838   5.389 -0.0019 -2.1044 -3.2829
  212MOL0     H29241   7.726   7.808   5.286  0.8653 -0.1271 -1.1021
  212MOL0     H29242   7.514   7.684   4.888  1.3325 -3.0763 -0.1611
  212MOL0     H29243   7.338   7.635   4.750 -0.8235 -0.7426 -0.1548
  212MOL0     H29244   7.002   7.520   4.671 -0.3213 -0.2041 -0.8680
  212MOL0     H29245   7.133   7.638   4.699 -2.4670 -0.7416  1.5897
  212MOL0     H29246   7.287   7.461   4.584 -0.4615  3.7772  1.7328
  212MOL0     H29247   7.173   7.556   4.480 -1.7886  1.3269  0.4133
  212MOL0     H29248   7.150   7.262   4.561 -0.3074 -0.0472  0.7928
  212MOL0     H29249   7.013   7.349   4.524  0.6435 -3.3008  4.1216
  212MOL0     H29250   7.247   7.297   4.334  0.3949  2.5274  1.5275
  212MOL0     H29251   7.115   7.409   4.294 -1.1045  0.2105  2.0397
  212MOL0     H29252   6.921   7.035   4.267 -1.0781  0.6799 -0.1745
  212MOL0     H29253   7.152   7.392   5.041 -1.8286  1.4375 -2.6565
  212MOL0     H29254   7.333   7.526   5.322 -3.8020  1.2368 -0.8593
  212MOL0     H29255   7.231   7.388   5.270  0.9420 -1.0693  1.7692
  212MOL0     H29256   7.396   7.364   5.254 -1.2477 -2.8346  0.2339
  213MOL0     O29257   3.097   9.589   2.174  0.1712  0.4216 -0.0511
  213MOL0     C29258   3.019   9.500   2.207 -0.1723  0.4640  0.0358
  213MOL0     O29259   3.051   9.380   2.273 -0.6369  0.4517 -0.3781
  213MOL0     C29260   3.174   9.382   2.341  0.3319 -0.7255 -1.4304
  213MOL0     C29261   3.179   9.347   2.477  1.0129 -0.9465 -0.1225
  213MOL0     C29262   3.301   9.325   2.552  0.0472 -0.6689  0.0120
  213MOL0     C29263   3.422   9.349   2.491  0.4892 -0.0057 -0.4089
  213MOL0     O29264   3.543   9.340   2.553 -0.0428  0.3600 -0.5871
  213MOL0     C29265   3.547   9.422   2.671 -0.3439  0.8570 -1.0577
  213MOL0     C29266   3.681   9.498   2.682 -0.5705 -0.2582  0.2810
  213MOL0     C29267   3.723   9.547   2.819 -0.9897 -0.7740  0.1461
  213MOL0     C29268   3.855   9.621   2.817  0.1685 -0.3506  0.2493
  213MOL0     C29269   3.884   9.670   2.966  1.0419  0.0576 -0.0641
  213MOL0     C29270   4.026   9.703   3.001 -0.4165 -0.5376 -0.0460
  213MOL0     C29271   4.074   9.838   2.941 -0.1542 -0.3434  0.6230
  213MOL0     C29272   4.226   9.858   2.964  0.0924  1.2640  0.9978
  213MOL0     N29273   4.276   9.986   2.894  0.2760  0.5725 -0.7805
  213MOL0     C29274   4.378   9.992   2.801 -0.0565  0.5681 -0.0168
  213MOL0     C29275   4.369  10.119   2.751  0.5565  0.3134 -0.4718
  213MOL0     C29276   4.457  10.169   2.644  0.2772 -0.3219  0.7672
  213MOL0     C29277   4.537  10.060   2.569  0.6992  1.3392  0.2251
  213MOL0     C29278   4.618  10.113   2.447  0.4597 -0.0061  0.5529
  213MOL0     C29279   4.604  10.032   2.315 -0.3079 -0.6083  0.0296
  213MOL0     O29280   4.684  10.084   2.210 -0.0593  0.3589  1.3161
  213MOL0     C29281   4.817  10.118   2.215 -0.1644  0.1889 -0.0074
  213MOL0     C29282   4.860  10.204   2.118  0.4452 -0.8318  0.1802
  213MOL0     C29283   4.989  10.267   2.109 -1.0962  1.0925 -0.8211
  213MOL0     C29284   5.019  10.344   1.989  0.0775 -0.2291  0.2821
  213MOL0     C29285   5.081  10.211   2.198  0.0251  0.6721 -0.6852
  213MOL0     C29286   5.224  10.256   2.210 -0.6045  0.0912 -0.7700
  213MOL0     O29287   5.317  10.194   2.297  0.2546  0.2458  0.6113
  213MOL0     C29288   5.454  10.215   2.290 -0.7678 -0.4172  0.6448
  213MOL0     C29289   5.514  10.269   2.406 -0.1186  0.2801  0.1868
  213MOL0     C29290   5.648  10.293   2.400  0.4139 -0.5522  0.9639
  213MOL0     C29291   5.728  10.278   2.284 -0.7136  0.3920 -0.0355
  213MOL0     O29292   5.867  10.306   2.300  0.0194 -0.7884 -0.3395
  213MOL0     C29293   5.956  10.296   2.183  0.2309  0.2252  0.3421
  213MOL0     C29294   5.951  10.419   2.095  0.4865  0.2719 -0.4171
  213MOL0     C29295   5.995  10.534   2.177  0.2573 -1.1734  0.3414
  213MOL0     C29296   6.039  10.664   2.103 -0.0015  1.5116  0.0093
  213MOL0     C29297   5.921  10.759   2.108  0.2627 -0.2716  0.4753
  213MOL0     C29298   5.959  10.877   2.017  0.8957 -0.2519 -0.0691
  213MOL0     C29299   5.876  11.003   2.059  1.1323  0.3674 -0.6458
  213MOL0     C29300   5.900  11.117   1.964 -0.0767  0.6235  0.1962
  213MOL0    Cl29301   6.073  11.188   1.987  0.1979 -0.1867 -0.0072
  213MOL0     C29302   5.670  10.223   2.174 -0.6002 -0.6102 -0.7515
  213MOL0     C29303   5.533  10.182   2.178  1.1299  0.7881 -0.4140
  213MOL0     O29304   5.248  10.352   2.145  0.3949 -0.4031  0.4011
  213MOL0     C29305   5.046  10.113   2.299 -0.6045 -0.6746  0.0828
  213MOL0     C29306   4.915  10.065   2.302 -0.2858 -0.2750  0.2908
  213MOL0     N29307   4.277  10.195   2.824 -0.2793  0.3822 -1.0050
  213MOL0     N29308   4.226  10.115   2.911  0.3123  0.2905 -0.0494
  213MOL0     C29309   3.415   9.389   2.355 -1.4808  0.9002  0.2749
  213MOL0     C29310   3.300   9.402   2.281  0.7412  0.4219  0.6718
  213MOL0     C29311   2.874   9.513   2.175  0.3396  0.3321 -0.6250
  213MOL0     C29312   2.788   9.398   2.166 -0.9466 -0.5776  0.2535
  213MOL0     C29313   2.656   9.397   2.125 -0.3944  0.0258 -0.4307
  213MOL0     C29314   2.601   9.523   2.101 -0.6581 -0.0939  0.3507
  213MOL0     O29315   2.467   9.540   2.058  0.2997  0.0028  0.2598
  213MOL0     C29316   2.367   9.434   2.068  0.1986  0.2840  0.4861
  213MOL0     C29317   2.379   9.345   1.938  0.0520 -0.1451  0.4944
  213MOL0     C29318   2.309   9.418   1.818 -0.3909 -0.1137 -0.7417
  213MOL0     C29319   2.357   9.359   1.682 -0.4435 -0.3580 -0.9172
  213MOL0     C29320   2.362   9.212   1.680  0.2380  0.1121  0.5432
  213MOL0     C29321   2.367   9.086   1.681  0.3470  0.1815  0.8416
  213MOL0     C29322   2.676   9.635   2.107 -0.3562 -0.0074  0.5817
  213MOL0     C29323   2.814   9.634   2.145  0.2048 -0.0172 -0.3451
  213MOL0     C29324   2.891   9.761   2.161  0.1386 -0.8088  0.2017
  213MOL0     H29325   3.083   9.346   2.527  0.6118  2.8741 -0.5038
  213MOL0     H29326   3.307   9.298   2.657 -1.9536  1.1732  0.6552
  213MOL0     H29327   3.538   9.359   2.760 -1.8662 -0.3549 -2.0140
  213MOL0     H29328   3.460   9.487   2.683  0.0333  1.5905 -2.2210
  213MOL0     H29329   3.747   9.418   2.649 -2.0061 -0.8990 -1.2016
  213MOL0     H29330   3.674   9.582   2.612 -0.9614 -0.5754 -0.0712
  213MOL0     H29331   3.641   9.611   2.853 -0.4652 -0.7170  1.3144
  213MOL0     H29332   3.726   9.458   2.883  1.0349  0.4491  1.8583
  213MOL0     H29333   3.938   9.554   2.788  1.0665  0.3042  1.2315
  213MOL0     H29334   3.851   9.703   2.745  0.3067  1.0153  1.7599
  213MOL0     H29335   3.842   9.595   3.035  2.3762 -2.7714 -2.0924
  213MOL0     H29336   3.830   9.763   2.984  0.5009 -0.5716  1.8170
  213MOL0     H29337   4.038   9.720   3.109  1.1064  1.6509 -0.4966
  213MOL0     H29338   4.088   9.621   2.963 -1.6691 -0.4486 -2.4430
  213MOL0     H29339   4.015   9.916   2.991  2.3944  1.4003  1.1317
  213MOL0     H29340   4.070   9.851   2.832  0.7700  2.0158  0.8018
  213MOL0     H29341   4.245   9.867   3.072  2.0278 -1.0758  0.9323
  213MOL0     H29342   4.294   9.778   2.935  0.9289  2.1892  0.3345
  213MOL0     H29343   4.450   9.918   2.768 -0.1216  0.8442 -0.7861
  213MOL0     H29344   4.520  10.242   2.695 -1.1809  1.0649  0.6401
  213MOL0     H29345   4.395  10.228   2.576 -0.4206 -1.5779  0.2628
  213MOL0     H29346   4.615  10.020   2.635  0.2572 -0.4548 -0.2997
  213MOL0     H29347   4.469   9.981   2.537  0.1394  1.8495  0.1228
  213MOL0     H29348   4.598  10.218   2.425  3.8578  0.8646  0.9910
  213MOL0     H29349   4.721  10.112   2.486  0.3902 -2.8114  0.8484
  213MOL0     H29350   4.646   9.932   2.332  1.5700 -0.0571 -1.0573
  213MOL0     H29351   4.506  10.011   2.271 -0.8740  3.3944 -0.9477
  213MOL0     H29352   4.788  10.240   2.046 -0.8967 -1.6514  1.0823
  213MOL0     H29353   4.935  10.387   1.935  1.6167 -2.0729 -4.0729
  213MOL0     H29354   5.069  10.280   1.915 -0.6728 -0.4211 -0.0653
  213MOL0     H29355   5.083  10.430   2.011  2.2903 -1.4954 -0.8554
  213MOL0     H29356   5.459  10.294   2.496  0.2188 -1.3292  0.8755
  213MOL0     H29357   5.693  10.331   2.491  2.6783 -0.9759  0.0703
  213MOL0     H29358   6.055  10.275   2.223 -0.8203 -2.4314  1.8181
  213MOL0     H29359   5.928  10.211   2.120 -0.3237  2.3054 -2.4031
  213MOL0     H29360   6.013  10.396   2.008  0.7526 -3.0654  0.5106
  213MOL0     H29361   5.850  10.432   2.053 -0.2562 -1.1730  0.8182
  213MOL0     H29362   6.092  10.517   2.224 -0.6036 -3.2238  1.5075
  213MOL0     H29363   5.920  10.555   2.253  3.1891 -1.1086  3.4568
  213MOL0     H29364   6.073  10.634   2.004 -0.6986 -0.0542  0.2132
  213MOL0     H29365   6.129  10.700   2.152  1.4398 -0.9918 -0.6444
  213MOL0     H29366   5.830  10.710   2.072 -0.1071 -0.2385  1.3544
  213MOL0     H29367   5.914  10.813   2.202 -2.8775  1.3801 -0.5854
  213MOL0     H29368   5.940  10.857   1.911  1.1870  0.6387 -0.3016
  213MOL0     H29369   6.065  10.894   2.038  1.0065  1.6312 -1.7874
  213MOL0     H29370   5.905  11.035   2.160 -2.7759  1.6249  0.2819
  213MOL0     H29371   5.770  10.976   2.060  1.5790 -1.5040  0.2267
  213MOL0     H29372   5.830  11.194   1.995 -1.2760 -0.5456  0.4709
  213MOL0     H29373   5.882  11.089   1.859 -1.2589  1.2247  0.2341
  213MOL0     H29374   5.729  10.200   2.085  1.1917  2.5543 -0.5245
  213MOL0     H29375   5.494  10.142   2.085  2.8575  3.3051 -2.3734
  213MOL0     H29376   5.121  10.060   2.356 -0.1432  0.2083  0.3134
  213MOL0     H29377   4.896   9.983   2.371  0.3624 -1.2360 -0.6440
  213MOL0     H29378   3.505   9.408   2.299 -0.6649  0.2695  1.3366
  213MOL0     H29379   3.306   9.414   2.174 -2.1602  0.6559  0.4384
  213MOL0     H29380   2.827   9.304   2.204 -3.3613 -0.7641  2.5740
  213MOL0     H29381   2.594   9.308   2.118 -0.5736 -0.3757  3.6054
  213MOL0     H29382   2.403   9.370   2.149  0.8328  1.3165  1.0426
  213MOL0     H29383   2.269   9.477   2.091  0.0774 -0.9595  2.5314
  213MOL0     H29384   2.312   9.259   1.955 -3.6775  2.6647  1.2893
  213MOL0     H29385   2.479   9.322   1.899 -0.5642  1.3593 -2.2622
  213MOL0     H29386   2.200   9.422   1.825 -0.4792 -2.9973  1.0910
  213MOL0     H29387   2.339   9.523   1.821  1.7374 -0.6745  1.5221
  213MOL0     H29388   2.464   9.380   1.673  0.4835 -3.5378  0.9810
  213MOL0     H29389   2.308   9.403   1.595 -0.0684 -0.6093 -1.2611
  213MOL0     H29390   2.373   8.979   1.688  1.7193  0.2119  0.3343
  213MOL0     H29391   2.634   9.733   2.086 -0.0837  0.4006  1.8774
  213MOL0     H29392   2.960   9.779   2.078  2.9448  0.3945  2.6372
  213MOL0     H29393   2.823   9.846   2.151  0.3143 -0.8144 -1.2807
  213MOL0     H29394   2.945   9.754   2.256  1.9172 -3.3160 -0.8631
  214MOL0     O29395   7.193   2.583   3.394 -0.5792  0.4277  1.1848
  214MOL0     C29396   7.212   2.539   3.282 -0.4010  0.3683  0.7003
  214MOL0     O29397   7.217   2.411   3.255  0.5112  0.0502  0.0121
  214MOL0     C29398   7.177   2.315   3.346  0.6612  0.1012  0.0867
  214MOL0     C29399   7.230   2.188   3.324  0.0617 -0.4308 -0.1502
  214MOL0     C29400   7.198   2.078   3.406  0.9306 -0.4494  0.3803
  214MOL0     C29401   7.092   2.088   3.503  0.0329 -0.1627 -0.0908
  214MOL0     O29402   7.056   1.976   3.579  0.2282  0.3134  0.3634
  214MOL0     C29403   6.918   1.950   3.595 -0.1519 -0.2413  0.6197
  214MOL0     C29404   6.898   1.950   3.747 -1.1870 -0.6779  0.0872
  214MOL0     C29405   6.751   1.925   3.788 -0.2103  0.5580 -1.3549
  214MOL0     C29406   6.707   1.772   3.814  0.4486 -0.6072  0.6039
  214MOL0     C29407   6.552   1.758   3.842 -0.1386 -0.3222 -0.2241
  214MOL0     C29408   6.519   1.848   3.961 -0.2781  0.1122 -0.7496
  214MOL0     C29409   6.393   1.801   4.031 -0.5080  0.3993 -0.5784
  214MOL0     C29410   6.420   1.663   4.105  0.7206 -0.1292  0.3154
  214MOL0     N29411   6.316   1.630   4.203 -0.1867 -0.2568  0.1252
  214MOL0     C29412   6.295   1.507   4.267  0.5971  0.9759  0.0375
  214MOL0     C29413   6.195   1.537   4.351 -0.8098 -0.0892  0.5941
  214MOL0     C29414   6.137   1.447   4.462 -0.1424  0.0252  0.0722
  214MOL0     C29415   6.058   1.498   4.583  0.0198 -0.4711 -0.1364
  214MOL0     C29416   6.143   1.518   4.717  0.0409  0.0918  0.5853
  214MOL0     C29417   6.043   1.552   4.831 -0.2182 -0.0817  0.5341
  214MOL0     O29418   5.963   1.442   4.856 -0.1601  0.2507 -0.7635
  214MOL0     C29419   5.851   1.469   4.930  0.7748  0.6222 -0.0776
  214MOL0     C29420   5.764   1.570   4.908  0.0387 -0.5924 -0.2548
  214MOL0     C29421   5.644   1.584   4.986  0.1320 -0.7486  0.1735
  214MOL0     C29422   5.567   1.710   4.953  0.0375  0.3360 -0.4828
  214MOL0     C29423   5.628   1.509   5.105  0.6837  1.4049  1.0020
  214MOL0     C29424   5.523   1.524   5.211  0.8437 -0.8055  0.1163
  214MOL0     O29425   5.535   1.436   5.315  0.0151 -0.0004 -0.5094
  214MOL0     C29426   5.415   1.399   5.378 -0.4553 -0.6601 -0.3476
  214MOL0     C29427   5.373   1.268   5.382 -0.1765 -0.1653  0.3499
  214MOL0     C29428   5.250   1.237   5.440  0.0858  1.2803  0.2730
  214MOL0     C29429   5.187   1.335   5.517 -0.2162  1.0669 -0.0384
  214MOL0     O29430   5.078   1.288   5.598  0.4534 -0.5404  0.6951
  214MOL0     C29431   5.076   1.347   5.728  0.8611 -0.1093 -0.4189
  214MOL0     C29432   4.953   1.439   5.740  0.7480 -0.2059  0.8653
  214MOL0     C29433   4.942   1.502   5.872 -0.1695  0.0031 -0.3496
  214MOL0     C29434   4.815   1.591   5.876  0.2349 -0.9373 -0.2108
  214MOL0     C29435   4.830   1.731   5.793 -0.4923 -0.0512  0.1262
  214MOL0     C29436   4.960   1.807   5.827 -0.1991  0.8491 -0.3529
  214MOL0     C29437   4.994   1.853   5.968  0.8831  0.0189  0.1747
  214MOL0     C29438   4.886   1.946   6.018  0.8068  0.8634 -0.4389
  214MOL0    Cl29439   4.819   2.077   5.908 -0.1847  0.1834  0.0069
  214MOL0     C29440   5.230   1.468   5.513 -0.5832 -0.6414  0.0301
  214MOL0     C29441   5.344   1.496   5.447 -0.1473 -1.2905 -0.1835
  214MOL0     O29442   5.427   1.602   5.189  0.8166 -0.2966  0.2146
  214MOL0     C29443   5.708   1.392   5.120  0.1651 -0.3056  0.1664
  214MOL0     C29444   5.814   1.376   5.023 -0.0110 -0.3848 -0.4371
  214MOL0     N29445   6.161   1.670   4.345  0.7802 -0.0694 -0.4535
  214MOL0     N29446   6.240   1.727   4.262  0.4434 -0.5867 -0.4813
  214MOL0     C29447   7.035   2.220   3.515 -0.0300 -0.0885 -0.1004
  214MOL0     C29448   7.083   2.328   3.451 -0.3938 -1.0840  0.2980
  214MOL0     C29449   7.237   2.629   3.167 -0.3241 -0.2323  0.1331
  214MOL0     C29450   7.255   2.574   3.033 -0.5263  0.0759  0.2046
  214MOL0     C29451   7.282   2.650   2.927 -0.3364  1.0581  0.8230
  214MOL0     C29452   7.285   2.788   2.935 -0.1513  0.5364  1.3846
  214MOL0     O29453   7.326   2.850   2.823 -1.0697 -0.1590 -0.8458
  214MOL0     C29454   7.355   2.993   2.821  0.1752  0.2334 -0.9231
  214MOL0     C29455   7.440   3.045   2.699  0.4479 -0.5148  0.0407
  214MOL0     C29456   7.344   3.094   2.580  0.1909 -0.5436  0.7899
  214MOL0     C29457   7.423   3.192   2.489 -0.1552  0.4373 -0.1056
  214MOL0     C29458   7.535   3.138   2.418  0.4978  0.1844 -0.3333
  214MOL0     C29459   7.616   3.081   2.351  0.2186 -0.0157  0.3684
  214MOL0     C29460   7.269   2.846   3.067 -0.4276  0.0187  0.5412
  214MOL0     C29461   7.244   2.768   3.177 -1.5564 -0.0162 -1.1674
  214MOL0     C29462   7.185   2.841   3.296  0.9358 -0.3244  0.2423
  214MOL0     H29463   7.296   2.177   3.238  2.5407  3.1362  1.0335
  214MOL0     H29464   7.240   1.983   3.374  0.0203 -0.2357 -1.6248
  214MOL0     H29465   6.887   1.851   3.561 -0.7021  0.0555  0.2605
  214MOL0     H29466   6.861   2.027   3.544  0.5294 -0.6367 -0.7827
  214MOL0     H29467   6.960   1.871   3.790 -1.6158  0.0216  2.0609
  214MOL0     H29468   6.922   2.048   3.787 -0.8734 -1.2210  1.2801
  214MOL0     H29469   6.722   1.995   3.867  0.5226  0.2784 -0.8264
  214MOL0     H29470   6.683   1.961   3.710 -1.7511  0.2206 -0.2360
  214MOL0     H29471   6.724   1.719   3.719 -1.2313 -0.8212  0.3879
  214MOL0     H29472   6.767   1.738   3.898 -1.0324 -2.8543  0.8620
  214MOL0     H29473   6.528   1.654   3.868  0.1851  0.2570  2.7038
  214MOL0     H29474   6.494   1.793   3.757 -0.2430  0.7476  0.2794
  214MOL0     H29475   6.604   1.850   4.030 -2.0774 -2.7593  1.7887
  214MOL0     H29476   6.523   1.954   3.933  1.8372  0.0243 -0.9353
  214MOL0     H29477   6.308   1.786   3.963 -0.3723  3.8747 -1.6988
  214MOL0     H29478   6.374   1.890   4.092 -1.3316  0.5522 -1.0378
  214MOL0     H29479   6.433   1.588   4.027  1.3409  2.0496 -1.8122
  214MOL0     H29480   6.511   1.682   4.164  0.8356 -0.4535  0.2429
  214MOL0     H29481   6.338   1.407   4.265 -2.4526 -0.4751  1.1910
  214MOL0     H29482   6.221   1.392   4.504  1.2730  3.1771  1.7162
  214MOL0     H29483   6.072   1.376   4.410 -3.2829  2.3633  0.4396
  214MOL0     H29484   6.021   1.596   4.552 -0.6543 -1.3180 -2.1509
  214MOL0     H29485   5.966   1.441   4.597 -0.3740  0.1941  0.0405
  214MOL0     H29486   6.199   1.425   4.732 -0.1867 -0.0011  0.8743
  214MOL0     H29487   6.218   1.597   4.706  0.5837 -0.0899  2.6000
  214MOL0     H29488   6.108   1.581   4.915 -0.0091  1.7699 -0.2136
  214MOL0     H29489   5.977   1.636   4.808 -3.8596 -2.1302  2.5962
  214MOL0     H29490   5.781   1.631   4.820 -1.3412  2.2839  1.3181
  214MOL0     H29491   5.584   1.787   5.029  1.5076 -0.1661 -0.2682
  214MOL0     H29492   5.463   1.675   4.958  0.3034 -0.3017  1.0549
  214MOL0     H29493   5.588   1.744   4.851 -3.0616 -0.0167 -1.3516
  214MOL0     H29494   5.413   1.176   5.341 -1.8703 -1.0477  0.5757
  214MOL0     H29495   5.201   1.140   5.437 -2.6925  2.5684  0.7359
  214MOL0     H29496   5.058   1.271   5.804 -2.2002  1.7162  0.8625
  214MOL0     H29497   5.169   1.395   5.760  1.3454 -0.9163 -0.5878
  214MOL0     H29498   4.955   1.515   5.662 -0.3557  0.6958  1.6897
  214MOL0     H29499   4.866   1.376   5.718  0.2291  0.5475  0.7374
  214MOL0     H29500   5.029   1.563   5.901  0.1844 -0.9573  0.6813
  214MOL0     H29501   4.925   1.428   5.951 -1.7651  0.7551  0.0645
  214MOL0     H29502   4.775   1.623   5.973 -0.4592 -1.0124 -0.4641
  214MOL0     H29503   4.733   1.532   5.832 -1.6015  1.1131  0.2594
  214MOL0     H29504   4.854   1.688   5.695 -0.5431 -0.0676  0.1210
  214MOL0     H29505   4.737   1.789   5.788 -0.2680  0.4113  1.0941
  214MOL0     H29506   4.966   1.895   5.762 -0.0290  2.6339  1.9758
  214MOL0     H29507   5.051   1.754   5.798  0.0335  0.9239  0.2523
  214MOL0     H29508   5.083   1.917   5.969 -0.3356  1.8227  2.0282
  214MOL0     H29509   5.014   1.771   6.038  0.1091 -0.9044 -0.6763
  214MOL0     H29510   4.915   1.985   6.116 -0.0638 -1.1962  0.7123
  214MOL0     H29511   4.802   1.880   6.041  1.9300  0.1167  1.9062
  214MOL0     H29512   5.177   1.545   5.568 -1.1809 -2.4465  2.1372
  214MOL0     H29513   5.391   1.593   5.448  0.7170 -1.6686 -1.4679
  214MOL0     H29514   5.690   1.314   5.193  3.4957 -0.4352  1.0424
  214MOL0     H29515   5.875   1.287   5.029 -2.1013 -1.8695 -0.2981
  214MOL0     H29516   6.953   2.215   3.586 -0.0468 -0.1098 -0.1213
  214MOL0     H29517   7.028   2.421   3.463 -1.4250 -1.4178 -1.4160
  214MOL0     H29518   7.264   2.466   3.026 -1.4451 -0.0192  0.4204
  214MOL0     H29519   7.302   2.605   2.830  2.0598 -0.5627  1.9682
  214MOL0     H29520   7.261   3.050   2.823  0.1121  0.1405  1.7302
  214MOL0     H29521   7.411   3.022   2.911 -0.6942 -1.5320  0.2399
  214MOL0     H29522   7.502   2.960   2.670  0.7604  0.2948 -1.7972
  214MOL0     H29523   7.507   3.130   2.716  1.0304 -0.3845 -2.5592
  214MOL0     H29524   7.314   3.008   2.519 -1.1857  1.5766 -1.7299
  214MOL0     H29525   7.253   3.145   2.612 -1.0771 -0.1623 -3.0237
  214MOL0     H29526   7.453   3.275   2.553  0.2952 -0.2860  0.6448
  214MOL0     H29527   7.359   3.222   2.406 -0.1439 -1.6105 -0.9168
  214MOL0     H29528   7.694   3.026   2.303 -0.8416 -0.5380 -0.8256
  214MOL0     H29529   7.287   2.951   3.086  3.0143 -0.2001 -0.7505
  214MOL0     H29530   7.086   2.804   3.325  0.7343  0.9641  1.2468
  214MOL0     H29531   7.254   2.829   3.380 -1.6239  0.7732  2.6381
  214MOL0     H29532   7.171   2.946   3.270  1.8289 -0.3602 -0.4440
  215MOL0     O29533  11.474   3.549   9.734  0.6667  0.1038 -0.2535
  215MOL0     C29534  11.534   3.457   9.687 -0.1490 -0.8271  0.9224
  215MOL0     O29535  11.656   3.432   9.712 -0.2188  0.2444 -0.5085
  215MOL0     C29536  11.706   3.492   9.826  0.3515 -0.4472 -1.5092
  215MOL0     C29537  11.727   3.410   9.941 -0.0356  0.6585  0.4106
  215MOL0     C29538  11.777   3.471  10.051 -0.5331 -0.0775 -0.2952
  215MOL0     C29539  11.825   3.610  10.048 -0.7103  0.4263 -0.1082
  215MOL0     O29540  11.881   3.649  10.167 -0.0546  0.7297 -0.0742
  215MOL0     C29541  11.934   3.780  10.160 -0.4785  0.5659  0.0433
  215MOL0     C29542  11.831   3.893  10.184  0.4021  0.7087  0.7005
  215MOL0     C29543  11.885   3.998  10.280  0.2810  0.8221 -0.7083
  215MOL0     C29544  11.791   4.119  10.281 -0.4721  0.5228  0.0375
  215MOL0     C29545  11.865   4.233  10.359  0.9091  0.1956  0.1949
  215MOL0     C29546  11.803   4.368  10.336  0.5984 -0.1065  0.1225
  215MOL0     C29547  11.871   4.471  10.431  0.0165 -0.8286 -0.1881
  215MOL0     C29548  11.979   4.549  10.363  0.1956 -0.4232  0.2755
  215MOL0     N29549  11.927   4.646  10.262 -0.0191  0.9512  0.8617
  215MOL0     C29550  11.910   4.619  10.123  1.4510  0.1808  0.4893
  215MOL0     C29551  11.845   4.724  10.079  0.0983  0.7002 -0.5900
  215MOL0     C29552  11.794   4.756   9.936 -0.7247  0.8639 -0.5781
  215MOL0     C29553  11.856   4.663   9.826 -0.1830  0.0074 -0.1836
  215MOL0     C29554  11.752   4.550   9.785  0.1758  0.7741 -0.7604
  215MOL0     C29555  11.700   4.465   9.903 -0.0894  0.6295  0.7079
  215MOL0     O29556  11.792   4.389   9.983 -0.0940 -0.6810  0.6686
  215MOL0     C29557  11.865   4.291   9.927 -0.6984 -0.2904 -0.0293
  215MOL0     C29558  11.977   4.241   9.988 -0.4762  0.2247 -0.6452
  215MOL0     C29559  12.063   4.136   9.933 -0.2865  1.0788 -0.5046
  215MOL0     C29560  12.178   4.082  10.007 -1.0234 -0.6140  0.9827
  215MOL0     C29561  12.019   4.071   9.822 -0.7883 -0.4933  0.2428
  215MOL0     C29562  12.080   3.959   9.744 -0.9942 -0.5541 -1.6208
  215MOL0     O29563  12.010   3.870   9.671  1.3988  0.2865  0.3307
  215MOL0     C29564  12.090   3.782   9.601  1.4731  0.1901  0.2602
  215MOL0     C29565  12.124   3.800   9.470  0.7405 -0.5077  0.0183
  215MOL0     C29566  12.174   3.686   9.401  0.4323 -1.0972 -0.6011
  215MOL0     C29567  12.200   3.564   9.455 -0.9445  0.6360 -0.5949
  215MOL0     O29568  12.241   3.448   9.392 -0.0507 -0.4976 -0.4802
  215MOL0     C29569  12.298   3.475   9.260 -0.7254  0.2228  0.7196
  215MOL0     C29570  12.368   3.344   9.215  1.0386  0.3191 -0.3347
  215MOL0     C29571  12.489   3.311   9.298 -0.2189  0.5984  0.1958
  215MOL0     C29572  12.563   3.188   9.245 -0.1390  0.4290  0.1813
  215MOL0     C29573  12.681   3.151   9.335 -0.2048 -0.2130  0.1371
  215MOL0     C29574  12.764   3.045   9.272  0.6512  1.0419  0.3796
  215MOL0     C29575  12.856   3.096   9.157 -0.2912 -0.0320 -0.4953
  215MOL0     C29576  12.989   3.148   9.207 -0.4294 -0.3102 -0.2639
  215MOL0    Cl29577  12.986   3.313   9.278 -0.1782  0.3747  0.0858
  215MOL0     C29578  12.170   3.553   9.591 -1.6126  0.5934  0.3125
  215MOL0     C29579  12.112   3.657   9.664 -0.6992  0.5253 -0.3588
  215MOL0     O29580  12.207   3.970   9.745 -0.9194  0.1936  0.2523
  215MOL0     C29581  11.909   4.127   9.755  0.6741 -0.1067  0.7405
  215MOL0     C29582  11.833   4.233   9.807 -0.4315 -0.3501 -0.3959
  215MOL0     N29583  11.831   4.807  10.191  0.2869  0.4285 -1.0279
  215MOL0     N29584  11.876   4.758  10.305  0.0366 -0.0939  0.3567
  215MOL0     C29585  11.792   3.691   9.939  0.1452 -0.7708  0.4271
  215MOL0     C29586  11.733   3.629   9.831  0.3083  0.1691  0.3773
  215MOL0     C29587  11.485   3.378   9.572 -0.6537 -0.3803 -0.1646
  215MOL0     C29588  11.578   3.294   9.494  0.6548  0.9158 -0.2915
  215MOL0     C29589  11.543   3.214   9.386  0.2492  0.3611 -0.3081
  215MOL0     C29590  11.407   3.214   9.354 -0.2138  0.1512  0.0210
  215MOL0     O29591  11.373   3.139   9.238 -0.4310  0.1349  0.8016
  215MOL0     C29592  11.415   3.011   9.203  0.2951 -0.0732  0.2988
  215MOL0     C29593  11.290   2.918   9.210  1.0925 -0.1931  1.2295
  215MOL0     C29594  11.180   2.959   9.108 -0.0602 -0.2094  0.1734
  215MOL0     C29595  11.094   3.074   9.171 -0.6435 -0.4169  0.5761
  215MOL0     C29596  10.961   3.090   9.117  0.5432  0.3519  0.4438
  215MOL0     C29597  10.857   3.110   9.060  1.0058 -0.5685  0.3988
  215MOL0     C29598  11.309   3.284   9.429  0.1236 -0.4398 -0.0637
  215MOL0     C29599  11.345   3.374   9.531 -0.0858 -0.4176 -0.2043
  215MOL0     C29600  11.235   3.452   9.607  0.2837  0.6065 -0.9377
  215MOL0     H29601  11.708   3.303   9.943  1.9790  0.2597  0.9062
  215MOL0     H29602  11.787   3.427  10.150 -2.9386 -3.2459 -1.2687
  215MOL0     H29603  11.985   3.794  10.064  0.5005  0.5624  0.5592
  215MOL0     H29604  12.018   3.781  10.229  0.2962  1.0308 -0.8777
  215MOL0     H29605  11.799   3.939  10.090 -2.4491  3.8927  2.9973
  215MOL0     H29606  11.738   3.855  10.228 -0.3835  0.6070 -0.9557
  215MOL0     H29607  11.895   3.966  10.384 -1.2239 -1.4207 -1.1850
  215MOL0     H29608  11.979   4.031  10.235  0.3329 -1.3594 -2.3821
  215MOL0     H29609  11.769   4.152  10.179 -2.5056 -1.4803 -0.2634
  215MOL0     H29610  11.695   4.101  10.330  0.3456 -1.5107  1.0288
  215MOL0     H29611  11.970   4.228  10.328  0.8527 -2.0703  0.2333
  215MOL0     H29612  11.845   4.219  10.465 -0.1194  1.6240  0.2224
  215MOL0     H29613  11.806   4.389  10.228 -5.6621 -3.6554 -1.2477
  215MOL0     H29614  11.696   4.363  10.357  0.8282  3.0824  2.9408
  215MOL0     H29615  11.908   4.426  10.524  0.1396  1.0627  0.7190
  215MOL0     H29616  11.801   4.543  10.473  2.3991 -0.8106  4.4203
  215MOL0     H29617  12.025   4.613  10.439  3.2280 -3.7683  1.5656
  215MOL0     H29618  12.053   4.485  10.315  0.1665 -0.7674  0.6859
  215MOL0     H29619  11.940   4.533  10.065 -1.2514  0.1891 -1.0994
  215MOL0     H29620  11.838   4.853   9.908 -1.6122  0.6419 -2.9359
  215MOL0     H29621  11.686   4.775   9.929 -0.7556  0.6697 -0.6208
  215MOL0     H29622  11.887   4.725   9.741 -0.7401  2.0637  1.0444
  215MOL0     H29623  11.951   4.620   9.857 -0.6653  0.6887  2.5357
  215MOL0     H29624  11.664   4.585   9.730 -1.2903 -0.4435  0.6780
  215MOL0     H29625  11.804   4.476   9.724 -2.1818 -1.9255  0.2769
  215MOL0     H29626  11.657   4.530   9.979  0.9181 -0.7303  2.5217
  215MOL0     H29627  11.627   4.387   9.878 -0.1331  1.1822 -1.0741
  215MOL0     H29628  12.002   4.288  10.083 -0.7586  1.0559 -0.9736
  215MOL0     H29629  12.268   4.130   9.968 -1.0873  0.2962  1.9078
  215MOL0     H29630  12.201   3.976   9.997 -1.6584 -0.5482 -3.4591
  215MOL0     H29631  12.172   4.104  10.114  3.8805 -2.7954  1.9774
  215MOL0     H29632  12.097   3.894   9.424  0.5742 -2.0011 -3.2634
  215MOL0     H29633  12.204   3.711   9.300  0.4720  1.8520  0.0510
  215MOL0     H29634  12.236   3.529   9.188  0.6113  2.1779  0.9392
  215MOL0     H29635  12.387   3.538   9.273  1.1911 -1.8262 -1.5906
  215MOL0     H29636  12.292   3.267   9.229 -1.6146  2.9398  0.6454
  215MOL0     H29637  12.400   3.343   9.110  1.9836  0.8311 -0.0686
  215MOL0     H29638  12.454   3.300   9.401 -0.4795  1.5829  0.2251
  215MOL0     H29639  12.555   3.397   9.289  0.6212 -0.0893 -0.5089
  215MOL0     H29640  12.606   3.213   9.148 -0.6840 -0.2198 -0.2333
  215MOL0     H29641  12.490   3.109   9.226 -1.4209  1.3357  1.1207
  215MOL0     H29642  12.747   3.239   9.335 -0.5430  0.1346  2.9298
  215MOL0     H29643  12.640   3.118   9.431  1.5772  2.7508  2.0872
  215MOL0     H29644  12.689   2.989   9.216  0.2580  0.1993  1.7177
  215MOL0     H29645  12.818   2.987   9.348 -1.6393 -3.4304 -1.0723
  215MOL0     H29646  12.805   3.178   9.106 -0.9754 -0.2753 -0.2096
  215MOL0     H29647  12.860   3.014   9.084  2.9799 -1.0333  0.5974
  215MOL0     H29648  13.056   3.142   9.120  1.8002 -1.3032  1.4223
  215MOL0     H29649  13.039   3.078   9.275  2.2845  2.8434  1.2289
  215MOL0     H29650  12.191   3.458   9.638  1.0123  0.5001 -0.8847
  215MOL0     H29651  12.064   3.628   9.756  0.2196 -0.1824 -0.0837
  215MOL0     H29652  11.856   4.099   9.665 -1.0637  1.9399  1.0463
  215MOL0     H29653  11.749   4.264   9.746  0.6284  1.7111 -0.8880
  215MOL0     H29654  11.815   3.797   9.936 -2.1544 -0.2007  1.2878
  215MOL0     H29655  11.726   3.682   9.737  0.7113 -3.3210 -1.7799
  215MOL0     H29656  11.686   3.294   9.506  0.6072  1.0988  0.1807
  215MOL0     H29657  11.623   3.162   9.334  0.6051 -2.7110  2.8764
  215MOL0     H29658  11.449   2.998   9.100 -2.0413 -1.6227 -0.3635
  215MOL0     H29659  11.498   2.962   9.254  2.5496  1.2180 -1.8780
  215MOL0     H29660  11.248   2.921   9.311 -0.4307  2.4510  0.5895
  215MOL0     H29661  11.315   2.814   9.186 -3.6749 -1.5336  1.1114
  215MOL0     H29662  11.234   2.991   9.018 -2.3004  1.6470 -0.6013
  215MOL0     H29663  11.119   2.877   9.069 -0.8733  0.8082 -0.7755
  215MOL0     H29664  11.147   3.170   9.174 -1.8190  0.4514 -2.2791
  215MOL0     H29665  11.066   3.054   9.274  0.5317  1.6944  1.3658
  215MOL0     H29666  10.763   3.131   9.014  0.7901 -2.5033 -0.1539
  215MOL0     H29667  11.202   3.274   9.412  0.5958 -2.8960 -2.3415
  215MOL0     H29668  11.262   3.555   9.583  2.2094  0.4412  0.3371
  215MOL0     H29669  11.137   3.418   9.571  0.7607 -1.0555 -0.7447
  215MOL0     H29670  11.238   3.450   9.717 -0.8114  1.2550 -0.8752
  216MOL0     O29671   0.588   1.833  10.670 -0.2968  0.0732  0.4888
  216MOL0     C29672   0.667   1.916  10.631  0.1875  0.3468 -0.8769
  216MOL0     O29673   0.785   1.951  10.690 -0.0614  0.4458 -0.2132
  216MOL0     C29674   0.796   1.928  10.824  0.2171  0.7082 -0.1836
  216MOL0     C29675   0.905   1.856  10.868  1.1730 -0.2605  0.5123
  216MOL0     C29676   0.940   1.842  11.004  0.9471  0.1736  0.1586
  216MOL0     C29677   0.856   1.899  11.107  0.7565  0.0051 -0.2104
  216MOL0     O29678   0.873   1.884  11.241  0.4111 -0.6271  0.7434
  216MOL0     C29679   1.004   1.858  11.286  0.1489 -0.2120 -0.2430
  216MOL0     C29680   1.095   1.981  11.289  0.5384 -0.8526 -0.0919
  216MOL0     C29681   1.028   2.119  11.333 -0.9424 -0.5252  0.7600
  216MOL0     C29682   0.984   2.124  11.480 -0.0734  0.1886  0.1193
  216MOL0     C29683   0.969   2.278  11.528  0.3751  1.3192  0.2286
  216MOL0     C29684   0.839   2.339  11.484  0.3712  0.4572 -0.3820
  216MOL0     C29685   0.777   2.428  11.590  0.4927  0.1958  0.3991
  216MOL0     C29686   0.635   2.477  11.546  0.0623  0.4005  0.0280
  216MOL0     N29687   0.547   2.356  11.517  0.4129 -0.5827  0.9669
  216MOL0     C29688   0.472   2.290  11.597  0.7280  0.4219 -0.7056
  216MOL0     C29689   0.406   2.204  11.526 -0.1511  0.3779  0.3039
  216MOL0     C29690   0.296   2.121  11.572 -0.3913 -0.2285 -0.8843
  216MOL0     C29691   0.340   1.972  11.593 -0.7732 -0.3768  0.5233
  216MOL0     C29692   0.227   1.883  11.652  0.1887  0.8548  0.2483
  216MOL0     C29693   0.253   1.732  11.632  0.8722  0.3376 -1.2038
  216MOL0     O29694   0.157   1.657  11.712  0.4434 -0.3342 -0.5902
  216MOL0     C29695   0.210   1.554  11.782  0.1111  0.0545 -0.4037
  216MOL0     C29696   0.209   1.550  11.923 -0.4602  0.5168 -0.7990
  216MOL0     C29697   0.241   1.429  11.984  0.0553  0.3602 -0.2114
  216MOL0     C29698   0.242   1.436  12.141 -0.0681  0.9325  0.4310
  216MOL0     C29699   0.296   1.313  11.911 -0.4401 -0.1877  0.3651
  216MOL0     C29700   0.353   1.200  11.978  0.3392 -0.0186  1.0157
  216MOL0     O29701   0.385   1.099  11.903  0.1160  0.7176 -0.0487
  216MOL0     C29702   0.391   0.978  11.966  0.5036 -0.6382 -0.0501
  216MOL0     C29703   0.513   0.945  12.038 -0.2990  0.2471 -0.6401
  216MOL0     C29704   0.514   0.826  12.113  0.0273  0.5330 -0.4089
  216MOL0     C29705   0.398   0.753  12.125 -0.7107 -0.1368 -0.9697
  216MOL0     O29706   0.410   0.648  12.211  0.7355 -0.0575 -0.6858
  216MOL0     C29707   0.291   0.568  12.243  0.1116 -0.5029  0.0510
  216MOL0     C29708   0.339   0.459  12.339 -0.9979 -0.9366  0.1754
  216MOL0     C29709   0.406   0.510  12.458  0.5396  0.7643  0.3459
  216MOL0     C29710   0.407   0.390  12.548 -0.2826  0.4357  0.4666
  216MOL0     C29711   0.485   0.420  12.669 -0.2385  0.2123 -0.3798
  216MOL0     C29712   0.521   0.288  12.750 -0.0942 -0.4442 -0.6622
  216MOL0     C29713   0.569   0.315  12.900  0.2419 -0.8719 -0.0840
  216MOL0     C29714   0.452   0.321  12.990  0.2891 -0.0243 -0.0912
  216MOL0    Cl29715   0.503   0.350  13.155  0.0728  0.0868  0.6023
  216MOL0     C29716   0.290   0.785  12.050  0.0826 -0.2547  0.4450
  216MOL0     C29717   0.286   0.897  11.960  0.2908  0.0396  0.0226
  216MOL0     O29718   0.364   1.199  12.098  0.0038  0.9469 -0.1159
  216MOL0     C29719   0.285   1.322  11.769 -1.4550 -1.0021  0.3941
  216MOL0     C29720   0.246   1.439  11.708  0.1827 -0.3947 -0.4912
  216MOL0     N29721   0.439   2.230  11.395  0.2506  0.1921 -0.1955
  216MOL0     N29722   0.528   2.312  11.395  0.0669 -0.6332  0.6804
  216MOL0     C29723   0.746   1.970  11.060 -0.1379  0.3445  0.5581
  216MOL0     C29724   0.715   1.990  10.922  0.4589  1.0330 -0.2972
  216MOL0     C29725   0.623   2.006  10.524  0.3991 -0.3096  0.2979
  216MOL0     C29726   0.660   2.145  10.537 -0.2034 -0.1948 -1.0723
  216MOL0     C29727   0.640   2.238  10.438  0.7373 -0.2002  0.7816
  216MOL0     C29728   0.569   2.210  10.317  0.5047 -0.0382 -0.2771
  216MOL0     O29729   0.540   2.310  10.223 -0.1570 -0.0786 -0.8795
  216MOL0     C29730   0.400   2.320  10.180 -0.5708  0.5915 -0.5363
  216MOL0     C29731   0.339   2.451  10.215  0.8009 -0.3786 -0.1447
  216MOL0     C29732   0.195   2.468  10.176  0.5043  0.4263  0.8961
  216MOL0     C29733   0.137   2.612  10.176 -0.7111 -0.0753 -0.0771
  216MOL0     C29734   0.075   2.651  10.052  0.7424  0.3046 -0.3822
  216MOL0     C29735   0.011   2.665   9.954 -0.2896 -0.2159 -0.0470
  216MOL0     C29736   0.521   2.074  10.301 -0.4371  0.3814 -0.7467
  216MOL0     C29737   0.540   1.975  10.414 -0.0699 -0.2738  1.0508
  216MOL0     C29738   0.473   1.847  10.394  0.4002  0.5206  0.7066
  216MOL0     H29739   0.960   1.805  10.789 -0.5489 -0.2053 -0.7799
  216MOL0     H29740   1.021   1.774  11.028  0.0561 -0.6738  0.8226
  216MOL0     H29741   1.048   1.769  11.239 -1.3022 -1.4896  0.6952
  216MOL0     H29742   0.992   1.830  11.391 -0.3243  0.0491 -0.2227
  216MOL0     H29743   1.180   1.957  11.353  0.0775 -0.4901  0.6850
  216MOL0     H29744   1.122   1.989  11.183 -0.8081 -0.6030 -0.4395
  216MOL0     H29745   1.109   2.193  11.330 -1.2668 -0.1995 -0.8287
  216MOL0     H29746   0.943   2.143  11.269  1.2587 -0.2297 -2.2610
  216MOL0     H29747   0.890   2.071  11.494 -0.1614  0.1768 -0.4897
  216MOL0     H29748   1.061   2.078  11.543 -1.1065 -0.8909  0.6416
  216MOL0     H29749   1.059   2.337  11.504  1.0639 -0.4888 -1.9926
  216MOL0     H29750   0.953   2.265  11.635 -5.3936  1.4093 -0.3161
  216MOL0     H29751   0.844   2.393  11.389 -1.9090 -0.4902 -1.0882
  216MOL0     H29752   0.772   2.256  11.460  1.0304  0.6568 -3.2191
  216MOL0     H29753   0.845   2.511  11.612 -0.2663  0.3146  2.6591
  216MOL0     H29754   0.773   2.383  11.690 -0.1983  2.1244  1.2969
  216MOL0     H29755   0.610   2.538  11.633  2.6441 -2.8907  3.4264
  216MOL0     H29756   0.635   2.528  11.449 -0.5413  0.3143 -0.0252
  216MOL0     H29757   0.466   2.309  11.704  1.5449 -0.0261 -0.5680
  216MOL0     H29758   0.213   2.115  11.501 -0.2437 -1.0686 -0.9927
  216MOL0     H29759   0.266   2.158  11.670 -1.3456  1.9189 -1.9154
  216MOL0     H29760   0.361   1.928  11.495 -2.8645  1.0925 -0.6640
  216MOL0     H29761   0.431   1.963  11.652  2.5143 -1.0017 -4.1346
  216MOL0     H29762   0.225   1.902  11.760  3.2582  0.7672  0.4074
  216MOL0     H29763   0.131   1.917  11.610 -0.5919  0.4624  1.6552
  216MOL0     H29764   0.238   1.705  11.527 -1.9427 -0.1613 -0.7609
  216MOL0     H29765   0.355   1.707  11.660  0.0861 -3.0758 -0.9280
  216MOL0     H29766   0.160   1.628  11.981  2.7686  0.9189  1.6607
  216MOL0     H29767   0.155   1.385  12.185 -1.3952  0.3955 -2.5840
  216MOL0     H29768   0.256   1.542  12.162  1.2548  0.7940  0.3312
  216MOL0     H29769   0.336   1.404  12.187  1.2491  1.4827 -1.7167
  216MOL0     H29770   0.604   1.002  12.025 -0.5958  0.3708 -2.3713
  216MOL0     H29771   0.604   0.784  12.156 -0.4342 -0.3771 -0.3136
  216MOL0     H29772   0.213   0.635  12.281 -0.7318  1.0901 -4.0420
  216MOL0     H29773   0.252   0.515  12.155 -2.9099 -0.6351  1.3478
  216MOL0     H29774   0.259   0.390  12.367 -1.7496  0.9112  3.0125
  216MOL0     H29775   0.406   0.396  12.280  1.9473  4.5758 -3.2713
  216MOL0     H29776   0.345   0.591  12.498 -0.4899  0.7171 -1.0521
  216MOL0     H29777   0.501   0.560  12.439  0.6744 -0.1952 -1.7615
  216MOL0     H29778   0.450   0.300  12.502 -1.3486 -1.0425  2.2505
  216MOL0     H29779   0.303   0.363  12.565 -0.5369  0.5484 -0.7792
  216MOL0     H29780   0.577   0.473  12.640 -0.9564  0.7926 -1.6711
  216MOL0     H29781   0.423   0.485  12.732  1.6168  1.1619  0.5682
  216MOL0     H29782   0.598   0.227  12.703 -1.5826 -2.3017 -0.8301
  216MOL0     H29783   0.428   0.231  12.761  0.1531 -0.8038 -0.4010
  216MOL0     H29784   0.612   0.415  12.916  0.0621 -0.7459 -0.3810
  216MOL0     H29785   0.628   0.235  12.945 -1.9301 -3.6128 -1.8274
  216MOL0     H29786   0.408   0.221  12.986 -2.0155  0.8821  0.8663
  216MOL0     H29787   0.374   0.396  12.974  1.5891  1.3153 -0.4670
  216MOL0     H29788   0.200   0.725  12.060 -0.9735  0.7817 -2.0517
  216MOL0     H29789   0.203   0.934  11.900 -0.8536  0.2327  1.6582
  216MOL0     H29790   0.310   1.236  11.708 -0.9772 -0.9494  0.5099
  216MOL0     H29791   0.246   1.444  11.599  3.5438 -0.3252 -0.6099
  216MOL0     H29792   0.683   2.012  11.137  2.0145  0.9742  2.0631
  216MOL0     H29793   0.627   2.046  10.890  0.1301  0.0331 -1.2240
  216MOL0     H29794   0.708   2.165  10.632  0.0213 -1.3574 -0.9255
  216MOL0     H29795   0.667   2.343  10.446  0.4379 -0.1484  1.1324
  216MOL0     H29796   0.395   2.314  10.071  0.9134 -0.4017 -0.5726
  216MOL0     H29797   0.343   2.245  10.235  1.5624 -1.4594 -0.9849
  216MOL0     H29798   0.385   2.527  10.151  0.3058 -0.4782 -0.6236
  216MOL0     H29799   0.364   2.478  10.318  2.6608  2.5190 -1.2211
  216MOL0     H29800   0.177   2.407  10.087 -3.5096 -1.2108  2.6141
  216MOL0     H29801   0.154   2.413  10.262 -0.3675 -1.4559 -0.6620
  216MOL0     H29802   0.218   2.683  10.198  1.6935 -2.3946 -0.9120
  216MOL0     H29803   0.063   2.613  10.257  1.8596 -0.7425  2.4659
  216MOL0     H29804  -0.060   2.667   9.874 -3.1031  0.3920  2.2999
  216MOL0     H29805   0.475   2.037  10.210 -1.2059  0.1605 -0.2723
  216MOL0     H29806   0.444   1.818  10.293  2.4331 -2.5175  0.8637
  216MOL0     H29807   0.539   1.766  10.425  0.6411  0.5052  0.1561
  216MOL0     H29808   0.381   1.852  10.453 -0.3041 -3.3698  0.1848
  217MOL0     O29809   4.001   8.035   0.281  1.0934 -0.1355  0.1097
  217MOL0     C29810   4.100   8.010   0.352  0.7210  0.0782  0.2582
  217MOL0     O29811   4.220   8.077   0.341  0.4166 -0.2781  0.2670
  217MOL0     C29812   4.246   8.159   0.227 -0.8262  0.7488 -1.0865
  217MOL0     C29813   4.192   8.150   0.101  0.0679 -0.1052 -0.1854
  217MOL0     C29814   4.235   8.246   0.002  0.2685  0.8733  0.2269
  217MOL0     C29815   4.334   8.332   0.028 -0.3314  0.6293 -0.0438
  217MOL0     O29816   4.373   8.416  -0.072 -0.2072 -0.0195  0.4697
  217MOL0     C29817   4.432   8.552  -0.039 -0.4883  0.2420 -0.3565
  217MOL0     C29818   4.423   8.644  -0.162  0.1124  0.5153  0.4589
  217MOL0     C29819   4.424   8.788  -0.107  0.4450  0.0383  0.3867
  217MOL0     C29820   4.441   8.905  -0.210  0.4268  0.0445  0.7792
  217MOL0     C29821   4.415   9.044  -0.137 -0.1883 -0.8550 -0.1229
  217MOL0     C29822   4.524   9.072  -0.034 -0.0067 -0.1014 -0.7084
  217MOL0     C29823   4.533   9.221   0.009  0.8732  0.0837  0.9153
  217MOL0     C29824   4.601   9.298  -0.111  0.0683 -0.3362 -0.9085
  217MOL0     N29825   4.745   9.277  -0.103  0.7402 -0.3241  0.0485
  217MOL0     C29826   4.818   9.326   0.006 -0.5370  0.7925 -0.0750
  217MOL0     C29827   4.945   9.298  -0.018  0.1461  0.5650  0.8281
  217MOL0     C29828   5.071   9.305   0.063  0.8515 -0.3237 -0.4840
  217MOL0     C29829   5.037   9.326   0.215  0.1284  0.4301  0.0302
  217MOL0     C29830   5.171   9.283   0.287  0.3037  0.1173 -0.4168
  217MOL0     C29831   5.166   9.314   0.438  0.0458 -0.9359 -0.4047
  217MOL0     O29832   5.272   9.252   0.502  0.4708  0.2622  0.6136
  217MOL0     C29833   5.316   9.303   0.621  0.9789  0.3351 -0.3552
  217MOL0     C29834   5.246   9.406   0.684 -0.5424  0.3999 -0.4460
  217MOL0     C29835   5.285   9.467   0.802  1.0460 -0.1145  0.7378
  217MOL0     C29836   5.214   9.586   0.845 -0.6630 -1.0997  0.0073
  217MOL0     C29837   5.395   9.417   0.874  0.4272  0.0356  0.2652
  217MOL0     C29838   5.451   9.463   1.004 -1.0855  1.1515 -0.7895
  217MOL0     O29839   5.540   9.382   1.072 -0.6453  0.2570 -0.1920
  217MOL0     C29840   5.554   9.406   1.209 -0.3109 -0.3067  0.2028
  217MOL0     C29841   5.458   9.362   1.301  0.5204  0.4323 -0.5756
  217MOL0     C29842   5.461   9.404   1.433  1.3909 -0.7836  0.7453
  217MOL0     C29843   5.570   9.475   1.477 -0.3336 -0.5824 -0.0670
  217MOL0     O29844   5.576   9.508   1.611 -0.0420 -0.3678 -0.1369
  217MOL0     C29845   5.697   9.540   1.672  0.0654  1.1727 -0.4871
  217MOL0     C29846   5.679   9.538   1.822 -0.9413  0.3355  0.0907
  217MOL0     C29847   5.693   9.394   1.894 -1.0994 -0.3335 -0.6378
  217MOL0     C29848   5.644   9.420   2.045 -0.6648  1.0256 -0.7713
  217MOL0     C29849   5.659   9.297   2.126 -0.7215  0.1020  0.1348
  217MOL0     C29850   5.629   9.318   2.271  0.2250  0.4307  0.0634
  217MOL0     C29851   5.583   9.186   2.346  0.6960  0.0460  0.8915
  217MOL0     C29852   5.611   9.180   2.494 -0.0620  0.3767  1.2563
  217MOL0    Cl29853   5.779   9.146   2.505  0.3742  0.3635 -0.3082
  217MOL0     C29854   5.666   9.517   1.385  0.1878  0.3556  0.2045
  217MOL0     C29855   5.665   9.480   1.254  0.8796  0.1251 -0.1056
  217MOL0     O29856   5.405   9.563   1.055  0.3360  0.3857  0.0332
  217MOL0     C29857   5.459   9.305   0.817  0.0178  0.1516 -0.2123
  217MOL0     C29858   5.416   9.257   0.697 -0.5701 -0.4607  0.2652
  217MOL0     N29859   4.945   9.212  -0.134 -0.5034 -0.8191  0.0484
  217MOL0     N29860   4.829   9.214  -0.189 -0.0478 -0.3332  0.0530
  217MOL0     C29861   4.390   8.337   0.155  0.4361  0.2147 -0.4541
  217MOL0     C29862   4.357   8.246   0.258  0.2535  0.1672 -0.1624
  217MOL0     C29863   4.083   7.914   0.480 -0.9959 -0.0820  0.1209
  217MOL0     C29864   3.963   7.846   0.487 -0.1228  0.4276 -0.0870
  217MOL0     C29865   3.926   7.784   0.596 -0.1317 -0.2967 -0.7783
  217MOL0     C29866   4.010   7.753   0.701  0.2069 -0.7540  0.2529
  217MOL0     O29867   3.981   7.652   0.789 -0.0428  0.4845 -0.0186
  217MOL0     C29868   3.858   7.655   0.862  0.4777 -0.3163  0.1923
  217MOL0     C29869   3.855   7.776   0.961 -0.3210 -0.1247  0.4486
  217MOL0     C29870   3.956   7.784   1.073 -0.4176  1.3474 -0.5801
  217MOL0     C29871   3.970   7.930   1.129 -0.3596  0.5114  0.2539
  217MOL0     C29872   4.050   7.937   1.249 -0.2392 -0.5739 -0.4154
  217MOL0     C29873   4.126   7.947   1.347 -0.0178  0.5843 -0.5509
  217MOL0     C29874   4.143   7.801   0.692  0.3322  0.0584  0.4028
  217MOL0     C29875   4.179   7.887   0.592  1.1553  0.1357 -0.2703
  217MOL0     C29876   4.321   7.938   0.592 -0.3714 -0.0938  0.2935
  217MOL0     H29877   4.115   8.075   0.083 -1.0189  0.8618  0.3558
  217MOL0     H29878   4.191   8.253  -0.097 -4.0040  1.6066  1.9855
  217MOL0     H29879   4.539   8.539  -0.019 -0.4907  2.0802  1.0531
  217MOL0     H29880   4.372   8.594   0.042 -2.3748 -3.1170  0.1913
  217MOL0     H29881   4.507   8.620  -0.228 -1.4073  2.4302 -2.3381
  217MOL0     H29882   4.334   8.626  -0.222 -1.6865  0.4507  2.9952
  217MOL0     H29883   4.324   8.800  -0.064 -0.1182  0.4776 -0.9805
  217MOL0     H29884   4.502   8.809  -0.034  0.3904  3.7094 -0.4009
  217MOL0     H29885   4.541   8.899  -0.254  0.6310 -3.7670  1.4491
  217MOL0     H29886   4.378   8.905  -0.299  2.4619 -1.2157 -0.7402
  217MOL0     H29887   4.322   9.036  -0.081 -2.0449 -0.2260 -2.9173
  217MOL0     H29888   4.421   9.117  -0.219 -1.3698  0.0754  0.5885
  217MOL0     H29889   4.503   9.001   0.047  0.8205 -0.5840 -0.9064
  217MOL0     H29890   4.623   9.048  -0.075  0.9890 -1.4005  2.2292
  217MOL0     H29891   4.587   9.232   0.103  0.2759  0.1389  1.2498
  217MOL0     H29892   4.435   9.267   0.021  1.6877  2.4053 -0.5957
  217MOL0     H29893   4.553   9.266  -0.203 -3.4861 -1.5382  1.1440
  217MOL0     H29894   4.576   9.400  -0.077  4.0141  0.0910  1.3716
  217MOL0     H29895   4.790   9.386   0.092  1.3769  0.8209  0.5591
  217MOL0     H29896   5.139   9.388   0.043  1.4145 -0.3988  0.9898
  217MOL0     H29897   5.127   9.212   0.053  1.3649 -0.0624 -0.0471
  217MOL0     H29898   5.008   9.428   0.245  2.9176  0.8833  1.5393
  217MOL0     H29899   4.946   9.272   0.243 -0.3877  0.5361 -1.3636
  217MOL0     H29900   5.194   9.178   0.268  0.8468  0.4945 -2.0639
  217MOL0     H29901   5.261   9.335   0.253  1.7277 -2.7940 -1.4814
  217MOL0     H29902   5.167   9.423   0.447 -1.1639 -0.9615  0.3800
  217MOL0     H29903   5.072   9.279   0.483  1.5331 -2.9853  1.3585
  217MOL0     H29904   5.165   9.462   0.638 -0.0369  1.5478  0.0155
  217MOL0     H29905   5.269   9.669   0.889 -1.7369 -1.0496  1.3264
  217MOL0     H29906   5.154   9.545   0.927  1.6312 -3.4294  0.6561
  217MOL0     H29907   5.144   9.625   0.770 -1.4510 -0.8152  0.8722
  217MOL0     H29908   5.389   9.289   1.259 -2.2030  0.3340  3.4712
  217MOL0     H29909   5.384   9.380   1.505 -1.3503 -4.0434 -2.8596
  217MOL0     H29910   5.777   9.472   1.642 -0.6307 -0.3167  0.9154
  217MOL0     H29911   5.723   9.645   1.655 -0.9896  2.0698  2.7284
  217MOL0     H29912   5.752   9.611   1.857 -0.8172  0.8160 -1.1204
  217MOL0     H29913   5.582   9.585   1.841  0.0943  2.1589  1.0470
  217MOL0     H29914   5.797   9.363   1.887 -1.2374 -1.4083  1.2371
  217MOL0     H29915   5.630   9.315   1.850 -2.5153 -1.1777  2.6170
  217MOL0     H29916   5.537   9.439   2.058 -0.8990 -1.1917  1.3039
  217MOL0     H29917   5.698   9.498   2.098 -0.8033  0.3752  0.3537
  217MOL0     H29918   5.595   9.225   2.074  1.3575 -0.8367 -1.2599
  217MOL0     H29919   5.760   9.255   2.122 -1.2613 -1.9306  3.8060
  217MOL0     H29920   5.560   9.401   2.291  2.2158  1.8710  1.3801
  217MOL0     H29921   5.729   9.341   2.308  0.9429  0.5332 -1.8242
  217MOL0     H29922   5.615   9.102   2.285 -0.2665 -1.1551  1.9654
  217MOL0     H29923   5.474   9.198   2.345  0.5282 -0.6768 -3.0678
  217MOL0     H29924   5.563   9.093   2.540  0.6199  0.1274  1.5041
  217MOL0     H29925   5.586   9.276   2.539 -1.8216  0.3660  0.4000
  217MOL0     H29926   5.754   9.573   1.416 -0.4927  0.3038  2.3811
  217MOL0     H29927   5.734   9.515   1.179 -2.0424  1.8921 -2.1505
  217MOL0     H29928   5.541   9.249   0.860  2.0909  0.9359 -2.8294
  217MOL0     H29929   5.467   9.168   0.662 -0.6238 -0.6816  0.7392
  217MOL0     H29930   4.469   8.408   0.178 -0.4399  1.0780  0.0215
  217MOL0     H29931   4.399   8.250   0.359 -0.8902 -1.8409  0.4374
  217MOL0     H29932   3.887   7.854   0.409  1.1619 -2.2471 -1.7397
  217MOL0     H29933   3.833   7.729   0.589 -0.4622  0.3414 -1.6587
  217MOL0     H29934   3.776   7.659   0.791  2.1656  1.2097 -1.8017
  217MOL0     H29935   3.849   7.563   0.920 -1.1916  0.0174  0.4963
  217MOL0     H29936   3.753   7.773   1.001 -0.1426 -3.7265  1.0332
  217MOL0     H29937   3.858   7.867   0.901 -1.1657 -1.1178 -1.1840
  217MOL0     H29938   3.928   7.705   1.144  1.0947  0.9867 -0.3545
  217MOL0     H29939   4.050   7.750   1.029 -1.0727 -1.4120 -0.0690
  217MOL0     H29940   3.869   7.972   1.140 -0.3240  0.4770  0.7256
  217MOL0     H29941   4.025   7.985   1.052 -2.2177  0.8063 -0.9301
  217MOL0     H29942   4.199   7.944   1.425 -1.7505 -0.0453  1.1109
  217MOL0     H29943   4.217   7.771   0.766 -0.3958 -0.1678  1.0463
  217MOL0     H29944   4.374   7.871   0.523  1.2751  1.7520 -0.3080
  217MOL0     H29945   4.334   8.039   0.554  3.5092 -1.3912 -2.4936
  217MOL0     H29946   4.362   7.937   0.693 -0.2735  4.8649  0.5480
  218MOL0     O29947   2.085   2.213   3.218 -0.3807  0.5760  0.2509
  218MOL0     C29948   2.021   2.290   3.145  0.3117  0.4211 -0.8292
  218MOL0     O29949   2.050   2.420   3.119  0.3554  0.6373 -0.4048
  218MOL0     C29950   2.156   2.472   3.201  0.2549  0.1948 -0.9898
  218MOL0     C29951   2.130   2.549   3.310 -0.8147 -0.0033 -0.5684
  218MOL0     C29952   2.241   2.614   3.370 -0.2711  1.1665 -0.1513
  218MOL0     C29953   2.370   2.598   3.321 -0.5231  0.6732  0.1124
  218MOL0     O29954   2.471   2.678   3.373  0.3219  0.2275  1.2093
  218MOL0     C29955   2.608   2.632   3.374 -0.6332  0.0060  0.0537
  218MOL0     C29956   2.703   2.736   3.450 -0.6866 -0.3571  0.5947
  218MOL0     C29957   2.681   2.879   3.394 -0.0740 -0.1964  1.0558
  218MOL0     C29958   2.796   2.974   3.434  0.4193  1.1000  0.2476
  218MOL0     C29959   2.768   3.052   3.563 -0.4077 -0.1387 -0.6666
  218MOL0     C29960   2.718   3.193   3.545 -1.3369 -1.0591  0.3227
  218MOL0     C29961   2.823   3.280   3.465 -0.3819 -0.0331 -0.3126
  218MOL0     C29962   2.794   3.431   3.453 -0.2934 -0.0447 -0.1023
  218MOL0     N29963   2.872   3.498   3.351 -0.7138  0.2589  0.5370
  218MOL0     C29964   2.830   3.505   3.214 -0.0605 -0.4499 -0.3372
  218MOL0     C29965   2.939   3.559   3.154 -0.3907 -0.6097 -1.4511
  218MOL0     C29966   2.955   3.597   3.008  0.1780  0.7269  0.9947
  218MOL0     C29967   2.833   3.678   2.957  0.3352  0.2980 -0.8061
  218MOL0     C29968   2.878   3.759   2.831  0.6103  0.3126  0.1053
  218MOL0     C29969   2.914   3.673   2.707  0.6756 -0.7431  0.9912
  218MOL0     O29970   2.939   3.766   2.601  0.6125  0.2170  0.2530
  218MOL0     C29971   2.864   3.761   2.486  0.0104  0.4195  0.3024
  218MOL0     C29972   2.738   3.703   2.473 -0.9765 -0.3636 -0.1828
  218MOL0     C29973   2.667   3.709   2.356 -0.7364  0.3149  0.2798
  218MOL0     C29974   2.532   3.641   2.363 -0.4205  0.1182 -1.0014
  218MOL0     C29975   2.732   3.768   2.238  0.5204  0.1091 -0.5200
  218MOL0     C29976   2.665   3.787   2.104 -0.1740 -1.5640 -0.6787
  218MOL0     O29977   2.722   3.876   2.019 -0.3449  0.1516 -0.3728
  218MOL0     C29978   2.674   3.856   1.888  0.3790  0.9577  0.7923
  218MOL0     C29979   2.741   3.779   1.792  0.4473  0.4991 -0.5604
  218MOL0     C29980   2.677   3.741   1.675  0.2875 -0.2516  0.5993
  218MOL0     C29981   2.571   3.826   1.632  0.5080  0.2370 -0.3825
  218MOL0     O29982   2.527   3.849   1.501 -0.3267  0.0974  0.0739
  218MOL0     C29983   2.535   3.741   1.408  0.4316  0.5401  0.5516
  218MOL0     C29984   2.653   3.784   1.308  1.6243 -0.6024  0.1421
  218MOL0     C29985   2.674   3.694   1.188 -0.1181 -0.1124 -0.0750
  218MOL0     C29986   2.816   3.699   1.123 -0.2309 -0.5594 -0.1132
  218MOL0     C29987   2.820   3.596   1.011  0.0925  0.0131 -0.3632
  218MOL0     C29988   2.965   3.566   0.976 -0.1109 -0.2964  0.1729
  218MOL0     C29989   2.985   3.444   0.885 -0.1505 -0.6242 -0.2272
  218MOL0     C29990   2.918   3.446   0.754  0.3816 -0.0888  0.8341
  218MOL0    Cl29991   2.968   3.583   0.659  0.0045  0.5916  0.4579
  218MOL0     C29992   2.499   3.903   1.728  0.4107 -0.0275  0.4137
  218MOL0     C29993   2.551   3.915   1.857  0.9377 -0.4655  0.3973
  218MOL0     O29994   2.575   3.706   2.069 -0.0913  0.7212  0.8214
  218MOL0     C29995   2.858   3.825   2.252 -0.2588 -0.0179 -0.3149
  218MOL0     C29996   2.928   3.821   2.376 -1.0653  1.1292 -0.9747
  218MOL0     N29997   3.031   3.587   3.258 -0.2962  0.2621  0.0948
  218MOL0     N29998   3.002   3.541   3.375  0.2198 -0.3122  0.0749
  218MOL0     C29999   2.396   2.513   3.211 -1.0032 -0.0021 -0.2266
  218MOL0     C30000   2.290   2.439   3.169  0.2403  0.4864  0.2849
  218MOL0     C30001   1.886   2.250   3.114 -0.6649  0.0645  0.4126
  218MOL0     C30002   1.788   2.353   3.115 -0.6198  0.2292 -0.8178
  218MOL0     C30003   1.655   2.324   3.102  0.1351  0.4408 -0.6736
  218MOL0     C30004   1.609   2.191   3.090 -0.1334 -0.3714 -0.6958
  218MOL0     O30005   1.483   2.138   3.075  0.3560 -0.5327 -0.9870
  218MOL0     C30006   1.377   2.228   3.063 -1.3343 -0.3515 -0.6015
  218MOL0     C30007   1.246   2.159   3.019  0.1973 -0.1608 -0.1319
  218MOL0     C30008   1.223   2.149   2.876  0.1679 -0.5925 -0.0571
  218MOL0     C30009   1.086   2.084   2.840 -0.5053  0.1144  0.0721
  218MOL0     C30010   0.968   2.168   2.839 -0.1129  0.1363  0.2599
  218MOL0     C30011   0.869   2.241   2.820  0.3066 -0.7193 -0.7913
  218MOL0     C30012   1.706   2.091   3.080  0.2086  0.5312  0.7706
  218MOL0     C30013   1.846   2.118   3.107  0.6591  0.2422 -0.1101
  218MOL0     C30014   1.941   2.007   3.108  0.5070 -0.0834 -0.1305
  218MOL0     H30015   2.025   2.558   3.337 -0.6854  0.2514 -0.1379
  218MOL0     H30016   2.229   2.680   3.455 -0.6552  0.6622  0.1936
  218MOL0     H30017   2.638   2.612   3.270 -1.7009  0.4570 -0.3581
  218MOL0     H30018   2.619   2.542   3.435  0.4303  3.0736  4.9529
  218MOL0     H30019   2.676   2.736   3.556  0.4236  0.3812  0.8976
  218MOL0     H30020   2.810   2.716   3.442 -0.1884  1.2634  2.4077
  218MOL0     H30021   2.662   2.884   3.287  0.8969 -0.6166  0.8497
  218MOL0     H30022   2.591   2.918   3.443  0.3349  0.4635  1.3024
  218MOL0     H30023   2.889   2.921   3.458  1.3239  2.6874  0.4198
  218MOL0     H30024   2.812   3.037   3.346 -0.5963  0.0103 -0.7423
  218MOL0     H30025   2.850   3.048   3.635 -2.2441  2.9397  1.8744
  218MOL0     H30026   2.693   2.994   3.618 -1.6841 -0.0067 -2.1873
  218MOL0     H30027   2.628   3.176   3.485 -1.6443  0.0548  0.4477
  218MOL0     H30028   2.695   3.237   3.642  2.0330 -0.4044  0.9425
  218MOL0     H30029   2.835   3.231   3.368 -0.8684 -0.8826  0.0358
  218MOL0     H30030   2.915   3.277   3.524 -0.5573 -0.7060 -0.0558
  218MOL0     H30031   2.689   3.440   3.424 -0.3269 -0.3221 -0.0690
  218MOL0     H30032   2.800   3.477   3.552  2.0091 -0.0140 -0.2095
  218MOL0     H30033   2.734   3.483   3.170 -0.2587  1.0589 -0.7154
  218MOL0     H30034   2.958   3.505   2.948 -1.7848  0.3400  1.4158
  218MOL0     H30035   3.047   3.654   2.993  0.3567  0.4733  1.1188
  218MOL0     H30036   2.744   3.615   2.944  0.9422 -1.1565  1.4262
  218MOL0     H30037   2.804   3.753   3.031 -4.3840 -2.6692  0.8246
  218MOL0     H30038   2.797   3.829   2.810 -2.3432 -2.1736  2.3317
  218MOL0     H30039   2.968   3.810   2.868  0.1334 -0.2560  2.1896
  218MOL0     H30040   3.009   3.622   2.726 -0.5163 -4.1969 -1.2492
  218MOL0     H30041   2.844   3.589   2.691 -1.5773  0.9251  1.5815
  218MOL0     H30042   2.694   3.644   2.553 -2.7140 -1.6699 -1.9732
  218MOL0     H30043   2.548   3.538   2.396  1.5137 -0.0773 -2.3422
  218MOL0     H30044   2.485   3.634   2.264 -2.4772  4.1514 -0.5042
  218MOL0     H30045   2.459   3.679   2.435  0.5817  1.1813 -0.5180
  218MOL0     H30046   2.841   3.748   1.821  0.0883  0.4704  0.6914
  218MOL0     H30047   2.726   3.667   1.613 -0.6010 -0.5220  0.1956
  218MOL0     H30048   2.551   3.644   1.456 -0.4383  0.6448  1.0696
  218MOL0     H30049   2.438   3.724   1.362 -0.6757 -1.7477  3.4471
  218MOL0     H30050   2.623   3.878   1.261  0.9156 -0.7574  0.2765
  218MOL0     H30051   2.748   3.793   1.361  1.0892  0.3363  0.9714
  218MOL0     H30052   2.586   3.711   1.125 -1.8732  0.6482  2.4203
  218MOL0     H30053   2.664   3.589   1.217  2.5061 -1.1041 -2.2431
  218MOL0     H30054   2.891   3.664   1.195  0.0673 -1.1469 -0.6883
  218MOL0     H30055   2.847   3.800   1.096  2.7753 -1.7734 -1.6721
  218MOL0     H30056   2.766   3.503   1.031 -1.3542  0.9436  0.1808
  218MOL0     H30057   2.776   3.634   0.918  2.8926 -0.9263 -2.2023
  218MOL0     H30058   3.017   3.551   1.071 -2.8476  0.3905  1.8712
  218MOL0     H30059   3.011   3.651   0.924  0.1130 -1.7718 -2.2057
  218MOL0     H30060   2.947   3.361   0.946 -1.0705 -0.6954 -0.8820
  218MOL0     H30061   3.092   3.427   0.874  0.0350  0.6177 -0.4598
  218MOL0     H30062   2.813   3.447   0.784 -0.3256 -3.3744 -0.9719
  218MOL0     H30063   2.920   3.350   0.701 -1.1147  0.1011  0.4017
  218MOL0     H30064   2.410   3.957   1.696  0.8000 -0.1699 -0.9975
  218MOL0     H30065   2.496   3.966   1.935  1.9504 -0.5589  1.1868
  218MOL0     H30066   2.907   3.874   2.168  0.8224 -0.2410  0.1680
  218MOL0     H30067   3.023   3.866   2.403 -0.3000 -1.6158  1.4728
  218MOL0     H30068   2.497   2.502   3.171 -0.6220  3.1968 -0.4287
  218MOL0     H30069   2.306   2.376   3.082 -1.4654  1.9815 -1.2014
  218MOL0     H30070   1.818   2.457   3.114  0.0780  0.1371  1.8958
  218MOL0     H30071   1.577   2.400   3.105 -0.3902 -0.0605 -1.1855
  218MOL0     H30072   1.364   2.253   3.169  1.4045 -3.9234  0.7873
  218MOL0     H30073   1.402   2.318   3.006 -1.7890  1.5958  2.0937
  218MOL0     H30074   1.168   2.226   3.055 -0.4058 -1.6458  1.4908
  218MOL0     H30075   1.228   2.068   3.076  0.6818 -0.0193  0.2521
  218MOL0     H30076   1.212   2.246   2.828  2.8557 -0.8094 -1.2516
  218MOL0     H30077   1.310   2.092   2.842  0.3454  0.0863 -0.7590
  218MOL0     H30078   1.064   2.019   2.925  0.0937  1.6207  1.4220
  218MOL0     H30079   1.097   2.028   2.746  1.6610 -0.3382  0.5397
  218MOL0     H30080   0.787   2.305   2.793 -1.4270 -0.9566  3.1787
  218MOL0     H30081   1.682   1.985   3.079  3.2887 -0.2485 -0.9146
  218MOL0     H30082   2.019   2.021   3.032 -0.4717  1.7577 -0.8655
  218MOL0     H30083   1.981   1.981   3.206  0.4216 -3.8430 -0.9339
  218MOL0     H30084   1.890   1.917   3.071  0.6973  0.2188 -1.1788
  219MOL0     O30085  10.090   3.592   2.839 -0.2285  0.6713  0.3700
  219MOL0     C30086   9.995   3.633   2.913 -0.7723 -0.3200 -2.5356
  219MOL0     O30087   9.972   3.586   3.046  0.6533  0.6554  0.5749
  219MOL0     C30088  10.065   3.495   3.090  0.1891 -1.1007  0.1880
  219MOL0     C30089  10.061   3.367   3.035  0.4686 -0.6006  0.1738
  219MOL0     C30090  10.166   3.274   3.066  0.4424 -0.1484 -0.1632
  219MOL0     C30091  10.281   3.310   3.143  0.1096  0.2804 -0.5293
  219MOL0     O30092  10.381   3.219   3.151  0.8100 -0.4013  0.4095
  219MOL0     C30093  10.510   3.268   3.149 -0.8417 -0.1421  0.2458
  219MOL0     C30094  10.610   3.190   3.049 -0.0330 -0.0873  0.0260
  219MOL0     C30095  10.615   3.211   2.896  0.3794  0.4318 -0.0960
  219MOL0     C30096  10.481   3.196   2.830  1.1331 -0.6979  0.2058
  219MOL0     C30097  10.489   3.240   2.675 -0.1397 -0.3640 -0.8059
  219MOL0     C30098  10.357   3.239   2.596  0.0407  0.1895 -0.8434
  219MOL0     C30099  10.283   3.370   2.616  0.5149 -1.0319 -0.1465
  219MOL0     C30100  10.344   3.508   2.614  0.1344  0.7706 -0.2587
  219MOL0     N30101  10.390   3.557   2.485  0.3546 -0.4386  0.0606
  219MOL0     C30102  10.520   3.548   2.440 -0.0197 -0.5337 -0.3635
  219MOL0     C30103  10.527   3.628   2.336  0.5149 -0.5937 -0.8435
  219MOL0     C30104  10.643   3.631   2.237  0.2109 -0.1177  0.3076
  219MOL0     C30105  10.786   3.668   2.298 -0.2987  0.4000  0.0805
  219MOL0     C30106  10.902   3.609   2.207 -0.2984 -0.5512  0.4403
  219MOL0     C30107  10.917   3.689   2.074  0.1183 -0.4807  0.2410
  219MOL0     O30108  11.013   3.644   1.983  0.5834  0.1517 -0.7237
  219MOL0     C30109  11.054   3.517   1.998  0.7680  0.3180  0.5234
  219MOL0     C30110  11.175   3.490   2.041 -0.3185 -0.6512  0.1986
  219MOL0     C30111  11.239   3.369   2.059 -0.1351  0.2036 -0.4159
  219MOL0     C30112  11.383   3.364   2.124 -0.0636 -0.6486 -1.2724
  219MOL0     C30113  11.160   3.257   2.010 -0.8670 -0.1435  0.0742
  219MOL0     C30114  11.216   3.129   2.020  0.0059  1.2574  1.1124
  219MOL0     O30115  11.277   3.089   1.908  0.0301 -0.1117  0.2134
  219MOL0     C30116  11.360   2.975   1.895 -0.7449  0.6003 -0.7288
  219MOL0     C30117  11.414   2.905   2.004 -0.2410  0.1544  0.1603
  219MOL0     C30118  11.501   2.797   1.973 -0.8479  0.5379  0.5861
  219MOL0     C30119  11.550   2.767   1.844 -0.2977 -0.6436  0.3035
  219MOL0     O30120  11.646   2.673   1.817 -0.2150  0.4182  0.4202
  219MOL0     C30121  11.761   2.667   1.903  0.4468 -0.0375  0.0081
  219MOL0     C30122  11.854   2.553   1.858  0.5119  0.0131 -0.3504
  219MOL0     C30123  11.778   2.421   1.877 -1.2363 -0.4970 -0.0207
  219MOL0     C30124  11.874   2.318   1.924  0.0999 -0.3514  0.2686
  219MOL0     C30125  11.844   2.175   1.907  0.0438  0.1861  0.9544
  219MOL0     C30126  11.786   2.100   2.021  1.0475  0.4031 -0.2717
  219MOL0     C30127  11.642   2.156   2.046  1.1513  0.0385  0.1064
  219MOL0     C30128  11.565   2.057   2.135 -0.2922 -1.0852  0.3007
  219MOL0    Cl30129  11.536   1.900   2.043 -0.2825 -0.3095 -0.0088
  219MOL0     C30130  11.501   2.843   1.739  0.3250 -0.9953  0.0798
  219MOL0     C30131  11.406   2.945   1.763  0.5721 -0.3050  0.3792
  219MOL0     O30132  11.208   3.080   2.132  0.2754 -0.0545 -0.1220
  219MOL0     C30133  11.035   3.283   1.961 -0.0171 -0.6891 -0.5217
  219MOL0     C30134  10.983   3.406   1.978  0.0553  0.6411 -0.0193
  219MOL0     N30135  10.404   3.691   2.323  0.5936 -0.3089  0.1141
  219MOL0     N30136  10.320   3.640   2.407 -0.6833  0.3341 -0.4923
  219MOL0     C30137  10.267   3.442   3.208 -0.5107 -1.0382  0.0986
  219MOL0     C30138  10.163   3.537   3.175 -1.0145  0.8437  0.1048
  219MOL0     C30139   9.903   3.730   2.849 -0.6351 -0.1132  0.8708
  219MOL0     C30140   9.903   3.736   2.710  0.1426  1.3430  0.8522
  219MOL0     C30141   9.812   3.808   2.636 -0.6127 -0.3040 -0.2596
  219MOL0     C30142   9.709   3.875   2.703  0.4763 -0.1621 -0.7700
  219MOL0     O30143   9.641   3.955   2.617 -0.0090 -1.0501 -0.1427
  219MOL0     C30144   9.548   4.040   2.691  0.5944  1.5943  0.7952
  219MOL0     C30145   9.479   4.121   2.580  0.1768 -0.0565  0.4412
  219MOL0     C30146   9.408   4.257   2.622 -0.1402 -0.0290  0.4403
  219MOL0     C30147   9.366   4.332   2.495  0.5241 -0.9500  0.2508
  219MOL0     C30148   9.285   4.450   2.528 -0.5918  0.5986  0.1601
  219MOL0     C30149   9.217   4.544   2.562  0.0539  0.2615  0.0824
  219MOL0     C30150   9.710   3.878   2.841 -0.0771 -0.1717  0.0015
  219MOL0     C30151   9.816   3.813   2.921  0.3663  0.1933  1.2899
  219MOL0     C30152   9.807   3.809   3.073  0.5880  0.0478  0.4472
  219MOL0     H30153   9.991   3.341   2.957  0.6602 -0.2327 -0.1236
  219MOL0     H30154  10.159   3.182   3.009 -0.4351 -0.1859 -0.0042
  219MOL0     H30155  10.558   3.261   3.247 -1.7443  0.7447  0.7720
  219MOL0     H30156  10.513   3.371   3.114 -2.2978 -0.8036 -2.0694
  219MOL0     H30157  10.712   3.203   3.087 -0.5048  1.7258  0.7894
  219MOL0     H30158  10.598   3.082   3.061 -1.0886  0.0037 -0.1307
  219MOL0     H30159  10.654   3.312   2.879  0.0796  0.1943 -2.4927
  219MOL0     H30160  10.692   3.146   2.854 -1.1389 -2.2757  1.0995
  219MOL0     H30161  10.452   3.093   2.851  2.0619 -0.5718  2.3715
  219MOL0     H30162  10.401   3.250   2.881 -0.5016 -2.0406 -0.8666
  219MOL0     H30163  10.548   3.159   2.631  0.5355 -0.5697  0.4501
  219MOL0     H30164  10.550   3.330   2.665 -0.7201  0.2744  1.0524
  219MOL0     H30165  10.390   3.225   2.492  0.0037 -0.5010 -0.7657
  219MOL0     H30166  10.293   3.158   2.633  0.4503  1.0501  1.9331
  219MOL0     H30167  10.240   3.365   2.716 -0.7903 -2.2563 -0.7358
  219MOL0     H30168  10.194   3.375   2.554  0.4233  0.5652  0.0721
  219MOL0     H30169  10.260   3.574   2.642 -0.8943 -0.1130 -1.1430
  219MOL0     H30170  10.421   3.514   2.691  0.4119  0.2946 -0.4973
  219MOL0     H30171  10.607   3.498   2.480  1.1315 -1.6670 -3.8881
  219MOL0     H30172  10.616   3.705   2.161 -0.9167  0.6577  1.4253
  219MOL0     H30173  10.655   3.527   2.206  3.5401 -0.4188  2.1306
  219MOL0     H30174  10.802   3.774   2.322 -1.6892  1.0317 -1.5401
  219MOL0     H30175  10.780   3.622   2.397  1.1168  2.6410  1.2850
  219MOL0     H30176  11.000   3.620   2.254 -1.4041  3.7980  2.1898
  219MOL0     H30177  10.890   3.500   2.201 -0.5245 -0.6297  1.8721
  219MOL0     H30178  10.822   3.710   2.025 -1.6916 -0.0010  3.6130
  219MOL0     H30179  10.953   3.789   2.099 -1.4425 -0.0170  0.7967
  219MOL0     H30180  11.226   3.584   2.057 -5.9311  2.9289 -0.2260
  219MOL0     H30181  11.392   3.445   2.196  1.6078 -1.5215 -0.4208
  219MOL0     H30182  11.464   3.381   2.052  0.2506 -0.9334 -0.9937
  219MOL0     H30183  11.403   3.271   2.178 -2.2357  0.5308  1.8182
  219MOL0     H30184  11.393   2.935   2.106  0.3384  1.7117 -0.1451
  219MOL0     H30185  11.554   2.746   2.053  1.4418  1.5807 -0.1868
  219MOL0     H30186  11.817   2.761   1.898  1.2972 -0.2995  2.7511
  219MOL0     H30187  11.727   2.650   2.005 -1.3287 -0.1264 -0.5666
  219MOL0     H30188  11.879   2.570   1.753  0.0649 -0.8655 -0.6085
  219MOL0     H30189  11.947   2.553   1.916  0.3930 -0.0499 -0.1611
  219MOL0     H30190  11.723   2.384   1.790 -0.3182  2.2276 -1.8823
  219MOL0     H30191  11.705   2.442   1.956 -1.4255  0.7552 -0.5225
  219MOL0     H30192  11.887   2.319   2.033  5.2500 -0.3527 -0.0906
  219MOL0     H30193  11.971   2.335   1.876 -1.2515  1.2328 -2.1246
  219MOL0     H30194  11.783   2.163   1.817 -3.1893  1.0397  2.8573
  219MOL0     H30195  11.938   2.124   1.885  0.3515  1.2539 -0.3663
  219MOL0     H30196  11.851   2.116   2.108 -1.3912  0.6335  1.6030
  219MOL0     H30197  11.779   1.993   1.996 -0.7980 -0.0294  1.8138
  219MOL0     H30198  11.591   2.170   1.951  2.0190  0.0641 -0.3676
  219MOL0     H30199  11.647   2.257   2.087  1.3208  0.9837 -2.1388
  219MOL0     H30200  11.467   2.100   2.159  1.3543  2.5252  1.1072
  219MOL0     H30201  11.610   2.036   2.232 -0.0002 -1.2268  0.1336
  219MOL0     H30202  11.530   2.836   1.635  0.6780  0.3434  0.0766
  219MOL0     H30203  11.388   3.002   1.672 -0.8974 -1.8569 -0.3509
  219MOL0     H30204  10.979   3.199   1.922  0.4333 -0.7658 -1.0157
  219MOL0     H30205  10.881   3.414   1.939 -1.0735  2.1491  2.9750
  219MOL0     H30206  10.338   3.468   3.286 -2.4184  2.2009  0.9285
  219MOL0     H30207  10.161   3.635   3.221 -0.3259  0.8986  0.0158
  219MOL0     H30208   9.979   3.681   2.656 -0.8071  0.0078  0.8448
  219MOL0     H30209   9.832   3.828   2.531  3.9983 -1.6691  0.1549
  219MOL0     H30210   9.486   3.979   2.757 -0.8566  1.7752 -0.3426
  219MOL0     H30211   9.590   4.124   2.746 -1.0649  1.5750  2.1756
  219MOL0     H30212   9.412   4.064   2.516  1.2372  0.2754 -1.0070
  219MOL0     H30213   9.566   4.157   2.524  2.1962  0.4025  3.5823
  219MOL0     H30214   9.314   4.233   2.673 -0.1341 -2.0102 -0.3904
  219MOL0     H30215   9.469   4.320   2.686 -4.3480  1.2663  3.6295
  219MOL0     H30216   9.313   4.267   2.424 -0.6383  0.4100 -0.1728
  219MOL0     H30217   9.449   4.373   2.436  0.0396  0.5263  0.5504
  219MOL0     H30218   9.139   4.608   2.597 -1.2511 -1.2864  0.1320
  219MOL0     H30219   9.622   3.910   2.897 -0.2263 -3.3042  1.7953
  219MOL0     H30220   9.758   3.713   3.093  0.0258  0.2264 -0.0317
  219MOL0     H30221   9.903   3.819   3.125  0.0872  0.7554  1.2718
  219MOL0     H30222   9.735   3.888   3.097 -2.5592 -1.6177 -2.6903
  220MOL0     O30223   7.565   8.594   2.761 -0.6021  0.4416  0.6769
  220MOL0     C30224   7.576   8.572   2.636  1.2773  0.0282  0.3985
  220MOL0     O30225   7.491   8.492   2.571  0.6434 -0.7454  0.2987
  220MOL0     C30226   7.362   8.464   2.612  1.0645  0.0988 -0.0982
  220MOL0     C30227   7.292   8.388   2.517  0.2047  0.3071 -0.3037
  220MOL0     C30228   7.162   8.343   2.539  0.1167 -0.2191 -0.7459
  220MOL0     C30229   7.093   8.395   2.648  0.9967  0.5627  0.1424
  220MOL0     O30230   6.967   8.370   2.690 -0.6101  0.2246  0.0336
  220MOL0     C30231   6.851   8.351   2.596  0.9036 -0.6776 -0.6216
  220MOL0     C30232   6.728   8.421   2.651  1.1390  0.1190  0.2106
  220MOL0     C30233   6.716   8.391   2.799 -0.0568  1.3882 -0.1691
  220MOL0     C30234   6.714   8.240   2.843  0.0800 -0.2718  0.4574
  220MOL0     C30235   6.738   8.215   2.993 -0.0166 -0.0151 -0.2548
  220MOL0     C30236   6.712   8.069   3.024 -0.1100 -0.3921  0.4071
  220MOL0     C30237   6.568   8.039   3.049 -0.2678  0.6974  0.0741
  220MOL0     C30238   6.566   7.891   3.093  0.4147  0.0816 -0.0214
  220MOL0     N30239   6.434   7.844   3.117 -0.8285 -0.5989  0.2581
  220MOL0     C30240   6.350   7.800   3.016  0.1930 -0.5595  0.8777
  220MOL0     C30241   6.229   7.826   3.071  0.4412  0.3016 -0.0558
  220MOL0     C30242   6.095   7.810   3.003  0.1415 -0.0052  0.1618
  220MOL0     C30243   6.086   7.718   2.882 -1.6462 -0.0972  0.0972
  220MOL0     C30244   5.949   7.721   2.816  0.0953  1.1964  0.2720
  220MOL0     C30245   5.930   7.615   2.703 -1.5005 -0.1251 -0.0246
  220MOL0     O30246   5.799   7.572   2.675 -0.1450 -0.2287  0.4451
  220MOL0     C30247   5.750   7.458   2.739 -0.4071 -0.4472  0.6379
  220MOL0     C30248   5.807   7.386   2.842 -0.4358 -0.1825 -0.1222
  220MOL0     C30249   5.745   7.270   2.882  0.1944  0.0690 -0.2362
  220MOL0     C30250   5.830   7.188   2.982 -0.0667 -0.4584  0.0837
  220MOL0     C30251   5.622   7.225   2.824 -0.5262 -0.4828 -0.1115
  220MOL0     C30252   5.551   7.090   2.845 -1.0909 -0.0582  0.4486
  220MOL0     O30253   5.606   6.997   2.929  0.2564  0.5129 -0.2335
  220MOL0     C30254   5.535   6.883   2.975  0.7831 -0.2084 -0.7417
  220MOL0     C30255   5.516   6.769   2.898  0.2601 -0.1106  0.2712
  220MOL0     C30256   5.459   6.653   2.960 -0.5894 -0.9106  0.3299
  220MOL0     C30257   5.390   6.665   3.079 -0.9971  0.0118 -0.7747
  220MOL0     O30258   5.341   6.545   3.130 -0.3965 -0.7364 -0.1284
  220MOL0     C30259   5.204   6.548   3.155 -1.0268  0.2821 -0.0211
  220MOL0     C30260   5.153   6.409   3.218 -0.1570 -0.1807 -0.8508
  220MOL0     C30261   5.150   6.286   3.127 -0.3553  0.4570  0.4185
  220MOL0     C30262   5.083   6.165   3.189  0.1585  0.1725  0.0344
  220MOL0     C30263   5.049   6.053   3.083 -0.4027 -0.3185 -0.3501
  220MOL0     C30264   5.178   5.990   3.036  0.7806 -0.1728  0.5251
  220MOL0     C30265   5.152   5.859   2.962  0.6153  0.2991  1.4613
  220MOL0     C30266   5.281   5.793   2.892  0.8792 -0.1504 -0.0265
  220MOL0    Cl30267   5.269   5.616   2.861 -0.0581 -0.3317  0.3097
  220MOL0     C30268   5.396   6.781   3.156  0.2652  0.3841 -0.7813
  220MOL0     C30269   5.475   6.891   3.108  0.6685 -0.3260 -0.1044
  220MOL0     O30270   5.436   7.078   2.798  0.1575  0.0707 -0.1381
  220MOL0     C30271   5.555   7.312   2.733 -0.0774 -0.2895 -1.1117
  220MOL0     C30272   5.616   7.434   2.697 -0.7562 -0.4214 -0.0472
  220MOL0     N30273   6.236   7.880   3.195 -0.7260 -0.0701  0.0105
  220MOL0     N30274   6.359   7.875   3.227 -0.2030 -0.2732  0.2225
  220MOL0     C30275   7.159   8.468   2.750  0.2801 -0.7914  0.7178
  220MOL0     C30276   7.294   8.501   2.728  0.2161  0.0118 -0.2830
  220MOL0     C30277   7.677   8.639   2.551  1.0502 -0.1590 -0.6624
  220MOL0     C30278   7.640   8.702   2.431 -0.4565 -0.5233  0.6182
  220MOL0     C30279   7.736   8.766   2.355 -0.5435  0.0014  0.6995
  220MOL0     C30280   7.873   8.757   2.380  0.1453  0.6407 -0.9403
  220MOL0     O30281   7.959   8.816   2.295 -0.0661  0.2379  0.7152
  220MOL0     C30282   7.995   8.735   2.187  0.0168  0.2208  0.3223
  220MOL0     C30283   8.098   8.625   2.236  0.0416  0.4056  0.4297
  220MOL0     C30284   8.235   8.695   2.260  0.0091  0.4527  0.4978
  220MOL0     C30285   8.355   8.603   2.279  0.5735 -0.5129 -0.1724
  220MOL0     C30286   8.479   8.646   2.220  1.2928  0.0458 -0.3325
  220MOL0     C30287   8.563   8.695   2.159 -0.7458 -0.0387  0.3594
  220MOL0     C30288   7.907   8.682   2.494  0.6030  0.0903  0.7161
  220MOL0     C30289   7.814   8.634   2.587  0.4162  0.0972 -0.1616
  220MOL0     C30290   7.875   8.580   2.720 -0.3753 -0.6950  0.6057
  220MOL0     H30291   7.343   8.355   2.427  0.3497  0.3849 -0.2514
  220MOL0     H30292   7.113   8.273   2.472  0.6379 -1.6740  0.3659
  220MOL0     H30293   6.841   8.244   2.581 -1.4091 -1.0524  2.6275
  220MOL0     H30294   6.859   8.413   2.506 -0.8115  1.7017  0.7407
  220MOL0     H30295   6.725   8.529   2.632 -0.1312 -0.2705 -2.2105
  220MOL0     H30296   6.657   8.378   2.580  0.6688 -1.0073  1.3224
  220MOL0     H30297   6.782   8.449   2.864 -2.5254  1.3432  2.6225
  220MOL0     H30298   6.610   8.417   2.814 -0.2446  0.4881  0.1359
  220MOL0     H30299   6.615   8.201   2.816  0.3919 -0.6052 -0.2335
  220MOL0     H30300   6.798   8.187   2.799  0.2562 -1.0035  1.6348
  220MOL0     H30301   6.674   8.269   3.063  1.3653  1.5372 -0.1014
  220MOL0     H30302   6.843   8.239   3.011 -0.9276  3.8616  1.0276
  220MOL0     H30303   6.745   8.020   2.932  0.0429  1.5672 -0.6456
  220MOL0     H30304   6.781   8.044   3.105 -0.5791 -1.7438  0.4139
  220MOL0     H30305   6.520   8.061   2.953 -1.8928 -2.5666 -0.0075
  220MOL0     H30306   6.524   8.103   3.125  0.4213  1.5884 -0.2617
  220MOL0     H30307   6.625   7.820   3.033  0.4775  0.5193 -0.4834
  220MOL0     H30308   6.608   7.885   3.194  1.2329 -0.2452 -0.3683
  220MOL0     H30309   6.378   7.765   2.918 -0.7589  1.0416 -0.0011
  220MOL0     H30310   6.071   7.910   2.968  0.3102 -0.4537 -1.2946
  220MOL0     H30311   6.024   7.780   3.081 -0.4901  1.3600  0.1416
  220MOL0     H30312   6.171   7.731   2.816 -2.7866 -0.5754 -1.5434
  220MOL0     H30313   6.091   7.620   2.931 -2.7109 -0.9599 -1.4068
  220MOL0     H30314   5.864   7.710   2.883 -1.6837 -0.1706 -2.0376
  220MOL0     H30315   5.944   7.822   2.773  0.6572  0.4397 -1.6664
  220MOL0     H30316   5.986   7.664   2.623  0.8463 -0.5301  1.2738
  220MOL0     H30317   6.000   7.536   2.735  1.4339  2.9652  1.8759
  220MOL0     H30318   5.904   7.406   2.887  0.3444 -1.7022 -1.0251
  220MOL0     H30319   5.846   7.092   2.933 -1.7611 -0.6910 -0.0678
  220MOL0     H30320   5.761   7.185   3.067 -0.7891  3.3277 -0.1739
  220MOL0     H30321   5.920   7.231   3.027 -1.2406  0.9883  1.1653
  220MOL0     H30322   5.562   6.751   2.801  0.0953 -4.1190  0.7521
  220MOL0     H30323   5.457   6.550   2.927 -1.8743 -0.4818 -1.0980
  220MOL0     H30324   5.189   6.632   3.223  2.4950  0.6560  0.4767
  220MOL0     H30325   5.153   6.560   3.059 -1.0229  1.3210  0.0933
  220MOL0     H30326   5.212   6.389   3.308 -1.4040  0.2118  0.0775
  220MOL0     H30327   5.056   6.431   3.263  0.0624 -0.1101 -0.4039
  220MOL0     H30328   5.249   6.247   3.100 -0.6284 -0.1752  0.3022
  220MOL0     H30329   5.111   6.310   3.028  1.5836  2.1239 -0.0068
  220MOL0     H30330   4.997   6.191   3.251 -0.0312 -1.5293  0.5279
  220MOL0     H30331   5.161   6.133   3.259 -2.2025  0.2399  2.8768
  220MOL0     H30332   4.993   5.978   3.139 -3.5877 -0.4205 -3.3108
  220MOL0     H30333   4.986   6.092   3.003  1.3147  2.7029 -0.3998
  220MOL0     H30334   5.245   5.962   3.118 -0.0682 -2.6449  0.4575
  220MOL0     H30335   5.230   6.059   2.968 -1.1357 -1.3249 -2.3053
  220MOL0     H30336   5.077   5.874   2.883  2.5394  0.8631 -0.3619
  220MOL0     H30337   5.105   5.795   3.037 -2.5823  0.5864 -0.1158
  220MOL0     H30338   5.363   5.813   2.961  1.8629  0.8498 -1.4266
  220MOL0     H30339   5.293   5.844   2.796  0.0127 -3.4069 -1.9958
  220MOL0     H30340   5.345   6.793   3.251  0.8914 -2.2696 -0.0100
  220MOL0     H30341   5.485   6.986   3.159  1.3344 -1.7601  2.6213
  220MOL0     H30342   5.455   7.297   2.692 -0.8877 -2.3915  1.3580
  220MOL0     H30343   5.570   7.500   2.624  1.0680  0.2062 -0.6811
  220MOL0     H30344   7.106   8.518   2.831 -5.0584 -0.9420 -2.2631
  220MOL0     H30345   7.341   8.550   2.812  0.8525 -1.2434  0.1164
  220MOL0     H30346   7.538   8.719   2.398  0.9821  0.3850 -4.1973
  220MOL0     H30347   7.705   8.814   2.263  0.4529  0.6408  0.6901
  220MOL0     H30348   7.904   8.694   2.142  0.1516 -0.6343  0.8026
  220MOL0     H30349   8.044   8.787   2.104  3.9728  0.2411  2.3839
  220MOL0     H30350   8.109   8.549   2.158  1.0471  1.3697 -0.3913
  220MOL0     H30351   8.060   8.587   2.332 -4.6746  2.2943 -0.4123
  220MOL0     H30352   8.260   8.763   2.177 -1.6169  0.6511  0.1351
  220MOL0     H30353   8.225   8.755   2.350 -2.5317  2.4184 -0.9352
  220MOL0     H30354   8.339   8.509   2.225 -0.8756 -0.1774 -0.3605
  220MOL0     H30355   8.370   8.594   2.387 -1.7736 -1.8813  0.1170
  220MOL0     H30356   8.637   8.733   2.093 -1.1502  0.8019  0.3670
  220MOL0     H30357   8.014   8.682   2.512  1.2071 -0.4955 -2.3649
  220MOL0     H30358   7.823   8.495   2.766  0.6232 -0.5050  2.1556
  220MOL0     H30359   7.979   8.553   2.700 -0.0189  0.6443  0.5470
  220MOL0     H30360   7.879   8.658   2.797  1.0913  0.7159 -0.8196
  221MOL0     O30361   2.847   6.306   4.306 -0.7877  0.3249 -0.2063
  221MOL0     C30362   2.808   6.229   4.218  0.2694  0.6116 -0.0416
  221MOL0     O30363   2.826   6.092   4.229 -0.1362  0.5500 -0.5350
  221MOL0     C30364   2.920   6.057   4.330  0.0358  0.5661  1.7178
  221MOL0     C30365   3.056   6.056   4.298  0.8066  0.2093 -1.1194
  221MOL0     C30366   3.155   6.009   4.386 -0.1043 -0.8110 -0.0534
  221MOL0     C30367   3.110   5.958   4.508 -0.5802 -0.2209 -0.3205
  221MOL0     O30368   3.199   5.909   4.598 -0.0851  0.1721  0.1198
  221MOL0     C30369   3.337   5.946   4.595 -0.3323  0.1715  0.2232
  221MOL0     C30370   3.433   5.839   4.528 -0.1503 -0.5059 -0.3211
  221MOL0     C30371   3.436   5.713   4.616 -0.5544 -0.6810  0.5352
  221MOL0     C30372   3.545   5.619   4.568 -0.0455 -0.1560 -0.1109
  221MOL0     C30373   3.517   5.474   4.611  0.2417 -0.0237 -0.6100
  221MOL0     C30374   3.499   5.470   4.767  0.6719 -0.4633 -0.1778
  221MOL0     C30375   3.485   5.326   4.808 -0.5315  0.5505 -0.9599
  221MOL0     C30376   3.475   5.289   4.959  0.2089 -0.7934  0.1915
  221MOL0     N30377   3.340   5.259   4.991  0.4736  0.2919 -0.8609
  221MOL0     C30378   3.281   5.133   5.000 -0.9038 -0.5637  0.3158
  221MOL0     C30379   3.148   5.164   5.007  0.1626  0.8702 -0.1115
  221MOL0     C30380   3.027   5.074   5.037  1.3240  1.0728  0.9202
  221MOL0     C30381   2.910   5.069   4.931 -0.4464 -0.4393 -1.0392
  221MOL0     C30382   2.840   4.936   4.932 -0.0525 -0.0721 -0.1367
  221MOL0     C30383   2.720   4.959   4.825 -1.2324 -1.1980  1.0801
  221MOL0     O30384   2.605   5.026   4.868 -0.0228  0.6054 -0.2883
  221MOL0     C30385   2.496   5.009   4.782 -0.0976 -0.6891 -0.0280
  221MOL0     C30386   2.368   5.013   4.842 -0.3380 -0.2282  0.7214
  221MOL0     C30387   2.250   4.981   4.768 -0.5475 -0.6700 -0.0785
  221MOL0     C30388   2.124   4.980   4.858  0.4848 -0.6144 -0.3228
  221MOL0     C30389   2.257   4.954   4.632  0.6993  0.4379  0.5306
  221MOL0     C30390   2.139   4.909   4.538 -0.5858  1.1915 -0.5107
  221MOL0     O30391   2.160   4.927   4.402  0.0798  0.0516 -0.1998
  221MOL0     C30392   2.068   4.871   4.313  0.3079 -1.2275 -0.3669
  221MOL0     C30393   2.003   4.970   4.233  0.9180 -0.9937 -0.0953
  221MOL0     C30394   1.903   4.918   4.142 -0.2597 -0.2827 -1.2149
  221MOL0     C30395   1.863   4.784   4.137 -0.1820 -0.1336 -1.5412
  221MOL0     O30396   1.759   4.767   4.048 -0.2642 -0.0446  0.4999
  221MOL0     C30397   1.719   4.639   4.019  0.2910 -0.1065 -0.3676
  221MOL0     C30398   1.581   4.645   3.958 -0.3791 -0.3912  0.0137
  221MOL0     C30399   1.516   4.511   3.921  0.2707  0.2659  0.7967
  221MOL0     C30400   1.381   4.521   3.846 -0.2722  0.5883  0.0178
  221MOL0     C30401   1.312   4.386   3.845  0.1915 -0.8866  0.5440
  221MOL0     C30402   1.182   4.383   3.759  0.4920  0.0693 -0.0243
  221MOL0     C30403   1.120   4.244   3.729 -0.0092  0.4630 -0.3568
  221MOL0     C30404   1.206   4.144   3.665 -0.3590 -0.1611  1.2255
  221MOL0    Cl30405   1.105   4.002   3.626 -0.1324  0.2300 -0.3998
  221MOL0     C30406   1.931   4.689   4.227  0.2471 -0.5332 -0.4862
  221MOL0     C30407   2.036   4.742   4.310 -0.1128 -0.2101  0.9046
  221MOL0     O30408   2.046   4.849   4.586 -0.0485  0.5354 -0.5515
  221MOL0     C30409   2.387   4.964   4.567  0.3825 -0.5289 -0.0510
  221MOL0     C30410   2.500   4.991   4.645 -0.2687  0.1343  0.8554
  221MOL0     N30411   3.134   5.305   4.997 -1.0671  0.3074 -0.1882
  221MOL0     N30412   3.248   5.357   5.001 -0.1500  0.2127  0.3175
  221MOL0     C30413   2.979   5.957   4.546 -0.4210  0.3034  0.1027
  221MOL0     C30414   2.887   6.011   4.453  0.1772  0.3710  0.3472
  221MOL0     C30415   2.706   6.278   4.116  0.0349  0.6016 -0.4858
  221MOL0     C30416   2.605   6.363   4.165 -0.2563 -0.2100  1.5495
  221MOL0     C30417   2.521   6.436   4.079  0.0713 -0.3164  1.0634
  221MOL0     C30418   2.515   6.388   3.947  0.4960  0.3152  0.3168
  221MOL0     O30419   2.425   6.427   3.858  0.7307 -0.7336 -0.0092
  221MOL0     C30420   2.433   6.570   3.833 -0.7488 -1.0710 -0.5000
  221MOL0     C30421   2.319   6.640   3.766  0.1794  0.5346 -1.2779
  221MOL0     C30422   2.183   6.605   3.842 -0.6386 -0.0446  0.3785
  221MOL0     C30423   2.075   6.716   3.827 -0.6929 -0.1745 -0.2618
  221MOL0     C30424   1.984   6.704   3.937 -0.6530 -0.0491 -1.0760
  221MOL0     C30425   1.900   6.691   4.022  0.4169  0.9884 -0.3006
  221MOL0     C30426   2.601   6.289   3.903 -0.3958 -0.1058  0.9643
  221MOL0     C30427   2.703   6.240   3.986  0.4345 -0.3244 -0.0001
  221MOL0     C30428   2.792   6.132   3.919 -0.4038 -1.0004 -0.1701
  221MOL0     H30429   3.084   6.091   4.200 -0.2921  1.7836 -0.9096
  221MOL0     H30430   3.261   6.004   4.364  0.6302  0.6397  2.6937
  221MOL0     H30431   3.379   5.971   4.694 -0.3270 -0.7232  0.4516
  221MOL0     H30432   3.346   6.042   4.543 -3.0811 -0.5604 -1.8099
  221MOL0     H30433   3.407   5.820   4.424 -1.9274 -1.3522  0.2423
  221MOL0     H30434   3.533   5.884   4.530 -0.6311  0.6148  1.9601
  221MOL0     H30435   3.453   5.741   4.720  0.9159 -3.4886  1.1650
  221MOL0     H30436   3.343   5.655   4.614 -0.4542 -1.0120  2.7324
  221MOL0     H30437   3.538   5.614   4.459  1.9806  1.5163 -0.3809
  221MOL0     H30438   3.641   5.662   4.597 -0.0992  1.1444 -1.6902
  221MOL0     H30439   3.587   5.401   4.569 -0.3638 -0.7883 -0.3072
  221MOL0     H30440   3.418   5.445   4.575  0.2289  0.1600 -0.7266
  221MOL0     H30441   3.579   5.529   4.813  0.2665  0.2059 -0.3212
  221MOL0     H30442   3.395   5.498   4.787 -0.5114 -3.6548 -1.2203
  221MOL0     H30443   3.580   5.272   4.794 -1.3246 -1.9682  2.0894
  221MOL0     H30444   3.408   5.274   4.750 -0.9317 -0.4400  0.4076
  221MOL0     H30445   3.542   5.209   4.995 -1.6566 -2.2959  0.5034
  221MOL0     H30446   3.510   5.379   5.011 -3.8689  3.3432 -3.3817
  221MOL0     H30447   3.321   5.033   4.990 -1.2536 -0.8432  1.5948
  221MOL0     H30448   2.982   5.112   5.129 -0.5443 -2.8490  1.8329
  221MOL0     H30449   3.062   4.973   5.059  1.1240  0.6020 -0.7834
  221MOL0     H30450   2.844   5.151   4.962 -0.0014 -1.1018  2.0033
  221MOL0     H30451   2.955   5.097   4.835  2.4311 -1.7515 -0.1883
  221MOL0     H30452   2.910   4.855   4.909  1.8994  1.6220 -0.3797
  221MOL0     H30453   2.784   4.908   5.022  1.6749 -2.6680  0.2355
  221MOL0     H30454   2.764   5.020   4.745 -0.8170  1.3351  3.1346
  221MOL0     H30455   2.695   4.859   4.790  0.1328 -1.3848  0.5491
  221MOL0     H30456   2.378   5.051   4.943  1.8163  2.3716 -0.3428
  221MOL0     H30457   2.080   5.078   4.875  0.6018 -0.7575  0.9034
  221MOL0     H30458   2.149   4.940   4.956 -0.2230  1.6807  0.8529
  221MOL0     H30459   2.048   4.909   4.822  0.0775 -2.6653  3.9839
  221MOL0     H30460   2.014   5.075   4.256  1.0177 -1.0884  0.3038
  221MOL0     H30461   1.852   4.990   4.078 -0.6475 -2.2349 -3.2354
  221MOL0     H30462   1.783   4.593   3.943 -0.8289  2.0528 -2.7765
  221MOL0     H30463   1.722   4.591   4.117 -3.8040  2.1281  1.0782
  221MOL0     H30464   1.526   4.708   4.028 -0.8778 -0.8697  0.0493
  221MOL0     H30465   1.581   4.709   3.869 -2.1695  0.4251  0.5630
  221MOL0     H30466   1.504   4.436   4.000 -1.5672 -0.8664 -0.4744
  221MOL0     H30467   1.580   4.476   3.841  0.2642  1.4176  0.2687
  221MOL0     H30468   1.397   4.552   3.743  5.3736  1.8801  0.9526
  221MOL0     H30469   1.319   4.601   3.890 -0.8985 -0.4692  1.1158
  221MOL0     H30470   1.382   4.312   3.806 -0.2156  0.2361 -2.6077
  221MOL0     H30471   1.282   4.362   3.947 -0.1785  0.3991  0.7529
  221MOL0     H30472   1.206   4.425   3.660  2.2369  0.5636  0.5787
  221MOL0     H30473   1.106   4.451   3.798 -2.3515 -1.5522 -2.3344
  221MOL0     H30474   1.024   4.248   3.678 -0.0136  1.4203 -0.2818
  221MOL0     H30475   1.094   4.204   3.828 -2.6665  2.1826 -0.2806
  221MOL0     H30476   1.296   4.114   3.718  2.7994  0.3266 -3.3068
  221MOL0     H30477   1.244   4.187   3.572  2.3217  0.7892  2.6731
  221MOL0     H30478   1.903   4.585   4.238 -2.6001  0.2822  0.8527
  221MOL0     H30479   2.091   4.665   4.362  2.8840 -2.1498 -4.3267
  221MOL0     H30480   2.411   4.954   4.462  4.0577  0.7592  0.5104
  221MOL0     H30481   2.595   4.994   4.593 -0.8092 -1.0960 -0.2643
  221MOL0     H30482   2.951   5.911   4.640  1.4002 -2.8851 -0.7525
  221MOL0     H30483   2.782   6.005   4.480  0.4311 -1.2076  1.0914
  221MOL0     H30484   2.597   6.388   4.270  0.6655 -0.5989  1.7226
  221MOL0     H30485   2.448   6.505   4.120 -1.6795 -2.0589  1.0229
  221MOL0     H30486   2.430   6.613   3.934 -2.1893 -0.9323 -0.5747
  221MOL0     H30487   2.527   6.602   3.787 -0.0559  0.9761  2.1030
  221MOL0     H30488   2.321   6.617   3.659  0.6988  0.9215 -1.3535
  221MOL0     H30489   2.332   6.747   3.783 -1.0631  0.4955  0.0658
  221MOL0     H30490   2.149   6.519   3.783  2.0039 -0.2231 -1.0207
  221MOL0     H30491   2.199   6.585   3.948 -0.9528  0.1264  0.4595
  221MOL0     H30492   2.034   6.706   3.726  1.0112 -0.3122 -0.9809
  221MOL0     H30493   2.115   6.818   3.835  0.4914 -0.5875 -0.8075
  221MOL0     H30494   1.815   6.686   4.087 -1.2328  1.4797 -2.3410
  221MOL0     H30495   2.586   6.261   3.800 -2.9746  0.0334  1.2303
  221MOL0     H30496   2.874   6.183   3.867  0.9271 -3.0999 -0.2573
  221MOL0     H30497   2.852   6.075   3.991  4.4069  0.0067 -2.9719
  221MOL0     H30498   2.730   6.072   3.852 -0.9842 -0.6732  0.0716
  222MOL0     O30499   2.633   6.134   4.625 -0.7297  0.1847  0.4577
  222MOL0     C30500   2.550   6.174   4.707  0.0103 -0.0169 -0.7198
  222MOL0     O30501   2.506   6.305   4.716 -0.0138 -0.5715 -0.6717
  222MOL0     C30502   2.535   6.397   4.619 -0.6845 -0.3146  0.4899
  222MOL0     C30503   2.664   6.424   4.569  0.4575  0.1737  0.0237
  222MOL0     C30504   2.691   6.525   4.478  0.6684  0.1960 -0.1193
  222MOL0     C30505   2.592   6.611   4.428 -0.3479  0.7464 -0.9264
  222MOL0     O30506   2.607   6.705   4.336  0.0158 -0.3348 -0.3192
  222MOL0     C30507   2.733   6.741   4.283 -0.4008  0.6057 -0.1229
  222MOL0     C30508   2.703   6.851   4.172  0.0564  0.2622 -0.7827
  222MOL0     C30509   2.638   6.792   4.048 -0.3219  0.8259  0.2937
  222MOL0     C30510   2.613   6.899   3.948 -0.3608 -1.1663 -0.4707
  222MOL0     C30511   2.737   6.930   3.861  0.7369 -0.3873 -0.7295
  222MOL0     C30512   2.712   7.023   3.736  0.4026  0.4612  0.0871
  222MOL0     C30513   2.681   7.173   3.776 -0.2077  0.0531 -0.0950
  222MOL0     C30514   2.588   7.232   3.667  0.7556 -0.0576  0.0655
  222MOL0     N30515   2.446   7.191   3.670  0.4625  0.6219 -0.0398
  222MOL0     C30516   2.369   7.233   3.774  1.1245  0.1802  0.0926
  222MOL0     C30517   2.262   7.164   3.745  0.1599  0.0250 -0.2708
  222MOL0     C30518   2.140   7.177   3.839  0.0892  0.1234  0.5865
  222MOL0     C30519   2.072   7.313   3.812 -0.4147  0.1599  0.1171
  222MOL0     C30520   2.116   7.420   3.914 -0.1017  0.3305 -0.8107
  222MOL0     C30521   2.027   7.539   3.921  0.7507  0.4437  0.4076
  222MOL0     O30522   2.068   7.635   4.027 -0.1384  0.5609  0.3490
  222MOL0     C30523   2.041   7.608   4.161  0.5409 -0.5446  0.2670
  222MOL0     C30524   2.135   7.655   4.257  1.0177  0.0140  1.1586
  222MOL0     C30525   2.126   7.624   4.390  0.3568  0.7350 -1.0746
  222MOL0     C30526   2.238   7.671   4.485 -1.0408  0.5346 -0.1949
  222MOL0     C30527   2.012   7.552   4.431  0.4256  0.0741 -0.3450
  222MOL0     C30528   2.000   7.489   4.567 -0.1202 -0.5808 -0.6213
  222MOL0     O30529   1.894   7.402   4.585  0.0331  0.3739  0.3547
  222MOL0     C30530   1.850   7.372   4.710 -0.4793 -0.2617  0.3883
  222MOL0     C30531   1.795   7.242   4.729  0.3705  0.1359 -0.2581
  222MOL0     C30532   1.749   7.202   4.848  0.3749 -0.4536 -0.2581
  222MOL0     C30533   1.773   7.271   4.969  0.4134  0.4162 -1.0432
  222MOL0     O30534   1.734   7.215   5.093 -0.1610 -0.2450  0.3346
  222MOL0     C30535   1.842   7.158   5.168 -1.1369  0.2781  0.2391
  222MOL0     C30536   1.856   7.006   5.146  0.1383  0.5416  0.2986
  222MOL0     C30537   1.733   6.936   5.208 -0.6034 -0.1314  0.0841
  222MOL0     C30538   1.719   6.789   5.176  0.3638 -0.4752  0.0032
  222MOL0     C30539   1.589   6.719   5.205  0.4911  0.1578  0.2554
  222MOL0     C30540   1.570   6.698   5.357 -0.3116 -0.2362  0.0180
  222MOL0     C30541   1.430   6.642   5.388 -0.9136  0.0404  0.0419
  222MOL0     C30542   1.396   6.517   5.315 -0.2991 -0.9583  0.6605
  222MOL0    Cl30543   1.524   6.393   5.291 -0.2722 -0.1800  0.0960
  222MOL0     C30544   1.833   7.396   4.957 -0.1419 -0.5664 -0.3003
  222MOL0     C30545   1.861   7.457   4.831  0.3197  0.0942  0.3062
  222MOL0     O30546   2.079   7.520   4.649  0.5085  0.4392 -0.3577
  222MOL0     C30547   1.911   7.514   4.340  0.4270  0.2724  0.3440
  222MOL0     C30548   1.918   7.545   4.208 -0.0672 -0.2297  0.0156
  222MOL0     N30549   2.275   7.087   3.632  0.0020  0.3242  0.2795
  222MOL0     N30550   2.388   7.108   3.577  0.6642 -0.2420  0.3165
  222MOL0     C30551   2.462   6.587   4.470  0.4335  0.8663 -0.6475
  222MOL0     C30552   2.437   6.476   4.559  0.7651 -0.3001  0.3182
  222MOL0     C30553   2.504   6.083   4.805 -0.3684  0.5888 -0.6017
  222MOL0     C30554   2.585   5.973   4.834 -1.0466 -0.2536  0.7562
  222MOL0     C30555   2.535   5.872   4.919 -0.5230  0.5669  0.6943
  222MOL0     C30556   2.416   5.875   4.981  0.6481 -0.5498 -0.5412
  222MOL0     O30557   2.376   5.788   5.067  0.1142 -0.0176 -0.0053
  222MOL0     C30558   2.444   5.781   5.189 -0.4409  0.2839  0.4549
  222MOL0     C30559   2.345   5.753   5.302  1.0568  0.0696 -0.7023
  222MOL0     C30560   2.231   5.866   5.325  0.3502  0.1983  0.6065
  222MOL0     C30561   2.286   6.007   5.337 -1.1611  0.1634  0.1502
  222MOL0     C30562   2.369   6.020   5.463 -0.0860  0.1316  0.6850
  222MOL0     C30563   2.457   6.017   5.553  0.4277 -0.8191  0.3938
  222MOL0     C30564   2.332   5.978   4.944 -0.1084  0.6537  0.3025
  222MOL0     C30565   2.367   6.074   4.847  1.5133 -0.4649  0.4775
  222MOL0     C30566   2.263   6.176   4.803 -0.0304  0.4268  0.9283
  222MOL0     H30567   2.751   6.362   4.590  1.3503  1.6132  0.6531
  222MOL0     H30568   2.794   6.536   4.446  0.0482  1.3230 -1.8828
  222MOL0     H30569   2.798   6.665   4.240  1.3056  1.1031  1.4365
  222MOL0     H30570   2.792   6.784   4.364  0.0564 -0.1729 -0.0361
  222MOL0     H30571   2.637   6.921   4.224 -0.5649 -1.8574  1.4841
  222MOL0     H30572   2.802   6.881   4.136  1.1047 -0.5904  1.2350
  222MOL0     H30573   2.691   6.703   4.015 -1.4877 -1.0857  3.1739
  222MOL0     H30574   2.536   6.766   4.079 -1.0456  3.8806  0.8128
  222MOL0     H30575   2.523   6.874   3.891 -2.5403 -0.9919  2.6742
  222MOL0     H30576   2.577   6.981   4.011  3.1723 -0.7821  1.2810
  222MOL0     H30577   2.771   6.834   3.823 -1.2663 -1.7875  0.7566
  222MOL0     H30578   2.814   6.973   3.926  0.1382 -1.3298  0.6552
  222MOL0     H30579   2.789   7.018   3.658 -0.1520 -0.2743 -0.4188
  222MOL0     H30580   2.618   6.991   3.689 -0.7697  0.6973  2.1650
  222MOL0     H30581   2.772   7.233   3.774 -0.3455  0.2775  0.2149
  222MOL0     H30582   2.623   7.187   3.868 -2.4201  1.0300 -1.5468
  222MOL0     H30583   2.600   7.341   3.669  0.1476  0.0178 -0.2522
  222MOL0     H30584   2.634   7.195   3.575  1.2853  2.0593 -0.5695
  222MOL0     H30585   2.387   7.303   3.854  0.1694 -0.2510  0.6954
  222MOL0     H30586   2.155   7.155   3.945 -1.2963  0.9703  0.9809
  222MOL0     H30587   2.061   7.105   3.816  0.1876  0.1308  0.2215
  222MOL0     H30588   2.088   7.349   3.710 -0.1749  0.5823  0.3005
  222MOL0     H30589   1.964   7.298   3.821 -0.4580 -0.3945 -1.1368
  222MOL0     H30590   2.109   7.383   4.017  3.2079  0.8672 -0.2511
  222MOL0     H30591   2.222   7.446   3.903  0.5758 -0.6976  2.2967
  222MOL0     H30592   2.026   7.569   3.815 -1.0357 -1.1570 -0.0894
  222MOL0     H30593   1.924   7.507   3.938  1.0878 -1.5191 -0.9638
  222MOL0     H30594   2.210   7.717   4.208 -1.0566 -0.6718 -3.4073
  222MOL0     H30595   2.301   7.747   4.440 -1.5295  1.3778  0.5061
  222MOL0     H30596   2.307   7.588   4.500 -1.4688 -0.4003 -2.9118
  222MOL0     H30597   2.212   7.708   4.585  1.4859  0.5276  0.5199
  222MOL0     H30598   1.769   7.176   4.647 -0.0869  0.2891 -0.2379
  222MOL0     H30599   1.695   7.107   4.845  1.4069 -1.0400 -0.9732
  222MOL0     H30600   1.934   7.216   5.156  0.1889 -1.7254  0.2798
  222MOL0     H30601   1.819   7.162   5.275  0.5100  0.3985  0.6257
  222MOL0     H30602   1.868   6.991   5.039  0.9914 -0.2633  0.4939
  222MOL0     H30603   1.949   6.977   5.196  1.5050 -0.8537 -2.8383
  222MOL0     H30604   1.641   6.987   5.178 -0.7021 -1.0001 -1.1521
  222MOL0     H30605   1.740   6.948   5.317 -2.3276 -1.7757  0.4404
  222MOL0     H30606   1.794   6.734   5.233  1.6814 -0.3078 -1.5002
  222MOL0     H30607   1.753   6.791   5.072 -0.7033  4.2217 -0.4859
  222MOL0     H30608   1.510   6.764   5.145  0.8136 -2.4101 -2.2813
  222MOL0     H30609   1.605   6.616   5.174  0.7202  0.3901 -0.4124
  222MOL0     H30610   1.580   6.789   5.417  1.5516 -1.8049  2.2852
  222MOL0     H30611   1.637   6.620   5.395  0.4403  0.4610  0.1707
  222MOL0     H30612   1.359   6.720   5.360  0.1680 -0.0152 -3.3031
  222MOL0     H30613   1.414   6.614   5.493 -2.1829  2.0866  0.4415
  222MOL0     H30614   1.372   6.541   5.211  1.0317  0.5094  0.6504
  222MOL0     H30615   1.306   6.469   5.353 -2.2948  1.1947 -1.0531
  222MOL0     H30616   1.861   7.451   5.046  0.2117 -1.9918  0.4885
  222MOL0     H30617   1.901   7.558   4.829  2.6632 -0.6138  3.2514
  222MOL0     H30618   1.821   7.466   4.377  1.0779 -0.7238  0.6881
  222MOL0     H30619   1.840   7.518   4.138 -1.4333  0.3741  1.2527
  222MOL0     H30620   2.382   6.656   4.445  0.4723  0.7197 -1.2006
  222MOL0     H30621   2.334   6.450   4.582  0.8638  0.7681  2.1064
  222MOL0     H30622   2.693   5.963   4.822 -0.7797 -0.5989  3.0310
  222MOL0     H30623   2.605   5.794   4.949  2.7586  2.7561 -0.6804
  222MOL0     H30624   2.509   5.693   5.186 -0.1786  0.5062 -2.0507
  222MOL0     H30625   2.506   5.870   5.208 -1.4950  0.4801  3.5551
  222MOL0     H30626   2.393   5.734   5.399 -0.1365  0.1576 -0.0825
  222MOL0     H30627   2.301   5.656   5.276  3.2883 -1.6362  1.3213
  222MOL0     H30628   2.175   5.860   5.231  1.6521 -0.4770 -0.1522
  222MOL0     H30629   2.163   5.839   5.407  0.0385  2.0686  1.0263
  222MOL0     H30630   2.201   6.074   5.351 -1.3761 -0.0729 -0.0097
  222MOL0     H30631   2.335   6.038   5.244  0.5553  0.3484  1.0885
  222MOL0     H30632   2.532   6.018   5.629  0.6884  2.7373  0.2547
  222MOL0     H30633   2.234   5.981   4.991 -0.4793 -1.1633 -0.2729
  222MOL0     H30634   2.245   6.162   4.696  0.5293  3.3480  0.3620
  222MOL0     H30635   2.158   6.174   4.835 -0.2368  2.0127  0.4602
  222MOL0     H30636   2.297   6.277   4.829  1.1032  0.7149 -1.3266
  223MOL0     O30637  10.827   1.235   5.774 -0.4193  0.6975 -0.7127
  223MOL0     C30638  10.912   1.214   5.691  0.6105  0.4263 -0.3442
  223MOL0     O30639  10.952   1.086   5.660  0.1173 -0.4427  0.3184
  223MOL0     C30640  10.892   0.980   5.712  0.5543  0.0880  0.0058
  223MOL0     C30641  10.810   0.902   5.625 -0.2032  0.1572  0.4516
  223MOL0     C30642  10.767   0.783   5.668 -0.3121  1.5329  0.5381
  223MOL0     C30643  10.786   0.738   5.801 -0.0371 -0.0997  0.9033
  223MOL0     O30644  10.737   0.631   5.862 -0.5409  0.0438  0.9788
  223MOL0     C30645  10.610   0.593   5.824 -0.0532 -0.1209  0.3384
  223MOL0     C30646  10.584   0.459   5.887 -0.3566 -0.4174  0.1310
  223MOL0     C30647  10.684   0.343   5.863  0.3097 -0.3216 -0.1254
  223MOL0     C30648  10.632   0.228   5.938 -0.1174 -0.0010  0.4902
  223MOL0     C30649  10.717   0.101   5.917 -0.3724 -0.6907  0.4019
  223MOL0     C30650  10.695   0.029   5.779  0.1908 -0.4130  0.1440
  223MOL0     C30651  10.786  -0.085   5.757  0.2271 -0.9495  0.3380
  223MOL0     C30652  10.751  -0.171   5.638 -0.2284  0.7312  0.7993
  223MOL0     N30653  10.875  -0.245   5.606 -0.1299 -0.0188 -0.1550
  223MOL0     C30654  10.981  -0.205   5.527  0.0574  0.3475 -0.5930
  223MOL0     C30655  11.038  -0.323   5.497  1.0411  0.5283  0.1355
  223MOL0     C30656  11.163  -0.327   5.411  0.3654 -0.1776 -0.1439
  223MOL0     C30657  11.246  -0.445   5.468  0.2744 -0.2001  1.3257
  223MOL0     C30658  11.397  -0.408   5.486  0.1333  0.1372  0.8035
  223MOL0     C30659  11.462  -0.536   5.550 -0.8679  0.2129  0.4950
  223MOL0     O30660  11.462  -0.628   5.436 -0.2667 -0.2272  0.2718
  223MOL0     C30661  11.527  -0.753   5.455 -0.1270  0.0815 -0.6029
  223MOL0     C30662  11.581  -0.791   5.578  0.1161  0.1928 -0.7662
  223MOL0     C30663  11.643  -0.915   5.605 -1.2425 -0.9666  0.0786
  223MOL0     C30664  11.701  -0.928   5.743 -0.9834  0.4905 -0.1200
  223MOL0     C30665  11.658  -1.003   5.497  0.5664  0.0750  0.0887
  223MOL0     C30666  11.728  -1.131   5.512 -0.3104  0.2869 -0.5294
  223MOL0     O30667  11.800  -1.173   5.412 -0.5667  0.5064 -0.2625
  223MOL0     C30668  11.868  -1.295   5.429  0.2419  0.3668  0.0104
  223MOL0     C30669  11.975  -1.304   5.517  0.1540  0.4341  0.0994
  223MOL0     C30670  12.028  -1.426   5.540  0.1644 -0.0196  0.1813
  223MOL0     C30671  11.989  -1.538   5.463 -0.0513  0.3336 -0.2878
  223MOL0     O30672  12.045  -1.663   5.478  0.1244 -0.4768 -0.4170
  223MOL0     C30673  12.077  -1.714   5.604  0.2539  0.2082  0.5013
  223MOL0     C30674  11.953  -1.764   5.668  0.7205  0.1541 -0.8930
  223MOL0     C30675  11.995  -1.788   5.819 -0.1004  0.1893 -0.9925
  223MOL0     C30676  12.088  -1.909   5.840 -0.0652  0.4569 -0.4159
  223MOL0     C30677  12.154  -1.930   5.984 -0.1714 -0.0011 -0.3545
  223MOL0     C30678  12.245  -2.046   5.998  0.0531  0.2470  0.2179
  223MOL0     C30679  12.304  -2.056   6.143  0.1408 -0.1015 -0.3051
  223MOL0     C30680  12.437  -2.121   6.151 -0.8019  0.8504 -0.5089
  223MOL0    Cl30681  12.397  -2.294   6.133 -0.5965 -0.2953 -0.2073
  223MOL0     C30682  11.896  -1.525   5.360 -1.7084 -0.3144  0.3072
  223MOL0     C30683  11.822  -1.407   5.347 -1.0655 -0.0730 -0.0793
  223MOL0     O30684  11.713  -1.203   5.618 -0.5932  0.2790 -0.0970
  223MOL0     C30685  11.612  -0.968   5.369 -0.0435  0.1487 -0.0621
  223MOL0     C30686  11.556  -0.837   5.345 -0.5543  0.2629 -0.1170
  223MOL0     N30687  10.966  -0.429   5.553 -0.0525 -0.6922  0.3092
  223MOL0     N30688  10.868  -0.372   5.624 -0.3587  0.2121 -0.0713
  223MOL0     C30689  10.867   0.812   5.883  0.1916 -0.4867 -1.0446
  223MOL0     C30690  10.917   0.933   5.837 -1.0830  0.6267 -0.3992
  223MOL0     C30691  10.964   1.323   5.604 -0.2676  0.1630 -0.4952
  223MOL0     C30692  11.056   1.407   5.654  0.5388  1.6377  1.4420
  223MOL0     C30693  11.100   1.517   5.578 -0.1564 -0.2794  0.7134
  223MOL0     C30694  11.053   1.535   5.444  0.2401  0.1142  0.0512
  223MOL0     O30695  11.081   1.655   5.376  0.0862  0.4994 -0.0283
  223MOL0     C30696  11.118   1.642   5.246 -0.1846  0.2470  0.9349
  223MOL0     C30697  11.213   1.754   5.207  0.1872 -0.3386 -0.7350
  223MOL0     C30698  11.162   1.887   5.251  0.3670  0.1271  0.3687
  223MOL0     C30699  11.208   1.941   5.387 -0.7205 -0.5381  0.4698
  223MOL0     C30700  11.344   1.996   5.375 -0.8349  0.0317  0.6173
  223MOL0     C30701  11.449   2.049   5.379 -0.3535 -0.5706  0.2414
  223MOL0     C30702  10.946   1.447   5.400  0.5504 -0.3927  0.1806
  223MOL0     C30703  10.907   1.343   5.474 -0.8973 -1.2156  0.0303
  223MOL0     C30704  10.797   1.262   5.429 -0.3651  0.3792  0.1892
  223MOL0     H30705  10.808   0.927   5.519 -0.2422 -2.5991 -0.2698
  223MOL0     H30706  10.721   0.717   5.595  1.5533 -0.2250  0.8523
  223MOL0     H30707  10.614   0.579   5.716 -0.1001 -1.5005  0.5011
  223MOL0     H30708  10.541   0.673   5.854  0.4836 -0.1398  1.7014
  223MOL0     H30709  10.580   0.481   5.995 -1.6616  2.7810 -0.4332
  223MOL0     H30710  10.482   0.426   5.867 -1.1887  0.8628  1.9168
  223MOL0     H30711  10.699   0.325   5.757  2.7907  0.0701  0.0997
  223MOL0     H30712  10.783   0.367   5.902  0.7143 -2.1578  0.0483
  223MOL0     H30713  10.638   0.259   6.042  1.0633  0.1622  0.3842
  223MOL0     H30714  10.530   0.209   5.903 -0.3991  1.8614  0.1909
  223MOL0     H30715  10.686   0.041   6.004  2.0753  0.3709  2.1154
  223MOL0     H30716  10.821   0.125   5.940  0.0538 -0.1565 -1.9193
  223MOL0     H30717  10.589   0.010   5.763 -0.1366  0.5512  1.1016
  223MOL0     H30718  10.738   0.103   5.710 -1.1568  2.8874  2.6025
  223MOL0     H30719  10.793  -0.143   5.849 -1.8935 -0.0557  1.1112
  223MOL0     H30720  10.888  -0.045   5.752  0.7264 -2.2888 -1.0300
  223MOL0     H30721  10.658  -0.229   5.650 -0.8304  1.3539 -0.6443
  223MOL0     H30722  10.719  -0.094   5.568  1.8824 -0.6161 -1.8225
  223MOL0     H30723  11.011  -0.110   5.483 -5.7290  2.2321 -1.3301
  223MOL0     H30724  11.220  -0.233   5.409 -0.2260  0.1826 -0.5827
  223MOL0     H30725  11.136  -0.335   5.305 -0.2426  0.0372 -0.0079
  223MOL0     H30726  11.204  -0.475   5.564 -2.8646 -3.8510 -0.8782
  223MOL0     H30727  11.237  -0.530   5.400 -0.3841  0.5006  0.5100
  223MOL0     H30728  11.440  -0.395   5.387 -0.2006  0.9164  0.7526
  223MOL0     H30729  11.419  -0.322   5.551  3.0575  1.9155 -2.2400
  223MOL0     H30730  11.560  -0.500   5.585  0.4260 -3.4764  1.1949
  223MOL0     H30731  11.398  -0.568   5.633 -1.8666  1.2391  0.1424
  223MOL0     H30732  11.563  -0.726   5.663 -0.6541 -0.5022 -0.3794
  223MOL0     H30733  11.650  -1.010   5.794 -1.1559  0.9315  0.4225
  223MOL0     H30734  11.690  -0.835   5.799  1.3088 -0.0933  1.4384
  223MOL0     H30735  11.808  -0.946   5.732 -0.8160  0.9858  0.6279
  223MOL0     H30736  12.026  -1.220   5.561 -1.9512  2.2338 -0.6754
  223MOL0     H30737  12.107  -1.425   5.614 -0.8142 -0.2309  1.2630
  223MOL0     H30738  12.146  -1.797   5.588  0.4943  0.8031 -2.1565
  223MOL0     H30739  12.137  -1.637   5.653 -1.5531  1.2136  1.2190
  223MOL0     H30740  11.876  -1.688   5.686  0.1802 -1.2269  4.7570
  223MOL0     H30741  11.920  -1.860   5.627  2.1017 -0.8953  0.3175
  223MOL0     H30742  11.909  -1.794   5.886  1.2909 -1.2513  0.7717
  223MOL0     H30743  12.048  -1.698   5.850 -0.2617  0.3834 -1.2733
  223MOL0     H30744  12.170  -1.892   5.769 -1.4297  4.7722 -1.2689
  223MOL0     H30745  12.042  -2.002   5.807  1.5916 -0.4516 -0.2337
  223MOL0     H30746  12.210  -1.837   5.993 -0.0312  0.5161 -4.6590
  223MOL0     H30747  12.084  -1.934   6.068  1.2954 -1.5677  0.8612
  223MOL0     H30748  12.322  -2.054   5.920 -0.6349 -0.7586 -0.3828
  223MOL0     H30749  12.192  -2.138   5.969  2.3912 -1.0643 -0.2187
  223MOL0     H30750  12.250  -2.115   6.217  0.9442  3.1328  3.2155
  223MOL0     H30751  12.310  -1.953   6.181  0.4464  0.0683 -0.7991
  223MOL0     H30752  12.473  -2.107   6.253 -0.4994  0.6941 -0.5936
  223MOL0     H30753  12.508  -2.095   6.072  0.2054 -0.3179 -0.0130
  223MOL0     H30754  11.886  -1.619   5.307  0.4898 -1.1345  1.2537
  223MOL0     H30755  11.741  -1.397   5.275  0.2639  1.0736 -1.4870
  223MOL0     H30756  11.610  -1.035   5.283  0.3483  0.0608 -0.0064
  223MOL0     H30757  11.507  -0.820   5.250 -3.0379  0.6907  1.1562
  223MOL0     H30758  10.883   0.787   5.988  2.2627 -1.0116 -1.4385
  223MOL0     H30759  10.978   1.001   5.897  1.8408 -2.0804 -0.0674
  223MOL0     H30760  11.095   1.396   5.754 -2.0877  1.1484  2.4888
  223MOL0     H30761  11.166   1.593   5.618  0.7064 -1.1510  0.9854
  223MOL0     H30762  11.170   1.551   5.214 -1.8976 -0.5971  0.4272
  223MOL0     H30763  11.025   1.631   5.190 -0.8637 -1.4954  2.2884
  223MOL0     H30764  11.239   1.757   5.101 -0.1131 -3.2896 -0.9773
  223MOL0     H30765  11.306   1.733   5.261  0.3296  2.1319  0.1258
  223MOL0     H30766  11.198   1.954   5.172  1.5292 -2.7882 -1.7738
  223MOL0     H30767  11.054   1.900   5.238  0.3060 -1.0556 -0.4471
  223MOL0     H30768  11.207   1.855   5.455 -2.4682 -0.5680  0.4387
  223MOL0     H30769  11.145   2.021   5.427  0.9966  1.1420 -0.0168
  223MOL0     H30770  11.540   2.104   5.389 -1.7517  1.8576  0.3100
  223MOL0     H30771  10.901   1.475   5.305 -0.6043  1.6654  1.2680
  223MOL0     H30772  10.823   1.158   5.410  0.8497  0.2860  2.0472
  223MOL0     H30773  10.732   1.234   5.513  3.2589 -6.4718  1.4128
  223MOL0     H30774  10.738   1.305   5.348  0.0364 -1.7515 -1.3040
  224MOL0     O30775   6.649   4.436   3.015 -0.4543 -0.4759 -0.1244
  224MOL0     C30776   6.681   4.469   3.128  1.1582 -0.5074  0.1829
  224MOL0     O30777   6.644   4.581   3.187  0.3933 -0.3950 -0.3014
  224MOL0     C30778   6.556   4.671   3.130  0.2196 -0.1062 -0.1948
  224MOL0     C30779   6.576   4.806   3.157  0.4402  0.5159  0.9550
  224MOL0     C30780   6.484   4.893   3.101  1.4981 -0.8350  0.4404
  224MOL0     C30781   6.374   4.859   3.015  0.1760 -0.0321 -0.1216
  224MOL0     O30782   6.289   4.948   2.960 -0.1984  0.7298 -0.6057
  224MOL0     C30783   6.308   5.083   2.990  1.0641  0.3759  0.4753
  224MOL0     C30784   6.211   5.168   2.910 -0.9056  0.2996  0.5747
  224MOL0     C30785   6.229   5.158   2.757 -0.7195  0.7648 -0.4606
  224MOL0     C30786   6.328   5.266   2.717 -0.9265 -0.4776  0.3652
  224MOL0     C30787   6.347   5.274   2.565 -0.4205 -0.0457 -0.2787
  224MOL0     C30788   6.435   5.393   2.527  0.1847 -0.1148  0.3984
  224MOL0     C30789   6.375   5.456   2.403  0.4757  0.1357  0.5807
  224MOL0     C30790   6.459   5.563   2.351  1.0885  0.4853  0.7804
  224MOL0     N30791   6.500   5.666   2.445  0.6920 -0.3503 -0.0008
  224MOL0     C30792   6.619   5.689   2.512  0.2282 -0.3800 -0.0502
  224MOL0     C30793   6.600   5.811   2.575 -0.1372  0.9666 -0.0385
  224MOL0     C30794   6.696   5.866   2.678  0.5132  0.0606  0.3144
  224MOL0     C30795   6.850   5.833   2.686  0.0691 -0.7226 -0.4364
  224MOL0     C30796   6.914   5.896   2.562 -0.8351  0.5607  0.7259
  224MOL0     C30797   7.069   5.889   2.582  0.5653 -0.1608  0.2925
  224MOL0     O30798   7.135   5.923   2.454 -0.9148  0.1542  0.4909
  224MOL0     C30799   7.219   6.032   2.477  0.6879 -0.2396  0.1574
  224MOL0     C30800   7.206   6.151   2.391 -0.1656  0.4391  0.6467
  224MOL0     C30801   7.269   6.277   2.413 -0.0834 -0.3657 -0.7058
  224MOL0     C30802   7.209   6.400   2.345  0.3015 -0.7622 -0.1974
  224MOL0     C30803   7.372   6.283   2.514  0.3284  0.0084  1.3234
  224MOL0     C30804   7.433   6.409   2.565  1.3930  0.4640  0.9089
  224MOL0     O30805   7.402   6.455   2.689  0.6275 -0.8429  0.5253
  224MOL0     C30806   7.440   6.586   2.717 -0.5863  0.2657  0.5346
  224MOL0     C30807   7.380   6.696   2.650 -1.1666 -0.5186  0.1604
  224MOL0     C30808   7.428   6.830   2.662  0.6764  0.4115  0.0329
  224MOL0     C30809   7.525   6.860   2.748  0.6335 -1.0907  0.1830
  224MOL0     O30810   7.556   6.997   2.757 -0.4825  1.0373  0.4056
  224MOL0     C30811   7.657   7.023   2.850 -0.3855 -0.0103 -1.2806
  224MOL0     C30812   7.698   7.172   2.841  0.9740  0.0848  0.3785
  224MOL0     C30813   7.834   7.206   2.907  0.1621 -0.2140 -0.3642
  224MOL0     C30814   7.827   7.191   3.057  0.1280  0.2597  0.1529
  224MOL0     C30815   7.972   7.192   3.106 -0.0167 -0.1738  0.1221
  224MOL0     C30816   7.984   7.204   3.257  1.1865 -0.3284  0.3821
  224MOL0     C30817   8.136   7.209   3.314  0.2618  0.3976 -0.7717
  224MOL0     C30818   8.155   7.304   3.426 -0.4795  0.8990  0.5807
  224MOL0    Cl30819   8.019   7.310   3.542 -0.2498 -0.1195  0.2971
  224MOL0     C30820   7.595   6.752   2.813  1.0735 -0.3315  0.4853
  224MOL0     C30821   7.561   6.619   2.791 -0.0901  0.0744  0.5552
  224MOL0     O30822   7.491   6.480   2.481  0.4288  0.2576  0.8312
  224MOL0     C30823   7.408   6.165   2.577 -0.2640 -0.1727  0.8254
  224MOL0     C30824   7.325   6.050   2.560  0.9966  0.0412  0.2801
  224MOL0     N30825   6.474   5.860   2.535 -0.6664 -0.6547 -0.0034
  224MOL0     N30826   6.412   5.769   2.461  0.2530 -0.0633 -0.7896
  224MOL0     C30827   6.355   4.720   3.008 -0.0482  0.8905 -0.6463
  224MOL0     C30828   6.438   4.621   3.063  0.4403 -0.0242 -0.0317
  224MOL0     C30829   6.776   4.384   3.203  0.4498 -0.1259  0.1454
  224MOL0     C30830   6.803   4.416   3.339  1.2656  0.2640  0.1838
  224MOL0     C30831   6.885   4.336   3.409 -0.6002 -0.3885  0.6290
  224MOL0     C30832   6.950   4.224   3.356 -1.0242 -0.5934  0.6936
  224MOL0     O30833   7.039   4.151   3.430  0.1681  0.7355  0.0902
  224MOL0     C30834   7.030   4.126   3.564  0.0889 -0.1894  0.1442
  224MOL0     C30835   7.156   4.066   3.623  0.1892 -0.1617 -0.1321
  224MOL0     C30836   7.279   4.152   3.593 -0.0955 -0.1387 -0.5151
  224MOL0     C30837   7.405   4.103   3.668 -0.1255 -0.4340  0.1857
  224MOL0     C30838   7.505   4.205   3.647 -0.4655  0.4537 -0.4858
  224MOL0     C30839   7.579   4.296   3.636  0.1726 -0.0416 -1.2436
  224MOL0     C30840   6.945   4.198   3.221 -0.1495 -0.4200 -0.6644
  224MOL0     C30841   6.856   4.277   3.142  0.1386 -1.1036 -0.5228
  224MOL0     C30842   6.842   4.247   2.999 -0.7846  0.2765  0.2179
  224MOL0     H30843   6.672   4.829   3.202  1.5848 -0.2466 -0.9666
  224MOL0     H30844   6.503   4.997   3.125  1.0191  0.7858 -4.9646
  224MOL0     H30845   6.410   5.107   2.960  0.9728  0.8102  0.5117
  224MOL0     H30846   6.282   5.103   3.095  1.3368 -0.6081  0.7385
  224MOL0     H30847   6.109   5.138   2.936 -2.2990  1.6948 -2.7239
  224MOL0     H30848   6.224   5.273   2.938  0.3319  0.0103  1.1521
  224MOL0     H30849   6.272   5.060   2.735 -1.5546 -0.1757  1.7727
  224MOL0     H30850   6.136   5.163   2.700  0.2910  2.6544 -2.0560
  224MOL0     H30851   6.290   5.362   2.756  1.2310 -0.7891  3.6569
  224MOL0     H30852   6.425   5.258   2.767 -1.3281 -1.3672  1.0371
  224MOL0     H30853   6.250   5.268   2.515 -1.5877 -4.3750  1.9723
  224MOL0     H30854   6.408   5.185   2.545  1.1637  0.8561  0.3698
  224MOL0     H30855   6.435   5.468   2.606  0.1839 -2.8686  3.2198
  224MOL0     H30856   6.539   5.358   2.523  0.3179 -0.3909  3.6319
  224MOL0     H30857   6.273   5.489   2.423 -0.7679 -3.3336  0.7800
  224MOL0     H30858   6.385   5.381   2.324  3.0913  2.7745 -1.8141
  224MOL0     H30859   6.547   5.511   2.313 -0.6837 -1.7224 -0.5843
  224MOL0     H30860   6.406   5.615   2.271  0.8716 -0.8824  0.0179
  224MOL0     H30861   6.711   5.632   2.508  1.7473  1.9756 -2.8139
  224MOL0     H30862   6.654   5.841   2.775  2.2532  0.9712  1.3582
  224MOL0     H30863   6.691   5.976   2.684 -0.7915  0.0029  0.4565
  224MOL0     H30864   6.889   5.869   2.781  2.9433 -0.7476 -1.4835
  224MOL0     H30865   6.862   5.725   2.675 -3.6870 -1.1271 -2.2893
  224MOL0     H30866   6.895   5.845   2.468  0.4580  2.1607 -0.4651
  224MOL0     H30867   6.877   5.997   2.542 -1.7694  0.0840 -0.0253
  224MOL0     H30868   7.100   5.951   2.666  0.7512  0.8511 -0.4994
  224MOL0     H30869   7.085   5.787   2.617 -0.2863  1.2606  5.6126
  224MOL0     H30870   7.137   6.138   2.308 -1.6316 -2.7900  2.1839
  224MOL0     H30871   7.117   6.363   2.298 -0.8875 -0.5932  1.8551
  224MOL0     H30872   7.279   6.431   2.267  2.6861 -1.0133  1.7435
  224MOL0     H30873   7.189   6.481   2.415 -3.9744 -1.4053 -0.4180
  224MOL0     H30874   7.304   6.681   2.574 -1.3232 -0.1869  0.2499
  224MOL0     H30875   7.372   6.901   2.603  0.5863  2.1861  2.1315
  224MOL0     H30876   7.622   6.996   2.950 -0.6516  1.2740 -1.0183
  224MOL0     H30877   7.755   6.973   2.842  1.5922  2.6471  2.8971
  224MOL0     H30878   7.691   7.194   2.734 -0.0238 -0.5273  0.3006
  224MOL0     H30879   7.629   7.242   2.889 -0.2852  0.1199 -1.3647
  224MOL0     H30880   7.853   7.312   2.887  0.6910 -0.4907 -1.4060
  224MOL0     H30881   7.916   7.146   2.867 -0.9847 -2.3306  0.2933
  224MOL0     H30882   7.769   7.104   3.087  0.1607 -0.2624 -1.2337
  224MOL0     H30883   7.778   7.276   3.106  0.3908  0.8113 -0.5189
  224MOL0     H30884   8.026   7.107   3.064  0.2041 -0.3121  0.6800
  224MOL0     H30885   8.032   7.279   3.077 -1.3671  0.1572 -1.9456
  224MOL0     H30886   7.930   7.123   3.306 -3.8078  0.3660 -3.1718
  224MOL0     H30887   7.936   7.300   3.277  0.1641 -0.5792 -0.7663
  224MOL0     H30888   8.206   7.243   3.238  0.3087  2.5701  0.1664
  224MOL0     H30889   8.172   7.114   3.354 -5.7484 -0.6064  3.6785
  224MOL0     H30890   8.180   7.405   3.393  2.4539  0.1077  0.0799
  224MOL0     H30891   8.239   7.270   3.488  1.1384  3.4617 -0.0452
  224MOL0     H30892   7.687   6.778   2.864  1.8242 -2.0348  0.0714
  224MOL0     H30893   7.622   6.541   2.835  0.3266  0.0396 -0.0885
  224MOL0     H30894   7.494   6.159   2.643 -0.0239 -4.9652  0.4564
  224MOL0     H30895   7.339   5.965   2.627 -1.1123 -0.9043 -0.4000
  224MOL0     H30896   6.276   4.670   2.953 -1.7447  1.9423  0.7091
  224MOL0     H30897   6.418   4.514   3.058  0.7696 -0.1813  1.4603
  224MOL0     H30898   6.754   4.495   3.395  2.1356  0.7636  0.2549
  224MOL0     H30899   6.892   4.373   3.510 -0.4518 -0.1040  0.5156
  224MOL0     H30900   7.016   4.224   3.611  1.0628  0.8152 -1.5427
  224MOL0     H30901   6.945   4.062   3.588 -1.5257  2.6969  2.9140
  224MOL0     H30902   7.175   3.968   3.578 -0.0281  0.6863 -2.1637
  224MOL0     H30903   7.134   4.069   3.730  0.6613 -1.2687  0.0114
  224MOL0     H30904   7.291   4.162   3.485 -1.2359  0.6442 -0.5939
  224MOL0     H30905   7.257   4.251   3.634  2.3819 -0.9518  3.3454
  224MOL0     H30906   7.443   4.002   3.647  3.3057  0.7928 -0.1144
  224MOL0     H30907   7.371   4.111   3.771 -2.6178  0.8556 -0.6632
  224MOL0     H30908   7.625   4.392   3.623  0.4504 -0.2028 -1.4636
  224MOL0     H30909   6.995   4.108   3.186 -2.1772 -2.9015  2.2770
  224MOL0     H30910   6.888   4.325   2.939 -2.1699  2.2557  1.5971
  224MOL0     H30911   6.894   4.151   2.997  1.5918  1.3626  3.1192
  224MOL0     H30912   6.741   4.228   2.961  0.8622 -0.1203 -4.6217
  225MOL0     O30913   3.438   4.886   8.977  0.0208 -0.0093 -0.4854
  225MOL0     C30914   3.355   4.955   9.035 -0.0702  0.6549 -0.6104
  225MOL0     O30915   3.377   5.040   9.134 -0.2543 -0.3328 -0.1412
  225MOL0     C30916   3.489   5.003   9.215  0.6192  0.5108  0.3796
  225MOL0     C30917   3.508   4.879   9.278 -0.1452  0.2528  0.3302
  225MOL0     C30918   3.621   4.847   9.344  0.8171 -0.5714 -0.2281
  225MOL0     C30919   3.699   4.959   9.374 -1.1167  0.4817 -0.4942
  225MOL0     O30920   3.805   4.916   9.457  0.9304 -0.1402  0.1223
  225MOL0     C30921   3.845   5.006   9.552  0.0429 -0.3136 -0.0648
  225MOL0     C30922   3.964   4.955   9.630 -0.2419 -0.0218 -1.0212
  225MOL0     C30923   4.061   4.875   9.547 -0.5933 -0.5550  0.5888
  225MOL0     C30924   4.187   4.831   9.619  0.4690 -0.3719  0.0038
  225MOL0     C30925   4.270   4.754   9.524  0.0910 -0.0842 -0.7865
  225MOL0     C30926   4.424   4.745   9.556  0.3501  0.2745 -0.7434
  225MOL0     C30927   4.495   4.714   9.424  0.4645 -1.4378 -0.0638
  225MOL0     C30928   4.645   4.728   9.455 -0.4155  0.0030 -0.0217
  225MOL0     N30929   4.693   4.610   9.531  0.0204  0.5795 -0.4547
  225MOL0     C30930   4.680   4.473   9.504  0.2055  0.8145  0.5268
  225MOL0     C30931   4.741   4.413   9.607 -0.0373  0.1767  0.7454
  225MOL0     C30932   4.766   4.262   9.634 -0.0143  0.4767  0.0670
  225MOL0     C30933   4.707   4.218   9.769 -0.2122  0.6981  0.1661
  225MOL0     C30934   4.728   4.065   9.795  0.2339 -0.1626  0.1894
  225MOL0     C30935   4.630   3.981   9.714  0.6151  0.5364 -0.4953
  225MOL0     O30936   4.517   3.952   9.798  0.0866  0.1262  0.3193
  225MOL0     C30937   4.430   3.852   9.748  0.1672 -0.7175 -0.0824
  225MOL0     C30938   4.445   3.762   9.642 -0.9975  0.4582  1.1245
  225MOL0     C30939   4.348   3.672   9.594  0.9031 -0.1913 -0.3774
  225MOL0     C30940   4.378   3.580   9.476  0.1114  0.0028  0.8286
  225MOL0     C30941   4.221   3.671   9.659 -0.0725  0.3251 -0.7617
  225MOL0     C30942   4.106   3.578   9.622 -0.1706 -0.6470 -0.6078
  225MOL0     O30943   3.992   3.600   9.691  0.5032  0.0806 -0.2151
  225MOL0     C30944   3.888   3.514   9.666  0.7750 -0.3085 -0.3839
  225MOL0     C30945   3.758   3.570   9.639  0.4750 -0.2102  0.0741
  225MOL0     C30946   3.642   3.485   9.627 -0.3582 -0.2162  0.0352
  225MOL0     C30947   3.657   3.344   9.645 -0.3315  0.2405 -0.3237
  225MOL0     O30948   3.564   3.248   9.623 -0.1724  0.2118 -0.8677
  225MOL0     C30949   3.433   3.296   9.643 -0.3269 -0.7402 -0.1049
  225MOL0     C30950   3.340   3.193   9.709 -0.0527  0.4002 -0.3352
  225MOL0     C30951   3.333   3.050   9.647 -0.1813 -0.6676  1.5306
  225MOL0     C30952   3.270   3.043   9.504 -0.4645 -0.7795 -0.2214
  225MOL0     C30953   3.213   2.903   9.481 -0.2580  0.3490 -0.6118
  225MOL0     C30954   3.168   2.862   9.336 -0.6430  0.8170 -0.9490
  225MOL0     C30955   3.131   2.972   9.245 -0.0747 -0.7408  0.5015
  225MOL0     C30956   3.150   2.952   9.094 -0.5936 -0.3690 -0.2566
  225MOL0    Cl30957   3.074   2.799   9.019 -0.0824  0.2948 -0.6655
  225MOL0     C30958   3.783   3.295   9.667  0.1324  0.3654  0.7139
  225MOL0     C30959   3.897   3.376   9.684  0.0808  0.1039  0.2974
  225MOL0     O30960   4.125   3.489   9.541 -0.2133  0.1501  0.3408
  225MOL0     C30961   4.203   3.754   9.762  0.2235 -0.2732 -1.0556
  225MOL0     C30962   4.303   3.839   9.806  0.6006 -0.8105  0.2213
  225MOL0     N30963   4.784   4.509   9.697 -0.6632 -0.0695 -0.1971
  225MOL0     N30964   4.759   4.623   9.652  0.0706  0.4691 -0.5109
  225MOL0     C30965   3.674   5.090   9.328 -1.1134  1.0526 -0.1608
  225MOL0     C30966   3.570   5.109   9.252  0.0411  0.1276  0.0162
  225MOL0     C30967   3.225   4.969   8.972 -0.5534  0.0987  0.1706
  225MOL0     C30968   3.179   5.096   8.956 -0.2962 -0.9752 -0.2349
  225MOL0     C30969   3.055   5.124   8.908  0.9401  0.2041 -0.8127
  225MOL0     C30970   2.975   5.018   8.868  0.5582 -0.8938  0.1732
  225MOL0     O30971   2.855   5.028   8.806  0.0227 -0.3546 -0.2406
  225MOL0     C30972   2.759   5.128   8.849 -0.1876  0.2571  0.4601
  225MOL0     C30973   2.734   5.240   8.749  0.1935 -0.4297 -0.0578
  225MOL0     C30974   2.598   5.310   8.761  0.7623  0.1408  0.9610
  225MOL0     C30975   2.575   5.383   8.895 -0.6915 -0.3472 -0.7643
  225MOL0     C30976   2.441   5.436   8.915 -0.0801 -0.1470  0.4557
  225MOL0     C30977   2.335   5.490   8.940  0.3315 -0.2558  0.6042
  225MOL0     C30978   3.024   4.888   8.879 -0.2699  0.0292 -0.4269
  225MOL0     C30979   3.149   4.859   8.922 -0.2875 -0.3668 -0.2794
  225MOL0     C30980   3.200   4.723   8.939  0.0132 -0.0921  0.2156
  225MOL0     H30981   3.442   4.799   9.246  0.4567 -0.5691  1.0798
  225MOL0     H30982   3.639   4.749   9.388  1.2990 -0.2937  0.1943
  225MOL0     H30983   3.760   5.036   9.615 -1.7406 -0.0374 -2.4602
  225MOL0     H30984   3.880   5.102   9.513 -1.8808  0.2252 -0.5725
  225MOL0     H30985   4.001   5.054   9.661 -1.9001  0.7038 -1.2709
  225MOL0     H30986   3.931   4.903   9.720 -2.6215  2.2788 -0.4290
  225MOL0     H30987   4.010   4.785   9.512 -1.1035 -0.3808  0.8723
  225MOL0     H30988   4.092   4.935   9.461  0.7525 -0.0692  1.3698
  225MOL0     H30989   4.245   4.920   9.647 -0.7834 -0.1684  2.1131
  225MOL0     H30990   4.153   4.773   9.705 -1.9957 -1.1983 -1.4099
  225MOL0     H30991   4.260   4.806   9.428  0.9778  0.3140 -0.6804
  225MOL0     H30992   4.240   4.650   9.511  1.7979 -0.3883 -2.9335
  225MOL0     H30993   4.460   4.841   9.592  1.5523  0.0109 -1.1818
  225MOL0     H30994   4.446   4.672   9.634  3.3829  2.2042  0.3871
  225MOL0     H30995   4.473   4.783   9.342 -0.3833 -1.0200  0.4948
  225MOL0     H30996   4.460   4.615   9.393  0.4359 -2.1012  1.9421
  225MOL0     H30997   4.704   4.734   9.363 -1.6778  0.1544 -0.8418
  225MOL0     H30998   4.652   4.824   9.507 -1.4967  0.1757 -0.1616
  225MOL0     H30999   4.622   4.435   9.420 -1.1082  0.3128  1.6233
  225MOL0     H31000   4.872   4.237   9.625  0.3636  1.9374  0.2085
  225MOL0     H31001   4.710   4.212   9.555 -0.6692 -0.8619  1.3341
  225MOL0     H31002   4.775   4.266   9.841  0.4368 -2.4181  1.7960
  225MOL0     H31003   4.603   4.251   9.773 -0.0750  2.2025 -3.8913
  225MOL0     H31004   4.829   4.029   9.777  0.2128  0.9868 -2.8834
  225MOL0     H31005   4.703   4.054   9.901 -0.7907  2.5008  0.3057
  225MOL0     H31006   4.588   4.027   9.624 -0.4427 -0.3006 -0.4523
  225MOL0     H31007   4.677   3.886   9.684 -1.7845 -1.8850  2.7169
  225MOL0     H31008   4.543   3.739   9.601 -1.1206 -3.4911  2.5793
  225MOL0     H31009   4.388   3.475   9.504  5.1628  0.8280  3.3991
  225MOL0     H31010   4.468   3.609   9.421 -0.2999 -0.3019 -0.0111
  225MOL0     H31011   4.295   3.599   9.407 -1.4686 -1.3390  2.2723
  225MOL0     H31012   3.763   3.678   9.628  0.5242 -0.2910 -0.7651
  225MOL0     H31013   3.552   3.532   9.588  0.4621  1.6097  0.2384
  225MOL0     H31014   3.432   3.377   9.717 -1.2211  0.5588 -1.4947
  225MOL0     H31015   3.384   3.330   9.552  1.0045  1.8285  0.0563
  225MOL0     H31016   3.351   3.187   9.818 -0.3324  1.2268 -0.2551
  225MOL0     H31017   3.243   3.236   9.683 -0.8901 -1.5070 -0.5669
  225MOL0     H31018   3.281   2.989   9.721 -3.7695  2.5595  1.9868
  225MOL0     H31019   3.435   3.010   9.636  0.7237  1.7035  0.7827
  225MOL0     H31020   3.345   3.068   9.427 -0.1420  0.1227  0.3714
  225MOL0     H31021   3.194   3.121   9.505 -0.0843 -0.4037 -0.2211
  225MOL0     H31022   3.284   2.823   9.505 -1.2919 -0.1820  0.7781
  225MOL0     H31023   3.127   2.888   9.546 -0.0806  1.7296 -0.0161
  225MOL0     H31024   3.105   2.772   9.339 -1.4324  1.3945  0.4841
  225MOL0     H31025   3.262   2.832   9.288  0.0378  1.4955 -0.0670
  225MOL0     H31026   3.186   3.063   9.272 -3.4374  0.9646  2.3230
  225MOL0     H31027   3.028   2.991   9.279  0.4606  2.4132  0.6583
  225MOL0     H31028   3.259   2.950   9.090 -0.2356  3.6894  1.9858
  225MOL0     H31029   3.115   3.042   9.043  0.5517  1.3535  1.8210
  225MOL0     H31030   3.791   3.188   9.677 -0.1319 -0.1382 -3.0723
  225MOL0     H31031   3.993   3.331   9.706  0.3102  0.6830  0.4957
  225MOL0     H31032   4.111   3.762   9.819  1.3460  1.6928  0.6584
  225MOL0     H31033   4.273   3.900   9.890 -0.9065 -1.3475  0.1037
  225MOL0     H31034   3.744   5.166   9.360 -1.0451  0.8881  0.0830
  225MOL0     H31035   3.550   5.213   9.228  0.0720 -0.1806 -1.4421
  225MOL0     H31036   3.228   5.190   8.977 -1.5668 -0.0121 -1.4298
  225MOL0     H31037   3.010   5.222   8.921 -0.6057 -0.4967 -0.6716
  225MOL0     H31038   2.666   5.072   8.865 -0.3353  0.4381  0.2295
  225MOL0     H31039   2.802   5.168   8.942  3.2738  0.4684 -1.0694
  225MOL0     H31040   2.741   5.197   8.648 -4.1120  0.5136 -0.9541
  225MOL0     H31041   2.811   5.318   8.756  1.3955 -1.5304 -0.5367
  225MOL0     H31042   2.597   5.382   8.679 -0.8634 -0.5333  0.3523
  225MOL0     H31043   2.520   5.234   8.754 -1.5693  2.3846  0.9232
  225MOL0     H31044   2.647   5.466   8.895  0.0936 -1.0017  0.2794
  225MOL0     H31045   2.596   5.309   8.972 -1.0115 -0.6800 -0.9933
  225MOL0     H31046   2.235   5.524   8.954  0.2037 -0.6653  0.6681
  225MOL0     H31047   2.952   4.810   8.857 -0.3554  0.0846 -0.3431
  225MOL0     H31048   3.129   4.644   8.911  0.2021 -0.8996  1.8821
  225MOL0     H31049   3.288   4.707   8.878 -2.6721 -5.0409 -3.0258
  225MOL0     H31050   3.220   4.698   9.044  0.6754 -2.2298 -0.3660
  226MOL0     O31051   4.148   4.209   1.081 -0.4809 -0.8053  0.0248
  226MOL0     C31052   4.173   4.184   0.964 -0.0530  0.7615 -0.0320
  226MOL0     O31053   4.092   4.215   0.859  0.6462 -0.4104  0.2126
  226MOL0     C31054   3.967   4.273   0.876 -0.4018  0.1931 -1.0484
  226MOL0     C31055   3.891   4.282   0.995  0.3180 -0.0632 -0.6262
  226MOL0     C31056   3.761   4.343   0.999  0.5737  0.8902  0.4120
  226MOL0     C31057   3.709   4.379   0.872  0.3889  0.8911  0.6424
  226MOL0     O31058   3.587   4.448   0.852  0.4367 -0.2030  0.5966
  226MOL0     C31059   3.526   4.511   0.963 -0.5267  1.3291 -0.5098
  226MOL0     C31060   3.412   4.602   0.918  0.0002 -0.1433 -0.1027
  226MOL0     C31061   3.311   4.521   0.834 -0.3437  0.1497  1.3694
  226MOL0     C31062   3.190   4.599   0.777  0.6508 -0.1322  0.0247
  226MOL0     C31063   3.154   4.556   0.634 -0.5746 -0.3426 -0.7436
  226MOL0     C31064   3.011   4.581   0.583  0.6088  0.6878 -0.2677
  226MOL0     C31065   2.991   4.576   0.437  0.2608 -0.7668  0.9544
  226MOL0     C31066   2.842   4.591   0.399  0.6270  0.6376  0.1246
  226MOL0     N31067   2.809   4.672   0.280  0.5438  0.1308 -0.5112
  226MOL0     C31068   2.869   4.657   0.167 -0.3126  0.0787 -0.4973
  226MOL0     C31069   2.820   4.757   0.082  0.0326 -0.1997 -0.4190
  226MOL0     C31070   2.879   4.770  -0.048  0.2799  0.0215  0.5368
  226MOL0     C31071   2.790   4.705  -0.160  0.7422 -0.1553 -0.4768
  226MOL0     C31072   2.866   4.691  -0.290 -0.3557 -0.2282  0.0117
  226MOL0     C31073   2.912   4.820  -0.364 -0.1205  0.6878 -0.0154
  226MOL0     O31074   3.038   4.782  -0.414  0.1043  0.5409 -0.1304
  226MOL0     C31075   3.030   4.742  -0.544 -1.2295  0.2557 -0.2203
  226MOL0     C31076   3.006   4.611  -0.579  0.0132  0.3881  0.1857
  226MOL0     C31077   2.970   4.567  -0.710  0.1484  0.2306  0.4693
  226MOL0     C31078   2.956   4.424  -0.733  0.0869  0.5886 -0.4854
  226MOL0     C31079   2.955   4.660  -0.819  0.5510  0.1366 -0.6702
  226MOL0     C31080   2.927   4.629  -0.962 -0.2634  0.2245 -0.1316
  226MOL0     O31081   2.882   4.508  -1.004 -0.2711  0.7592  0.1382
  226MOL0     C31082   2.896   4.470  -1.133  0.7098  0.3192  0.2541
  226MOL0     C31083   2.992   4.376  -1.175  0.8864 -0.9640  0.2937
  226MOL0     C31084   3.002   4.332  -1.310  0.1852 -0.0726  0.3211
  226MOL0     C31085   2.919   4.384  -1.409 -0.4713 -0.7237 -0.2308
  226MOL0     O31086   2.916   4.344  -1.537 -0.6418  0.4292  0.5357
  226MOL0     C31087   3.036   4.398  -1.606 -0.2390 -0.2043 -0.5218
  226MOL0     C31088   3.034   4.555  -1.634 -0.5904 -0.2979 -0.9366
  226MOL0     C31089   2.933   4.613  -1.731 -0.6798  0.3157  0.1096
  226MOL0     C31090   2.934   4.764  -1.730 -1.1004  0.0282 -0.3353
  226MOL0     C31091   2.811   4.818  -1.799 -0.2463  1.0154  0.0058
  226MOL0     C31092   2.809   4.972  -1.782  0.2833 -1.3420  0.0326
  226MOL0     C31093   2.711   5.043  -1.877  0.4143  0.4000  0.8761
  226MOL0     C31094   2.618   5.136  -1.796 -0.3150  0.3927  0.7295
  226MOL0    Cl31095   2.506   5.239  -1.889 -0.0011 -0.2282  0.1913
  226MOL0     C31096   2.825   4.482  -1.364  0.1107 -0.1897  0.1864
  226MOL0     C31097   2.813   4.522  -1.235  0.5358 -0.6266  0.0024
  226MOL0     O31098   2.952   4.723  -1.035 -0.0482  0.0829 -0.2287
  226MOL0     C31099   2.958   4.798  -0.772  0.2385  0.0418  0.0396
  226MOL0     C31100   3.005   4.834  -0.647 -0.1483 -0.2600 -0.3919
  226MOL0     N31101   2.724   4.823   0.145 -1.2584 -0.6166 -0.3552
  226MOL0     N31102   2.711   4.763   0.268 -0.1390 -0.2291 -0.0162
  226MOL0     C31103   3.775   4.358   0.748 -0.1467  0.2296 -0.4659
  226MOL0     C31104   3.904   4.303   0.751 -0.2878 -0.8440 -0.0873
  226MOL0     C31105   4.310   4.126   0.956  0.3827 -0.8074  0.1993
  226MOL0     C31106   4.372   4.111   0.830  0.5228 -0.8097 -1.3977
  226MOL0     C31107   4.499   4.065   0.798  1.1074  0.9625  0.3076
  226MOL0     C31108   4.582   4.026   0.905  0.2891  0.8156  0.3650
  226MOL0     O31109   4.708   3.983   0.900 -0.1802  0.0745 -0.9643
  226MOL0     C31110   4.803   4.064   0.828 -0.5664 -0.6601 -0.5401
  226MOL0     C31111   4.840   4.181   0.919  0.1711 -0.4518  0.9246
  226MOL0     C31112   4.953   4.262   0.856  0.3243  0.1469 -1.1355
  226MOL0     C31113   5.082   4.185   0.868 -1.3300 -0.7879 -0.2931
  226MOL0     C31114   5.183   4.262   0.785 -0.0532  0.1409 -0.7044
  226MOL0     C31115   5.248   4.324   0.703  0.5274  0.2106 -0.5060
  226MOL0     C31116   4.525   4.029   1.034  0.1505 -0.8181  0.2160
  226MOL0     C31117   4.390   4.075   1.066  0.0094  0.0833 -0.4042
  226MOL0     C31118   4.357   4.075   1.216  0.2100  0.4873 -0.8995
  226MOL0     H31119   3.925   4.246   1.091  0.0468  2.9178  0.7059
  226MOL0     H31120   3.714   4.346   1.097  2.5048  0.9758  1.3724
  226MOL0     H31121   3.597   4.554   1.033 -0.1811  2.3463 -1.4584
  226MOL0     H31122   3.484   4.433   1.028  1.3274  1.8009  1.3433
  226MOL0     H31123   3.368   4.633   1.013  0.2808 -5.5614  2.1528
  226MOL0     H31124   3.447   4.681   0.851 -1.1393  1.1702  0.8163
  226MOL0     H31125   3.354   4.466   0.749 -2.9971  3.0871 -2.2260
  226MOL0     H31126   3.273   4.450   0.908 -1.2935 -1.5639 -0.6531
  226MOL0     H31127   3.100   4.596   0.839  1.0789  0.9423  0.7426
  226MOL0     H31128   3.217   4.705   0.773  0.1549 -0.0441 -1.2331
  226MOL0     H31129   3.173   4.449   0.623  1.4828 -0.4372  2.4986
  226MOL0     H31130   3.221   4.620   0.578 -1.4174  3.3216  2.0329
  226MOL0     H31131   2.946   4.505   0.627  1.3923  0.5043  0.6026
  226MOL0     H31132   2.980   4.681   0.612 -0.9740  0.2257 -0.2824
  226MOL0     H31133   3.037   4.487   0.393 -0.7538 -0.2158 -1.3567
  226MOL0     H31134   3.052   4.652   0.386 -1.8564 -0.3271 -1.0800
  226MOL0     H31135   2.792   4.495   0.387 -0.2680  0.6316  3.2599
  226MOL0     H31136   2.788   4.648   0.475  2.5544  2.1090  0.4952
  226MOL0     H31137   2.940   4.581   0.135 -1.2887 -0.2547 -1.9269
  226MOL0     H31138   2.977   4.724  -0.036  0.7313  1.1504  1.3528
  226MOL0     H31139   2.892   4.877  -0.067  1.3763 -0.4582 -1.6818
  226MOL0     H31140   2.754   4.606  -0.131  1.0441 -0.2241 -0.3333
  226MOL0     H31141   2.707   4.774  -0.180  0.9100 -0.4749 -2.3961
  226MOL0     H31142   2.964   4.658  -0.256  0.8226  2.3568 -0.6140
  226MOL0     H31143   2.819   4.626  -0.364  0.0639  0.3321 -0.7635
  226MOL0     H31144   2.827   4.845  -0.429  0.2458  0.8597 -0.4312
  226MOL0     H31145   2.909   4.906  -0.297 -0.3708 -0.6187  1.7180
  226MOL0     H31146   3.022   4.552  -0.490  1.1877 -0.8326 -0.7848
  226MOL0     H31147   2.851   4.399  -0.713 -0.6366  1.5707 -2.7238
  226MOL0     H31148   3.015   4.361  -0.666 -2.7917  0.2831  2.0041
  226MOL0     H31149   2.975   4.382  -0.832 -0.6232 -0.9792 -0.0022
  226MOL0     H31150   3.062   4.338  -1.102  1.9415  0.0577 -0.1600
  226MOL0     H31151   3.073   4.260  -1.349 -2.3319 -1.3268 -2.3410
  226MOL0     H31152   3.129   4.369  -1.556 -0.2633  2.0585  1.0114
  226MOL0     H31153   3.037   4.351  -1.705 -1.2572  0.3288 -0.8010
  226MOL0     H31154   3.013   4.598  -1.536 -2.4692  1.4783 -2.0428
  226MOL0     H31155   3.136   4.575  -1.669 -0.7598 -1.4901 -2.2179
  226MOL0     H31156   2.831   4.591  -1.698 -1.2143  0.8823 -1.1096
  226MOL0     H31157   2.947   4.575  -1.833 -2.1756 -1.4750  0.5144
  226MOL0     H31158   3.025   4.792  -1.784  1.0223  0.6082  3.2062
  226MOL0     H31159   2.942   4.778  -1.622  0.1524 -1.5653 -0.1871
  226MOL0     H31160   2.800   4.775  -1.899  2.4105 -1.6073  0.6890
  226MOL0     H31161   2.729   4.778  -1.737 -2.0326  0.4468 -2.5585
  226MOL0     H31162   2.910   5.004  -1.808  1.2883 -3.3752  1.1578
  226MOL0     H31163   2.803   4.995  -1.675  0.9927 -1.5290  0.1152
  226MOL0     H31164   2.644   4.980  -1.938  0.1352  0.8497  0.7102
  226MOL0     H31165   2.776   5.093  -1.949  1.9734 -2.3335  0.2507
  226MOL0     H31166   2.678   5.203  -1.734  1.2928 -1.0328  0.7920
  226MOL0     H31167   2.566   5.063  -1.732  1.1637 -2.6486 -1.2702
  226MOL0     H31168   2.758   4.524  -1.438  2.4075  3.1389 -0.2010
  226MOL0     H31169   2.741   4.599  -1.212  2.6869  0.7612  2.7133
  226MOL0     H31170   2.942   4.875  -0.847 -0.0950 -1.7129 -1.7896
  226MOL0     H31171   3.020   4.939  -0.624 -1.5958  0.1087 -1.0033
  226MOL0     H31172   3.749   4.395   0.649 -1.6998 -2.2511 -1.0877
  226MOL0     H31173   3.948   4.269   0.658 -0.0174  1.2715 -0.7950
  226MOL0     H31174   4.319   4.150   0.743  0.5651 -0.2422 -1.1730
  226MOL0     H31175   4.533   4.076   0.696  0.8330  3.9250  0.4671
  226MOL0     H31176   4.887   4.010   0.783 -1.2707 -1.8546 -0.4450
  226MOL0     H31177   4.755   4.119   0.747  0.9321  0.6906 -0.5671
  226MOL0     H31178   4.883   4.146   1.014  1.3747  1.5642  1.1837
  226MOL0     H31179   4.761   4.250   0.950  0.6390  0.6018 -0.1446
  226MOL0     H31180   4.927   4.278   0.751 -1.4264  0.5080 -0.6817
  226MOL0     H31181   4.970   4.352   0.916 -4.1099  0.4730  0.0003
  226MOL0     H31182   5.070   4.078   0.847 -2.6057 -0.9976  1.3495
  226MOL0     H31183   5.111   4.188   0.973 -0.6916  0.0670 -0.4750
  226MOL0     H31184   5.299   4.396   0.642 -0.3314 -1.6759 -3.7393
  226MOL0     H31185   4.591   4.002   1.116  0.2563 -0.3551  0.2883
  226MOL0     H31186   4.428   4.014   1.274 -1.4786  0.5171  1.3179
  226MOL0     H31187   4.362   4.174   1.262 -0.8340 -0.7330  2.1240
  226MOL0     H31188   4.257   4.037   1.237 -0.9536  1.8534 -3.5007
  227MOL0     O31189   7.439   5.907   3.675 -0.6223  0.7522  0.3445
  227MOL0     C31190   7.443   5.860   3.559  0.6910  0.3126 -0.1766
  227MOL0     O31191   7.465   5.932   3.452  0.0856  0.3435 -0.7536
  227MOL0     C31192   7.483   6.069   3.460  0.7483 -0.2146 -0.0121
  227MOL0     C31193   7.377   6.151   3.520 -0.2768  0.2239 -0.7166
  227MOL0     C31194   7.399   6.279   3.541 -0.1844  0.3177 -1.2690
  227MOL0     C31195   7.530   6.337   3.508 -0.4954 -0.8421  0.2385
  227MOL0     O31196   7.547   6.474   3.515 -0.1683  0.0175 -0.6327
  227MOL0     C31197   7.479   6.540   3.627 -0.3243 -0.2334  0.3852
  227MOL0     C31198   7.352   6.604   3.563  0.7553 -0.3106 -1.0444
  227MOL0     C31199   7.243   6.650   3.663  1.0181 -0.6801  0.2082
  227MOL0     C31200   7.171   6.537   3.743 -0.0475  0.6242  0.9095
  227MOL0     C31201   7.067   6.595   3.849 -0.2141  0.0075  1.1277
  227MOL0     C31202   7.140   6.630   3.982  0.0685 -0.2808  0.5271
  227MOL0     C31203   7.063   6.726   4.064 -0.2980  0.3623 -0.4544
  227MOL0     C31204   7.130   6.761   4.191 -0.0553 -0.2779 -0.3404
  227MOL0     N31205   7.149   6.643   4.283 -0.3841  0.0337  0.1549
  227MOL0     C31206   7.057   6.575   4.351 -0.4904  0.5127  0.4708
  227MOL0     C31207   7.124   6.468   4.396  0.2439  0.0704  0.4227
  227MOL0     C31208   7.064   6.363   4.495 -0.1501  0.7286 -0.6425
  227MOL0     C31209   6.926   6.301   4.456  0.5130 -0.3819 -0.2121
  227MOL0     C31210   6.946   6.230   4.319 -0.4494 -0.2882  0.3587
  227MOL0     C31211   6.829   6.152   4.280 -0.4999  0.5966 -0.2032
  227MOL0     O31212   6.794   6.048   4.368 -0.1163  0.6692 -0.0476
  227MOL0     C31213   6.803   5.919   4.313  0.3094 -0.5372  0.2987
  227MOL0     C31214   6.928   5.851   4.308 -0.4575 -0.5804 -0.7254
  227MOL0     C31215   6.940   5.725   4.249 -0.5101 -0.1117 -0.6612
  227MOL0     C31216   7.081   5.676   4.246 -0.3637 -0.8986  1.1736
  227MOL0     C31217   6.823   5.659   4.206  0.2970 -0.1368  0.1330
  227MOL0     C31218   6.824   5.519   4.154  0.3511  0.5975  0.2319
  227MOL0     O31219   6.711   5.479   4.085  0.2025  0.3286 -0.2744
  227MOL0     C31220   6.704   5.351   4.037 -0.4872 -1.3402  0.0617
  227MOL0     C31221   6.792   5.301   3.940  0.3599  0.3475 -0.3701
  227MOL0     C31222   6.789   5.163   3.914  0.4132 -0.4797  0.5984
  227MOL0     C31223   6.699   5.085   3.986 -0.9155  0.2021  0.3493
  227MOL0     O31224   6.682   4.950   3.967  0.8437 -0.2203 -0.4927
  227MOL0     C31225   6.745   4.901   3.843  0.5671  0.6237 -0.0555
  227MOL0     C31226   6.708   4.754   3.817 -0.1048  1.2889  0.2594
  227MOL0     C31227   6.562   4.718   3.819  0.5367  0.8412 -0.5492
  227MOL0     C31228   6.470   4.780   3.719 -0.2485 -0.5975 -0.4156
  227MOL0     C31229   6.319   4.738   3.734  0.5242 -1.2785  0.2595
  227MOL0     C31230   6.240   4.838   3.816 -0.0081  0.1489 -0.2987
  227MOL0     C31231   6.092   4.819   3.816  0.6358  0.5222  0.8543
  227MOL0     C31232   6.012   4.913   3.912  0.2231 -0.0134 -0.5041
  227MOL0    Cl31233   5.841   4.889   3.888  0.4005 -0.2760  0.1355
  227MOL0     C31234   6.601   5.139   4.064 -0.0322  0.8938 -0.1491
  227MOL0     C31235   6.605   5.271   4.093  0.0036  0.2755  0.1451
  227MOL0     O31236   6.928   5.456   4.171  1.4894 -0.7033  0.7587
  227MOL0     C31237   6.704   5.727   4.204 -0.5417  0.8260 -0.0727
  227MOL0     C31238   6.693   5.850   4.258  0.2235 -0.6773 -0.7503
  227MOL0     N31239   7.254   6.474   4.359  0.5320  0.8737 -0.3055
  227MOL0     N31240   7.270   6.585   4.288  1.0517 -0.3981 -0.3102
  227MOL0     C31241   7.629   6.257   3.444  0.5672  0.6727  0.1540
  227MOL0     C31242   7.606   6.125   3.421 -0.8588 -0.9064  1.0409
  227MOL0     C31243   7.395   5.718   3.543 -0.9246 -0.2759  0.1850
  227MOL0     C31244   7.481   5.642   3.456  0.3540 -0.4478  0.8745
  227MOL0     C31245   7.445   5.511   3.429  0.2852 -0.4881 -0.6197
  227MOL0     C31246   7.319   5.452   3.468 -0.4026 -0.2559  0.2228
  227MOL0     O31247   7.276   5.328   3.429 -0.3118  0.0519  0.0560
  227MOL0     C31248   7.301   5.301   3.292 -0.5591  0.9091  0.0602
  227MOL0     C31249   7.236   5.163   3.249  0.0337 -0.4411  0.3642
  227MOL0     C31250   7.308   5.039   3.306 -0.6428  0.1607  0.2638
  227MOL0     C31251   7.442   5.024   3.221  0.1187  0.0035  0.3943
  227MOL0     C31252   7.542   4.952   3.299 -0.1460  0.6933  0.5392
  227MOL0     C31253   7.635   4.884   3.340 -0.2148 -0.4435 -0.3029
  227MOL0     C31254   7.246   5.529   3.561  0.2955 -0.8554 -0.1433
  227MOL0     C31255   7.286   5.658   3.603  0.1918 -0.7680 -0.1892
  227MOL0     C31256   7.189   5.727   3.700  0.8258 -0.5162 -0.0576
  227MOL0     H31257   7.290   6.110   3.571 -0.1100  4.1137  3.2465
  227MOL0     H31258   7.332   6.323   3.614  1.3473 -0.3649  0.6178
  227MOL0     H31259   7.541   6.611   3.683  0.7925 -2.0968  1.6146
  227MOL0     H31260   7.454   6.464   3.701  2.9777 -3.7360 -1.7125
  227MOL0     H31261   7.378   6.684   3.493 -2.9316 -0.0875 -2.4039
  227MOL0     H31262   7.302   6.528   3.501 -1.8339 -0.6427  1.2695
  227MOL0     H31263   7.284   6.731   3.724 -0.4156  1.6844 -1.8034
  227MOL0     H31264   7.165   6.695   3.601  0.3931 -1.7256  0.2018
  227MOL0     H31265   7.119   6.471   3.672 -1.0236  1.6222  0.6634
  227MOL0     H31266   7.244   6.469   3.786  0.3245  0.0293 -0.6079
  227MOL0     H31267   6.987   6.528   3.881 -0.7880  1.5729  3.2200
  227MOL0     H31268   7.034   6.691   3.807  0.9735  0.6406  1.6028
  227MOL0     H31269   7.175   6.545   4.041 -2.7824  0.3296  3.3243
  227MOL0     H31270   7.223   6.698   3.960 -1.3435  1.8450  1.4893
  227MOL0     H31271   6.972   6.675   4.097  1.0115 -1.2478  0.9112
  227MOL0     H31272   7.050   6.812   3.999 -2.1535  0.7123  0.3358
  227MOL0     H31273   7.217   6.825   4.175 -0.8469  1.2398  1.1829
  227MOL0     H31274   7.053   6.814   4.248 -1.4922 -0.4493 -2.0421
  227MOL0     H31275   6.951   6.590   4.368 -0.3311 -0.5028  2.7493
  227MOL0     H31276   7.038   6.419   4.585  0.8594  0.8573 -0.4196
  227MOL0     H31277   7.141   6.288   4.513  1.1732  2.0442 -0.5928
  227MOL0     H31278   6.892   6.237   4.538  1.2507  1.2719  1.4518
  227MOL0     H31279   6.851   6.379   4.445  2.3960  1.7041  0.9016
  227MOL0     H31280   6.976   6.291   4.234 -0.8099 -1.7693 -0.8879
  227MOL0     H31281   7.031   6.160   4.319 -0.0856  0.1451 -0.4404
  227MOL0     H31282   6.743   6.219   4.271 -2.5373 -1.5865  1.7662
  227MOL0     H31283   6.849   6.108   4.181 -1.0265  0.3658 -0.2095
  227MOL0     H31284   7.013   5.897   4.358  1.3358 -1.6340 -2.6559
  227MOL0     H31285   7.097   5.599   4.323 -1.4226 -1.1702  1.1342
  227MOL0     H31286   7.155   5.754   4.267  1.8359 -1.5575 -2.9849
  227MOL0     H31287   7.098   5.646   4.142 -2.2138  0.5452  0.3972
  227MOL0     H31288   6.868   5.368   3.900  3.6466 -2.4130  0.7553
  227MOL0     H31289   6.857   5.122   3.840 -0.0087  1.8825 -1.2293
  227MOL0     H31290   6.713   4.956   3.754  2.3088  0.4405 -0.8453
  227MOL0     H31291   6.855   4.910   3.841  0.5253  1.1027 -0.5051
  227MOL0     H31292   6.745   4.722   3.719 -1.8641 -1.5974  0.4213
  227MOL0     H31293   6.757   4.696   3.896 -2.6784 -1.0974  0.2758
  227MOL0     H31294   6.521   4.736   3.919 -0.5214  0.6097 -0.9368
  227MOL0     H31295   6.573   4.612   3.796  1.0048  1.3064 -2.7385
  227MOL0     H31296   6.498   4.757   3.616  0.0548  1.3113 -0.8060
  227MOL0     H31297   6.477   4.889   3.726  3.2090 -0.8255  1.4410
  227MOL0     H31298   6.272   4.725   3.636 -1.0104 -1.8986  1.0518
  227MOL0     H31299   6.307   4.640   3.780 -1.9100  0.0194  2.6626
  227MOL0     H31300   6.266   4.937   3.775  0.9823  1.6575  3.4927
  227MOL0     H31301   6.279   4.833   3.918 -0.5723 -2.4669 -0.1402
  227MOL0     H31302   6.062   4.716   3.839 -3.8140  1.3813 -0.0548
  227MOL0     H31303   6.063   4.831   3.711  0.4700  0.0592  0.8435
  227MOL0     H31304   6.031   5.020   3.898 -0.6166  0.7663  3.1991
  227MOL0     H31305   6.038   4.883   4.014 -3.3318 -1.0349  0.2627
  227MOL0     H31306   6.523   5.081   4.112  1.0882 -0.5515 -0.0061
  227MOL0     H31307   6.532   5.322   4.155 -1.9419 -2.2766  0.1043
  227MOL0     H31308   6.613   5.689   4.159  0.6152 -1.8771 -0.3433
  227MOL0     H31309   6.596   5.898   4.260  0.8963  0.7339  0.2314
  227MOL0     H31310   7.720   6.303   3.407 -0.8704  3.4181 -0.2092
  227MOL0     H31311   7.677   6.050   3.387 -0.0869  0.4850 -0.5212
  227MOL0     H31312   7.579   5.678   3.427 -0.5267  1.4525  0.1209
  227MOL0     H31313   7.524   5.447   3.392 -0.4724 -1.0130 -1.3756
  227MOL0     H31314   7.264   5.381   3.228  2.5788  2.0986 -0.4873
  227MOL0     H31315   7.409   5.299   3.270 -0.8305 -2.0045 -1.5242
  227MOL0     H31316   7.239   5.150   3.141  1.9866 -1.7819  0.5300
  227MOL0     H31317   7.132   5.160   3.284  0.8598 -2.3446  2.9323
  227MOL0     H31318   7.328   5.054   3.413 -2.7588  0.6241  0.6406
  227MOL0     H31319   7.239   4.956   3.289  0.0529 -0.0621 -1.6523
  227MOL0     H31320   7.486   5.122   3.200 -2.0101  0.8654 -0.2875
  227MOL0     H31321   7.434   4.993   3.116  1.3783  1.4506 -0.1714
  227MOL0     H31322   7.720   4.830   3.373  1.5448 -0.0123 -3.6679
  227MOL0     H31323   7.163   5.476   3.607  1.1337 -2.1823 -0.1023
  227MOL0     H31324   7.222   5.825   3.736  1.6506 -1.6823  2.6282
  227MOL0     H31325   7.085   5.726   3.664 -0.6282  2.2553  3.4682
  227MOL0     H31326   7.189   5.668   3.792 -1.8590  0.1124  0.4398
  228MOL0     O31327   8.474   2.844   0.926  0.5337 -0.2738  0.3530
  228MOL0     C31328   8.440   2.790   0.816  0.3216 -0.7939 -0.5493
  228MOL0     O31329   8.317   2.721   0.803 -0.3865 -0.1077  0.3214
  228MOL0     C31330   8.237   2.699   0.905  1.0631 -0.4264 -0.4161
  228MOL0     C31331   8.274   2.632   1.019 -0.0059  1.0531 -0.5097
  228MOL0     C31332   8.193   2.608   1.131 -0.3844 -0.3340  0.7482
  228MOL0     C31333   8.068   2.662   1.121  0.6549 -0.0819 -0.0304
  228MOL0     O31334   7.975   2.645   1.221  0.2331  0.0930  0.2612
  228MOL0     C31335   8.023   2.603   1.346  0.0887 -0.7804 -0.7051
  228MOL0     C31336   7.927   2.667   1.448 -0.6582  0.1892  0.0482
  228MOL0     C31337   7.944   2.819   1.469 -0.5321  0.2137  0.3023
  228MOL0     C31338   7.864   2.867   1.588 -0.2910 -0.5295  0.9456
  228MOL0     C31339   7.889   3.020   1.604  0.5057  0.3170  0.3644
  228MOL0     C31340   8.022   3.041   1.680 -0.2425 -0.5074  0.7207
  228MOL0     C31341   8.063   3.190   1.701 -0.2877 -0.4152 -0.4094
  228MOL0     C31342   8.209   3.199   1.756  0.5336 -0.1987 -0.3381
  228MOL0     N31343   8.246   3.335   1.785 -0.2076 -0.7637  0.0544
  228MOL0     C31344   8.343   3.413   1.714  0.1170 -0.0314  0.1812
  228MOL0     C31345   8.370   3.519   1.790 -0.8755 -1.1551 -0.2254
  228MOL0     C31346   8.482   3.613   1.748 -0.0640  0.1886 -0.0728
  228MOL0     C31347   8.565   3.663   1.864  0.5308 -0.0635  0.1099
  228MOL0     C31348   8.670   3.566   1.915  0.2642  0.5575 -0.4336
  228MOL0     C31349   8.721   3.605   2.053 -0.0142 -0.9132  0.0536
  228MOL0     O31350   8.806   3.716   2.040 -0.5109  0.0778 -0.1150
  228MOL0     C31351   8.871   3.764   2.153 -0.6613  0.6818 -1.0831
  228MOL0     C31352   8.854   3.892   2.211  0.2800 -0.8178 -0.0465
  228MOL0     C31353   8.930   3.945   2.324 -0.4892  0.5727  0.3583
  228MOL0     C31354   8.917   4.089   2.370  0.4099 -0.1964 -0.4072
  228MOL0     C31355   9.019   3.852   2.383  0.0374  1.0113  0.2402
  228MOL0     C31356   9.102   3.887   2.500 -0.0582  0.5619  0.6854
  228MOL0     O31357   9.068   3.827   2.613  0.2815  0.6412 -0.8188
  228MOL0     C31358   9.135   3.858   2.724 -0.9996 -0.9330  0.0597
  228MOL0     C31359   9.237   3.776   2.783 -0.1560  0.4788 -0.1435
  228MOL0     C31360   9.307   3.818   2.897  0.4736  0.4183  0.2048
  228MOL0     C31361   9.279   3.939   2.952  0.0992 -0.9868 -0.3109
  228MOL0     O31362   9.333   3.985   3.073  0.0998  1.2826  0.7067
  228MOL0     C31363   9.436   3.911   3.140  1.4468  0.7779  0.3704
  228MOL0     C31364   9.507   4.013   3.231  0.2924 -0.0053  0.0305
  228MOL0     C31365   9.409   4.087   3.329 -1.8444  0.0491 -0.5425
  228MOL0     C31366   9.493   4.167   3.440 -0.4599 -0.1835 -0.6720
  228MOL0     C31367   9.408   4.250   3.543 -0.3465  0.0257  0.3003
  228MOL0     C31368   9.498   4.352   3.616  0.6890  0.4866  0.5945
  228MOL0     C31369   9.431   4.483   3.643  0.5715 -0.1043 -0.4399
  228MOL0     C31370   9.334   4.467   3.755  0.6805 -0.1905  0.3731
  228MOL0    Cl31371   9.305   4.633   3.820  0.0467  0.0924 -0.2690
  228MOL0     C31372   9.174   4.008   2.909 -0.7052 -0.0646  0.3090
  228MOL0     C31373   9.109   3.974   2.799  0.6611  0.0567  0.1170
  228MOL0     O31374   9.190   3.976   2.488 -0.3687  0.0489  0.3456
  228MOL0     C31375   9.052   3.728   2.321 -0.3529  0.2326 -0.8784
  228MOL0     C31376   8.978   3.693   2.211 -0.0453  0.4250  0.7403
  228MOL0     N31377   8.274   3.538   1.884 -0.9996  0.2093 -0.0335
  228MOL0     N31378   8.203   3.425   1.880  0.0521  0.0677 -0.4441
  228MOL0     C31379   8.016   2.736   1.013 -0.5124 -0.2167  0.2626
  228MOL0     C31380   8.105   2.756   0.910  0.8800 -0.5165  1.4656
  228MOL0     C31381   8.532   2.797   0.702 -0.0256 -0.0487  0.4715
  228MOL0     C31382   8.667   2.786   0.722  0.1870  0.6890  0.4912
  228MOL0     C31383   8.761   2.789   0.619  0.0441  0.0844  0.3242
  228MOL0     C31384   8.715   2.790   0.480 -0.4272 -0.8011 -0.4790
  228MOL0     O31385   8.800   2.792   0.368 -0.3354  0.1157 -0.7200
  228MOL0     C31386   8.940   2.820   0.385  0.5532  0.0934  0.8247
  228MOL0     C31387   9.021   2.696   0.425  0.6352  0.7648 -0.2100
  228MOL0     C31388   9.169   2.729   0.442 -0.2324 -0.8267 -0.2580
  228MOL0     C31389   9.198   2.807   0.571  0.2200 -0.4547  0.1521
  228MOL0     C31390   9.167   2.721   0.692 -0.4608 -0.5512  0.0761
  228MOL0     C31391   9.155   2.657   0.796 -0.0600 -0.4048  0.4450
  228MOL0     C31392   8.578   2.801   0.457 -0.1623  0.0603 -0.3288
  228MOL0     C31393   8.484   2.799   0.563  0.1522  0.7031 -0.6463
  228MOL0     C31394   8.341   2.818   0.517  0.3269  0.3814  0.6735
  228MOL0     H31395   8.381   2.611   1.010  0.0053  0.4633  0.7643
  228MOL0     H31396   8.234   2.549   1.213 -0.1960  0.6479  1.3667
  228MOL0     H31397   8.121   2.648   1.359 -0.2380  0.9884 -3.5338
  228MOL0     H31398   8.039   2.497   1.367  2.1372 -0.4164 -0.2176
  228MOL0     H31399   7.820   2.647   1.436 -0.3143 -2.1247  0.5349
  228MOL0     H31400   7.958   2.622   1.543 -0.4450 -0.9238 -0.5376
  228MOL0     H31401   8.047   2.854   1.480 -0.5559  0.0626  1.0517
  228MOL0     H31402   7.905   2.861   1.375 -0.0652  0.3462  0.1673
  228MOL0     H31403   7.764   2.824   1.580  0.4833 -2.5875  1.6452
  228MOL0     H31404   7.921   2.821   1.669  0.4962 -2.9780 -0.8773
  228MOL0     H31405   7.805   3.069   1.653  0.9916  0.9353  0.5941
  228MOL0     H31406   7.890   3.070   1.506 -1.0862 -0.2408  0.0361
  228MOL0     H31407   8.011   2.985   1.774  1.1775 -0.3534  1.0061
  228MOL0     H31408   8.106   2.999   1.623 -1.3278  0.8624 -2.0454
  228MOL0     H31409   7.995   3.243   1.767 -1.8556 -2.3967 -0.3271
  228MOL0     H31410   8.064   3.233   1.600  0.7287 -0.3854 -0.3924
  228MOL0     H31411   8.229   3.122   1.830 -0.0928 -0.0117  0.0345
  228MOL0     H31412   8.270   3.176   1.668  0.0393  1.6636 -1.2244
  228MOL0     H31413   8.390   3.379   1.622  1.1892  0.4157  0.5448
  228MOL0     H31414   8.433   3.700   1.703 -1.7185 -0.8334 -0.3097
  228MOL0     H31415   8.550   3.568   1.675 -2.9753 -1.7502 -1.8042
  228MOL0     H31416   8.619   3.749   1.822 -0.6265  0.5724 -0.1264
  228MOL0     H31417   8.511   3.713   1.946  0.8219  0.4659 -0.0194
  228MOL0     H31418   8.620   3.469   1.928  0.4653  0.5109  0.0334
  228MOL0     H31419   8.760   3.555   1.853  0.5255  1.9309 -0.3177
  228MOL0     H31420   8.635   3.628   2.117  0.0628 -1.3607  0.3233
  228MOL0     H31421   8.771   3.518   2.097  0.3988 -0.3214  0.7628
  228MOL0     H31422   8.780   3.946   2.153  0.4295 -0.4770  0.0776
  228MOL0     H31423   8.844   4.131   2.301  1.6288 -1.5925 -2.6557
  228MOL0     H31424   9.009   4.149   2.366 -0.0169  0.6206  1.2718
  228MOL0     H31425   8.880   4.083   2.473 -1.4263 -0.2636 -1.0395
  228MOL0     H31426   9.259   3.672   2.763 -2.5691 -0.5012  1.7209
  228MOL0     H31427   9.384   3.756   2.941  0.2738  1.1008  1.5424
  228MOL0     H31428   9.385   3.832   3.196 -0.0931  0.4973 -1.3223
  228MOL0     H31429   9.499   3.865   3.063 -0.8155  0.6447 -1.4882
  228MOL0     H31430   9.580   3.958   3.292  2.0038  2.7688  0.6887
  228MOL0     H31431   9.555   4.086   3.166  0.6589  0.5344  0.8817
  228MOL0     H31432   9.349   4.013   3.382 -1.0333 -0.5799 -0.4854
  228MOL0     H31433   9.333   4.147   3.277 -2.2223  0.2341  0.2080
  228MOL0     H31434   9.561   4.234   3.386 -0.8906 -1.1459 -2.4744
  228MOL0     H31435   9.548   4.094   3.500 -0.0355  0.3756 -0.3704
  228MOL0     H31436   9.324   4.296   3.490 -1.4539 -3.0566 -0.8602
  228MOL0     H31437   9.364   4.174   3.608 -0.8254  1.4720  1.7257
  228MOL0     H31438   9.591   4.367   3.560  0.3866 -3.8289 -1.4080
  228MOL0     H31439   9.526   4.303   3.710 -4.4568 -1.7789  1.2909
  228MOL0     H31440   9.381   4.532   3.559 -0.2838 -0.1172  0.0427
  228MOL0     H31441   9.510   4.548   3.683  1.3364 -1.0659 -0.3546
  228MOL0     H31442   9.365   4.393   3.829 -2.5407 -0.2874  1.7590
  228MOL0     H31443   9.237   4.427   3.725  0.1865  0.8983  0.4809
  228MOL0     H31444   9.152   4.108   2.943  0.7350  0.5976 -0.6242
  228MOL0     H31445   9.053   4.056   2.756  2.5247  0.0353 -2.5946
  228MOL0     H31446   9.130   3.673   2.373 -1.6383  0.1935  1.1198
  228MOL0     H31447   9.007   3.598   2.168 -2.0401  0.3516 -0.5620
  228MOL0     H31448   7.917   2.779   1.024  0.2467  1.6719  0.0834
  228MOL0     H31449   8.073   2.818   0.827  0.5543 -1.6251  0.7428
  228MOL0     H31450   8.706   2.768   0.822  0.5054 -1.2562  0.0378
  228MOL0     H31451   8.865   2.786   0.648 -0.5608  0.4411  2.7570
  228MOL0     H31452   8.977   2.858   0.289 -0.2531  1.5755  1.0735
  228MOL0     H31453   8.931   2.901   0.458 -3.1628 -0.0348  0.7047
  228MOL0     H31454   9.011   2.617   0.350  0.5048 -0.5316  1.1306
  228MOL0     H31455   8.972   2.657   0.515 -3.1696  0.8812 -2.0321
  228MOL0     H31456   9.213   2.629   0.443  1.3944 -0.1451 -0.8294
  228MOL0     H31457   9.202   2.792   0.359  0.2905 -1.0744 -0.2382
  228MOL0     H31458   9.143   2.901   0.567 -1.4416 -1.2636  2.2005
  228MOL0     H31459   9.302   2.840   0.567  1.1657 -3.2039 -0.2745
  228MOL0     H31460   9.141   2.606   0.889  1.1300 -1.9309 -0.1510
  228MOL0     H31461   8.547   2.804   0.353 -0.2416  0.5946 -0.2917
  228MOL0     H31462   8.319   2.870   0.423  4.1000  0.2546 -0.4183
  228MOL0     H31463   8.294   2.719   0.505  3.2424 -1.1177  0.8935
  228MOL0     H31464   8.284   2.867   0.596  0.2885 -1.1194  1.6099
  229MOL0     O31465  10.498   7.924   6.085 -0.9590  0.7670  0.0130
  229MOL0     C31466  10.601   7.878   6.031 -1.6649  0.0510  0.4877
  229MOL0     O31467  10.679   7.935   5.921  0.7018  0.7136  0.0966
  229MOL0     C31468  10.636   8.058   5.872  0.0578 -0.0073 -0.4692
  229MOL0     C31469  10.670   8.176   5.941 -0.4673 -0.1906 -0.3553
  229MOL0     C31470  10.653   8.299   5.879 -0.3896 -0.0579 -0.3413
  229MOL0     C31471  10.588   8.310   5.753 -0.1535  0.9388  0.0829
  229MOL0     O31472  10.585   8.439   5.698 -0.9769 -0.1680 -0.0522
  229MOL0     C31473  10.483   8.477   5.613 -0.5393 -0.3264  0.1599
  229MOL0     C31474  10.532   8.609   5.561 -0.6223 -0.3418 -0.2387
  229MOL0     C31475  10.438   8.672   5.471  0.6637  0.7466 -0.3385
  229MOL0     C31476  10.511   8.787   5.401  0.2689  0.4676  0.1653
  229MOL0     C31477  10.592   8.878   5.491 -0.5701  0.4680 -0.1944
  229MOL0     C31478  10.595   9.029   5.445 -0.3959  0.5392  0.0735
  229MOL0     C31479  10.693   9.104   5.535  0.1323 -0.3101 -0.3138
  229MOL0     C31480  10.842   9.067   5.529  0.0876 -0.2598  1.0764
  229MOL0     N31481  10.896   9.059   5.398 -0.3309  0.3364  0.3024
  229MOL0     C31482  10.941   9.162   5.326  0.3472  1.2262 -0.1017
  229MOL0     C31483  11.012   9.108   5.220  0.3467 -0.4062  0.5123
  229MOL0     C31484  11.082   9.195   5.110 -0.5421  0.1268  0.7323
  229MOL0     C31485  11.081   9.130   4.971  0.2009  0.5952 -0.2458
  229MOL0     C31486  11.104   9.223   4.855  0.0863  0.3380 -0.0347
  229MOL0     C31487  11.101   9.134   4.734 -0.8495  0.1198  0.3328
  229MOL0     O31488  11.078   9.214   4.618 -0.2377 -0.2360  0.1644
  229MOL0     C31489  11.065   9.171   4.492 -0.1673  0.4736  0.0056
  229MOL0     C31490  11.034   9.034   4.449  0.3509  0.2109 -0.4486
  229MOL0     C31491  11.020   8.993   4.313  0.0610 -0.8791  0.1666
  229MOL0     C31492  10.991   8.846   4.298 -0.0908  0.2608 -0.1428
  229MOL0     C31493  11.048   9.091   4.209  0.7188  0.4640  0.4457
  229MOL0     C31494  11.050   9.066   4.063 -0.1099 -0.2851 -0.9134
  229MOL0     O31495  11.082   9.169   3.987 -0.2107 -0.3747 -0.0506
  229MOL0     C31496  11.109   9.148   3.847  1.1597  0.9430  1.3523
  229MOL0     C31497  11.187   9.250   3.783 -0.1090 -0.6651 -0.8754
  229MOL0     C31498  11.243   9.236   3.656 -0.8061 -0.1490 -0.7155
  229MOL0     C31499  11.208   9.117   3.579  0.6543  0.0290  0.1500
  229MOL0     O31500  11.265   9.106   3.460 -0.6881 -0.1414  0.1334
  229MOL0     C31501  11.248   8.991   3.380 -0.3263  0.0912 -0.1037
  229MOL0     C31502  11.294   9.039   3.240  0.4328  0.3212 -0.8564
  229MOL0     C31503  11.448   9.059   3.235 -0.2243 -0.2459 -0.0081
  229MOL0     C31504  11.502   9.085   3.095 -0.1030  0.3170  0.3470
  229MOL0     C31505  11.655   9.070   3.111 -0.6671  0.5115  0.6748
  229MOL0     C31506  11.719   9.076   2.976 -0.1244  0.0076 -0.7657
  229MOL0     C31507  11.719   9.227   2.912  1.1701  0.4847  0.7966
  229MOL0     C31508  11.808   9.236   2.782  0.7699 -0.4738 -0.9519
  229MOL0    Cl31509  11.733   9.176   2.639  0.7646 -0.0232  0.1734
  229MOL0     C31510  11.118   9.025   3.630  0.2321  0.3381  1.0911
  229MOL0     C31511  11.077   9.038   3.765  0.4625 -0.2046 -1.0447
  229MOL0     O31512  11.051   8.951   4.030 -0.1465 -1.2473  0.2874
  229MOL0     C31513  11.094   9.215   4.253  0.1263 -0.5649  0.3926
  229MOL0     C31514  11.096   9.256   4.389 -0.7598 -0.5380  0.1023
  229MOL0     N31515  10.977   8.972   5.223 -0.2237 -0.6344  0.6384
  229MOL0     N31516  10.918   8.944   5.324 -0.3696  0.1601 -1.3126
  229MOL0     C31517  10.537   8.195   5.692  0.4869 -0.4933 -0.6125
  229MOL0     C31518  10.563   8.066   5.749 -0.1512  0.3280  0.0794
  229MOL0     C31519  10.653   7.749   6.089 -0.4175  1.5932  0.8505
  229MOL0     C31520  10.652   7.732   6.223  0.0478 -0.3678  0.5368
  229MOL0     C31521  10.686   7.611   6.286 -0.7346  0.9620  0.2081
  229MOL0     C31522  10.743   7.507   6.215 -0.4471  0.1376 -0.4874
  229MOL0     O31523  10.783   7.400   6.297  1.0382 -0.4122  0.1980
  229MOL0     C31524  10.836   7.276   6.240 -0.6938 -0.3848  0.0352
  229MOL0     C31525  10.728   7.181   6.203 -0.1361  0.3679  0.0429
  229MOL0     C31526  10.610   7.151   6.303 -0.6853  0.3316  0.4335
  229MOL0     C31527  10.511   7.268   6.307 -0.0237 -0.1858 -0.1278
  229MOL0     C31528  10.383   7.239   6.373  1.3353 -0.0373 -0.2318
  229MOL0     C31529  10.296   7.187   6.433  0.8044 -0.8915 -0.7023
  229MOL0     C31530  10.757   7.523   6.077 -0.4474 -0.2093 -0.6273
  229MOL0     C31531  10.721   7.644   6.008 -0.7757 -0.8434 -0.6436
  229MOL0     C31532  10.768   7.667   5.861 -0.2265  0.4600 -1.3052
  229MOL0     H31533  10.730   8.167   6.031  1.2384  1.4529 -1.2558
  229MOL0     H31534  10.688   8.390   5.927  0.9863  0.0051 -1.4238
  229MOL0     H31535  10.388   8.491   5.665  1.2343  1.5499  3.1780
  229MOL0     H31536  10.483   8.402   5.533 -1.7718  0.8504 -1.0101
  229MOL0     H31537  10.532   8.673   5.649  0.2693 -0.2174 -0.3298
  229MOL0     H31538  10.629   8.607   5.511 -0.8949  0.3389 -0.8105
  229MOL0     H31539  10.394   8.603   5.398 -0.0249 -0.7390  1.3977
  229MOL0     H31540  10.363   8.718   5.536  1.9515 -1.7380  3.2448
  229MOL0     H31541  10.574   8.745   5.321 -0.7141  0.5996 -0.7036
  229MOL0     H31542  10.441   8.852   5.347  0.8844  3.6213  2.8470
  229MOL0     H31543  10.695   8.843   5.504 -1.1616 -0.4111  3.0455
  229MOL0     H31544  10.546   8.883   5.590 -0.4119 -0.2194 -0.0762
  229MOL0     H31545  10.626   9.035   5.340 -1.8225  0.2844 -0.3890
  229MOL0     H31546  10.497   9.077   5.450 -0.0986  1.0069  3.3870
  229MOL0     H31547  10.662   9.097   5.639 -0.4413  0.5464 -0.4158
  229MOL0     H31548  10.686   9.212   5.519 -1.7831 -0.1352  1.2421
  229MOL0     H31549  10.888   9.150   5.584  4.4381 -2.2836  0.9357
  229MOL0     H31550  10.865   8.974   5.581 -1.2653  0.0510  2.3174
  229MOL0     H31551  10.937   9.267   5.354 -2.2091  1.1447  0.0892
  229MOL0     H31552  11.188   9.210   5.133  0.4378 -1.0663 -2.4497
  229MOL0     H31553  11.033   9.294   5.106  2.5402  1.8224  1.7253
  229MOL0     H31554  11.154   9.049   4.979 -1.0492 -0.4846  0.6458
  229MOL0     H31555  10.990   9.071   4.958  0.5513 -0.5465  1.9842
  229MOL0     H31556  11.020   9.292   4.852  0.0415  0.2686 -0.4541
  229MOL0     H31557  11.200   9.274   4.868  0.7958 -1.0480  0.4043
  229MOL0     H31558  11.191   9.080   4.705 -0.1502  1.9904 -1.2534
  229MOL0     H31559  11.029   9.052   4.739  0.6079 -1.2225  0.0119
  229MOL0     H31560  11.023   8.961   4.529  0.8749  0.7373  0.1211
  229MOL0     H31561  11.075   8.799   4.246  0.8049 -1.3806  2.5769
  229MOL0     H31562  10.912   8.815   4.229  2.1096 -0.5945 -2.4023
  229MOL0     H31563  10.977   8.797   4.395 -2.1644  3.4177  1.3265
  229MOL0     H31564  11.203   9.336   3.847 -2.7375  2.3249 -3.8194
  229MOL0     H31565  11.320   9.301   3.616  1.1318 -1.8424  0.0921
  229MOL0     H31566  11.302   8.904   3.418 -1.7707 -0.5176  0.6693
  229MOL0     H31567  11.143   8.961   3.369  0.3108 -2.3804 -0.0430
  229MOL0     H31568  11.269   8.956   3.173 -2.1689  0.6462 -0.3768
  229MOL0     H31569  11.242   9.125   3.197  0.8558  1.0200  0.0013
  229MOL0     H31570  11.494   8.968   3.275  0.1981  0.2396  0.6325
  229MOL0     H31571  11.479   9.139   3.302  0.0043 -0.6301  0.3523
  229MOL0     H31572  11.476   9.189   3.072  2.7489  1.3182  1.0758
  229MOL0     H31573  11.459   9.006   3.033  3.9407 -0.9781 -1.1300
  229MOL0     H31574  11.699   9.141   3.181  0.9801 -1.5352  1.8507
  229MOL0     H31575  11.680   8.972   3.153  2.7558  2.0313  2.5573
  229MOL0     H31576  11.662   9.007   2.912 -0.2718 -0.5587 -0.0431
  229MOL0     H31577  11.818   9.031   2.978 -0.6881 -1.5097 -2.8494
  229MOL0     H31578  11.755   9.300   2.985  1.5554  1.3590 -0.2485
  229MOL0     H31579  11.617   9.261   2.894  0.7034 -0.6020  1.3285
  229MOL0     H31580  11.898   9.176   2.799  0.9645  0.1545  0.4363
  229MOL0     H31581  11.853   9.332   2.755  2.9310 -1.4898 -1.1424
  229MOL0     H31582  11.093   8.933   3.579  1.4538 -0.1735  1.3765
  229MOL0     H31583  11.015   8.960   3.808  1.2299 -0.0751  0.3561
  229MOL0     H31584  11.119   9.289   4.178 -1.7812 -0.8490 -0.5819
  229MOL0     H31585  11.130   9.352   4.426 -0.5829 -0.7468  0.4856
  229MOL0     H31586  10.468   8.214   5.611 -2.1957  0.2825  1.6712
  229MOL0     H31587  10.531   7.976   5.698  0.7629  0.2445 -0.3568
  229MOL0     H31588  10.600   7.810   6.278 -2.3344 -0.4406 -1.4338
  229MOL0     H31589  10.667   7.611   6.393  0.0451 -0.9375  0.3777
  229MOL0     H31590  10.882   7.296   6.143  1.6803  1.2401  1.3966
  229MOL0     H31591  10.916   7.229   6.298 -0.5647 -0.1374  0.0556
  229MOL0     H31592  10.778   7.085   6.190  0.6221  1.1181 -3.8508
  229MOL0     H31593  10.683   7.212   6.108 -2.9850  0.8643  1.4458
  229MOL0     H31594  10.559   7.059   6.276  2.6141 -1.9339  1.2370
  229MOL0     H31595  10.661   7.130   6.398  0.0786 -1.2217 -0.2952
  229MOL0     H31596  10.480   7.268   6.202 -0.5248 -1.6186  0.0020
  229MOL0     H31597  10.549   7.362   6.347  0.5867 -1.3421  2.1665
  229MOL0     H31598  10.217   7.143   6.490  0.3443  0.4518 -0.2788
  229MOL0     H31599  10.820   7.449   6.028 -1.1730 -1.8931  0.8741
  229MOL0     H31600  10.828   7.583   5.827  1.6335  1.9928 -1.9387
  229MOL0     H31601  10.676   7.672   5.802 -0.0362 -2.6018 -1.9858
  229MOL0     H31602  10.838   7.751   5.856  2.0406 -1.3323 -0.8109
  230MOL0     O31603   5.434   2.216   5.821 -0.1504  0.8243 -0.2857
  230MOL0     C31604   5.435   2.290   5.721 -0.7752  1.1502 -0.3417
  230MOL0     O31605   5.552   2.329   5.659 -0.1651 -0.6314  0.4097
  230MOL0     C31606   5.658   2.292   5.723  0.2515  0.6772  0.5258
  230MOL0     C31607   5.711   2.371   5.825  0.0583  0.3715  0.5736
  230MOL0     C31608   5.829   2.336   5.895  0.0100  0.6467  0.2543
  230MOL0     C31609   5.901   2.222   5.848  0.8090 -0.6810  0.1955
  230MOL0     O31610   6.016   2.166   5.905 -0.3451  0.0025  0.5880
  230MOL0     C31611   6.120   2.253   5.960  0.2697 -0.3954 -0.0675
  230MOL0     C31612   6.168   2.358   5.855  0.2879  0.2856  0.9886
  230MOL0     C31613   6.242   2.468   5.920 -1.0057 -0.2846  0.0987
  230MOL0     C31614   6.288   2.576   5.817 -0.7558 -0.9633 -0.2988
  230MOL0     C31615   6.385   2.673   5.890  0.2547 -0.0599 -0.8112
  230MOL0     C31616   6.517   2.607   5.936 -0.0261 -0.3160 -0.7965
  230MOL0     C31617   6.619   2.713   5.985  0.6135 -0.0334  0.2958
  230MOL0     C31618   6.751   2.656   6.035 -0.4663 -0.9670 -0.4421
  230MOL0     N31619   6.844   2.757   6.074  0.1146  0.3539  0.8128
  230MOL0     C31620   6.820   2.844   6.174  0.3280 -0.1296  0.4971
  230MOL0     C31621   6.933   2.917   6.180 -0.4111 -0.5718  0.2865
  230MOL0     C31622   6.974   3.034   6.272  0.8844  0.7130 -0.8053
  230MOL0     C31623   6.914   3.167   6.236 -0.0975 -0.6995 -0.0911
  230MOL0     C31624   6.902   3.275   6.336 -1.1150 -0.0220 -0.3709
  230MOL0     C31625   6.827   3.390   6.274  0.2164  0.8532 -0.2543
  230MOL0     O31626   6.795   3.479   6.380  0.6267 -0.7746  0.7384
  230MOL0     C31627   6.712   3.586   6.357 -0.3014  0.1593 -0.0736
  230MOL0     C31628   6.730   3.699   6.441  0.6291  1.2134  0.0330
  230MOL0     C31629   6.655   3.814   6.424 -0.3741  0.5879 -0.3440
  230MOL0     C31630   6.685   3.944   6.506 -0.2345 -0.3978  0.1445
  230MOL0     C31631   6.571   3.820   6.309  0.2740  0.0030 -0.2579
  230MOL0     C31632   6.486   3.942   6.271  0.1210  0.8419 -1.0659
  230MOL0     O31633   6.374   3.920   6.181 -0.2529  0.2442 -0.2452
  230MOL0     C31634   6.270   4.011   6.187 -0.3178 -0.3166 -0.3177
  230MOL0     C31635   6.265   4.098   6.077 -0.0761 -0.3966  0.4390
  230MOL0     C31636   6.160   4.181   6.062 -0.5769 -0.7365  0.2537
  230MOL0     C31637   6.063   4.188   6.160  0.2611 -0.2278  0.1484
  230MOL0     O31638   5.943   4.258   6.134  0.3851  0.3859 -0.0154
  230MOL0     C31639   5.889   4.300   6.010  0.2153  0.7833 -0.7361
  230MOL0     C31640   5.734   4.280   6.009 -0.0491  1.3039 -0.6447
  230MOL0     C31641   5.684   4.145   5.956 -0.1209 -0.8505 -0.1075
  230MOL0     C31642   5.687   4.134   5.808 -0.9574 -0.0741  0.2089
  230MOL0     C31643   5.562   4.071   5.743 -0.1876 -0.9420  0.0243
  230MOL0     C31644   5.444   4.174   5.749 -0.3816  0.5334  0.0841
  230MOL0     C31645   5.324   4.111   5.689  0.1921  0.1948 -0.8366
  230MOL0     C31646   5.198   4.193   5.694  0.3172 -0.1236  0.1284
  230MOL0    Cl31647   5.067   4.081   5.721 -0.2775 -0.0727  0.3683
  230MOL0     C31648   6.072   4.121   6.277 -0.5290 -0.1543 -0.0111
  230MOL0     C31649   6.172   4.029   6.289 -0.3276  0.2469  1.1337
  230MOL0     O31650   6.518   4.051   6.319  0.6105 -0.7547 -0.1955
  230MOL0     C31651   6.566   3.713   6.221  0.3177  0.2715 -0.3790
  230MOL0     C31652   6.627   3.590   6.249 -0.2476 -0.4766  0.0401
  230MOL0     N31653   7.022   2.867   6.083  1.0014 -0.3829 -0.4263
  230MOL0     N31654   6.961   2.782   6.017  0.1724 -0.6472  0.4375
  230MOL0     C31655   5.849   2.144   5.746 -0.1423 -0.5646 -0.2741
  230MOL0     C31656   5.724   2.178   5.679 -0.7555  0.3988 -0.0037
  230MOL0     C31657   5.305   2.326   5.649 -0.2351  0.1750 -1.1335
  230MOL0     C31658   5.317   2.381   5.522  0.9599 -0.3526  0.1218
  230MOL0     C31659   5.205   2.428   5.449 -0.6486  0.7184 -0.2937
  230MOL0     C31660   5.076   2.392   5.495  0.4725 -1.4295 -0.6012
  230MOL0     O31661   4.972   2.450   5.414 -0.3367 -0.9907 -0.1909
  230MOL0     C31662   4.896   2.351   5.343  0.0072 -0.8028  0.0863
  230MOL0     C31663   4.962   2.299   5.213  0.5964 -0.8273 -0.5433
  230MOL0     C31664   5.008   2.409   5.115 -0.3012 -0.4562  0.0046
  230MOL0     C31665   5.099   2.359   5.007  0.3684 -1.1544  0.4540
  230MOL0     C31666   5.040   2.249   4.935  0.6033 -0.1363  0.4215
  230MOL0     C31667   4.991   2.170   4.868  0.4823  0.2954  0.5079
  230MOL0     C31668   5.061   2.335   5.623  0.4424  0.0443  0.9516
  230MOL0     C31669   5.170   2.301   5.701 -0.2789  0.7569 -0.2013
  230MOL0     C31670   5.124   2.244   5.838  0.4519 -0.3140 -0.6211
  230MOL0     H31671   5.671   2.464   5.862 -0.3426  1.7013 -2.8131
  230MOL0     H31672   5.870   2.397   5.975  0.2909 -2.3337  2.5705
  230MOL0     H31673   6.206   2.204   6.007 -0.4911 -2.3098 -0.5587
  230MOL0     H31674   6.079   2.319   6.036  0.5701  0.0201 -0.2633
  230MOL0     H31675   6.228   2.303   5.782 -0.2722  0.5264  0.3376
  230MOL0     H31676   6.084   2.409   5.807  1.1181  0.4237 -0.3513
  230MOL0     H31677   6.183   2.513   6.001 -0.2359 -0.7671  0.9374
  230MOL0     H31678   6.329   2.423   5.968 -0.9205 -2.5023 -1.9628
  230MOL0     H31679   6.338   2.528   5.733 -0.5892  1.5731 -1.7424
  230MOL0     H31680   6.208   2.634   5.769  1.6239  0.9201 -2.2810
  230MOL0     H31681   6.314   2.707   5.967  0.3734  2.0412 -1.5451
  230MOL0     H31682   6.400   2.755   5.820 -0.1900  1.4377  0.7544
  230MOL0     H31683   6.507   2.528   6.010  1.4646  0.2734  0.0738
  230MOL0     H31684   6.570   2.556   5.855  0.2527 -0.2916 -0.6326
  230MOL0     H31685   6.571   2.771   6.064 -0.3928 -2.9305  1.9335
  230MOL0     H31686   6.633   2.784   5.903 -1.2370  0.4815  0.3701
  230MOL0     H31687   6.724   2.594   6.121 -0.7459  0.4712  0.5317
  230MOL0     H31688   6.795   2.590   5.960 -2.1948  0.3496 -2.7596
  230MOL0     H31689   6.737   2.869   6.239 -0.9532  2.7696 -1.9815
  230MOL0     H31690   7.083   3.041   6.274  1.2737 -0.8378 -5.4713
  230MOL0     H31691   6.957   3.008   6.377  0.0402  2.0037 -0.5981
  230MOL0     H31692   6.972   3.210   6.153 -0.5038 -0.0656 -0.0552
  230MOL0     H31693   6.811   3.150   6.203 -0.4924  0.4580  0.4680
  230MOL0     H31694   6.857   3.244   6.431 -3.6136  1.0930 -1.1146
  230MOL0     H31695   7.008   3.299   6.347 -0.9306 -1.0391  0.2304
  230MOL0     H31696   6.873   3.446   6.192  3.4860  0.1456  0.9406
  230MOL0     H31697   6.733   3.346   6.239  0.4872  0.1565 -0.1131
  230MOL0     H31698   6.798   3.686   6.524 -1.6112 -0.2781  1.7582
  230MOL0     H31699   6.761   3.923   6.581 -1.0568 -1.4108  0.7239
  230MOL0     H31700   6.596   3.969   6.565 -0.6942 -0.0429 -0.6857
  230MOL0     H31701   6.718   4.033   6.453  2.3290 -0.2800  1.7729
  230MOL0     H31702   6.340   4.087   6.000 -1.7803 -0.1965 -1.3114
  230MOL0     H31703   6.162   4.248   5.977 -1.4364 -1.5887 -0.4639
  230MOL0     H31704   5.923   4.403   5.996 -2.5197  2.0227  0.9021
  230MOL0     H31705   5.932   4.242   5.928 -0.1996 -0.1270 -0.3285
  230MOL0     H31706   5.705   4.284   6.114 -0.7609 -1.0842 -0.6996
  230MOL0     H31707   5.697   4.366   5.951 -1.3755  1.1494 -0.0464
  230MOL0     H31708   5.584   4.128   5.997  0.2019  0.4214  1.2820
  230MOL0     H31709   5.734   4.057   5.999 -1.0134 -1.2870  0.0526
  230MOL0     H31710   5.786   4.090   5.789 -1.2396 -0.6253 -0.0217
  230MOL0     H31711   5.691   4.226   5.750  0.4368 -0.4023 -0.2492
  230MOL0     H31712   5.586   4.054   5.638  0.6115  2.8782 -0.5689
  230MOL0     H31713   5.535   3.974   5.787  0.9685 -1.1449  0.3046
  230MOL0     H31714   5.460   4.271   5.701  0.1138  3.4564  5.3260
  230MOL0     H31715   5.438   4.213   5.851  2.0468  3.0920 -0.6211
  230MOL0     H31716   5.320   4.008   5.728  2.1259  0.5728  0.5456
  230MOL0     H31717   5.354   4.103   5.585 -1.6214  1.3639 -1.5004
  230MOL0     H31718   5.188   4.235   5.594  2.4786  0.9000  0.2809
  230MOL0     H31719   5.205   4.264   5.776  1.6640 -0.2729  0.1666
  230MOL0     H31720   5.996   4.129   6.354  1.0537 -0.4487  1.6516
  230MOL0     H31721   6.176   3.977   6.384 -0.1338  0.8705  1.4696
  230MOL0     H31722   6.502   3.708   6.133  1.2530 -2.7772 -0.9950
  230MOL0     H31723   6.617   3.509   6.177 -0.7709  0.9770 -1.5833
  230MOL0     H31724   5.907   2.054   5.725 -1.8255 -2.2612  1.8936
  230MOL0     H31725   5.679   2.113   5.605 -0.3271  0.0546  0.0347
  230MOL0     H31726   5.412   2.392   5.469  0.8373  0.2552  0.0235
  230MOL0     H31727   5.206   2.494   5.363 -2.5123  2.2432  0.7878
  230MOL0     H31728   4.886   2.262   5.405  1.5939  0.6619  2.6090
  230MOL0     H31729   4.796   2.384   5.313 -0.4071 -3.2173 -1.4558
  230MOL0     H31730   4.887   2.236   5.165 -0.5576 -0.9324  1.2794
  230MOL0     H31731   5.046   2.233   5.239  2.3034  2.5015  3.5691
  230MOL0     H31732   4.920   2.442   5.058 -0.6861 -0.4649  0.5795
  230MOL0     H31733   5.050   2.499   5.162 -3.0377  0.7230  0.4294
  230MOL0     H31734   5.191   2.326   5.056  1.3161  1.3147  0.4957
  230MOL0     H31735   5.118   2.444   4.940 -0.3220 -2.8830 -2.1001
  230MOL0     H31736   4.947   2.096   4.803  1.5003  2.1240 -2.4716
  230MOL0     H31737   4.959   2.332   5.661  0.8749  1.9666  2.4086
  230MOL0     H31738   5.088   2.141   5.836  2.9014 -1.2664  1.0056
  230MOL0     H31739   5.206   2.259   5.908 -2.9240  0.4680  3.5987
  230MOL0     H31740   5.046   2.305   5.885  0.7907 -1.0968  0.9832
  231MOL0     O31741   3.412   2.348   6.015  1.0528 -1.1701 -0.0358
  231MOL0     C31742   3.427   2.339   6.133 -0.1863 -0.6886  0.9254
  231MOL0     O31743   3.400   2.228   6.211 -0.0259 -0.3402  0.7326
  231MOL0     C31744   3.292   2.149   6.175  0.8369 -0.5354  0.3932
  231MOL0     C31745   3.288   2.009   6.173  0.3135  0.4018  1.5954
  231MOL0     C31746   3.162   1.937   6.164  0.4280 -0.2179  0.5129
  231MOL0     C31747   3.042   2.012   6.177 -0.2079 -0.8437  0.3092
  231MOL0     O31748   2.918   1.960   6.172  0.3667 -0.3432  0.1823
  231MOL0     C31749   2.887   1.820   6.163 -0.4967 -0.4062 -0.1542
  231MOL0     C31750   2.879   1.776   6.020 -0.2276 -0.5987 -0.0270
  231MOL0     C31751   2.849   1.631   6.017  0.0298  0.1424 -0.0185
  231MOL0     C31752   2.872   1.576   5.874 -0.0749 -1.0673 -0.1786
  231MOL0     C31753   2.916   1.429   5.866 -0.3537 -0.4000  0.5343
  231MOL0     C31754   2.890   1.368   5.725 -0.7818 -0.9567  0.3132
  231MOL0     C31755   2.940   1.230   5.702 -0.0428  0.0180  0.0385
  231MOL0     C31756   2.844   1.122   5.741  0.3514  0.4801 -0.7200
  231MOL0     N31757   2.716   1.109   5.670 -0.2328  0.0108 -0.4338
  231MOL0     C31758   2.714   1.056   5.539  0.1985  0.1517  0.0941
  231MOL0     C31759   2.580   1.027   5.517  0.6825 -0.1797 -0.1071
  231MOL0     C31760   2.504   0.963   5.405  0.4874 -0.5704  0.4987
  231MOL0     C31761   2.464   1.038   5.273  0.3079  0.8067 -0.0462
  231MOL0     C31762   2.583   1.083   5.184  0.4177 -0.0303  0.7732
  231MOL0     C31763   2.542   1.182   5.077 -0.6680 -0.0892 -0.9170
  231MOL0     O31764   2.448   1.125   4.984  0.0207 -0.1468 -0.3451
  231MOL0     C31765   2.398   1.211   4.892 -0.1634  0.5052  0.1474
  231MOL0     C31766   2.433   1.184   4.764 -0.3244  0.2707  0.7145
  231MOL0     C31767   2.409   1.266   4.656 -0.2750 -0.3402  0.0540
  231MOL0     C31768   2.441   1.216   4.512 -0.4543 -0.4030 -0.1588
  231MOL0     C31769   2.354   1.395   4.682 -0.5212 -0.2793  0.0797
  231MOL0     C31770   2.326   1.482   4.577  0.2480 -0.6368  0.8244
  231MOL0     O31771   2.396   1.497   4.465 -0.0049 -0.5673  0.7043
  231MOL0     C31772   2.332   1.569   4.364  0.0426 -0.4196  0.2830
  231MOL0     C31773   2.232   1.522   4.282 -0.1276 -0.5142  0.0731
  231MOL0     C31774   2.183   1.600   4.174  0.8299 -1.2093  0.0003
  231MOL0     C31775   2.239   1.730   4.153 -0.6502 -0.9478 -0.0402
  231MOL0     O31776   2.210   1.803   4.042  0.5529 -0.3571  0.1116
  231MOL0     C31777   2.131   1.754   3.934 -0.4290 -0.7228  0.1777
  231MOL0     C31778   2.105   1.872   3.828  0.1846  0.2973  0.1478
  231MOL0     C31779   1.985   1.844   3.735  0.5814 -0.2177 -0.3103
  231MOL0     C31780   1.974   1.947   3.621  0.5075 -0.0956  0.6502
  231MOL0     C31781   1.862   1.888   3.530  0.2667 -0.6661  0.1738
  231MOL0     C31782   1.809   1.999   3.450 -0.3563 -1.0604 -0.0796
  231MOL0     C31783   1.699   2.080   3.540 -0.7685  0.1492  0.1827
  231MOL0     C31784   1.686   2.230   3.483  0.1986 -0.4073 -0.0309
  231MOL0    Cl31785   1.510   2.278   3.484  0.0300 -0.0986 -0.5052
  231MOL0     C31786   2.336   1.773   4.241  0.0723 -0.2564 -0.0754
  231MOL0     C31787   2.378   1.694   4.345 -0.6197  0.5057 -0.8346
  231MOL0     O31788   2.223   1.545   4.598  0.3971 -0.6883 -1.0416
  231MOL0     C31789   2.308   1.431   4.815 -0.2877  0.5265  0.5891
  231MOL0     C31790   2.344   1.335   4.920 -0.4496 -0.2988 -0.7003
  231MOL0     N31791   2.509   1.064   5.632 -0.5090  0.4289  0.1179
  231MOL0     N31792   2.592   1.116   5.722 -0.0900  0.1403 -0.0410
  231MOL0     C31793   3.051   2.156   6.173 -0.7933 -0.1702 -0.3154
  231MOL0     C31794   3.176   2.224   6.177 -0.6456 -0.6287 -1.1328
  231MOL0     C31795   3.515   2.437   6.202 -0.2954 -0.5210  0.0898
  231MOL0     C31796   3.630   2.395   6.280  0.2759  0.1847  0.7219
  231MOL0     C31797   3.726   2.487   6.331  0.0144  0.2290 -0.3705
  231MOL0     C31798   3.704   2.623   6.314  0.4025  0.0177  0.2887
  231MOL0     O31799   3.798   2.703   6.374  0.3912  0.0524 -0.2424
  231MOL0     C31800   3.788   2.847   6.361 -0.2794  1.0652  0.0018
  231MOL0     C31801   3.825   2.915   6.225  0.4231 -0.0601  0.1146
  231MOL0     C31802   3.768   3.057   6.201 -0.2391  0.4395  0.7329
  231MOL0     C31803   3.799   3.153   6.319  0.9603 -0.1033 -0.3057
  231MOL0     C31804   3.718   3.129   6.439 -0.5383 -0.2947  0.5136
  231MOL0     C31805   3.639   3.107   6.531 -1.6975 -0.1442  0.7044
  231MOL0     C31806   3.594   2.664   6.240 -0.2636 -0.1935 -0.1355
  231MOL0     C31807   3.508   2.576   6.170  0.6269 -0.8013 -0.5312
  231MOL0     C31808   3.389   2.628   6.090  0.8179  1.0614 -0.3448
  231MOL0     H31809   3.378   1.950   6.185 -0.6795 -1.6125 -0.2800
  231MOL0     H31810   3.168   1.830   6.184  2.7975 -0.4428 -1.0135
  231MOL0     H31811   2.783   1.806   6.193 -0.4377  2.7035  1.9579
  231MOL0     H31812   2.968   1.762   6.208  0.8451 -1.3828 -3.4696
  231MOL0     H31813   2.800   1.838   5.976  0.1699 -0.6750 -0.8758
  231MOL0     H31814   2.977   1.800   5.977  1.1679  1.0390  3.6914
  231MOL0     H31815   2.915   1.571   6.080  0.5473  1.2763  0.5657
  231MOL0     H31816   2.749   1.611   6.056  1.2510  0.3755  3.6637
  231MOL0     H31817   2.789   1.591   5.804  0.1052 -2.9309 -0.8613
  231MOL0     H31818   2.946   1.636   5.821  2.5365 -2.2393  1.9337
  231MOL0     H31819   2.868   1.370   5.944 -1.0443  2.6340  2.5684
  231MOL0     H31820   3.024   1.423   5.881 -0.1999 -0.4847 -0.4929
  231MOL0     H31821   2.782   1.367   5.707 -0.8053 -0.4317  0.4069
  231MOL0     H31822   2.949   1.424   5.652  1.4934 -3.0596  0.3877
  231MOL0     H31823   3.036   1.218   5.753  0.2273 -2.6299 -0.9726
  231MOL0     H31824   2.949   1.206   5.596  3.3886 -2.8822  0.8003
  231MOL0     H31825   2.899   1.031   5.716 -1.4757  0.2297 -4.5772
  231MOL0     H31826   2.814   1.143   5.844 -2.2510  0.9377 -1.5042
  231MOL0     H31827   2.798   1.039   5.473  0.5191 -0.8905  0.7429
  231MOL0     H31828   2.412   0.921   5.446  0.4983 -0.9272  0.1626
  231MOL0     H31829   2.568   0.881   5.372  2.9262  2.1043 -2.0291
  231MOL0     H31830   2.424   0.965   5.203  1.1843 -1.5506  1.7968
  231MOL0     H31831   2.384   1.112   5.287  1.0151  1.3907  1.0675
  231MOL0     H31832   2.662   1.142   5.232  0.3537 -0.2293  1.1277
  231MOL0     H31833   2.630   0.998   5.136  1.7674  0.8291  0.5416
  231MOL0     H31834   2.504   1.276   5.118 -0.4301  0.1305 -1.1974
  231MOL0     H31835   2.632   1.228   5.034  0.3644 -2.7393 -1.8312
  231MOL0     H31836   2.473   1.087   4.737 -0.6546  0.5698 -0.9233
  231MOL0     H31837   2.473   1.111   4.510 -0.3446 -0.4010  0.9427
  231MOL0     H31838   2.512   1.285   4.465 -0.4331  0.1363  0.6552
  231MOL0     H31839   2.351   1.214   4.449 -1.0061 -0.2794  0.6223
  231MOL0     H31840   2.196   1.419   4.283 -1.8224 -0.1117 -3.6007
  231MOL0     H31841   2.110   1.568   4.101  0.8856 -1.3659  0.0135
  231MOL0     H31842   2.179   1.668   3.888  3.3186  0.9074  0.6845
  231MOL0     H31843   2.029   1.730   3.966 -1.1603  0.4518 -1.1554
  231MOL0     H31844   2.083   1.969   3.874 -0.7317  0.1912 -0.0537
  231MOL0     H31845   2.183   1.883   3.752 -0.8704 -3.2386 -1.6309
  231MOL0     H31846   1.901   1.835   3.805  1.3720 -0.7955  0.5959
  231MOL0     H31847   1.996   1.743   3.695  3.0648  0.0657 -0.5375
  231MOL0     H31848   2.066   1.940   3.562 -0.7554  3.3422 -2.0552
  231MOL0     H31849   1.961   2.048   3.662  1.0633  0.3743 -0.3036
  231MOL0     H31850   1.908   1.819   3.458  0.2362 -0.3527 -0.1526
  231MOL0     H31851   1.775   1.844   3.580  0.0153  0.4748  0.7757
  231MOL0     H31852   1.755   1.952   3.367 -0.5168  0.2458 -0.7548
  231MOL0     H31853   1.896   2.053   3.412  1.8146 -1.7165  3.5416
  231MOL0     H31854   1.731   2.081   3.645 -2.8747  3.9585  0.9344
  231MOL0     H31855   1.605   2.025   3.530  0.5939 -2.4857  0.9830
  231MOL0     H31856   1.741   2.240   3.388  2.2093  0.9745  1.1925
  231MOL0     H31857   1.743   2.308   3.534 -0.0548  2.5708 -3.8179
  231MOL0     H31858   2.373   1.867   4.202 -0.0085 -1.1603 -2.5647
  231MOL0     H31859   2.450   1.737   4.414  1.9226 -2.5924 -1.3242
  231MOL0     H31860   2.253   1.521   4.842 -0.0581  1.1223 -0.8498
  231MOL0     H31861   2.315   1.353   5.023  0.1028  0.3816 -0.6594
  231MOL0     H31862   2.959   2.212   6.160  0.4033  2.7450  2.5588
  231MOL0     H31863   3.172   2.333   6.179 -0.8382 -0.6513  0.2049
  231MOL0     H31864   3.646   2.288   6.293 -0.0401  0.2914  2.2649
  231MOL0     H31865   3.810   2.446   6.387 -1.3708 -2.8276 -0.3644
  231MOL0     H31866   3.687   2.873   6.395 -1.2322 -0.6667 -1.3025
  231MOL0     H31867   3.862   2.878   6.435 -0.2483  2.0971 -0.4410
  231MOL0     H31868   3.782   2.851   6.147 -0.2746 -2.7478  2.5276
  231MOL0     H31869   3.934   2.912   6.217  0.5245  0.2591  1.2100
  231MOL0     H31870   3.800   3.099   6.105  1.7292 -3.9468 -0.8261
  231MOL0     H31871   3.660   3.044   6.187  0.1658 -0.0304 -3.3106
  231MOL0     H31872   3.774   3.254   6.286  0.8166 -0.7031 -2.1577
  231MOL0     H31873   3.903   3.154   6.354  0.2443 -0.5743  1.9546
  231MOL0     H31874   3.568   3.091   6.610 -0.4614  1.8924  2.3405
  231MOL0     H31875   3.570   2.770   6.234  0.6137 -0.0494 -1.7859
  231MOL0     H31876   3.386   2.575   5.994 -2.6179 -1.5969  1.0204
  231MOL0     H31877   3.298   2.600   6.144  2.8611 -2.9459  1.4972
  231MOL0     H31878   3.391   2.737   6.083  0.8864  0.9844 -2.0196
  232MOL0     O31879   9.540   6.676   2.297  0.0455 -0.2461 -0.3702
  232MOL0     C31880   9.443   6.737   2.251 -0.2391  0.2757 -0.1853
  232MOL0     O31881   9.448   6.842   2.159  0.5162 -0.0534  0.5947
  232MOL0     C31882   9.566   6.903   2.131 -0.6702 -0.1957 -0.0802
  232MOL0     C31883   9.650   6.945   2.235 -0.5066  0.3380 -0.7983
  232MOL0     C31884   9.773   7.009   2.218  0.3974 -1.4421  0.3169
  232MOL0     C31885   9.807   7.052   2.087  0.1414  0.2187 -0.2873
  232MOL0     O31886   9.924   7.113   2.062  0.6890 -0.1149 -0.2081
  232MOL0     C31887   9.924   7.252   2.040  0.6563 -0.2888 -0.5633
  232MOL0     C31888  10.058   7.294   1.975 -0.5655  1.1742 -0.0610
  232MOL0     C31889  10.079   7.226   1.838 -0.1116  0.1019  0.0837
  232MOL0     C31890  10.162   7.308   1.734  0.9305 -0.1967  0.1638
  232MOL0     C31891  10.192   7.232   1.604  0.0037  0.0234  0.3635
  232MOL0     C31892  10.272   7.313   1.502 -1.0152  0.1915  0.7407
  232MOL0     C31893  10.280   7.253   1.361  0.5501  0.5136  0.7776
  232MOL0     C31894  10.356   7.342   1.265 -0.1540  0.1126 -0.2385
  232MOL0     N31895  10.499   7.332   1.287 -0.1412 -0.1774 -0.0332
  232MOL0     C31896  10.589   7.224   1.271  0.5159 -0.4993 -0.3184
  232MOL0     C31897  10.711   7.271   1.295  0.3623 -1.0346 -0.2116
  232MOL0     C31898  10.828   7.190   1.309 -1.4714 -0.3307 -0.2206
  232MOL0     C31899  10.809   7.073   1.413 -0.8381  0.4425  0.3004
  232MOL0     C31900  10.756   7.115   1.554 -0.5265  0.1059  1.3919
  232MOL0     C31901  10.852   7.148   1.660 -1.0880  0.9436 -0.3452
  232MOL0     O31902  10.937   7.250   1.613  0.3897 -0.3954 -0.4837
  232MOL0     C31903  10.963   7.371   1.681  0.1587 -0.3678  0.0583
  232MOL0     C31904  10.976   7.373   1.819  1.0561 -0.5084 -0.3793
  232MOL0     C31905  10.999   7.494   1.890 -0.1191  0.3867  1.6075
  232MOL0     C31906  11.028   7.494   2.042  0.0103  0.2514 -0.0288
  232MOL0     C31907  10.991   7.609   1.810  0.6801 -0.2945  0.9974
  232MOL0     C31908  10.997   7.741   1.867 -0.0235 -0.3008  0.3434
  232MOL0     O31909  10.898   7.824   1.831 -0.4578  0.6769 -0.1918
  232MOL0     C31910  10.927   7.958   1.850  0.1680  1.3911 -0.5229
  232MOL0     C31911  10.945   8.019   1.971  0.1797  0.3383 -0.1892
  232MOL0     C31912  10.959   8.156   1.982 -0.3265 -0.2445 -0.5074
  232MOL0     C31913  10.971   8.236   1.864 -0.6868 -0.2086  0.2928
  232MOL0     O31914  10.977   8.377   1.868  0.1299  0.0739 -0.0628
  232MOL0     C31915  11.057   8.444   1.964  1.0405  0.2202 -0.4570
  232MOL0     C31916  10.983   8.559   2.035  0.1298  1.1072  0.2366
  232MOL0     C31917  11.065   8.629   2.152 -0.0484  0.7127 -0.3522
  232MOL0     C31918  11.038   8.545   2.285 -0.3858 -0.0195  0.2392
  232MOL0     C31919  11.130   8.601   2.401 -0.1558  0.1040  0.6826
  232MOL0     C31920  11.080   8.547   2.532 -0.5355  0.6860  0.0350
  232MOL0     C31921  11.180   8.546   2.644 -1.5107  0.9278  0.1031
  232MOL0     C31922  11.207   8.679   2.700 -0.1425  0.8764  0.1526
  232MOL0    Cl31923  11.040   8.746   2.751 -0.5347 -0.1941 -0.5385
  232MOL0     C31924  10.965   8.168   1.740 -0.7830 -0.1131  0.2820
  232MOL0     C31925  10.941   8.037   1.736 -0.5298 -0.3060  0.2658
  232MOL0     O31926  11.088   7.769   1.945  0.2815  0.4598 -0.2585
  232MOL0     C31927  10.981   7.606   1.676  0.0706 -0.3656  0.0211
  232MOL0     C31928  10.963   7.484   1.608  0.3908  0.9534 -0.1934
  232MOL0     N31929  10.696   7.405   1.331  0.5747 -0.3145 -0.0358
  232MOL0     N31930  10.576   7.439   1.321  0.0666 -0.0600  0.5886
  232MOL0     C31931   9.716   7.032   1.988  0.1747  1.0374  0.7719
  232MOL0     C31932   9.600   6.953   2.005  0.1732 -0.3555  0.8264
  232MOL0     C31933   9.319   6.658   2.258 -0.2417  1.4489 -0.4355
  232MOL0     C31934   9.251   6.639   2.137 -0.9275 -0.1434 -1.3787
  232MOL0     C31935   9.139   6.553   2.126 -0.2106 -0.3213 -0.0242
  232MOL0     C31936   9.103   6.477   2.236 -0.5413  0.3140 -0.5629
  232MOL0     O31937   9.008   6.386   2.219  0.2165  0.0856 -0.0770
  232MOL0     C31938   9.045   6.248   2.206  0.4311  0.1557  0.2985
  232MOL0     C31939   8.933   6.183   2.130 -0.3746  0.1452 -0.2070
  232MOL0     C31940   8.905   6.249   1.993 -0.4891 -0.2750  0.6262
  232MOL0     C31941   8.796   6.167   1.925  0.4972  0.3394 -0.2187
  232MOL0     C31942   8.723   6.243   1.822 -0.4713 -0.2020  0.3829
  232MOL0     C31943   8.652   6.314   1.754 -0.5915  0.7137  0.8793
  232MOL0     C31944   9.174   6.487   2.355 -0.4943 -0.1106 -0.4905
  232MOL0     C31945   9.277   6.580   2.371  0.4022  0.3489 -0.6260
  232MOL0     C31946   9.332   6.588   2.503  0.7082 -0.2739 -0.0714
  232MOL0     H31947   9.626   6.921   2.338 -0.6456 -3.7325 -1.5943
  232MOL0     H31948   9.820   7.025   2.314 -1.1653 -4.0472  1.6307
  232MOL0     H31949   9.923   7.298   2.140 -0.6455 -0.7677 -0.3371
  232MOL0     H31950   9.844   7.287   1.975  0.7170 -1.0113 -1.0385
  232MOL0     H31951  10.054   7.401   1.952 -0.6514  0.5412 -3.6029
  232MOL0     H31952  10.141   7.273   2.043 -1.4591 -1.2927  0.3492
  232MOL0     H31953  10.127   7.129   1.854  1.0164  0.5295 -0.5692
  232MOL0     H31954   9.988   7.196   1.785  1.1366  0.1713 -2.2446
  232MOL0     H31955  10.108   7.401   1.717 -0.1123 -0.5857  1.2238
  232MOL0     H31956  10.260   7.329   1.778 -0.2914 -0.8313  3.4771
  232MOL0     H31957  10.094   7.195   1.575  0.0098  0.2283  0.0856
  232MOL0     H31958  10.255   7.149   1.639 -0.5643  0.8844  3.8133
  232MOL0     H31959  10.238   7.416   1.487 -2.6477 -0.7278 -3.1453
  232MOL0     H31960  10.374   7.337   1.535 -0.4208 -1.5367  0.2636
  232MOL0     H31961  10.184   7.239   1.309  2.3968 -2.1376 -2.3159
  232MOL0     H31962  10.318   7.150   1.356 -1.0408 -0.0549 -1.5853
  232MOL0     H31963  10.345   7.309   1.161 -0.1730 -0.6430 -0.0039
  232MOL0     H31964  10.329   7.448   1.271  1.2646  0.4587  0.5326
  232MOL0     H31965  10.569   7.121   1.244 -1.5738 -0.1689 -0.2415
  232MOL0     H31966  10.906   7.253   1.352 -0.3403 -1.0412 -1.1555
  232MOL0     H31967  10.866   7.149   1.215  1.0418 -3.3407  1.8920
  232MOL0     H31968  10.730   7.007   1.375  1.6889 -1.5928 -1.8420
  232MOL0     H31969  10.901   7.016   1.431 -0.0441  1.5074 -0.2290
  232MOL0     H31970  10.680   7.193   1.542 -1.9080 -1.3666 -0.1367
  232MOL0     H31971  10.705   7.021   1.578 -1.4437 -0.4476 -2.1237
  232MOL0     H31972  10.809   7.182   1.755  1.8602 -2.7501  2.6670
  232MOL0     H31973  10.909   7.057   1.682  0.7790  1.5023 -2.5091
  232MOL0     H31974  10.993   7.279   1.870 -2.3196 -0.0197  1.9347
  232MOL0     H31975  11.111   7.554   2.081  1.4535 -1.4959 -0.2410
  232MOL0     H31976  11.056   7.394   2.076 -1.8679 -0.2564  0.1262
  232MOL0     H31977  10.936   7.517   2.096  0.7998 -1.8942  2.4838
  232MOL0     H31978  10.941   7.960   2.062 -1.5963  2.2562  1.0704
  232MOL0     H31979  10.977   8.208   2.076 -1.2115  1.6414 -1.3343
  232MOL0     H31980  11.091   8.382   2.047  5.3526  3.0152  0.1804
  232MOL0     H31981  11.144   8.484   1.911  2.0969 -1.2496  0.1038
  232MOL0     H31982  10.954   8.632   1.958  3.8575  0.4196 -2.0838
  232MOL0     H31983  10.891   8.513   2.072  0.4220 -0.6051 -1.0411
  232MOL0     H31984  11.046   8.734   2.174  3.1162  1.6844 -1.6667
  232MOL0     H31985  11.174   8.625   2.140  0.2747 -0.4468  2.2085
  232MOL0     H31986  11.063   8.439   2.277 -0.7108 -0.0678 -0.1343
  232MOL0     H31987  10.932   8.554   2.312 -0.8982 -2.3803 -0.7250
  232MOL0     H31988  11.234   8.568   2.397 -0.2393 -0.3325  1.7569
  232MOL0     H31989  11.122   8.710   2.391  0.1685  0.1399  0.7982
  232MOL0     H31990  11.056   8.442   2.515 -3.3387  1.1536  0.6389
  232MOL0     H31991  10.985   8.593   2.561 -1.4532 -1.5844  0.8097
  232MOL0     H31992  11.280   8.518   2.608 -1.6238 -1.0570  1.2204
  232MOL0     H31993  11.151   8.463   2.710  0.0261 -0.0842 -0.4403
  232MOL0     H31994  11.243   8.748   2.623  0.3980  1.3749  0.8394
  232MOL0     H31995  11.273   8.683   2.788 -1.4136  0.1838  1.1811
  232MOL0     H31996  10.977   8.230   1.652  0.2025  3.9730  3.0215
  232MOL0     H31997  10.930   7.995   1.636 -1.7915 -1.8133  0.9839
  232MOL0     H31998  10.990   7.695   1.614 -0.4544 -2.1564 -2.7901
  232MOL0     H31999  10.947   7.472   1.501 -3.6255 -3.3561  0.5869
  232MOL0     H32000   9.737   7.062   1.886 -1.2411 -0.0093  0.1426
  232MOL0     H32001   9.537   6.915   1.925 -0.5757 -2.0878  2.1883
  232MOL0     H32002   9.269   6.702   2.051 -1.2725  0.0978 -1.2773
  232MOL0     H32003   9.078   6.552   2.037  1.2028 -0.3088 -1.0138
  232MOL0     H32004   9.141   6.239   2.154 -0.3414  1.4567 -1.4729
  232MOL0     H32005   9.049   6.196   2.302  1.9296  0.7653  0.5892
  232MOL0     H32006   8.849   6.198   2.197 -1.3742 -0.2778 -1.3285
  232MOL0     H32007   8.963   6.079   2.116 -0.1963  0.4082 -2.0898
  232MOL0     H32008   8.880   6.354   2.013  1.0847  0.0653  0.9719
  232MOL0     H32009   8.995   6.248   1.931 -0.6185  0.0445  0.4311
  232MOL0     H32010   8.729   6.131   2.003 -0.0328  2.7147  0.5134
  232MOL0     H32011   8.840   6.076   1.883  1.2977  0.5733  0.0939
  232MOL0     H32012   8.588   6.364   1.684  0.0058 -0.5072 -0.6159
  232MOL0     H32013   9.140   6.434   2.443  1.0683 -0.2535  0.0708
  232MOL0     H32014   9.268   6.571   2.590  3.5434  1.4653  2.5780
  232MOL0     H32015   9.401   6.503   2.506  0.2241 -0.6520  0.4360
  232MOL0     H32016   9.386   6.682   2.518 -1.6309  1.1343  0.0156
  233MOL0     O32017   6.401  10.755   2.798 -0.9287  0.3699  0.6584
  233MOL0     C32018   6.456  10.830   2.876  0.8917 -0.4200 -0.2339
  233MOL0     O32019   6.572  10.905   2.847 -1.0666 -0.0885  0.8020
  233MOL0     C32020   6.657  10.870   2.742 -0.4007  0.1951  0.0934
  233MOL0     C32021   6.627  10.883   2.605  0.6252 -0.1502 -0.6588
  233MOL0     C32022   6.722  10.855   2.514 -0.5185  0.8179 -0.3270
  233MOL0     C32023   6.844  10.798   2.544 -0.3010  0.4896 -0.3176
  233MOL0     O32024   6.926  10.783   2.436 -0.3852  0.2113 -0.6592
  233MOL0     C32025   7.055  10.731   2.481  0.6896 -0.2199  0.4314
  233MOL0     C32026   7.135  10.669   2.379  0.3507  0.7554  0.2672
  233MOL0     C32027   7.090  10.521   2.351 -0.3250  0.0481  0.6771
  233MOL0     C32028   6.965  10.510   2.261 -0.1763  0.8437 -0.8688
  233MOL0     C32029   6.930  10.364   2.234  0.4148 -0.1659  0.9472
  233MOL0     C32030   6.850  10.289   2.345 -0.4182 -0.6101  0.4626
  233MOL0     C32031   6.795  10.147   2.314 -0.6945  1.4120  1.0415
  233MOL0     C32032   6.809  10.065   2.454  0.0794 -0.6611  1.0989
  233MOL0     N32033   6.705  10.104   2.547 -0.1726  0.6957  0.2212
  233MOL0     C32034   6.703  10.209   2.627  0.2541 -0.2946  0.4808
  233MOL0     C32035   6.593  10.213   2.702 -0.3701 -0.1485  0.0100
  233MOL0     C32036   6.544  10.331   2.790 -0.4246 -0.3836  0.1635
  233MOL0     C32037   6.450  10.426   2.720  0.6334  0.4774 -0.3080
  233MOL0     C32038   6.523  10.500   2.606 -0.0625 -0.2810  0.2334
  233MOL0     C32039   6.430  10.565   2.512  0.3557 -0.0222 -0.1235
  233MOL0     O32040   6.503  10.641   2.414 -0.0430 -0.2849  0.4762
  233MOL0     C32041   6.484  10.610   2.282 -0.3684 -0.7105  0.0918
  233MOL0     C32042   6.599  10.614   2.210 -0.2497 -0.3001 -0.2252
  233MOL0     C32043   6.600  10.588   2.076 -0.1467  1.0447 -0.1272
  233MOL0     C32044   6.727  10.608   2.001  0.4244 -1.2032  0.2755
  233MOL0     C32045   6.481  10.534   2.018  0.8925  0.5495 -0.5387
  233MOL0     C32046   6.475  10.496   1.875  0.6057 -0.0672 -0.3430
  233MOL0     O32047   6.590  10.430   1.815 -0.2099  0.0192 -0.3013
  233MOL0     C32048   6.586  10.402   1.680  0.0184 -0.6161 -0.5590
  233MOL0     C32049   6.567  10.274   1.633  0.0959  1.1447 -0.2843
  233MOL0     C32050   6.567  10.229   1.497 -0.8247 -0.5064  0.4503
  233MOL0     C32051   6.615  10.332   1.413  0.3405 -0.6257  0.6535
  233MOL0     O32052   6.616  10.289   1.274 -0.1463  0.4882 -0.1515
  233MOL0     C32053   6.601  10.400   1.179 -0.1844  0.4797  0.4931
  233MOL0     C32054   6.570  10.331   1.040  0.3133  0.6783 -0.6645
  233MOL0     C32055   6.476  10.209   1.061 -0.1563 -0.2149 -0.5796
  233MOL0     C32056   6.537  10.080   0.996  0.1232 -0.3016  0.0434
  233MOL0     C32057   6.577  10.103   0.849  0.8401 -0.3411  0.0573
  233MOL0     C32058   6.468  10.141   0.753 -1.3221  0.6591  0.8059
  233MOL0     C32059   6.519  10.125   0.605 -0.1508  0.3070 -0.5804
  233MOL0     C32060   6.410  10.151   0.511 -0.8630  0.8676  0.2330
  233MOL0    Cl32061   6.466  10.130   0.344  0.0889  0.1516 -0.1963
  233MOL0     C32062   6.655  10.462   1.458 -0.1086 -0.9691  0.1275
  233MOL0     C32063   6.633  10.500   1.592  0.8782  0.4884  1.4181
  233MOL0     O32064   6.366  10.505   1.821  0.3793  0.2335 -0.0155
  233MOL0     C32065   6.361  10.526   2.093 -0.0810  0.7196  0.0005
  233MOL0     C32066   6.373  10.563   2.230  0.0041  0.7316 -0.2740
  233MOL0     N32067   6.522  10.096   2.664  0.5745 -0.6948  0.2903
  233MOL0     N32068   6.590  10.039   2.569  1.0375  1.5787  0.0644
  233MOL0     C32069   6.875  10.781   2.685  0.6437  0.1071  1.2173
  233MOL0     C32070   6.784  10.822   2.787  0.7615  0.3124  0.5897
  233MOL0     C32071   6.377  10.869   2.996  0.0882 -1.0048  0.0341
  233MOL0     C32072   6.387  10.998   3.046  0.1176  0.3580 -1.2843
  233MOL0     C32073   6.329  11.042   3.163  0.2596 -0.6018 -0.0527
  233MOL0     C32074   6.234  10.959   3.224  0.7228  0.5477 -0.3083
  233MOL0     O32075   6.153  11.015   3.328 -0.3955 -0.7935 -0.8026
  233MOL0     C32076   6.071  10.919   3.391 -0.3876 -0.5301 -0.6827
  233MOL0     C32077   6.021  10.998   3.504  0.8926  0.1848  0.5675
  233MOL0     C32078   5.928  10.902   3.586 -0.5251 -0.0384 -0.9039
  233MOL0     C32079   5.825  10.983   3.663  0.0134  0.5885  0.0362
  233MOL0     C32080   5.872  11.020   3.799 -0.1908 -0.3115  0.8606
  233MOL0     C32081   5.922  11.043   3.907  0.0528 -0.9266 -0.3908
  233MOL0     C32082   6.219  10.823   3.180  0.6733  0.9522  0.4962
  233MOL0     C32083   6.292  10.778   3.066 -0.2878  0.8025 -0.1219
  233MOL0     C32084   6.269  10.638   3.017  0.9119  0.3395  0.3883
  233MOL0     H32085   6.522  10.907   2.591 -0.1718 -0.9710  3.0352
  233MOL0     H32086   6.704  10.859   2.407 -0.7781 -4.6958 -0.7941
  233MOL0     H32087   7.048  10.652   2.556  0.6443 -0.8054 -0.1846
  233MOL0     H32088   7.112  10.815   2.522 -2.5229  0.8666  3.2324
  233MOL0     H32089   7.128  10.724   2.284  4.2190  2.0192  0.5613
  233MOL0     H32090   7.240  10.675   2.408  0.0612 -0.7720  1.7832
  233MOL0     H32091   7.171  10.470   2.297 -1.9270 -1.6772 -0.2239
  233MOL0     H32092   7.073  10.457   2.438 -0.6537 -0.0503  0.5437
  233MOL0     H32093   6.875  10.556   2.303 -1.4749 -0.5093 -2.0544
  233MOL0     H32094   6.984  10.561   2.165 -1.2029  1.3127 -0.8287
  233MOL0     H32095   7.027  10.314   2.231  0.9608  0.8602 -2.3687
  233MOL0     H32096   6.882  10.355   2.136  0.7233  1.3988  0.6416
  233MOL0     H32097   6.907  10.291   2.439 -0.9557  1.7518  0.7968
  233MOL0     H32098   6.762  10.352   2.360 -0.4966  0.4451 -3.3904
  233MOL0     H32099   6.845  10.091   2.235 -3.6883 -2.4042  1.5785
  233MOL0     H32100   6.690  10.146   2.283 -0.9575  1.0775  1.9116
  233MOL0     H32101   6.802   9.956   2.451  0.0525 -0.6367 -0.1480
  233MOL0     H32102   6.909  10.091   2.489  0.0400 -0.5623  1.1374
  233MOL0     H32103   6.773  10.292   2.626 -1.8925  1.6708  2.5019
  233MOL0     H32104   6.626  10.393   2.826 -1.3071  0.7778  0.2285
  233MOL0     H32105   6.491  10.288   2.876  3.5700 -2.2536  1.9754
  233MOL0     H32106   6.370  10.367   2.675  0.3760 -0.8599  1.7682
  233MOL0     H32107   6.396  10.496   2.785  2.0788  1.3964 -0.0465
  233MOL0     H32108   6.584  10.578   2.651 -2.2885  0.9184  1.3369
  233MOL0     H32109   6.576  10.428   2.542 -4.3754 -2.3049 -1.4283
  233MOL0     H32110   6.370  10.483   2.472 -0.0599  0.2022  0.0320
  233MOL0     H32111   6.361  10.614   2.581  0.0868 -2.3120  1.3417
  233MOL0     H32112   6.689  10.646   2.260 -0.6786  2.3547 -0.9813
  233MOL0     H32113   6.772  10.508   2.003 -1.4220 -2.0807 -0.2870
  233MOL0     H32114   6.799  10.675   2.050  0.7429 -0.1289 -1.5724
  233MOL0     H32115   6.711  10.646   1.900 -1.6882  0.7751  1.2722
  233MOL0     H32116   6.553  10.199   1.710 -0.8135  0.5042 -1.0531
  233MOL0     H32117   6.522  10.135   1.469 -1.6995 -0.2856  1.0894
  233MOL0     H32118   6.516  10.461   1.211 -2.8669 -1.7092 -1.8921
  233MOL0     H32119   6.687  10.468   1.177  0.0108  0.3122 -3.0698
  233MOL0     H32120   6.520  10.400   0.971 -0.0898 -2.3757 -3.7554
  233MOL0     H32121   6.664  10.316   0.987  1.0395  1.0292  0.4930
  233MOL0     H32122   6.380  10.231   1.014 -2.0794  1.2804  3.5507
  233MOL0     H32123   6.452  10.179   1.163 -2.8693 -2.1102 -1.6531
  233MOL0     H32124   6.462  10.001   0.999  1.1823 -1.2984  2.2167
  233MOL0     H32125   6.620  10.050   1.060 -0.5258 -1.0345  0.5551
  233MOL0     H32126   6.651  10.183   0.836 -1.1409  1.3939 -1.1525
  233MOL0     H32127   6.632  10.015   0.814  2.9480  0.6077  0.8111
  233MOL0     H32128   6.415  10.236   0.762 -1.0837  0.9582 -0.6722
  233MOL0     H32129   6.400  10.056   0.767 -0.3472 -0.5051 -0.9687
  233MOL0     H32130   6.562  10.028   0.579 -0.0800  0.7434 -2.2249
  233MOL0     H32131   6.606  10.190   0.593  1.1669 -0.9368  1.6137
  233MOL0     H32132   6.362  10.249   0.522 -0.2278  0.9140  4.0086
  233MOL0     H32133   6.330  10.077   0.521  0.2155 -0.2711  0.6462
  233MOL0     H32134   6.708  10.528   1.391  0.0369 -1.5623 -0.3515
  233MOL0     H32135   6.657  10.600   1.627  3.8570  0.2453  0.3563
  233MOL0     H32136   6.273  10.482   2.046  0.1878  0.8144 -0.6034
  233MOL0     H32137   6.278  10.562   2.283 -0.5971 -1.4650 -1.2911
  233MOL0     H32138   6.972  10.745   2.718  0.8590 -0.3913  0.0781
  233MOL0     H32139   6.815  10.818   2.891  0.3936  3.1242  0.8662
  233MOL0     H32140   6.451  11.081   3.018 -0.5528  1.9611  1.5222
  233MOL0     H32141   6.342  11.146   3.189 -2.2865 -0.2757  0.2379
  233MOL0     H32142   5.987  10.891   3.327 -1.4800  1.5412 -0.2490
  233MOL0     H32143   6.127  10.836   3.436 -4.0897 -2.8354  0.0824
  233MOL0     H32144   5.970  11.087   3.466  0.1939 -0.9613 -1.2978
  233MOL0     H32145   6.095  11.032   3.577 -0.3421 -1.3569  2.6665
  233MOL0     H32146   5.871  10.836   3.519 -2.9418  1.6916 -0.6598
  233MOL0     H32147   5.986  10.832   3.648 -0.3894 -0.6549 -1.7050
  233MOL0     H32148   5.740  10.915   3.672 -0.6240  0.7430 -3.4422
  233MOL0     H32149   5.791  11.074   3.614  2.6558  2.1053  0.7604
  233MOL0     H32150   5.962  11.035   4.006 -1.1355 -2.0545  0.0228
  233MOL0     H32151   6.146  10.755   3.224 -0.2744  0.1259 -2.1440
  233MOL0     H32152   6.359  10.576   3.016  0.8751  0.2823  0.5069
  233MOL0     H32153   6.196  10.583   3.078  1.6669 -2.1272 -0.7931
  233MOL0     H32154   6.217  10.632   2.921 -2.6584 -3.4577  2.1999
  234MOL0     O32155   1.937   5.325   8.919 -0.0825  0.0346 -0.5618
  234MOL0     C32156   1.816   5.349   8.907 -0.1634  0.8279  0.3553
  234MOL0     O32157   1.722   5.251   8.917 -0.2875 -0.3967 -0.2940
  234MOL0     C32158   1.764   5.118   8.921  0.0556 -0.2790  0.3266
  234MOL0     C32159   1.836   5.074   9.024 -0.0986 -0.3158 -1.4945
  234MOL0     C32160   1.879   4.944   9.027 -0.0766 -0.4254 -1.4186
  234MOL0     C32161   1.860   4.862   8.908  0.2490 -0.1383  0.8508
  234MOL0     O32162   1.910   4.736   8.897 -0.3443 -0.1297 -0.4716
  234MOL0     C32163   2.041   4.712   8.963  0.3017 -0.6122 -0.4532
  234MOL0     C32164   2.088   4.569   8.964 -1.0552 -0.0968 -0.1748
  234MOL0     C32165   2.118   4.504   8.827 -0.7189  0.0849  0.6365
  234MOL0     C32166   2.250   4.541   8.772  0.7321 -0.8862 -1.1527
  234MOL0     C32167   2.273   4.501   8.624  0.5473  0.3983 -0.1480
  234MOL0     C32168   2.395   4.560   8.560 -0.1200  0.9461  0.4265
  234MOL0     C32169   2.432   4.496   8.429 -1.1018 -0.9398 -1.2353
  234MOL0     C32170   2.544   4.573   8.356 -0.5594  0.2162  0.4037
  234MOL0     N32171   2.539   4.518   8.212  0.0732  0.1182  0.0785
  234MOL0     C32172   2.444   4.548   8.123  0.2871 -0.5315  0.1138
  234MOL0     C32173   2.491   4.486   8.011  0.5631  0.3855 -0.5172
  234MOL0     C32174   2.406   4.494   7.881 -0.0738  0.3292 -0.4280
  234MOL0     C32175   2.332   4.359   7.847 -0.0778  0.5453 -0.4776
  234MOL0     C32176   2.228   4.337   7.950 -0.3750 -0.7312  0.5943
  234MOL0     C32177   2.149   4.205   7.932  0.4614  0.0862  0.6307
  234MOL0     O32178   2.048   4.219   7.827 -0.0818  0.0047  0.6635
  234MOL0     C32179   2.008   4.112   7.752 -0.5606  1.1891 -0.0302
  234MOL0     C32180   2.069   3.984   7.741  0.3601  0.1995 -0.1754
  234MOL0     C32181   2.012   3.889   7.653 -0.8224 -0.1700 -0.2610
  234MOL0     C32182   2.089   3.766   7.635  0.0917  1.3743  0.2411
  234MOL0     C32183   1.884   3.912   7.599 -0.1420  0.1642  0.4240
  234MOL0     C32184   1.799   3.814   7.524  0.4229 -1.2100 -0.1650
  234MOL0     O32185   1.672   3.861   7.478  0.1547  0.0330 -0.2782
  234MOL0     C32186   1.579   3.767   7.437  0.1839  0.0994 -0.4331
  234MOL0     C32187   1.544   3.748   7.299 -0.7675 -0.0057 -0.3947
  234MOL0     C32188   1.442   3.662   7.264  0.2027  1.0076 -0.3090
  234MOL0     C32189   1.374   3.587   7.363 -0.4050 -0.7952  0.7136
  234MOL0     O32190   1.263   3.516   7.322  0.7501  0.6822  0.1128
  234MOL0     C32191   1.237   3.398   7.388  0.5086 -0.2320  0.3927
  234MOL0     C32192   1.177   3.292   7.291  0.1569  0.5177  0.7067
  234MOL0     C32193   1.296   3.234   7.212  0.3697 -0.5584 -0.0264
  234MOL0     C32194   1.251   3.125   7.114  0.4798  0.5884 -0.1590
  234MOL0     C32195   1.361   3.021   7.100  0.4606 -0.8479 -0.8067
  234MOL0     C32196   1.299   2.883   7.043  0.3476 -0.2616 -1.0301
  234MOL0     C32197   1.385   2.758   7.060 -0.3059  0.2267  0.5512
  234MOL0     C32198   1.335   2.646   6.960 -0.3595  0.7219  0.6465
  234MOL0    Cl32199   1.468   2.532   6.914 -0.2242  0.0513  0.2575
  234MOL0     C32200   1.414   3.589   7.497 -0.5498 -0.7045 -0.4300
  234MOL0     C32201   1.515   3.678   7.532 -0.7821 -0.3412  0.3015
  234MOL0     O32202   1.841   3.703   7.507 -0.8333 -0.0547  0.1636
  234MOL0     C32203   1.829   4.043   7.611  0.8220 -0.5889 -1.5471
  234MOL0     C32204   1.891   4.132   7.685  0.2506 -0.0297 -0.1666
  234MOL0     N32205   2.612   4.425   8.039  0.5649  0.2749 -0.3790
  234MOL0     N32206   2.632   4.436   8.161 -0.3775 -0.8021  0.7102
  234MOL0     C32207   1.791   4.907   8.805  0.3283 -0.4181 -0.1297
  234MOL0     C32208   1.733   5.035   8.812 -0.0911 -0.4228 -0.4796
  234MOL0     C32209   1.757   5.493   8.911  1.3465 -0.4137  0.9077
  234MOL0     C32210   1.612   5.506   8.919 -0.3023  1.0329  0.0297
  234MOL0     C32211   1.552   5.630   8.929 -0.1942  0.2705  0.0019
  234MOL0     C32212   1.622   5.748   8.930 -0.3322  0.3423  0.6636
  234MOL0     O32213   1.560   5.863   8.964  0.7677 -0.3310  0.0233
  234MOL0     C32214   1.645   5.965   9.021  0.5748  0.1778  0.1164
  234MOL0     C32215   1.550   6.061   9.100  0.4534 -0.8747  0.1607
  234MOL0     C32216   1.484   6.011   9.230 -0.2425  0.0282  0.0492
  234MOL0     C32217   1.335   5.999   9.226  0.2463  0.2337  0.1790
  234MOL0     C32218   1.264   6.118   9.263 -0.5681  0.9229 -0.6540
  234MOL0     C32219   1.214   6.224   9.304  0.4662  0.4661  0.0028
  234MOL0     C32220   1.763   5.734   8.920  0.3492 -1.4863  0.0463
  234MOL0     C32221   1.834   5.615   8.903  0.6719 -0.4571 -0.1367
  234MOL0     C32222   1.976   5.623   8.906  0.1540 -0.1867  0.0921
  234MOL0     H32223   1.849   5.136   9.112 -1.4356 -2.6736  0.5283
  234MOL0     H32224   1.929   4.904   9.115 -2.2172 -0.3119 -0.0827
  234MOL0     H32225   2.026   4.739   9.068 -0.0658 -0.2440 -0.5992
  234MOL0     H32226   2.120   4.782   8.935  1.4703 -1.8537 -0.3777
  234MOL0     H32227   2.177   4.556   9.027  0.3933 -3.5962 -2.5548
  234MOL0     H32228   2.012   4.516   9.021  0.6615 -3.5535 -0.7916
  234MOL0     H32229   2.127   4.396   8.841  0.9882  0.1061 -0.0966
  234MOL0     H32230   2.035   4.529   8.761 -0.3794 -1.7452 -0.5396
  234MOL0     H32231   2.251   4.651   8.773 -1.9757 -0.8035 -1.4588
  234MOL0     H32232   2.331   4.502   8.834  1.4615  3.3180  0.8829
  234MOL0     H32233   2.180   4.522   8.569  0.1680 -0.2485  0.2316
  234MOL0     H32234   2.288   4.393   8.632  0.9154  0.2066 -2.6390
  234MOL0     H32235   2.358   4.660   8.533  2.7016  1.8591 -0.4170
  234MOL0     H32236   2.484   4.562   8.624  0.2858  0.9849 -0.1298
  234MOL0     H32237   2.337   4.493   8.376 -2.4471 -1.6466  1.0813
  234MOL0     H32238   2.464   4.396   8.461  1.4974 -0.0203 -0.6492
  234MOL0     H32239   2.527   4.681   8.363  4.3317  1.1290  2.7975
  234MOL0     H32240   2.642   4.553   8.401 -1.9727 -2.1715  2.6664
  234MOL0     H32241   2.352   4.604   8.132  1.2748  1.5444 -1.6785
  234MOL0     H32242   2.483   4.510   7.805 -1.1668 -3.8185 -2.7187
  234MOL0     H32243   2.335   4.576   7.870  2.3999  2.5794 -0.6849
  234MOL0     H32244   2.285   4.373   7.749  2.3640 -1.2408 -2.0415
  234MOL0     H32245   2.405   4.281   7.825 -0.5622  0.0372 -0.3025
  234MOL0     H32246   2.266   4.342   8.052 -1.9909  0.4732  1.1658
  234MOL0     H32247   2.159   4.421   7.943  0.5607 -0.0536 -1.1994
  234MOL0     H32248   2.220   4.124   7.914 -0.3390 -0.9217  1.8542
  234MOL0     H32249   2.085   4.185   8.019 -0.2184 -3.2707 -0.4762
  234MOL0     H32250   2.161   3.962   7.795 -0.9448 -2.4556  1.0992
  234MOL0     H32251   2.057   3.696   7.712  1.7915  1.6221  1.2205
  234MOL0     H32252   2.191   3.802   7.654 -0.2189  3.9481 -2.1066
  234MOL0     H32253   2.081   3.731   7.531 -0.9358  2.5876 -0.1182
  234MOL0     H32254   1.583   3.809   7.218  0.7028  1.1237  1.0843
  234MOL0     H32255   1.408   3.648   7.162  1.2732 -0.8588 -0.4580
  234MOL0     H32256   1.325   3.354   7.437  1.1726 -0.4344 -0.9473
  234MOL0     H32257   1.161   3.409   7.466 -0.1179 -3.2593  0.3488
  234MOL0     H32258   1.122   3.216   7.347 -0.5962  0.0633 -0.5959
  234MOL0     H32259   1.099   3.335   7.227  0.3210  0.3037  0.3613
  234MOL0     H32260   1.374   3.196   7.279 -0.4441  1.1198  1.9913
  234MOL0     H32261   1.342   3.318   7.160 -0.7296  0.7642  1.0329
  234MOL0     H32262   1.220   3.171   7.020  2.1099  1.7281 -0.1819
  234MOL0     H32263   1.169   3.063   7.153  0.7550 -0.4542 -1.1934
  234MOL0     H32264   1.442   3.055   7.036 -0.9296  0.4696 -1.9569
  234MOL0     H32265   1.414   2.998   7.193  1.3983 -0.3994 -1.2200
  234MOL0     H32266   1.288   2.892   6.935  3.8657  0.7693 -1.4563
  234MOL0     H32267   1.197   2.866   7.077  0.7973 -2.7730 -0.7720
  234MOL0     H32268   1.366   2.721   7.162 -1.0877  1.0975  0.7371
  234MOL0     H32269   1.491   2.777   7.044 -0.4767 -1.1187 -3.1047
  234MOL0     H32270   1.309   2.678   6.859  1.6858 -2.5738 -1.1178
  234MOL0     H32271   1.258   2.586   7.011  0.3491 -0.4822  0.3373
  234MOL0     H32272   1.376   3.530   7.580  1.9856 -0.4549  0.9848
  234MOL0     H32273   1.563   3.677   7.629  3.3156 -1.2539 -1.5666
  234MOL0     H32274   1.749   4.073   7.545 -1.1046 -0.2385  0.8105
  234MOL0     H32275   1.847   4.231   7.688 -1.4779 -0.7467 -0.8366
  234MOL0     H32276   1.772   4.857   8.711 -0.9834  2.8796 -1.7874
  234MOL0     H32277   1.671   5.070   8.730 -0.1329 -0.7362 -0.5839
  234MOL0     H32278   1.549   5.417   8.922  2.1226 -0.8453 -1.6866
  234MOL0     H32279   1.450   5.631   8.965 -0.2027 -0.0626 -0.0083
  234MOL0     H32280   1.724   5.923   9.084  2.3509 -1.4491 -2.9631
  234MOL0     H32281   1.707   6.009   8.942  1.8725 -0.6630  0.6325
  234MOL0     H32282   1.473   6.088   9.028  1.3722  0.3033 -0.4268
  234MOL0     H32283   1.601   6.155   9.122 -1.3715  0.0239  0.7638
  234MOL0     H32284   1.538   5.922   9.261  0.0755  0.0765 -0.3518
  234MOL0     H32285   1.508   6.076   9.315 -1.9000  0.6357  0.0856
  234MOL0     H32286   1.296   5.935   9.307  1.5872 -0.9382 -0.0765
  234MOL0     H32287   1.304   5.965   9.127 -1.4075  3.0914 -0.3767
  234MOL0     H32288   1.178   6.311   9.356  2.7831  0.9133  1.0219
  234MOL0     H32289   1.821   5.826   8.917 -2.5529  0.4516 -0.1466
  234MOL0     H32290   2.003   5.724   8.874  0.6200 -0.4805 -0.4601
  234MOL0     H32291   2.013   5.609   9.007  1.8286  1.5759 -0.2045
  234MOL0     H32292   2.020   5.541   8.850 -1.1235 -0.7119 -0.1942
  235MOL0     O32293   3.915   4.727   5.383 -0.6012 -0.1304  0.0778
  235MOL0     C32294   3.916   4.737   5.262  0.1740 -0.3494  0.4471
  235MOL0     O32295   3.843   4.827   5.189 -0.5717  0.5996  0.1034
  235MOL0     C32296   3.750   4.901   5.248  0.4816 -0.0042 -0.6367
  235MOL0     C32297   3.621   4.849   5.258  0.6964 -0.4319 -0.4456
  235MOL0     C32298   3.505   4.920   5.307  0.0485 -0.5302 -0.2851
  235MOL0     C32299   3.523   5.059   5.345  0.6860  0.6766  0.2304
  235MOL0     O32300   3.412   5.115   5.395 -0.3047 -0.2200  0.0747
  235MOL0     C32301   3.413   5.263   5.394 -0.0956  0.3980 -0.2444
  235MOL0     C32302   3.270   5.314   5.393  0.5678 -0.7324  0.2503
  235MOL0     C32303   3.187   5.250   5.507  0.4971 -0.1810  0.3591
  235MOL0     C32304   3.051   5.321   5.527 -0.0079 -0.7680  0.3437
  235MOL0     C32305   2.970   5.258   5.645  0.6277  0.3091 -0.1521
  235MOL0     C32306   2.903   5.132   5.600 -0.2850  0.0382 -0.0252
  235MOL0     C32307   2.842   5.052   5.723  0.0724 -0.4427  0.7200
  235MOL0     C32308   2.749   4.945   5.677  0.6627  0.6736  0.4427
  235MOL0     N32309   2.672   4.875   5.781 -0.3697  0.3130  0.0090
  235MOL0     C32310   2.535   4.849   5.779  0.4915  0.1452 -0.3031
  235MOL0     C32311   2.513   4.755   5.882 -0.3143 -0.3902  0.8167
  235MOL0     C32312   2.387   4.690   5.911 -0.2638 -0.0550 -0.7090
  235MOL0     C32313   2.310   4.765   6.022 -0.5503 -0.8910  0.2969
  235MOL0     C32314   2.247   4.890   5.966  1.0985  0.9149 -0.1731
  235MOL0     C32315   2.129   4.922   6.056 -0.5876 -0.7753 -0.7072
  235MOL0     O32316   2.081   5.032   5.987  0.7095  0.1234  1.1042
  235MOL0     C32317   1.994   5.116   6.055 -0.7938 -0.4388  0.0984
  235MOL0     C32318   1.928   5.208   5.976 -0.3048  1.5035 -0.1418
  235MOL0     C32319   1.841   5.299   6.031  0.1772 -0.5552  0.1908
  235MOL0     C32320   1.795   5.395   5.928  0.6161  0.2749 -0.8942
  235MOL0     C32321   1.806   5.294   6.168  0.0866  0.5023 -1.3140
  235MOL0     C32322   1.703   5.382   6.235  0.4288  0.4320 -0.1090
  235MOL0     O32323   1.669   5.495   6.166 -0.2739 -0.1670 -0.1925
  235MOL0     C32324   1.544   5.558   6.168 -0.1330 -0.5339 -0.2359
  235MOL0     C32325   1.458   5.564   6.276  0.3687  0.8265 -0.9919
  235MOL0     C32326   1.338   5.642   6.266 -0.9297 -0.1264  0.2925
  235MOL0     C32327   1.313   5.716   6.152 -0.0338  0.6268 -0.3955
  235MOL0     O32328   1.198   5.795   6.155  0.7162  0.1498  0.4830
  235MOL0     C32329   1.127   5.819   6.030 -0.1760  0.6965 -0.0128
  235MOL0     C32330   0.973   5.823   6.050  0.7798 -0.1663  0.4049
  235MOL0     C32331   0.904   5.870   5.916 -0.2865  0.5832  0.2646
  235MOL0     C32332   0.760   5.879   5.959 -0.3871  0.1964 -0.7431
  235MOL0     C32333   0.682   5.930   5.842  0.4621 -0.4822  0.6027
  235MOL0     C32334   0.530   5.916   5.864 -0.3372 -0.4515 -0.1656
  235MOL0     C32335   0.465   5.945   5.733 -0.1071 -0.3166  0.3335
  235MOL0     C32336   0.322   5.884   5.732 -0.0729 -0.1475  0.6151
  235MOL0    Cl32337   0.209   5.924   5.860 -0.2640  0.2673 -0.0469
  235MOL0     C32338   1.403   5.712   6.042  0.8586  0.0136 -0.2323
  235MOL0     C32339   1.516   5.632   6.053  0.1419 -0.0896  1.2741
  235MOL0     O32340   1.652   5.339   6.341 -0.4530  0.8483  0.3737
  235MOL0     C32341   1.873   5.198   6.244  0.8634  0.1121  0.5705
  235MOL0     C32342   1.970   5.108   6.193  0.0138  0.4449  0.2879
  235MOL0     N32343   2.642   4.733   5.941  0.4358 -0.0256  0.1299
  235MOL0     N32344   2.729   4.816   5.891  0.1947  0.6927  0.1697
  235MOL0     C32345   3.650   5.108   5.330 -0.2233  0.0419 -0.7717
  235MOL0     C32346   3.761   5.034   5.276  0.3784  1.3788  0.3188
  235MOL0     C32347   3.987   4.641   5.181 -0.1178  0.6808  0.2273
  235MOL0     C32348   3.940   4.613   5.050 -1.1850 -0.2303 -0.2811
  235MOL0     C32349   4.001   4.516   4.971 -0.2059  0.1196 -0.2258
  235MOL0     C32350   4.113   4.448   5.016  0.6332  0.9951 -0.6729
  235MOL0     O32351   4.171   4.344   4.941  0.2648  0.5246 -0.1746
  235MOL0     C32352   4.300   4.381   4.893  0.1547 -0.3029  0.1646
  235MOL0     C32353   4.376   4.256   4.845 -0.3795 -0.0911 -0.3317
  235MOL0     C32354   4.532   4.275   4.840  0.3635  0.6944 -0.6388
  235MOL0     C32355   4.604   4.148   4.813 -0.1500  0.5388 -0.1552
  235MOL0     C32356   4.601   4.069   4.940  0.0430 -1.0903 -0.0299
  235MOL0     C32357   4.597   4.010   5.046  0.6927  0.7713  0.4460
  235MOL0     C32358   4.164   4.486   5.143 -0.5254  0.9380 -0.1709
  235MOL0     C32359   4.111   4.587   5.226  0.5629 -0.6261 -0.3844
  235MOL0     C32360   4.182   4.623   5.359 -0.3546  0.0160 -0.1012
  235MOL0     H32361   3.594   4.751   5.218  0.7683 -0.4886 -0.3563
  235MOL0     H32362   3.408   4.874   5.325 -0.1781  0.3510  0.8980
  235MOL0     H32363   3.459   5.290   5.299  2.7187  3.6326  1.7835
  235MOL0     H32364   3.468   5.301   5.481  0.6855 -1.2248  0.0170
  235MOL0     H32365   3.278   5.422   5.407  0.7816 -0.3623 -2.1756
  235MOL0     H32366   3.221   5.280   5.301 -1.3986 -0.4853  1.1499
  235MOL0     H32367   3.172   5.150   5.466 -1.0776  0.5305 -0.9298
  235MOL0     H32368   3.239   5.246   5.603 -0.5562 -0.0468  0.9601
  235MOL0     H32369   3.072   5.427   5.542 -3.6141  0.4360 -1.8547
  235MOL0     H32370   2.996   5.317   5.432  1.0034 -4.6032 -0.2499
  235MOL0     H32371   2.890   5.328   5.672  0.1465 -0.2254 -0.1735
  235MOL0     H32372   3.034   5.247   5.733 -0.6528 -0.2962  0.7328
  235MOL0     H32373   2.836   5.148   5.516  0.8316  1.2509 -0.7261
  235MOL0     H32374   2.985   5.077   5.553  0.1646  0.4109  0.3140
  235MOL0     H32375   2.778   5.129   5.767 -2.8162 -3.2757  1.8517
  235MOL0     H32376   2.926   5.015   5.784  2.2027  0.6852 -1.3449
  235MOL0     H32377   2.678   4.983   5.602 -1.1029 -1.7185  0.7872
  235MOL0     H32378   2.812   4.872   5.626 -0.4078 -1.3385  1.8793
  235MOL0     H32379   2.457   4.885   5.712  0.7440  0.7504 -0.2809
  235MOL0     H32380   2.405   4.587   5.944 -2.7771 -0.3917 -0.1852
  235MOL0     H32381   2.329   4.689   5.818 -0.5612 -1.1412 -0.5336
  235MOL0     H32382   2.236   4.700   6.070 -3.1035  0.2290 -1.8471
  235MOL0     H32383   2.379   4.786   6.105 -0.8875 -1.4354  0.7230
  235MOL0     H32384   2.314   4.976   5.967  1.5107  0.6547  2.9047
  235MOL0     H32385   2.215   4.874   5.863  2.2882  2.3550 -0.7991
  235MOL0     H32386   2.055   4.841   6.047  0.7391 -2.0294 -0.6624
  235MOL0     H32387   2.158   4.945   6.159 -2.1697 -1.0707 -0.1696
  235MOL0     H32388   1.950   5.214   5.870 -1.6838  2.1700 -0.4122
  235MOL0     H32389   1.842   5.389   5.830  0.5695 -0.4609 -0.8774
  235MOL0     H32390   1.799   5.497   5.968  0.8486  0.4019 -1.2414
  235MOL0     H32391   1.691   5.369   5.910  0.3670 -0.1608  0.8917
  235MOL0     H32392   1.476   5.523   6.375 -1.3416  0.8110 -0.6679
  235MOL0     H32393   1.263   5.651   6.344 -2.1937  4.5470 -1.1496
  235MOL0     H32394   1.167   5.912   5.989  2.5532 -1.0196 -1.5645
  235MOL0     H32395   1.157   5.748   5.952  1.4133  0.8510  0.4307
  235MOL0     H32396   0.951   5.720   6.081 -0.0923 -0.7202 -1.9055
  235MOL0     H32397   0.947   5.898   6.125 -1.4352  1.8883 -2.2214
  235MOL0     H32398   0.930   5.790   5.845  1.1793  0.6517  0.6851
  235MOL0     H32399   0.935   5.968   5.877 -4.1394  1.5536 -0.7356
  235MOL0     H32400   0.745   5.941   6.048 -3.4155 -1.4015  0.0005
  235MOL0     H32401   0.725   5.778   5.985  0.9965 -0.1164 -0.0257
  235MOL0     H32402   0.710   6.031   5.813  0.7928 -1.1183 -1.4641
  235MOL0     H32403   0.708   5.872   5.753 -0.3086  0.6795 -0.4140
  235MOL0     H32404   0.494   5.983   5.943 -4.2234  1.3984 -3.1460
  235MOL0     H32405   0.493   5.822   5.906 -1.8753  0.2028  0.0143
  235MOL0     H32406   0.512   5.897   5.647 -3.4374 -0.8795 -1.3484
  235MOL0     H32407   0.458   6.053   5.719 -1.7548  0.2493  4.3135
  235MOL0     H32408   0.331   5.777   5.751 -2.3317 -0.8832 -1.7492
  235MOL0     H32409   0.276   5.904   5.634 -1.7575 -2.3418  0.8679
  235MOL0     H32410   1.374   5.774   5.958 -1.0356  1.9770  1.7158
  235MOL0     H32411   1.579   5.618   5.966 -2.0936 -2.5958 -0.1065
  235MOL0     H32412   1.870   5.201   6.353  1.5591  0.1448  0.5982
  235MOL0     H32413   2.011   5.031   6.258  1.0318  1.6397  1.1061
  235MOL0     H32414   3.682   5.208   5.358  2.0450 -0.8895  0.1568
  235MOL0     H32415   3.860   5.079   5.281  0.2600  1.5605  1.1838
  235MOL0     H32416   3.862   4.665   4.996 -0.3586  0.7816 -0.5478
  235MOL0     H32417   3.951   4.498   4.876 -1.4882  0.6045  0.3246
  235MOL0     H32418   4.280   4.441   4.804 -1.3357 -0.0078  0.6623
  235MOL0     H32419   4.354   4.442   4.965  1.1315  0.9562 -1.5463
  235MOL0     H32420   4.338   4.212   4.752 -2.1887 -0.9920  0.7629
  235MOL0     H32421   4.362   4.184   4.926  2.2823  1.4439  1.6145
  235MOL0     H32422   4.548   4.332   4.748 -1.6752  0.9657 -0.8835
  235MOL0     H32423   4.583   4.322   4.924  0.6183 -1.1540  0.2957
  235MOL0     H32424   4.706   4.170   4.780 -0.7284  0.3477 -2.2763
  235MOL0     H32425   4.554   4.086   4.737 -0.2267  0.0946  0.2552
  235MOL0     H32426   4.619   3.969   5.142  0.5302  2.4387  1.2164
  235MOL0     H32427   4.240   4.426   5.193 -1.0350 -1.0387 -1.6610
  235MOL0     H32428   4.289   4.603   5.347  0.2673  2.5602  0.6804
  235MOL0     H32429   4.185   4.730   5.379  0.4708 -0.2482  1.2688
  235MOL0     H32430   4.139   4.569   5.444  0.6917 -0.3184  0.2320
  236MOL0     O32431   3.243   7.396   8.066  0.4017 -0.1875 -0.1740
  236MOL0     C32432   3.356   7.349   8.043 -0.6206 -0.9531 -0.9271
  236MOL0     O32433   3.414   7.260   8.118 -0.4494 -0.0055  0.3794
  236MOL0     C32434   3.339   7.185   8.204  0.0623 -0.1745 -0.3123
  236MOL0     C32435   3.357   7.199   8.339  0.7229  0.0917 -0.6650
  236MOL0     C32436   3.284   7.123   8.429  0.0315 -0.6386 -0.8257
  236MOL0     C32437   3.193   7.035   8.376  0.2416  0.5460 -0.2325
  236MOL0     O32438   3.097   6.988   8.468  0.3689 -0.3388 -0.0773
  236MOL0     C32439   3.105   6.856   8.523 -0.3004 -0.6166  0.8366
  236MOL0     C32440   2.959   6.811   8.520 -0.1243 -0.7052 -0.2620
  236MOL0     C32441   2.866   6.885   8.609  0.6812  0.3532 -1.2797
  236MOL0     C32442   2.749   6.792   8.663 -0.7905 -0.1586 -0.4787
  236MOL0     C32443   2.651   6.860   8.761 -0.0109 -1.2237  0.3935
  236MOL0     C32444   2.533   6.765   8.791 -0.6267  0.0747  0.9162
  236MOL0     C32445   2.429   6.830   8.887  0.6302 -0.9444  0.5730
  236MOL0     C32446   2.391   6.976   8.839 -0.5398  0.3088 -0.2578
  236MOL0     N32447   2.272   7.011   8.919  0.2592  0.0733  0.4349
  236MOL0     C32448   2.152   6.943   8.929 -0.6555 -0.4682 -0.3498
  236MOL0     C32449   2.084   7.012   9.030 -0.8468  0.1956 -0.9263
  236MOL0     C32450   1.956   6.954   9.076 -0.7439 -0.1492 -0.2384
  236MOL0     C32451   1.901   7.021   9.204 -0.0157 -0.1156  0.5395
  236MOL0     C32452   1.753   6.983   9.227  0.3981 -0.2367 -0.5286
  236MOL0     C32453   1.694   7.030   9.364  0.8206  1.0375  0.3615
  236MOL0     O32454   1.690   7.174   9.380  0.9044  0.5363  0.0447
  236MOL0     C32455   1.620   7.224   9.485 -0.1439  0.4343 -0.1223
  236MOL0     C32456   1.531   7.149   9.570 -1.1561 -0.3475 -0.0947
  236MOL0     C32457   1.480   7.211   9.686 -0.6433  1.1396  0.4187
  236MOL0     C32458   1.393   7.120   9.758  0.5067  1.3545 -0.7971
  236MOL0     C32459   1.507   7.347   9.718  0.7728 -0.4690 -0.8849
  236MOL0     C32460   1.457   7.426   9.835 -0.2517  0.1049 -0.5047
  236MOL0     O32461   1.524   7.543   9.859 -0.3014 -0.1390 -0.1392
  236MOL0     C32462   1.485   7.616   9.964 -0.0555 -0.3091 -0.7694
  236MOL0     C32463   1.405   7.729   9.945 -0.3153 -0.3729  0.5442
  236MOL0     C32464   1.364   7.807  10.058  0.7283 -0.2756 -0.1427
  236MOL0     C32465   1.406   7.773  10.184 -0.0154  0.5236  0.1836
  236MOL0     O32466   1.375   7.844  10.293 -0.1835  0.4468 -0.4737
  236MOL0     C32467   1.394   7.984  10.285 -0.8064  0.1248  0.0174
  236MOL0     C32468   1.340   8.047  10.408  0.3711  0.4163  0.3126
  236MOL0     C32469   1.411   8.019  10.535 -0.2675  0.5143  0.0762
  236MOL0     C32470   1.371   8.127  10.636 -0.2678 -0.4307 -0.6148
  236MOL0     C32471   1.446   8.098  10.767  0.2628  0.3943 -0.7014
  236MOL0     C32472   1.405   8.192  10.889  0.7836  0.3890 -0.7598
  236MOL0     C32473   1.503   8.175  11.012  0.3794 -0.0079 -0.2617
  236MOL0     C32474   1.474   8.046  11.087  0.5088  0.7113  0.0614
  236MOL0    Cl32475   1.611   8.033  11.210  0.7764 -0.0041 -0.5689
  236MOL0     C32476   1.459   7.644  10.208  0.3827 -0.4633 -0.0843
  236MOL0     C32477   1.510   7.575  10.094 -0.1966  0.2925  0.4850
  236MOL0     O32478   1.348   7.386   9.896  0.5110  0.0597  0.6415
  236MOL0     C32479   1.587   7.420   9.621  0.2675  0.5335  0.0531
  236MOL0     C32480   1.647   7.353   9.512 -0.0375 -0.0453 -0.2504
  236MOL0     N32481   2.167   7.109   9.080  0.3192  0.5026  1.3183
  236MOL0     N32482   2.281   7.101   9.015 -0.2822  1.0206 -0.0547
  236MOL0     C32483   3.183   7.001   8.240  1.0216 -1.8239  0.3089
  236MOL0     C32484   3.261   7.076   8.153  0.0675 -0.5792 -0.7558
  236MOL0     C32485   3.438   7.400   7.935 -0.3314  1.0364  0.4814
  236MOL0     C32486   3.412   7.525   7.889  0.3718 -0.5670  0.6814
  236MOL0     C32487   3.501   7.601   7.801 -0.3681  0.4337 -0.7495
  236MOL0     C32488   3.617   7.545   7.755  0.4815 -0.2666 -0.6203
  236MOL0     O32489   3.697   7.623   7.681 -0.0770 -0.0363 -0.3406
  236MOL0     C32490   3.786   7.698   7.758 -0.5791 -0.2000 -0.5478
  236MOL0     C32491   3.847   7.796   7.664  0.1505  0.4736 -0.1346
  236MOL0     C32492   3.947   7.881   7.740 -0.5106  0.3999  0.3395
  236MOL0     C32493   4.013   7.982   7.644 -0.7455  0.3064  0.4856
  236MOL0     C32494   3.940   8.110   7.631 -1.0252  0.7325  0.0019
  236MOL0     C32495   3.862   8.205   7.628  0.8643  0.4108  0.7767
  236MOL0     C32496   3.650   7.418   7.806 -0.1632 -0.9495 -0.7396
  236MOL0     C32497   3.558   7.345   7.882 -0.3624 -0.0415 -0.4831
  236MOL0     C32498   3.616   7.207   7.923  0.5705  0.2943  1.4125
  236MOL0     H32499   3.407   7.288   8.376 -3.6403  2.8446 -0.7926
  236MOL0     H32500   3.285   7.156   8.533  1.5498 -4.4871  0.6040
  236MOL0     H32501   3.138   6.867   8.627  0.2810  0.0449  0.5898
  236MOL0     H32502   3.162   6.785   8.463 -0.9100 -2.8251  2.7201
  236MOL0     H32503   2.920   6.819   8.418 -0.9028  0.3543  0.0924
  236MOL0     H32504   2.968   6.704   8.539  1.0621 -0.5401  0.1291
  236MOL0     H32505   2.901   6.930   8.703 -1.8594  0.5546 -0.3539
  236MOL0     H32506   2.828   6.966   8.545 -3.8045 -1.5569 -1.3868
  236MOL0     H32507   2.692   6.764   8.573 -0.5540  0.8928 -0.9651
  236MOL0     H32508   2.799   6.710   8.716  2.0123  2.6493  1.5439
  236MOL0     H32509   2.625   6.957   8.718 -1.5094 -1.6937  0.2028
  236MOL0     H32510   2.708   6.871   8.854  1.0632  1.2559 -0.4577
  236MOL0     H32511   2.478   6.741   8.700 -0.8749  2.5452  0.3419
  236MOL0     H32512   2.563   6.665   8.824 -3.0738 -1.3087 -0.7282
  236MOL0     H32513   2.475   6.827   8.987 -1.8896 -0.9477  1.8039
  236MOL0     H32514   2.344   6.761   8.897 -0.0553 -0.3982 -1.2093
  236MOL0     H32515   2.472   7.049   8.849 -0.5253  0.2753 -0.1242
  236MOL0     H32516   2.368   6.969   8.733  1.6476 -0.5964 -0.7216
  236MOL0     H32517   2.118   6.856   8.873 -1.6262  2.0781 -4.0809
  236MOL0     H32518   1.961   6.846   9.089  1.4267 -0.1365 -0.6032
  236MOL0     H32519   1.896   6.973   8.986 -2.1978  2.0197  1.1045
  236MOL0     H32520   1.958   6.997   9.294 -3.5273 -0.5013  2.8616
  236MOL0     H32521   1.908   7.130   9.198  1.8278 -0.1102  2.1786
  236MOL0     H32522   1.691   7.017   9.143  0.4808 -1.8898 -1.3005
  236MOL0     H32523   1.740   6.874   9.223 -1.9844 -0.2094  2.3447
  236MOL0     H32524   1.593   6.988   9.365  1.5813 -0.8959  1.5098
  236MOL0     H32525   1.742   6.987   9.452 -1.7962  1.2605  2.0139
  236MOL0     H32526   1.513   7.045   9.543 -1.5192 -0.0159 -1.1871
  236MOL0     H32527   1.294   7.143   9.719 -1.0419 -2.3244  0.5049
  236MOL0     H32528   1.400   7.143   9.865  1.7553 -0.6474 -0.3906
  236MOL0     H32529   1.405   7.015   9.733 -2.0382  0.7057  0.4301
  236MOL0     H32530   1.395   7.761   9.841 -0.4309 -1.8071  0.1028
  236MOL0     H32531   1.307   7.897  10.037  0.8490  0.1908  1.4453
  236MOL0     H32532   1.502   7.995  10.270 -1.0014  0.5721 -1.1685
  236MOL0     H32533   1.342   8.027  10.199  0.8178  1.5691 -0.3066
  236MOL0     H32534   1.338   8.156  10.394 -1.5102  0.2309 -1.3008
  236MOL0     H32535   1.236   8.013  10.409  0.2117  0.8920  0.8778
  236MOL0     H32536   1.518   8.013  10.511 -1.0679  0.2492 -4.1583
  236MOL0     H32537   1.375   7.928  10.584  0.0245 -0.5504 -1.6261
  236MOL0     H32538   1.265   8.117  10.663  0.1012  1.2549  1.8388
  236MOL0     H32539   1.404   8.221  10.592  1.0058 -0.5111  0.1131
  236MOL0     H32540   1.428   7.994  10.794 -2.4277 -0.0434 -3.5657
  236MOL0     H32541   1.554   8.097  10.745 -0.0439  0.6543 -2.3655
  236MOL0     H32542   1.305   8.169  10.928  2.2168 -4.1269  0.9688
  236MOL0     H32543   1.397   8.294  10.851 -1.3225 -0.0856 -1.7021
  236MOL0     H32544   1.498   8.259  11.082 -0.4646  2.3958 -3.0285
  236MOL0     H32545   1.607   8.172  10.978  1.2840  3.6926  1.6758
  236MOL0     H32546   1.485   7.960  11.019 -0.5846 -1.7042  2.7180
  236MOL0     H32547   1.377   8.037  11.137  0.8859  0.2308  0.7160
  236MOL0     H32548   1.488   7.600  10.303  1.4426 -1.0584 -0.6644
  236MOL0     H32549   1.575   7.489  10.103  2.3626  2.2613  2.3382
  236MOL0     H32550   1.612   7.526   9.630  2.6179  0.2152 -1.7003
  236MOL0     H32551   1.712   7.412   9.447 -1.8152  1.5958 -0.6368
  236MOL0     H32552   3.112   6.927   8.204  1.4893 -1.6205 -1.0920
  236MOL0     H32553   3.266   7.052   8.047 -0.0820 -2.2364 -0.4252
  236MOL0     H32554   3.331   7.585   7.930  1.3113  0.3531  1.2464
  236MOL0     H32555   3.453   7.696   7.780 -2.0072  0.0510  0.9383
  236MOL0     H32556   3.739   7.751   7.841 -1.4277 -1.7871  0.0294
  236MOL0     H32557   3.865   7.634   7.798  0.3663  0.0988 -1.8617
  236MOL0     H32558   3.784   7.870   7.613 -1.0646  1.0109  2.0000
  236MOL0     H32559   3.889   7.737   7.582 -4.1260 -0.7735 -1.7064
  236MOL0     H32560   3.905   7.929   7.829  0.8324  1.0218  0.6666
  236MOL0     H32561   4.028   7.814   7.771  3.0335  2.7937 -2.7382
  236MOL0     H32562   4.021   7.934   7.546  1.5902 -1.0308  1.2659
  236MOL0     H32563   4.116   7.994   7.679 -1.3766  1.4332  2.0999
  236MOL0     H32564   3.797   8.289   7.616 -0.2795 -0.5312  0.1810
  236MOL0     H32565   3.754   7.392   7.788  1.5365  2.5353  2.5911
  236MOL0     H32566   3.544   7.131   7.892  1.2201 -0.0629  0.7343
  236MOL0     H32567   3.714   7.182   7.881  1.1583  0.0837  2.8395
  236MOL0     H32568   3.629   7.200   8.032 -0.5155  0.6367  1.5753
  237MOL0     O32569   1.574  10.293   2.756  0.2036 -0.4852  0.4916
  237MOL0     C32570   1.536  10.381   2.838 -0.1418  0.6747  0.1914
  237MOL0     O32571   1.466  10.365   2.953  0.1060  0.1428  0.1586
  237MOL0     C32572   1.412  10.239   2.989  0.6020 -0.1400 -0.1650
  237MOL0     C32573   1.353  10.136   2.917  0.3373  0.3110  0.7723
  237MOL0     C32574   1.308  10.014   2.973  0.7990 -1.5847  0.1871
  237MOL0     C32575   1.321   9.997   3.110  0.2652 -0.1415  0.3902
  237MOL0     O32576   1.275   9.874   3.162  0.1372 -0.3478 -0.5773
  237MOL0     C32577   1.252   9.874   3.302 -0.1738  0.9004 -0.3879
  237MOL0     C32578   1.176   9.754   3.341  0.2431 -0.1076 -0.9773
  237MOL0     C32579   1.200   9.713   3.479  0.6947 -0.3131 -0.1318
  237MOL0     C32580   1.144   9.572   3.498  0.3642 -0.9622  0.3135
  237MOL0     C32581   1.134   9.529   3.637  0.5884  0.4657  0.2266
  237MOL0     C32582   1.269   9.532   3.711 -1.0746 -1.0774  0.6452
  237MOL0     C32583   1.259   9.521   3.864 -0.0358  0.4212  0.1527
  237MOL0     C32584   1.188   9.631   3.922 -0.1979 -0.4821 -0.5612
  237MOL0     N32585   1.284   9.745   3.926  0.1873  0.0952  0.4934
  237MOL0     C32586   1.411   9.754   3.981  0.7410  0.3016 -0.1328
  237MOL0     C32587   1.464   9.872   3.951  1.3519 -0.8270 -0.2743
  237MOL0     C32588   1.601   9.943   3.973  0.2848  0.1721  0.5085
  237MOL0     C32589   1.694   9.922   3.844  0.1117 -0.2717 -0.7632
  237MOL0     C32590   1.632   9.989   3.715  0.9190 -0.3691 -0.0949
  237MOL0     C32591   1.738  10.035   3.607  0.1253 -0.3386 -0.2344
  237MOL0     O32592   1.674  10.111   3.507 -0.3836 -0.0717  0.1637
  237MOL0     C32593   1.758  10.214   3.468  0.4930  0.2928 -0.2271
  237MOL0     C32594   1.778  10.331   3.542  0.1121 -0.0816 -0.4480
  237MOL0     C32595   1.850  10.436   3.487  0.4890 -0.5776  0.2747
  237MOL0     C32596   1.859  10.560   3.568  0.5004  0.0502  0.9342
  237MOL0     C32597   1.900  10.432   3.354  0.0089  0.1663  0.1192
  237MOL0     C32598   1.978  10.539   3.289 -1.1317 -0.1356 -0.5358
  237MOL0     O32599   2.036  10.645   3.361  0.0543  0.0088 -0.5898
  237MOL0     C32600   2.129  10.727   3.299 -1.1507  0.4091 -0.0406
  237MOL0     C32601   2.121  10.860   3.331  0.9674 -0.2038 -0.7606
  237MOL0     C32602   2.214  10.950   3.287 -0.3446  0.1939 -0.6805
  237MOL0     C32603   2.316  10.920   3.193 -0.2431  0.3684 -0.4609
  237MOL0     O32604   2.395  11.023   3.147  0.1434  0.1702 -0.4581
  237MOL0     C32605   2.471  11.008   3.030 -0.0974  0.0081  0.4425
  237MOL0     C32606   2.504  11.141   2.972  0.2631 -0.2328 -0.3884
  237MOL0     C32607   2.389  11.223   2.933 -0.1677 -1.1986 -0.5258
  237MOL0     C32608   2.451  11.363   2.903  0.3667 -0.5003  0.1910
  237MOL0     C32609   2.338  11.476   2.881 -0.4734 -0.0052 -0.1036
  237MOL0     C32610   2.273  11.466   2.750  0.3249  0.3641  0.2665
  237MOL0     C32611   2.127  11.525   2.751 -0.1254 -0.2510 -0.8718
  237MOL0     C32612   2.056  11.522   2.615  0.6688  0.0757 -0.0603
  237MOL0    Cl32613   1.880  11.566   2.650 -0.1878 -0.5075 -0.4044
  237MOL0     C32614   2.321  10.778   3.153  0.1478  0.0365  0.4266
  237MOL0     C32615   2.233  10.684   3.212  0.5789 -0.0902  0.1394
  237MOL0     O32616   1.978  10.524   3.169 -0.6404  0.3478 -0.1061
  237MOL0     C32617   1.885  10.308   3.282  1.0324  0.4245  0.6386
  237MOL0     C32618   1.810  10.203   3.336 -1.2639 -0.8653  0.1949
  237MOL0     N32619   1.360   9.943   3.893  0.9023  1.0213 -0.9749
  237MOL0     N32620   1.252   9.865   3.873  0.3998  0.4257 -0.4362
  237MOL0     C32621   1.378  10.103   3.187 -0.3747 -0.4329  1.2206
  237MOL0     C32622   1.432  10.212   3.123  0.2447  0.2155  0.0474
  237MOL0     C32623   1.568  10.518   2.796  0.3931  0.2981 -0.0949
  237MOL0     C32624   1.601  10.536   2.661 -0.1664  1.3712 -0.1151
  237MOL0     C32625   1.601  10.663   2.608  0.0912 -0.5742  1.0022
  237MOL0     C32626   1.615  10.776   2.691  0.9012  0.0357 -0.1902
  237MOL0     O32627   1.624  10.905   2.630 -0.4052 -0.1897 -0.5387
  237MOL0     C32628   1.670  10.919   2.494  0.0407  0.6053 -0.2923
  237MOL0     C32629   1.705  11.062   2.456 -0.2798 -0.1992 -0.4082
  237MOL0     C32630   1.608  11.172   2.519 -0.2619  0.9505 -0.6307
  237MOL0     C32631   1.646  11.304   2.454  0.1992  0.1929 -0.6055
  237MOL0     C32632   1.596  11.309   2.316  0.7453 -0.3907  0.3273
  237MOL0     C32633   1.532  11.310   2.212 -0.2339 -0.4504 -0.1394
  237MOL0     C32634   1.599  10.760   2.828  0.3639  0.9828 -0.3456
  237MOL0     C32635   1.577  10.628   2.881 -0.2141 -0.3543  0.2500
  237MOL0     C32636   1.558  10.613   3.033  0.7421  1.1660 -0.4864
  237MOL0     H32637   1.355  10.140   2.809  0.5923  1.2209  0.8011
  237MOL0     H32638   1.260   9.945   2.905  1.6346 -0.7470 -1.3094
  237MOL0     H32639   1.188   9.954   3.338 -1.3419 -0.3999  0.5641
  237MOL0     H32640   1.352   9.884   3.346 -1.4104  2.2374  2.3700
  237MOL0     H32641   1.068   9.767   3.328  0.0657 -0.5261  0.0101
  237MOL0     H32642   1.207   9.671   3.278  0.7334  1.5908 -3.0902
  237MOL0     H32643   1.303   9.721   3.516  0.4390  1.7808  0.2822
  237MOL0     H32644   1.145   9.780   3.546  0.9910  1.6806 -1.7857
  237MOL0     H32645   1.044   9.554   3.456 -0.0541 -0.2274  0.9892
  237MOL0     H32646   1.216   9.507   3.447 -0.4772  0.4291 -2.9316
  237MOL0     H32647   1.095   9.426   3.636  1.0265  0.2929  0.4560
  237MOL0     H32648   1.061   9.591   3.689  1.9107  0.5577  2.0758
  237MOL0     H32649   1.336   9.451   3.680 -0.7763 -0.7280  0.3579
  237MOL0     H32650   1.315   9.631   3.700  0.1268 -1.4849  1.7451
  237MOL0     H32651   1.358   9.511   3.910  0.3359  1.4397 -0.3919
  237MOL0     H32652   1.199   9.436   3.896 -0.2432  0.7252  0.5767
  237MOL0     H32653   1.102   9.657   3.860  0.3402 -2.1408 -2.0779
  237MOL0     H32654   1.150   9.606   4.022 -1.6418  2.2267 -0.3298
  237MOL0     H32655   1.468   9.667   4.014  1.9386  0.3230 -1.9486
  237MOL0     H32656   1.643   9.904   4.067 -3.0760 -2.2214  1.1810
  237MOL0     H32657   1.581  10.050   3.981 -1.6198  0.1911 -2.7768
  237MOL0     H32658   1.784   9.980   3.870  1.5410 -2.2275 -1.1438
  237MOL0     H32659   1.724   9.817   3.844 -0.9565 -0.7116  2.8141
  237MOL0     H32660   1.559   9.928   3.661  0.9981 -0.1350 -0.4736
  237MOL0     H32661   1.588  10.086   3.743  1.1488 -0.2679 -0.0823
  237MOL0     H32662   1.819  10.091   3.655  1.1354 -1.6867 -0.3090
  237MOL0     H32663   1.786   9.951   3.556 -2.0576 -1.2752 -0.9060
  237MOL0     H32664   1.733  10.343   3.640 -0.3877 -0.6177 -0.6039
  237MOL0     H32665   1.953  10.590   3.616  1.3554 -0.5183 -0.3078
  237MOL0     H32666   1.785  10.556   3.648  0.4320  3.8638  1.2368
  237MOL0     H32667   1.837  10.640   3.496  0.5734  0.1376  1.0077
  237MOL0     H32668   2.038  10.899   3.390  1.9650 -0.0229  0.5793
  237MOL0     H32669   2.208  11.054   3.319  0.4720 -0.4186  1.6548
  237MOL0     H32670   2.553  10.943   3.060 -1.9745 -0.7976  4.5402
  237MOL0     H32671   2.408  10.966   2.951 -0.2395 -0.1265  0.6270
  237MOL0     H32672   2.555  11.193   3.053 -1.6684  1.5887 -0.2422
  237MOL0     H32673   2.575  11.132   2.890 -0.3584  0.2805 -0.9893
  237MOL0     H32674   2.317  11.250   3.011  1.4652 -1.5990  1.1955
  237MOL0     H32675   2.342  11.183   2.843 -0.7326 -2.2710  0.2197
  237MOL0     H32676   2.514  11.359   2.813 -0.4534 -0.3966 -0.4057
  237MOL0     H32677   2.522  11.401   2.977 -0.8318  1.1395  0.5508
  237MOL0     H32678   2.264  11.463   2.960 -1.5334  2.1390 -0.6660
  237MOL0     H32679   2.376  11.577   2.903 -1.8402  0.5883 -0.3167
  237MOL0     H32680   2.259  11.361   2.721  2.5748 -0.2424  1.1675
  237MOL0     H32681   2.331  11.521   2.676 -1.2659  2.8652  0.7727
  237MOL0     H32682   2.115  11.629   2.781 -2.2589 -0.0287 -2.2803
  237MOL0     H32683   2.069  11.453   2.810 -0.2539  0.6139  0.0863
  237MOL0     H32684   2.057  11.418   2.581 -1.3618  0.0775 -0.2742
  237MOL0     H32685   2.095  11.600   2.548  1.1902 -0.3839 -0.2967
  237MOL0     H32686   2.393  10.745   3.079  1.0783 -1.5397  1.9595
  237MOL0     H32687   2.227  10.579   3.185  1.6928 -0.2252  0.3639
  237MOL0     H32688   1.931  10.298   3.185 -0.1496  1.4700 -0.0501
  237MOL0     H32689   1.784  10.114   3.280  0.7041 -2.3326  1.4400
  237MOL0     H32690   1.400  10.104   3.294 -0.3008  0.6458  1.2061
  237MOL0     H32691   1.480  10.292   3.178  1.4326 -1.1172  1.0191
  237MOL0     H32692   1.618  10.464   2.582 -1.5796  1.5991 -0.6503
  237MOL0     H32693   1.601  10.681   2.501 -2.4009  0.2734  1.0763
  237MOL0     H32694   1.758  10.860   2.467  0.1313  0.9906 -0.8684
  237MOL0     H32695   1.587  10.885   2.431  1.4737  4.0250 -4.5199
  237MOL0     H32696   1.712  11.058   2.347 -2.5733 -0.0793 -0.6202
  237MOL0     H32697   1.804  11.092   2.490 -1.5590  3.0512  0.7493
  237MOL0     H32698   1.502  11.150   2.511 -0.2537 -0.2164  1.7836
  237MOL0     H32699   1.634  11.185   2.624 -1.8767  3.5252 -0.4632
  237MOL0     H32700   1.753  11.325   2.469  0.9334 -4.1179  1.7936
  237MOL0     H32701   1.601  11.383   2.515  1.1289 -0.4590  0.9658
  237MOL0     H32702   1.475  11.288   2.124  0.1377 -1.8083 -0.0707
  237MOL0     H32703   1.613  10.847   2.891 -0.4332  1.1170 -0.3494
  237MOL0     H32704   1.634  10.542   3.068  0.9027  0.6652 -1.7967
  237MOL0     H32705   1.586  10.710   3.074 -0.5694 -0.1181  3.9855
  237MOL0     H32706   1.463  10.580   3.076  1.4684  0.4385  0.6246
  238MOL0     O32707   1.509   7.282  11.090  0.6845  0.4545  0.3473
  238MOL0     C32708   1.400   7.338  11.109  0.0525  1.1950 -0.3963
  238MOL0     O32709   1.349   7.448  11.039 -0.6859  0.1596 -0.0999
  238MOL0     C32710   1.417   7.493  10.925 -0.8704  0.6708  0.1296
  238MOL0     C32711   1.426   7.634  10.907 -0.1690  0.2115  0.3204
  238MOL0     C32712   1.507   7.682  10.808  0.0739  0.1989 -0.2271
  238MOL0     C32713   1.562   7.595  10.709 -0.3717 -0.2358 -0.1255
  238MOL0     O32714   1.647   7.629  10.605 -0.1224 -0.2682  0.4126
  238MOL0     C32715   1.702   7.762  10.606 -0.7107  0.1971 -0.6378
  238MOL0     C32716   1.811   7.776  10.496  0.2017  0.1540 -0.7420
  238MOL0     C32717   1.735   7.789  10.357  0.2736  0.4024  0.1445
  238MOL0     C32718   1.837   7.852  10.261  0.0519  1.1093 -1.2580
  238MOL0     C32719   1.782   7.885  10.113 -1.0570  0.7487  0.4163
  238MOL0     C32720   1.862   7.989  10.027  0.0802  0.4654  0.1057
  238MOL0     C32721   1.999   7.936   9.988 -0.6464 -0.3088 -0.7013
  238MOL0     C32722   2.020   7.811   9.899 -0.3426 -0.0909  0.0689
  238MOL0     N32723   1.949   7.815   9.766  0.1256  0.1073 -0.4313
  238MOL0     C32724   1.816   7.823   9.747  0.6862 -0.0183 -0.1574
  238MOL0     C32725   1.798   7.804   9.617 -0.2639  0.2547  0.1475
  238MOL0     C32726   1.663   7.806   9.551 -0.4085 -0.0570  0.8216
  238MOL0     C32727   1.582   7.939   9.553  0.3807  0.1015  0.1587
  238MOL0     C32728   1.666   8.060   9.531 -0.1458 -0.7739 -0.5770
  238MOL0     C32729   1.721   8.069   9.394  0.0925  0.0399 -0.9715
  238MOL0     O32730   1.693   8.194   9.327 -0.0663  0.3538  1.3045
  238MOL0     C32731   1.760   8.216   9.206  0.4740 -1.2646 -0.2294
  238MOL0     C32732   1.862   8.136   9.138 -0.1439 -0.1945 -0.9477
  238MOL0     C32733   1.910   8.165   9.014 -0.3147 -1.0227 -0.0676
  238MOL0     C32734   2.042   8.105   8.970 -0.1613  0.4228  0.3567
  238MOL0     C32735   1.856   8.267   8.930 -0.7705 -1.2967 -0.4102
  238MOL0     C32736   1.902   8.309   8.791  0.6113  0.3169  0.7294
  238MOL0     O32737   1.816   8.375   8.715 -0.3833  0.2758 -0.6084
  238MOL0     C32738   1.823   8.346   8.581  0.0781 -0.5406 -0.4367
  238MOL0     C32739   1.871   8.447   8.498  0.1198 -0.0396 -0.4653
  238MOL0     C32740   1.898   8.418   8.357  0.6876  0.5653 -0.5680
  238MOL0     C32741   1.864   8.291   8.306 -0.7791 -0.0610 -0.0870
  238MOL0     O32742   1.867   8.272   8.172 -0.0028 -0.3922  0.3513
  238MOL0     C32743   1.970   8.335   8.088  0.0544 -1.2108 -0.2883
  238MOL0     C32744   2.116   8.282   8.120  0.0626  1.1502 -0.7506
  238MOL0     C32745   2.139   8.131   8.100  0.4154  0.1356  0.5952
  238MOL0     C32746   2.103   8.068   7.963 -0.0067 -0.2001  0.2817
  238MOL0     C32747   2.160   7.918   7.940 -0.0497 -0.8117 -0.6847
  238MOL0     C32748   2.309   7.898   7.957 -0.0850  0.0389 -0.1653
  238MOL0     C32749   2.337   7.749   7.957 -0.1890  0.5609 -0.4828
  238MOL0     C32750   2.477   7.719   7.911  0.9539  0.4675  0.0365
  238MOL0    Cl32751   2.526   7.792   7.746  0.7677  0.0540  0.1686
  238MOL0     C32752   1.822   8.187   8.395 -0.7303  0.4425  0.4306
  238MOL0     C32753   1.805   8.210   8.535 -0.2852 -0.5065 -0.2687
  238MOL0     O32754   2.006   8.263   8.749 -0.1769  0.2597  0.3685
  238MOL0     C32755   1.753   8.337   8.994 -0.5482  0.0174 -0.2057
  238MOL0     C32756   1.711   8.312   9.126  0.3345 -0.1298  0.1288
  238MOL0     N32757   1.917   7.765   9.561 -0.0575  0.2717  0.6561
  238MOL0     N32758   2.001   7.763   9.658 -0.3936 -0.4610  0.4034
  238MOL0     C32759   1.541   7.456  10.719  0.3713 -0.4034 -0.3142
  238MOL0     C32760   1.474   7.405  10.831 -0.4749  0.4094 -0.0999
  238MOL0     C32761   1.306   7.289  11.214  0.2375 -1.2980  0.5126
  238MOL0     C32762   1.239   7.385  11.292  0.0380  1.2734  0.7373
  238MOL0     C32763   1.128   7.348  11.366  0.5149 -0.0570 -0.5868
  238MOL0     C32764   1.088   7.216  11.378 -0.3966  0.6750  0.4323
  238MOL0     O32765   0.992   7.153  11.454  0.1729 -0.4284 -0.1333
  238MOL0     C32766   0.861   7.226  11.455 -0.0102 -0.7579 -0.7867
  238MOL0     C32767   0.825   7.295  11.592 -0.3777 -0.0651  1.0525
  238MOL0     C32768   0.874   7.439  11.638  0.7226 -0.2171 -0.9533
  238MOL0     C32769   0.811   7.487  11.776  1.1611  0.2456  1.1085
  238MOL0     C32770   0.871   7.600  11.841 -0.3908  0.0908  0.0103
  238MOL0     C32771   0.908   7.699  11.903  0.8166  0.3505  0.2209
  238MOL0     C32772   1.170   7.121  11.313  0.7482 -0.1444 -0.0924
  238MOL0     C32773   1.276   7.154  11.231  0.4049 -0.7001 -0.2942
  238MOL0     C32774   1.341   7.042  11.148  0.4527  0.2721  0.0406
  238MOL0     H32775   1.391   7.714  10.972 -1.8707  0.5188 -0.9103
  238MOL0     H32776   1.532   7.788  10.802 -1.5596  0.5523 -1.3149
  238MOL0     H32777   1.750   7.789  10.700 -0.7160 -1.3310 -0.1671
  238MOL0     H32778   1.623   7.836  10.591 -2.1844 -1.1394  0.2554
  238MOL0     H32779   1.860   7.870  10.523  1.4220 -0.8090  0.5524
  238MOL0     H32780   1.884   7.694  10.498 -0.5745 -0.8571 -4.6648
  238MOL0     H32781   1.703   7.689  10.328 -0.2551 -0.3691  3.0341
  238MOL0     H32782   1.652   7.857  10.379 -0.8201 -1.2692  1.5058
  238MOL0     H32783   1.874   7.947  10.300 -0.7156  0.9731 -0.1467
  238MOL0     H32784   1.930   7.796  10.258  0.3640  1.0233  3.3353
  238MOL0     H32785   1.683   7.926  10.137 -2.0186 -0.8118 -0.7258
  238MOL0     H32786   1.778   7.792  10.056  2.2927  0.5416  0.3426
  238MOL0     H32787   1.802   8.034   9.947  0.2883  0.3399 -0.1222
  238MOL0     H32788   1.886   8.072  10.094  3.5623 -0.9818  0.8593
  238MOL0     H32789   2.052   7.918  10.082  0.1116  0.5779 -0.9412
  238MOL0     H32790   2.041   8.018   9.930  1.5778  0.1794  1.4323
  238MOL0     H32791   2.126   7.817   9.873  0.2697 -1.1678  2.1004
  238MOL0     H32792   1.992   7.720   9.953 -0.3703 -0.6174 -0.8044
  238MOL0     H32793   1.743   7.855   9.822  0.7043  0.3505 -0.2983
  238MOL0     H32794   1.596   7.733   9.597  0.4161 -0.5740  1.2359
  238MOL0     H32795   1.677   7.775   9.447  1.3573 -0.2190  1.0705
  238MOL0     H32796   1.507   7.926   9.474  2.9036  0.8499 -2.5348
  238MOL0     H32797   1.535   7.944   9.652  3.5177 -0.6870  1.8151
  238MOL0     H32798   1.605   8.148   9.555 -1.2426 -1.2071 -1.6923
  238MOL0     H32799   1.751   8.052   9.600  1.3514 -0.7010 -2.3546
  238MOL0     H32800   1.830   8.070   9.402  0.1695  3.1892 -1.2913
  238MOL0     H32801   1.678   7.985   9.338  0.2635 -1.0015  0.4374
  238MOL0     H32802   1.905   8.049   9.188  1.8464  0.6066 -1.1689
  238MOL0     H32803   2.055   8.024   9.042 -1.4905  0.8062  1.0477
  238MOL0     H32804   2.116   8.185   8.974  0.4159 -0.0268 -0.6893
  238MOL0     H32805   2.048   8.070   8.866  3.9668  2.9147 -0.4587
  238MOL0     H32806   1.887   8.547   8.538 -2.0762  0.4093 -0.6117
  238MOL0     H32807   1.927   8.504   8.297 -1.6052  2.5053  0.9473
  238MOL0     H32808   1.954   8.335   7.980  1.9063  2.4541 -0.6932
  238MOL0     H32809   1.966   8.441   8.114 -1.2957 -1.9135  2.9437
  238MOL0     H32810   2.194   8.343   8.072  2.5336 -2.7339 -2.1743
  238MOL0     H32811   2.144   8.294   8.225  2.0308  0.7590 -1.1904
  238MOL0     H32812   2.090   8.080   8.183 -1.0712  0.3894 -0.1103
  238MOL0     H32813   2.246   8.114   8.121  0.9305 -1.9139 -2.8615
  238MOL0     H32814   2.142   8.126   7.879 -2.3458  0.7271 -0.2567
  238MOL0     H32815   1.994   8.070   7.954  0.0290 -0.5336 -0.3166
  238MOL0     H32816   2.099   7.859   8.009 -2.0823  1.9986  0.1024
  238MOL0     H32817   2.128   7.882   7.842  0.7861 -2.2551 -0.4536
  238MOL0     H32818   2.348   7.939   8.051 -0.1644 -0.5533  0.1314
  238MOL0     H32819   2.361   7.948   7.875 -2.8009 -0.6846 -2.4785
  238MOL0     H32820   2.267   7.703   7.888  0.7344 -2.7662  0.6300
  238MOL0     H32821   2.314   7.706   8.055 -0.6727 -0.6849 -1.1349
  238MOL0     H32822   2.500   7.612   7.907  0.3653  0.3692 -1.1985
  238MOL0     H32823   2.537   7.753   7.996  1.5646 -0.7095  0.1035
  238MOL0     H32824   1.799   8.095   8.341 -1.0232  1.2073 -0.7844
  238MOL0     H32825   1.780   8.136   8.610  1.0939 -3.2033 -2.2811
  238MOL0     H32826   1.701   8.416   8.939 -2.5793  0.9968  2.8258
  238MOL0     H32827   1.624   8.365   9.164  0.6227  0.4285  0.0314
  238MOL0     H32828   1.583   7.393  10.642  1.2652 -0.4944  0.2199
  238MOL0     H32829   1.482   7.297  10.833  1.6911  0.5401 -0.0680
  238MOL0     H32830   1.260   7.492  11.289 -1.5456  1.5828 -1.4868
  238MOL0     H32831   1.070   7.413  11.431  0.8219 -1.4521  1.1653
  238MOL0     H32832   0.861   7.305  11.379 -5.0296 -1.0336 -1.3936
  238MOL0     H32833   0.773   7.161  11.446 -1.4161  0.9135  0.3088
  238MOL0     H32834   0.827   7.226  11.677  0.4299 -1.0894  0.2353
  238MOL0     H32835   0.717   7.313  11.593 -0.6597 -1.4674  2.9287
  238MOL0     H32836   0.979   7.425  11.665  0.2784  1.4894  2.0461
  238MOL0     H32837   0.859   7.511  11.557  0.4435  2.7822  1.5700
  238MOL0     H32838   0.794   7.408  11.849  0.9080 -0.4088  0.3546
  238MOL0     H32839   0.707   7.512  11.750  1.2985  0.2170  0.5116
  238MOL0     H32840   0.937   7.782  11.964  2.0589  0.7033 -0.8109
  238MOL0     H32841   1.145   7.016  11.326  0.4475 -0.2241 -1.1838
  238MOL0     H32842   1.445   7.028  11.179  0.7037  0.9071 -0.5019
  238MOL0     H32843   1.279   6.952  11.152 -2.2822  2.0251 -0.2716
  238MOL0     H32844   1.349   7.088  11.049 -4.2273  2.6683  0.5090
  239MOL0     O32845   6.691   5.237   3.499 -0.2623  0.2399  0.1739
  239MOL0     C32846   6.684   5.113   3.478 -0.1141  0.5041  0.3789
  239MOL0     O32847   6.574   5.047   3.444  0.1434  0.0358 -0.1411
  239MOL0     C32848   6.438   5.107   3.417  0.2344  0.5356 -0.8503
  239MOL0     C32849   6.322   5.038   3.443  0.7500  0.2435 -0.1292
  239MOL0     C32850   6.194   5.091   3.416  0.0096 -0.4689 -0.7013
  239MOL0     C32851   6.174   5.211   3.347  0.7988  0.0508  0.0311
  239MOL0     O32852   6.054   5.277   3.341 -0.2136  0.1316 -0.0861
  239MOL0     C32853   6.035   5.375   3.450 -0.0656  0.5383 -0.7917
  239MOL0     C32854   5.888   5.368   3.492 -0.3405 -0.0639  0.2976
  239MOL0     C32855   5.856   5.490   3.583  0.1246 -0.1316 -0.7538
  239MOL0     C32856   5.919   5.488   3.722  0.2407  0.3817  0.1569
  239MOL0     C32857   5.847   5.395   3.817  0.4173 -0.4029 -0.3606
  239MOL0     C32858   5.688   5.406   3.822  0.6718 -0.4764 -0.1622
  239MOL0     C32859   5.648   5.349   3.956 -0.5260  0.4303  0.2398
  239MOL0     C32860   5.701   5.440   4.075 -0.0592 -0.6101 -0.0984
  239MOL0     N32861   5.642   5.572   4.065  0.9554 -0.7988  0.4794
  239MOL0     C32862   5.690   5.676   3.990  0.0265  0.8138  0.3413
  239MOL0     C32863   5.591   5.770   4.015 -0.8723  0.1346  0.3563
  239MOL0     C32864   5.607   5.920   3.974  0.1182  0.0506 -0.3705
  239MOL0     C32865   5.487   5.973   3.911  0.3703  0.8821  0.1350
  239MOL0     C32866   5.457   6.128   3.927 -0.0431  0.7408  0.2921
  239MOL0     C32867   5.455   6.188   3.795 -0.0263  0.5623  0.4649
  239MOL0     O32868   5.583   6.184   3.730  0.0485 -0.2214 -0.1106
  239MOL0     C32869   5.586   6.144   3.600  0.2056  0.6122 -0.0497
  239MOL0     C32870   5.628   6.010   3.572  0.0112 -0.9295  0.5316
  239MOL0     C32871   5.637   5.970   3.435  0.0266  0.2075 -0.7539
  239MOL0     C32872   5.683   5.826   3.415 -0.8135  1.1663  0.0920
  239MOL0     C32873   5.578   6.047   3.332  0.2856  0.3078  0.3013
  239MOL0     C32874   5.555   6.010   3.199  0.7603 -0.1647  0.2422
  239MOL0     O32875   5.559   6.110   3.100  0.1825  0.0750  0.1439
  239MOL0     C32876   5.538   6.089   2.967  0.7110 -0.2121 -0.1743
  239MOL0     C32877   5.591   5.978   2.901  0.2622  0.3113  0.3823
  239MOL0     C32878   5.575   5.970   2.761 -0.6266 -0.3826 -0.1082
  239MOL0     C32879   5.492   6.063   2.703 -0.5727  0.1537 -0.0476
  239MOL0     O32880   5.451   6.041   2.578  0.2795  0.4827  0.0878
  239MOL0     C32881   5.321   5.990   2.538 -0.5240  0.1019  0.5367
  239MOL0     C32882   5.311   6.042   2.387 -0.2027  0.8762 -1.0828
  239MOL0     C32883   5.242   6.179   2.391 -0.1912  0.6990 -0.1321
  239MOL0     C32884   5.183   6.227   2.257 -0.3182  0.6810 -0.3657
  239MOL0     C32885   5.286   6.202   2.152  0.5606 -0.1808  0.7486
  239MOL0     C32886   5.237   6.265   2.020  0.6257  0.1357  1.0206
  239MOL0     C32887   5.304   6.199   1.893  0.3240 -0.6261  0.7921
  239MOL0     C32888   5.233   6.234   1.764  0.3086 -1.0564 -0.3812
  239MOL0    Cl32889   5.329   6.170   1.629  0.4990  0.0259  0.4225
  239MOL0     C32890   5.437   6.170   2.763 -0.6181  0.0847  0.0394
  239MOL0     C32891   5.468   6.191   2.899  0.0720 -0.1225  0.0755
  239MOL0     O32892   5.514   5.897   3.173  0.4737  1.0459 -0.5778
  239MOL0     C32893   5.537   6.176   3.364 -1.0053  0.2588 -0.8925
  239MOL0     C32894   5.549   6.227   3.494  0.5532  0.2769  0.5279
  239MOL0     N32895   5.490   5.714   4.093 -0.1771 -1.0175  0.3563
  239MOL0     N32896   5.515   5.588   4.117 -0.6966  0.5665 -0.2281
  239MOL0     C32897   6.298   5.274   3.320  0.2934  0.4301  0.2885
  239MOL0     C32898   6.429   5.224   3.348 -0.3951 -0.6863 -0.6047
  239MOL0     C32899   6.809   5.028   3.489 -0.0727 -0.3450  0.4252
  239MOL0     C32900   6.784   4.889   3.486 -0.2727  0.6422  0.2465
  239MOL0     C32901   6.887   4.792   3.501  0.5999 -0.2844  0.3722
  239MOL0     C32902   7.016   4.831   3.520  0.0474 -0.3456 -0.8946
  239MOL0     O32903   7.128   4.753   3.535 -0.1396  0.5790  0.4004
  239MOL0     C32904   7.116   4.620   3.589 -0.5371 -0.7281 -0.2536
  239MOL0     C32905   7.157   4.524   3.478  0.2899  1.2093  0.2437
  239MOL0     C32906   7.312   4.509   3.467 -0.6399 -0.7220  0.2108
  239MOL0     C32907   7.393   4.627   3.418 -0.3239 -0.0928  0.3989
  239MOL0     C32908   7.356   4.670   3.277  0.6271  0.2971  1.0535
  239MOL0     C32909   7.339   4.698   3.161  0.2512  0.4270 -0.1898
  239MOL0     C32910   7.040   4.968   3.529 -1.1810  0.4813  0.5092
  239MOL0     C32911   6.939   5.063   3.527  0.1500  0.3864 -0.1702
  239MOL0     C32912   6.985   5.205   3.546  1.1786  0.3864 -0.0036
  239MOL0     H32913   6.332   4.937   3.481  0.5675  0.0009 -0.7130
  239MOL0     H32914   6.116   5.020   3.442 -1.1206  0.6084 -1.0407
  239MOL0     H32915   6.058   5.475   3.411  0.3561  0.3051 -1.1401
  239MOL0     H32916   6.099   5.354   3.537  2.0915 -0.2062 -2.4772
  239MOL0     H32917   5.816   5.362   3.410 -3.9971 -1.8149  3.3164
  239MOL0     H32918   5.863   5.275   3.545  2.5389  0.5811  3.1367
  239MOL0     H32919   5.907   5.578   3.541  0.0481  0.4173  0.2780
  239MOL0     H32920   5.748   5.509   3.582  0.5677  3.0385  0.2483
  239MOL0     H32921   6.028   5.473   3.721  0.1328 -0.6958  1.6500
  239MOL0     H32922   5.896   5.590   3.753  0.2694  0.9247 -1.5199
  239MOL0     H32923   5.890   5.423   3.913 -1.2579 -2.2795  1.0244
  239MOL0     H32924   5.865   5.289   3.800 -1.2880 -0.8145  0.1697
  239MOL0     H32925   5.662   5.511   3.808  1.8348 -0.1008  0.3615
  239MOL0     H32926   5.650   5.354   3.734  2.5310  1.5710 -2.3129
  239MOL0     H32927   5.706   5.258   3.975  1.0816  1.2247 -0.5979
  239MOL0     H32928   5.540   5.338   3.963 -0.7210 -1.6269 -3.4939
  239MOL0     H32929   5.671   5.399   4.172 -0.8592  1.2662  0.4879
  239MOL0     H32930   5.808   5.458   4.088 -0.6949  2.7469  1.3763
  239MOL0     H32931   5.791   5.675   3.952 -0.0615 -1.8568 -0.0355
  239MOL0     H32932   5.696   5.946   3.917  0.0049 -0.9565 -1.0320
  239MOL0     H32933   5.619   5.976   4.068  0.3931 -0.7103  0.0560
  239MOL0     H32934   5.493   5.941   3.807 -2.0732  1.4921 -0.2597
  239MOL0     H32935   5.402   5.910   3.938  1.4012  0.3630  2.4557
  239MOL0     H32936   5.356   6.144   3.966  0.5008  4.6848  0.4567
  239MOL0     H32937   5.533   6.180   3.985  0.2976 -0.4096  0.9071
  239MOL0     H32938   5.379   6.137   3.736  0.7772 -0.3997  0.2460
  239MOL0     H32939   5.415   6.288   3.813  0.4273  0.7839  0.2468
  239MOL0     H32940   5.673   5.957   3.656  0.5919 -0.4096  0.5580
  239MOL0     H32941   5.731   5.773   3.497 -1.4866 -1.8202 -1.2756
  239MOL0     H32942   5.767   5.822   3.345 -1.6055 -2.2054 -0.9056
  239MOL0     H32943   5.608   5.757   3.374  1.5452 -2.3080  1.1184
  239MOL0     H32944   5.659   5.907   2.948  2.5242  0.9106 -1.7536
  239MOL0     H32945   5.610   5.886   2.703 -3.2714 -2.6527  1.3091
  239MOL0     H32946   5.325   5.882   2.551  0.4147 -0.3637 -2.8031
  239MOL0     H32947   5.243   6.033   2.602 -0.6174 -2.5796  2.3746
  239MOL0     H32948   5.409   6.051   2.339 -0.0154 -1.5271 -1.2448
  239MOL0     H32949   5.251   5.979   2.321 -0.1683  1.3191 -1.5469
  239MOL0     H32950   5.301   6.258   2.438 -0.0341 -0.7390  2.2634
  239MOL0     H32951   5.156   6.173   2.458 -0.0455  2.0293  0.2082
  239MOL0     H32952   5.150   6.331   2.263 -0.0256  0.9534 -2.5165
  239MOL0     H32953   5.093   6.171   2.228 -0.1832  1.5570 -2.7055
  239MOL0     H32954   5.378   6.252   2.182 -0.5695  3.2078 -0.8582
  239MOL0     H32955   5.299   6.094   2.144 -3.3668 -0.7956  0.2811
  239MOL0     H32956   5.274   6.368   2.017 -2.3746  1.3180  1.8791
  239MOL0     H32957   5.129   6.270   2.007  0.6804 -1.0183 -0.0715
  239MOL0     H32958   5.308   6.091   1.910 -1.0534 -1.2145 -2.0675
  239MOL0     H32959   5.406   6.239   1.891 -0.8900  2.9244  1.0973
  239MOL0     H32960   5.222   6.342   1.759 -2.5802 -1.3240 -3.8617
  239MOL0     H32961   5.136   6.184   1.755 -0.6198 -0.2780  3.4870
  239MOL0     H32962   5.377   6.244   2.710  0.1490  0.4301 -0.3771
  239MOL0     H32963   5.425   6.279   2.945 -0.1020  2.2925 -4.1955
  239MOL0     H32964   5.477   6.241   3.300 -2.6434  1.5108  1.7151
  239MOL0     H32965   5.515   6.324   3.529 -1.1491 -0.8494  2.1996
  239MOL0     H32966   6.290   5.371   3.273 -0.6492  0.3513  0.2616
  239MOL0     H32967   6.516   5.283   3.321  0.5041 -2.6724 -2.2257
  239MOL0     H32968   6.685   4.847   3.504 -0.0966  0.9621  2.1825
  239MOL0     H32969   6.847   4.691   3.501 -0.9381  0.2791 -0.6445
  239MOL0     H32970   7.171   4.599   3.681 -0.9765 -1.8871 -0.2386
  239MOL0     H32971   7.013   4.586   3.607 -1.8628  1.8958 -2.0858
  239MOL0     H32972   7.113   4.544   3.380  3.0704 -1.8903 -1.8771
  239MOL0     H32973   7.129   4.421   3.502  1.9025  0.2957 -1.4966
  239MOL0     H32974   7.355   4.495   3.567 -2.0289  2.0756  1.3076
  239MOL0     H32975   7.334   4.418   3.410 -2.8214 -2.3310  1.7450
  239MOL0     H32976   7.496   4.591   3.414 -0.6413 -0.9316 -0.6619
  239MOL0     H32977   7.381   4.714   3.483  1.2928  1.2992 -1.0554
  239MOL0     H32978   7.340   4.724   3.057  3.6559  1.2255 -0.0723
  239MOL0     H32979   7.136   5.014   3.548  1.8141 -1.8824 -6.0000
  239MOL0     H32980   6.934   5.274   3.477 -3.2629 -1.3739  1.1635
  239MOL0     H32981   6.952   5.236   3.646  0.8969  0.9311 -0.2603
  239MOL0     H32982   7.094   5.212   3.546  1.1166  3.3966 -2.1879
  240MOL0     O32983   2.992   5.145   3.475  0.1264  0.0590  0.2761
  240MOL0     C32984   3.042   5.102   3.577  0.1080  0.1559  0.3452
  240MOL0     O32985   3.069   4.964   3.598 -0.3201  0.5989  0.1974
  240MOL0     C32986   3.122   4.874   3.504 -0.2985  1.3288  0.5839
  240MOL0     C32987   3.152   4.739   3.545 -0.1690 -0.1722  0.4148
  240MOL0     C32988   3.198   4.651   3.454  0.0128 -1.4047  0.0957
  240MOL0     C32989   3.229   4.687   3.323  0.7907  0.4491  0.3005
  240MOL0     O32990   3.284   4.592   3.238  0.0652  0.0623  0.2905
  240MOL0     C32991   3.263   4.613   3.091  0.0697 -0.4543 -0.6253
  240MOL0     C32992   3.391   4.688   3.051  0.0228 -0.5084 -0.4579
  240MOL0     C32993   3.405   4.741   2.905 -0.0454  0.9070 -0.6727
  240MOL0     C32994   3.423   4.625   2.813 -0.1433 -0.1000 -0.0422
  240MOL0     C32995   3.380   4.651   2.668  0.2028 -0.5278  0.1991
  240MOL0     C32996   3.417   4.541   2.567 -0.4500  0.7913 -0.3193
  240MOL0     C32997   3.371   4.554   2.420  0.1820  0.6408 -0.6367
  240MOL0     C32998   3.428   4.430   2.346 -0.3944 -0.3683  0.1031
  240MOL0     N32999   3.394   4.439   2.204 -0.4026  0.8429 -0.6132
  240MOL0     C33000   3.270   4.469   2.153  0.6568  0.4073 -0.1103
  240MOL0     C33001   3.269   4.427   2.029 -0.5069  0.6146  0.2170
  240MOL0     C33002   3.147   4.455   1.933 -1.3436 -0.3207 -0.3048
  240MOL0     C33003   3.041   4.347   1.952  0.6093  0.5323  0.2071
  240MOL0     C33004   3.101   4.210   1.912 -1.2292 -0.7329 -0.9353
  240MOL0     C33005   3.003   4.098   1.874 -0.0342  0.0921 -0.7235
  240MOL0     O33006   3.057   3.969   1.913 -0.0529 -0.0972  0.1761
  240MOL0     C33007   3.126   3.910   1.810  0.0505 -0.3317 -0.6682
  240MOL0     C33008   3.069   3.882   1.691 -0.2028  1.1459 -1.0241
  240MOL0     C33009   3.149   3.817   1.584  0.0625 -0.5972 -0.3906
  240MOL0     C33010   3.069   3.789   1.455 -0.2365  0.4861  0.0722
  240MOL0     C33011   3.285   3.792   1.609  0.0073 -0.5983 -0.8161
  240MOL0     C33012   3.372   3.724   1.512 -0.5761 -1.2700 -0.1469
  240MOL0     O33013   3.488   3.674   1.577 -0.0710  0.8776 -0.6379
  240MOL0     C33014   3.594   3.623   1.504  0.3227  0.3614  0.1696
  240MOL0     C33015   3.611   3.598   1.366  0.4835 -0.0906  0.1483
  240MOL0     C33016   3.737   3.572   1.305  0.0545 -0.1649 -0.5215
  240MOL0     C33017   3.844   3.542   1.393  0.4603 -0.1001  0.1570
  240MOL0     O33018   3.955   3.509   1.324 -0.4241  0.1072  0.4713
  240MOL0     C33019   4.087   3.508   1.386 -0.5309  0.8080  0.9748
  240MOL0     C33020   4.155   3.635   1.443  0.1735 -0.6309 -0.0040
  240MOL0     C33021   4.271   3.586   1.532 -0.3845  0.1518 -0.6200
  240MOL0     C33022   4.295   3.676   1.653 -0.4825  0.0743  0.1259
  240MOL0     C33023   4.384   3.600   1.757  0.1247 -0.6376 -0.3170
  240MOL0     C33024   4.327   3.471   1.817 -0.0538 -0.6778 -0.0531
  240MOL0     C33025   4.171   3.449   1.826  0.1987 -0.4219  0.5559
  240MOL0     C33026   4.138   3.324   1.915  0.1238  0.6545  0.6716
  240MOL0    Cl33027   3.960   3.307   1.930 -0.0491 -0.2725  0.0604
  240MOL0     C33028   3.830   3.561   1.530 -0.2240  0.2606 -0.1327
  240MOL0     C33029   3.704   3.598   1.585  0.4511 -0.0330 -0.6400
  240MOL0     O33030   3.350   3.744   1.391 -0.1995 -0.7425  0.2391
  240MOL0     C33031   3.334   3.815   1.740  0.4982  0.2064  0.1905
  240MOL0     C33032   3.249   3.865   1.837  0.0612 -0.1899  0.1488
  240MOL0     N33033   3.395   4.387   1.993  0.6990 -0.7137 -1.1327
  240MOL0     N33034   3.466   4.381   2.101  0.2668 -0.0002  0.0900
  240MOL0     C33035   3.178   4.818   3.284  0.4810  0.5640 -0.6263
  240MOL0     C33036   3.127   4.904   3.370 -0.2667  0.2057  0.2428
  240MOL0     C33037   3.073   5.192   3.696 -0.2666 -0.1682 -0.5242
  240MOL0     C33038   3.136   5.124   3.799  0.8067  0.1029 -0.0646
  240MOL0     C33039   3.188   5.183   3.906  0.0306 -0.2151  0.3113
  240MOL0     C33040   3.176   5.323   3.924  0.3772 -0.8384 -0.5545
  240MOL0     O33041   3.224   5.398   4.030 -0.2632  0.5608  0.0979
  240MOL0     C33042   3.337   5.346   4.100  0.0789 -0.6100  0.6552
  240MOL0     C33043   3.297   5.260   4.215  1.2345  0.3817 -0.8904
  240MOL0     C33044   3.194   5.325   4.307  0.6939 -0.6918  0.8947
  240MOL0     C33045   3.206   5.266   4.453 -0.4742 -0.3131  0.3066
  240MOL0     C33046   3.114   5.336   4.542  0.0676  1.2638  1.4141
  240MOL0     C33047   3.030   5.387   4.618  0.5572  0.2215  0.0514
  240MOL0     C33048   3.112   5.395   3.820  0.6846 -0.3451  0.3461
  240MOL0     C33049   3.053   5.333   3.710 -0.4172  0.9932  0.4905
  240MOL0     C33050   2.969   5.412   3.617 -0.0368 -0.8213 -0.1641
  240MOL0     H33051   3.154   4.704   3.648  0.6800 -1.6395 -0.0701
  240MOL0     H33052   3.230   4.550   3.476  2.7535 -1.3751 -2.9883
  240MOL0     H33053   3.174   4.669   3.060 -0.0781 -0.4941 -0.2791
  240MOL0     H33054   3.276   4.515   3.044 -0.2808 -1.2379  0.8474
  240MOL0     H33055   3.393   4.780   3.110 -2.2563 -0.3480 -0.5425
  240MOL0     H33056   3.471   4.614   3.065 -1.7867 -2.8503 -1.7915
  240MOL0     H33057   3.310   4.795   2.892 -0.2954  1.0783  1.5597
  240MOL0     H33058   3.491   4.805   2.888  0.4021  0.5047  0.0408
  240MOL0     H33059   3.527   4.592   2.817 -0.5840 -1.4441  1.0753
  240MOL0     H33060   3.374   4.532   2.842  1.4689 -1.6199 -1.9438
  240MOL0     H33061   3.421   4.747   2.634 -1.6205 -0.2360 -1.3872
  240MOL0     H33062   3.272   4.669   2.673  0.6956  2.6258  3.7854
  240MOL0     H33063   3.526   4.534   2.559 -0.6389 -4.1591 -1.5829
  240MOL0     H33064   3.387   4.450   2.619 -1.7462  0.9941 -0.6813
  240MOL0     H33065   3.393   4.654   2.382 -0.5807  1.7975  1.7642
  240MOL0     H33066   3.265   4.529   2.417  0.1181  0.8257 -0.0798
  240MOL0     H33067   3.538   4.425   2.351 -0.1391  0.5724 -2.6557
  240MOL0     H33068   3.391   4.339   2.393 -1.9228  0.8730  1.4152
  240MOL0     H33069   3.180   4.508   2.200 -1.8618 -1.8351 -2.7012
  240MOL0     H33070   3.188   4.450   1.832  0.4931 -0.8905  0.4369
  240MOL0     H33071   3.107   4.556   1.943 -3.3404 -1.1633  0.9048
  240MOL0     H33072   2.999   4.346   2.054 -1.5737 -0.4832 -0.6246
  240MOL0     H33073   2.952   4.368   1.892 -0.9238 -2.8011  1.0783
  240MOL0     H33074   3.174   4.222   1.831  0.6916 -4.6894 -0.0609
  240MOL0     H33075   3.153   4.167   1.998  0.0693 -0.8768 -1.7576
  240MOL0     H33076   2.914   4.107   1.937  1.0933 -2.5441  1.4319
  240MOL0     H33077   2.968   4.107   1.770  2.1832  1.5000 -1.4120
  240MOL0     H33078   2.967   3.913   1.673 -0.5348  1.1817  0.7213
  240MOL0     H33079   3.117   3.830   1.366 -0.7877 -0.6586 -0.7828
  240MOL0     H33080   2.963   3.817   1.446 -0.3391 -0.6260 -4.3260
  240MOL0     H33081   3.078   3.681   1.444  0.4591  0.7895 -3.2114
  240MOL0     H33082   3.525   3.622   1.304 -0.3207  0.5317  1.4718
  240MOL0     H33083   3.756   3.585   1.199  0.0646  2.6654 -0.2322
  240MOL0     H33084   4.083   3.436   1.468 -3.1309 -0.7293 -0.3579
  240MOL0     H33085   4.151   3.460   1.312 -1.3347  0.3678  0.5556
  240MOL0     H33086   4.190   3.696   1.359 -2.1223  0.4886 -0.2153
  240MOL0     H33087   4.087   3.699   1.499  0.6150 -1.1981  1.2214
  240MOL0     H33088   4.360   3.595   1.468 -0.5643 -4.5755 -1.9008
  240MOL0     H33089   4.268   3.478   1.548 -1.0308 -0.2025 -2.8219
  240MOL0     H33090   4.198   3.697   1.697 -1.0602 -1.3187 -0.4313
  240MOL0     H33091   4.353   3.765   1.626 -0.0285 -0.2452  0.0414
  240MOL0     H33092   4.479   3.573   1.709  1.9387  1.1111  2.0076
  240MOL0     H33093   4.409   3.672   1.836  0.3422 -1.7076  0.6152
  240MOL0     H33094   4.370   3.477   1.917 -3.6688  0.2051  1.5987
  240MOL0     H33095   4.373   3.389   1.762  0.9080 -1.0183  1.2156
  240MOL0     H33096   4.140   3.431   1.723  2.1648  2.2774 -0.6327
  240MOL0     H33097   4.128   3.543   1.861  1.3982  0.6809 -0.7930
  240MOL0     H33098   4.174   3.341   2.017 -0.8971  1.2306  0.9483
  240MOL0     H33099   4.192   3.232   1.888 -2.0979 -2.0563  4.4418
  240MOL0     H33100   3.912   3.546   1.599 -0.1180 -0.6710 -0.4488
  240MOL0     H33101   3.695   3.608   1.693 -1.5697  0.3654 -0.8102
  240MOL0     H33102   3.436   3.795   1.772  0.4239  1.6943  1.4375
  240MOL0     H33103   3.297   3.886   1.932 -0.7598  0.0152  0.5317
  240MOL0     H33104   3.191   4.863   3.187  0.6153 -0.7294 -1.2328
  240MOL0     H33105   3.090   4.993   3.321  2.2163  0.4733 -1.3340
  240MOL0     H33106   3.155   5.018   3.810 -1.1485 -0.4947 -1.7330
  240MOL0     H33107   3.250   5.131   3.979  0.7589 -1.5153 -1.1933
  240MOL0     H33108   3.392   5.288   4.025  0.3351  0.7796 -0.2809
  240MOL0     H33109   3.395   5.432   4.136  3.5972 -2.2150 -0.7560
  240MOL0     H33110   3.387   5.234   4.272  0.3871 -0.3634  0.1652
  240MOL0     H33111   3.241   5.171   4.183 -0.0587  1.2929 -1.2470
  240MOL0     H33112   3.196   5.434   4.314 -2.2539 -0.5334  0.6157
  240MOL0     H33113   3.101   5.312   4.249  2.1188 -0.4636 -1.5774
  240MOL0     H33114   3.310   5.277   4.483 -1.2161  1.1217  2.5955
  240MOL0     H33115   3.185   5.159   4.461  0.7476 -0.4204  3.9656
  240MOL0     H33116   2.964   5.432   4.690 -1.1736 -1.0569 -0.6869
  240MOL0     H33117   3.089   5.501   3.823  0.2235 -0.4169 -0.5001
  240MOL0     H33118   2.892   5.456   3.681 -0.5178  0.0039 -1.2576
  240MOL0     H33119   3.019   5.493   3.562 -0.1030 -1.6181 -1.4228
  240MOL0     H33120   2.909   5.359   3.542 -0.7413 -2.0232  1.2072
  241MOL0     O33121   9.034   0.353  10.024  0.1128 -0.2405 -0.0099
  241MOL0     C33122   9.086   0.244   9.992 -0.5844  0.2633 -0.2878
  241MOL0     O33123   9.046   0.125  10.046  0.4906  0.2082 -0.2352
  241MOL0     C33124   8.943   0.120  10.133 -0.4571 -0.3487  0.7671
  241MOL0     C33125   8.962   0.111  10.268 -1.2620 -0.8433  0.1664
  241MOL0     C33126   8.863   0.116  10.365  0.4802  0.5706  0.4945
  241MOL0     C33127   8.732   0.123  10.314 -0.1253  0.5757  0.0461
  241MOL0     O33128   8.615   0.131  10.391 -0.0349 -0.5472  0.7148
  241MOL0     C33129   8.615   0.195  10.514 -1.2821 -0.6321 -1.2466
  241MOL0     C33130   8.686   0.333  10.515  0.3649  0.6183  0.6957
  241MOL0     C33131   8.703   0.401  10.655 -0.6791 -0.1832 -0.1496
  241MOL0     C33132   8.575   0.460  10.708  0.6623 -0.3901 -0.1664
  241MOL0     C33133   8.593   0.506  10.847  1.0897  0.0857 -0.8152
  241MOL0     C33134   8.588   0.656  10.863  0.8773  0.1768 -0.4969
  241MOL0     C33135   8.619   0.694  11.003  0.2099  0.7150 -0.8774
  241MOL0     C33136   8.692   0.825  11.019 -0.2790 -1.0034  0.1563
  241MOL0     N33137   8.612   0.946  10.978  0.0374 -0.1045 -0.8470
  241MOL0     C33138   8.606   0.997  10.852  0.6718  0.7893  0.5867
  241MOL0     C33139   8.501   1.082  10.848  0.3517 -0.6464  0.5107
  241MOL0     C33140   8.464   1.165  10.728  0.4906  0.1053  1.0377
  241MOL0     C33141   8.372   1.089  10.634 -0.2931 -0.4348  0.1082
  241MOL0     C33142   8.280   1.185  10.561 -0.3823 -0.2823  0.2574
  241MOL0     C33143   8.298   1.169  10.406  0.7231  0.1625  0.2340
  241MOL0     O33144   8.236   1.285  10.340  0.3669 -0.0416  0.1538
  241MOL0     C33145   8.327   1.387  10.321 -0.9649 -0.0284  0.7973
  241MOL0     C33146   8.410   1.383  10.211 -0.1025  0.5304  0.2823
  241MOL0     C33147   8.514   1.479  10.196 -0.7351 -0.1188 -0.7751
  241MOL0     C33148   8.601   1.469  10.077  0.3843  0.0543  0.6572
  241MOL0     C33149   8.532   1.579  10.296  0.5173  0.3362 -0.5418
  241MOL0     C33150   8.656   1.680  10.293  0.4658  0.0137 -1.2551
  241MOL0     O33151   8.659   1.759  10.409 -0.8527  0.3735  0.5205
  241MOL0     C33152   8.760   1.850  10.426 -0.0030  0.6408  0.4680
  241MOL0     C33153   8.726   1.974  10.475  0.1688 -0.5038  0.1731
  241MOL0     C33154   8.830   2.063  10.502  0.3996 -0.3503 -0.0393
  241MOL0     C33155   8.961   2.029  10.472 -0.1861  0.7692 -0.6638
  241MOL0     O33156   9.073   2.105  10.491 -0.0932 -0.5240 -0.2497
  241MOL0     C33157   9.055   2.240  10.531  1.3360 -0.0888 -0.0063
  241MOL0     C33158   9.172   2.322  10.553  0.6770  0.2096 -0.7349
  241MOL0     C33159   9.264   2.335  10.429  0.4540  0.5700 -0.5697
  241MOL0     C33160   9.391   2.407  10.460  0.6475 -0.8712 -0.2307
  241MOL0     C33161   9.488   2.399  10.336  0.1486 -0.2099  0.3138
  241MOL0     C33162   9.614   2.469  10.360 -0.4593 -1.3996 -0.5224
  241MOL0     C33163   9.706   2.479  10.235  0.0863  0.2858  0.3348
  241MOL0     C33164   9.848   2.539  10.268  0.0970 -0.2515  0.3399
  241MOL0    Cl33165   9.964   2.485  10.388 -0.3558  0.3891 -0.3261
  241MOL0     C33166   8.983   1.905  10.423  0.6403  0.6734 -0.5350
  241MOL0     C33167   8.887   1.809  10.396  0.2376  0.0557 -0.0898
  241MOL0     O33168   8.736   1.678  10.206  0.8086 -0.4169 -0.6629
  241MOL0     C33169   8.440   1.585  10.404  0.5702 -0.2529  1.1119
  241MOL0     C33170   8.337   1.492  10.412  0.0519 -1.4649 -0.2079
  241MOL0     N33171   8.454   1.093  10.976 -0.1184  0.0055 -0.1945
  241MOL0     N33172   8.521   1.011  11.056 -0.3910  0.2211  0.3325
  241MOL0     C33173   8.709   0.134  10.178 -0.7024  0.1277  0.0886
  241MOL0     C33174   8.811   0.136  10.091 -0.0965  0.7490  0.3352
  241MOL0     C33175   9.196   0.226   9.888  0.5307  0.6011  0.9406
  241MOL0     C33176   9.206   0.097   9.822  0.0491 -0.3370  0.5755
  241MOL0     C33177   9.308   0.083   9.725  0.9498 -0.0375 -0.1762
  241MOL0     C33178   9.388   0.190   9.676 -0.3924  0.0044  0.0607
  241MOL0     O33179   9.504   0.179   9.580  0.3211 -0.3081 -0.2329
  241MOL0     C33180   9.529   0.040   9.539  0.4074 -0.0471  0.9875
  241MOL0     C33181   9.659   0.019   9.453 -0.1457 -0.3724  0.0426
  241MOL0     C33182   9.782   0.091   9.511  0.0373  1.3546 -0.1627
  241MOL0     C33183   9.901   0.060   9.420  0.4157  0.4322 -0.2838
  241MOL0     C33184  10.019   0.121   9.485  0.8005  1.0308  1.1249
  241MOL0     C33185  10.116   0.169   9.537 -0.7487  0.7307  0.2367
  241MOL0     C33186   9.360   0.319   9.729  0.9066  0.4278 -0.6712
  241MOL0     C33187   9.269   0.336   9.835  0.5658 -0.2084  1.1076
  241MOL0     C33188   9.250   0.478   9.881  0.0347 -0.0440 -0.1113
  241MOL0     H33189   9.066   0.103  10.296 -0.8273 -0.3681 -1.2145
  241MOL0     H33190   8.879   0.102  10.471 -0.1997 -0.4035  0.4819
  241MOL0     H33191   8.671   0.135  10.586 -0.5787  1.0287 -0.3501
  241MOL0     H33192   8.512   0.195  10.551 -0.4799 -2.0927  1.2303
  241MOL0     H33193   8.788   0.318  10.478  0.9221 -1.0452  2.7130
  241MOL0     H33194   8.633   0.407  10.455  1.5276  0.6870 -0.2795
  241MOL0     H33195   8.744   0.328  10.725  0.6910  0.1235 -0.5931
  241MOL0     H33196   8.773   0.484  10.644 -0.2443  0.0318  3.3360
  241MOL0     H33197   8.545   0.546  10.648 -0.7457  1.2296  2.6762
  241MOL0     H33198   8.495   0.386  10.710  1.8990 -1.8061 -0.7749
  241MOL0     H33199   8.694   0.484  10.882  0.3902  0.6142  1.7552
  241MOL0     H33200   8.511   0.468  10.908 -0.8300  1.9084 -2.1136
  241MOL0     H33201   8.659   0.692  10.788  3.0531 -0.0130  1.3488
  241MOL0     H33202   8.489   0.696  10.840  0.6619 -0.9135 -1.5299
  241MOL0     H33203   8.676   0.614  11.050 -0.7013  1.4058  1.5617
  241MOL0     H33204   8.530   0.695  11.067  0.0947  0.5667 -1.0359
  241MOL0     H33205   8.729   0.845  11.120 -0.7378  0.7031  0.0214
  241MOL0     H33206   8.780   0.826  10.953  0.4676  1.7329  1.0592
  241MOL0     H33207   8.677   0.972  10.774  2.2394  3.0456  1.1961
  241MOL0     H33208   8.554   1.180  10.668  0.2784 -3.6136 -0.4966
  241MOL0     H33209   8.418   1.256  10.768  1.1192  0.6051  0.6282
  241MOL0     H33210   8.434   1.029  10.567 -2.5334 -0.5021 -2.0111
  241MOL0     H33211   8.304   1.023  10.687 -0.6518 -2.0388 -2.2266
  241MOL0     H33212   8.177   1.159  10.588 -1.1853 -1.3191 -3.2570
  241MOL0     H33213   8.301   1.288  10.591 -0.9886 -0.2343  0.5450
  241MOL0     H33214   8.405   1.164  10.384  1.1937 -4.1779  2.4534
  241MOL0     H33215   8.250   1.077  10.370  2.2730 -0.4964 -0.2113
  241MOL0     H33216   8.382   1.305  10.142 -1.7033 -0.6629  2.1650
  241MOL0     H33217   8.568   1.393  10.006  1.6221 -0.0433  0.1686
  241MOL0     H33218   8.706   1.449  10.098  1.3593  1.0024 -2.7341
  241MOL0     H33219   8.591   1.561  10.019  0.1948  0.3026  1.0725
  241MOL0     H33220   8.626   2.011  10.495  1.4412  1.5580  3.6689
  241MOL0     H33221   8.811   2.161  10.543  1.2869 -1.0113  2.1068
  241MOL0     H33222   9.008   2.293  10.448  1.4179 -1.2601 -0.8115
  241MOL0     H33223   8.994   2.252  10.621  0.6158  0.8696 -0.5988
  241MOL0     H33224   9.136   2.416  10.594  1.2901 -0.4550  1.4422
  241MOL0     H33225   9.236   2.281  10.631  1.8705  0.8457 -1.3542
  241MOL0     H33226   9.211   2.387  10.349 -0.1597  1.2049  0.2388
  241MOL0     H33227   9.290   2.235  10.391 -2.9075 -0.8659  0.5047
  241MOL0     H33228   9.431   2.341  10.538  2.5651  0.4584 -0.0233
  241MOL0     H33229   9.363   2.507  10.495  1.2446 -2.2222  5.0762
  241MOL0     H33230   9.496   2.293  10.311 -0.4930 -0.5935  1.6269
  241MOL0     H33231   9.439   2.453  10.255 -0.2266  0.5528  1.0269
  241MOL0     H33232   9.669   2.420  10.441 -0.0918  0.1378  0.1909
  241MOL0     H33233   9.591   2.568  10.401  2.4600 -0.2875 -1.3319
  241MOL0     H33234   9.650   2.526  10.154 -4.3142 -2.7296  1.2924
  241MOL0     H33235   9.726   2.380  10.192 -0.6164  0.9372 -1.6042
  241MOL0     H33236   9.822   2.643  10.294  2.5432  0.3785  0.4519
  241MOL0     H33237   9.890   2.533  10.167 -0.7085 -0.6334  0.0200
  241MOL0     H33238   9.088   1.876  10.422 -0.1347 -3.1979 -4.4737
  241MOL0     H33239   8.913   1.705  10.380 -2.2527 -0.4980 -0.9558
  241MOL0     H33240   8.444   1.665  10.477  0.3281  0.9290 -0.1425
  241MOL0     H33241   8.268   1.486  10.495 -0.8464 -0.4675 -0.8722
  241MOL0     H33242   8.604   0.149  10.157 -1.4103  0.6086  3.4902
  241MOL0     H33243   8.800   0.135   9.983 -0.4206  2.3454  0.3289
  241MOL0     H33244   9.138   0.019   9.854 -2.3781  2.0331  1.6939
  241MOL0     H33245   9.321  -0.016   9.684 -1.3754 -0.3510 -0.2800
  241MOL0     H33246   9.547  -0.026   9.625  1.7034  1.6482  2.0741
  241MOL0     H33247   9.438   0.008   9.488 -1.6288  3.8263  1.8788
  241MOL0     H33248   9.638   0.066   9.357 -0.9732  1.4529  1.0476
  241MOL0     H33249   9.671  -0.089   9.444 -1.7809 -0.7139  1.3042
  241MOL0     H33250   9.764   0.197   9.535 -3.6607  0.9622 -0.7805
  241MOL0     H33251   9.802   0.036   9.604 -1.5252 -1.1943 -1.2632
  241MOL0     H33252   9.878   0.106   9.324 -1.0873  0.5135  0.0788
  241MOL0     H33253   9.908  -0.049   9.416  0.4994  0.4655 -1.2643
  241MOL0     H33254  10.203   0.226   9.562 -0.8507  2.4430 -2.7785
  241MOL0     H33255   9.421   0.397   9.684 -0.1523 -0.0156 -3.0021
  241MOL0     H33256   9.310   0.545   9.818  1.3238 -0.3841  0.7022
  241MOL0     H33257   9.142   0.493   9.875 -0.2096 -0.5546  2.1000
  241MOL0     H33258   9.284   0.485   9.985 -1.7201  1.5129  0.3962
  242MOL0     O33259   4.357   6.617   2.275 -0.1127  0.3992 -0.5481
  242MOL0     C33260   4.244   6.579   2.256 -0.0807  0.3492 -0.7388
  242MOL0     O33261   4.205   6.473   2.181 -0.2372  0.3339 -0.7467
  242MOL0     C33262   4.290   6.425   2.085  0.7762 -0.1096 -0.3568
  242MOL0     C33263   4.274   6.470   1.955  0.4174  0.4609 -0.5173
  242MOL0     C33264   4.342   6.404   1.855 -0.6121 -0.1015 -0.2421
  242MOL0     C33265   4.427   6.300   1.885 -0.3560  0.5764 -0.0648
  242MOL0     O33266   4.490   6.219   1.789  0.3080 -1.0714  0.3993
  242MOL0     C33267   4.508   6.275   1.655  0.2749 -0.4817  0.3116
  242MOL0     C33268   4.589   6.168   1.570  0.6069 -0.7575 -0.0921
  242MOL0     C33269   4.522   6.032   1.569  0.3085 -0.6530  0.1620
  242MOL0     C33270   4.463   5.977   1.439  0.7719  0.2847 -0.5026
  242MOL0     C33271   4.422   5.831   1.468  0.1470  0.5843 -0.7548
  242MOL0     C33272   4.330   5.769   1.353 -0.0754 -0.5770 -0.7734
  242MOL0     C33273   4.294   5.616   1.372 -0.1891  0.0115 -0.2049
  242MOL0     C33274   4.182   5.585   1.270 -0.6754  0.2440 -0.2983
  242MOL0     N33275   4.211   5.633   1.130 -0.6577  0.4249  1.1988
  242MOL0     C33276   4.313   5.599   1.047 -0.5388 -0.2862 -1.0364
  242MOL0     C33277   4.281   5.650   0.924  0.3716  0.1895  0.0403
  242MOL0     C33278   4.372   5.636   0.795 -1.0494  0.8447  1.0937
  242MOL0     C33279   4.346   5.737   0.675 -0.6758 -0.3899  0.1726
  242MOL0     C33280   4.211   5.723   0.602 -0.1787 -0.6092 -1.1165
  242MOL0     C33281   4.198   5.597   0.521 -0.4554  0.0423  0.5165
  242MOL0     O33282   4.296   5.592   0.416 -0.4252  0.4040 -1.1789
  242MOL0     C33283   4.260   5.522   0.306  0.7264 -0.3182  0.9222
  242MOL0     C33284   4.315   5.562   0.186 -0.6830  0.3041  0.2509
  242MOL0     C33285   4.270   5.521   0.063 -0.3249 -0.1253 -0.8083
  242MOL0     C33286   4.325   5.587  -0.061 -0.4162 -1.3151 -0.3519
  242MOL0     C33287   4.170   5.423   0.058  0.4373  0.4713  0.1812
  242MOL0     C33288   4.115   5.363  -0.068  0.4883 -0.2580  0.9474
  242MOL0     O33289   4.001   5.289  -0.055 -0.0228  0.1192  0.0920
  242MOL0     C33290   3.928   5.237  -0.156  0.1107 -0.9926  0.1704
  242MOL0     C33291   3.938   5.281  -0.290  0.3025 -0.6192 -0.4067
  242MOL0     C33292   3.852   5.230  -0.390 -0.5568  0.2748 -0.2527
  242MOL0     C33293   3.771   5.121  -0.361  0.8732  0.3884 -0.6842
  242MOL0     O33294   3.699   5.071  -0.468  0.0229 -0.4705 -0.1007
  242MOL0     C33295   3.586   5.158  -0.502  0.0398  0.1659 -0.3512
  242MOL0     C33296   3.467   5.139  -0.401  0.3907 -0.1018 -0.1416
  242MOL0     C33297   3.399   4.998  -0.395  0.0157 -0.4148  0.4862
  242MOL0     C33298   3.300   4.996  -0.278 -0.2092  0.6798 -0.1459
  242MOL0     C33299   3.375   4.960  -0.140 -0.4060 -0.8893  0.3922
  242MOL0     C33300   3.263   4.896  -0.044 -1.1242  0.0108 -0.0465
  242MOL0     C33301   3.311   4.890   0.097 -0.2311 -0.6437  0.0100
  242MOL0     C33302   3.288   4.759   0.170  0.0625 -0.2430 -1.0944
  242MOL0    Cl33303   3.289   4.763   0.349  0.2115 -0.0313  0.2296
  242MOL0     C33304   3.753   5.072  -0.227  0.3634 -0.1656  0.0224
  242MOL0     C33305   3.837   5.137  -0.134  0.6534 -0.8673 -0.2038
  242MOL0     O33306   4.182   5.368  -0.167 -0.1613 -0.1406  0.7166
  242MOL0     C33307   4.116   5.372   0.179  0.1872 -0.2563 -0.3950
  242MOL0     C33308   4.164   5.418   0.297 -0.0072 -0.2144 -0.4533
  242MOL0     N33309   4.155   5.715   0.939  0.2855  0.9473 -0.2988
  242MOL0     N33310   4.116   5.698   1.059 -1.1186  0.2713  0.1988
  242MOL0     C33311   4.452   6.262   2.017 -0.2476 -1.2792 -0.0815
  242MOL0     C33312   4.380   6.328   2.119 -0.1606  0.3513 -0.0887
  242MOL0     C33313   4.150   6.620   2.367  0.3013  0.1438 -0.1180
  242MOL0     C33314   4.082   6.523   2.436 -0.4998 -0.3662  0.1491
  242MOL0     C33315   3.995   6.562   2.547  0.8939 -0.4168  0.1089
  242MOL0     C33316   3.984   6.693   2.582  0.1908 -0.0532  0.1811
  242MOL0     O33317   3.895   6.730   2.682 -0.4210  0.3599  0.4551
  242MOL0     C33318   3.864   6.871   2.713  0.0500  0.0542  0.2335
  242MOL0     C33319   3.785   6.909   2.840  0.9224 -0.4229  0.1018
  242MOL0     C33320   3.676   6.804   2.851  1.3098  0.1444 -0.3182
  242MOL0     C33321   3.579   6.811   2.740  0.7701 -1.2407  0.0041
  242MOL0     C33322   3.476   6.724   2.789  0.5764  0.5136 -0.6563
  242MOL0     C33323   3.385   6.657   2.817  0.2067  0.6719  0.4226
  242MOL0     C33324   4.034   6.789   2.492  0.5416 -0.3964  0.2629
  242MOL0     C33325   4.117   6.752   2.391 -0.5796 -1.0750 -0.3141
  242MOL0     C33326   4.156   6.861   2.288 -0.2553  0.4483 -0.9660
  242MOL0     H33327   4.211   6.556   1.940 -2.7791 -1.5125  0.6894
  242MOL0     H33328   4.339   6.447   1.756 -2.3566 -0.2948 -0.3005
  242MOL0     H33329   4.556   6.373   1.658  1.7214 -1.1537  0.1569
  242MOL0     H33330   4.409   6.282   1.609  0.7021  0.1978 -0.5475
  242MOL0     H33331   4.596   6.204   1.467 -0.9804 -0.7825 -0.2405
  242MOL0     H33332   4.690   6.173   1.610  1.0988 -0.8438 -1.2606
  242MOL0     H33333   4.594   5.954   1.597  2.5789  0.4732 -2.0853
  242MOL0     H33334   4.451   6.028   1.652  1.9403 -1.1422  1.5834
  242MOL0     H33335   4.373   6.032   1.411  0.2114  0.5842  1.7101
  242MOL0     H33336   4.522   5.989   1.348  1.6861  1.7573  0.2435
  242MOL0     H33337   4.369   5.833   1.563  0.2659  2.3983 -0.6995
  242MOL0     H33338   4.514   5.774   1.488  1.1361  3.1692  3.3858
  242MOL0     H33339   4.234   5.821   1.346  0.8752  1.0366 -3.1877
  242MOL0     H33340   4.375   5.779   1.254 -1.8211 -0.0707 -1.5344
  242MOL0     H33341   4.253   5.602   1.473  0.1325  1.7803  0.1969
  242MOL0     H33342   4.386   5.557   1.370  0.8602  1.5988 -0.1521
  242MOL0     H33343   4.168   5.477   1.280 -0.4989  0.3487  1.4725
  242MOL0     H33344   4.089   5.633   1.301 -1.0199 -2.5709  3.8755
  242MOL0     H33345   4.399   5.538   1.073 -0.8556 -0.0402  0.7406
  242MOL0     H33346   4.368   5.532   0.760  1.5940  1.4757 -1.5349
  242MOL0     H33347   4.475   5.645   0.829 -1.1385  3.0065  0.9363
  242MOL0     H33348   4.352   5.839   0.714  0.0096  0.5038 -2.1002
  242MOL0     H33349   4.417   5.728   0.592 -3.9551 -0.5757 -2.8778
  242MOL0     H33350   4.135   5.722   0.681  4.0932 -0.5558  3.5181
  242MOL0     H33351   4.190   5.803   0.530 -3.3552 -0.6874 -0.4223
  242MOL0     H33352   4.200   5.500   0.572  0.9767 -1.1888 -1.7252
  242MOL0     H33353   4.099   5.617   0.480  0.1461  0.6186 -0.7163
  242MOL0     H33354   4.401   5.628   0.183 -1.5159  1.5021  1.3823
  242MOL0     H33355   4.387   5.675  -0.042 -0.0653 -2.0099  2.1498
  242MOL0     H33356   4.244   5.628  -0.122  0.1904  1.0387  0.2893
  242MOL0     H33357   4.388   5.517  -0.115  0.8418 -0.4298 -0.0812
  242MOL0     H33358   4.010   5.352  -0.330 -1.1598  2.6055  2.2160
  242MOL0     H33359   3.852   5.256  -0.495  0.6377  1.9249  0.1069
  242MOL0     H33360   3.614   5.263  -0.515 -0.0992  0.0531 -1.7014
  242MOL0     H33361   3.559   5.123  -0.602 -1.8939 -1.1820  0.5765
  242MOL0     H33362   3.502   5.173  -0.303  1.6251 -0.1866 -0.5376
  242MOL0     H33363   3.391   5.213  -0.429  1.7736  0.3298 -3.1305
  242MOL0     H33364   3.465   4.914  -0.372 -0.2090 -0.2637  1.8129
  242MOL0     H33365   3.355   4.981  -0.493  1.7853  1.6409 -0.7439
  242MOL0     H33366   3.236   4.910  -0.304  1.1658  0.2902 -2.5458
  242MOL0     H33367   3.244   5.090  -0.277 -0.7041  0.4277 -1.4675
  242MOL0     H33368   3.448   4.879  -0.145 -0.3197 -0.7452 -1.5074
  242MOL0     H33369   3.414   5.047  -0.087 -0.0471 -0.4208 -0.6127
  242MOL0     H33370   3.247   4.792  -0.074 -1.7249 -0.5247  1.9280
  242MOL0     H33371   3.166   4.947  -0.045  0.9887  4.5795  1.3961
  242MOL0     H33372   3.262   4.975   0.146 -1.2344 -2.1944  1.8983
  242MOL0     H33373   3.419   4.903   0.103 -0.4043  0.8830  0.1456
  242MOL0     H33374   3.364   4.684   0.143 -0.0077 -0.6163 -0.2861
  242MOL0     H33375   3.196   4.709   0.139  0.4680  1.1335 -4.9868
  242MOL0     H33376   3.679   4.998  -0.200 -0.4738  0.8117  0.4990
  242MOL0     H33377   3.809   5.104  -0.035 -2.3890 -0.2981 -0.7866
  242MOL0     H33378   4.043   5.292   0.190 -1.6694  1.6567  2.8463
  242MOL0     H33379   4.099   5.389   0.379 -5.1808  3.1690 -2.7602
  242MOL0     H33380   4.518   6.179   2.037 -1.1539 -2.0493 -0.2185
  242MOL0     H33381   4.403   6.300   2.221 -2.5913 -1.1031  0.1201
  242MOL0     H33382   4.086   6.417   2.413 -3.3132 -1.1820  2.7285
  242MOL0     H33383   3.944   6.500   2.619  0.4527 -1.5767 -1.1564
  242MOL0     H33384   3.961   6.921   2.716  0.3173 -0.4850  0.8569
  242MOL0     H33385   3.815   6.922   2.629 -2.4847 -0.9361  1.0036
  242MOL0     H33386   3.754   7.014   2.836  0.2181 -0.6513 -1.9874
  242MOL0     H33387   3.840   6.896   2.933  0.0588 -1.6418  0.4629
  242MOL0     H33388   3.718   6.703   2.842  1.1795 -0.2333  2.3924
  242MOL0     H33389   3.634   6.809   2.952 -0.1782  0.9540 -0.9485
  242MOL0     H33390   3.613   6.774   2.643 -0.7819  2.2955 -2.0798
  242MOL0     H33391   3.546   6.915   2.733 -0.5951 -1.7254 -1.2583
  242MOL0     H33392   3.302   6.595   2.842 -0.2525  1.8562  2.0249
  242MOL0     H33393   4.006   6.894   2.493 -2.2219 -1.0423  0.1884
  242MOL0     H33394   4.235   6.921   2.334 -1.8515  0.3041  2.3104
  242MOL0     H33395   4.179   6.821   2.189  1.4952 -0.2037 -0.3327
  242MOL0     H33396   4.069   6.926   2.277 -0.5695  0.1408 -0.3563
  243MOL0     O33397   0.184   3.001   8.508  0.3418 -0.0530 -0.8773
  243MOL0     C33398   0.080   3.059   8.486 -0.0794  0.2528  0.6901
  243MOL0     O33399  -0.040   3.003   8.426 -0.4808  0.4312  0.2810
  243MOL0     C33400  -0.056   2.874   8.381 -0.2616  0.5140 -0.1817
  243MOL0     C33401  -0.195   2.827   8.378 -0.5482 -0.6644 -0.2955
  243MOL0     C33402  -0.218   2.690   8.342 -0.9260  0.2481 -0.1231
  243MOL0     C33403  -0.116   2.600   8.323 -0.1923  0.3805 -0.0280
  243MOL0     O33404  -0.131   2.474   8.295  0.4607  1.0682 -0.4646
  243MOL0     C33405  -0.181   2.392   8.406 -0.6466 -0.2365 -0.4110
  243MOL0     C33406  -0.060   2.344   8.492 -0.0850 -0.9941  0.5736
  243MOL0     C33407  -0.089   2.236   8.593  0.1618 -0.8971 -0.2881
  243MOL0     C33408  -0.088   2.099   8.526 -0.1446  0.6507 -1.0552
  243MOL0     C33409  -0.093   1.993   8.630  0.0877  1.0278  0.2926
  243MOL0     C33410  -0.230   1.984   8.710  0.4059  0.2714 -0.3294
  243MOL0     C33411  -0.254   1.865   8.801 -0.8917  0.1770  0.4534
  243MOL0     C33412  -0.381   1.888   8.892 -0.7452 -0.0137 -0.0132
  243MOL0     N33413  -0.350   1.966   9.013 -0.5525 -0.0106  0.2034
  243MOL0     C33414  -0.232   1.971   9.083  0.3525  0.1476  0.8348
  243MOL0     C33415  -0.245   2.076   9.167  0.3179 -0.3356 -0.4622
  243MOL0     C33416  -0.157   2.122   9.283  0.1572 -0.2144 -0.0189
  243MOL0     C33417  -0.094   2.259   9.250 -0.4548  0.0935  0.7263
  243MOL0     C33418  -0.007   2.305   9.361 -0.2348 -0.7178 -0.4717
  243MOL0     C33419   0.045   2.454   9.342  0.2087 -1.1283  0.1346
  243MOL0     O33420   0.042   2.522   9.470  0.2494 -0.4092  0.1704
  243MOL0     C33421  -0.069   2.607   9.491 -0.1204  0.2828 -0.2024
  243MOL0     C33422  -0.051   2.709   9.581 -0.6694 -0.6866  0.3501
  243MOL0     C33423  -0.159   2.795   9.620 -0.5717 -0.1441 -0.1498
  243MOL0     C33424  -0.125   2.914   9.705  0.7180  0.6316 -0.4976
  243MOL0     C33425  -0.282   2.773   9.571 -0.3121  0.3089  0.4185
  243MOL0     C33426  -0.398   2.856   9.620 -0.4140  1.0736  0.3172
  243MOL0     O33427  -0.459   2.811   9.727 -0.4957  0.4794 -0.5879
  243MOL0     C33428  -0.402   2.725   9.816 -0.1252 -0.8814 -1.3680
  243MOL0     C33429  -0.361   2.768   9.942 -0.0830 -0.8819  0.3289
  243MOL0     C33430  -0.315   2.680  10.036  0.4373  0.2583 -0.6830
  243MOL0     C33431  -0.296   2.539  10.014  0.1003  0.3680  0.1427
  243MOL0     O33432  -0.244   2.442  10.100  0.5866  0.9930  0.5718
  243MOL0     C33433  -0.220   2.475  10.236 -0.2431  0.1935 -0.3902
  243MOL0     C33434  -0.161   2.360  10.314 -0.4793  0.0708 -0.2685
  243MOL0     C33435  -0.257   2.256  10.331 -0.4234  0.1391  1.0275
  243MOL0     C33436  -0.222   2.136  10.239 -0.7660  0.5012  0.6157
  243MOL0     C33437  -0.331   2.034  10.220  0.6989 -0.3512  0.3397
  243MOL0     C33438  -0.330   1.929  10.327  0.8920  0.4784  0.3270
  243MOL0     C33439  -0.386   1.794  10.283  0.1954  0.2744  0.0386
  243MOL0     C33440  -0.538   1.783  10.259  0.2009  0.2563  0.6063
  243MOL0    Cl33441  -0.575   1.862  10.100  0.0067  0.2708  0.4923
  243MOL0     C33442  -0.361   2.499   9.896 -0.1461 -0.4965  0.8649
  243MOL0     C33443  -0.406   2.589   9.797 -0.8426 -0.6925  0.0771
  243MOL0     O33444  -0.439   2.944   9.551  0.5040  0.1546  0.5210
  243MOL0     C33445  -0.307   2.665   9.474 -0.1653 -0.0387  0.1116
  243MOL0     C33446  -0.200   2.589   9.434 -0.9252  0.0453  0.3126
  243MOL0     N33447  -0.375   2.122   9.156  0.1464 -0.2290  0.1610
  243MOL0     N33448  -0.432   2.063   9.058  0.6196  0.4031 -0.0768
  243MOL0     C33449   0.019   2.643   8.347 -0.6204  0.6591 -0.7754
  243MOL0     C33450   0.050   2.774   8.367 -1.0433 -0.2367  0.6904
  243MOL0     C33451   0.065   3.202   8.516 -0.5030 -1.0343  0.3706
  243MOL0     C33452  -0.042   3.275   8.460  0.3931  0.2316 -0.7876
  243MOL0     C33453  -0.028   3.405   8.455  0.6272 -1.2717 -0.6505
  243MOL0     C33454   0.054   3.486   8.528 -0.5749  0.1552 -0.0136
  243MOL0     O33455   0.045   3.620   8.533  0.0313 -0.2843  0.6816
  243MOL0     C33456   0.146   3.692   8.608  0.1702 -0.4348 -0.6194
  243MOL0     C33457   0.109   3.731   8.752  0.8445 -0.2147  0.0611
  243MOL0     C33458  -0.045   3.743   8.780  0.2667 -0.2045 -0.4708
  243MOL0     C33459  -0.088   3.876   8.838 -0.2131 -0.2914 -0.3125
  243MOL0     C33460  -0.001   3.917   8.949 -0.0642  0.3785  0.1103
  243MOL0     C33461   0.062   3.950   9.046 -0.2104  0.5819 -0.0550
  243MOL0     C33462   0.144   3.413   8.614  0.1492 -0.6996 -1.6770
  243MOL0     C33463   0.151   3.274   8.603 -0.3873  0.7952 -0.0402
  243MOL0     C33464   0.257   3.211   8.693  0.0218 -0.4304  0.6864
  243MOL0     H33465  -0.273   2.893   8.414 -0.8679 -2.5052  2.7024
  243MOL0     H33466  -0.318   2.651   8.323 -1.1927  1.0311 -0.3584
  243MOL0     H33467  -0.240   2.308   8.369  2.7990 -5.4133  4.1198
  243MOL0     H33468  -0.241   2.450   8.477 -0.3297 -1.7346  1.1619
  243MOL0     H33469   0.021   2.304   8.430 -0.7036 -2.0687  0.4164
  243MOL0     H33470  -0.020   2.437   8.532  0.3066 -1.3663  1.0576
  243MOL0     H33471  -0.011   2.228   8.668 -1.0766 -1.6915  0.9498
  243MOL0     H33472  -0.175   2.272   8.651  1.4161  0.5323  0.7715
  243MOL0     H33473  -0.166   2.084   8.452 -1.8227  0.9048  0.5843
  243MOL0     H33474   0.007   2.080   8.475  0.2224 -3.0017  0.6630
  243MOL0     H33475  -0.007   2.008   8.694  1.6050 -0.2126 -1.3419
  243MOL0     H33476  -0.095   1.893   8.583 -0.9606 -0.8922  4.0287
  243MOL0     H33477  -0.241   2.075   8.770  0.3492 -1.8124  3.0515
  243MOL0     H33478  -0.308   2.008   8.638  2.1014 -1.1545 -2.8065
  243MOL0     H33479  -0.162   1.852   8.859 -1.4285  1.6236  1.6897
  243MOL0     H33480  -0.272   1.782   8.733  1.0759  0.7235 -0.8452
  243MOL0     H33481  -0.451   1.950   8.835 -2.2109 -2.8877 -1.5624
  243MOL0     H33482  -0.440   1.798   8.908 -1.6817  0.6200  0.2033
  243MOL0     H33483  -0.152   1.899   9.070  1.9847  1.5653  2.3802
  243MOL0     H33484  -0.079   2.047   9.294  3.0354  2.2218 -2.2928
  243MOL0     H33485  -0.220   2.123   9.373 -0.9014 -0.3052 -0.7340
  243MOL0     H33486  -0.035   2.257   9.158 -0.8368 -3.2784  0.4314
  243MOL0     H33487  -0.174   2.331   9.233 -1.0312 -0.7811 -0.3726
  243MOL0     H33488  -0.055   2.303   9.459  3.1930  2.2157  1.5128
  243MOL0     H33489   0.080   2.239   9.370 -0.5690 -1.4421 -2.1391
  243MOL0     H33490   0.150   2.444   9.314  0.3018 -0.2117  0.1222
  243MOL0     H33491   0.000   2.498   9.252 -0.6596 -2.0155  0.1140
  243MOL0     H33492   0.046   2.740   9.618 -0.6396  0.2398 -0.4700
  243MOL0     H33493  -0.135   2.882   9.809 -1.0504  1.3109 -0.4376
  243MOL0     H33494  -0.202   2.991   9.707 -0.0304 -0.0999 -0.6432
  243MOL0     H33495  -0.027   2.955   9.680  0.3556 -0.4150 -4.2170
  243MOL0     H33496  -0.382   2.872   9.964 -0.6627 -1.3417  2.0788
  243MOL0     H33497  -0.269   2.728  10.122  5.4353  1.1228 -3.5058
  243MOL0     H33498  -0.153   2.561  10.239 -0.8923  0.6771  0.9298
  243MOL0     H33499  -0.316   2.506  10.279  0.7875  2.8506  0.1674
  243MOL0     H33500  -0.066   2.334  10.266 -0.4034 -2.6308  1.1881
  243MOL0     H33501  -0.126   2.394  10.412 -0.4828 -0.0010 -0.2419
  243MOL0     H33502  -0.357   2.284  10.299 -0.6220 -3.1201 -1.8366
  243MOL0     H33503  -0.260   2.227  10.437 -0.4476  2.8373  1.8207
  243MOL0     H33504  -0.133   2.082  10.272  1.5336  0.8581 -4.1005
  243MOL0     H33505  -0.198   2.184  10.143  0.2813  0.4385  0.8385
  243MOL0     H33506  -0.432   2.076  10.213  0.8469 -0.2834 -2.7847
  243MOL0     H33507  -0.309   1.990  10.122 -2.1303  2.7807 -1.9192
  243MOL0     H33508  -0.385   1.953  10.418  2.1814 -2.1377  1.9178
  243MOL0     H33509  -0.227   1.911  10.356  0.1298 -4.5671  0.8536
  243MOL0     H33510  -0.362   1.726  10.365  0.3632 -0.2326 -0.4226
  243MOL0     H33511  -0.331   1.764  10.194 -1.6026  0.7174 -1.2923
  243MOL0     H33512  -0.600   1.823  10.340  0.2512  0.3938  0.5780
  243MOL0     H33513  -0.570   1.679  10.243  1.7666 -0.1471 -0.1160
  243MOL0     H33514  -0.364   2.392   9.875  1.5728 -0.5521  0.7774
  243MOL0     H33515  -0.450   2.555   9.704  0.8034 -0.1093 -0.9722
  243MOL0     H33516  -0.404   2.661   9.428 -1.5350  3.0106  2.3579
  243MOL0     H33517  -0.218   2.523   9.350  0.5273  0.9566 -0.7567
  243MOL0     H33518   0.092   2.566   8.322 -1.2804  0.1941 -1.3222
  243MOL0     H33519   0.155   2.799   8.376 -1.0892 -0.3359  1.7255
  243MOL0     H33520  -0.118   3.227   8.399 -0.5801 -1.8610  1.8880
  243MOL0     H33521  -0.105   3.460   8.400  2.8612  1.8020 -0.9732
  243MOL0     H33522   0.242   3.641   8.607  0.4118 -0.0870  1.5703
  243MOL0     H33523   0.155   3.786   8.552 -0.3756 -0.5615 -0.9326
  243MOL0     H33524   0.167   3.817   8.786  1.8006 -0.6396 -0.4497
  243MOL0     H33525   0.143   3.645   8.811 -1.9159 -1.3311  0.1729
  243MOL0     H33526  -0.095   3.730   8.684  1.4479  0.0865 -1.1502
  243MOL0     H33527  -0.075   3.657   8.841  0.3379 -2.2116 -3.0605
  243MOL0     H33528  -0.191   3.872   8.873  0.7023  0.0827  2.6812
  243MOL0     H33529  -0.077   3.946   8.755  2.7841 -1.7066 -1.2520
  243MOL0     H33530   0.097   3.981   9.143  2.0393  1.0627 -0.9737
  243MOL0     H33531   0.212   3.456   8.687  0.2150 -0.5654 -1.8155
  243MOL0     H33532   0.292   3.285   8.766  3.0181 -0.1342 -0.9124
  243MOL0     H33533   0.213   3.122   8.738 -2.9484  0.0531 -0.9806
  243MOL0     H33534   0.344   3.176   8.636 -0.1931 -1.3057  0.8865
  244MOL0     O33535   2.451   0.113   8.764  0.2090 -0.7441 -0.4347
  244MOL0     C33536   2.513   0.145   8.663  0.2758  0.9467  0.0707
  244MOL0     O33537   2.503   0.263   8.603  0.1590  0.5634  0.1185
  244MOL0     C33538   2.399   0.336   8.622  0.8873  0.2048  0.4188
  244MOL0     C33539   2.425   0.470   8.600 -0.5162 -0.6390 -0.8150
  244MOL0     C33540   2.317   0.569   8.602 -0.1193  0.4859  1.4233
  244MOL0     C33541   2.190   0.530   8.634 -0.0957  0.0340 -0.2867
  244MOL0     O33542   2.082   0.610   8.636  0.1921 -0.4071  0.2862
  244MOL0     C33543   2.095   0.744   8.687 -0.2002 -0.3263 -0.1109
  244MOL0     C33544   2.084   0.750   8.838 -0.8660  0.2907 -0.1714
  244MOL0     C33545   1.939   0.730   8.876 -0.6274  0.2745  0.4833
  244MOL0     C33546   1.883   0.591   8.896  0.2985 -0.8300 -0.2732
  244MOL0     C33547   1.727   0.574   8.886 -0.4163 -0.2903  0.7040
  244MOL0     C33548   1.654   0.667   8.982  0.4485  1.0374 -0.5477
  244MOL0     C33549   1.707   0.669   9.136 -0.0988 -0.3739  0.0952
  244MOL0     C33550   1.623   0.755   9.231  0.2631  0.1630  0.0895
  244MOL0     N33551   1.484   0.702   9.243 -0.0242 -0.0380 -0.5582
  244MOL0     C33552   1.446   0.568   9.226  0.3929 -0.3362  1.0514
  244MOL0     C33553   1.307   0.558   9.210 -1.0263  0.2869 -0.5249
  244MOL0     C33554   1.233   0.439   9.164  0.0294 -0.2239 -0.0458
  244MOL0     C33555   1.235   0.320   9.264  0.0807 -0.8308  0.2873
  244MOL0     C33556   1.089   0.301   9.309  0.1824 -0.5533 -0.4237
  244MOL0     C33557   1.081   0.192   9.428 -0.3533 -0.9770 -0.2189
  244MOL0     O33558   0.954   0.171   9.477  0.0351 -0.9046 -0.0087
  244MOL0     C33559   0.898   0.233   9.580  0.4097 -0.3066  1.0493
  244MOL0     C33560   0.941   0.358   9.632 -0.1850 -0.3068  0.3227
  244MOL0     C33561   0.875   0.423   9.734 -0.5221 -0.0367 -0.3342
  244MOL0     C33562   0.935   0.557   9.767 -0.0650  0.3903 -0.2040
  244MOL0     C33563   0.763   0.375   9.794  0.0886  0.0337 -0.2505
  244MOL0     C33564   0.675   0.435   9.901 -0.7050 -0.2991 -0.1734
  244MOL0     O33565   0.563   0.367   9.923  0.1698 -0.1566  0.5196
  244MOL0     C33566   0.452   0.399  10.000 -0.6775 -0.0467 -0.3059
  244MOL0     C33567   0.334   0.339   9.966  0.7818  0.1466  0.7638
  244MOL0     C33568   0.207   0.361  10.031  0.3963 -0.3819 -0.1537
  244MOL0     C33569   0.215   0.448  10.141 -0.0037 -0.5204  0.0098
  244MOL0     O33570   0.100   0.449  10.214 -0.5173  0.2512  0.5967
  244MOL0     C33571   0.094   0.514  10.344  0.0280 -0.3562  0.3770
  244MOL0     C33572  -0.049   0.483  10.404  0.1676  0.2558  0.2082
  244MOL0     C33573  -0.172   0.503  10.308  0.1291 -0.0853  0.3601
  244MOL0     C33574  -0.304   0.510  10.390 -0.5326 -0.2553 -0.7907
  244MOL0     C33575  -0.414   0.563  10.293  0.0191 -0.5789 -0.7486
  244MOL0     C33576  -0.538   0.595  10.368  0.0373 -0.3702 -0.3022
  244MOL0     C33577  -0.633   0.683  10.283 -0.5286 -0.3290 -0.1403
  244MOL0     C33578  -0.698   0.610  10.164  1.6015  0.6846 -0.5137
  244MOL0    Cl33579  -0.786   0.451  10.221  0.0791 -0.0471  0.2536
  244MOL0     C33580   0.330   0.521  10.168  0.2840 -0.3229  0.9359
  244MOL0     C33581   0.449   0.496  10.098  0.1792 -0.2512 -0.5406
  244MOL0     O33582   0.716   0.530   9.967  0.6081  0.0891  0.0149
  244MOL0     C33583   0.717   0.247   9.747  0.8336  1.1488  0.3779
  244MOL0     C33584   0.790   0.175   9.642 -0.9928  0.5013 -0.2008
  244MOL0     N33585   1.263   0.684   9.239  0.5936 -0.4450 -0.5289
  244MOL0     N33586   1.367   0.764   9.250  0.4418 -0.0119 -0.2255
  244MOL0     C33587   2.153   0.392   8.645 -0.8379 -0.2029 -0.6100
  244MOL0     C33588   2.259   0.301   8.638 -0.3521 -0.0161 -0.0514
  244MOL0     C33589   2.631   0.068   8.630 -0.5514 -0.4875 -0.2185
  244MOL0     C33590   2.725   0.124   8.541  0.9117 -0.5154 -0.9405
  244MOL0     C33591   2.839   0.059   8.514 -0.9382 -0.4648  0.1810
  244MOL0     C33592   2.873  -0.067   8.559  0.1297 -0.0713 -0.0857
  244MOL0     O33593   2.987  -0.125   8.510  0.8676  0.4797  0.1491
  244MOL0     C33594   3.021  -0.107   8.375 -0.3616  0.1973 -0.1529
  244MOL0     C33595   3.097  -0.214   8.312 -0.7307 -0.4630  0.2914
  244MOL0     C33596   3.021  -0.349   8.299 -0.0835  0.2959  0.0773
  244MOL0     C33597   3.002  -0.429   8.436  0.7632 -0.0162  0.6161
  244MOL0     C33598   3.140  -0.450   8.488 -0.1881  0.8894  0.5402
  244MOL0     C33599   3.256  -0.464   8.534 -0.0230  0.8478  0.0605
  244MOL0     C33600   2.783  -0.132   8.631  0.2905  0.8377  0.1327
  244MOL0     C33601   2.657  -0.070   8.673 -0.4514  0.0745  0.4509
  244MOL0     C33602   2.564  -0.145   8.760 -0.0349 -0.1594  0.8914
  244MOL0     H33603   2.526   0.500   8.572 -0.0930  0.9958  2.0999
  244MOL0     H33604   2.339   0.674   8.586  0.7067  0.0219 -1.0901
  244MOL0     H33605   2.020   0.808   8.640 -0.3248 -0.5965 -0.2807
  244MOL0     H33606   2.192   0.790   8.669  0.3060  0.1069  3.1217
  244MOL0     H33607   2.156   0.684   8.887 -0.2608  0.2349 -1.1054
  244MOL0     H33608   2.119   0.851   8.859 -0.9022 -0.0986  2.0319
  244MOL0     H33609   1.912   0.779   8.970  1.4381  0.3823  1.0638
  244MOL0     H33610   1.884   0.788   8.802  1.1341  0.5715 -0.6443
  244MOL0     H33611   1.914   0.514   8.825  1.1464 -0.4444 -0.3275
  244MOL0     H33612   1.914   0.565   8.997  0.6241 -1.7589 -0.5958
  244MOL0     H33613   1.696   0.474   8.919 -3.1800 -0.1969 -1.3037
  244MOL0     H33614   1.691   0.591   8.785 -1.3284  1.0340  1.2348
  244MOL0     H33615   1.659   0.770   8.947 -1.3418  2.1102  1.9972
  244MOL0     H33616   1.548   0.642   8.977 -0.4566  4.5477 -1.5628
  244MOL0     H33617   1.813   0.693   9.135 -0.3579  0.8882  0.3584
  244MOL0     H33618   1.705   0.565   9.169 -1.2979 -0.7156 -0.9485
  244MOL0     H33619   1.667   0.763   9.330 -0.0830 -0.1609  0.2749
  244MOL0     H33620   1.607   0.856   9.192 -1.1169 -0.5768 -1.4095
  244MOL0     H33621   1.515   0.493   9.189 -2.4733 -2.0540 -1.2366
  244MOL0     H33622   1.291   0.395   9.082  0.3278  1.5576 -0.8303
  244MOL0     H33623   1.134   0.463   9.125 -2.2872 -4.2417  2.5740
  244MOL0     H33624   1.266   0.230   9.209  1.8323 -0.1553  0.0919
  244MOL0     H33625   1.311   0.333   9.341  2.6516  1.2144 -2.3244
  244MOL0     H33626   1.059   0.399   9.349  2.6986  0.1527 -0.1324
  244MOL0     H33627   1.032   0.271   9.221 -0.3711 -3.5920  0.8576
  244MOL0     H33628   1.125   0.102   9.384  0.0818  0.3812 -2.7357
  244MOL0     H33629   1.141   0.228   9.511 -1.1334 -1.5201  0.5964
  244MOL0     H33630   1.030   0.405   9.590  0.4355 -1.3388  0.4411
  244MOL0     H33631   0.873   0.631   9.818  1.1593  2.7139 -1.8822
  244MOL0     H33632   0.973   0.598   9.673 -0.3490 -1.6571 -1.2792
  244MOL0     H33633   1.013   0.521   9.834  0.3692 -3.0204 -2.2613
  244MOL0     H33634   0.316   0.273   9.881 -1.8364 -0.5129  1.7139
  244MOL0     H33635   0.120   0.302  10.005  1.1733 -1.8366  0.4460
  244MOL0     H33636   0.169   0.469  10.408 -1.1656 -4.0610 -0.5771
  244MOL0     H33637   0.113   0.621  10.328 -1.1274 -0.3645 -1.5325
  244MOL0     H33638  -0.054   0.380  10.440 -1.3922 -0.3526 -1.5257
  244MOL0     H33639  -0.056   0.546  10.492 -1.9256  0.0008  0.2707
  244MOL0     H33640  -0.194   0.421  10.239 -1.6812  0.5804  0.0763
  244MOL0     H33641  -0.154   0.594  10.250  0.5580  0.7765  1.7838
  244MOL0     H33642  -0.283   0.585  10.468  0.4837  0.5263 -1.7664
  244MOL0     H33643  -0.347   0.418  10.429  1.0084 -1.7580 -2.4588
  244MOL0     H33644  -0.371   0.656  10.255 -0.4874  0.7337  1.6594
  244MOL0     H33645  -0.436   0.493  10.212  0.9142 -1.7891  0.0266
  244MOL0     H33646  -0.515   0.650  10.460 -0.1579  0.8138 -0.9377
  244MOL0     H33647  -0.583   0.505  10.410 -0.5166  0.8917  2.0634
  244MOL0     H33648  -0.586   0.775  10.246  3.1038 -1.3290  1.4733
  244MOL0     H33649  -0.710   0.723  10.349 -4.5891 -1.9954 -3.3964
  244MOL0     H33650  -0.616   0.599  10.092  0.3154 -2.1548 -1.7093
  244MOL0     H33651  -0.775   0.679  10.128  1.3634  0.9183  0.4216
  244MOL0     H33652   0.323   0.586  10.255  0.0727  0.1272  0.5838
  244MOL0     H33653   0.540   0.543  10.133  0.4242  2.7611 -4.4963
  244MOL0     H33654   0.638   0.185   9.787  1.8961 -1.8369 -1.7404
  244MOL0     H33655   0.765   0.081   9.593 -2.0236  0.7942 -0.2535
  244MOL0     H33656   2.054   0.350   8.659 -0.0348 -1.3279  2.3444
  244MOL0     H33657   2.240   0.195   8.629  3.1160 -0.5955 -2.4737
  244MOL0     H33658   2.713   0.228   8.512  2.9160  0.0075 -0.1022
  244MOL0     H33659   2.906   0.120   8.454 -3.2946  2.3570  0.2377
  244MOL0     H33660   2.930  -0.081   8.319 -0.1547 -2.9625 -2.2047
  244MOL0     H33661   3.071  -0.011   8.376  1.2937 -0.4966  3.9151
  244MOL0     H33662   3.193  -0.239   8.358 -1.5007 -2.8312  0.7590
  244MOL0     H33663   3.116  -0.183   8.208 -1.0612 -0.7636  0.1382
  244MOL0     H33664   2.921  -0.326   8.260  0.2445 -0.2060 -1.0985
  244MOL0     H33665   3.068  -0.419   8.230  2.0953  2.7527 -1.1038
  244MOL0     H33666   2.942  -0.519   8.420  0.1108  0.5054  0.1033
  244MOL0     H33667   2.937  -0.372   8.503  0.0032 -1.3637  1.0497
  244MOL0     H33668   3.355  -0.466   8.573  0.0218  0.6495 -0.0587
  244MOL0     H33669   2.807  -0.234   8.659  3.2450  0.9719 -1.5699
  244MOL0     H33670   2.469  -0.167   8.711  2.3123 -0.7348 -4.0413
  244MOL0     H33671   2.616  -0.240   8.780 -3.3276 -2.8794 -2.1787
  244MOL0     H33672   2.547  -0.085   8.850 -3.7352  2.5568 -1.3253
  245MOL0     O33673   2.987   4.350   1.340 -0.5450 -0.3743 -0.4970
  245MOL0     C33674   3.029   4.265   1.414 -0.4575 -0.4665  0.1735
  245MOL0     O33675   2.963   4.210   1.517  0.1272  0.0589 -0.4235
  245MOL0     C33676   2.826   4.227   1.525 -0.6054  0.4881 -0.6699
  245MOL0     C33677   2.735   4.161   1.437  0.5784 -0.1128  0.1460
  245MOL0     C33678   2.600   4.200   1.431  0.4375  0.5928  0.4281
  245MOL0     C33679   2.560   4.304   1.520  1.0554  0.3511  0.2762
  245MOL0     O33680   2.433   4.343   1.497  0.5123 -0.5982  0.3337
  245MOL0     C33681   2.321   4.261   1.530 -1.3947  0.5126 -0.3535
  245MOL0     C33682   2.208   4.310   1.447  0.0124 -0.5137  0.4299
  245MOL0     C33683   2.254   4.324   1.301  0.3365 -0.1284  0.8828
  245MOL0     C33684   2.137   4.323   1.209  0.3096  1.2634 -0.0976
  245MOL0     C33685   2.171   4.345   1.061 -0.5556  0.1682 -0.5349
  245MOL0     C33686   2.052   4.304   0.960  0.0108  0.6848  0.7812
  245MOL0     C33687   2.083   4.348   0.821  0.5058  0.2742 -1.1456
  245MOL0     C33688   1.959   4.333   0.729  0.3769  0.7820  0.9241
  245MOL0     N33689   1.996   4.329   0.586 -0.2093 -0.0042 -0.6637
  245MOL0     C33690   2.020   4.209   0.526 -0.7450 -1.0479 -0.3756
  245MOL0     C33691   2.018   4.233   0.392  0.4312 -0.2635  0.0109
  245MOL0     C33692   2.074   4.141   0.280 -0.4185  0.4116 -0.2966
  245MOL0     C33693   2.163   4.225   0.183 -1.9066 -0.2729 -0.9647
  245MOL0     C33694   2.199   4.173   0.043  0.2420 -0.3321 -0.1811
  245MOL0     C33695   2.249   4.035   0.054  0.8101 -0.3482  0.5881
  245MOL0     O33696   2.356   4.016   0.152 -0.3448 -0.2070  0.1384
  245MOL0     C33697   2.418   3.897   0.172 -0.0329 -1.3087 -0.2891
  245MOL0     C33698   2.353   3.780   0.111  0.3787 -0.5208  0.0444
  245MOL0     C33699   2.400   3.654   0.147  0.0362  0.0423  0.1073
  245MOL0     C33700   2.330   3.531   0.102 -0.0253  0.7985 -0.0060
  245MOL0     C33701   2.508   3.647   0.237  0.9134  0.0983 -0.4417
  245MOL0     C33702   2.567   3.516   0.284  1.4134  0.1394  0.0036
  245MOL0     O33703   2.699   3.519   0.327 -0.3889 -0.4258  0.0754
  245MOL0     C33704   2.779   3.400   0.327  0.4286  0.6488  0.7574
  245MOL0     C33705   2.734   3.271   0.290 -0.2792  0.0138 -1.0358
  245MOL0     C33706   2.819   3.159   0.290  0.2276  0.4191 -0.3845
  245MOL0     C33707   2.949   3.169   0.320 -1.0023 -0.0458  0.3917
  245MOL0     O33708   3.032   3.054   0.315  0.0670  0.0335  0.1002
  245MOL0     C33709   3.104   3.013   0.435  0.1705 -0.2883  0.3551
  245MOL0     C33710   3.246   3.068   0.446 -0.6335  0.1130 -0.4667
  245MOL0     C33711   3.328   2.985   0.553  0.5175  0.2095  0.0571
  245MOL0     C33712   3.480   2.987   0.515  0.3036 -0.4470  0.3660
  245MOL0     C33713   3.561   2.908   0.602 -0.4605  0.3101 -0.5725
  245MOL0     C33714   3.701   2.905   0.560 -0.5167 -0.0856 -0.9578
  245MOL0     C33715   3.781   2.820   0.659  0.3287 -0.5480 -0.3068
  245MOL0     C33716   3.918   2.787   0.622 -0.2153 -0.0729 -0.0758
  245MOL0    Cl33717   3.943   2.693   0.469 -0.0645 -0.2156 -0.3637
  245MOL0     C33718   2.999   3.298   0.360  0.1869  0.2415  0.6187
  245MOL0     C33719   2.916   3.412   0.362 -0.0109  0.5603  0.6835
  245MOL0     O33720   2.486   3.420   0.301  0.1610 -0.3183 -0.2728
  245MOL0     C33721   2.579   3.764   0.286 -0.5308  0.5827 -1.2929
  245MOL0     C33722   2.529   3.885   0.246  0.0677 -0.6242  0.8471
  245MOL0     N33723   1.991   4.372   0.378  0.4553 -0.5546  1.2032
  245MOL0     N33724   1.978   4.428   0.491  0.0278 -0.7527 -0.1958
  245MOL0     C33725   2.647   4.363   1.615 -0.4904 -0.3648  0.0065
  245MOL0     C33726   2.775   4.323   1.618 -0.3974  0.5318 -0.5133
  245MOL0     C33727   3.176   4.222   1.391 -0.0697  0.0824 -0.1063
  245MOL0     C33728   3.228   4.114   1.467  0.7316 -0.6506  0.0716
  245MOL0     C33729   3.366   4.084   1.466 -1.0830 -0.5782  0.5782
  245MOL0     C33730   3.453   4.137   1.370 -0.2883 -1.0499  0.3454
  245MOL0     O33731   3.584   4.111   1.371  0.1729 -0.2876  0.9467
  245MOL0     C33732   3.635   3.978   1.395 -0.9192 -0.7870 -0.2908
  245MOL0     C33733   3.796   3.973   1.407  0.4866  0.0548  0.2447
  245MOL0     C33734   3.854   4.066   1.518 -0.3968 -0.3691  0.4332
  245MOL0     C33735   3.993   4.018   1.541 -0.0190  0.1150 -0.1912
  245MOL0     C33736   4.084   4.126   1.583  0.6702  0.1568 -0.5866
  245MOL0     C33737   4.163   4.215   1.621  0.4388  0.2363 -0.3613
  245MOL0     C33738   3.399   4.235   1.284  0.5992  0.4438  0.3477
  245MOL0     C33739   3.266   4.274   1.289  0.1397  0.2135  0.0072
  245MOL0     C33740   3.238   4.395   1.203  0.0999  0.2377  0.6592
  245MOL0     H33741   2.760   4.084   1.365 -1.9746 -0.9297  0.0369
  245MOL0     H33742   2.534   4.152   1.360  2.9729 -0.8589 -1.0875
  245MOL0     H33743   2.314   4.273   1.638  2.2406 -0.6550  0.1535
  245MOL0     H33744   2.351   4.160   1.500  0.4773  0.7407  0.6091
  245MOL0     H33745   2.129   4.236   1.443 -1.0392  0.6336 -1.8666
  245MOL0     H33746   2.176   4.406   1.489  2.0798  1.3821 -1.9525
  245MOL0     H33747   2.314   4.415   1.288  2.9038 -1.4332  2.7309
  245MOL0     H33748   2.314   4.235   1.283  2.0958  1.2420 -0.4178
  245MOL0     H33749   2.093   4.223   1.216 -1.2850  1.9950  0.6488
  245MOL0     H33750   2.069   4.402   1.240 -0.9621  0.9927 -2.0251
  245MOL0     H33751   2.267   4.296   1.044 -0.0727 -0.1593  2.5542
  245MOL0     H33752   2.200   4.449   1.044  3.9612 -0.8235 -0.1983
  245MOL0     H33753   2.022   4.199   0.970 -0.9846  0.6189 -2.0432
  245MOL0     H33754   1.969   4.365   0.995  1.3014  1.7293  2.0944
  245MOL0     H33755   2.167   4.285   0.793  0.4181 -0.3986  0.0264
  245MOL0     H33756   2.104   4.454   0.839 -2.6987  0.9855 -0.9088
  245MOL0     H33757   1.894   4.251   0.760 -1.8118  2.4184  0.8695
  245MOL0     H33758   1.901   4.424   0.745  0.1594  0.8009  0.0604
  245MOL0     H33759   2.031   4.116   0.580  0.5915 -0.1857  0.9194
  245MOL0     H33760   1.989   4.085   0.239 -1.0486  0.8356  0.3883
  245MOL0     H33761   2.140   4.060   0.314 -0.0737  1.3797  1.4858
  245MOL0     H33762   2.138   4.330   0.164 -1.4086 -0.3706 -2.3051
  245MOL0     H33763   2.252   4.230   0.247 -0.9699 -1.5858 -2.0966
  245MOL0     H33764   2.105   4.180  -0.013  1.0526  0.9482 -1.4437
  245MOL0     H33765   2.274   4.238  -0.003  1.7549 -1.9942 -0.1823
  245MOL0     H33766   2.167   3.971   0.089 -0.0170  1.7005  2.6060
  245MOL0     H33767   2.289   4.001  -0.042 -1.1488  1.1814 -0.8545
  245MOL0     H33768   2.261   3.791   0.055 -0.5196 -0.3813  1.5028
  245MOL0     H33769   2.272   3.474   0.175  0.1153 -2.4997 -2.2586
  245MOL0     H33770   2.395   3.461   0.049 -2.7501 -0.4957 -1.9353
  245MOL0     H33771   2.260   3.547   0.019  0.7050  0.7511 -0.6412
  245MOL0     H33772   2.640   3.240   0.245  1.9795 -6.1662 -2.5456
  245MOL0     H33773   2.788   3.060   0.258 -0.8411  0.1854  1.2610
  245MOL0     H33774   3.049   3.031   0.528  1.1671  2.9134  0.4662
  245MOL0     H33775   3.113   2.904   0.437  0.2667 -0.2822  2.2958
  245MOL0     H33776   3.296   3.058   0.349  1.0524 -2.3121  0.5373
  245MOL0     H33777   3.245   3.176   0.462 -1.7770  0.2784 -1.4519
  245MOL0     H33778   3.295   2.881   0.551  0.0369  0.3597 -0.0869
  245MOL0     H33779   3.308   3.028   0.652 -1.0806 -0.0271 -0.1324
  245MOL0     H33780   3.503   3.094   0.525  0.3704 -0.3476 -0.6830
  245MOL0     H33781   3.492   2.957   0.410 -0.6782 -0.5545  0.2725
  245MOL0     H33782   3.558   2.945   0.705  0.7882  0.1386 -0.4626
  245MOL0     H33783   3.517   2.807   0.601 -1.3662  0.6252  1.3357
  245MOL0     H33784   3.742   3.006   0.569  1.1802 -0.8734  0.7086
  245MOL0     H33785   3.722   2.861   0.462  0.4270 -1.2718 -0.2473
  245MOL0     H33786   3.738   2.720   0.670 -0.6223 -0.2155 -0.8540
  245MOL0     H33787   3.783   2.871   0.756 -0.5092 -0.1485 -0.4845
  245MOL0     H33788   3.979   2.738   0.699 -1.6218  1.0655  1.8350
  245MOL0     H33789   3.959   2.885   0.597 -1.8524  1.0821  1.4586
  245MOL0     H33790   3.097   3.301   0.406 -0.3628 -0.9328  1.9123
  245MOL0     H33791   2.956   3.510   0.386  0.1991  0.1090  2.3010
  245MOL0     H33792   2.662   3.747   0.354  0.2003  0.6695 -2.1412
  245MOL0     H33793   2.579   3.974   0.282 -2.0535  0.8201  0.4094
  245MOL0     H33794   2.606   4.435   1.686  1.5365 -0.0888  0.9802
  245MOL0     H33795   2.851   4.377   1.674  1.1843 -0.5046 -1.6153
  245MOL0     H33796   3.177   4.071   1.552 -0.0703 -0.2778 -0.2122
  245MOL0     H33797   3.412   4.014   1.535  3.5736 -0.7506 -2.2702
  245MOL0     H33798   3.606   3.948   1.496  1.3484 -2.9038 -0.1778
  245MOL0     H33799   3.600   3.908   1.318 -1.4188 -0.1277 -0.6799
  245MOL0     H33800   3.845   3.999   1.313  2.1948 -2.2313  0.4173
  245MOL0     H33801   3.830   3.873   1.436 -0.8655 -0.2467  0.8712
  245MOL0     H33802   3.855   4.167   1.475 -1.0777 -0.0351  1.1753
  245MOL0     H33803   3.794   4.068   1.609 -0.7613  2.2867  0.2080
  245MOL0     H33804   4.044   3.967   1.459  2.0866  0.5153  0.8158
  245MOL0     H33805   3.987   3.957   1.632  1.6691  2.3622  1.5269
  245MOL0     H33806   4.238   4.290   1.635 -2.7293  3.7147 -0.5647
  245MOL0     H33807   3.468   4.276   1.211  1.2458 -0.6427  0.3317
  245MOL0     H33808   3.199   4.364   1.106  0.6157  0.4544  0.3841
  245MOL0     H33809   3.158   4.461   1.238  0.4000  1.3033 -0.6091
  245MOL0     H33810   3.331   4.451   1.194  1.6365 -1.8139  2.4843
  246MOL0     O33811  10.588   8.191   0.034 -0.7166 -0.7621 -0.3903
  246MOL0     C33812  10.612   8.117   0.127  0.3859  0.6796  0.8867
  246MOL0     O33813  10.532   8.019   0.179  0.1866 -0.0681  0.8643
  246MOL0     C33814  10.397   8.025   0.166 -0.4129 -0.8795 -0.0006
  246MOL0     C33815  10.322   8.148   0.149 -0.3476 -0.1076  0.1067
  246MOL0     C33816  10.179   8.145   0.141 -0.1801  0.7375 -0.5216
  246MOL0     C33817  10.117   8.023   0.132 -0.0991 -0.2134 -0.3536
  246MOL0     O33818   9.984   8.024   0.103  0.0471 -0.3713  0.6174
  246MOL0     C33819   9.902   7.920   0.155  1.0319  0.7414  0.2421
  246MOL0     C33820   9.878   7.937   0.310 -0.5812 -0.5751 -0.8430
  246MOL0     C33821   9.745   7.883   0.368 -0.2644 -0.6686 -0.3297
  246MOL0     C33822   9.739   7.926   0.515 -0.1147  0.5534  0.3282
  246MOL0     C33823   9.625   7.895   0.604  0.1091 -0.5875 -0.0665
  246MOL0     C33824   9.526   8.018   0.596  0.4350  0.7961  0.1742
  246MOL0     C33825   9.387   7.982   0.651 -0.2096 -0.2079 -0.0618
  246MOL0     C33826   9.292   8.108   0.641  0.7765 -0.9675 -0.1614
  246MOL0     N33827   9.155   8.086   0.675  0.1549 -0.4214  0.6544
  246MOL0     C33828   9.060   8.177   0.718  0.7513 -0.3175 -0.6352
  246MOL0     C33829   8.944   8.106   0.725  0.6656  0.0623  1.0311
  246MOL0     C33830   8.801   8.154   0.724  0.2279  0.1168 -0.3834
  246MOL0     C33831   8.741   8.140   0.857  0.2132 -1.3340 -0.1546
  246MOL0     C33832   8.592   8.173   0.858 -0.1469 -0.1302 -0.3595
  246MOL0     C33833   8.532   8.092   0.981 -0.7932  0.6084 -0.3084
  246MOL0     O33834   8.392   8.111   0.983 -0.5833  0.9964 -0.8441
  246MOL0     C33835   8.309   8.022   1.058  0.1400  0.3114 -0.2881
  246MOL0     C33836   8.165   8.028   1.027  0.7099  0.0722 -0.7796
  246MOL0     C33837   8.067   7.946   1.086  0.0533 -0.6885  0.5829
  246MOL0     C33838   7.917   7.976   1.043  0.1963  0.7956 -0.9108
  246MOL0     C33839   8.103   7.857   1.183 -0.3811  0.2063 -1.0614
  246MOL0     C33840   8.020   7.748   1.234 -1.1691  0.2661  0.0700
  246MOL0     O33841   7.949   7.676   1.142  0.0574 -0.3861 -0.5711
  246MOL0     C33842   7.876   7.575   1.186  0.5120  0.3791 -0.0573
  246MOL0     C33843   7.737   7.606   1.195 -0.8396  0.1591  0.6105
  246MOL0     C33844   7.662   7.517   1.272  0.1225 -0.2345 -0.2121
  246MOL0     C33845   7.717   7.392   1.318 -0.3299 -0.0573 -0.6566
  246MOL0     O33846   7.644   7.324   1.412  0.5216  0.6177  0.4924
  246MOL0     C33847   7.692   7.205   1.486  0.2197 -0.4769  0.0558
  246MOL0     C33848   7.599   7.161   1.589  0.3361 -0.2812 -1.2436
  246MOL0     C33849   7.647   7.039   1.667  0.5463 -0.5676  0.3116
  246MOL0     C33850   7.624   6.913   1.581  0.0386 -0.1632 -0.0041
  246MOL0     C33851   7.710   6.794   1.644  0.8457  0.0628  0.0224
  246MOL0     C33852   7.718   6.670   1.559 -0.3421 -0.4964  0.5087
  246MOL0     C33853   7.802   6.553   1.622  0.1825  0.0927  0.3879
  246MOL0     C33854   7.775   6.417   1.538 -0.2463  0.5232 -0.2603
  246MOL0    Cl33855   7.880   6.284   1.606 -0.3366  0.0628 -0.1292
  246MOL0     C33856   7.854   7.361   1.284  0.0571  0.3556 -0.4425
  246MOL0     C33857   7.930   7.453   1.212  0.6214 -0.1991  0.1868
  246MOL0     O33858   8.012   7.737   1.354 -0.1745 -0.1494  0.2543
  246MOL0     C33859   8.235   7.862   1.218 -0.1970  0.1324 -0.9526
  246MOL0     C33860   8.338   7.939   1.163  0.3034 -0.5276  0.0455
  246MOL0     N33861   8.974   7.976   0.694  0.0801  0.1440  0.6047
  246MOL0     N33862   9.100   7.968   0.665 -0.0953 -0.2909 -0.7164
  246MOL0     C33863  10.193   7.909   0.149 -0.1726  0.2705  0.3971
  246MOL0     C33864  10.329   7.906   0.171 -0.3506 -0.1792  0.9323
  246MOL0     C33865  10.751   8.110   0.190  1.0071  1.2058  0.5876
  246MOL0     C33866  10.813   7.984   0.185  0.1083 -0.6261  0.6168
  246MOL0     C33867  10.933   7.968   0.253 -0.8891 -0.8358  0.1488
  246MOL0     C33868  10.984   8.081   0.321  0.3547 -0.2910  0.1829
  246MOL0     O33869  11.102   8.094   0.379 -0.8439 -0.4572 -0.5163
  246MOL0     C33870  11.203   7.986   0.353  0.6257 -1.3416  0.8382
  246MOL0     C33871  11.309   7.998   0.461  0.8363  0.9583 -0.4062
  246MOL0     C33872  11.384   8.127   0.441 -1.4029  0.1790 -0.1273
  246MOL0     C33873  11.502   8.144   0.531  0.2619  0.0755 -0.0929
  246MOL0     C33874  11.541   8.282   0.520  0.2399 -0.3728  0.3516
  246MOL0     C33875  11.574   8.397   0.511  0.6566  0.6403  0.0151
  246MOL0     C33876  10.918   8.197   0.334  0.5334  0.8621 -0.5476
  246MOL0     C33877  10.807   8.222   0.258  0.8010  0.6530 -0.3153
  246MOL0     C33878  10.726   8.345   0.278 -0.0769  0.0185 -0.2611
  246MOL0     H33879  10.374   8.243   0.148  0.2942 -0.3738  2.6431
  246MOL0     H33880  10.133   8.241   0.118 -1.3313 -0.3974 -3.4666
  246MOL0     H33881   9.936   7.821   0.123  0.6258  0.3650  0.9629
  246MOL0     H33882   9.806   7.938   0.105 -0.2445 -0.1961  2.2337
  246MOL0     H33883   9.964   7.893   0.361 -1.6184  0.6238  2.1223
  246MOL0     H33884   9.882   8.046   0.318 -2.0036 -0.5558 -0.0814
  246MOL0     H33885   9.664   7.931   0.313  0.7333 -0.0036 -1.2585
  246MOL0     H33886   9.737   7.775   0.359 -0.1397 -0.6626 -0.5247
  246MOL0     H33887   9.814   7.855   0.551  0.2376  0.3584 -0.7525
  246MOL0     H33888   9.770   8.030   0.529 -0.1900  0.6093  0.0956
  246MOL0     H33889   9.664   7.884   0.706 -0.1847 -1.3403 -0.0322
  246MOL0     H33890   9.573   7.804   0.575  1.2861 -1.3204  0.0690
  246MOL0     H33891   9.561   8.106   0.650  2.4307  0.0468  0.1582
  246MOL0     H33892   9.511   8.052   0.493 -1.5860  2.8113  1.0373
  246MOL0     H33893   9.402   7.953   0.755  0.9666 -1.1033 -0.4443
  246MOL0     H33894   9.338   7.901   0.595 -1.5859  0.9603 -0.5872
  246MOL0     H33895   9.324   8.177   0.720  1.4680 -3.4515  1.8528
  246MOL0     H33896   9.299   8.155   0.543  2.1865 -1.6603 -0.4167
  246MOL0     H33897   9.064   8.285   0.729  0.1940 -0.3661  0.1405
  246MOL0     H33898   8.756   8.086   0.650 -1.0597 -1.2192  1.5046
  246MOL0     H33899   8.803   8.254   0.681  2.9177 -0.9259 -3.0406
  246MOL0     H33900   8.748   8.038   0.897  0.6594 -0.8617  0.9992
  246MOL0     H33901   8.791   8.205   0.929 -0.6897  0.2383 -0.8913
  246MOL0     H33902   8.575   8.279   0.880 -0.7142 -0.6589  2.1514
  246MOL0     H33903   8.539   8.136   0.770  0.9750  0.7774 -1.4499
  246MOL0     H33904   8.564   7.988   0.980 -2.1680  0.1593 -0.5438
  246MOL0     H33905   8.577   8.134   1.072  1.3621 -0.1953 -0.9708
  246MOL0     H33906   8.125   8.084   0.943 -1.9562 -1.7544 -0.8606
  246MOL0     H33907   7.851   7.895   1.073  0.5997  0.5780 -0.5975
  246MOL0     H33908   7.909   7.986   0.935 -1.8681 -0.6032 -0.9229
  246MOL0     H33909   7.879   8.069   1.087 -0.5708  0.3211 -0.5453
  246MOL0     H33910   7.691   7.701   1.169  0.2944  0.2085 -1.3836
  246MOL0     H33911   7.563   7.548   1.305 -1.2127 -3.6502 -0.5746
  246MOL0     H33912   7.709   7.118   1.420 -1.7644 -1.4261  0.7238
  246MOL0     H33913   7.793   7.228   1.521 -0.0670  2.8807 -0.9868
  246MOL0     H33914   7.585   7.242   1.661 -1.0261 -0.7409 -0.9696
  246MOL0     H33915   7.503   7.139   1.542  1.5571 -3.1201 -2.6503
  246MOL0     H33916   7.584   7.039   1.757  0.6978  3.0489  0.5454
  246MOL0     H33917   7.754   7.051   1.686  1.0021 -1.6574 -1.3575
  246MOL0     H33918   7.648   6.925   1.475  0.7977 -2.1361 -0.1080
  246MOL0     H33919   7.521   6.877   1.578 -1.0913  2.1650  3.8563
  246MOL0     H33920   7.812   6.832   1.655  0.5153  1.6061 -1.8485
  246MOL0     H33921   7.653   6.771   1.735 -2.1305 -3.0401 -2.3632
  246MOL0     H33922   7.766   6.686   1.462 -0.8931 -2.7850 -0.1918
  246MOL0     H33923   7.617   6.634   1.538 -0.5239  0.0584  0.4113
  246MOL0     H33924   7.764   6.540   1.724 -3.1980  0.3614 -0.7151
  246MOL0     H33925   7.910   6.567   1.613  0.1970 -0.4757 -0.4437
  246MOL0     H33926   7.793   6.431   1.431  1.1431  1.8069  0.0906
  246MOL0     H33927   7.670   6.393   1.550 -0.1652  0.4267  0.2927
  246MOL0     H33928   7.902   7.266   1.306 -0.6146 -0.0522 -0.6933
  246MOL0     H33929   8.035   7.441   1.189  0.4968  1.8131 -1.8518
  246MOL0     H33930   8.260   7.796   1.301 -1.9652 -0.3160 -0.7343
  246MOL0     H33931   8.441   7.944   1.197 -0.6018 -1.6912  3.3150
  246MOL0     H33932  10.142   7.813   0.160 -0.6019  0.1114 -2.3567
  246MOL0     H33933  10.389   7.816   0.183  1.4078  0.5621 -1.4933
  246MOL0     H33934  10.764   7.904   0.131 -1.3269  2.0939 -2.4673
  246MOL0     H33935  10.975   7.868   0.255 -0.6087 -0.7183  1.9574
  246MOL0     H33936  11.153   7.889   0.354 -0.8007 -0.6949 -1.1698
  246MOL0     H33937  11.257   7.991   0.258 -0.4795 -1.8287  0.1562
  246MOL0     H33938  11.384   7.919   0.454 -1.0312 -1.2148  2.0971
  246MOL0     H33939  11.274   7.981   0.564 -0.0735 -1.1103 -1.0084
  246MOL0     H33940  11.403   8.139   0.334  1.4681  2.5732  0.4778
  246MOL0     H33941  11.313   8.207   0.465 -1.3438 -0.0462  0.8286
  246MOL0     H33942  11.588   8.079   0.513  1.7459  1.1327  2.6975
  246MOL0     H33943  11.477   8.121   0.635  0.6276  0.8721  0.1746
  246MOL0     H33944  11.629   8.489   0.504 -0.3754  1.2866  0.1730
  246MOL0     H33945  10.967   8.266   0.402 -1.1345 -2.9435  5.1677
  246MOL0     H33946  10.635   8.316   0.332  0.3613 -1.2734 -0.2001
  246MOL0     H33947  10.770   8.428   0.335 -2.4081  0.6631  0.7742
  246MOL0     H33948  10.688   8.395   0.189  0.2516  3.3901  1.3236
  247MOL0     O33949   1.529   4.164   3.441 -1.0837 -0.0400  0.5912
  247MOL0     C33950   1.461   4.226   3.367 -0.6261  0.8738 -0.3414
  247MOL0     O33951   1.461   4.362   3.366  0.6270 -0.4446 -0.2372
  247MOL0     C33952   1.545   4.449   3.440  0.9787  0.3809 -0.1195
  247MOL0     C33953   1.493   4.583   3.444 -0.5897  0.2127  0.2228
  247MOL0     C33954   1.557   4.685   3.512  0.3662 -0.4031 -0.7491
  247MOL0     C33955   1.677   4.649   3.575  0.8771  0.1192 -0.2853
  247MOL0     O33956   1.753   4.722   3.655  0.4155  0.5099  0.7191
  247MOL0     C33957   1.739   4.862   3.669 -0.2020 -0.6557  0.2295
  247MOL0     C33958   1.794   4.944   3.542  0.9980  0.3743  0.9440
  247MOL0     C33959   1.948   4.936   3.537 -0.2007 -0.9072 -0.3217
  247MOL0     C33960   1.994   5.018   3.417 -0.2689 -0.5066  0.2066
  247MOL0     C33961   2.138   4.978   3.387  0.4562 -0.3277 -0.2263
  247MOL0     C33962   2.181   5.075   3.273  0.7678 -0.4107  0.5820
  247MOL0     C33963   2.297   5.016   3.204  0.5966  0.8848  0.4912
  247MOL0     C33964   2.342   5.129   3.106  0.3239 -0.3528  0.6605
  247MOL0     N33965   2.373   5.089   2.969 -0.1379 -0.4250  0.5616
  247MOL0     C33966   2.457   4.995   2.920  0.8006 -0.7325 -0.2640
  247MOL0     C33967   2.439   4.988   2.786  0.4893  0.4570  0.0696
  247MOL0     C33968   2.523   4.910   2.684  0.7867 -0.3378  0.5735
  247MOL0     C33969   2.500   4.755   2.709 -0.4446 -0.7564 -0.5248
  247MOL0     C33970   2.451   4.688   2.580  0.5190  0.5340  0.1303
  247MOL0     C33971   2.513   4.549   2.587 -0.1680  0.2336 -0.0357
  247MOL0     O33972   2.464   4.456   2.489 -0.4226 -0.2196  0.0514
  247MOL0     C33973   2.344   4.394   2.493  0.2211 -0.2538 -0.1773
  247MOL0     C33974   2.291   4.360   2.618  0.1428 -0.1011  0.3030
  247MOL0     C33975   2.160   4.305   2.618  0.8406  0.0200  0.2475
  247MOL0     C33976   2.114   4.276   2.761  0.1662 -0.4681  0.1587
  247MOL0     C33977   2.084   4.290   2.490 -0.2798  0.0120 -0.2238
  247MOL0     C33978   1.938   4.237   2.490 -0.6064 -0.4418  0.4716
  247MOL0     O33979   1.882   4.241   2.368  0.0013  1.1291 -0.4456
  247MOL0     C33980   1.756   4.183   2.357 -0.7423  0.0940 -0.9383
  247MOL0     C33981   1.737   4.089   2.253  0.3509  0.0762  0.2980
  247MOL0     C33982   1.603   4.036   2.236 -0.3774  0.0411 -0.4294
  247MOL0     C33983   1.498   4.071   2.324  0.6475  0.5911  0.2067
  247MOL0     O33984   1.369   4.026   2.312 -0.0546 -0.2274  0.0481
  247MOL0     C33985   1.344   3.911   2.233 -0.0927  0.1164  0.2532
  247MOL0     C33986   1.194   3.868   2.241  0.8637 -0.7226  0.4608
  247MOL0     C33987   1.190   3.775   2.365 -0.2226 -0.4473  0.4872
  247MOL0     C33988   1.080   3.675   2.342  0.2145 -0.9171 -0.3247
  247MOL0     C33989   1.054   3.590   2.465  0.8004 -0.9319  0.4046
  247MOL0     C33990   0.968   3.473   2.423 -0.8832 -0.1133  0.3141
  247MOL0     C33991   0.951   3.393   2.556  0.9226 -0.4570  0.1488
  247MOL0     C33992   0.876   3.265   2.513 -0.5124 -0.2107 -0.7706
  247MOL0    Cl33993   0.719   3.283   2.452  0.1171  0.1421  0.2566
  247MOL0     C33994   1.527   4.178   2.413 -0.3574  0.2142  1.2556
  247MOL0     C33995   1.651   4.224   2.440  0.0930 -0.0778  0.1439
  247MOL0     O33996   1.891   4.191   2.591  0.0381  1.1211  0.4085
  247MOL0     C33997   2.138   4.337   2.370 -0.0162  0.8952  0.3970
  247MOL0     C33998   2.267   4.381   2.370 -0.2388  0.2938  0.8233
  247MOL0     N33999   2.327   5.053   2.751  0.1512  0.1178  0.0357
  247MOL0     N34000   2.293   5.122   2.856  0.0886 -0.2752 -0.7297
  247MOL0     C34001   1.737   4.524   3.552 -0.2245 -0.3146  0.5355
  247MOL0     C34002   1.676   4.419   3.484 -0.3872 -0.1604  0.3527
  247MOL0     C34003   1.382   4.142   3.282 -0.2084 -0.0749  0.4531
  247MOL0     C34004   1.319   4.210   3.180  0.4054 -0.2679 -0.2848
  247MOL0     C34005   1.240   4.157   3.085  0.2568 -0.3782  0.0297
  247MOL0     C34006   1.210   4.028   3.089  1.0256  0.0076  0.2170
  247MOL0     O34007   1.123   3.970   3.001  0.4085  0.4340 -0.0107
  247MOL0     C34008   1.081   3.828   3.008  0.2339 -0.0013  0.1491
  247MOL0     C34009   0.950   3.820   2.934  1.2496  0.3612  0.8122
  247MOL0     C34010   0.944   3.863   2.784 -0.8229 -0.2260  0.1244
  247MOL0     C34011   0.803   3.848   2.732 -0.1768 -0.2820 -0.5953
  247MOL0     C34012   0.733   3.730   2.773  0.3496  0.4202  0.8514
  247MOL0     C34013   0.681   3.633   2.817  0.6333 -0.3089 -1.2020
  247MOL0     C34014   1.275   3.944   3.187 -0.3191  0.0761 -0.3143
  247MOL0     C34015   1.361   3.996   3.289 -0.8936 -0.3575  1.8685
  247MOL0     C34016   1.399   3.898   3.397 -0.0678 -0.6907 -0.3401
  247MOL0     H34017   1.399   4.621   3.404  0.6668  2.7002 -0.6280
  247MOL0     H34018   1.514   4.785   3.509 -1.3456 -0.8185  3.2390
  247MOL0     H34019   1.794   4.893   3.758  1.3411 -1.3861 -0.4366
  247MOL0     H34020   1.635   4.891   3.683  0.6800  2.3009  1.4068
  247MOL0     H34021   1.758   4.895   3.451  2.2930 -0.6849  0.9804
  247MOL0     H34022   1.738   5.038   3.544 -4.9410 -2.6852  0.7768
  247MOL0     H34023   2.001   4.973   3.625  2.0793  0.7730 -2.2838
  247MOL0     H34024   1.969   4.829   3.527  0.5699 -1.0138  1.8161
  247MOL0     H34025   1.940   4.995   3.324 -0.8903  0.7267  0.2401
  247MOL0     H34026   1.995   5.125   3.438  5.1710 -0.0643 -0.6609
  247MOL0     H34027   2.139   4.873   3.358 -0.4232 -0.3890 -0.0604
  247MOL0     H34028   2.208   4.977   3.471  2.3061 -2.0483 -1.6923
  247MOL0     H34029   2.093   5.092   3.210  0.8357  3.6292  1.2757
  247MOL0     H34030   2.201   5.169   3.326  1.0377 -1.3971  2.3214
  247MOL0     H34031   2.264   4.933   3.141 -2.6359  1.8178  0.8198
  247MOL0     H34032   2.372   4.975   3.273  1.1193  0.6566 -0.1905
  247MOL0     H34033   2.264   5.206   3.101  0.5386  0.7733  6.9728
  247MOL0     H34034   2.434   5.177   3.141  0.3136  1.7433 -1.8126
  247MOL0     H34035   2.529   4.939   2.979  0.4334  0.0166  0.9436
  247MOL0     H34036   2.624   4.932   2.721  0.1551 -0.0569  2.2324
  247MOL0     H34037   2.516   4.949   2.582 -3.8321  0.0671  0.8353
  247MOL0     H34038   2.595   4.706   2.733 -0.3423 -1.2614 -1.8560
  247MOL0     H34039   2.426   4.742   2.788 -0.4617  3.5531  0.4161
  247MOL0     H34040   2.342   4.689   2.587  0.5759  1.5436  1.1119
  247MOL0     H34041   2.471   4.740   2.485 -3.4376  0.5683 -0.8843
  247MOL0     H34042   2.622   4.541   2.584 -0.0522 -2.2405  4.1573
  247MOL0     H34043   2.502   4.507   2.687  1.3013  1.7902  0.8411
  247MOL0     H34044   2.343   4.373   2.713  1.2197 -4.3381  0.4902
  247MOL0     H34045   2.190   4.282   2.840 -3.6576  0.6514  4.1744
  247MOL0     H34046   2.071   4.177   2.779 -0.8329  0.3840  3.1098
  247MOL0     H34047   2.043   4.349   2.800  2.1383  0.3623  2.4652
  247MOL0     H34048   1.805   4.042   2.183 -0.8977 -1.3406 -0.0111
  247MOL0     H34049   1.585   3.966   2.155 -1.5281  1.7941 -1.7653
  247MOL0     H34050   1.363   3.935   2.128 -0.6184  0.9534  0.3360
  247MOL0     H34051   1.410   3.831   2.266 -1.1962 -1.7182 -1.7525
  247MOL0     H34052   1.129   3.956   2.245 -0.5570 -1.7525  0.7469
  247MOL0     H34053   1.187   3.803   2.154  1.7804 -1.1741  0.7107
  247MOL0     H34054   1.163   3.822   2.461 -0.3064 -2.0169  1.2575
  247MOL0     H34055   1.278   3.717   2.394 -0.7729 -0.2771  2.6593
  247MOL0     H34056   1.121   3.621   2.256 -0.0111  1.4583 -2.0212
  247MOL0     H34057   0.986   3.726   2.316  0.5009 -0.2894 -0.1615
  247MOL0     H34058   1.156   3.565   2.496  1.6747  2.0616  0.2546
  247MOL0     H34059   0.994   3.647   2.536 -0.0109  0.3662 -1.2377
  247MOL0     H34060   1.028   3.411   2.356  1.1136  1.4571  0.5643
  247MOL0     H34061   0.878   3.503   2.368 -0.4231 -0.4233 -0.6350
  247MOL0     H34062   0.908   3.452   2.637 -3.0075  1.1621 -2.7893
  247MOL0     H34063   1.053   3.359   2.578  0.1501 -3.4866 -0.4439
  247MOL0     H34064   0.878   3.200   2.601 -3.9930  0.9852  0.3832
  247MOL0     H34065   0.937   3.218   2.436 -2.4660  1.3071 -3.3934
  247MOL0     H34066   1.440   4.212   2.470 -2.3827  0.3481 -1.6960
  247MOL0     H34067   1.678   4.300   2.513  0.0271  1.2976 -1.2213
  247MOL0     H34068   2.086   4.356   2.277  0.1254 -3.1006 -0.6926
  247MOL0     H34069   2.309   4.406   2.273  0.1789 -2.7091  0.1214
  247MOL0     H34070   1.833   4.511   3.602 -0.4752 -2.1743  0.6297
  247MOL0     H34071   1.714   4.318   3.480 -2.1422 -0.8222 -1.5912
  247MOL0     H34072   1.335   4.317   3.176  0.1151 -0.1830  0.5829
  247MOL0     H34073   1.198   4.221   3.007 -0.5484 -0.4068  0.4305
  247MOL0     H34074   1.163   3.772   2.963  0.7721  1.0137 -0.1596
  247MOL0     H34075   1.074   3.795   3.112 -0.4402 -1.7292 -0.4010
  247MOL0     H34076   0.870   3.870   2.989  1.2453  1.3096 -0.0338
  247MOL0     H34077   0.929   3.713   2.929  1.2897  0.4015 -1.1096
  247MOL0     H34078   0.973   3.969   2.781 -1.0550 -0.1770 -0.7226
  247MOL0     H34079   1.017   3.806   2.727  0.1233  0.3611  0.7262
  247MOL0     H34080   0.808   3.851   2.622  1.4576  1.0065 -0.5272
  247MOL0     H34081   0.746   3.937   2.760 -0.7748 -0.6671 -0.5837
  247MOL0     H34082   0.641   3.538   2.846 -0.7188  0.4030 -0.6601
  247MOL0     H34083   1.268   3.836   3.193 -1.0399  0.1761  0.9836
  247MOL0     H34084   1.323   3.823   3.420 -0.8736 -0.6485 -2.6454
  247MOL0     H34085   1.496   3.855   3.373  0.2989 -0.2434  0.2836
  247MOL0     H34086   1.432   3.947   3.490  1.0316  1.3616 -1.7208
  248MOL0     O34087   0.201   7.734  10.906 -0.2658 -0.1496 -0.8857
  248MOL0     C34088   0.321   7.742  10.877  0.2703 -0.2905 -0.4777
  248MOL0     O34089   0.417   7.820  10.930 -0.0245  0.2039 -1.0877
  248MOL0     C34090   0.391   7.936  11.000 -1.0163 -0.8020  0.3017
  248MOL0     C34091   0.305   7.948  11.110 -0.7324 -0.3904 -0.5210
  248MOL0     C34092   0.289   8.068  11.178 -0.5071 -0.6504 -0.3913
  248MOL0     C34093   0.371   8.169  11.143 -0.6523  0.0684 -0.8041
  248MOL0     O34094   0.379   8.287  11.209 -0.1247 -1.1616 -0.5349
  248MOL0     C34095   0.296   8.306  11.324  0.0950  0.0247  0.0597
  248MOL0     C34096   0.319   8.452  11.381 -0.0290 -1.0563  0.9605
  248MOL0     C34097   0.300   8.554  11.269 -0.1495  0.4642  1.2268
  248MOL0     C34098   0.157   8.562  11.208  0.0500  0.1273 -0.1921
  248MOL0     C34099   0.153   8.683  11.112  0.7126 -0.2086  0.4761
  248MOL0     C34100   0.010   8.694  11.046 -0.4175  0.0860 -1.0278
  248MOL0     C34101  -0.025   8.809  10.945  0.1492 -0.2725  0.4154
  248MOL0     C34102  -0.161   8.775  10.876 -0.1208 -0.1828  1.3235
  248MOL0     N34103  -0.269   8.709  10.944 -1.1768  0.3257  0.2011
  248MOL0     C34104  -0.298   8.575  10.946 -0.4337  0.0711  0.5824
  248MOL0     C34105  -0.395   8.564  11.037  0.4200 -0.7766 -0.2692
  248MOL0     C34106  -0.446   8.426  11.069 -0.7218 -0.9244 -0.4009
  248MOL0     C34107  -0.506   8.411  11.217  0.4965  0.6182  0.0330
  248MOL0     C34108  -0.531   8.264  11.263 -0.4661  0.7349  0.0074
  248MOL0     C34109  -0.621   8.187  11.171 -0.4183  0.9088  0.8613
  248MOL0     O34110  -0.550   8.107  11.065 -0.0278  0.9078  0.4172
  248MOL0     C34111  -0.516   7.977  11.087 -0.5601  0.0522  0.3312
  248MOL0     C34112  -0.528   7.893  11.203  1.0898  0.1527  0.3726
  248MOL0     C34113  -0.490   7.757  11.198  0.6800 -1.2201 -0.6001
  248MOL0     C34114  -0.513   7.662  11.317 -0.0628  0.3308 -0.5496
  248MOL0     C34115  -0.428   7.712  11.076 -0.2668  1.3835  0.3669
  248MOL0     C34116  -0.366   7.577  11.061  0.2917 -0.5396  0.1509
  248MOL0     O34117  -0.317   7.542  10.936 -0.1810 -0.4424  0.1293
  248MOL0     C34118  -0.286   7.408  10.913  0.5826  1.0906 -0.4717
  248MOL0     C34119  -0.159   7.375  10.859  0.8577  0.5688  0.3916
  248MOL0     C34120  -0.110   7.242  10.842  0.7261 -0.2242 -0.2923
  248MOL0     C34121  -0.204   7.135  10.860  0.2220 -0.1346 -0.9672
  248MOL0     O34122  -0.170   7.011  10.822 -0.1687  0.2088 -0.2553
  248MOL0     C34123  -0.224   6.908  10.901 -1.8711  0.2490  0.0184
  248MOL0     C34124  -0.139   6.775  10.862 -0.4157 -0.2505  0.1023
  248MOL0     C34125   0.017   6.790  10.858  0.8197 -0.0850  0.7201
  248MOL0     C34126   0.094   6.668  10.828 -1.0526  0.3244  0.5661
  248MOL0     C34127   0.250   6.681  10.819 -0.6731 -0.4373 -0.6087
  248MOL0     C34128   0.322   6.664  10.955 -0.2639  0.6475  0.7333
  248MOL0     C34129   0.319   6.513  10.997 -0.1255  0.3045  0.6678
  248MOL0     C34130   0.431   6.480  11.095  0.6928  0.1424 -0.4996
  248MOL0    Cl34131   0.610   6.485  11.052  0.1989 -0.3937 -0.1986
  248MOL0     C34132  -0.336   7.167  10.892  0.3465 -0.3075 -0.3112
  248MOL0     C34133  -0.372   7.303  10.931 -0.0146  1.1185 -0.0365
  248MOL0     O34134  -0.362   7.499  11.159  0.0051 -0.8759  0.7986
  248MOL0     C34135  -0.422   7.791  10.962 -0.0300  0.0982 -0.2511
  248MOL0     C34136  -0.457   7.925  10.971  1.2078 -0.0491 -0.0961
  248MOL0     N34137  -0.416   8.686  11.103  0.2339 -0.7590  0.4414
  248MOL0     N34138  -0.336   8.768  11.041 -0.5265  0.0708  0.6053
  248MOL0     C34139   0.451   8.160  11.031  0.1255  0.1797  0.4154
  248MOL0     C34140   0.467   8.042  10.960  0.5978  0.4984 -0.4155
  248MOL0     C34141   0.363   7.665  10.754 -0.0364  0.2492 -0.5852
  248MOL0     C34142   0.479   7.719  10.683  0.8973 -0.0544 -0.5951
  248MOL0     C34143   0.519   7.656  10.557 -1.0127 -0.3120 -0.3423
  248MOL0     C34144   0.443   7.550  10.513  0.5498 -0.3606  0.7054
  248MOL0     O34145   0.494   7.485  10.406 -0.6921  0.8954  0.2389
  248MOL0     C34146   0.431   7.363  10.361 -0.1540 -0.3046  0.9546
  248MOL0     C34147   0.450   7.233  10.445 -0.4388 -0.3338  0.0030
  248MOL0     C34148   0.378   7.115  10.373  0.9031  0.2809  0.6476
  248MOL0     C34149   0.232   7.099  10.404 -0.2924 -0.4405  0.5773
  248MOL0     C34150   0.193   7.086  10.544  0.1708  0.1032 -1.1217
  248MOL0     C34151   0.176   7.069  10.663  0.9204 -0.1462 -0.2247
  248MOL0     C34152   0.333   7.500  10.584  0.8637  0.6512 -0.6422
  248MOL0     C34153   0.293   7.559  10.699  0.0958  0.3888 -0.1803
  248MOL0     C34154   0.166   7.492  10.760 -0.0091 -0.0760  0.6404
  248MOL0     H34155   0.244   7.863  11.140 -1.3844  0.5884  1.0918
  248MOL0     H34156   0.221   8.078  11.262 -1.6051 -1.3235 -1.1776
  248MOL0     H34157   0.329   8.237  11.403  0.4466  1.2843  1.0570
  248MOL0     H34158   0.189   8.297  11.308 -0.3279  1.1655  1.8654
  248MOL0     H34159   0.251   8.455  11.467  1.3033 -3.8076  2.2416
  248MOL0     H34160   0.418   8.470  11.424 -0.0930  0.8167  0.4009
  248MOL0     H34161   0.345   8.642  11.315  3.2187 -2.1307  3.4129
  248MOL0     H34162   0.373   8.531  11.191  0.4691  1.5182  1.4828
  248MOL0     H34163   0.121   8.472  11.157  1.7726 -0.6554 -0.1259
  248MOL0     H34164   0.087   8.581  11.290  1.0339 -5.0033  2.2528
  248MOL0     H34165   0.230   8.672  11.035 -1.7353 -1.0119 -2.0223
  248MOL0     H34166   0.177   8.773  11.169  1.6187  0.3108 -0.6718
  248MOL0     H34167  -0.023   8.594  11.017  2.1542 -1.6088  1.3851
  248MOL0     H34168  -0.050   8.711  11.136 -0.5723 -1.9373 -0.7043
  248MOL0     H34169   0.053   8.820  10.869 -0.6612 -2.3339 -0.8052
  248MOL0     H34170  -0.024   8.902  11.002  1.3698  0.2145 -0.3448
  248MOL0     H34171  -0.196   8.870  10.835 -1.4461 -0.1180  2.5238
  248MOL0     H34172  -0.140   8.710  10.790  0.9264 -0.6676  1.9282
  248MOL0     H34173  -0.253   8.495  10.887 -1.6068 -0.0041 -0.2505
  248MOL0     H34174  -0.357   8.362  11.065 -1.0721 -1.6156  1.6652
  248MOL0     H34175  -0.527   8.410  10.997 -2.1687  1.3530  0.6324
  248MOL0     H34176  -0.430   8.456  11.280  0.9903  1.3244 -1.0496
  248MOL0     H34177  -0.593   8.477  11.224  0.6717  0.8168  0.3738
  248MOL0     H34178  -0.435   8.215  11.278 -0.3444  1.1297  0.5232
  248MOL0     H34179  -0.590   8.268  11.355 -1.1294  0.2505 -0.3788
  248MOL0     H34180  -0.683   8.116  11.225 -0.6937  0.6339  0.1898
  248MOL0     H34181  -0.694   8.249  11.118 -0.3920 -0.2971 -0.6528
  248MOL0     H34182  -0.573   7.925  11.296 -2.3835 -2.8909 -0.0155
  248MOL0     H34183  -0.575   7.701  11.398  1.7124 -2.8701  2.6323
  248MOL0     H34184  -0.422   7.635  11.370 -0.0381 -2.3026 -1.7878
  248MOL0     H34185  -0.546   7.563  11.284  2.6854 -1.1270  0.7555
  248MOL0     H34186  -0.109   7.468  10.837  2.8638 -0.0135  2.1603
  248MOL0     H34187  -0.014   7.225  10.796  0.8887 -0.5291  0.1543
  248MOL0     H34188  -0.203   6.926  11.007 -1.1611 -0.1538 -0.0535
  248MOL0     H34189  -0.329   6.878  10.890 -1.8654  0.2322  0.0066
  248MOL0     H34190  -0.158   6.688  10.926  1.6789 -0.7010  0.1975
  248MOL0     H34191  -0.163   6.752  10.758  0.1377  1.9254 -0.5678
  248MOL0     H34192   0.056   6.832  10.951  0.7666 -2.1892  1.7423
  248MOL0     H34193   0.041   6.869  10.785 -1.7374  1.1282  1.0740
  248MOL0     H34194   0.066   6.633  10.729 -0.7995 -0.5811  0.8066
  248MOL0     H34195   0.064   6.590  10.899 -1.2258 -0.5344 -0.4236
  248MOL0     H34196   0.289   6.598  10.759  0.2382 -0.2430 -0.3003
  248MOL0     H34197   0.292   6.772  10.775 -0.6652  0.4649  1.1495
  248MOL0     H34198   0.250   6.714  11.020 -1.3125 -0.1690  0.2233
  248MOL0     H34199   0.421   6.710  10.964  0.1355 -0.1737  0.5894
  248MOL0     H34200   0.338   6.449  10.911  1.6798  1.0080  0.4999
  248MOL0     H34201   0.220   6.487  11.036  0.6200 -2.7187  0.7507
  248MOL0     H34202   0.409   6.379  11.132  0.1978  0.1454 -0.7707
  248MOL0     H34203   0.406   6.548  11.177 -3.2100 -2.8217  1.0963
  248MOL0     H34204  -0.411   7.091  10.873 -1.4068  0.9753  1.1734
  248MOL0     H34205  -0.478   7.314  10.955 -1.3184 -2.8679 -2.8895
  248MOL0     H34206  -0.375   7.750  10.873 -0.0920 -0.7075  0.0777
  248MOL0     H34207  -0.447   7.991  10.886 -0.3553  1.3579  0.7547
  248MOL0     H34208   0.510   8.250  11.016 -0.0177  0.5608  2.0302
  248MOL0     H34209   0.524   8.033  10.869  0.5698  3.6946 -0.8660
  248MOL0     H34210   0.538   7.803  10.717 -0.5306 -0.4583  3.4918
  248MOL0     H34211   0.597   7.703  10.498 -0.6686  1.7484  1.6227
  248MOL0     H34212   0.329   7.392  10.333  1.6643  2.3195 -4.5715
  248MOL0     H34213   0.478   7.342  10.264 -0.6517 -0.6042  0.7735
  248MOL0     H34214   0.403   7.237  10.544  1.1566 -0.5072  0.7928
  248MOL0     H34215   0.556   7.209  10.453 -0.6119 -0.8730  0.7746
  248MOL0     H34216   0.382   7.116  10.263  1.2495  1.7338  0.6474
  248MOL0     H34217   0.412   7.022  10.419 -5.1033 -0.6821  4.2258
  248MOL0     H34218   0.194   7.017  10.343 -1.4581  0.8126 -0.4491
  248MOL0     H34219   0.181   7.187  10.364  2.0968  0.5944 -0.3741
  248MOL0     H34220   0.165   7.029  10.762  0.4647 -2.1240 -1.0259
  248MOL0     H34221   0.268   7.421  10.549  1.4488  0.4989 -1.4159
  248MOL0     H34222   0.129   7.403  10.709 -2.9847  0.1061  2.2195
  248MOL0     H34223   0.180   7.464  10.865  0.8116  0.7431  0.7717
  248MOL0     H34224   0.082   7.563  10.756  0.4995  0.4845 -0.4169
  249MOL0     O34225  11.527  10.315   3.281  0.0658 -0.2805 -0.3844
  249MOL0     C34226  11.591  10.211   3.279 -0.2277  0.1912  0.1086
  249MOL0     O34227  11.706  10.184   3.346  0.1820  0.0601 -0.8383
  249MOL0     C34228  11.739  10.279   3.442 -0.3382 -0.2577 -0.1551
  249MOL0     C34229  11.787  10.418   3.423 -0.0440 -0.5563 -0.7466
  249MOL0     C34230  11.801  10.499   3.532  0.4268  0.5754  0.3171
  249MOL0     C34231  11.785  10.449   3.671 -0.4569  0.2157  0.1053
  249MOL0     O34232  11.799  10.520   3.789 -0.3308 -0.4077 -0.3653
  249MOL0     C34233  11.935  10.568   3.819  0.1646  0.7155  0.1917
  249MOL0     C34234  11.933  10.702   3.889 -0.2061 -0.2483  0.3094
  249MOL0     C34235  12.076  10.738   3.927  0.1789  0.1005  0.1742
  249MOL0     C34236  12.083  10.892   3.947 -0.3835 -0.1530  0.3433
  249MOL0     C34237  12.230  10.930   4.009 -0.1819  0.1890 -0.1506
  249MOL0     C34238  12.248  11.079   3.992  0.5170 -0.6722 -0.0992
  249MOL0     C34239  12.390  11.111   4.048  0.8458  1.0257 -0.2254
  249MOL0     C34240  12.443  11.256   4.033 -0.3670  1.5701 -0.2003
  249MOL0     N34241  12.346  11.361   4.032  0.0563 -0.6123  0.7449
  249MOL0     C34242  12.262  11.394   4.137  0.2347 -0.0284 -0.4801
  249MOL0     C34243  12.182  11.500   4.106  0.8285  0.0027 -0.1925
  249MOL0     C34244  12.080  11.575   4.185  0.1485 -0.1500  0.2416
  249MOL0     C34245  12.066  11.724   4.140  0.4127 -0.7808  0.4663
  249MOL0     C34246  11.916  11.749   4.107  0.0262 -0.1881  0.6431
  249MOL0     C34247  11.892  11.878   4.023 -1.3061  0.3409  0.2813
  249MOL0     O34248  11.759  11.875   3.983  0.0111  0.1810 -0.8229
  249MOL0     C34249  11.699  11.958   3.890  1.5323  0.6610  0.6488
  249MOL0     C34250  11.752  12.077   3.837 -1.0429 -0.1067  0.0108
  249MOL0     C34251  11.689  12.172   3.763 -0.4811 -0.8854  0.0750
  249MOL0     C34252  11.754  12.302   3.731 -1.0226  1.3147  0.1262
  249MOL0     C34253  11.559  12.142   3.712 -0.0945  0.0492  0.1562
  249MOL0     C34254  11.468  12.232   3.639  0.6251 -0.1130  0.0248
  249MOL0     O34255  11.414  12.183   3.537 -0.1303 -0.5173 -0.0096
  249MOL0     C34256  11.329  12.259   3.461 -0.3197  0.2295  0.8761
  249MOL0     C34257  11.207  12.194   3.416  0.4260 -0.7896 -0.1897
  249MOL0     C34258  11.115  12.260   3.334  0.0102  0.2253 -0.1729
  249MOL0     C34259  11.141  12.393   3.295  0.3653 -0.3894 -0.3587
  249MOL0     O34260  11.065  12.478   3.224  0.9686  0.0649 -0.4814
  249MOL0     C34261  10.943  12.435   3.153  0.6931 -0.3633 -1.2174
  249MOL0     C34262  10.944  12.531   3.035  0.0787  0.9305  0.4608
  249MOL0     C34263  10.938  12.683   3.074  0.2844  0.5528  0.7738
  249MOL0     C34264  10.813  12.741   3.134  0.1816 -0.1084 -0.0178
  249MOL0     C34265  10.817  12.896   3.151 -0.7361 -0.4479  0.4295
  249MOL0     C34266  10.777  12.980   3.026  0.5226  0.3343 -0.6000
  249MOL0     C34267  10.812  13.129   3.057 -0.2144 -0.4733  0.5092
  249MOL0     C34268  10.955  13.167   3.020 -0.1617  0.9853  0.2761
  249MOL0    Cl34269  11.074  13.134   3.144 -0.4170 -0.3057  0.1762
  249MOL0     C34270  11.263  12.452   3.332 -0.3746 -0.1984 -0.0599
  249MOL0     C34271  11.362  12.385   3.415 -0.1156 -0.4414  0.1037
  249MOL0     O34272  11.450  12.346   3.684  0.1745 -0.2898 -0.1669
  249MOL0     C34273  11.509  12.022   3.757  0.3481  0.4810 -1.2636
  249MOL0     C34274  11.571  11.930   3.842  0.3847  0.2035 -0.3716
  249MOL0     N34275  12.226  11.522   3.974 -0.3242 -0.3108 -0.0888
  249MOL0     N34276  12.322  11.449   3.932 -0.2207 -0.5477 -0.1782
  249MOL0     C34277  11.748  10.322   3.692  0.3292 -0.5335 -0.2955
  249MOL0     C34278  11.723  10.236   3.578 -0.4931  0.3607  0.7983
  249MOL0     C34279  11.532  10.086   3.219  0.9646  0.3349 -0.3758
  249MOL0     C34280  11.588   9.965   3.255  0.4873  0.2311 -0.6783
  249MOL0     C34281  11.542   9.840   3.209 -1.0448 -0.1938 -0.5544
  249MOL0     C34282  11.432   9.836   3.115 -0.1117  0.2919  0.8606
  249MOL0     O34283  11.390   9.721   3.056 -0.5949 -0.2710  0.0977
  249MOL0     C34284  11.475   9.606   3.069  0.5708 -0.3857  0.3698
  249MOL0     C34285  11.427   9.522   3.191  0.3038  0.2548 -0.6380
  249MOL0     C34286  11.286   9.471   3.186  0.5492 -0.4076  0.8876
  249MOL0     C34287  11.249   9.391   3.303  0.5412  0.7073 -0.0587
  249MOL0     C34288  11.236   9.483   3.413 -0.5444  0.5781 -0.5481
  249MOL0     C34289  11.217   9.566   3.511  0.3878  0.5364 -0.1657
  249MOL0     C34290  11.390   9.963   3.073  0.6635  0.4784  0.5318
  249MOL0     C34291  11.428  10.084   3.124  0.4487 -0.3826  0.1433
  249MOL0     C34292  11.350  10.207   3.090  0.0763 -0.1987 -0.3940
  249MOL0     H34293  11.806  10.463   3.326  0.1221 -0.0729 -0.4887
  249MOL0     H34294  11.834  10.603   3.524 -0.0427  0.7415  0.5219
  249MOL0     H34295  12.002  10.566   3.733  1.3756  0.5175  1.1033
  249MOL0     H34296  11.972  10.486   3.882  1.1412 -0.5719 -1.9286
  249MOL0     H34297  11.894  10.779   3.823 -0.3548 -1.4443 -1.0427
  249MOL0     H34298  11.881  10.700   3.986 -0.7912 -2.7350  0.0191
  249MOL0     H34299  12.102  10.689   4.021  1.7595  1.5547  0.5624
  249MOL0     H34300  12.142  10.703   3.847 -1.0566 -1.9697 -0.0043
  249MOL0     H34301  12.079  10.949   3.854  0.7441  2.6963  1.9299
  249MOL0     H34302  11.998  10.921   4.011 -0.3817 -0.0065  0.2768
  249MOL0     H34303  12.312  10.874   3.961  1.5294  1.0555  1.6298
  249MOL0     H34304  12.247  10.898   4.112 -1.2851 -1.4425 -0.4217
  249MOL0     H34305  12.242  11.121   3.891  0.4719  1.5323  0.7712
  249MOL0     H34306  12.168  11.133   4.043  1.1574 -0.5033  0.7483
  249MOL0     H34307  12.462  11.040   4.006 -0.2223 -0.7137  0.7705
  249MOL0     H34308  12.398  11.079   4.152 -4.0786  3.0784  1.0822
  249MOL0     H34309  12.510  11.273   4.119 -0.3075 -0.8493  0.2983
  249MOL0     H34310  12.501  11.268   3.941 -0.5490  0.8045 -0.4177
  249MOL0     H34311  12.257  11.360   4.240  0.4177  0.6894 -0.2237
  249MOL0     H34312  12.095  11.577   4.293 -3.7491  3.5968  1.0090
  249MOL0     H34313  11.986  11.521   4.167  0.3239 -1.0829  1.9181
  249MOL0     H34314  12.107  11.793   4.214 -1.2749  0.6435  0.1275
  249MOL0     H34315  12.111  11.739   4.041 -2.5750  1.9140 -0.6576
  249MOL0     H34316  11.876  11.660   4.058  1.6734  0.8051 -2.8334
  249MOL0     H34317  11.866  11.753   4.205 -1.9089 -0.1673 -0.2907
  249MOL0     H34318  11.926  11.955   4.092  0.7257 -0.8872  0.7250
  249MOL0     H34319  11.954  11.884   3.933 -1.2190  3.3159  0.4481
  249MOL0     H34320  11.845  12.120   3.873 -0.4934 -1.8595  0.8025
  249MOL0     H34321  11.726  12.332   3.630 -1.9444  3.2517  0.9057
  249MOL0     H34322  11.862  12.307   3.748 -1.0213  3.5658 -0.2766
  249MOL0     H34323  11.707  12.379   3.793 -1.9334  0.6448  0.2825
  249MOL0     H34324  11.189  12.096   3.459 -0.5579  0.2018  1.8019
  249MOL0     H34325  11.021  12.214   3.306  0.7313 -1.9691  0.7952
  249MOL0     H34326  10.962  12.328   3.141  1.5049 -0.0708 -2.8005
  249MOL0     H34327  10.851  12.447   3.210  0.2877 -3.5925 -0.9946
  249MOL0     H34328  11.032  12.511   2.974 -1.2325 -0.2266 -1.1225
  249MOL0     H34329  10.859  12.509   2.971 -0.9900  2.0953  1.4265
  249MOL0     H34330  10.977  12.723   2.980  1.0885 -1.0967  0.3763
  249MOL0     H34331  11.014  12.705   3.150 -0.3209  0.1492  1.5041
  249MOL0     H34332  10.784  12.711   3.235 -0.9047  0.3493 -0.1782
  249MOL0     H34333  10.727  12.700   3.080  1.3366 -2.6044 -0.1238
  249MOL0     H34334  10.744  12.917   3.229  0.0138 -2.1115  1.6411
  249MOL0     H34335  10.913  12.935   3.185  0.7651 -1.3394 -2.4384
  249MOL0     H34336  10.671  12.972   2.999  0.0142 -1.3366  1.6190
  249MOL0     H34337  10.833  12.938   2.942  0.5351  2.4996 -1.7348
  249MOL0     H34338  10.795  13.153   3.163  2.5096  0.1328  0.9075
  249MOL0     H34339  10.748  13.198   3.001  1.0044 -1.3467 -2.0994
  249MOL0     H34340  10.949  13.274   2.994  1.7614  0.6382 -1.9156
  249MOL0     H34341  10.977  13.116   2.926  1.0585  1.7250  0.1470
  249MOL0     H34342  11.297  12.554   3.317 -3.8122  1.6267  2.8862
  249MOL0     H34343  11.445  12.442   3.455  0.5521 -0.4162 -1.2461
  249MOL0     H34344  11.406  11.996   3.733 -0.1999 -0.9017  1.9693
  249MOL0     H34345  11.523  11.838   3.872  4.9487 -1.6638  2.1628
  249MOL0     H34346  11.734  10.292   3.796 -0.7552  0.4397 -0.1347
  249MOL0     H34347  11.696  10.135   3.607  2.4261 -0.4536  1.0180
  249MOL0     H34348  11.669   9.949   3.325 -2.0301 -1.6597  2.0513
  249MOL0     H34349  11.591   9.761   3.264 -0.8856 -0.4370 -1.0375
  249MOL0     H34350  11.449   9.547   2.981 -3.3384  0.2939  0.8877
  249MOL0     H34351  11.581   9.628   3.082  0.6036 -1.8418  3.5926
  249MOL0     H34352  11.443   9.577   3.285  1.1396 -0.6944 -0.2089
  249MOL0     H34353  11.489   9.432   3.187 -1.4443 -0.9416 -1.6060
  249MOL0     H34354  11.220   9.558   3.172  0.9767 -0.2830 -0.5457
  249MOL0     H34355  11.274   9.414   3.094  0.1372  2.0117 -0.6648
  249MOL0     H34356  11.315   9.307   3.326  0.4195  1.4516  3.6170
  249MOL0     H34357  11.151   9.348   3.281  1.6783 -3.3065  1.7190
  249MOL0     H34358  11.198   9.643   3.583  0.1547  0.2968  0.0305
  249MOL0     H34359  11.316   9.974   2.994 -2.8007  2.2417  3.7013
  249MOL0     H34360  11.310  10.263   3.175 -2.8263 -1.3170 -0.9087
  249MOL0     H34361  11.412  10.275   3.032  1.5946 -1.2867 -0.0972
  249MOL0     H34362  11.262  10.189   3.027 -0.6759 -0.2101  0.6361
  250MOL0     O34363   4.624   1.962   3.146  0.1294 -0.0529  0.5215
  250MOL0     C34364   4.596   1.884   3.054 -0.2782  0.3181 -0.7715
  250MOL0     O34365   4.577   1.912   2.926 -0.1082  0.1952 -0.2173
  250MOL0     C34366   4.639   2.028   2.890  0.8349  0.2245  0.7155
  250MOL0     C34367   4.550   2.120   2.834  0.7978  0.8058  0.0121
  250MOL0     C34368   4.588   2.236   2.765 -0.3791 -0.1938 -0.7371
  250MOL0     C34369   4.725   2.261   2.761 -0.1623 -0.7044  0.6962
  250MOL0     O34370   4.770   2.381   2.700 -0.3356 -1.1262  0.3476
  250MOL0     C34371   4.710   2.412   2.564 -0.1623  0.1763  0.1297
  250MOL0     C34372   4.814   2.435   2.457 -0.3310  0.7271 -0.1878
  250MOL0     C34373   4.937   2.341   2.452 -0.2927 -0.1378  0.0576
  250MOL0     C34374   5.044   2.392   2.355  0.4870 -0.4843 -0.1570
  250MOL0     C34375   5.191   2.355   2.379 -0.0493  0.0640 -0.1756
  250MOL0     C34376   5.279   2.407   2.257 -0.2854 -1.0254  1.0158
  250MOL0     C34377   5.430   2.410   2.282 -0.5353 -0.8223  0.5726
  250MOL0     C34378   5.513   2.446   2.159 -0.0129 -0.4695 -1.0938
  250MOL0     N34379   5.504   2.592   2.116 -0.1138  0.2293 -0.0460
  250MOL0     C34380   5.540   2.710   2.184  0.6893  0.8534 -0.6173
  250MOL0     C34381   5.470   2.807   2.134 -0.7741 -0.9113  1.0756
  250MOL0     C34382   5.458   2.936   2.201  0.1189 -0.4001  0.4777
  250MOL0     C34383   5.419   3.060   2.105 -0.5906  0.6075  0.0022
  250MOL0     C34384   5.510   3.074   1.972 -0.1023  0.6930  0.0977
  250MOL0     C34385   5.664   3.042   1.991 -0.3759  0.0426  0.9805
  250MOL0     O34386   5.738   3.101   1.882 -0.2458  0.0696 -0.1471
  250MOL0     C34387   5.731   3.048   1.751 -0.4795  0.3261  0.0172
  250MOL0     C34388   5.779   3.131   1.652 -0.9732  0.5287 -1.1790
  250MOL0     C34389   5.810   3.084   1.522 -0.3733  0.6245  0.0673
  250MOL0     C34390   5.865   3.186   1.430 -0.1184 -0.2785 -0.2052
  250MOL0     C34391   5.776   2.951   1.486 -0.5954 -0.5297  0.1406
  250MOL0     C34392   5.777   2.896   1.351  0.1998 -0.0109  0.5022
  250MOL0     O34393   5.707   2.779   1.337 -0.6827 -0.0396 -0.1266
  250MOL0     C34394   5.679   2.738   1.214  0.1398 -0.1049 -0.4181
  250MOL0     C34395   5.626   2.820   1.105 -1.1712  0.0736 -0.6218
  250MOL0     C34396   5.573   2.771   0.985 -0.3136  0.1355 -0.7004
  250MOL0     C34397   5.576   2.629   0.966  0.1282 -1.4371  0.0443
  250MOL0     O34398   5.533   2.570   0.846 -0.3443  0.4570  0.2635
  250MOL0     C34399   5.479   2.656   0.743 -0.4589  0.4384 -0.2643
  250MOL0     C34400   5.466   2.574   0.614  0.0095 -0.5834 -0.8137
  250MOL0     C34401   5.361   2.457   0.614 -0.1101 -0.2382  0.0727
  250MOL0     C34402   5.364   2.395   0.474  0.3645 -0.2268 -0.1463
  250MOL0     C34403   5.265   2.278   0.441 -0.1504 -0.0641 -0.1043
  250MOL0     C34404   5.127   2.300   0.498  0.6515 -0.7291 -0.7317
  250MOL0     C34405   5.049   2.168   0.477  0.8660  0.7054 -0.6059
  250MOL0     C34406   4.912   2.170   0.554 -0.1733  0.0319  1.0987
  250MOL0    Cl34407   4.936   2.181   0.724  0.2855  0.0427  0.2292
  250MOL0     C34408   5.629   2.545   1.065 -0.0723 -1.0369 -0.0717
  250MOL0     C34409   5.678   2.600   1.186 -0.3889 -0.4690  0.0730
  250MOL0     O34410   5.835   2.953   1.258 -0.1550 -0.5355 -0.2929
  250MOL0     C34411   5.720   2.872   1.587 -0.6645 -1.0425 -0.0882
  250MOL0     C34412   5.692   2.925   1.714 -0.5538 -0.0057  0.7559
  250MOL0     N34413   5.392   2.756   2.035  0.8713 -0.3112 -0.7734
  250MOL0     N34414   5.406   2.634   2.029 -0.3812 -0.2780 -0.1518
  250MOL0     C34415   4.816   2.171   2.821 -0.9012  0.0999 -0.7810
  250MOL0     C34416   4.771   2.055   2.888 -0.6374  0.2666 -0.1558
  250MOL0     C34417   4.582   1.747   3.077 -0.3927  1.2404  0.5753
  250MOL0     C34418   4.629   1.658   2.973 -0.5566  0.2437  0.3424
  250MOL0     C34419   4.636   1.523   2.999  0.5626  0.4940  1.1614
  250MOL0     C34420   4.561   1.467   3.103 -0.5278  0.2239 -0.3301
  250MOL0     O34421   4.551   1.329   3.138 -0.4470  0.1066 -0.3870
  250MOL0     C34422   4.606   1.234   3.048  0.2951 -0.3594  0.3795
  250MOL0     C34423   4.536   1.096   3.044  0.9018 -0.5516 -0.4103
  250MOL0     C34424   4.570   1.021   2.914  0.1541  0.3909 -0.6207
  250MOL0     C34425   4.543   0.870   2.948  0.1792 -0.2313  0.7307
  250MOL0     C34426   4.404   0.817   2.942  0.6286  0.3208 -0.0857
  250MOL0     C34427   4.307   0.750   2.927  0.9198 -0.8985 -0.1228
  250MOL0     C34428   4.504   1.553   3.195 -0.3049  0.4691  0.5429
  250MOL0     C34429   4.524   1.687   3.192 -0.1698 -0.2474 -1.5387
  250MOL0     C34430   4.482   1.766   3.318 -0.0058  1.5306  0.3600
  250MOL0     H34431   4.446   2.091   2.848  0.7032  1.7535  1.5752
  250MOL0     H34432   4.522   2.316   2.734  1.2661  1.4355 -0.1807
  250MOL0     H34433   4.662   2.510   2.569  0.3473  0.3820  1.5614
  250MOL0     H34434   4.653   2.324   2.533 -1.0054  1.0766 -0.9299
  250MOL0     H34435   4.764   2.427   2.361  0.5934 -3.7140 -0.5325
  250MOL0     H34436   4.859   2.532   2.479  0.2594 -0.1188  2.8867
  250MOL0     H34437   4.973   2.322   2.553 -2.5220 -0.2391  0.8986
  250MOL0     H34438   4.896   2.249   2.410 -2.0338  0.0720  1.1810
  250MOL0     H34439   5.013   2.377   2.251 -1.1853 -0.6810  0.3335
  250MOL0     H34440   5.047   2.501   2.362  0.8298 -0.4986 -0.0406
  250MOL0     H34441   5.208   2.248   2.389  1.1372  0.4131  2.3157
  250MOL0     H34442   5.234   2.406   2.466  2.1481  0.7120 -1.5672
  250MOL0     H34443   5.263   2.355   2.162  2.0970  0.8198 -0.5177
  250MOL0     H34444   5.244   2.509   2.240 -0.5334 -1.2723 -0.0425
  250MOL0     H34445   5.460   2.310   2.314  0.4380  0.2767  3.4561
  250MOL0     H34446   5.456   2.462   2.375  0.8388 -1.3476  0.5048
  250MOL0     H34447   5.616   2.411   2.171  0.0581  0.5990  3.5311
  250MOL0     H34448   5.483   2.385   2.074  2.5988 -2.3372 -0.8069
  250MOL0     H34449   5.610   2.725   2.266 -0.3575 -2.4588  1.0730
  250MOL0     H34450   5.549   2.964   2.255  0.3670  0.3483 -0.2977
  250MOL0     H34451   5.377   2.930   2.275 -1.5247  0.2419 -1.1950
  250MOL0     H34452   5.320   3.041   2.063  0.2433  1.3012 -2.4412
  250MOL0     H34453   5.419   3.153   2.162 -1.6886  0.1122  0.8496
  250MOL0     H34454   5.463   2.995   1.913 -0.2322 -1.7982  3.2385
  250MOL0     H34455   5.496   3.176   1.936 -0.2309  0.7613  0.3386
  250MOL0     H34456   5.704   3.075   2.088  0.8718  0.7684  0.2419
  250MOL0     H34457   5.686   2.935   1.995 -0.3428 -0.0132 -0.4090
  250MOL0     H34458   5.806   3.233   1.680  2.2100 -0.4253 -0.3311
  250MOL0     H34459   5.801   3.213   1.345 -2.1248  1.5835  1.7379
  250MOL0     H34460   5.966   3.153   1.404 -0.1870 -0.9441  0.3406
  250MOL0     H34461   5.877   3.281   1.482 -1.7198 -1.9295  3.5882
  250MOL0     H34462   5.630   2.928   1.112  0.0089 -0.0241  0.5932
  250MOL0     H34463   5.524   2.832   0.909 -2.1964  2.0737  1.8717
  250MOL0     H34464   5.383   2.704   0.763 -0.2923  2.6477 -3.9347
  250MOL0     H34465   5.551   2.737   0.724  3.0699 -2.0798  1.1773
  250MOL0     H34466   5.443   2.644   0.534  1.9069  2.7111  1.2924
  250MOL0     H34467   5.566   2.534   0.593  0.9321  1.1193  0.1645
  250MOL0     H34468   5.259   2.492   0.624 -0.6405 -1.8002  0.4754
  250MOL0     H34469   5.390   2.374   0.680  3.6889 -0.0940 -1.1489
  250MOL0     H34470   5.461   2.357   0.442 -0.1682  0.0093 -2.1989
  250MOL0     H34471   5.337   2.478   0.408 -0.7556  0.6474  1.3395
  250MOL0     H34472   5.253   2.262   0.333  3.5883  1.6446 -0.9377
  250MOL0     H34473   5.296   2.185   0.490 -3.2896 -0.3661  1.5820
  250MOL0     H34474   5.076   2.392   0.469  0.5593 -0.0379  1.4620
  250MOL0     H34475   5.130   2.326   0.604  1.1290  1.9846 -1.3411
  250MOL0     H34476   5.106   2.087   0.525  0.5367  0.4912 -0.5776
  250MOL0     H34477   5.037   2.145   0.371 -2.9761  1.4214 -0.4614
  250MOL0     H34478   4.852   2.079   0.557 -4.3456  2.5430  2.1405
  250MOL0     H34479   4.845   2.245   0.509 -1.9131 -2.4210 -0.6536
  250MOL0     H34480   5.642   2.438   1.050  0.7917 -0.8178 -0.9746
  250MOL0     H34481   5.719   2.518   1.244  0.9502 -0.3533 -0.6824
  250MOL0     H34482   5.706   2.765   1.574 -3.2720 -0.6071 -1.3884
  250MOL0     H34483   5.656   2.852   1.785 -1.2124 -1.9358 -1.4422
  250MOL0     H34484   4.921   2.194   2.811 -0.3189 -2.3032 -0.7925
  250MOL0     H34485   4.842   1.983   2.928 -0.0700  0.9418  0.0856
  250MOL0     H34486   4.696   1.700   2.899  0.3905 -5.2851 -2.4032
  250MOL0     H34487   4.680   1.454   2.928  0.2179  1.7050 -0.2758
  250MOL0     H34488   4.600   1.261   2.942 -0.6793  1.4362  0.8531
  250MOL0     H34489   4.713   1.216   3.060  0.9319 -0.7890 -4.3551
  250MOL0     H34490   4.427   1.108   3.045  0.9397 -0.1619  1.1404
  250MOL0     H34491   4.564   1.038   3.132 -2.8880 -0.6100  0.9150
  250MOL0     H34492   4.498   1.058   2.839 -0.4516  0.3714 -0.0611
  250MOL0     H34493   4.669   1.041   2.873  0.5148 -2.2596 -1.1942
  250MOL0     H34494   4.583   0.838   3.044  2.2856  0.6760  0.2124
  250MOL0     H34495   4.602   0.826   2.867 -0.3451  2.0849 -1.0162
  250MOL0     H34496   4.209   0.709   2.916  0.7614 -0.5144 -0.1437
  250MOL0     H34497   4.446   1.508   3.275  1.0596  0.0916  1.3498
  250MOL0     H34498   4.388   1.725   3.356  0.5621  0.8484  1.0642
  250MOL0     H34499   4.556   1.758   3.398 -1.5140  0.1857  1.6940
  250MOL0     H34500   4.456   1.867   3.284 -0.2905  0.5437 -2.6469
  251MOL0     O34501   3.978  10.999   0.607 -0.6287 -0.2565  0.2341
  251MOL0     C34502   3.987  11.116   0.647 -1.2651 -0.9152  0.1619
  251MOL0     O34503   3.944  11.226   0.580  0.3150 -0.2929 -0.5944
  251MOL0     C34504   3.889  11.196   0.457 -0.1103 -0.3525  0.3529
  251MOL0     C34505   3.758  11.155   0.425 -0.2136 -0.3195 -0.4875
  251MOL0     C34506   3.723  11.146   0.286  0.0982  0.2903  0.0482
  251MOL0     C34507   3.813  11.176   0.180 -0.3322 -0.0541 -0.3034
  251MOL0     O34508   3.789  11.170   0.047  0.4536 -0.7152  0.1099
  251MOL0     C34509   3.677  11.098  -0.008 -0.3114 -0.8138 -0.9327
  251MOL0     C34510   3.563  11.205  -0.046 -0.8869 -0.6970 -0.2994
  251MOL0     C34511   3.621  11.336  -0.101 -0.2366 -0.2513  1.1728
  251MOL0     C34512   3.697  11.311  -0.241 -0.4108 -0.4576  0.0479
  251MOL0     C34513   3.734  11.424  -0.333  0.5281 -0.0108 -0.2503
  251MOL0     C34514   3.827  11.539  -0.276 -0.6885 -0.3476 -0.0864
  251MOL0     C34515   3.976  11.508  -0.278  0.1965 -0.1293  0.3980
  251MOL0     C34516   4.047  11.628  -0.222 -0.1019  0.0980 -0.1241
  251MOL0     N34517   4.197  11.614  -0.231  0.5027 -0.0064  0.1787
  251MOL0     C34518   4.257  11.526  -0.139 -0.0876  0.3665  0.2660
  251MOL0     C34519   4.394  11.536  -0.162 -0.4068  1.0959  0.5978
  251MOL0     C34520   4.509  11.458  -0.103  0.3427  0.8260  0.1544
  251MOL0     C34521   4.574  11.367  -0.202  0.3290 -0.4774  0.0432
  251MOL0     C34522   4.631  11.420  -0.329  0.0523 -0.2331  0.5125
  251MOL0     C34523   4.757  11.502  -0.316  0.7789  0.3254  0.1503
  251MOL0     O34524   4.871  11.420  -0.289  0.0726 -0.3136 -0.3664
  251MOL0     C34525   4.940  11.341  -0.385 -0.4076 -0.0272  0.2721
  251MOL0     C34526   4.924  11.358  -0.524 -0.0136 -0.0271  0.1807
  251MOL0     C34527   5.006  11.271  -0.611 -0.2312 -0.4626 -0.0836
  251MOL0     C34528   4.974  11.283  -0.758  0.3337 -0.2913  0.4440
  251MOL0     C34529   5.108  11.182  -0.559 -0.1918 -0.9100  0.3841
  251MOL0     C34530   5.207  11.112  -0.636  0.1111 -0.3039  0.3316
  251MOL0     O34531   5.305  11.048  -0.561  0.6216 -0.2471  0.1243
  251MOL0     C34532   5.379  10.955  -0.625  0.9065  0.2415  0.0195
  251MOL0     C34533   5.389  10.829  -0.567  0.3512  0.6356 -0.2102
  251MOL0     C34534   5.473  10.731  -0.615 -0.0822  0.4853 -0.7458
  251MOL0     C34535   5.562  10.766  -0.716  0.5407 -0.2729  0.6838
  251MOL0     O34536   5.655  10.684  -0.772 -0.2713  0.5216  0.7963
  251MOL0     C34537   5.652  10.542  -0.747 -0.1875 -0.1311  0.6002
  251MOL0     C34538   5.623  10.466  -0.873 -0.6552 -0.0079  0.0920
  251MOL0     C34539   5.603  10.320  -0.836  0.6764 -0.2336 -0.1268
  251MOL0     C34540   5.581  10.226  -0.958  0.8122  1.0008 -0.2986
  251MOL0     C34541   5.497  10.099  -0.920  0.8640 -0.3810 -0.8921
  251MOL0     C34542   5.506   9.988  -1.023 -0.0230 -0.4273  0.2861
  251MOL0     C34543   5.490  10.039  -1.161  0.2260 -0.6040 -0.4307
  251MOL0     C34544   5.493   9.934  -1.266 -0.5604 -0.2900  0.1612
  251MOL0    Cl34545   5.343   9.827  -1.257  0.3816 -0.1514  0.1209
  251MOL0     C34546   5.550  10.901  -0.775 -0.0076  0.6407  0.2072
  251MOL0     C34547   5.455  10.988  -0.738 -0.1410  0.5753  0.3108
  251MOL0     O34548   5.191  11.100  -0.753  0.4506  0.3896  0.3643
  251MOL0     C34549   5.124  11.190  -0.417 -0.5017  0.2183 -1.1447
  251MOL0     C34550   5.033  11.257  -0.338 -0.9066  0.2881 -0.9902
  251MOL0     N34551   4.406  11.636  -0.263 -1.0242  0.0693  0.4541
  251MOL0     N34552   4.293  11.680  -0.306 -0.1202  0.0879 -0.3256
  251MOL0     C34553   3.939  11.229   0.216 -0.2916  0.2924  0.2350
  251MOL0     C34554   3.977  11.235   0.346  0.5874  0.3532 -0.4280
  251MOL0     C34555   4.070  11.147   0.766 -0.3799 -0.1420 -0.7857
  251MOL0     C34556   4.142  11.039   0.831 -0.5237  0.5575 -0.5232
  251MOL0     C34557   4.214  11.062   0.950 -0.0026  0.5832 -0.3131
  251MOL0     C34558   4.236  11.194   1.005  0.5635  0.0900 -0.3496
  251MOL0     O34559   4.317  11.218   1.109 -0.2790 -0.1278 -0.1683
  251MOL0     C34560   4.253  11.278   1.225  0.2363 -0.6617  0.0745
  251MOL0     C34561   4.341  11.264   1.355  0.2847 -0.2237  0.3362
  251MOL0     C34562   4.262  11.270   1.491 -1.0035  1.0290 -0.4748
  251MOL0     C34563   4.163  11.162   1.517  0.1984 -0.3391 -0.0960
  251MOL0     C34564   4.223  11.029   1.514  0.2275  0.1904 -0.3218
  251MOL0     C34565   4.249  10.908   1.510  0.1953 -0.4756  1.1512
  251MOL0     C34566   4.167  11.295   0.929 -0.6029  0.8260  0.0543
  251MOL0     C34567   4.094  11.275   0.809  0.6644  0.3458 -0.6922
  251MOL0     C34568   4.056  11.409   0.744  0.9504 -0.2127 -0.1952
  251MOL0     H34569   3.689  11.127   0.505 -1.0686 -4.6798 -2.4653
  251MOL0     H34570   3.624  11.108   0.265  0.3347 -2.7040  3.4688
  251MOL0     H34571   3.639  11.025   0.065  0.6016  1.3947  1.9415
  251MOL0     H34572   3.710  11.050  -0.100  0.2045 -2.4527  0.0670
  251MOL0     H34573   3.500  11.165  -0.126 -1.3444 -1.8820  0.6303
  251MOL0     H34574   3.495  11.215   0.038 -2.5966 -2.3134 -1.4172
  251MOL0     H34575   3.525  11.385  -0.121  0.2586 -0.0804 -1.1652
  251MOL0     H34576   3.676  11.398  -0.030  0.0116  1.5987 -0.5122
  251MOL0     H34577   3.784  11.250  -0.217 -0.2756 -1.0750 -1.9005
  251MOL0     H34578   3.632  11.242  -0.295  0.0158 -0.4714 -0.4486
  251MOL0     H34579   3.637  11.468  -0.358  1.1376  0.6624 -1.5090
  251MOL0     H34580   3.774  11.377  -0.424 -1.7047 -2.5350 -0.0678
  251MOL0     H34581   3.822  11.623  -0.346  2.2288  0.5239  0.6126
  251MOL0     H34582   3.793  11.556  -0.174  2.2669 -3.5879  1.6500
  251MOL0     H34583   4.017  11.503  -0.379 -0.3434  2.2221  0.0068
  251MOL0     H34584   3.999  11.421  -0.216  0.7139 -1.3587 -1.4326
  251MOL0     H34585   4.026  11.719  -0.279  2.6864  1.9989  1.6313
  251MOL0     H34586   4.032  11.646  -0.115  0.4105  1.3740 -0.2520
  251MOL0     H34587   4.213  11.463  -0.062  0.7809 -1.1404 -0.4266
  251MOL0     H34588   4.466  11.408  -0.016  1.4237  2.3617  1.6378
  251MOL0     H34589   4.579  11.529  -0.058  0.1239 -0.6035  3.0068
  251MOL0     H34590   4.652  11.308  -0.152  2.7864  2.3057 -0.2019
  251MOL0     H34591   4.497  11.291  -0.216  1.3009 -1.4564 -0.1441
  251MOL0     H34592   4.642  11.336  -0.398 -3.1897 -0.0844 -0.3523
  251MOL0     H34593   4.557  11.485  -0.377 -0.0562  0.4708  1.6059
  251MOL0     H34594   4.765  11.556  -0.410  0.3105  0.0712 -0.0395
  251MOL0     H34595   4.741  11.585  -0.247 -1.3675  2.5668 -2.7904
  251MOL0     H34596   4.847  11.421  -0.566 -1.3257 -1.5236  0.2532
  251MOL0     H34597   5.068  11.297  -0.813 -0.1911 -1.5545 -0.8747
  251MOL0     H34598   4.913  11.368  -0.789  0.9897 -0.2636 -0.8329
  251MOL0     H34599   4.925  11.190  -0.791  0.0936 -0.1015  0.2630
  251MOL0     H34600   5.340  10.789  -0.479  1.7434  1.2321  0.8681
  251MOL0     H34601   5.474  10.638  -0.560  2.3917  0.7350 -0.2367
  251MOL0     H34602   5.756  10.516  -0.727 -0.4333 -0.6187  1.2475
  251MOL0     H34603   5.592  10.520  -0.659 -1.2652  0.5447  0.0544
  251MOL0     H34604   5.535  10.509  -0.921  0.0385  0.3292 -0.8986
  251MOL0     H34605   5.705  10.478  -0.945 -1.3546  1.6769 -0.4681
  251MOL0     H34606   5.519  10.304  -0.768  0.1025  2.3666 -0.1260
  251MOL0     H34607   5.702  10.291  -0.799  2.6493  2.5585 -2.7166
  251MOL0     H34608   5.676  10.188  -0.995  0.5392  0.7058 -0.7035
  251MOL0     H34609   5.529  10.274  -1.041 -4.2229  0.7164  2.2621
  251MOL0     H34610   5.550  10.070  -0.829  2.9740  0.5495 -1.7601
  251MOL0     H34611   5.395  10.135  -0.902  0.5099 -1.6673 -0.2195
  251MOL0     H34612   5.429   9.913  -1.001 -1.7976  1.3121  0.2746
  251MOL0     H34613   5.604   9.939  -1.021  1.1736  1.7953 -0.3816
  251MOL0     H34614   5.570  10.110  -1.185 -0.7238  1.1164  1.2200
  251MOL0     H34615   5.397  10.096  -1.172 -0.2823 -0.9700  1.5366
  251MOL0     H34616   5.578   9.865  -1.261  1.5046  2.1951  3.5527
  251MOL0     H34617   5.501   9.987  -1.361  0.0910 -4.1465 -2.1295
  251MOL0     H34618   5.620  10.928  -0.853 -2.5090  0.5498 -2.2065
  251MOL0     H34619   5.449  11.092  -0.769  1.2748  1.4921  2.8516
  251MOL0     H34620   5.201  11.134  -0.365 -0.1339  0.2940 -1.6071
  251MOL0     H34621   5.057  11.246  -0.233 -2.5063 -2.5602 -0.8102
  251MOL0     H34622   4.017  11.261   0.148  0.9196  1.4364  2.0795
  251MOL0     H34623   4.080  11.266   0.362  0.4148  1.5684 -1.5420
  251MOL0     H34624   4.131  10.937   0.795 -1.6577 -0.2918  2.0114
  251MOL0     H34625   4.272  10.978   0.989 -0.1147  0.5845 -0.1446
  251MOL0     H34626   4.224  11.382   1.204 -0.1157 -1.5045 -4.7078
  251MOL0     H34627   4.159  11.227   1.247 -0.2856  0.9107  1.7322
  251MOL0     H34628   4.415  11.344   1.360 -0.4319  0.4059  1.4937
  251MOL0     H34629   4.400  11.172   1.364  0.7606  0.2517  2.8846
  251MOL0     H34630   4.328  11.253   1.577 -0.0623 -3.4112 -1.7927
  251MOL0     H34631   4.208  11.364   1.494  0.2319  1.8608 -2.4426
  251MOL0     H34632   4.080  11.171   1.446 -0.4776  2.5500  0.9111
  251MOL0     H34633   4.122  11.183   1.617 -3.0137 -0.7485 -1.1904
  251MOL0     H34634   4.274  10.805   1.495  2.9381 -0.0927  2.3908
  251MOL0     H34635   4.203  11.393   0.960  4.7771 -0.5930 -0.7165
  251MOL0     H34636   3.950  11.431   0.734  1.3265  1.7394 -0.2169
  251MOL0     H34637   4.088  11.493   0.806  0.6720  0.1537 -0.5427
  251MOL0     H34638   4.116  11.415   0.652 -0.7898 -1.6790 -1.5017
  252MOL0     O34639   1.042   8.956   3.699  0.5007 -0.1774  0.4925
  252MOL0     C34640   1.109   9.041   3.750  0.2034  0.9517  0.2690
  252MOL0     O34641   1.149   9.159   3.697  0.0366  1.3366 -0.1795
  252MOL0     C34642   1.142   9.165   3.557  0.9648  0.0137 -0.0670
  252MOL0     C34643   1.019   9.197   3.500  0.2290  0.5041  0.6353
  252MOL0     C34644   1.005   9.214   3.360  0.0946 -0.0954 -0.7519
  252MOL0     C34645   1.123   9.217   3.281 -0.7460  0.3955  0.5663
  252MOL0     O34646   1.120   9.249   3.150 -0.3368  0.3599 -0.5432
  252MOL0     C34647   1.055   9.364   3.112  0.2686  0.1437  0.2660
  252MOL0     C34648   1.124   9.434   2.985 -0.8531 -1.0317  0.2381
  252MOL0     C34649   1.151   9.334   2.865 -0.2930  0.2973 -0.9329
  252MOL0     C34650   1.204   9.412   2.743  0.2651  0.2659  0.2174
  252MOL0     C34651   1.178   9.313   2.625 -0.2061  0.5713  0.1519
  252MOL0     C34652   1.050   9.341   2.540  0.7487  1.1043 -0.1156
  252MOL0     C34653   1.054   9.284   2.399 -0.6498  0.2932  0.3202
  252MOL0     C34654   0.927   9.306   2.327 -0.2735  0.0577  0.3510
  252MOL0     N34655   0.938   9.249   2.193  0.2021 -0.2702  0.6207
  252MOL0     C34656   0.863   9.299   2.101 -0.2661 -0.1616  0.1874
  252MOL0     C34657   0.873   9.209   1.997  0.0646 -0.7098 -0.1648
  252MOL0     C34658   0.797   9.207   1.868 -0.0495  0.3775 -0.4753
  252MOL0     C34659   0.885   9.286   1.760 -0.0165 -0.0599  0.2357
  252MOL0     C34660   0.812   9.285   1.624  0.0842  0.1762  0.2751
  252MOL0     C34661   0.781   9.149   1.560  0.5285 -0.7264  1.0085
  252MOL0     O34662   0.901   9.069   1.571 -0.4865  0.3357  0.3962
  252MOL0     C34663   0.895   8.955   1.490 -0.8314 -0.7482 -0.3374
  252MOL0     C34664   1.017   8.895   1.457 -0.1830 -0.3262  0.0211
  252MOL0     C34665   1.030   8.766   1.395  0.1260 -0.2693 -0.2556
  252MOL0     C34666   1.161   8.694   1.395  0.8660  1.0731  0.3441
  252MOL0     C34667   0.910   8.707   1.353  0.8361  0.3788 -0.7458
  252MOL0     C34668   0.917   8.580   1.282  0.3096  0.0904  0.1886
  252MOL0     O34669   0.816   8.490   1.318  0.0153  0.7680 -0.1329
  252MOL0     C34670   0.805   8.373   1.253  0.0209  0.8673 -0.2906
  252MOL0     C34671   0.808   8.352   1.117  0.0788 -0.2140  0.7081
  252MOL0     C34672   0.793   8.218   1.070 -0.2920 -0.4599  0.2361
  252MOL0     C34673   0.783   8.108   1.156  0.5924 -0.8024 -0.4035
  252MOL0     O34674   0.757   7.984   1.114 -0.5238  0.9382 -0.3595
  252MOL0     C34675   0.815   7.922   1.007 -0.2663 -0.7164  0.2691
  252MOL0     C34676   0.785   7.779   1.022  0.1363 -0.1415 -0.0447
  252MOL0     C34677   0.770   7.722   0.880 -0.6468 -1.3100  1.1015
  252MOL0     C34678   0.817   7.572   0.868  0.2174 -0.2696  0.5966
  252MOL0     C34679   0.774   7.527   0.729 -0.2686 -0.3719 -0.0898
  252MOL0     C34680   0.623   7.496   0.719 -0.1672  0.8239  0.6775
  252MOL0     C34681   0.585   7.488   0.569  0.1931  0.2350 -0.1074
  252MOL0     C34682   0.433   7.468   0.559  0.1469 -0.1373 -0.0493
  252MOL0    Cl34683   0.388   7.476   0.396 -0.1381 -0.3312 -0.0835
  252MOL0     C34684   0.781   8.133   1.287 -0.2705 -0.0376 -0.4059
  252MOL0     C34685   0.794   8.256   1.345  1.0089 -0.3797  0.1877
  252MOL0     O34686   0.999   8.561   1.189 -0.2531  0.0018 -0.4375
  252MOL0     C34687   0.788   8.763   1.388 -0.9343 -0.4362 -0.8382
  252MOL0     C34688   0.780   8.882   1.459  0.1211  0.4500 -0.7562
  252MOL0     N34689   0.957   9.108   2.032  0.0391  0.0232  0.1229
  252MOL0     N34690   0.995   9.138   2.150  0.3361  0.2223  0.1075
  252MOL0     C34691   1.246   9.187   3.341 -0.5717 -0.3232 -0.6082
  252MOL0     C34692   1.251   9.158   3.470 -0.1303  0.2219 -0.3984
  252MOL0     C34693   1.165   9.007   3.886  0.0805  0.1765  0.0963
  252MOL0     C34694   1.256   9.106   3.944 -0.4207 -0.0267  0.0912
  252MOL0     C34695   1.331   9.093   4.054  0.6985  0.9133  0.3050
  252MOL0     C34696   1.322   8.977   4.122 -0.4397 -0.8975 -0.2398
  252MOL0     O34697   1.406   8.936   4.222  0.9168 -0.3993 -0.6551
  252MOL0     C34698   1.488   9.022   4.299 -0.0755  0.0327  0.0697
  252MOL0     C34699   1.430   9.049   4.436 -0.4653  0.1015 -0.4351
  252MOL0     C34700   1.308   9.142   4.435 -0.9772 -0.7270 -0.8719
  252MOL0     C34701   1.342   9.270   4.363  0.7789  0.1802 -0.6167
  252MOL0     C34702   1.240   9.375   4.373 -0.7403  1.2229  0.7786
  252MOL0     C34703   1.168   9.470   4.371 -0.7838  0.3437  0.2055
  252MOL0     C34704   1.223   8.883   4.090  0.2941 -0.7110  0.3249
  252MOL0     C34705   1.144   8.888   3.971  0.5502 -0.3041 -0.5849
  252MOL0     C34706   1.044   8.768   3.952 -0.0147 -0.4452 -0.2500
  252MOL0     H34707   0.937   9.214   3.569 -0.7752  4.5902 -1.2612
  252MOL0     H34708   0.911   9.235   3.310  1.2103  2.0789 -2.0853
  252MOL0     H34709   1.057   9.433   3.197 -0.4795 -0.9510  1.2049
  252MOL0     H34710   0.950   9.351   3.085  0.3814 -0.5036  0.1238
  252MOL0     H34711   1.052   9.513   2.959 -1.7079 -1.3041  1.6895
  252MOL0     H34712   1.219   9.473   3.022 -0.0236  1.7095 -4.0199
  252MOL0     H34713   1.228   9.259   2.887  1.5534  1.7947 -1.9536
  252MOL0     H34714   1.047   9.302   2.852 -0.4172 -1.5227  3.0965
  252MOL0     H34715   1.145   9.503   2.722 -0.5209 -0.4601 -0.8367
  252MOL0     H34716   1.309   9.443   2.745  0.3131  0.6938 -2.9436
  252MOL0     H34717   1.196   9.210   2.658  1.5114  0.6143 -0.5519
  252MOL0     H34718   1.260   9.336   2.557 -2.3163  0.5658 -2.6055
  252MOL0     H34719   0.967   9.304   2.601  0.3927  0.7425 -0.8161
  252MOL0     H34720   1.026   9.448   2.530 -0.9529  0.5988 -2.0706
  252MOL0     H34721   1.076   9.178   2.414 -0.4346  0.2541 -0.2804
  252MOL0     H34722   1.135   9.333   2.346 -0.7148  0.1265  0.0686
  252MOL0     H34723   0.844   9.258   2.379  0.1214 -1.3919 -0.3062
  252MOL0     H34724   0.902   9.411   2.312  0.1752 -0.1648 -2.5591
  252MOL0     H34725   0.817   9.398   2.103 -0.0237 -0.0553  0.7595
  252MOL0     H34726   0.698   9.246   1.893  0.2017 -1.1887  3.7788
  252MOL0     H34727   0.795   9.105   1.831  3.8236  0.4131 -1.2736
  252MOL0     H34728   0.904   9.391   1.788  0.9471  0.2560 -1.4830
  252MOL0     H34729   0.986   9.245   1.750  0.0859  0.4886 -1.2281
  252MOL0     H34730   0.724   9.350   1.626  1.7638  2.5832 -0.0491
  252MOL0     H34731   0.879   9.337   1.555 -1.1746 -1.0116 -1.9436
  252MOL0     H34732   0.694   9.102   1.606 -0.4439  2.5453  2.8591
  252MOL0     H34733   0.754   9.169   1.456 -2.0165  3.3708  2.2532
  252MOL0     H34734   1.107   8.951   1.480 -0.4370  1.5141 -2.9141
  252MOL0     H34735   1.146   8.602   1.452 -1.1894  1.4334  0.4401
  252MOL0     H34736   1.237   8.752   1.448  0.3640  0.0512  2.2449
  252MOL0     H34737   1.204   8.673   1.296 -1.5993 -1.2520 -0.3410
  252MOL0     H34738   0.835   8.428   1.044  1.2794 -1.6354 -0.3738
  252MOL0     H34739   0.806   8.212   0.963  1.5818 -0.4693  0.4251
  252MOL0     H34740   0.764   7.959   0.917  0.0771 -2.1424 -0.5551
  252MOL0     H34741   0.920   7.946   0.988 -0.6890 -0.7331 -2.6468
  252MOL0     H34742   0.860   7.722   1.077  1.4468  0.4544 -1.1596
  252MOL0     H34743   0.686   7.767   1.067  0.5918 -0.7687  0.8050
  252MOL0     H34744   0.836   7.777   0.813 -0.6761 -0.9856  1.3366
  252MOL0     H34745   0.667   7.726   0.845  0.0506  1.4958 -0.9580
  252MOL0     H34746   0.771   7.515   0.949 -0.7632  2.0427  1.7550
  252MOL0     H34747   0.925   7.566   0.882  0.9333  2.2046 -2.6235
  252MOL0     H34748   0.790   7.613   0.663 -0.8928  0.0957  0.3618
  252MOL0     H34749   0.836   7.441   0.699  1.7919  1.0679 -0.1832
  252MOL0     H34750   0.565   7.577   0.763 -2.8493 -0.2556 -0.6336
  252MOL0     H34751   0.594   7.402   0.767 -2.6530  3.0861  4.0141
  252MOL0     H34752   0.643   7.409   0.520 -3.5502 -0.8253 -3.2300
  252MOL0     H34753   0.616   7.581   0.520 -0.5957  0.8742  0.5734
  252MOL0     H34754   0.385   7.557   0.600 -0.8257  0.8922 -3.1670
  252MOL0     H34755   0.402   7.376   0.611  0.7304 -0.0743  0.4245
  252MOL0     H34756   0.780   8.054   1.361 -1.2610  0.0868 -0.2702
  252MOL0     H34757   0.788   8.259   1.454 -1.1041 -2.5287  0.2251
  252MOL0     H34758   0.697   8.713   1.354 -1.4114  0.3480 -0.7446
  252MOL0     H34759   0.681   8.917   1.484 -1.3688 -3.5713 -0.3920
  252MOL0     H34760   1.337   9.199   3.282 -0.2469 -2.5605 -0.6281
  252MOL0     H34761   1.344   9.128   3.516 -1.1821  1.9830  3.2051
  252MOL0     H34762   1.288   9.195   3.891 -0.5629  1.0789  1.7640
  252MOL0     H34763   1.407   9.170   4.063  0.6207  1.2232 -1.4922
  252MOL0     H34764   1.581   8.965   4.308 -0.2718 -0.1526  1.0188
  252MOL0     H34765   1.508   9.118   4.249  1.1954 -0.5974 -0.7065
  252MOL0     H34766   1.506   9.101   4.495 -0.7358 -1.4647  1.3723
  252MOL0     H34767   1.401   8.954   4.481  0.7915 -1.3313 -2.4831
  252MOL0     H34768   1.232   9.087   4.379  1.0644 -2.7305 -1.8456
  252MOL0     H34769   1.278   9.153   4.539 -1.7332 -0.2023 -1.1354
  252MOL0     H34770   1.351   9.267   4.254  0.8829  2.4737 -0.7254
  252MOL0     H34771   1.428   9.318   4.410 -0.0521  0.2077  0.9378
  252MOL0     H34772   1.092   9.545   4.367 -0.8262  0.2632 -0.6702
  252MOL0     H34773   1.218   8.801   4.161 -2.1024  0.0685  1.1474
  252MOL0     H34774   1.026   8.724   4.050 -0.8767 -0.3818 -0.3733
  252MOL0     H34775   0.942   8.794   3.922 -1.0188  0.0744  3.1831
  252MOL0     H34776   1.084   8.697   3.878  1.7939  2.1027 -1.9235
  253MOL0     O34777   8.711   3.894   8.393  0.1729  0.3130  0.2396
  253MOL0     C34778   8.644   3.859   8.490  0.5452  0.4222 -0.2132
  253MOL0     O34779   8.504   3.846   8.491  0.7291  0.0062 -0.1821
  253MOL0     C34780   8.452   3.860   8.362  0.8058 -0.7965 -0.4791
  253MOL0     C34781   8.460   3.754   8.266  0.1409 -0.4661 -0.1172
  253MOL0     C34782   8.400   3.767   8.142  0.2082 -1.0878  0.4432
  253MOL0     C34783   8.334   3.887   8.112 -0.5477  0.8322 -0.9998
  253MOL0     O34784   8.270   3.903   7.997  0.7951  0.2917  0.3729
  253MOL0     C34785   8.296   3.806   7.889  0.2823  0.0911  0.8357
  253MOL0     C34786   8.248   3.859   7.755  1.3443  0.1659  1.2125
  253MOL0     C34787   8.269   3.755   7.637 -1.3643 -0.0948 -0.2293
  253MOL0     C34788   8.336   3.828   7.513  0.0837  0.6344 -0.1025
  253MOL0     C34789   8.247   3.927   7.438 -0.5092  0.2418  0.5224
  253MOL0     C34790   8.295   3.960   7.290  0.0318 -0.7811 -0.2710
  253MOL0     C34791   8.195   4.046   7.214 -0.0046 -0.7474  0.5340
  253MOL0     C34792   8.067   3.969   7.172 -0.2882 -0.4286 -1.0117
  253MOL0     N34793   8.094   3.922   7.029 -0.1571  0.0931  0.5286
  253MOL0     C34794   8.174   3.821   6.992 -0.7367  0.8887  0.3767
  253MOL0     C34795   8.163   3.803   6.858  0.3376  0.1050  0.3348
  253MOL0     C34796   8.221   3.700   6.757  0.1555  0.6357  0.7196
  253MOL0     C34797   8.141   3.566   6.735  0.4486 -0.3868  0.9017
  253MOL0     C34798   8.193   3.498   6.610  0.3276 -0.3574  0.1728
  253MOL0     C34799   8.344   3.460   6.614 -0.5717 -0.0602 -0.0413
  253MOL0     O34800   8.372   3.392   6.740  0.5477  0.3063  0.2167
  253MOL0     C34801   8.352   3.256   6.734 -0.0284 -0.0358  0.6163
  253MOL0     C34802   8.441   3.169   6.661 -0.0231 -0.9659 -0.0642
  253MOL0     C34803   8.434   3.027   6.678 -0.0449  0.1314 -0.1743
  253MOL0     C34804   8.524   2.958   6.584 -0.2406  0.8079  0.3762
  253MOL0     C34805   8.348   2.967   6.769 -0.5794  0.9801  0.1559
  253MOL0     C34806   8.341   2.815   6.786  1.2580 -1.3387  0.8276
  253MOL0     O34807   8.222   2.760   6.809  0.6139  0.3072 -0.8161
  253MOL0     C34808   8.219   2.634   6.866  0.6869 -0.2984  0.4356
  253MOL0     C34809   8.265   2.519   6.807  0.1392 -0.2464  0.3161
  253MOL0     C34810   8.265   2.399   6.866 -0.2525 -0.2952 -0.4042
  253MOL0     C34811   8.201   2.384   6.987 -0.6359  0.1799  0.2233
  253MOL0     O34812   8.199   2.268   7.055  0.3133  0.4528 -0.2562
  253MOL0     C34813   8.263   2.152   6.996 -0.0218 -0.0720  0.4407
  253MOL0     C34814   8.407   2.147   7.052 -0.2469 -0.1686  0.0496
  253MOL0     C34815   8.495   2.048   7.001  0.7327 -1.6015  0.7336
  253MOL0     C34816   8.462   1.912   7.051 -1.1279  0.9211  0.1011
  253MOL0     C34817   8.570   1.808   7.009 -0.2161 -0.0676 -0.6187
  253MOL0     C34818   8.665   1.770   7.129  0.5902 -0.3134 -0.0061
  253MOL0     C34819   8.749   1.891   7.167 -1.1108 -0.0863 -0.6257
  253MOL0     C34820   8.860   1.845   7.265  0.0280 -0.5153  0.7248
  253MOL0    Cl34821   8.982   1.729   7.189  0.2525  0.2179 -0.1151
  253MOL0     C34822   8.141   2.492   7.045 -0.1586 -0.0618  0.3747
  253MOL0     C34823   8.134   2.617   6.977  0.1901  1.1342  0.0974
  253MOL0     O34824   8.447   2.757   6.786 -0.1148  0.5572  0.7519
  253MOL0     C34825   8.265   3.054   6.844  0.3907  0.1974 -0.0191
  253MOL0     C34826   8.270   3.194   6.831  0.8197  0.4889 -0.0330
  253MOL0     N34827   8.075   3.908   6.816  0.4879  0.6943 -1.2893
  253MOL0     N34828   8.028   3.969   6.919 -0.6756 -0.2414 -0.6729
  253MOL0     C34829   8.336   3.988   8.202 -1.0284 -0.7688  0.4000
  253MOL0     C34830   8.393   3.982   8.324 -0.2677  0.1420  0.5072
  253MOL0     C34831   8.693   3.858   8.637 -0.5879  0.1655 -0.0961
  253MOL0     C34832   8.625   3.763   8.721  0.5855  0.1094 -0.1537
  253MOL0     C34833   8.656   3.748   8.852  0.1111 -0.2330 -0.2374
  253MOL0     C34834   8.744   3.837   8.913 -0.4375 -0.1616  0.7331
  253MOL0     O34835   8.762   3.831   9.052  0.0049 -0.4079  0.0855
  253MOL0     C34836   8.883   3.896   9.094  0.0987 -0.2315 -0.1502
  253MOL0     C34837   8.918   3.876   9.246  0.0677  0.5989  0.4212
  253MOL0     C34838   9.036   3.969   9.288 -0.1576 -0.2841 -0.3113
  253MOL0     C34839   9.075   3.949   9.441  0.3098  0.0887  0.1968
  253MOL0     C34840   9.120   4.074   9.501 -0.2244  0.4035  0.2629
  253MOL0     C34841   9.148   4.180   9.555 -0.9058  0.9879  0.0238
  253MOL0     C34842   8.817   3.918   8.824 -0.2658  0.4301  0.3485
  253MOL0     C34843   8.799   3.924   8.684 -1.2991  0.7112 -0.1420
  253MOL0     C34844   8.896   4.006   8.608  0.7242 -0.5265  1.6146
  253MOL0     H34845   8.506   3.667   8.312  1.6299  0.8470  0.9908
  253MOL0     H34846   8.420   3.687   8.072  2.1643  1.9909 -2.9071
  253MOL0     H34847   8.242   3.713   7.908  0.2420  0.1512  1.0116
  253MOL0     H34848   8.403   3.785   7.880 -0.1074 -2.2087  0.8993
  253MOL0     H34849   8.140   3.874   7.757  0.8151 -2.8676  1.2064
  253MOL0     H34850   8.307   3.946   7.728  1.0714 -0.6409 -2.6233
  253MOL0     H34851   8.324   3.665   7.667  0.8757 -0.0754 -3.6991
  253MOL0     H34852   8.170   3.724   7.601 -1.3110 -0.8319  0.2345
  253MOL0     H34853   8.432   3.875   7.538 -0.7869  0.9655  3.0646
  253MOL0     H34854   8.353   3.750   7.439  1.1582  1.7740 -1.1030
  253MOL0     H34855   8.231   4.013   7.504 -2.8067 -0.6608  1.2506
  253MOL0     H34856   8.153   3.874   7.422 -0.6034  0.9597 -1.5950
  253MOL0     H34857   8.393   4.009   7.282 -1.0252  1.1420 -4.0628
  253MOL0     H34858   8.289   3.859   7.250 -5.5089 -0.6590 -0.4668
  253MOL0     H34859   8.234   4.093   7.124 -1.0926 -1.2421 -0.2195
  253MOL0     H34860   8.167   4.125   7.284  3.4934 -0.1015  1.3403
  253MOL0     H34861   8.052   3.887   7.242 -0.1913 -0.4543 -1.0207
  253MOL0     H34862   7.977   4.030   7.184  0.0755 -0.4041  2.9072
  253MOL0     H34863   8.230   3.754   7.057 -1.2942 -0.0280 -0.0642
  253MOL0     H34864   8.323   3.675   6.788 -0.7020 -3.7802  0.6047
  253MOL0     H34865   8.226   3.745   6.658 -1.2859  2.9612  1.6092
  253MOL0     H34866   8.162   3.504   6.823 -1.2462  1.3237  2.6264
  253MOL0     H34867   8.033   3.586   6.738  1.0941  3.5619  2.7461
  253MOL0     H34868   8.138   3.405   6.593  1.1857 -1.0938  1.2988
  253MOL0     H34869   8.181   3.572   6.530  0.4244 -1.1249 -0.5710
  253MOL0     H34870   8.370   3.392   6.532 -1.0042  2.5688 -2.5326
  253MOL0     H34871   8.411   3.545   6.615 -0.5077 -0.1059  1.3347
  253MOL0     H34872   8.509   3.226   6.599  0.7104  2.1071  3.2220
  253MOL0     H34873   8.526   3.004   6.484 -0.0343 -1.1533 -0.5706
  253MOL0     H34874   8.492   2.858   6.552 -2.7556  2.0685 -1.4014
  253MOL0     H34875   8.624   2.956   6.628 -0.0088  2.5847 -0.0023
  253MOL0     H34876   8.306   2.538   6.708  0.7989  0.3493  0.6958
  253MOL0     H34877   8.324   2.325   6.814 -1.8418 -2.8234  1.1800
  253MOL0     H34878   8.206   2.061   7.015  1.9588 -1.8275 -1.5229
  253MOL0     H34879   8.261   2.154   6.887  1.6877 -1.9630  0.3025
  253MOL0     H34880   8.461   2.238   7.022  1.1429 -1.5017 -1.6629
  253MOL0     H34881   8.414   2.138   7.161 -1.8317 -3.0891  0.0121
  253MOL0     H34882   8.593   2.084   7.033 -0.3928  2.7254 -0.0666
  253MOL0     H34883   8.495   2.053   6.892 -0.7487  1.2490  0.7871
  253MOL0     H34884   8.363   1.879   7.017 -0.6700  1.2952 -1.7366
  253MOL0     H34885   8.462   1.914   7.160 -0.3193 -1.7124  0.1970
  253MOL0     H34886   8.520   1.714   6.984 -1.1093  0.2906 -0.2398
  253MOL0     H34887   8.633   1.838   6.926 -0.7870  0.4488 -0.8733
  253MOL0     H34888   8.732   1.687   7.103 -1.7708 -1.7122 -2.2691
  253MOL0     H34889   8.603   1.743   7.215 -2.2530  2.3945 -0.9925
  253MOL0     H34890   8.694   1.974   7.211  1.4713 -0.4201  3.9558
  253MOL0     H34891   8.801   1.936   7.082  4.3799 -0.2216  2.1813
  253MOL0     H34892   8.823   1.796   7.355  0.0467 -0.9447  0.5018
  253MOL0     H34893   8.934   1.922   7.288  1.0412 -0.1742 -2.9748
  253MOL0     H34894   8.081   2.476   7.133 -0.3492  0.5406  0.3563
  253MOL0     H34895   8.071   2.695   7.017 -0.9399 -0.2853  1.1818
  253MOL0     H34896   8.194   3.022   6.919  1.8372 -3.5057  0.0068
  253MOL0     H34897   8.209   3.257   6.896 -0.8376 -1.4422  0.4147
  253MOL0     H34898   8.292   4.078   8.162 -0.2611 -1.7847 -3.0416
  253MOL0     H34899   8.401   4.060   8.399  0.9967  0.7746 -0.2465
  253MOL0     H34900   8.555   3.695   8.674  2.4989 -2.1187  0.0490
  253MOL0     H34901   8.604   3.680   8.919  0.3121  2.1160  2.5234
  253MOL0     H34902   8.969   3.867   9.032 -1.3103  1.2697 -2.9847
  253MOL0     H34903   8.866   4.003   9.079 -2.1744 -0.7302 -1.6244
  253MOL0     H34904   8.938   3.770   9.265 -0.6920  0.6458  1.6127
  253MOL0     H34905   8.827   3.897   9.303  0.2555 -2.4710  2.0935
  253MOL0     H34906   9.125   3.956   9.226  0.0681 -0.7325  0.1001
  253MOL0     H34907   8.987   4.067   9.276 -0.0211 -0.3622 -1.7043
  253MOL0     H34908   9.144   3.864   9.444  0.5020  0.1800 -0.9884
  253MOL0     H34909   8.990   3.905   9.493  0.2016 -3.1185 -2.3401
  253MOL0     H34910   9.166   4.284   9.574 -1.2234  1.2454 -1.0118
  253MOL0     H34911   8.888   3.990   8.863  1.7992 -0.0904 -2.1797
  253MOL0     H34912   8.843   4.084   8.552 -0.8954 -0.9314  2.5323
  253MOL0     H34913   8.978   4.053   8.662  2.3062  2.3520 -2.7359
  253MOL0     H34914   8.942   3.943   8.531 -2.1296 -0.9425  0.1151
  254MOL0     O34915   9.575   0.001   0.196  0.3532  0.3044 -0.8718
  254MOL0     C34916   9.664  -0.041   0.272 -0.6245  0.6076  0.1297
  254MOL0     O34917   9.799  -0.032   0.256 -0.1053 -0.7403 -0.2193
  254MOL0     C34918   9.857  -0.005   0.131 -0.1843 -0.0356 -0.0388
  254MOL0     C34919   9.980   0.056   0.127 -0.5779  0.7750 -0.3406
  254MOL0     C34920  10.057   0.070   0.016  0.0980 -0.5273 -0.0739
  254MOL0     C34921  10.003   0.033  -0.109 -0.3727  0.2201 -0.8657
  254MOL0     O34922  10.058   0.060  -0.232  0.4579  0.5858  0.5824
  254MOL0     C34923  10.183   0.118  -0.243 -0.0798  0.8054 -0.0410
  254MOL0     C34924  10.200   0.154  -0.395  0.2101  0.3572 -0.3855
  254MOL0     C34925  10.085   0.242  -0.457  0.3752  0.9936 -0.6508
  254MOL0     C34926  10.113   0.266  -0.603  0.0099  0.2864  0.1924
  254MOL0     C34927  10.074   0.415  -0.633  0.2133  0.5281  0.3630
  254MOL0     C34928  10.183   0.521  -0.590  0.2227 -1.1413 -0.2870
  254MOL0     C34929  10.135   0.658  -0.618 -0.3684  0.7757  0.8835
  254MOL0     C34930  10.142   0.676  -0.785  0.0968  0.3348 -0.2520
  254MOL0     N34931  10.270   0.695  -0.845 -0.1726  0.7075  0.3293
  254MOL0     C34932  10.316   0.627  -0.955 -0.7811  0.0510  0.0048
  254MOL0     C34933  10.434   0.684  -0.976  0.6871  0.8460 -0.5863
  254MOL0     C34934  10.520   0.658  -1.092  0.1629  1.3144 -0.0505
  254MOL0     C34935  10.518   0.771  -1.196 -0.0001  0.3785  0.1402
  254MOL0     C34936  10.387   0.770  -1.277 -0.4703 -0.2374  1.2387
  254MOL0     C34937  10.392   0.874  -1.388  0.4517  0.6508  0.9209
  254MOL0     O34938  10.256   0.910  -1.433 -0.1492 -0.0122  0.4195
  254MOL0     C34939  10.244   1.035  -1.495  1.4725  0.0202  0.1325
  254MOL0     C34940  10.350   1.120  -1.537 -0.4593  0.4378  0.9877
  254MOL0     C34941  10.321   1.248  -1.596 -0.6935  0.6096  0.7438
  254MOL0     C34942  10.449   1.330  -1.634  0.0526 -0.0809 -0.3807
  254MOL0     C34943  10.182   1.287  -1.610  0.9185 -1.3337 -0.4313
  254MOL0     C34944  10.140   1.422  -1.663 -0.3645 -0.2879 -0.1646
  254MOL0     O34945  10.234   1.476  -1.747 -0.4047  0.4346 -0.1993
  254MOL0     C34946  10.237   1.609  -1.785  0.5564  0.4866 -0.0363
  254MOL0     C34947  10.211   1.720  -1.703 -0.4437  0.0115 -0.1551
  254MOL0     C34948  10.236   1.859  -1.743  0.3884 -0.7991  0.9824
  254MOL0     C34949  10.289   1.877  -1.868  0.0055 -0.7585 -0.1962
  254MOL0     O34950  10.309   2.005  -1.912 -1.1173  0.9941 -0.4928
  254MOL0     C34951  10.448   2.052  -1.901  0.0088 -0.0843  0.2431
  254MOL0     C34952  10.502   2.082  -2.041  1.1731 -0.2956 -0.3184
  254MOL0     C34953  10.453   2.207  -2.112 -0.7242  0.6198 -0.6678
  254MOL0     C34954  10.517   2.224  -2.246 -0.1489 -0.6732 -0.1803
  254MOL0     C34955  10.551   2.376  -2.265  0.4447  0.2345  0.0370
  254MOL0     C34956  10.610   2.409  -2.402 -0.6512 -0.1869  0.3651
  254MOL0     C34957  10.511   2.401  -2.525 -0.6943 -0.0505  0.3813
  254MOL0     C34958  10.528   2.509  -2.634  0.3734 -0.3577  0.4591
  254MOL0    Cl34959  10.400   2.492  -2.756  0.5009 -0.1113  0.4291
  254MOL0     C34960  10.317   1.767  -1.957  0.8971  0.0846  0.9858
  254MOL0     C34961  10.284   1.636  -1.912  1.1583 -0.2904 -1.0705
  254MOL0     O34962  10.029   1.474  -1.641 -0.0234 -0.5917  0.0484
  254MOL0     C34963  10.083   1.213  -1.558 -0.6165 -0.0873  0.4038
  254MOL0     C34964  10.108   1.089  -1.500  0.3554 -0.3041  1.4432
  254MOL0     N34965  10.463   0.761  -0.869  0.3961  0.6528 -0.5223
  254MOL0     N34966  10.370   0.766  -0.783  0.5389  0.7250 -0.0352
  254MOL0     C34967   9.877  -0.033  -0.109 -0.4160  0.2646 -0.0329
  254MOL0     C34968   9.801  -0.036   0.006  0.2243  0.6766 -0.2556
  254MOL0     C34969   9.623  -0.093   0.401  0.1729  0.3964  0.6727
  254MOL0     C34970   9.695  -0.038   0.510 -0.1741 -0.4594 -0.4574
  254MOL0     C34971   9.651  -0.061   0.641 -1.3062 -0.0741 -0.2900
  254MOL0     C34972   9.529  -0.130   0.664 -1.1955  0.4568 -0.1126
  254MOL0     O34973   9.510  -0.164   0.793  0.0441 -0.6665 -0.0409
  254MOL0     C34974   9.383  -0.213   0.833  0.2833 -1.4919 -0.3600
  254MOL0     C34975   9.295  -0.104   0.891 -0.2616 -0.8196  0.4685
  254MOL0     C34976   9.351  -0.036   1.021 -0.0553 -0.3281 -0.2409
  254MOL0     C34977   9.235  -0.013   1.119 -0.2267  0.0784  0.1782
  254MOL0     C34978   9.176  -0.144   1.147  0.1616  0.4669  0.5951
  254MOL0     C34979   9.116  -0.252   1.157 -0.4191  0.0748  0.2803
  254MOL0     C34980   9.455  -0.167   0.553 -0.0813  0.2795 -0.5047
  254MOL0     C34981   9.501  -0.157   0.422 -0.3580  1.2503 -0.4309
  254MOL0     C34982   9.416  -0.214   0.323  1.3910  0.1983  0.2365
  254MOL0     H34983  10.007   0.087   0.227 -1.4507  1.4925 -0.3092
  254MOL0     H34984  10.155   0.117   0.017 -0.6288  1.0597  1.2577
  254MOL0     H34985  10.265   0.056  -0.205 -0.2611  1.0238  0.7093
  254MOL0     H34986  10.173   0.212  -0.187 -0.5407  0.0048  1.2604
  254MOL0     H34987  10.292   0.214  -0.389  1.1748 -1.0703 -0.4901
  254MOL0     H34988  10.226   0.069  -0.457  1.6216  1.0198 -0.7408
  254MOL0     H34989   9.985   0.199  -0.446  1.5356 -1.3105  2.0285
  254MOL0     H34990  10.092   0.341  -0.409  1.6070  0.5168  0.1925
  254MOL0     H34991  10.220   0.253  -0.621  0.0737  0.7620  0.2331
  254MOL0     H34992  10.052   0.199  -0.665  1.7654  0.1860 -1.5327
  254MOL0     H34993   9.973   0.447  -0.603  0.1374  2.1166 -1.3955
  254MOL0     H34994  10.065   0.421  -0.742  0.9473 -0.4440  0.2385
  254MOL0     H34995  10.219   0.515  -0.487 -0.1332 -0.5538 -0.1208
  254MOL0     H34996  10.272   0.498  -0.648 -0.2303  0.4368 -1.7193
  254MOL0     H34997  10.194   0.731  -0.562 -1.1264  1.3755  0.9130
  254MOL0     H34998  10.032   0.674  -0.587 -1.5478 -4.5362  0.7908
  254MOL0     H34999  10.091   0.594  -0.836 -2.5002  0.7439  1.4843
  254MOL0     H35000  10.079   0.760  -0.815  0.9923  0.6731 -1.2477
  254MOL0     H35001  10.259   0.559  -1.018 -0.3691  0.4171 -0.7813
  254MOL0     H35002  10.493   0.564  -1.141 -1.2128  0.9817  1.2566
  254MOL0     H35003  10.623   0.652  -1.057  0.0577 -2.3838  0.0594
  254MOL0     H35004  10.534   0.866  -1.143 -1.5393 -1.1108  3.5969
  254MOL0     H35005  10.594   0.760  -1.274 -0.8536  2.4192 -1.0761
  254MOL0     H35006  10.363   0.671  -1.318  1.3073 -0.4819  0.7206
  254MOL0     H35007  10.307   0.803  -1.210 -0.5781 -0.6069  1.2940
  254MOL0     H35008  10.441   0.961  -1.343 -1.2804  0.1231  4.1828
  254MOL0     H35009  10.445   0.821  -1.468 -2.0977  2.4501 -2.1831
  254MOL0     H35010  10.454   1.090  -1.541 -0.3683  0.7643 -2.6463
  254MOL0     H35011  10.450   1.429  -1.588 -0.1519 -1.1356  2.0463
  254MOL0     H35012  10.451   1.344  -1.742  0.1296 -2.0991 -0.6827
  254MOL0     H35013  10.541   1.276  -1.610  0.5483  1.0692  0.4147
  254MOL0     H35014  10.172   1.697  -1.604  0.0934 -2.4453 -0.4649
  254MOL0     H35015  10.202   1.944  -1.685 -1.7623 -1.1528  0.3180
  254MOL0     H35016  10.463   2.142  -1.842  2.4582 -0.2995  0.0780
  254MOL0     H35017  10.503   1.969  -1.855  0.6068 -0.9611 -1.8903
  254MOL0     H35018  10.611   2.078  -2.040  1.2763  1.5598 -1.3894
  254MOL0     H35019  10.470   1.996  -2.101  0.9117 -0.0006 -0.6017
  254MOL0     H35020  10.456   2.293  -2.044 -0.1717 -1.1395  1.6627
  254MOL0     H35021  10.347   2.196  -2.134 -0.6737  1.2264 -1.2300
  254MOL0     H35022  10.430   2.197  -2.308 -2.0533 -1.3232  2.5999
  254MOL0     H35023  10.603   2.158  -2.254  1.1448  0.3156  3.5269
  254MOL0     H35024  10.460   2.437  -2.258 -1.1433 -1.9738 -0.2237
  254MOL0     H35025  10.623   2.404  -2.188  0.7307  0.5890 -0.3507
  254MOL0     H35026  10.690   2.338  -2.426  0.1945  0.8845 -0.0866
  254MOL0     H35027  10.657   2.508  -2.403 -1.4063  0.1974 -1.0683
  254MOL0     H35028  10.404   2.397  -2.502 -0.6430 -0.8337  0.5297
  254MOL0     H35029  10.524   2.302  -2.569  2.7966 -0.0623  1.1221
  254MOL0     H35030  10.620   2.488  -2.689  0.7848 -1.7289  1.5862
  254MOL0     H35031  10.526   2.614  -2.605 -0.2397  0.2655 -1.7151
  254MOL0     H35032  10.358   1.779  -2.056 -3.3768 -3.2045 -1.5628
  254MOL0     H35033  10.300   1.552  -1.979  0.9530 -1.1158 -0.1157
  254MOL0     H35034   9.981   1.248  -1.570 -0.4214 -0.3516 -2.7876
  254MOL0     H35035  10.017   1.046  -1.459 -2.5075  4.4556  0.7996
  254MOL0     H35036   9.819  -0.055  -0.198 -1.8803  2.7479  0.1970
  254MOL0     H35037   9.702  -0.081   0.005 -0.4469  1.9824  1.4028
  254MOL0     H35038   9.795   0.003   0.507  0.0638 -1.0588 -2.6181
  254MOL0     H35039   9.722  -0.046   0.721 -2.2255  2.5067  0.1476
  254MOL0     H35040   9.329  -0.272   0.759 -2.0613  0.2211 -0.1166
  254MOL0     H35041   9.411  -0.279   0.916  4.8743  2.2876  1.6401
  254MOL0     H35042   9.189  -0.132   0.896 -0.6868  0.7297  0.5975
  254MOL0     H35043   9.275  -0.017   0.828  0.7741 -0.9697 -0.0942
  254MOL0     H35044   9.427  -0.102   1.062  0.0683 -1.6652 -2.5027
  254MOL0     H35045   9.394   0.064   1.008 -0.0841 -0.3455 -0.4662
  254MOL0     H35046   9.163   0.060   1.080  1.5551  2.9099  1.7916
  254MOL0     H35047   9.276   0.036   1.208  0.1734 -0.7945  0.4800
  254MOL0     H35048   9.060  -0.340   1.181  0.4436  0.2150  3.3490
  254MOL0     H35049   9.360  -0.215   0.574  1.2725 -3.1130 -1.5392
  254MOL0     H35050   9.432  -0.322   0.327  0.0147 -0.4001 -4.4091
  254MOL0     H35051   9.310  -0.200   0.348  0.5825 -3.5513 -0.4770
  254MOL0     H35052   9.445  -0.182   0.223 -0.2979  0.6905 -0.1314
  255MOL0     O35053  10.943  11.505  10.135 -0.1821  0.2817 -0.0114
  255MOL0     C35054  10.974  11.527  10.254  0.3251 -0.9444  0.4474
  255MOL0     O35055  10.883  11.539  10.356 -0.0979 -0.2460  0.2095
  255MOL0     C35056  10.754  11.520  10.331 -0.5879  0.6744  0.0213
  255MOL0     C35057  10.709  11.391  10.330 -0.0422  0.6772 -0.1898
  255MOL0     C35058  10.572  11.372  10.305  0.5103 -0.8057  1.6880
  255MOL0     C35059  10.486  11.480  10.286 -0.4750 -1.0077 -0.4498
  255MOL0     O35060  10.358  11.465  10.245  0.4089  0.3710  0.0340
  255MOL0     C35061  10.245  11.520  10.319  1.0815 -0.3580 -1.3021
  255MOL0     C35062  10.219  11.493  10.464 -0.4691  0.0281  1.2138
  255MOL0     C35063  10.089  11.548  10.517  2.0025  0.4569 -0.3368
  255MOL0     C35064  10.064  11.501  10.651 -0.5741 -0.7908 -0.0210
  255MOL0     C35065   9.924  11.555  10.697 -0.3020  0.4405 -0.4425
  255MOL0     C35066   9.885  11.490  10.832 -0.6056 -0.2834  0.2375
  255MOL0     C35067   9.747  11.543  10.880  0.1434  0.3789 -0.5899
  255MOL0     C35068   9.638  11.429  10.908 -0.7173 -1.2002 -0.6326
  255MOL0     N35069   9.554  11.480  11.022  0.2892  1.1186  0.1424
  255MOL0     C35070   9.575  11.461  11.155 -0.2781 -0.4817 -0.4140
  255MOL0     C35071   9.479  11.535  11.226 -0.4764 -0.2785 -1.0391
  255MOL0     C35072   9.436  11.531  11.373 -0.6012  0.2548  0.3668
  255MOL0     C35073   9.282  11.515  11.388  0.0381  0.3187 -0.1773
  255MOL0     C35074   9.209  11.644  11.426 -0.0595 -0.9426 -0.4010
  255MOL0     C35075   9.226  11.706  11.566  0.8857  0.5634  0.3689
  255MOL0     O35076   9.110  11.687  11.644 -0.6243  0.0259  0.0445
  255MOL0     C35077   9.103  11.713  11.781 -0.2052  0.0895  0.6463
  255MOL0     C35078   9.225  11.725  11.859  0.7634  0.1060 -0.6055
  255MOL0     C35079   9.229  11.765  11.990  0.0848  0.1872  0.0499
  255MOL0     C35080   9.366  11.767  12.059 -0.0110 -0.2841  0.1966
  255MOL0     C35081   9.103  11.770  12.053 -0.2647 -0.4252 -0.0722
  255MOL0     C35082   9.085  11.801  12.199  0.0209  0.2369  0.4865
  255MOL0     O35083   8.952  11.772  12.249 -0.9819  0.0529  0.1855
  255MOL0     C35084   8.914  11.842  12.365  0.0412 -0.0172 -0.1429
  255MOL0     C35085   8.864  11.769  12.470  1.1970 -0.5433  0.9410
  255MOL0     C35086   8.811  11.835  12.580 -0.9301  0.1392  0.2124
  255MOL0     C35087   8.804  11.976  12.593  0.3479  0.6239 -0.0111
  255MOL0     O35088   8.743  12.032  12.705 -0.5269  0.5140 -0.2784
  255MOL0     C35089   8.607  12.062  12.699  0.3467  0.3127  0.1076
  255MOL0     C35090   8.545  12.157  12.804  0.0000 -0.2710  0.7494
  255MOL0     C35091   8.554  12.310  12.781  0.3497 -0.0115 -0.4259
  255MOL0     C35092   8.598  12.346  12.641 -0.7321  0.1522 -1.0889
  255MOL0     C35093   8.588  12.502  12.649 -0.2446 -0.4279  0.0334
  255MOL0     C35094   8.648  12.569  12.523 -0.2604 -0.5206 -0.3061
  255MOL0     C35095   8.650  12.725  12.523 -0.6089 -1.2121  0.4178
  255MOL0     C35096   8.645  12.778  12.375  0.0768  0.3564  0.2258
  255MOL0    Cl35097   8.779  12.709  12.283 -0.2999  0.4873  0.0559
  255MOL0     C35098   8.844  12.052  12.485 -0.7562 -0.2394  0.0119
  255MOL0     C35099   8.912  11.988  12.375 -0.1504  0.3504 -0.2267
  255MOL0     O35100   9.175  11.844  12.270 -0.1112  0.6119 -0.0988
  255MOL0     C35101   8.982  11.748  11.978 -0.3987  0.5797 -0.1216
  255MOL0     C35102   8.979  11.720  11.843  0.6598 -1.1323  0.6152
  255MOL0     N35103   9.420  11.613  11.124  0.4455 -1.4225 -0.1487
  255MOL0     N35104   9.452  11.569  11.005  0.4577 -0.2338 -0.1453
  255MOL0     C35105  10.528  11.612  10.304 -0.6232 -0.0852  0.4044
  255MOL0     C35106  10.666  11.634  10.332 -0.4986 -0.1658 -0.0958
  255MOL0     C35107  11.115  11.549  10.292 -0.0801  0.9940  0.2579
  255MOL0     C35108  11.159  11.546  10.422  1.2333  1.2829  0.1121
  255MOL0     C35109  11.290  11.567  10.469 -0.7722  0.1794  0.1879
  255MOL0     C35110  11.385  11.602  10.368 -0.0704 -0.0914 -0.1151
  255MOL0     O35111  11.516  11.623  10.420  0.1272  0.1203 -0.4699
  255MOL0     C35112  11.626  11.541  10.378 -0.1601 -0.2515 -0.1754
  255MOL0     C35113  11.612  11.390  10.422 -0.6947  0.7902 -0.0914
  255MOL0     C35114  11.690  11.304  10.322  0.5796  0.3642  0.4111
  255MOL0     C35115  11.652  11.155  10.333 -0.4671  0.2193  0.0309
  255MOL0     C35116  11.724  11.074  10.234 -0.8543 -1.0337  0.0654
  255MOL0     C35117  11.767  11.005  10.139 -0.6800 -0.2640  0.9066
  255MOL0     C35118  11.347  11.610  10.234  0.0782 -0.2603 -0.3581
  255MOL0     C35119  11.214  11.578  10.188 -0.2701  0.0294  0.4065
  255MOL0     C35120  11.189  11.601  10.038 -0.5242 -0.6435 -0.4806
  255MOL0     H35121  10.781  11.310  10.324 -0.0370  0.7670 -2.7104
  255MOL0     H35122  10.516  11.279  10.311 -1.1158  0.1334  1.7629
  255MOL0     H35123  10.155  11.479  10.272  0.3363 -0.4414  0.1407
  255MOL0     H35124  10.249  11.629  10.314 -0.1186 -0.2680 -0.7471
  255MOL0     H35125  10.215  11.384  10.473  1.3662 -0.1054  0.8661
  255MOL0     H35126  10.310  11.521  10.519 -0.8382 -1.8510  2.8858
  255MOL0     H35127  10.091  11.657  10.523 -1.0038  0.5387  2.2441
  255MOL0     H35128  10.015  11.516  10.443  1.2969  3.2244 -0.9254
  255MOL0     H35129  10.065  11.391  10.649  4.9174 -1.0645  1.5349
  255MOL0     H35130  10.155  11.532  10.704  1.2870  0.0529 -3.4639
  255MOL0     H35131   9.845  11.526  10.627 -2.1302  1.2861  1.1415
  255MOL0     H35132   9.939  11.663  10.704  1.4012  0.1465  1.5835
  255MOL0     H35133   9.889  11.381  10.825  1.6770 -0.3897  2.0179
  255MOL0     H35134   9.950  11.522  10.914 -1.0938 -3.5528  2.0442
  255MOL0     H35135   9.706  11.621  10.815  0.8653 -0.3203 -1.9271
  255MOL0     H35136   9.763  11.584  10.980  0.3723 -2.2115  0.5084
  255MOL0     H35137   9.572  11.422  10.820  1.6183  0.0726 -2.6023
  255MOL0     H35138   9.685  11.334  10.935  1.2434  0.7719  3.9025
  255MOL0     H35139   9.656  11.402  11.196 -1.0381 -0.8869  0.5408
  255MOL0     H35140   9.453  11.631  11.414 -2.2448  0.6059  0.2434
  255MOL0     H35141   9.502  11.461  11.426 -1.7763 -1.4256 -0.3078
  255MOL0     H35142   9.238  11.476  11.296 -1.2044 -0.0362  0.5320
  255MOL0     H35143   9.267  11.446  11.472  1.2633  0.7892  0.4538
  255MOL0     H35144   9.245  11.721  11.358 -0.8560 -0.7450 -0.6081
  255MOL0     H35145   9.103  11.626  11.403  0.1870 -2.4745 -0.4380
  255MOL0     H35146   9.309  11.652  11.613  1.7801  1.0881 -0.5415
  255MOL0     H35147   9.234  11.814  11.551 -1.7126  0.6183 -1.2348
  255MOL0     H35148   9.323  11.707  11.816  1.6147  0.8931  0.9195
  255MOL0     H35149   9.370  11.728  12.162 -0.1200  2.2677  1.2359
  255MOL0     H35150   9.385  11.874  12.070  3.0224 -0.5148 -1.7611
  255MOL0     H35151   9.450  11.725  12.003  1.3875  0.7843  1.4172
  255MOL0     H35152   8.869  11.661  12.459 -2.0716 -0.5304 -2.6427
  255MOL0     H35153   8.780  11.773  12.664 -0.3381  0.2227  0.5004
  255MOL0     H35154   8.575  12.094  12.600 -0.1002 -0.8792 -0.1570
  255MOL0     H35155   8.549  11.971  12.720 -0.7151  1.3970  2.3214
  255MOL0     H35156   8.437  12.137  12.804 -0.3395  1.4727  0.5464
  255MOL0     H35157   8.588  12.122  12.899  0.2223 -2.4216 -0.0733
  255MOL0     H35158   8.624  12.347  12.856  0.5718 -1.1055 -0.0641
  255MOL0     H35159   8.457  12.355  12.804 -0.7104 -1.5743 -1.6056
  255MOL0     H35160   8.519  12.311  12.574 -1.7905  2.5242 -1.1534
  255MOL0     H35161   8.701  12.319  12.616 -1.4129 -2.9657 -1.0221
  255MOL0     H35162   8.488  12.545  12.658  0.6335  1.9088 -0.7013
  255MOL0     H35163   8.639  12.539  12.739  1.6497  1.0444 -1.5521
  255MOL0     H35164   8.594  12.530  12.437  1.1436 -3.1220 -0.0975
  255MOL0     H35165   8.751  12.532  12.525  0.8412  2.2265  2.2934
  255MOL0     H35166   8.727  12.772  12.585 -0.0793  0.7367 -1.5875
  255MOL0     H35167   8.567  12.772  12.577  0.2599  1.1572 -0.2160
  255MOL0     H35168   8.636  12.887  12.368 -3.1376  0.1622 -0.3764
  255MOL0     H35169   8.552  12.743  12.330  0.2463 -1.3996  1.1532
  255MOL0     H35170   8.826  12.159  12.486  1.3186  0.1600  0.7533
  255MOL0     H35171   8.956  12.035  12.287  0.3726  0.4496  0.0814
  255MOL0     H35172   8.883  11.742  12.023  0.4009 -2.2353  1.4925
  255MOL0     H35173   8.886  11.715  11.788  0.8888  1.5863 -0.1798
  255MOL0     H35174  10.468  11.699  10.276  2.1442  2.0291  0.6376
  255MOL0     H35175  10.722  11.727  10.342  0.3586 -0.8487  2.1715
  255MOL0     H35176  11.096  11.533  10.509  2.2835  0.4292  0.7686
  255MOL0     H35177  11.312  11.579  10.574  1.3781  2.5539 -0.4394
  255MOL0     H35178  11.627  11.556  10.270  0.6831  3.1411  0.1924
  255MOL0     H35179  11.726  11.563  10.417  1.4767 -4.0673 -1.7353
  255MOL0     H35180  11.504  11.369  10.423 -0.3776 -1.0272 -0.1198
  255MOL0     H35181  11.645  11.379  10.526  0.4217 -0.5253 -0.5493
  255MOL0     H35182  11.644  11.332  10.226 -0.0052  0.8874  0.8374
  255MOL0     H35183  11.798  11.319  10.328  0.4476  1.0394  1.1060
  255MOL0     H35184  11.549  11.151  10.298  0.3766  0.1768 -2.6546
  255MOL0     H35185  11.669  11.131  10.439  0.4665 -1.2513 -0.4181
  255MOL0     H35186  11.797  10.963  10.046 -2.8254 -0.1642  0.1052
  255MOL0     H35187  11.414  11.645  10.155 -0.8506 -3.3336 -2.6674
  255MOL0     H35188  11.160  11.506   9.992  5.9459 -2.5648 -1.6677
  255MOL0     H35189  11.106  11.671  10.031  0.0176 -0.0170 -0.7094
  255MOL0     H35190  11.278  11.633   9.982 -1.0342 -0.8932 -1.4496
  256MOL0     O35191   1.994   1.769  11.504 -0.5369 -0.1843 -0.0111
  256MOL0     C35192   2.059   1.797  11.405 -0.9842  0.2925 -0.0138
  256MOL0     O35193   2.069   1.917  11.348 -0.0470 -0.4772  0.3195
  256MOL0     C35194   2.038   2.023  11.418  0.4860 -0.0115  1.3070
  256MOL0     C35195   1.990   2.137  11.346 -0.2905 -0.4570 -0.5111
  256MOL0     C35196   1.951   2.254  11.418 -0.0211 -0.0692  0.0584
  256MOL0     C35197   1.978   2.268  11.555 -0.5126 -0.8460  0.7296
  256MOL0     O35198   1.937   2.374  11.633 -0.5276  0.4180  0.3000
  256MOL0     C35199   1.824   2.452  11.591  0.1459  0.1398  0.9649
  256MOL0     C35200   1.800   2.545  11.709  0.4142 -0.5460  0.1953
  256MOL0     C35201   1.920   2.641  11.718 -0.6673  1.1331  0.4937
  256MOL0     C35202   1.918   2.715  11.850  0.1414 -0.1574 -0.0230
  256MOL0     C35203   2.038   2.813  11.871 -0.2368  0.2788 -0.1113
  256MOL0     C35204   2.017   2.906  11.995 -0.5956  0.4353 -0.5591
  256MOL0     C35205   2.040   2.821  12.124 -0.3433 -0.5741  0.5681
  256MOL0     C35206   2.035   2.914  12.250 -0.0439  0.1581  0.3478
  256MOL0     N35207   2.122   2.851  12.349 -0.1894  0.4017 -0.2464
  256MOL0     C35208   2.101   2.723  12.398  0.5329 -0.0590  0.8120
  256MOL0     C35209   2.188   2.702  12.495 -0.2294 -0.6670  0.1731
  256MOL0     C35210   2.217   2.574  12.570 -0.0750 -0.1254  0.8433
  256MOL0     C35211   2.173   2.581  12.707  0.5792  0.3948  1.0218
  256MOL0     C35212   2.243   2.474  12.788  0.5209  0.1066  0.2028
  256MOL0     C35213   2.234   2.504  12.944 -0.3282  0.2581 -0.0650
  256MOL0     O35214   2.307   2.627  12.979 -0.1383  0.5786 -0.2284
  256MOL0     C35215   2.295   2.662  13.110  1.0562 -0.2164 -0.1828
  256MOL0     C35216   2.259   2.789  13.157 -0.4175  0.1335  0.2872
  256MOL0     C35217   2.253   2.818  13.296 -0.2936 -0.0750  0.6528
  256MOL0     C35218   2.242   2.963  13.335  0.1423  0.1459 -0.1352
  256MOL0     C35219   2.271   2.717  13.387  1.0692 -0.3111  0.0555
  256MOL0     C35220   2.229   2.708  13.532 -0.4504 -0.4898 -0.2113
  256MOL0     O35221   2.183   2.594  13.588 -0.2179  0.0496 -1.0472
  256MOL0     C35222   2.142   2.599  13.722  0.2925  0.1744  0.7260
  256MOL0     C35223   2.202   2.497  13.802 -0.5724 -0.8733 -0.2380
  256MOL0     C35224   2.174   2.499  13.939 -0.3942 -0.3997 -0.0833
  256MOL0     C35225   2.100   2.603  14.000  1.1186  0.3328 -0.6614
  256MOL0     O35226   2.088   2.619  14.138 -0.2200  0.6724 -0.2306
  256MOL0     C35227   2.072   2.744  14.189  0.3197 -0.5591 -0.6748
  256MOL0     C35228   2.071   2.741  14.346  0.6966  0.3901  0.2191
  256MOL0     C35229   2.183   2.654  14.410 -0.5187 -0.6135  0.9196
  256MOL0     C35230   2.306   2.741  14.444 -0.0561 -0.0385  0.0623
  256MOL0     C35231   2.319   2.826  14.570 -0.1981 -0.2849  0.7400
  256MOL0     C35232   2.472   2.860  14.607  0.0777  0.6390 -0.1350
  256MOL0     C35233   2.554   2.924  14.494 -0.6901 -0.3513 -1.0500
  256MOL0     C35234   2.686   2.954  14.556  0.2912  0.1995 -0.4821
  256MOL0    Cl35235   2.770   3.045  14.431  0.1144 -0.3574 -0.4297
  256MOL0     C35236   2.033   2.702  13.917 -0.5068 -0.1455  0.5376
  256MOL0     C35237   2.049   2.693  13.774  0.3617  0.3170 -0.2257
  256MOL0     O35238   2.236   2.815  13.595  0.0292 -0.2974  0.1328
  256MOL0     C35239   2.309   2.585  13.335  0.7988 -0.5104  0.0391
  256MOL0     C35240   2.316   2.563  13.204  0.4308  0.3167 -1.3309
  256MOL0     N35241   2.249   2.830  12.517  0.7136 -0.6741 -0.1383
  256MOL0     N35242   2.209   2.916  12.427  0.4436  0.6120  0.0790
  256MOL0     C35243   2.037   2.159  11.624  0.3228  0.2542 -0.0398
  256MOL0     C35244   2.055   2.041  11.561  0.7129 -0.9914  0.4048
  256MOL0     C35245   2.145   1.699  11.334 -0.3636 -0.4674  0.4749
  256MOL0     C35246   2.257   1.743  11.252 -0.2513  1.2837 -0.3909
  256MOL0     C35247   2.345   1.650  11.195 -0.1642  0.3965 -0.6973
  256MOL0     C35248   2.323   1.512  11.207 -0.3927 -0.0008 -0.0893
  256MOL0     O35249   2.387   1.417  11.145  0.1077 -0.5208 -0.7830
  256MOL0     C35250   2.530   1.433  11.114 -0.1556  0.1854  0.4638
  256MOL0     C35251   2.543   1.472  10.967 -0.5902  0.9097 -0.4332
  256MOL0     C35252   2.690   1.477  10.913 -0.4410 -0.2112 -0.3121
  256MOL0     C35253   2.697   1.498  10.755 -0.2768  0.4544 -0.5715
  256MOL0     C35254   2.671   1.638  10.728  0.7373 -0.0049 -0.3909
  256MOL0     C35255   2.648   1.750  10.680 -0.1428 -1.1498 -0.3430
  256MOL0     C35256   2.213   1.476  11.288 -0.1929  0.7246  0.9847
  256MOL0     C35257   2.130   1.561  11.352 -0.3270 -0.0024 -0.0608
  256MOL0     C35258   2.023   1.499  11.441 -0.5073  0.0044 -1.0344
  256MOL0     H35259   1.993   2.134  11.238  1.6143  1.0334 -0.5413
  256MOL0     H35260   1.914   2.347  11.375 -0.9192 -0.4528 -0.0320
  256MOL0     H35261   1.748   2.377  11.571 -0.3685  1.0647 -0.7953
  256MOL0     H35262   1.849   2.504  11.498  1.9742  0.7629  1.7530
  256MOL0     H35263   1.710   2.593  11.669  0.8919 -1.6761 -2.4450
  256MOL0     H35264   1.778   2.500  11.807 -0.1087 -0.1642  0.2591
  256MOL0     H35265   2.021   2.602  11.701  0.2330  3.9131 -1.2543
  256MOL0     H35266   1.923   2.709  11.632 -0.2722 -1.1020 -1.3759
  256MOL0     H35267   1.830   2.777  11.830  0.0362 -1.0504 -2.8443
  256MOL0     H35268   1.897   2.638  11.924  0.6084 -1.0696 -0.8133
  256MOL0     H35269   2.050   2.882  11.787  3.7784 -2.4500 -2.1344
  256MOL0     H35270   2.135   2.761  11.869  0.0036  0.6731 -2.6588
  256MOL0     H35271   2.081   2.995  11.991  0.1256 -0.0065  0.6897
  256MOL0     H35272   1.914   2.942  11.989  0.1503  2.4240 -3.7786
  256MOL0     H35273   2.144   2.791  12.111  0.1001  1.7475 -2.2355
  256MOL0     H35274   1.975   2.733  12.117  0.4588 -1.0497 -1.7978
  256MOL0     H35275   2.063   3.017  12.225 -0.8630  0.6205  1.2585
  256MOL0     H35276   1.932   2.900  12.286  0.6039  0.1362  2.2959
  256MOL0     H35277   2.037   2.647  12.355 -0.3760  0.4729  1.2048
  256MOL0     H35278   2.326   2.565  12.565 -0.1704 -1.1034  0.2583
  256MOL0     H35279   2.154   2.498  12.522  0.4111 -0.2394  0.3688
  256MOL0     H35280   2.188   2.684  12.740 -2.3150  0.5200  2.2218
  256MOL0     H35281   2.066   2.561  12.711  0.9216 -1.7515  0.6499
  256MOL0     H35282   2.183   2.384  12.773  0.8614 -0.0587 -0.1845
  256MOL0     H35283   2.346   2.455  12.756  0.7463  1.7697 -0.1610
  256MOL0     H35284   2.129   2.515  12.972  0.3926  1.2471  2.4708
  256MOL0     H35285   2.284   2.421  12.995  1.3161 -0.2076 -2.2551
  256MOL0     H35286   2.230   2.868  13.088 -0.4571  1.4857  1.7978
  256MOL0     H35287   2.202   3.023  13.253 -0.5051 -1.3871 -0.9801
  256MOL0     H35288   2.338   3.006  13.364 -0.0063  0.9272 -0.7556
  256MOL0     H35289   2.169   2.980  13.414  1.1727 -1.5930  1.2483
  256MOL0     H35290   2.281   2.437  13.759 -0.7933 -0.9480 -0.5461
  256MOL0     H35291   2.213   2.413  13.992  2.5547  0.0400 -1.3462
  256MOL0     H35292   2.151   2.816  14.167  1.4395 -1.4722  0.1757
  256MOL0     H35293   1.971   2.779  14.169  1.3612  2.6771 -0.7804
  256MOL0     H35294   2.077   2.844  14.383 -1.5417  1.4632 -2.0422
  256MOL0     H35295   1.974   2.708  14.386  0.3202  3.1296  1.8332
  256MOL0     H35296   2.208   2.579  14.334 -1.8901  0.1653 -0.3343
  256MOL0     H35297   2.164   2.589  14.496 -0.6046  0.1796  1.5113
  256MOL0     H35298   2.334   2.799  14.356 -0.1008  2.3733  1.5408
  256MOL0     H35299   2.388   2.670  14.458 -0.2934 -0.3160  0.0470
  256MOL0     H35300   2.253   2.913  14.568 -0.1486 -0.2191  1.6821
  256MOL0     H35301   2.283   2.770  14.657  2.7486 -0.2195  2.1016
  256MOL0     H35302   2.513   2.763  14.638 -0.4028  0.2702 -0.6125
  256MOL0     H35303   2.493   2.924  14.692  1.7061 -0.2238  0.1426
  256MOL0     H35304   2.505   3.012  14.451 -1.9781  0.6231  2.1098
  256MOL0     H35305   2.561   2.853  14.411 -2.7639  1.0852 -2.5442
  256MOL0     H35306   2.741   2.866  14.589 -0.1644  0.3520  0.7406
  256MOL0     H35307   2.683   3.019  14.644  2.7781  0.5901 -0.6246
  256MOL0     H35308   1.969   2.783  13.951 -0.0751 -0.6677  2.6937
  256MOL0     H35309   2.002   2.767  13.709  2.0835  4.8478  3.1932
  256MOL0     H35310   2.321   2.506  13.408  2.4921  0.8332  1.2986
  256MOL0     H35311   2.358   2.466  13.179 -0.0745  0.7067 -4.0585
  256MOL0     H35312   2.058   2.172  11.730 -0.5472 -1.4855  0.3872
  256MOL0     H35313   2.094   1.961  11.623 -2.5572 -1.8937  1.4862
  256MOL0     H35314   2.288   1.846  11.238  3.0322  0.5641  0.6601
  256MOL0     H35315   2.427   1.693  11.138  3.2911 -0.6113  3.0200
  256MOL0     H35316   2.564   1.512  11.182  0.9460 -1.8439  2.4179
  256MOL0     H35317   2.587   1.342  11.133  2.8904  1.8797  0.0948
  256MOL0     H35318   2.485   1.563  10.949 -2.7039 -0.2581  0.0844
  256MOL0     H35319   2.495   1.393  10.908 -0.1377 -0.2817  0.7503
  256MOL0     H35320   2.743   1.560  10.962 -1.0045 -0.5818  0.9747
  256MOL0     H35321   2.744   1.386  10.941 -0.0823 -1.4262 -4.4099
  256MOL0     H35322   2.620   1.436  10.709 -1.1663  0.5547  0.7292
  256MOL0     H35323   2.799   1.479  10.721 -0.2036 -1.4709  0.5668
  256MOL0     H35324   2.646   1.853  10.649  0.2350 -2.1329 -4.1347
  256MOL0     H35325   2.178   1.373  11.293 -0.1235  0.6941  0.8548
  256MOL0     H35326   2.041   1.530  11.544 -1.5909 -4.5012  0.7545
  256MOL0     H35327   1.923   1.531  11.411 -2.0515 -1.4830  2.0441
  256MOL0     H35328   2.019   1.390  11.442  0.9120 -0.1667  2.5706
  257MOL0     O35329   0.190   9.726   6.532  0.4344 -0.3776  0.3283
  257MOL0     C35330   0.275   9.637   6.505 -0.0912 -0.9345 -0.2799
  257MOL0     O35331   0.284   9.566   6.388 -0.2662 -0.6128 -0.5744
  257MOL0     C35332   0.197   9.604   6.281  0.4205  0.0867  0.3130
  257MOL0     C35333   0.070   9.663   6.268  0.6769  0.2158 -1.1668
  257MOL0     C35334   0.004   9.667   6.147 -0.0942 -0.1039 -0.4800
  257MOL0     C35335   0.049   9.614   6.033  0.2028 -0.7789  0.2944
  257MOL0     O35336  -0.018   9.615   5.914  0.5112  0.1298 -0.2405
  257MOL0     C35337  -0.129   9.705   5.889 -1.0218 -0.2588  0.1696
  257MOL0     C35338  -0.187   9.709   5.747  0.6566  1.6107  0.6740
  257MOL0     C35339  -0.072   9.719   5.652 -0.1396  0.0709  0.5990
  257MOL0     C35340  -0.119   9.761   5.510  0.6070 -0.0301 -0.1324
  257MOL0     C35341   0.008   9.806   5.422 -0.2309  0.4622 -0.4246
  257MOL0     C35342   0.105   9.695   5.384  0.0934  0.1464  0.0647
  257MOL0     C35343   0.068   9.547   5.364 -0.1147 -1.5431  0.1163
  257MOL0     C35344  -0.013   9.523   5.232  0.5200  0.0394 -0.4861
  257MOL0     N35345  -0.011   9.380   5.197  0.5608 -0.3207 -0.0631
  257MOL0     C35346   0.096   9.292   5.215  0.5463  0.0013 -0.5671
  257MOL0     C35347   0.056   9.186   5.148 -0.8381 -0.3783 -0.2136
  257MOL0     C35348   0.122   9.055   5.137  0.7616 -0.0469  0.2704
  257MOL0     C35349   0.030   8.939   5.183 -0.7949  0.3702 -0.0040
  257MOL0     C35350   0.001   8.927   5.334  0.3956 -0.0840 -0.3883
  257MOL0     C35351   0.129   8.913   5.419 -0.1763 -0.4348  0.2934
  257MOL0     O35352   0.166   8.784   5.445  0.3926 -0.1349  0.0415
  257MOL0     C35353   0.265   8.764   5.539 -0.8833 -0.7038 -0.0793
  257MOL0     C35354   0.294   8.631   5.580  0.3007  0.2495  0.1834
  257MOL0     C35355   0.396   8.602   5.673 -0.1834  0.1920  0.0551
  257MOL0     C35356   0.417   8.459   5.716  0.1592 -0.2917  0.6823
  257MOL0     C35357   0.466   8.710   5.732 -0.9344 -0.2887 -0.1985
  257MOL0     C35358   0.568   8.693   5.846  0.0214 -0.5119  0.4810
  257MOL0     O35359   0.669   8.782   5.862 -0.1181  1.1476  0.4671
  257MOL0     C35360   0.731   8.780   5.977  0.4980 -0.1785 -0.4912
  257MOL0     C35361   0.859   8.734   5.987 -0.5026  0.1212  0.4293
  257MOL0     C35362   0.930   8.763   6.090  0.0227 -1.3423  0.0266
  257MOL0     C35363   0.876   8.833   6.196 -0.3776 -0.3879  0.5404
  257MOL0     O35364   0.949   8.862   6.306  0.1739  0.5651 -0.1696
  257MOL0     C35365   1.046   8.969   6.281  0.0394 -0.6328 -0.2523
  257MOL0     C35366   1.072   9.016   6.420 -0.3024 -0.2131  0.2311
  257MOL0     C35367   1.183   9.124   6.443  0.4977  0.1233 -0.3809
  257MOL0     C35368   1.323   9.068   6.479 -0.5458 -0.4177 -0.1096
  257MOL0     C35369   1.377   8.934   6.421 -0.0456 -0.6542  0.5373
  257MOL0     C35370   1.507   8.904   6.490 -0.1533  0.3903  0.2794
  257MOL0     C35371   1.604   8.830   6.399  0.4869 -0.8405 -0.7478
  257MOL0     C35372   1.696   8.926   6.321 -0.5775 -0.6074  0.5295
  257MOL0    Cl35373   1.612   9.030   6.193  0.2058 -0.1937 -0.0325
  257MOL0     C35374   0.734   8.865   6.206  1.0420  0.0792 -0.3406
  257MOL0     C35375   0.664   8.846   6.086 -0.4597 -0.5223  0.0332
  257MOL0     O35376   0.545   8.605   5.920  0.6306  0.5322 -0.4441
  257MOL0     C35377   0.445   8.847   5.682 -0.3966  0.1280  0.2271
  257MOL0     C35378   0.339   8.872   5.592  0.2692  0.5571  0.9355
  257MOL0     N35379  -0.063   9.209   5.095 -0.3142  0.1442  0.0236
  257MOL0     N35380  -0.101   9.324   5.115  0.7531 -0.5809 -0.0245
  257MOL0     C35381   0.180   9.558   6.040  0.5885 -0.3913  0.0252
  257MOL0     C35382   0.252   9.562   6.160 -0.0533  0.4742 -0.5668
  257MOL0     C35383   0.374   9.600   6.610 -0.5104 -0.4103  0.8493
  257MOL0     C35384   0.443   9.484   6.588 -0.0123  0.0286 -0.2642
  257MOL0     C35385   0.529   9.428   6.682  0.0994  0.0613  0.1648
  257MOL0     C35386   0.554   9.494   6.800  0.4185  0.3592 -0.0315
  257MOL0     O35387   0.626   9.429   6.894  0.0260 -0.4537 -0.6766
  257MOL0     C35388   0.551   9.311   6.941  0.1413 -0.4655  0.5328
  257MOL0     C35389   0.560   9.315   7.092  0.1714 -0.0966  0.8898
  257MOL0     C35390   0.418   9.333   7.144 -0.6461  0.3918  1.1651
  257MOL0     C35391   0.420   9.332   7.299 -0.5085 -0.3858  0.0376
  257MOL0     C35392   0.429   9.208   7.372  0.2741  0.6504 -0.5147
  257MOL0     C35393   0.447   9.102   7.443 -0.3250 -0.1692 -0.0409
  257MOL0     C35394   0.494   9.622   6.817 -1.0586  0.1816 -0.5978
  257MOL0     C35395   0.406   9.677   6.725 -0.0950 -1.0663  0.5632
  257MOL0     C35396   0.368   9.820   6.764 -0.0833 -0.2061  0.5166
  257MOL0     H35397   0.031   9.716   6.354 -0.2951 -0.8373 -0.9366
  257MOL0     H35398  -0.096   9.706   6.130 -0.6832 -2.5723 -3.6468
  257MOL0     H35399  -0.093   9.804   5.919  1.3042 -2.0962  4.4791
  257MOL0     H35400  -0.212   9.671   5.951 -2.5732 -0.9215 -2.1233
  257MOL0     H35401  -0.244   9.618   5.725  3.2735  0.8751 -4.8228
  257MOL0     H35402  -0.255   9.794   5.746  0.4621  1.4535  0.1054
  257MOL0     H35403   0.008   9.786   5.685  0.3043  0.0966 -0.4954
  257MOL0     H35404  -0.027   9.620   5.637 -0.5144  0.1388 -1.1452
  257MOL0     H35405  -0.172   9.682   5.456 -1.1809  1.2360 -0.3069
  257MOL0     H35406  -0.194   9.840   5.516 -0.1107 -0.7981  4.1338
  257MOL0     H35407   0.070   9.884   5.468 -1.8614  1.4012  0.2614
  257MOL0     H35408  -0.037   9.859   5.338 -3.9264  1.0398  1.7335
  257MOL0     H35409   0.162   9.735   5.300  2.5127 -2.4792  0.3214
  257MOL0     H35410   0.171   9.709   5.470 -3.5215  3.6416  2.6082
  257MOL0     H35411   0.019   9.504   5.452  0.7607  0.9157  1.9115
  257MOL0     H35412   0.163   9.494   5.356  1.8243  1.1507  2.7414
  257MOL0     H35413  -0.111   9.571   5.230  0.8010  0.7714  1.3123
  257MOL0     H35414   0.044   9.558   5.145 -2.1118  1.1268 -1.9163
  257MOL0     H35415   0.188   9.295   5.272  0.5368  2.9693 -0.5332
  257MOL0     H35416   0.221   9.057   5.183  0.0901  1.8740  1.7726
  257MOL0     H35417   0.141   9.041   5.030 -2.8146  1.5516 -0.7269
  257MOL0     H35418  -0.067   8.945   5.133  0.1975 -0.7450 -2.1815
  257MOL0     H35419   0.085   8.850   5.151  1.1016  1.5237 -0.1067
  257MOL0     H35420  -0.046   9.019   5.371  1.8648  0.6184 -0.1948
  257MOL0     H35421  -0.064   8.840   5.349 -0.2290  0.3492 -0.5745
  257MOL0     H35422   0.212   8.962   5.368 -2.1323  1.2768 -1.4921
  257MOL0     H35423   0.110   8.969   5.511 -0.7023  2.2673 -1.3148
  257MOL0     H35424   0.239   8.551   5.532  0.1088 -0.9337  2.2725
  257MOL0     H35425   0.523   8.435   5.728  0.3598  0.2495  0.0213
  257MOL0     H35426   0.383   8.392   5.636 -2.3322  1.9524 -0.2845
  257MOL0     H35427   0.358   8.443   5.807  0.0061  0.1287  0.6582
  257MOL0     H35428   0.888   8.671   5.904 -2.1271 -3.3994  2.3030
  257MOL0     H35429   1.033   8.732   6.096 -0.1440 -2.0390 -0.6041
  257MOL0     H35430   1.145   8.947   6.240  0.6533 -0.1506  0.9168
  257MOL0     H35431   1.002   9.054   6.229 -2.4823 -0.5394  1.8650
  257MOL0     H35432   0.980   9.065   6.455 -0.9399  0.4227 -2.1277
  257MOL0     H35433   1.088   8.937   6.493 -0.3300 -1.1382 -0.7364
  257MOL0     H35434   1.171   9.204   6.517  3.0774 -0.1016  0.3929
  257MOL0     H35435   1.191   9.188   6.355 -0.0107  0.3901 -0.2327
  257MOL0     H35436   1.323   9.048   6.587 -1.9419 -1.2072 -0.2309
  257MOL0     H35437   1.386   9.155   6.459 -1.5929  0.1077 -1.2688
  257MOL0     H35438   1.305   8.856   6.446  0.0348 -0.9742 -0.2264
  257MOL0     H35439   1.400   8.943   6.314 -0.2228  0.4266  0.5743
  257MOL0     H35440   1.481   8.848   6.581  3.3843 -2.4295 -0.2415
  257MOL0     H35441   1.566   8.986   6.531 -2.0809  0.1671  3.9708
  257MOL0     H35442   1.547   8.777   6.322 -0.3207 -1.5028  0.2770
  257MOL0     H35443   1.669   8.754   6.443 -1.1303 -2.6935 -1.3715
  257MOL0     H35444   1.753   8.856   6.258  0.9337  0.4368  0.6738
  257MOL0     H35445   1.756   8.981   6.395  0.1466  1.9056 -1.7789
  257MOL0     H35446   0.676   8.915   6.283 -0.5506  1.7978 -2.5161
  257MOL0     H35447   0.565   8.884   6.064  0.0344 -0.0645 -1.5090
  257MOL0     H35448   0.504   8.932   5.714  0.1528 -0.2802  0.3110
  257MOL0     H35449   0.328   8.972   5.551  0.8019 -0.4299 -1.8250
  257MOL0     H35450   0.240   9.508   5.964 -0.9659 -1.2204 -0.7126
  257MOL0     H35451   0.352   9.522   6.151 -0.2299 -0.3267  0.8294
  257MOL0     H35452   0.406   9.417   6.511  2.5201  0.4262 -1.9412
  257MOL0     H35453   0.563   9.325   6.674 -0.6432 -0.1506 -0.3858
  257MOL0     H35454   0.444   9.315   6.917 -0.4507  0.6853  2.9858
  257MOL0     H35455   0.607   9.223   6.909  2.8554  1.2793  0.1210
  257MOL0     H35456   0.618   9.402   7.124 -2.0279  1.6904  0.2416
  257MOL0     H35457   0.604   9.219   7.121 -1.8407 -2.1171 -2.1914
  257MOL0     H35458   0.390   9.436   7.122 -0.2488  0.1725 -0.5419
  257MOL0     H35459   0.349   9.257   7.106 -0.8380  1.0918  0.0769
  257MOL0     H35460   0.320   9.369   7.324  0.5836  3.1958 -0.3007
  257MOL0     H35461   0.492   9.406   7.336 -1.7198  0.4177  0.8783
  257MOL0     H35462   0.463   9.025   7.516 -3.7634 -2.4586 -1.4541
  257MOL0     H35463   0.517   9.672   6.911 -2.5448 -1.8695  0.9277
  257MOL0     H35464   0.260   9.833   6.763  0.0314  1.1056  1.6172
  257MOL0     H35465   0.404   9.859   6.860 -1.6522  1.1665  0.5903
  257MOL0     H35466   0.406   9.883   6.683  0.3685 -1.6588 -0.4417
  258MOL0     O35467   6.955   2.117   0.351  0.4830 -0.3710  0.0206
  258MOL0     C35468   7.061   2.060   0.382 -0.8825  0.3132  0.9793
  258MOL0     O35469   7.180   2.126   0.377 -0.3062 -0.7614  0.0478
  258MOL0     C35470   7.182   2.265   0.366 -0.5670  0.6975 -0.1813
  258MOL0     C35471   7.157   2.317   0.240 -0.6626 -0.2760  0.0828
  258MOL0     C35472   7.164   2.460   0.221  0.0034  0.8120  0.0878
  258MOL0     C35473   7.191   2.544   0.326 -0.5506 -0.7649  0.3648
  258MOL0     O35474   7.200   2.677   0.293  0.8126 -0.4377  0.9393
  258MOL0     C35475   7.230   2.774   0.390 -0.7266 -0.4209 -0.1291
  258MOL0     C35476   7.181   2.901   0.322 -0.9796 -0.5637 -0.2973
  258MOL0     C35477   7.198   3.028   0.407  0.6765 -0.3778 -0.4751
  258MOL0     C35478   7.131   3.161   0.336  0.7121  0.6516  0.7999
  258MOL0     C35479   6.984   3.157   0.319 -0.0754 -0.3941  0.2336
  258MOL0     C35480   6.940   3.274   0.233 -0.6345 -0.5416  0.5305
  258MOL0     C35481   6.794   3.259   0.196 -0.5669 -0.6138  0.4296
  258MOL0     C35482   6.749   3.393   0.127  0.6521  0.5496  0.2913
  258MOL0     N35483   6.642   3.374   0.034 -0.1520  0.0621 -0.4984
  258MOL0     C35484   6.669   3.332  -0.098  0.1717  1.2110 -1.4513
  258MOL0     C35485   6.540   3.312  -0.145 -0.2161 -0.0485  0.2406
  258MOL0     C35486   6.496   3.258  -0.285  0.1358  0.6640  0.4455
  258MOL0     C35487   6.509   3.365  -0.402  0.2057  0.4489  0.0489
  258MOL0     C35488   6.447   3.501  -0.359 -0.1586  0.2608  0.7117
  258MOL0     C35489   6.303   3.507  -0.330  1.1359  0.2173  0.0376
  258MOL0     O35490   6.269   3.643  -0.297  0.6865  0.5511  0.0892
  258MOL0     C35491   6.314   3.705  -0.191 -0.9098 -0.1420  0.2763
  258MOL0     C35492   6.384   3.822  -0.208 -0.7156  0.1855 -0.0835
  258MOL0     C35493   6.427   3.900  -0.096  0.8270 -0.8418  0.2017
  258MOL0     C35494   6.501   4.017  -0.135 -0.1752 -0.3397  0.4045
  258MOL0     C35495   6.398   3.866   0.037  0.6386  0.0639  0.1025
  258MOL0     C35496   6.417   3.960   0.151  0.2145  1.5909 -0.3329
  258MOL0     O35497   6.482   4.080   0.143 -0.5824  0.5815  0.4696
  258MOL0     C35498   6.516   4.140   0.262 -0.2807  0.0229  0.5323
  258MOL0     C35499   6.437   4.240   0.324 -0.6431  0.7679 -0.4302
  258MOL0     C35500   6.477   4.308   0.444  0.6674  0.9734 -0.4726
  258MOL0     C35501   6.598   4.293   0.498 -1.1543  0.1480 -0.6640
  258MOL0     O35502   6.630   4.366   0.606 -0.5626 -0.8250  0.0277
  258MOL0     C35503   6.693   4.292   0.714 -0.0718  0.3275 -0.2987
  258MOL0     C35504   6.670   4.355   0.854 -0.2229 -0.6806  0.8675
  258MOL0     C35505   6.757   4.477   0.887  0.4354  0.1864  0.3068
  258MOL0     C35506   6.696   4.562   1.002 -1.0409 -0.6610 -0.1924
  258MOL0     C35507   6.572   4.658   0.976 -0.6421 -0.0059 -0.2038
  258MOL0     C35508   6.524   4.735   1.095  0.3927 -0.4731  0.0812
  258MOL0     C35509   6.405   4.658   1.161 -1.0160 -0.5869 -0.2045
  258MOL0     C35510   6.317   4.758   1.241 -0.0407  0.5481  0.1250
  258MOL0    Cl35511   6.217   4.863   1.129 -0.3669  0.1084  0.1290
  258MOL0     C35512   6.688   4.217   0.422 -0.1398  0.6650  0.6346
  258MOL0     C35513   6.651   4.148   0.308  0.7655 -0.9402 -0.6098
  258MOL0     O35514   6.348   3.923   0.248  0.3083 -1.5648 -0.1250
  258MOL0     C35515   6.346   3.735   0.047  0.6223  0.3317  0.2664
  258MOL0     C35516   6.303   3.661  -0.063 -0.3440  0.8131 -0.1665
  258MOL0     N35517   6.447   3.349  -0.045  0.6488  1.0304  0.3890
  258MOL0     N35518   6.513   3.408   0.046 -0.2275  0.2604 -0.4177
  258MOL0     C35519   7.213   2.491   0.455 -0.1588  0.1116  0.2399
  258MOL0     C35520   7.209   2.353   0.467 -0.4917  0.5933 -0.1567
  258MOL0     C35521   7.069   1.916   0.423  0.4710  0.3611  0.4459
  258MOL0     C35522   7.173   1.832   0.393 -0.4452 -0.0660  0.1973
  258MOL0     C35523   7.200   1.703   0.423 -0.4134  0.4186 -0.6293
  258MOL0     C35524   7.100   1.658   0.512 -0.0361  0.0137 -0.4176
  258MOL0     O35525   7.121   1.532   0.571  0.7077  0.2537  1.2728
  258MOL0     C35526   7.138   1.413   0.493  0.2302 -0.4018  1.3821
  258MOL0     C35527   7.030   1.313   0.529 -0.2314  0.8047 -0.8873
  258MOL0     C35528   6.891   1.360   0.534  0.9479  0.0100  0.5829
  258MOL0     C35529   6.816   1.385   0.404  0.0884  0.0062 -0.2733
  258MOL0     C35530   6.862   1.491   0.313  0.2997 -0.3441 -0.0352
  258MOL0     C35531   6.914   1.587   0.250 -1.0683  0.2958  0.6887
  258MOL0     C35532   6.993   1.730   0.557  0.1731 -0.5774  0.2678
  258MOL0     C35533   6.976   1.857   0.506 -0.1679  1.1450  0.3655
  258MOL0     C35534   6.862   1.931   0.560 -0.0004  0.0247  0.6568
  258MOL0     H35535   7.128   2.249   0.160 -0.2455 -1.8120  1.1790
  258MOL0     H35536   7.130   2.506   0.129 -2.3464  0.9193  0.9260
  258MOL0     H35537   7.335   2.778   0.419 -0.0175  1.1592 -2.5638
  258MOL0     H35538   7.167   2.770   0.479  0.1501 -0.9338  0.4737
  258MOL0     H35539   7.245   2.914   0.234 -0.5500  1.1195  0.2236
  258MOL0     H35540   7.078   2.876   0.298 -1.1678 -0.7789  0.7085
  258MOL0     H35541   7.149   3.015   0.504 -0.3724 -0.1130 -0.9614
  258MOL0     H35542   7.304   3.042   0.430  0.7675 -4.2222  2.2848
  258MOL0     H35543   7.169   3.249   0.390  0.2099  1.9234 -0.8338
  258MOL0     H35544   7.186   3.178   0.243 -0.2881  0.5233  0.1675
  258MOL0     H35545   6.933   3.169   0.414  2.9439  1.0477  1.8051
  258MOL0     H35546   6.953   3.063   0.271 -0.3155 -0.7382  1.0548
  258MOL0     H35547   6.946   3.366   0.292  2.7820 -0.7200  0.6595
  258MOL0     H35548   7.007   3.281   0.147 -0.7493  0.7640  0.5215
  258MOL0     H35549   6.728   3.253   0.283 -1.2520 -0.4074 -0.0685
  258MOL0     H35550   6.777   3.182   0.121  0.7047  0.0285 -0.5425
  258MOL0     H35551   6.735   3.473   0.200  0.9452 -0.4826  1.5196
  258MOL0     H35552   6.830   3.412   0.056  0.7192 -1.1843 -0.1491
  258MOL0     H35553   6.757   3.304  -0.156  1.5367  0.6831  0.7646
  258MOL0     H35554   6.397   3.216  -0.303  0.4340 -0.1466  0.6102
  258MOL0     H35555   6.557   3.168  -0.302 -2.9684 -1.3736 -0.6615
  258MOL0     H35556   6.617   3.384  -0.407 -0.0817  1.9425 -1.7259
  258MOL0     H35557   6.484   3.322  -0.499  0.6837  1.5699 -0.5883
  258MOL0     H35558   6.505   3.548  -0.280  0.3109 -0.1425  0.6072
  258MOL0     H35559   6.448   3.573  -0.442  2.1717  2.2054  2.3107
  258MOL0     H35560   6.251   3.466  -0.417 -1.7349  0.3397  1.5814
  258MOL0     H35561   6.274   3.437  -0.251 -2.7754 -0.4450 -1.7871
  258MOL0     H35562   6.410   3.848  -0.310 -0.0373  1.3886  0.3749
  258MOL0     H35563   6.443   4.109  -0.122  0.4573  0.0488  0.5190
  258MOL0     H35564   6.535   4.011  -0.239  1.2984 -0.0213  0.8419
  258MOL0     H35565   6.591   4.008  -0.074  1.3677 -1.8683 -1.9364
  258MOL0     H35566   6.341   4.270   0.283 -0.5383  0.2515 -1.0745
  258MOL0     H35567   6.409   4.388   0.474 -1.4087 -0.7369 -0.3885
  258MOL0     H35568   6.638   4.198   0.700  0.9119  0.1255 -3.3167
  258MOL0     H35569   6.799   4.274   0.696  0.0064 -1.9565  1.8103
  258MOL0     H35570   6.565   4.383   0.866 -0.5117 -0.2332 -2.0089
  258MOL0     H35571   6.700   4.274   0.923 -0.6902 -0.9665  0.7397
  258MOL0     H35572   6.780   4.534   0.797  2.9926 -0.7639  0.2876
  258MOL0     H35573   6.858   4.441   0.908 -0.7735 -2.8337  1.6930
  258MOL0     H35574   6.776   4.626   1.040  0.0266 -2.4965  0.8119
  258MOL0     H35575   6.666   4.495   1.084 -0.5722 -1.6173 -0.7846
  258MOL0     H35576   6.598   4.727   0.896 -0.4680  1.1802  0.8395
  258MOL0     H35577   6.499   4.586   0.938 -0.7011  0.2658 -0.6169
  258MOL0     H35578   6.488   4.829   1.051  2.1833 -0.0258 -0.4968
  258MOL0     H35579   6.601   4.759   1.168  0.0988  1.8257 -0.2625
  258MOL0     H35580   6.444   4.578   1.225  2.1192 -1.1991 -2.6472
  258MOL0     H35581   6.335   4.615   1.089  0.9196 -1.5975 -1.5687
  258MOL0     H35582   6.368   4.817   1.318  0.4065 -3.0061  2.8081
  258MOL0     H35583   6.243   4.700   1.297  1.6330 -1.9163 -0.1040
  258MOL0     H35584   6.793   4.215   0.451  0.9175 -2.9624 -2.7109
  258MOL0     H35585   6.722   4.081   0.260  1.7067 -0.8673  0.6303
  258MOL0     H35586   6.343   3.681   0.141 -0.0009 -2.3873 -1.2127
  258MOL0     H35587   6.269   3.561  -0.036  2.4647  0.0678  0.8941
  258MOL0     H35588   7.241   2.552   0.540  0.5957  1.4124 -0.8881
  258MOL0     H35589   7.232   2.312   0.565 -0.7843  1.8419  0.4685
  258MOL0     H35590   7.235   1.894   0.329  0.8945  0.2842  1.7613
  258MOL0     H35591   7.286   1.642   0.396 -0.0263  0.9596 -0.6359
  258MOL0     H35592   7.129   1.435   0.387  0.3060 -2.4294  0.9056
  258MOL0     H35593   7.238   1.374   0.512  0.2552 -0.0698  1.9655
  258MOL0     H35594   7.055   1.275   0.628  2.2581 -2.7072 -2.6481
  258MOL0     H35595   7.038   1.225   0.464 -1.6212  0.3534 -0.4900
  258MOL0     H35596   6.832   1.281   0.582  0.0872 -0.6651 -1.4792
  258MOL0     H35597   6.897   1.452   0.593  0.8572 -0.1369  0.8217
  258MOL0     H35598   6.708   1.388   0.421 -0.0082 -1.7677 -0.3697
  258MOL0     H35599   6.827   1.291   0.348  2.9085 -0.2860  0.6417
  258MOL0     H35600   6.933   1.664   0.178 -4.5417  2.0850  1.4581
  258MOL0     H35601   6.929   1.672   0.624 -0.6054  1.0232  0.9495
  258MOL0     H35602   6.790   1.849   0.564  0.6541 -0.9503 -3.3918
  258MOL0     H35603   6.879   1.960   0.664  0.6986  0.9722  0.2917
  258MOL0     H35604   6.824   2.022   0.512  0.2878  1.0094  2.2182
  259MOL0     O35605   0.511  11.371   3.128 -0.1768 -0.1137  0.1964
  259MOL0     C35606   0.617  11.426   3.101 -0.0037 -0.5748  0.5075
  259MOL0     O35607   0.627  11.548   3.048  0.3222  0.1362 -0.4046
  259MOL0     C35608   0.523  11.633   3.058  0.1345  0.5696  0.0166
  259MOL0     C35609   0.543  11.753   3.123  0.4971 -0.2983  0.5368
  259MOL0     C35610   0.452  11.858   3.115  0.6629  1.0778 -0.2533
  259MOL0     C35611   0.333  11.839   3.057 -0.5749 -0.5019 -0.3087
  259MOL0     O35612   0.235  11.935   3.078  0.2692 -0.1435  0.4086
  259MOL0     C35613   0.195  12.021   2.970 -0.0719 -1.4392 -0.1308
  259MOL0     C35614   0.095  12.122   3.020 -0.5665 -0.2081 -0.0383
  259MOL0     C35615   0.060  12.216   2.903 -0.8648  0.3650 -0.0177
  259MOL0     C35616   0.170  12.313   2.874  1.0727  0.3011 -0.1319
  259MOL0     C35617   0.128  12.437   2.788  0.9012  0.0837  0.0469
  259MOL0     C35618   0.234  12.541   2.758 -0.2551 -0.1728  0.2564
  259MOL0     C35619   0.189  12.686   2.733 -0.2765 -0.8011  0.2557
  259MOL0     C35620   0.076  12.694   2.619  0.2275 -1.1618 -0.5679
  259MOL0     N35621   0.025  12.831   2.597  0.1191 -0.5590  0.1476
  259MOL0     C35622   0.099  12.942   2.582  0.3345 -0.5233  0.8525
  259MOL0     C35623   0.013  13.045   2.566  0.2209  0.1956 -0.3581
  259MOL0     C35624   0.054  13.199   2.556 -0.6380  0.8465 -0.9802
  259MOL0     C35625   0.148  13.224   2.437 -0.9718 -0.9545 -0.3992
  259MOL0     C35626   0.190  13.368   2.418 -0.3812  0.3891 -0.1194
  259MOL0     C35627   0.284  13.402   2.299  0.2570 -0.4395 -0.2048
  259MOL0     O35628   0.397  13.314   2.296 -0.0336  0.4321  0.4851
  259MOL0     C35629   0.482  13.341   2.195  0.0798 -0.5344  0.5654
  259MOL0     C35630   0.606  13.378   2.240  0.2351  1.0091  0.6246
  259MOL0     C35631   0.713  13.407   2.143 -0.1007 -0.6326 -0.5063
  259MOL0     C35632   0.857  13.413   2.195 -0.1523 -0.1796  1.3943
  259MOL0     C35633   0.685  13.419   2.009  0.4006 -0.5426 -0.1675
  259MOL0     C35634   0.780  13.472   1.910  0.1542 -0.0323  0.3514
  259MOL0     O35635   0.763  13.417   1.784  0.8029 -0.3398 -0.2753
  259MOL0     C35636   0.842  13.450   1.676  0.5321 -0.3866  0.1300
  259MOL0     C35637   0.787  13.453   1.542 -1.4158  0.3695  0.1504
  259MOL0     C35638   0.870  13.494   1.437  0.1426 -0.0978 -0.5083
  259MOL0     C35639   1.000  13.531   1.452 -0.2776  0.0167 -0.3506
  259MOL0     O35640   1.072  13.567   1.335 -0.2531  0.6673  0.5914
  259MOL0     C35641   1.194  13.628   1.341  0.3786 -1.2044 -0.1422
  259MOL0     C35642   1.231  13.654   1.196 -1.0483  0.2440  0.1360
  259MOL0     C35643   1.368  13.730   1.164 -0.2240 -0.0049  0.1555
  259MOL0     C35644   1.383  13.730   1.013  0.3541 -1.0948  0.3710
  259MOL0     C35645   1.525  13.756   0.960 -0.3679 -0.1075 -0.0706
  259MOL0     C35646   1.586  13.894   0.984  0.5810  0.5797 -0.5159
  259MOL0     C35647   1.739  13.892   1.021 -0.2530  0.3944 -0.7316
  259MOL0     C35648   1.812  14.026   1.010  1.6844  0.1648  0.2938
  259MOL0    Cl35649   1.808  14.088   0.848  0.3814 -0.1603  0.1611
  259MOL0     C35650   1.057  13.529   1.576 -0.4646 -0.3892  0.2632
  259MOL0     C35651   0.982  13.493   1.687  0.5308  0.5225 -0.2739
  259MOL0     O35652   0.863  13.556   1.932  1.0687 -0.6163 -0.3237
  259MOL0     C35653   0.553  13.382   1.965 -0.7595  0.0207 -0.1207
  259MOL0     C35654   0.448  13.353   2.057  0.5789 -0.4727  1.0583
  259MOL0     N35655  -0.118  13.014   2.585  0.9365 -0.9088 -0.0240
  259MOL0     N35656  -0.105  12.881   2.605  1.0553  0.0287  0.7153
  259MOL0     C35657   0.312  11.725   2.992  0.7498  0.4580  0.1891
  259MOL0     C35658   0.397  11.619   2.983  0.0535  0.0239 -1.0220
  259MOL0     C35659   0.743  11.346   3.122 -0.4878  0.4021  0.5928
  259MOL0     C35660   0.823  11.293   3.017  1.0265  0.2877  0.3244
  259MOL0     C35661   0.947  11.238   3.039  0.0420 -0.3127  0.0746
  259MOL0     C35662   0.991  11.206   3.166 -0.0105  0.5117  0.2760
  259MOL0     O35663   1.120  11.161   3.179 -0.5257  0.3662  0.1529
  259MOL0     C35664   1.163  11.101   3.305 -0.1204 -0.1052  0.1914
  259MOL0     C35665   1.290  11.021   3.284  0.2137  0.0960  0.4366
  259MOL0     C35666   1.346  10.973   3.421 -0.1756 -0.0514  1.2780
  259MOL0     C35667   1.495  10.924   3.418  0.1942 -0.4786  0.3821
  259MOL0     C35668   1.580  11.047   3.410 -0.5812 -0.1861  0.3738
  259MOL0     C35669   1.660  11.136   3.417  1.2352 -0.1513  0.1316
  259MOL0     C35670   0.910  11.243   3.272  0.6276  0.5888 -0.5586
  259MOL0     C35671   0.783  11.311   3.252 -0.8033  0.5222 -0.7337
  259MOL0     C35672   0.703  11.348   3.375 -0.2713  0.5378 -0.6998
  259MOL0     H35673   0.642  11.758   3.168  0.4956 -4.6206  1.3868
  259MOL0     H35674   0.458  11.948   3.176 -1.2212 -0.1572  1.9658
  259MOL0     H35675   0.131  11.962   2.904  0.0277 -0.8065 -0.7957
  259MOL0     H35676   0.285  12.069   2.930  1.0639 -1.0384  2.6238
  259MOL0     H35677  -0.000  12.080   3.052 -2.1178  1.2612 -2.4016
  259MOL0     H35678   0.139  12.168   3.109  0.1233  0.1574 -0.5540
  259MOL0     H35679   0.046  12.159   2.811  1.0397  0.8175 -0.6319
  259MOL0     H35680  -0.034  12.262   2.935 -2.5136 -0.9752 -2.6037
  259MOL0     H35681   0.206  12.343   2.973  1.7323 -2.1810  0.4373
  259MOL0     H35682   0.261  12.268   2.835  1.0670  1.4126 -1.5122
  259MOL0     H35683   0.044  12.473   2.848 -1.3698 -4.5598  0.0866
  259MOL0     H35684   0.089  12.406   2.691  2.4346  3.2895 -1.7531
  259MOL0     H35685   0.302  12.550   2.842  0.8281 -2.3403 -0.3167
  259MOL0     H35686   0.288  12.508   2.668 -1.1292  1.9262 -1.1196
  259MOL0     H35687   0.276  12.745   2.701  0.7066 -0.3730  3.4214
  259MOL0     H35688   0.150  12.735   2.822  0.0770  2.4358 -1.2267
  259MOL0     H35689   0.115  12.650   2.526  0.3949  1.4123 -1.8102
  259MOL0     H35690  -0.001  12.623   2.650 -0.4913 -0.7928 -1.4494
  259MOL0     H35691   0.206  12.962   2.573 -0.0713  1.2465 -0.5527
  259MOL0     H35692   0.109  13.232   2.645  0.5091 -2.4957 -0.3062
  259MOL0     H35693  -0.038  13.257   2.550 -1.3640  0.1915  2.0267
  259MOL0     H35694   0.239  13.163   2.437 -0.0360  0.3893 -0.9213
  259MOL0     H35695   0.087  13.205   2.348 -0.3573  0.7600 -1.2277
  259MOL0     H35696   0.104  13.435   2.407  1.6464  2.9775 -1.4767
  259MOL0     H35697   0.243  13.409   2.504  0.3288  2.3344 -1.4246
  259MOL0     H35698   0.218  13.389   2.212 -0.7610  0.9614  0.3103
  259MOL0     H35699   0.318  13.506   2.304 -1.0237  0.0068 -0.5039
  259MOL0     H35700   0.625  13.368   2.346 -1.1320 -1.0851  0.7420
  259MOL0     H35701   0.850  13.343   2.279 -0.2042  0.9576  2.3765
  259MOL0     H35702   0.886  13.515   2.223  0.1763  0.3834 -0.8535
  259MOL0     H35703   0.926  13.383   2.117  1.9413  3.3564  1.6548
  259MOL0     H35704   0.682  13.424   1.529 -0.9958 -1.2221  0.0401
  259MOL0     H35705   0.827  13.495   1.338 -1.3610  0.2725  0.1133
  259MOL0     H35706   1.166  13.720   1.393 -0.7721 -1.2239 -0.6980
  259MOL0     H35707   1.258  13.562   1.399 -2.0256 -1.4411  2.4895
  259MOL0     H35708   1.241  13.553   1.153 -0.1988  0.4724 -0.2302
  259MOL0     H35709   1.149  13.693   1.136  0.1367  0.1871 -1.6102
  259MOL0     H35710   1.443  13.670   1.216 -0.8521 -0.0379  1.0412
  259MOL0     H35711   1.375  13.832   1.204  1.1643 -0.8222  2.1220
  259MOL0     H35712   1.330  13.814   0.968  2.2084 -0.3606 -0.5645
  259MOL0     H35713   1.353  13.634   0.971  0.9913 -1.4164  0.6360
  259MOL0     H35714   1.590  13.690   1.020  1.6466  2.7718  1.1631
  259MOL0     H35715   1.520  13.741   0.852 -1.0342  2.1144 -0.3948
  259MOL0     H35716   1.536  13.937   1.072  0.7076 -2.6868  1.2889
  259MOL0     H35717   1.570  13.961   0.899  0.6955  3.1367  1.3449
  259MOL0     H35718   1.783  13.826   0.946  2.2211  1.2356 -0.0857
  259MOL0     H35719   1.748  13.855   1.124  0.9472  0.8873 -0.6482
  259MOL0     H35720   1.909  14.018   1.059  2.4525  2.7454 -0.6342
  259MOL0     H35721   1.757  14.094   1.076 -0.5847 -0.2573 -1.0482
  259MOL0     H35722   1.163  13.540   1.597 -0.5376 -1.2707  1.1529
  259MOL0     H35723   1.024  13.488   1.787 -1.5194 -0.4190  0.6001
  259MOL0     H35724   0.526  13.386   1.859  1.8206 -3.4001 -1.0647
  259MOL0     H35725   0.347  13.334   2.023  0.2369 -0.1902  1.8871
  259MOL0     H35726   0.211  11.706   2.958  0.4527  0.7121  0.9108
  259MOL0     H35727   0.379  11.530   2.924 -0.2918 -1.4599  1.1962
  259MOL0     H35728   0.785  11.294   2.915 -0.4429 -4.4555  0.6006
  259MOL0     H35729   1.015  11.202   2.963  1.1027 -0.7859  1.2143
  259MOL0     H35730   1.189  11.180   3.376 -1.1919  1.8857 -1.4714
  259MOL0     H35731   1.079  11.054   3.357 -0.1169  0.5991  0.8473
  259MOL0     H35732   1.352  11.095   3.232 -1.5326  0.2049 -1.6353
  259MOL0     H35733   1.267  10.941   3.213 -1.1513  2.4877 -2.0514
  259MOL0     H35734   1.345  11.055   3.492 -1.5349 -0.2230  1.4853
  259MOL0     H35735   1.283  10.889   3.453  3.1955 -2.4811  2.0143
  259MOL0     H35736   1.522  10.874   3.324  4.1804 -0.2385  1.2015
  259MOL0     H35737   1.524  10.860   3.502 -0.7480 -1.0020  0.3118
  259MOL0     H35738   1.719  11.225   3.426 -2.2839  2.4138 -0.0872
  259MOL0     H35739   0.933  11.224   3.376  0.3035  1.7734 -0.2587
  259MOL0     H35740   0.762  11.343   3.467 -1.2074  0.3712 -0.1012
  259MOL0     H35741   0.659  11.448   3.373 -0.7274  0.3418 -0.4826
  259MOL0     H35742   0.619  11.280   3.389  1.3746 -1.5407 -0.4595
  260MOL0     O35743   8.148   8.276   3.319  0.6202 -0.3116  0.1796
  260MOL0     C35744   8.163   8.187   3.239  0.8591 -0.0771  1.0346
  260MOL0     O35745   8.274   8.107   3.220 -0.0818  0.3471  0.6652
  260MOL0     C35746   8.378   8.109   3.310  0.0720 -0.5114 -0.0622
  260MOL0     C35747   8.450   7.998   3.337  0.7449  1.1983 -0.4855
  260MOL0     C35748   8.575   8.000   3.390 -0.0754 -0.4150  0.0056
  260MOL0     C35749   8.635   8.115   3.435 -0.0450 -0.8431  0.3489
  260MOL0     O35750   8.767   8.128   3.488  0.0754  0.4465  0.0700
  260MOL0     C35751   8.825   8.010   3.551  0.7454  0.1006 -0.3476
  260MOL0     C35752   8.899   8.062   3.671 -0.6831  0.2557  0.5456
  260MOL0     C35753   9.000   7.956   3.727  0.0029 -0.2154 -0.5035
  260MOL0     C35754   9.108   7.904   3.636  0.0914 -0.3890  0.7056
  260MOL0     C35755   9.209   7.823   3.705 -0.3680 -0.4825 -0.2893
  260MOL0     C35756   9.328   7.775   3.632 -0.1908  0.3656 -0.5784
  260MOL0     C35757   9.442   7.723   3.728 -0.3490 -0.2809 -0.5358
  260MOL0     C35758   9.583   7.711   3.682 -0.3350 -0.0153  0.5769
  260MOL0     N35759   9.626   7.821   3.592  0.1094 -0.9638 -0.2559
  260MOL0     C35760   9.646   7.813   3.457  0.0564  0.2818  0.4672
  260MOL0     C35761   9.659   7.944   3.415  0.5665 -0.0043  0.8977
  260MOL0     C35762   9.674   7.989   3.268  0.2512 -0.7158 -0.8579
  260MOL0     C35763   9.772   8.103   3.249  0.4097  0.0165  0.1797
  260MOL0     C35764   9.733   8.172   3.125  0.0674 -0.3951 -0.2219
  260MOL0     C35765   9.838   8.282   3.091  0.0054 -0.3136 -0.0571
  260MOL0     O35766   9.765   8.360   2.987  0.6583 -0.8611 -0.4271
  260MOL0     C35767   9.848   8.465   2.929 -0.7294  0.4569  0.7787
  260MOL0     C35768   9.920   8.555   3.006 -1.3360 -0.1661 -0.2511
  260MOL0     C35769   9.992   8.659   2.950 -1.0130  0.9560  0.0288
  260MOL0     C35770  10.055   8.767   3.037 -0.5536 -0.0903  0.8840
  260MOL0     C35771  10.018   8.657   2.812 -0.3699 -0.2252  0.5200
  260MOL0     C35772  10.101   8.754   2.744 -0.5137  0.1633  0.9825
  260MOL0     O35773  10.109   8.735   2.610  0.2846 -0.6793 -0.1621
  260MOL0     C35774  10.178   8.818   2.522  0.8229 -0.0034  0.2165
  260MOL0     C35775  10.127   8.849   2.400 -0.8255 -0.4244 -0.0943
  260MOL0     C35776  10.196   8.938   2.317 -0.4574 -0.1609  0.3849
  260MOL0     C35777  10.332   8.982   2.342  0.6428  0.3426 -0.0792
  260MOL0     O35778  10.392   9.063   2.250 -0.1713 -0.6570 -0.5821
  260MOL0     C35779  10.538   9.050   2.235 -0.8087  0.7611  1.3264
  260MOL0     C35780  10.594   9.140   2.121 -0.1480 -0.5855  0.1425
  260MOL0     C35781  10.549   9.290   2.137 -0.3245 -0.1896  0.3828
  260MOL0     C35782  10.581   9.365   2.005 -0.4718 -0.4192 -0.5080
  260MOL0     C35783  10.522   9.513   2.000 -0.6979  0.4514  0.0956
  260MOL0     C35784  10.559   9.592   1.872 -0.5059  0.5636  0.1147
  260MOL0     C35785  10.706   9.606   1.836 -0.3907 -0.5548 -0.4597
  260MOL0     C35786  10.782   9.673   1.952  0.6885  0.3839 -0.3189
  260MOL0    Cl35787  10.952   9.693   1.908 -0.4291 -0.3057  0.1156
  260MOL0     C35788  10.397   8.927   2.453  0.2382 -0.6480 -1.2558
  260MOL0     C35789  10.318   8.862   2.549 -0.6184  0.5819  0.0978
  260MOL0     O35790  10.172   8.830   2.803 -0.3312 -0.8519 -0.3882
  260MOL0     C35791   9.960   8.555   2.739 -0.0175 -0.5313  0.1560
  260MOL0     C35792   9.877   8.465   2.801 -0.1401 -0.0362  0.0580
  260MOL0     N35793   9.660   8.031   3.525  0.8486 -0.3457  1.0438
  260MOL0     N35794   9.634   7.951   3.628 -0.5922  0.0220  0.5122
  260MOL0     C35795   8.561   8.234   3.409  0.1421  0.5278 -0.7277
  260MOL0     C35796   8.431   8.236   3.348 -0.6067  0.3267 -0.0763
  260MOL0     C35797   8.046   8.170   3.151 -0.0941  0.3013  0.2888
  260MOL0     C35798   7.946   8.268   3.135 -0.0508 -0.3254  0.1168
  260MOL0     C35799   7.845   8.261   3.039  0.0227  0.8769 -0.3375
  260MOL0     C35800   7.827   8.140   2.968  0.5116 -0.1995 -0.2049
  260MOL0     O35801   7.723   8.116   2.881  0.0670  1.0723 -0.2951
  260MOL0     C35802   7.615   8.205   2.873  0.2973 -0.3204 -0.1331
  260MOL0     C35803   7.530   8.199   3.004 -0.8745  0.1333 -0.0416
  260MOL0     C35804   7.440   8.326   3.017  0.2592 -0.9086 -0.2791
  260MOL0     C35805   7.287   8.287   3.010  0.4661  0.5226 -0.2383
  260MOL0     C35806   7.250   8.183   2.910  0.1633 -0.0978  1.1003
  260MOL0     C35807   7.228   8.103   2.816  1.0154  0.5220 -0.2754
  260MOL0     C35808   7.929   8.045   2.979  0.3805 -0.5295  0.0821
  260MOL0     C35809   8.034   8.057   3.064 -0.1478  0.6766 -0.2291
  260MOL0     C35810   8.126   7.936   3.057  1.0496 -0.6186 -0.7932
  260MOL0     H35811   8.405   7.905   3.305  0.5460  1.3166 -0.5518
  260MOL0     H35812   8.631   7.908   3.401  2.0516  1.0208  2.1062
  260MOL0     H35813   8.897   7.969   3.480 -0.3441  1.3735 -2.2760
  260MOL0     H35814   8.753   7.931   3.574 -0.8543  0.8021 -2.6025
  260MOL0     H35815   8.964   8.143   3.637  0.2772 -1.0185 -0.7724
  260MOL0     H35816   8.834   8.100   3.751 -0.1114 -0.1417  1.2123
  260MOL0     H35817   9.042   7.998   3.819  1.1642 -1.1928 -0.5663
  260MOL0     H35818   8.948   7.868   3.766  1.1570 -0.9358 -0.5424
  260MOL0     H35819   9.058   7.846   3.558  0.8344 -1.2839  0.8724
  260MOL0     H35820   9.159   7.979   3.575 -3.0773  0.7983 -0.6914
  260MOL0     H35821   9.161   7.740   3.757 -1.3690  0.6407  0.6466
  260MOL0     H35822   9.257   7.874   3.789  3.3142  0.4806 -2.7502
  260MOL0     H35823   9.315   7.689   3.566 -1.1263 -0.2881  0.4136
  260MOL0     H35824   9.370   7.858   3.575 -0.0673 -0.3295 -1.5094
  260MOL0     H35825   9.408   7.622   3.753 -0.1390  0.1429  1.6077
  260MOL0     H35826   9.447   7.781   3.820 -1.8844 -2.8759  1.3103
  260MOL0     H35827   9.657   7.708   3.763  1.3133  4.7063 -0.4083
  260MOL0     H35828   9.596   7.622   3.620  1.1361  1.4213 -1.3133
  260MOL0     H35829   9.618   7.734   3.389 -2.5111  0.1523  1.5657
  260MOL0     H35830   9.574   7.999   3.224 -1.0081  0.7319  2.0260
  260MOL0     H35831   9.729   7.909   3.217  3.7089 -1.4494  3.4412
  260MOL0     H35832   9.762   8.174   3.332 -1.6400 -0.3867  0.3334
  260MOL0     H35833   9.873   8.060   3.244 -0.1144 -1.4699  1.3957
  260MOL0     H35834   9.739   8.110   3.035  3.5609  0.8362 -1.0249
  260MOL0     H35835   9.631   8.208   3.142  0.8514  2.8508 -1.5198
  260MOL0     H35836   9.845   8.349   3.178 -0.1464 -0.9938  0.4884
  260MOL0     H35837   9.937   8.251   3.056  0.1163 -0.0760  0.0334
  260MOL0     H35838   9.920   8.555   3.115 -3.4148 -1.3866 -0.2083
  260MOL0     H35839  10.010   8.771   3.136 -0.1108 -0.2576  1.0933
  260MOL0     H35840  10.039   8.869   3.001 -2.5506 -0.7870 -0.3920
  260MOL0     H35841  10.164   8.756   3.044 -0.0768 -0.4522 -3.8125
  260MOL0     H35842  10.025   8.819   2.377 -1.5884  1.5145  0.5413
  260MOL0     H35843  10.145   8.979   2.230  0.8546 -0.1814 -0.4272
  260MOL0     H35844  10.594   9.081   2.323 -0.3234 -1.8112  2.0178
  260MOL0     H35845  10.569   8.952   2.197  0.3490  1.6465 -0.1393
  260MOL0     H35846  10.701   9.131   2.099 -0.3984  0.2768 -1.5991
  260MOL0     H35847  10.540   9.089   2.041  1.3216 -0.6464 -0.8288
  260MOL0     H35848  10.594   9.353   2.215 -0.7927 -0.5891  0.9802
  260MOL0     H35849  10.442   9.290   2.159 -0.7890  2.2526 -1.5586
  260MOL0     H35850  10.541   9.309   1.919 -0.5296 -0.0588 -0.7197
  260MOL0     H35851  10.689   9.378   2.002 -0.3032 -0.3229  2.9409
  260MOL0     H35852  10.413   9.504   1.995 -0.7329  0.0973  1.2813
  260MOL0     H35853  10.547   9.577   2.085 -0.0911  0.1919  0.1144
  260MOL0     H35854  10.521   9.694   1.879  0.7747  0.9978  1.0653
  260MOL0     H35855  10.514   9.543   1.785  1.1966 -1.0944  0.0958
  260MOL0     H35856  10.722   9.674   1.752  2.9709  1.4347  1.5329
  260MOL0     H35857  10.745   9.509   1.807 -1.3976 -1.7769  1.9858
  260MOL0     H35858  10.785   9.610   2.041  1.6863  2.4497  1.1951
  260MOL0     H35859  10.746   9.769   1.992  0.7689  0.3116 -0.0674
  260MOL0     H35860  10.497   8.963   2.478 -0.8695  2.7898 -1.2055
  260MOL0     H35861  10.361   8.826   2.642  2.8071  0.2760 -1.4402
  260MOL0     H35862   9.982   8.541   2.633 -0.4552 -2.6258  0.3096
  260MOL0     H35863   9.830   8.379   2.754 -1.0507  0.0660  0.7588
  260MOL0     H35864   8.606   8.327   3.444  2.9843 -0.4909 -1.4144
  260MOL0     H35865   8.384   8.330   3.324  2.4982  1.2373 -3.5212
  260MOL0     H35866   7.949   8.360   3.192  1.3990 -1.1197  1.3713
  260MOL0     H35867   7.781   8.347   3.024  0.3402  1.0324 -0.8144
  260MOL0     H35868   7.652   8.308   2.859 -2.3703  1.0682  2.1847
  260MOL0     H35869   7.550   8.178   2.789 -1.0474  0.3031  0.6788
  260MOL0     H35870   7.601   8.189   3.087 -0.5845  0.3060 -0.2672
  260MOL0     H35871   7.481   8.101   3.008  3.3223 -2.2463  4.2612
  260MOL0     H35872   7.456   8.371   3.115 -0.3266 -1.8634  0.2689
  260MOL0     H35873   7.460   8.398   2.937 -3.6149  0.1958 -0.4520
  260MOL0     H35874   7.229   8.377   2.989  0.7208  1.1265  1.5137
  260MOL0     H35875   7.247   8.257   3.107 -0.6794  2.9224  0.0921
  260MOL0     H35876   7.216   8.043   2.728  0.1951  1.2609 -0.6801
  260MOL0     H35877   7.919   7.959   2.912 -0.0630  0.7236 -1.5196
  260MOL0     H35878   8.153   7.896   3.155  2.5144 -0.4183 -1.0994
  260MOL0     H35879   8.083   7.848   3.008 -1.7783  1.3251 -2.0918
  260MOL0     H35880   8.220   7.957   3.005  0.6747  2.6410 -0.3539
  261MOL0     O35881   2.975   5.733   3.766 -0.3536 -0.8239 -0.0626
  261MOL0     C35882   3.010   5.804   3.855  0.0322 -0.3024 -1.6418
  261MOL0     O35883   3.116   5.899   3.848  0.8401  0.6032  0.0806
  261MOL0     C35884   3.174   5.919   3.728  0.2691  0.2769 -0.1795
  261MOL0     C35885   3.195   6.051   3.685  0.4870 -0.4292  0.0829
  261MOL0     C35886   3.262   6.077   3.571  0.8110 -1.0212 -0.2493
  261MOL0     C35887   3.310   5.980   3.482 -0.2769  0.8716  0.8440
  261MOL0     O35888   3.367   6.027   3.366  0.3449 -0.2572 -0.1432
  261MOL0     C35889   3.352   5.948   3.241 -0.7599  0.0694 -0.0532
  261MOL0     C35890   3.444   6.018   3.144  0.6361 -0.2951 -0.2843
  261MOL0     C35891   3.587   5.955   3.138  0.6927 -1.5601 -0.0342
  261MOL0     C35892   3.680   6.043   3.056  1.2646  0.7349  0.6923
  261MOL0     C35893   3.817   5.980   3.033 -0.4213  0.8023  0.1542
  261MOL0     C35894   3.896   6.071   2.937 -0.1849  1.1932  0.5483
  261MOL0     C35895   3.968   6.193   3.000 -0.1155  0.1923 -0.0415
  261MOL0     C35896   4.072   6.255   2.902  0.1292 -0.0523 -0.7361
  261MOL0     N35897   4.197   6.171   2.892  0.0859  0.9447 -0.6607
  261MOL0     C35898   4.301   6.162   2.980  1.1775  0.4961 -0.7023
  261MOL0     C35899   4.406   6.110   2.910  0.2852  0.2899 -0.3351
  261MOL0     C35900   4.540   6.076   2.956  0.6508 -0.2323  0.1185
  261MOL0     C35901   4.548   6.076   3.111  0.9722 -0.2627  0.5403
  261MOL0     C35902   4.690   6.055   3.172 -0.2478  0.2767  0.0818
  261MOL0     C35903   4.689   5.999   3.306 -0.4593  0.1982 -0.5594
  261MOL0     O35904   4.805   6.044   3.387  0.7596 -0.2371  0.0574
  261MOL0     C35905   4.901   5.951   3.411 -0.8622  0.3940  0.4795
  261MOL0     C35906   5.021   5.997   3.483 -0.5572 -0.1308  0.1985
  261MOL0     C35907   5.138   5.917   3.495  0.0178  0.4067 -1.4252
  261MOL0     C35908   5.252   5.984   3.569  1.2262 -1.1411 -0.3767
  261MOL0     C35909   5.134   5.781   3.444  0.0906 -0.0198  0.0997
  261MOL0     C35910   5.245   5.690   3.450 -0.5076  0.5822 -0.3521
  261MOL0     O35911   5.225   5.579   3.378  0.5235  0.1083 -0.0983
  261MOL0     C35912   5.321   5.527   3.307  0.4975  0.4763  0.0847
  261MOL0     C35913   5.368   5.391   3.324 -0.6593 -0.4192 -0.4912
  261MOL0     C35914   5.482   5.349   3.257  0.0897 -0.0810  0.3749
  261MOL0     C35915   5.545   5.435   3.165 -0.1408 -0.7302 -0.3970
  261MOL0     O35916   5.650   5.402   3.085  0.1106 -0.9837 -0.4918
  261MOL0     C35917   5.666   5.260   3.038  0.0270 -0.6388 -0.2848
  261MOL0     C35918   5.810   5.237   2.981 -0.6499 -0.4586  0.5697
  261MOL0     C35919   5.805   5.120   2.893 -0.0546  0.9263  0.1174
  261MOL0     C35920   5.797   4.992   2.975  0.4973 -0.6204 -0.2230
  261MOL0     C35921   5.730   4.876   2.890 -0.0671  0.1250  0.4837
  261MOL0     C35922   5.780   4.856   2.743 -0.7454 -0.8726  0.2535
  261MOL0     C35923   5.738   4.717   2.686  0.9132 -0.2328 -0.3316
  261MOL0     C35924   5.801   4.691   2.546 -1.1229  0.2019 -0.5211
  261MOL0    Cl35925   5.980   4.705   2.547  0.1138  0.0167  0.1869
  261MOL0     C35926   5.495   5.559   3.143  0.0106 -0.3228 -0.5264
  261MOL0     C35927   5.393   5.607   3.219  0.0666  0.1056 -0.1178
  261MOL0     O35928   5.350   5.724   3.511 -0.0396 -0.7291 -0.1369
  261MOL0     C35929   5.025   5.750   3.364  0.2434  0.6654  0.3164
  261MOL0     C35930   4.918   5.826   3.352 -0.0240 -0.2953  0.6318
  261MOL0     N35931   4.358   6.088   2.780 -0.1241 -0.4686  0.0278
  261MOL0     N35932   4.232   6.140   2.763 -0.4128  0.8159 -0.1339
  261MOL0     C35933   3.292   5.842   3.524  0.3835  0.5531  0.2976
  261MOL0     C35934   3.228   5.816   3.646 -0.8322 -0.5404 -0.3345
  261MOL0     C35935   2.962   5.776   4.000  1.2887 -0.3332  0.0537
  261MOL0     C35936   3.056   5.793   4.107 -0.0282  0.4559 -0.0530
  261MOL0     C35937   3.037   5.731   4.232  0.1125 -0.6513  0.8460
  261MOL0     C35938   2.909   5.668   4.255 -0.0163  0.4770  0.0321
  261MOL0     O35939   2.906   5.607   4.378  0.1916  0.4258  0.1957
  261MOL0     C35940   2.793   5.524   4.411  0.4488 -1.1085 -0.2880
  261MOL0     C35941   2.712   5.590   4.521  0.1150  1.1346 -0.1761
  261MOL0     C35942   2.575   5.536   4.522  1.4527 -0.3214  0.7324
  261MOL0     C35943   2.564   5.393   4.578  1.0176 -1.0958 -0.2511
  261MOL0     C35944   2.429   5.350   4.611 -0.1664 -0.8426  0.1219
  261MOL0     C35945   2.325   5.299   4.632 -0.1798  0.1390 -0.1051
  261MOL0     C35946   2.813   5.674   4.154  0.6227 -0.8032  0.3806
  261MOL0     C35947   2.833   5.726   4.025 -1.2758  0.5887 -0.3434
  261MOL0     C35948   2.724   5.714   3.925  0.5170 -0.6688 -0.0432
  261MOL0     H35949   3.165   6.142   3.735  0.4889 -0.9622  1.0937
  261MOL0     H35950   3.277   6.180   3.540 -0.4261 -0.0102  2.2358
  261MOL0     H35951   3.248   5.966   3.210 -0.2998  0.8891 -1.2225
  261MOL0     H35952   3.370   5.842   3.257 -0.4768  0.2374  0.7926
  261MOL0     H35953   3.400   6.034   3.045  0.7862 -1.0649 -0.4826
  261MOL0     H35954   3.454   6.124   3.171  0.7914  0.1939 -2.1469
  261MOL0     H35955   3.637   5.942   3.234  1.5139  1.9272  0.1300
  261MOL0     H35956   3.574   5.856   3.093  1.3743 -3.2411  3.1524
  261MOL0     H35957   3.631   6.059   2.959 -3.1243 -2.1033  2.1442
  261MOL0     H35958   3.686   6.136   3.112 -2.5175  1.3200  0.3814
  261MOL0     H35959   3.792   5.882   2.992 -0.0091 -0.1349  2.0284
  261MOL0     H35960   3.880   5.957   3.120  1.4877 -0.1332 -1.4137
  261MOL0     H35961   3.979   6.013   2.895 -2.1600 -1.1226 -0.3862
  261MOL0     H35962   3.839   6.099   2.848  3.2268  2.6649 -1.3440
  261MOL0     H35963   4.028   6.171   3.089 -0.2273  2.5404  0.6752
  261MOL0     H35964   3.894   6.261   3.043 -0.9339 -2.8186  3.9834
  261MOL0     H35965   4.019   6.278   2.809 -0.2297 -0.1724 -0.5634
  261MOL0     H35966   4.102   6.349   2.948 -3.2570 -0.9761  4.1251
  261MOL0     H35967   4.300   6.198   3.082  0.8142  1.3123 -0.9867
  261MOL0     H35968   4.602   6.150   2.906 -0.7465  0.3588 -0.8160
  261MOL0     H35969   4.566   5.979   2.914 -0.6814  0.0645 -1.4999
  261MOL0     H35970   4.511   6.168   3.157 -0.7433 -1.7717  2.3710
  261MOL0     H35971   4.491   5.991   3.148  3.9177 -2.5733  0.1866
  261MOL0     H35972   4.757   6.004   3.102 -2.1360 -1.8614 -0.2729
  261MOL0     H35973   4.747   6.148   3.172 -0.6779  0.6369 -3.0719
  261MOL0     H35974   4.610   6.054   3.358 -1.8190  0.1269 -2.4303
  261MOL0     H35975   4.672   5.891   3.306 -2.6283  0.4918  0.3739
  261MOL0     H35976   5.026   6.101   3.516 -0.3199 -0.1668  0.2810
  261MOL0     H35977   5.250   5.955   3.674 -0.7724  1.7401  0.5208
  261MOL0     H35978   5.240   6.093   3.560  0.1489 -1.1055  1.1261
  261MOL0     H35979   5.354   5.968   3.533  2.2247  3.2423 -0.1823
  261MOL0     H35980   5.325   5.329   3.402 -0.6733 -1.1078 -1.0320
  261MOL0     H35981   5.521   5.250   3.275  4.9414  1.7913  1.8452
  261MOL0     H35982   5.647   5.193   3.122 -0.7110 -0.2499 -0.1370
  261MOL0     H35983   5.594   5.238   2.958  0.1928 -0.6388 -0.4359
  261MOL0     H35984   5.846   5.321   2.922 -3.9308  0.4426 -0.3264
  261MOL0     H35985   5.884   5.228   3.062  1.1635  0.3562 -0.9153
  261MOL0     H35986   5.887   5.112   2.821  2.2607  1.0811  2.5950
  261MOL0     H35987   5.715   5.121   2.831 -0.0556 -2.0037 -0.0834
  261MOL0     H35988   5.743   5.007   3.069  1.3687 -0.9938  0.3498
  261MOL0     H35989   5.901   4.964   2.996  0.6825  0.0836 -0.1891
  261MOL0     H35990   5.743   4.784   2.948 -2.2206 -0.6682 -0.2260
  261MOL0     H35991   5.621   4.882   2.893 -0.1953 -0.3335 -1.9226
  261MOL0     H35992   5.888   4.852   2.759 -0.5629  0.3378 -0.6030
  261MOL0     H35993   5.754   4.939   2.678 -0.0603 -1.2950 -0.5736
  261MOL0     H35994   5.629   4.714   2.670  1.3189 -0.2432 -3.9486
  261MOL0     H35995   5.760   4.634   2.753 -0.6315 -1.3062 -1.0735
  261MOL0     H35996   5.753   4.764   2.480  1.6430  0.6753 -2.1287
  261MOL0     H35997   5.783   4.587   2.517 -0.8853 -0.8181  2.5711
  261MOL0     H35998   5.549   5.627   3.077  2.0689 -1.3704 -0.0185
  261MOL0     H35999   5.359   5.704   3.186  0.9944  0.2383 -0.7270
  261MOL0     H36000   5.019   5.657   3.308  0.8334  0.5969  0.3636
  261MOL0     H36001   4.848   5.802   3.272  1.0997 -3.4231  0.4320
  261MOL0     H36002   3.334   5.754   3.477  0.4414  0.3845  0.6567
  261MOL0     H36003   3.222   5.720   3.696  0.5767 -0.1107  0.7496
  261MOL0     H36004   3.151   5.841   4.083  0.5787  0.3708  1.9600
  261MOL0     H36005   3.111   5.729   4.311 -1.0172 -2.1994  1.9267
  261MOL0     H36006   2.721   5.523   4.328 -2.5515  0.9710  2.0826
  261MOL0     H36007   2.824   5.422   4.435 -0.8261 -1.1550  1.2876
  261MOL0     H36008   2.706   5.699   4.514  4.7270  1.5676 -0.2236
  261MOL0     H36009   2.761   5.572   4.617  0.6328 -2.0778 -0.9026
  261MOL0     H36010   2.527   5.602   4.595 -0.5274  1.2718 -1.8184
  261MOL0     H36011   2.521   5.552   4.427 -1.8585 -2.7009  2.0038
  261MOL0     H36012   2.623   5.384   4.670  0.6135 -0.2953  0.0925
  261MOL0     H36013   2.619   5.318   4.520  2.2965 -0.7138  0.4377
  261MOL0     H36014   2.232   5.246   4.639  1.5741 -2.9810  2.1392
  261MOL0     H36015   2.726   5.610   4.154 -1.0191  1.2227 -2.1665
  261MOL0     H36016   2.635   5.704   3.989 -0.2415 -0.1976 -1.0083
  261MOL0     H36017   2.709   5.801   3.862  1.2234  1.1295  2.1546
  261MOL0     H36018   2.724   5.622   3.865 -2.2971  0.4628 -2.0038
  262MOL0     O36019   8.339   7.502   1.029  1.2183 -0.5118  0.5143
  262MOL0     C36020   8.416   7.411   1.046 -0.0969  0.6796  1.3678
  262MOL0     O36021   8.461   7.369   1.163  0.6714  0.0477 -0.1922
  262MOL0     C36022   8.376   7.387   1.269 -0.5130 -0.5899 -1.0396
  262MOL0     C36023   8.292   7.279   1.298  0.3016 -0.0705 -0.7047
  262MOL0     C36024   8.201   7.295   1.409  0.3081  0.0559 -0.2380
  262MOL0     C36025   8.207   7.413   1.493 -0.5811  1.2464  0.7749
  262MOL0     O36026   8.114   7.407   1.592  0.5651 -0.7147 -0.6052
  262MOL0     C36027   8.102   7.506   1.691 -0.2656 -0.1793  0.5401
  262MOL0     C36028   7.965   7.505   1.746  0.0932 -0.3759 -1.0937
  262MOL0     C36029   7.873   7.603   1.671 -0.0080  0.7846  0.1527
  262MOL0     C36030   7.727   7.551   1.683  0.7013 -0.2396 -0.1477
  262MOL0     C36031   7.629   7.656   1.640 -0.5218  0.0200  0.1540
  262MOL0     C36032   7.487   7.618   1.664 -0.0585  0.5225  0.4229
  262MOL0     C36033   7.400   7.743   1.642 -0.5194  0.2677 -0.7835
  262MOL0     C36034   7.364   7.820   1.778 -0.0948 -0.0619  0.5096
  262MOL0     N36035   7.256   7.759   1.849  0.2919 -1.1705  0.5342
  262MOL0     C36036   7.124   7.746   1.812 -0.5271  0.1475  0.4201
  262MOL0     C36037   7.066   7.674   1.914 -0.0397 -0.3393 -0.4922
  262MOL0     C36038   6.916   7.644   1.904  0.1603 -0.0686 -0.1894
  262MOL0     C36039   6.860   7.622   2.047  0.0855 -0.0281  0.7255
  262MOL0     C36040   6.716   7.565   2.045  0.2703  0.7112 -0.4325
  262MOL0     C36041   6.689   7.507   2.190 -0.5792  0.4401  0.4118
  262MOL0     O36042   6.546   7.497   2.198  0.1399 -0.1560  0.8644
  262MOL0     C36043   6.489   7.465   2.313  1.1081  0.1598 -1.3573
  262MOL0     C36044   6.348   7.457   2.313 -0.1367  1.4145 -0.7824
  262MOL0     C36045   6.276   7.409   2.427  0.1414  0.2531  0.3653
  262MOL0     C36046   6.130   7.397   2.424 -0.1805 -0.0139 -0.1542
  262MOL0     C36047   6.344   7.387   2.549  0.1266  0.6275  0.0236
  262MOL0     C36048   6.280   7.342   2.674 -0.3109  1.4340  0.7095
  262MOL0     O36049   6.281   7.446   2.766  0.2479 -0.0084  0.0120
  262MOL0     C36050   6.275   7.416   2.904  0.3293  0.7129  0.1746
  262MOL0     C36051   6.188   7.322   2.964 -0.2306 -0.4171  0.3805
  262MOL0     C36052   6.189   7.291   3.104  0.1384 -1.2277 -0.4041
  262MOL0     C36053   6.278   7.358   3.183 -0.6154  1.2476 -0.3589
  262MOL0     O36054   6.277   7.340   3.319  0.0761 -0.4980 -0.1522
  262MOL0     C36055   6.152   7.381   3.386 -0.9078  0.2509 -0.8438
  262MOL0     C36056   6.171   7.536   3.403  0.8578  0.0754  0.0564
  262MOL0     C36057   6.281   7.570   3.516 -0.5717 -0.6421  0.9087
  262MOL0     C36058   6.420   7.580   3.452  0.4380  0.1243  0.2470
  262MOL0     C36059   6.523   7.649   3.541 -0.6014  0.5419 -0.3547
  262MOL0     C36060   6.671   7.645   3.486  1.1999  0.0753  0.3997
  262MOL0     C36061   6.738   7.509   3.479  0.4804  0.5225 -0.0018
  262MOL0     C36062   6.733   7.403   3.584 -1.0143 -0.0513  0.3408
  262MOL0    Cl36063   6.815   7.459   3.725  0.1129  0.1024 -0.3755
  262MOL0     C36064   6.381   7.437   3.121 -1.1025 -0.3065 -0.0352
  262MOL0     C36065   6.382   7.465   2.985  0.2252 -0.3778  0.6734
  262MOL0     O36066   6.224   7.229   2.683  0.2151  0.3500 -0.8824
  262MOL0     C36067   6.482   7.401   2.552  0.3322 -0.3013 -0.0142
  262MOL0     C36068   6.550   7.445   2.437 -0.3216  0.1260 -0.2493
  262MOL0     N36069   7.164   7.648   2.014 -0.3072  0.2724  0.1220
  262MOL0     N36070   7.276   7.696   1.970  0.6292  0.1590 -0.3314
  262MOL0     C36071   8.315   7.505   1.468 -0.1620  0.4185 -0.1084
  262MOL0     C36072   8.402   7.490   1.362  0.8140 -0.7450  0.1579
  262MOL0     C36073   8.463   7.358   0.913  0.5914  0.5921 -0.4584
  262MOL0     C36074   8.412   7.418   0.799 -0.5505 -0.3991 -0.1105
  262MOL0     C36075   8.451   7.364   0.677 -0.2804  1.0867 -0.4598
  262MOL0     C36076   8.532   7.249   0.662 -0.0577  0.4337  0.0907
  262MOL0     O36077   8.552   7.193   0.535 -0.1701 -0.3220  0.3881
  262MOL0     C36078   8.633   7.071   0.524  1.0774 -0.8105  0.3281
  262MOL0     C36079   8.614   7.039   0.374  0.5872 -0.1418 -1.3064
  262MOL0     C36080   8.741   6.999   0.306 -0.5793  0.0934  0.7831
  262MOL0     C36081   8.720   6.919   0.175  0.7865 -1.1556 -0.7068
  262MOL0     C36082   8.850   6.865   0.126 -0.2369  0.5339 -0.8609
  262MOL0     C36083   8.959   6.845   0.074  0.5371  0.1066  0.7031
  262MOL0     C36084   8.590   7.204   0.781  0.6827 -0.0236 -0.8239
  262MOL0     C36085   8.563   7.257   0.903 -1.4436  0.0603  0.1232
  262MOL0     C36086   8.646   7.212   1.022  0.4925 -0.1963  0.0333
  262MOL0     H36087   8.286   7.190   1.236  3.6354 -2.1671  1.6595
  262MOL0     H36088   8.128   7.216   1.424 -0.0404  0.5075  0.5023
  262MOL0     H36089   8.145   7.594   1.643  0.1592 -0.5292  0.2760
  262MOL0     H36090   8.170   7.488   1.775  0.8935 -1.2044 -0.5886
  262MOL0     H36091   7.943   7.398   1.745 -1.0489 -0.3096  2.4609
  262MOL0     H36092   7.958   7.531   1.852  0.0365  1.2310 -1.4636
  262MOL0     H36093   7.875   7.701   1.719 -0.5984  1.0677 -0.3961
  262MOL0     H36094   7.897   7.617   1.565 -0.6563  1.0328  0.0399
  262MOL0     H36095   7.710   7.466   1.617 -1.9315  1.1554 -1.4269
  262MOL0     H36096   7.708   7.519   1.785 -0.6144 -0.2396 -0.3686
  262MOL0     H36097   7.644   7.653   1.531 -0.3556  1.7385  0.1064
  262MOL0     H36098   7.639   7.755   1.684 -0.5136 -0.2535  0.7692
  262MOL0     H36099   7.451   7.539   1.597 -1.8922 -0.4309  2.3853
  262MOL0     H36100   7.470   7.582   1.766 -1.1195 -1.8061 -0.4980
  262MOL0     H36101   7.309   7.724   1.584 -1.4228  0.4207  0.5429
  262MOL0     H36102   7.452   7.817   1.580 -1.1738  1.8297  0.4777
  262MOL0     H36103   7.447   7.811   1.848 -0.2137 -2.9912  0.4165
  262MOL0     H36104   7.333   7.923   1.757 -0.9045 -0.2352  0.8015
  262MOL0     H36105   7.076   7.774   1.719 -0.6770 -2.1086 -0.2557
  262MOL0     H36106   6.905   7.552   1.845 -0.1149  0.1526 -0.4893
  262MOL0     H36107   6.871   7.728   1.850  2.0972  1.8805  1.1004
  262MOL0     H36108   6.933   7.565   2.105 -0.9701  0.0077  2.1486
  262MOL0     H36109   6.851   7.718   2.098 -0.4716  1.6387 -2.3199
  262MOL0     H36110   6.643   7.645   2.025 -0.6840 -0.0798 -0.1584
  262MOL0     H36111   6.701   7.485   1.972  2.8129  0.3776 -0.6654
  262MOL0     H36112   6.754   7.420   2.202  1.7100  1.9250 -0.5348
  262MOL0     H36113   6.724   7.580   2.263  2.6706  1.1247 -1.6082
  262MOL0     H36114   6.289   7.474   2.223 -1.1051 -3.3583 -1.2893
  262MOL0     H36115   6.092   7.300   2.393 -3.1513  0.1846  2.3102
  262MOL0     H36116   6.103   7.464   2.342 -0.1921  2.3099  1.6108
  262MOL0     H36117   6.070   7.420   2.513 -1.0997  0.2183 -0.8173
  262MOL0     H36118   6.116   7.278   2.895 -0.7050 -0.3970  0.8514
  262MOL0     H36119   6.128   7.207   3.137 -0.5408 -1.6430 -2.5791
  262MOL0     H36120   6.064   7.349   3.330  0.2675  0.3755 -2.8722
  262MOL0     H36121   6.154   7.335   3.485  2.3057  1.1495 -0.3475
  262MOL0     H36122   6.183   7.592   3.310 -1.9627  0.0246 -0.4418
  262MOL0     H36123   6.077   7.583   3.436  0.1384  0.4809 -2.4048
  262MOL0     H36124   6.278   7.510   3.607  0.7405 -0.1882  1.2658
  262MOL0     H36125   6.259   7.670   3.556  0.9151  0.9129 -1.8516
  262MOL0     H36126   6.406   7.630   3.356 -0.9370 -1.8545 -0.6593
  262MOL0     H36127   6.453   7.478   3.429  2.4908  0.4575  1.5561
  262MOL0     H36128   6.496   7.752   3.564  3.2970  1.1936  2.2643
  262MOL0     H36129   6.515   7.592   3.634  1.4775 -2.3606 -1.8053
  262MOL0     H36130   6.732   7.706   3.553  0.8187 -1.5085  2.2690
  262MOL0     H36131   6.662   7.681   3.383 -1.7283  0.0014  0.5343
  262MOL0     H36132   6.843   7.524   3.452  0.9653 -3.3280 -0.8761
  262MOL0     H36133   6.707   7.465   3.384  1.3323  4.8302 -2.5489
  262MOL0     H36134   6.795   7.318   3.553  0.0707  0.0397  2.1118
  262MOL0     H36135   6.638   7.361   3.618  0.5337 -2.5804  1.8521
  262MOL0     H36136   6.437   7.497   3.191 -4.3010 -0.3455  2.8246
  262MOL0     H36137   6.463   7.517   2.933 -1.1724  1.0515 -0.1532
  262MOL0     H36138   6.537   7.373   2.641 -0.5626 -0.2774  0.5562
  262MOL0     H36139   6.655   7.460   2.459 -0.0852  0.9140 -1.7803
  262MOL0     H36140   8.322   7.593   1.530  0.5413  1.0338 -1.0465
  262MOL0     H36141   8.487   7.558   1.358  1.9827 -2.0379  1.5137
  262MOL0     H36142   8.340   7.499   0.798 -2.6774 -2.1694  0.9686
  262MOL0     H36143   8.407   7.416   0.593  1.7456  2.8936 -0.4773
  262MOL0     H36144   8.733   7.113   0.537  1.0854  0.9637 -3.9300
  262MOL0     H36145   8.612   6.987   0.592 -2.4252 -0.8792 -0.6324
  262MOL0     H36146   8.578   7.128   0.321 -0.4852 -1.3283 -2.6596
  262MOL0     H36147   8.535   6.964   0.365 -3.0541  2.8726  1.9776
  262MOL0     H36148   8.797   7.092   0.291 -0.9541  0.3962  1.2697
  262MOL0     H36149   8.807   6.936   0.367  1.8152  0.6384 -1.0869
  262MOL0     H36150   8.675   6.985   0.101  0.3828  0.5354  0.9520
  262MOL0     H36151   8.640   6.846   0.193 -0.1671  0.0464  0.1311
  262MOL0     H36152   9.055   6.840   0.026 -0.9342  1.1357 -2.6474
  262MOL0     H36153   8.650   7.113   0.788  2.7278  1.3677  1.0311
  262MOL0     H36154   8.739   7.165   0.988  0.5778  0.3725 -0.5388
  262MOL0     H36155   8.679   7.305   1.070  0.6613 -0.3532  0.2206
  262MOL0     H36156   8.596   7.150   1.096  1.2452 -2.5432 -1.3086
  263MOL0     O36157   3.809   5.680   4.885  0.6302  0.1774  0.3769
  263MOL0     C36158   3.898   5.711   4.808 -0.0863  0.7821  0.8860
  263MOL0     O36159   3.990   5.621   4.757  0.3476 -0.4050  0.8618
  263MOL0     C36160   3.981   5.488   4.790  0.1555 -0.3663  0.7995
  263MOL0     C36161   4.070   5.419   4.884 -0.3629 -0.5352  0.9220
  263MOL0     C36162   4.072   5.278   4.901 -0.5443  0.0232 -0.2487
  263MOL0     C36163   3.967   5.207   4.845  0.6138 -0.7521 -0.2240
  263MOL0     O36164   3.944   5.071   4.869  0.3306 -0.4931  1.4164
  263MOL0     C36165   4.029   4.993   4.949  0.5462 -0.1152  0.4062
  263MOL0     C36166   4.142   4.944   4.864  0.0627  0.5651  0.1756
  263MOL0     C36167   4.259   4.888   4.954  0.3257 -0.0194  1.2128
  263MOL0     C36168   4.382   4.898   4.862 -0.2269 -0.7363  0.1475
  263MOL0     C36169   4.515   4.867   4.918 -0.0804 -0.9958 -0.6867
  263MOL0     C36170   4.621   4.883   4.806  0.1340 -0.0424 -0.6872
  263MOL0     C36171   4.767   4.848   4.833 -1.5740 -0.1678  0.0545
  263MOL0     C36172   4.795   4.697   4.843  0.2424  0.6773  1.0314
  263MOL0     N36173   4.934   4.660   4.879 -0.4783  0.7637  0.2147
  263MOL0     C36174   5.050   4.724   4.838  0.4474 -1.4373  0.1762
  263MOL0     C36175   5.152   4.679   4.913  0.4196  0.2557 -0.2312
  263MOL0     C36176   5.299   4.710   4.897  0.3669 -0.3593  1.4400
  263MOL0     C36177   5.387   4.590   4.901 -0.4738  0.2103 -0.0009
  263MOL0     C36178   5.536   4.620   4.914 -0.5509 -0.4897 -0.1782
  263MOL0     C36179   5.624   4.492   4.885  0.3654  0.5684 -0.4783
  263MOL0     O36180   5.763   4.511   4.892 -0.1785  0.1327  0.1230
  263MOL0     C36181   5.814   4.613   4.823 -0.4025 -0.7898  0.1695
  263MOL0     C36182   5.907   4.702   4.879  0.2285  0.2167 -0.7571
  263MOL0     C36183   5.977   4.798   4.808  0.1652 -0.1437  1.2787
  263MOL0     C36184   6.054   4.896   4.885 -0.4184  0.8338  0.2049
  263MOL0     C36185   5.959   4.805   4.668 -0.8690 -0.4946  0.6851
  263MOL0     C36186   6.022   4.912   4.586 -0.3982 -0.1889 -0.1842
  263MOL0     O36187   5.939   4.950   4.488 -0.2774 -0.0114  0.0706
  263MOL0     C36188   5.991   5.026   4.386 -1.3242  0.7207 -0.2855
  263MOL0     C36189   5.908   5.136   4.338  0.0712  0.8282 -0.7178
  263MOL0     C36190   5.956   5.212   4.226  0.5489 -0.1563 -0.5688
  263MOL0     C36191   6.067   5.176   4.154  0.1592 -1.1494  0.6852
  263MOL0     O36192   6.086   5.252   4.036  0.3839  0.6161 -0.4080
  263MOL0     C36193   6.209   5.235   3.958 -0.3815 -0.9170  0.3194
  263MOL0     C36194   6.283   5.371   3.938  0.7082  0.3008  0.0773
  263MOL0     C36195   6.360   5.374   3.802  0.6935 -0.1943  0.8071
  263MOL0     C36196   6.457   5.500   3.774  0.0801 -0.5303 -0.0879
  263MOL0     C36197   6.535   5.504   3.647  0.5425  0.9008 -0.7425
  263MOL0     C36198   6.652   5.610   3.656  0.0266  0.1748  0.2542
  263MOL0     C36199   6.755   5.606   3.545 -0.1432  0.9210 -0.8744
  263MOL0     C36200   6.694   5.588   3.407  0.1884  0.1651  0.7905
  263MOL0    Cl36201   6.591   5.747   3.389 -0.3765 -0.4309 -0.1942
  263MOL0     C36202   6.153   5.077   4.199 -0.1998  0.9452 -0.4794
  263MOL0     C36203   6.111   5.003   4.309 -0.3510 -0.0579  1.5716
  263MOL0     O36204   6.137   4.939   4.606  0.2147  0.0622 -0.6761
  263MOL0     C36205   5.865   4.713   4.610 -0.1361  0.4898 -0.4207
  263MOL0     C36206   5.793   4.617   4.683  1.0560 -0.1707 -0.1623
  263MOL0     N36207   5.097   4.581   4.994 -0.2092  0.6151 -0.3700
  263MOL0     N36208   4.971   4.580   4.981 -0.5094 -0.6189  0.3814
  263MOL0     C36209   3.872   5.274   4.777  0.5390 -0.2997  0.6132
  263MOL0     C36210   3.881   5.410   4.735 -0.7764  0.5280 -0.8819
  263MOL0     C36211   3.914   5.847   4.768  0.5190 -0.2582  1.0989
  263MOL0     C36212   3.801   5.930   4.762  0.1991  0.9269 -0.3424
  263MOL0     C36213   3.811   6.067   4.734  0.2493 -0.5653  0.0006
  263MOL0     C36214   3.934   6.124   4.704 -0.1111 -0.4225 -0.2044
  263MOL0     O36215   3.963   6.260   4.686 -0.2985  0.6559  0.1422
  263MOL0     C36216   3.864   6.322   4.607  0.1636 -1.0706 -0.2685
  263MOL0     C36217   3.886   6.305   4.451 -0.1394  1.2339 -0.0044
  263MOL0     C36218   3.797   6.399   4.371  0.6721  0.3882  0.1926
  263MOL0     C36219   3.805   6.370   4.225  0.3628 -0.1917  0.1451
  263MOL0     C36220   3.766   6.485   4.146 -0.2867  0.9200  0.3594
  263MOL0     C36221   3.721   6.582   4.093 -0.0276 -0.1783  0.7053
  263MOL0     C36222   4.048   6.041   4.697 -0.4739  0.0318 -0.2947
  263MOL0     C36223   4.036   5.910   4.745  0.2732  0.4607  0.2329
  263MOL0     C36224   4.164   5.836   4.779 -0.2806  0.0555 -0.1471
  263MOL0     H36225   4.136   5.488   4.935 -0.1032  2.4273 -2.9194
  263MOL0     H36226   4.143   5.222   4.961 -2.1578 -1.9513 -0.0858
  263MOL0     H36227   3.969   4.906   4.977  0.6103 -0.5368 -0.7492
  263MOL0     H36228   4.058   5.048   5.039 -2.0505 -1.1607  2.0087
  263MOL0     H36229   4.116   4.878   4.781 -1.0609  2.1510 -0.8009
  263MOL0     H36230   4.180   5.036   4.819  0.2895 -0.5683 -2.0938
  263MOL0     H36231   4.270   4.932   5.054 -0.8188 -1.1872  1.8797
  263MOL0     H36232   4.243   4.782   4.976  3.7336 -0.6797  1.0571
  263MOL0     H36233   4.368   4.834   4.775  3.1733 -0.9442 -0.4002
  263MOL0     H36234   4.393   5.001   4.829  2.6679 -0.2522  2.2522
  263MOL0     H36235   4.529   4.762   4.945 -1.9965 -0.4447  3.0640
  263MOL0     H36236   4.520   4.929   5.008 -2.1112 -1.6393 -0.0801
  263MOL0     H36237   4.595   4.824   4.718 -1.9078 -2.3687  1.3391
  263MOL0     H36238   4.618   4.987   4.774  0.3202  0.0272 -0.4862
  263MOL0     H36239   4.800   4.908   4.918 -4.0844  0.5061  0.6605
  263MOL0     H36240   4.818   4.895   4.749 -1.8206  0.9839  0.5269
  263MOL0     H36241   4.737   4.654   4.925 -0.3290 -0.2671  0.1549
  263MOL0     H36242   4.764   4.652   4.748 -0.1571 -2.5834  2.5513
  263MOL0     H36243   5.048   4.792   4.754  1.5224  1.1285  2.1218
  263MOL0     H36244   5.324   4.779   4.978  0.4825 -0.7022  1.7021
  263MOL0     H36245   5.313   4.761   4.802 -3.5737 -1.8642 -0.1342
  263MOL0     H36246   5.355   4.522   4.980 -2.3397  4.3119  3.1432
  263MOL0     H36247   5.368   4.527   4.814 -0.8829 -0.3744  0.5062
  263MOL0     H36248   5.566   4.695   4.840  0.2597 -2.9731 -2.5346
  263MOL0     H36249   5.558   4.654   5.016  0.5244  2.0057 -1.1416
  263MOL0     H36250   5.613   4.421   4.967 -2.0127  0.0379 -1.2109
  263MOL0     H36251   5.613   4.451   4.784 -0.4494 -2.2718  0.6722
  263MOL0     H36252   5.932   4.699   4.985 -0.8426  1.5037 -0.4479
  263MOL0     H36253   6.066   4.996   4.841  0.7036  0.9023  0.6520
  263MOL0     H36254   6.155   4.857   4.894 -0.2398 -0.1450 -3.9747
  263MOL0     H36255   6.002   4.908   4.981 -0.1822 -1.2681  0.6471
  263MOL0     H36256   5.822   5.164   4.398 -1.1794 -0.8383 -1.6464
  263MOL0     H36257   5.884   5.288   4.197 -3.1032 -2.9672  0.3862
  263MOL0     H36258   6.277   5.159   3.997 -1.3907 -1.0967  1.8258
  263MOL0     H36259   6.172   5.210   3.858  0.5027  2.0705 -0.8645
  263MOL0     H36260   6.211   5.451   3.962  1.0549 -0.1476  3.0205
  263MOL0     H36261   6.356   5.366   4.019 -0.4951 -1.3810  1.1279
  263MOL0     H36262   6.284   5.379   3.724 -0.1402  1.0952  1.6630
  263MOL0     H36263   6.415   5.280   3.793 -0.6308 -0.9848  0.7283
  263MOL0     H36264   6.531   5.500   3.855  1.8123  1.9839 -1.5267
  263MOL0     H36265   6.395   5.590   3.780 -1.5878 -1.6954  2.2207
  263MOL0     H36266   6.585   5.407   3.641  0.2040  0.6302  0.6009
  263MOL0     H36267   6.481   5.533   3.556  0.4795 -2.2626 -1.8146
  263MOL0     H36268   6.697   5.608   3.756 -1.2043  0.6429  0.8475
  263MOL0     H36269   6.612   5.712   3.644  0.0397  0.0848 -0.6357
  263MOL0     H36270   6.821   5.521   3.567 -0.3579  0.7130 -1.0257
  263MOL0     H36271   6.824   5.691   3.553  1.0170 -0.1667  2.1480
  263MOL0     H36272   6.630   5.503   3.385  1.0883  0.2447 -2.7020
  263MOL0     H36273   6.773   5.589   3.331 -1.8925 -1.9380 -1.5419
  263MOL0     H36274   6.243   5.040   4.150 -0.0319  0.1247  0.4134
  263MOL0     H36275   6.173   4.922   4.344 -1.8401 -0.1858  4.1180
  263MOL0     H36276   5.838   4.724   4.506  1.7073  0.1433 -0.9726
  263MOL0     H36277   5.716   4.553   4.642 -1.3889  2.0371  0.7532
  263MOL0     H36278   3.784   5.217   4.749  0.5441 -0.1859  0.3595
  263MOL0     H36279   3.800   5.460   4.682  0.8987  3.8058 -0.5837
  263MOL0     H36280   3.703   5.886   4.781  2.3217 -3.2366  2.4903
  263MOL0     H36281   3.715   6.118   4.725  1.1143  0.8725 -1.4687
  263MOL0     H36282   3.764   6.279   4.616  0.7067 -1.9609  2.3920
  263MOL0     H36283   3.876   6.427   4.635  0.7528 -0.1976 -3.3735
  263MOL0     H36284   3.877   6.199   4.428  0.6195  1.2950 -0.6496
  263MOL0     H36285   3.988   6.340   4.433 -0.2076  0.6586 -1.6246
  263MOL0     H36286   3.692   6.388   4.402  0.0761 -2.1511 -2.2621
  263MOL0     H36287   3.814   6.506   4.384 -3.0996  1.1583 -0.0555
  263MOL0     H36288   3.751   6.279   4.197 -1.3470 -0.0359  2.6017
  263MOL0     H36289   3.912   6.363   4.205  0.9309  2.7735  1.6185
  263MOL0     H36290   3.682   6.654   4.024  3.3431  1.2339  0.0685
  263MOL0     H36291   4.146   6.082   4.678 -0.7624  0.5216 -0.7789
  263MOL0     H36292   4.174   5.777   4.688 -0.9909 -0.6972  0.2551
  263MOL0     H36293   4.247   5.907   4.784  0.0360  0.1385 -3.8349
  263MOL0     H36294   4.169   5.763   4.860 -0.5979  3.1852  2.9078
  264MOL0     O36295  11.324   5.299   2.362  0.1039  0.8799  0.4501
  264MOL0     C36296  11.373   5.184   2.379  0.6480 -0.3892 -0.0973
  264MOL0     O36297  11.368   5.112   2.493  0.0083 -0.1303  0.2804
  264MOL0     C36298  11.332   5.167   2.613  0.0760  0.2833  0.1128
  264MOL0     C36299  11.400   5.109   2.724 -0.0599  0.3100 -0.1884
  264MOL0     C36300  11.375   5.139   2.857  0.6412 -0.1928  0.9933
  264MOL0     C36301  11.293   5.245   2.891  0.7441  0.1031 -0.3557
  264MOL0     O36302  11.263   5.262   3.027 -0.1693 -0.2811  0.1558
  264MOL0     C36303  11.189   5.390   3.053 -0.2139 -0.1183  0.0778
  264MOL0     C36304  11.171   5.408   3.206 -1.2503  0.0046 -0.4543
  264MOL0     C36305  11.169   5.551   3.262 -0.2920  1.4436 -0.5131
  264MOL0     C36306  11.122   5.536   3.413  0.9094 -0.2868  0.2260
  264MOL0     C36307  11.056   5.668   3.462 -0.5845 -0.3668 -0.1941
  264MOL0     C36308  11.016   5.677   3.611 -0.0539 -0.3500  0.2851
  264MOL0     C36309  11.119   5.625   3.718  0.0576 -0.1639  0.0385
  264MOL0     C36310  11.250   5.706   3.714  0.0554  0.6843  0.1757
  264MOL0     N36311  11.224   5.854   3.716 -0.6785  0.4362 -0.7483
  264MOL0     C36312  11.177   5.924   3.829  0.7431 -0.1216  0.4249
  264MOL0     C36313  11.156   6.050   3.784 -0.3519 -1.3185 -0.3245
  264MOL0     C36314  11.126   6.167   3.866  0.8659 -0.1399 -1.5389
  264MOL0     C36315  11.216   6.197   3.981 -0.8069 -0.3494 -0.5922
  264MOL0     C36316  11.367   6.168   3.956  0.5369  0.4802  0.7103
  264MOL0     C36317  11.428   6.254   3.841 -0.1191  0.3902 -0.0657
  264MOL0     O36318  11.426   6.392   3.883  0.0615 -0.1962  0.0639
  264MOL0     C36319  11.430   6.482   3.775  0.2792  0.5263 -0.3910
  264MOL0     C36320  11.343   6.584   3.766  0.5683  0.4297 -0.4721
  264MOL0     C36321  11.360   6.681   3.669 -0.1447  0.1988 -0.4112
  264MOL0     C36322  11.249   6.782   3.669 -0.4034  0.4159  0.0932
  264MOL0     C36323  11.465   6.678   3.573 -0.1736 -0.6478  0.8134
  264MOL0     C36324  11.491   6.779   3.456  0.1545  0.1356 -1.0817
  264MOL0     O36325  11.400   6.877   3.438  0.4506  0.2041 -0.0005
  264MOL0     C36326  11.416   6.954   3.326 -0.2768  0.0587 -0.0096
  264MOL0     C36327  11.429   6.914   3.189  0.1412 -0.1747 -0.2565
  264MOL0     C36328  11.441   7.012   3.091 -0.4220  0.1484  0.5965
  264MOL0     C36329  11.457   7.146   3.123  0.4316 -0.1958 -0.5613
  264MOL0     O36330  11.481   7.246   3.031  0.2881  0.4366  0.3298
  264MOL0     C36331  11.576   7.232   2.928  0.1408 -0.6169  0.7755
  264MOL0     C36332  11.564   7.356   2.837  0.2541  0.3094 -0.4818
  264MOL0     C36333  11.583   7.500   2.906 -0.8471 -0.5978 -0.5052
  264MOL0     C36334  11.701   7.502   3.013  0.1841 -1.4543  1.1407
  264MOL0     C36335  11.725   7.651   3.072 -0.7224  0.0748  0.8217
  264MOL0     C36336  11.785   7.751   2.977 -0.3120 -0.2273  0.6026
  264MOL0     C36337  11.924   7.708   2.922  0.2578  0.9068  0.1825
  264MOL0     C36338  12.029   7.817   2.904  0.6072  0.0056  0.0692
  264MOL0    Cl36339  11.956   7.929   2.776 -0.2804 -0.3054  0.1856
  264MOL0     C36340  11.441   7.183   3.257 -0.3228 -0.3123 -0.3584
  264MOL0     C36341  11.433   7.081   3.352  0.1223  0.2004 -0.5503
  264MOL0     O36342  11.598   6.772   3.393  0.0899  0.3054  0.5330
  264MOL0     C36343  11.553   6.567   3.588 -0.7017  0.0235 -0.4322
  264MOL0     C36344  11.538   6.475   3.686 -0.5414  0.2324 -0.1333
  264MOL0     N36345  11.181   6.058   3.652  0.4932 -0.4197  0.7187
  264MOL0     N36346  11.228   5.947   3.615  0.4509  0.7054  0.3419
  264MOL0     C36347  11.233   5.320   2.779  0.9158 -0.1720 -0.8578
  264MOL0     C36348  11.253   5.274   2.646  0.2571 -0.0902 -0.4821
  264MOL0     C36349  11.436   5.119   2.271 -0.7493  0.2683 -0.2337
  264MOL0     C36350  11.536   5.027   2.306 -0.6789 -0.7343 -1.0408
  264MOL0     C36351  11.627   4.969   2.217 -0.1326  0.7612 -0.3407
  264MOL0     C36352  11.620   5.000   2.086  0.1034  0.0076  0.1744
  264MOL0     O36353  11.699   4.936   1.994 -0.2727  0.0555  0.7341
  264MOL0     C36354  11.835   4.926   2.022 -0.4893  0.5256  1.0908
  264MOL0     C36355  11.904   4.854   1.905 -0.4224 -0.2877 -0.5151
  264MOL0     C36356  11.871   4.706   1.889 -0.3532 -0.0498 -0.3198
  264MOL0     C36357  11.937   4.630   1.770 -0.0833  0.1058  0.6027
  264MOL0     C36358  11.885   4.682   1.639  0.4110 -0.2105  0.1082
  264MOL0     C36359  11.882   4.716   1.527 -0.0924 -1.3575 -0.0868
  264MOL0     C36360  11.517   5.079   2.042  0.4015  0.6412 -0.3290
  264MOL0     C36361  11.428   5.147   2.129 -0.1087 -0.3991 -0.3119
  264MOL0     C36362  11.323   5.241   2.073  0.5614 -0.3224 -0.0655
  264MOL0     H36363  11.470   5.027   2.710  0.2304  0.5792 -0.3144
  264MOL0     H36364  11.425   5.073   2.927 -1.5219 -1.8247  1.1179
  264MOL0     H36365  11.094   5.401   3.000 -0.4563 -2.8233 -0.1578
  264MOL0     H36366  11.255   5.466   3.010  1.1380 -0.6450  1.1460
  264MOL0     H36367  11.073   5.367   3.229 -0.7454 -1.1881 -0.3662
  264MOL0     H36368  11.249   5.354   3.261  0.3582 -0.0720 -2.6676
  264MOL0     H36369  11.267   5.598   3.268 -1.1132  3.1079  0.8222
  264MOL0     H36370  11.096   5.616   3.213 -3.2449 -2.1849 -1.4314
  264MOL0     H36371  11.049   5.455   3.417  1.5715 -0.9712 -1.1774
  264MOL0     H36372  11.205   5.506   3.478  0.0250  0.4093  1.7267
  264MOL0     H36373  10.967   5.666   3.399 -0.8899  0.5779  0.1937
  264MOL0     H36374  11.105   5.763   3.437 -0.1958 -0.9571 -1.8547
  264MOL0     H36375  10.989   5.780   3.637  0.0109 -0.7465  2.0483
  264MOL0     H36376  10.923   5.619   3.623 -0.6689 -0.1982 -2.9497
  264MOL0     H36377  11.143   5.519   3.710 -0.7187 -0.2657 -1.1230
  264MOL0     H36378  11.072   5.633   3.817  1.5936 -3.7660  1.2278
  264MOL0     H36379  11.314   5.678   3.798  0.9549 -0.6584 -0.9015
  264MOL0     H36380  11.301   5.680   3.620  3.2347  2.4542  1.2647
  264MOL0     H36381  11.160   5.878   3.926 -1.6545  0.5798  0.3921
  264MOL0     H36382  11.022   6.146   3.893  1.0139 -2.9458 -2.8560
  264MOL0     H36383  11.122   6.256   3.802 -3.0789  0.4985 -0.6948
  264MOL0     H36384  11.210   6.297   4.025 -2.1071 -1.5189  2.1165
  264MOL0     H36385  11.191   6.130   4.063 -0.9788 -0.1974 -0.5197
  264MOL0     H36386  11.424   6.185   4.048 -0.2263  0.4412  1.1980
  264MOL0     H36387  11.377   6.063   3.925  0.1948  0.4312  0.7607
  264MOL0     H36388  11.527   6.217   3.814 -1.2472 -0.2424 -3.8377
  264MOL0     H36389  11.370   6.245   3.749  0.3106 -0.5742 -0.2523
  264MOL0     H36390  11.258   6.582   3.833  0.6289  0.6059 -0.3900
  264MOL0     H36391  11.180   6.757   3.588 -3.4623 -2.1127  3.1942
  264MOL0     H36392  11.286   6.884   3.657  0.2622  0.2362  0.5510
  264MOL0     H36393  11.191   6.776   3.761 -1.7502  1.4188 -0.6611
  264MOL0     H36394  11.418   6.807   3.175 -0.0999 -0.4300  1.6658
  264MOL0     H36395  11.444   6.982   2.987  1.7076 -1.6828  1.1174
  264MOL0     H36396  11.680   7.228   2.962  1.1999  0.8165 -2.0232
  264MOL0     H36397  11.545   7.149   2.864  1.3042 -1.1081  0.8155
  264MOL0     H36398  11.641   7.359   2.760  1.8525  1.1269  1.0506
  264MOL0     H36399  11.466   7.358   2.789 -0.5825 -0.0180  1.1152
  264MOL0     H36400  11.498   7.547   2.956  0.9953  4.8121 -1.8529
  264MOL0     H36401  11.601   7.578   2.832 -3.5954  1.6437  0.9895
  264MOL0     H36402  11.786   7.450   2.967 -0.1718  0.0987 -1.5293
  264MOL0     H36403  11.666   7.441   3.097 -0.2224  0.0793  2.1251
  264MOL0     H36404  11.632   7.704   3.094 -1.2483 -0.4961  0.0702
  264MOL0     H36405  11.790   7.654   3.160  0.0487 -0.1789  0.2737
  264MOL0     H36406  11.798   7.846   3.030 -0.9647  1.3935 -1.9838
  264MOL0     H36407  11.715   7.776   2.897  0.6125 -0.0711 -0.1720
  264MOL0     H36408  11.901   7.667   2.824 -0.4644  3.2454 -0.6830
  264MOL0     H36409  11.961   7.636   2.996 -2.4757  1.2871  2.0519
  264MOL0     H36410  12.120   7.780   2.856  1.1000  0.2527  0.7995
  264MOL0     H36411  12.052   7.866   2.999 -0.2567  1.5741 -0.4928
  264MOL0     H36412  11.436   7.289   3.279 -3.1705 -0.3288 -0.5472
  264MOL0     H36413  11.418   7.102   3.458 -1.2135 -0.2960 -0.6192
  264MOL0     H36414  11.643   6.577   3.529 -0.3590  1.4660  0.2833
  264MOL0     H36415  11.605   6.391   3.698 -1.2559 -0.3859 -0.3455
  264MOL0     H36416  11.171   5.408   2.783  0.2407 -0.6843  0.4610
  264MOL0     H36417  11.200   5.336   2.574  0.4681  1.4647  0.6565
  264MOL0     H36418  11.552   4.998   2.410 -2.0591  1.5073 -0.1165
  264MOL0     H36419  11.699   4.899   2.259 -0.6203  1.1153  1.1206
  264MOL0     H36420  11.876   5.027   2.033  0.9391  0.1075 -0.1028
  264MOL0     H36421  11.857   4.863   2.109  1.2308 -4.2231 -2.3697
  264MOL0     H36422  12.007   4.881   1.929 -0.9865  0.2750  1.4577
  264MOL0     H36423  11.872   4.906   1.814 -4.1349  1.1483  1.4161
  264MOL0     H36424  11.895   4.646   1.978  2.1899  0.3773 -0.6275
  264MOL0     H36425  11.765   4.694   1.867 -1.0348  1.3067  1.9369
  264MOL0     H36426  11.934   4.521   1.780  2.9432 -0.4581 -2.5332
  264MOL0     H36427  12.045   4.647   1.767  0.3984 -2.6481  0.1045
  264MOL0     H36428  11.874   4.741   1.423 -0.2858  1.5855  0.5531
  264MOL0     H36429  11.511   5.095   1.935  3.7747  0.2344 -0.6901
  264MOL0     H36430  11.331   5.333   2.131 -0.3744 -0.5099  0.3888
  264MOL0     H36431  11.357   5.262   1.971  4.4155  3.4927  1.6934
  264MOL0     H36432  11.229   5.184   2.067  1.8437 -2.3859 -2.9273
  265MOL0     O36433   3.765   8.569   5.537 -0.2331 -0.6693 -0.4192
  265MOL0     C36434   3.749   8.499   5.432 -0.2198 -0.2827  0.4729
  265MOL0     O36435   3.820   8.520   5.321 -0.5284 -0.4511 -0.2913
  265MOL0     C36436   3.928   8.605   5.324  0.2862  1.3388  0.5096
  265MOL0     C36437   4.060   8.559   5.351  0.7049 -0.6887 -0.3368
  265MOL0     C36438   4.165   8.659   5.358  0.3571 -0.4047 -0.0366
  265MOL0     C36439   4.147   8.789   5.327 -0.2861 -0.3158 -0.2497
  265MOL0     O36440   4.247   8.886   5.305  0.1482 -0.2914 -0.8033
  265MOL0     C36441   4.382   8.859   5.345  0.2659  0.3854  0.9643
  265MOL0     C36442   4.468   8.824   5.215 -0.3731  0.9401 -0.3434
  265MOL0     C36443   4.619   8.812   5.257 -1.7430  0.0988  0.6282
  265MOL0     C36444   4.727   8.856   5.159  0.3780  0.1697  0.1349
  265MOL0     C36445   4.703   8.830   5.011 -0.4736 -0.2885 -0.0173
  265MOL0     C36446   4.687   8.673   4.994  1.3334  0.1427  0.1053
  265MOL0     C36447   4.684   8.650   4.841 -0.0016 -0.4546  0.4402
  265MOL0     C36448   4.642   8.505   4.807 -0.0834 -0.0505 -0.3250
  265MOL0     N36449   4.665   8.482   4.663  0.4871  0.3368 -0.4148
  265MOL0     C36450   4.610   8.556   4.563 -0.4305 -0.2378 -0.3247
  265MOL0     C36451   4.689   8.516   4.451  0.5517  0.7073 -0.8115
  265MOL0     C36452   4.687   8.576   4.313  0.2744 -0.7811 -0.9305
  265MOL0     C36453   4.701   8.727   4.319 -0.3213 -0.2920 -0.7674
  265MOL0     C36454   4.830   8.781   4.377  0.6063 -0.4344 -0.1810
  265MOL0     C36455   4.847   8.935   4.354 -0.0358  0.6427 -0.7333
  265MOL0     O36456   4.974   8.988   4.389 -0.0194 -0.2610  0.1645
  265MOL0     C36457   5.063   8.978   4.278  0.5894 -0.6003  0.2612
  265MOL0     C36458   5.047   8.920   4.149 -0.3729  1.1260  1.2685
  265MOL0     C36459   5.147   8.918   4.051 -0.7168  0.6011 -0.6102
  265MOL0     C36460   5.118   8.849   3.912 -0.3231 -0.4900 -0.7422
  265MOL0     C36461   5.271   8.985   4.080 -0.2601  0.2906 -0.0482
  265MOL0     C36462   5.371   9.014   3.977  0.4298  0.0320  0.1354
  265MOL0     O36463   5.478   9.091   4.018 -1.0011  0.3757 -1.0086
  265MOL0     C36464   5.558   9.183   3.958  1.2975  0.3314  0.0183
  265MOL0     C36465   5.684   9.210   4.009  0.4827  0.2233 -0.7546
  265MOL0     C36466   5.758   9.318   3.964 -0.1982  0.8863  1.1302
  265MOL0     C36467   5.716   9.399   3.855 -0.0693  0.5847  1.0153
  265MOL0     O36468   5.812   9.485   3.808  0.3511 -0.2444  1.0089
  265MOL0     C36469   5.762   9.625   3.787 -0.7993  0.7090  0.3333
  265MOL0     C36470   5.865   9.731   3.813 -0.3864  1.4909  0.0880
  265MOL0     C36471   5.979   9.727   3.715 -0.1813 -0.6610 -0.8128
  265MOL0     C36472   6.085   9.825   3.751 -0.0048  0.0377  1.5129
  265MOL0     C36473   6.058   9.973   3.787  0.6977 -0.2234 -0.3723
  265MOL0     C36474   6.188  10.048   3.833  0.9546 -0.7534  0.2792
  265MOL0     C36475   6.128  10.193   3.867 -0.8047  0.8404  0.5367
  265MOL0     C36476   6.236  10.269   3.938  0.2769 -0.1929 -0.8610
  265MOL0    Cl36477   6.255  10.225   4.106  0.9654 -0.2592  0.0870
  265MOL0     C36478   5.592   9.363   3.796 -0.1213  0.6314  0.7826
  265MOL0     C36479   5.512   9.252   3.842  0.4602 -0.2491  0.3721
  265MOL0     O36480   5.359   8.977   3.866 -0.6173 -0.7421 -0.4794
  265MOL0     C36481   5.292   9.041   4.209 -0.3412  0.2208  0.4218
  265MOL0     C36482   5.191   9.032   4.304 -0.6109 -0.4197  0.0445
  265MOL0     N36483   4.777   8.413   4.493  0.0590 -0.1485 -0.6630
  265MOL0     N36484   4.761   8.401   4.620  0.1319 -0.1004  0.5506
  265MOL0     C36485   4.023   8.835   5.301 -0.8755 -0.2255  0.9729
  265MOL0     C36486   3.918   8.742   5.296 -0.1554 -0.4847  0.6721
  265MOL0     C36487   3.648   8.397   5.420  0.5777  0.4204  0.4008
  265MOL0     C36488   3.695   8.277   5.363 -0.5617  0.8017 -0.2439
  265MOL0     C36489   3.610   8.165   5.345 -0.7175 -0.2932 -0.3742
  265MOL0     C36490   3.479   8.165   5.394 -0.5337 -0.4518 -0.4541
  265MOL0     O36491   3.398   8.059   5.373  0.3407  0.0449  0.1914
  265MOL0     C36492   3.258   8.058   5.403  0.3134 -0.2988  0.2024
  265MOL0     C36493   3.243   8.031   5.550  0.0333 -0.2993  1.1101
  265MOL0     C36494   3.093   8.005   5.586 -0.3133  0.7506  0.3099
  265MOL0     C36495   3.061   7.989   5.733  0.2953  0.2807  0.6638
  265MOL0     C36496   2.918   7.984   5.744 -0.3428  0.2281 -0.6775
  265MOL0     C36497   2.794   7.977   5.751  0.0735  0.0825 -0.0904
  265MOL0     C36498   3.431   8.285   5.444 -0.5906  0.6409 -0.4659
  265MOL0     C36499   3.511   8.401   5.465 -0.4316 -1.0337 -0.2320
  265MOL0     C36500   3.445   8.518   5.531  0.0688  0.3237  0.7900
  265MOL0     H36501   4.083   8.457   5.379  0.7769 -1.6047 -3.3543
  265MOL0     H36502   4.266   8.629   5.384  0.3027  1.0687  2.1537
  265MOL0     H36503   4.389   8.780   5.420 -1.5278 -1.4933 -0.7060
  265MOL0     H36504   4.420   8.957   5.375 -0.3744  2.5358 -4.1983
  265MOL0     H36505   4.428   8.727   5.183 -3.2614  1.4857  1.2894
  265MOL0     H36506   4.448   8.900   5.140 -1.3955 -1.2625 -2.4382
  265MOL0     H36507   4.638   8.875   5.345 -0.1368  0.8884 -0.2197
  265MOL0     H36508   4.648   8.708   5.276  0.0889  0.4751  0.1096
  265MOL0     H36509   4.752   8.962   5.170  1.5002 -0.1725  1.1492
  265MOL0     H36510   4.819   8.800   5.178  1.7171  1.2617 -2.6771
  265MOL0     H36511   4.782   8.865   4.943  0.2504  1.2927  1.5517
  265MOL0     H36512   4.610   8.879   4.983 -0.1508  0.8173  0.7810
  265MOL0     H36513   4.778   8.620   5.027  3.0122  0.7120 -3.1907
  265MOL0     H36514   4.596   8.631   5.037  1.5969  1.2719  1.8723
  265MOL0     H36515   4.775   8.688   4.795 -0.9354  2.2363  0.6373
  265MOL0     H36516   4.607   8.715   4.798  2.9752  2.3677 -1.0961
  265MOL0     H36517   4.699   8.426   4.858  0.3105 -0.5126 -1.4535
  265MOL0     H36518   4.536   8.495   4.833  0.1660 -1.2299  0.3221
  265MOL0     H36519   4.541   8.639   4.576  0.2751  0.9037 -3.1180
  265MOL0     H36520   4.594   8.545   4.266 -0.4763 -0.1988  0.1406
  265MOL0     H36521   4.774   8.539   4.258  1.1386  1.1051 -0.9054
  265MOL0     H36522   4.683   8.781   4.226  2.4522  5.3809  1.5201
  265MOL0     H36523   4.621   8.778   4.374  0.9344  3.2010 -1.9240
  265MOL0     H36524   4.825   8.757   4.484 -0.2410  0.7422  0.0604
  265MOL0     H36525   4.915   8.741   4.322  0.3364  1.4516 -2.1221
  265MOL0     H36526   4.827   8.969   4.252  1.2949  3.4128 -0.1660
  265MOL0     H36527   4.770   8.978   4.419  1.8423  2.9078  0.1237
  265MOL0     H36528   4.959   8.865   4.116  0.8046  2.1757 -4.6211
  265MOL0     H36529   5.011   8.826   3.904 -0.4364 -0.8478  1.3230
  265MOL0     H36530   5.172   8.754   3.913 -3.3985 -2.3867  0.7742
  265MOL0     H36531   5.144   8.921   3.834 -0.5808 -0.0016 -0.3866
  265MOL0     H36532   5.724   9.146   4.088  0.4742  0.5268 -0.5048
  265MOL0     H36533   5.861   9.339   3.990  2.0896 -1.6496 -4.3006
  265MOL0     H36534   5.722   9.634   3.685 -0.1244 -0.6434 -0.0753
  265MOL0     H36535   5.682   9.643   3.860  1.3819 -3.0390  4.0866
  265MOL0     H36536   5.815   9.827   3.825 -0.3408  1.2573  2.8934
  265MOL0     H36537   5.893   9.714   3.918 -2.1869  0.1470  0.3987
  265MOL0     H36538   5.940   9.744   3.615  1.1377  0.2708 -1.1942
  265MOL0     H36539   6.037   9.634   3.725 -1.1394 -1.0303  2.5173
  265MOL0     H36540   6.147   9.821   3.661 -1.0763  1.5434  0.6815
  265MOL0     H36541   6.143   9.787   3.836  2.0786 -0.1201  0.1167
  265MOL0     H36542   6.027  10.037   3.703  1.1377  2.2163  1.2111
  265MOL0     H36543   5.981   9.982   3.864  2.2851 -1.2936  1.3950
  265MOL0     H36544   6.242  10.052   3.738 -0.3557 -2.5251 -0.5955
  265MOL0     H36545   6.259  10.000   3.900  2.4862 -3.3887 -2.9479
  265MOL0     H36546   6.038  10.196   3.928 -0.9883 -0.2974  0.3363
  265MOL0     H36547   6.104  10.242   3.772 -1.1293 -1.7433 -0.8076
  265MOL0     H36548   6.226  10.377   3.930  1.4767  0.0455  0.4314
  265MOL0     H36549   6.327  10.263   3.877 -0.0681  0.2461 -1.4177
  265MOL0     H36550   5.557   9.407   3.704  0.1501 -1.3003 -0.2950
  265MOL0     H36551   5.416   9.233   3.796 -0.3643 -1.9455  2.6138
  265MOL0     H36552   5.382   9.095   4.238  2.3091 -1.9431 -2.9222
  265MOL0     H36553   5.197   9.075   4.403  2.4456 -1.7349  0.5462
  265MOL0     H36554   3.997   8.939   5.284  3.4299  1.2400  2.1935
  265MOL0     H36555   3.816   8.770   5.273 -0.3262 -0.8360  1.0036
  265MOL0     H36556   3.795   8.253   5.328 -1.6568 -1.6278 -2.0040
  265MOL0     H36557   3.638   8.074   5.293  0.6050 -0.1119 -0.0128
  265MOL0     H36558   3.210   8.151   5.372  0.4679 -0.4683 -0.5513
  265MOL0     H36559   3.206   7.980   5.347 -1.4974  0.8457  0.2075
  265MOL0     H36560   3.298   8.106   5.608  1.3757 -0.5319  0.1770
  265MOL0     H36561   3.296   7.941   5.580  1.4613  0.2930  0.4503
  265MOL0     H36562   3.036   8.088   5.544 -0.7675  1.3363  1.9840
  265MOL0     H36563   3.056   7.917   5.534  0.9266 -0.8876  2.0468
  265MOL0     H36564   3.104   8.078   5.781  0.9864  0.0660  0.4666
  265MOL0     H36565   3.107   7.899   5.774  1.6061  0.9024  0.6218
  265MOL0     H36566   2.687   7.970   5.749 -0.0734  1.8045 -0.1364
  265MOL0     H36567   3.323   8.290   5.460 -0.6886 -1.0493 -0.3668
  265MOL0     H36568   3.413   8.491   5.632  1.4457 -1.4777  0.8069
  265MOL0     H36569   3.511   8.605   5.541  0.0707  0.6709 -1.6878
  265MOL0     H36570   3.358   8.544   5.470  1.9007 -0.0118 -2.1413
  266MOL0     O36571   6.659   7.056   2.374 -0.0814  0.2960  0.3488
  266MOL0     C36572   6.543   7.005   2.388 -0.4877 -0.4650  0.7231
  266MOL0     O36573   6.436   7.016   2.299  0.0382  0.5070  0.2438
  266MOL0     C36574   6.437   7.068   2.174  0.7597  1.0896  1.1665
  266MOL0     C36575   6.324   7.043   2.102 -0.4466 -0.0930  0.0826
  266MOL0     C36576   6.301   7.090   1.973  0.1562 -0.6323 -0.7448
  266MOL0     C36577   6.394   7.183   1.914  1.0867 -0.1872 -0.2215
  266MOL0     O36578   6.367   7.230   1.788 -0.7752 -0.5040  0.4985
  266MOL0     C36579   6.416   7.355   1.757 -0.3238 -1.3018  0.9517
  266MOL0     C36580   6.354   7.425   1.640 -0.3552 -0.4545 -1.4621
  266MOL0     C36581   6.312   7.334   1.531 -0.0750 -0.0058  1.4222
  266MOL0     C36582   6.231   7.379   1.422  0.5669  0.2313  0.4922
  266MOL0     C36583   6.197   7.261   1.320  0.9408 -0.2558 -0.0734
  266MOL0     C36584   6.085   7.167   1.364  0.2894  0.1851 -0.2805
  266MOL0     C36585   6.031   7.070   1.248  0.2467  0.1774 -0.3356
  266MOL0     C36586   6.147   6.972   1.205  0.1146 -0.9654  0.2970
  266MOL0     N36587   6.187   6.981   1.061  0.5640  0.3727 -0.9512
  266MOL0     C36588   6.110   6.996   0.946  0.1805  0.5047  0.3378
  266MOL0     C36589   6.197   7.026   0.846  0.0885 -0.4320 -0.4401
  266MOL0     C36590   6.162   7.081   0.715 -0.0575  0.2913  0.2661
  266MOL0     C36591   6.130   6.961   0.621  0.0521 -0.5959  0.4119
  266MOL0     C36592   6.123   6.990   0.476 -0.2704  0.3766 -0.5629
  266MOL0     C36593   6.080   6.862   0.403  0.5473  0.5649  0.8413
  266MOL0     O36594   6.015   6.905   0.277  0.4983  0.4381 -0.1808
  266MOL0     C36595   5.971   6.803   0.192 -0.0118  0.0561 -0.1499
  266MOL0     C36596   5.906   6.837   0.076  0.3652 -0.3290  0.5079
  266MOL0     C36597   5.850   6.747  -0.008 -0.7501 -0.7561  0.1020
  266MOL0     C36598   5.768   6.810  -0.127 -0.3668  0.2327 -0.2366
  266MOL0     C36599   5.879   6.608   0.017 -0.8040 -0.1313  1.0725
  266MOL0     C36600   5.833   6.504  -0.073 -1.1588  0.1276 -0.3215
  266MOL0     O36601   5.786   6.390  -0.016 -0.0409  0.1038  0.4435
  266MOL0     C36602   5.783   6.269  -0.080  1.0677 -0.3286 -0.2638
  266MOL0     C36603   5.755   6.260  -0.221 -0.8306  0.7563  0.8108
  266MOL0     C36604   5.750   6.136  -0.284 -0.3320  0.9772  0.0419
  266MOL0     C36605   5.775   6.021  -0.212 -0.3423 -0.5945  0.4593
  266MOL0     O36606   5.784   5.905  -0.280 -0.4663 -0.2208  0.4686
  266MOL0     C36607   5.827   5.774  -0.233 -0.1401 -0.1234  0.1649
  266MOL0     C36608   5.978   5.753  -0.197  1.1841  0.1574  0.5483
  266MOL0     C36609   6.050   5.713  -0.333 -0.3787  0.2901  0.2015
  266MOL0     C36610   6.205   5.682  -0.304  0.9204 -0.2695  0.7356
  266MOL0     C36611   6.264   5.668  -0.448  1.3797 -0.4327  0.7844
  266MOL0     C36612   6.424   5.686  -0.456  0.2903  0.3145 -0.6699
  266MOL0     C36613   6.449   5.839  -0.445  0.2122 -0.2277  0.0265
  266MOL0     C36614   6.601   5.876  -0.443  0.0287 -0.9140  0.7805
  266MOL0    Cl36615   6.597   6.044  -0.388  0.3902 -0.2028 -0.1300
  266MOL0     C36616   5.799   6.028  -0.075 -0.1581  0.0549 -0.7417
  266MOL0     C36617   5.807   6.156  -0.008  0.1065 -0.3391 -0.8052
  266MOL0     O36618   5.846   6.518  -0.191 -0.5826  0.1214  0.2876
  266MOL0     C36619   5.934   6.568   0.134  0.0624 -0.0238 -1.3162
  266MOL0     C36620   5.990   6.666   0.214  0.1379 -0.3808 -0.9371
  266MOL0     N36621   6.324   7.003   0.901  0.0930 -0.7259  0.1034
  266MOL0     N36622   6.314   6.976   1.031  0.0901  0.2413 -0.1418
  266MOL0     C36623   6.512   7.201   1.989 -0.2109  0.3696 -0.3756
  266MOL0     C36624   6.533   7.150   2.116  0.2997 -0.5173  0.7990
  266MOL0     C36625   6.525   6.941   2.521 -0.0777 -1.2216  1.9694
  266MOL0     C36626   6.415   6.987   2.596  0.0418  0.4914 -0.0800
  266MOL0     C36627   6.395   6.937   2.722 -0.2192  0.6147 -0.2436
  266MOL0     C36628   6.480   6.836   2.774  0.5661  0.3333  0.3351
  266MOL0     O36629   6.448   6.781   2.898  0.3928 -0.3724 -0.4589
  266MOL0     C36630   6.489   6.646   2.918  0.0638  0.2743 -0.3147
  266MOL0     C36631   6.431   6.594   3.056  0.2968  0.0899 -0.1555
  266MOL0     C36632   6.283   6.585   3.072  0.7537  0.7246  0.9537
  266MOL0     C36633   6.241   6.513   3.191 -0.4029  0.0442  0.5416
  266MOL0     C36634   6.275   6.566   3.322  0.4411 -0.3498 -0.4481
  266MOL0     C36635   6.263   6.603   3.434 -1.2672  0.7079 -0.3821
  266MOL0     C36636   6.592   6.805   2.699 -0.7702  0.1837  0.2048
  266MOL0     C36637   6.617   6.856   2.575 -1.3373 -0.1138  0.4467
  266MOL0     C36638   6.729   6.793   2.492  1.0039 -0.4373 -0.7106
  266MOL0     H36639   6.259   6.975   2.156  0.6094 -1.0096  0.2510
  266MOL0     H36640   6.212   7.068   1.914 -0.4007 -2.5574  0.6807
  266MOL0     H36641   6.517   7.327   1.727 -1.9032 -2.1944 -4.7524
  266MOL0     H36642   6.421   7.426   1.841  2.2039 -2.2453  1.6885
  266MOL0     H36643   6.263   7.476   1.675  1.8850  2.2002  1.0947
  266MOL0     H36644   6.423   7.496   1.594  1.5175 -1.9058 -0.9890
  266MOL0     H36645   6.401   7.288   1.487 -1.6964 -0.1021 -2.0586
  266MOL0     H36646   6.247   7.257   1.575 -0.5939 -2.5282 -3.1574
  266MOL0     H36647   6.139   7.427   1.456  1.2985  2.0759  0.0371
  266MOL0     H36648   6.281   7.464   1.374  0.3791 -0.1333 -0.3757
  266MOL0     H36649   6.286   7.198   1.307 -0.3724 -2.8220  2.2914
  266MOL0     H36650   6.158   7.303   1.227 -0.0996  0.1144  0.5111
  266MOL0     H36651   6.119   7.094   1.438  2.4079 -1.9890 -3.1840
  266MOL0     H36652   6.009   7.234   1.407 -1.3721 -2.3660  1.0500
  266MOL0     H36653   6.001   7.126   1.158  1.1507 -1.6089 -1.8039
  266MOL0     H36654   5.952   7.006   1.289  1.2485 -2.0266 -1.6690
  266MOL0     H36655   6.236   6.978   1.269 -0.5701 -1.8191  1.3484
  266MOL0     H36656   6.107   6.875   1.234  1.5614 -0.9625  2.6057
  266MOL0     H36657   6.004   7.002   0.925 -0.0900 -1.1871  1.0485
  266MOL0     H36658   6.252   7.133   0.682 -0.5376  2.3845  2.0830
  266MOL0     H36659   6.084   7.156   0.725  0.2756  0.7804 -0.7396
  266MOL0     H36660   6.204   6.881   0.634  1.2262  0.5941  1.2029
  266MOL0     H36661   6.043   6.901   0.651 -1.4136  0.0365 -2.2367
  266MOL0     H36662   6.048   7.066   0.453  1.6665  2.0870 -1.5673
  266MOL0     H36663   6.223   7.012   0.439  0.2864 -1.9607 -0.5986
  266MOL0     H36664   6.164   6.795   0.382 -0.2947 -1.2645  2.9185
  266MOL0     H36665   6.003   6.804   0.455 -0.0878 -0.5516 -1.2308
  266MOL0     H36666   5.885   6.943   0.072  0.7985 -0.2897 -1.9582
  266MOL0     H36667   5.800   6.773  -0.225 -0.2937  0.2737 -0.2282
  266MOL0     H36668   5.768   6.919  -0.119  0.5731  0.3870 -2.0601
  266MOL0     H36669   5.668   6.765  -0.120  1.0218 -2.8755  2.6790
  266MOL0     H36670   5.728   6.337  -0.292  1.0829 -1.5114 -2.6173
  266MOL0     H36671   5.723   6.141  -0.390 -1.2218  2.6074  0.3107
  266MOL0     H36672   5.774   5.753  -0.140 -0.5494  4.1295  1.1307
  266MOL0     H36673   5.795   5.704  -0.310 -0.4632  0.2321 -0.0253
  266MOL0     H36674   6.024   5.839  -0.148 -0.1216  1.2020  0.0170
  266MOL0     H36675   5.973   5.663  -0.135 -3.8316  0.4124  0.9098
  266MOL0     H36676   6.044   5.797  -0.402  4.5177  2.0613  1.5124
  266MOL0     H36677   6.018   5.620  -0.382 -0.0195  1.2798 -2.0045
  266MOL0     H36678   6.224   5.590  -0.250  1.5585 -1.3189 -1.1759
  266MOL0     H36679   6.246   5.768  -0.251  0.8385 -1.5673  3.0337
  266MOL0     H36680   6.232   5.571  -0.486  0.5111  0.7320 -1.6560
  266MOL0     H36681   6.226   5.750  -0.510  1.0225  0.6392  2.3462
  266MOL0     H36682   6.450   5.653  -0.557 -2.1291  0.1112 -1.2944
  266MOL0     H36683   6.493   5.633  -0.390  1.6011 -0.3494 -2.4963
  266MOL0     H36684   6.409   5.879  -0.351 -0.1467  0.1844 -0.2988
  266MOL0     H36685   6.385   5.887  -0.520 -1.6020  0.1086  1.7002
  266MOL0     H36686   6.642   5.874  -0.544  1.3823  2.5234  1.1140
  266MOL0     H36687   6.659   5.814  -0.375 -0.2056 -2.8379 -0.6890
  266MOL0     H36688   5.817   5.934  -0.025 -2.8060 -1.0187 -1.6008
  266MOL0     H36689   5.818   6.154   0.100 -1.5033 -2.4582 -0.5935
  266MOL0     H36690   5.934   6.466   0.171 -1.1017  1.1834  2.5074
  266MOL0     H36691   6.037   6.626   0.303  2.7396 -1.8570 -2.8678
  266MOL0     H36692   6.583   7.273   1.950 -0.4434  2.1879  2.2413
  266MOL0     H36693   6.630   7.171   2.159  1.0677  1.3790 -1.6343
  266MOL0     H36694   6.342   7.058   2.558  0.6550  1.4155  0.4466
  266MOL0     H36695   6.307   6.956   2.782 -0.1232  1.1524 -0.2634
  266MOL0     H36696   6.440   6.580   2.846  3.5276 -1.1349 -1.5946
  266MOL0     H36697   6.597   6.629   2.917  0.1818  0.9061  0.8647
  266MOL0     H36698   6.472   6.651   3.140  2.4728 -0.1014 -1.0107
  266MOL0     H36699   6.472   6.493   3.068 -3.2130 -1.1725  2.7093
  266MOL0     H36700   6.240   6.684   3.059 -3.2100 -1.1391 -1.9094
  266MOL0     H36701   6.254   6.521   2.989  0.1018 -0.4890  2.0721
  266MOL0     H36702   6.286   6.414   3.179 -1.4823 -0.6864  2.0231
  266MOL0     H36703   6.134   6.490   3.190 -0.9253  2.2653  0.0395
  266MOL0     H36704   6.255   6.627   3.538  4.4349 -2.5913  1.2636
  266MOL0     H36705   6.662   6.738   2.749 -2.2762 -1.3495  0.3740
  266MOL0     H36706   6.718   6.822   2.387 -2.5966 -0.5299 -0.4850
  266MOL0     H36707   6.823   6.830   2.534  0.1557  1.2243 -0.1929
  266MOL0     H36708   6.729   6.684   2.491 -0.6529 -0.4757  0.2785
  267MOL0     O36709   2.043   5.779  11.071 -0.7519 -0.1463  0.0347
  267MOL0     C36710   2.015   5.701  10.979  0.3542  0.5218  0.2240
  267MOL0     O36711   2.088   5.684  10.861 -0.3600 -0.9258 -0.7702
  267MOL0     C36712   2.224   5.693  10.862  0.2050  0.6325  1.1535
  267MOL0     C36713   2.272   5.745  10.742  0.6409 -0.4148 -0.6921
  267MOL0     C36714   2.409   5.751  10.729  0.9991  0.0631  0.0852
  267MOL0     C36715   2.492   5.681  10.816  0.4484 -0.2463 -0.1348
  267MOL0     O36716   2.623   5.661  10.790 -0.1524  0.4414  0.5275
  267MOL0     C36717   2.663   5.667  10.654 -0.7882  0.4459 -0.3881
  267MOL0     C36718   2.804   5.601  10.638  0.3570  0.9294  0.2589
  267MOL0     C36719   2.912   5.698  10.684 -1.1302 -0.1794  0.1557
  267MOL0     C36720   2.976   5.773  10.567 -0.2342  0.1394  1.2179
  267MOL0     C36721   3.060   5.898  10.589 -0.2544 -1.6030  1.0954
  267MOL0     C36722   2.967   6.015  10.601 -0.0628 -0.0275 -0.2704
  267MOL0     C36723   3.036   6.142  10.665 -0.5119 -0.0082 -0.2387
  267MOL0     C36724   3.061   6.128  10.821  0.2195 -0.8231 -0.5258
  267MOL0     N36725   3.101   6.259  10.882 -0.3471  0.8524 -0.8610
  267MOL0     C36726   3.213   6.334  10.869 -0.3801 -0.3087 -0.4759
  267MOL0     C36727   3.186   6.462  10.919  0.3164 -0.5646  0.4116
  267MOL0     C36728   3.268   6.590  10.911 -0.0045  1.2209  0.5851
  267MOL0     C36729   3.205   6.697  10.831 -0.6275  0.8300 -1.0859
  267MOL0     C36730   3.269   6.832  10.855 -0.1773 -0.2407 -0.4348
  267MOL0     C36731   3.185   6.949  10.806  0.4969  0.3556  0.5321
  267MOL0     O36732   3.240   7.075  10.850 -0.2675 -0.0272 -0.4845
  267MOL0     C36733   3.346   7.130  10.780 -0.6225 -0.0184  0.2319
  267MOL0     C36734   3.381   7.104  10.651 -0.9088  0.4614  0.4621
  267MOL0     C36735   3.508   7.153  10.598  0.6963 -1.1339  0.1655
  267MOL0     C36736   3.526   7.104  10.452 -0.1377 -0.7717 -0.9390
  267MOL0     C36737   3.590   7.241  10.676 -0.3868  0.2963 -0.3040
  267MOL0     C36738   3.718   7.306  10.624 -0.7323 -0.2817 -0.1286
  267MOL0     O36739   3.740   7.429  10.666 -0.8162  0.0554 -0.4774
  267MOL0     C36740   3.868   7.472  10.651 -0.1288 -0.2545 -1.0320
  267MOL0     C36741   3.956   7.480  10.763 -0.4155  0.0367 -0.3909
  267MOL0     C36742   4.095   7.496  10.737  0.2541 -0.5225 -0.8681
  267MOL0     C36743   4.143   7.525  10.606  1.6006 -0.5748  0.0444
  267MOL0     O36744   4.264   7.549  10.577 -0.1950 -1.4687  0.0800
  267MOL0     C36745   4.362   7.538  10.684  0.8197 -0.0041  0.4545
  267MOL0     C36746   4.492   7.589  10.631 -0.8203  1.0029  0.4686
  267MOL0     C36747   4.538   7.487  10.522  1.4390  0.5715  0.2529
  267MOL0     C36748   4.666   7.521  10.454  0.0281 -0.2942  0.5010
  267MOL0     C36749   4.686   7.453  10.327 -0.4931 -0.0400  0.6736
  267MOL0     C36750   4.791   7.539  10.241  0.1982 -1.3495 -0.6447
  267MOL0     C36751   4.788   7.468  10.103  0.5294 -0.4638  0.0468
  267MOL0     C36752   4.915   7.516  10.023  0.3243  0.1896 -0.7045
  267MOL0    Cl36753   4.894   7.439   9.857 -0.2203 -0.0344  0.9225
  267MOL0     C36754   4.047   7.526  10.498 -0.7636 -0.6752 -0.7428
  267MOL0     C36755   3.909   7.509  10.521  0.3107  0.5458  0.2011
  267MOL0     O36756   3.789   7.237  10.556  0.3084 -0.1704  0.0374
  267MOL0     C36757   3.542   7.283  10.798  0.3017  0.0623 -0.0648
  267MOL0     C36758   3.422   7.221  10.849 -0.5976 -0.4421 -0.3658
  267MOL0     N36759   3.061   6.450  10.977  0.5153 -0.5907 -0.1782
  267MOL0     N36760   3.008   6.336  10.956 -0.4379 -0.3633  0.4179
  267MOL0     C36761   2.443   5.629  10.940 -0.2367  0.3338  1.2898
  267MOL0     C36762   2.307   5.636  10.961 -0.3971 -0.0203 -0.3199
  267MOL0     C36763   1.876   5.636  10.963 -0.4308 -1.0303 -0.0117
  267MOL0     C36764   1.877   5.513  10.911 -0.6356 -0.1055  0.6307
  267MOL0     C36765   1.762   5.431  10.900 -0.5390  0.3626 -0.3935
  267MOL0     C36766   1.641   5.483  10.951 -0.3261 -0.1749 -0.2026
  267MOL0     O36767   1.521   5.412  10.966 -0.3488 -0.8932  0.0465
  267MOL0     C36768   1.526   5.274  10.925  0.0303 -0.3316  0.1423
  267MOL0     C36769   1.390   5.196  10.946  0.4279 -0.4085  0.7573
  267MOL0     C36770   1.299   5.247  11.055  0.3241  0.3121  0.3183
  267MOL0     C36771   1.158   5.187  11.060 -0.7355  0.3007  0.0656
  267MOL0     C36772   1.092   5.236  11.174 -0.1795  0.2882  0.0239
  267MOL0     C36773   1.028   5.284  11.265  0.3124  0.1363 -0.4228
  267MOL0     C36774   1.647   5.616  11.007  0.2300  0.2338 -0.8454
  267MOL0     C36775   1.759   5.699  11.007 -0.1601 -0.5575 -0.0264
  267MOL0     C36776   1.747   5.845  11.050  0.5091 -0.4794  0.0699
  267MOL0     H36777   2.184   5.778  10.688  0.8293  1.6951  0.1732
  267MOL0     H36778   2.441   5.788  10.632 -2.4406  0.5748 -0.9911
  267MOL0     H36779   2.666   5.772  10.625 -2.8479  0.5265 -0.4579
  267MOL0     H36780   2.583   5.619  10.595 -2.1001  0.5407  1.2585
  267MOL0     H36781   2.806   5.505  10.690  1.7482  1.2543  0.8458
  267MOL0     H36782   2.819   5.569  10.534 -0.2372 -1.9687  0.9946
  267MOL0     H36783   2.878   5.766  10.763 -1.7100  0.4672 -0.6326
  267MOL0     H36784   2.991   5.635  10.726  0.9559  3.2387  1.8678
  267MOL0     H36785   3.040   5.707  10.507 -0.2139 -1.1420  2.5963
  267MOL0     H36786   2.896   5.794  10.496  0.7555 -3.6452 -1.3613
  267MOL0     H36787   3.132   5.914  10.509 -3.5889  0.4934 -1.8170
  267MOL0     H36788   3.109   5.871  10.683 -0.5536 -2.5435  0.9892
  267MOL0     H36789   2.942   6.035  10.496  0.7634 -0.9468 -0.6640
  267MOL0     H36790   2.880   5.995  10.664 -0.6308 -0.4913 -1.1800
  267MOL0     H36791   2.962   6.222  10.655 -2.6145 -1.8446 -0.2951
  267MOL0     H36792   3.129   6.156  10.609 -1.4304  0.8663 -1.6153
  267MOL0     H36793   2.979   6.088  10.881  0.8813 -0.3290  0.7448
  267MOL0     H36794   3.136   6.053  10.848 -1.7886 -2.5447  0.5681
  267MOL0     H36795   3.303   6.310  10.814 -1.0859  1.3408 -2.4606
  267MOL0     H36796   3.359   6.558  10.860  0.7010 -1.3705  3.2056
  267MOL0     H36797   3.301   6.632  11.007  1.2593 -0.1771  0.7871
  267MOL0     H36798   3.228   6.671  10.727  6.0046  1.3049 -0.1903
  267MOL0     H36799   3.101   6.702  10.864 -0.2460 -3.3269  1.5108
  267MOL0     H36800   3.267   6.845  10.964 -3.0477  0.5863 -0.5175
  267MOL0     H36801   3.368   6.839  10.809  2.0196 -1.6660  3.5362
  267MOL0     H36802   3.171   6.944  10.697  1.2633  1.7483  0.3537
  267MOL0     H36803   3.086   6.937  10.851  1.2977  2.1256  2.9365
  267MOL0     H36804   3.316   7.038  10.595 -1.1770  0.7766  0.3961
  267MOL0     H36805   3.518   6.995  10.448 -1.3582 -0.7043 -0.9212
  267MOL0     H36806   3.624   7.128  10.410 -0.2460 -0.7775 -1.1995
  267MOL0     H36807   3.456   7.156  10.385  2.0845  1.8262 -1.4126
  267MOL0     H36808   3.932   7.447  10.863  6.3859 -1.5820  1.1871
  267MOL0     H36809   4.158   7.475  10.823 -0.2841 -3.2330 -1.0569
  267MOL0     H36810   4.338   7.610  10.762 -1.1470 -2.0196  1.8346
  267MOL0     H36811   4.370   7.434  10.718 -3.4523 -1.2118 -1.4631
  267MOL0     H36812   4.493   7.694  10.599  0.0510  1.6226  2.3902
  267MOL0     H36813   4.557   7.567  10.716 -0.3577 -2.0787 -0.5599
  267MOL0     H36814   4.459   7.482  10.447  1.5301  2.4975 -0.0309
  267MOL0     H36815   4.548   7.388  10.568  2.0600 -0.7263 -2.4905
  267MOL0     H36816   4.744   7.491  10.525  0.5357  0.2428  0.1795
  267MOL0     H36817   4.668   7.629  10.439  0.8594 -0.7099 -3.3816
  267MOL0     H36818   4.732   7.355  10.345  1.3370  1.2183  3.6610
  267MOL0     H36819   4.590   7.440  10.276 -1.2709 -1.4946  2.4325
  267MOL0     H36820   4.888   7.529  10.292 -0.4447 -1.8426  0.5060
  267MOL0     H36821   4.779   7.647  10.233 -0.0879 -1.3785 -0.5950
  267MOL0     H36822   4.689   7.495  10.065 -0.0123  0.2011  1.8241
  267MOL0     H36823   4.785   7.362  10.128 -1.1489 -0.2972  0.6809
  267MOL0     H36824   4.991   7.491  10.097 -0.7747 -0.5068  0.2252
  267MOL0     H36825   4.913   7.623  10.000  2.0256  0.1850 -0.9828
  267MOL0     H36826   4.072   7.558  10.397 -0.7113  4.4940  0.6625
  267MOL0     H36827   3.834   7.498  10.442 -1.1922  0.0742  1.6237
  267MOL0     H36828   3.590   7.357  10.862  2.9600 -2.3712  1.0177
  267MOL0     H36829   3.398   7.249  10.951  0.1450 -1.2963  0.0581
  267MOL0     H36830   2.507   5.582  11.013 -1.6153  0.5779  2.7061
  267MOL0     H36831   2.264   5.597  11.053 -0.1306 -1.7003 -0.8844
  267MOL0     H36832   1.969   5.475  10.867 -0.8835  0.0816 -0.0736
  267MOL0     H36833   1.767   5.338  10.845 -2.2558  0.4812 -0.8264
  267MOL0     H36834   1.568   5.263  10.825 -0.7204 -1.6253 -0.0487
  267MOL0     H36835   1.600   5.222  10.986  0.0826 -1.7801 -1.0846
  267MOL0     H36836   1.415   5.092  10.967 -0.3500 -0.7677 -0.0308
  267MOL0     H36837   1.341   5.201  10.848  1.1781 -0.0456  0.3891
  267MOL0     H36838   1.359   5.223  11.143  1.3366 -1.5523 -0.8120
  267MOL0     H36839   1.293   5.355  11.047 -1.0609  0.1909 -0.5524
  267MOL0     H36840   1.151   5.078  11.057  0.8140  0.1946 -1.1540
  267MOL0     H36841   1.104   5.228  10.974  0.6657  1.1497 -0.4551
  267MOL0     H36842   0.986   5.329  11.353  3.2196  1.0378  0.6273
  267MOL0     H36843   1.556   5.659  11.048 -0.9736  1.0172 -4.0036
  267MOL0     H36844   1.790   5.918  10.981 -0.3237  1.5514  1.5872
  267MOL0     H36845   1.644   5.877  11.068  2.1380  3.8726  3.2522
  267MOL0     H36846   1.797   5.863  11.145  0.0329  0.3661  0.1730
  268MOL0     O36847   3.249   8.271   7.582 -0.8990 -0.4539 -0.8020
  268MOL0     C36848   3.172   8.259   7.490 -0.4866 -0.5422 -0.6090
  268MOL0     O36849   3.052   8.197   7.484 -0.1056  0.2301 -0.1317
  268MOL0     C36850   2.965   8.177   7.583 -1.0437 -1.0725 -0.1684
  268MOL0     C36851   2.873   8.075   7.573  0.8584 -0.0318 -0.5856
  268MOL0     C36852   2.797   8.039   7.686 -0.5448 -0.3156 -0.0738
  268MOL0     C36853   2.811   8.111   7.801  0.1790 -0.8683  0.1323
  268MOL0     O36854   2.741   8.074   7.903 -0.0845 -0.1868 -0.7247
  268MOL0     C36855   2.736   8.148   8.029 -0.7522  0.2010 -0.9355
  268MOL0     C36856   2.638   8.087   8.124  1.0817 -0.3550  0.7698
  268MOL0     C36857   2.607   8.180   8.246 -0.1982  0.2895 -0.3383
  268MOL0     C36858   2.503   8.099   8.321  1.1288  0.4384 -0.3435
  268MOL0     C36859   2.439   8.193   8.430 -0.0876 -1.1557  0.4566
  268MOL0     C36860   2.346   8.123   8.527 -0.4071 -0.1395 -0.1250
  268MOL0     C36861   2.348   8.189   8.669 -0.4818  0.1401  1.3478
  268MOL0     C36862   2.470   8.148   8.749 -0.2093 -0.4331 -0.5646
  268MOL0     N36863   2.498   8.245   8.856 -0.1723  0.1276  0.9879
  268MOL0     C36864   2.426   8.263   8.969 -0.1357 -0.4057  0.1960
  268MOL0     C36865   2.477   8.371   9.029  0.7024  0.2875  0.6299
  268MOL0     C36866   2.441   8.430   9.160 -0.3108  0.1834 -0.0313
  268MOL0     C36867   2.515   8.377   9.278 -0.4289  0.9233  0.8003
  268MOL0     C36868   2.444   8.408   9.408  0.0958  0.3690 -0.7641
  268MOL0     C36869   2.520   8.358   9.525 -0.0791 -0.2107  0.2643
  268MOL0     O36870   2.647   8.419   9.535  0.4155  0.1693  0.1370
  268MOL0     C36871   2.649   8.538   9.603 -1.6938  0.1584  0.7481
  268MOL0     C36872   2.652   8.644   9.515 -0.4439  0.3776 -0.2077
  268MOL0     C36873   2.637   8.777   9.566 -0.2673  1.0195 -0.0671
  268MOL0     C36874   2.622   8.881   9.465  0.0598 -0.2179  0.2726
  268MOL0     C36875   2.640   8.797   9.698 -0.4795  0.1709 -0.1333
  268MOL0     C36876   2.637   8.932   9.757 -0.4654 -0.8725  0.3483
  268MOL0     O36877   2.562   8.936   9.872  0.4795  0.1110 -0.4442
  268MOL0     C36878   2.575   9.033   9.965 -0.8050  1.2199 -1.4966
  268MOL0     C36879   2.698   9.092  10.024  0.5881 -0.5869  0.6533
  268MOL0     C36880   2.685   9.178  10.139 -0.4838  0.4977 -0.2638
  268MOL0     C36881   2.563   9.223  10.182  1.0545  0.6428  0.6088
  268MOL0     O36882   2.560   9.316  10.286  0.1646  0.2991 -0.6330
  268MOL0     C36883   2.480   9.273  10.398 -0.6355  1.0074 -0.2731
  268MOL0     C36884   2.366   9.376  10.418  0.2596  0.0421  0.1744
  268MOL0     C36885   2.228   9.307  10.429  0.2378 -0.1549 -0.8497
  268MOL0     C36886   2.111   9.406  10.424  0.4251 -0.4184 -0.5377
  268MOL0     C36887   1.962   9.349  10.432 -0.6214 -0.9046 -0.0532
  268MOL0     C36888   1.837   9.447  10.439  0.2953  0.0347  0.4737
  268MOL0     C36889   1.707   9.373  10.459 -0.6420 -0.1039  0.5841
  268MOL0     C36890   1.583   9.459  10.435 -0.4058  0.5587  0.7748
  268MOL0    Cl36891   1.546   9.445  10.265  0.2598 -0.1952  0.2461
  268MOL0     C36892   2.446   9.169  10.125 -0.2445 -0.3388 -0.2158
  268MOL0     C36893   2.455   9.074  10.026 -0.3957  0.7082 -0.0231
  268MOL0     O36894   2.706   9.021   9.710  0.4220  0.4690  0.2966
  268MOL0     C36895   2.638   8.687   9.786  0.2389  0.5704  0.2627
  268MOL0     C36896   2.643   8.557   9.743  0.1242  0.1335 -0.0495
  268MOL0     N36897   2.578   8.422   8.951  1.1106  0.4354 -1.0384
  268MOL0     N36898   2.591   8.344   8.847 -0.6894  0.1916 -1.1882
  268MOL0     C36899   2.893   8.227   7.805 -0.5390  1.2122  0.1034
  268MOL0     C36900   2.976   8.252   7.696  0.2188  0.5571 -0.1521
  268MOL0     C36901   3.222   8.329   7.367 -0.1620  0.0869 -0.5798
  268MOL0     C36902   3.191   8.273   7.247 -0.0579 -0.0839 -0.1886
  268MOL0     C36903   3.220   8.320   7.128  0.2861  0.2909  0.6608
  268MOL0     C36904   3.274   8.442   7.112  0.9828 -0.4945 -0.3975
  268MOL0     O36905   3.269   8.500   6.991 -0.6707  0.4704 -0.3936
  268MOL0     C36906   3.198   8.618   6.989  0.6321  0.1337  0.5072
  268MOL0     C36907   3.239   8.716   6.877  0.4450 -1.2029  0.5928
  268MOL0     C36908   3.130   8.825   6.860  0.8735  0.6344 -0.4740
  268MOL0     C36909   3.178   8.975   6.855  0.0469 -0.5964  0.2040
  268MOL0     C36910   3.235   9.018   6.722 -0.9275  0.2561 -0.7780
  268MOL0     C36911   3.265   9.051   6.606  0.5632  0.4989 -0.2082
  268MOL0     C36912   3.326   8.498   7.225 -0.8208 -0.3836  0.9841
  268MOL0     C36913   3.293   8.456   7.353 -0.4237 -0.3855 -0.6440
  268MOL0     C36914   3.325   8.543   7.473 -0.1983  0.2421 -0.2637
  268MOL0     H36915   2.866   8.018   7.481  2.1831 -1.6950  0.2877
  268MOL0     H36916   2.740   7.952   7.718  2.4392 -0.9394  4.5725
  268MOL0     H36917   2.708   8.253   8.015  0.8045  0.9325  1.0775
  268MOL0     H36918   2.837   8.145   8.070 -1.4728 -0.3498  0.8676
  268MOL0     H36919   2.548   8.045   8.077 -0.0749 -1.1445  3.5026
  268MOL0     H36920   2.694   8.002   8.164  0.6677 -0.0844  1.9737
  268MOL0     H36921   2.702   8.183   8.299  0.6762  0.8202 -1.8745
  268MOL0     H36922   2.578   8.283   8.226  5.9706  2.0670 -2.1449
  268MOL0     H36923   2.422   8.081   8.250  1.8880 -0.5926 -0.9841
  268MOL0     H36924   2.554   8.006   8.349  0.9251  1.5176  4.3982
  268MOL0     H36925   2.383   8.267   8.373  2.2028  1.1797  1.0610
  268MOL0     H36926   2.528   8.230   8.481 -1.9965  3.5544  0.8434
  268MOL0     H36927   2.245   8.132   8.484 -0.4926 -1.5606 -0.2751
  268MOL0     H36928   2.383   8.020   8.535  3.5758  1.1661  0.3079
  268MOL0     H36929   2.253   8.167   8.719 -1.9286  2.2702 -0.2715
  268MOL0     H36930   2.354   8.295   8.640  3.1537 -0.8187 -2.5545
  268MOL0     H36931   2.458   8.044   8.781  2.9022 -0.6359  0.2801
  268MOL0     H36932   2.558   8.147   8.684 -0.0665 -0.8953 -0.3705
  268MOL0     H36933   2.352   8.193   9.006  2.6051 -3.2862  0.5983
  268MOL0     H36934   2.336   8.403   9.176  0.8659 -3.7638  2.0986
  268MOL0     H36935   2.458   8.538   9.151 -0.7747  0.1195 -2.4269
  268MOL0     H36936   2.518   8.268   9.274 -0.9511  0.8974  1.0513
  268MOL0     H36937   2.618   8.414   9.282 -0.5385  1.1707  1.8319
  268MOL0     H36938   2.431   8.517   9.419  2.6304  0.7332 -0.7691
  268MOL0     H36939   2.344   8.363   9.407  0.5651 -0.6786 -0.9589
  268MOL0     H36940   2.465   8.376   9.618 -0.0680  0.1566  0.2025
  268MOL0     H36941   2.526   8.249   9.522  0.3255 -0.4131  3.9037
  268MOL0     H36942   2.649   8.617   9.410 -1.5002 -0.3117 -0.0167
  268MOL0     H36943   2.712   8.942   9.462  0.5330 -0.8729  0.8839
  268MOL0     H36944   2.539   8.947   9.491  0.3216  0.9297 -1.6560
  268MOL0     H36945   2.602   8.841   9.365  1.0194 -1.9284  0.7111
  268MOL0     H36946   2.793   9.051   9.991  0.2326 -1.8336  1.1023
  268MOL0     H36947   2.772   9.211  10.194 -0.7499  0.1619  0.3753
  268MOL0     H36948   2.448   9.168  10.393  1.3406  0.4042 -1.5845
  268MOL0     H36949   2.545   9.274  10.485 -1.1053 -0.2880  0.1201
  268MOL0     H36950   2.394   9.440  10.501 -0.8966  1.2190 -0.2948
  268MOL0     H36951   2.372   9.447  10.334  1.0567  0.4777  0.5891
  268MOL0     H36952   2.217   9.230  10.506 -2.9717 -0.7057 -1.7033
  268MOL0     H36953   2.218   9.245  10.340 -0.4598 -1.7648  0.2940
  268MOL0     H36954   2.117   9.451  10.324  2.3682 -4.0281 -2.2283
  268MOL0     H36955   2.121   9.488  10.496 -2.0059  0.4918 -1.1566
  268MOL0     H36956   1.954   9.285  10.344 -1.3327  0.3794 -0.9637
  268MOL0     H36957   1.956   9.285  10.521 -0.3351 -3.8656 -2.0245
  268MOL0     H36958   1.847   9.517  10.355 -0.0963  0.7869  1.0449
  268MOL0     H36959   1.855   9.508  10.528  1.1287 -0.2318  0.4909
  268MOL0     H36960   1.702   9.339  10.563 -1.5213  0.8803  0.8942
  268MOL0     H36961   1.707   9.282  10.398  0.2008 -0.4801  1.1294
  268MOL0     H36962   1.607   9.564  10.455 -1.9758  1.0412  0.3016
  268MOL0     H36963   1.503   9.433  10.505  0.0692  2.5993  2.1848
  268MOL0     H36964   2.344   9.200  10.150  0.3622  1.4424  0.1953
  268MOL0     H36965   2.366   9.021   9.994  0.0992  0.6034 -1.2587
  268MOL0     H36966   2.620   8.691   9.893 -4.3769  0.8421 -0.3210
  268MOL0     H36967   2.637   8.474   9.813  2.1122 -1.2309 -1.3655
  268MOL0     H36968   2.907   8.288   7.894 -3.1990  1.0220  0.7613
  268MOL0     H36969   3.039   8.340   7.700 -0.6434  1.4955 -3.7761
  268MOL0     H36970   3.136   8.179   7.243 -0.0858 -0.0859  0.2412
  268MOL0     H36971   3.169   8.267   7.048  1.8988  1.4788 -1.2473
  268MOL0     H36972   3.095   8.583   6.983 -0.4152  2.9888  0.3108
  268MOL0     H36973   3.185   8.667   7.086 -3.6738  2.1825 -0.8449
  268MOL0     H36974   3.254   8.661   6.784  1.4679  0.9723 -0.5894
  268MOL0     H36975   3.333   8.767   6.899  1.4728 -3.5616  2.2171
  268MOL0     H36976   3.084   8.813   6.761 -0.1900  1.8898 -0.1687
  268MOL0     H36977   3.048   8.809   6.930 -1.1264  0.9775 -2.5965
  268MOL0     H36978   3.255   8.994   6.930  0.6910  0.3176 -0.6695
  268MOL0     H36979   3.088   9.037   6.856 -0.2599 -0.9101 -2.0773
  268MOL0     H36980   3.302   9.079   6.510 -0.9945  2.6703 -0.2517
  268MOL0     H36981   3.372   8.596   7.219  0.2619 -0.9549 -1.3099
  268MOL0     H36982   3.248   8.535   7.550  1.0092 -1.3607  0.8438
  268MOL0     H36983   3.413   8.502   7.524  0.2409 -0.0126 -1.1934
  268MOL0     H36984   3.341   8.646   7.439  2.1406 -0.4481 -1.5316
  269MOL0     O36985   0.247   8.125   4.048  0.7394 -0.9442 -0.4324
  269MOL0     C36986   0.336   8.143   4.131  0.0565  0.1275 -0.1596
  269MOL0     O36987   0.460   8.076   4.138  0.2381  0.5941  0.2753
  269MOL0     C36988   0.498   8.000   4.025 -0.0192 -0.4977 -0.3331
  269MOL0     C36989   0.613   8.027   3.961 -0.3466  0.3842  0.0798
  269MOL0     C36990   0.678   7.937   3.876  0.0937 -0.1258 -0.0626
  269MOL0     C36991   0.624   7.806   3.866  0.0314  0.6067  0.0124
  269MOL0     O36992   0.675   7.706   3.797 -0.3965  0.5466  0.2401
  269MOL0     C36993   0.740   7.730   3.672  0.3320  0.5751  0.4487
  269MOL0     C36994   0.790   7.589   3.618 -0.9489  0.0402  0.3901
  269MOL0     C36995   0.682   7.486   3.600  1.1609  1.0132  0.2472
  269MOL0     C36996   0.730   7.371   3.504  0.8410  0.2379  0.9859
  269MOL0     C36997   0.855   7.298   3.570  0.4175  0.2506  0.5311
  269MOL0     C36998   0.837   7.151   3.529 -0.6483  1.0158  0.3047
  269MOL0     C36999   0.946   7.067   3.597  0.0696 -0.4888  0.5413
  269MOL0     C37000   0.917   6.915   3.597 -0.1458 -0.9523 -0.6617
  269MOL0     N37001   1.037   6.845   3.546  0.4228 -0.1160 -0.0764
  269MOL0     C37002   1.165   6.861   3.589 -0.5348 -0.5959  0.0670
  269MOL0     C37003   1.240   6.770   3.511  0.9383 -0.5054 -0.6006
  269MOL0     C37004   1.386   6.766   3.508 -0.0434  0.1382  1.1488
  269MOL0     C37005   1.433   6.792   3.648 -0.3188  0.0928  0.2457
  269MOL0     C37006   1.582   6.795   3.656  0.5113  0.0668 -0.2106
  269MOL0     C37007   1.645   6.876   3.769 -0.4668 -0.6031 -0.4481
  269MOL0     O37008   1.608   7.019   3.764 -0.5960  0.7271  0.1628
  269MOL0     C37009   1.619   7.088   3.883  0.5644 -0.1354 -0.6127
  269MOL0     C37010   1.733   7.078   3.970  0.2187  0.0957 -0.2444
  269MOL0     C37011   1.740   7.145   4.101 -0.8936  0.2391 -0.2842
  269MOL0     C37012   1.871   7.129   4.181 -0.5145 -0.3350  0.3456
  269MOL0     C37013   1.629   7.221   4.132 -0.0771 -0.5923 -0.6204
  269MOL0     C37014   1.611   7.288   4.257 -0.8142 -0.6329 -0.0190
  269MOL0     O37015   1.537   7.404   4.254  0.6670 -0.7620 -0.6210
  269MOL0     C37016   1.528   7.477   4.367 -0.7985 -0.0443  0.0215
  269MOL0     C37017   1.551   7.609   4.372 -0.6705 -0.5021 -0.4548
  269MOL0     C37018   1.542   7.681   4.491 -0.4292 -0.2057  0.2398
  269MOL0     C37019   1.525   7.618   4.612  0.6349 -0.3149  1.8734
  269MOL0     O37020   1.512   7.691   4.726  0.2860  0.0193  0.0786
  269MOL0     C37021   1.586   7.650   4.840 -0.2024 -0.2283  1.5053
  269MOL0     C37022   1.499   7.627   4.963 -0.0223 -0.4045  0.7265
  269MOL0     C37023   1.407   7.754   5.001 -0.2704  0.3589  0.1452
  269MOL0     C37024   1.271   7.713   5.060  0.0582 -0.8847  0.7800
  269MOL0     C37025   1.212   7.849   5.108  0.3300  1.0107  0.7188
  269MOL0     C37026   1.073   7.830   5.175  0.9433 -0.0906 -0.7494
  269MOL0     C37027   0.969   7.809   5.062  0.1057  0.4473 -0.2821
  269MOL0     C37028   0.825   7.838   5.126  0.1011 -0.4023  1.5641
  269MOL0    Cl37029   0.807   7.749   5.274 -0.2566  0.4001 -0.2493
  269MOL0     C37030   1.504   7.479   4.612  0.5587 -0.4071 -1.2619
  269MOL0     C37031   1.492   7.419   4.486  1.3061  0.3553  0.6445
  269MOL0     O37032   1.667   7.246   4.356 -0.2851 -0.1612 -0.3052
  269MOL0     C37033   1.521   7.233   4.044  0.2160 -1.1417  0.3802
  269MOL0     C37034   1.513   7.166   3.929  0.2535  0.3263  0.1568
  269MOL0     N37035   1.151   6.689   3.443  0.2324 -0.3423 -0.5653
  269MOL0     N37036   1.027   6.728   3.468 -0.2520 -0.5813 -0.5972
  269MOL0     C37037   0.494   7.786   3.925 -0.5167  0.5573  0.4233
  269MOL0     C37038   0.433   7.883   4.003 -0.2490  0.2396 -0.7583
  269MOL0     C37039   0.307   8.233   4.241  0.4156 -0.2455  0.6906
  269MOL0     C37040   0.177   8.269   4.267  0.6030 -1.3558 -0.0213
  269MOL0     C37041   0.149   8.358   4.375 -0.1818 -0.5014  0.2409
  269MOL0     C37042   0.243   8.404   4.459  0.2278  1.0493  0.1415
  269MOL0     O37043   0.198   8.485   4.560 -0.7111 -0.1059 -0.2937
  269MOL0     C37044   0.198   8.445   4.695 -0.0339 -0.7169 -0.5397
  269MOL0     C37045   0.251   8.555   4.797  0.2214 -0.4823  0.6730
  269MOL0     C37046   0.156   8.679   4.796  0.1512 -0.1025  0.8343
  269MOL0     C37047   0.010   8.663   4.821 -0.5706  0.8787 -0.4450
  269MOL0     C37048  -0.061   8.798   4.834  0.4424 -0.1838  0.0583
  269MOL0     C37049  -0.117   8.905   4.814 -0.1620  0.4493  0.0668
  269MOL0     C37050   0.373   8.372   4.435 -0.8095 -0.6513 -0.4329
  269MOL0     C37051   0.405   8.292   4.324 -0.3445 -0.4248 -0.3920
  269MOL0     C37052   0.552   8.271   4.297  0.0873  0.8482 -0.6291
  269MOL0     H37053   0.672   8.116   3.981  3.4486 -0.9931 -3.5203
  269MOL0     H37054   0.772   7.960   3.827 -0.4588 -0.8383 -1.5071
  269MOL0     H37055   0.830   7.789   3.691  0.3622  1.3305 -1.7723
  269MOL0     H37056   0.682   7.791   3.602  0.1172 -1.1777 -0.9613
  269MOL0     H37057   0.830   7.609   3.518 -2.0429  0.0282 -0.0651
  269MOL0     H37058   0.867   7.556   3.688  1.3890 -0.3651 -2.1639
  269MOL0     H37059   0.671   7.441   3.699  3.5825 -0.7528 -0.2033
  269MOL0     H37060   0.590   7.521   3.553  2.2066 -0.8720 -3.6131
  269MOL0     H37061   0.653   7.294   3.494  0.6137  0.3177  2.0085
  269MOL0     H37062   0.759   7.412   3.407  2.3508 -2.1759  0.3291
  269MOL0     H37063   0.857   7.311   3.678 -0.2680 -1.8558  0.8292
  269MOL0     H37064   0.954   7.337   3.542 -0.1651  2.7021  1.6798
  269MOL0     H37065   0.745   7.112   3.575  0.9369 -0.9455  2.0065
  269MOL0     H37066   0.826   7.122   3.424 -0.2894  2.3250 -0.1110
  269MOL0     H37067   0.942   7.099   3.701  0.9687  2.5986 -0.2760
  269MOL0     H37068   1.044   7.084   3.551  0.0331 -1.7479 -0.0419
  269MOL0     H37069   0.883   6.886   3.697  1.1120 -0.7078 -0.1424
  269MOL0     H37070   0.834   6.906   3.527 -1.3805  2.4494  0.1876
  269MOL0     H37071   1.209   6.936   3.654  2.4712 -0.6162 -1.7849
  269MOL0     H37072   1.427   6.834   3.432 -0.9555 -1.2380 -0.6786
  269MOL0     H37073   1.419   6.665   3.482  2.7102  0.7937  1.8017
  269MOL0     H37074   1.409   6.896   3.672  1.8276  1.3472 -2.5594
  269MOL0     H37075   1.384   6.733   3.727  2.0535 -1.8760  0.3438
  269MOL0     H37076   1.616   6.692   3.666 -0.2423 -0.0170  2.4439
  269MOL0     H37077   1.609   6.829   3.556 -1.8514 -1.7165 -1.5691
  269MOL0     H37078   1.619   6.833   3.866  0.6377  1.1271  0.6509
  269MOL0     H37079   1.754   6.868   3.763 -0.3428 -1.3945  1.9382
  269MOL0     H37080   1.813   7.005   3.956  1.0836  0.6263  1.5418
  269MOL0     H37081   1.870   7.030   4.226 -3.0814 -0.3588  0.3802
  269MOL0     H37082   1.877   7.207   4.258 -1.8774 -1.1847  1.3536
  269MOL0     H37083   1.945   7.126   4.101 -2.2931  2.2002 -1.5805
  269MOL0     H37084   1.571   7.671   4.284  1.2029 -1.8530 -1.0502
  269MOL0     H37085   1.549   7.789   4.492 -1.6507 -0.1064  1.2090
  269MOL0     H37086   1.636   7.558   4.806 -1.1930 -0.2657  0.0917
  269MOL0     H37087   1.653   7.731   4.871 -1.0339  0.1036  2.5025
  269MOL0     H37088   1.435   7.541   4.942  0.9399 -0.5341 -2.0140
  269MOL0     H37089   1.563   7.601   5.048  2.1103  0.4466 -0.5334
  269MOL0     H37090   1.383   7.833   4.929 -2.5245  0.9429  1.4495
  269MOL0     H37091   1.462   7.813   5.075 -0.2280 -0.2953  0.6376
  269MOL0     H37092   1.280   7.639   5.140  1.4372  0.4684  1.9125
  269MOL0     H37093   1.203   7.669   4.986  1.1481  0.5220 -1.1549
  269MOL0     H37094   1.282   7.901   5.174  1.1470 -1.0103  1.5364
  269MOL0     H37095   1.191   7.915   5.023  0.0066  0.2805  0.2231
  269MOL0     H37096   1.053   7.918   5.237  1.0603 -1.1414  0.8217
  269MOL0     H37097   1.069   7.747   5.246 -3.6782 -1.1524 -1.9661
  269MOL0     H37098   0.969   7.702   5.040 -1.1513 -0.3172  2.9331
  269MOL0     H37099   0.984   7.872   4.974 -0.0269  0.0896 -0.5650
  269MOL0     H37100   0.735   7.819   5.068 -0.7381 -1.1213  3.0270
  269MOL0     H37101   0.829   7.945   5.150 -0.9733 -0.1294  0.5758
  269MOL0     H37102   1.493   7.424   4.705 -0.0552  1.4503 -0.1811
  269MOL0     H37103   1.459   7.315   4.486  2.8665 -0.1701 -0.3103
  269MOL0     H37104   1.436   7.300   4.050  1.8130  1.3599 -2.3023
  269MOL0     H37105   1.421   7.164   3.871  0.2971 -2.5026  0.0428
  269MOL0     H37106   0.454   7.685   3.922  0.6948  0.0620  0.4194
  269MOL0     H37107   0.343   7.876   4.063 -0.5930  3.5374 -0.6875
  269MOL0     H37108   0.087   8.245   4.212  0.7844 -2.3844  0.1168
  269MOL0     H37109   0.051   8.402   4.389 -1.2178 -3.0794  1.7769
  269MOL0     H37110   0.099   8.418   4.732 -0.4285 -2.8141 -2.8397
  269MOL0     H37111   0.259   8.355   4.703  3.4940  1.4911  0.0786
  269MOL0     H37112   0.352   8.586   4.769  0.1288 -0.7005  0.0615
  269MOL0     H37113   0.248   8.508   4.896  0.8849 -1.6008  0.1777
  269MOL0     H37114   0.201   8.752   4.864 -3.4874 -0.2059  3.6221
  269MOL0     H37115   0.158   8.737   4.704 -1.1997  1.4116  1.7124
  269MOL0     H37116   0.003   8.612   4.917 -2.9387  0.1132 -0.9502
  269MOL0     H37117  -0.035   8.590   4.753 -1.0241  0.9998 -0.2819
  269MOL0     H37118  -0.169   8.997   4.798 -4.2424 -0.9493  3.4788
  269MOL0     H37119   0.446   8.408   4.506 -2.7661  1.9126  0.4214
  269MOL0     H37120   0.582   8.285   4.193  1.6323  0.1950 -0.3090
  269MOL0     H37121   0.614   8.331   4.365 -1.4027 -0.7945  2.3649
  269MOL0     H37122   0.578   8.169   4.327 -0.8863  0.8013  0.1204
  270MOL0     O37123   7.386   8.854  10.881 -0.2166  0.2254  0.3168
  270MOL0     C37124   7.268   8.855  10.850  0.6817 -0.1835  0.1290
  270MOL0     O37125   7.205   8.750  10.793  0.1843  0.0101  0.0029
  270MOL0     C37126   7.076   8.768  10.757 -0.2378 -0.6652 -0.8054
  270MOL0     C37127   7.051   8.849  10.646 -0.0441 -0.2524 -0.2509
  270MOL0     C37128   6.919   8.867  10.600 -0.2376 -0.0025 -0.6511
  270MOL0     C37129   6.812   8.805  10.654 -0.5283  0.1206 -0.6685
  270MOL0     O37130   6.695   8.837  10.600 -0.2338 -0.1906 -0.5314
  270MOL0     C37131   6.582   8.797  10.676 -0.7449  0.6279  0.4046
  270MOL0     C37132   6.458   8.847  10.611 -0.1723  0.4094 -0.1529
  270MOL0     C37133   6.344   8.843  10.695  0.5778  0.3361 -0.3763
  270MOL0     C37134   6.211   8.857  10.629  0.1533 -0.3908  0.3929
  270MOL0     C37135   6.097   8.808  10.721 -0.4794 -0.1678  0.6658
  270MOL0     C37136   5.957   8.873  10.691  0.2083  0.4903  0.2502
  270MOL0     C37137   5.903   8.821  10.554 -0.0235 -0.1292 -0.5756
  270MOL0     C37138   5.798   8.716  10.575  0.0285 -1.0315 -0.0969
  270MOL0     N37139   5.738   8.659  10.457 -0.1138  0.4192  0.2584
  270MOL0     C37140   5.599   8.675  10.430  0.5758  0.9136  0.7612
  270MOL0     C37141   5.587   8.615  10.310  0.7256  0.4491 -0.2012
  270MOL0     C37142   5.458   8.604  10.233 -0.2075 -0.3551  0.0226
  270MOL0     C37143   5.430   8.744  10.188 -0.0073 -0.5120 -0.2643
  270MOL0     C37144   5.491   8.776  10.052  0.9397  0.0656  0.2572
  270MOL0     C37145   5.625   8.840  10.067 -0.1685 -0.1704  0.0755
  270MOL0     O37146   5.624   8.967  10.144  0.4133  0.6103 -0.2525
  270MOL0     C37147   5.739   9.023  10.189  0.4127 -0.3424 -0.2926
  270MOL0     C37148   5.866   8.965  10.145  0.8913 -0.3488  0.1617
  270MOL0     C37149   5.989   8.998  10.199 -0.1485  0.0594 -0.7321
  270MOL0     C37150   6.108   8.925  10.150  0.0591  0.5358  0.1394
  270MOL0     C37151   5.988   9.110  10.282 -0.2085  0.3506  0.4853
  270MOL0     C37152   6.117   9.149  10.333  1.0515 -0.6506  0.3229
  270MOL0     O37153   6.220   9.170  10.243 -0.1183 -0.4145 -0.0233
  270MOL0     C37154   6.343   9.203  10.301  0.6277  0.9476  1.1715
  270MOL0     C37155   6.398   9.334  10.297 -0.7731  0.1991  0.4632
  270MOL0     C37156   6.524   9.356  10.334  0.1794  0.6749 -1.4454
  270MOL0     C37157   6.611   9.252  10.376 -0.0982  0.0732 -0.6041
  270MOL0     O37158   6.716   9.293  10.442 -0.1281  0.8749 -0.1039
  270MOL0     C37159   6.844   9.237  10.399  1.2623  0.2203  0.1445
  270MOL0     C37160   6.948   9.259  10.507 -0.4786  1.1190 -0.9442
  270MOL0     C37161   6.994   9.407  10.502 -0.6176 -0.0001 -0.5930
  270MOL0     C37162   7.122   9.426  10.593 -0.0631 -0.0978  0.5515
  270MOL0     C37163   7.195   9.556  10.587 -0.8618 -0.4477  0.1016
  270MOL0     C37164   7.238   9.589  10.447 -0.4648  1.2507  1.0670
  270MOL0     C37165   7.164   9.703  10.387 -0.1409 -0.6601  0.0442
  270MOL0     C37166   7.175   9.835  10.467 -0.3173  0.7778  0.9253
  270MOL0    Cl37167   7.088   9.966  10.389  0.3450 -0.3133  0.0838
  270MOL0     C37168   6.553   9.120  10.383  0.1574  0.2246  1.3176
  270MOL0     C37169   6.423   9.098  10.337  0.4126 -0.3549 -0.8742
  270MOL0     O37170   6.114   9.176  10.452 -1.0026 -0.4495 -0.6818
  270MOL0     C37171   5.873   9.178  10.310 -0.2917  0.2757  0.3561
  270MOL0     C37172   5.747   9.136  10.266  0.6385 -0.1129 -1.3007
  270MOL0     N37173   5.708   8.565  10.270 -0.4041 -0.1458 -0.5846
  270MOL0     N37174   5.804   8.584  10.364  0.1347 -0.3128  0.2843
  270MOL0     C37175   6.835   8.731  10.772  0.8485 -0.1983  0.3302
  270MOL0     C37176   6.968   8.707  10.819  0.7186 -0.8552 -0.1734
  270MOL0     C37177   7.199   8.985  10.898 -0.5778 -0.5716 -0.1718
  270MOL0     C37178   7.105   8.970  11.004 -0.8797 -0.8634 -0.0236
  270MOL0     C37179   7.034   9.083  11.046  0.5859 -0.2141 -0.9855
  270MOL0     C37180   7.067   9.213  11.017  0.1171 -0.0746 -0.1401
  270MOL0     O37181   7.011   9.310  11.085 -0.4581  1.0114 -0.0253
  270MOL0     C37182   6.977   9.435  11.020  0.5465 -0.4094  0.3116
  270MOL0     C37183   6.860   9.422  10.917 -0.0941  0.0659 -0.7759
  270MOL0     C37184   6.823   9.550  10.855 -0.4848  0.0309 -0.2643
  270MOL0     C37185   6.721   9.524  10.739 -0.8626 -0.6315  0.2194
  270MOL0     C37186   6.586   9.479  10.791 -0.4337 -0.1957 -0.2249
  270MOL0     C37187   6.475   9.445  10.824  0.6070 -0.2272  0.4906
  270MOL0     C37188   7.174   9.225  10.928 -0.3217  0.6810  0.3449
  270MOL0     C37189   7.237   9.111  10.864 -1.7293 -0.3697 -0.2221
  270MOL0     C37190   7.332   9.135  10.750  0.1088 -0.8716 -0.3974
  270MOL0     H37191   7.128   8.891  10.582  0.2402 -0.0801  0.1910
  270MOL0     H37192   6.914   8.929  10.511  0.5162  3.2264  1.3950
  270MOL0     H37193   6.581   8.813  10.784  1.2285  1.1884  0.3738
  270MOL0     H37194   6.580   8.688  10.674 -0.8537  0.6005 -2.0457
  270MOL0     H37195   6.486   8.948  10.583  3.4694  0.1939  2.1514
  270MOL0     H37196   6.430   8.796  10.518  1.7201  0.8297 -1.0030
  270MOL0     H37197   6.351   8.758  10.763  1.8035  1.8487  1.4931
  270MOL0     H37198   6.352   8.917  10.775 -0.9390 -0.2445  0.3462
  270MOL0     H37199   6.198   8.964  10.611 -2.0308 -0.6554  0.1821
  270MOL0     H37200   6.207   8.797  10.538 -1.1312 -0.6468  0.6012
  270MOL0     H37201   6.126   8.839  10.822 -2.9680 -1.8687  2.0015
  270MOL0     H37202   6.096   8.698  10.720 -0.2971 -0.2199  2.4830
  270MOL0     H37203   5.886   8.855  10.773  0.5835  2.0340  0.9382
  270MOL0     H37204   5.979   8.980  10.686  2.4223  0.1427  1.4536
  270MOL0     H37205   5.992   8.793  10.496  0.8252  0.9060  0.1941
  270MOL0     H37206   5.863   8.898  10.488 -0.5033 -0.5946 -0.8353
  270MOL0     H37207   5.842   8.634  10.632 -1.3988 -1.9158 -0.2428
  270MOL0     H37208   5.719   8.765  10.634  1.7276  1.1253  0.5533
  270MOL0     H37209   5.527   8.722  10.496 -0.4369 -0.0473  0.3594
  270MOL0     H37210   5.383   8.554  10.295  1.1958 -2.0670  0.4113
  270MOL0     H37211   5.478   8.539  10.147  3.8411  0.9655 -0.2399
  270MOL0     H37212   5.323   8.752  10.166  0.0438 -0.4288 -0.4943
  270MOL0     H37213   5.448   8.825  10.259  1.2136  0.5463 -1.6902
  270MOL0     H37214   5.493   8.687   9.989  0.1752  0.7119 -0.7172
  270MOL0     H37215   5.430   8.849   9.997  0.9651  0.3118  0.5532
  270MOL0     H37216   5.692   8.763  10.108  0.2912 -0.1373 -0.6055
  270MOL0     H37217   5.665   8.856   9.967 -1.1932  1.6465 -0.0744
  270MOL0     H37218   5.875   8.880  10.077  2.1684 -0.3593  0.3125
  270MOL0     H37219   6.188   8.924  10.226  1.0328  2.8601 -0.7595
  270MOL0     H37220   6.139   8.966  10.054  0.6488 -0.0975  0.0475
  270MOL0     H37221   6.090   8.819  10.130  1.4604 -0.1555  2.1017
  270MOL0     H37222   6.344   9.422  10.265 -0.6108 -0.1563 -0.8540
  270MOL0     H37223   6.559   9.459  10.326 -2.0661  1.4779 -1.4028
  270MOL0     H37224   6.843   9.129  10.384 -2.5202 -0.0069  1.0044
  270MOL0     H37225   6.886   9.295  10.317  1.7583 -0.4492 -0.0858
  270MOL0     H37226   6.909   9.231  10.606  2.3499 -2.3368 -0.6389
  270MOL0     H37227   7.037   9.199  10.489 -0.7465  0.1525  0.7339
  270MOL0     H37228   6.916   9.476  10.536 -0.9939 -1.8000  2.6814
  270MOL0     H37229   7.025   9.444  10.404  1.8600 -0.9097 -0.2066
  270MOL0     H37230   7.183   9.337  10.571  1.1314  0.4274  1.6626
  270MOL0     H37231   7.105   9.408  10.699  3.3195 -2.1337  0.9065
  270MOL0     H37232   7.128   9.622  10.643 -0.4765 -1.8256  2.3269
  270MOL0     H37233   7.280   9.547  10.656  0.4723  1.7617 -1.1167
  270MOL0     H37234   7.241   9.499  10.385  4.9534  0.8628  1.4657
  270MOL0     H37235   7.346   9.598  10.442 -0.1074 -2.2464 -0.5327
  270MOL0     H37236   7.060   9.673  10.370  0.8947 -3.8549 -1.2166
  270MOL0     H37237   7.198   9.714  10.283  2.3122  0.9883  0.9371
  270MOL0     H37238   7.281   9.860  10.480  0.1052 -1.2294  1.7270
  270MOL0     H37239   7.138   9.823  10.569 -1.2106 -1.4194  0.3867
  270MOL0     H37240   6.631   9.047  10.402  0.9156  0.4517 -0.6361
  270MOL0     H37241   6.382   8.998  10.327 -2.4441  0.6851 -0.4651
  270MOL0     H37242   5.874   9.267  10.371  1.0867 -0.3709  1.3250
  270MOL0     H37243   5.654   9.191  10.280  0.0959 -0.8087 -2.0639
  270MOL0     H37244   6.748   8.689  10.822 -1.9433  5.1741  0.7858
  270MOL0     H37245   6.982   8.642  10.905  2.4332 -0.5700 -0.1913
  270MOL0     H37246   7.080   8.871  11.040 -0.3985 -0.0168  2.8941
  270MOL0     H37247   6.949   9.071  11.113  1.3815  1.7995  0.4838
  270MOL0     H37248   6.963   9.504  11.104  0.4042 -4.6730  4.2115
  270MOL0     H37249   7.059   9.474  10.959  0.0896 -1.5978 -1.1279
  270MOL0     H37250   6.785   9.380  10.985  2.5086 -1.0067  1.6028
  270MOL0     H37251   6.883   9.344  10.845  1.8893 -1.3405  1.2417
  270MOL0     H37252   6.765   9.608  10.927  0.9346  1.8557 -0.5265
  270MOL0     H37253   6.917   9.596  10.825  0.3190 -1.6098 -0.3815
  270MOL0     H37254   6.770   9.447  10.679 -3.7513  0.9392 -4.6926
  270MOL0     H37255   6.701   9.621  10.694 -3.1403 -0.8377  0.6865
  270MOL0     H37256   6.380   9.420  10.868  1.5145 -1.0133  2.0961
  270MOL0     H37257   7.204   9.326  10.900  0.0409  0.5063  0.0874
  270MOL0     H37258   7.360   9.238  10.772 -0.3610 -1.1197  1.5520
  270MOL0     H37259   7.424   9.077  10.753 -0.0409 -1.0768  2.2240
  270MOL0     H37260   7.280   9.118  10.655 -0.1729  0.4209 -0.4944
  271MOL0     O37261  10.194   0.539   0.115  0.1382 -0.2334 -0.3962
  271MOL0     C37262  10.093   0.598   0.165 -0.5984 -0.0996  0.7319
  271MOL0     O37263  10.075   0.631   0.296  0.2444 -0.7593  0.2402
  271MOL0     C37264  10.174   0.618   0.390 -0.3267  0.1027  0.2807
  271MOL0     C37265  10.280   0.527   0.391  0.4652  0.7585 -0.1789
  271MOL0     C37266  10.390   0.535   0.483  0.2179 -1.1269 -0.2664
  271MOL0     C37267  10.393   0.637   0.580  0.0183  0.1788  0.8507
  271MOL0     O37268  10.492   0.638   0.669  0.2936 -0.4838 -0.6330
  271MOL0     C37269  10.469   0.697   0.796 -0.0602  0.2002 -0.1851
  271MOL0     C37270  10.552   0.832   0.821 -0.9208  0.1487 -1.1999
  271MOL0     C37271  10.691   0.838   0.744  0.1158 -0.4662 -0.3696
  271MOL0     C37272  10.794   0.733   0.789  0.6234  0.8663 -0.2614
  271MOL0     C37273  10.909   0.742   0.698  0.1107  0.3723 -0.3604
  271MOL0     C37274  11.027   0.651   0.739  0.6082  0.0311  0.0528
  271MOL0     C37275  11.155   0.680   0.662  0.3239  0.2064 -0.0940
  271MOL0     C37276  11.151   0.665   0.514 -0.6182 -0.0257  0.3757
  271MOL0     N37277  11.284   0.683   0.448 -0.4109  0.0903 -0.3273
  271MOL0     C37278  11.325   0.591   0.359 -0.7227  0.9284  0.4456
  271MOL0     C37279  11.453   0.628   0.327  0.9781 -0.2963 -1.0813
  271MOL0     C37280  11.542   0.543   0.244  0.9546  0.0014  0.5953
  271MOL0     C37281  11.623   0.624   0.138  0.1805 -0.0892  1.2136
  271MOL0     C37282  11.748   0.544   0.092 -0.5956 -0.1183  0.4339
  271MOL0     C37283  11.834   0.614  -0.010  0.6342 -0.0189 -0.1085
  271MOL0     O37284  11.935   0.683   0.071  0.1349 -0.5964 -0.1136
  271MOL0     C37285  11.977   0.814   0.039  0.0518 -0.2708  0.4021
  271MOL0     C37286  11.911   0.915  -0.038 -0.0695 -0.4218  0.1705
  271MOL0     C37287  11.972   1.035  -0.067  0.8317 -0.0072  0.6375
  271MOL0     C37288  11.893   1.119  -0.162  0.0437 -0.3665  0.1557
  271MOL0     C37289  12.103   1.079  -0.015  0.6023 -0.3024  0.1170
  271MOL0     C37290  12.165   1.202  -0.048 -0.7343  0.4050 -0.8553
  271MOL0     O37291  12.297   1.188  -0.054  0.1672  0.9438  0.1058
  271MOL0     C37292  12.384   1.294  -0.059 -0.2791  1.0330  0.0599
  271MOL0     C37293  12.368   1.410  -0.132 -0.3516 -0.3984 -0.2707
  271MOL0     C37294  12.465   1.520  -0.117  0.0011 -0.7271 -0.7578
  271MOL0     C37295  12.578   1.502  -0.033 -0.8192  0.1562 -0.1750
  271MOL0     O37296  12.685   1.587  -0.029  0.4622  0.1345 -0.8439
  271MOL0     C37297  12.789   1.570  -0.120 -0.4804  0.1043  0.0514
  271MOL0     C37298  12.915   1.598  -0.045  0.0132 -0.3567  1.1638
  271MOL0     C37299  13.010   1.619  -0.162  0.2037 -0.6937  1.1406
  271MOL0     C37300  13.008   1.765  -0.225 -0.4003  0.3798  0.0877
  271MOL0     C37301  13.098   1.772  -0.348  0.7606  0.0080 -0.1993
  271MOL0     C37302  13.025   1.707  -0.469  0.0756 -0.4590 -0.0356
  271MOL0     C37303  12.891   1.775  -0.507 -0.6241  0.3759  0.0159
  271MOL0     C37304  12.853   1.782  -0.667  0.3872 -0.2852  1.0039
  271MOL0    Cl37305  12.963   1.885  -0.764 -0.2436 -0.3902  0.1268
  271MOL0     C37306  12.590   1.379   0.035 -0.5422 -0.1043 -0.7829
  271MOL0     C37307  12.493   1.278   0.023 -0.4288  0.0989 -0.2659
  271MOL0     O37308  12.100   1.306  -0.054 -0.1015  0.1964  0.1367
  271MOL0     C37309  12.169   0.978   0.059 -0.2533  0.2344  0.4159
  271MOL0     C37310  12.109   0.849   0.079  0.7047 -0.3404  0.2432
  271MOL0     N37311  11.492   0.735   0.412  0.4736 -0.4804 -0.5537
  271MOL0     N37312  11.388   0.771   0.485  0.6002  0.0749  0.5020
  271MOL0     C37313  10.287   0.729   0.570  0.1705 -0.0475 -0.0186
  271MOL0     C37314  10.184   0.726   0.475 -0.8274  0.1262  0.0551
  271MOL0     C37315   9.976   0.650   0.075 -0.4610  0.4533 -0.4528
  271MOL0     C37316   9.904   0.760   0.132  0.7613  0.0149 -0.5505
  271MOL0     C37317   9.788   0.812   0.066  0.6309 -0.7033  0.6490
  271MOL0     C37318   9.741   0.756  -0.050  0.4511  0.4624 -0.8634
  271MOL0     O37319   9.623   0.764  -0.108  0.7887  0.4088  0.7661
  271MOL0     C37320   9.532   0.861  -0.063 -0.2056  0.2657 -0.4027
  271MOL0     C37321   9.402   0.859  -0.144  0.0501  0.4251  0.6196
  271MOL0     C37322   9.310   0.739  -0.126 -0.1748 -0.4556  0.4019
  271MOL0     C37323   9.202   0.721  -0.232  0.1409 -0.2682 -0.5351
  271MOL0     C37324   9.112   0.828  -0.265  0.6407 -0.3994  0.1140
  271MOL0     C37325   9.058   0.933  -0.292 -0.2359  0.5473  0.6733
  271MOL0     C37326   9.828   0.663  -0.109 -0.4590  0.4509 -0.5590
  271MOL0     C37327   9.942   0.600  -0.048 -0.2503 -1.1760 -0.8059
  271MOL0     C37328  10.036   0.503  -0.109  0.7111 -0.0501 -0.9429
  271MOL0     H37329  10.286   0.444   0.322  2.9363  0.0226  0.7896
  271MOL0     H37330  10.468   0.459   0.486  2.6151  1.2023  0.5236
  271MOL0     H37331  10.492   0.629   0.878 -1.2124  0.2553  0.1890
  271MOL0     H37332  10.363   0.715   0.814 -0.0449  2.1718 -1.6228
  271MOL0     H37333  10.488   0.919   0.805 -5.0729 -2.5516 -0.8786
  271MOL0     H37334  10.578   0.827   0.927  0.9929 -3.5807 -1.6803
  271MOL0     H37335  10.677   0.827   0.636  2.5102 -3.0643 -0.5022
  271MOL0     H37336  10.740   0.934   0.762  1.5028 -0.9405 -1.4517
  271MOL0     H37337  10.829   0.755   0.890  2.9387 -3.8454  0.2425
  271MOL0     H37338  10.746   0.635   0.793  1.3166  0.2722 -3.3262
  271MOL0     H37339  10.949   0.844   0.696  0.7181  0.1409 -0.4316
  271MOL0     H37340  10.877   0.720   0.596 -2.2225  0.0875  0.3936
  271MOL0     H37341  11.052   0.654   0.845  2.1407 -3.3199 -0.0951
  271MOL0     H37342  10.996   0.546   0.725 -1.8177 -0.4398  6.1328
  271MOL0     H37343  11.230   0.618   0.712  0.9699  1.3777  0.4360
  271MOL0     H37344  11.170   0.783   0.697 -0.7621  0.8034 -1.3078
  271MOL0     H37345  11.118   0.563   0.493  0.2478  0.3099 -3.4133
  271MOL0     H37346  11.077   0.732   0.468  0.7510  2.5586  1.7046
  271MOL0     H37347  11.270   0.507   0.319  2.1272 -1.9117  1.9853
  271MOL0     H37348  11.479   0.464   0.204 -0.0492  1.1861 -0.2578
  271MOL0     H37349  11.610   0.492   0.313  1.5780  0.2265  0.1651
  271MOL0     H37350  11.561   0.654   0.053  1.2122 -0.5048  0.2834
  271MOL0     H37351  11.655   0.720   0.181 -1.8767 -0.1379  2.9823
  271MOL0     H37352  11.817   0.519   0.173 -0.1084  1.3141  0.4811
  271MOL0     H37353  11.721   0.446   0.051  1.7377  0.2874 -2.4072
  271MOL0     H37354  11.889   0.546  -0.077  0.4759  0.5681 -0.8465
  271MOL0     H37355  11.783   0.681  -0.080 -0.9274  0.0063  1.0012
  271MOL0     H37356  11.817   0.890  -0.085 -0.1110  1.2607 -0.7184
  271MOL0     H37357  11.862   1.214  -0.117  0.0824  1.0706 -2.6244
  271MOL0     H37358  11.801   1.073  -0.201  0.8934 -0.1578 -2.2883
  271MOL0     H37359  11.947   1.139  -0.255  0.6796 -3.4907 -0.2693
  271MOL0     H37360  12.282   1.417  -0.198 -2.7733  1.9347  2.8376
  271MOL0     H37361  12.467   1.607  -0.181  3.5080  2.9931  3.6735
  271MOL0     H37362  12.785   1.470  -0.166 -0.9083 -1.6223  3.5252
  271MOL0     H37363  12.758   1.631  -0.205  0.2718  0.5870  0.1182
  271MOL0     H37364  12.925   1.687   0.019  1.8007 -0.3540  0.9293
  271MOL0     H37365  12.947   1.509   0.009  0.3355 -1.1462 -0.2949
  271MOL0     H37366  12.995   1.546  -0.242 -2.8984  0.3508  0.6540
  271MOL0     H37367  13.112   1.605  -0.124  1.1637  2.2299 -0.0874
  271MOL0     H37368  13.045   1.839  -0.153 -1.3998  0.1567  0.8451
  271MOL0     H37369  12.914   1.801  -0.269  0.0755 -0.8026 -2.0583
  271MOL0     H37370  13.130   1.874  -0.368  2.0375  0.0359  1.7062
  271MOL0     H37371  13.191   1.717  -0.329 -0.1536 -1.4363  0.2844
  271MOL0     H37372  13.003   1.603  -0.443 -0.3666  0.5106  4.1949
  271MOL0     H37373  13.101   1.709  -0.548  1.3288  5.6431  0.8445
  271MOL0     H37374  12.915   1.877  -0.475  1.4903  0.2586 -1.0518
  271MOL0     H37375  12.811   1.738  -0.442 -0.2089 -0.2334  0.1800
  271MOL0     H37376  12.749   1.817  -0.664 -0.3556 -2.3822  2.8505
  271MOL0     H37377  12.842   1.683  -0.711  0.1444 -1.3772  3.3875
  271MOL0     H37378  12.678   1.344   0.087  0.2878 -2.2366 -3.3872
  271MOL0     H37379  12.512   1.191   0.085 -1.4258  0.8835  1.1817
  271MOL0     H37380  12.266   0.985   0.107 -1.1838 -0.8039  2.5617
  271MOL0     H37381  12.172   0.776   0.128  3.4306  3.3838  2.9103
  271MOL0     H37382  10.287   0.818   0.632 -4.2299  0.6038 -0.6371
  271MOL0     H37383  10.115   0.810   0.475 -0.6867  0.2707  1.5280
  271MOL0     H37384   9.929   0.805   0.227  0.8330 -1.1834  0.0188
  271MOL0     H37385   9.736   0.900   0.102  1.3640  0.5634 -1.2689
  271MOL0     H37386   9.515   0.832   0.041  0.1730 -1.9463 -0.9165
  271MOL0     H37387   9.581   0.959  -0.059 -0.0671  0.1640  0.7824
  271MOL0     H37388   9.434   0.857  -0.249  0.1042  0.6232  0.6310
  271MOL0     H37389   9.347   0.952  -0.125 -2.9999 -1.4809  1.7469
  271MOL0     H37390   9.377   0.652  -0.131 -0.1905 -0.6739  2.7454
  271MOL0     H37391   9.262   0.750  -0.028 -1.9507  1.6326 -0.6279
  271MOL0     H37392   9.144   0.637  -0.195 -1.8522  1.1702 -0.2555
  271MOL0     H37393   9.262   0.697  -0.321  1.8388 -4.7041  1.5225
  271MOL0     H37394   9.009   1.025  -0.315  0.7941  0.7042 -1.0711
  271MOL0     H37395   9.784   0.616  -0.197 -1.8003 -0.7408  0.7096
  271MOL0     H37396  10.013   0.496  -0.215 -0.2482  0.3181 -0.7781
  271MOL0     H37397  10.141   0.532  -0.106  0.6783  0.0253  1.6980
  271MOL0     H37398  10.035   0.404  -0.062  1.2061  0.4230  0.1088
  272MOL0     O37399   4.594   3.166  10.881 -0.0616 -0.1759  0.2035
  272MOL0     C37400   4.585   3.131  11.001  1.0569  0.0773 -0.0652
  272MOL0     O37401   4.516   3.204  11.097  0.4416  0.1189 -0.2414
  272MOL0     C37402   4.511   3.345  11.107 -0.1973  0.2004  0.6577
  272MOL0     C37403   4.427   3.411  11.195  0.1657 -0.6053  0.0661
  272MOL0     C37404   4.437   3.547  11.228  0.4429  1.2480 -0.1368
  272MOL0     C37405   4.526   3.625  11.160 -0.0471 -0.6478  0.7845
  272MOL0     O37406   4.519   3.765  11.161 -0.5421  0.0172 -0.3583
  272MOL0     C37407   4.545   3.822  11.032 -0.0926  0.2100 -0.1283
  272MOL0     C37408   4.511   3.970  11.031 -0.3238  0.1347 -0.1947
  272MOL0     C37409   4.640   4.030  11.075 -0.3483 -0.0217  1.2615
  272MOL0     C37410   4.628   4.184  11.096 -0.0032 -0.6856 -0.0703
  272MOL0     C37411   4.549   4.233  11.214 -1.0944  0.2002 -0.7719
  272MOL0     C37412   4.552   4.390  11.218  0.1551 -0.8595  0.7634
  272MOL0     C37413   4.462   4.439  11.336  0.3899 -0.7881 -0.1032
  272MOL0     C37414   4.454   4.590  11.352 -0.1956 -0.6211  0.4005
  272MOL0     N37415   4.429   4.637  11.490 -0.0257  0.0934 -0.1385
  272MOL0     C37416   4.503   4.725  11.550  0.4068 -0.4951 -0.2385
  272MOL0     C37417   4.453   4.722  11.675  0.8328 -0.2884 -0.0993
  272MOL0     C37418   4.528   4.789  11.786 -0.3161  0.6118 -0.2365
  272MOL0     C37419   4.630   4.696  11.851  0.4131 -0.5168  0.2884
  272MOL0     C37420   4.685   4.754  11.986 -0.2935  0.5136 -0.7648
  272MOL0     C37421   4.810   4.846  11.968  0.0017 -0.1373 -0.7679
  272MOL0     O37422   4.877   4.868  12.099 -0.5501  0.0886  0.5889
  272MOL0     C37423   4.921   4.997  12.138  0.4368 -0.2085 -0.4769
  272MOL0     C37424   4.964   5.012  12.268  0.2000 -0.0284  0.1850
  272MOL0     C37425   5.024   5.130  12.302 -0.8919  0.2347 -0.3695
  272MOL0     C37426   5.093   5.144  12.439 -0.6701 -0.1360  0.1688
  272MOL0     C37427   5.021   5.240  12.203  0.9091  0.5748 -0.0869
  272MOL0     C37428   5.086   5.373  12.228  0.4642  0.6906 -1.1576
  272MOL0     O37429   5.127   5.454  12.113  0.2014 -0.4576 -0.5276
  272MOL0     C37430   5.181   5.578  12.139  0.4666 -0.1599 -0.6720
  272MOL0     C37431   5.095   5.692  12.129 -0.4199 -0.4746 -0.8276
  272MOL0     C37432   5.145   5.821  12.153  0.0518 -0.0654 -0.5702
  272MOL0     C37433   5.275   5.833  12.208 -0.6487  0.0725  0.2384
  272MOL0     O37434   5.332   5.946  12.267 -0.5181 -0.5434  0.9014
  272MOL0     C37435   5.247   6.055  12.287  0.4004  0.5013  0.7564
  272MOL0     C37436   5.319   6.178  12.348  0.4349 -0.0540 -0.7894
  272MOL0     C37437   5.363   6.150  12.494  0.3080  0.4931  0.5557
  272MOL0     C37438   5.439   6.272  12.552  0.5422 -0.2196 -0.4533
  272MOL0     C37439   5.477   6.255  12.697  0.6445  0.2002 -0.4881
  272MOL0     C37440   5.512   6.391  12.763 -0.1093 -0.2840  0.1627
  272MOL0     C37441   5.514   6.399  12.917  0.0315 -0.8991  0.6718
  272MOL0     C37442   5.605   6.305  12.982 -0.1559 -0.1760  0.4136
  272MOL0    Cl37443   5.662   6.372  13.135  0.0557 -0.5208 -0.0869
  272MOL0     C37444   5.351   5.719  12.221 -0.1870 -0.2494  0.3924
  272MOL0     C37445   5.312   5.598  12.186 -0.5923 -0.5043  1.5661
  272MOL0     O37446   5.100   5.400  12.342  0.1435  0.0191  0.1160
  272MOL0     C37447   4.972   5.216  12.084 -0.5243  0.7277  0.1902
  272MOL0     C37448   4.927   5.098  12.044 -0.0363  0.8180 -0.3593
  272MOL0     N37449   4.347   4.633  11.684  1.0036 -0.6342  0.2564
  272MOL0     N37450   4.323   4.590  11.564  0.0936 -0.4244  0.5322
  272MOL0     C37451   4.622   3.554  11.082 -1.2640 -0.1122  0.2239
  272MOL0     C37452   4.620   3.419  11.059 -0.0088 -0.1850  0.2023
  272MOL0     C37453   4.627   2.991  11.038 -0.2744 -0.2639 -0.5337
  272MOL0     C37454   4.623   2.953  11.177 -0.0748  0.4728  0.3722
  272MOL0     C37455   4.685   2.835  11.218 -0.0899  0.2855  0.9664
  272MOL0     C37456   4.748   2.744  11.127 -0.5913 -1.3439  0.2264
  272MOL0     O37457   4.806   2.619  11.153 -0.2884  0.2251  0.1514
  272MOL0     C37458   4.833   2.598  11.295  0.4954 -0.0635  0.3682
  272MOL0     C37459   4.921   2.470  11.318  0.0265  0.1893 -0.1252
  272MOL0     C37460   4.938   2.436  11.471 -0.5481  0.1358 -0.3922
  272MOL0     C37461   5.007   2.298  11.486 -0.5521 -0.7376  0.3703
  272MOL0     C37462   4.905   2.195  11.456 -1.0914 -0.5023  0.0504
  272MOL0     C37463   4.826   2.106  11.455  0.1853  0.1220  0.1977
  272MOL0     C37464   4.732   2.771  10.987 -0.9667  0.1418  0.1612
  272MOL0     C37465   4.682   2.894  10.941  1.0443  0.6865 -0.0650
  272MOL0     C37466   4.682   2.920  10.794 -0.3970  0.4342  0.6280
  272MOL0     H37467   4.353   3.341  11.231 -1.8501  1.6599  0.5042
  272MOL0     H37468   4.370   3.605  11.290 -3.6387  0.6759 -3.5670
  272MOL0     H37469   4.482   3.783  10.952 -1.7353 -0.6101  1.5004
  272MOL0     H37470   4.653   3.808  11.016  0.2737  1.6960  0.9078
  272MOL0     H37471   4.481   4.002  10.931 -1.3480  0.7577  0.3015
  272MOL0     H37472   4.425   3.991  11.095  0.8180  0.8122  1.1899
  272MOL0     H37473   4.678   3.995  11.171  0.0554 -0.7181  0.8567
  272MOL0     H37474   4.723   4.008  11.007  1.0401  0.1893  2.7980
  272MOL0     H37475   4.733   4.217  11.102  0.3906 -0.9331 -3.5692
  272MOL0     H37476   4.581   4.227  11.007  0.9068  3.1414  1.1176
  272MOL0     H37477   4.592   4.199  11.309 -0.6038 -0.6498 -1.2897
  272MOL0     H37478   4.446   4.196  11.201 -0.4291 -1.6514 -0.9932
  272MOL0     H37479   4.655   4.423  11.236 -0.7756  0.9422  3.4393
  272MOL0     H37480   4.510   4.434  11.128  0.7030 -0.8594  0.5049
  272MOL0     H37481   4.492   4.408  11.436  1.2059  2.9637  0.9782
  272MOL0     H37482   4.364   4.397  11.313  1.0751 -1.2670 -2.4291
  272MOL0     H37483   4.553   4.619  11.315 -0.9060 -2.5299 -3.4746
  272MOL0     H37484   4.383   4.641  11.287  0.3790 -0.8446 -0.4177
  272MOL0     H37485   4.584   4.789  11.515 -0.7798  1.2210  0.0769
  272MOL0     H37486   4.448   4.816  11.856  0.7412  2.7860  0.1954
  272MOL0     H37487   4.585   4.876  11.753 -0.4897  0.9871  0.4162
  272MOL0     H37488   4.579   4.600  11.864 -0.6909  0.0736  0.4529
  272MOL0     H37489   4.720   4.683  11.790  0.4936 -0.8399  0.4767
  272MOL0     H37490   4.610   4.817  12.035  0.8886  1.2767  0.1124
  272MOL0     H37491   4.692   4.670  12.056 -3.0352  1.1018  0.3313
  272MOL0     H37492   4.894   4.801  11.914  0.4538 -4.1687  2.7687
  272MOL0     H37493   4.785   4.944  11.927  2.2959  2.6233  3.5969
  272MOL0     H37494   4.965   4.922  12.330  0.3768 -0.0902  0.0922
  272MOL0     H37495   5.124   5.042  12.462 -2.7493 -0.7240  0.5955
  272MOL0     H37496   5.016   5.174  12.511  0.1033 -0.7949  1.3124
  272MOL0     H37497   5.180   5.208  12.455 -1.2373  0.7601 -0.2510
  272MOL0     H37498   4.994   5.684  12.090 -0.6019 -2.1014 -0.0867
  272MOL0     H37499   5.080   5.908  12.146 -2.2456 -1.5512  0.9238
  272MOL0     H37500   5.207   6.085  12.190 -1.5189  0.6839  1.5560
  272MOL0     H37501   5.154   6.031  12.340  1.3489 -2.6525  1.1672
  272MOL0     H37502   5.414   6.187  12.294  0.2675  0.0328 -1.0662
  272MOL0     H37503   5.252   6.264  12.354 -1.4026 -1.3966 -1.1928
  272MOL0     H37504   5.429   6.064  12.508  1.9340  1.8808  1.8921
  272MOL0     H37505   5.277   6.127  12.557  1.5807  2.3274  3.1281
  272MOL0     H37506   5.374   6.359  12.539  1.2106  0.5024  0.8301
  272MOL0     H37507   5.514   6.272  12.473 -0.3637  0.7061 -1.3326
  272MOL0     H37508   5.388   6.222  12.752  1.7371  0.3422  1.4597
  272MOL0     H37509   5.560   6.187  12.714  1.1225  0.9141  0.1190
  272MOL0     H37510   5.440   6.456  12.712  0.8115  0.0590 -0.7490
  272MOL0     H37511   5.602   6.414  12.706 -0.3578  1.6073  0.4626
  272MOL0     H37512   5.411   6.394  12.952 -0.0682  2.1817  1.0732
  272MOL0     H37513   5.552   6.501  12.930 -1.2988 -0.1232 -1.0422
  272MOL0     H37514   5.688   6.270  12.920 -1.1416 -1.6799 -0.0934
  272MOL0     H37515   5.546   6.216  13.005  0.5447 -0.1739  2.4374
  272MOL0     H37516   5.448   5.740  12.265 -0.7457 -0.4874  1.7959
  272MOL0     H37517   5.355   5.501  12.210 -0.8569 -2.8737 -5.2018
  272MOL0     H37518   4.969   5.294  12.008 -2.0312 -1.4311 -2.1364
  272MOL0     H37519   4.901   5.100  11.939 -0.9426  2.4158 -0.1381
  272MOL0     H37520   4.707   3.608  11.041 -1.3405  0.3229  0.6221
  272MOL0     H37521   4.686   3.379  10.983  0.8457  0.9162  0.3347
  272MOL0     H37522   4.590   3.019  11.257  0.0436  0.2289  0.6233
  272MOL0     H37523   4.691   2.818  11.325 -1.3613  0.4086  1.0700
  272MOL0     H37524   4.867   2.694  11.335 -0.4695  1.2219 -1.6858
  272MOL0     H37525   4.735   2.577  11.338 -1.3411  1.5611 -2.6435
  272MOL0     H37526   5.023   2.491  11.287  1.2787 -2.1430  2.0793
  272MOL0     H37527   4.877   2.382  11.269  0.5513 -0.5735  0.7461
  272MOL0     H37528   4.989   2.519  11.518  0.0052  0.2726 -1.2158
  272MOL0     H37529   4.841   2.446  11.522 -1.3947  0.8068 -2.0544
  272MOL0     H37530   5.056   2.286  11.584 -0.0690  1.6862  0.4954
  272MOL0     H37531   5.083   2.289  11.408 -2.6616  0.9692 -2.0297
  272MOL0     H37532   4.740   2.042  11.454 -0.2050  0.4598  3.1623
  272MOL0     H37533   4.774   2.699  10.918 -3.4162 -1.9112  0.6695
  272MOL0     H37534   4.721   2.831  10.743 -2.2751 -0.4520  0.6301
  272MOL0     H37535   4.584   2.937  10.748 -0.1644  3.0032  0.9404
  272MOL0     H37536   4.736   3.010  10.763  0.8245 -0.3048  0.5449
  273MOL0     O37537   6.274   8.646   5.157  0.0344 -0.3851  0.9574
  273MOL0     C37538   6.182   8.673   5.082  0.2937  0.3883 -0.4282
  273MOL0     O37539   6.067   8.603   5.079 -0.2006  0.4303 -1.2292
  273MOL0     C37540   6.031   8.542   5.193  0.5981 -0.0380 -1.1517
  273MOL0     C37541   5.975   8.419   5.180 -1.0458  0.7113 -0.1858
  273MOL0     C37542   5.941   8.344   5.286 -0.1195 -1.2977  0.2724
  273MOL0     C37543   5.921   8.398   5.412 -0.5375  0.2777  0.2651
  273MOL0     O37544   5.859   8.320   5.500  0.4268 -0.9765 -0.5044
  273MOL0     C37545   5.895   8.337   5.642 -0.2969 -0.4183 -0.3260
  273MOL0     C37546   5.814   8.241   5.730  0.4766 -1.1928  0.8978
  273MOL0     C37547   5.672   8.289   5.755  0.4796 -0.1082 -0.5252
  273MOL0     C37548   5.589   8.178   5.811 -1.5314 -0.4006 -0.0691
  273MOL0     C37549   5.441   8.220   5.830 -0.4083  0.5707  0.2666
  273MOL0     C37550   5.383   8.108   5.924  0.1142 -1.0784  0.1942
  273MOL0     C37551   5.238   8.137   5.953  0.7595  0.7248 -0.5666
  273MOL0     C37552   5.213   8.251   6.055 -0.7078 -0.1794  0.3040
  273MOL0     N37553   5.084   8.254   6.123  0.5632  0.8106 -0.3878
  273MOL0     C37554   5.041   8.169   6.225 -0.2372  0.0612  0.5763
  273MOL0     C37555   4.913   8.210   6.262  1.2307 -1.5012  1.0028
  273MOL0     C37556   4.848   8.153   6.378  0.0299  1.1708  0.9836
  273MOL0     C37557   4.865   8.248   6.500  0.4213 -0.6827 -0.9503
  273MOL0     C37558   4.765   8.215   6.609  0.4194  0.3912  0.5792
  273MOL0     C37559   4.811   8.110   6.719 -0.0192 -0.4907 -0.8355
  273MOL0     O37560   4.875   8.000   6.655  0.4829  0.4269 -0.1069
  273MOL0     C37561   4.930   7.904   6.737  0.0064 -0.3969  1.3377
  273MOL0     C37562   5.046   7.924   6.816 -0.2866  0.0857  0.5144
  273MOL0     C37563   5.110   7.818   6.877 -1.9150  0.1841 -0.5916
  273MOL0     C37564   5.229   7.853   6.973  0.5492 -1.4009 -0.9596
  273MOL0     C37565   5.055   7.687   6.863 -0.2098  0.4063  0.1956
  273MOL0     C37566   5.102   7.573   6.939 -0.3539 -0.5766 -0.6630
  273MOL0     O37567   5.060   7.451   6.896  0.3400 -0.4670 -0.1719
  273MOL0     C37568   5.083   7.342   6.976 -0.3826 -0.2688  0.5407
  273MOL0     C37569   5.178   7.257   6.924 -0.2006  0.6808 -0.6838
  273MOL0     C37570   5.214   7.135   6.986  0.2425  1.0204 -0.1554
  273MOL0     C37571   5.159   7.106   7.110  0.3834 -0.4262  0.0316
  273MOL0     O37572   5.165   6.992   7.176  0.6575 -0.1937 -0.1259
  273MOL0     C37573   5.284   6.922   7.183 -0.5793  0.3224  0.3365
  273MOL0     C37574   5.381   7.021   7.246  0.1388  0.2766  0.0736
  273MOL0     C37575   5.529   6.966   7.271 -0.3428 -0.4427  0.2449
  273MOL0     C37576   5.627   7.076   7.262 -0.5167  0.0148 -0.6409
  273MOL0     C37577   5.663   7.126   7.129 -0.0186 -0.1705  1.0228
  273MOL0     C37578   5.556   7.158   7.021 -0.2926 -0.3684  0.5905
  273MOL0     C37579   5.634   7.190   6.892 -0.2491 -0.6863  0.2024
  273MOL0     C37580   5.551   7.256   6.776  0.4217  0.4880  0.3479
  273MOL0    Cl37581   5.483   7.110   6.686 -0.0120 -0.3583  0.4778
  273MOL0     C37582   5.070   7.197   7.168 -0.4567 -1.1815  0.5161
  273MOL0     C37583   5.028   7.313   7.103  0.0428 -0.5442 -0.5740
  273MOL0     O37584   5.176   7.595   7.033  0.4459 -1.2485 -0.1100
  273MOL0     C37585   4.936   7.668   6.788 -0.4634 -0.0473  0.1808
  273MOL0     C37586   4.882   7.772   6.721 -1.2283  1.1640 -0.9812
  273MOL0     N37587   4.885   8.314   6.178 -0.2425 -0.2860  0.8833
  273MOL0     N37588   4.984   8.337   6.096 -0.3995 -0.2619  0.7975
  273MOL0     C37589   5.980   8.523   5.433  0.1179 -0.3231 -0.0590
  273MOL0     C37590   6.040   8.598   5.328  0.1975  0.3663  0.0571
  273MOL0     C37591   6.202   8.770   4.981  0.7025  0.7884  0.2727
  273MOL0     C37592   6.098   8.773   4.884  0.1898  0.2307 -0.0380
  273MOL0     C37593   6.103   8.867   4.781  0.1363 -0.7902 -0.2149
  273MOL0     C37594   6.209   8.953   4.753 -0.1711 -0.0987  1.0111
  273MOL0     O37595   6.203   9.028   4.636 -0.8058  0.4441  0.0677
  273MOL0     C37596   6.317   9.106   4.582  0.3955 -0.5791 -0.3359
  273MOL0     C37597   6.327   9.258   4.623 -0.4299 -0.2648 -0.1191
  273MOL0     C37598   6.247   9.343   4.530  0.0553  0.3346  0.5021
  273MOL0     C37599   6.247   9.496   4.555 -0.2572  0.2541 -0.0232
  273MOL0     C37600   6.385   9.535   4.521  0.3296  0.1498 -0.8558
  273MOL0     C37601   6.495   9.585   4.512 -0.8033 -0.1865 -0.1582
  273MOL0     C37602   6.315   8.955   4.852 -0.0972  0.3815  1.2617
  273MOL0     C37603   6.306   8.865   4.968  0.1131 -0.1853 -0.1796
  273MOL0     C37604   6.413   8.865   5.073  0.4589  0.4590 -0.0058
  273MOL0     H37605   5.987   8.374   5.082  1.6209 -3.7837  1.8776
  273MOL0     H37606   5.932   8.237   5.269  3.4700 -2.0472  1.9876
  273MOL0     H37607   5.896   8.440   5.677  0.7020 -0.5714  0.1269
  273MOL0     H37608   6.003   8.316   5.644  0.0071  1.1227  0.2082
  273MOL0     H37609   5.834   8.138   5.697  0.6996 -1.1394  0.8640
  273MOL0     H37610   5.860   8.248   5.830  0.5953  1.6699  0.7199
  273MOL0     H37611   5.667   8.378   5.818 -1.5204 -1.9489  2.1190
  273MOL0     H37612   5.609   8.314   5.669  0.4596  2.7651  0.2249
  273MOL0     H37613   5.596   8.089   5.748  2.1161  0.9396 -1.8038
  273MOL0     H37614   5.630   8.160   5.911 -0.2935  3.3560  0.2275
  273MOL0     H37615   5.382   8.225   5.738 -2.7001 -3.9891  1.1727
  273MOL0     H37616   5.431   8.319   5.876 -0.2449  0.8782 -0.3523
  273MOL0     H37617   5.394   8.016   5.867  1.4399  0.4526 -2.1659
  273MOL0     H37618   5.443   8.102   6.015  1.2559  0.7017 -0.3952
  273MOL0     H37619   5.199   8.045   5.999  2.4348  0.2764  0.0227
  273MOL0     H37620   5.177   8.146   5.863  2.6702 -0.8388 -2.0985
  273MOL0     H37621   5.285   8.249   6.137  5.2729 -1.0844 -4.3230
  273MOL0     H37622   5.230   8.351   6.014 -3.7745  1.0241  1.6032
  273MOL0     H37623   5.089   8.088   6.278  0.4779  0.6207  0.8080
  273MOL0     H37624   4.881   8.053   6.408  2.8922  1.2327 -1.4930
  273MOL0     H37625   4.742   8.149   6.353 -0.1143 -3.3965  1.6253
  273MOL0     H37626   4.964   8.228   6.542  0.4913 -1.9102 -1.6509
  273MOL0     H37627   4.857   8.355   6.479  0.8742 -0.0175  1.8535
  273MOL0     H37628   4.746   8.316   6.646 -2.1550 -0.2019  1.0905
  273MOL0     H37629   4.669   8.189   6.563 -0.0719 -1.0175  2.2822
  273MOL0     H37630   4.881   8.159   6.787 -0.8183 -1.8222  1.0584
  273MOL0     H37631   4.722   8.070   6.769  0.0356 -0.3064 -0.5862
  273MOL0     H37632   5.075   8.027   6.836  0.9616  0.0525 -0.9609
  273MOL0     H37633   5.184   7.845   7.072 -0.0909  2.1666 -0.8126
  273MOL0     H37634   5.257   7.959   6.967 -2.1715 -0.2228  2.9689
  273MOL0     H37635   5.312   7.783   6.962  0.3845 -1.8323  0.3127
  273MOL0     H37636   5.204   7.281   6.822 -1.3295  2.8233 -0.5247
  273MOL0     H37637   5.274   7.061   6.933 -2.8522 -1.2777 -0.7258
  273MOL0     H37638   5.267   6.828   7.238 -0.4057 -0.7561 -1.3687
  273MOL0     H37639   5.310   6.898   7.079 -1.6126  0.9446 -0.0775
  273MOL0     H37640   5.376   7.116   7.192 -2.9782  0.1596 -0.0300
  273MOL0     H37641   5.347   7.036   7.348  0.2946 -1.2712  0.3698
  273MOL0     H37642   5.556   6.890   7.197 -0.8938 -1.2713  0.8574
  273MOL0     H37643   5.544   6.939   7.377  0.0226  1.2924  0.6555
  273MOL0     H37644   5.718   7.045   7.314 -0.6893 -0.1203 -0.4217
  273MOL0     H37645   5.602   7.168   7.315 -0.8705  0.4828 -1.5855
  273MOL0     H37646   5.722   7.216   7.147 -0.1276  0.9093 -3.0847
  273MOL0     H37647   5.734   7.056   7.084  0.3571  1.1552 -0.5415
  273MOL0     H37648   5.498   7.245   7.054 -0.0915  0.8941 -2.0958
  273MOL0     H37649   5.488   7.074   7.004 -3.3043  1.6308  1.9350
  273MOL0     H37650   5.686   7.100   6.859  1.7170  0.6579 -0.6097
  273MOL0     H37651   5.712   7.261   6.923 -1.1300  0.3949 -0.0103
  273MOL0     H37652   5.611   7.324   6.714 -0.7502 -0.1854 -1.6354
  273MOL0     H37653   5.482   7.331   6.818  0.2684  1.6973 -1.8756
  273MOL0     H37654   5.028   7.159   7.261 -2.8260  0.5193  0.2269
  273MOL0     H37655   4.952   7.383   7.136 -1.1356 -0.4059 -3.3581
  273MOL0     H37656   4.904   7.570   6.755 -2.3908  1.6514 -3.5464
  273MOL0     H37657   4.797   7.746   6.658 -1.9760 -1.6866  1.0455
  273MOL0     H37658   5.991   8.568   5.531  0.4180 -0.1903 -0.1521
  273MOL0     H37659   6.081   8.697   5.345  2.5260 -0.6970  1.0086
  273MOL0     H37660   6.013   8.706   4.879  1.9834 -2.3198  1.5982
  273MOL0     H37661   6.028   8.879   4.704  2.1780  1.7761 -1.9917
  273MOL0     H37662   6.412   9.053   4.595 -0.9560 -2.4244  3.8569
  273MOL0     H37663   6.298   9.105   4.475 -1.4970 -0.0735 -0.0389
  273MOL0     H37664   6.432   9.287   4.609 -1.0830  1.4903 -1.7705
  273MOL0     H37665   6.287   9.274   4.724 -0.5279  0.4091 -0.2575
  273MOL0     H37666   6.304   9.315   4.441  2.2376 -0.2312  2.0077
  273MOL0     H37667   6.143   9.310   4.520 -0.9534  3.0360  1.3143
  273MOL0     H37668   6.238   9.519   4.662  3.2971  0.0611  0.4447
  273MOL0     H37669   6.175   9.551   4.494 -0.5053 -0.9273 -0.8190
  273MOL0     H37670   6.589   9.633   4.494 -1.0699  0.3981 -0.0313
  273MOL0     H37671   6.397   9.021   4.829  0.9370 -1.2936 -0.1049
  273MOL0     H37672   6.493   8.938   5.061  0.8551  0.4517  2.1786
  273MOL0     H37673   6.359   8.899   5.162 -3.0275 -0.2803 -1.6747
  273MOL0     H37674   6.457   8.766   5.084 -2.3811 -0.9622 -0.5893
  274MOL0     O37675   4.119   4.335   6.239  0.7355  0.2948  0.0156
  274MOL0     C37676   4.003   4.290   6.241  0.0366  0.1591 -0.5085
  274MOL0     O37677   3.974   4.162   6.228 -0.3492  0.4411  0.0263
  274MOL0     C37678   4.075   4.074   6.247 -0.1516  0.0243  0.2882
  274MOL0     C37679   4.067   3.995   6.357  0.7136 -0.2530  0.9048
  274MOL0     C37680   4.164   3.895   6.393 -0.3523 -0.6013  0.3907
  274MOL0     C37681   4.281   3.891   6.308 -0.2381 -0.3692 -0.2991
  274MOL0     O37682   4.384   3.807   6.310 -0.0462 -0.6308 -0.1561
  274MOL0     C37683   4.380   3.700   6.396 -0.2701 -0.5775  0.3311
  274MOL0     C37684   4.472   3.594   6.327  0.0840  0.0388  0.3299
  274MOL0     C37685   4.494   3.486   6.434  0.1437  0.7496 -0.6615
  274MOL0     C37686   4.521   3.351   6.368 -0.3820 -0.0440 -0.9802
  274MOL0     C37687   4.564   3.250   6.479 -0.2310 -0.5827  0.3415
  274MOL0     C37688   4.715   3.230   6.486  0.0482  0.2160  0.2639
  274MOL0     C37689   4.767   3.139   6.381  0.8399  0.6677  0.6134
  274MOL0     C37690   4.924   3.143   6.378  0.5296 -1.0082  0.1502
  274MOL0     N37691   4.957   3.239   6.272 -0.7180 -0.0785  0.2359
  274MOL0     C37692   4.901   3.353   6.234  0.1791 -0.1478 -0.4003
  274MOL0     C37693   4.959   3.381   6.113  0.4254  0.4133  0.8616
  274MOL0     C37694   4.916   3.486   6.017  0.0228 -0.4554 -0.1120
  274MOL0     C37695   4.768   3.532   6.010 -1.3040  0.3141 -0.5810
  274MOL0     C37696   4.686   3.419   5.940 -0.7937 -0.1818 -0.1462
  274MOL0     C37697   4.567   3.470   5.865  0.3542  0.2576 -0.0299
  274MOL0     O37698   4.484   3.560   5.948 -0.4636 -0.0375 -0.3409
  274MOL0     C37699   4.349   3.580   5.917  0.1621  0.3570  0.2963
  274MOL0     C37700   4.269   3.482   5.859  0.7817  0.5946 -0.5908
  274MOL0     C37701   4.136   3.510   5.825  0.5889 -0.7120  0.0572
  274MOL0     C37702   4.061   3.393   5.770  0.3034 -0.3751 -0.7688
  274MOL0     C37703   4.077   3.640   5.840 -0.5408 -0.2173  0.3385
  274MOL0     C37704   3.939   3.670   5.802  1.1713 -0.3711 -0.4220
  274MOL0     O37705   3.911   3.802   5.801  0.3785  0.1744  0.8326
  274MOL0     C37706   3.788   3.861   5.809 -0.7909 -0.2417  0.3702
  274MOL0     C37707   3.807   3.991   5.843 -0.2446  0.3167 -0.3841
  274MOL0     C37708   3.696   4.075   5.875  0.8680 -0.0394  0.5353
  274MOL0     C37709   3.564   4.031   5.855  0.1716 -0.1967  0.4606
  274MOL0     O37710   3.469   4.121   5.881  1.0873  0.2514 -0.2958
  274MOL0     C37711   3.346   4.111   5.805  0.3739 -0.4755 -0.1701
  274MOL0     C37712   3.224   4.038   5.885 -0.1097 -0.9826  0.7209
  274MOL0     C37713   3.091   4.115   5.879  0.4247 -0.6042 -0.0505
  274MOL0     C37714   3.111   4.262   5.936 -0.0898  1.2623  1.1846
  274MOL0     C37715   2.979   4.330   5.963 -0.5791 -0.6818  0.0386
  274MOL0     C37716   2.892   4.245   6.057  0.9527 -0.3314  0.0086
  274MOL0     C37717   2.796   4.333   6.139  0.9829 -1.0056  0.2078
  274MOL0     C37718   2.665   4.368   6.056  0.8388 -0.6595  0.2517
  274MOL0    Cl37719   2.563   4.492   6.142 -0.2932 -0.2705 -0.5614
  274MOL0     C37720   3.556   3.891   5.829  0.3968  0.7453 -0.6534
  274MOL0     C37721   3.664   3.813   5.793  0.1755  0.0641 -0.0785
  274MOL0     O37722   3.850   3.585   5.807 -0.7410  0.3480 -0.5938
  274MOL0     C37723   4.167   3.739   5.901  0.1283  0.1134 -0.0271
  274MOL0     C37724   4.301   3.706   5.943  0.1836  0.4044  0.0665
  274MOL0     N37725   5.060   3.286   6.087  0.1676 -0.4147  0.0230
  274MOL0     N37726   5.051   3.211   6.179  0.1901  0.6107  0.3828
  274MOL0     C37727   4.294   3.978   6.199 -0.5178  0.0540 -0.2554
  274MOL0     C37728   4.189   4.069   6.170  0.1159 -0.7004  0.6908
  274MOL0     C37729   3.895   4.385   6.218  1.0911 -0.0876 -0.3740
  274MOL0     C37730   3.767   4.332   6.198 -0.8788  0.3107 -0.7591
  274MOL0     C37731   3.647   4.403   6.185 -1.0583 -0.5036  0.4118
  274MOL0     C37732   3.660   4.541   6.191 -0.1224 -0.3192 -0.7603
  274MOL0     O37733   3.539   4.609   6.171 -0.3408 -0.0244  0.4536
  274MOL0     C37734   3.524   4.751   6.189  0.2028 -0.3694 -0.2375
  274MOL0     C37735   3.374   4.779   6.200  0.0456 -0.7133  0.3666
  274MOL0     C37736   3.343   4.925   6.180  0.8288  0.2091  0.3757
  274MOL0     C37737   3.194   4.936   6.167  0.8230 -0.3098  1.1418
  274MOL0     C37738   3.151   5.053   6.084 -0.5135 -0.0574 -0.0335
  274MOL0     C37739   3.111   5.149   6.025 -0.2556  0.2034  0.6521
  274MOL0     C37740   3.788   4.599   6.207  0.3237  0.0333  1.4598
  274MOL0     C37741   3.907   4.524   6.205  0.1249  0.0414 -0.0449
  274MOL0     C37742   4.038   4.595   6.201 -0.6196 -0.1544  0.2965
  274MOL0     H37743   3.980   4.010   6.420 -0.2008  0.9148 -0.5937
  274MOL0     H37744   4.143   3.822   6.471  0.7659 -0.1902  1.1159
  274MOL0     H37745   4.275   3.667   6.395 -1.2617  2.3249 -0.0529
  274MOL0     H37746   4.417   3.737   6.492 -0.2156 -0.4742  0.2702
  274MOL0     H37747   4.421   3.561   6.236  1.0899  2.1931 -1.1092
  274MOL0     H37748   4.557   3.638   6.273 -2.4324  1.2334 -3.0230
  274MOL0     H37749   4.573   3.520   6.502 -0.8768 -3.5332  3.2034
  274MOL0     H37750   4.414   3.474   6.508  2.5682  2.3770  2.4700
  274MOL0     H37751   4.430   3.319   6.317 -1.0225 -0.8415  0.6051
  274MOL0     H37752   4.604   3.358   6.297 -0.9379 -1.1789 -1.7711
  274MOL0     H37753   4.507   3.157   6.471 -0.9787 -0.2464  1.4761
  274MOL0     H37754   4.529   3.293   6.573 -2.4569 -2.0429  0.2433
  274MOL0     H37755   4.759   3.330   6.479 -0.0877  0.3431  1.1592
  274MOL0     H37756   4.735   3.186   6.584  1.2714 -0.4436 -0.2453
  274MOL0     H37757   4.725   3.154   6.281  3.1673  1.3458 -0.3411
  274MOL0     H37758   4.755   3.037   6.417  5.9548 -1.3431 -2.2470
  274MOL0     H37759   4.964   3.175   6.475 -1.7972  1.4014  0.4478
  274MOL0     H37760   4.970   3.049   6.349  0.8155 -0.6933 -0.4266
  274MOL0     H37761   4.827   3.413   6.285 -0.9647 -1.0998 -0.8917
  274MOL0     H37762   4.949   3.451   5.919 -1.8840 -1.7077 -0.3656
  274MOL0     H37763   4.978   3.576   6.021  0.6839 -0.5436 -4.3223
  274MOL0     H37764   4.736   3.539   6.114  1.5172 -0.3349  0.4426
  274MOL0     H37765   4.758   3.630   5.962  0.5061  0.3560 -0.9633
  274MOL0     H37766   4.736   3.372   5.855 -1.9046 -0.3477 -0.7289
  274MOL0     H37767   4.666   3.336   6.008  3.6496 -3.0683 -1.9463
  274MOL0     H37768   4.602   3.524   5.776 -2.1661  1.8843 -0.1384
  274MOL0     H37769   4.502   3.389   5.833  0.5143  0.5232 -1.0909
  274MOL0     H37770   4.310   3.386   5.830 -0.4815  0.3664 -1.7414
  274MOL0     H37771   4.027   3.422   5.670  0.9514  1.0609 -0.6018
  274MOL0     H37772   3.970   3.370   5.825 -0.8852  1.2683 -1.9423
  274MOL0     H37773   4.118   3.301   5.758 -1.2866 -1.5358  0.2369
  274MOL0     H37774   3.911   4.021   5.854  0.4571 -1.3793 -1.8758
  274MOL0     H37775   3.724   4.177   5.902  1.9926 -0.5589  1.4058
  274MOL0     H37776   3.325   4.216   5.780  0.5739 -0.1685  0.9143
  274MOL0     H37777   3.353   4.054   5.712 -3.8301 -1.1272 -0.2866
  274MOL0     H37778   3.205   3.939   5.844  1.0220 -1.7850  2.0410
  274MOL0     H37779   3.253   4.018   5.988 -1.1713 -0.9650  1.0378
  274MOL0     H37780   3.018   4.068   5.946  1.7302  0.8119  2.4987
  274MOL0     H37781   3.052   4.122   5.776  3.7480  1.1015 -1.3555
  274MOL0     H37782   3.166   4.323   5.864  1.1413  1.9270  2.6376
  274MOL0     H37783   3.180   4.267   6.020 -2.8229 -0.3531  3.7254
  274MOL0     H37784   2.994   4.429   6.005 -0.1044  0.8289 -3.3811
  274MOL0     H37785   2.931   4.339   5.865  0.0829  0.7101 -0.1817
  274MOL0     H37786   2.960   4.194   6.125  0.8972 -0.5073 -0.0670
  274MOL0     H37787   2.830   4.173   6.003  0.0067  1.3651 -1.2757
  274MOL0     H37788   2.850   4.425   6.162 -0.5416  0.3581 -1.3758
  274MOL0     H37789   2.762   4.282   6.230  1.2145 -3.8130 -1.1444
  274MOL0     H37790   2.603   4.278   6.049 -2.5132  1.4389  0.6795
  274MOL0     H37791   2.688   4.417   5.961  2.1816 -1.7232  0.0009
  274MOL0     H37792   3.460   3.842   5.832  1.3394 -1.2334 -1.0319
  274MOL0     H37793   3.635   3.718   5.749  1.2781  0.3810 -1.5638
  274MOL0     H37794   4.130   3.837   5.927 -0.5466  0.8651 -3.2994
  274MOL0     H37795   4.357   3.782   5.996  0.9540 -0.2406  0.1992
  274MOL0     H37796   4.381   3.965   6.135  0.0311 -1.8052  0.8122
  274MOL0     H37797   4.197   4.133   6.083 -1.9410 -0.8033  0.3637
  274MOL0     H37798   3.746   4.226   6.213 -1.2282  0.6135  1.2585
  274MOL0     H37799   3.556   4.343   6.185  0.3358 -2.8542  3.3482
  274MOL0     H37800   3.579   4.795   6.273  0.3153  2.4146 -1.6566
  274MOL0     H37801   3.571   4.790   6.099  0.3079 -1.7415 -0.8095
  274MOL0     H37802   3.339   4.750   6.299  2.8111  1.3297  2.0800
  274MOL0     H37803   3.336   4.721   6.115  1.4010 -1.7482  0.4366
  274MOL0     H37804   3.364   4.990   6.265 -0.5144  0.7883  0.2880
  274MOL0     H37805   3.392   4.964   6.090  1.4339  0.1163  0.6586
  274MOL0     H37806   3.144   4.950   6.263 -0.6507 -1.5085  0.5911
  274MOL0     H37807   3.161   4.844   6.118  2.3432 -0.8470  1.0834
  274MOL0     H37808   3.071   5.237   5.979 -0.0179 -0.2095 -0.3735
  274MOL0     H37809   3.806   4.705   6.195  3.7012 -0.1680  3.5540
  274MOL0     H37810   4.100   4.565   6.116 -0.7824 -0.5303  0.3045
  274MOL0     H37811   4.020   4.702   6.194 -0.7286 -0.2775 -2.0384
  274MOL0     H37812   4.090   4.575   6.295  0.1428  1.8550  0.3370
  275MOL0     O37813   5.223   8.494   0.506  0.2995 -0.1088  0.5407
  275MOL0     C37814   5.131   8.482   0.420  0.0133  0.2390 -0.3269
  275MOL0     O37815   5.054   8.586   0.378 -0.3400  0.3314 -0.2400
  275MOL0     C37816   5.042   8.688   0.466 -1.0887 -0.7088 -0.0595
  275MOL0     C37817   5.137   8.802   0.466  0.3587  0.7276 -0.0716
  275MOL0     C37818   5.113   8.907   0.565 -0.9412  0.4601 -0.1155
  275MOL0     C37819   4.991   8.909   0.648 -0.2382  0.4306  0.0662
  275MOL0     O37820   4.962   9.003   0.746  0.7346 -0.5522  0.1789
  275MOL0     C37821   5.045   9.116   0.767  0.3091  0.6510  0.9420
  275MOL0     C37822   5.073   9.130   0.908 -1.1612  0.4518  0.7007
  275MOL0     C37823   5.205   9.050   0.943 -0.9418  0.2533 -1.2955
  275MOL0     C37824   5.270   9.115   1.064 -1.2901  1.4026  0.3524
  275MOL0     C37825   5.240   9.040   1.203 -0.2877  0.1513 -0.3430
  275MOL0     C37826   5.098   9.068   1.253  0.0102 -0.1438 -1.0514
  275MOL0     C37827   5.066   9.212   1.267  0.5904 -0.1257 -0.2810
  275MOL0     C37828   4.950   9.241   1.358  0.4688 -0.3780 -0.3895
  275MOL0     N37829   4.987   9.326   1.477  0.6669 -0.0550  0.8140
  275MOL0     C37830   5.090   9.281   1.558  0.5178  0.5310 -0.1705
  275MOL0     C37831   5.112   9.381   1.649  0.2541 -0.1321  0.2006
  275MOL0     C37832   5.212   9.387   1.760  0.1599  0.8557 -0.1154
  275MOL0     C37833   5.156   9.361   1.901  0.5105 -0.1876  0.6271
  275MOL0     C37834   5.272   9.384   1.988  0.2416  0.2696 -0.1019
  275MOL0     C37835   5.256   9.288   2.103  0.2552 -0.8101 -0.9501
  275MOL0     O37836   5.316   9.167   2.061 -0.1856 -0.7565 -0.4060
  275MOL0     C37837   5.318   9.061   2.149 -0.3054 -0.7216 -0.4552
  275MOL0     C37838   5.276   9.070   2.287 -0.0018 -0.3064 -0.0302
  275MOL0     C37839   5.283   8.953   2.363 -0.2010 -0.3698 -0.0892
  275MOL0     C37840   5.241   8.964   2.505  0.1492  0.3724  0.3588
  275MOL0     C37841   5.327   8.828   2.300 -0.3016 -0.0763 -0.5170
  275MOL0     C37842   5.331   8.708   2.376 -0.2431  0.4123 -0.2506
  275MOL0     O37843   5.446   8.634   2.357 -0.0940  0.0255 -0.5030
  275MOL0     C37844   5.442   8.501   2.390 -0.3122  0.6368 -0.3351
  275MOL0     C37845   5.486   8.459   2.517 -0.3608  0.8728 -0.8778
  275MOL0     C37846   5.511   8.325   2.555  0.6564  1.0511  0.0130
  275MOL0     C37847   5.481   8.225   2.459  0.4781 -0.1462 -0.8891
  275MOL0     O37848   5.499   8.095   2.494 -0.0056  0.4247  0.2193
  275MOL0     C37849   5.641   8.061   2.508  0.5390  0.7917 -0.4295
  275MOL0     C37850   5.674   7.904   2.499  0.5214 -0.0408 -0.2145
  275MOL0     C37851   5.645   7.857   2.355  0.7305  0.1791  0.3589
  275MOL0     C37852   5.700   7.716   2.335  0.5388 -0.3013  0.2476
  275MOL0     C37853   5.668   7.660   2.206 -0.3424 -0.1667  0.6583
  275MOL0     C37854   5.521   7.620   2.182  0.1286 -0.0240  0.5429
  275MOL0     C37855   5.496   7.571   2.038 -0.1624  0.1941 -0.1039
  275MOL0     C37856   5.447   7.689   1.951  0.5953  0.2311  0.2817
  275MOL0    Cl37857   5.389   7.634   1.786 -0.1091 -0.2105 -0.3825
  275MOL0     C37858   5.446   8.260   2.331 -0.3220  0.1114 -0.1132
  275MOL0     C37859   5.424   8.395   2.293 -0.0348 -0.4795  0.5567
  275MOL0     O37860   5.235   8.664   2.437  0.3708  0.4464 -0.3708
  275MOL0     C37861   5.371   8.821   2.171  1.4996 -0.4435  0.2693
  275MOL0     C37862   5.371   8.939   2.097  0.7321 -1.0210  0.4761
  275MOL0     N37863   5.017   9.481   1.629  0.9659  0.5012  0.1805
  275MOL0     N37864   4.949   9.451   1.525  0.0769 -0.0916  0.1654
  275MOL0     C37865   4.909   8.794   0.647  0.4730  0.1014 -0.2522
  275MOL0     C37866   4.947   8.688   0.566 -0.9756 -0.0510  0.2102
  275MOL0     C37867   5.101   8.356   0.361 -0.6801  0.2898 -0.6209
  275MOL0     C37868   5.138   8.253   0.451  0.8392  0.3782 -0.7054
  275MOL0     C37869   5.073   8.122   0.431 -0.0705 -0.2573 -0.0193
  275MOL0     C37870   4.992   8.086   0.326  0.1412  0.3320 -0.0528
  275MOL0     O37871   4.939   7.965   0.284  0.0150  0.0695 -0.3091
  275MOL0     C37872   5.006   7.854   0.322  0.5788  0.6732  0.9203
  275MOL0     C37873   5.134   7.823   0.232  0.4885  0.1284  0.4824
  275MOL0     C37874   5.100   7.827   0.084 -0.8159 -0.6274  0.5249
  275MOL0     C37875   5.213   7.759   0.004 -0.1419 -0.2932 -0.0437
  275MOL0     C37876   5.246   7.617   0.023  0.3567  0.8045  0.6671
  275MOL0     C37877   5.267   7.499   0.019 -0.1947  0.5942  0.5993
  275MOL0     C37878   4.976   8.194   0.233 -0.6104 -0.3247 -1.1510
  275MOL0     C37879   5.014   8.324   0.254 -1.0819  0.0018 -0.7463
  275MOL0     C37880   4.970   8.426   0.166  0.5196 -0.3262 -0.0433
  275MOL0     H37881   5.227   8.786   0.406 -0.5526 -2.5290 -0.7949
  275MOL0     H37882   5.179   8.991   0.549 -0.9929  0.4979 -0.1303
  275MOL0     H37883   5.004   9.209   0.728  2.6451  0.9344 -1.1180
  275MOL0     H37884   5.138   9.100   0.710 -0.8958  1.0089 -1.2426
  275MOL0     H37885   5.078   9.237   0.930 -1.9473  0.3575  1.3923
  275MOL0     H37886   4.988   9.092   0.964 -2.7694  0.7731 -1.4261
  275MOL0     H37887   5.188   8.946   0.972 -1.3572  1.3018  2.8395
  275MOL0     H37888   5.275   9.061   0.860 -0.8746 -0.0670 -1.2809
  275MOL0     H37889   5.376   9.106   1.040 -1.4990 -0.1555 -0.0894
  275MOL0     H37890   5.249   9.222   1.067  0.0353  1.8868 -3.0071
  275MOL0     H37891   5.318   9.054   1.279 -0.1329  2.8531 -0.8667
  275MOL0     H37892   5.249   8.933   1.185  1.0299  0.6694 -3.4550
  275MOL0     H37893   5.032   9.017   1.182 -0.7420 -1.2012  0.3351
  275MOL0     H37894   5.098   9.021   1.352 -0.8840  3.7336  0.9473
  275MOL0     H37895   5.034   9.238   1.165 -1.7134 -0.3103  0.3431
  275MOL0     H37896   5.155   9.269   1.293  0.7251 -1.1445  1.6313
  275MOL0     H37897   4.881   9.298   1.296  1.2576  0.3469 -0.6185
  275MOL0     H37898   4.896   9.152   1.392  2.4021 -0.8992  1.5549
  275MOL0     H37899   5.150   9.192   1.541  1.3928  0.6436  2.0109
  275MOL0     H37900   5.253   9.488   1.758  2.8989 -0.1763 -0.1634
  275MOL0     H37901   5.295   9.318   1.745 -0.1053  0.1863  1.4041
  275MOL0     H37902   5.072   9.430   1.915 -0.2570 -1.5449  3.3348
  275MOL0     H37903   5.124   9.258   1.916 -0.4279  0.4942  4.2944
  275MOL0     H37904   5.369   9.371   1.938  1.8711  0.2202  2.7903
  275MOL0     H37905   5.281   9.489   2.019  2.0307  0.9103 -2.4980
  275MOL0     H37906   5.316   9.325   2.187 -0.6113 -0.9036 -0.2707
  275MOL0     H37907   5.150   9.278   2.130  0.1760  0.5486 -0.6970
  275MOL0     H37908   5.245   9.160   2.340  2.8505 -0.4569  2.1839
  275MOL0     H37909   5.270   9.062   2.545  2.6765  0.1949 -0.8511
  275MOL0     H37910   5.289   8.892   2.571  0.3807 -1.1911 -1.4157
  275MOL0     H37911   5.132   8.954   2.509 -0.2634  3.8095  0.7151
  275MOL0     H37912   5.520   8.529   2.593 -0.0108 -0.5407  0.3450
  275MOL0     H37913   5.574   8.299   2.639  0.4163 -3.0940 -0.8815
  275MOL0     H37914   5.700   8.112   2.432  1.6913  0.4281  0.1891
  275MOL0     H37915   5.673   8.099   2.606  0.7967  0.2658 -0.3030
  275MOL0     H37916   5.783   7.904   2.513  0.4617 -0.5793  0.2754
  275MOL0     H37917   5.630   7.840   2.576  2.7464 -1.6919 -0.2185
  275MOL0     H37918   5.692   7.927   2.284 -1.8984  0.9650 -0.7100
  275MOL0     H37919   5.538   7.864   2.335 -0.1845 -0.9219  4.0661
  275MOL0     H37920   5.673   7.643   2.412 -0.0576 -0.3462  0.0015
  275MOL0     H37921   5.809   7.725   2.345  0.6253 -1.1670  0.2013
  275MOL0     H37922   5.714   7.728   2.133  2.6684 -0.8540  1.7402
  275MOL0     H37923   5.719   7.563   2.196  1.8209  1.0522 -0.9545
  275MOL0     H37924   5.444   7.696   2.197 -1.6742 -1.5195 -0.6177
  275MOL0     H37925   5.487   7.540   2.248 -3.8088  0.4583 -0.6750
  275MOL0     H37926   5.420   7.493   2.047  1.4946 -1.4012  0.6792
  275MOL0     H37927   5.579   7.515   1.995 -2.7122 -1.7190 -2.8538
  275MOL0     H37928   5.524   7.764   1.931  1.0016 -0.7223 -2.2043
  275MOL0     H37929   5.360   7.736   1.996 -1.2110 -3.1943  0.6787
  275MOL0     H37930   5.459   8.173   2.268  5.6841 -0.5341  1.3615
  275MOL0     H37931   5.405   8.418   2.189  2.1124 -1.1329 -0.0231
  275MOL0     H37932   5.406   8.736   2.114 -0.2550  0.7407 -2.7793
  275MOL0     H37933   5.405   8.946   1.994  1.1181  2.4869  0.7428
  275MOL0     H37934   4.831   8.779   0.721  1.2248  1.6489  0.8927
  275MOL0     H37935   4.893   8.594   0.566  0.6064 -1.0062  1.4772
  275MOL0     H37936   5.205   8.269   0.534 -0.4353  0.0858  0.4219
  275MOL0     H37937   5.106   8.055   0.510  2.0922  1.6464  0.8027
  275MOL0     H37938   5.049   7.862   0.423  3.3702 -0.8397 -0.0282
  275MOL0     H37939   4.949   7.762   0.338  4.7701 -1.9080  2.9898
  275MOL0     H37940   5.168   7.728   0.275 -3.6975 -0.4109  3.1763
  275MOL0     H37941   5.211   7.899   0.249  0.1595  0.8691 -1.1660
  275MOL0     H37942   5.008   7.768   0.076 -1.1178 -0.4723  2.3786
  275MOL0     H37943   5.102   7.934   0.064  2.4311 -0.6305  0.3597
  275MOL0     H37944   5.308   7.812   0.015  2.4645 -4.2467 -1.4270
  275MOL0     H37945   5.196   7.768  -0.104  1.1478  0.5691 -0.2063
  275MOL0     H37946   5.306   7.400   0.003  0.7863  1.2701 -1.5290
  275MOL0     H37947   4.932   8.169   0.137  1.6227 -0.4086 -2.2218
  275MOL0     H37948   4.887   8.380   0.111 -0.2845 -0.9548  1.6269
  275MOL0     H37949   4.922   8.513   0.212  0.5546 -0.3592  0.0533
  275MOL0     H37950   5.037   8.466   0.089 -0.5798  3.8727  0.9137
  276MOL0     O37951  10.207   2.451   3.623 -0.4110  0.0934 -1.1733
  276MOL0     C37952  10.282   2.496   3.713  1.1341 -0.4676 -0.5421
  276MOL0     O37953  10.245   2.599   3.795 -0.4885  0.4513 -0.8674
  276MOL0     C37954  10.131   2.664   3.777  0.2377  1.2899  0.4272
  276MOL0     C37955  10.019   2.628   3.848  0.7025 -0.0602  0.3970
  276MOL0     C37956   9.900   2.700   3.824  0.3747  0.3232 -0.3726
  276MOL0     C37957   9.898   2.817   3.733 -0.5731  0.3808  0.9721
  276MOL0     O37958   9.784   2.898   3.740  0.2660 -0.4144 -0.2830
  276MOL0     C37959   9.762   2.980   3.619 -0.4257  0.0364  0.1427
  276MOL0     C37960   9.708   2.895   3.501 -0.1056  0.0317  0.5361
  276MOL0     C37961   9.583   2.806   3.536 -0.0090  0.4436 -0.1848
  276MOL0     C37962   9.511   2.749   3.418  0.1812  0.4743  0.3864
  276MOL0     C37963   9.388   2.668   3.468  0.2019  0.6759  0.8187
  276MOL0     C37964   9.289   2.637   3.353 -0.0596 -0.3883 -0.5469
  276MOL0     C37965   9.191   2.519   3.378  0.6466 -0.8929  0.1150
  276MOL0     C37966   9.096   2.544   3.491 -0.1532  0.3239  0.0801
  276MOL0     N37967   8.990   2.649   3.504  0.3112  0.4927 -0.1617
  276MOL0     C37968   8.879   2.653   3.426 -0.2911 -0.0006 -0.6441
  276MOL0     C37969   8.820   2.772   3.451 -0.1132  0.6857 -0.5146
  276MOL0     C37970   8.700   2.843   3.382  0.6130 -0.1546 -0.3080
  276MOL0     C37971   8.579   2.876   3.467 -1.0855  0.1967  0.2851
  276MOL0     C37972   8.552   2.762   3.562 -1.1707  0.5504  0.2311
  276MOL0     C37973   8.435   2.799   3.647  0.5216 -0.1353 -0.2064
  276MOL0     O37974   8.405   2.695   3.737  0.9846  0.8387  0.7741
  276MOL0     C37975   8.309   2.709   3.834  0.0749 -1.0204  0.0093
  276MOL0     C37976   8.306   2.606   3.925  0.9069  0.1889  0.4521
  276MOL0     C37977   8.217   2.613   4.034  0.1703 -0.2162 -0.6444
  276MOL0     C37978   8.236   2.491   4.121 -0.1872 -0.4106  0.8111
  276MOL0     C37979   8.138   2.737   4.057 -0.2305 -0.6053 -0.4186
  276MOL0     C37980   8.081   2.782   4.194 -1.0712  0.7918  0.5404
  276MOL0     O37981   8.014   2.897   4.191  0.0695  0.5478 -0.4938
  276MOL0     C37982   7.974   2.956   4.312 -0.5284  1.2124  0.5465
  276MOL0     C37983   7.988   2.923   4.453  0.4189 -0.7034  0.1180
  276MOL0     C37984   7.935   3.001   4.550  0.6529 -0.0127  0.1245
  276MOL0     C37985   7.866   3.113   4.524  0.2540  0.3748 -0.1827
  276MOL0     O37986   7.820   3.190   4.638  1.1489 -0.0350 -0.3042
  276MOL0     C37987   7.731   3.297   4.604 -0.7050  0.2825  0.4363
  276MOL0     C37988   7.646   3.339   4.724 -0.3696 -0.4759  0.5525
  276MOL0     C37989   7.559   3.229   4.794 -0.4629  0.2284  0.0422
  276MOL0     C37990   7.486   3.137   4.692  0.4174 -0.6798  0.3429
  276MOL0     C37991   7.376   3.049   4.758  0.2492 -0.8761  0.0444
  276MOL0     C37992   7.312   2.949   4.651  0.0397 -1.0220  0.4769
  276MOL0     C37993   7.406   2.868   4.566 -0.8068  0.3702 -0.4156
  276MOL0     C37994   7.338   2.753   4.485  0.8718 -0.4651  0.1011
  276MOL0    Cl37995   7.239   2.826   4.367  0.6403  0.1159  0.1537
  276MOL0     C37996   7.850   3.147   4.385 -0.0331 -0.6181 -0.3775
  276MOL0     C37997   7.905   3.066   4.289  0.7907 -0.7101  0.2600
  276MOL0     O37998   8.088   2.698   4.282 -0.1747  0.2001  0.2124
  276MOL0     C37999   8.137   2.831   3.954  0.1430 -1.3261 -0.4808
  276MOL0     C38000   8.213   2.812   3.841  0.0208  0.0311  0.5331
  276MOL0     N38001   8.887   2.821   3.561  0.0014 -0.8660 -0.5186
  276MOL0     N38002   8.994   2.749   3.592 -0.4978  0.0855 -0.1828
  276MOL0     C38003  10.011   2.840   3.646  0.9935  0.0158  0.8674
  276MOL0     C38004  10.117   2.761   3.667 -0.3576 -0.0882 -0.5316
  276MOL0     C38005  10.403   2.422   3.752 -0.1282 -1.0198  0.3768
  276MOL0     C38006  10.477   2.472   3.864  0.4549 -0.0277 -0.5545
  276MOL0     C38007  10.610   2.433   3.904 -0.0650  0.1332  0.5047
  276MOL0     C38008  10.663   2.320   3.843  0.0203 -0.4137  0.2936
  276MOL0     O38009  10.772   2.261   3.893 -0.5940 -0.0742  0.2593
  276MOL0     C38010  10.868   2.335   3.977  0.6937  0.1647 -0.2836
  276MOL0     C38011  10.992   2.237   3.975 -0.3139  0.2901 -0.5327
  276MOL0     C38012  11.027   2.175   3.835 -0.8695  0.1422  0.7420
  276MOL0     C38013  11.172   2.134   3.831  0.0018  0.2563 -0.4887
  276MOL0     C38014  11.291   2.220   3.869  0.0587  0.3815  0.0327
  276MOL0     C38015  11.384   2.289   3.888 -0.9305  0.5319 -0.5441
  276MOL0     C38016  10.590   2.264   3.737 -0.4033  0.1997 -0.1234
  276MOL0     C38017  10.468   2.318   3.681 -0.0837 -0.5570 -0.9814
  276MOL0     C38018  10.413   2.260   3.552  0.6894  0.0464 -0.0235
  276MOL0     H38019  10.009   2.557   3.929 -1.4645 -0.7277 -0.4056
  276MOL0     H38020   9.808   2.686   3.879  0.8429  1.2565  0.6779
  276MOL0     H38021   9.856   3.024   3.585  0.9537 -3.8551 -1.6271
  276MOL0     H38022   9.683   3.052   3.644 -0.7376 -1.2061  3.1748
  276MOL0     H38023   9.687   2.962   3.418  3.1110  1.3819  0.6689
  276MOL0     H38024   9.785   2.822   3.474 -1.4926 -0.5747 -2.0784
  276MOL0     H38025   9.610   2.735   3.615  0.4572  3.1776  2.2818
  276MOL0     H38026   9.512   2.872   3.587 -0.8983  1.0631 -2.1607
  276MOL0     H38027   9.484   2.829   3.349  0.3487 -0.7828 -1.1918
  276MOL0     H38028   9.579   2.686   3.360 -0.4220 -0.3299  0.5400
  276MOL0     H38029   9.338   2.715   3.552 -3.7200  0.5009 -1.1828
  276MOL0     H38030   9.423   2.567   3.495 -0.9038  0.9092  3.3517
  276MOL0     H38031   9.228   2.726   3.335  2.8202  1.0612 -4.7404
  276MOL0     H38032   9.335   2.635   3.254 -0.4239  2.0647 -0.8340
  276MOL0     H38033   9.256   2.432   3.393 -3.0785 -3.7774  1.3555
  276MOL0     H38034   9.131   2.506   3.287  1.0287  1.3903 -0.5051
  276MOL0     H38035   9.041   2.450   3.483 -0.7847  0.8053 -1.5880
  276MOL0     H38036   9.146   2.547   3.588 -2.2296  0.1422  1.2272
  276MOL0     H38037   8.838   2.574   3.365  2.1071  0.0001 -2.4049
  276MOL0     H38038   8.657   2.766   3.317 -1.2215  0.6171 -0.0827
  276MOL0     H38039   8.745   2.933   3.340  1.1023  0.4693  1.4469
  276MOL0     H38040   8.598   2.971   3.518 -1.6050  0.5998 -0.2574
  276MOL0     H38041   8.494   2.906   3.405 -1.8003 -0.1143  1.0773
  276MOL0     H38042   8.545   2.667   3.509 -0.1963  2.0652 -2.8818
  276MOL0     H38043   8.634   2.736   3.629  1.2151  2.4502 -1.7414
  276MOL0     H38044   8.452   2.891   3.704 -1.0689  0.8534 -1.2625
  276MOL0     H38045   8.349   2.823   3.584 -1.5045 -2.4049  1.5041
  276MOL0     H38046   8.380   2.531   3.898 -0.3680 -1.3253  1.0081
  276MOL0     H38047   8.157   2.467   4.194 -1.7505 -0.1467 -0.7330
  276MOL0     H38048   8.330   2.491   4.177 -1.1269  1.2261  2.5011
  276MOL0     H38049   8.234   2.404   4.055 -0.7508  0.5633 -0.4984
  276MOL0     H38050   8.053   2.846   4.494 -0.6700 -2.0672 -0.6181
  276MOL0     H38051   7.952   2.979   4.655  1.7518  0.6677  0.1074
  276MOL0     H38052   7.784   3.381   4.558 -0.7903 -0.3167 -0.8050
  276MOL0     H38053   7.655   3.263   4.533 -1.0082 -1.9653  1.7528
  276MOL0     H38054   7.702   3.401   4.795 -2.7704 -1.1492  3.2105
  276MOL0     H38055   7.570   3.406   4.684 -1.2168 -0.2247  2.4929
  276MOL0     H38056   7.493   3.283   4.862 -0.0049  3.4734 -1.8541
  276MOL0     H38057   7.625   3.164   4.852  1.0437  1.8609  0.2444
  276MOL0     H38058   7.554   3.063   4.649  1.6540 -1.2625  3.0666
  276MOL0     H38059   7.451   3.201   4.611  1.6109 -0.4284  0.0009
  276MOL0     H38060   7.420   2.994   4.842 -0.8959 -0.4395  0.9704
  276MOL0     H38061   7.308   3.121   4.805 -1.4944 -1.7640 -1.0087
  276MOL0     H38062   7.257   3.018   4.587  0.7814 -1.7121 -0.9610
  276MOL0     H38063   7.236   2.892   4.706 -2.8494  0.7742 -1.4123
  276MOL0     H38064   7.474   2.819   4.636 -1.2119 -3.0938 -2.2086
  276MOL0     H38065   7.456   2.922   4.486  1.7624 -1.1916  0.0201
  276MOL0     H38066   7.283   2.698   4.563  1.2503  1.5003  1.8501
  276MOL0     H38067   7.406   2.681   4.439 -1.3720 -2.1149 -0.8352
  276MOL0     H38068   7.795   3.239   4.364  1.6553  0.6883  0.6721
  276MOL0     H38069   7.867   3.086   4.190  0.9207  3.2760  0.8672
  276MOL0     H38070   8.077   2.921   3.954 -1.7350 -2.4972  0.4487
  276MOL0     H38071   8.210   2.879   3.756 -0.5430 -0.8566 -0.1570
  276MOL0     H38072  10.029   2.915   3.570  1.8404  0.7367  1.7445
  276MOL0     H38073  10.199   2.783   3.600  0.4573  0.6263  0.6589
  276MOL0     H38074  10.443   2.557   3.923  0.5078 -1.3717  1.4815
  276MOL0     H38075  10.641   2.483   3.995  2.6457 -1.6496  0.6689
  276MOL0     H38076  10.899   2.434   3.943  2.7362  0.9638  3.4435
  276MOL0     H38077  10.831   2.343   4.079 -1.5644 -0.3755 -1.0134
  276MOL0     H38078  10.971   2.161   4.052 -0.8778  2.1336  1.2176
  276MOL0     H38079  11.073   2.300   4.010  0.9798 -0.3813 -2.1734
  276MOL0     H38080  10.953   2.102   3.801 -2.6800  2.1953  0.0655
  276MOL0     H38081  11.027   2.260   3.766 -2.9096  0.5275  1.1583
  276MOL0     H38082  11.179   2.125   3.722 -3.3804 -1.8286 -0.6785
  276MOL0     H38083  11.184   2.037   3.881  1.7664  0.0848 -1.1968
  276MOL0     H38084  11.466   2.359   3.883 -0.9467  0.6900  0.9084
  276MOL0     H38085  10.641   2.176   3.699  0.6830  0.4563  0.6668
  276MOL0     H38086  10.380   2.342   3.488  1.7734  1.1716  0.8193
  276MOL0     H38087  10.493   2.206   3.500 -0.1346 -1.0738 -0.1795
  276MOL0     H38088  10.329   2.192   3.564  1.6104 -0.9706  0.9049
  277MOL0     O38089   6.061   2.677   7.357  0.3726 -0.1477  0.3160
  277MOL0     C38090   6.119   2.574   7.379  0.5484 -0.1229 -0.8656
  277MOL0     O38091   6.240   2.549   7.345  0.4908  0.1038  0.4773
  277MOL0     C38092   6.333   2.656   7.357  0.5754 -0.7025 -0.0245
  277MOL0     C38093   6.327   2.755   7.249 -0.5116  1.0433 -0.0482
  277MOL0     C38094   6.421   2.849   7.234 -0.2601 -0.3849 -0.2103
  277MOL0     C38095   6.516   2.873   7.332 -0.2789  0.1320 -0.5679
  277MOL0     O38096   6.596   2.984   7.318 -0.0011  0.5141 -0.0988
  277MOL0     C38097   6.633   3.040   7.449 -0.1738 -0.9723  0.0622
  277MOL0     C38098   6.668   3.185   7.435 -0.1586  0.3548  0.8302
  277MOL0     C38099   6.553   3.275   7.393  0.0429  0.5231 -0.0189
  277MOL0     C38100   6.592   3.391   7.306  0.2801  0.4828  0.2229
  277MOL0     C38101   6.490   3.511   7.300  0.2404  0.4827 -0.0553
  277MOL0     C38102   6.380   3.471   7.212  0.2207 -0.8420 -0.3517
  277MOL0     C38103   6.280   3.581   7.181 -0.3432  0.3119  0.3774
  277MOL0     C38104   6.181   3.550   7.068  0.6584  0.2631  0.2138
  277MOL0     N38105   6.247   3.556   6.939 -0.4317  0.0097  0.7240
  277MOL0     C38106   6.245   3.668   6.857 -1.1586 -0.5737  0.2618
  277MOL0     C38107   6.315   3.627   6.738 -0.1042  0.2557 -0.4197
  277MOL0     C38108   6.312   3.721   6.618  0.3378  0.0755 -0.3139
  277MOL0     C38109   6.184   3.709   6.545 -0.3345  0.4357  0.6697
  277MOL0     C38110   6.170   3.599   6.445  0.3281  0.0447 -0.7364
  277MOL0     C38111   6.260   3.605   6.321  0.3579 -0.7037 -0.2250
  277MOL0     O38112   6.236   3.493   6.229 -0.4933  0.5480 -0.2985
  277MOL0     C38113   6.298   3.374   6.282  0.2143  0.2001  0.0439
  277MOL0     C38114   6.405   3.355   6.386 -0.0302 -0.9421 -0.0878
  277MOL0     C38115   6.462   3.228   6.418  0.6525  0.4212 -0.9490
  277MOL0     C38116   6.538   3.232   6.544 -0.5427  0.3071  0.8980
  277MOL0     C38117   6.421   3.103   6.359  0.2167 -0.1416 -0.5815
  277MOL0     C38118   6.478   2.965   6.382  0.3215  0.0983 -0.0930
  277MOL0     O38119   6.517   2.929   6.508  0.0054 -0.6848  0.4103
  277MOL0     C38120   6.600   2.819   6.526  0.8958  0.2136  0.6198
  277MOL0     C38121   6.734   2.828   6.515 -0.6715 -0.3266 -0.5252
  277MOL0     C38122   6.826   2.726   6.557 -0.1754  0.8763 -0.7173
  277MOL0     C38123   6.771   2.618   6.622 -0.8583 -0.2699 -0.4341
  277MOL0     O38124   6.834   2.512   6.677 -0.2552  0.5906  0.3246
  277MOL0     C38125   6.962   2.550   6.728  0.4313 -0.3878 -0.2909
  277MOL0     C38126   7.017   2.430   6.796 -0.6537 -0.5934  0.3633
  277MOL0     C38127   7.166   2.441   6.826 -0.8631  0.6144 -0.0413
  277MOL0     C38128   7.237   2.325   6.891 -0.1860  0.6077 -1.0037
  277MOL0     C38129   7.373   2.355   6.946 -1.0189  0.4410  0.0785
  277MOL0     C38130   7.417   2.228   7.011  0.0190  0.6166 -0.6543
  277MOL0     C38131   7.536   2.232   7.113 -0.8373  0.8923 -0.1658
  277MOL0     C38132   7.663   2.289   7.044 -0.6586  0.2756  0.0662
  277MOL0    Cl38133   7.802   2.277   7.154  0.7214  0.0652 -0.1055
  277MOL0     C38134   6.622   2.605   6.620 -0.6143 -0.5926 -0.3323
  277MOL0     C38135   6.541   2.710   6.574 -0.2502  0.2909  0.9094
  277MOL0     O38136   6.481   2.889   6.281 -0.2158  0.0874 -0.0683
  277MOL0     C38137   6.322   3.123   6.260 -0.5043  0.5455 -0.1629
  277MOL0     C38138   6.264   3.250   6.223 -1.4158  0.2245  0.5923
  277MOL0     N38139   6.364   3.500   6.759  0.4884  0.4075 -0.0044
  277MOL0     N38140   6.323   3.464   6.882 -0.1595  0.2787  0.0974
  277MOL0     C38141   6.530   2.776   7.440  0.0165 -0.9787  0.1798
  277MOL0     C38142   6.439   2.668   7.453  0.1828 -0.6976 -0.1223
  277MOL0     C38143   6.050   2.468   7.440 -0.7072 -0.2624 -0.8756
  277MOL0     C38144   5.975   2.376   7.361  0.5835 -0.3397 -0.6296
  277MOL0     C38145   5.889   2.282   7.415  0.0390 -0.2180  0.2997
  277MOL0     C38146   5.868   2.281   7.555  0.1146  0.6428  0.7856
  277MOL0     O38147   5.781   2.180   7.598  0.9450 -0.0278  0.0038
  277MOL0     C38148   5.735   2.154   7.732 -0.1160  0.5832 -0.6222
  277MOL0     C38149   5.644   2.039   7.761  0.3300 -0.1519  0.2312
  277MOL0     C38150   5.739   1.918   7.796 -0.2852  0.1882  0.2398
  277MOL0     C38151   5.650   1.799   7.849  0.6277  0.2544  0.1922
  277MOL0     C38152   5.561   1.734   7.758  0.8383  0.6275  0.1296
  277MOL0     C38153   5.490   1.693   7.677  0.1094 -1.2759  0.5827
  277MOL0     C38154   5.948   2.362   7.638 -0.7350 -0.8908  0.0732
  277MOL0     C38155   6.031   2.469   7.583  0.9040  0.6102 -0.8741
  277MOL0     C38156   6.107   2.565   7.676  0.2030  0.1764 -0.2616
  277MOL0     H38157   6.260   2.739   7.166  3.3512 -0.4955 -3.2124
  277MOL0     H38158   6.410   2.923   7.155  2.5816  0.5505  0.1544
  277MOL0     H38159   6.723   2.998   7.493  2.2072  2.4489 -1.1054
  277MOL0     H38160   6.547   3.033   7.518 -1.1239  1.2128 -0.7834
  277MOL0     H38161   6.728   3.216   7.521  0.9816 -2.2581  1.0600
  277MOL0     H38162   6.747   3.178   7.360  2.0111 -2.7350  3.1562
  277MOL0     H38163   6.471   3.219   7.347 -1.6651  1.8715  1.2628
  277MOL0     H38164   6.512   3.320   7.484 -1.2632  0.9848 -0.8103
  277MOL0     H38165   6.686   3.438   7.337  0.9872  0.2334 -1.4282
  277MOL0     H38166   6.609   3.368   7.200 -1.3572  1.4224 -0.2795
  277MOL0     H38167   6.542   3.597   7.256 -0.8666  0.1665 -2.1153
  277MOL0     H38168   6.465   3.539   7.403  1.5114  4.4292 -0.6555
  277MOL0     H38169   6.431   3.448   7.118  0.2089  0.2729 -0.6417
  277MOL0     H38170   6.328   3.384   7.255 -1.2476  0.1029 -0.1407
  277MOL0     H38171   6.336   3.670   7.149 -1.5641  0.4634 -1.4858
  277MOL0     H38172   6.224   3.603   7.273  1.9550  1.3559  1.6155
  277MOL0     H38173   6.141   3.451   7.093  1.0527 -0.1726 -0.8114
  277MOL0     H38174   6.107   3.628   7.084 -2.2593 -2.5267  1.4145
  277MOL0     H38175   6.193   3.761   6.879  0.1513  0.4748 -0.8289
  277MOL0     H38176   6.409   3.711   6.570  0.9983 -0.2011  1.0453
  277MOL0     H38177   6.314   3.825   6.652 -0.5521 -0.5784  1.9346
  277MOL0     H38178   6.100   3.686   6.610  0.0111 -3.7322 -0.0638
  277MOL0     H38179   6.159   3.803   6.494  3.8864 -0.2322 -3.3388
  277MOL0     H38180   6.179   3.507   6.502  2.7923 -0.7307 -2.2386
  277MOL0     H38181   6.073   3.597   6.394  0.2821 -0.3492 -0.6312
  277MOL0     H38182   6.246   3.704   6.277  0.0441 -0.6185  0.0703
  277MOL0     H38183   6.367   3.590   6.339  0.0638 -4.6613 -0.9026
  277MOL0     H38184   6.444   3.434   6.449  3.3456 -3.8192  1.7525
  277MOL0     H38185   6.472   3.234   6.631 -1.7225 -0.9205  0.0762
  277MOL0     H38186   6.590   3.327   6.560 -1.2680  0.7550  0.6280
  277MOL0     H38187   6.608   3.149   6.558  1.1552  1.3734 -0.6210
  277MOL0     H38188   6.780   2.917   6.473 -1.4280  0.5120  0.3733
  277MOL0     H38189   6.935   2.727   6.554 -0.1753  0.5005 -0.8670
  277MOL0     H38190   7.034   2.569   6.648  2.5732  3.4832  2.1758
  277MOL0     H38191   6.951   2.633   6.799  0.2598  0.1201 -0.9035
  277MOL0     H38192   6.972   2.443   6.895  1.3747  1.2867  1.1300
  277MOL0     H38193   6.993   2.342   6.736 -2.0354 -0.7867  1.1503
  277MOL0     H38194   7.176   2.525   6.895 -2.8601  0.0315  1.0054
  277MOL0     H38195   7.223   2.461   6.734 -1.4451  0.8720 -0.3489
  277MOL0     H38196   7.237   2.236   6.828 -0.1365 -2.4109  2.8616
  277MOL0     H38197   7.184   2.294   6.982  2.8766 -1.2553  0.3251
  277MOL0     H38198   7.442   2.395   6.871 -0.7902  1.4343  0.8059
  277MOL0     H38199   7.353   2.421   7.031  0.9579 -3.1860  3.7209
  277MOL0     H38200   7.432   2.154   6.932 -1.4441 -0.3769 -0.0327
  277MOL0     H38201   7.331   2.198   7.072  0.0832  1.8724  0.1140
  277MOL0     H38202   7.554   2.136   7.163 -0.9031  1.0985  0.2563
  277MOL0     H38203   7.515   2.293   7.201 -0.8218  0.5085  0.1068
  277MOL0     H38204   7.648   2.396   7.023 -5.0588  0.1051  1.2310
  277MOL0     H38205   7.686   2.241   6.948 -0.7928  2.2649 -1.0210
  277MOL0     H38206   6.560   2.529   6.667 -0.1987 -2.3562 -2.4951
  277MOL0     H38207   6.433   2.716   6.587  0.0381  1.1620  3.5474
  277MOL0     H38208   6.292   3.034   6.206  1.9513 -2.3571  2.8263
  277MOL0     H38209   6.191   3.259   6.143  0.9571  2.0056 -1.5303
  277MOL0     H38210   6.598   2.781   7.524 -1.9175  3.1859  1.7964
  277MOL0     H38211   6.438   2.603   7.539 -1.3303 -1.7469 -0.8697
  277MOL0     H38212   5.985   2.375   7.253  0.4355 -0.4862 -0.6415
  277MOL0     H38213   5.828   2.226   7.345  1.8470 -1.4382 -0.3630
  277MOL0     H38214   5.817   2.164   7.803 -0.7020 -0.3334  0.2157
  277MOL0     H38215   5.679   2.246   7.754 -1.7149 -0.0003 -1.9576
  277MOL0     H38216   5.568   2.023   7.684  0.1130  3.9048 -0.6223
  277MOL0     H38217   5.590   2.060   7.854  1.5419 -1.0989  1.2013
  277MOL0     H38218   5.786   1.880   7.705  2.2180 -2.0061  2.2623
  277MOL0     H38219   5.813   1.941   7.874 -1.4361 -0.7435  1.6516
  277MOL0     H38220   5.595   1.831   7.938 -1.0378 -0.0644 -0.6782
  277MOL0     H38221   5.715   1.717   7.881 -1.1918 -1.4506 -0.2975
  277MOL0     H38222   5.430   1.662   7.594  0.4047 -0.1724 -0.0604
  277MOL0     H38223   5.936   2.370   7.745  1.0431  0.7958  0.1978
  277MOL0     H38224   6.128   2.660   7.626  0.0985  1.0540  1.3214
  277MOL0     H38225   6.043   2.581   7.763  0.1421  2.4238 -0.6464
  277MOL0     H38226   6.202   2.523   7.711  0.2988  0.5659 -0.0502
  278MOL0     O38227   5.285   1.790   2.964  0.1456  0.1253 -0.5796
  278MOL0     C38228   5.194   1.711   2.966  0.3309 -0.2019 -0.9954
  278MOL0     O38229   5.091   1.709   2.875  0.4629  0.2930  0.5773
  278MOL0     C38230   5.098   1.793   2.760 -0.6431  0.3695  0.8838
  278MOL0     C38231   5.209   1.806   2.677 -0.1436  0.6912 -0.3806
  278MOL0     C38232   5.198   1.866   2.549  0.6169 -0.2978  0.3551
  278MOL0     C38233   5.076   1.915   2.501 -0.4987 -0.3534  0.0339
  278MOL0     O38234   5.063   1.965   2.371  0.3196  0.5638  0.6649
  278MOL0     C38235   5.180   1.985   2.281 -0.4971  0.8406  0.9240
  278MOL0     C38236   5.143   2.064   2.163  0.4742  0.5631 -0.3755
  278MOL0     C38237   5.262   2.072   2.059  0.0391 -0.2425 -0.1856
  278MOL0     C38238   5.196   2.118   1.936 -0.5445 -0.4219  0.2402
  278MOL0     C38239   5.310   2.136   1.838 -0.1306  0.5677 -0.2300
  278MOL0     C38240   5.250   2.164   1.696  0.1949  0.5716  0.1599
  278MOL0     C38241   5.352   2.192   1.578  0.4335  0.5508 -0.2824
  278MOL0     C38242   5.448   2.082   1.540  0.4786  0.1578 -1.0841
  278MOL0     N38243   5.489   2.111   1.408  0.4830  0.6224 -0.0284
  278MOL0     C38244   5.430   2.069   1.294  0.2653  0.1478 -0.8747
  278MOL0     C38245   5.473   2.140   1.191 -0.9995 -0.7107 -1.0312
  278MOL0     C38246   5.438   2.138   1.043 -0.1742 -0.0525  0.1168
  278MOL0     C38247   5.288   2.159   1.032  0.2922  0.5258 -0.5471
  278MOL0     C38248   5.237   2.176   0.890 -0.6579  0.1084  0.7706
  278MOL0     C38249   5.244   2.053   0.802  0.3129  0.3489  0.4805
  278MOL0     O38250   5.142   1.961   0.830  0.1856 -0.0861  0.5030
  278MOL0     C38251   5.162   1.836   0.774 -0.2275 -0.9329  1.6303
  278MOL0     C38252   5.095   1.795   0.660  0.2729  0.3008 -0.4532
  278MOL0     C38253   5.106   1.665   0.609 -0.3879 -0.0897  0.1252
  278MOL0     C38254   5.014   1.636   0.495 -0.2997  0.4047  0.0987
  278MOL0     C38255   5.189   1.574   0.679 -0.1958 -0.5863 -0.2686
  278MOL0     C38256   5.197   1.430   0.654 -0.1464  0.3359  1.2389
  278MOL0     O38257   5.305   1.361   0.687  0.2231  0.3012  0.0319
  278MOL0     C38258   5.302   1.223   0.697 -0.1609 -0.6248  0.4151
  278MOL0     C38259   5.305   1.139   0.584 -0.5234  0.6865  0.6316
  278MOL0     C38260   5.289   1.007   0.606  0.2116  0.6037  0.6001
  278MOL0     C38261   5.276   0.953   0.738  0.0170  0.9804  0.3531
  278MOL0     O38262   5.227   0.824   0.743  0.2000 -0.6835 -0.0779
  278MOL0     C38263   5.153   0.786   0.860 -1.1541  0.1671 -0.8100
  278MOL0     C38264   5.010   0.735   0.813 -0.1407  0.1897  0.5469
  278MOL0     C38265   5.006   0.593   0.743 -1.3342  0.3002  0.1540
  278MOL0     C38266   5.048   0.464   0.825 -0.9009 -0.2308  0.4580
  278MOL0     C38267   4.993   0.340   0.767 -0.1924 -0.5736  0.1784
  278MOL0     C38268   5.084   0.222   0.774  1.0872 -0.8307  0.5896
  278MOL0     C38269   5.028   0.097   0.700 -0.5215 -0.6930  0.0029
  278MOL0     C38270   5.115  -0.028   0.727 -0.5363  0.0568  0.6369
  278MOL0    Cl38271   5.026  -0.171   0.679 -0.4138  0.2711  0.2316
  278MOL0     C38272   5.294   1.036   0.846  0.4737 -0.6814  0.2727
  278MOL0     C38273   5.300   1.174   0.832  0.4609 -0.3723 -0.7706
  278MOL0     O38274   5.096   1.385   0.607  0.3757  0.1046 -0.4607
  278MOL0     C38275   5.262   1.624   0.791 -0.7542 -1.0268 -0.5176
  278MOL0     C38276   5.253   1.757   0.829 -0.4851  0.2283  0.6705
  278MOL0     N38277   5.559   2.237   1.243  0.6292  0.0656 -0.9635
  278MOL0     N38278   5.560   2.226   1.369 -0.2729  0.8256  1.0933
  278MOL0     C38279   4.964   1.918   2.591 -0.6717 -0.3333  0.8284
  278MOL0     C38280   4.982   1.856   2.716 -0.3236  0.6472  0.2790
  278MOL0     C38281   5.181   1.617   3.079  0.5319  0.4874  0.2303
  278MOL0     C38282   5.267   1.619   3.191  0.2188  0.0214 -0.0776
  278MOL0     C38283   5.267   1.525   3.294  0.0286 -1.0894  0.4179
  278MOL0     C38284   5.187   1.409   3.290 -0.1667 -0.0558 -0.0907
  278MOL0     O38285   5.204   1.312   3.385 -0.3923 -0.0494  0.3955
  278MOL0     C38286   5.090   1.240   3.430  1.0033  0.8194 -0.7959
  278MOL0     C38287   4.961   1.314   3.478  0.6973 -0.5983 -0.5880
  278MOL0     C38288   4.987   1.443   3.561 -0.2562 -0.9302 -0.1693
  278MOL0     C38289   4.894   1.564   3.525 -0.1623  0.8450 -0.2408
  278MOL0     C38290   4.906   1.622   3.391 -0.4381 -0.5461  0.0714
  278MOL0     C38291   4.894   1.682   3.285 -0.5412  0.0410 -0.0260
  278MOL0     C38292   5.109   1.398   3.173 -0.3245  0.2944  0.3350
  278MOL0     C38293   5.100   1.499   3.076  0.7590 -0.4659 -0.2322
  278MOL0     C38294   5.008   1.468   2.956  0.5035 -0.2568  0.7488
  278MOL0     H38295   5.300   1.752   2.699 -1.3249 -2.5869 -2.5358
  278MOL0     H38296   5.286   1.882   2.487 -2.1644  4.5662 -2.9689
  278MOL0     H38297   5.221   1.891   2.243 -3.7242  0.4786 -2.1718
  278MOL0     H38298   5.266   2.028   2.334  1.4823 -0.3188 -1.1550
  278MOL0     H38299   5.072   2.001   2.107  1.8202  0.2842 -1.8538
  278MOL0     H38300   5.102   2.161   2.191 -3.8472 -1.0899 -0.2277
  278MOL0     H38301   5.352   2.127   2.086 -2.4974  4.0674  0.5002
  278MOL0     H38302   5.302   1.972   2.040  0.6176  0.1600 -1.1973
  278MOL0     H38303   5.111   2.054   1.911 -0.3169 -0.8488  0.5648
  278MOL0     H38304   5.145   2.211   1.963 -0.2638 -0.1816 -0.0523
  278MOL0     H38305   5.372   2.046   1.830 -0.2777  0.2896  1.3251
  278MOL0     H38306   5.383   2.214   1.863 -1.3367  1.8946 -0.7363
  278MOL0     H38307   5.189   2.077   1.670  1.1352  0.7168 -3.0546
  278MOL0     H38308   5.188   2.253   1.710  3.1267  2.6100  1.1464
  278MOL0     H38309   5.409   2.282   1.603 -3.3626  2.4481  2.7550
  278MOL0     H38310   5.299   2.236   1.493  1.8818  1.8103 -0.5927
  278MOL0     H38311   5.539   2.073   1.600  2.3652 -0.4229 -3.8328
  278MOL0     H38312   5.395   1.987   1.550 -2.0430  1.6052  0.2295
  278MOL0     H38313   5.355   1.991   1.291 -2.5188  2.3984  2.3366
  278MOL0     H38314   5.462   2.036   1.008  2.3511  0.3055  0.5926
  278MOL0     H38315   5.489   2.209   0.978 -1.4591 -1.6318 -2.8338
  278MOL0     H38316   5.234   2.070   1.065  3.3497 -2.1465 -2.1706
  278MOL0     H38317   5.255   2.244   1.091  2.4991  0.9046  0.2304
  278MOL0     H38318   5.133   2.211   0.893 -0.1786  1.6985  0.2424
  278MOL0     H38319   5.309   2.253   0.860  1.0363 -1.2153  1.3386
  278MOL0     H38320   5.242   2.087   0.698  1.9193 -1.3737 -0.1759
  278MOL0     H38321   5.341   2.005   0.819  1.5221  2.5349  0.1355
  278MOL0     H38322   5.027   1.864   0.611  2.2435  2.2430 -0.6306
  278MOL0     H38323   5.059   1.585   0.409  1.1166 -0.8146  1.5017
  278MOL0     H38324   4.962   1.726   0.461  1.0202  1.2487  0.2482
  278MOL0     H38325   4.941   1.567   0.541 -1.6745  1.9884  0.3853
  278MOL0     H38326   5.314   1.189   0.488 -4.8700  0.4451 -0.1168
  278MOL0     H38327   5.252   0.949   0.522  0.8589 -0.6994  1.1842
  278MOL0     H38328   5.211   0.706   0.908  1.7416  1.9576 -1.0724
  278MOL0     H38329   5.132   0.868   0.929 -1.0352 -1.8475  1.8083
  278MOL0     H38330   4.955   0.713   0.905 -0.3431  1.1949  0.6770
  278MOL0     H38331   4.962   0.810   0.751 -0.7991 -1.2402 -0.7468
  278MOL0     H38332   5.083   0.596   0.666  0.2367 -1.1301  1.5762
  278MOL0     H38333   4.903   0.585   0.709 -0.7501 -0.7015 -1.4965
  278MOL0     H38334   5.013   0.483   0.927 -2.1896  0.0167 -0.0160
  278MOL0     H38335   5.158   0.464   0.828 -0.9127 -1.2600  2.6972
  278MOL0     H38336   4.900   0.318   0.819 -0.1144  2.2116  1.7112
  278MOL0     H38337   4.970   0.357   0.661 -0.7061 -2.6896 -0.0802
  278MOL0     H38338   5.095   0.208   0.882 -0.8476  1.9495  1.2395
  278MOL0     H38339   5.178   0.252   0.727 -0.0322  1.6203 -0.2545
  278MOL0     H38340   5.025   0.120   0.593 -5.9542  2.1718  0.4043
  278MOL0     H38341   4.924   0.086   0.729 -1.0145  1.5482 -0.6832
  278MOL0     H38342   5.173  -0.031   0.819 -0.5380  1.1587  0.6838
  278MOL0     H38343   5.190  -0.021   0.648 -1.2242  0.9878  0.0463
  278MOL0     H38344   5.283   0.986   0.942 -1.8641 -1.5087 -0.3606
  278MOL0     H38345   5.303   1.237   0.921  1.7457 -2.5804  0.8515
  278MOL0     H38346   5.318   1.561   0.860  1.1874  1.2546  0.1559
  278MOL0     H38347   5.294   1.779   0.927 -2.2725  0.6588  1.3441
  278MOL0     H38348   4.876   1.978   2.569  1.6301  2.8147 -0.5610
  278MOL0     H38349   4.898   1.843   2.784 -0.8342 -2.4776 -0.7769
  278MOL0     H38350   5.342   1.697   3.195  1.9575 -1.4011  6.2675
  278MOL0     H38351   5.341   1.528   3.374  2.5064  1.1693 -1.7574
  278MOL0     H38352   5.067   1.161   3.359 -0.7621  1.6610 -1.2310
  278MOL0     H38353   5.124   1.190   3.521  0.4180 -2.0835 -2.0516
  278MOL0     H38354   4.902   1.242   3.535  1.0624 -1.3359 -1.1208
  278MOL0     H38355   4.902   1.330   3.388  1.4933 -0.5369 -1.1102
  278MOL0     H38356   4.965   1.416   3.664 -2.8389  1.3380 -0.0182
  278MOL0     H38357   5.094   1.461   3.554  0.1385 -1.7808  2.5344
  278MOL0     H38358   4.907   1.638   3.605 -2.2475 -1.0136  1.9473
  278MOL0     H38359   4.792   1.532   3.546  0.1877  0.4796  0.9471
  278MOL0     H38360   4.893   1.753   3.206  1.7318  0.8960  0.6323
  278MOL0     H38361   5.049   1.308   3.170  3.2679 -2.5440  3.5894
  278MOL0     H38362   5.068   1.480   2.865 -0.8661 -2.2079 -0.4961
  278MOL0     H38363   4.970   1.365   2.958  2.0406 -0.9979 -1.8827
  278MOL0     H38364   4.917   1.528   2.948 -0.2503 -1.5946 -2.0250
  279MOL0     O38365   8.128  10.956   2.403  0.8948  0.5280 -0.5498
  279MOL0     C38366   8.123  10.903   2.512 -0.7257 -0.9490 -0.4407
  279MOL0     O38367   8.176  10.966   2.628 -0.5302  0.7522  0.3709
  279MOL0     C38368   8.263  11.077   2.611  0.5309  0.1012 -0.3209
  279MOL0     C38369   8.226  11.195   2.549  0.1864 -0.1670 -0.1898
  279MOL0     C38370   8.302  11.309   2.548  0.7419  0.3585 -0.1792
  279MOL0     C38371   8.425  11.311   2.608 -0.2847 -0.0914 -0.0371
  279MOL0     O38372   8.495  11.428   2.605 -0.0158 -0.3599 -0.3857
  279MOL0     C38373   8.634  11.415   2.574 -0.5786  0.2049  0.5052
  279MOL0     C38374   8.716  11.539   2.575  0.3136 -0.2512 -0.1343
  279MOL0     C38375   8.666  11.648   2.477  0.4169 -0.0292 -0.0022
  279MOL0     C38376   8.687  11.621   2.335 -0.0362 -0.9863  0.6635
  279MOL0     C38377   8.633  11.739   2.242 -0.0756  0.7455 -0.4681
  279MOL0     C38378   8.703  11.874   2.244 -0.3159 -0.4642 -1.1244
  279MOL0     C38379   8.612  11.974   2.173  0.4810  0.7006  0.0562
  279MOL0     C38380   8.663  12.116   2.175 -0.0050  0.5175  0.0524
  279MOL0     N38381   8.646  12.167   2.314  0.0054  0.6221  0.0551
  279MOL0     C38382   8.535  12.227   2.364 -0.5395  0.1197 -0.5084
  279MOL0     C38383   8.576  12.291   2.474 -0.0514  0.0695  0.7034
  279MOL0     C38384   8.479  12.322   2.582 -0.2803  0.1799 -0.6906
  279MOL0     C38385   8.496  12.461   2.627 -0.0482  0.8009 -0.7243
  279MOL0     C38386   8.353  12.533   2.646  0.5790  0.2331  0.0467
  279MOL0     C38387   8.368  12.684   2.656 -0.6479  0.0639  0.5078
  279MOL0     O38388   8.369  12.749   2.783  0.6052 -0.0811  0.4113
  279MOL0     C38389   8.250  12.753   2.846 -0.1223 -0.0578 -0.9967
  279MOL0     C38390   8.130  12.713   2.793  0.1639 -0.1449  0.6690
  279MOL0     C38391   8.008  12.730   2.851 -0.8054  0.2189 -0.6384
  279MOL0     C38392   7.888  12.676   2.781  0.4444  0.4238 -0.1503
  279MOL0     C38393   8.000  12.760   2.990 -0.2502  0.3792  0.6478
  279MOL0     C38394   7.878  12.772   3.068 -0.1966 -0.3726 -0.7616
  279MOL0     O38395   7.767  12.710   3.019  0.0457 -0.0325 -0.0221
  279MOL0     C38396   7.640  12.716   3.083  0.7280 -0.3724  1.2083
  279MOL0     C38397   7.552  12.612   3.044 -0.0344  0.1244 -0.2324
  279MOL0     C38398   7.421  12.596   3.085 -0.3540  0.3276  0.4703
  279MOL0     C38399   7.373  12.692   3.176 -0.0275  0.8201 -1.1328
  279MOL0     O38400   7.247  12.683   3.225 -0.3606 -0.1848 -0.6984
  279MOL0     C38401   7.232  12.622   3.356 -0.1774  0.2284  0.5777
  279MOL0     C38402   7.199  12.731   3.457  0.4242  0.7397 -0.1185
  279MOL0     C38403   7.249  12.685   3.598  1.0775  0.0848 -0.6508
  279MOL0     C38404   7.156  12.578   3.668  0.0878 -0.1678  0.3392
  279MOL0     C38405   7.219  12.502   3.779  0.2247  0.1043 -0.0762
  279MOL0     C38406   7.134  12.367   3.810  0.0187  0.1570 -0.3544
  279MOL0     C38407   6.985  12.390   3.836 -0.0742 -0.1962  0.0034
  279MOL0     C38408   6.906  12.353   3.710 -0.7858  0.2479  0.4013
  279MOL0    Cl38409   6.735  12.370   3.765  0.6168  0.0305  0.7286
  279MOL0     C38410   7.456  12.799   3.209  0.6070  0.1870 -0.8814
  279MOL0     C38411   7.582  12.809   3.166  0.1047  0.3091 -0.9231
  279MOL0     O38412   7.887  12.829   3.176 -0.3215 -1.1350 -0.2281
  279MOL0     C38413   8.125  12.800   3.044  0.7409  0.2197 -0.1265
  279MOL0     C38414   8.249  12.798   2.977 -0.2417  0.3011  0.8869
  279MOL0     N38415   8.711  12.261   2.493  0.1809 -0.3418 -0.3056
  279MOL0     N38416   8.754  12.183   2.396  0.5520  0.4181 -0.0715
  279MOL0     C38417   8.465  11.189   2.670  0.2389  0.3026  0.5017
  279MOL0     C38418   8.389  11.070   2.664 -0.1762 -0.9558 -0.3802
  279MOL0     C38419   8.038  10.783   2.522 -0.0745 -1.4950 -1.4941
  279MOL0     C38420   7.973  10.763   2.647  1.3047 -0.1607  0.7113
  279MOL0     C38421   7.879  10.668   2.677 -0.1517  0.2779  0.2010
  279MOL0     C38422   7.841  10.589   2.573 -0.4847 -0.1125 -0.7265
  279MOL0     O38423   7.741  10.508   2.606  0.3178 -0.3425  0.3994
  279MOL0     C38424   7.702  10.395   2.529 -0.8474  0.5140  0.4156
  279MOL0     C38425   7.808  10.284   2.561  0.2793  0.6522 -0.7870
  279MOL0     C38426   7.794  10.168   2.465 -0.3869  1.1247  0.4053
  279MOL0     C38427   7.898  10.052   2.484  0.4411  0.6742  0.8779
  279MOL0     C38428   7.852   9.959   2.583 -0.4588 -0.1621  0.1159
  279MOL0     C38429   7.830   9.889   2.678  0.4881  0.3651 -0.2613
  279MOL0     C38430   7.893  10.602   2.440 -0.8110  0.3693  0.4673
  279MOL0     C38431   8.002  10.692   2.420 -0.3056  0.2271  0.4950
  279MOL0     C38432   8.056  10.708   2.282  0.2438  0.7640 -0.3608
  279MOL0     H38433   8.130  11.187   2.499 -0.7756 -3.7117  1.8897
  279MOL0     H38434   8.262  11.394   2.493 -0.3471 -1.3377 -2.1254
  279MOL0     H38435   8.656  11.356   2.484  3.1212  1.5686  0.3276
  279MOL0     H38436   8.681  11.353   2.651 -0.5659  0.4986  0.7345
  279MOL0     H38437   8.710  11.578   2.677  1.4237 -1.9330  0.6082
  279MOL0     H38438   8.821  11.517   2.556  1.4656  2.4827  2.3555
  279MOL0     H38439   8.559  11.663   2.492  0.0924 -2.2699  0.3081
  279MOL0     H38440   8.719  11.742   2.492  0.3247  0.0659 -0.2608
  279MOL0     H38441   8.794  11.599   2.331 -0.2809 -2.5648  1.9768
  279MOL0     H38442   8.631  11.529   2.317 -3.4318  1.1195 -0.4779
  279MOL0     H38443   8.528  11.738   2.274  0.2575 -2.8696  0.9955
  279MOL0     H38444   8.640  11.701   2.140 -0.5706  2.4427 -1.1758
  279MOL0     H38445   8.717  11.914   2.345 -0.5162  2.8012 -2.2868
  279MOL0     H38446   8.804  11.860   2.206  1.1629 -2.8346  3.0332
  279MOL0     H38447   8.509  11.976   2.211  0.3116  2.1714 -0.4316
  279MOL0     H38448   8.590  11.935   2.073 -2.8743  1.4649  0.3745
  279MOL0     H38449   8.767  12.128   2.143  1.5147 -1.7640  3.5164
  279MOL0     H38450   8.600  12.170   2.104 -3.3137  1.4626  3.4089
  279MOL0     H38451   8.440  12.230   2.312 -0.0300 -3.2999 -1.8942
  279MOL0     H38452   8.495  12.257   2.669  2.8037  0.2036 -1.1526
  279MOL0     H38453   8.377  12.307   2.545 -1.2779  1.3806  1.3848
  279MOL0     H38454   8.541  12.474   2.726 -0.9814  1.5627 -0.3771
  279MOL0     H38455   8.549  12.512   2.547 -1.4993  1.9770 -0.9827
  279MOL0     H38456   8.282  12.512   2.565  0.5686 -1.0949  0.3666
  279MOL0     H38457   8.308  12.495   2.739 -0.5109 -0.0286 -0.5724
  279MOL0     H38458   8.465  12.711   2.614  0.9569 -4.1888  0.9274
  279MOL0     H38459   8.296  12.739   2.593 -1.2310 -1.5511 -0.3012
  279MOL0     H38460   8.116  12.663   2.697 -0.2828 -2.1653  1.7394
  279MOL0     H38461   7.909  12.666   2.674  5.1483 -0.8577  0.6645
  279MOL0     H38462   7.812  12.754   2.789  0.8939  0.6781  2.3604
  279MOL0     H38463   7.848  12.585   2.826  0.9137  0.3359  0.0908
  279MOL0     H38464   7.594  12.522   3.000  0.5465  0.0500  0.4634
  279MOL0     H38465   7.364  12.513   3.043  2.6983  0.5322 -5.0251
  279MOL0     H38466   7.149  12.551   3.360 -0.0069  0.0501  0.9188
  279MOL0     H38467   7.319  12.559   3.378 -3.0474 -3.7793  1.5523
  279MOL0     H38468   7.266  12.814   3.435  2.4728 -0.8842 -0.2853
  279MOL0     H38469   7.093  12.760   3.457 -0.1482 -0.9979 -2.1874
  279MOL0     H38470   7.246  12.771   3.665  0.6908 -0.1402 -0.3814
  279MOL0     H38471   7.353  12.649   3.590  0.3941 -2.0503 -0.6491
  279MOL0     H38472   7.137  12.494   3.599  1.6519 -0.5560  0.3474
  279MOL0     H38473   7.062  12.619   3.706  0.5183  1.2578 -0.0705
  279MOL0     H38474   7.323  12.477   3.754  0.2056  3.4534 -4.7544
  279MOL0     H38475   7.225  12.571   3.864  1.3650  0.7329 -0.6524
  279MOL0     H38476   7.188  12.326   3.896 -0.6786 -1.0033 -0.4462
  279MOL0     H38477   7.152  12.298   3.727 -1.0921  0.7089 -1.0727
  279MOL0     H38478   6.955  12.492   3.864 -1.0908 -0.2210 -0.9502
  279MOL0     H38479   6.959  12.323   3.919  0.8151  0.0668  0.5143
  279MOL0     H38480   6.922  12.251   3.674  1.5778  0.6748  0.0458
  279MOL0     H38481   6.922  12.425   3.629 -1.4776 -1.1754 -1.0525
  279MOL0     H38482   7.413  12.882   3.264  0.1372 -0.2388 -0.5957
  279MOL0     H38483   7.636  12.900   3.188 -2.0596  1.0310  1.8312
  279MOL0     H38484   8.124  12.844   3.143 -0.6259  1.0452 -0.4891
  279MOL0     H38485   8.341  12.838   3.019  1.3242 -1.3776 -0.7351
  279MOL0     H38486   8.549  11.197   2.738  0.1587 -0.3039  0.6715
  279MOL0     H38487   8.417  10.988   2.729  2.2699 -1.2647 -1.7063
  279MOL0     H38488   8.001  10.823   2.733  1.2880  2.1674 -0.8270
  279MOL0     H38489   7.858  10.639   2.780 -0.4646  1.2462  0.4142
  279MOL0     H38490   7.608  10.352   2.567  1.0104 -1.2733  3.4194
  279MOL0     H38491   7.690  10.411   2.421 -1.6801  0.6994  0.5258
  279MOL0     H38492   7.787  10.253   2.664  1.6406  3.5571  0.4671
  279MOL0     H38493   7.912  10.318   2.563  0.9269 -0.9324  3.7950
  279MOL0     H38494   7.693  10.131   2.487 -0.2092  1.2523  1.5179
  279MOL0     H38495   7.812  10.189   2.360 -0.9360 -3.3979 -0.8331
  279MOL0     H38496   7.992  10.100   2.509  0.8296  1.3540 -1.5646
  279MOL0     H38497   7.898   9.990   2.393  0.7619 -0.6082  1.7215
  279MOL0     H38498   7.828   9.810   2.750  0.9262  0.2947 -0.3271
  279MOL0     H38499   7.858  10.549   2.352 -2.4538  1.5889  0.3429
  279MOL0     H38500   8.158  10.669   2.285  0.1815  0.6371  1.2082
  279MOL0     H38501   7.997  10.649   2.212  0.0952  1.7759 -1.1018
  279MOL0     H38502   8.054  10.809   2.240  2.5540  1.3054  0.6788
  280MOL0     O38503   3.404   7.213  11.213  0.3113  0.2070 -0.1496
  280MOL0     C38504   3.497   7.268  11.268 -0.7260 -0.1279  0.5000
  280MOL0     O38505   3.517   7.403  11.297 -0.4948  0.6956  0.3140
  280MOL0     C38506   3.413   7.473  11.242  1.4660 -0.4299  0.7199
  280MOL0     C38507   3.296   7.488  11.316  0.4835 -0.0733 -0.1672
  280MOL0     C38508   3.185   7.555  11.270  0.1863 -0.9476 -0.0714
  280MOL0     C38509   3.176   7.602  11.140  1.1897  0.9956  0.0537
  280MOL0     O38510   3.060   7.679  11.110 -0.5019 -0.0949 -0.2844
  280MOL0     C38511   3.037   7.747  10.980 -0.0922  0.4233 -0.3392
  280MOL0     C38512   2.886   7.783  10.967 -0.4482  0.5457  0.0082
  280MOL0     C38513   2.830   7.899  11.049  0.5226 -0.2259  0.4951
  280MOL0     C38514   2.670   7.890  11.063 -0.3744 -0.3194 -1.1686
  280MOL0     C38515   2.619   8.028  11.100 -0.1891  0.1804  0.6164
  280MOL0     C38516   2.469   8.034  11.105 -0.2867 -1.0446  0.8543
  280MOL0     C38517   2.412   8.165  11.161  0.1849 -0.4376 -0.4705
  280MOL0     C38518   2.385   8.268  11.051  0.5671  0.4796 -0.5878
  280MOL0     N38519   2.313   8.382  11.088  0.3079 -0.2199 -0.1166
  280MOL0     C38520   2.205   8.433  11.028  1.9643 -0.1956 -0.0003
  280MOL0     C38521   2.166   8.541  11.104 -0.2396 -0.1463 -0.7670
  280MOL0     C38522   2.050   8.631  11.076 -0.6361 -0.3013 -0.8928
  280MOL0     C38523   2.054   8.699  10.947 -0.0929 -0.3382  0.3065
  280MOL0     C38524   1.918   8.759  10.914  0.8521 -0.6568 -0.3137
  280MOL0     C38525   1.838   8.827  11.026 -0.8095 -0.2245 -0.0385
  280MOL0     O38526   1.714   8.887  10.980 -0.1342  0.2094 -0.4420
  280MOL0     C38527   1.641   8.972  11.055  0.2127 -0.1999 -0.0504
  280MOL0     C38528   1.521   9.022  10.996  0.2420 -0.4724 -0.2003
  280MOL0     C38529   1.424   9.113  11.054  0.9322  0.1150  0.7193
  280MOL0     C38530   1.303   9.153  10.966  0.6492  0.4485  0.5328
  280MOL0     C38531   1.447   9.150  11.191 -0.3317 -0.2085  0.5307
  280MOL0     C38532   1.357   9.232  11.270  0.3308  0.8038 -0.6938
  280MOL0     O38533   1.228   9.181  11.275 -0.2942 -0.7039  0.0596
  280MOL0     C38534   1.143   9.257  11.350 -0.0829  0.9179  0.0716
  280MOL0     C38535   1.043   9.333  11.283 -0.0958 -0.1913  0.3974
  280MOL0     C38536   0.945   9.390  11.372 -0.4944  0.6902 -0.7792
  280MOL0     C38537   0.955   9.378  11.509 -0.1897 -0.1492 -0.0615
  280MOL0     O38538   0.864   9.460  11.570  0.0131  0.7229  0.0639
  280MOL0     C38539   0.827   9.433  11.704 -0.3773  1.3183 -0.5124
  280MOL0     C38540   0.760   9.551  11.775 -0.4884 -0.3219 -0.4046
  280MOL0     C38541   0.740   9.521  11.925  0.0619 -0.1137  0.4541
  280MOL0     C38542   0.645   9.626  11.994  0.0095 -0.6815 -0.2859
  280MOL0     C38543   0.614   9.592  12.137 -0.6409  0.0342  0.9067
  280MOL0     C38544   0.503   9.682  12.197  0.1439 -0.5648  0.1487
  280MOL0     C38545   0.506   9.673  12.353 -0.2086  0.0279  0.3579
  280MOL0     C38546   0.401   9.771  12.413 -0.1198  0.2782 -0.4941
  280MOL0    Cl38547   0.381   9.733  12.584  0.4935  0.6099  0.2243
  280MOL0     C38548   1.057   9.309  11.566 -1.0362 -0.1764 -0.0282
  280MOL0     C38549   1.148   9.245  11.481 -0.4426  0.3405 -0.2463
  280MOL0     O38550   1.405   9.317  11.352 -0.1081 -0.1850 -1.1582
  280MOL0     C38551   1.573   9.113  11.249 -0.1898  0.5565  0.6458
  280MOL0     C38552   1.661   9.026  11.177  0.1298 -0.2479 -0.1916
  280MOL0     N38553   2.258   8.554  11.202 -0.1805 -1.1324 -0.4571
  280MOL0     N38554   2.341   8.455  11.205  0.1411  0.1163  0.3569
  280MOL0     C38555   3.288   7.566  11.059 -0.0315 -0.1572  0.6208
  280MOL0     C38556   3.410   7.510  11.108 -0.5920 -0.4921  0.3388
  280MOL0     C38557   3.602   7.185  11.326  1.1596  0.1155  0.4386
  280MOL0     C38558   3.629   7.212  11.460  0.4942 -0.1069  0.3040
  280MOL0     C38559   3.725   7.138  11.533  0.4565 -0.4276  0.4136
  280MOL0     C38560   3.796   7.037  11.468  0.4590  0.0737 -0.0036
  280MOL0     O38561   3.882   6.962  11.540  0.3378  0.0437  0.7024
  280MOL0     C38562   4.012   6.956  11.484 -0.1738  0.8710 -0.1801
  280MOL0     C38563   4.103   6.890  11.584 -0.0803 -0.0492 -1.0728
  280MOL0     C38564   4.060   6.740  11.603 -0.8409 -0.0570 -0.3096
  280MOL0     C38565   4.133   6.666  11.718  0.5767  0.3559 -0.5042
  280MOL0     C38566   4.280   6.684  11.696  0.3768  0.2454  0.2573
  280MOL0     C38567   4.398   6.707  11.693 -1.2342 -0.8893 -0.5660
  280MOL0     C38568   3.769   7.020  11.333 -0.1420  1.2064  0.5245
  280MOL0     C38569   3.672   7.088  11.260  0.5875 -0.8826  0.4118
  280MOL0     C38570   3.645   7.042  11.118 -0.2390 -0.2877 -0.3991
  280MOL0     H38571   3.303   7.450  11.417  0.6479 -1.7858 -0.7766
  280MOL0     H38572   3.104   7.583  11.337  0.2777 -1.0392  0.0769
  280MOL0     H38573   3.072   7.680  10.901  1.0524 -0.5668  0.9545
  280MOL0     H38574   3.101   7.834  10.962  1.1692 -0.5546 -0.7539
  280MOL0     H38575   2.866   7.800  10.861  1.9484  1.0938 -0.4151
  280MOL0     H38576   2.828   7.696  11.000 -1.3126  1.6339  1.5298
  280MOL0     H38577   2.880   7.895  11.146  0.6538 -2.5022  0.3830
  280MOL0     H38578   2.861   7.987  10.991  0.1520  0.2771  1.0520
  280MOL0     H38579   2.631   7.858  10.967  2.4401  0.5708 -2.7327
  280MOL0     H38580   2.651   7.825  11.149  2.3120  0.9838  0.5595
  280MOL0     H38581   2.651   8.101  11.025  1.9686  0.4031  1.6904
  280MOL0     H38582   2.668   8.046  11.196  0.3752 -3.1066  1.0499
  280MOL0     H38583   2.425   7.999  11.011 -1.1175 -2.2120  1.6436
  280MOL0     H38584   2.446   7.954  11.177 -2.7264 -3.1004 -1.9945
  280MOL0     H38585   2.483   8.199  11.237  1.9880  2.3668 -3.1364
  280MOL0     H38586   2.317   8.140  11.208 -1.0316  1.0312 -1.9757
  280MOL0     H38587   2.484   8.295  11.012  1.1046 -0.9532 -0.2822
  280MOL0     H38588   2.334   8.212  10.972 -1.8531  0.4056  0.9444
  280MOL0     H38589   2.153   8.386  10.944 -0.3678  0.4808  0.9645
  280MOL0     H38590   2.047   8.715  11.145 -0.4134  0.4910 -1.8274
  280MOL0     H38591   1.958   8.571  11.074 -1.4567  0.8935 -0.3200
  280MOL0     H38592   2.130   8.777  10.937 -0.7873  0.1310 -1.5707
  280MOL0     H38593   2.066   8.626  10.866 -4.8638  0.9991 -1.8976
  280MOL0     H38594   1.929   8.845  10.847  2.6334 -1.7234 -1.4759
  280MOL0     H38595   1.859   8.682  10.864  2.0978 -0.7947 -1.6389
  280MOL0     H38596   1.810   8.762  11.109 -2.0881  0.7694  0.3445
  280MOL0     H38597   1.908   8.903  11.061  0.5116 -0.3237 -2.3120
  280MOL0     H38598   1.504   8.983  10.897 -0.6471 -2.2571  0.6194
  280MOL0     H38599   1.212   9.143  11.025  0.6609  2.9681  1.1175
  280MOL0     H38600   1.292   9.096  10.873 -0.6511  2.7406 -0.8373
  280MOL0     H38601   1.286   9.260  10.949 -0.7990  0.8086  3.6498
  280MOL0     H38602   1.021   9.340  11.177 -0.1113 -1.0249  0.3376
  280MOL0     H38603   0.870   9.460  11.335 -0.1361  1.3693 -0.2480
  280MOL0     H38604   0.753   9.353  11.700 -2.4727  3.0849 -6.0998
  280MOL0     H38605   0.910   9.402  11.768 -0.3798 -0.4249 -1.3085
  280MOL0     H38606   0.826   9.636  11.754 -0.3540 -0.7371 -1.7667
  280MOL0     H38607   0.664   9.580  11.730 -0.7395 -0.4659  0.0346
  280MOL0     H38608   0.829   9.538  11.985 -1.6801  2.8842  2.4436
  280MOL0     H38609   0.702   9.420  11.940  0.0685 -0.1171  0.4509
  280MOL0     H38610   0.546   9.628  11.946 -0.3026 -2.6411  0.1911
  280MOL0     H38611   0.697   9.721  11.991 -2.9397  1.0386 -1.1193
  280MOL0     H38612   0.570   9.491  12.142 -2.3672  0.4801 -2.3499
  280MOL0     H38613   0.707   9.598  12.194  0.1983  1.2036 -0.5197
  280MOL0     H38614   0.405   9.657  12.155 -0.0201  0.1901  0.0676
  280MOL0     H38615   0.509   9.787  12.167 -1.9194 -0.3889  0.2000
  280MOL0     H38616   0.603   9.705  12.391 -1.2862  1.8528  1.7512
  280MOL0     H38617   0.482   9.571  12.384 -1.2327  1.1662  3.8420
  280MOL0     H38618   0.310   9.779  12.352  1.4108  3.3370 -2.6219
  280MOL0     H38619   0.442   9.872  12.407 -1.2376  0.6603 -3.3611
  280MOL0     H38620   1.050   9.298  11.674 -3.4331  0.3942 -0.0566
  280MOL0     H38621   1.222   9.178  11.524 -0.4919  0.4911  0.0746
  280MOL0     H38622   1.606   9.159  11.341 -1.3317 -0.2883  1.5110
  280MOL0     H38623   1.755   8.996  11.223  0.6851  0.3232 -0.9418
  280MOL0     H38624   3.284   7.608  10.959 -0.7225 -1.4263  0.0866
  280MOL0     H38625   3.502   7.491  11.053  0.9075 -1.1552  2.8890
  280MOL0     H38626   3.587   7.297  11.515 -1.2294  0.7220 -2.1101
  280MOL0     H38627   3.750   7.167  11.635 -2.1767 -0.7765  1.2340
  280MOL0     H38628   4.005   6.898  11.391 -0.5790  1.4083 -0.4922
  280MOL0     H38629   4.042   7.059  11.465  3.7736  0.1086  1.1012
  280MOL0     H38630   4.096   6.942  11.680  0.9257  0.0624 -1.0469
  280MOL0     H38631   4.207   6.903  11.553 -0.0883  1.7004 -0.5161
  280MOL0     H38632   3.953   6.735  11.620 -0.7805  0.8329  0.4025
  280MOL0     H38633   4.088   6.692  11.509  2.6191  1.2465 -0.0961
  280MOL0     H38634   4.105   6.560  11.726  4.1021 -0.6390  0.4502
  280MOL0     H38635   4.095   6.722  11.804 -3.1233  0.8146 -2.2517
  280MOL0     H38636   4.505   6.718  11.701 -0.9885 -3.1460  0.0569
  280MOL0     H38637   3.817   6.936  11.285 -3.3646 -1.4157  1.5526
  280MOL0     H38638   3.598   7.127  11.067 -1.4021 -0.2561  0.6662
  280MOL0     H38639   3.739   7.029  11.065 -0.2564 -2.4532  0.0220
  280MOL0     H38640   3.593   6.947  11.106  1.8524 -1.2607 -2.3343
  281MOL0     O38641   2.581   0.824   4.046  0.2679 -0.2511  0.3043
  281MOL0     C38642   2.532   0.917   4.118 -0.2926  0.7025  0.1589
  281MOL0     O38643   2.562   0.949   4.254 -0.1246 -0.0781  0.6168
  281MOL0     C38644   2.673   0.884   4.307  1.1690  0.0643  0.4884
  281MOL0     C38645   2.802   0.876   4.252  0.6208 -0.2555  0.1144
  281MOL0     C38646   2.905   0.807   4.326  0.8677  1.3900 -0.8231
  281MOL0     C38647   2.876   0.734   4.447 -1.0703  1.0729  1.3130
  281MOL0     O38648   2.974   0.654   4.497 -0.3403 -0.0423  0.0615
  281MOL0     C38649   3.078   0.597   4.414 -0.1655 -0.9441 -0.6706
  281MOL0     C38650   3.121   0.461   4.460  0.2597 -0.4214 -0.5034
  281MOL0     C38651   3.161   0.465   4.604 -0.4835  0.4758  0.1301
  281MOL0     C38652   3.220   0.339   4.668  1.3466  0.4632  0.2051
  281MOL0     C38653   3.133   0.274   4.775 -0.0626  0.2212 -0.4061
  281MOL0     C38654   3.201   0.139   4.826 -0.3449 -0.7740  0.3936
  281MOL0     C38655   3.101   0.032   4.882  0.2251 -0.7082  0.0481
  281MOL0     C38656   3.012   0.073   4.995  0.9058  0.2513 -0.2305
  281MOL0     N38657   2.935  -0.046   5.045  0.1420 -1.5161  0.1628
  281MOL0     C38658   2.797  -0.055   5.045  0.7824 -0.0893  0.2957
  281MOL0     C38659   2.776  -0.159   5.137 -0.2306  0.0765  0.0717
  281MOL0     C38660   2.649  -0.240   5.155 -0.8892  0.1151  0.5483
  281MOL0     C38661   2.673  -0.373   5.082 -0.1528  0.3887 -1.1063
  281MOL0     C38662   2.532  -0.440   5.080  0.5084  0.5930 -0.5382
  281MOL0     C38663   2.521  -0.562   4.991  0.0020 -0.8812 -0.2589
  281MOL0     O38664   2.617  -0.659   5.042 -0.5840  0.1663 -0.2048
  281MOL0     C38665   2.735  -0.690   4.974  0.3875 -0.1131 -0.0290
  281MOL0     C38666   2.860  -0.669   5.019 -0.3768  0.4920 -0.5733
  281MOL0     C38667   2.979  -0.703   4.947  1.2157  0.0380 -0.8645
  281MOL0     C38668   3.109  -0.675   5.025 -0.5973 -0.2555 -0.5992
  281MOL0     C38669   2.966  -0.768   4.821 -0.1518 -0.7989 -0.2364
  281MOL0     C38670   3.079  -0.815   4.735 -0.1979 -1.2386 -0.2316
  281MOL0     O38671   3.055  -0.880   4.618 -0.0538  1.0280 -0.0145
  281MOL0     C38672   3.178  -0.892   4.551  1.2058 -0.6707 -0.3313
  281MOL0     C38673   3.253  -1.006   4.558 -0.2891 -0.2890 -0.0264
  281MOL0     C38674   3.380  -1.002   4.498 -0.2004  0.1965  0.9923
  281MOL0     C38675   3.418  -0.889   4.421 -0.4976  0.6543 -1.2249
  281MOL0     O38676   3.554  -0.878   4.385 -0.1052 -0.4812 -0.4568
  281MOL0     C38677   3.659  -0.931   4.472  1.1873 -0.0411 -0.0365
  281MOL0     C38678   3.781  -0.855   4.441 -0.1203  0.2415 -0.2857
  281MOL0     C38679   3.853  -0.902   4.311 -0.0941  0.7164  0.6302
  281MOL0     C38680   3.967  -0.807   4.271 -0.1093 -1.2343 -0.2522
  281MOL0     C38681   3.904  -0.698   4.169 -0.7991 -0.1698 -0.1620
  281MOL0     C38682   3.988  -0.580   4.119 -0.5411 -0.2160 -0.6058
  281MOL0     C38683   3.925  -0.493   4.017 -0.0137 -0.1596  0.1204
  281MOL0     C38684   4.024  -0.409   3.940 -0.7874 -0.3463 -0.4609
  281MOL0    Cl38685   4.158  -0.330   4.041 -0.3099 -0.0997  0.5177
  281MOL0     C38686   3.333  -0.783   4.401  0.1184  0.0287  0.5351
  281MOL0     C38687   3.217  -0.779   4.469 -0.2426  0.6334 -0.4052
  281MOL0     O38688   3.192  -0.803   4.790  0.2565  1.0876  0.0927
  281MOL0     C38689   2.835  -0.776   4.770 -0.3909  1.4698  0.1052
  281MOL0     C38690   2.729  -0.740   4.850  0.1355 -0.9388  0.1544
  281MOL0     N38691   2.898  -0.209   5.176 -0.1420 -0.1917 -0.6200
  281MOL0     N38692   2.991  -0.140   5.121  0.2780 -0.0660  0.1743
  281MOL0     C38693   2.748   0.728   4.492  0.5585 -0.7561 -0.7400
  281MOL0     C38694   2.655   0.811   4.428 -0.9675  0.8797  0.1936
  281MOL0     C38695   2.447   1.006   4.048 -0.0532 -1.0224 -0.0148
  281MOL0     C38696   2.501   1.061   3.929  0.4455  0.3467  0.0437
  281MOL0     C38697   2.445   1.167   3.860 -0.0045  0.4120  0.6740
  281MOL0     C38698   2.323   1.218   3.908 -0.9771  0.7927 -0.1736
  281MOL0     O38699   2.266   1.326   3.844 -0.4621 -0.0940  0.1868
  281MOL0     C38700   2.312   1.357   3.707  0.0906 -0.4693  0.0057
  281MOL0     C38701   2.260   1.268   3.594 -0.8629 -0.4086  0.1896
  281MOL0     C38702   2.260   1.338   3.467  0.2127 -0.3333  0.5896
  281MOL0     C38703   2.400   1.367   3.398 -0.7936  1.0103  0.3408
  281MOL0     C38704   2.472   1.243   3.360  0.7724  0.1120 -0.7878
  281MOL0     C38705   2.559   1.157   3.331 -0.0245 -0.4440 -0.7428
  281MOL0     C38706   2.272   1.167   4.032 -0.3537 -0.4734  0.3782
  281MOL0     C38707   2.326   1.070   4.097 -0.1154  0.5562  0.3781
  281MOL0     C38708   2.256   1.022   4.225 -1.4712  0.4223  0.2085
  281MOL0     H38709   2.824   0.934   4.163  4.2047  2.5234  2.4713
  281MOL0     H38710   3.005   0.826   4.290  0.9205  0.2217 -1.3111
  281MOL0     H38711   3.163   0.665   4.418 -1.2233  0.3804  0.7939
  281MOL0     H38712   3.056   0.583   4.308  3.6960 -1.3139 -1.5821
  281MOL0     H38713   3.036   0.393   4.451  0.0139 -0.4268  1.5007
  281MOL0     H38714   3.200   0.428   4.391  0.4720 -5.5265  1.6781
  281MOL0     H38715   3.249   0.530   4.601 -0.4082  0.3486 -0.9343
  281MOL0     H38716   3.071   0.500   4.654 -1.3985  0.2733 -1.3175
  281MOL0     H38717   3.222   0.271   4.583 -0.5516 -0.1946  0.6440
  281MOL0     H38718   3.320   0.365   4.704  0.9384  0.1067  1.6789
  281MOL0     H38719   3.036   0.247   4.731  0.5249 -2.5374 -0.2380
  281MOL0     H38720   3.122   0.347   4.855  0.4715  0.8575 -0.9073
  281MOL0     H38721   3.264   0.093   4.749 -3.9119 -1.0460 -2.5961
  281MOL0     H38722   3.269   0.167   4.907 -1.0709 -1.7469  1.3658
  281MOL0     H38723   3.166  -0.050   4.915 -0.0633 -1.1477 -0.4708
  281MOL0     H38724   3.037   0.004   4.798  1.9772 -2.5383 -0.7706
  281MOL0     H38725   3.073   0.121   5.073 -0.8846  2.2963  0.0161
  281MOL0     H38726   2.938   0.143   4.955  2.0854  1.4323 -0.3999
  281MOL0     H38727   2.719  -0.002   4.992  2.0345  2.2381  0.6853
  281MOL0     H38728   2.559  -0.196   5.111 -0.8491 -1.1296 -0.8393
  281MOL0     H38729   2.628  -0.273   5.257 -0.6621 -1.7939  0.0122
  281MOL0     H38730   2.723  -0.355   4.986 -0.8479 -0.4566 -1.6331
  281MOL0     H38731   2.742  -0.433   5.142  1.4143  3.1498  0.0468
  281MOL0     H38732   2.495  -0.461   5.180  2.5642  0.6575  0.2849
  281MOL0     H38733   2.461  -0.370   5.034 -0.5326 -1.5526 -2.4175
  281MOL0     H38734   2.421  -0.606   4.995 -0.4402 -0.0686 -1.6625
  281MOL0     H38735   2.545  -0.536   4.887  0.1897 -0.1893 -0.0528
  281MOL0     H38736   2.877  -0.622   5.115  0.6446  1.0124 -0.9890
  281MOL0     H38737   3.166  -0.767   5.045 -0.9624  0.2687  4.0520
  281MOL0     H38738   3.099  -0.626   5.123 -0.4294  0.9717 -1.1764
  281MOL0     H38739   3.165  -0.609   4.959  0.9452 -2.8248 -2.0216
  281MOL0     H38740   3.214  -1.092   4.610 -2.2393 -0.5201 -1.7139
  281MOL0     H38741   3.451  -1.083   4.515  2.1214  1.8294 -0.3664
  281MOL0     H38742   3.633  -0.911   4.576  0.9664 -0.2534 -0.0483
  281MOL0     H38743   3.677  -1.036   4.445  2.7048 -0.0940  1.0751
  281MOL0     H38744   3.749  -0.751   4.434 -2.5894 -0.5701 -3.7440
  281MOL0     H38745   3.837  -0.858   4.535 -3.5061  2.3071  2.0423
  281MOL0     H38746   3.789  -0.923   4.225 -0.2435  2.9829  0.1240
  281MOL0     H38747   3.906  -0.996   4.327  0.2136  0.4756 -1.4807
  281MOL0     H38748   4.046  -0.873   4.234 -1.2415 -2.2958 -0.8438
  281MOL0     H38749   4.004  -0.756   4.360 -0.4539 -0.1387 -0.7124
  281MOL0     H38750   3.883  -0.759   4.081 -0.6349  1.4534 -1.3871
  281MOL0     H38751   3.824  -0.657   4.231  1.7849  4.0080  0.8279
  281MOL0     H38752   4.078  -0.621   4.073  0.9434 -1.8198  3.2553
  281MOL0     H38753   4.021  -0.515   4.200  1.8090 -0.4000 -1.3286
  281MOL0     H38754   3.863  -0.425   4.078  0.8604  0.0622  0.7933
  281MOL0     H38755   3.865  -0.553   3.948 -1.3057 -0.6400  1.6001
  281MOL0     H38756   3.963  -0.332   3.892 -1.2257 -1.0615 -1.0815
  281MOL0     H38757   4.071  -0.462   3.857  3.5761 -1.1668  2.2143
  281MOL0     H38758   3.371  -0.694   4.353  3.5824 -0.1049  2.6616
  281MOL0     H38759   3.146  -0.697   4.461 -0.8312  0.0117 -1.9543
  281MOL0     H38760   2.820  -0.813   4.669  1.0058 -0.3924  0.5126
  281MOL0     H38761   2.633  -0.764   4.807  0.1214  1.1152 -1.0932
  281MOL0     H38762   2.725   0.674   4.583 -0.5962 -3.1517 -2.3527
  281MOL0     H38763   2.562   0.804   4.484  0.7486  2.1693  3.5013
  281MOL0     H38764   2.603   1.031   3.906  0.5237 -0.3321  1.1844
  281MOL0     H38765   2.511   1.204   3.782 -0.7177 -1.3314 -0.8109
  281MOL0     H38766   2.270   1.456   3.690  1.4923  0.0502 -0.5675
  281MOL0     H38767   2.421   1.369   3.711 -0.0840  1.5020  4.2544
  281MOL0     H38768   2.156   1.245   3.618 -0.6132 -0.4279  1.3462
  281MOL0     H38769   2.320   1.177   3.593  1.5053  1.0515  0.2589
  281MOL0     H38770   2.207   1.268   3.402  2.1542  1.6831 -3.5383
  281MOL0     H38771   2.198   1.428   3.471 -0.2682 -0.5679 -1.1675
  281MOL0     H38772   2.462   1.431   3.461 -0.4669  2.7133 -1.6129
  281MOL0     H38773   2.379   1.419   3.304 -2.1869  2.2296  1.2778
  281MOL0     H38774   2.628   1.081   3.301  1.1445 -0.8594  2.5948
  281MOL0     H38775   2.177   1.207   4.067 -1.3277 -1.5225 -1.0062
  281MOL0     H38776   2.326   0.970   4.291  0.1644  2.9639  0.6414
  281MOL0     H38777   2.237   1.112   4.284  1.0527 -1.3412  4.1465
  281MOL0     H38778   2.168   0.959   4.208 -2.1108  1.5139 -0.6693
  282MOL0     O38779   0.994   3.230   7.573  0.0531  0.0570  0.1709
  282MOL0     C38780   0.911   3.231   7.664  1.5464 -0.2592 -0.0908
  282MOL0     O38781   0.943   3.225   7.783  0.2842  0.1394 -0.9889
  282MOL0     C38782   1.076   3.242   7.823 -0.7926 -0.2166  0.2204
  282MOL0     C38783   1.157   3.135   7.853  0.2794 -0.2030 -0.8781
  282MOL0     C38784   1.295   3.154   7.892  0.5487 -0.4434 -0.1821
  282MOL0     C38785   1.358   3.285   7.904 -0.2232  0.5520  0.6090
  282MOL0     O38786   1.485   3.295   7.939 -0.0402  0.3718  0.6182
  282MOL0     C38787   1.562   3.395   7.869  0.1364  0.0384 -0.0777
  282MOL0     C38788   1.603   3.516   7.969  0.3481 -0.0571  0.4482
  282MOL0     C38789   1.705   3.620   7.920  0.1559  0.6335  0.0477
  282MOL0     C38790   1.757   3.720   8.023  0.2729 -0.4505 -0.0469
  282MOL0     C38791   1.878   3.803   7.981  0.4099 -0.4582  0.1400
  282MOL0     C38792   1.903   3.921   8.076 -0.6571 -0.1252 -0.5883
  282MOL0     C38793   1.922   3.902   8.231 -0.8387 -0.3415 -0.3249
  282MOL0     C38794   2.051   3.815   8.267 -0.1576  0.2266  0.2348
  282MOL0     N38795   2.172   3.848   8.194  0.7774 -0.6129  0.2842
  282MOL0     C38796   2.250   3.959   8.197  0.0541 -0.4666 -0.8461
  282MOL0     C38797   2.352   3.939   8.114  0.0772  0.8638 -0.1326
  282MOL0     C38798   2.453   4.035   8.083  0.8250 -0.6429  0.1041
  282MOL0     C38799   2.569   4.053   8.186  0.4984  0.0833 -0.1458
  282MOL0     C38800   2.546   4.144   8.318  0.2107  0.2066 -0.5245
  282MOL0     C38801   2.564   4.062   8.443  0.2635  0.7818  0.3507
  282MOL0     O38802   2.557   4.143   8.555 -0.1352  0.0619 -0.0986
  282MOL0     C38803   2.568   4.097   8.686 -0.7495  0.2213 -0.0945
  282MOL0     C38804   2.545   4.196   8.781 -0.2185 -0.8353 -0.6219
  282MOL0     C38805   2.547   4.168   8.920 -1.7674  1.0263  0.2306
  282MOL0     C38806   2.491   4.273   9.007 -0.4569  0.4412 -0.7626
  282MOL0     C38807   2.587   4.035   8.956 -0.2779 -0.8156  0.3790
  282MOL0     C38808   2.603   3.989   9.095 -0.1387 -0.8688  0.9897
  282MOL0     O38809   2.570   3.859   9.124  0.1937 -0.6567  0.1607
  282MOL0     C38810   2.577   3.816   9.256 -0.3747  0.4882  0.4431
  282MOL0     C38811   2.695   3.756   9.290  0.1519 -0.9153  0.5531
  282MOL0     C38812   2.698   3.679   9.411 -0.0563 -0.3899  0.1408
  282MOL0     C38813   2.590   3.694   9.503  0.7226 -0.5491  0.7540
  282MOL0     O38814   2.628   3.634   9.620  0.1808  0.8101  0.6853
  282MOL0     C38815   2.536   3.550   9.686 -0.0234  1.0110 -0.1890
  282MOL0     C38816   2.526   3.413   9.618 -0.0568 -0.1851  0.5429
  282MOL0     C38817   2.656   3.324   9.618 -0.1109 -0.1370 -0.5174
  282MOL0     C38818   2.613   3.177   9.649 -0.0585  0.0274  0.0448
  282MOL0     C38819   2.738   3.085   9.620 -0.3380 -0.2840 -0.3620
  282MOL0     C38820   2.838   3.104   9.745  0.7056 -0.4688  0.7020
  282MOL0     C38821   2.960   3.010   9.731 -0.6393 -0.2572  0.0231
  282MOL0     C38822   3.030   2.995   9.862  0.1879  0.5759  0.8427
  282MOL0    Cl38823   3.034   3.137   9.968  0.1448 -0.0828  0.1378
  282MOL0     C38824   2.465   3.765   9.465 -1.3619  0.5093  0.1042
  282MOL0     C38825   2.461   3.806   9.333 -0.5613 -0.7576 -0.3739
  282MOL0     O38826   2.630   4.074   9.178 -0.1631  0.1884 -0.3483
  282MOL0     C38827   2.616   3.936   8.857  0.5928  0.7723 -0.0146
  282MOL0     C38828   2.604   3.964   8.721 -0.1160  0.6120  0.8765
  282MOL0     N38829   2.330   3.817   8.051 -0.2588 -0.0938  1.2438
  282MOL0     N38830   2.215   3.773   8.089  0.3011 -0.2142 -0.4073
  282MOL0     C38831   1.276   3.394   7.872 -0.3358  0.2245 -0.0900
  282MOL0     C38832   1.144   3.366   7.831 -0.0115 -0.7949  0.3604
  282MOL0     C38833   0.768   3.220   7.638  0.2337 -0.2127 -0.5433
  282MOL0     C38834   0.684   3.155   7.735 -0.1774 -0.5912 -0.8191
  282MOL0     C38835   0.546   3.159   7.729  0.3154  0.1560  0.0734
  282MOL0     C38836   0.490   3.214   7.614  0.2128 -0.5102 -0.2007
  282MOL0     O38837   0.358   3.239   7.592  0.7599 -0.0622  0.3227
  282MOL0     C38838   0.261   3.201   7.685  0.1732 -0.6301  0.3937
  282MOL0     C38839   0.244   3.298   7.805  0.3172  0.1087 -0.3665
  282MOL0     C38840   0.249   3.449   7.772  0.7971 -0.3101  0.5786
  282MOL0     C38841   0.147   3.493   7.673  0.8619  1.2658  0.6329
  282MOL0     C38842   0.014   3.463   7.737  0.1150 -0.2713  1.0558
  282MOL0     C38843  -0.090   3.456   7.784  0.7565 -0.7076  0.0506
  282MOL0     C38844   0.565   3.264   7.510 -0.0968  0.2741 -0.0393
  282MOL0     C38845   0.702   3.268   7.522 -0.0957  0.1959 -0.0473
  282MOL0     C38846   0.786   3.320   7.403  0.6120  0.3554 -0.5570
  282MOL0     H38847   1.114   3.035   7.850  1.2153 -0.6027 -1.4597
  282MOL0     H38848   1.344   3.064   7.925 -1.5571 -0.9734  1.7929
  282MOL0     H38849   1.510   3.436   7.782 -0.1083  0.4703  0.2666
  282MOL0     H38850   1.656   3.344   7.844 -1.0168 -4.1375  2.9401
  282MOL0     H38851   1.506   3.563   7.989 -0.5567 -1.7986  0.3327
  282MOL0     H38852   1.633   3.464   8.061 -1.1220  0.0423  1.0122
  282MOL0     H38853   1.789   3.558   7.888 -2.7712 -2.7916 -1.6709
  282MOL0     H38854   1.652   3.673   7.840  2.6312  1.6361 -1.0159
  282MOL0     H38855   1.666   3.777   8.043 -0.6310 -1.9738  0.4015
  282MOL0     H38856   1.772   3.671   8.120 -2.4611 -2.4991 -0.5216
  282MOL0     H38857   1.856   3.839   7.880 -1.2549 -3.0980 -0.5461
  282MOL0     H38858   1.977   3.756   7.984  0.3648 -1.0283 -3.2309
  282MOL0     H38859   1.992   3.975   8.042  0.4069 -2.3392 -1.4903
  282MOL0     H38860   1.825   3.994   8.052  1.7678  3.3995  1.2150
  282MOL0     H38861   1.833   3.847   8.262 -2.6050  0.6745 -3.1740
  282MOL0     H38862   1.931   3.994   8.288 -0.7971 -0.2723 -0.4414
  282MOL0     H38863   2.053   3.827   8.376  0.0878  0.8014  0.1740
  282MOL0     H38864   2.017   3.712   8.251  0.9049 -0.0653 -0.2451
  282MOL0     H38865   2.241   4.046   8.261  3.5852 -0.1610 -0.5557
  282MOL0     H38866   2.412   4.135   8.068  3.1108  0.5998  1.5580
  282MOL0     H38867   2.497   4.009   7.985  2.0396 -2.1784  0.9989
  282MOL0     H38868   2.611   3.956   8.216 -0.1672  0.7225  3.2849
  282MOL0     H38869   2.656   4.097   8.137  0.5100  2.1165  1.5498
  282MOL0     H38870   2.627   4.218   8.321  2.7172 -2.3680  2.4411
  282MOL0     H38871   2.453   4.201   8.323 -1.9815 -2.9638 -1.9335
  282MOL0     H38872   2.478   3.994   8.442 -1.6125  2.9947 -0.8421
  282MOL0     H38873   2.656   4.004   8.440 -1.1636 -1.6057 -1.7105
  282MOL0     H38874   2.520   4.293   8.740  3.9920  0.5798 -0.3923
  282MOL0     H38875   2.579   4.297   9.066 -0.4307 -1.8992  0.2623
  282MOL0     H38876   2.413   4.235   9.073 -0.3025 -1.8835 -1.8149
  282MOL0     H38877   2.450   4.359   8.951 -3.9140  0.0454  0.8742
  282MOL0     H38878   2.773   3.755   9.214 -0.1671  2.1499  0.0442
  282MOL0     H38879   2.785   3.624   9.445  2.4051  2.0510 -1.6840
  282MOL0     H38880   2.575   3.537   9.787 -0.0357  3.6484  0.2136
  282MOL0     H38881   2.446   3.610   9.705 -0.6842 -0.4912  1.7811
  282MOL0     H38882   2.441   3.354   9.653 -2.2517  2.0352 -0.7360
  282MOL0     H38883   2.504   3.431   9.512  1.9360 -0.0155  0.1123
  282MOL0     H38884   2.731   3.356   9.692  0.2743 -2.7532  0.3425
  282MOL0     H38885   2.702   3.326   9.519 -3.2157 -0.2644 -2.0605
  282MOL0     H38886   2.526   3.149   9.589 -1.1568 -1.1722  2.0849
  282MOL0     H38887   2.573   3.163   9.750  0.0057 -1.8484 -0.1642
  282MOL0     H38888   2.703   2.981   9.615  0.0257 -0.3965 -0.5931
  282MOL0     H38889   2.784   3.107   9.524 -1.0266  1.1871 -0.3775
  282MOL0     H38890   2.786   3.077   9.837  1.7114  1.4163  1.9032
  282MOL0     H38891   2.875   3.205   9.766  0.3840 -0.7834  3.0134
  282MOL0     H38892   3.032   3.053   9.661  1.6111  0.7824  2.7697
  282MOL0     H38893   2.919   2.917   9.690 -4.6199  1.5017 -0.3665
  282MOL0     H38894   3.127   2.957   9.828  0.2648  3.4841 -2.8222
  282MOL0     H38895   2.972   2.920   9.918 -1.0264  0.4052 -0.5787
  282MOL0     H38896   2.372   3.756   9.519 -1.1197 -0.1395  0.4320
  282MOL0     H38897   2.373   3.856   9.295 -0.3259  0.2836  0.4080
  282MOL0     H38898   2.643   3.832   8.875  0.1188  0.5974 -0.3011
  282MOL0     H38899   2.629   3.879   8.657  3.7068  0.3029  2.4803
  282MOL0     H38900   1.309   3.497   7.884 -0.4355  0.1000  1.5690
  282MOL0     H38901   1.079   3.449   7.808  0.7896 -0.5065 -0.9906
  282MOL0     H38902   0.730   3.137   7.831  1.9398  4.1078 -0.6733
  282MOL0     H38903   0.493   3.111   7.810 -0.8712 -0.4154 -1.0205
  282MOL0     H38904   0.171   3.180   7.627  1.3084 -1.8670 -0.9978
  282MOL0     H38905   0.289   3.102   7.723  3.9121  0.8886  2.1520
  282MOL0     H38906   0.327   3.278   7.872  0.6089  1.6655 -0.2146
  282MOL0     H38907   0.159   3.278   7.871  0.8007  0.3725  0.3409
  282MOL0     H38908   0.235   3.519   7.854  1.9840  1.9107 -0.9883
  282MOL0     H38909   0.341   3.472   7.717 -0.3548  0.9516 -0.9446
  282MOL0     H38910   0.156   3.433   7.582  2.0844  1.4720  0.5971
  282MOL0     H38911   0.149   3.592   7.627  0.7730  0.7146 -0.5768
  282MOL0     H38912  -0.181   3.457   7.840 -0.6142  1.1873 -2.1046
  282MOL0     H38913   0.511   3.292   7.420 -3.0333 -0.0180  1.4932
  282MOL0     H38914   0.718   3.380   7.342 -1.0341 -0.0881  0.7445
  282MOL0     H38915   0.870   3.388   7.416 -0.5650  1.6181  0.9012
  282MOL0     H38916   0.813   3.238   7.335  1.9471  0.7567 -0.5366
  283MOL0     O38917  10.734   6.352   2.726  1.3151  0.2892  0.5538
  283MOL0     C38918  10.796   6.398   2.819 -0.5204 -1.0430 -0.1144
  283MOL0     O38919  10.887   6.323   2.891 -0.2527 -0.5650  0.2781
  283MOL0     C38920  10.943   6.199   2.859  0.1351 -0.8000  0.6251
  283MOL0     C38921  10.974   6.157   2.725  0.6464 -0.2483 -0.0251
  283MOL0     C38922  11.021   6.032   2.714 -0.0653  1.1085  0.6643
  283MOL0     C38923  11.057   5.950   2.823  0.8936  0.6760 -0.1097
  283MOL0     O38924  11.106   5.827   2.814  0.4965  0.2088 -0.6984
  283MOL0     C38925  11.198   5.814   2.708 -0.2831  0.5700  0.4003
  283MOL0     C38926  11.274   5.681   2.714  0.0866 -1.4258 -0.2319
  283MOL0     C38927  11.385   5.683   2.606 -0.7936 -0.0360 -0.5941
  283MOL0     C38928  11.461   5.550   2.596  0.3080  1.3341 -0.0355
  283MOL0     C38929  11.540   5.539   2.472 -0.4329 -0.4347 -0.0865
  283MOL0     C38930  11.646   5.425   2.484 -0.0719 -0.3041  0.0360
  283MOL0     C38931  11.718   5.424   2.351 -0.7442  0.2939  0.1126
  283MOL0     C38932  11.868   5.370   2.355 -0.3956  1.1195  0.5831
  283MOL0     N38933  11.878   5.229   2.380 -0.1186 -0.8215 -0.8426
  283MOL0     C38934  11.826   5.167   2.488  0.4507 -0.0479 -0.1846
  283MOL0     C38935  11.855   5.039   2.487 -0.5264 -0.0242  0.1211
  283MOL0     C38936  11.833   4.938   2.593 -0.1558 -1.2028  0.1607
  283MOL0     C38937  11.871   4.999   2.728  0.3475 -0.4454 -0.1004
  283MOL0     C38938  11.835   4.893   2.836 -0.1659  0.3441  0.7514
  283MOL0     C38939  11.816   4.939   2.973  0.6918 -0.8383  1.0425
  283MOL0     O38940  11.702   5.035   2.981 -0.9732 -0.5539 -0.3434
  283MOL0     C38941  11.679   5.093   3.106 -1.2529 -0.6545  0.7234
  283MOL0     C38942  11.739   5.042   3.223 -0.1824 -0.2567  0.8191
  283MOL0     C38943  11.729   5.103   3.353  1.0464 -1.1852  0.2696
  283MOL0     C38944  11.805   5.050   3.466  0.8064  1.2573  0.3377
  283MOL0     C38945  11.648   5.227   3.364 -0.7539  0.9693 -0.5398
  283MOL0     C38946  11.603   5.288   3.493  0.3773 -1.1730  0.2278
  283MOL0     O38947  11.661   5.263   3.616 -0.2568 -0.6318  1.2075
  283MOL0     C38948  11.619   5.316   3.738  0.3233  0.1770 -1.1277
  283MOL0     C38949  11.548   5.438   3.762 -0.4810  0.2917 -0.9637
  283MOL0     C38950  11.523   5.482   3.895  0.1044 -0.5172  0.4050
  283MOL0     C38951  11.549   5.397   4.006 -0.0341  0.7024 -0.4038
  283MOL0     O38952  11.515   5.450   4.123 -0.1560  0.1574 -0.4573
  283MOL0     C38953  11.552   5.372   4.248 -0.4812  0.6779  0.0861
  283MOL0     C38954  11.478   5.419   4.369  1.2125 -0.2758  0.5693
  283MOL0     C38955  11.353   5.330   4.407  0.2374 -0.0282  0.5222
  283MOL0     C38956  11.272   5.397   4.509  0.0832 -0.2423 -0.0455
  283MOL0     C38957  11.129   5.347   4.519  0.5159  0.5850 -0.3241
  283MOL0     C38958  11.045   5.429   4.614  0.6940 -0.0970 -0.5612
  283MOL0     C38959  11.090   5.423   4.764  0.4570  0.1826  0.4578
  283MOL0     C38960  10.971   5.469   4.856 -0.9523  0.1800  0.3206
  283MOL0    Cl38961  10.913   5.622   4.800  0.0048 -0.1342 -0.0938
  283MOL0     C38962  11.605   5.274   3.984 -0.0169  0.7800 -0.1799
  283MOL0     C38963  11.649   5.240   3.856  0.3359  0.6918  0.8893
  283MOL0     O38964  11.512   5.368   3.475  0.2979 -0.3944  0.3691
  283MOL0     C38965  11.588   5.271   3.240  0.0679 -0.2806 -0.1598
  283MOL0     C38966  11.621   5.220   3.118  0.4933  1.4246 -0.7617
  283MOL0     N38967  11.917   5.020   2.365 -0.8190  0.6460  0.9181
  283MOL0     N38968  11.938   5.143   2.302  0.0839 -0.0443  0.3995
  283MOL0     C38969  11.013   5.995   2.952  1.0654  0.2560  0.0483
  283MOL0     C38970  10.954   6.122   2.969 -0.0551  0.0842 -0.1791
  283MOL0     C38971  10.770   6.537   2.867  0.7714  0.4896  0.2500
  283MOL0     C38972  10.728   6.632   2.767 -0.0313  0.6084  0.6024
  283MOL0     C38973  10.715   6.764   2.804 -0.4975  0.0868  0.0345
  283MOL0     C38974  10.737   6.802   2.937 -0.2036  0.1490  0.8415
  283MOL0     O38975  10.700   6.931   2.971 -0.0741  0.7653 -0.5193
  283MOL0     C38976  10.747   6.996   3.091  0.1115  0.3527 -0.1290
  283MOL0     C38977  10.641   7.039   3.195  0.0313 -0.6549  0.5670
  283MOL0     C38978  10.509   7.078   3.138 -0.3876  0.3485  0.4986
  283MOL0     C38979  10.538   7.197   3.046  0.6205  0.0572 -1.1175
  283MOL0     C38980  10.406   7.236   2.987  0.3812 -0.4410 -0.5961
  283MOL0     C38981  10.296   7.291   2.943 -1.0145  1.3353  0.5257
  283MOL0     C38982  10.776   6.707   3.033 -0.3997  0.4638 -0.3495
  283MOL0     C38983  10.783   6.576   3.002 -0.9287  0.1241  0.2878
  283MOL0     C38984  10.804   6.477   3.123 -0.4161 -0.2549  0.8916
  283MOL0     H38985  10.945   6.201   2.630 -2.3359 -4.2077 -1.2121
  283MOL0     H38986  11.053   6.011   2.612  1.6059  0.7060  1.2510
  283MOL0     H38987  11.262   5.902   2.706 -1.0327  1.1706 -2.3472
  283MOL0     H38988  11.139   5.812   2.616 -1.2155  0.9002  0.9771
  283MOL0     H38989  11.312   5.685   2.816  0.3562  2.5518 -0.3690
  283MOL0     H38990  11.201   5.598   2.713 -2.1048  0.3836  0.7972
  283MOL0     H38991  11.347   5.715   2.509  0.0895  1.8775 -0.3418
  283MOL0     H38992  11.457   5.760   2.637  1.5074 -2.0880 -0.5095
  283MOL0     H38993  11.525   5.533   2.683  0.3285 -3.9951 -0.7171
  283MOL0     H38994  11.390   5.468   2.586  2.7736 -1.0186  0.5015
  283MOL0     H38995  11.596   5.631   2.452 -2.0288  0.1141 -2.4414
  283MOL0     H38996  11.481   5.540   2.380  1.5332  1.9529 -1.4520
  283MOL0     H38997  11.716   5.434   2.567 -0.1971 -4.0633  0.7045
  283MOL0     H38998  11.588   5.334   2.501 -1.4256  0.8336  1.9594
  283MOL0     H38999  11.738   5.526   2.319  2.2909 -0.1361  0.2955
  283MOL0     H39000  11.641   5.386   2.283  1.4375  1.2325 -3.1007
  283MOL0     H39001  11.924   5.392   2.264  0.3118 -1.0767  0.4236
  283MOL0     H39002  11.925   5.413   2.437  3.6628 -0.8130 -0.9867
  283MOL0     H39003  11.762   5.205   2.568 -1.3958 -1.9574 -0.6739
  283MOL0     H39004  11.890   4.848   2.569  1.1559  0.3790 -3.2591
  283MOL0     H39005  11.727   4.913   2.596 -0.0278 -1.9894 -1.2292
  283MOL0     H39006  11.979   5.016   2.742 -0.0745  2.0161  0.5666
  283MOL0     H39007  11.824   5.093   2.756  3.0800  0.4986  1.8239
  283MOL0     H39008  11.745   4.836   2.810 -0.7585  1.7352 -0.3686
  283MOL0     H39009  11.923   4.828   2.835  1.3892  2.2807 -2.3387
  283MOL0     H39010  11.820   4.851   3.038  0.2645  1.8412  5.0054
  283MOL0     H39011  11.904   4.997   3.002  0.4684  1.5343 -2.4569
  283MOL0     H39012  11.794   4.949   3.218 -0.7001 -0.5706  0.9263
  283MOL0     H39013  11.741   5.015   3.547  2.3333  0.2602  1.1714
  283MOL0     H39014  11.885   5.113   3.506 -0.5938  1.2248  3.5157
  283MOL0     H39015  11.845   4.957   3.426 -2.9118  0.1857 -1.2970
  283MOL0     H39016  11.521   5.504   3.680  0.6398  1.7162 -0.2437
  283MOL0     H39017  11.482   5.580   3.917 -1.4820 -0.9809 -0.3315
  283MOL0     H39018  11.542   5.264   4.234  1.7545  0.7155 -2.9031
  283MOL0     H39019  11.656   5.387   4.276 -0.9464 -0.2112  2.5688
  283MOL0     H39020  11.554   5.415   4.447 -0.5469 -0.6038  2.3558
  283MOL0     H39021  11.444   5.522   4.361 -0.9529 -1.0283 -0.9745
  283MOL0     H39022  11.394   5.239   4.451 -0.2381  0.3771  1.8741
  283MOL0     H39023  11.303   5.314   4.311  1.3159  1.2950 -0.2912
  283MOL0     H39024  11.267   5.498   4.467  0.3376 -2.0603 -4.9986
  283MOL0     H39025  11.316   5.387   4.609 -1.3940 -0.4505  0.6120
  283MOL0     H39026  11.080   5.346   4.421  0.2595 -3.0102 -0.2883
  283MOL0     H39027  11.128   5.244   4.555 -1.5551  2.2133  5.4036
  283MOL0     H39028  10.943   5.391   4.604  0.0982  1.4976 -0.7465
  283MOL0     H39029  11.041   5.530   4.572 -1.6035 -1.0906 -3.0429
  283MOL0     H39030  11.163   5.504   4.771  1.3411 -0.3143 -1.8932
  283MOL0     H39031  11.122   5.321   4.786  0.8724 -0.4065 -2.4182
  283MOL0     H39032  11.018   5.493   4.952  0.3723 -2.7037  0.5232
  283MOL0     H39033  10.883   5.407   4.876  0.1829 -1.4663  0.5013
  283MOL0     H39034  11.620   5.202   4.063  0.9333 -1.2960 -2.1413
  283MOL0     H39035  11.697   5.144   3.838  3.1574  2.6087 -3.4769
  283MOL0     H39036  11.520   5.356   3.234 -0.7319 -0.9420 -0.7557
  283MOL0     H39037  11.587   5.274   3.030  1.3992 -0.3624 -2.2771
  283MOL0     H39038  11.028   5.932   3.038 -1.3039 -0.6108 -0.1044
  283MOL0     H39039  10.923   6.173   3.060 -0.2302  2.5640 -1.5394
  283MOL0     H39040  10.709   6.613   2.661 -0.3161  0.1323  0.7387
  283MOL0     H39041  10.691   6.836   2.726  1.6625 -0.9031 -1.6815
  283MOL0     H39042  10.826   6.940   3.142  0.8886  0.7908 -0.8124
  283MOL0     H39043  10.798   7.086   3.055  0.6400  0.4250  0.7602
  283MOL0     H39044  10.680   7.127   3.248 -3.0085  0.9302  0.3577
  283MOL0     H39045  10.624   6.958   3.266 -4.1670 -1.1172 -0.6947
  283MOL0     H39046  10.452   6.996   3.092 -1.8539 -0.0895  2.8930
  283MOL0     H39047  10.450   7.104   3.227  1.0795 -1.5899  2.1350
  283MOL0     H39048  10.614   7.177   2.970  0.1114  0.7785 -1.8341
  283MOL0     H39049  10.577   7.280   3.105  1.5328 -0.7823 -0.5198
  283MOL0     H39050  10.209   7.321   2.889 -1.5026 -1.2035 -0.2275
  283MOL0     H39051  10.782   6.731   3.138  1.5283  1.6163 -0.6817
  283MOL0     H39052  10.789   6.371   3.100  0.5975 -1.0311  3.4634
  283MOL0     H39053  10.911   6.490   3.143 -0.2647 -1.3227  0.8358
  283MOL0     H39054  10.744   6.507   3.209 -0.3328 -2.1883  1.6592
  284MOL0     O39055   0.100  10.651   1.291 -0.3677  0.5475  0.0207
  284MOL0     C39056   0.202  10.646   1.363 -1.0825  0.3783  0.1316
  284MOL0     O39057   0.318  10.598   1.328 -0.3583  0.3595 -0.8447
  284MOL0     C39058   0.340  10.575   1.198 -0.2259  0.1887 -0.9663
  284MOL0     C39059   0.394  10.675   1.116 -0.5323 -0.3173  0.1279
  284MOL0     C39060   0.415  10.647   0.989 -1.1183 -1.2616 -0.3095
  284MOL0     C39061   0.387  10.520   0.931  0.1532  0.4415 -1.2288
  284MOL0     O39062   0.424  10.475   0.812  0.1184  0.0829  0.2438
  284MOL0     C39063   0.517  10.551   0.737 -0.6870  0.8365  0.4425
  284MOL0     C39064   0.532  10.511   0.588  0.1163  0.4103 -0.1639
  284MOL0     C39065   0.675  10.532   0.536 -0.7536 -0.6270 -0.7845
  284MOL0     C39066   0.670  10.525   0.378 -0.0696  0.0722  0.4524
  284MOL0     C39067   0.781  10.437   0.331  1.1949  0.0860 -0.3281
  284MOL0     C39068   0.797  10.457   0.181 -0.4186 -0.7865 -0.1091
  284MOL0     C39069   0.883  10.345   0.118 -0.8016  0.6583 -0.6600
  284MOL0     C39070   1.035  10.357   0.145  0.9166  0.7323 -0.2739
  284MOL0     N39071   1.115  10.252   0.078  0.1725 -0.3581  0.3233
  284MOL0     C39072   1.114  10.117   0.091 -0.3397 -0.2276 -0.1553
  284MOL0     C39073   1.218  10.068   0.026 -0.2520  0.1271  0.1607
  284MOL0     C39074   1.261   9.922   0.029 -0.6981 -0.1978 -0.8283
  284MOL0     C39075   1.143   9.823   0.009  0.0873 -0.2949  0.9151
  284MOL0     C39076   1.103   9.810  -0.139 -0.0814 -0.1424  0.9199
  284MOL0     C39077   1.196   9.724  -0.215 -0.2597  0.6486  0.7137
  284MOL0     O39078   1.152   9.701  -0.359  0.6339 -0.6554 -0.4972
  284MOL0     C39079   1.245   9.629  -0.438  0.7354  0.1849 -0.4178
  284MOL0     C39080   1.230   9.615  -0.574  0.8438  0.2023  0.6778
  284MOL0     C39081   1.319   9.554  -0.667 -0.6038 -0.1928 -0.3808
  284MOL0     C39082   1.306   9.566  -0.813 -0.5470 -0.3784  0.5369
  284MOL0     C39083   1.433   9.496  -0.600 -0.5069  0.1814  0.0980
  284MOL0     C39084   1.564   9.458  -0.673  0.3784 -0.1648 -0.0618
  284MOL0     O39085   1.639   9.365  -0.618 -0.1552  0.2550 -0.7063
  284MOL0     C39086   1.771   9.352  -0.662 -0.3617  0.5093  0.1475
  284MOL0     C39087   1.866   9.455  -0.678  0.4727  0.0817  1.2155
  284MOL0     C39088   1.990   9.425  -0.736 -0.1592  0.1204  0.7669
  284MOL0     C39089   2.036   9.294  -0.766 -0.0853  0.4101  0.6028
  284MOL0     O39090   2.168   9.275  -0.808 -0.4332  0.5955 -0.4113
  284MOL0     C39091   2.256   9.215  -0.709 -0.9712 -0.1823 -0.5166
  284MOL0     C39092   2.400   9.194  -0.760 -0.3194  0.0155  0.3439
  284MOL0     C39093   2.484   9.139  -0.639  0.1822 -0.8121 -0.4550
  284MOL0     C39094   2.467   8.996  -0.592 -0.1902  0.3279 -0.7568
  284MOL0     C39095   2.575   8.952  -0.495  0.1325  0.6639 -0.8088
  284MOL0     C39096   2.550   8.807  -0.460  0.2119  0.7881 -0.8558
  284MOL0     C39097   2.654   8.769  -0.352  1.2094  0.5719 -0.2331
  284MOL0     C39098   2.632   8.613  -0.309 -0.5212 -0.8531  0.2665
  284MOL0    Cl39099   2.695   8.509  -0.448 -0.0578  0.1674  0.5178
  284MOL0     C39100   1.955   9.195  -0.732 -0.3386 -0.1754  0.3887
  284MOL0     C39101   1.828   9.222  -0.685  0.9070  0.1580  1.0348
  284MOL0     O39102   1.599   9.534  -0.764  0.2778 -0.5158 -0.1358
  284MOL0     C39103   1.441   9.501  -0.460 -1.0534  0.3567  0.9202
  284MOL0     C39104   1.355   9.564  -0.379 -0.5941 -0.1073  0.5318
  284MOL0     N39105   1.280  10.171  -0.029 -0.2300 -0.0642  0.1171
  284MOL0     N39106   1.220  10.285   0.002 -0.6131 -0.7064 -0.0472
  284MOL0     C39107   0.310  10.428   1.008 -0.7606 -0.9673 -1.0448
  284MOL0     C39108   0.285  10.463   1.140  0.5769  0.1178  0.0503
  284MOL0     C39109   0.177  10.678   1.512 -0.6616 -0.5554  0.8324
  284MOL0     C39110   0.299  10.698   1.576  0.5138  0.3909 -0.4308
  284MOL0     C39111   0.301  10.730   1.719 -0.6218 -0.0739  1.0733
  284MOL0     C39112   0.178  10.758   1.776  0.3727  0.6798 -0.0510
  284MOL0     O39113   0.185  10.801   1.907  0.5099  0.2121  0.0630
  284MOL0     C39114   0.071  10.866   1.967  0.0383  0.5065 -0.9930
  284MOL0     C39115  -0.032  10.766   2.030 -0.1282  0.2200  0.0389
  284MOL0     C39116  -0.162  10.850   2.050  0.2660 -0.3119 -0.9132
  284MOL0     C39117  -0.270  10.779   2.132 -0.0684 -0.1358 -0.1326
  284MOL0     C39118  -0.233  10.725   2.263 -0.0759  0.8054  0.2848
  284MOL0     C39119  -0.215  10.679   2.371  0.4764 -0.1905  0.5128
  284MOL0     C39120   0.058  10.741   1.708  0.6676 -0.6856 -0.1879
  284MOL0     C39121   0.057  10.715   1.575 -0.7964 -0.7234  0.4538
  284MOL0     C39122  -0.080  10.712   1.501 -0.5914  0.5260 -1.0717
  284MOL0     H39123   0.424  10.773   1.152 -1.7153  1.1797 -2.6199
  284MOL0     H39124   0.474  10.725   0.941 -4.7577  3.2699  1.7462
  284MOL0     H39125   0.610  10.545   0.793 -0.1515 -2.4873 -0.5982
  284MOL0     H39126   0.482  10.655   0.735 -1.7253  0.4927 -0.2051
  284MOL0     H39127   0.519  10.402   0.581 -3.1693  0.4069  2.9489
  284MOL0     H39128   0.468  10.571   0.523  2.1503  1.2109 -1.5283
  284MOL0     H39129   0.720  10.627   0.565 -0.5696 -1.3013  1.2429
  284MOL0     H39130   0.728  10.445   0.576 -3.8781 -2.7093 -0.8690
  284MOL0     H39131   0.572  10.495   0.339 -0.7758  0.4490  1.8832
  284MOL0     H39132   0.685  10.622   0.330  4.6727 -0.9602 -0.6961
  284MOL0     H39133   0.767  10.332   0.359 -2.3774  0.6901  0.6728
  284MOL0     H39134   0.871  10.472   0.382 -0.3446  1.8001  1.4018
  284MOL0     H39135   0.699  10.464   0.132 -0.6913  1.9058  0.6875
  284MOL0     H39136   0.844  10.553   0.161 -2.8571  0.3667 -0.6414
  284MOL0     H39137   0.863  10.355   0.011 -0.1879 -2.3851 -1.1355
  284MOL0     H39138   0.840  10.251   0.153  0.7186  1.0152  2.5320
  284MOL0     H39139   1.076  10.454   0.116  0.9157  0.8082 -0.0277
  284MOL0     H39140   1.050  10.350   0.253 -4.5161  2.0259  0.8616
  284MOL0     H39141   1.043  10.066   0.155 -0.5661  2.7307  2.1795
  284MOL0     H39142   1.313   9.901   0.123 -2.0367  2.3109  0.5779
  284MOL0     H39143   1.327   9.889  -0.051 -1.7476 -1.1733 -1.3156
  284MOL0     H39144   1.168   9.723   0.047  0.6836 -0.9963 -1.1323
  284MOL0     H39145   1.056   9.855   0.066  1.5769 -0.2543  3.2822
  284MOL0     H39146   1.011   9.750  -0.139 -0.8054  0.9470  0.3835
  284MOL0     H39147   1.085   9.905  -0.189  0.6340 -0.4071  0.1473
  284MOL0     H39148   1.298   9.760  -0.197 -0.3745 -0.1670  3.5553
  284MOL0     H39149   1.175   9.625  -0.174 -0.8162  0.8792  0.9986
  284MOL0     H39150   1.143   9.669  -0.608 -0.4493 -1.2192  1.6275
  284MOL0     H39151   1.332   9.475  -0.867 -2.4972 -0.2210 -0.7705
  284MOL0     H39152   1.360   9.656  -0.845 -1.7688  0.2931  0.3154
  284MOL0     H39153   1.202   9.578  -0.844 -0.5057 -0.2794  0.4330
  284MOL0     H39154   1.839   9.560  -0.668  0.7505  0.2651  0.1717
  284MOL0     H39155   2.064   9.495  -0.772  0.6986 -1.0436  0.2164
  284MOL0     H39156   2.250   9.278  -0.620 -0.3257  2.0107 -1.9684
  284MOL0     H39157   2.219   9.117  -0.678 -0.1445 -0.2758  0.2358
  284MOL0     H39158   2.401   9.113  -0.833 -2.6247 -1.4510  1.8028
  284MOL0     H39159   2.439   9.293  -0.786  0.4674  0.2423  2.2219
  284MOL0     H39160   2.491   9.212  -0.558  1.2581  0.7031 -1.8377
  284MOL0     H39161   2.589   9.147  -0.671  1.3442 -2.9208  2.3369
  284MOL0     H39162   2.479   8.938  -0.684  2.2072 -0.4188 -0.0482
  284MOL0     H39163   2.371   8.988  -0.541  0.3719  2.1400  0.6914
  284MOL0     H39164   2.674   8.960  -0.541  1.6206 -3.9671  0.9763
  284MOL0     H39165   2.567   9.020  -0.410 -1.9854 -0.9371  0.3968
  284MOL0     H39166   2.559   8.742  -0.547 -2.2916 -1.5892  0.5183
  284MOL0     H39167   2.443   8.795  -0.440  0.7747  0.1483  2.1620
  284MOL0     H39168   2.635   8.837  -0.268  1.2850 -2.2083  2.1862
  284MOL0     H39169   2.759   8.785  -0.379  1.4752  3.1836  1.8975
  284MOL0     H39170   2.528   8.590  -0.287 -0.4517 -1.2015  0.2404
  284MOL0     H39171   2.693   8.608  -0.218  0.3540  0.6068 -0.2088
  284MOL0     H39172   1.986   9.096  -0.765 -1.8396 -1.1693  1.8364
  284MOL0     H39173   1.766   9.135  -0.667  2.6573 -2.5727 -3.9972
  284MOL0     H39174   1.531   9.453  -0.422 -1.0187  0.0762  0.4888
  284MOL0     H39175   1.364   9.549  -0.272  0.9682  1.5857  0.6818
  284MOL0     H39176   0.285  10.325   0.981 -0.7103 -1.3113  0.1569
  284MOL0     H39177   0.247  10.383   1.203  3.7886 -1.8234 -0.2558
  284MOL0     H39178   0.398  10.673   1.538  0.4768 -0.5274  0.0374
  284MOL0     H39179   0.390  10.738   1.781  0.5357 -1.8674 -0.2848
  284MOL0     H39180   0.099  10.927   2.053  1.4824 -2.2416  0.6125
  284MOL0     H39181   0.019  10.935   1.900 -0.1702  0.9671 -0.3704
  284MOL0     H39182   0.006  10.726   2.125  2.3306  0.8024 -0.6437
  284MOL0     H39183  -0.052  10.686   1.958  2.3987  0.8640 -1.4781
  284MOL0     H39184  -0.144  10.938   2.113 -3.1974  0.3206 -0.6151
  284MOL0     H39185  -0.207  10.874   1.954 -1.3075 -1.5433 -0.5170
  284MOL0     H39186  -0.301  10.691   2.074  0.9463 -0.1058 -0.7375
  284MOL0     H39187  -0.349  10.854   2.146 -0.9692 -1.4588  2.6108
  284MOL0     H39188  -0.205  10.649   2.474  0.7469  1.1364  0.9018
  284MOL0     H39189  -0.038  10.771   1.750 -0.0104 -2.0245 -0.7280
  284MOL0     H39190  -0.089  10.803   1.441  0.9176  0.6217 -1.1895
  284MOL0     H39191  -0.094  10.623   1.440 -3.1821 -0.0645  0.2562
  284MOL0     H39192  -0.161  10.703   1.573  0.3936  0.3302  0.0458
  285MOL0     O39193   4.130   8.539   8.590 -0.0173  0.5166 -0.0947
  285MOL0     C39194   4.158   8.421   8.632  0.0492 -0.8165  0.6766
  285MOL0     O39195   4.195   8.324   8.552 -0.3891  0.0950  0.0366
  285MOL0     C39196   4.274   8.359   8.440  0.1591 -0.5467 -0.1109
  285MOL0     C39197   4.413   8.344   8.442 -0.0907  0.5482 -0.2074
  285MOL0     C39198   4.491   8.374   8.335  0.2421  0.9217  0.5313
  285MOL0     C39199   4.432   8.433   8.224  0.4141 -0.0317  0.1278
  285MOL0     O39200   4.508   8.476   8.116  0.3462  0.5549 -0.2215
  285MOL0     C39201   4.470   8.481   7.982  0.1016 -0.2567 -0.2225
  285MOL0     C39202   4.530   8.365   7.905 -0.0674  0.3990  0.1879
  285MOL0     C39203   4.679   8.379   7.905 -0.0829 -0.4159 -1.2092
  285MOL0     C39204   4.757   8.324   8.031 -0.4242 -0.7865 -0.7091
  285MOL0     C39205   4.908   8.340   8.012  0.0611  0.8767 -0.0878
  285MOL0     C39206   4.983   8.292   8.139  0.7768 -0.3912  0.0262
  285MOL0     C39207   5.131   8.282   8.121 -0.7642 -0.1833  0.8220
  285MOL0     C39208   5.213   8.368   8.225 -0.0568  0.2510 -1.1241
  285MOL0     N39209   5.206   8.510   8.191  0.2502  0.1400 -0.8411
  285MOL0     C39210   5.101   8.588   8.222  0.4890 -0.7573 -0.2066
  285MOL0     C39211   5.136   8.712   8.174 -0.1358  0.8510  0.2961
  285MOL0     C39212   5.060   8.841   8.172 -0.4340  0.1442  0.0489
  285MOL0     C39213   5.001   8.888   8.307 -0.4868  0.7350  0.9119
  285MOL0     C39214   4.978   9.038   8.306  0.1992 -0.5413 -0.1863
  285MOL0     C39215   4.936   9.079   8.449  0.1278 -0.2223 -0.2567
  285MOL0     O39216   5.050   9.049   8.540  0.6395  0.2963 -0.2795
  285MOL0     C39217   5.009   9.030   8.673 -0.5491  0.1658  0.3747
  285MOL0     C39218   4.944   9.135   8.739 -1.1327 -0.1036  0.0839
  285MOL0     C39219   4.918   9.135   8.865  0.2272 -1.0306  0.0980
  285MOL0     C39220   4.840   9.259   8.913 -0.3394 -0.2575 -0.3827
  285MOL0     C39221   4.955   9.024   8.946  0.6386 -0.7074  0.5324
  285MOL0     C39222   4.931   9.013   9.093  1.2749 -0.1544 -0.8842
  285MOL0     O39223   4.982   8.911   9.167 -0.3279 -0.0105 -0.5530
  285MOL0     C39224   4.944   8.876   9.301 -0.4088  0.0091 -1.3786
  285MOL0     C39225   4.894   8.966   9.401 -0.1206  0.1651  0.0931
  285MOL0     C39226   4.879   8.902   9.530  0.1355 -0.7229 -0.3277
  285MOL0     C39227   4.895   8.765   9.552  0.4345  0.2856  0.8418
  285MOL0     O39228   4.894   8.709   9.680 -0.2103  0.1561  0.4742
  285MOL0     C39229   4.907   8.792   9.795  0.1595 -0.2565 -0.3385
  285MOL0     C39230   4.954   8.709   9.918 -0.5645  0.3213  0.3054
  285MOL0     C39231   4.863   8.592   9.962  0.6721 -0.5650 -0.4348
  285MOL0     C39232   4.905   8.522  10.093 -0.2072 -0.0613 -0.1370
  285MOL0     C39233   4.829   8.396  10.126 -0.4362 -0.7749  0.5622
  285MOL0     C39234   4.860   8.279  10.026  0.4651 -0.3678 -0.1924
  285MOL0     C39235   4.773   8.157  10.058 -0.3966 -0.4482 -0.1045
  285MOL0     C39236   4.846   8.028  10.026  0.0802  1.0275  0.4616
  285MOL0    Cl39237   4.763   7.889  10.082  0.0430  0.1174 -0.1029
  285MOL0     C39238   4.940   8.687   9.447 -0.6905  0.2080  0.0968
  285MOL0     C39239   4.971   8.742   9.330  0.7660 -0.2806  0.1286
  285MOL0     O39240   4.872   9.109   9.145 -0.2039 -0.2680  0.2122
  285MOL0     C39241   5.028   8.916   8.881  0.8832 -0.5517  0.8048
  285MOL0     C39242   5.050   8.917   8.740  0.0704  0.2310  0.1656
  285MOL0     N39243   5.245   8.688   8.090  0.1046 -0.4073  0.4538
  285MOL0     N39244   5.291   8.576   8.105  0.2504 -0.4065 -0.0609
  285MOL0     C39245   4.293   8.454   8.223  0.3004 -0.8923  0.2330
  285MOL0     C39246   4.213   8.420   8.332 -0.5780 -1.1837  0.0957
  285MOL0     C39247   4.137   8.377   8.772  0.9903  0.1339  0.0858
  285MOL0     C39248   4.182   8.255   8.819 -0.7160 -0.6243 -0.6830
  285MOL0     C39249   4.186   8.220   8.947  0.8591 -0.0908  0.4974
  285MOL0     C39250   4.148   8.317   9.036 -0.0289 -0.2995  0.4636
  285MOL0     O39251   4.151   8.286   9.173  0.4387 -0.7647 -0.2208
  285MOL0     C39252   4.222   8.175   9.223 -0.1621 -0.3838  0.2096
  285MOL0     C39253   4.218   8.178   9.374  0.2192 -0.2105  0.4310
  285MOL0     C39254   4.183   8.320   9.433  0.1759 -0.4324 -0.2603
  285MOL0     C39255   4.296   8.425   9.440 -0.6440  0.5714 -0.3356
  285MOL0     C39256   4.240   8.548   9.503 -0.6125 -0.0099 -0.6838
  285MOL0     C39257   4.212   8.642   9.576 -0.3430  0.5738 -0.8648
  285MOL0     C39258   4.094   8.437   8.996 -0.6258  0.0092 -0.2781
  285MOL0     C39259   4.090   8.476   8.863 -0.5178 -0.4141 -0.6123
  285MOL0     C39260   4.060   8.625   8.850  0.5472  0.2268  0.1372
  285MOL0     H39261   4.459   8.304   8.531 -1.1403 -1.6476 -0.5766
  285MOL0     H39262   4.597   8.348   8.340 -0.1579 -1.4687 -1.4732
  285MOL0     H39263   4.492   8.579   7.939  1.2611  0.8117  2.6072
  285MOL0     H39264   4.361   8.476   7.974  0.2632 -1.5116 -3.4631
  285MOL0     H39265   4.497   8.275   7.958  1.0142 -1.2149 -1.7589
  285MOL0     H39266   4.491   8.378   7.804 -1.6592  1.4865  0.8789
  285MOL0     H39267   4.711   8.323   7.817  0.3671 -1.4955 -0.3858
  285MOL0     H39268   4.718   8.479   7.887 -0.4079  0.0140  0.3309
  285MOL0     H39269   4.733   8.374   8.125 -2.8784 -0.9309 -1.1948
  285MOL0     H39270   4.725   8.221   8.048 -0.1763 -1.0879 -1.9806
  285MOL0     H39271   4.941   8.439   7.979  3.7814 -0.9720 -2.6850
  285MOL0     H39272   4.922   8.272   7.928 -2.8442  2.6973 -2.2085
  285MOL0     H39273   4.961   8.367   8.216 -0.6162  2.1132 -2.6249
  285MOL0     H39274   4.948   8.191   8.161  4.2701 -1.7039  0.0683
  285MOL0     H39275   5.176   8.309   8.025 -1.4093 -1.5545  0.1125
  285MOL0     H39276   5.144   8.175   8.135 -4.0734 -0.5505  2.0770
  285MOL0     H39277   5.172   8.343   8.323 -2.4502 -3.2087 -2.7871
  285MOL0     H39278   5.321   8.356   8.221  0.0833  1.4987 -1.5501
  285MOL0     H39279   5.006   8.565   8.268  0.3391  0.8147  0.2992
  285MOL0     H39280   4.981   8.809   8.104 -0.0630 -4.6733  1.5072
  285MOL0     H39281   5.126   8.920   8.133 -1.6187  1.5043  0.6738
  285MOL0     H39282   4.909   8.834   8.328  0.4361 -0.5962  1.6670
  285MOL0     H39283   5.080   8.860   8.377 -2.0729 -0.8461  2.1346
  285MOL0     H39284   5.071   9.091   8.281  0.2469 -0.9430 -0.9175
  285MOL0     H39285   4.899   9.062   8.234 -0.5854 -0.0893  0.8152
  285MOL0     H39286   4.912   9.185   8.438 -2.4895 -0.7684 -0.5174
  285MOL0     H39287   4.843   9.035   8.485 -1.1474  2.2430 -0.3773
  285MOL0     H39288   4.914   9.217   8.675 -2.5256 -2.3343 -2.3523
  285MOL0     H39289   4.898   9.308   8.992 -2.0325 -0.9791  1.4129
  285MOL0     H39290   4.738   9.233   8.946 -0.4407 -1.4407 -1.5153
  285MOL0     H39291   4.821   9.328   8.831  4.0467 -1.2242 -2.4919
  285MOL0     H39292   4.897   9.071   9.372  2.3939 -1.0119 -5.2773
  285MOL0     H39293   4.848   8.960   9.617  1.4445  2.2606 -1.6963
  285MOL0     H39294   4.979   8.870   9.768 -0.6619  0.3852 -0.7388
  285MOL0     H39295   4.815   8.843   9.825  1.1056  0.9312  0.6375
  285MOL0     H39296   5.056   8.675   9.899 -0.6219  2.2380 -4.9088
  285MOL0     H39297   4.958   8.785   9.998  1.1112  1.0843 -0.4702
  285MOL0     H39298   4.856   8.518   9.882 -0.2911 -0.3716 -0.5400
  285MOL0     H39299   4.769   8.645   9.980 -0.2012 -1.0746 -3.0994
  285MOL0     H39300   4.879   8.586  10.178  0.5303 -1.1807  0.9657
  285MOL0     H39301   5.012   8.502  10.103 -0.3968  0.0666  4.1110
  285MOL0     H39302   4.854   8.371  10.230  0.0318 -2.3062  0.1004
  285MOL0     H39303   4.722   8.419  10.129 -0.4611 -0.8342  0.1563
  285MOL0     H39304   4.968   8.265  10.031  0.5411  0.1687 -0.2329
  285MOL0     H39305   4.834   8.306   9.923  1.2723 -0.9943 -0.5682
  285MOL0     H39306   4.681   8.174  10.001  0.1438  1.8510 -0.4152
  285MOL0     H39307   4.750   8.146  10.164  1.5841 -2.1565  0.2138
  285MOL0     H39308   4.947   8.040  10.068 -0.8508  3.0787  2.3431
  285MOL0     H39309   4.853   8.008   9.919  0.9467  0.9313  0.5318
  285MOL0     H39310   4.951   8.579   9.450 -3.3266 -0.1990 -1.5564
  285MOL0     H39311   5.005   8.675   9.252 -1.9801  0.1234 -1.5317
  285MOL0     H39312   5.054   8.826   8.936 -3.8783 -2.5576  0.2887
  285MOL0     H39313   5.102   8.836   8.691 -1.2946 -0.1932 -0.6385
  285MOL0     H39314   4.241   8.515   8.149 -0.9982 -0.5962  1.3446
  285MOL0     H39315   4.106   8.440   8.330 -1.0714 -3.6455 -0.4883
  285MOL0     H39316   4.227   8.187   8.748  0.7373  1.5735 -1.9619
  285MOL0     H39317   4.225   8.122   8.972 -3.6467 -1.8724  1.3253
  285MOL0     H39318   4.188   8.084   9.173  0.8564 -0.4329 -0.4013
  285MOL0     H39319   4.326   8.190   9.195 -0.3528  2.1623  0.6364
  285MOL0     H39320   4.313   8.139   9.411 -0.0391  1.0554  2.6202
  285MOL0     H39321   4.142   8.111   9.415 -2.1698  0.6052 -2.3656
  285MOL0     H39322   4.106   8.374   9.377  2.6135  3.2755 -0.3607
  285MOL0     H39323   4.149   8.307   9.536  0.4769 -0.4757 -0.1647
  285MOL0     H39324   4.322   8.444   9.335  1.7285 -3.2543 -0.6490
  285MOL0     H39325   4.381   8.389   9.499  0.8434  0.4049 -2.4730
  285MOL0     H39326   4.190   8.728   9.636 -0.3060 -1.0462  1.6168
  285MOL0     H39327   4.066   8.510   9.072  1.2919  1.2351 -0.6867
  285MOL0     H39328   4.126   8.668   8.775  1.2338 -0.7630  0.1540
  285MOL0     H39329   3.954   8.635   8.825  1.0876 -0.5656 -2.8905
  285MOL0     H39330   4.078   8.667   8.949  0.5422  2.9308 -0.9071
  286MOL0     O39331   2.577   6.933   2.760  0.1104  0.1181 -0.4817
  286MOL0     C39332   2.561   6.816   2.715 -0.7492 -0.2224  0.8773
  286MOL0     O39333   2.552   6.786   2.584 -0.3881  0.1502 -0.0490
  286MOL0     C39334   2.500   6.877   2.504 -0.8357 -0.9267 -0.3875
  286MOL0     C39335   2.370   6.926   2.501 -0.5955 -0.5577  0.2107
  286MOL0     C39336   2.323   7.012   2.405 -0.2025  0.2864 -0.3343
  286MOL0     C39337   2.411   7.068   2.311  0.4592  0.6182 -0.3332
  286MOL0     O39338   2.371   7.171   2.232 -0.6930  0.4941 -0.3737
  286MOL0     C39339   2.461   7.284   2.232  0.4998 -0.6846 -0.8125
  286MOL0     C39340   2.423   7.384   2.342  0.4856  0.0404  0.1943
  286MOL0     C39341   2.477   7.352   2.483 -0.6533 -0.0766  0.5229
  286MOL0     C39342   2.396   7.424   2.590  0.4944  0.2382  0.4440
  286MOL0     C39343   2.418   7.372   2.733 -0.7418 -0.5228 -0.3843
  286MOL0     C39344   2.561   7.375   2.777 -0.0743  0.9796  0.0636
  286MOL0     C39345   2.584   7.348   2.931 -0.6418 -0.0723 -1.0875
  286MOL0     C39346   2.737   7.334   2.973  0.0504 -0.0703  0.6410
  286MOL0     N39347   2.744   7.272   3.112 -0.4009 -0.4824  0.3545
  286MOL0     C39348   2.869   7.235   3.169  0.2258 -0.5627  0.3890
  286MOL0     C39349   2.833   7.163   3.274 -1.1034 -0.4726  0.2347
  286MOL0     C39350   2.913   7.074   3.358 -0.0624 -0.0060 -0.8679
  286MOL0     C39351   3.055   7.120   3.369  0.2337 -0.0149  0.6658
  286MOL0     C39352   3.153   7.052   3.473  0.5055 -0.6677 -0.6183
  286MOL0     C39353   3.176   6.909   3.425 -0.6407  0.6124  0.2624
  286MOL0     O39354   3.280   6.839   3.501 -0.2363 -0.2656  0.2566
  286MOL0     C39355   3.282   6.865   3.638  0.6607  0.7447  0.7669
  286MOL0     C39356   3.175   6.853   3.725 -0.4193  0.1940 -0.3774
  286MOL0     C39357   3.188   6.864   3.866  0.3154 -0.7520 -0.7187
  286MOL0     C39358   3.070   6.831   3.954 -0.1763  0.2330  0.3350
  286MOL0     C39359   3.316   6.910   3.916  0.5303  0.0122 -0.4119
  286MOL0     C39360   3.345   6.947   4.063  0.1896 -0.6345  0.2785
  286MOL0     O39361   3.462   7.021   4.088 -0.0466  0.0614  0.2518
  286MOL0     C39362   3.511   7.032   4.215  0.4399 -0.3500 -0.3225
  286MOL0     C39363   3.489   7.150   4.282  0.0981 -0.2438 -0.0628
  286MOL0     C39364   3.522   7.170   4.416  0.5472  1.0245  0.1481
  286MOL0     C39365   3.588   7.067   4.482  0.2438  0.1929  0.5988
  286MOL0     O39366   3.640   7.093   4.607  0.8126  0.5155 -0.3694
  286MOL0     C39367   3.546   7.152   4.698  0.2966 -0.3051  0.4109
  286MOL0     C39368   3.603   7.142   4.837  0.0357 -0.3347  0.3758
  286MOL0     C39369   3.494   7.166   4.943 -0.4370  0.2078  0.2672
  286MOL0     C39370   3.573   7.176   5.074  0.1565 -0.4278 -0.8334
  286MOL0     C39371   3.485   7.224   5.194  0.1904  0.2909 -0.6024
  286MOL0     C39372   3.553   7.178   5.327  0.1502  0.9302 -0.5340
  286MOL0     C39373   3.522   7.273   5.439 -0.2374  0.1235  0.7773
  286MOL0     C39374   3.559   7.224   5.579  1.1131  0.7393  1.1007
  286MOL0    Cl39375   3.731   7.206   5.590 -0.4505  0.1264 -0.0142
  286MOL0     C39376   3.622   6.943   4.424 -0.2290  0.1997  0.0619
  286MOL0     C39377   3.590   6.936   4.283  0.4364 -0.2010  0.1129
  286MOL0     O39378   3.259   6.933   4.144 -0.3591  0.0817 -0.9108
  286MOL0     C39379   3.418   6.925   3.828  0.0970 -0.0731  0.1980
  286MOL0     C39380   3.404   6.895   3.692 -0.3020  0.1196  0.6545
  286MOL0     N39381   2.695   7.174   3.289 -0.1630 -0.1893  0.3060
  286MOL0     N39382   2.647   7.254   3.197 -0.0271  0.0325  0.1405
  286MOL0     C39383   2.543   7.020   2.304 -0.7419  0.3191  0.0630
  286MOL0     C39384   2.588   6.929   2.404  0.2409  1.0955 -0.4032
  286MOL0     C39385   2.586   6.702   2.808 -0.7031 -1.1540  0.4476
  286MOL0     C39386   2.642   6.592   2.749 -0.7938  0.6528 -0.6815
  286MOL0     C39387   2.669   6.482   2.834 -1.3804 -0.0051  0.3744
  286MOL0     C39388   2.630   6.477   2.969  0.6892 -0.6345  0.2998
  286MOL0     O39389   2.630   6.361   3.043  1.1939 -0.0721 -0.0757
  286MOL0     C39390   2.530   6.266   3.010  1.0370  0.1305  0.2737
  286MOL0     C39391   2.574   6.128   3.055  0.1726  0.3817  0.5959
  286MOL0     C39392   2.715   6.098   2.993 -0.7060 -0.0798  0.2347
  286MOL0     C39393   2.778   5.967   3.041 -0.8307  0.1568  0.8725
  286MOL0     C39394   2.915   5.961   2.988 -0.6821 -1.3867  0.1536
  286MOL0     C39395   3.027   5.964   2.943  0.0572  0.6082  0.0462
  286MOL0     C39396   2.567   6.593   3.016  0.9923 -0.5379  0.4160
  286MOL0     C39397   2.536   6.701   2.939  0.5633  0.3152  0.0908
  286MOL0     C39398   2.461   6.801   3.012  0.1952  0.0002  0.5024
  286MOL0     H39399   2.301   6.895   2.579 -0.6281 -1.2912 -0.0949
  286MOL0     H39400   2.224   7.056   2.404  0.8514  2.9308  0.8820
  286MOL0     H39401   2.449   7.327   2.132 -2.9240 -1.1909 -0.7366
  286MOL0     H39402   2.568   7.263   2.242  0.7346  0.3031 -1.0866
  286MOL0     H39403   2.447   7.487   2.312 -1.7352  0.5134 -0.1541
  286MOL0     H39404   2.314   7.382   2.355  0.5938 -0.9029  1.0752
  286MOL0     H39405   2.462   7.247   2.511  0.7972 -0.4637 -0.0812
  286MOL0     H39406   2.584   7.371   2.483 -0.9983  2.6655 -2.5669
  286MOL0     H39407   2.411   7.531   2.574 -2.0657  0.6420  0.3458
  286MOL0     H39408   2.292   7.408   2.561  0.6144  2.5947 -1.6631
  286MOL0     H39409   2.378   7.273   2.758  1.9454 -1.5806  0.1535
  286MOL0     H39410   2.366   7.438   2.803  0.1941  0.6017 -0.7144
  286MOL0     H39411   2.595   7.290   2.717 -2.1089  1.5643 -2.0667
  286MOL0     H39412   2.614   7.465   2.745 -0.9041  1.2583 -0.5647
  286MOL0     H39413   2.527   7.262   2.968 -1.4765  0.6463 -0.6457
  286MOL0     H39414   2.539   7.436   2.979 -2.5938  0.4025 -3.5417
  286MOL0     H39415   2.787   7.267   2.902  1.3308  0.6413  0.8444
  286MOL0     H39416   2.785   7.433   2.979  0.9789 -0.5028  0.5393
  286MOL0     H39417   2.967   7.235   3.123  0.3210 -1.2181  0.5849
  286MOL0     H39418   2.912   6.972   3.319  2.5281 -1.2521  1.8994
  286MOL0     H39419   2.873   7.063   3.459  1.3112 -2.3131 -0.4962
  286MOL0     H39420   3.104   7.104   3.273 -1.1792 -1.2231  0.1146
  286MOL0     H39421   3.056   7.225   3.401  1.2152  0.0913  0.3368
  286MOL0     H39422   3.248   7.106   3.473  0.0927  0.1250  1.0577
  286MOL0     H39423   3.113   7.069   3.573  1.2554 -0.8784 -0.2730
  286MOL0     H39424   3.090   6.844   3.439 -0.4659  0.5786  1.2220
  286MOL0     H39425   3.203   6.903   3.318  1.3258 -0.2214  0.7437
  286MOL0     H39426   3.081   6.821   3.682 -1.2584 -0.6207  1.9013
  286MOL0     H39427   2.990   6.787   3.894 -1.5373  2.3716  0.4884
  286MOL0     H39428   3.032   6.922   4.003  1.5909  2.4871 -2.1849
  286MOL0     H39429   3.107   6.761   4.030  1.0270  0.5656  0.0803
  286MOL0     H39430   3.441   7.226   4.220 -0.5355  1.5683  2.4801
  286MOL0     H39431   3.518   7.269   4.459 -1.6739  1.2317 -0.3833
  286MOL0     H39432   3.549   7.259   4.672  0.3225 -1.0813 -3.3285
  286MOL0     H39433   3.442   7.120   4.694 -0.5682  2.2815  0.4408
  286MOL0     H39434   3.622   7.035   4.853 -1.3484 -0.3261  2.4721
  286MOL0     H39435   3.692   7.204   4.848  0.3217 -0.6834  0.0753
  286MOL0     H39436   3.416   7.090   4.950  0.1196 -0.3273  0.6104
  286MOL0     H39437   3.457   7.269   4.935  0.2496  0.4895  0.6704
  286MOL0     H39438   3.652   7.252   5.067 -0.0900  0.0793  1.1720
  286MOL0     H39439   3.628   7.083   5.086  3.6607  1.8444  3.5329
  286MOL0     H39440   3.465   7.331   5.184  1.5155  0.9917  2.8924
  286MOL0     H39441   3.387   7.181   5.215  0.1897  1.3784  1.9917
  286MOL0     H39442   3.661   7.163   5.326 -0.2214 -2.6110 -0.8903
  286MOL0     H39443   3.521   7.078   5.360  1.0775  1.3223  1.6852
  286MOL0     H39444   3.415   7.295   5.436 -0.1315  0.5981 -0.7691
  286MOL0     H39445   3.574   7.368   5.422 -0.8017  0.4661  0.9421
  286MOL0     H39446   3.516   7.124   5.591 -2.9306  2.0025 -0.8793
  286MOL0     H39447   3.513   7.276   5.663  1.1317  1.6879  0.5460
  286MOL0     H39448   3.682   6.865   4.469 -1.2194 -2.1264 -2.3907
  286MOL0     H39449   3.634   6.858   4.222 -0.1560 -1.4780  1.2629
  286MOL0     H39450   3.513   6.948   3.875  0.8559  0.1928 -1.3797
  286MOL0     H39451   3.493   6.902   3.630 -0.8344  2.3585  0.0294
  286MOL0     H39452   2.614   7.069   2.237 -1.8780 -1.5846 -2.7260
  286MOL0     H39453   2.688   6.889   2.400 -0.4966 -0.8391 -0.8708
  286MOL0     H39454   2.675   6.586   2.646 -3.6378 -0.5305 -1.6324
  286MOL0     H39455   2.723   6.395   2.796 -0.5916  0.5711  0.1405
  286MOL0     H39456   2.438   6.292   3.063 -0.5420 -2.3857 -1.0855
  286MOL0     H39457   2.499   6.262   2.906  2.7162 -0.4446 -0.2418
  286MOL0     H39458   2.508   6.048   3.021  2.3886 -0.8405 -1.0659
  286MOL0     H39459   2.570   6.128   3.164 -0.4411  0.4197  0.5755
  286MOL0     H39460   2.712   6.104   2.883  2.6773  0.9730  0.1011
  286MOL0     H39461   2.783   6.176   3.027  1.2338 -2.1506  1.3310
  286MOL0     H39462   2.720   5.879   3.012 -1.0926  0.1095  1.5384
  286MOL0     H39463   2.778   5.976   3.150 -2.9651  1.1538  0.8348
  286MOL0     H39464   3.115   5.968   2.882  0.3909 -0.7063  0.4274
  286MOL0     H39465   2.549   6.599   3.123  1.4186  0.8165  0.4323
  286MOL0     H39466   2.522   6.865   3.077  0.1057  0.8556 -0.2316
  286MOL0     H39467   2.415   6.876   2.947  0.6506  0.3216  0.5488
  286MOL0     H39468   2.374   6.769   3.070  0.1702  2.5667  2.0381
  287MOL0     O39469   7.973   6.888  10.120  0.0409 -1.1236  0.6772
  287MOL0     C39470   8.038   6.858  10.022  0.0900 -0.4527  0.0978
  287MOL0     O39471   8.103   6.949   9.937 -0.4250  0.1805  0.5108
  287MOL0     C39472   8.100   7.087   9.951  0.3789 -0.1418 -0.2553
  287MOL0     C39473   8.209   7.164   9.898 -0.2646 -0.0636  0.1759
  287MOL0     C39474   8.206   7.308   9.915  0.4258  0.2804  0.4246
  287MOL0     C39475   8.098   7.371   9.992  0.0121  0.1147  0.9912
  287MOL0     O39476   8.092   7.507  10.009 -0.0928 -0.3166 -0.1728
  287MOL0     C39477   8.102   7.561  10.149  0.9260  0.2756  0.9698
  287MOL0     C39478   8.003   7.683  10.158 -0.1358  0.0388  0.0257
  287MOL0     C39479   7.861   7.636  10.171 -0.2197 -0.7108  0.1094
  287MOL0     C39480   7.764   7.758  10.169  0.0110  0.3309 -0.4411
  287MOL0     C39481   7.741   7.800  10.318  0.3131  0.6021  0.2585
  287MOL0     C39482   7.651   7.926  10.325 -0.9340 -0.5647  0.6103
  287MOL0     C39483   7.613   7.949  10.472  0.5532 -0.7230 -0.3753
  287MOL0     C39484   7.526   8.073  10.488  0.1768 -0.1602  0.5751
  287MOL0     N39485   7.473   8.086  10.622  0.2561 -0.2419  0.2999
  287MOL0     C39486   7.537   8.154  10.727 -0.0934 -1.0676  0.9674
  287MOL0     C39487   7.453   8.156  10.835  0.4159  0.2334 -0.1179
  287MOL0     C39488   7.455   8.220  10.970 -0.4422  0.3351 -0.0473
  287MOL0     C39489   7.390   8.363  10.973  0.3840  0.0094 -0.0532
  287MOL0     C39490   7.251   8.387  10.913  0.9587 -0.3794 -1.1889
  287MOL0     C39491   7.148   8.294  10.986 -0.6619  0.0023 -0.0208
  287MOL0     O39492   7.016   8.349  10.984  0.0060  0.1852  0.4006
  287MOL0     C39493   6.933   8.297  10.887 -0.5794  0.0248 -0.8018
  287MOL0     C39494   6.804   8.346  10.879  0.2008  0.0865 -0.3897
  287MOL0     C39495   6.713   8.305  10.780  0.0161 -0.1329  0.2467
  287MOL0     C39496   6.579   8.376  10.771  0.8057 -0.1979  0.2609
  287MOL0     C39497   6.743   8.205  10.688  0.1986  1.2297  0.9281
  287MOL0     C39498   6.640   8.143  10.596 -0.7815 -0.2898 -0.4391
  287MOL0     O39499   6.514   8.152  10.627  0.2710 -0.1368  0.2537
  287MOL0     C39500   6.412   8.122  10.535 -0.3348  0.2698 -0.7789
  287MOL0     C39501   6.292   8.070  10.583 -0.2046 -0.2946 -0.2066
  287MOL0     C39502   6.184   8.048  10.502 -0.8002  0.5350  0.9143
  287MOL0     C39503   6.191   8.070  10.364  0.2094  0.8448  0.6015
  287MOL0     O39504   6.087   8.004  10.298 -0.2535  0.0027  0.0159
  287MOL0     C39505   6.099   7.996  10.160 -0.7441  0.6610 -0.1572
  287MOL0     C39506   5.982   7.922  10.106 -0.3767 -1.0946  0.1827
  287MOL0     C39507   5.850   7.983  10.150 -0.3861 -0.0402 -0.8378
  287MOL0     C39508   5.819   8.127  10.095  0.8176 -0.5197 -0.6125
  287MOL0     C39509   5.747   8.114   9.956  0.4806  0.5793 -0.1623
  287MOL0     C39510   5.697   8.235   9.891 -0.0661 -0.1562 -1.1207
  287MOL0     C39511   5.633   8.218   9.758  0.4064 -0.1216 -0.0711
  287MOL0     C39512   5.685   8.314   9.658 -0.2050 -0.4552 -0.0427
  287MOL0    Cl39513   5.650   8.490   9.706  0.2736 -0.3887 -0.0324
  287MOL0     C39514   6.312   8.115  10.312  0.4063 -0.3436 -0.5302
  287MOL0     C39515   6.411   8.156  10.398  0.1975 -0.6850  0.0934
  287MOL0     O39516   6.693   8.107  10.488 -0.1791  0.0348  0.5789
  287MOL0     C39517   6.873   8.150  10.695 -0.1105  0.6514  0.5764
  287MOL0     C39518   6.972   8.194  10.784  0.6814 -0.3599 -0.0508
  287MOL0     N39519   7.346   8.077  10.798 -0.5389 -0.2487 -0.2451
  287MOL0     N39520   7.358   8.034  10.672 -1.0056  0.2491 -0.1069
  287MOL0     C39521   7.987   7.291  10.028 -0.7042 -0.3375 -0.5171
  287MOL0     C39522   7.991   7.152  10.016 -0.2558 -0.6125 -0.3781
  287MOL0     C39523   8.054   6.713   9.991 -0.9367  0.9411  0.6139
  287MOL0     C39524   8.140   6.683   9.875 -0.6559  0.1072 -0.2564
  287MOL0     C39525   8.151   6.546   9.824 -0.0291 -0.0960 -0.8507
  287MOL0     C39526   8.089   6.445   9.897 -0.0525  0.0825 -0.2552
  287MOL0     O39527   8.106   6.320   9.851  0.2715 -0.2645  0.8087
  287MOL0     C39528   8.021   6.211   9.902  0.1568  0.4617 -0.6463
  287MOL0     C39529   8.077   6.138  10.032  0.3980 -0.9963  0.9825
  287MOL0     C39530   7.983   6.054  10.107 -0.7595 -0.7235  0.8181
  287MOL0     C39531   7.854   6.136  10.155  0.2952  0.7045  0.1863
  287MOL0     C39532   7.764   6.031  10.210  0.4558  0.3318 -0.7993
  287MOL0     C39533   7.683   5.946  10.240 -1.0412 -0.7811  0.5725
  287MOL0     C39534   8.016   6.478  10.013 -0.6087  0.6260  0.0236
  287MOL0     C39535   7.989   6.608  10.059 -0.0019 -0.2043  0.4197
  287MOL0     C39536   7.906   6.619  10.183  0.4938 -0.4441  0.4703
  287MOL0     H39537   8.286   7.109   9.846 -1.0603 -1.1686  0.1442
  287MOL0     H39538   8.288   7.360   9.866  1.7050 -2.9398 -1.1715
  287MOL0     H39539   8.204   7.587  10.179  2.5530 -3.4334 -0.7056
  287MOL0     H39540   8.076   7.481  10.219  1.0613 -2.0267 -1.4427
  287MOL0     H39541   8.022   7.755  10.238 -0.3663 -0.6263  0.6903
  287MOL0     H39542   8.009   7.728  10.059 -0.5216 -1.5772 -0.7701
  287MOL0     H39543   7.837   7.579  10.081 -2.0831  3.1224 -2.0418
  287MOL0     H39544   7.848   7.566  10.255  0.9154 -1.4728 -0.3306
  287MOL0     H39545   7.812   7.839  10.113  1.0535  2.2808  2.9825
  287MOL0     H39546   7.671   7.729  10.118  0.7003  1.3160 -2.3791
  287MOL0     H39547   7.834   7.818  10.372  0.6964  0.3028 -0.2986
  287MOL0     H39548   7.704   7.707  10.362  3.0449 -0.7537 -0.0942
  287MOL0     H39549   7.695   8.016  10.281  2.7601 -2.3191  0.3020
  287MOL0     H39550   7.556   7.901  10.278 -1.9748  0.1724  2.2187
  287MOL0     H39551   7.703   7.967  10.531  0.2081  0.7214 -0.2433
  287MOL0     H39552   7.547   7.873  10.514 -2.7036  2.4245  0.7997
  287MOL0     H39553   7.582   8.166  10.475 -0.6825  1.0559  4.4369
  287MOL0     H39554   7.449   8.065  10.411  2.0659  0.9126 -1.5747
  287MOL0     H39555   7.618   8.226  10.722 -2.1405  1.3440  0.1843
  287MOL0     H39556   7.560   8.245  10.988  0.3426 -0.8665 -2.4470
  287MOL0     H39557   7.433   8.149  11.051  0.4211  0.2578  0.1239
  287MOL0     H39558   7.387   8.384  11.081 -2.9191 -1.5594  0.2779
  287MOL0     H39559   7.468   8.430  10.935 -0.1537  0.1267 -0.9749
  287MOL0     H39560   7.229   8.493  10.934  3.8023  0.4485 -1.8613
  287MOL0     H39561   7.249   8.387  10.804  1.1046 -0.2131 -1.1937
  287MOL0     H39562   7.159   8.189  10.957  1.9370  0.0786  0.4677
  287MOL0     H39563   7.180   8.300  11.090  0.1972  3.1006 -0.3582
  287MOL0     H39564   6.783   8.423  10.953 -2.1929  0.7613 -1.6731
  287MOL0     H39565   6.493   8.325  10.815 -0.5421  0.8585 -1.0796
  287MOL0     H39566   6.548   8.397  10.669 -0.4573  1.4110  0.9396
  287MOL0     H39567   6.582   8.478  10.810 -0.9700  0.4489 -1.1883
  287MOL0     H39568   6.275   8.057  10.689  0.1173  1.1645  0.0500
  287MOL0     H39569   6.091   8.001  10.531 -0.1453 -1.5395 -0.0925
  287MOL0     H39570   6.111   8.095  10.114  0.9353  0.6379  0.1445
  287MOL0     H39571   6.180   7.929  10.129 -0.5129  1.2491 -0.8491
  287MOL0     H39572   5.996   7.934   9.998  0.7125 -0.2951  0.4000
  287MOL0     H39573   6.002   7.817  10.129  3.2220 -0.9139 -1.4539
  287MOL0     H39574   5.850   8.004  10.257 -0.3196 -0.9137 -0.6577
  287MOL0     H39575   5.763   7.921  10.124  0.8873 -2.0304 -0.5380
  287MOL0     H39576   5.912   8.181  10.073  1.4705 -1.7408 -0.9810
  287MOL0     H39577   5.747   8.184  10.154  0.9979  1.7479 -2.4539
  287MOL0     H39578   5.792   8.048   9.882 -2.8771 -2.4547  0.1982
  287MOL0     H39579   5.655   8.063   9.987 -1.9854  3.0269 -2.8746
  287MOL0     H39580   5.782   8.302   9.884 -1.1594  1.3950 -0.3007
  287MOL0     H39581   5.617   8.274   9.955  0.4704 -2.4064  1.0751
  287MOL0     H39582   5.523   8.219   9.763  0.4113  1.9658  0.5257
  287MOL0     H39583   5.656   8.122   9.712 -1.8139 -0.3136 -0.9155
  287MOL0     H39584   5.632   8.290   9.565  2.5448 -3.2164 -1.0803
  287MOL0     H39585   5.793   8.299   9.647  0.2621  2.8608 -1.5767
  287MOL0     H39586   6.336   8.126  10.207  1.9532  0.6726 -0.1122
  287MOL0     H39587   6.493   8.209  10.350 -0.5316  0.0359 -0.3704
  287MOL0     H39588   6.908   8.073  10.627 -1.0939 -0.1276  0.9235
  287MOL0     H39589   7.069   8.148  10.768  1.6578  1.9171 -1.0117
  287MOL0     H39590   7.901   7.328  10.083 -1.9457 -3.2395 -0.3583
  287MOL0     H39591   7.896   7.105  10.039 -1.2802  0.4640 -2.1339
  287MOL0     H39592   8.164   6.765   9.809  0.9381  0.6963  0.9728
  287MOL0     H39593   8.212   6.526   9.736  1.2583  3.0235 -0.7689
  287MOL0     H39594   7.917   6.244   9.911 -0.0899 -0.5504  0.3657
  287MOL0     H39595   8.018   6.128   9.831 -0.3372 -2.4007  2.4790
  287MOL0     H39596   8.111   6.205  10.111 -1.7033 -3.0176  3.8492
  287MOL0     H39597   8.157   6.067  10.007  4.1216  2.1171  3.0825
  287MOL0     H39598   7.952   5.972  10.042 -0.8612  0.9118 -1.2836
  287MOL0     H39599   8.044   6.017  10.190  0.7985  0.5322  0.2814
  287MOL0     H39600   7.799   6.186  10.074 -0.2952  3.0034  1.9043
  287MOL0     H39601   7.875   6.216  10.226  1.6368  2.9633 -2.5322
  287MOL0     H39602   7.592   5.893  10.258 -1.9827  1.3488  2.5962
  287MOL0     H39603   7.962   6.393  10.055  1.2352 -2.0697 -2.6825
  287MOL0     H39604   7.897   6.526  10.240  0.8974 -1.5826 -1.2572
  287MOL0     H39605   7.954   6.683  10.258  2.8700  0.3064 -1.5650
  287MOL0     H39606   7.809   6.649  10.142  0.8000  0.2387  0.2283
  288MOL0     O39607  10.828   2.630   6.902 -0.4335  0.3983  0.5153
  288MOL0     C39608  10.748   2.716   6.933  0.9794  0.3355  0.9614
  288MOL0     O39609  10.645   2.766   6.852 -0.5011 -0.1386 -0.0618
  288MOL0     C39610  10.644   2.712   6.732  0.0001  0.4264  0.1869
  288MOL0     C39611  10.703   2.775   6.626 -0.2391  0.6458 -0.7900
  288MOL0     C39612  10.697   2.718   6.498  0.0655  0.3795 -1.1181
  288MOL0     C39613  10.623   2.599   6.473  0.2320 -0.1289  0.0205
  288MOL0     O39614  10.643   2.549   6.350  0.3633  0.1917  0.6880
  288MOL0     C39615  10.544   2.453   6.298  0.6776  0.5608  0.5803
  288MOL0     C39616  10.592   2.311   6.328  0.8965 -0.6030  0.5419
  288MOL0     C39617  10.513   2.197   6.269 -0.7238  0.0315 -0.5276
  288MOL0     C39618  10.530   2.192   6.115 -0.8748  0.6303 -0.2268
  288MOL0     C39619  10.502   2.049   6.054  0.7552  0.5545 -0.3029
  288MOL0     C39620  10.369   1.975   6.092  0.2144  0.8159 -0.4119
  288MOL0     C39621  10.358   1.832   6.024  0.2816 -0.6899 -0.1445
  288MOL0     C39622  10.255   1.738   6.106  0.2378 -0.7891 -0.0857
  288MOL0     N39623  10.118   1.770   6.080  0.4062 -0.2357 -0.2131
  288MOL0     C39624  10.029   1.833   6.168  0.4589  0.4557 -0.7428
  288MOL0     C39625   9.913   1.828   6.104  0.0002  0.0355  0.1029
  288MOL0     C39626   9.777   1.880   6.152  0.0438  0.1351  0.2620
  288MOL0     C39627   9.721   1.769   6.255 -0.2923 -0.2164  0.6614
  288MOL0     C39628   9.580   1.818   6.283  0.4053  0.1636 -0.5520
  288MOL0     C39629   9.496   1.728   6.378 -0.1038  0.6422 -1.2084
  288MOL0     O39630   9.488   1.600   6.323  0.4965  0.1452 -0.1388
  288MOL0     C39631   9.365   1.571   6.268 -0.6101  0.3468 -0.1732
  288MOL0     C39632   9.247   1.573   6.334  0.1261 -0.3912 -0.1482
  288MOL0     C39633   9.125   1.532   6.284 -0.3932 -0.4403 -0.1445
  288MOL0     C39634   9.000   1.534   6.363  0.2905 -0.1432 -0.7087
  288MOL0     C39635   9.119   1.489   6.148 -0.3540 -0.4693 -0.2142
  288MOL0     C39636   8.996   1.439   6.071  0.2891 -1.2555  0.1470
  288MOL0     O39637   9.015   1.447   5.924 -0.2639  0.8239 -0.2558
  288MOL0     C39638   8.929   1.378   5.839 -0.1562 -0.3963 -0.1139
  288MOL0     C39639   8.987   1.309   5.735 -0.3190 -0.1814 -0.1411
  288MOL0     C39640   8.915   1.212   5.659  0.1806 -0.4201  0.3567
  288MOL0     C39641   8.779   1.212   5.676  0.7165  0.6411 -0.9500
  288MOL0     O39642   8.717   1.130   5.593 -0.2451  0.8225  0.2627
  288MOL0     C39643   8.581   1.081   5.609  0.0935  0.0552 -0.3296
  288MOL0     C39644   8.579   0.928   5.604  0.4264  0.0877 -0.3558
  288MOL0     C39645   8.653   0.860   5.717 -0.0394 -0.5822 -0.1772
  288MOL0     C39646   8.632   0.711   5.738  0.4357  0.5209  0.1786
  288MOL0     C39647   8.709   0.666   5.853 -0.5477  0.2773 -0.0554
  288MOL0     C39648   8.711   0.513   5.879 -0.2172 -0.2013  1.2378
  288MOL0     C39649   8.767   0.488   6.021 -0.2870 -0.4595  0.4166
  288MOL0     C39650   8.655   0.512   6.124  0.0421  0.6681 -0.5026
  288MOL0    Cl39651   8.700   0.451   6.276 -0.0679  0.0123 -0.2773
  288MOL0     C39652   8.717   1.276   5.785  0.1638  0.1548  0.6954
  288MOL0     C39653   8.790   1.364   5.865  0.6105 -0.8876  0.0307
  288MOL0     O39654   8.898   1.376   6.127 -0.8505 -0.4850  0.5663
  288MOL0     C39655   9.241   1.508   6.072 -0.7784 -0.7934  0.7049
  288MOL0     C39656   9.364   1.534   6.131 -0.5668  0.0877 -0.4031
  288MOL0     N39657   9.927   1.773   5.978 -0.2263 -0.0587  0.9454
  288MOL0     N39658  10.049   1.737   5.972 -0.1199 -0.4863 -0.1900
  288MOL0     C39659  10.568   2.534   6.586  1.4153  0.8507 -0.3348
  288MOL0     C39660  10.583   2.588   6.717 -0.9111  0.4340  0.3366
  288MOL0     C39661  10.762   2.798   7.059  0.1069 -0.4547  0.5084
  288MOL0     C39662  10.884   2.856   7.095 -0.8234  0.4261  1.0234
  288MOL0     C39663  10.888   2.933   7.206 -0.8477 -0.2368  0.5611
  288MOL0     C39664  10.786   2.946   7.297  0.2431 -0.4474 -0.5446
  288MOL0     O39665  10.825   3.018   7.412  1.0585 -0.3728 -0.0510
  288MOL0     C39666  10.758   3.145   7.397  0.5363 -0.5838 -0.0473
  288MOL0     C39667  10.866   3.251   7.384  0.0296 -0.4762  0.4167
  288MOL0     C39668  10.962   3.276   7.499  0.8337 -0.5432  0.6061
  288MOL0     C39669  11.077   3.369   7.474 -0.2071 -0.1890  0.4525
  288MOL0     C39670  11.017   3.503   7.452  0.5041  0.0238  0.0844
  288MOL0     C39671  10.945   3.599   7.434 -0.9924  0.1792  0.0809
  288MOL0     C39672  10.658   2.893   7.270  0.2322 -0.1089  0.6060
  288MOL0     C39673  10.647   2.822   7.149  0.0358  0.6437 -0.5545
  288MOL0     C39674  10.508   2.760   7.118  0.5506 -0.9290 -0.4695
  288MOL0     H39675  10.760   2.864   6.650  3.9577 -2.7985  4.2746
  288MOL0     H39676  10.748   2.766   6.414  3.1835 -0.6284  0.0432
  288MOL0     H39677  10.516   2.467   6.193  0.5944  3.7731  0.9304
  288MOL0     H39678  10.450   2.455   6.354 -0.0019  1.0112 -0.5363
  288MOL0     H39679  10.694   2.288   6.296 -0.6819 -3.9343 -2.9162
  288MOL0     H39680  10.579   2.300   6.436  0.1923 -0.2553  0.5003
  288MOL0     H39681  10.538   2.097   6.305 -0.0367 -0.1293 -1.4148
  288MOL0     H39682  10.409   2.216   6.298 -1.3119  0.6507 -2.7863
  288MOL0     H39683  10.477   2.270   6.059 -2.3437 -0.8892 -1.0741
  288MOL0     H39684  10.635   2.199   6.088 -1.1332  2.0607 -0.9424
  288MOL0     H39685  10.579   1.972   6.064  1.4746  1.4668  1.5328
  288MOL0     H39686  10.495   2.063   5.945  2.6962  0.9745 -0.4032
  288MOL0     H39687  10.368   1.937   6.194 -0.8394 -3.0716 -1.7089
  288MOL0     H39688  10.278   2.032   6.071 -0.0753  0.6543  0.3668
  288MOL0     H39689  10.459   1.792   6.020  0.1289 -1.0460 -0.4888
  288MOL0     H39690  10.314   1.842   5.924  1.4091  2.0737 -0.4658
  288MOL0     H39691  10.275   1.636   6.070  0.7107 -0.1415 -1.7711
  288MOL0     H39692  10.269   1.740   6.214 -1.1704  1.3777  0.1161
  288MOL0     H39693  10.051   1.877   6.265  1.9589 -0.1359 -0.7810
  288MOL0     H39694   9.711   1.905   6.069  1.3343  1.9770 -0.2871
  288MOL0     H39695   9.797   1.972   6.208 -1.1386  1.6048 -1.6130
  288MOL0     H39696   9.729   1.667   6.218 -3.0072 -1.6693  3.6035
  288MOL0     H39697   9.781   1.773   6.347  3.3496 -2.1088 -1.3938
  288MOL0     H39698   9.579   1.918   6.327  0.1076  1.6276 -3.5849
  288MOL0     H39699   9.533   1.833   6.185 -0.7154 -0.4103 -0.1181
  288MOL0     H39700   9.558   1.717   6.468 -2.2408 -0.5494  0.2115
  288MOL0     H39701   9.399   1.772   6.402  0.3152  0.1443  1.8657
  288MOL0     H39702   9.257   1.605   6.437 -0.0152  0.8427 -0.5069
  288MOL0     H39703   9.007   1.596   6.453 -0.1640 -0.8777 -0.1574
  288MOL0     H39704   8.966   1.434   6.393 -1.4641  0.7053  0.2780
  288MOL0     H39705   8.919   1.569   6.298  0.8542 -2.1350 -2.6040
  288MOL0     H39706   9.090   1.328   5.709 -0.2338 -0.7181 -0.2087
  288MOL0     H39707   8.960   1.151   5.582 -1.4991 -0.6982 -0.4420
  288MOL0     H39708   8.534   1.119   5.699  1.3712  0.0912  0.3471
  288MOL0     H39709   8.528   1.122   5.523 -1.0895  0.3330  0.5198
  288MOL0     H39710   8.475   0.895   5.604 -0.7653  3.1951 -3.1946
  288MOL0     H39711   8.616   0.898   5.505  2.1131 -0.7976  0.4890
  288MOL0     H39712   8.635   0.911   5.812 -1.1884 -1.2981  0.0048
  288MOL0     H39713   8.758   0.870   5.685 -0.5658  1.6872 -1.3836
  288MOL0     H39714   8.655   0.661   5.644  2.0583 -1.5685  1.5730
  288MOL0     H39715   8.524   0.702   5.752  0.3217 -2.7820 -1.8880
  288MOL0     H39716   8.813   0.695   5.839 -0.0738 -0.9425  0.8010
  288MOL0     H39717   8.671   0.718   5.941 -1.5158  0.1532 -0.3869
  288MOL0     H39718   8.766   0.462   5.799  1.1072  0.6016  1.6027
  288MOL0     H39719   8.607   0.481   5.881 -1.4223  2.7034 -2.6147
  288MOL0     H39720   8.850   0.558   6.036 -0.9368  0.0519  1.7809
  288MOL0     H39721   8.798   0.383   6.025  0.3269 -0.2882  0.3369
  288MOL0     H39722   8.571   0.446   6.100  0.6358 -0.2457 -0.0947
  288MOL0     H39723   8.620   0.615   6.134 -0.8802  0.2218  1.1759
  288MOL0     H39724   8.609   1.267   5.789  0.3007 -1.2631  2.2938
  288MOL0     H39725   8.738   1.414   5.946  0.4240 -1.0360  0.0050
  288MOL0     H39726   9.257   1.473   5.970 -0.9219 -3.3374  1.4911
  288MOL0     H39727   9.451   1.551   6.069  2.0076  3.1296  3.6034
  288MOL0     H39728  10.517   2.439   6.574 -2.4144  2.9768 -4.0181
  288MOL0     H39729  10.537   2.548   6.806 -2.7992  1.5400 -0.0797
  288MOL0     H39730  10.953   2.869   7.012 -1.0054  1.0653  0.9705
  288MOL0     H39731  10.971   3.002   7.201  0.0088 -1.3066 -0.5397
  288MOL0     H39732  10.678   3.155   7.323  1.1108  2.8679 -0.3557
  288MOL0     H39733  10.718   3.185   7.491  1.0945 -0.6476  0.2231
  288MOL0     H39734  10.823   3.346   7.353 -0.2407  0.6927  3.8884
  288MOL0     H39735  10.919   3.219   7.294  0.7850  0.5541  0.4741
  288MOL0     H39736  10.899   3.326   7.573 -0.0927  0.7214 -0.9677
  288MOL0     H39737  11.001   3.183   7.541  1.7279  0.2075  1.4719
  288MOL0     H39738  11.144   3.342   7.392 -1.2247 -0.6442 -0.2385
  288MOL0     H39739  11.135   3.367   7.567  1.1410 -4.7109 -0.2695
  288MOL0     H39740  10.891   3.689   7.417  0.6490  1.2122  0.0820
  288MOL0     H39741  10.577   2.902   7.342 -3.1385  1.5199 -3.0610
  288MOL0     H39742  10.513   2.657   7.083  2.0350 -0.8825 -0.4760
  288MOL0     H39743  10.450   2.753   7.210  0.2094  0.9340 -0.5065
  288MOL0     H39744  10.459   2.816   7.038  0.6221 -1.7280 -1.0813
  289MOL0     O39745   9.770   1.774   0.251 -0.1331  0.5790  0.3016
  289MOL0     C39746   9.691   1.678   0.237  0.5248 -0.6016 -0.2206
  289MOL0     O39747   9.553   1.690   0.261 -0.6094  0.3452 -0.5907
  289MOL0     C39748   9.493   1.803   0.287 -0.2489  0.5286 -0.5492
  289MOL0     C39749   9.544   1.933   0.318 -0.5106  1.2611  0.8351
  289MOL0     C39750   9.465   2.043   0.353  0.6956  0.9933  0.0888
  289MOL0     C39751   9.323   2.026   0.352 -0.7000 -0.2299  0.3297
  289MOL0     O39752   9.236   2.128   0.386 -0.1294 -0.4928 -0.8478
  289MOL0     C39753   9.254   2.241   0.302  0.7102 -1.0244  0.0240
  289MOL0     C39754   9.134   2.335   0.297  1.2100 -0.0890 -0.3534
  289MOL0     C39755   9.013   2.272   0.229  0.5720 -0.7999  0.1412
  289MOL0     C39756   8.885   2.342   0.267  1.0971  0.2971 -0.5591
  289MOL0     C39757   8.770   2.288   0.190  0.0155  0.5950 -0.1774
  289MOL0     C39758   8.684   2.182   0.257 -0.2359  0.5700  0.2634
  289MOL0     C39759   8.570   2.131   0.164  0.2291  0.1322  1.1047
  289MOL0     C39760   8.499   2.016   0.222 -0.3093  1.4262 -0.2955
  289MOL0     N39761   8.558   1.886   0.197  0.2676  0.7811 -0.7457
  289MOL0     C39762   8.492   1.774   0.168  0.0222 -0.1793  0.9152
  289MOL0     C39763   8.575   1.668   0.179  0.0989  0.8809 -0.2437
  289MOL0     C39764   8.544   1.518   0.160 -0.1411 -0.0099 -0.1757
  289MOL0     C39765   8.471   1.495   0.035  0.2765  0.2540 -0.2242
  289MOL0     C39766   8.414   1.347   0.032  0.3652  0.0684  0.0353
  289MOL0     C39767   8.334   1.299  -0.095  0.5341 -0.4445  0.6064
  289MOL0     O39768   8.276   1.415  -0.150 -0.6129 -0.3144 -0.6383
  289MOL0     C39769   8.163   1.400  -0.226 -0.2685 -0.2142  0.0512
  289MOL0     C39770   8.101   1.514  -0.274  0.0382  0.3415 -0.6829
  289MOL0     C39771   7.994   1.509  -0.362 -0.5090 -0.5320 -0.0406
  289MOL0     C39772   7.972   1.645  -0.425 -0.3128  0.1054  0.4158
  289MOL0     C39773   7.922   1.390  -0.379  1.3149 -0.0552  0.6633
  289MOL0     C39774   7.799   1.380  -0.460 -0.2850 -0.5837 -0.3764
  289MOL0     O39775   7.783   1.268  -0.529 -0.5340 -0.0636 -1.0554
  289MOL0     C39776   7.672   1.231  -0.594  0.1333  0.4762  0.0139
  289MOL0     C39777   7.631   1.315  -0.703  0.8509  0.3493 -0.4816
  289MOL0     C39778   7.524   1.275  -0.786 -0.4468 -0.1686  0.8072
  289MOL0     C39779   7.462   1.152  -0.778  0.3125 -0.8515 -0.2698
  289MOL0     O39780   7.362   1.116  -0.858  0.4536  0.0214  0.3347
  289MOL0     C39781   7.370   0.979  -0.908  0.6655 -0.5117 -0.7259
  289MOL0     C39782   7.262   0.955  -1.018 -0.1070 -0.8318  0.1138
  289MOL0     C39783   7.302   1.011  -1.154 -0.5771  0.9381 -0.0943
  289MOL0     C39784   7.180   1.003  -1.241 -0.5321  0.7633  0.0611
  289MOL0     C39785   7.131   0.855  -1.285  0.6302  0.3733  0.7801
  289MOL0     C39786   7.044   0.878  -1.408 -0.9748 -0.6092  1.7849
  289MOL0     C39787   7.134   0.843  -1.532  0.8304 -0.3147  1.2247
  289MOL0     C39788   7.037   0.821  -1.650  0.3337  0.6106  0.6406
  289MOL0    Cl39789   6.935   0.671  -1.637 -0.4464  0.2379  0.0401
  289MOL0     C39790   7.509   1.068  -0.668  0.1090 -0.3520  1.0983
  289MOL0     C39791   7.608   1.098  -0.580 -0.6362 -0.3226  0.4227
  289MOL0     O39792   7.714   1.471  -0.446  0.0778 -0.1250 -0.0794
  289MOL0     C39793   7.975   1.277  -0.329  0.0602 -0.8990 -0.6936
  289MOL0     C39794   8.094   1.280  -0.247 -0.4759 -0.7042  0.4322
  289MOL0     N39795   8.697   1.714   0.224 -0.0728 -0.0519 -0.3813
  289MOL0     N39796   8.686   1.849   0.237 -0.4906  0.2825 -0.3260
  289MOL0     C39797   9.272   1.907   0.312 -0.5207  0.0930 -0.2354
  289MOL0     C39798   9.356   1.797   0.278  0.2221 -0.0300 -0.3147
  289MOL0     C39799   9.739   1.560   0.164  0.4392  0.4201  1.2773
  289MOL0     C39800   9.644   1.460   0.129 -0.4145 -0.4060  0.2666
  289MOL0     C39801   9.679   1.344   0.059 -0.0697  0.1885  0.7892
  289MOL0     C39802   9.815   1.316   0.034 -0.8412 -0.3221  0.6276
  289MOL0     O39803   9.850   1.194  -0.028 -0.0351 -0.0614  0.0266
  289MOL0     C39804   9.831   1.194  -0.167 -0.6421  1.4189  0.7268
  289MOL0     C39805   9.872   1.057  -0.225 -0.0342  0.5297  0.0688
  289MOL0     C39806   9.831   1.050  -0.369 -0.2160 -0.0971  0.7541
  289MOL0     C39807   9.924   0.961  -0.447 -0.7069  0.1120 -0.2203
  289MOL0     C39808   9.878   0.935  -0.582 -0.5833 -0.4508 -0.4983
  289MOL0     C39809   9.858   0.942  -0.700  0.7261  0.0173  0.4843
  289MOL0     C39810   9.906   1.417   0.062 -0.1901  0.1876  0.6886
  289MOL0     C39811   9.867   1.538   0.122 -0.2347 -0.0765  0.5555
  289MOL0     C39812   9.977   1.644   0.127  0.6341  0.4743  0.4740
  289MOL0     H39813   9.651   1.949   0.320 -0.1066 -0.9192 -0.4298
  289MOL0     H39814   9.504   2.137   0.390  1.5454  0.0279  1.7619
  289MOL0     H39815   9.281   2.216   0.199 -0.9739  1.0982 -1.0438
  289MOL0     H39816   9.324   2.303   0.359  0.1294 -0.8433  0.5525
  289MOL0     H39817   9.116   2.352   0.403 -1.9935  1.2143 -0.9673
  289MOL0     H39818   9.144   2.432   0.247 -3.2987  0.6829 -0.1500
  289MOL0     H39819   9.037   2.276   0.122  2.1167 -0.2260  0.4804
  289MOL0     H39820   9.002   2.168   0.261 -0.6221  0.0235  2.6109
  289MOL0     H39821   8.859   2.333   0.373 -0.8269 -2.0652 -1.1489
  289MOL0     H39822   8.893   2.445   0.233 -1.6543 -0.3223 -3.5662
  289MOL0     H39823   8.796   2.237   0.097  3.4705  2.2517 -0.3030
  289MOL0     H39824   8.700   2.372   0.185 -3.4789 -2.1377 -0.3627
  289MOL0     H39825   8.751   2.103   0.291  0.2773  2.1314  3.1359
  289MOL0     H39826   8.632   2.225   0.343  0.9079  0.7028  0.9021
  289MOL0     H39827   8.624   2.098   0.075  1.8114  2.2751  1.2045
  289MOL0     H39828   8.509   2.217   0.138  3.8260  2.6920  0.3479
  289MOL0     H39829   8.482   2.026   0.329 -0.0168 -1.4891  0.0989
  289MOL0     H39830   8.405   1.996   0.169  0.6415  2.2145 -2.4077
  289MOL0     H39831   8.386   1.773   0.143  0.4043  0.2329 -0.7845
  289MOL0     H39832   8.477   1.494   0.242 -0.6248  4.4030  1.0152
  289MOL0     H39833   8.635   1.457   0.159 -0.0043  0.1952 -1.2178
  289MOL0     H39834   8.402   1.574   0.006 -0.5131 -1.3671 -3.1570
  289MOL0     H39835   8.551   1.499  -0.039  1.8477  2.3999  1.4619
  289MOL0     H39836   8.508   1.292   0.035  0.1010 -0.4383 -0.7171
  289MOL0     H39837   8.358   1.324   0.124 -0.1221  0.5772 -0.1234
  289MOL0     H39838   8.403   1.257  -0.168 -1.6465 -1.4198 -1.0312
  289MOL0     H39839   8.268   1.223  -0.053 -1.0050  0.6997  0.3567
  289MOL0     H39840   8.151   1.609  -0.261  0.2814 -0.0592  1.8992
  289MOL0     H39841   8.058   1.710  -0.444 -1.2224  0.6765 -2.1133
  289MOL0     H39842   7.910   1.709  -0.360  0.6567  3.8843 -2.0747
  289MOL0     H39843   7.930   1.635  -0.525  0.8906  3.3897 -0.5285
  289MOL0     H39844   7.664   1.417  -0.715 -1.9255  1.2415 -1.4645
  289MOL0     H39845   7.499   1.336  -0.872  1.5235 -0.5836 -0.1206
  289MOL0     H39846   7.471   0.954  -0.940  0.7839  0.1026 -0.8457
  289MOL0     H39847   7.335   0.906  -0.835 -0.3194 -1.3027 -1.9537
  289MOL0     H39848   7.243   0.848  -1.027 -2.9591 -0.3455 -0.6919
  289MOL0     H39849   7.174   1.004  -0.975 -0.2254 -2.7730  2.2651
  289MOL0     H39850   7.395   0.970  -1.192 -2.3459 -3.0625 -0.5560
  289MOL0     H39851   7.323   1.117  -1.133  0.7693  0.5725  0.5370
  289MOL0     H39852   7.203   1.054  -1.335  1.0845  1.0448  0.5785
  289MOL0     H39853   7.094   1.052  -1.194 -0.6408 -0.8602  1.6265
  289MOL0     H39854   7.216   0.797  -1.322  1.6451  1.1700  1.7909
  289MOL0     H39855   7.076   0.801  -1.208 -1.4593  0.7026 -0.4116
  289MOL0     H39856   7.000   0.978  -1.418 -1.7205 -0.9954  0.9564
  289MOL0     H39857   6.960   0.807  -1.415  2.1706 -4.5325 -1.1347
  289MOL0     H39858   7.194   0.754  -1.509  1.5644  0.2568  1.5654
  289MOL0     H39859   7.215   0.912  -1.556  2.1073 -2.5908 -1.6368
  289MOL0     H39860   7.099   0.825  -1.740 -1.3952 -3.7209 -1.0372
  289MOL0     H39861   6.963   0.902  -1.657 -0.5168 -0.2407 -0.7811
  289MOL0     H39862   7.463   0.972  -0.649  2.1513 -1.5486  0.3278
  289MOL0     H39863   7.631   1.027  -0.502  0.9320  0.1777  0.4655
  289MOL0     H39864   7.932   1.179  -0.346 -0.5751 -1.2172  2.2057
  289MOL0     H39865   8.141   1.191  -0.206 -3.6886 -1.8120  2.0512
  289MOL0     H39866   9.165   1.910   0.294 -0.8552  1.0478  1.6916
  289MOL0     H39867   9.305   1.710   0.238 -1.4426  0.1594  1.2412
  289MOL0     H39868   9.538   1.472   0.147 -0.3740 -1.4167  1.2551
  289MOL0     H39869   9.599   1.277   0.031  0.0801  0.8154 -1.3377
  289MOL0     H39870   9.724   1.201  -0.186 -1.3506 -3.4993  1.5859
  289MOL0     H39871   9.874   1.281  -0.217 -1.6529 -0.8633 -4.8564
  289MOL0     H39872   9.825   0.978  -0.166  2.5119  0.2446  1.8608
  289MOL0     H39873   9.981   1.047  -0.218 -0.1597 -2.0968 -0.5605
  289MOL0     H39874   9.729   1.012  -0.374  0.4026 -2.6077  3.8440
  289MOL0     H39875   9.832   1.154  -0.404 -2.4863 -0.1514  0.4000
  289MOL0     H39876   9.927   0.861  -0.403 -1.8918 -0.4909 -1.4353
  289MOL0     H39877  10.027   0.992  -0.466  0.1707 -0.0847  3.5051
  289MOL0     H39878   9.835   0.951  -0.805 -0.5057 -0.7960  0.6545
  289MOL0     H39879  10.009   1.401   0.032  0.6270  0.1067  3.2868
  289MOL0     H39880   9.935   1.729   0.072  1.0240  0.3684  0.0067
  289MOL0     H39881  10.000   1.660   0.232  0.8043 -2.1293  0.9049
  289MOL0     H39882  10.071   1.611   0.082  0.5711 -1.3214  1.5513
  290MOL0     O39883   4.444   2.806   0.230 -0.0318 -0.4349 -0.2290
  290MOL0     C39884   4.515   2.732   0.166 -0.7747  0.0633 -0.0640
  290MOL0     O39885   4.636   2.670   0.211 -0.1122  0.2468 -0.5724
  290MOL0     C39886   4.687   2.676   0.334 -0.7496 -0.1572  0.0197
  290MOL0     C39887   4.621   2.711   0.452  0.2598 -0.4116  0.2593
  290MOL0     C39888   4.679   2.726   0.571  0.5248  0.5196 -0.5383
  290MOL0     C39889   4.806   2.683   0.580 -1.2393  0.4160  0.0248
  290MOL0     O39890   4.885   2.667   0.690  0.3005 -0.7733  0.0972
  290MOL0     C39891   4.828   2.661   0.818  0.9113  0.5314 -0.7666
  290MOL0     C39892   4.952   2.636   0.907  0.0607  0.6127 -0.0983
  290MOL0     C39893   5.060   2.541   0.859  0.4292 -0.4174  0.2200
  290MOL0     C39894   5.154   2.487   0.960 -0.1760  0.2594  0.3308
  290MOL0     C39895   5.217   2.596   1.042 -0.2521 -0.1144 -0.3854
  290MOL0     C39896   5.274   2.526   1.164  0.2354 -0.0690 -0.0359
  290MOL0     C39897   5.334   2.625   1.272 -0.4828 -0.2778  1.6093
  290MOL0     C39898   5.387   2.547   1.392  1.7382 -0.2728  0.1524
  290MOL0     N39899   5.270   2.528   1.479  0.4460  0.2821 -0.8059
  290MOL0     C39900   5.278   2.516   1.618  0.4468 -0.5524 -0.3087
  290MOL0     C39901   5.150   2.505   1.662 -0.4587 -0.0305  0.0047
  290MOL0     C39902   5.113   2.510   1.800 -0.1638  0.5864  0.8535
  290MOL0     C39903   5.087   2.652   1.850 -0.3811  0.1107 -0.8321
  290MOL0     C39904   5.037   2.666   1.993 -0.0762  0.1665 -0.5136
  290MOL0     C39905   5.040   2.810   2.037  0.3289 -0.3758 -0.2416
  290MOL0     O39906   4.959   2.835   2.151 -0.3824 -0.1010  0.1629
  290MOL0     C39907   5.025   2.818   2.278  0.5278  0.8136 -0.7333
  290MOL0     C39908   4.940   2.840   2.379  0.2672 -0.3577 -1.8419
  290MOL0     C39909   4.975   2.816   2.515  0.0365 -0.2273  0.2756
  290MOL0     C39910   4.860   2.833   2.606  0.1617 -0.4121  0.4997
  290MOL0     C39911   5.105   2.765   2.543 -0.0932  0.0250  0.4598
  290MOL0     C39912   5.147   2.740   2.689 -0.7269 -0.4711 -0.5219
  290MOL0     O39913   5.060   2.772   2.790 -0.5728 -0.3122  0.1074
  290MOL0     C39914   5.066   2.703   2.903  0.8054 -0.0924  0.2890
  290MOL0     C39915   5.038   2.575   2.916 -1.0037 -0.2587  0.4300
  290MOL0     C39916   5.054   2.502   3.030 -0.3011  0.1838  0.2126
  290MOL0     C39917   5.103   2.569   3.145  0.4443 -0.0094  0.0351
  290MOL0     O39918   5.108   2.493   3.267  0.5567 -1.0477  0.2245
  290MOL0     C39919   5.207   2.539   3.366  0.0172  0.6089  0.2768
  290MOL0     C39920   5.233   2.425   3.469  0.4939  0.4596  0.4420
  290MOL0     C39921   5.346   2.469   3.574 -0.0454 -0.8014 -0.3607
  290MOL0     C39922   5.310   2.593   3.653  0.6824 -0.0639 -0.4909
  290MOL0     C39923   5.406   2.625   3.765 -1.0557 -0.3299  0.4135
  290MOL0     C39924   5.395   2.773   3.834 -1.4706 -0.4007  0.1948
  290MOL0     C39925   5.509   2.813   3.941 -1.5577 -0.0987  0.2200
  290MOL0     C39926   5.460   2.896   4.061 -0.1213 -0.1102 -0.8203
  290MOL0    Cl39927   5.343   3.016   3.999  0.7292  0.3118  0.3098
  290MOL0     C39928   5.131   2.704   3.137  0.1930 -0.1963 -0.3129
  290MOL0     C39929   5.107   2.771   3.018 -1.2053  0.0787 -0.0667
  290MOL0     O39930   5.264   2.709   2.720 -0.7121  1.6000  0.4455
  290MOL0     C39931   5.191   2.731   2.438  0.2656 -0.1212 -0.4189
  290MOL0     C39932   5.155   2.762   2.308  0.1441  0.3072  0.6674
  290MOL0     N39933   5.065   2.483   1.556  0.8864 -0.6490 -0.0934
  290MOL0     N39934   5.142   2.511   1.447  0.0536 -0.1824  0.3824
  290MOL0     C39935   4.882   2.645   0.463 -0.5201  0.1425 -0.3895
  290MOL0     C39936   4.822   2.647   0.338 -0.2938  0.4234  0.3012
  290MOL0     C39937   4.484   2.706   0.023 -0.3225  0.3113  0.7582
  290MOL0     C39938   4.511   2.575  -0.025  0.2482  0.2059 -0.9018
  290MOL0     C39939   4.476   2.536  -0.151  0.5437 -0.8418  0.5984
  290MOL0     C39940   4.391   2.617  -0.231  0.8642  0.7282 -0.4528
  290MOL0     O39941   4.350   2.558  -0.353 -0.1158  0.2553  0.2327
  290MOL0     C39942   4.367   2.645  -0.461  0.9859  0.2007 -0.3842
  290MOL0     C39943   4.270   2.583  -0.564  0.2135 -0.6905  0.5582
  290MOL0     C39944   4.311   2.599  -0.720  0.1097 -0.4679 -0.5561
  290MOL0     C39945   4.340   2.743  -0.760 -0.5297  0.5326  0.9311
  290MOL0     C39946   4.235   2.834  -0.721 -0.2948 -0.4929 -0.2700
  290MOL0     C39947   4.147   2.904  -0.677  0.0902 -0.2549 -0.3558
  290MOL0     C39948   4.366   2.739  -0.181  0.7410 -0.3196  0.0567
  290MOL0     C39949   4.413   2.792  -0.066 -0.1038  0.4780 -0.0922
  290MOL0     C39950   4.382   2.942  -0.032 -0.8602 -0.4502  0.2069
  290MOL0     H39951   4.521   2.754   0.450  1.1564  1.8038 -0.2043
  290MOL0     H39952   4.632   2.756   0.665  3.8917 -0.6856  1.6791
  290MOL0     H39953   4.769   2.570   0.825  3.9186 -1.5652 -0.6758
  290MOL0     H39954   4.775   2.752   0.848 -2.5039 -0.0941 -4.1825
  290MOL0     H39955   4.992   2.737   0.921 -1.6658  1.3822 -0.4215
  290MOL0     H39956   4.912   2.606   1.005  0.1431 -0.0156 -0.2533
  290MOL0     H39957   5.008   2.455   0.814  1.0301 -0.3409 -0.6444
  290MOL0     H39958   5.118   2.587   0.779 -2.8686  0.7867 -1.6993
  290MOL0     H39959   5.099   2.415   1.022  1.2602  0.2533  1.6548
  290MOL0     H39960   5.240   2.443   0.909 -0.5474  0.4728 -0.4958
  290MOL0     H39961   5.139   2.659   1.086  0.6946  0.8073  0.0328
  290MOL0     H39962   5.294   2.659   0.996 -2.2710  3.9383  1.3217
  290MOL0     H39963   5.208   2.456   1.215 -1.7598  1.5590 -0.2591
  290MOL0     H39964   5.350   2.460   1.122  0.0925  0.7112 -1.5732
  290MOL0     H39965   5.255   2.693   1.305  0.3972  1.8206 -0.3825
  290MOL0     H39966   5.420   2.679   1.232  0.0982 -2.3725 -0.1728
  290MOL0     H39967   5.431   2.453   1.359 -0.0307 -1.6096  1.4451
  290MOL0     H39968   5.466   2.609   1.436  2.1793 -0.3366 -0.5389
  290MOL0     H39969   5.357   2.520   1.692 -0.8150 -2.7190  1.2543
  290MOL0     H39970   5.185   2.457   1.862  0.3908 -0.9821 -1.0206
  290MOL0     H39971   5.017   2.458   1.799  0.0427  0.0835 -2.0230
  290MOL0     H39972   5.182   2.705   1.850 -0.5219  0.3656 -0.8424
  290MOL0     H39973   5.017   2.705   1.784 -1.1156  0.6092  0.3151
  290MOL0     H39974   4.932   2.638   2.007  0.6500 -3.8976 -1.8493
  290MOL0     H39975   5.095   2.597   2.054 -2.3628 -2.1589 -0.7825
  290MOL0     H39976   5.145   2.840   2.052 -0.1993  1.7010 -0.4146
  290MOL0     H39977   5.011   2.878   1.956  0.0931 -2.9050 -2.4343
  290MOL0     H39978   4.842   2.874   2.347 -0.1770 -0.2045 -0.3657
  290MOL0     H39979   4.759   2.812   2.567 -1.2550  2.3462  2.3950
  290MOL0     H39980   4.868   2.936   2.639  5.3196 -0.7027  0.9343
  290MOL0     H39981   4.857   2.758   2.685 -0.6714  1.3056  2.1621
  290MOL0     H39982   4.989   2.532   2.829  0.8527  2.3049 -2.0451
  290MOL0     H39983   5.021   2.399   3.040  0.3077  0.1359  2.0121
  290MOL0     H39984   5.297   2.566   3.312  0.2078  1.5099  1.0280
  290MOL0     H39985   5.173   2.630   3.416 -1.9515 -1.2715  2.6368
  290MOL0     H39986   5.131   2.408   3.505 -0.1766 -1.3757 -2.0948
  290MOL0     H39987   5.257   2.336   3.411 -0.5411  0.4672 -0.0205
  290MOL0     H39988   5.446   2.467   3.530 -0.0417  0.6386 -0.4758
  290MOL0     H39989   5.350   2.384   3.642 -1.0570  1.7160  3.1669
  290MOL0     H39990   5.207   2.585   3.690  0.5029  2.4505 -0.2200
  290MOL0     H39991   5.305   2.680   3.587  0.2235  2.2911  2.4131
  290MOL0     H39992   5.400   2.547   3.841 -2.5259 -0.3260  0.3321
  290MOL0     H39993   5.504   2.610   3.720 -1.2267 -0.9418  0.2370
  290MOL0     H39994   5.301   2.768   3.891 -1.9981  0.9663 -0.5231
  290MOL0     H39995   5.390   2.848   3.755  0.2523  0.4085  0.8345
  290MOL0     H39996   5.591   2.873   3.900 -1.5031  0.5265  1.2126
  290MOL0     H39997   5.547   2.722   3.988 -4.5185 -2.2855 -1.3150
  290MOL0     H39998   5.549   2.935   4.112  1.1325 -3.2614 -0.3619
  290MOL0     H39999   5.408   2.836   4.136 -0.0489 -0.2655 -0.8954
  290MOL0     H40000   5.167   2.754   3.226 -0.7412 -0.6013  0.2991
  290MOL0     H40001   5.134   2.875   3.003  0.1209  0.0599  1.8003
  290MOL0     H40002   5.283   2.675   2.451 -0.5816 -1.6617 -0.7527
  290MOL0     H40003   5.225   2.737   2.229  0.8378 -0.6640  1.5682
  290MOL0     H40004   4.985   2.610   0.470 -0.8576 -0.8002 -0.0221
  290MOL0     H40005   4.877   2.612   0.252  1.1176 -1.3256  1.8368
  290MOL0     H40006   4.562   2.507   0.042 -1.0203 -0.5863 -0.7158
  290MOL0     H40007   4.514   2.439  -0.182  1.8268  0.4935 -2.5448
  290MOL0     H40008   4.360   2.753  -0.447  1.6091  0.7825 -3.7250
  290MOL0     H40009   4.467   2.623  -0.501  0.4602 -3.7960  0.0867
  290MOL0     H40010   4.167   2.620  -0.561 -1.3999 -4.7212  0.1218
  290MOL0     H40011   4.288   2.477  -0.547  1.7171 -0.4649  0.4827
  290MOL0     H40012   4.397   2.534  -0.740 -0.9641 -2.0296 -0.1995
  290MOL0     H40013   4.230   2.556  -0.780  0.0183 -1.0815  0.0061
  290MOL0     H40014   4.345   2.742  -0.869 -1.2511 -4.6694  0.6521
  290MOL0     H40015   4.438   2.768  -0.720  0.4148  0.6176 -1.3186
  290MOL0     H40016   4.063   2.965  -0.652 -0.1341 -1.0357  0.9218
  290MOL0     H40017   4.295   2.803  -0.232  2.1808 -0.6690 -2.5420
  290MOL0     H40018   4.317   2.945   0.056  2.1588  0.0898  2.5849
  290MOL0     H40019   4.472   2.997  -0.004 -2.5747  1.3286  2.7174
  290MOL0     H40020   4.345   3.008  -0.111  3.0864  0.1458 -1.3863
  291MOL0     O40021   9.646   6.804   3.887 -0.1959 -0.1608  0.6557
  291MOL0     C40022   9.601   6.862   3.984 -0.4445 -0.5975 -0.5988
  291MOL0     O40023   9.505   6.959   3.996  0.9986  0.2818  0.0647
  291MOL0     C40024   9.427   6.983   3.887  0.4874  0.7811  0.2500
  291MOL0     C40025   9.471   7.075   3.791 -0.5791  0.1080 -0.8906
  291MOL0     C40026   9.377   7.105   3.694 -0.1468 -0.7504 -0.6478
  291MOL0     C40027   9.245   7.052   3.683  0.6160 -0.2405 -0.6087
  291MOL0     O40028   9.157   7.112   3.593  0.0382  0.5052  0.2232
  291MOL0     C40029   9.067   7.019   3.517  0.3696 -0.0916  0.0182
  291MOL0     C40030   9.013   7.100   3.410  0.0090  0.7970 -0.2553
  291MOL0     C40031   8.965   6.998   3.305  0.7190 -0.0675 -0.5564
  291MOL0     C40032   8.928   7.065   3.180  0.6298  0.0436  0.1063
  291MOL0     C40033   8.887   6.960   3.081 -0.2576  0.5833  0.5466
  291MOL0     C40034   8.891   7.009   2.928  0.1083  0.5279  0.2605
  291MOL0     C40035   9.031   7.039   2.882  0.1659  0.5342 -0.7012
  291MOL0     C40036   9.071   6.933   2.783 -0.2528  0.5714 -0.1670
  291MOL0     N40037   9.198   6.944   2.714  0.2588  0.1193  0.3243
  291MOL0     C40038   9.299   7.021   2.751  0.3056 -0.1108  0.5518
  291MOL0     C40039   9.377   7.032   2.643  0.4190  0.6800 -0.1139
  291MOL0     C40040   9.494   7.118   2.613  0.1816 -0.4460  0.6555
  291MOL0     C40041   9.471   7.194   2.479 -0.2076  0.0576 -1.4106
  291MOL0     C40042   9.597   7.251   2.421 -0.3631  0.3828  0.8101
  291MOL0     C40043   9.589   7.316   2.279 -0.6086  0.2994  0.1292
  291MOL0     O40044   9.709   7.376   2.231 -0.2043 -0.0874  0.1371
  291MOL0     C40045   9.700   7.509   2.206 -0.3456  0.5845 -0.1333
  291MOL0     C40046   9.753   7.553   2.082 -0.1387 -0.2562 -0.9726
  291MOL0     C40047   9.725   7.676   2.022 -0.1929 -1.3387  0.5393
  291MOL0     C40048   9.777   7.697   1.878 -0.4056 -1.3419  1.3009
  291MOL0     C40049   9.653   7.775   2.101 -0.3769  0.8351  0.2212
  291MOL0     C40050   9.614   7.913   2.057 -0.4891 -0.9968 -0.1821
  291MOL0     O40051   9.552   8.001   2.157 -0.3985  0.4484  0.6125
  291MOL0     C40052   9.534   8.127   2.130  0.2511  0.0367  0.0814
  291MOL0     C40053   9.404   8.180   2.159 -0.2185  0.0129  0.5266
  291MOL0     C40054   9.392   8.318   2.137  0.8512  0.0389 -0.3313
  291MOL0     C40055   9.487   8.392   2.067 -0.2483 -0.0260 -0.2403
  291MOL0     O40056   9.462   8.525   2.050  0.0638  0.4049 -0.4351
  291MOL0     C40057   9.502   8.572   1.920 -0.0828  0.2634 -0.1271
  291MOL0     C40058   9.473   8.712   1.896  0.6715  0.0362  1.0675
  291MOL0     C40059   9.504   8.797   2.013 -0.0848 -0.2940  1.2348
  291MOL0     C40060   9.465   8.939   1.970  0.1471  0.3595 -1.0033
  291MOL0     C40061   9.495   9.029   2.096 -0.0454 -0.5434  0.3435
  291MOL0     C40062   9.642   9.023   2.142  1.0099  0.8563  0.4252
  291MOL0     C40063   9.689   9.129   2.248  0.0231  0.3867  0.1777
  291MOL0     C40064   9.835   9.113   2.282  0.2284  0.3802  0.0413
  291MOL0    Cl40065   9.871   9.215   2.426 -0.1377  0.2046 -0.1114
  291MOL0     C40066   9.613   8.340   2.049  0.0803  0.1188  0.0452
  291MOL0     C40067   9.634   8.203   2.080  0.3128 -0.2839  0.0414
  291MOL0     O40068   9.631   7.939   1.944  0.2131 -0.0703 -0.2344
  291MOL0     C40069   9.597   7.731   2.224 -0.1122 -0.3971  0.6889
  291MOL0     C40070   9.621   7.604   2.271 -0.5965  0.9977 -0.5533
  291MOL0     N40071   9.328   6.945   2.546  0.4329  1.0457 -0.2951
  291MOL0     N40072   9.212   6.897   2.585 -0.2205 -0.1282  0.1096
  291MOL0     C40073   9.210   6.949   3.772 -0.1772 -1.0343 -1.1537
  291MOL0     C40074   9.306   6.915   3.873  0.0135  0.1130 -0.5376
  291MOL0     C40075   9.649   6.821   4.119  0.1519  0.1464  0.0691
  291MOL0     C40076   9.539   6.783   4.209 -0.9196  0.5068  0.1941
  291MOL0     C40077   9.562   6.733   4.333 -0.2398 -0.9277 -0.5970
  291MOL0     C40078   9.691   6.729   4.386 -0.6376  0.0611  0.6497
  291MOL0     O40079   9.722   6.707   4.522  0.4266  0.0887 -0.1338
  291MOL0     C40080   9.611   6.690   4.612  0.6039  0.2258 -0.6799
  291MOL0     C40081   9.660   6.617   4.740  0.0130 -0.4710 -0.4934
  291MOL0     C40082   9.664   6.465   4.718  0.9889 -1.1237  0.0479
  291MOL0     C40083   9.531   6.387   4.722 -0.5246  0.0904  0.1764
  291MOL0     C40084   9.549   6.248   4.678  0.4411 -0.3589  0.5583
  291MOL0     C40085   9.573   6.137   4.632 -0.0656  0.6516  0.0103
  291MOL0     C40086   9.796   6.766   4.295 -0.1385 -0.3191  0.0195
  291MOL0     C40087   9.778   6.808   4.161 -0.5642  0.0596  0.3105
  291MOL0     C40088   9.894   6.838   4.076  0.3997 -0.3886  0.8025
  291MOL0     H40089   9.566   7.126   3.802  0.1747 -1.5764  1.3274
  291MOL0     H40090   9.403   7.178   3.618 -1.8874  0.8834  0.2504
  291MOL0     H40091   8.978   6.985   3.571 -1.4292  0.2721 -2.5299
  291MOL0     H40092   9.119   6.926   3.493 -2.2926 -2.1679  1.7487
  291MOL0     H40093   8.928   7.162   3.439 -1.6504  0.1690 -3.3509
  291MOL0     H40094   9.097   7.150   3.362  2.1752 -3.3931 -1.3306
  291MOL0     H40095   9.045   6.928   3.279  0.2011 -1.3879  1.2060
  291MOL0     H40096   8.890   6.930   3.348  0.2835  1.5340  1.3246
  291MOL0     H40097   8.846   7.136   3.195  0.2527 -0.9159  3.5638
  291MOL0     H40098   9.025   7.106   3.152  1.4809 -2.6280 -1.1501
  291MOL0     H40099   8.793   6.911   3.107  0.9465 -2.9610 -1.1021
  291MOL0     H40100   8.962   6.881   3.067 -0.9065  0.2758 -1.5681
  291MOL0     H40101   8.838   6.947   2.856  0.2671  0.0275  0.5669
  291MOL0     H40102   8.830   7.100   2.929  0.6301  0.9838 -2.3276
  291MOL0     H40103   9.105   7.037   2.963  1.0989 -2.2461 -1.5139
  291MOL0     H40104   9.030   7.137   2.834 -0.6757  0.8118 -0.1372
  291MOL0     H40105   9.070   6.835   2.831 -0.1452 -0.2078 -1.6992
  291MOL0     H40106   8.998   6.935   2.702 -1.4622  0.3803  0.8860
  291MOL0     H40107   9.326   7.083   2.836  1.2628  0.3880 -0.1061
  291MOL0     H40108   9.578   7.049   2.602 -0.5897 -1.4893  1.1479
  291MOL0     H40109   9.515   7.189   2.693 -3.1699  0.4634  0.8800
  291MOL0     H40110   9.435   7.121   2.406  2.5074 -0.7509 -2.0874
  291MOL0     H40111   9.393   7.269   2.494  0.8579  0.7810  0.8710
  291MOL0     H40112   9.634   7.330   2.487 -0.2936  2.0755 -1.1612
  291MOL0     H40113   9.676   7.175   2.415 -1.1549 -0.5134  1.3904
  291MOL0     H40114   9.551   7.251   2.200  0.8472 -2.2715  1.4203
  291MOL0     H40115   9.514   7.395   2.287  1.3333  2.0936  1.7274
  291MOL0     H40116   9.815   7.481   2.030  1.5983  0.0329  0.5970
  291MOL0     H40117   9.838   7.612   1.847  1.5912  0.1143  1.0897
  291MOL0     H40118   9.840   7.786   1.871 -2.0263 -0.1132  1.6879
  291MOL0     H40119   9.707   7.707   1.795  0.6577  4.6049  0.7312
  291MOL0     H40120   9.339   8.103   2.198  4.1684 -4.8129 -0.6121
  291MOL0     H40121   9.303   8.369   2.171  1.5375  0.3709  1.0478
  291MOL0     H40122   9.609   8.554   1.914  0.2909  1.1570  2.4794
  291MOL0     H40123   9.463   8.505   1.844 -0.5536 -0.1768  0.4944
  291MOL0     H40124   9.545   8.754   1.825 -0.7052 -2.8518 -2.3523
  291MOL0     H40125   9.370   8.721   1.860  1.7283  0.2882 -2.2739
  291MOL0     H40126   9.612   8.794   2.033  0.2717  2.2679  0.1167
  291MOL0     H40127   9.465   8.749   2.103 -1.5752 -1.2997  0.0771
  291MOL0     H40128   9.359   8.954   1.948  0.6766  2.3590 -2.4959
  291MOL0     H40129   9.527   8.983   1.891 -0.7357 -0.0953 -1.9675
  291MOL0     H40130   9.479   9.134   2.069  2.0433 -0.3770 -0.4758
  291MOL0     H40131   9.437   8.998   2.183 -2.2688 -0.6615 -1.0860
  291MOL0     H40132   9.707   9.016   2.054 -0.5866 -4.8238 -0.7453
  291MOL0     H40133   9.655   8.930   2.197 -1.0422 -0.0925 -0.5704
  291MOL0     H40134   9.635   9.105   2.340  0.4110  0.8322  0.5270
  291MOL0     H40135   9.676   9.232   2.215  0.6616  0.6643  0.7815
  291MOL0     H40136   9.905   9.122   2.199  3.9224 -2.4006  2.5589
  291MOL0     H40137   9.849   9.011   2.319  0.1602  0.9865  1.8602
  291MOL0     H40138   9.700   8.394   2.013 -1.6199  1.7450 -1.8362
  291MOL0     H40139   9.732   8.158   2.079 -0.6686 -2.5754 -1.7694
  291MOL0     H40140   9.530   7.791   2.283 -0.6354  0.2279 -0.5079
  291MOL0     H40141   9.582   7.586   2.370  1.8654 -0.2219  0.2801
  291MOL0     H40142   9.111   6.903   3.769 -0.5737 -0.4130  0.9609
  291MOL0     H40143   9.264   6.834   3.933 -3.3995  0.3702 -2.3045
  291MOL0     H40144   9.434   6.793   4.183 -0.8448  1.3551  0.1842
  291MOL0     H40145   9.473   6.711   4.391 -0.8926  0.0249 -1.2233
  291MOL0     H40146   9.570   6.785   4.647  1.0507 -0.3494  1.5994
  291MOL0     H40147   9.524   6.636   4.573  0.1646 -0.3627  1.0283
  291MOL0     H40148   9.581   6.645   4.811 -2.1927  1.0217 -3.2924
  291MOL0     H40149   9.760   6.650   4.770  0.3087 -2.4096  0.7902
  291MOL0     H40150   9.706   6.451   4.618  1.1688  1.5525 -0.3288
  291MOL0     H40151   9.742   6.431   4.786  1.0097 -0.2101  0.4981
  291MOL0     H40152   9.463   6.438   4.653 -1.7983 -1.6149  0.1049
  291MOL0     H40153   9.490   6.391   4.823  2.0271 -2.3778  1.4459
  291MOL0     H40154   9.607   6.036   4.621  2.5775  1.5603 -0.8336
  291MOL0     H40155   9.895   6.756   4.337 -0.1963  1.4044  0.6089
  291MOL0     H40156   9.993   6.825   4.122  0.7060 -0.6451  0.0829
  291MOL0     H40157   9.898   6.776   3.987  0.5071  1.8752 -0.8776
  291MOL0     H40158   9.877   6.939   4.037 -2.0270  0.0647  2.8098
  292MOL0     O40159   2.978   6.777   2.599  0.6696  0.3626  0.5148
  292MOL0     C40160   2.979   6.817   2.710 -0.2867 -0.2498 -1.1383
  292MOL0     O40161   2.977   6.952   2.748 -0.2263  0.3496  0.1779
  292MOL0     C40162   2.978   7.053   2.648 -0.2781 -0.7464 -0.1251
  292MOL0     C40163   3.092   7.120   2.617  0.8397  0.1495  0.2621
  292MOL0     C40164   3.103   7.203   2.497 -0.6305  0.8169 -0.9711
  292MOL0     C40165   2.999   7.212   2.408 -0.6752 -0.5575  0.2574
  292MOL0     O40166   3.005   7.308   2.304  0.3915 -0.1653 -0.5866
  292MOL0     C40167   3.128   7.370   2.261 -0.1374 -0.3461  0.3736
  292MOL0     C40168   3.108   7.496   2.185 -0.5192  0.0741  0.1719
  292MOL0     C40169   3.238   7.563   2.127  1.1061 -0.2059  0.0247
  292MOL0     C40170   3.202   7.676   2.035  0.4130 -0.0656 -0.5324
  292MOL0     C40171   3.312   7.782   2.038  0.2579 -0.1992  0.9048
  292MOL0     C40172   3.322   7.879   1.924 -0.5909 -0.1170 -0.0493
  292MOL0     C40173   3.420   7.989   1.948  0.9083 -0.2429 -0.0053
  292MOL0     C40174   3.384   8.115   1.853 -0.5735  0.4386  0.0532
  292MOL0     N40175   3.437   8.239   1.897 -1.1710 -0.5424 -0.6158
  292MOL0     C40176   3.363   8.346   1.950  0.4142  0.4050 -1.0890
  292MOL0     C40177   3.455   8.444   1.978  0.8452 -0.3344  0.3402
  292MOL0     C40178   3.416   8.591   2.004  0.1955  0.1988  0.2931
  292MOL0     C40179   3.472   8.643   2.135 -0.4327 -0.2834  0.8038
  292MOL0     C40180   3.408   8.576   2.257  1.3824 -0.4112 -0.2871
  292MOL0     C40181   3.440   8.642   2.387  0.4081 -0.0198  0.5116
  292MOL0     O40182   3.584   8.654   2.386 -0.5621  0.5175  0.2026
  292MOL0     C40183   3.645   8.657   2.504  0.0434  0.4548  0.0172
  292MOL0     C40184   3.693   8.543   2.559  0.7399 -0.9906  0.0549
  292MOL0     C40185   3.764   8.554   2.681  0.0116  0.9774 -0.1774
  292MOL0     C40186   3.829   8.425   2.721  0.3809 -0.2293  0.8275
  292MOL0     C40187   3.762   8.673   2.760 -0.1331 -0.1724  0.0726
  292MOL0     C40188   3.818   8.686   2.893  0.3924  0.0735 -0.7417
  292MOL0     O40189   3.751   8.758   2.987  0.4565  0.6090  0.2496
  292MOL0     C40190   3.799   8.777   3.118  0.5728  0.5490  0.5588
  292MOL0     C40191   3.716   8.760   3.226 -0.5104 -0.0847 -0.0026
  292MOL0     C40192   3.760   8.762   3.358  0.0989  0.0085 -0.1709
  292MOL0     C40193   3.896   8.793   3.386  0.6915  0.3145  0.0111
  292MOL0     O40194   3.952   8.823   3.508  0.4056  0.7442  0.0889
  292MOL0     C40195   3.891   8.765   3.625 -0.3025  1.0264 -1.0683
  292MOL0     C40196   3.944   8.840   3.755  0.8825 -0.4289  0.2429
  292MOL0     C40197   3.913   8.996   3.757  0.3069 -0.9635  0.0446
  292MOL0     C40198   4.014   9.069   3.837  0.3208 -0.8916  0.2829
  292MOL0     C40199   3.960   9.203   3.886 -0.2737 -0.4560  1.0884
  292MOL0     C40200   4.051   9.305   3.956 -0.4058  1.0456  0.4219
  292MOL0     C40201   3.977   9.433   4.010 -0.0173  0.1202  0.7496
  292MOL0     C40202   4.055   9.512   4.112  0.1541 -0.2863  1.1647
  292MOL0    Cl40203   4.023   9.444   4.273 -0.1473  0.3530  0.3001
  292MOL0     C40204   3.973   8.832   3.277 -0.6053  1.0021 -0.2576
  292MOL0     C40205   3.930   8.818   3.146 -0.1084 -0.2396  0.5938
  292MOL0     O40206   3.932   8.634   2.915 -0.0020 -0.3500 -0.6685
  292MOL0     C40207   3.702   8.783   2.700  0.2901  0.0981 -0.3947
  292MOL0     C40208   3.652   8.775   2.575 -0.7100 -0.3400  0.3686
  292MOL0     N40209   3.578   8.400   1.934  0.3114 -0.1174 -0.4764
  292MOL0     N40210   3.568   8.278   1.890  0.7086  0.3089  0.2541
  292MOL0     C40211   2.885   7.141   2.437 -0.2925 -0.1227 -1.0219
  292MOL0     C40212   2.880   7.051   2.549  0.1888  0.4229 -0.4477
  292MOL0     C40213   2.999   6.718   2.830  0.7226 -0.1457 -0.0429
  292MOL0     C40214   2.972   6.764   2.963 -1.1213 -0.6906  1.0182
  292MOL0     C40215   2.996   6.679   3.069  0.1767  0.5515 -0.0533
  292MOL0     C40216   3.032   6.540   3.050  0.4979 -0.4156  0.4102
  292MOL0     O40217   3.050   6.455   3.150 -0.1023  0.2615 -0.9924
  292MOL0     C40218   2.927   6.402   3.201 -0.2211  0.1674 -0.3070
  292MOL0     C40219   2.960   6.272   3.267 -0.2118 -0.1301  0.2519
  292MOL0     C40220   2.846   6.215   3.346  0.4367  0.3427  0.3442
  292MOL0     C40221   2.889   6.084   3.414  0.4954 -0.4652  0.2496
  292MOL0     C40222   2.805   6.034   3.520  0.2316 -0.1158  0.4641
  292MOL0     C40223   2.733   5.977   3.599  0.2067  0.1196  0.4341
  292MOL0     C40224   3.058   6.503   2.913  0.3430 -0.0935  0.7334
  292MOL0     C40225   3.044   6.592   2.810 -0.3717 -0.4373  1.0621
  292MOL0     C40226   3.082   6.518   2.681  0.3409  0.5291  1.1870
  292MOL0     H40227   3.175   7.103   2.684  0.0450 -0.7829  1.0482
  292MOL0     H40228   3.202   7.235   2.465 -0.8669  3.8665  0.8844
  292MOL0     H40229   3.170   7.299   2.189 -0.7039  0.9749 -1.3370
  292MOL0     H40230   3.202   7.410   2.330  2.4189  1.8764 -3.3043
  292MOL0     H40231   3.041   7.483   2.100  0.8998 -1.5584 -0.7599
  292MOL0     H40232   3.062   7.577   2.242 -0.7226  2.5804 -3.1978
  292MOL0     H40233   3.289   7.599   2.217 -2.0027  1.6887  1.2117
  292MOL0     H40234   3.301   7.503   2.061  0.5058  0.4872 -1.2076
  292MOL0     H40235   3.174   7.644   1.935 -0.6930 -2.4872  0.4847
  292MOL0     H40236   3.111   7.731   2.063  0.6091  0.9136 -1.7235
  292MOL0     H40237   3.401   7.722   2.021 -1.1357 -1.6339 -2.3046
  292MOL0     H40238   3.308   7.838   2.132 -1.1531 -0.6988  1.1732
  292MOL0     H40239   3.352   7.824   1.834  1.6079 -2.7335  2.1012
  292MOL0     H40240   3.218   7.905   1.905 -1.2779 -2.0976  0.7499
  292MOL0     H40241   3.522   7.950   1.951  0.4830 -1.6195 -1.8199
  292MOL0     H40242   3.400   8.024   2.050  0.8964  1.6185 -0.6116
  292MOL0     H40243   3.443   8.092   1.764 -0.4516  2.6223 -0.5022
  292MOL0     H40244   3.279   8.134   1.830 -0.5248 -0.1254 -0.6623
  292MOL0     H40245   3.259   8.350   1.980  0.4018 -0.5585 -0.9908
  292MOL0     H40246   3.308   8.589   2.018  0.5377 -2.1693  3.6554
  292MOL0     H40247   3.432   8.656   1.917  2.1803  0.6139  0.9119
  292MOL0     H40248   3.579   8.619   2.136 -0.0934  0.4553 -2.6036
  292MOL0     H40249   3.456   8.751   2.128 -1.1801 -0.4016  0.6007
  292MOL0     H40250   3.299   8.577   2.243  1.2984  0.1645  0.3773
  292MOL0     H40251   3.434   8.470   2.262 -0.2526 -0.7934  1.4433
  292MOL0     H40252   3.398   8.743   2.394  1.7944  0.5239  1.1662
  292MOL0     H40253   3.395   8.587   2.471  0.4259  4.5969  3.9413
  292MOL0     H40254   3.688   8.455   2.495  2.2198 -0.9866 -0.1023
  292MOL0     H40255   3.804   8.394   2.823 -3.3206 -3.7422 -0.8756
  292MOL0     H40256   3.936   8.415   2.703  0.4057  1.1415  0.0654
  292MOL0     H40257   3.783   8.346   2.661 -2.2367  1.7385  0.0101
  292MOL0     H40258   3.610   8.736   3.221  0.0968 -2.9075 -1.6684
  292MOL0     H40259   3.685   8.757   3.437  1.8457 -1.5076  1.5229
  292MOL0     H40260   3.782   8.780   3.633 -0.1012  1.6718  1.0332
  292MOL0     H40261   3.911   8.658   3.620  0.1999  1.1732 -4.7041
  292MOL0     H40262   3.900   8.789   3.841 -1.2124  1.8044  0.6044
  292MOL0     H40263   4.052   8.833   3.769  0.9687  1.3001  0.6806
  292MOL0     H40264   3.811   9.015   3.792 -0.0915 -1.4542 -0.8225
  292MOL0     H40265   3.907   9.037   3.656 -1.8995  0.0171  0.5049
  292MOL0     H40266   4.108   9.085   3.785  0.0976  0.4191  0.2584
  292MOL0     H40267   4.039   9.008   3.925 -1.4474 -2.0160  0.0612
  292MOL0     H40268   3.923   9.254   3.796 -0.7332 -0.8897  1.0267
  292MOL0     H40269   3.865   9.182   3.935  0.0515 -1.2888  1.3780
  292MOL0     H40270   4.132   9.338   3.890  1.4521 -1.0300  1.5372
  292MOL0     H40271   4.095   9.247   4.038  1.6783  1.5376 -0.2864
  292MOL0     H40272   3.881   9.399   4.051 -0.7276  1.9010  0.6524
  292MOL0     H40273   3.956   9.484   3.915  1.3272  2.0728  1.4447
  292MOL0     H40274   4.027   9.618   4.109 -1.6645 -0.6284  3.4423
  292MOL0     H40275   4.162   9.507   4.091  0.5398  4.7404  0.6035
  292MOL0     H40276   4.067   8.882   3.297 -0.9929  0.2456  4.6931
  292MOL0     H40277   3.996   8.829   3.060 -0.0695  1.1777  0.7811
  292MOL0     H40278   3.707   8.877   2.754 -1.4435 -0.7656  1.3713
  292MOL0     H40279   3.611   8.866   2.532 -1.5128 -1.7766 -2.0889
  292MOL0     H40280   2.797   7.138   2.374 -0.4026 -1.8611 -0.8421
  292MOL0     H40281   2.785   7.001   2.565  0.2036  0.5757  0.1114
  292MOL0     H40282   2.932   6.862   2.986 -1.1977 -0.6778  0.8256
  292MOL0     H40283   2.997   6.726   3.167 -4.7573 -0.8902  0.9513
  292MOL0     H40284   2.889   6.479   3.269 -1.3011  1.4156 -2.2468
  292MOL0     H40285   2.847   6.399   3.126  0.8892 -1.1600 -1.4891
  292MOL0     H40286   3.041   6.293   3.338 -0.4336 -0.3977  0.5888
  292MOL0     H40287   2.996   6.197   3.196 -2.3048 -1.4310  0.4949
  292MOL0     H40288   2.815   6.281   3.427 -1.4857 -0.5423  0.3999
  292MOL0     H40289   2.753   6.206   3.288 -0.7095 -0.3197  2.2130
  292MOL0     H40290   2.988   6.106   3.455  0.7393 -0.7655 -0.1686
  292MOL0     H40291   2.917   6.005   3.343  2.3687 -0.5890  1.0463
  292MOL0     H40292   2.652   5.936   3.656 -1.6573  1.3705 -1.1509
  292MOL0     H40293   3.069   6.399   2.886 -0.7177  0.4616 -2.1381
  292MOL0     H40294   3.173   6.468   2.716 -1.2264 -2.5575  1.1764
  292MOL0     H40295   3.012   6.443   2.645 -0.5841  0.6785  2.5897
  292MOL0     H40296   3.122   6.589   2.607  1.7092  1.9474  3.1621
  293MOL0     O40297   3.524  10.597   3.889 -0.1256  0.4476 -0.7320
  293MOL0     C40298   3.470  10.588   3.778 -0.3727  0.3241  0.8478
  293MOL0     O40299   3.532  10.536   3.666 -0.5134  0.0935  0.0463
  293MOL0     C40300   3.635  10.445   3.673  0.0597 -0.7876  0.2336
  293MOL0     C40301   3.739  10.451   3.582 -0.5987 -0.0310  0.8263
  293MOL0     C40302   3.854  10.367   3.595  0.0636  1.0444 -0.2089
  293MOL0     C40303   3.870  10.267   3.695 -0.2679 -0.3281 -0.4644
  293MOL0     O40304   3.979  10.187   3.704  0.7422 -0.4891  0.0002
  293MOL0     C40305   3.976  10.059   3.766  0.1512 -0.6863 -0.8748
  293MOL0     C40306   3.901   9.952   3.688  0.4436 -1.0767 -0.2365
  293MOL0     C40307   3.917   9.805   3.742  0.3013 -0.1976 -0.2773
  293MOL0     C40308   3.881   9.786   3.888  0.0063 -0.2073  0.0146
  293MOL0     C40309   3.735   9.827   3.920 -0.1407  0.5660 -0.3912
  293MOL0     C40310   3.614   9.755   3.850 -0.4656  0.3367  0.7629
  293MOL0     C40311   3.585   9.620   3.917  0.6779  0.3590 -0.3937
  293MOL0     C40312   3.478   9.532   3.852  0.6978 -0.1067  0.6434
  293MOL0     N40313   3.550   9.416   3.807 -0.2346  0.5738  0.4555
  293MOL0     C40314   3.536   9.359   3.683  0.5234 -0.2577 -0.5360
  293MOL0     C40315   3.582   9.230   3.695  0.8601  0.2202 -0.8660
  293MOL0     C40316   3.549   9.115   3.597  0.4951  0.2968  0.1572
  293MOL0     C40317   3.400   9.069   3.614  0.0575 -0.2587  0.5210
  293MOL0     C40318   3.384   8.930   3.549 -0.0924  0.0646  0.5555
  293MOL0     C40319   3.236   8.900   3.527 -0.1076  0.4331 -0.0769
  293MOL0     O40320   3.173   8.999   3.445 -0.0078 -0.4745 -0.2079
  293MOL0     C40321   3.078   8.954   3.356 -0.4484 -0.5986  0.1453
  293MOL0     C40322   2.946   8.961   3.386  0.9229  0.9192 -0.4943
  293MOL0     C40323   2.845   8.932   3.287 -0.3021  0.0341 -0.1438
  293MOL0     C40324   2.704   8.954   3.325  1.0393 -0.2565  0.1759
  293MOL0     C40325   2.883   8.887   3.158 -0.9566 -0.2326  1.2121
  293MOL0     C40326   2.787   8.859   3.045 -0.7676  0.7360 -0.3011
  293MOL0     O40327   2.672   8.811   3.078  0.3480  0.5149 -0.1371
  293MOL0     C40328   2.567   8.819   2.982 -0.3062  0.7573  0.8860
  293MOL0     C40329   2.564   8.728   2.874 -1.0784  0.1206 -0.6335
  293MOL0     C40330   2.462   8.728   2.780 -0.5058  0.1517 -0.1561
  293MOL0     C40331   2.369   8.823   2.782  0.0283  0.0380  0.3197
  293MOL0     O40332   2.275   8.816   2.684  0.5709  0.2788  0.1977
  293MOL0     C40333   2.137   8.845   2.707  1.0108 -0.4849 -0.5699
  293MOL0     C40334   2.077   8.908   2.579 -0.0703 -0.3392  0.8167
  293MOL0     C40335   1.929   8.896   2.566 -0.3546 -0.0218  1.0269
  293MOL0     C40336   1.850   9.014   2.615 -0.8938 -0.4644 -0.2240
  293MOL0     C40337   1.700   8.993   2.615 -0.1420  0.3919  0.1733
  293MOL0     C40338   1.625   9.122   2.674 -0.5193 -0.7541  0.3680
  293MOL0     C40339   1.615   9.234   2.562 -0.6666  0.2698  0.2192
  293MOL0     C40340   1.578   9.360   2.641  0.4319  0.5645  0.3666
  293MOL0    Cl40341   1.539   9.488   2.535  0.4090 -0.1993  0.0168
  293MOL0     C40342   2.369   8.920   2.881  0.3050  0.0584  1.1358
  293MOL0     C40343   2.474   8.919   2.981 -0.0917 -0.1221 -0.0510
  293MOL0     O40344   2.825   8.874   2.931 -0.2218  0.2683  0.4761
  293MOL0     C40345   3.025   8.880   3.133 -0.0184  0.5651 -0.0454
  293MOL0     C40346   3.121   8.915   3.223  1.2226  0.6493 -0.6785
  293MOL0     N40347   3.631   9.215   3.823  0.0238 -0.0820  0.8281
  293MOL0     N40348   3.613   9.324   3.884 -0.4372 -0.3307 -0.7613
  293MOL0     C40349   3.756  10.261   3.781  0.4144 -0.5442  0.1655
  293MOL0     C40350   3.650  10.343   3.763  0.3567  0.3165 -0.5574
  293MOL0     C40351   3.331  10.654   3.753 -0.7912 -0.1216 -0.3333
  293MOL0     C40352   3.300  10.677   3.622  0.2269 -0.1457  0.6583
  293MOL0     C40353   3.184  10.737   3.582  0.7534 -0.1340 -0.6129
  293MOL0     C40354   3.090  10.776   3.680  1.1401  0.2762 -0.5319
  293MOL0     O40355   2.976  10.836   3.634 -0.5278 -0.6801 -0.1479
  293MOL0     C40356   2.879  10.898   3.728 -0.3215 -0.0900  0.6638
  293MOL0     C40357   2.927  11.036   3.778 -0.2381  0.5516 -0.2799
  293MOL0     C40358   2.978  11.130   3.653  0.0434  0.3465 -0.1550
  293MOL0     C40359   2.912  11.263   3.633 -0.1083 -0.3799  0.7690
  293MOL0     C40360   2.966  11.336   3.515  0.7569  0.1111 -0.4425
  293MOL0     C40361   2.994  11.405   3.419 -0.1783 -0.2840  0.0832
  293MOL0     C40362   3.116  10.756   3.814  0.0913  0.2935 -0.7444
  293MOL0     C40363   3.242  10.700   3.861  0.2497  0.3391  0.6420
  293MOL0     C40364   3.290  10.690   4.008 -0.5188 -0.3657  0.7012
  293MOL0     H40365   3.751  10.530   3.509  0.3155  0.1285  1.1312
  293MOL0     H40366   3.941  10.390   3.533  0.0085  1.2059 -0.2284
  293MOL0     H40367   3.920  10.059   3.860 -1.4709 -1.7434 -1.7833
  293MOL0     H40368   4.078  10.023   3.784  0.2154 -0.4075 -0.6726
  293MOL0     H40369   3.797   9.984   3.674  1.8982  3.4429 -3.0541
  293MOL0     H40370   3.945   9.959   3.588 -2.0275  0.4017 -1.3303
  293MOL0     H40371   3.838   9.747   3.694  0.4117 -1.3902  0.9369
  293MOL0     H40372   4.007   9.760   3.700  0.0446  0.1385 -1.2306
  293MOL0     H40373   3.887   9.681   3.919  0.9656 -0.0859  0.2764
  293MOL0     H40374   3.956   9.834   3.951  0.4376 -0.8701  0.0182
  293MOL0     H40375   3.723   9.932   3.892 -1.0655  0.3893 -0.7123
  293MOL0     H40376   3.716   9.820   4.028 -0.1025  2.3226 -0.2497
  293MOL0     H40377   3.526   9.818   3.865 -2.0079 -1.8777  1.5712
  293MOL0     H40378   3.617   9.733   3.743 -3.9279 -0.3625  0.7023
  293MOL0     H40379   3.542   9.630   4.017  0.2737  1.5915 -0.6716
  293MOL0     H40380   3.686   9.578   3.928  0.5034 -0.2293 -0.9688
  293MOL0     H40381   3.401   9.491   3.919 -1.1967 -2.6026 -2.7340
  293MOL0     H40382   3.425   9.584   3.773  0.2440  1.5628  1.9871
  293MOL0     H40383   3.486   9.407   3.600 -0.0349 -0.5668 -0.3822
  293MOL0     H40384   3.608   9.031   3.633 -1.0768 -1.0244 -0.2199
  293MOL0     H40385   3.580   9.134   3.493 -3.0555 -0.8496 -1.2662
  293MOL0     H40386   3.379   9.069   3.721 -1.0560  0.5566  0.3297
  293MOL0     H40387   3.344   9.152   3.569  2.1097  0.6019 -0.5561
  293MOL0     H40388   3.419   8.950   3.448 -3.0491  2.1465 -0.1763
  293MOL0     H40389   3.440   8.842   3.583 -2.4778 -2.2412 -1.0475
  293MOL0     H40390   3.223   8.805   3.475  1.6305 -1.2822  2.3994
  293MOL0     H40391   3.187   8.876   3.621  0.7740 -1.5848 -0.0714
  293MOL0     H40392   2.926   9.009   3.481 -1.8640  1.6451 -1.3548
  293MOL0     H40393   2.653   8.857   3.331 -0.4112  0.5615  2.1712
  293MOL0     H40394   2.649   9.002   3.244  1.3217 -1.3664 -0.6950
  293MOL0     H40395   2.696   9.005   3.421  2.0481 -1.3582  0.8650
  293MOL0     H40396   2.659   8.677   2.856  1.2937  3.9238 -0.0368
  293MOL0     H40397   2.458   8.656   2.698 -1.8580 -2.4571  2.0551
  293MOL0     H40398   2.076   8.759   2.736  1.4985  0.0466  2.3840
  293MOL0     H40399   2.129   8.926   2.781 -0.5039 -0.2074 -0.9966
  293MOL0     H40400   2.116   9.009   2.561 -1.6590 -0.0333 -1.1945
  293MOL0     H40401   2.123   8.855   2.496 -1.1101 -1.4346  0.9180
  293MOL0     H40402   1.900   8.802   2.614  2.1448 -2.9994 -2.6715
  293MOL0     H40403   1.908   8.882   2.460 -0.0912  1.7974  0.6996
  293MOL0     H40404   1.874   9.085   2.535  0.5217 -3.1167 -2.3306
  293MOL0     H40405   1.888   9.047   2.712  0.8983  2.8337 -1.8857
  293MOL0     H40406   1.653   8.962   2.522  0.7149  1.1110 -0.5101
  293MOL0     H40407   1.685   8.908   2.682  2.6578 -0.2770  0.0969
  293MOL0     H40408   1.677   9.157   2.764 -0.5238 -0.5783  0.3024
  293MOL0     H40409   1.524   9.087   2.693 -0.2812 -2.3745 -1.1413
  293MOL0     H40410   1.543   9.217   2.481 -0.2968  2.6142 -0.6682
  293MOL0     H40411   1.703   9.257   2.502 -0.2435  0.7528  1.0112
  293MOL0     H40412   1.652   9.390   2.716  0.8274  1.2166 -0.2733
  293MOL0     H40413   1.487   9.331   2.695  0.5628 -2.8518 -1.0126
  293MOL0     H40414   2.297   9.001   2.872 -0.9387 -1.2081 -1.1469
  293MOL0     H40415   2.475   9.001   3.053  1.6735  2.2420 -2.5243
  293MOL0     H40416   3.058   8.848   3.034 -0.6090  2.0159 -0.7466
  293MOL0     H40417   3.225   8.901   3.193  1.0764  1.0561 -1.3997
  293MOL0     H40418   3.743  10.190   3.862 -3.1727 -0.7665 -0.4787
  293MOL0     H40419   3.565  10.344   3.831 -0.3976 -1.2559 -1.4312
  293MOL0     H40420   3.366  10.647   3.541  0.2980 -0.3238  0.7795
  293MOL0     H40421   3.169  10.749   3.475  1.9593  1.7174 -0.6322
  293MOL0     H40422   2.799  10.931   3.662 -0.3924  0.0982  0.8416
  293MOL0     H40423   2.837  10.840   3.810  2.9708 -1.9665  1.2213
  293MOL0     H40424   3.003  11.032   3.857  1.5332  1.0317 -1.8648
  293MOL0     H40425   2.847  11.089   3.830  0.5574  1.5013  0.0217
  293MOL0     H40426   3.087  11.139   3.661 -0.0651  1.2430  0.3960
  293MOL0     H40427   2.968  11.071   3.561  1.3774  2.5069 -1.7849
  293MOL0     H40428   2.942  11.332   3.713 -0.4470  2.8783 -1.6744
  293MOL0     H40429   2.805  11.247   3.645  0.3566 -2.9204  1.9710
  293MOL0     H40430   3.010  11.478   3.341 -0.5079 -2.2552 -1.9387
  293MOL0     H40431   3.046  10.787   3.892  3.6806  2.2887  1.9787
  293MOL0     H40432   3.320  10.589   4.036  0.1330 -0.5312 -0.5444
  293MOL0     H40433   3.365  10.767   4.026  0.7760 -1.0860 -1.3478
  293MOL0     H40434   3.207  10.718   4.074  0.3625  2.0184  0.8881
  294MOL0     O40435   1.419   4.164  10.718 -0.3836  0.1842  0.3351
  294MOL0     C40436   1.357   4.054  10.720  0.4045 -0.1370  1.1668
  294MOL0     O40437   1.420   3.933  10.717 -0.2955 -0.0144 -0.2924
  294MOL0     C40438   1.549   3.924  10.744 -0.7158  0.1076  0.1106
  294MOL0     C40439   1.594   3.917  10.878  0.4868  1.1469  0.6942
  294MOL0     C40440   1.726   3.895  10.910  0.5965 -0.5467  0.0210
  294MOL0     C40441   1.814   3.884  10.810  0.5974  0.3458 -0.4032
  294MOL0     O40442   1.946   3.851  10.839  0.2716 -0.2164  0.3577
  294MOL0     C40443   2.034   3.805  10.732  0.3130 -0.2202  0.4194
  294MOL0     C40444   2.166   3.745  10.791  0.4045 -0.3964 -0.1490
  294MOL0     C40445   2.249   3.855  10.869  0.4343  0.1891 -0.4617
  294MOL0     C40446   2.368   3.901  10.792  0.2263 -0.7585 -0.3028
  294MOL0     C40447   2.448   4.016  10.851 -0.4408 -0.1346  0.3657
  294MOL0     C40448   2.559   4.056  10.752  0.5155  0.2574 -0.9122
  294MOL0     C40449   2.519   4.134  10.618  0.2861  0.4061 -0.4188
  294MOL0     C40450   2.643   4.194  10.545  0.6488 -0.1379  0.1502
  294MOL0     N40451   2.760   4.110  10.517  1.1038 -0.1669 -0.0076
  294MOL0     C40452   2.797   4.045  10.399 -0.0184  1.0355  0.2394
  294MOL0     C40453   2.931   4.010  10.417 -0.4090  0.2747  0.4052
  294MOL0     C40454   3.009   3.954  10.295 -0.3966 -0.4294  0.4600
  294MOL0     C40455   2.947   3.819  10.252  0.5727  0.3604 -0.1442
  294MOL0     C40456   2.987   3.716  10.352  0.1418  0.7773  0.1715
  294MOL0     C40457   2.939   3.580  10.296  0.6809  0.1142  0.0162
  294MOL0     O40458   2.953   3.479  10.407  0.6833  0.1363 -0.0037
  294MOL0     C40459   3.079   3.428  10.424 -0.8747  0.8368 -0.4618
  294MOL0     C40460   3.146   3.456  10.543 -0.2045  0.1450 -0.5415
  294MOL0     C40461   3.267   3.415  10.577 -0.6112  0.2229  0.6203
  294MOL0     C40462   3.313   3.449  10.713 -0.6911  0.5601 -0.2230
  294MOL0     C40463   3.347   3.363  10.462  0.4322  0.3023  0.0435
  294MOL0     C40464   3.486   3.320  10.483  0.1664  0.5102 -0.9145
  294MOL0     O40465   3.560   3.388  10.577 -0.2331  0.1936 -0.1052
  294MOL0     C40466   3.690   3.366  10.574  0.0539  0.9905  0.1024
  294MOL0     C40467   3.747   3.274  10.658 -0.1349  0.3747  0.7494
  294MOL0     C40468   3.888   3.249  10.651 -0.4575  0.9781 -0.3527
  294MOL0     C40469   3.965   3.316  10.557  0.2486  0.2213  0.7072
  294MOL0     O40470   4.099   3.293  10.556 -0.0143  0.0922  0.3916
  294MOL0     C40471   4.155   3.172  10.615 -0.2008  0.0138  0.0976
  294MOL0     C40472   4.301   3.138  10.587  0.5786 -0.7084 -0.1053
  294MOL0     C40473   4.339   3.156  10.443  0.0247 -0.8315  0.3069
  294MOL0     C40474   4.473   3.074  10.400  0.1920 -0.2725  0.0042
  294MOL0     C40475   4.508   3.113  10.263  0.2001 -0.1783 -0.9349
  294MOL0     C40476   4.553   3.256  10.249  0.2109 -0.2789 -0.3129
  294MOL0     C40477   4.693   3.281  10.310 -0.6626  0.8185  0.4307
  294MOL0     C40478   4.728   3.431  10.289 -0.6131 -0.6333 -0.2984
  294MOL0    Cl40479   4.775   3.478  10.120  0.1150  0.2110  0.1551
  294MOL0     C40480   3.904   3.396  10.462  0.1578  0.2404 -0.1224
  294MOL0     C40481   3.768   3.425  10.472  0.7278 -0.6833  0.5442
  294MOL0     O40482   3.529   3.235  10.415 -0.0554  0.2609  0.8394
  294MOL0     C40483   3.283   3.330  10.338  0.1882 -0.5008 -0.4190
  294MOL0     C40484   3.148   3.362  10.324 -0.0972  0.0657 -0.5200
  294MOL0     N40485   2.966   4.038  10.543 -0.8139  1.2488 -0.3650
  294MOL0     N40486   2.859   4.093  10.610  0.6307  0.5583 -0.1329
  294MOL0     C40487   1.773   3.889  10.677 -0.1650  0.6104  0.2500
  294MOL0     C40488   1.644   3.914  10.648 -0.2105  0.8693  0.5861
  294MOL0     C40489   1.207   4.049  10.688 -0.6039 -0.1930 -0.1960
  294MOL0     C40490   1.134   4.163  10.721 -0.0433  0.0204  0.4634
  294MOL0     C40491   0.995   4.169  10.705  0.3820 -0.7309 -1.0371
  294MOL0     C40492   0.931   4.065  10.644 -0.2235 -0.1393 -0.6206
  294MOL0     O40493   0.798   4.084  10.616 -0.6881 -0.0124  0.1197
  294MOL0     C40494   0.726   4.040  10.505  0.5196 -0.1318  0.3315
  294MOL0     C40495   0.779   4.110  10.376  0.3624 -0.7337  0.0213
  294MOL0     C40496   0.740   4.260  10.367  0.3858 -0.4869  1.2497
  294MOL0     C40497   0.848   4.343  10.302 -0.6059 -0.9020 -0.6331
  294MOL0     C40498   0.794   4.474  10.250 -0.2006  0.4307  0.2029
  294MOL0     C40499   0.740   4.570  10.190 -0.2009  0.1124 -0.0801
  294MOL0     C40500   0.997   3.946  10.613 -0.0843 -0.0161 -0.8814
  294MOL0     C40501   1.136   3.936  10.638  0.3674 -0.2950  0.2633
  294MOL0     C40502   1.197   3.797  10.611  0.5825  0.5353 -0.1332
  294MOL0     H40503   1.523   3.899  10.958  0.0843 -3.6388 -0.4181
  294MOL0     H40504   1.753   3.882  11.015  2.5900 -2.4610 -0.6566
  294MOL0     H40505   2.069   3.881  10.663  2.5569  0.8348  2.5621
  294MOL0     H40506   1.990   3.728  10.668 -1.3314  0.2335  0.9553
  294MOL0     H40507   2.137   3.669  10.863  1.8619 -0.0139  0.8811
  294MOL0     H40508   2.222   3.709  10.705  0.0700  2.0580 -1.4997
  294MOL0     H40509   2.183   3.936  10.902  0.4282 -0.2123  0.5567
  294MOL0     H40510   2.292   3.810  10.959 -0.6968 -0.7558 -0.3718
  294MOL0     H40511   2.439   3.819  10.775 -0.8852 -1.9078  0.4147
  294MOL0     H40512   2.329   3.932  10.695  1.7260  0.6543 -0.4858
  294MOL0     H40513   2.496   3.991  10.946  1.3514  0.3076 -0.3809
  294MOL0     H40514   2.392   4.105  10.882  1.9998  0.9918  1.7882
  294MOL0     H40515   2.628   4.117  10.811  0.0794 -0.2357  0.1325
  294MOL0     H40516   2.616   3.966  10.728  1.3398  0.8223 -1.0998
  294MOL0     H40517   2.458   4.221  10.642  1.2750  0.6701  1.2870
  294MOL0     H40518   2.473   4.054  10.559  0.2089 -1.2400  1.7117
  294MOL0     H40519   2.600   4.217  10.447  3.0798 -2.4489 -1.6087
  294MOL0     H40520   2.668   4.287  10.596 -1.0000  1.5135 -1.8506
  294MOL0     H40521   2.742   4.042  10.306  0.1092 -0.2389  0.1826
  294MOL0     H40522   3.112   3.934  10.324 -1.0644 -1.9195  1.9527
  294MOL0     H40523   3.004   4.032  10.218 -2.9673  3.1711  3.8789
  294MOL0     H40524   2.837   3.821  10.248  0.5084 -0.9279 -4.3751
  294MOL0     H40525   2.976   3.788  10.151  0.6247 -1.3701  0.3777
  294MOL0     H40526   3.096   3.713  10.354  0.1213 -0.1065  0.1817
  294MOL0     H40527   2.946   3.732  10.452 -3.8121 -2.2369 -0.7083
  294MOL0     H40528   2.839   3.596  10.254  0.0496 -1.4445  0.8671
  294MOL0     H40529   3.006   3.555  10.213  1.5513  2.3052 -0.0033
  294MOL0     H40530   3.103   3.520  10.619 -1.1556 -1.4733  0.3346
  294MOL0     H40531   3.227   3.472  10.776 -0.7912  0.7587 -0.4296
  294MOL0     H40532   3.378   3.535  10.692 -0.9881  0.4301 -1.8239
  294MOL0     H40533   3.369   3.368  10.760  0.1000  0.2346 -1.6375
  294MOL0     H40534   3.683   3.219  10.726  0.0121  1.6928  1.9883
  294MOL0     H40535   3.935   3.187  10.727  1.3499  1.5957 -0.8907
  294MOL0     H40536   4.133   3.172  10.722 -3.0209 -1.8140 -0.3849
  294MOL0     H40537   4.097   3.084  10.585 -0.1210 -0.6339  1.7699
  294MOL0     H40538   4.367   3.207  10.641 -0.1326 -1.5563  1.9353
  294MOL0     H40539   4.328   3.042  10.631  1.3209  1.3263  4.3571
  294MOL0     H40540   4.341   3.263  10.420 -1.0679 -0.7187  0.7118
  294MOL0     H40541   4.255   3.122  10.383 -0.5160  0.8395  0.0662
  294MOL0     H40542   4.465   2.966  10.415  0.0692 -0.3190 -0.3795
  294MOL0     H40543   4.558   3.099  10.465 -1.1419  1.9665  1.0073
  294MOL0     H40544   4.590   3.051  10.227  0.4150 -0.4104 -0.0622
  294MOL0     H40545   4.419   3.088  10.205 -1.4920  0.6335  1.1559
  294MOL0     H40546   4.483   3.329  10.290 -0.6403  1.4855 -4.3633
  294MOL0     H40547   4.566   3.280  10.143 -0.2639 -3.6081 -1.2391
  294MOL0     H40548   4.778   3.230  10.263  0.9012  5.8478 -3.1033
  294MOL0     H40549   4.689   3.255  10.416  0.2838  1.3049  0.5964
  294MOL0     H40550   4.798   3.466  10.365 -1.7290  1.3758 -0.1259
  294MOL0     H40551   4.639   3.490  10.314  0.1959 -0.5713  2.8266
  294MOL0     H40552   3.960   3.439  10.379 -1.4965  0.1422 -1.3462
  294MOL0     H40553   3.724   3.501  10.409 -0.5604 -1.2784  0.6992
  294MOL0     H40554   3.337   3.276  10.261  2.6398  2.5794 -1.0662
  294MOL0     H40555   3.107   3.320  10.233 -3.6420 -3.0164  2.1637
  294MOL0     H40556   1.847   3.880  10.599  2.6830  0.8934  2.7209
  294MOL0     H40557   1.618   3.906  10.542 -1.3049 -1.4014  0.9567
  294MOL0     H40558   1.191   4.236  10.779  3.8860 -2.1999 -0.1858
  294MOL0     H40559   0.950   4.254  10.756  0.4910 -2.1091  1.5487
  294MOL0     H40560   0.732   3.932  10.488  1.5597 -0.0346  0.0138
  294MOL0     H40561   0.619   4.063  10.513  0.8252  1.1442  0.9187
  294MOL0     H40562   0.746   4.050  10.291  0.8792  3.4250 -3.4638
  294MOL0     H40563   0.888   4.102  10.372  0.2473 -1.7862 -1.4947
  294MOL0     H40564   0.646   4.267  10.312 -1.0509 -0.2159  3.5888
  294MOL0     H40565   0.712   4.296  10.467  0.1690 -1.8145  1.6860
  294MOL0     H40566   0.892   4.287  10.219  3.2896 -0.1230  0.6688
  294MOL0     H40567   0.928   4.360  10.375 -2.1945  1.4097  0.6883
  294MOL0     H40568   0.688   4.647  10.136  0.2943  0.8134  0.4168
  294MOL0     H40569   0.935   3.872  10.565  0.5826 -1.7866  0.8444
  294MOL0     H40570   1.278   3.808  10.538  0.3900 -2.5345 -0.9575
  294MOL0     H40571   1.234   3.765  10.709  0.6721 -1.7130 -0.8459
  294MOL0     H40572   1.117   3.726  10.587 -0.4679  1.7717 -0.3708
  295MOL0     O40573   1.797   7.214   0.762  0.8140 -0.0149 -0.3178
  295MOL0     C40574   1.827   7.128   0.679 -0.4597 -0.4899  0.8444
  295MOL0     O40575   1.944   7.061   0.689  0.5241 -0.3214 -0.0231
  295MOL0     C40576   2.041   7.100   0.778 -0.0465 -1.3883  0.8409
  295MOL0     C40577   2.158   7.149   0.735  0.1279  1.3117 -0.4847
  295MOL0     C40578   2.261   7.178   0.827 -0.1668  0.0189 -0.0194
  295MOL0     C40579   2.246   7.143   0.961 -0.5709  0.1587 -0.0055
  295MOL0     O40580   2.337   7.175   1.060 -0.0046  0.6874  0.1500
  295MOL0     C40581   2.391   7.057   1.127  0.5751 -0.2276 -0.2543
  295MOL0     C40582   2.500   7.092   1.223  0.8896  0.0889 -0.6104
  295MOL0     C40583   2.635   7.127   1.148 -0.1339 -0.5166  0.1775
  295MOL0     C40584   2.621   7.221   1.030  0.2555 -0.5849 -0.3499
  295MOL0     C40585   2.745   7.297   0.991 -0.0053 -0.2709 -0.4962
  295MOL0     C40586   2.733   7.346   0.848 -0.6559  0.0178  0.5662
  295MOL0     C40587   2.858   7.404   0.795 -0.4106  0.1873 -0.0830
  295MOL0     C40588   2.831   7.448   0.651  1.2290 -0.6169 -0.2993
  295MOL0     N40589   2.939   7.521   0.583  0.4474 -0.1191  0.1097
  295MOL0     C40590   2.923   7.635   0.506  0.1247 -0.2033 -0.3325
  295MOL0     C40591   3.038   7.696   0.497 -0.3386 -0.3052 -0.4993
  295MOL0     C40592   3.040   7.844   0.459  0.6774  0.5094 -0.1238
  295MOL0     C40593   3.105   7.938   0.560 -0.5421  0.5135 -0.2466
  295MOL0     C40594   3.062   8.081   0.537  0.1232 -0.9411 -0.6405
  295MOL0     C40595   3.096   8.170   0.659  0.1624  0.0300  0.4339
  295MOL0     O40596   3.232   8.164   0.701 -0.3668  0.0059 -0.1665
  295MOL0     C40597   3.298   8.263   0.772 -0.0502 -0.4217  0.2029
  295MOL0     C40598   3.226   8.375   0.830  0.8949 -0.5102 -0.2318
  295MOL0     C40599   3.295   8.477   0.892 -0.3064 -0.6005  0.5345
  295MOL0     C40600   3.220   8.603   0.936 -0.1281 -0.3896 -0.9557
  295MOL0     C40601   3.433   8.461   0.910  0.6112  0.2813  0.2127
  295MOL0     C40602   3.523   8.574   0.956  0.2202 -0.3639  0.0752
  295MOL0     O40603   3.658   8.542   0.962  0.9102 -0.3238  0.0709
  295MOL0     C40604   3.744   8.644   1.009  0.1116 -0.2662  0.1134
  295MOL0     C40605   3.746   8.674   1.147  1.1618  0.7146  1.0987
  295MOL0     C40606   3.828   8.769   1.201  0.2890 -0.4654  0.0063
  295MOL0     C40607   3.923   8.828   1.122  0.7508 -0.2021 -0.0003
  295MOL0     O40608   4.002   8.925   1.180 -1.3622  0.2649  0.2678
  295MOL0     C40609   4.123   8.968   1.121 -0.5529 -1.0017 -0.2497
  295MOL0     C40610   4.213   9.056   1.208  0.5179  0.2587 -0.0869
  295MOL0     C40611   4.347   9.086   1.136 -0.3207  0.2026 -0.5139
  295MOL0     C40612   4.456   8.982   1.171 -0.1225 -0.7018 -0.2833
  295MOL0     C40613   4.583   9.035   1.120 -1.4718 -0.7909 -0.1357
  295MOL0     C40614   4.712   8.948   1.155  0.0150 -0.2737  0.7739
  295MOL0     C40615   4.727   8.843   1.050  0.3016 -1.0252  0.1588
  295MOL0     C40616   4.792   8.725   1.096  0.7122  0.3973 -0.5940
  295MOL0    Cl40617   4.935   8.747   1.210 -0.2912 -0.1019  0.3991
  295MOL0     C40618   3.937   8.781   0.986 -0.4848 -0.2770  0.1195
  295MOL0     C40619   3.844   8.696   0.931 -0.2402 -0.8403  0.2937
  295MOL0     O40620   3.477   8.676   1.009  0.0700  0.4351 -0.3005
  295MOL0     C40621   3.499   8.356   0.849 -0.4498  0.3380 -0.2985
  295MOL0     C40622   3.433   8.256   0.787 -0.6608 -0.3050  0.3509
  295MOL0     N40623   3.125   7.617   0.572 -0.6693 -0.7541 -0.3779
  295MOL0     N40624   3.068   7.517   0.620  0.8345 -0.8346  1.3393
  295MOL0     C40625   2.127   7.095   1.005  0.0555  0.2752  0.2112
  295MOL0     C40626   2.025   7.081   0.921  0.0322  0.0912  0.3802
  295MOL0     C40627   1.735   7.098   0.561  0.0820 -0.3716  0.9556
  295MOL0     C40628   1.740   6.971   0.508 -0.8481 -0.0901 -0.5954
  295MOL0     C40629   1.656   6.919   0.414  0.5903 -0.0747  0.4817
  295MOL0     C40630   1.546   7.001   0.357  0.3110  0.3925 -0.9814
  295MOL0     O40631   1.449   6.945   0.274  0.4575  0.2037  0.2325
  295MOL0     C40632   1.344   7.034   0.224  0.0407  0.2570  0.7724
  295MOL0     C40633   1.251   6.956   0.142 -0.9559  1.1882  0.2147
  295MOL0     C40634   1.314   6.915   0.011  0.6175  0.8076 -0.1420
  295MOL0     C40635   1.381   6.780   0.018 -0.7380 -0.0973 -0.2918
  295MOL0     C40636   1.395   6.712  -0.117  0.2789 -1.0358 -0.4303
  295MOL0     C40637   1.389   6.667  -0.233  0.8525 -0.9668 -0.5306
  295MOL0     C40638   1.539   7.128   0.419  0.5012 -0.5169  0.1491
  295MOL0     C40639   1.628   7.182   0.521  0.2080  0.3884  0.9860
  295MOL0     C40640   1.608   7.325   0.583 -0.4343 -0.2258 -0.2012
  295MOL0     H40641   2.171   7.164   0.628 -0.4640  2.2807 -0.4285
  295MOL0     H40642   2.356   7.221   0.797  1.0376 -1.3241  1.7118
  295MOL0     H40643   2.425   6.990   1.047  1.0790  0.3811 -0.5520
  295MOL0     H40644   2.308   7.003   1.174  0.6424  0.1674  0.3261
  295MOL0     H40645   2.460   7.179   1.277  1.8112  0.3009 -0.2458
  295MOL0     H40646   2.524   7.012   1.294 -0.6659  2.1221  2.4195
  295MOL0     H40647   2.695   7.179   1.224 -0.5588  1.3945 -0.7383
  295MOL0     H40648   2.677   7.031   1.119 -0.5751 -0.1448 -1.8173
  295MOL0     H40649   2.579   7.159   0.950 -2.9660  2.7446 -1.5096
  295MOL0     H40650   2.549   7.297   1.060  1.4009  1.5593 -2.6602
  295MOL0     H40651   2.838   7.240   1.004  0.9514  0.8298 -2.1986
  295MOL0     H40652   2.745   7.392   1.044 -2.9478  1.0924 -2.6426
  295MOL0     H40653   2.710   7.257   0.788 -2.2452 -0.3996  1.7456
  295MOL0     H40654   2.653   7.420   0.840 -1.3802 -0.6576  1.4169
  295MOL0     H40655   2.929   7.321   0.807  1.3799  1.8116  1.2927
  295MOL0     H40656   2.891   7.481   0.865  1.2031 -0.8282  0.3230
  295MOL0     H40657   2.805   7.360   0.593  3.1073 -0.8655 -0.8429
  295MOL0     H40658   2.742   7.511   0.642  1.1526 -0.4779  1.1377
  295MOL0     H40659   2.826   7.667   0.469 -1.3031 -2.4895  1.1545
  295MOL0     H40660   2.943   7.881   0.426 -0.3678 -1.5499  0.5244
  295MOL0     H40661   3.095   7.843   0.365 -0.1627 -0.2101 -0.6172
  295MOL0     H40662   3.086   7.910   0.664  1.6346 -0.3510 -0.0438
  295MOL0     H40663   3.209   7.941   0.526  0.1200 -1.3598  1.4468
  295MOL0     H40664   3.122   8.119   0.455  2.6187  1.2154  1.9603
  295MOL0     H40665   2.956   8.091   0.512  0.4620  0.9109 -1.4942
  295MOL0     H40666   3.078   8.267   0.612 -4.4262 -2.0369 -2.9111
  295MOL0     H40667   3.026   8.159   0.743 -0.1874  0.3627  0.1904
  295MOL0     H40668   3.123   8.402   0.813  1.3673  2.3291  0.8399
  295MOL0     H40669   3.235   8.606   1.044 -0.9781  1.3262 -0.8554
  295MOL0     H40670   3.115   8.599   0.906 -0.5284 -0.9323  0.4474
  295MOL0     H40671   3.252   8.697   0.888 -2.2546 -0.4060 -2.5595
  295MOL0     H40672   3.680   8.612   1.207  0.2374 -0.6617 -1.2125
  295MOL0     H40673   3.801   8.800   1.302 -1.5023 -1.4731 -0.1205
  295MOL0     H40674   4.169   8.882   1.072 -1.3375 -1.0574 -0.9095
  295MOL0     H40675   4.104   9.028   1.032 -0.2168  1.1827  1.0725
  295MOL0     H40676   4.157   9.147   1.231 -2.6028 -0.7285 -2.9174
  295MOL0     H40677   4.234   9.001   1.300 -2.7640 -0.7974  0.1790
  295MOL0     H40678   4.372   9.188   1.165  0.4321 -0.0896 -0.0915
  295MOL0     H40679   4.327   9.085   1.029  1.6192  0.5640 -0.9097
  295MOL0     H40680   4.441   8.883   1.128  0.8083  0.6299 -4.0231
  295MOL0     H40681   4.460   8.958   1.278 -0.5195 -0.3691 -0.1919
  295MOL0     H40682   4.573   9.053   1.012  0.7203  0.0287 -0.2606
  295MOL0     H40683   4.603   9.126   1.178  1.8437 -3.7480  4.0617
  295MOL0     H40684   4.712   8.899   1.252  1.9670  0.0978  0.9953
  295MOL0     H40685   4.804   9.006   1.149  1.0354 -1.3768  4.0565
  295MOL0     H40686   4.785   8.867   0.960 -1.2046  1.7654 -0.1858
  295MOL0     H40687   4.628   8.815   1.012 -0.0526  0.0746  0.2454
  295MOL0     H40688   4.825   8.679   1.002 -2.4294 -0.6958 -1.2989
  295MOL0     H40689   4.725   8.649   1.140  1.1619  1.0355  1.3031
  295MOL0     H40690   4.029   8.803   0.934 -0.0756  0.3461  1.0858
  295MOL0     H40691   3.847   8.665   0.827 -4.4317  1.2898 -0.6917
  295MOL0     H40692   3.606   8.354   0.864 -0.2316  2.8114 -1.1135
  295MOL0     H40693   3.483   8.176   0.735 -0.5164 -3.0401  4.2680
  295MOL0     H40694   2.099   7.060   1.104  0.0278  2.0452  0.8640
  295MOL0     H40695   1.925   7.048   0.950 -1.0179  3.2193  0.7659
  295MOL0     H40696   1.817   6.899   0.534 -2.2228 -1.0520  0.9899
  295MOL0     H40697   1.663   6.822   0.365  1.2359  1.4569 -2.7578
  295MOL0     H40698   1.280   7.085   0.297 -1.3642 -0.0162 -0.2437
  295MOL0     H40699   1.402   7.102   0.161  0.9174  0.4374  1.7388
  295MOL0     H40700   1.167   7.021   0.115 -2.5205 -0.9550 -0.3493
  295MOL0     H40701   1.205   6.880   0.207 -1.1443  1.9425  0.9816
  295MOL0     H40702   1.226   6.894  -0.051 -0.9468 -2.2266  2.8227
  295MOL0     H40703   1.375   6.996  -0.030 -1.9311  2.5991 -0.6673
  295MOL0     H40704   1.339   6.713   0.094  0.2347  1.0294  1.2998
  295MOL0     H40705   1.483   6.796   0.054 -0.9301 -0.4213  0.4211
  295MOL0     H40706   1.378   6.645  -0.337  0.3537 -2.8943 -0.1022
  295MOL0     H40707   1.444   7.175   0.397  0.2018 -0.9851  0.4250
  295MOL0     H40708   1.619   7.327   0.692 -1.5752 -2.1131 -0.0083
  295MOL0     H40709   1.690   7.389   0.549  0.0129 -1.3224 -1.2459
  295MOL0     H40710   1.517   7.374   0.548 -0.4969 -1.0115 -1.1802
  296MOL0     O40711   7.365   7.962   8.506  0.0574  0.0983  1.3016
  296MOL0     C40712   7.346   8.083   8.482  0.1076 -0.8763  0.0696
  296MOL0     O40713   7.378   8.154   8.362 -0.1242  0.0533  0.4795
  296MOL0     C40714   7.469   8.106   8.275  0.4099  0.6679 -0.1825
  296MOL0     C40715   7.436   8.114   8.138  0.0163 -0.4582  0.4466
  296MOL0     C40716   7.520   8.073   8.036  0.3701  0.2633  0.1827
  296MOL0     C40717   7.640   8.022   8.070 -0.1616  0.1000  0.1138
  296MOL0     O40718   7.724   7.983   7.974  0.2915 -0.1896 -0.1547
  296MOL0     C40719   7.768   7.849   7.975  0.3697  0.2797  0.2356
  296MOL0     C40720   7.911   7.823   7.931 -0.4240 -0.1987 -0.9298
  296MOL0     C40721   8.014   7.902   7.993 -0.0923 -1.2266 -0.7985
  296MOL0     C40722   8.137   7.824   8.007  0.0114  0.2535 -0.6214
  296MOL0     C40723   8.262   7.905   8.057 -0.1501 -0.1166  0.1004
  296MOL0     C40724   8.240   7.933   8.203  0.7475 -0.1015 -0.5661
  296MOL0     C40725   8.363   8.022   8.242 -0.4495  0.7295 -0.2855
  296MOL0     C40726   8.363   8.046   8.400  1.0660 -0.1722  0.6554
  296MOL0     N40727   8.413   7.932   8.476 -0.2362 -0.6912 -0.7105
  296MOL0     C40728   8.376   7.905   8.602  0.0091 -0.4437 -0.4537
  296MOL0     C40729   8.481   7.841   8.656  0.2624 -0.2587 -0.2184
  296MOL0     C40730   8.481   7.768   8.789 -0.4982  0.1906 -0.5982
  296MOL0     C40731   8.618   7.797   8.867  0.3266  0.1857 -0.0601
  296MOL0     C40732   8.621   7.734   9.007  0.6693 -0.2129  0.2969
  296MOL0     C40733   8.756   7.761   9.055  0.2580  0.1852  0.8815
  296MOL0     O40734   8.795   7.666   9.154  0.2726 -0.4282  0.1560
  296MOL0     C40735   8.850   7.546   9.123 -0.6496  0.6435  0.7529
  296MOL0     C40736   8.770   7.431   9.131  1.0172 -0.4883  0.0533
  296MOL0     C40737   8.810   7.308   9.100  0.0491  0.0859 -0.5120
  296MOL0     C40738   8.703   7.206   9.103  0.6792  0.2137  0.4361
  296MOL0     C40739   8.943   7.282   9.058  0.2735 -0.3506 -0.2971
  296MOL0     C40740   8.992   7.145   8.998 -0.4984 -0.4003 -0.0687
  296MOL0     O40741   9.124   7.139   8.959 -0.3804 -0.2458  0.6780
  296MOL0     C40742   9.180   7.027   8.899  0.7752 -0.5010 -0.7314
  296MOL0     C40743   9.317   7.002   8.915 -0.8110 -0.1987 -0.3848
  296MOL0     C40744   9.386   6.888   8.865 -0.1512  0.0243 -0.2521
  296MOL0     C40745   9.313   6.790   8.787  0.5659 -0.3772 -0.0686
  296MOL0     O40746   9.367   6.676   8.725 -0.2037  0.5587 -0.6038
  296MOL0     C40747   9.494   6.636   8.766  0.2737  0.2237  0.2609
  296MOL0     C40748   9.558   6.526   8.677  0.0744  0.8072  0.0251
  296MOL0     C40749   9.522   6.383   8.715 -0.0415  0.9959  1.1945
  296MOL0     C40750   9.530   6.290   8.591 -0.8140  0.3241 -0.0593
  296MOL0     C40751   9.477   6.154   8.629  1.0947  0.0829 -0.3376
  296MOL0     C40752   9.483   6.060   8.510  0.2023  1.4202  0.9984
  296MOL0     C40753   9.436   5.916   8.555 -0.3167  1.0270  0.2511
  296MOL0     C40754   9.291   5.915   8.593 -0.3887  0.9806  0.1951
  296MOL0    Cl40755   9.258   5.765   8.669 -0.0716 -0.0754  0.2316
  296MOL0     C40756   9.171   6.820   8.762 -0.0255  0.1879 -0.1720
  296MOL0     C40757   9.113   6.938   8.814 -0.0632 -0.1827 -0.5353
  296MOL0     O40758   8.906   7.057   8.990  0.0655 -0.3232 -0.1702
  296MOL0     C40759   9.031   7.395   9.058  0.1902 -0.3756 -0.0122
  296MOL0     C40760   8.986   7.528   9.089  0.4669  0.7044 -0.0822
  296MOL0     N40761   8.574   7.824   8.556  0.1583  0.9694  0.4970
  296MOL0     N40762   8.531   7.879   8.444 -0.1858  0.1550  0.8076
  296MOL0     C40763   7.679   8.011   8.200  0.3265  0.4013 -0.4872
  296MOL0     C40764   7.593   8.052   8.309 -0.4996  0.1056 -0.1636
  296MOL0     C40765   7.291   8.165   8.593  0.2681  0.9976 -0.1553
  296MOL0     C40766   7.340   8.295   8.607 -0.0089  0.8974 -0.5628
  296MOL0     C40767   7.287   8.371   8.708 -0.1154 -0.7548 -0.5123
  296MOL0     C40768   7.199   8.323   8.805 -0.1999  0.0602  1.1558
  296MOL0     O40769   7.150   8.394   8.904  0.0281 -0.5350  0.8050
  296MOL0     C40770   7.221   8.519   8.936 -1.0532 -1.2019 -0.1752
  296MOL0     C40771   7.142   8.614   9.025  0.7152  0.3166 -0.0711
  296MOL0     C40772   7.115   8.547   9.163 -0.1821 -0.1893 -0.6557
  296MOL0     C40773   7.007   8.628   9.228 -0.6960 -0.0477 -0.2082
  296MOL0     C40774   7.050   8.771   9.241  0.7110 -0.5098 -0.3016
  296MOL0     C40775   7.092   8.891   9.238 -0.6709 -0.9794 -0.3055
  296MOL0     C40776   7.155   8.191   8.795  0.4086 -0.1900  0.1374
  296MOL0     C40777   7.184   8.111   8.683 -0.9795 -0.2699  0.9026
  296MOL0     C40778   7.127   7.976   8.667  0.2989 -0.8823 -0.2264
  296MOL0     H40779   7.334   8.142   8.112 -0.1614  0.4239  1.9444
  296MOL0     H40780   7.507   8.074   7.929  0.7482  1.8745  0.1215
  296MOL0     H40781   7.712   7.795   7.898  3.2153  0.8150 -2.4040
  296MOL0     H40782   7.750   7.802   8.072  0.2379 -0.2493 -0.0419
  296MOL0     H40783   7.934   7.716   7.942 -1.1976 -0.5013 -2.1276
  296MOL0     H40784   7.932   7.842   7.826  1.3525 -2.0232 -0.9849
  296MOL0     H40785   8.025   7.995   7.937 -0.4794 -1.8661 -1.9675
  296MOL0     H40786   7.969   7.936   8.087 -2.3576  2.4389 -2.9651
  296MOL0     H40787   8.117   7.743   8.078 -0.5585  0.8687 -0.0704
  296MOL0     H40788   8.169   7.784   7.910  1.3912 -0.5335  0.1184
  296MOL0     H40789   8.278   7.992   7.992  0.9449 -0.4083 -0.0446
  296MOL0     H40790   8.358   7.853   8.049  1.3379  1.3157  4.9961
  296MOL0     H40791   8.146   7.981   8.230 -0.3998 -1.1842 -2.4437
  296MOL0     H40792   8.245   7.841   8.262  1.0202  1.4858  2.0866
  296MOL0     H40793   8.358   8.123   8.200  1.6687  0.8412 -0.3593
  296MOL0     H40794   8.451   7.972   8.201 -2.1825 -1.1558 -1.9439
  296MOL0     H40795   8.436   8.127   8.413  0.1675  1.1464 -1.7444
  296MOL0     H40796   8.263   8.076   8.430 -0.3832 -1.2475 -2.6053
  296MOL0     H40797   8.279   7.916   8.649  0.5616 -1.1982  0.9415
  296MOL0     H40798   8.462   7.661   8.774 -1.2786  0.2852 -0.3298
  296MOL0     H40799   8.399   7.798   8.855 -2.0726 -3.2309 -0.8308
  296MOL0     H40800   8.695   7.764   8.797  0.0265  1.9966 -1.3308
  296MOL0     H40801   8.637   7.905   8.872  0.7394  0.1680 -1.0381
  296MOL0     H40802   8.541   7.775   9.069 -1.4737  0.0336 -2.4200
  296MOL0     H40803   8.618   7.624   9.006 -0.6881 -0.2225  1.7568
  296MOL0     H40804   8.834   7.749   8.979  1.2058  1.7583  1.5718
  296MOL0     H40805   8.767   7.863   9.092 -1.9413  1.6535 -2.1097
  296MOL0     H40806   8.669   7.446   9.167  2.0840 -2.2929  4.3637
  296MOL0     H40807   8.737   7.122   9.163  2.6306  0.1592 -0.6380
  296MOL0     H40808   8.678   7.178   9.000 -0.2852 -1.7533  1.1508
  296MOL0     H40809   8.614   7.237   9.157  2.2371  0.6439  2.9028
  296MOL0     H40810   9.362   7.089   8.961  0.6016 -1.0495 -0.0881
  296MOL0     H40811   9.491   6.874   8.886 -0.4991 -0.0574  1.6308
  296MOL0     H40812   9.566   6.718   8.777 -0.6425  0.7079  3.9451
  296MOL0     H40813   9.487   6.595   8.867  0.1832 -2.1429 -0.6433
  296MOL0     H40814   9.539   6.525   8.569  0.5600  1.0557 -0.0635
  296MOL0     H40815   9.666   6.536   8.692  0.4410 -0.9379 -1.0589
  296MOL0     H40816   9.418   6.385   8.746 -0.3635 -0.6747  0.3555
  296MOL0     H40817   9.597   6.342   8.783  1.7080 -0.3591 -1.3621
  296MOL0     H40818   9.634   6.277   8.559 -1.3001 -1.5593 -1.0432
  296MOL0     H40819   9.478   6.337   8.508 -0.2274  2.2934  0.6454
  296MOL0     H40820   9.524   6.112   8.718  1.4577 -2.6166 -1.7020
  296MOL0     H40821   9.371   6.170   8.652  0.7427 -0.6302 -1.4034
  296MOL0     H40822   9.586   6.044   8.479 -0.4938  0.7885 -1.1409
  296MOL0     H40823   9.421   6.096   8.427  1.7435  1.8534 -0.0121
  296MOL0     H40824   9.506   5.885   8.633 -1.1071  0.0430  0.5852
  296MOL0     H40825   9.438   5.851   8.467  2.3037  0.2338  0.8009
  296MOL0     H40826   9.219   5.923   8.511  1.1957 -0.7173 -1.4301
  296MOL0     H40827   9.270   5.985   8.675 -1.7189  2.8300 -1.6312
  296MOL0     H40828   9.114   6.762   8.691  0.9446 -0.3874 -0.5074
  296MOL0     H40829   9.012   6.968   8.786  1.0148  3.2304 -1.1958
  296MOL0     H40830   9.135   7.390   9.026  0.1143 -0.4590 -0.2518
  296MOL0     H40831   9.063   7.605   9.084 -0.5336  1.7978  0.7785
  296MOL0     H40832   7.776   7.965   8.217  0.2887  0.0115 -1.2825
  296MOL0     H40833   7.624   8.046   8.413 -0.9121 -1.5478 -0.1117
  296MOL0     H40834   7.421   8.331   8.543  1.9839 -0.1340  1.2389
  296MOL0     H40835   7.329   8.471   8.713 -0.6740 -0.5376 -0.1717
  296MOL0     H40836   7.323   8.508   8.972  0.2058  0.5721 -2.8987
  296MOL0     H40837   7.228   8.574   8.842 -1.2253  0.4650  0.7479
  296MOL0     H40838   7.050   8.638   8.970 -0.7465  1.3596  2.6191
  296MOL0     H40839   7.205   8.703   9.034 -0.7542  1.2856  1.2761
  296MOL0     H40840   7.078   8.445   9.147  1.5453 -0.7949 -0.9036
  296MOL0     H40841   7.203   8.550   9.226 -2.0958  1.3075  2.1599
  296MOL0     H40842   6.981   8.587   9.326 -1.2780 -0.6147 -0.5832
  296MOL0     H40843   6.929   8.629   9.151  0.1591  1.8051 -1.1121
  296MOL0     H40844   7.126   8.989   9.211  3.3663 -2.0459  0.2547
  296MOL0     H40845   7.076   8.155   8.860  0.6193 -2.5298 -0.7919
  296MOL0     H40846   7.117   7.963   8.558  1.5817  0.4917 -0.5475
  296MOL0     H40847   7.194   7.895   8.697  1.5760 -0.3107 -1.4148
  296MOL0     H40848   7.025   7.964   8.705  0.0377 -0.0246 -0.6241
  297MOL0     O40849   3.952   6.506   5.549 -0.3751  0.4104 -0.0852
  297MOL0     C40850   3.905   6.393   5.572 -0.4305 -0.2669  0.4117
  297MOL0     O40851   3.936   6.323   5.690 -0.0848  0.2852  0.2860
  297MOL0     C40852   4.037   6.366   5.768  0.1276  0.0200 -0.1878
  297MOL0     C40853   4.163   6.316   5.751 -0.6174  0.0009 -0.4852
  297MOL0     C40854   4.259   6.350   5.851  0.3123  0.6307 -0.0609
  297MOL0     C40855   4.222   6.432   5.959 -0.2632 -0.6166  0.1747
  297MOL0     O40856   4.327   6.460   6.046 -0.1655 -0.4702  0.3239
  297MOL0     C40857   4.320   6.550   6.151  0.0245  0.8330  0.2282
  297MOL0     C40858   4.324   6.700   6.084  0.4675  0.4402 -0.3901
  297MOL0     C40859   4.377   6.816   6.164 -1.0530  0.0454  0.0439
  297MOL0     C40860   4.297   6.872   6.289 -0.1573  0.7993  0.5735
  297MOL0     C40861   4.394   6.954   6.379  0.1555  0.1008  0.6843
  297MOL0     C40862   4.436   7.081   6.310 -0.2860 -0.2342  0.0321
  297MOL0     C40863   4.313   7.173   6.285  0.9105  0.0838 -1.5594
  297MOL0     C40864   4.346   7.316   6.275  0.0513 -0.2330  0.0946
  297MOL0     N40865   4.428   7.359   6.155  0.3308  0.1728 -0.1015
  297MOL0     C40866   4.374   7.405   6.039 -0.3676  0.8501  0.8069
  297MOL0     C40867   4.490   7.435   5.968  0.8589  0.6756  0.4020
  297MOL0     C40868   4.483   7.466   5.816  0.5307 -0.0791  0.2654
  297MOL0     C40869   4.588   7.575   5.774 -0.0162 -0.2285  0.1178
  297MOL0     C40870   4.622   7.554   5.625 -0.8015 -0.0912 -0.2745
  297MOL0     C40871   4.548   7.656   5.537  1.8689 -0.7369  0.0676
  297MOL0     O40872   4.407   7.674   5.565 -0.8099 -0.2813 -0.3450
  297MOL0     C40873   4.316   7.588   5.507 -0.4483 -0.8819  0.0263
  297MOL0     C40874   4.182   7.593   5.542 -0.3971 -0.1587 -0.6326
  297MOL0     C40875   4.092   7.496   5.483  0.3299  0.0015 -0.3231
  297MOL0     C40876   3.945   7.501   5.532 -0.1419  0.4346 -0.4174
  297MOL0     C40877   4.137   7.389   5.406 -0.1666 -0.0520  0.3922
  297MOL0     C40878   4.056   7.284   5.332 -0.7389  0.3962 -0.1356
  297MOL0     O40879   4.126   7.162   5.306  0.4871 -0.0608 -0.5087
  297MOL0     C40880   4.078   7.095   5.210 -0.7948  0.2399 -0.7195
  297MOL0     C40881   4.109   7.123   5.077 -1.0351 -0.4098 -0.1818
  297MOL0     C40882   4.071   7.032   4.977  0.8355 -0.2113  0.9347
  297MOL0     C40883   3.987   6.921   5.019 -0.0146  0.1938 -0.1673
  297MOL0     O40884   3.913   6.856   4.927 -0.2830 -0.0089  0.0331
  297MOL0     C40885   3.963   6.725   4.894 -0.5993 -0.6270 -0.2554
  297MOL0     C40886   4.013   6.729   4.749 -0.0352  0.2257 -0.0386
  297MOL0     C40887   3.921   6.763   4.632 -0.0448 -0.5024 -0.1469
  297MOL0     C40888   3.989   6.785   4.502  0.0548 -0.5054  1.0081
  297MOL0     C40889   4.076   6.659   4.465 -0.6185 -0.3292  0.4137
  297MOL0     C40890   4.081   6.668   4.304  0.3744 -1.0214 -0.2073
  297MOL0     C40891   4.167   6.555   4.241  0.6056  0.6006  0.0001
  297MOL0     C40892   4.149   6.527   4.090 -0.2531 -0.2227  0.7101
  297MOL0    Cl40893   4.107   6.668   3.986 -0.3894 -0.0880 -0.2348
  297MOL0     C40894   3.964   6.895   5.153  0.1781  0.5963 -0.4117
  297MOL0     C40895   4.011   6.981   5.249  0.0596 -0.0755  0.3841
  297MOL0     O40896   3.955   7.316   5.278  0.3026  0.5529 -0.1427
  297MOL0     C40897   4.266   7.393   5.370 -0.9731  0.3407 -0.1554
  297MOL0     C40898   4.354   7.486   5.422  0.0409 -0.2071  0.5110
  297MOL0     N40899   4.605   7.402   6.035 -0.3398 -0.7209  0.7370
  297MOL0     N40900   4.566   7.365   6.149  0.4201  0.8470 -0.7503
  297MOL0     C40901   4.095   6.495   5.950 -1.1255  0.7248 -0.7863
  297MOL0     C40902   3.998   6.457   5.869  0.2851  0.1471  1.4269
  297MOL0     C40903   3.793   6.337   5.490 -0.4484 -0.1015 -0.1020
  297MOL0     C40904   3.712   6.237   5.556  0.6507 -0.0477 -0.1521
  297MOL0     C40905   3.616   6.163   5.475  0.1929 -0.7373 -0.3508
  297MOL0     C40906   3.606   6.195   5.338 -0.1642 -0.9375 -0.2712
  297MOL0     O40907   3.516   6.126   5.257 -0.1928  0.0428  0.0821
  297MOL0     C40908   3.389   6.188   5.210 -0.5237  0.2135 -0.6678
  297MOL0     C40909   3.414   6.252   5.075  0.3201 -0.7438 -0.3675
  297MOL0     C40910   3.276   6.267   5.016 -0.1099 -0.0923  0.5703
  297MOL0     C40911   3.279   6.318   4.871 -0.5858  0.1630  0.9593
  297MOL0     C40912   3.169   6.282   4.781 -0.0543  0.2354  0.4823
  297MOL0     C40913   3.083   6.243   4.704 -0.0507 -0.6140 -0.0865
  297MOL0     C40914   3.689   6.293   5.283  0.8282  0.7483  0.0930
  297MOL0     C40915   3.780   6.374   5.353  0.8326  0.5994 -0.3912
  297MOL0     C40916   3.871   6.467   5.282 -0.0073  0.1848  0.3229
  297MOL0     H40917   4.196   6.252   5.670  0.4711 -0.1897  0.1006
  297MOL0     H40918   4.365   6.332   5.862 -0.1053 -1.0772  1.9049
  297MOL0     H40919   4.399   6.535   6.225 -2.4992  2.3699  3.4893
  297MOL0     H40920   4.227   6.544   6.208  0.8128  0.5081  1.5296
  297MOL0     H40921   4.378   6.691   5.989 -0.6129  0.0505 -0.9879
  297MOL0     H40922   4.221   6.718   6.053  0.3629 -2.0577 -1.7603
  297MOL0     H40923   4.476   6.790   6.204 -1.2143  1.0908  1.1694
  297MOL0     H40924   4.388   6.898   6.092  2.3935 -0.9218 -0.7287
  297MOL0     H40925   4.212   6.933   6.256  0.9358  3.0061  1.6151
  297MOL0     H40926   4.262   6.787   6.347  1.5053  0.8936  1.7732
  297MOL0     H40927   4.490   6.901   6.387  1.7629  1.4706 -5.0059
  297MOL0     H40928   4.358   6.973   6.480 -1.2965 -2.4343  0.7273
  297MOL0     H40929   4.509   7.136   6.371  4.2337 -4.4436 -0.9197
  297MOL0     H40930   4.494   7.050   6.223  0.5217 -4.0445  1.7104
  297MOL0     H40931   4.252   7.170   6.376  2.9491  0.0366 -0.1256
  297MOL0     H40932   4.260   7.142   6.194  4.2455 -2.4731 -2.8166
  297MOL0     H40933   4.260   7.381   6.295  1.7241  1.0434  4.2052
  297MOL0     H40934   4.406   7.343   6.362  1.3161 -0.1946 -0.7553
  297MOL0     H40935   4.273   7.410   6.001 -0.9075  2.7875  2.3163
  297MOL0     H40936   4.380   7.498   5.798  0.1126  0.4124  3.0018
  297MOL0     H40937   4.491   7.364   5.778  1.8694  0.2752 -0.4870
  297MOL0     H40938   4.545   7.673   5.793 -3.8069 -1.3428 -1.6878
  297MOL0     H40939   4.686   7.554   5.818 -0.7442 -0.3957  1.7470
  297MOL0     H40940   4.730   7.566   5.618 -0.7078 -0.9935 -0.4684
  297MOL0     H40941   4.606   7.451   5.593 -1.1469 -0.1517  0.0835
  297MOL0     H40942   4.593   7.749   5.573  0.9295 -1.1888  2.6096
  297MOL0     H40943   4.569   7.631   5.432  0.8068 -0.9192 -0.1130
  297MOL0     H40944   4.136   7.672   5.600 -2.8749 -1.9053 -0.0417
  297MOL0     H40945   3.938   7.422   5.607  2.1303  0.4407 -0.1276
  297MOL0     H40946   3.878   7.494   5.446 -1.2554 -0.6653  0.5045
  297MOL0     H40947   3.934   7.603   5.570  3.5457  0.4546  0.9675
  297MOL0     H40948   4.162   7.214   5.052 -0.1474 -1.4424 -2.2542
  297MOL0     H40949   4.092   7.059   4.874 -1.1680 -1.2411  0.1986
  297MOL0     H40950   4.045   6.694   4.960 -0.2439  1.6676  0.4937
  297MOL0     H40951   3.889   6.646   4.909 -0.4115 -0.5633  1.2176
  297MOL0     H40952   4.085   6.811   4.751 -0.9531  1.3514 -4.1278
  297MOL0     H40953   4.067   6.635   4.731  1.4002  0.8058  1.0551
  297MOL0     H40954   3.860   6.846   4.668 -1.2960 -1.1952 -0.6433
  297MOL0     H40955   3.848   6.683   4.626 -0.0874 -0.4046 -1.1073
  297MOL0     H40956   4.053   6.873   4.504 -2.3463  1.6131 -2.4242
  297MOL0     H40957   3.906   6.806   4.433 -1.5081  0.6484  3.1356
  297MOL0     H40958   4.177   6.663   4.507 -0.0043 -0.4793 -0.9944
  297MOL0     H40959   4.026   6.563   4.477  0.0122 -0.5703  1.1923
  297MOL0     H40960   4.132   6.762   4.281  0.3878 -1.6215 -3.0010
  297MOL0     H40961   3.983   6.659   4.255  0.0428 -2.0518  0.6052
  297MOL0     H40962   4.134   6.463   4.291  1.5772  1.1310  1.7112
  297MOL0     H40963   4.269   6.583   4.270  0.3114  0.5783  1.1376
  297MOL0     H40964   4.069   6.452   4.083  1.5699 -2.3402  1.2659
  297MOL0     H40965   4.241   6.478   4.054 -1.8244 -1.8664 -1.3240
  297MOL0     H40966   3.922   6.799   5.184  0.8902 -0.6501 -2.9804
  297MOL0     H40967   4.018   6.947   5.352  3.9147 -0.5386  0.1017
  297MOL0     H40968   4.306   7.314   5.307  2.5151  1.5295  0.3392
  297MOL0     H40969   4.457   7.475   5.389 -0.3947 -2.4229 -0.2644
  297MOL0     H40970   4.064   6.572   6.020  3.4406  1.9827  0.1444
  297MOL0     H40971   3.906   6.514   5.863  0.8887  1.0412  0.1077
  297MOL0     H40972   3.725   6.214   5.661 -0.2017 -0.0431 -0.0415
  297MOL0     H40973   3.555   6.090   5.527 -0.1494 -0.2737 -0.0918
  297MOL0     H40974   3.319   6.105   5.212 -1.2169  0.7944  0.7736
  297MOL0     H40975   3.350   6.265   5.277 -2.8458  0.2458 -1.9539
  297MOL0     H40976   3.482   6.187   5.019  1.4514  0.5677 -0.5747
  297MOL0     H40977   3.453   6.354   5.081 -0.6481 -0.4606  2.5224
  297MOL0     H40978   3.221   6.173   5.013 -0.8590  0.2784  1.7678
  297MOL0     H40979   3.209   6.333   5.072 -2.3387  0.0021 -1.9918
  297MOL0     H40980   3.372   6.289   4.821 -1.1326  0.9627 -0.5680
  297MOL0     H40981   3.284   6.427   4.879  1.5291  0.4106 -1.9315
  297MOL0     H40982   3.014   6.209   4.629  0.0490  0.4064 -0.6543
  297MOL0     H40983   3.677   6.325   5.180  0.4615 -0.1253 -0.1379
  297MOL0     H40984   3.854   6.567   5.323  1.2076  0.5843 -0.1083
  297MOL0     H40985   3.978   6.444   5.291  0.7276  2.9740 -0.3535
  297MOL0     H40986   3.835   6.475   5.179  1.8258 -2.0747 -0.5936
  298MOL0     O40987  10.960  10.750  11.379  0.7925  0.9520 -0.3455
  298MOL0     C40988  11.053  10.673  11.370  0.1118  0.4565  0.5441
  298MOL0     O40989  11.178  10.705  11.325  0.2452 -0.2062 -0.2552
  298MOL0     C40990  11.191  10.800  11.225 -0.0577 -1.1333  0.0198
  298MOL0     C40991  11.098  10.840  11.140 -0.4825 -0.6950 -0.2396
  298MOL0     C40992  11.122  10.953  11.057  0.9377 -0.0509 -0.1595
  298MOL0     C40993  11.248  11.023  11.068 -0.6255  0.1771 -0.5777
  298MOL0     O40994  11.256  11.136  10.994 -0.2153 -0.3933 -0.0943
  298MOL0     C40995  11.377  11.148  10.923  0.2364 -0.4825  0.9203
  298MOL0     C40996  11.394  11.030  10.820 -1.0203  0.3868  0.6149
  298MOL0     C40997  11.301  11.035  10.706  0.1746  0.1448  0.1241
  298MOL0     C40998  11.349  11.134  10.595 -0.2141  0.1116 -0.5431
  298MOL0     C40999  11.280  11.147  10.473  0.0516  0.8929  0.0696
  298MOL0     C41000  11.125  11.173  10.481 -1.0273  0.0655 -0.0289
  298MOL0     C41001  11.065  11.198  10.346  0.0692  1.3780 -0.0577
  298MOL0     C41002  11.010  11.060  10.284 -0.2896 -0.2195 -0.6558
  298MOL0     N41003  10.918  11.067  10.175  0.9098 -0.3785  0.0122
  298MOL0     C41004  10.932  11.156  10.071  0.1457 -0.7831  0.9322
  298MOL0     C41005  10.816  11.181  10.013 -0.8364 -0.1697 -0.6123
  298MOL0     C41006  10.809  11.268   9.892 -0.6534  0.8205  1.6397
  298MOL0     C41007  10.690  11.352   9.899  1.2983  0.0891 -0.8831
  298MOL0     C41008  10.569  11.282   9.854  0.9386  0.1024 -0.0438
  298MOL0     C41009  10.454  11.374   9.910 -0.7069  0.3274  0.2672
  298MOL0     O41010  10.331  11.326   9.853  1.0006  0.0560  1.1061
  298MOL0     C41011  10.210  11.391   9.884 -0.0396  0.1439 -0.7779
  298MOL0     C41012  10.089  11.323   9.859  0.3383 -0.2396 -0.6833
  298MOL0     C41013   9.962  11.356   9.898  0.0236  0.6279 -0.0728
  298MOL0     C41014   9.844  11.262   9.886  0.5919  0.9579 -0.3570
  298MOL0     C41015   9.949  11.484   9.961 -0.9095 -0.1658 -0.3196
  298MOL0     C41016   9.835  11.539  10.033 -0.8789  0.0585 -0.3021
  298MOL0     O41017   9.728  11.584   9.956  0.1537  0.4064 -0.3093
  298MOL0     C41018   9.625  11.640  10.027  0.0426 -0.3179 -0.8575
  298MOL0     C41019   9.526  11.564  10.097 -0.6948  0.3977 -0.0256
  298MOL0     C41020   9.444  11.627  10.189  0.5158 -0.0486 -1.0507
  298MOL0     C41021   9.438  11.767  10.201 -0.3839 -0.2999  1.0872
  298MOL0     O41022   9.351  11.810  10.299 -0.4215  0.0965  0.0480
  298MOL0     C41023   9.327  11.956  10.300 -0.1418 -0.5201  0.6083
  298MOL0     C41024   9.198  11.962  10.389  0.0853  0.3025  0.6306
  298MOL0     C41025   9.224  11.937  10.536 -0.3386  0.4349 -0.0499
  298MOL0     C41026   9.104  11.889  10.613 -0.0861  0.5891 -0.3538
  298MOL0     C41027   9.147  11.820  10.750 -0.7716 -0.2207 -0.7096
  298MOL0     C41028   9.027  11.779  10.828  0.2342  0.3946 -1.2111
  298MOL0     C41029   9.068  11.707  10.959  0.3909 -0.7056 -0.5054
  298MOL0     C41030   9.140  11.567  10.948  0.3839  0.0632  0.6913
  298MOL0    Cl41031   9.022  11.435  10.914 -0.0413 -0.0084  0.0879
  298MOL0     C41032   9.521  11.843  10.115  0.2156 -0.5176 -0.2062
  298MOL0     C41033   9.614  11.780  10.034 -0.8208 -0.1409 -0.0590
  298MOL0     O41034   9.851  11.565  10.155  0.2951  0.5277  0.1597
  298MOL0     C41035  10.069  11.553   9.992 -0.8003 -0.9959 -0.3453
  298MOL0     C41036  10.195  11.515   9.952 -0.2049  0.3466 -0.7201
  298MOL0     N41037  10.728  11.100  10.080  0.1654  0.2172  0.6614
  298MOL0     N41038  10.787  11.026  10.173  0.3564  0.1898 -0.0703
  298MOL0     C41039  11.350  10.973  11.152  0.3853  0.7900  0.6702
  298MOL0     C41040  11.317  10.870  11.230  0.4094  0.4978  0.1052
  298MOL0     C41041  11.019  10.528  11.408  0.2282  0.4208  0.4328
  298MOL0     C41042  10.901  10.508  11.488  0.6582  0.0616 -0.1609
  298MOL0     C41043  10.856  10.387  11.541 -0.4607 -0.0008 -0.1313
  298MOL0     C41044  10.931  10.276  11.527 -0.0496 -0.8849  0.4560
  298MOL0     O41045  10.891  10.155  11.585 -0.3738  0.6734 -0.3322
  298MOL0     C41046  10.986  10.073  11.658  0.0160 -0.1498 -0.3238
  298MOL0     C41047  10.938   9.934  11.647 -0.4714  1.0295 -0.0770
  298MOL0     C41048  10.804   9.911  11.712 -0.5259 -0.4098  0.6711
  298MOL0     C41049  10.768   9.760  11.707  0.3653 -0.7721  0.2017
  298MOL0     C41050  10.634   9.725  11.764 -0.1640 -0.1675  0.2742
  298MOL0     C41051  10.531   9.677  11.807  1.2314  0.2255  0.4886
  298MOL0     C41052  11.053  10.291  11.453 -0.3405  0.9961 -0.6837
  298MOL0     C41053  11.096  10.410  11.393 -0.0762 -0.1746  0.4702
  298MOL0     C41054  11.226  10.415  11.308 -0.0577 -0.8267  0.1656
  298MOL0     H41055  11.002  10.791  11.135 -1.2808  0.7282  0.4894
  298MOL0     H41056  11.055  10.998  10.985 -0.9165 -0.2045  1.4035
  298MOL0     H41057  11.461  11.154  10.992  1.0905 -2.5665  0.1486
  298MOL0     H41058  11.366  11.236  10.860  1.6093 -0.1143  1.1806
  298MOL0     H41059  11.498  11.028  10.787 -1.2211 -0.8208  0.0266
  298MOL0     H41060  11.386  10.932  10.868 -0.0586 -0.4217 -0.8151
  298MOL0     H41061  11.299  10.936  10.659 -1.2946 -0.7551  1.9716
  298MOL0     H41062  11.198  11.058  10.734 -0.0675  0.1514 -0.7401
  298MOL0     H41063  11.345  11.235  10.636  0.7187 -0.4264  0.9584
  298MOL0     H41064  11.453  11.111  10.569 -0.2400 -1.0682  0.3224
  298MOL0     H41065  11.302  11.049  10.429 -0.4013 -0.0032  1.7753
  298MOL0     H41066  11.331  11.227  10.418  0.7853  1.3492  1.3671
  298MOL0     H41067  11.072  11.086  10.521 -1.1610  0.8416  1.5311
  298MOL0     H41068  11.115  11.262  10.544  0.4292  1.2929 -1.4522
  298MOL0     H41069  11.136  11.239  10.273  1.2646  0.5955  0.6438
  298MOL0     H41070  10.983  11.269  10.361 -1.5267 -0.1355 -1.1929
  298MOL0     H41071  11.098  11.005  10.250  0.3899  2.1704 -3.0723
  298MOL0     H41072  10.967  10.994  10.359  1.4229 -0.8759 -0.1912
  298MOL0     H41073  11.026  11.194  10.032 -0.9469  0.1540 -0.8911
  298MOL0     H41074  10.801  11.210   9.799  1.7936  1.1529  1.1398
  298MOL0     H41075  10.896  11.335   9.883 -1.1751  1.3855  0.4656
  298MOL0     H41076  10.694  11.385  10.004 -3.2793 -0.6770 -0.2500
  298MOL0     H41077  10.701  11.446   9.845 -0.2618  1.1391  0.5387
  298MOL0     H41078  10.564  11.277   9.745  3.4967 -1.3000 -0.1677
  298MOL0     H41079  10.560  11.179   9.889 -0.0041  0.2458  0.1798
  298MOL0     H41080  10.458  11.376  10.019  1.6893  0.4908  0.2374
  298MOL0     H41081  10.484  11.477   9.890  1.3398 -0.4419 -0.8754
  298MOL0     H41082  10.103  11.231   9.803  1.4803 -0.0422 -0.7489
  298MOL0     H41083   9.746  11.294   9.922  0.3154 -1.4559  1.2588
  298MOL0     H41084   9.862  11.164   9.932 -0.6784 -0.1620 -2.1054
  298MOL0     H41085   9.822  11.233   9.783 -1.9348 -0.3871  0.4767
  298MOL0     H41086   9.518  11.457  10.077  0.9516  0.4160 -0.9909
  298MOL0     H41087   9.369  11.575  10.247 -0.4687  3.4986  1.1692
  298MOL0     H41088   9.408  12.020  10.336 -0.2681  1.6873 -2.6236
  298MOL0     H41089   9.296  11.980  10.198  0.9866  0.1698  0.4074
  298MOL0     H41090   9.147  12.059  10.381  4.2814  2.7126  0.3852
  298MOL0     H41091   9.131  11.891  10.340  1.7255  1.0902 -3.1018
  298MOL0     H41092   9.255  12.030  10.583 -0.4644  0.8525 -0.7884
  298MOL0     H41093   9.301  11.859  10.545 -1.1946 -0.5026 -0.5321
  298MOL0     H41094   9.054  11.816  10.548 -4.1435  3.1064 -0.3956
  298MOL0     H41095   9.032  11.969  10.635  1.1314  2.4277 -2.6274
  298MOL0     H41096   9.191  11.723  10.724 -1.1093 -1.4777  2.7486
  298MOL0     H41097   9.212  11.889  10.805  1.2249 -0.7238 -2.3414
  298MOL0     H41098   8.959  11.714  10.773 -1.0395  1.5821 -1.1093
  298MOL0     H41099   8.968  11.868  10.852  1.6747  0.6665  1.7658
  298MOL0     H41100   8.979  11.685  11.019  1.5556 -1.1087  1.1365
  298MOL0     H41101   9.126  11.779  11.017 -2.9932  0.5301  1.6586
  298MOL0     H41102   9.181  11.545  11.048 -1.1032 -4.9741  0.4614
  298MOL0     H41103   9.222  11.568  10.876 -1.0010 -0.4588 -0.9456
  298MOL0     H41104   9.513  11.951  10.115 -3.6367 -0.3724  5.5425
  298MOL0     H41105   9.680  11.850   9.984 -1.1460  0.3766  0.2297
  298MOL0     H41106  10.057  11.650  10.039  0.6583 -1.7026  1.6018
  298MOL0     H41107  10.281  11.579   9.968 -0.3588  0.1773  0.8923
  298MOL0     H41108  11.450  11.015  11.157  1.1406 -0.1041 -3.3005
  298MOL0     H41109  11.385  10.835  11.307  0.3252 -2.2175 -0.9316
  298MOL0     H41110  10.839  10.595  11.504 -1.1550 -0.5576 -3.0218
  298MOL0     H41111  10.765  10.364  11.595 -0.5736 -1.1976 -0.7816
  298MOL0     H41112  11.082  10.079  11.606  0.3727  2.3682  0.4945
  298MOL0     H41113  10.999  10.107  11.761 -0.5560 -0.6766 -0.0748
  298MOL0     H41114  11.008   9.870  11.701 -1.1131 -0.5260 -1.0215
  298MOL0     H41115  10.927   9.898  11.544 -2.4913  4.2314 -1.1546
  298MOL0     H41116  10.811   9.944  11.816  3.0718  1.4619  0.0079
  298MOL0     H41117  10.728   9.966  11.657  0.9782 -1.0114 -2.1737
  298MOL0     H41118  10.843   9.696  11.754  0.5189 -0.2461  0.6806
  298MOL0     H41119  10.760   9.726  11.603 -1.0705 -0.2870  0.1412
  298MOL0     H41120  10.432   9.652  11.840 -0.3971  4.5053 -0.4155
  298MOL0     H41121  11.112  10.202  11.432 -2.7678 -0.5447 -1.3427
  298MOL0     H41122  11.208  10.475  11.218 -3.1293 -0.3923  0.9584
  298MOL0     H41123  11.303  10.474  11.358 -1.0742  2.0545 -1.4498
  298MOL0     H41124  11.267  10.320  11.273 -1.0470 -0.7040 -1.4389
  299MOL0     O41125   5.871  10.074   1.759  0.3475  0.7021  0.0761
  299MOL0     C41126   5.994  10.058   1.743  0.2060  0.3857  0.5855
  299MOL0     O41127   6.058  10.034   1.631  0.1243 -0.3446 -0.4994
  299MOL0     C41128   5.983  10.028   1.513  0.0586  0.7792 -0.0346
  299MOL0     C41129   5.941  10.146   1.444  0.9280 -0.0514  0.3016
  299MOL0     C41130   5.864  10.131   1.328 -0.5014 -0.8721  0.7422
  299MOL0     C41131   5.824  10.009   1.282  0.6782 -0.7659  0.1414
  299MOL0     O41132   5.735  10.002   1.180  0.5059 -0.2487  0.3151
  299MOL0     C41133   5.621   9.918   1.190 -1.1426  0.5248 -0.5990
  299MOL0     C41134   5.527   9.961   1.300 -1.1674  0.2125  0.0876
  299MOL0     C41135   5.425   9.849   1.325  0.5839  0.4479 -0.2832
  299MOL0     C41136   5.380   9.842   1.473 -0.9518 -0.4595 -0.7817
  299MOL0     C41137   5.278   9.727   1.491 -0.0066 -0.0056  0.0582
  299MOL0     C41138   5.138   9.739   1.422 -0.6827 -0.0319  0.3376
  299MOL0     C41139   5.141   9.675   1.280  0.1803 -2.0731  1.0674
  299MOL0     C41140   5.001   9.667   1.230  0.0756 -0.7955 -0.3658
  299MOL0     N41141   4.961   9.783   1.156  0.0381 -1.0756  0.8376
  299MOL0     C41142   4.934   9.910   1.202  0.5600 -0.3719 -0.5335
  299MOL0     C41143   4.888   9.969   1.090 -1.1067  0.6620 -0.0683
  299MOL0     C41144   4.835  10.112   1.090 -0.8859  0.6274  0.4252
  299MOL0     C41145   4.943  10.218   1.066 -0.2018  0.6431 -1.1271
  299MOL0     C41146   4.903  10.355   1.108  0.1215  0.1138  0.0271
  299MOL0     C41147   5.016  10.466   1.076 -0.6932 -0.3520 -0.4016
  299MOL0     O41148   5.132  10.436   1.158  0.5754  0.1145  0.4692
  299MOL0     C41149   5.258  10.476   1.109  0.0805 -0.2337 -0.5731
  299MOL0     C41150   5.364  10.383   1.110 -0.1194 -0.1992 -0.0517
  299MOL0     C41151   5.496  10.426   1.060  0.7493  0.0575 -0.5827
  299MOL0     C41152   5.607  10.326   1.079  0.7164  0.0440  0.2774
  299MOL0     C41153   5.509  10.560   1.004  0.2640  0.3185  0.2617
  299MOL0     C41154   5.629  10.608   0.928  0.1570 -0.7399 -0.1119
  299MOL0     O41155   5.604  10.721   0.845  0.2796  0.1909 -0.1219
  299MOL0     C41156   5.709  10.794   0.791 -0.7762 -0.3895 -0.5071
  299MOL0     C41157   5.840  10.755   0.767 -0.4986 -1.0266 -0.6451
  299MOL0     C41158   5.926  10.848   0.703  0.8044 -0.4941 -0.7795
  299MOL0     C41159   5.888  10.980   0.676  0.3302 -0.2283 -0.1654
  299MOL0     O41160   5.963  11.076   0.622 -0.8696  0.3767 -0.0421
  299MOL0     C41161   6.098  11.066   0.618  0.8809 -0.4620 -0.0816
  299MOL0     C41162   6.145  11.013   0.488  0.7032 -0.0144  1.1819
  299MOL0     C41163   6.294  11.015   0.486  0.0275 -0.8299  0.2894
  299MOL0     C41164   6.338  10.951   0.357 -1.3010 -0.2938 -0.3811
  299MOL0     C41165   6.485  10.989   0.335 -0.8775 -0.5712  0.4884
  299MOL0     C41166   6.541  10.938   0.197  0.2166 -0.5164  0.1370
  299MOL0     C41167   6.690  10.974   0.162 -0.2999  0.7674  0.0389
  299MOL0     C41168   6.732  10.892   0.043 -0.6381  0.5707  0.2446
  299MOL0    Cl41169   6.646  10.928  -0.108 -0.1404  0.0672 -0.4999
  299MOL0     C41170   5.768  11.019   0.699  0.4114 -0.3757 -0.3387
  299MOL0     C41171   5.678  10.930   0.763 -0.4103  0.1172  0.2622
  299MOL0     O41172   5.739  10.559   0.951 -0.4936  0.2479 -0.2713
  299MOL0     C41173   5.397  10.650   1.007 -0.2241  1.1354 -0.0840
  299MOL0     C41174   5.278  10.605   1.068  0.4015 -0.3358 -0.0557
  299MOL0     N41175   4.891   9.885   0.979  0.3896  0.3671  0.3044
  299MOL0     N41176   4.934   9.778   1.024 -0.4894  0.1044  0.1826
  299MOL0     C41177   5.870   9.890   1.351  0.5183  0.4010 -0.2207
  299MOL0     C41178   5.962   9.903   1.457  0.5469  0.9447 -1.3369
  299MOL0     C41179   6.078  10.077   1.857  0.2725 -0.3833 -0.1424
  299MOL0     C41180   6.172  10.176   1.848  0.2351 -0.1935 -0.1785
  299MOL0     C41181   6.258  10.183   1.957 -0.4439 -0.1587  0.8875
  299MOL0     C41182   6.251  10.101   2.072  0.2660 -0.4044  0.9999
  299MOL0     O41183   6.346  10.130   2.175 -0.4397 -0.3836 -0.2682
  299MOL0     C41184   6.367  10.043   2.283  0.3538  0.2414  0.4550
  299MOL0     C41185   6.260  10.075   2.390  0.4860 -0.4312  1.0868
  299MOL0     C41186   6.258  10.224   2.432 -0.3987  0.1371  0.5537
  299MOL0     C41187   6.143  10.247   2.533 -0.6775 -0.0209 -0.2100
  299MOL0     C41188   6.106  10.383   2.546  1.4006 -0.7987  0.2973
  299MOL0     C41189   6.072  10.502   2.542 -0.4827 -0.5170 -0.7554
  299MOL0     C41190   6.147  10.008   2.076  0.4536  0.1671 -0.7767
  299MOL0     C41191   6.056   9.992   1.970  0.2705 -0.4983 -0.2914
  299MOL0     C41192   5.948   9.886   1.985 -0.1784  0.0302 -0.4911
  299MOL0     H41193   5.962  10.245   1.482  2.5257  0.4250 -1.6263
  299MOL0     H41194   5.824  10.220   1.279  1.2901 -0.0849  0.6310
  299MOL0     H41195   5.653   9.815   1.203 -0.7198  0.5973 -1.0490
  299MOL0     H41196   5.567   9.916   1.095  2.2628 -1.6126 -2.6750
  299MOL0     H41197   5.588   9.989   1.386  1.0356 -0.4529 -1.1685
  299MOL0     H41198   5.484  10.056   1.267 -5.1252 -0.5060  2.5191
  299MOL0     H41199   5.349   9.870   1.250 -1.1387 -2.1393  0.6068
  299MOL0     H41200   5.469   9.753   1.294 -0.1147 -0.2211  0.7230
  299MOL0     H41201   5.469   9.818   1.531 -1.2266  2.6077  1.1736
  299MOL0     H41202   5.333   9.935   1.508 -2.0989 -1.9534  1.9962
  299MOL0     H41203   5.257   9.708   1.596 -3.0095  0.2370 -0.4083
  299MOL0     H41204   5.324   9.633   1.458  0.0247 -0.0829  0.3195
  299MOL0     H41205   5.065   9.685   1.483  0.7828 -1.3484  0.9764
  299MOL0     H41206   5.114   9.846   1.419  1.4472  0.5265 -3.5580
  299MOL0     H41207   5.169   9.569   1.286 -0.9965 -2.4155  0.6758
  299MOL0     H41208   5.203   9.712   1.198 -0.6682 -2.9844 -0.0094
  299MOL0     H41209   4.993   9.577   1.169 -1.8013 -2.4576  2.1052
  299MOL0     H41210   4.932   9.657   1.315 -0.5837 -0.5683 -0.8686
  299MOL0     H41211   4.947   9.952   1.301  3.0961 -1.5270 -0.2999
  299MOL0     H41212   4.779  10.131   1.182  1.0217  2.5992  1.2865
  299MOL0     H41213   4.771  10.119   1.002  2.1311 -0.0539 -1.9989
  299MOL0     H41214   5.038  10.196   1.117 -0.1618  3.2304  0.0861
  299MOL0     H41215   4.976  10.220   0.962  2.3869  1.6673 -0.3778
  299MOL0     H41216   4.814  10.373   1.047  0.1649  2.4286  0.5735
  299MOL0     H41217   4.868  10.359   1.211 -2.3008 -2.7959 -0.5246
  299MOL0     H41218   5.039  10.479   0.970 -1.1988  0.9414 -0.3652
  299MOL0     H41219   4.977  10.560   1.117 -1.2855 -0.6976 -0.1531
  299MOL0     H41220   5.353  10.286   1.158  1.3508 -1.1232 -1.4784
  299MOL0     H41221   5.612  10.277   0.981  0.6137  4.3392 -2.1642
  299MOL0     H41222   5.596  10.250   1.156 -2.5899 -1.6839 -1.6777
  299MOL0     H41223   5.701  10.377   1.103 -1.1307  3.8036  0.2492
  299MOL0     H41224   5.881  10.657   0.789 -1.4606 -1.0547  1.2540
  299MOL0     H41225   6.029  10.825   0.677  0.7008  1.1487 -2.9280
  299MOL0     H41226   6.153  11.160   0.626  1.8841 -1.1367  1.2416
  299MOL0     H41227   6.131  11.000   0.698  0.6779 -2.8500 -1.8588
  299MOL0     H41228   6.106  10.912   0.467 -0.0920  0.6655 -0.9571
  299MOL0     H41229   6.111  11.076   0.405  0.8135  0.0030  1.1488
  299MOL0     H41230   6.329  10.954   0.570  0.6875  0.7397  1.1914
  299MOL0     H41231   6.326  11.118   0.502 -1.3025  0.1398 -2.6317
  299MOL0     H41232   6.274  10.989   0.277  0.5773  3.8455 -0.1765
  299MOL0     H41233   6.335  10.842   0.364  1.0738 -0.4867 -1.2841
  299MOL0     H41234   6.499  11.095   0.357 -2.5609 -0.9262  3.8367
  299MOL0     H41235   6.547  10.938   0.409  0.4757  2.4036  1.5752
  299MOL0     H41236   6.475  10.988   0.126  0.4467  0.5749  0.6531
  299MOL0     H41237   6.543  10.829   0.199 -0.1610 -0.5760  3.8736
  299MOL0     H41238   6.749  10.933   0.245  0.4007  3.0861  0.7632
  299MOL0     H41239   6.704  11.081   0.143 -1.4972  1.2171  1.4526
  299MOL0     H41240   6.714  10.786   0.060  2.4047  0.5290  5.7165
  299MOL0     H41241   6.841  10.897   0.028 -0.6860  0.1536 -0.2841
  299MOL0     H41242   5.742  11.119   0.663 -0.5436 -0.1606  0.8745
  299MOL0     H41243   5.576  10.959   0.785  0.4767  2.9372  0.9706
  299MOL0     H41244   5.410  10.753   0.973 -1.5978  0.8459 -1.6141
  299MOL0     H41245   5.213  10.691   1.076  3.2047  2.2986 -2.8332
  299MOL0     H41246   5.846   9.791   1.315  4.0975  0.3589 -2.9440
  299MOL0     H41247   6.007   9.811   1.494  0.6956  0.1220 -3.4242
  299MOL0     H41248   6.176  10.246   1.766 -2.5066 -0.9321 -1.0239
  299MOL0     H41249   6.330  10.264   1.953  0.1723 -0.6095  2.2929
  299MOL0     H41250   6.355   9.940   2.248 -2.5254 -0.5460  3.2877
  299MOL0     H41251   6.470  10.042   2.318  0.9145 -3.1076 -0.8933
  299MOL0     H41252   6.271  10.011   2.478  1.3698 -0.9803  0.5790
  299MOL0     H41253   6.158  10.065   2.350  0.8973  1.4515 -0.5966
  299MOL0     H41254   6.349  10.266   2.474 -0.3238  1.5351 -0.9164
  299MOL0     H41255   6.240  10.284   2.342 -0.5029 -0.5912  0.0846
  299MOL0     H41256   6.183  10.210   2.628  2.3729  4.4992  0.5889
  299MOL0     H41257   6.053  10.193   2.503 -1.8653  2.1024 -0.6762
  299MOL0     H41258   6.034  10.602   2.544 -0.5836 -0.5395  1.9795
  299MOL0     H41259   6.119   9.958   2.168 -0.8343 -0.8638 -1.6952
  299MOL0     H41260   5.946   9.808   1.909 -0.4358  0.1763 -0.6336
  299MOL0     H41261   5.960   9.841   2.085 -2.4825  1.7438  0.6588
  299MOL0     H41262   5.853   9.940   1.987 -1.0172 -1.3526 -1.4668
  300MOL0     O41263   7.535   0.077   3.514  0.4288 -0.7787 -0.3537
  300MOL0     C41264   7.513   0.016   3.623 -1.0013  0.4605  0.0151
  300MOL0     O41265   7.402  -0.061   3.658 -0.1904  0.9944 -0.1615
  300MOL0     C41266   7.291  -0.055   3.570 -0.8784  0.8233  0.0414
  300MOL0     C41267   7.259  -0.167   3.490  0.0025  0.8264 -0.4266
  300MOL0     C41268   7.152  -0.172   3.397  0.8002 -0.1476  0.7898
  300MOL0     C41269   7.079  -0.053   3.387 -0.0191 -0.0410  1.3246
  300MOL0     O41270   6.972  -0.037   3.306 -0.4334 -0.0095 -0.7349
  300MOL0     C41271   7.020  -0.008   3.172 -0.9281  0.3039  0.3325
  300MOL0     C41272   6.975   0.134   3.126  0.7845  0.3231 -0.1031
  300MOL0     C41273   6.821   0.173   3.156 -0.3711  0.7469  0.5740
  300MOL0     C41274   6.793   0.318   3.121  0.3852 -0.7524 -0.2043
  300MOL0     C41275   6.749   0.332   2.970 -0.5240  1.2763 -0.2922
  300MOL0     C41276   6.754   0.473   2.918  0.1563 -0.6959  0.4871
  300MOL0     C41277   6.649   0.570   2.983 -0.0434 -0.2121 -0.3191
  300MOL0     C41278   6.498   0.523   2.991 -0.1304 -0.0567  0.7542
  300MOL0     N41279   6.427   0.629   3.055 -0.3310  0.6202 -0.2136
  300MOL0     C41280   6.291   0.636   3.050  0.2813  1.5545 -0.8512
  300MOL0     C41281   6.259   0.744   3.130 -0.0020  1.0138  0.8711
  300MOL0     C41282   6.115   0.772   3.160  0.9402 -0.1348  0.0989
  300MOL0     C41283   6.101   0.921   3.178 -0.4199 -0.0595 -0.1052
  300MOL0     C41284   5.959   0.956   3.196 -0.0719  0.4638 -0.2800
  300MOL0     C41285   5.942   1.101   3.236 -0.2860  0.0101 -0.2500
  300MOL0     O41286   5.806   1.140   3.219  0.0302  0.1126  0.0533
  300MOL0     C41287   5.767   1.258   3.287 -0.3564 -0.5302 -0.8090
  300MOL0     C41288   5.824   1.295   3.409 -0.1564 -1.2695  0.4790
  300MOL0     C41289   5.803   1.429   3.453 -0.2788 -0.8335  0.7654
  300MOL0     C41290   5.865   1.454   3.585  0.6720 -0.1408  0.5676
  300MOL0     C41291   5.713   1.522   3.381  0.4168  0.2369 -0.3996
  300MOL0     C41292   5.693   1.666   3.420  0.3887 -0.1697  0.1283
  300MOL0     O41293   5.600   1.733   3.339 -0.4662 -0.3560 -0.6214
  300MOL0     C41294   5.587   1.870   3.347 -1.5117 -1.2330  0.3243
  300MOL0     C41295   5.490   1.932   3.433 -0.5530  0.3291 -0.0582
  300MOL0     C41296   5.481   2.069   3.443 -0.5422 -0.4585  0.2730
  300MOL0     C41297   5.571   2.149   3.376 -0.0890 -1.6304 -0.0943
  300MOL0     O41298   5.579   2.280   3.417 -0.0054 -0.3999 -0.5235
  300MOL0     C41299   5.693   2.368   3.382 -0.3272 -0.0633  0.3197
  300MOL0     C41300   5.691   2.409   3.241 -0.5214 -0.9072  0.1513
  300MOL0     C41301   5.562   2.473   3.205 -0.2623  0.6356  0.2521
  300MOL0     C41302   5.566   2.517   3.055 -0.5051 -1.3215 -0.8099
  300MOL0     C41303   5.517   2.663   3.042 -0.0964  0.9561  0.6151
  300MOL0     C41304   5.628   2.758   3.061 -0.0208  0.0383 -0.7742
  300MOL0     C41305   5.571   2.898   3.072 -0.5238 -0.2720 -0.3399
  300MOL0     C41306   5.529   2.961   2.936 -0.6282 -0.1611  0.0275
  300MOL0    Cl41307   5.530   3.142   2.947  0.1309 -0.3564 -0.2221
  300MOL0     C41308   5.663   2.091   3.292  0.4413  1.2718 -0.0677
  300MOL0     C41309   5.673   1.953   3.275 -0.6411  0.0294 -0.2357
  300MOL0     O41310   5.756   1.715   3.511 -0.0995 -0.1246  0.4527
  300MOL0     C41311   5.652   1.469   3.259  0.1300  0.0625 -0.2579
  300MOL0     C41312   5.676   1.339   3.219  0.1909 -0.1630  0.1643
  300MOL0     N41313   6.378   0.806   3.181  0.6510 -0.4152  0.4503
  300MOL0     N41314   6.470   0.721   3.150  0.2954  0.0153  0.0366
  300MOL0     C41315   7.099   0.053   3.472 -0.2503  0.9452 -0.7616
  300MOL0     C41316   7.202   0.050   3.567  0.6669  0.2184  0.5813
  300MOL0     C41317   7.610   0.031   3.731 -1.2083 -0.2869 -0.4298
  300MOL0     C41318   7.568  -0.001   3.866  0.1981 -0.3284 -0.0238
  300MOL0     C41319   7.655  -0.004   3.969 -0.2556 -0.1478 -0.0784
  300MOL0     C41320   7.791   0.035   3.948  0.5203 -0.3616  0.9229
  300MOL0     O41321   7.871   0.056   4.054 -0.5000  0.1842 -0.1925
  300MOL0     C41322   7.848   0.171   4.133  0.8053 -0.1684  0.0028
  300MOL0     C41323   7.961   0.193   4.227  0.1894  0.0559 -0.1606
  300MOL0     C41324   8.088   0.262   4.163  1.0349  0.8274  0.1351
  300MOL0     C41325   8.216   0.245   4.250  0.1472  0.2059 -0.7690
  300MOL0     C41326   8.187   0.297   4.388  0.4057 -0.0408  1.2545
  300MOL0     C41327   8.172   0.344   4.497 -0.4907  0.4147  1.5757
  300MOL0     C41328   7.833   0.079   3.824 -0.4366  0.9882  0.1743
  300MOL0     C41329   7.747   0.073   3.717 -0.3396  0.8586  1.0042
  300MOL0     C41330   7.808   0.095   3.575 -0.5903 -0.1512  1.0774
  300MOL0     H41331   7.322  -0.251   3.517  0.3803  0.6047 -1.9208
  300MOL0     H41332   7.118  -0.262   3.345  1.0605  0.1990  0.0043
  300MOL0     H41333   6.981  -0.087   3.107  1.2194 -0.1795 -0.4603
  300MOL0     H41334   7.129  -0.016   3.164 -1.0878 -3.4472  0.1874
  300MOL0     H41335   7.033   0.219   3.164  3.3319 -1.0641 -0.6811
  300MOL0     H41336   7.002   0.139   3.020  2.1174 -0.1462  0.1943
  300MOL0     H41337   6.755   0.111   3.095  0.0213 -1.4961  2.2911
  300MOL0     H41338   6.812   0.162   3.265  3.7047 -4.6178  0.7730
  300MOL0     H41339   6.712   0.353   3.186 -0.2625  2.5249 -2.5595
  300MOL0     H41340   6.883   0.377   3.139  0.0821 -0.3274 -0.0580
  300MOL0     H41341   6.649   0.291   2.949  1.3506 -3.8823 -0.5490
  300MOL0     H41342   6.821   0.282   2.904 -1.6273  1.4286 -1.6675
  300MOL0     H41343   6.854   0.516   2.930  0.7724 -1.2096 -2.1825
  300MOL0     H41344   6.733   0.469   2.811 -0.1608  0.4651  0.4911
  300MOL0     H41345   6.659   0.662   2.925  3.0843  0.8878  1.6668
  300MOL0     H41346   6.693   0.592   3.081  4.2318 -1.6378 -1.6840
  300MOL0     H41347   6.463   0.499   2.890  0.7974 -1.4315  0.7255
  300MOL0     H41348   6.484   0.431   3.049 -0.7898 -0.0181  0.6637
  300MOL0     H41349   6.221   0.564   3.008  0.1785  1.8925 -1.2682
  300MOL0     H41350   6.069   0.717   3.243 -1.5757 -1.1242 -1.8011
  300MOL0     H41351   6.052   0.731   3.080  0.3491 -5.6057  2.8888
  300MOL0     H41352   6.165   0.938   3.265  0.6080 -1.2358 -0.5984
  300MOL0     H41353   6.145   0.968   3.090 -0.0318 -1.8926 -0.9429
  300MOL0     H41354   5.913   0.954   3.097  0.1140  3.2977 -0.5111
  300MOL0     H41355   5.903   0.894   3.266 -0.2499 -0.9401 -1.6350
  300MOL0     H41356   5.987   1.113   3.335  1.4802 -3.0782 -0.5462
  300MOL0     H41357   6.005   1.148   3.160  1.4166 -0.9986  0.4773
  300MOL0     H41358   5.880   1.230   3.475 -0.1588 -0.0330  1.7375
  300MOL0     H41359   5.802   1.501   3.661  1.5549  0.4486  0.9689
  300MOL0     H41360   5.942   1.530   3.568 -0.0249  0.6470  0.8767
  300MOL0     H41361   5.901   1.371   3.647 -0.0060  1.0501  2.6838
  300MOL0     H41362   5.423   1.863   3.483  0.2657  1.1009  2.2328
  300MOL0     H41363   5.431   2.132   3.516  0.3211  0.6317 -0.0469
  300MOL0     H41364   5.672   2.452   3.448  1.1954 -0.1147  0.8874
  300MOL0     H41365   5.786   2.315   3.402  0.0349  1.1710  2.0739
  300MOL0     H41366   5.774   2.480   3.236 -1.4466  0.1583 -1.2382
  300MOL0     H41367   5.720   2.339   3.163  3.0155 -0.0714  0.5452
  300MOL0     H41368   5.525   2.547   3.277 -2.5689  0.2207 -0.4122
  300MOL0     H41369   5.497   2.385   3.201  2.6345 -1.7341  1.4648
  300MOL0     H41370   5.503   2.461   2.985 -3.4969 -0.3889  0.9273
  300MOL0     H41371   5.667   2.515   3.016 -0.1343 -1.6481  0.1303
  300MOL0     H41372   5.478   2.682   2.942  0.2196 -3.8951 -0.6880
  300MOL0     H41373   5.438   2.687   3.114 -1.8389  1.7799 -1.4865
  300MOL0     H41374   5.699   2.756   2.978 -0.2869  1.0352 -1.0446
  300MOL0     H41375   5.663   2.744   3.164  0.6287 -1.5083 -1.1760
  300MOL0     H41376   5.656   2.958   3.105  0.8453 -1.3991 -1.6539
  300MOL0     H41377   5.480   2.899   3.132  0.8024  1.2813  1.7737
  300MOL0     H41378   5.430   2.926   2.904 -0.3232 -0.5994 -0.4525
  300MOL0     H41379   5.601   2.944   2.856  1.1304 -0.1739  1.5532
  300MOL0     H41380   5.742   2.146   3.242  2.8255  1.6730  3.8054
  300MOL0     H41381   5.737   1.896   3.208 -5.9178 -2.6272 -3.6320
  300MOL0     H41382   5.573   1.527   3.213 -2.3200 -1.2458  1.9754
  300MOL0     H41383   5.650   1.311   3.117  1.9276  0.8830 -0.6019
  300MOL0     H41384   7.019   0.127   3.464  0.7374  2.1401  0.1284
  300MOL0     H41385   7.207   0.136   3.634 -3.2220  1.2157 -0.1630
  300MOL0     H41386   7.468  -0.042   3.876 -1.3217  2.1571 -3.2490
  300MOL0     H41387   7.623  -0.040   4.067 -0.1323  0.6831  0.2744
  300MOL0     H41388   7.855   0.261   4.072 -1.5706  1.9677  2.6073
  300MOL0     H41389   7.747   0.173   4.176  0.9458 -1.5131  0.4392
  300MOL0     H41390   7.989   0.092   4.260 -0.1179 -0.9799 -2.8459
  300MOL0     H41391   7.926   0.248   4.315 -1.2582 -2.2910  0.8307
  300MOL0     H41392   8.111   0.214   4.067  1.9949  0.7709  0.3873
  300MOL0     H41393   8.050   0.363   4.147 -1.1166  0.4556  2.3851
  300MOL0     H41394   8.303   0.294   4.205 -1.7334  0.1924 -4.8836
  300MOL0     H41395   8.248   0.141   4.258  2.7596  0.9783 -0.1776
  300MOL0     H41396   8.141   0.370   4.597 -1.4498  1.7896  0.9573
  300MOL0     H41397   7.936   0.106   3.805 -0.8838  2.9111  0.3031
  300MOL0     H41398   7.917   0.090   3.575 -0.5439  0.2421  2.9647
  300MOL0     H41399   7.768   0.012   3.514  0.7438 -1.0113  1.3222
  300MOL0     H41400   7.796   0.195   3.532  1.8830  0.2947  1.2738
  301MOL0     O41401   9.727   1.117   8.656 -0.5495  0.1495 -0.3252
  301MOL0     C41402   9.619   1.081   8.705  0.2810 -0.6132 -0.0739
  301MOL0     O41403   9.590   0.957   8.739  0.5695  0.5974 -0.4044
  301MOL0     C41404   9.685   0.877   8.806 -0.1403 -0.2349  0.4368
  301MOL0     C41405   9.654   0.739   8.811  0.9433  0.2665 -0.2958
  301MOL0     C41406   9.726   0.652   8.892 -0.3343  0.4531  0.4002
  301MOL0     C41407   9.821   0.701   8.968 -0.1897 -1.0664  0.0035
  301MOL0     O41408   9.896   0.617   9.042 -0.3276 -0.5456  0.2884
  301MOL0     C41409   9.984   0.525   8.969 -0.2054  0.2389  0.4411
  301MOL0     C41410  10.023   0.427   9.076 -0.4178 -0.0219  0.2735
  301MOL0     C41411  10.114   0.316   9.021 -0.2507  0.5725  0.3830
  301MOL0     C41412  10.253   0.367   9.011  0.4177  0.0534 -0.3641
  301MOL0     C41413  10.366   0.263   9.002 -0.8671  0.1235 -0.8996
  301MOL0     C41414  10.389   0.168   9.115 -0.0069  0.6585 -0.0365
  301MOL0     C41415  10.497   0.060   9.080 -0.8130  0.0379  0.9999
  301MOL0     C41416  10.527  -0.050   9.180  1.0483  0.2674 -0.4252
  301MOL0     N41417  10.410  -0.126   9.220  0.2412 -0.1134 -0.5651
  301MOL0     C41418  10.331  -0.103   9.333 -0.6013  0.3329  0.3792
  301MOL0     C41419  10.259  -0.220   9.339  0.3864  0.1071  0.3615
  301MOL0     C41420  10.171  -0.257   9.458 -0.0928 -1.0518 -0.1142
  301MOL0     C41421  10.050  -0.341   9.404 -0.0744 -0.2260 -0.2584
  301MOL0     C41422  10.037  -0.471   9.486 -0.0915  0.1960 -0.6000
  301MOL0     C41423   9.942  -0.569   9.437  0.1963 -0.1859  1.2876
  301MOL0     O41424   9.804  -0.534   9.476  0.1135 -0.4086 -0.4892
  301MOL0     C41425   9.727  -0.454   9.401  0.4389 -0.8041 -0.3987
  301MOL0     C41426   9.602  -0.426   9.457 -0.1791  0.2749 -0.0423
  301MOL0     C41427   9.501  -0.351   9.387 -0.2806  0.0759  0.1463
  301MOL0     C41428   9.361  -0.358   9.444 -0.1312  0.0430 -0.0637
  301MOL0     C41429   9.539  -0.297   9.264  0.2425  1.3628  0.8868
  301MOL0     C41430   9.453  -0.201   9.188 -0.1494  0.8779 -1.0830
  301MOL0     O41431   9.335  -0.177   9.240 -0.1371  0.0096 -0.3209
  301MOL0     C41432   9.250  -0.147   9.142  0.4604 -0.8826  0.1642
  301MOL0     C41433   9.208  -0.244   9.050 -0.3493 -0.2630  0.0854
  301MOL0     C41434   9.119  -0.205   8.953  0.0092  0.0650 -0.2395
  301MOL0     C41435   9.049  -0.080   8.960  0.7128  0.0791 -0.6800
  301MOL0     O41436   8.949  -0.051   8.870  0.5157  0.0725 -0.5447
  301MOL0     C41437   8.848  -0.153   8.834  0.7608 -0.1918  0.3893
  301MOL0     C41438   8.720  -0.079   8.791 -0.1195  0.2341 -1.3267
  301MOL0     C41439   8.642  -0.035   8.908  0.2025  0.6740 -0.6357
  301MOL0     C41440   8.699   0.081   8.991  0.1827 -0.0675 -0.5050
  301MOL0     C41441   8.591   0.125   9.098 -0.3310  0.4257 -0.4918
  301MOL0     C41442   8.643   0.231   9.190  0.2130  0.0913 -0.8136
  301MOL0     C41443   8.522   0.287   9.280  0.4123  0.0590  0.9860
  301MOL0     C41444   8.558   0.397   9.372  0.2800  0.0314  0.9768
  301MOL0    Cl41445   8.417   0.445   9.475 -0.2631 -0.0213 -0.5794
  301MOL0     C41446   9.094   0.010   9.050 -0.5238  0.2713  0.6913
  301MOL0     C41447   9.187  -0.022   9.138  0.6957  0.0943 -0.5121
  301MOL0     O41448   9.503  -0.146   9.095 -0.6806 -0.6768  0.3357
  301MOL0     C41449   9.668  -0.327   9.211  0.5720 -0.1665  0.3427
  301MOL0     C41450   9.754  -0.410   9.279  0.0119 -0.3276 -0.0949
  301MOL0     N41451  10.286  -0.303   9.227 -0.1115  0.4500 -0.3554
  301MOL0     N41452  10.384  -0.247   9.161  0.2899 -0.2436 -0.5500
  301MOL0     C41453   9.872   0.827   8.949  1.5886 -0.0447 -0.3246
  301MOL0     C41454   9.803   0.921   8.879 -0.4135 -0.5247  0.2438
  301MOL0     C41455   9.512   1.184   8.693  0.1060 -0.4377  0.6696
  301MOL0     C41456   9.550   1.301   8.615  0.9881  0.0672 -0.6409
  301MOL0     C41457   9.454   1.405   8.601  0.3981 -0.1596  0.7461
  301MOL0     C41458   9.327   1.403   8.652 -0.3830 -0.0506  0.1658
  301MOL0     O41459   9.235   1.502   8.644  0.1625 -0.3084 -0.5559
  301MOL0     C41460   9.263   1.630   8.574  0.3378  0.0955 -0.1425
  301MOL0     C41461   9.142   1.713   8.594 -0.3278  0.2137 -0.2881
  301MOL0     C41462   9.155   1.829   8.707  1.1552  0.5773 -0.9252
  301MOL0     C41463   9.182   1.759   8.845  0.5178  0.6757 -0.8600
  301MOL0     C41464   9.223   1.865   8.938 -0.0882 -0.2243  0.4717
  301MOL0     C41465   9.263   1.954   9.015 -0.6706  1.3983 -0.4375
  301MOL0     C41466   9.294   1.290   8.724 -0.5154 -0.0086  0.0508
  301MOL0     C41467   9.379   1.179   8.740 -0.5854 -0.3557 -0.4728
  301MOL0     C41468   9.321   1.062   8.818  0.9617  0.5052 -0.0816
  301MOL0     H41469   9.564   0.702   8.763 -0.0262 -0.1371  1.7162
  301MOL0     H41470   9.699   0.547   8.889  2.1673 -0.2823 -3.4687
  301MOL0     H41471  10.070   0.578   8.926 -0.7225 -0.6178 -1.8006
  301MOL0     H41472   9.922   0.476   8.893 -1.2177  2.1888 -0.0680
  301MOL0     H41473  10.079   0.485   9.150  0.9123  0.7175 -1.2533
  301MOL0     H41474   9.933   0.392   9.129 -0.8782 -1.5421 -1.3866
  301MOL0     H41475  10.116   0.234   9.094 -0.3720 -0.5366 -0.8176
  301MOL0     H41476  10.068   0.287   8.926 -1.6656 -4.4425  2.2564
  301MOL0     H41477  10.262   0.432   8.924 -2.2819 -2.0477 -2.4065
  301MOL0     H41478  10.257   0.413   9.110 -1.3527 -0.8248  0.1762
  301MOL0     H41479  10.459   0.319   8.987  1.0189 -2.7952 -0.7166
  301MOL0     H41480  10.360   0.214   8.905  1.3906  4.2728 -3.4648
  301MOL0     H41481  10.428   0.219   9.203  1.6092 -0.5090 -0.0256
  301MOL0     H41482  10.292   0.127   9.148 -1.1078  2.8832 -0.3570
  301MOL0     H41483  10.592   0.113   9.071 -0.4354 -1.0401 -2.9527
  301MOL0     H41484  10.484   0.025   8.977  2.5742 -0.8585  0.7798
  301MOL0     H41485  10.607  -0.115   9.143  1.3721  1.2266 -1.4435
  301MOL0     H41486  10.555  -0.005   9.276 -4.4955 -2.0336  2.7748
  301MOL0     H41487  10.328  -0.033   9.416 -0.1869  2.0290 -0.9964
  301MOL0     H41488  10.123  -0.166   9.495 -0.9100 -0.8039 -1.6683
  301MOL0     H41489  10.226  -0.313   9.534  0.2737 -0.9030 -0.2726
  301MOL0     H41490   9.958  -0.282   9.414 -0.9515 -1.3945 -1.0841
  301MOL0     H41491  10.059  -0.352   9.296  0.1472  1.5540 -0.4528
  301MOL0     H41492  10.133  -0.524   9.490 -0.9272 -1.4366 -1.3284
  301MOL0     H41493  10.018  -0.436   9.587  0.3758  0.8663 -0.7319
  301MOL0     H41494   9.953  -0.600   9.333 -0.7252  1.7468  0.5723
  301MOL0     H41495   9.965  -0.662   9.490 -4.7052 -1.0261  2.4229
  301MOL0     H41496   9.592  -0.483   9.549  2.2570 -2.4351 -1.2813
  301MOL0     H41497   9.285  -0.346   9.366 -0.0333  1.6812  0.0568
  301MOL0     H41498   9.330  -0.277   9.511  0.9656 -1.0974  1.9339
  301MOL0     H41499   9.347  -0.454   9.494 -0.1311  1.0164  1.9486
  301MOL0     H41500   9.246  -0.346   9.046  1.1321  0.2183  1.1286
  301MOL0     H41501   9.085  -0.284   8.886  4.9092 -1.3470 -1.4778
  301MOL0     H41502   8.885  -0.215   8.751  3.2136  2.9143 -1.0471
  301MOL0     H41503   8.830  -0.222   8.917  0.6501  0.3145  0.7868
  301MOL0     H41504   8.739  -0.000   8.717  0.0484  1.9874  0.5039
  301MOL0     H41505   8.660  -0.156   8.743  1.9125 -1.6588 -1.0241
  301MOL0     H41506   8.631  -0.120   8.977  4.1886 -0.2424 -0.8692
  301MOL0     H41507   8.546  -0.001   8.869 -0.9731 -0.7671  0.8379
  301MOL0     H41508   8.717   0.162   8.920 -0.4844  1.9123  1.4869
  301MOL0     H41509   8.787   0.054   9.049  0.0438 -0.4471 -0.4700
  301MOL0     H41510   8.502   0.161   9.046  0.0784 -0.7292 -2.0450
  301MOL0     H41511   8.563   0.040   9.161  1.3077 -0.0061 -0.2902
  301MOL0     H41512   8.685   0.306   9.121  3.8969 -1.0636 -0.0612
  301MOL0     H41513   8.730   0.202   9.250  1.0479  0.2187 -1.9226
  301MOL0     H41514   8.476   0.206   9.337  0.2709 -2.9390 -2.9732
  301MOL0     H41515   8.437   0.316   9.218 -3.0067 -2.7369  3.9449
  301MOL0     H41516   8.594   0.472   9.301 -1.6771  0.0111 -0.1039
  301MOL0     H41517   8.644   0.365   9.431  1.0192 -0.9133 -0.5367
  301MOL0     H41518   9.050   0.110   9.045  1.8795  1.3371 -0.4114
  301MOL0     H41519   9.204   0.061   9.206 -0.5361  1.2751 -1.5694
  301MOL0     H41520   9.703  -0.293   9.114  0.1405  1.1240  0.6162
  301MOL0     H41521   9.850  -0.440   9.237  0.9123  0.3471  1.4160
  301MOL0     H41522   9.965   0.846   9.003  1.3888 -0.9379  0.3713
  301MOL0     H41523   9.846   1.020   8.877  1.1622 -1.1980 -0.5518
  301MOL0     H41524   9.650   1.314   8.577  0.7529  2.4241 -0.6120
  301MOL0     H41525   9.489   1.490   8.543  1.6148 -1.3324 -0.3222
  301MOL0     H41526   9.357   1.676   8.606 -1.0023  2.6382  0.4118
  301MOL0     H41527   9.266   1.611   8.466 -1.0189 -1.1294  0.0087
  301MOL0     H41528   9.057   1.646   8.609  2.1166 -3.5982 -1.8609
  301MOL0     H41529   9.121   1.770   8.503  0.6553  1.6286  0.3367
  301MOL0     H41530   9.239   1.899   8.703  0.4106  1.6841  0.9758
  301MOL0     H41531   9.059   1.881   8.702  0.8934  0.0013 -2.3460
  301MOL0     H41532   9.263   1.685   8.844  1.6157  1.4999  3.7844
  301MOL0     H41533   9.096   1.706   8.884  0.0283  1.5179 -0.7591
  301MOL0     H41534   9.292   2.037   9.076  2.7037 -0.4587  0.7309
  301MOL0     H41535   9.199   1.291   8.777 -1.1896 -1.2783 -1.0769
  301MOL0     H41536   9.390   1.011   8.886 -0.1466  0.3974  0.9822
  301MOL0     H41537   9.236   1.086   8.881  0.6195 -1.9226  0.4592
  301MOL0     H41538   9.286   0.987   8.746  0.0872  0.7049  0.1302
  302MOL0     O41539   3.845  10.148   4.102  0.0845 -0.4448  0.7859
  302MOL0     C41540   3.872  10.200   4.205  1.0987  0.1701  0.0973
  302MOL0     O41541   3.798  10.287   4.284  0.5622 -0.4172  0.2335
  302MOL0     C41542   3.668  10.276   4.253  0.5293 -0.4496  0.0246
  302MOL0     C41543   3.593  10.371   4.189  0.1928  0.1446  0.2374
  302MOL0     C41544   3.459  10.346   4.147 -0.3629 -0.0691  0.3980
  302MOL0     C41545   3.392  10.231   4.195  0.5285  0.2220  0.4896
  302MOL0     O41546   3.259  10.214   4.179 -0.3755  0.1642 -0.2693
  302MOL0     C41547   3.181  10.330   4.224 -0.3354  0.3336 -0.3891
  302MOL0     C41548   3.053  10.280   4.289 -0.0210 -0.6361  0.0221
  302MOL0     C41549   2.976  10.396   4.366 -0.1053  0.0045  0.5509
  302MOL0     C41550   2.849  10.346   4.404  0.8214 -0.4132 -0.5859
  302MOL0     C41551   2.776  10.449   4.483  0.4969 -0.9295 -0.2535
  302MOL0     C41552   2.644  10.405   4.541 -0.2581 -0.4927 -0.4720
  302MOL0     C41553   2.544  10.518   4.536  0.3369  0.2092 -0.6256
  302MOL0     C41554   2.408  10.484   4.604 -0.1714  0.7343 -0.8165
  302MOL0     N41555   2.300  10.583   4.586 -0.2845 -0.9172 -0.1779
  302MOL0     C41556   2.173  10.554   4.575  0.1050 -0.0949  0.5607
  302MOL0     C41557   2.105  10.670   4.582 -0.3042 -0.5441  0.4072
  302MOL0     C41558   1.958  10.688   4.552 -0.1413  0.1791  1.3566
  302MOL0     C41559   1.867  10.558   4.572 -0.4132 -0.5372  0.4994
  302MOL0     C41560   1.862  10.444   4.466  0.1447  0.0809 -0.6327
  302MOL0     C41561   1.836  10.485   4.320 -0.2651 -0.0287 -0.7921
  302MOL0     O41562   1.952  10.549   4.271  0.3044 -0.0203 -0.1373
  302MOL0     C41563   2.073  10.483   4.243  0.7379  0.1002 -0.2903
  302MOL0     C41564   2.086  10.344   4.245 -0.0161 -0.0986  0.4365
  302MOL0     C41565   2.213  10.283   4.242 -0.2093  0.4935 -0.8379
  302MOL0     C41566   2.217  10.130   4.265 -0.7215 -0.1761 -0.4952
  302MOL0     C41567   2.326  10.363   4.205 -0.3414 -0.1505 -0.0327
  302MOL0     C41568   2.457  10.310   4.176  0.2944 -1.2397  0.3024
  302MOL0     O41569   2.492  10.183   4.234  0.1677  0.3338  0.5606
  302MOL0     C41570   2.605  10.129   4.201 -0.2749  0.3922 -0.0435
  302MOL0     C41571   2.682  10.151   4.087  0.1128 -0.1182 -0.2484
  302MOL0     C41572   2.789  10.074   4.055  0.8886  0.0816 -0.0933
  302MOL0     C41573   2.843   9.980   4.141  0.0298  0.0255  0.6471
  302MOL0     O41574   2.962   9.910   4.141  0.0620  0.2930  0.3424
  302MOL0     C41575   3.068   9.963   4.065  0.0183  0.2534 -0.5421
  302MOL0     C41576   3.080   9.902   3.927  0.1013 -0.0148  0.4183
  302MOL0     C41577   3.125   9.754   3.936 -0.0871 -0.6886 -0.4918
  302MOL0     C41578   3.119   9.682   3.798  0.7320  0.3979 -0.3212
  302MOL0     C41579   3.104   9.528   3.815 -0.6488 -0.7719  0.7187
  302MOL0     C41580   3.117   9.450   3.684 -0.0218 -0.0791 -0.1901
  302MOL0     C41581   3.006   9.497   3.597  0.3358 -0.3739  1.1546
  302MOL0     C41582   3.020   9.413   3.474  0.7332 -0.2035 -0.2032
  302MOL0    Cl41583   3.175   9.443   3.374  0.4232 -0.1464 -0.2304
  302MOL0     C41584   2.780   9.981   4.268 -0.7302 -0.3576  0.0528
  302MOL0     C41585   2.660  10.048   4.297 -0.2712 -0.1469  0.2009
  302MOL0     O41586   2.535  10.382   4.129  0.8972 -0.7358 -0.2837
  302MOL0     C41587   2.308  10.502   4.207  0.0193 -0.4396  0.1143
  302MOL0     C41588   2.186  10.560   4.228  1.0719 -0.4400 -0.5793
  302MOL0     N41589   2.187  10.776   4.585 -0.5970 -0.7076 -0.0819
  302MOL0     N41590   2.309  10.728   4.594  0.1678  0.3780  0.9671
  302MOL0     C41591   3.463  10.132   4.270 -0.5884 -0.4058 -0.2504
  302MOL0     C41592   3.597  10.160   4.291  0.2322 -0.4579  0.7786
  302MOL0     C41593   3.999  10.147   4.265 -1.4125 -0.2259  0.1048
  302MOL0     C41594   4.082  10.067   4.188 -0.7788  0.2401  0.3053
  302MOL0     C41595   4.200  10.006   4.241  0.6603  0.3279 -0.0873
  302MOL0     C41596   4.233  10.026   4.374 -0.0317  0.9910  1.2298
  302MOL0     O41597   4.360   9.976   4.412  0.2290  1.1156 -0.1201
  302MOL0     C41598   4.390   9.987   4.553 -0.5685  0.7446  1.0789
  302MOL0     C41599   4.307   9.881   4.641 -0.7475  0.1288  0.2952
  302MOL0     C41600   4.338   9.728   4.604  0.3808 -0.2209  0.2228
  302MOL0     C41601   4.386   9.642   4.720 -0.0792 -0.0599 -0.5533
  302MOL0     C41602   4.529   9.645   4.737  0.0713  0.4749  0.6102
  302MOL0     C41603   4.650   9.633   4.774 -0.1449 -0.6941  0.3292
  302MOL0     C41604   4.150  10.097   4.465  0.8978  0.0554 -0.2382
  302MOL0     C41605   4.033  10.155   4.409 -0.3620 -0.8472 -0.1770
  302MOL0     C41606   3.943  10.225   4.515  0.0057 -0.6935  0.2220
  302MOL0     H41607   3.642  10.464   4.163  3.3028 -1.0688  1.3145
  302MOL0     H41608   3.417  10.423   4.084 -0.1190 -1.6560 -1.8250
  302MOL0     H41609   3.164  10.384   4.131  1.2019 -1.2251 -1.6560
  302MOL0     H41610   3.234  10.393   4.296  1.5954  1.8245 -2.9345
  302MOL0     H41611   2.992  10.244   4.206 -0.6971 -2.5615  1.2746
  302MOL0     H41612   3.065  10.189   4.349  1.9650 -1.0908 -0.9776
  302MOL0     H41613   3.027  10.428   4.458  0.3883  1.7773 -0.3001
  302MOL0     H41614   2.966  10.486   4.306  0.1388  0.7379  1.5790
  302MOL0     H41615   2.792  10.328   4.313  1.3980 -0.6106 -0.9169
  302MOL0     H41616   2.854  10.251   4.459  0.1869  2.2583  4.7017
  302MOL0     H41617   2.766  10.537   4.419 -3.1232 -0.4984  0.6535
  302MOL0     H41618   2.832  10.481   4.572 -0.5598 -0.3320  0.2141
  302MOL0     H41619   2.615  10.317   4.482 -2.4748  0.8240 -1.4517
  302MOL0     H41620   2.667  10.384   4.646  2.5613  2.2662 -0.4047
  302MOL0     H41621   2.513  10.526   4.431 -1.8063  1.0316  0.0279
  302MOL0     H41622   2.581  10.616   4.567 -2.0031  0.9942 -0.0976
  302MOL0     H41623   2.360  10.395   4.562 -0.2086 -0.0473  0.8161
  302MOL0     H41624   2.419  10.475   4.713  1.4889  1.5958 -0.8838
  302MOL0     H41625   2.138  10.452   4.565  0.2642 -0.2585  1.6195
  302MOL0     H41626   1.935  10.723   4.451  0.7947 -1.1675  0.6438
  302MOL0     H41627   1.925  10.762   4.625 -1.5736  0.2194  0.7080
  302MOL0     H41628   1.890  10.518   4.671 -0.2473 -1.7921 -0.0254
  302MOL0     H41629   1.765  10.596   4.584  0.0613  0.1408  2.9118
  302MOL0     H41630   1.957  10.390   4.468 -0.4695 -1.0144  0.3410
  302MOL0     H41631   1.787  10.367   4.485  0.9888 -0.7381 -0.5320
  302MOL0     H41632   1.810  10.399   4.257  2.8381 -1.1591 -0.6903
  302MOL0     H41633   1.750  10.552   4.324  0.2030  0.5818 -0.6754
  302MOL0     H41634   1.991  10.295   4.266 -0.2625 -1.6884 -3.4579
  302MOL0     H41635   2.275  10.118   4.357 -0.4197  0.6945 -0.5629
  302MOL0     H41636   2.259  10.070   4.183  2.3371  0.5258  0.4113
  302MOL0     H41637   2.118  10.090   4.285 -0.5074 -0.6463 -0.3699
  302MOL0     H41638   2.651  10.210   4.001  6.1885  0.3785 -2.6437
  302MOL0     H41639   2.847  10.081   3.963 -1.7566  3.7273 -1.7534
  302MOL0     H41640   3.082  10.071   4.065  1.5122  0.0918 -1.4625
  302MOL0     H41641   3.157   9.929   4.119  0.9482  1.3694 -1.3398
  302MOL0     H41642   2.983   9.920   3.879 -1.4982  0.1333  3.4751
  302MOL0     H41643   3.164   9.953   3.878  0.0823  0.8842  1.2953
  302MOL0     H41644   3.054   9.706   4.005 -1.6460  2.8334  0.5985
  302MOL0     H41645   3.227   9.738   3.970  1.3511  0.3964 -3.8666
  302MOL0     H41646   3.206   9.707   3.738  1.8340 -3.6729 -0.6831
  302MOL0     H41647   3.029   9.721   3.749 -0.4114  0.4890  1.7189
  302MOL0     H41648   3.177   9.487   3.886 -1.2145 -2.3751  0.4333
  302MOL0     H41649   3.004   9.517   3.858 -1.2971  0.8595 -0.2826
  302MOL0     H41650   3.112   9.342   3.701 -1.4882 -0.4450 -2.5369
  302MOL0     H41651   3.211   9.476   3.634 -0.7917  1.3844 -0.9591
  302MOL0     H41652   3.029   9.598   3.560 -0.5720 -0.1735  1.1342
  302MOL0     H41653   2.903   9.491   3.632 -1.1332  0.7122 -2.5227
  302MOL0     H41654   2.944   9.452   3.405 -0.8263  0.8922  1.9999
  302MOL0     H41655   2.997   9.308   3.491 -0.5813 -0.0481 -0.9068
  302MOL0     H41656   2.831   9.924   4.345  2.5707  2.1421 -0.0339
  302MOL0     H41657   2.605  10.037   4.390 -0.4080 -3.1334 -0.1521
  302MOL0     H41658   2.388  10.573   4.194  0.6738 -1.5824 -2.9633
  302MOL0     H41659   2.161  10.665   4.238 -2.5420 -0.7017 -4.3020
  302MOL0     H41660   3.414  10.041   4.302  0.9637 -1.0763  0.3021
  302MOL0     H41661   3.646  10.082   4.348  3.1007  2.2444  2.2986
  302MOL0     H41662   4.056  10.046   4.084 -1.0255 -0.6761  0.5473
  302MOL0     H41663   4.274   9.956   4.180 -0.7763  0.3948 -1.9385
  302MOL0     H41664   4.498   9.971   4.553 -0.4518  1.3699  2.6336
  302MOL0     H41665   4.371  10.089   4.588 -0.3243  1.5246 -0.9393
  302MOL0     H41666   4.200   9.895   4.624 -0.2047  1.7142 -2.2827
  302MOL0     H41667   4.327   9.895   4.747 -0.6545 -1.4973  0.5309
  302MOL0     H41668   4.246   9.691   4.559 -0.3754  1.5825  0.1986
  302MOL0     H41669   4.404   9.720   4.517 -2.2204 -0.8368 -1.8190
  302MOL0     H41670   4.351   9.539   4.714 -3.0328  0.7991  0.2630
  302MOL0     H41671   4.353   9.673   4.819  0.7299  0.2285 -0.3696
  302MOL0     H41672   4.743   9.635   4.827  0.7889  2.3345 -1.2082
  302MOL0     H41673   4.180  10.110   4.569  2.0570  1.3101 -0.6871
  302MOL0     H41674   3.934  10.327   4.478 -1.5322 -1.0053 -0.3552
  302MOL0     H41675   3.844  10.178   4.517  0.3190 -1.3438  0.6440
  302MOL0     H41676   3.973  10.241   4.619 -2.2737  1.2445  0.6755
  303MOL0     O41677   7.470   1.701   9.302  1.4752  0.3858  0.0564
  303MOL0     C41678   7.567   1.682   9.234  0.5776  0.7873  0.4223
  303MOL0     O41679   7.672   1.764   9.238  0.3567  1.0180  0.0374
  303MOL0     C41680   7.647   1.890   9.286  0.1290  0.2173  0.2446
  303MOL0     C41681   7.649   1.914   9.425  0.0849 -0.3619 -0.3296
  303MOL0     C41682   7.630   2.049   9.475  0.1672  0.1161 -0.4080
  303MOL0     C41683   7.602   2.156   9.389  0.6317 -0.1261 -0.6089
  303MOL0     O41684   7.553   2.289   9.430 -0.0451 -0.1528  0.4405
  303MOL0     C41685   7.598   2.324   9.566  0.5015 -0.0357 -0.5642
  303MOL0     C41686   7.493   2.348   9.661 -0.2317 -0.4177 -0.0334
  303MOL0     C41687   7.388   2.431   9.595 -0.0760  0.4968 -0.4983
  303MOL0     C41688   7.237   2.367   9.607  0.1297  0.2818  0.2483
  303MOL0     C41689   7.138   2.445   9.521 -0.3815  0.5466  0.2743
  303MOL0     C41690   7.111   2.579   9.596  0.2318 -0.0283  0.0169
  303MOL0     C41691   7.017   2.670   9.512  0.5591  0.0399  0.4978
  303MOL0     C41692   6.997   2.813   9.566  0.4054  0.7192 -0.6125
  303MOL0     N41693   6.962   2.827   9.707 -0.1268  0.5509 -0.1365
  303MOL0     C41694   6.832   2.845   9.762  0.0269  0.7251  0.9761
  303MOL0     C41695   6.833   2.777   9.881  0.4254  0.2143 -0.1440
  303MOL0     C41696   6.724   2.781   9.985 -0.3179 -0.9423 -0.3346
  303MOL0     C41697   6.668   2.641  10.017  0.5775 -0.1693  0.7303
  303MOL0     C41698   6.567   2.632  10.137 -0.7756 -0.3801  0.0550
  303MOL0     C41699   6.626   2.700  10.261 -0.0299 -0.1074 -0.3045
  303MOL0     O41700   6.545   2.697  10.368  0.1139  0.7595  0.2462
  303MOL0     C41701   6.586   2.758  10.480 -0.5236  0.1856  0.0956
  303MOL0     C41702   6.488   2.772  10.575 -0.5122  0.1149 -0.1045
  303MOL0     C41703   6.507   2.852  10.692 -0.6243  0.5330  0.2398
  303MOL0     C41704   6.394   2.861  10.783 -0.6481  0.2688 -0.9699
  303MOL0     C41705   6.644   2.901  10.710  0.4587 -0.2450 -0.0473
  303MOL0     C41706   6.687   2.966  10.834 -0.9454  0.4256 -0.3994
  303MOL0     O41707   6.824   2.992  10.850 -0.2232  0.6026  0.4953
  303MOL0     C41708   6.873   3.080  10.948  0.8892  0.0683  1.0151
  303MOL0     C41709   6.931   3.201  10.911  0.2219 -0.5384 -1.0747
  303MOL0     C41710   6.964   3.293  11.015  0.3193  0.1369 -1.2092
  303MOL0     C41711   6.931   3.257  11.153 -0.6741 -0.4620  1.4878
  303MOL0     O41712   6.965   3.340  11.266 -0.3960  0.5933  0.0725
  303MOL0     C41713   7.065   3.439  11.254  0.8675 -0.7762 -0.6994
  303MOL0     C41714   7.079   3.507  11.396  0.4907  0.2065  0.1537
  303MOL0     C41715   7.184   3.443  11.483 -0.7717  0.9701  0.3760
  303MOL0     C41716   7.228   3.534  11.596 -0.1053  0.8035  0.4376
  303MOL0     C41717   7.344   3.471  11.673  0.3444  0.0804 -1.1805
  303MOL0     C41718   7.331   3.529  11.826 -0.8247  0.5648 -0.0481
  303MOL0     C41719   7.457   3.491  11.904 -0.8955  0.4758 -0.7760
  303MOL0     C41720   7.480   3.554  12.054 -0.5170  0.3802  0.2454
  303MOL0    Cl41721   7.483   3.729  12.058  0.0585 -0.2164  0.2183
  303MOL0     C41722   6.869   3.142  11.184 -1.0185 -1.0781  0.3752
  303MOL0     C41723   6.840   3.057  11.084  0.1140  0.0293  0.4144
  303MOL0     O41724   6.605   2.973  10.920 -0.0362 -0.3284 -0.3713
  303MOL0     C41725   6.738   2.890  10.607 -0.4347  0.3119  0.4435
  303MOL0     C41726   6.712   2.824  10.490  0.1275 -0.5423 -0.4777
  303MOL0     N41727   6.961   2.727   9.911  0.2390 -1.0599 -0.1368
  303MOL0     N41728   7.031   2.765   9.810  0.0288  0.4756  0.2906
  303MOL0     C41729   7.615   2.128   9.253  0.8715  0.2734 -0.8988
  303MOL0     C41730   7.635   1.999   9.199 -0.5277  0.1896 -0.2279
  303MOL0     C41731   7.573   1.547   9.157  0.0464  0.4496 -0.6345
  303MOL0     C41732   7.459   1.499   9.100 -0.1800  0.0935 -1.1098
  303MOL0     C41733   7.455   1.377   9.036  0.0102  1.1171  0.2051
  303MOL0     C41734   7.564   1.292   9.028  0.1346 -0.0548  0.3986
  303MOL0     O41735   7.537   1.159   8.997 -0.2856 -0.4243  0.2028
  303MOL0     C41736   7.640   1.060   9.008 -0.3901  0.2033  0.3497
  303MOL0     C41737   7.594   0.928   8.944 -0.5021 -0.1049 -0.0010
  303MOL0     C41738   7.689   0.804   8.978  0.8108  0.7539  0.3826
  303MOL0     C41739   7.665   0.702   8.867 -0.0144  0.2914  0.0027
  303MOL0     C41740   7.768   0.591   8.863  0.8309 -0.9033 -0.1520
  303MOL0     C41741   7.849   0.506   8.879 -0.4602 -0.3363 -0.0898
  303MOL0     C41742   7.689   1.350   9.063  0.9645  0.1046 -0.6803
  303MOL0     C41743   7.690   1.471   9.134  0.0109 -0.6517 -0.8428
  303MOL0     C41744   7.829   1.506   9.187  0.9162  0.3712  0.0229
  303MOL0     H41745   7.668   1.843   9.505  2.0232 -1.9104 -2.0715
  303MOL0     H41746   7.611   2.061   9.581  1.9578 -2.0610  0.2577
  303MOL0     H41747   7.646   2.422   9.562 -1.5254  1.0567  0.4321
  303MOL0     H41748   7.668   2.253   9.611 -1.0555 -0.2408  1.6327
  303MOL0     H41749   7.458   2.248   9.686 -0.9980 -0.2907 -0.5623
  303MOL0     H41750   7.531   2.387   9.756 -1.0032  1.0441 -0.2946
  303MOL0     H41751   7.391   2.527   9.647  0.8183 -0.0980  0.5854
  303MOL0     H41752   7.397   2.448   9.487 -0.9914  2.8215 -0.2699
  303MOL0     H41753   7.228   2.269   9.559 -3.5374  0.3760  0.4698
  303MOL0     H41754   7.199   2.369   9.710  3.3829  1.4138  1.5699
  303MOL0     H41755   7.051   2.379   9.526  0.7179 -0.9636  0.3382
  303MOL0     H41756   7.173   2.453   9.418 -1.7959  2.8356 -0.0912
  303MOL0     H41757   7.073   2.553   9.695 -0.0237  1.4194  0.3225
  303MOL0     H41758   7.205   2.633   9.612  0.8629 -0.7586 -1.0941
  303MOL0     H41759   6.917   2.626   9.507 -1.0192  3.4762 -1.2797
  303MOL0     H41760   7.053   2.684   9.410 -2.3009  0.5148 -0.5294
  303MOL0     H41761   7.084   2.876   9.546  0.2912  1.2374  0.4905
  303MOL0     H41762   6.919   2.860   9.504 -0.3663  0.2017 -0.0526
  303MOL0     H41763   6.754   2.890   9.702 -0.5570 -1.0908  0.3123
  303MOL0     H41764   6.636   2.840   9.958  0.7730 -0.1011 -2.3221
  303MOL0     H41765   6.773   2.826  10.072  0.7282  1.1857 -1.9331
  303MOL0     H41766   6.613   2.595   9.934  0.8624 -2.2549  1.6537
  303MOL0     H41767   6.757   2.582  10.041  1.2149 -2.0524 -4.8781
  303MOL0     H41768   6.468   2.671  10.112 -1.0591 -0.6494  0.7329
  303MOL0     H41769   6.534   2.535  10.175  2.3071 -1.0908  1.1881
  303MOL0     H41770   6.721   2.647  10.276 -1.6180 -2.9684  0.1909
  303MOL0     H41771   6.637   2.806  10.235 -1.7363 -0.2556 -1.7877
  303MOL0     H41772   6.392   2.728  10.549 -0.9577  2.7835 -3.9064
  303MOL0     H41773   6.405   2.795  10.870 -0.6450 -0.9776 -1.8914
  303MOL0     H41774   6.307   2.828  10.726 -1.3756 -1.3362  0.9456
  303MOL0     H41775   6.388   2.966  10.814  1.9397 -0.5683  3.2039
  303MOL0     H41776   6.948   3.237  10.810 -2.7637  0.1391 -1.4038
  303MOL0     H41777   7.007   3.387  10.983 -1.8623  2.0868  1.1340
  303MOL0     H41778   7.163   3.419  11.209  1.3176  2.2766 -1.2716
  303MOL0     H41779   7.016   3.503  11.180 -0.5970 -1.7376 -0.6065
  303MOL0     H41780   7.105   3.612  11.384 -0.5302  0.2021 -2.9406
  303MOL0     H41781   6.984   3.516  11.450  1.4096 -0.1685  1.9105
  303MOL0     H41782   7.267   3.418  11.416  0.0152  3.1608  0.4568
  303MOL0     H41783   7.137   3.354  11.525 -0.0634 -0.3203 -1.4412
  303MOL0     H41784   7.145   3.571  11.656 -0.4988 -0.6618  0.8382
  303MOL0     H41785   7.278   3.621  11.552  1.2765  0.3637  1.0723
  303MOL0     H41786   7.337   3.362  11.682  2.4854  0.0802  2.0716
  303MOL0     H41787   7.437   3.494  11.621  1.8696 -1.9038  0.5044
  303MOL0     H41788   7.240   3.491  11.874 -1.9622  0.2202 -2.3091
  303MOL0     H41789   7.332   3.636  11.806  0.6724  0.6769  0.4728
  303MOL0     H41790   7.543   3.528  11.847  0.3222  0.4063  0.9106
  303MOL0     H41791   7.450   3.382  11.906 -0.6962  0.4457 -1.4904
  303MOL0     H41792   7.577   3.520  12.091 -1.4069 -1.8815  0.6664
  303MOL0     H41793   7.400   3.526  12.123 -1.6221  0.0510 -1.1193
  303MOL0     H41794   6.863   3.115  11.290  3.5695 -3.9537  0.1833
  303MOL0     H41795   6.798   2.959  11.106 -0.4377  0.0722 -0.3990
  303MOL0     H41796   6.838   2.932  10.616  0.1201 -0.5395 -1.3437
  303MOL0     H41797   6.783   2.827  10.408 -1.0060  0.1589 -1.4612
  303MOL0     H41798   7.617   2.224   9.201 -0.2102  1.2895  0.8214
  303MOL0     H41799   7.633   1.980   9.092 -2.0060 -0.7832 -0.0607
  303MOL0     H41800   7.358   1.524   9.128 -0.4466 -2.6275  0.7578
  303MOL0     H41801   7.359   1.335   9.009  1.5423 -0.9406 -2.6132
  303MOL0     H41802   7.729   1.091   8.951 -1.0506  0.0043 -0.8064
  303MOL0     H41803   7.678   1.056   9.111 -0.9345 -0.5302  0.5276
  303MOL0     H41804   7.600   0.938   8.835 -1.7041  0.0948 -0.0706
  303MOL0     H41805   7.495   0.906   8.986  0.8983 -1.0775  3.1174
  303MOL0     H41806   7.796   0.827   8.970  0.7418  0.9169 -0.1224
  303MOL0     H41807   7.663   0.759   9.075  1.2615 -0.6345 -0.1289
  303MOL0     H41808   7.654   0.748   8.769 -0.0700  3.3561  1.3430
  303MOL0     H41809   7.564   0.660   8.878 -0.4813  1.4408  0.2434
  303MOL0     H41810   7.922   0.427   8.879 -0.1716 -0.0878 -1.4944
  303MOL0     H41811   7.783   1.298   9.051  1.7664  1.8869 -2.7745
  303MOL0     H41812   7.851   1.462   9.285 -0.0184  0.8584  0.4571
  303MOL0     H41813   7.907   1.453   9.132 -1.2712 -2.2976 -0.7073
  303MOL0     H41814   7.847   1.614   9.193  2.9827  0.0071  2.4785
  304MOL0     O41815   7.991   6.257   0.665  0.0755 -0.2405 -0.4530
  304MOL0     C41816   8.035   6.180   0.585 -0.8587  0.0659 -0.9919
  304MOL0     O41817   7.954   6.092   0.517 -0.1211  0.4668 -0.4577
  304MOL0     C41818   7.841   6.055   0.588  0.3119 -0.1884  0.0130
  304MOL0     C41819   7.724   6.122   0.550  0.2882  0.2381  0.0961
  304MOL0     C41820   7.594   6.090   0.582 -0.5417  1.0666  0.1132
  304MOL0     C41821   7.581   5.983   0.668 -0.2388  0.1250  0.3262
  304MOL0     O41822   7.461   5.945   0.716 -0.2282 -0.7830  0.3372
  304MOL0     C41823   7.376   5.865   0.630  0.1265  0.2691 -0.6161
  304MOL0     C41824   7.286   5.965   0.561  0.2389 -0.4795 -0.5188
  304MOL0     C41825   7.173   5.869   0.513  0.1099 -0.7463 -0.5352
  304MOL0     C41826   7.046   5.945   0.464  0.3029  0.8487 -0.5796
  304MOL0     C41827   6.946   5.842   0.419  0.6645  0.1391  0.8579
  304MOL0     C41828   6.850   5.927   0.329 -0.4024 -0.7413 -0.2566
  304MOL0     C41829   6.736   5.858   0.255  0.1437  1.2259 -0.0297
  304MOL0     C41830   6.627   5.957   0.210 -0.6677  0.0991 -0.4926
  304MOL0     N41831   6.678   6.059   0.120 -0.5511 -0.3729 -0.6312
  304MOL0     C41832   6.679   6.192   0.142 -0.4152  0.1083 -0.6114
  304MOL0     C41833   6.712   6.250   0.032  0.7919  0.3494  0.3821
  304MOL0     C41834   6.709   6.399   0.003  0.1170  0.7390  0.4068
  304MOL0     C41835   6.845   6.445  -0.037  0.6425  0.6731 -1.3035
  304MOL0     C41836   6.846   6.591  -0.072 -0.2186  1.1409 -0.7168
  304MOL0     C41837   6.807   6.684   0.046  0.7096  0.4467  0.0845
  304MOL0     O41838   6.889   6.651   0.163 -0.7554 -0.4714 -0.1189
  304MOL0     C41839   6.982   6.744   0.207  0.3969 -0.0318 -0.0328
  304MOL0     C41840   7.042   6.847   0.134 -0.0041  0.0609  0.4661
  304MOL0     C41841   7.127   6.934   0.199  0.0197 -0.5680 -0.8162
  304MOL0     C41842   7.189   7.040   0.102 -0.0643 -1.0009  0.2100
  304MOL0     C41843   7.153   6.928   0.339  0.5787 -0.3404 -0.3367
  304MOL0     C41844   7.235   7.025   0.428  0.5949  0.0276  0.3584
  304MOL0     O41845   7.199   7.038   0.564  0.8582  0.2154  0.2144
  304MOL0     C41846   7.269   7.131   0.630 -0.2978  0.6431 -0.6154
  304MOL0     C41847   7.380   7.102   0.710  0.4717  0.0940 -0.6734
  304MOL0     C41848   7.436   7.208   0.788 -0.1476  0.3082 -1.1837
  304MOL0     C41849   7.377   7.339   0.778 -1.1051 -0.5021 -0.3400
  304MOL0     O41850   7.425   7.434   0.870  0.0222 -1.0492  0.2950
  304MOL0     C41851   7.408   7.580   0.839 -0.7600  0.3610  0.6709
  304MOL0     C41852   7.466   7.663   0.938 -0.3282 -0.9708 -0.6991
  304MOL0     C41853   7.410   7.808   0.947  0.5476  0.3031 -0.0732
  304MOL0     C41854   7.412   7.879   1.082 -0.6796 -0.3698 -0.3530
  304MOL0     C41855   7.332   7.803   1.197 -0.9625  0.1498  1.1742
  304MOL0     C41856   7.321   7.886   1.324  0.6043 -0.4371  0.7129
  304MOL0     C41857   7.244   8.022   1.315 -0.3221 -0.2024 -0.3238
  304MOL0     C41858   7.187   8.076   1.450  0.1644 -0.6830  0.5755
  304MOL0    Cl41859   7.093   7.957   1.539 -0.3366 -0.1162 -0.3713
  304MOL0     C41860   7.275   7.364   0.694  0.1677  0.6296 -0.2882
  304MOL0     C41861   7.217   7.257   0.623 -0.0775 -0.4050 -0.0975
  304MOL0     O41862   7.330   7.085   0.379 -0.6661 -0.4440 -0.0859
  304MOL0     C41863   7.097   6.823   0.403 -0.0697  0.9673 -0.3534
  304MOL0     C41864   7.018   6.729   0.336 -0.2210 -0.2693  0.4526
  304MOL0     N41865   6.732   6.153  -0.063 -0.0931  0.6649 -1.2067
  304MOL0     N41866   6.708   6.036  -0.013 -0.6162 -0.3741  0.0119
  304MOL0     C41867   7.695   5.909   0.724  0.8967  0.1421 -0.7050
  304MOL0     C41868   7.824   5.952   0.679 -0.0145 -0.0415 -0.5553
  304MOL0     C41869   8.187   6.163   0.562  0.4579 -0.6606 -0.1185
  304MOL0     C41870   8.213   6.061   0.476 -0.2032  0.8631  0.4211
  304MOL0     C41871   8.341   6.035   0.429 -0.3311  0.6158 -0.0491
  304MOL0     C41872   8.443   6.121   0.472  0.1021  0.1145 -1.1162
  304MOL0     O41873   8.562   6.085   0.415 -0.6030 -0.2390  0.1019
  304MOL0     C41874   8.666   6.180   0.431  0.3377  0.5863  0.1682
  304MOL0     C41875   8.682   6.292   0.330 -0.4952  0.0467 -0.5825
  304MOL0     C41876   8.691   6.231   0.194  0.3434  0.5923 -0.3277
  304MOL0     C41877   8.764   6.319   0.099  0.2645 -0.0886  1.0584
  304MOL0     C41878   8.752   6.252  -0.029 -0.3537 -0.7684 -0.9397
  304MOL0     C41879   8.749   6.199  -0.142 -0.0485  0.2525  0.0821
  304MOL0     C41880   8.419   6.227   0.561  0.8887 -0.2496  0.7487
  304MOL0     C41881   8.284   6.256   0.607  0.6964 -0.2833  0.6600
  304MOL0     C41882   8.257   6.387   0.677  0.0603 -0.0245  0.7029
  304MOL0     H41883   7.724   6.216   0.495 -1.3748  0.7057  0.8226
  304MOL0     H41884   7.516   6.157   0.547 -0.3120  1.2927  0.0373
  304MOL0     H41885   7.327   5.801   0.704 -0.1702  0.3431 -0.7460
  304MOL0     H41886   7.437   5.795   0.572 -1.6463 -0.4676 -1.6827
  304MOL0     H41887   7.245   6.038   0.632 -0.3954 -1.5678  0.2564
  304MOL0     H41888   7.343   6.005   0.476  1.1258 -0.6580 -0.0198
  304MOL0     H41889   7.231   5.813   0.440  1.1292 -2.8979  1.7567
  304MOL0     H41890   7.146   5.799   0.594  3.0739 -1.2527  0.1360
  304MOL0     H41891   7.008   6.007   0.546 -0.0636  1.3483 -1.1231
  304MOL0     H41892   7.073   6.014   0.384  0.3518  1.3564 -0.1379
  304MOL0     H41893   6.894   5.788   0.499  2.3701 -0.9411  1.3007
  304MOL0     H41894   6.983   5.759   0.358 -4.5043 -3.3749  1.8686
  304MOL0     H41895   6.817   6.015   0.385  0.2280  0.2704 -1.4046
  304MOL0     H41896   6.914   5.970   0.251  1.4419  1.3043  2.2034
  304MOL0     H41897   6.680   5.790   0.321  0.8615 -0.4794 -1.1149
  304MOL0     H41898   6.768   5.800   0.168  1.2032  2.5089 -0.5267
  304MOL0     H41899   6.544   5.900   0.167  0.7340 -2.5938  0.1509
  304MOL0     H41900   6.590   6.008   0.299 -1.3601 -1.7164  0.3061
  304MOL0     H41901   6.638   6.244   0.228 -0.3243 -0.8661  0.0368
  304MOL0     H41902   6.661   6.455   0.085 -1.4403  0.0966 -0.0380
  304MOL0     H41903   6.633   6.406  -0.075 -0.7213 -0.3721  1.0991
  304MOL0     H41904   6.915   6.420   0.043  0.7526  2.3278 -0.8445
  304MOL0     H41905   6.887   6.405  -0.129  1.7878  0.8947 -0.8901
  304MOL0     H41906   6.947   6.621  -0.103 -0.5152  3.0990  0.1177
  304MOL0     H41907   6.780   6.613  -0.157  0.9304  2.3602 -1.3386
  304MOL0     H41908   6.816   6.788   0.015 -1.1387  0.4517 -0.5570
  304MOL0     H41909   6.702   6.668   0.070  1.1871 -0.1616  1.9566
  304MOL0     H41910   7.033   6.842   0.026  4.1486 -0.7945  0.0099
  304MOL0     H41911   7.125   7.062   0.016  1.3278 -1.0414 -0.8718
  304MOL0     H41912   7.287   7.011   0.062  0.4616  0.2206  0.5640
  304MOL0     H41913   7.194   7.137   0.152 -3.3800 -0.0437 -1.0171
  304MOL0     H41914   7.410   7.004   0.745 -1.5025  0.4474  2.4589
  304MOL0     H41915   7.515   7.185   0.858 -0.4453  1.5662 -0.4048
  304MOL0     H41916   7.446   7.607   0.740  0.0290  0.6907  1.0576
  304MOL0     H41917   7.302   7.605   0.828 -0.3472  1.0273 -3.5050
  304MOL0     H41918   7.444   7.615   1.033 -1.1998  1.5055  0.4215
  304MOL0     H41919   7.575   7.666   0.929 -0.3446  1.4854 -0.8125
  304MOL0     H41920   7.313   7.807   0.896  2.0927  2.0113 -3.3781
  304MOL0     H41921   7.470   7.867   0.877 -0.4320  3.6530  1.6926
  304MOL0     H41922   7.362   7.974   1.061 -1.1832  0.1277  2.6173
  304MOL0     H41923   7.517   7.894   1.105 -0.4246  1.2919 -2.3606
  304MOL0     H41924   7.233   7.789   1.154  0.1842  0.2360 -1.6889
  304MOL0     H41925   7.392   7.714   1.217  1.7710  0.4700 -3.9797
  304MOL0     H41926   7.422   7.905   1.363  0.3430 -0.9431  1.6634
  304MOL0     H41927   7.277   7.820   1.400  1.9934 -0.8555  1.2002
  304MOL0     H41928   7.156   8.016   1.251 -1.4428 -1.0466  1.2481
  304MOL0     H41929   7.310   8.100   1.275  0.7857 -1.3739 -0.8595
  304MOL0     H41930   7.125   8.164   1.432  2.6374  1.4953  2.0657
  304MOL0     H41931   7.259   8.117   1.521 -1.4786  3.0599  0.3014
  304MOL0     H41932   7.246   7.468   0.683 -0.6104  0.3479 -1.0010
  304MOL0     H41933   7.129   7.278   0.563 -0.8232 -1.0847  0.7342
  304MOL0     H41934   7.127   6.813   0.507 -3.4400  2.1423  0.8482
  304MOL0     H41935   6.985   6.637   0.382 -0.7879 -0.3266 -0.0518
  304MOL0     H41936   7.673   5.830   0.795 -0.8755  0.6720 -0.6037
  304MOL0     H41937   7.911   5.898   0.716 -1.4030 -2.5531 -0.7368
  304MOL0     H41938   8.143   5.997   0.423  1.4661 -0.1509 -0.6670
  304MOL0     H41939   8.361   5.950   0.364  0.2308  1.2950 -0.7837
  304MOL0     H41940   8.680   6.220   0.532 -3.3172  3.6897 -0.3202
  304MOL0     H41941   8.757   6.119   0.426  1.1865  1.8437 -0.1704
  304MOL0     H41942   8.775   6.339   0.363 -1.4429 -0.0940  2.6781
  304MOL0     H41943   8.603   6.367   0.335 -0.4875  0.1547 -1.7686
  304MOL0     H41944   8.746   6.136   0.195  0.7916  0.8248 -1.3044
  304MOL0     H41945   8.593   6.205   0.153  0.8095 -0.2502 -0.9528
  304MOL0     H41946   8.872   6.316   0.118  0.2637 -1.1271  0.9470
  304MOL0     H41947   8.726   6.421   0.091  0.9737  0.1414  0.4343
  304MOL0     H41948   8.736   6.147  -0.235 -0.1804 -0.0494  0.2683
  304MOL0     H41949   8.496   6.304   0.570 -1.1395  1.8414  1.3372
  304MOL0     H41950   8.215   6.371   0.776 -0.4069  0.4481  0.5889
  304MOL0     H41951   8.344   6.450   0.697 -1.2377  2.9457 -1.9657
  304MOL0     H41952   8.182   6.442   0.618 -0.6064 -2.5101 -0.8960
  305MOL0     O41953   4.320   8.498   2.754 -0.4771  0.5275 -0.0664
  305MOL0     C41954   4.334   8.443   2.646  0.3570  0.3198  0.5106
  305MOL0     O41955   4.412   8.336   2.619 -0.3566  0.7371  0.2604
  305MOL0     C41956   4.491   8.295   2.729  1.1887  0.2368 -0.1492
  305MOL0     C41957   4.591   8.364   2.798 -0.4632  1.5268 -0.2174
  305MOL0     C41958   4.676   8.306   2.891 -0.3725  0.1333  0.3625
  305MOL0     C41959   4.655   8.168   2.930 -0.3077 -1.2481 -0.6814
  305MOL0     O41960   4.738   8.094   3.010  0.8848 -0.4787 -0.6635
  305MOL0     C41961   4.680   8.043   3.136 -0.2516  0.1660  0.8477
  305MOL0     C41962   4.766   8.081   3.254 -0.2650 -0.6564  0.2183
  305MOL0     C41963   4.728   8.026   3.394  0.1254  0.2382  0.8278
  305MOL0     C41964   4.836   8.045   3.500  0.7909 -0.4427  0.3121
  305MOL0     C41965   4.840   7.952   3.618  0.0705 -0.0030 -0.2937
  305MOL0     C41966   4.924   7.827   3.588  0.4509  0.2798 -0.3923
  305MOL0     C41967   4.900   7.733   3.702 -1.1106  0.3379 -0.4961
  305MOL0     C41968   4.928   7.785   3.841 -0.0680  0.4981  0.0420
  305MOL0     N41969   4.933   7.674   3.939  0.2245  0.4388 -0.2397
  305MOL0     C41970   4.820   7.632   4.010 -0.5406  0.4326  0.1515
  305MOL0     C41971   4.882   7.567   4.114 -0.7638 -0.1009  0.2209
  305MOL0     C41972   4.824   7.504   4.241 -0.0976  0.4934 -0.0229
  305MOL0     C41973   4.806   7.622   4.347  0.6056  0.1863 -0.5385
  305MOL0     C41974   4.749   7.568   4.480 -0.1647  0.7768 -0.6631
  305MOL0     C41975   4.716   7.690   4.569  0.2520  1.6827 -0.5055
  305MOL0     O41976   4.678   7.627   4.694 -0.3545 -0.3762  0.0340
  305MOL0     C41977   4.608   7.708   4.787  0.7224  0.2804  0.3178
  305MOL0     C41978   4.537   7.641   4.886 -0.0743 -1.3715 -0.5610
  305MOL0     C41979   4.454   7.709   4.965  0.2701  0.1935  0.5107
  305MOL0     C41980   4.369   7.625   5.052  0.0835  0.5225 -0.6598
  305MOL0     C41981   4.451   7.847   4.970 -0.0668  0.5486  0.4449
  305MOL0     C41982   4.359   7.914   5.066 -0.2691 -0.2621 -0.9062
  305MOL0     O41983   4.231   7.912   5.042  0.2328 -0.1125 -0.1741
  305MOL0     C41984   4.151   7.930   5.155 -0.4137 -0.3622 -0.3151
  305MOL0     C41985   4.117   8.065   5.178  0.5963  0.0524 -0.2269
  305MOL0     C41986   4.030   8.099   5.285 -0.3803 -0.8767 -0.5113
  305MOL0     C41987   3.989   8.017   5.383 -0.0153  1.2959  0.3301
  305MOL0     O41988   3.916   8.064   5.488 -0.0737 -0.6372 -0.6045
  305MOL0     C41989   3.851   7.977   5.586  0.7806  0.0755  0.5448
  305MOL0     C41990   3.722   8.029   5.643 -0.0044  0.2553 -0.4708
  305MOL0     C41991   3.752   8.165   5.709 -0.5730  0.0760  0.0585
  305MOL0     C41992   3.628   8.201   5.770  0.3721  0.3042 -0.2199
  305MOL0     C41993   3.650   8.327   5.850  0.3190 -0.1539 -1.6934
  305MOL0     C41994   3.524   8.368   5.913 -0.7688 -0.1643 -0.4948
  305MOL0     C41995   3.547   8.474   6.018  0.6435 -0.1020  0.4851
  305MOL0     C41996   3.504   8.605   5.962  0.6890 -0.6441 -0.1727
  305MOL0    Cl41997   3.506   8.728   6.093  0.5309 -0.0432 -0.0908
  305MOL0     C41998   4.023   7.879   5.360  0.0274 -1.2173  0.4288
  305MOL0     C41999   4.106   7.840   5.257  0.1607  0.6198  0.7760
  305MOL0     O42000   4.413   7.968   5.159  0.3439 -0.0236  0.4525
  305MOL0     C42001   4.530   7.924   4.873 -0.0599 -0.3405 -0.9137
  305MOL0     C42002   4.609   7.849   4.784 -0.8779  0.0271 -0.7368
  305MOL0     N42003   5.016   7.568   4.108  0.4760 -0.0340 -0.8745
  305MOL0     N42004   5.052   7.621   3.990 -0.0279  0.0904 -0.2941
  305MOL0     C42005   4.555   8.100   2.870  0.7927  0.2406  0.6248
  305MOL0     C42006   4.470   8.163   2.773  0.4315  0.0936  0.6420
  305MOL0     C42007   4.250   8.507   2.535  0.4662 -0.3437  0.5466
  305MOL0     C42008   4.137   8.585   2.570 -0.0145  0.1671 -0.0110
  305MOL0     C42009   4.055   8.645   2.464 -0.4837 -0.5699  0.6950
  305MOL0     C42010   4.071   8.618   2.331  0.0496 -0.2281  0.0428
  305MOL0     O42011   3.977   8.654   2.244 -0.3753 -0.2817  0.5317
  305MOL0     C42012   4.004   8.642   2.104 -0.2206  0.1592 -0.1351
  305MOL0     C42013   3.898   8.713   2.020  0.0438 -0.1449  0.3153
  305MOL0     C42014   3.920   8.686   1.866  0.4677 -0.5760  0.5725
  305MOL0     C42015   3.889   8.535   1.823  0.1287  1.0731 -0.3408
  305MOL0     C42016   3.864   8.533   1.679 -1.5899 -0.2902  0.3145
  305MOL0     C42017   3.847   8.528   1.558 -1.0989  0.1169  0.4840
  305MOL0     C42018   4.182   8.542   2.301 -0.7161  0.0840 -0.9762
  305MOL0     C42019   4.272   8.493   2.400 -0.7413 -0.4083  1.2346
  305MOL0     C42020   4.401   8.417   2.351  0.5165  0.4725  0.4141
  305MOL0     H42021   4.615   8.465   2.767 -4.0727  3.3882  2.3437
  305MOL0     H42022   4.766   8.348   2.935  1.5501 -0.1604 -2.9565
  305MOL0     H42023   4.672   7.935   3.119  0.3933  0.2423  0.0205
  305MOL0     H42024   4.576   8.068   3.160  0.0424  0.3013  2.0181
  305MOL0     H42025   4.868   8.045   3.242  0.5130  1.6003 -0.4014
  305MOL0     H42026   4.770   8.190   3.252  2.0173 -0.6781 -2.1643
  305MOL0     H42027   4.631   8.058   3.435  1.6392  4.0354  1.8324
  305MOL0     H42028   4.709   7.919   3.381 -0.7766  0.6555 -1.8822
  305MOL0     H42029   4.930   8.038   3.445  0.1544  1.5465 -1.1583
  305MOL0     H42030   4.830   8.150   3.532  1.6021  1.1548 -4.0217
  305MOL0     H42031   4.738   7.926   3.649  1.0478 -0.6780  2.6540
  305MOL0     H42032   4.895   8.007   3.695 -0.2716  0.2781 -0.2426
  305MOL0     H42033   4.890   7.775   3.498  0.2449  1.0166 -0.7454
  305MOL0     H42034   5.028   7.858   3.578  1.2214 -1.5838  1.1558
  305MOL0     H42035   4.962   7.643   3.697 -0.2545  0.5717  2.9565
  305MOL0     H42036   4.799   7.690   3.697 -0.4711 -1.6241  1.3702
  305MOL0     H42037   5.017   7.849   3.835  0.5126 -0.3470 -0.5980
  305MOL0     H42038   4.844   7.849   3.871 -1.2273  0.5753 -3.0121
  305MOL0     H42039   4.717   7.660   3.986 -0.4763  0.3678 -0.2047
  305MOL0     H42040   4.894   7.428   4.275  0.3921  1.1317  0.4062
  305MOL0     H42041   4.728   7.464   4.205 -0.8157  0.6776  1.6239
  305MOL0     H42042   4.905   7.664   4.369  1.3022 -2.5050  2.0978
  305MOL0     H42043   4.744   7.703   4.308 -1.2849 -1.2219 -0.5897
  305MOL0     H42044   4.656   7.517   4.456  0.4882 -0.5637 -0.4539
  305MOL0     H42045   4.800   7.483   4.526 -5.3001 -2.8385 -0.8594
  305MOL0     H42046   4.810   7.742   4.592  0.2267  0.4650  2.8748
  305MOL0     H42047   4.635   7.755   4.535 -1.2541  0.2823  0.2685
  305MOL0     H42048   4.548   7.534   4.893  1.5283 -1.2575 -0.9617
  305MOL0     H42049   4.267   7.658   5.070 -0.4179 -1.7737  1.1554
  305MOL0     H42050   4.428   7.624   5.144  0.6296 -1.8668 -0.9538
  305MOL0     H42051   4.364   7.522   5.015  3.2762  0.4270 -1.1197
  305MOL0     H42052   4.159   8.140   5.111  0.3594  1.1943  0.8725
  305MOL0     H42053   4.016   8.206   5.295  1.9815 -0.5383 -0.4014
  305MOL0     H42054   3.838   7.879   5.539  3.8955 -0.2247  0.1384
  305MOL0     H42055   3.917   7.958   5.671  0.4967  0.6213  0.8925
  305MOL0     H42056   3.652   8.048   5.561 -0.2947  1.3014 -0.0070
  305MOL0     H42057   3.686   7.956   5.716  4.2231 -0.7008  0.9742
  305MOL0     H42058   3.786   8.233   5.630  1.8602  1.0053  1.7754
  305MOL0     H42059   3.830   8.147   5.784  0.4015  1.0160 -0.7125
  305MOL0     H42060   3.587   8.118   5.829 -1.5377  1.0434 -0.4261
  305MOL0     H42061   3.550   8.220   5.696 -0.4941  0.3189  0.6712
  305MOL0     H42062   3.725   8.301   5.925 -1.3852 -0.1669  0.0584
  305MOL0     H42063   3.682   8.400   5.775 -3.5151  0.9073 -2.5176
  305MOL0     H42064   3.469   8.290   5.966 -0.5660  0.3083  0.4310
  305MOL0     H42065   3.459   8.418   5.840  0.3469  0.3607 -1.1479
  305MOL0     H42066   3.654   8.484   6.037  0.8746 -2.4738  0.7594
  305MOL0     H42067   3.501   8.448   6.114 -0.2443 -5.6679 -1.1395
  305MOL0     H42068   3.402   8.606   5.922  1.0380 -2.1961 -1.2000
  305MOL0     H42069   3.581   8.634   5.890  2.4491 -1.0029  1.4666
  305MOL0     H42070   3.995   7.802   5.431 -1.2622  0.3819  1.7302
  305MOL0     H42071   4.125   7.733   5.261  0.5026  0.6630  0.2445
  305MOL0     H42072   4.521   8.032   4.873  0.8756 -0.2492 -0.0271
  305MOL0     H42073   4.678   7.895   4.715  2.3910  0.6523  2.6714
  305MOL0     H42074   4.540   7.995   2.897 -0.1267  0.5218  1.2484
  305MOL0     H42075   4.399   8.096   2.725 -0.7694  1.8900 -0.2138
  305MOL0     H42076   4.102   8.597   2.672 -0.1017  1.2467 -0.1545
  305MOL0     H42077   3.972   8.704   2.500  1.2252  2.3071  0.1955
  305MOL0     H42078   4.102   8.677   2.069 -0.2028 -1.8914 -2.3972
  305MOL0     H42079   4.022   8.535   2.085  0.0799  0.4232 -1.4529
  305MOL0     H42080   3.895   8.821   2.037  0.7207  0.0977 -0.9649
  305MOL0     H42081   3.797   8.675   2.036  0.4567 -3.2591 -3.1737
  305MOL0     H42082   3.844   8.744   1.813  0.8440  0.9169  1.5986
  305MOL0     H42083   4.020   8.726   1.845 -0.8290  1.5115 -2.2840
  305MOL0     H42084   3.805   8.492   1.879  0.1408 -0.5487 -1.5014
  305MOL0     H42085   3.981   8.478   1.839 -2.0031 -2.0937  1.6288
  305MOL0     H42086   3.831   8.544   1.453 -0.3831  0.6829  0.4585
  305MOL0     H42087   4.208   8.523   2.197  0.3345  2.6888 -1.2641
  305MOL0     H42088   4.411   8.429   2.242 -0.3768  1.1632  0.3937
  305MOL0     H42089   4.496   8.453   2.392 -0.9167  5.9533 -0.2881
  305MOL0     H42090   4.379   8.313   2.375  0.3832  0.5317  0.5528
  306MOL0     O42091   7.469   7.892   9.486 -0.7924  0.2790 -0.2201
  306MOL0     C42092   7.578   7.937   9.454 -0.1103  0.8602 -0.1114
  306MOL0     O42093   7.670   7.856   9.387 -0.2055  0.1781 -0.7274
  306MOL0     C42094   7.648   7.718   9.353  0.5579 -0.7121  0.6881
  306MOL0     C42095   7.638   7.617   9.448  0.0387  1.1472 -0.4472
  306MOL0     C42096   7.625   7.484   9.399 -0.5157 -0.7964 -0.3270
  306MOL0     C42097   7.637   7.449   9.264 -0.3330 -0.5315 -0.8219
  306MOL0     O42098   7.621   7.323   9.227  0.1131  0.1074 -0.3637
  306MOL0     C42099   7.512   7.290   9.144  1.4056  0.2177  0.2326
  306MOL0     C42100   7.382   7.288   9.222  0.6340 -0.0541 -0.4078
  306MOL0     C42101   7.299   7.410   9.205 -0.0118 -0.4659  0.1229
  306MOL0     C42102   7.154   7.403   9.254  0.4385  0.8835 -0.8230
  306MOL0     C42103   7.064   7.347   9.142 -0.4110 -0.0112 -0.0575
  306MOL0     C42104   6.917   7.376   9.178  0.0582  0.1297 -0.3857
  306MOL0     C42105   6.827   7.284   9.086 -0.2473  0.2462  0.0170
  306MOL0     C42106   6.823   7.337   8.941  0.3005  0.5589  0.2344
  306MOL0     N42107   6.721   7.270   8.866 -1.5020  0.0618  0.2519
  306MOL0     C42108   6.589   7.287   8.891  0.3058  0.2747  0.0269
  306MOL0     C42109   6.525   7.199   8.808 -0.1459  0.4947 -1.0176
  306MOL0     C42110   6.386   7.165   8.819 -0.5215 -0.6731 -0.1782
  306MOL0     C42111   6.297   7.245   8.717 -0.2371  0.3595  0.3974
  306MOL0     C42112   6.159   7.173   8.719  0.4781 -0.0640  0.2457
  306MOL0     C42113   6.069   7.225   8.605 -1.1106 -0.9703 -0.3021
  306MOL0     O42114   6.138   7.219   8.481 -0.0067 -0.6946 -0.3294
  306MOL0     C42115   6.074   7.300   8.388 -0.9779  0.3026  0.8973
  306MOL0     C42116   5.953   7.366   8.391  0.2183 -0.4522  0.4031
  306MOL0     C42117   5.903   7.443   8.283 -0.0157 -0.6699 -0.4858
  306MOL0     C42118   5.771   7.509   8.284  0.4463  0.0088 -0.1858
  306MOL0     C42119   5.989   7.452   8.166  0.8655 -0.0703 -0.6330
  306MOL0     C42120   5.952   7.543   8.049 -0.4790 -0.9081 -1.0578
  306MOL0     O42121   5.858   7.644   8.058  0.3372  0.0556  0.6225
  306MOL0     C42122   5.867   7.742   7.961  0.5015  0.3135 -0.4625
  306MOL0     C42123   5.787   7.724   7.847  0.1483 -0.3554 -0.2245
  306MOL0     C42124   5.800   7.816   7.744 -0.6613  1.2090  0.4931
  306MOL0     C42125   5.901   7.916   7.739 -0.1038  0.4756  1.7345
  306MOL0     O42126   5.925   7.998   7.630  0.5079  0.0608  0.2008
  306MOL0     C42127   5.814   8.089   7.620  0.6820 -0.0122 -0.0695
  306MOL0     C42128   5.826   8.178   7.491 -0.1829  0.2798  0.0275
  306MOL0     C42129   5.817   8.102   7.355  0.3389 -0.0646 -0.2832
  306MOL0     C42130   5.861   8.200   7.232  0.0199  0.2516  0.4332
  306MOL0     C42131   5.770   8.314   7.197  0.2549  0.0464 -0.0938
  306MOL0     C42132   5.614   8.278   7.187  0.4390 -0.4532 -0.2185
  306MOL0     C42133   5.578   8.194   7.065  0.1252  0.2057  0.4990
  306MOL0     C42134   5.459   8.105   7.085  0.3893  0.0467 -0.2446
  306MOL0    Cl42135   5.317   8.203   7.140 -0.1934 -0.1058 -0.1660
  306MOL0     C42136   5.985   7.923   7.848 -0.3894 -0.0867  0.2346
  306MOL0     C42137   5.972   7.843   7.966  1.1391  1.1395  0.6396
  306MOL0     O42138   6.020   7.514   7.945  0.0247  0.0267  0.3693
  306MOL0     C42139   6.103   7.374   8.160 -0.7711 -0.3627 -0.3391
  306MOL0     C42140   6.146   7.306   8.268 -0.1138  1.1799  0.3255
  306MOL0     N42141   6.619   7.146   8.727  0.3378 -0.4795 -0.4445
  306MOL0     N42142   6.736   7.175   8.772 -0.6520  0.8548 -0.6202
  306MOL0     C42143   7.659   7.560   9.176  0.8092 -0.2717 -0.5547
  306MOL0     C42144   7.656   7.691   9.212 -0.6243 -0.4694  0.2857
  306MOL0     C42145   7.624   8.072   9.489 -1.1021  0.3571  0.3996
  306MOL0     C42146   7.762   8.091   9.493  0.0968  0.1451 -0.2499
  306MOL0     C42147   7.811   8.213   9.525 -0.5812 -0.0769 -0.1655
  306MOL0     C42148   7.734   8.325   9.556  1.0740  0.7117 -0.6985
  306MOL0     O42149   7.789   8.438   9.611  1.1355 -0.4247  0.1565
  306MOL0     C42150   7.869   8.419   9.731  0.4115  0.0418 -0.9069
  306MOL0     C42151   7.783   8.401   9.854  0.6563 -0.1767  0.6442
  306MOL0     C42152   7.695   8.525   9.866  0.0268  0.0448 -0.1314
  306MOL0     C42153   7.637   8.549  10.010 -0.2567 -0.3549  0.9056
  306MOL0     C42154   7.537   8.655  10.002  0.2568  0.7833 -0.8466
  306MOL0     C42155   7.466   8.753   9.978 -0.4125  0.8189 -0.6702
  306MOL0     C42156   7.598   8.306   9.555 -0.9714  0.0089  0.4139
  306MOL0     C42157   7.543   8.185   9.523 -0.1954 -0.2732  0.0202
  306MOL0     C42158   7.389   8.176   9.525  0.5495 -0.0785 -0.4808
  306MOL0     H42159   7.643   7.633   9.555 -0.5039 -1.5179  0.0562
  306MOL0     H42160   7.603   7.405   9.470 -0.0527 -2.1318 -1.6495
  306MOL0     H42161   7.527   7.188   9.109  3.3166  1.3082 -2.5102
  306MOL0     H42162   7.503   7.348   9.052 -0.1885  0.9183  0.8003
  306MOL0     H42163   7.319   7.210   9.178 -1.3821  0.6288  1.1343
  306MOL0     H42164   7.395   7.262   9.327  1.1975  0.7252 -0.2808
  306MOL0     H42165   7.357   7.486   9.258 -2.1706 -0.5077  2.7496
  306MOL0     H42166   7.308   7.445   9.101 -0.2528 -2.0383 -0.4626
  306MOL0     H42167   7.146   7.343   9.345 -0.1077 -1.6121 -2.4144
  306MOL0     H42168   7.125   7.505   9.281  0.4775  0.4267  1.1104
  306MOL0     H42169   7.080   7.239   9.144  0.3644  0.0949 -0.0741
  306MOL0     H42170   7.098   7.389   9.048  2.5404 -1.2596  0.3404
  306MOL0     H42171   6.907   7.337   9.280  0.6827 -0.9792 -0.7380
  306MOL0     H42172   6.890   7.478   9.151 -1.8045 -1.1382 -3.9356
  306MOL0     H42173   6.728   7.289   9.131 -1.9510 -3.3055 -2.7838
  306MOL0     H42174   6.865   7.182   9.074 -0.4794  0.2424 -0.7827
  306MOL0     H42175   6.798   7.444   8.937  2.2739  1.1778  2.0683
  306MOL0     H42176   6.918   7.320   8.890 -1.2636  0.8020 -3.0231
  306MOL0     H42177   6.554   7.350   8.973 -1.0684 -1.9965  1.3082
  306MOL0     H42178   6.353   7.182   8.922  0.0174  2.6174 -0.4524
  306MOL0     H42179   6.382   7.056   8.809  0.0927 -0.6704 -0.4517
  306MOL0     H42180   6.296   7.350   8.746  0.5894  0.6375 -0.5323
  306MOL0     H42181   6.347   7.255   8.620 -0.6761  1.4157  0.2607
  306MOL0     H42182   6.170   7.064   8.713 -0.4857 -0.1953  0.6077
  306MOL0     H42183   6.110   7.198   8.814  1.5851  1.6388  0.4109
  306MOL0     H42184   5.979   7.164   8.603 -1.9513  0.1637  0.8894
  306MOL0     H42185   6.041   7.329   8.622 -1.5425 -0.6312 -2.7053
  306MOL0     H42186   5.897   7.370   8.484  2.4685  2.2388  1.7981
  306MOL0     H42187   5.790   7.616   8.300 -1.5981  0.5008 -0.8361
  306MOL0     H42188   5.703   7.469   8.359  0.6513  1.5845  0.8997
  306MOL0     H42189   5.717   7.489   8.192 -0.8145 -1.1299  0.7542
  306MOL0     H42190   5.709   7.648   7.849  1.3239 -1.5956  1.3455
  306MOL0     H42191   5.735   7.799   7.659 -0.1049 -2.7134  0.6614
  306MOL0     H42192   5.724   8.030   7.601  2.4048 -2.7317 -0.3566
  306MOL0     H42193   5.811   8.144   7.714 -0.3233 -2.6793  1.5866
  306MOL0     H42194   5.748   8.255   7.494 -0.2695  0.2273 -0.8790
  306MOL0     H42195   5.913   8.239   7.518  1.0626 -1.6631  0.6653
  306MOL0     H42196   5.713   8.069   7.344  0.4266 -0.2620 -0.5418
  306MOL0     H42197   5.882   8.015   7.357  1.3309  0.6750  1.5110
  306MOL0     H42198   5.877   8.129   7.150 -0.6236 -1.8984  2.0717
  306MOL0     H42199   5.960   8.244   7.245  0.1481 -0.2850  1.3806
  306MOL0     H42200   5.780   8.392   7.274  1.3304  1.9207 -2.0167
  306MOL0     H42201   5.802   8.362   7.104  1.3326  3.0371  1.6500
  306MOL0     H42202   5.549   8.365   7.180 -1.4916 -1.6288  1.9148
  306MOL0     H42203   5.587   8.241   7.286 -0.1992  3.8049  1.3765
  306MOL0     H42204   5.669   8.137   7.051 -0.9314 -1.0841 -1.7134
  306MOL0     H42205   5.568   8.250   6.972  3.0351  2.0883  1.1858
  306MOL0     H42206   5.493   8.038   7.165 -3.0565  2.5894  3.7827
  306MOL0     H42207   5.432   8.052   6.993 -0.1901  0.1657 -0.1440
  306MOL0     H42208   6.061   8.001   7.846  0.0514 -0.5027  0.7105
  306MOL0     H42209   6.049   7.841   8.043  1.5639 -0.9313  0.2234
  306MOL0     H42210   6.157   7.355   8.068  1.8589 -1.5635  1.3127
  306MOL0     H42211   6.231   7.239   8.259 -2.2747 -1.4152 -3.4052
  306MOL0     H42212   7.659   7.536   9.070 -1.1138  0.2551 -0.7115
  306MOL0     H42213   7.656   7.774   9.142 -1.6354  1.3892  2.3325
  306MOL0     H42214   7.831   8.015   9.459  1.6710  0.1579  2.6007
  306MOL0     H42215   7.919   8.226   9.516 -0.6039 -0.4227 -1.0840
  306MOL0     H42216   7.932   8.329   9.730  0.1030 -0.2827  1.5976
  306MOL0     H42217   7.922   8.514   9.743  0.4998 -0.0985 -0.1574
  306MOL0     H42218   7.843   8.403   9.946 -0.4216  1.8130  1.3768
  306MOL0     H42219   7.722   8.312   9.835 -0.7942  1.1881 -1.5127
  306MOL0     H42220   7.760   8.611   9.852 -0.4128  0.7603  1.8697
  306MOL0     H42221   7.618   8.533   9.789  2.4104  1.6811 -2.5045
  306MOL0     H42222   7.720   8.586  10.070  0.4142  0.2196 -0.3416
  306MOL0     H42223   7.582   8.459  10.041 -2.6700  0.8677  0.4240
  306MOL0     H42224   7.417   8.848   9.968 -0.3342  0.8269 -0.9556
  306MOL0     H42225   7.537   8.392   9.580 -1.7004  0.1780 -1.7476
  306MOL0     H42226   7.356   8.155   9.423  0.4079  4.8393 -1.7237
  306MOL0     H42227   7.354   8.097   9.592  0.7981 -0.9792 -1.3914
  306MOL0     H42228   7.350   8.272   9.560 -0.1127 -0.2619 -0.7065
  307MOL0     O42229   0.264  11.133   2.324  0.1399 -1.2739  0.3111
  307MOL0     C42230   0.178  11.161   2.237 -0.1715  0.0439 -0.2348
  307MOL0     O42231   0.190  11.232   2.121 -1.1303 -0.1914 -0.3315
  307MOL0     C42232   0.316  11.288   2.113  0.2018 -0.7333 -0.9270
  307MOL0     C42233   0.428  11.216   2.071  0.5932 -0.2326 -0.7513
  307MOL0     C42234   0.551  11.273   2.073 -0.3702 -0.4600  0.0950
  307MOL0     C42235   0.567  11.404   2.117 -0.3670  0.9002  0.1629
  307MOL0     O42236   0.696  11.436   2.137 -0.5893  0.8622  0.4763
  307MOL0     C42237   0.727  11.560   2.204 -0.1054 -0.5165 -0.6302
  307MOL0     C42238   0.874  11.560   2.244 -0.7357 -1.1768 -0.2288
  307MOL0     C42239   0.976  11.560   2.120 -0.7109 -0.0241  0.2408
  307MOL0     C42240   0.953  11.672   2.025 -0.5443  0.0022  0.2891
  307MOL0     C42241   0.967  11.814   2.085  0.3271 -0.3056  0.5544
  307MOL0     C42242   0.969  11.916   1.970 -0.5538  0.4305 -0.1886
  307MOL0     C42243   0.999  12.057   2.020  0.0670  0.4780 -0.0042
  307MOL0     C42244   0.980  12.166   1.923 -0.8026  0.1721  0.4635
  307MOL0     N42245   0.974  12.290   2.002  0.6528 -0.9125  0.7886
  307MOL0     C42246   1.051  12.397   1.975  0.0220 -1.0543  0.0354
  307MOL0     C42247   1.004  12.505   2.044 -0.3119  1.1200 -0.4812
  307MOL0     C42248   1.044  12.653   2.020  0.1525 -0.2077 -0.5601
  307MOL0     C42249   1.124  12.717   2.133 -0.4051  0.1991  0.6234
  307MOL0     C42250   1.239  12.633   2.177  0.7262  0.3224  0.6441
  307MOL0     C42251   1.226  12.564   2.309 -0.3712  0.3689  1.2302
  307MOL0     O42252   1.202  12.658   2.413 -0.2439 -0.1360 -0.8267
  307MOL0     C42253   1.108  12.632   2.505  0.9924 -0.5038  0.8382
  307MOL0     C42254   1.131  12.686   2.635  0.2713 -0.2346  1.2279
  307MOL0     C42255   1.042  12.657   2.745 -0.6228  0.2739  0.5275
  307MOL0     C42256   1.084  12.715   2.878 -0.5703 -0.0370  0.5431
  307MOL0     C42257   0.929  12.574   2.722 -0.1411  0.4204  0.1123
  307MOL0     C42258   0.823  12.536   2.825  0.2171 -0.2043  0.1048
  307MOL0     O42259   0.713  12.468   2.772  0.3048 -0.5303 -0.1412
  307MOL0     C42260   0.645  12.405   2.875  0.3945  0.0590 -0.0832
  307MOL0     C42261   0.654  12.267   2.899  0.0038  0.1514 -0.9041
  307MOL0     C42262   0.577  12.202   2.996 -0.1084  0.1751  0.1595
  307MOL0     C42263   0.509  12.283   3.085  1.2934  0.4119 -1.8490
  307MOL0     O42264   0.427  12.227   3.177  0.5086 -0.4944  0.0565
  307MOL0     C42265   0.462  12.251   3.314  1.2575 -0.5875 -0.6997
  307MOL0     C42266   0.469  12.132   3.410  0.8602  0.1180  1.1285
  307MOL0     C42267   0.329  12.063   3.437 -0.6752 -0.2523  0.1711
  307MOL0     C42268   0.351  11.925   3.499  0.0414  0.1696  1.0234
  307MOL0     C42269   0.214  11.871   3.524  0.8335  0.4651 -0.6650
  307MOL0     C42270   0.145  11.812   3.398  0.2636  0.9175 -0.7757
  307MOL0     C42271   0.045  11.694   3.427  0.5671 -0.8135  1.5236
  307MOL0     C42272  -0.066  11.725   3.531  0.1090  0.8311 -0.0447
  307MOL0    Cl42273  -0.169  11.860   3.467 -0.7866 -0.2351  0.3506
  307MOL0     C42274   0.508  12.427   3.076  0.2531  0.4955 -0.9052
  307MOL0     C42275   0.567  12.483   2.968 -0.4668 -0.5575 -0.6239
  307MOL0     O42276   0.849  12.558   2.943 -0.1837 -0.4214  0.3733
  307MOL0     C42277   0.909  12.535   2.582 -0.4085  0.0509 -0.1219
  307MOL0     C42278   0.998  12.553   2.476 -0.4111 -0.4364  0.8445
  307MOL0     N42279   0.899  12.458   2.118 -1.0579  0.3455  0.4635
  307MOL0     N42280   0.888  12.332   2.106  0.2429  0.4331  0.2899
  307MOL0     C42281   0.455  11.482   2.160  0.6868  0.3569  1.2647
  307MOL0     C42282   0.336  11.416   2.161 -0.0934  0.5001 -0.7756
  307MOL0     C42283   0.040  11.133   2.265  0.1490 -0.5725  0.7211
  307MOL0     C42284  -0.057  11.223   2.214  0.3420 -0.0796  0.8438
  307MOL0     C42285  -0.191  11.211   2.250  0.1751  0.1429  0.5194
  307MOL0     C42286  -0.247  11.110   2.325 -0.1787  0.7784  1.3633
  307MOL0     O42287  -0.382  11.102   2.351 -0.5329  0.0052  0.6657
  307MOL0     C42288  -0.420  11.103   2.488 -0.5102  0.8000  0.2959
  307MOL0     C42289  -0.575  11.119   2.496  0.3241 -0.1433  0.3172
  307MOL0     C42290  -0.670  10.997   2.438 -0.4406  0.5040 -0.6636
  307MOL0     C42291  -0.815  11.009   2.475 -0.1665  0.0901  0.4161
  307MOL0     C42292  -0.888  11.058   2.356 -0.2084  0.3781  0.4912
  307MOL0     C42293  -0.938  11.092   2.257  1.0629 -0.3642  0.2346
  307MOL0     C42294  -0.150  11.027   2.378  0.0917  0.3210  0.2499
  307MOL0     C42295  -0.014  11.022   2.341 -0.3842  0.0369  0.3586
  307MOL0     C42296   0.089  10.921   2.401  0.5350  0.1413  0.2786
  307MOL0     H42297   0.418  11.112   2.042  4.4711 -0.9268 -0.1499
  307MOL0     H42298   0.635  11.213   2.041 -1.1608 -0.3515 -2.3665
  307MOL0     H42299   0.662  11.575   2.291  1.5122 -0.9509  0.7207
  307MOL0     H42300   0.695  11.645   2.144  0.6645  2.0588  2.3554
  307MOL0     H42301   0.898  11.656   2.292  0.7765 -2.8138  2.5644
  307MOL0     H42302   0.896  11.482   2.317 -1.6969  1.0153  2.6201
  307MOL0     H42303   1.077  11.578   2.158 -1.2730 -3.9440  4.4694
  307MOL0     H42304   0.981  11.460   2.076  0.7412 -0.2084  0.7818
  307MOL0     H42305   1.017  11.649   1.940 -1.2210  2.1072 -0.8460
  307MOL0     H42306   0.853  11.648   1.988  0.6446 -2.0638 -1.8111
  307MOL0     H42307   1.066  11.815   2.131  0.9371  1.0812 -0.7223
  307MOL0     H42308   0.881  11.845   2.145 -1.6023 -2.2223 -1.0585
  307MOL0     H42309   1.051  11.881   1.907 -0.9198 -1.2330  0.2020
  307MOL0     H42310   0.877  11.909   1.910  0.3112  0.1665 -1.5211
  307MOL0     H42311   1.103  12.062   2.054  0.4498  1.7446 -1.2506
  307MOL0     H42312   0.929  12.078   2.101 -1.3537 -1.4023 -0.6780
  307MOL0     H42313   1.049  12.163   1.839  0.5242  4.4666  1.1474
  307MOL0     H42314   0.881  12.139   1.884 -0.7314  0.5326  0.0282
  307MOL0     H42315   1.131  12.407   1.902 -0.5508  2.0734 -0.3159
  307MOL0     H42316   0.953  12.708   1.995 -0.4825 -0.1214  1.7567
  307MOL0     H42317   1.110  12.657   1.932 -0.5758  2.4916 -1.0515
  307MOL0     H42318   1.161  12.808   2.085 -0.0270 -0.1090  0.3317
  307MOL0     H42319   1.045  12.731   2.208 -3.9170 -0.7288 -2.5925
  307MOL0     H42320   1.265  12.566   2.095 -0.3026 -2.2850  2.3009
  307MOL0     H42321   1.329  12.695   2.185  1.5874 -0.7485 -0.3940
  307MOL0     H42322   1.150  12.486   2.297 -1.1136  1.4117 -1.7050
  307MOL0     H42323   1.315  12.506   2.336 -1.8925 -1.9587  1.5519
  307MOL0     H42324   1.221  12.745   2.650 -0.4703  1.1290  0.5189
  307MOL0     H42325   1.024  12.806   2.892 -1.2985 -0.5454  0.7895
  307MOL0     H42326   1.190  12.740   2.866 -0.3203 -1.6979 -1.1272
  307MOL0     H42327   1.077  12.656   2.970 -1.0615 -2.2856 -0.8593
  307MOL0     H42328   0.730  12.208   2.848 -0.4301  0.5193 -2.0136
  307MOL0     H42329   0.584  12.095   3.016  0.2269 -0.0315 -0.9878
  307MOL0     H42330   0.550  12.316   3.313  0.0831  1.0906  0.2127
  307MOL0     H42331   0.383  12.313   3.357  2.5607  0.3496  0.4664
  307MOL0     H42332   0.536  12.054   3.371  1.0589 -0.3181  2.3109
  307MOL0     H42333   0.515  12.165   3.504 -0.9421  3.0701  1.0872
  307MOL0     H42334   0.282  12.059   3.338 -0.6978 -1.6459  0.2174
  307MOL0     H42335   0.271  12.126   3.505  0.5509  3.8688 -2.2421
  307MOL0     H42336   0.402  11.932   3.596 -0.9323  1.7842  1.4534
  307MOL0     H42337   0.418  11.860   3.441 -0.0525 -0.0272  1.1368
  307MOL0     H42338   0.239  11.792   3.596  0.1004 -0.1924 -1.1176
  307MOL0     H42339   0.145  11.945   3.564 -0.3953 -1.3654  0.7750
  307MOL0     H42340   0.217  11.784   3.320  0.4023 -2.5596  0.4014
  307MOL0     H42341   0.090  11.899   3.362 -0.5375  0.4859 -0.6217
  307MOL0     H42342   0.107  11.605   3.441  2.4149 -0.0533 -1.1157
  307MOL0     H42343  -0.010  11.678   3.334  1.4011 -1.1168  1.0754
  307MOL0     H42344  -0.016  11.757   3.623  0.0923 -0.6323  0.5037
  307MOL0     H42345  -0.130  11.636   3.540  2.4110 -1.0202 -0.9056
  307MOL0     H42346   0.461  12.481   3.158 -2.6814  1.2714 -2.9159
  307MOL0     H42347   0.567  12.591   2.958  2.4084 -0.2362  1.4584
  307MOL0     H42348   0.806  12.503   2.574  0.2601 -2.7860  1.2470
  307MOL0     H42349   0.976  12.522   2.374  3.6985 -0.9849 -0.0568
  307MOL0     H42350   0.466  11.585   2.191 -3.9367  1.5572 -0.3787
  307MOL0     H42351   0.249  11.468   2.198 -0.7274 -2.0201  1.6414
  307MOL0     H42352  -0.030  11.319   2.172  1.1407  0.5766  2.7654
  307MOL0     H42353  -0.260  11.292   2.230 -0.0576  0.2812  1.7645
  307MOL0     H42354  -0.384  11.015   2.542  1.8647 -0.9067 -3.6523
  307MOL0     H42355  -0.370  11.187   2.537  1.5147 -2.5275  4.6795
  307MOL0     H42356  -0.608  11.200   2.430  0.2645  0.9791  1.6751
  307MOL0     H42357  -0.598  11.148   2.599  1.2074  1.1551  0.1650
  307MOL0     H42358  -0.651  10.990   2.330  0.4527  3.2774 -0.7917
  307MOL0     H42359  -0.631  10.905   2.481  0.5523 -0.6523 -3.7916
  307MOL0     H42360  -0.815  11.077   2.561 -0.8065 -0.5599  0.9318
  307MOL0     H42361  -0.851  10.911   2.505 -1.2447  0.3499  0.0118
  307MOL0     H42362  -0.996  11.110   2.169  1.5895 -1.7655 -0.4394
  307MOL0     H42363  -0.182  10.954   2.452 -1.7525 -1.9235 -2.5743
  307MOL0     H42364   0.035  10.835   2.442  0.4001 -0.8313 -1.7997
  307MOL0     H42365   0.163  10.887   2.328  0.7603 -0.0580  0.5983
  307MOL0     H42366   0.142  10.973   2.481 -0.2503  0.2315  0.7527
  308MOL0     O42367  11.045   0.655   1.622 -0.0078  0.6828  0.0378
  308MOL0     C42368  10.998   0.700   1.723  0.1733  0.2160 -0.9531
  308MOL0     O42369  10.961   0.830   1.737 -0.2236 -0.1044  0.2127
  308MOL0     C42370  10.985   0.920   1.637  0.0522 -0.1343 -0.8103
  308MOL0     C42371  11.117   0.930   1.595 -0.7207  0.5146  0.4796
  308MOL0     C42372  11.145   1.028   1.502 -0.5430 -0.8480 -0.9527
  308MOL0     C42373  11.047   1.112   1.447 -0.3595  0.1302 -0.5056
  308MOL0     O42374  11.064   1.192   1.342  0.7830  0.0469 -1.0458
  308MOL0     C42375  11.191   1.259   1.310 -0.2527  0.0557  0.8136
  308MOL0     C42376  11.244   1.337   1.426  0.3651 -0.3711 -0.1976
  308MOL0     C42377  11.359   1.440   1.390 -0.7301  0.8444 -0.9804
  308MOL0     C42378  11.508   1.391   1.382  0.2515  0.7473 -0.3289
  308MOL0     C42379  11.607   1.509   1.370  0.0149  0.9874  0.0109
  308MOL0     C42380  11.754   1.448   1.358 -0.3128 -0.2404  0.7537
  308MOL0     C42381  11.782   1.407   1.214 -0.3789  0.0191  0.4449
  308MOL0     C42382  11.906   1.485   1.159 -0.6700 -0.6679  1.3683
  308MOL0     N42383  11.877   1.624   1.124 -0.6889 -0.9169 -0.0495
  308MOL0     C42384  11.907   1.724   1.208 -0.4353 -0.1165 -0.3456
  308MOL0     C42385  11.857   1.833   1.143  0.3622  0.1467  0.1726
  308MOL0     C42386  11.848   1.974   1.199  0.8714  0.5603 -0.3249
  308MOL0     C42387  11.923   2.077   1.115 -0.1456  0.8108  0.6050
  308MOL0     C42388  12.074   2.048   1.113  0.0775 -0.5864 -0.3915
  308MOL0     C42389  12.163   2.157   1.072 -0.1987  0.4990 -0.2821
  308MOL0     O42390  12.225   2.216   1.183 -0.1836 -0.8537 -0.6885
  308MOL0     C42391  12.342   2.279   1.163  0.7576  0.1923 -0.3875
  308MOL0     C42392  12.369   2.336   1.038 -0.4657  0.2120 -0.6137
  308MOL0     C42393  12.486   2.410   1.024  1.2955 -0.4801  0.3446
  308MOL0     C42394  12.509   2.466   0.883 -0.0890  1.3523  0.6004
  308MOL0     C42395  12.569   2.438   1.136 -1.0650 -0.0526  0.2653
  308MOL0     C42396  12.701   2.505   1.129  0.7228 -0.4056 -0.6066
  308MOL0     O42397  12.761   2.530   1.254 -0.6908 -0.0339 -0.8618
  308MOL0     C42398  12.859   2.626   1.268 -0.3908 -0.2478 -0.1555
  308MOL0     C42399  12.932   2.613   1.387  0.9291  0.1242 -0.0408
  308MOL0     C42400  13.041   2.698   1.412 -0.3482  1.1104 -0.1961
  308MOL0     C42401  13.087   2.792   1.322 -0.2321  0.4771  0.4615
  308MOL0     O42402  13.209   2.850   1.340 -0.4267  0.4096  0.4567
  308MOL0     C42403  13.213   2.950   1.442  0.0907  0.2514 -1.1653
  308MOL0     C42404  13.216   3.085   1.381 -1.4183 -0.3373 -0.2189
  308MOL0     C42405  13.215   3.184   1.492  0.0384 -0.7030  0.1526
  308MOL0     C42406  13.253   3.323   1.436  0.5240 -0.2081  0.4254
  308MOL0     C42407  13.271   3.447   1.528  0.1200  0.3430 -0.6924
  308MOL0     C42408  13.161   3.455   1.636 -0.2884 -0.0286  0.3355
  308MOL0     C42409  13.172   3.581   1.725  0.3782  0.6331  0.2362
  308MOL0     C42410  13.035   3.620   1.785 -0.6552  0.6093 -0.0591
  308MOL0    Cl42411  13.049   3.724   1.921 -0.0768  0.4432  0.4981
  308MOL0     C42412  13.024   2.804   1.201  0.3632 -0.5144 -0.1332
  308MOL0     C42413  12.912   2.721   1.176  0.1920 -0.0093  0.2977
  308MOL0     O42414  12.751   2.527   1.020 -1.4958  1.1808 -0.5918
  308MOL0     C42415  12.540   2.371   1.259 -0.0802 -0.7398 -0.2033
  308MOL0     C42416  12.430   2.290   1.274 -0.8954 -0.3193 -0.0538
  308MOL0     N42417  11.809   1.800   1.019  0.3608  0.5134 -0.7176
  308MOL0     N42418  11.801   1.671   1.025 -0.3186  0.2843  0.5213
  308MOL0     C42419  10.920   1.105   1.504 -0.1048  0.9447 -0.0306
  308MOL0     C42420  10.886   1.016   1.599 -0.0261 -0.3195 -0.2240
  308MOL0     C42421  10.966   0.600   1.825 -0.4958 -0.4103  0.0942
  308MOL0     C42422  10.878   0.642   1.928  0.0679 -0.1691 -0.0140
  308MOL0     C42423  10.850   0.558   2.039 -0.3244 -0.9276  0.8898
  308MOL0     C42424  10.912   0.435   2.052  1.2892  0.9013 -0.3851
  308MOL0     O42425  10.899   0.356   2.167  0.2518 -0.5792  0.7157
  308MOL0     C42426  10.804   0.401   2.272 -1.2062  0.2798 -0.2385
  308MOL0     C42427  10.797   0.308   2.390  0.1417  0.2805 -0.2956
  308MOL0     C42428  10.947   0.286   2.453  0.3748 -0.0329  0.2764
  308MOL0     C42429  10.935   0.212   2.593  0.6332 -0.1564 -0.6665
  308MOL0     C42430  10.889   0.080   2.579 -0.2959  0.4113  0.3014
  308MOL0     C42431  10.843  -0.028   2.559  0.2030 -0.0085  0.0334
  308MOL0     C42432  10.988   0.391   1.946  0.4811 -0.1946  0.0213
  308MOL0     C42433  11.030   0.471   1.843 -0.7543 -1.2653 -0.7063
  308MOL0     C42434  11.137   0.420   1.752  0.8811 -0.0983 -0.8383
  308MOL0     H42435  11.198   0.865   1.626 -0.8290 -0.8803 -1.9302
  308MOL0     H42436  11.252   1.038   1.490 -0.7359  0.2952 -1.8859
  308MOL0     H42437  11.191   1.315   1.217  1.7952 -0.0565  0.7002
  308MOL0     H42438  11.265   1.179   1.295 -1.1868 -0.3780 -2.1709
  308MOL0     H42439  11.161   1.395   1.466 -2.7454 -3.6012 -1.3839
  308MOL0     H42440  11.281   1.263   1.497  1.9188 -3.4965 -3.8591
  308MOL0     H42441  11.330   1.478   1.292 -3.3176  0.4698 -0.4265
  308MOL0     H42442  11.348   1.519   1.465  0.2179  3.3484 -3.3122
  308MOL0     H42443  11.531   1.328   1.468  2.4987  1.0149 -0.6770
  308MOL0     H42444  11.510   1.322   1.297  1.5416  0.7322 -0.2980
  308MOL0     H42445  11.622   1.566   1.462 -1.0934 -1.3301  1.7481
  308MOL0     H42446  11.577   1.576   1.289 -4.1055  1.2035  1.4794
  308MOL0     H42447  11.835   1.507   1.400 -1.4552 -1.0785  4.4493
  308MOL0     H42448  11.745   1.358   1.419 -3.7631  0.4348  1.4660
  308MOL0     H42449  11.692   1.424   1.154 -0.9576  1.1592  1.5775
  308MOL0     H42450  11.805   1.300   1.206  0.9126  0.1698  1.6271
  308MOL0     H42451  11.987   1.482   1.231  0.3336  0.9052  0.3681
  308MOL0     H42452  11.938   1.424   1.074  2.7071  0.8927  1.3618
  308MOL0     H42453  11.948   1.723   1.308 -0.5270 -1.3680 -0.3073
  308MOL0     H42454  11.889   1.969   1.300  0.9734 -2.4086 -0.4402
  308MOL0     H42455  11.742   2.003   1.192  0.9417  0.6181 -1.2614
  308MOL0     H42456  11.891   2.080   1.010 -0.6643  1.1189  0.7691
  308MOL0     H42457  11.884   2.174   1.146 -1.5739  1.4135 -2.6060
  308MOL0     H42458  12.095   2.024   1.218 -1.2157  2.7863  0.7838
  308MOL0     H42459  12.104   1.956   1.062  2.1505  0.2849 -0.8264
  308MOL0     H42460  12.230   2.128   0.990  2.5966  2.6708  1.0626
  308MOL0     H42461  12.099   2.234   1.028 -0.4405  0.1956 -0.4649
  308MOL0     H42462  12.297   2.317   0.959  1.5239 -1.2738 -2.1788
  308MOL0     H42463  12.504   2.575   0.885  2.5253  1.5290  1.0626
  308MOL0     H42464  12.427   2.424   0.823 -1.9815  3.2062  1.7257
  308MOL0     H42465  12.602   2.429   0.839 -0.5912  0.3273  0.3705
  308MOL0     H42466  12.910   2.529   1.452  3.9520 -1.7237 -1.1783
  308MOL0     H42467  13.092   2.678   1.505  2.8450  0.5016 -1.9229
  308MOL0     H42468  13.127   2.944   1.509  0.9810  3.7419  0.5103
  308MOL0     H42469  13.302   2.931   1.503  1.8419 -2.1891 -4.1686
  308MOL0     H42470  13.298   3.091   1.309 -1.9789  2.0475 -0.7191
  308MOL0     H42471  13.134   3.095   1.310  1.0090  0.1856 -3.1340
  308MOL0     H42472  13.291   3.154   1.566  1.5646 -0.1126 -1.1264
  308MOL0     H42473  13.120   3.194   1.545 -0.3191 -0.1061 -0.5963
  308MOL0     H42474  13.173   3.357   1.369 -0.7443 -2.4309  0.6874
  308MOL0     H42475  13.349   3.309   1.387  0.6850 -3.6055  1.4732
  308MOL0     H42476  13.370   3.432   1.572  0.1656  2.7943  0.2062
  308MOL0     H42477  13.252   3.541   1.475 -1.6405  0.5748  0.2593
  308MOL0     H42478  13.170   3.370   1.703  1.9210 -3.2583 -3.6336
  308MOL0     H42479  13.069   3.442   1.578  0.3621 -3.6918 -0.1115
  308MOL0     H42480  13.215   3.665   1.669  1.4948 -0.8999 -1.3386
  308MOL0     H42481  13.237   3.555   1.809  2.2843 -0.3882 -1.4559
  308MOL0     H42482  12.985   3.531   1.825  1.0041  0.4805  1.9246
  308MOL0     H42483  12.967   3.660   1.709 -1.9405 -1.3587 -0.0204
  308MOL0     H42484  13.058   2.873   1.125 -0.3991 -1.9009 -1.7784
  308MOL0     H42485  12.860   2.737   1.082 -0.0151 -0.6978  0.2883
  308MOL0     H42486  12.606   2.392   1.342 -0.6813 -2.6899  0.8366
  308MOL0     H42487  12.392   2.254   1.369 -0.6863  2.2111  1.0716
  308MOL0     H42488  10.833   1.151   1.458 -1.6840  0.2158  2.0870
  308MOL0     H42489  10.783   1.003   1.628 -0.0445 -1.4912 -0.7415
  308MOL0     H42490  10.831   0.740   1.927 -1.4600 -0.8501  1.3818
  308MOL0     H42491  10.797   0.606   2.120  1.0391  0.1198  1.1939
  308MOL0     H42492  10.839   0.501   2.299 -1.3621  0.6157 -1.2165
  308MOL0     H42493  10.704   0.409   2.228 -1.0832  1.0425 -0.3966
  308MOL0     H42494  10.758   0.211   2.359 -1.2931 -0.8958  4.3213
  308MOL0     H42495  10.730   0.349   2.466  1.8157 -1.1681  2.1186
  308MOL0     H42496  11.009   0.240   2.376 -0.4181  0.1318 -0.4720
  308MOL0     H42497  10.994   0.384   2.467 -1.8074  0.8906  1.6972
  308MOL0     H42498  10.874   0.270   2.663  0.2840  2.0518 -2.6843
  308MOL0     H42499  11.042   0.207   2.617  1.1385  1.2364 -2.4075
  308MOL0     H42500  10.815  -0.130   2.543  0.2684  0.0733 -0.5975
  308MOL0     H42501  11.010   0.285   1.955 -0.9433 -0.5900 -0.8203
  308MOL0     H42502  11.181   0.326   1.787 -4.6030 -2.0461  1.8684
  308MOL0     H42503  11.090   0.398   1.656 -0.8304  2.3059 -0.6387
  308MOL0     H42504  11.215   0.496   1.738  0.4555  0.7841  1.2398
  309MOL0     O42505  10.372   9.591   6.954 -0.4165 -0.5558  0.3850
  309MOL0     C42506  10.332   9.624   6.841 -0.8577 -0.3554 -1.1383
  309MOL0     O42507  10.406   9.698   6.759  0.3595 -1.2443 -0.8879
  309MOL0     C42508  10.526   9.764   6.790 -0.4700 -0.3230 -0.3446
  309MOL0     C42509  10.639   9.731   6.718  0.2717 -0.0546 -0.1103
  309MOL0     C42510  10.760   9.797   6.747  0.8323  0.1410 -0.4365
  309MOL0     C42511  10.762   9.895   6.847  0.5677  0.5110 -0.5226
  309MOL0     O42512  10.871   9.964   6.868 -0.0700 -0.1106  0.2976
  309MOL0     C42513  10.846  10.106   6.886  0.2133 -0.1714  1.4651
  309MOL0     C42514  10.888  10.149   7.021 -0.2030 -0.4597 -0.2770
  309MOL0     C42515  11.039  10.130   7.036  0.0740 -0.2100  0.0104
  309MOL0     C42516  11.078  10.211   7.169  0.1553  0.0550 -0.3550
  309MOL0     C42517  11.216  10.176   7.216  0.2150  0.3288  0.2336
  309MOL0     C42518  11.235  10.192   7.375  0.4678 -1.8958  1.0310
  309MOL0     C42519  11.387  10.178   7.408  0.2565  0.2397  0.3153
  309MOL0     C42520  11.424  10.164   7.564  0.7683  0.6428  0.5432
  309MOL0     N42521  11.328  10.252   7.635  0.1303 -0.0960 -0.4031
  309MOL0     C42522  11.323  10.391   7.629 -0.3441  0.4915 -0.7790
  309MOL0     C42523  11.213  10.428   7.704 -0.6069  0.0740 -1.1590
  309MOL0     C42524  11.169  10.563   7.760  0.8665  0.0628  0.0167
  309MOL0     C42525  11.284  10.666   7.748 -0.2146 -0.3530  0.4157
  309MOL0     C42526  11.234  10.794   7.820  0.7607  0.1966  0.7560
  309MOL0     C42527  11.359  10.893   7.843  0.4445 -0.9234  0.6368
  309MOL0     O42528  11.422  10.928   7.720  0.0287  0.4580  0.4417
  309MOL0     C42529  11.450  11.063   7.701 -0.0417  1.0031 -0.3864
  309MOL0     C42530  11.575  11.109   7.712 -0.6092 -0.6931  0.1861
  309MOL0     C42531  11.600  11.249   7.684 -0.3581  0.6180 -0.0006
  309MOL0     C42532  11.740  11.289   7.664  0.5248 -0.3476 -0.5526
  309MOL0     C42533  11.492  11.345   7.663 -0.4659  0.2443  0.1209
  309MOL0     C42534  11.504  11.490   7.664 -0.1954  0.2878 -0.2575
  309MOL0     O42535  11.619  11.544   7.700 -0.5494 -0.7582 -0.7123
  309MOL0     C42536  11.618  11.679   7.705 -0.4596  0.5117 -0.7223
  309MOL0     C42537  11.654  11.731   7.831 -0.6372  0.1020  0.1389
  309MOL0     C42538  11.691  11.865   7.834  0.8744  0.9130  0.7726
  309MOL0     C42539  11.679  11.952   7.724 -0.4065 -0.3994 -0.9576
  309MOL0     O42540  11.732  12.080   7.720  0.5811 -0.1042  0.8941
  309MOL0     C42541  11.664  12.196   7.780 -0.0524  0.5457 -0.7076
  309MOL0     C42542  11.718  12.329   7.727  0.8464  0.0348  0.1112
  309MOL0     C42543  11.863  12.349   7.752 -0.9755 -0.1435  0.5389
  309MOL0     C42544  11.900  12.490   7.708 -0.0920  0.0553 -0.7817
  309MOL0     C42545  12.045  12.507   7.685  0.1467  0.3349  0.1624
  309MOL0     C42546  12.136  12.517   7.816  0.4319  0.6999 -0.1746
  309MOL0     C42547  12.280  12.455   7.811  0.2977  0.2869 -0.2751
  309MOL0     C42548  12.403  12.553   7.790 -0.1488 -0.8266 -0.0999
  309MOL0    Cl42549  12.539  12.468   7.716  0.2993 -0.3154  0.0670
  309MOL0     C42550  11.632  11.903   7.611  0.3696  0.0667  0.0297
  309MOL0     C42551  11.616  11.767   7.595  0.3609  0.0170  0.3423
  309MOL0     O42552  11.399  11.549   7.631 -0.1018 -0.0546 -0.0688
  309MOL0     C42553  11.369  11.284   7.637 -1.1653 -0.5968  1.1627
  309MOL0     C42554  11.355  11.145   7.668 -0.1496 -0.3988  1.4199
  309MOL0     N42555  11.164  10.316   7.765 -0.1487  0.0113  0.3769
  309MOL0     N42556  11.235  10.214   7.730  0.6385  0.6686  0.8007
  309MOL0     C42557  10.645   9.923   6.918 -0.2040  0.6228  0.4821
  309MOL0     C42558  10.529   9.859   6.891 -0.3230  0.6205 -0.4403
  309MOL0     C42559  10.224   9.543   6.788 -0.0251  0.8239  0.6822
  309MOL0     C42560  10.249   9.402   6.798  0.0167  0.2254 -1.1066
  309MOL0     C42561  10.158   9.312   6.739  0.0641 -0.5228 -0.1111
  309MOL0     C42562  10.042   9.358   6.681  0.2621 -0.5656 -0.3644
  309MOL0     O42563   9.946   9.272   6.635  0.4125 -0.3546  0.6864
  309MOL0     C42564   9.869   9.219   6.749  0.2864  0.0088  0.5147
  309MOL0     C42565   9.735   9.149   6.693 -0.1301  0.0917  0.1221
  309MOL0     C42566   9.651   9.099   6.817 -0.6770 -0.3138 -0.1570
  309MOL0     C42567   9.538   8.997   6.797 -0.5062 -0.1770  0.4098
  309MOL0     C42568   9.483   8.954   6.925  0.7495  0.4211 -0.0929
  309MOL0     C42569   9.447   8.896   7.023  0.1387  0.0535 -0.0929
  309MOL0     C42570  10.017   9.498   6.673  0.4475  0.4583  0.2837
  309MOL0     C42571  10.104   9.590   6.717 -0.4450 -1.9868 -0.6097
  309MOL0     C42572  10.079   9.740   6.697  0.3125  0.0477  0.6230
  309MOL0     H42573  10.623   9.650   6.647 -0.8780 -1.1339  1.3167
  309MOL0     H42574  10.841   9.772   6.678 -1.3738  0.4920 -3.3246
  309MOL0     H42575  10.748  10.145   6.859 -0.0404 -2.3730 -1.1049
  309MOL0     H42576  10.915  10.145   6.811 -0.2443 -0.5636  0.8400
  309MOL0     H42577  10.880  10.257   7.037  3.1887 -0.1622  0.3044
  309MOL0     H42578  10.834  10.096   7.100  0.4454 -1.6255 -0.6032
  309MOL0     H42579  11.051  10.021   7.040  0.9373 -0.3523 -3.4144
  309MOL0     H42580  11.090  10.176   6.951  0.5476  1.6813  1.2553
  309MOL0     H42581  11.063  10.311   7.128  2.9228 -0.7123 -3.8543
  309MOL0     H42582  11.012  10.189   7.253  0.8709 -2.4337 -0.3548
  309MOL0     H42583  11.294  10.212   7.149  1.4150  0.0851  1.4591
  309MOL0     H42584  11.232  10.070   7.197  2.4392  0.0174  3.1384
  309MOL0     H42585  11.201  10.290   7.408  0.8697 -2.2999  2.7303
  309MOL0     H42586  11.181  10.106   7.414 -2.4928 -1.7685 -2.3338
  309MOL0     H42587  11.436  10.273   7.384 -3.8322  2.7651  1.0375
  309MOL0     H42588  11.426  10.088   7.360  1.1338  0.5473  0.4234
  309MOL0     H42589  11.402  10.061   7.592 -1.2103  0.4240 -1.4664
  309MOL0     H42590  11.528  10.194   7.580  1.5218 -2.4771  2.3234
  309MOL0     H42591  11.383  10.455   7.565  0.6967  2.8123  2.2126
  309MOL0     H42592  11.139  10.561   7.865  2.2224 -1.1406  0.4173
  309MOL0     H42593  11.076  10.600   7.717  0.1775 -1.0179  0.5231
  309MOL0     H42594  11.380  10.646   7.796  1.4193  4.5268 -0.1984
  309MOL0     H42595  11.323  10.687   7.648  2.5578 -2.0487  1.0211
  309MOL0     H42596  11.161  10.833   7.749  1.8879  1.3589  0.1867
  309MOL0     H42597  11.182  10.777   7.915 -2.6735 -0.9467 -1.1473
  309MOL0     H42598  11.318  10.980   7.894 -0.2386 -1.0963  0.3863
  309MOL0     H42599  11.435  10.859   7.914 -0.6050  2.3811  3.6543
  309MOL0     H42600  11.654  11.037   7.732 -0.3213 -0.2855  0.5426
  309MOL0     H42601  11.774  11.343   7.753  2.7734  0.5777 -1.9062
  309MOL0     H42602  11.753  11.343   7.570  0.3185  2.2228  0.8182
  309MOL0     H42603  11.808  11.204   7.652 -0.0294 -0.9279  0.2613
  309MOL0     H42604  11.675  11.670   7.918  1.5286 -0.1126 -0.4722
  309MOL0     H42605  11.729  11.903   7.928  3.5036 -0.2407  0.2822
  309MOL0     H42606  11.556  12.189   7.769 -0.4371 -2.1767  2.8389
  309MOL0     H42607  11.670  12.195   7.890  2.1588 -1.0703 -0.7670
  309MOL0     H42608  11.700  12.324   7.619 -3.8240 -0.9098  0.7366
  309MOL0     H42609  11.661  12.418   7.754  0.1083  0.0447 -1.4012
  309MOL0     H42610  11.934  12.284   7.700  2.8248  2.5392  1.9157
  309MOL0     H42611  11.884  12.334   7.859  3.5820  0.9733  0.0178
  309MOL0     H42612  11.871  12.560   7.787 -0.8234 -0.2469 -0.7719
  309MOL0     H42613  11.853  12.513   7.612 -0.9310 -3.0519 -1.2394
  309MOL0     H42614  12.080  12.430   7.616  0.1135 -0.3611  0.9031
  309MOL0     H42615  12.069  12.603   7.637  0.1606 -0.7891 -2.2293
  309MOL0     H42616  12.085  12.470   7.901  0.3078 -2.2910 -1.7755
  309MOL0     H42617  12.135  12.622   7.844 -6.0347  0.9420  0.1990
  309MOL0     H42618  12.288  12.376   7.736  3.4974 -1.0160  1.2885
  309MOL0     H42619  12.273  12.419   7.913 -1.1940  3.1069  0.7314
  309MOL0     H42620  12.438  12.612   7.875  3.2593 -0.8125 -1.3358
  309MOL0     H42621  12.378  12.632   7.719  4.0979  0.7800 -0.1170
  309MOL0     H42622  11.632  11.968   7.524 -1.5012 -1.7186 -1.4384
  309MOL0     H42623  11.587  11.720   7.502 -0.8038  0.4626  0.4550
  309MOL0     H42624  11.279  11.339   7.614 -3.3552 -3.2079  2.8660
  309MOL0     H42625  11.255  11.104   7.662  0.2988 -1.5538  1.5190
  309MOL0     H42626  10.624  10.000   6.993  0.0236  0.9347  0.2243
  309MOL0     H42627  10.434   9.873   6.942  1.1771 -0.9144  3.1135
  309MOL0     H42628  10.339   9.377   6.854 -0.3937  2.1809  0.5834
  309MOL0     H42629  10.173   9.205   6.749  0.7823 -0.4332 -0.1212
  309MOL0     H42630   9.929   9.161   6.820  3.2816  2.0611 -0.1602
  309MOL0     H42631   9.842   9.302   6.815 -1.0938 -0.3972  0.4921
  309MOL0     H42632   9.760   9.065   6.628  0.2322  1.2702 -1.3039
  309MOL0     H42633   9.669   9.226   6.653  1.2756  0.5835 -1.3349
  309MOL0     H42634   9.715   9.057   6.896  0.0643 -0.4371 -0.8080
  309MOL0     H42635   9.613   9.197   6.849 -1.0541 -0.4838 -0.0818
  309MOL0     H42636   9.566   8.918   6.727 -3.2021 -0.8599 -0.0235
  309MOL0     H42637   9.466   9.053   6.736  1.4934  2.9705  0.6880
  309MOL0     H42638   9.419   8.855   7.118 -0.3721  0.8316  0.1060
  309MOL0     H42639   9.930   9.539   6.622 -0.1247  0.3685  1.1585
  309MOL0     H42640   9.999   9.773   6.764  1.3162 -0.5980  2.1712
  309MOL0     H42641  10.167   9.797   6.726 -0.3401 -0.8087  4.9827
  309MOL0     H42642  10.049   9.764   6.594  0.9290 -0.7508  0.2446
  310MOL0     O42643   2.456  10.298   6.122  0.2887 -0.3737 -0.3206
  310MOL0     C42644   2.393  10.221   6.204 -0.8661 -0.1418 -0.2862
  310MOL0     O42645   2.373  10.245   6.341  0.8542 -0.6580  0.1224
  310MOL0     C42646   2.392  10.372   6.391 -0.2109  0.1522  0.0274
  310MOL0     C42647   2.399  10.373   6.520  0.5982  0.3042 -0.1606
  310MOL0     C42648   2.428  10.484   6.596  0.2469  0.0921 -0.9677
  310MOL0     C42649   2.458  10.606   6.537  1.0179  0.1593  0.1538
  310MOL0     O42650   2.504  10.711   6.608  0.6317  0.6195 -0.0892
  310MOL0     C42651   2.645  10.714   6.628  0.9122 -0.3948 -0.1362
  310MOL0     C42652   2.675  10.843   6.697 -1.0824 -0.2532 -1.0951
  310MOL0     C42653   2.610  10.969   6.630  0.1406  0.6530  0.5410
  310MOL0     C42654   2.671  11.093   6.710  0.4330  0.7253 -0.1745
  310MOL0     C42655   2.642  11.234   6.657 -0.0546  0.4712  0.3793
  310MOL0     C42656   2.514  11.238   6.576  0.1480 -0.1910  1.2020
  310MOL0     C42657   2.453  11.380   6.571 -0.4260  0.1900 -0.3753
  310MOL0     C42658   2.328  11.405   6.489 -0.4880 -0.1964 -0.3644
  310MOL0     N42659   2.208  11.340   6.540 -0.6367  0.4854 -0.1535
  310MOL0     C42660   2.088  11.326   6.474  0.4556  0.3057 -0.4495
  310MOL0     C42661   1.996  11.277   6.561  1.0389  0.4309 -0.3478
  310MOL0     C42662   1.855  11.237   6.531  0.3914  0.2952  0.2086
  310MOL0     C42663   1.848  11.092   6.477  0.7141 -0.1845 -0.0962
  310MOL0     C42664   1.716  11.060   6.424  0.0110  0.8738  0.7811
  310MOL0     C42665   1.694  10.913   6.421  0.2286  0.1646 -0.3309
  310MOL0     O42666   1.787  10.848   6.336 -0.4428 -0.2537 -0.4148
  310MOL0     C42667   1.755  10.732   6.272  1.0340 -1.4144  0.2609
  310MOL0     C42668   1.655  10.643   6.313 -0.1745  0.8230 -0.6389
  310MOL0     C42669   1.625  10.519   6.244 -0.5933  0.6424  0.2712
  310MOL0     C42670   1.514  10.433   6.307  0.0474  0.0735  0.1426
  310MOL0     C42671   1.688  10.491   6.127  0.5193  1.3343 -0.2081
  310MOL0     C42672   1.652  10.379   6.027  0.3351 -0.5136 -1.0437
  310MOL0     O42673   1.725  10.385   5.910 -0.0725 -0.4817 -0.0623
  310MOL0     C42674   1.699  10.298   5.808  0.0143  0.3678 -0.1409
  310MOL0     C42675   1.595  10.209   5.788  0.1959 -0.1113  0.0611
  310MOL0     C42676   1.578  10.145   5.663  0.0981 -0.1604 -0.6469
  310MOL0     C42677   1.682  10.156   5.564 -0.7458  0.3871 -1.0960
  310MOL0     O42678   1.671  10.072   5.446  0.1010 -0.2177 -0.8226
  310MOL0     C42679   1.742  10.105   5.334  0.3281 -0.3296  0.1533
  310MOL0     C42680   1.717  10.010   5.222  0.0421 -0.1964 -0.1926
  310MOL0     C42681   1.775   9.868   5.244  0.2244  0.3158 -1.2679
  310MOL0     C42682   1.931   9.869   5.249  0.1987 -0.1081 -0.5127
  310MOL0     C42683   1.999   9.736   5.260 -0.2475 -0.1115  0.2184
  310MOL0     C42684   2.094   9.711   5.149 -0.7100 -0.3016  0.7941
  310MOL0     C42685   2.015   9.648   5.024 -0.2676  1.0450 -0.1921
  310MOL0     C42686   2.114   9.635   4.913  0.0155  0.2706 -0.0290
  310MOL0    Cl42687   2.219   9.507   4.951  0.0929 -0.0515  0.1372
  310MOL0     C42688   1.790  10.242   5.590  1.3142  0.4849  0.1131
  310MOL0     C42689   1.795  10.312   5.709 -0.0398 -0.3121 -0.7208
  310MOL0     O42690   1.566  10.300   6.054  0.0396  0.4439  0.3795
  310MOL0     C42691   1.788  10.580   6.076 -0.4957  0.2134 -0.0220
  310MOL0     C42692   1.820  10.691   6.156 -0.2919 -0.6886 -0.1813
  310MOL0     N42693   2.062  11.256   6.681 -0.6038 -1.2192  0.2469
  310MOL0     N42694   2.186  11.283   6.668 -0.1018  0.3157  0.3109
  310MOL0     C42695   2.440  10.609   6.403  0.1519  0.0179  0.0804
  310MOL0     C42696   2.403  10.497   6.327 -0.4815 -0.1108 -0.0664
  310MOL0     C42697   2.350  10.096   6.149 -0.7018 -0.5109  0.0325
  310MOL0     C42698   2.376  10.069   6.011  0.1889  0.4675  0.3825
  310MOL0     C42699   2.326   9.949   5.952 -0.4613 -0.9181 -0.1694
  310MOL0     C42700   2.251   9.859   6.017 -0.5995  0.4778 -0.1860
  310MOL0     O42701   2.219   9.730   5.966  0.5571  0.2767  0.1590
  310MOL0     C42702   2.075   9.703   5.971  0.0914  0.4550 -0.6658
  310MOL0     C42703   2.039   9.571   5.906 -0.0805  0.2252 -0.2021
  310MOL0     C42704   2.084   9.564   5.768 -0.2844 -0.0784  0.0495
  310MOL0     C42705   1.987   9.606   5.649  0.0261 -0.2981  0.6800
  310MOL0     C42706   1.977   9.756   5.650 -0.4626 -0.3165 -0.1223
  310MOL0     C42707   1.976   9.878   5.661 -0.4118  0.6296 -0.0383
  310MOL0     C42708   2.222   9.888   6.149  0.7327 -0.4617  0.5346
  310MOL0     C42709   2.270  10.007   6.213  0.0690  0.4090  0.1039
  310MOL0     C42710   2.230  10.023   6.361 -0.5278  0.5276 -1.2262
  310MOL0     H42711   2.385  10.279   6.571  4.8972 -0.3472  0.2075
  310MOL0     H42712   2.451  10.482   6.702  0.0698  1.1059 -0.9004
  310MOL0     H42713   2.693  10.707   6.530 -1.5080 -2.4961 -1.2822
  310MOL0     H42714   2.678  10.624   6.681 -2.8623 -1.4046  0.8136
  310MOL0     H42715   2.647  10.833   6.802  1.4286 -1.2911 -0.4577
  310MOL0     H42716   2.784  10.848   6.691 -0.8126  0.0860  2.3882
  310MOL0     H42717   2.630  10.979   6.523 -2.1005 -1.3947 -0.1646
  310MOL0     H42718   2.501  10.960   6.625  0.2231  0.1013 -1.2238
  310MOL0     H42719   2.619  11.087   6.806 -0.1580 -0.1917 -0.5393
  310MOL0     H42720   2.778  11.078   6.730  0.6045  1.2671 -0.6562
  310MOL0     H42721   2.727  11.261   6.595  0.0356 -1.2055 -0.2884
  310MOL0     H42722   2.638  11.306   6.739  2.0050  0.2170  0.7403
  310MOL0     H42723   2.526  11.199   6.475 -2.8483  0.4731  0.4972
  310MOL0     H42724   2.435  11.177   6.621  0.0872 -0.9697  0.0829
  310MOL0     H42725   2.536  11.443   6.536  0.5240  0.6243  2.3989
  310MOL0     H42726   2.434  11.416   6.672 -1.2265 -0.3783 -0.3171
  310MOL0     H42727   2.313  11.513   6.485  1.1324  0.0591 -0.1035
  310MOL0     H42728   2.342  11.367   6.387  0.5930  2.4580 -1.2937
  310MOL0     H42729   2.069  11.352   6.370 -1.9900 -1.9159 -0.6639
  310MOL0     H42730   1.805  11.313   6.471  2.9185  1.7123 -0.2377
  310MOL0     H42731   1.812  11.227   6.631 -0.2545 -0.7231 -0.1491
  310MOL0     H42732   1.928  11.067   6.407  0.9879  0.9376 -0.2073
  310MOL0     H42733   1.871  11.038   6.570 -1.0627 -0.5481  0.1637
  310MOL0     H42734   1.635  11.109   6.479  0.6629 -0.5189  3.1534
  310MOL0     H42735   1.718  11.088   6.319  1.1797 -2.6147 -0.2579
  310MOL0     H42736   1.692  10.884   6.526  0.5353  2.5869  0.4118
  310MOL0     H42737   1.595  10.886   6.382  0.0204 -0.1297  0.3987
  310MOL0     H42738   1.590  10.653   6.399  0.5788  1.0488 -0.0914
  310MOL0     H42739   1.424  10.428   6.245 -1.5365 -0.9471  2.4057
  310MOL0     H42740   1.497  10.467   6.410  4.2000  1.7474  0.4860
  310MOL0     H42741   1.565  10.337   6.317  0.4291  0.4241  2.0990
  310MOL0     H42742   1.518  10.182   5.859 -1.2370 -3.9447 -2.6063
  310MOL0     H42743   1.489  10.082   5.665 -0.0338 -0.0717  2.6206
  310MOL0     H42744   1.710  10.205   5.302  4.4864  0.8924 -0.8192
  310MOL0     H42745   1.851  10.109   5.345  0.5557 -1.5066 -1.3347
  310MOL0     H42746   1.611   9.987   5.214  0.9601 -4.9916 -2.0702
  310MOL0     H42747   1.764  10.045   5.129  4.4231 -0.6237  1.6050
  310MOL0     H42748   1.743   9.804   5.161  1.5351 -1.2194 -0.6587
  310MOL0     H42749   1.741   9.823   5.338  0.4551 -0.1740 -1.4131
  310MOL0     H42750   1.948   9.924   5.342 -4.2401  0.0126  0.4285
  310MOL0     H42751   1.958   9.932   5.164 -0.7871  0.9162 -0.0944
  310MOL0     H42752   2.069   9.748   5.343  2.7132  0.6115 -2.2240
  310MOL0     H42753   1.927   9.656   5.282  1.0423 -1.2105  0.5832
  310MOL0     H42754   2.168   9.640   5.186  1.3665  0.4824 -1.5670
  310MOL0     H42755   2.153   9.799   5.121 -0.0918  0.1064  3.1226
  310MOL0     H42756   1.936   9.718   4.994 -1.3558 -0.4493 -0.9553
  310MOL0     H42757   1.990   9.546   5.054  0.2608  0.8352 -0.4481
  310MOL0     H42758   2.158   9.730   4.879 -0.0678 -0.6789 -3.1144
  310MOL0     H42759   2.043   9.614   4.833 -1.7050  0.9979  1.2504
  310MOL0     H42760   1.878  10.238   5.526  0.0019 -1.3743 -1.6865
  310MOL0     H42761   1.873  10.382   5.735 -1.1056  2.0030 -3.1835
  310MOL0     H42762   1.842  10.560   5.984  1.3406 -2.4313  1.4826
  310MOL0     H42763   1.894  10.757   6.112 -0.4736 -0.7415 -0.5667
  310MOL0     H42764   2.472  10.697   6.348 -3.5879  0.1813 -2.1336
  310MOL0     H42765   2.384  10.515   6.222 -0.4491 -1.3914 -0.3080
  310MOL0     H42766   2.440  10.131   5.950  2.3221 -3.0410 -1.2907
  310MOL0     H42767   2.354   9.931   5.849 -1.7874  0.4342 -0.8098
  310MOL0     H42768   2.048   9.707   6.077  0.5345  1.0235 -0.5699
  310MOL0     H42769   2.013   9.779   5.923  1.4491  0.2753 -2.8439
  310MOL0     H42770   1.930   9.568   5.899 -0.2305  0.7503  1.3862
  310MOL0     H42771   2.067   9.478   5.957 -1.2493 -0.3670 -0.5962
  310MOL0     H42772   2.169   9.632   5.757  0.2064 -0.4756  1.2649
  310MOL0     H42773   2.123   9.463   5.750  1.5623  0.1329  2.3887
  310MOL0     H42774   1.886   9.564   5.646 -0.4255  0.7960 -0.2691
  310MOL0     H42775   2.036   9.564   5.560  1.8341 -2.9560  2.7660
  310MOL0     H42776   1.984   9.984   5.650  0.3931  0.6870  0.9915
  310MOL0     H42777   2.164   9.818   6.209 -2.2704  0.3030 -1.2502
  310MOL0     H42778   2.149  10.090   6.391  0.8780  1.1515  1.5964
  310MOL0     H42779   2.199   9.927   6.402  2.7388  0.3773  1.3514
  310MOL0     H42780   2.322  10.047   6.416 -1.6375 -2.8365  2.5200
  311MOL0     O42781  11.423   6.452   2.678  0.7748 -0.1783  0.2715
  311MOL0     C42782  11.412   6.362   2.765  0.5301  0.3212  0.2141
  311MOL0     O42783  11.440   6.229   2.737  0.1568  0.0738  0.2310
  311MOL0     C42784  11.552   6.187   2.657  0.9157 -0.3942  0.0108
  311MOL0     C42785  11.648   6.276   2.587 -0.3022  0.7522 -0.7313
  311MOL0     C42786  11.775   6.231   2.542  0.9054 -0.3579  0.1097
  311MOL0     C42787  11.802   6.088   2.545 -0.8916  0.0020  0.7524
  311MOL0     O42788  11.929   6.048   2.489  0.2962  0.2876  0.4691
  311MOL0     C42789  11.941   5.908   2.447  0.0025 -0.5090 -0.1336
  311MOL0     C42790  12.070   5.880   2.356  0.0956 -0.0166 -0.4515
  311MOL0     C42791  12.123   5.746   2.369 -0.8362  0.1436  0.6129
  311MOL0     C42792  12.258   5.728   2.296 -1.1414  0.3003 -0.2792
  311MOL0     C42793  12.327   5.590   2.311  0.6911  1.1780 -0.7494
  311MOL0     C42794  12.262   5.460   2.284  0.3047 -0.0787  0.5403
  311MOL0     C42795  12.350   5.336   2.259 -0.1844  0.6445  0.0386
  311MOL0     C42796  12.271   5.222   2.198  0.1223 -0.4055 -0.1880
  311MOL0     N42797  12.359   5.098   2.191 -0.2709 -0.1433  0.9671
  311MOL0     C42798  12.498   5.084   2.199  0.0231 -0.8759  0.8594
  311MOL0     C42799  12.521   4.946   2.185 -0.3227  0.8201 -0.6799
  311MOL0     C42800  12.658   4.867   2.208 -0.0912 -0.9395  0.5732
  311MOL0     C42801  12.720   4.885   2.346  0.3606  0.5736 -0.0125
  311MOL0     C42802  12.654   4.801   2.460  0.4640 -0.9641  1.0583
  311MOL0     C42803  12.530   4.872   2.516  0.4951  0.5720 -0.4945
  311MOL0     O42804  12.570   4.995   2.574  1.0537  0.4400 -0.8364
  311MOL0     C42805  12.471   5.085   2.602 -0.0342 -0.4751 -0.0633
  311MOL0     C42806  12.519   5.184   2.694 -0.8313 -0.4018 -0.3271
  311MOL0     C42807  12.421   5.284   2.742  0.7297 -0.2124 -0.7829
  311MOL0     C42808  12.443   5.379   2.860  0.1162  0.3975 -0.2425
  311MOL0     C42809  12.298   5.292   2.678 -0.6057 -0.4708 -0.0045
  311MOL0     C42810  12.190   5.387   2.728  0.3374  0.8888  0.7375
  311MOL0     O42811  12.141   5.378   2.849  0.5117 -0.5863 -0.0179
  311MOL0     C42812  12.021   5.442   2.871 -0.9220 -1.2904  0.5383
  311MOL0     C42813  12.027   5.581   2.879 -0.0315  0.4720  1.3540
  311MOL0     C42814  11.903   5.654   2.889  1.0255  1.0341  0.3325
  311MOL0     C42815  11.779   5.583   2.901  0.4189  0.1996  0.0348
  311MOL0     O42816  11.661   5.652   2.928 -0.2921  0.2788 -0.5664
  311MOL0     C42817  11.665   5.795   2.924  0.9724 -0.4665 -0.1764
  311MOL0     C42818  11.532   5.853   2.945  0.1008 -0.2099 -0.8525
  311MOL0     C42819  11.453   5.797   3.057 -0.9733 -0.1523  0.0821
  311MOL0     C42820  11.330   5.886   3.078  0.6157 -0.4923 -0.1763
  311MOL0     C42821  11.366   5.998   3.169  0.1338  0.0877  0.3160
  311MOL0     C42822  11.363   5.964   3.310  0.7854  0.2904 -1.6915
  311MOL0     C42823  11.479   6.032   3.395 -0.2564  0.0775 -0.1086
  311MOL0     C42824  11.594   5.934   3.429  0.1737  0.5766 -0.6285
  311MOL0    Cl42825  11.719   5.895   3.304  0.0266 -0.2154  0.0983
  311MOL0     C42826  11.774   5.439   2.891  0.4305 -0.4659  0.1758
  311MOL0     C42827  11.898   5.369   2.874  0.2589 -0.0905 -0.4420
  311MOL0     O42828  12.141   5.459   2.638 -0.1355  0.9593  0.2347
  311MOL0     C42829  12.259   5.201   2.577 -0.2020 -1.2778 -0.7786
  311MOL0     C42830  12.338   5.095   2.549 -0.3740  0.2349  0.8246
  311MOL0     N42831  12.398   4.881   2.165  1.0451  0.0636  0.4021
  311MOL0     N42832  12.299   4.970   2.169  1.1285 -0.0258 -0.4890
  311MOL0     C42833  11.711   6.002   2.601 -1.2034  0.0650  0.8804
  311MOL0     C42834  11.588   6.053   2.652 -0.0972  0.8768  0.6737
  311MOL0     C42835  11.361   6.392   2.897 -0.1505 -0.0146 -0.2823
  311MOL0     C42836  11.443   6.330   2.995 -0.1824 -0.1336 -0.7730
  311MOL0     C42837  11.437   6.378   3.132  0.4400  0.8122 -0.4431
  311MOL0     C42838  11.340   6.475   3.163 -0.4825 -0.6007  0.6550
  311MOL0     O42839  11.328   6.523   3.291 -0.0831  0.6458 -0.5260
  311MOL0     C42840  11.321   6.429   3.408 -0.0641 -0.6433  0.0326
  311MOL0     C42841  11.208   6.327   3.397 -0.8338  0.3626  0.2426
  311MOL0     C42842  11.065   6.385   3.351 -0.6962 -0.4594 -0.1559
  311MOL0     C42843  11.019   6.520   3.414 -0.4796  0.2158 -0.2186
  311MOL0     C42844  10.999   6.515   3.565  0.3541  0.3129  0.0612
  311MOL0     C42845  10.966   6.507   3.684  0.3593  0.7167 -0.0893
  311MOL0     C42846  11.251   6.527   3.065 -1.4277 -0.0769 -0.5979
  311MOL0     C42847  11.265   6.487   2.932  0.2858 -0.1487  0.6408
  311MOL0     C42848  11.173   6.542   2.830  0.1392  0.3126  0.8524
  311MOL0     H42849  11.634   6.383   2.584 -1.4602  0.8174  2.6778
  311MOL0     H42850  11.853   6.298   2.507  1.1851 -0.1387  1.1101
  311MOL0     H42851  11.856   5.857   2.402  0.0115 -1.0050  0.3964
  311MOL0     H42852  11.969   5.857   2.540 -0.6191  0.6790  0.7344
  311MOL0     H42853  12.040   5.904   2.254 -0.4586 -1.0493 -0.5429
  311MOL0     H42854  12.136   5.965   2.371  1.7698 -1.5866  1.8255
  311MOL0     H42855  12.126   5.700   2.468  0.1581 -3.8006 -1.0686
  311MOL0     H42856  12.054   5.679   2.316  0.0106 -1.1118  1.0509
  311MOL0     H42857  12.249   5.748   2.189  4.3790 -0.3513 -1.1719
  311MOL0     H42858  12.341   5.788   2.336  1.4768 -1.9409 -1.9959
  311MOL0     H42859  12.363   5.595   2.414 -0.6211  1.4247 -0.2860
  311MOL0     H42860  12.419   5.591   2.251  1.7537  0.3149  0.7861
  311MOL0     H42861  12.184   5.437   2.357 -1.1284 -5.5532 -2.1759
  311MOL0     H42862  12.200   5.475   2.195  2.3245 -1.1673 -1.1341
  311MOL0     H42863  12.397   5.295   2.349 -1.6332  0.8004  0.8918
  311MOL0     H42864  12.421   5.361   2.179 -0.5873  0.5923 -0.3392
  311MOL0     H42865  12.190   5.206   2.269  1.2790  0.0769  1.2951
  311MOL0     H42866  12.237   5.262   2.102 -4.8940 -2.0391  0.6100
  311MOL0     H42867  12.572   5.159   2.225 -1.6197 -0.1002  3.8156
  311MOL0     H42868  12.732   4.898   2.134 -1.3737 -4.2158 -2.3521
  311MOL0     H42869  12.649   4.762   2.180  0.8281 -1.0101  0.5282
  311MOL0     H42870  12.826   4.862   2.332  0.5658  1.1154  0.5867
  311MOL0     H42871  12.718   4.990   2.377  1.2777  0.9349 -1.1110
  311MOL0     H42872  12.627   4.701   2.424 -0.2823 -0.1308 -0.8222
  311MOL0     H42873  12.717   4.778   2.546  0.7673 -1.3489  0.7399
  311MOL0     H42874  12.454   4.887   2.439 -0.9251  3.0862  1.2343
  311MOL0     H42875  12.490   4.804   2.593 -1.2980 -0.2061 -2.0335
  311MOL0     H42876  12.620   5.176   2.734 -0.9156  0.7686  0.1726
  311MOL0     H42877  12.422   5.484   2.838  0.5475  0.8680  1.4232
  311MOL0     H42878  12.548   5.358   2.882 -0.2555 -3.8939 -1.5346
  311MOL0     H42879  12.383   5.345   2.945 -4.4451  3.9767 -1.6062
  311MOL0     H42880  12.123   5.631   2.877  0.8865 -1.0446  3.5012
  311MOL0     H42881  11.911   5.761   2.904  1.8538  1.0269  0.0023
  311MOL0     H42882  11.737   5.842   2.991  0.1696  1.7856 -0.7904
  311MOL0     H42883  11.690   5.834   2.825  2.1871  1.5578  0.8694
  311MOL0     H42884  11.540   5.960   2.966  2.2130 -0.2129 -1.3692
  311MOL0     H42885  11.472   5.828   2.858  0.8560 -1.6781 -0.9895
  311MOL0     H42886  11.517   5.789   3.146  3.7890  3.0264 -2.5934
  311MOL0     H42887  11.409   5.701   3.032 -1.9116 -0.0498  1.2065
  311MOL0     H42888  11.248   5.823   3.115  2.6764 -1.9873  2.1503
  311MOL0     H42889  11.296   5.904   2.975 -1.2443  1.4684  0.6879
  311MOL0     H42890  11.467   6.031   3.146  1.2926 -2.0526  2.0068
  311MOL0     H42891  11.300   6.083   3.147  0.9487  0.8586  0.7895
  311MOL0     H42892  11.362   5.856   3.328  1.8159  0.6715  1.2640
  311MOL0     H42893  11.270   5.999   3.355 -0.2884 -2.0927 -1.9335
  311MOL0     H42894  11.441   6.073   3.489  1.9860  0.8924  0.5218
  311MOL0     H42895  11.523   6.120   3.347 -0.9903  0.3123 -0.3564
  311MOL0     H42896  11.546   5.842   3.464  0.2032  1.1503  0.9654
  311MOL0     H42897  11.640   5.963   3.524 -0.9400 -2.5066  0.9890
  311MOL0     H42898  11.678   5.391   2.907  0.8418 -0.9410  1.3128
  311MOL0     H42899  11.883   5.264   2.852 -0.0466  0.2585 -2.0176
  311MOL0     H42900  12.161   5.218   2.534  0.6628  1.1478 -1.9761
  311MOL0     H42901  12.301   5.019   2.481  1.9484  0.6511 -1.0206
  311MOL0     H42902  11.724   5.894   2.596 -2.8884 -0.1566  0.7113
  311MOL0     H42903  11.521   5.977   2.691 -2.0578  1.0129 -2.1590
  311MOL0     H42904  11.517   6.255   2.968  1.8482  1.0895  1.0537
  311MOL0     H42905  11.494   6.340   3.217 -0.8320  1.9096  0.9644
  311MOL0     H42906  11.412   6.371   3.421  1.3902  1.3109 -0.8778
  311MOL0     H42907  11.309   6.497   3.493 -0.0245  0.0179 -0.4805
  311MOL0     H42908  11.178   6.277   3.490  0.7716  0.0017  0.5874
  311MOL0     H42909  11.240   6.259   3.318  0.8616  2.5363 -1.0682
  311MOL0     H42910  11.066   6.387   3.242  1.4271  1.3200 -0.1971
  311MOL0     H42911  10.987   6.313   3.376 -0.2599 -0.6975  0.5512
  311MOL0     H42912  10.925   6.551   3.367  0.6880 -2.3627 -4.9400
  311MOL0     H42913  11.093   6.600   3.405 -2.4301  2.2668  0.7668
  311MOL0     H42914  10.929   6.520   3.784 -4.2452 -1.7631 -1.1803
  311MOL0     H42915  11.173   6.593   3.101 -0.8082 -0.8540  2.4689
  311MOL0     H42916  11.226   6.595   2.750 -1.4198  1.5504  0.5995
  311MOL0     H42917  11.116   6.463   2.779  1.8970 -0.6275  0.2632
  311MOL0     H42918  11.102   6.609   2.878 -0.7318  1.2916 -1.6116
  312MOL0     O42919  10.734   4.355   7.436  0.2659  0.4761 -0.1209
  312MOL0     C42920  10.852   4.342   7.440 -0.2696 -0.4936  0.0358
  312MOL0     O42921  10.920   4.238   7.504 -0.1933 -0.5439  0.6744
  312MOL0     C42922  10.839   4.131   7.526 -0.2969  0.2872 -0.1386
  312MOL0     C42923  10.808   4.026   7.424 -0.3923 -1.0097  0.4689
  312MOL0     C42924  10.715   3.928   7.454 -0.5053 -0.1082 -0.5716
  312MOL0     C42925  10.664   3.924   7.589  0.2946  0.1890 -0.7362
  312MOL0     O42926  10.584   3.825   7.630  0.4033 -0.6335 -0.1620
  312MOL0     C42927  10.647   3.691   7.623  0.1681  0.6872 -0.5391
  312MOL0     C42928  10.533   3.582   7.629 -0.9050 -0.1631 -0.5844
  312MOL0     C42929  10.464   3.566   7.496  0.0001  0.8795  0.8442
  312MOL0     C42930  10.373   3.444   7.517  0.9665  0.2284 -0.4060
  312MOL0     C42931  10.232   3.473   7.575 -0.3230 -0.6627 -0.4594
  312MOL0     C42932  10.160   3.350   7.630  0.3870  0.4369  0.5611
  312MOL0     C42933  10.175   3.220   7.550 -0.0764 -0.4763 -1.0396
  312MOL0     C42934  10.076   3.214   7.432 -0.0613 -0.4830  0.4369
  312MOL0     N42935  10.040   3.079   7.395  0.7547 -0.3197  1.0791
  312MOL0     C42936   9.968   2.995   7.473  0.5889 -0.7563 -0.9597
  312MOL0     C42937   9.943   2.885   7.401  0.1900 -0.6378  1.0590
  312MOL0     C42938   9.875   2.761   7.461 -1.0509 -0.6907  0.2316
  312MOL0     C42939   9.923   2.631   7.396  0.5390 -0.1764 -1.0345
  312MOL0     C42940  10.066   2.587   7.431 -0.2342 -0.1391  0.2748
  312MOL0     C42941  10.123   2.632   7.568  0.0957  0.8689  0.1963
  312MOL0     O42942  10.155   2.771   7.583 -0.3546 -0.3600 -0.2949
  312MOL0     C42943  10.271   2.807   7.648 -0.5980 -0.3858 -0.1452
  312MOL0     C42944  10.308   2.764   7.772  0.6520 -0.6356  0.1599
  312MOL0     C42945  10.406   2.828   7.846  0.0752  0.8850 -0.2958
  312MOL0     C42946  10.425   2.772   7.988 -0.7026  0.5140  0.8732
  312MOL0     C42947  10.482   2.938   7.789 -0.0147 -0.6296  0.0140
  312MOL0     C42948  10.602   3.004   7.843 -1.0597 -0.1584  0.1700
  312MOL0     O42949  10.687   3.063   7.747  0.6123  0.2448  1.0004
  312MOL0     C42950  10.770   3.155   7.801  0.2638 -0.7842  0.2013
  312MOL0     C42951  10.910   3.122   7.800 -0.1346 -0.1386 -0.3555
  312MOL0     C42952  11.007   3.222   7.836 -0.1714  0.2134 -0.3565
  312MOL0     C42953  10.963   3.355   7.861  0.6562 -0.2156  0.3128
  312MOL0     O42954  11.063   3.449   7.873  0.1829  0.2870 -0.3142
  312MOL0     C42955  11.028   3.573   7.811 -0.5956 -0.1801 -0.1423
  312MOL0     C42956  11.136   3.669   7.842  0.2596  0.3169 -0.0695
  312MOL0     C42957  11.118   3.795   7.757  0.2324 -1.4211 -0.7822
  312MOL0     C42958  11.231   3.899   7.784 -1.0143  0.0705  0.4289
  312MOL0     C42959  11.227   4.009   7.678  0.0387 -0.2030 -0.0239
  312MOL0     C42960  11.231   3.964   7.529 -0.8173  0.3075 -0.8135
  312MOL0     C42961  11.348   3.874   7.489 -0.7345  0.2799  0.0500
  312MOL0     C42962  11.313   3.724   7.460  0.0414 -0.3498  0.0154
  312MOL0    Cl42963  11.470   3.623   7.433 -0.3819  0.1819 -0.2934
  312MOL0     C42964  10.828   3.378   7.862  0.2791 -0.1402 -0.3379
  312MOL0     C42965  10.725   3.284   7.834  0.2645 -1.2520 -1.4502
  312MOL0     O42966  10.618   3.016   7.966  0.1011 -0.5567 -0.1138
  312MOL0     C42967  10.441   2.974   7.664 -0.1723 -0.9457  1.3130
  312MOL0     C42968  10.347   2.904   7.586 -0.7328 -0.3225 -0.0325
  312MOL0     N42969  10.001   2.896   7.277  0.6103  0.3501  0.1161
  312MOL0     N42970  10.054   3.020   7.269  1.0033 -1.0079  0.3198
  312MOL0     C42971  10.704   4.013   7.686  0.5192 -1.4147 -0.0342
  312MOL0     C42972  10.794   4.110   7.652 -0.5269  0.2277 -0.1542
  312MOL0     C42973  10.930   4.456   7.384  0.4763  0.2370  0.2139
  312MOL0     C42974  10.855   4.565   7.337  0.1906 -0.4172  0.2779
  312MOL0     C42975  10.914   4.687   7.291  0.0893 -0.4577  0.7579
  312MOL0     C42976  11.056   4.707   7.277  0.1637  0.5712 -0.7991
  312MOL0     O42977  11.120   4.817   7.226  0.0621 -0.1604 -0.8995
  312MOL0     C42978  11.051   4.946   7.256  0.2290 -0.5200 -0.2904
  312MOL0     C42979  11.159   5.034   7.328  0.9943 -0.4044 -1.0091
  312MOL0     C42980  11.223   4.967   7.458  0.8931 -0.3506 -0.4357
  312MOL0     C42981  11.125   4.935   7.568  0.0900  0.5907  0.2677
  312MOL0     C42982  11.076   5.070   7.610 -0.1582 -0.6952 -0.2121
  312MOL0     C42983  11.060   5.176   7.664 -0.6818 -0.4614  0.6822
  312MOL0     C42984  11.130   4.595   7.318 -0.3446 -0.1973 -0.5722
  312MOL0     C42985  11.073   4.470   7.370  0.2523 -0.3873 -0.4663
  312MOL0     C42986  11.162   4.353   7.418 -1.1066 -1.3106  0.3925
  312MOL0     H42987  10.858   4.042   7.328 -1.4438  0.3186  0.1117
  312MOL0     H42988  10.681   3.861   7.375  2.0061  0.0072 -1.8469
  312MOL0     H42989  10.729   3.690   7.695 -1.0046  1.0826  0.8757
  312MOL0     H42990  10.688   3.673   7.524  1.0935 -0.6813  0.0734
  312MOL0     H42991  10.588   3.494   7.665  2.1038  1.2221 -1.5095
  312MOL0     H42992  10.457   3.602   7.706  1.0723  2.1550  0.8925
  312MOL0     H42993  10.421   3.660   7.462  0.6767  1.0284  0.3694
  312MOL0     H42994  10.542   3.541   7.423  0.4706  4.3833 -0.0095
  312MOL0     H42995  10.355   3.382   7.429 -0.2385  2.5256 -1.8924
  312MOL0     H42996  10.424   3.382   7.590  0.5229  0.2374 -0.0835
  312MOL0     H42997  10.186   3.530   7.494  0.1612 -1.7182 -1.5139
  312MOL0     H42998  10.246   3.544   7.657 -0.3953  0.8759 -1.7275
  312MOL0     H42999  10.209   3.333   7.725 -0.6323 -2.0890  0.7196
  312MOL0     H43000  10.057   3.374   7.658  0.0556  0.8073 -0.8542
  312MOL0     H43001  10.164   3.137   7.620  2.8209  1.4193  1.9865
  312MOL0     H43002  10.278   3.194   7.524 -0.4277 -3.2352  0.0506
  312MOL0     H43003   9.974   3.248   7.455 -1.0485 -2.2081 -1.0897
  312MOL0     H43004  10.114   3.266   7.343  1.8325  0.7526  1.8960
  312MOL0     H43005   9.943   3.018   7.576 -1.5270 -2.5503 -0.9924
  312MOL0     H43006   9.771   2.770   7.427 -0.0195  1.6274 -2.7114
  312MOL0     H43007   9.879   2.756   7.570  0.1750 -4.0604  0.1300
  312MOL0     H43008   9.865   2.549   7.441  1.3446  0.1052  0.6004
  312MOL0     H43009   9.901   2.628   7.289  0.3975  0.5888 -1.0332
  312MOL0     H43010  10.069   2.477   7.432 -0.1843 -0.4061 -4.6775
  312MOL0     H43011  10.136   2.624   7.356  0.3892 -0.8097  0.5147
  312MOL0     H43012  10.043   2.608   7.639  0.5309  0.1811  0.4725
  312MOL0     H43013  10.211   2.575   7.600  0.0391  1.0808  0.7368
  312MOL0     H43014  10.248   2.688   7.822  1.2497 -0.5398  1.0383
  312MOL0     H43015  10.523   2.726   7.972 -0.3109  1.3743  0.7170
  312MOL0     H43016  10.340   2.709   8.016 -1.3126  1.7263  1.8363
  312MOL0     H43017  10.435   2.850   8.064  1.4161  1.5920 -0.4055
  312MOL0     H43018  10.936   3.018   7.781  4.9305  0.3732  2.0600
  312MOL0     H43019  11.111   3.193   7.824 -0.3522 -0.7361  0.2594
  312MOL0     H43020  11.007   3.560   7.704  0.6649 -3.3726 -0.1159
  312MOL0     H43021  10.938   3.623   7.849 -0.5661  0.4719 -0.8851
  312MOL0     H43022  11.121   3.696   7.947  0.8746 -1.5362  0.5301
  312MOL0     H43023  11.237   3.639   7.814  1.5792  2.7147  1.6881
  312MOL0     H43024  11.023   3.837   7.793  0.4038 -2.1568  0.6119
  312MOL0     H43025  11.098   3.775   7.652  2.0497  3.9089 -2.4585
  312MOL0     H43026  11.329   3.852   7.797 -1.2694 -1.1194 -1.4425
  312MOL0     H43027  11.207   3.946   7.879  1.7354 -0.0164  1.2473
  312MOL0     H43028  11.140   4.073   7.697  1.9592  2.6089 -0.2198
  312MOL0     H43029  11.318   4.068   7.688 -0.4647  0.8556 -1.4126
  312MOL0     H43030  11.247   4.055   7.470  1.0333  0.4566 -0.1578
  312MOL0     H43031  11.137   3.919   7.497 -0.0244 -1.9541 -0.1602
  312MOL0     H43032  11.420   3.879   7.572 -0.2272  0.1079 -0.3764
  312MOL0     H43033  11.386   3.918   7.396 -2.1025 -2.0360 -1.6946
  312MOL0     H43034  11.262   3.719   7.363  0.8730  0.6901 -0.5012
  312MOL0     H43035  11.255   3.679   7.541  0.4539  0.3368  0.6972
  312MOL0     H43036  10.789   3.479   7.871  1.0339  0.7539 -4.7642
  312MOL0     H43037  10.620   3.310   7.834  0.5305  0.0504  0.3673
  312MOL0     H43038  10.491   3.058   7.617  1.8402 -1.2106  2.8675
  312MOL0     H43039  10.320   2.954   7.494  1.6618  1.6094  0.2053
  312MOL0     H43040  10.641   4.005   7.774  0.7052 -0.5138  0.1956
  312MOL0     H43041  10.832   4.175   7.730  1.1205 -1.7345  0.7958
  312MOL0     H43042  10.748   4.563   7.320  0.5878 -0.4886 -3.0010
  312MOL0     H43043  10.851   4.773   7.274 -0.1960 -0.3829  2.0264
  312MOL0     H43044  11.046   4.995   7.158  0.7521 -0.3331 -0.2278
  312MOL0     H43045  10.959   4.934   7.313  1.0036  1.2484  1.4641
  312MOL0     H43046  11.112   5.128   7.359  2.5994  0.1971 -0.3135
  312MOL0     H43047  11.235   5.056   7.253 -1.2032  1.6035 -2.8195
  312MOL0     H43048  11.280   4.880   7.426  2.0131  0.1257  0.2290
  312MOL0     H43049  11.304   5.029   7.499 -0.4235  0.8453  0.4839
  312MOL0     H43050  11.183   4.896   7.652  1.9525  2.3671 -0.1298
  312MOL0     H43051  11.050   4.862   7.536  2.5917 -1.4485 -1.3857
  312MOL0     H43052  11.050   5.269   7.716  2.4971  0.8800 -0.8511
  312MOL0     H43053  11.238   4.591   7.309 -0.3098  1.5852 -1.3393
  312MOL0     H43054  11.147   4.269   7.348  0.7065 -1.1905 -0.1978
  312MOL0     H43055  11.267   4.385   7.419  0.2021 -4.6022 -3.1444
  312MOL0     H43056  11.141   4.319   7.520  1.2116 -3.6584  0.2146
  313MOL0     O43057   9.075   1.151   4.075 -0.1593 -0.1878  0.0042
  313MOL0     C43058   9.103   1.129   4.193 -0.5540 -0.3570 -0.3382
  313MOL0     O43059   9.217   1.183   4.253 -0.0220  0.5726  0.6274
  313MOL0     C43060   9.315   1.227   4.169 -0.4297  0.1541  0.4606
  313MOL0     C43061   9.397   1.131   4.112  0.0871 -0.1821  0.2086
  313MOL0     C43062   9.511   1.167   4.043 -0.5107  0.5637 -0.7783
  313MOL0     C43063   9.534   1.298   4.011  1.1061 -0.5601  0.3581
  313MOL0     O43064   9.638   1.329   3.933 -0.4182 -0.2083 -0.6118
  313MOL0     C43065   9.761   1.322   4.008  0.4897 -0.7484 -0.1423
  313MOL0     C43066   9.849   1.200   3.975  0.9192 -0.2512 -0.1383
  313MOL0     C43067   9.864   1.121   4.102  0.0537  0.2845  0.3519
  313MOL0     C43068   9.943   0.993   4.085  0.6775 -0.5983  0.1872
  313MOL0     C43069   9.998   0.948   4.223  0.1872  0.4268  0.6778
  313MOL0     C43070   9.879   0.915   4.324 -0.1062  0.3195 -0.3414
  313MOL0     C43071   9.781   0.795   4.273  0.6036 -0.4602 -0.2298
  313MOL0     C43072   9.700   0.737   4.390 -0.2743  0.7319 -0.0827
  313MOL0     N43073   9.791   0.660   4.477 -0.0700 -0.2452 -0.2923
  313MOL0     C43074   9.923   0.624   4.456 -0.4934 -1.0189 -1.0893
  313MOL0     C43075   9.946   0.520   4.543 -0.1114  0.2488  0.0740
  313MOL0     C43076  10.070   0.425   4.541  0.4079  0.4786  0.5255
  313MOL0     C43077  10.043   0.314   4.447  0.8287  0.7137  0.1531
  313MOL0     C43078  10.112   0.338   4.313  0.0793 -0.5485  0.9871
  313MOL0     C43079  10.085   0.219   4.211  0.0860 -0.3035 -0.5778
  313MOL0     O43080  10.106   0.085   4.254  0.1094 -0.2038 -0.1502
  313MOL0     C43081  10.240   0.061   4.288  1.3970  0.4340  0.2532
  313MOL0     C43082  10.350   0.071   4.200  0.2661 -0.3766 -0.0769
  313MOL0     C43083  10.479   0.050   4.241 -0.8882  0.0104 -0.0365
  313MOL0     C43084  10.587   0.069   4.144 -0.3696  0.2197  0.1298
  313MOL0     C43085  10.513   0.026   4.376  0.1173  0.2476  0.6799
  313MOL0     C43086  10.654   0.001   4.426 -0.2946  0.2143 -0.4927
  313MOL0     O43087  10.688   0.076   4.542  0.1154 -0.4806 -0.1871
  313MOL0     C43088  10.815   0.065   4.582  0.3671 -0.1109 -0.2036
  313MOL0     C43089  10.856  -0.007   4.693  1.0248 -0.5016 -0.1675
  313MOL0     C43090  10.991  -0.027   4.722  0.1265  0.0037 -0.4014
  313MOL0     C43091  11.096   0.009   4.634  0.4857 -0.1499 -0.5256
  313MOL0     O43092  11.227  -0.008   4.658 -0.0331  0.1442 -0.4791
  313MOL0     C43093  11.255  -0.145   4.674 -0.8274 -0.6998  0.6907
  313MOL0     C43094  11.311  -0.195   4.539 -0.4734  1.3598 -0.2597
  313MOL0     C43095  11.443  -0.276   4.558  0.1501 -0.3744  0.4922
  313MOL0     C43096  11.517  -0.313   4.429  0.7350 -0.2449 -0.7695
  313MOL0     C43097  11.655  -0.373   4.471 -0.2704 -0.2250 -0.3955
  313MOL0     C43098  11.750  -0.423   4.362  0.2823 -0.3566  0.1107
  313MOL0     C43099  11.862  -0.502   4.432  0.3163  0.0876  0.6935
  313MOL0     C43100  11.976  -0.556   4.333 -0.5427  0.0122 -0.9606
  313MOL0    Cl43101  12.074  -0.677   4.412  0.1050  0.1379 -0.0826
  313MOL0     C43102  11.052   0.076   4.521  0.2879 -0.3649 -0.0581
  313MOL0     C43103  10.915   0.114   4.499 -0.2773  0.5364 -0.8221
  313MOL0     O43104  10.725  -0.082   4.369 -1.0331  0.4353 -0.1652
  313MOL0     C43105  10.408   0.010   4.462 -0.9527  0.1166 -0.9366
  313MOL0     C43106  10.272   0.017   4.418 -0.0752  0.3845  0.2475
  313MOL0     N43107   9.831   0.489   4.610  0.0786  0.2634  0.0020
  313MOL0     N43108   9.738   0.572   4.569  0.0216 -0.7060  0.5106
  313MOL0     C43109   9.447   1.400   4.054  0.1579  0.1862  0.1177
  313MOL0     C43110   9.330   1.362   4.129 -0.3185  0.5854  0.8315
  313MOL0     C43111   8.991   1.068   4.270 -0.2142  0.5906  0.0782
  313MOL0     C43112   8.960   1.129   4.392  0.2144 -0.2171  0.1775
  313MOL0     C43113   8.855   1.083   4.477  1.2095 -1.1298 -0.7329
  313MOL0     C43114   8.771   0.982   4.439  0.2331 -0.9905  0.1517
  313MOL0     O43115   8.672   0.934   4.518 -0.0108  0.1342  0.1568
  313MOL0     C43116   8.593   1.014   4.612  0.7181 -0.1947  0.7009
  313MOL0     C43117   8.448   0.950   4.618  0.1376  0.4983 -0.3461
  313MOL0     C43118   8.454   0.801   4.646 -0.1922  0.4513  0.0981
  313MOL0     C43119   8.326   0.727   4.652 -0.4459  0.7818 -0.0644
  313MOL0     C43120   8.235   0.767   4.764 -0.5602  0.4052 -1.1728
  313MOL0     C43121   8.154   0.791   4.851  0.1360 -0.2216 -0.4018
  313MOL0     C43122   8.795   0.925   4.317 -0.1328 -0.0635 -0.2253
  313MOL0     C43123   8.903   0.965   4.229 -0.4979  0.1269 -0.6190
  313MOL0     C43124   8.923   0.885   4.097  0.0608  0.4959  0.0822
  313MOL0     H43125   9.395   1.024   4.130  2.0135 -0.3542 -0.3881
  313MOL0     H43126   9.577   1.088   4.009 -3.8876 -4.4381  2.7654
  313MOL0     H43127   9.750   1.325   4.116  1.1833 -0.7902 -0.0640
  313MOL0     H43128   9.821   1.409   3.978  1.2349 -0.4968  1.9100
  313MOL0     H43129   9.793   1.153   3.893 -4.2252  2.3424  1.4388
  313MOL0     H43130   9.951   1.229   3.948  1.3472 -1.3630  0.2378
  313MOL0     H43131   9.912   1.178   4.181  2.1772 -2.7807  1.4814
  313MOL0     H43132   9.767   1.093   4.143  0.5972  0.4146  1.7685
  313MOL0     H43133   9.879   0.912   4.050 -3.0517  1.5298  1.4602
  313MOL0     H43134  10.023   1.020   4.015 -1.0959 -0.4613 -1.9047
  313MOL0     H43135  10.058   1.020   4.279  3.4096 -0.0302 -1.9053
  313MOL0     H43136  10.047   0.852   4.208 -2.5718 -0.7313 -1.8315
  313MOL0     H43137   9.925   0.903   4.423 -1.0974  3.1928  0.5801
  313MOL0     H43138   9.816   1.004   4.334  0.2682  0.5551 -0.0544
  313MOL0     H43139   9.839   0.710   4.236 -1.2881 -2.5911  1.3661
  313MOL0     H43140   9.710   0.829   4.197  0.1010  0.0121  0.4347
  313MOL0     H43141   9.665   0.813   4.460 -0.7700 -0.9784  1.6093
  313MOL0     H43142   9.615   0.676   4.355 -1.7845  4.0960 -2.8924
  313MOL0     H43143   9.997   0.663   4.386  0.7900 -1.3516  0.0440
  313MOL0     H43144  10.094   0.370   4.632  3.2760 -0.6454 -0.7910
  313MOL0     H43145  10.160   0.485   4.523  0.4289  0.2885 -0.0175
  313MOL0     H43146  10.071   0.221   4.497  3.3913  2.1438  1.5756
  313MOL0     H43147   9.936   0.321   4.425  0.7353  2.8440  1.0414
  313MOL0     H43148  10.067   0.433   4.284 -0.2625 -0.2864  2.2938
  313MOL0     H43149  10.220   0.354   4.316  0.1879  0.4553 -2.9838
  313MOL0     H43150   9.977   0.226   4.198  0.1260  1.4074 -0.3159
  313MOL0     H43151  10.140   0.232   4.117  2.6280  0.2302  0.8893
  313MOL0     H43152  10.334   0.118   4.103  1.5056  4.0092  1.6047
  313MOL0     H43153  10.645  -0.024   4.134 -2.9359 -1.5602  0.6396
  313MOL0     H43154  10.646   0.152   4.183 -0.2170  0.6435 -0.9876
  313MOL0     H43155  10.544   0.099   4.048  0.7620  0.8573 -0.1839
  313MOL0     H43156  10.785  -0.041   4.768  2.3516  0.1033  1.4330
  313MOL0     H43157  11.009  -0.072   4.819 -2.0534 -0.6865 -0.2709
  313MOL0     H43158  11.320  -0.151   4.762  0.9297  0.1350 -0.4723
  313MOL0     H43159  11.171  -0.208   4.703 -2.1755  1.0532  0.6974
  313MOL0     H43160  11.236  -0.248   4.479  1.8913  0.0790 -2.2364
  313MOL0     H43161  11.345  -0.111   4.479  3.5727  0.5952  0.6960
  313MOL0     H43162  11.413  -0.363   4.617  2.4279 -0.6916  1.2749
  313MOL0     H43163  11.510  -0.209   4.613  0.5828  0.2435 -0.7588
  313MOL0     H43164  11.526  -0.218   4.376  0.7171 -0.3465 -0.9536
  313MOL0     H43165  11.463  -0.392   4.376 -0.6536 -2.0297  2.9599
  313MOL0     H43166  11.709  -0.294   4.524  2.0398 -1.8776 -0.1405
  313MOL0     H43167  11.647  -0.456   4.542 -2.3470  0.1264 -0.1608
  313MOL0     H43168  11.800  -0.341   4.310 -0.0761  0.1936  0.6321
  313MOL0     H43169  11.705  -0.486   4.284  2.2340 -2.0551  0.2658
  313MOL0     H43170  11.810  -0.591   4.470 -2.1456  1.6392  1.2628
  313MOL0     H43171  11.903  -0.449   4.518  4.0865 -0.7497 -0.4426
  313MOL0     H43172  12.048  -0.478   4.307  1.0326 -0.8017  0.7019
  313MOL0     H43173  11.932  -0.596   4.241 -2.0778  1.7039 -1.0121
  313MOL0     H43174  11.120   0.109   4.444 -2.0832  1.1081 -1.6673
  313MOL0     H43175  10.883   0.161   4.407 -1.7456  1.4039  0.0956
  313MOL0     H43176  10.418  -0.025   4.564 -1.6119 -1.5061 -1.4053
  313MOL0     H43177  10.190  -0.004   4.487  0.3424 -1.6689  0.1708
  313MOL0     H43178   9.463   1.503   4.023 -0.6786  0.4931  0.6676
  313MOL0     H43179   9.244   1.420   4.164 -0.9873 -0.4033  0.8509
  313MOL0     H43180   9.016   1.217   4.420 -0.0740  0.2094 -0.5529
  313MOL0     H43181   8.832   1.133   4.570 -0.4795  1.9265 -2.6082
  313MOL0     H43182   8.644   1.014   4.709 -2.0047 -0.2612  2.2384
  313MOL0     H43183   8.588   1.114   4.569  2.6039 -0.1425  0.5186
  313MOL0     H43184   8.392   0.981   4.529 -2.1181 -0.2855  0.7365
  313MOL0     H43185   8.391   0.990   4.701  1.3729 -0.6626  1.1195
  313MOL0     H43186   8.508   0.750   4.566 -2.3652  2.4457 -2.8589
  313MOL0     H43187   8.502   0.782   4.742  1.8368  0.8359 -0.7904
  313MOL0     H43188   8.346   0.620   4.659  2.8281  1.3421  0.3549
  313MOL0     H43189   8.276   0.728   4.555  0.9912 -0.8072 -0.8672
  313MOL0     H43190   8.075   0.802   4.923  1.8218 -0.4111  1.5751
  313MOL0     H43191   8.727   0.849   4.280 -4.0121  3.2397 -0.6315
  313MOL0     H43192   8.894   0.940   4.007 -0.1020  1.7891  0.9093
  313MOL0     H43193   9.025   0.845   4.095  0.7436  2.0743  1.3232
  313MOL0     H43194   8.874   0.788   4.110  2.0347 -0.7396 -1.0124
  314MOL0     O43195   4.104   2.200   9.480 -0.1665 -0.5012  0.2716
  314MOL0     C43196   4.125   2.132   9.376  0.5825 -0.3045  0.7990
  314MOL0     O43197   4.251   2.102   9.329  0.7831  0.0827  0.2550
  314MOL0     C43198   4.348   2.191   9.351  0.3507 -0.4853  0.0275
  314MOL0     C43199   4.338   2.330   9.363  0.2981  0.0300  0.5440
  314MOL0     C43200   4.449   2.414   9.372  0.4292 -0.5583  0.0537
  314MOL0     C43201   4.576   2.363   9.358 -0.2412  0.9910 -0.5651
  314MOL0     O43202   4.698   2.431   9.364  0.1285 -0.3219  0.4608
  314MOL0     C43203   4.681   2.573   9.369  0.2559  0.2868 -0.3942
  314MOL0     C43204   4.810   2.650   9.336  0.0809 -0.2655  0.8563
  314MOL0     C43205   4.848   2.594   9.196  0.1315 -1.1162 -0.0573
  314MOL0     C43206   4.967   2.671   9.135 -0.7028 -0.2703 -0.4731
  314MOL0     C43207   5.097   2.652   9.210  0.0979  0.0425  0.4205
  314MOL0     C43208   5.196   2.747   9.158 -0.5053 -0.8343  0.1499
  314MOL0     C43209   5.334   2.725   9.217  0.1668  0.1043  0.4004
  314MOL0     C43210   5.447   2.830   9.193 -0.0448 -0.1600 -0.6556
  314MOL0     N43211   5.391   2.967   9.215  0.4273 -0.3062  0.2791
  314MOL0     C43212   5.378   3.025   9.336  0.2178  0.6514  1.0597
  314MOL0     C43213   5.340   3.150   9.306  0.8957  0.3322  0.1265
  314MOL0     C43214   5.327   3.261   9.408 -0.0812 -0.4532 -0.2192
  314MOL0     C43215   5.457   3.278   9.494 -0.1269  0.9271  0.0871
  314MOL0     C43216   5.448   3.402   9.584  0.7321  0.4933  0.4134
  314MOL0     C43217   5.327   3.401   9.685 -0.6867  0.0786 -0.2578
  314MOL0     O43218   5.222   3.471   9.621  1.0254 -0.2042 -0.0099
  314MOL0     C43219   5.201   3.593   9.682 -0.0984  0.3487  0.1329
  314MOL0     C43220   5.139   3.598   9.810 -0.4117 -0.1568 -0.7004
  314MOL0     C43221   5.108   3.714   9.875  0.2464 -0.7245 -0.4479
  314MOL0     C43222   5.040   3.705  10.007 -0.4508  0.7908  1.1538
  314MOL0     C43223   5.149   3.835   9.815  0.2585 -0.7035 -0.5384
  314MOL0     C43224   5.127   3.971   9.877 -0.3330 -0.7717  0.6354
  314MOL0     O43225   5.117   4.083   9.798  0.3682 -0.2103  0.1920
  314MOL0     C43226   5.090   4.210   9.839 -0.1841 -1.1514  0.6604
  314MOL0     C43227   5.116   4.309   9.749  0.6891  0.3264 -0.4251
  314MOL0     C43228   5.095   4.450   9.777  1.1494  0.3495 -0.1497
  314MOL0     C43229   5.052   4.481   9.906  0.3267  0.3236 -0.6506
  314MOL0     O43230   5.039   4.615   9.942 -0.2761  0.5060  0.6831
  314MOL0     C43231   4.918   4.659   9.996 -1.3571 -0.3731  0.6066
  314MOL0     C43232   4.923   4.792  10.065  0.0674 -1.5269  0.3923
  314MOL0     C43233   4.974   4.908   9.979 -0.6615 -0.4123  0.4206
  314MOL0     C43234   4.954   5.032  10.052  0.5424 -0.2885 -0.3580
  314MOL0     C43235   5.048   5.153  10.026 -0.6089  0.2550 -0.2802
  314MOL0     C43236   5.050   5.175   9.880  0.0674 -0.3664  0.1339
  314MOL0     C43237   5.108   5.301   9.840 -0.0211 -0.6657  0.7453
  314MOL0     C43238   5.115   5.326   9.686 -0.6878 -0.0446 -1.0611
  314MOL0    Cl43239   5.097   5.497   9.636 -0.4887  0.5334  0.3831
  314MOL0     C43240   5.047   4.382  10.008  0.3218  0.0547 -0.1572
  314MOL0     C43241   5.055   4.246   9.976  1.1227 -0.2292  0.6518
  314MOL0     O43242   5.134   3.970   9.996 -0.5274  0.6235 -0.6917
  314MOL0     C43243   5.205   3.833   9.682  1.0107 -0.6100 -0.6043
  314MOL0     C43244   5.231   3.713   9.619 -0.1891  0.0075 -0.4786
  314MOL0     N43245   5.320   3.161   9.171 -0.0095 -0.8361  0.6100
  314MOL0     N43246   5.357   3.059   9.111 -0.4828 -0.4909  1.2357
  314MOL0     C43247   4.593   2.224   9.350  0.7378 -0.1399 -0.5616
  314MOL0     C43248   4.481   2.140   9.349 -0.9220  0.5032  0.6643
  314MOL0     C43249   4.018   2.057   9.306  0.0478  0.6760 -1.3024
  314MOL0     C43250   4.065   1.950   9.220  0.2059 -0.6216 -0.0055
  314MOL0     C43251   3.970   1.874   9.157 -0.3689  0.1520 -0.8643
  314MOL0     C43252   3.832   1.888   9.183  0.2012  0.3730 -0.0236
  314MOL0     O43253   3.732   1.818   9.123  0.4081  0.0994 -0.2320
  314MOL0     C43254   3.745   1.676   9.125  0.3487 -0.1904 -0.3762
  314MOL0     C43255   3.599   1.627   9.090 -0.5471  0.1026 -0.2043
  314MOL0     C43256   3.508   1.598   9.207  1.1808 -0.1310 -0.0337
  314MOL0     C43257   3.351   1.604   9.174  0.8594  0.4986 -0.9949
  314MOL0     C43258   3.267   1.552   9.281 -0.3573 -0.8787 -0.2492
  314MOL0     C43259   3.198   1.532   9.381  0.7218  0.0592 -0.0759
  314MOL0     C43260   3.792   1.988   9.273 -0.4084  0.1624  0.2588
  314MOL0     C43261   3.877   2.071   9.334  0.2380 -0.0412  0.4259
  314MOL0     C43262   3.809   2.181   9.422  0.0709  0.6633 -0.1008
  314MOL0     H43263   4.245   2.377   9.390  0.3607  0.1504  0.5490
  314MOL0     H43264   4.421   2.517   9.394  1.9407 -0.4862  1.8304
  314MOL0     H43265   4.657   2.603   9.471  0.0055  0.7058 -0.5740
  314MOL0     H43266   4.605   2.607   9.298 -0.1863 -2.6552 -1.4321
  314MOL0     H43267   4.787   2.756   9.325 -2.5868 -0.9822 -2.1474
  314MOL0     H43268   4.890   2.633   9.408 -0.6698  0.9559  2.0144
  314MOL0     H43269   4.880   2.490   9.202 -1.1888 -1.7586 -2.5707
  314MOL0     H43270   4.761   2.597   9.130  1.3150  2.6269 -1.7165
  314MOL0     H43271   4.983   2.630   9.035  0.3636 -1.4120  0.1404
  314MOL0     H43272   4.954   2.779   9.132  1.0641  0.0664  1.7790
  314MOL0     H43273   5.132   2.549   9.199  2.1797  0.8970 -1.7594
  314MOL0     H43274   5.088   2.681   9.315  2.4860  2.1837  0.1338
  314MOL0     H43275   5.215   2.738   9.051  3.0458  5.4437 -0.2463
  314MOL0     H43276   5.176   2.850   9.189 -1.1804 -1.0987  0.6217
  314MOL0     H43277   5.378   2.633   9.180  1.7539 -0.3395  3.1009
  314MOL0     H43278   5.321   2.708   9.324 -1.2422  2.0531  0.5995
  314MOL0     H43279   5.530   2.806   9.260 -2.1665  0.8323  2.5848
  314MOL0     H43280   5.478   2.825   9.088 -1.4465  1.3039 -1.1682
  314MOL0     H43281   5.388   2.982   9.435 -5.3344 -1.0921  1.2110
  314MOL0     H43282   5.239   3.237   9.468  1.3963 -2.8941  1.1295
  314MOL0     H43283   5.308   3.353   9.351  1.5596 -1.1910 -2.0692
  314MOL0     H43284   5.454   3.189   9.558 -5.1975 -1.5033 -2.8239
  314MOL0     H43285   5.543   3.272   9.427 -1.3642 -1.0197 -1.4630
  314MOL0     H43286   5.543   3.408   9.637  0.7750  1.8087  0.2274
  314MOL0     H43287   5.431   3.487   9.517  0.7493 -1.5541 -2.3801
  314MOL0     H43288   5.298   3.297   9.703  0.0345 -0.0856 -0.0083
  314MOL0     H43289   5.354   3.450   9.779 -1.6618 -1.6220  0.9653
  314MOL0     H43290   5.125   3.500   9.854 -2.8568  1.0762  1.5724
  314MOL0     H43291   4.946   3.761  10.010 -1.5787 -0.9853  0.7269
  314MOL0     H43292   5.118   3.721  10.082  3.8399 -0.8149 -2.4747
  314MOL0     H43293   5.010   3.601  10.022  2.4772  0.2431  4.5320
  314MOL0     H43294   5.152   4.282   9.650 -2.7144  1.2704 -2.0651
  314MOL0     H43295   5.121   4.536   9.715 -0.7311  2.1333  1.3794
  314MOL0     H43296   4.843   4.668   9.917 -1.5728 -2.7588  0.4691
  314MOL0     H43297   4.881   4.577  10.059  2.7401 -1.9571  1.2274
  314MOL0     H43298   4.820   4.816  10.092  0.2913  1.4156 -1.0177
  314MOL0     H43299   4.984   4.776  10.155 -1.4880 -2.8205  1.2761
  314MOL0     H43300   4.917   4.908   9.886 -1.2122  0.0408  0.7537
  314MOL0     H43301   5.081   4.897   9.957 -0.4964 -0.0673  1.0258
  314MOL0     H43302   4.974   5.005  10.156  0.3602 -2.4837 -0.8561
  314MOL0     H43303   4.847   5.051  10.046 -0.0252 -2.3676  1.7738
  314MOL0     H43304   5.015   5.244  10.077  0.9375  4.1566 -5.3627
  314MOL0     H43305   5.147   5.136  10.067 -1.9604  0.8052  3.6177
  314MOL0     H43306   4.949   5.170   9.837  0.4945 -4.8037 -0.8221
  314MOL0     H43307   5.107   5.108   9.815  1.5731  4.6283 -4.5497
  314MOL0     H43308   5.209   5.315   9.879  0.0522 -2.2560  1.2101
  314MOL0     H43309   5.052   5.379   9.892 -1.4853 -0.5692 -0.9192
  314MOL0     H43310   5.028   5.281   9.637 -0.4365  2.1102 -3.7333
  314MOL0     H43311   5.206   5.278   9.650  1.3691  2.4915  0.4105
  314MOL0     H43312   5.040   4.408  10.113 -3.9796 -0.7675 -0.0376
  314MOL0     H43313   5.056   4.180  10.062  3.1477 -0.3851  0.5535
  314MOL0     H43314   5.233   3.924   9.630  0.0182  0.4429  0.6356
  314MOL0     H43315   5.268   3.707   9.517  0.6451 -2.1007 -0.0946
  314MOL0     H43316   4.699   2.202   9.341  1.4332  2.5979  0.0316
  314MOL0     H43317   4.489   2.032   9.346  1.6644  0.5874  2.1309
  314MOL0     H43318   4.170   1.936   9.194 -0.1328 -0.0138 -1.8668
  314MOL0     H43319   4.008   1.820   9.071 -0.0052  1.9826 -1.9043
  314MOL0     H43320   3.799   1.646   9.035  0.8312  2.5620 -1.0895
  314MOL0     H43321   3.782   1.639   9.221 -2.3607  0.4160  1.0020
  314MOL0     H43322   3.619   1.532   9.039 -0.0106 -0.1132  0.3926
  314MOL0     H43323   3.554   1.699   9.021  0.2419 -0.0091 -0.8492
  314MOL0     H43324   3.535   1.499   9.245  3.8229  0.0819 -1.1428
  314MOL0     H43325   3.524   1.679   9.278  0.7808  0.4963 -0.6563
  314MOL0     H43326   3.330   1.557   9.077  0.0341  0.6620 -0.8978
  314MOL0     H43327   3.328   1.710   9.163 -1.3481  0.1161 -0.5880
  314MOL0     H43328   3.135   1.514   9.466 -0.3541  1.2139 -0.6018
  314MOL0     H43329   3.686   2.007   9.273 -0.8440 -1.9830  1.1033
  314MOL0     H43330   3.797   2.146   9.525  0.0749  0.8782 -0.0276
  314MOL0     H43331   3.874   2.268   9.431  0.3517  0.5248 -0.7255
  314MOL0     H43332   3.711   2.202   9.379  0.0759 -0.3088 -0.6039
  315MOL0     O43333   6.975   6.191   3.658  0.6141  0.1127 -0.0497
  315MOL0     C43334   6.863   6.158   3.616  0.2501  0.6018  0.4478
  315MOL0     O43335   6.835   6.133   3.477  0.0002 -0.1785 -0.6103
  315MOL0     C43336   6.941   6.132   3.386  0.4573  0.0846  0.4356
  315MOL0     C43337   6.959   6.247   3.303 -1.0814  0.0603 -0.0060
  315MOL0     C43338   7.073   6.259   3.222 -0.0595 -0.0442  0.3448
  315MOL0     C43339   7.171   6.153   3.223  0.4392 -0.1975 -0.7330
  315MOL0     O43340   7.281   6.157   3.150 -0.4531 -0.0986  0.9661
  315MOL0     C43341   7.362   6.277   3.168 -0.3498  0.2255  0.0151
  315MOL0     C43342   7.501   6.257   3.107 -0.9168 -0.3204 -1.0292
  315MOL0     C43343   7.504   6.207   2.967 -0.3381 -0.0847  0.5187
  315MOL0     C43344   7.646   6.171   2.914 -0.3237 -0.4219 -0.2600
  315MOL0     C43345   7.693   6.030   2.940  0.9020 -0.2641 -0.4827
  315MOL0     C43346   7.810   5.978   2.852 -0.3234 -0.7987  0.0220
  315MOL0     C43347   7.852   5.833   2.872  0.8041 -0.6886  0.2549
  315MOL0     C43348   7.970   5.798   2.792  0.1106  0.0757 -0.1003
  315MOL0     N43349   7.998   5.653   2.827 -0.3772  0.1996 -0.1810
  315MOL0     C43350   8.084   5.609   2.929 -0.4881  0.4439 -0.1437
  315MOL0     C43351   8.113   5.483   2.886  0.4817 -0.0339 -0.6004
  315MOL0     C43352   8.210   5.390   2.951  0.6729 -0.3683 -0.7640
  315MOL0     C43353   8.305   5.329   2.847 -0.3725  0.2051 -1.1743
  315MOL0     C43354   8.428   5.268   2.921  0.6423 -0.0485 -0.0872
  315MOL0     C43355   8.525   5.192   2.840 -0.0728  0.2391  0.0626
  315MOL0     O43356   8.596   5.114   2.937  0.1929  0.0185 -0.1849
  315MOL0     C43357   8.719   5.072   2.895 -0.0582 -0.0037 -0.0722
  315MOL0     C43358   8.738   4.972   2.793 -1.7315 -0.3476 -0.1256
  315MOL0     C43359   8.869   4.935   2.762  0.5157  0.1503 -0.3156
  315MOL0     C43360   8.885   4.819   2.674  1.0908  0.2127 -0.2523
  315MOL0     C43361   8.983   5.013   2.805 -1.0469  0.3251 -0.0808
  315MOL0     C43362   9.132   4.986   2.778  0.3096 -0.5355 -0.3356
  315MOL0     O43363   9.222   5.036   2.872 -0.0101  0.5616  0.3690
  315MOL0     C43364   9.350   5.021   2.829 -0.6769  0.5414  0.0505
  315MOL0     C43365   9.413   4.899   2.806  0.0330  0.6861 -0.3497
  315MOL0     C43366   9.532   4.889   2.748  0.1808  0.2741  0.2368
  315MOL0     C43367   9.612   5.003   2.715 -0.3505 -0.1878 -0.4546
  315MOL0     O43368   9.742   4.985   2.681 -0.0488  0.2137 -0.8841
  315MOL0     C43369   9.796   5.073   2.580 -0.3909 -0.0736 -0.7419
  315MOL0     C43370   9.919   4.994   2.527 -0.0608  0.3102 -0.1355
  315MOL0     C43371  10.035   5.002   2.631  0.2775 -0.1621  0.5862
  315MOL0     C43372  10.159   4.918   2.580 -0.2247 -0.9163 -0.7588
  315MOL0     C43373  10.283   4.960   2.648  0.2495 -0.1814  0.5158
  315MOL0     C43374  10.287   4.935   2.797  0.7684 -0.0838  0.3714
  315MOL0     C43375  10.427   4.939   2.871  0.5140 -0.5045  0.7992
  315MOL0     C43376  10.423   4.935   3.032  0.2252  0.0352  0.1610
  315MOL0    Cl43377  10.347   5.083   3.092  0.1380 -0.3251 -0.2117
  315MOL0     C43378   9.548   5.127   2.735 -0.0070 -1.2145 -0.1525
  315MOL0     C43379   9.423   5.138   2.799 -0.1170 -0.4546 -0.2092
  315MOL0     O43380   9.151   4.929   2.671  0.0222  0.7602 -0.4515
  315MOL0     C43381   8.959   5.124   2.893 -0.1624  0.4701  0.0731
  315MOL0     C43382   8.827   5.148   2.929  0.0729  0.1889 -0.4501
  315MOL0     N43383   8.040   5.459   2.775  0.2016  0.0181 -0.5920
  315MOL0     N43384   7.966   5.552   2.745  0.8996  0.4166  0.5279
  315MOL0     C43385   7.146   6.037   3.302  0.0060 -0.4719  0.5971
  315MOL0     C43386   7.037   6.022   3.386  0.2326 -0.1298  0.9982
  315MOL0     C43387   6.767   6.119   3.720 -0.1763 -0.4314 -1.5794
  315MOL0     C43388   6.701   6.002   3.709  0.1056  0.7086 -0.3884
  315MOL0     C43389   6.627   5.956   3.818  1.4247 -0.7958 -0.1347
  315MOL0     C43390   6.600   6.025   3.935  0.9183  0.2489 -0.1174
  315MOL0     O43391   6.498   6.003   4.020 -0.2591 -0.4529 -0.4972
  315MOL0     C43392   6.447   6.091   4.126 -1.2827 -0.1994  0.9636
  315MOL0     C43393   6.358   6.204   4.069 -1.3878 -0.0999 -0.5680
  315MOL0     C43394   6.249   6.254   4.162  0.9986  0.3498 -0.6717
  315MOL0     C43395   6.154   6.344   4.080  0.6016 -0.1794  0.6170
  315MOL0     C43396   6.187   6.480   4.068  0.3984 -0.4725 -1.2019
  315MOL0     C43397   6.184   6.604   4.071  0.2485 -0.1520 -0.3361
  315MOL0     C43398   6.679   6.139   3.945 -0.5116 -0.1103  0.9712
  315MOL0     C43399   6.752   6.195   3.842 -0.5949  0.0513 -0.0619
  315MOL0     C43400   6.796   6.339   3.862 -0.3335 -0.4119 -0.3896
  315MOL0     H43401   6.880   6.321   3.293 -0.0847  0.9064 -2.2290
  315MOL0     H43402   7.088   6.345   3.156 -0.6334 -1.4822 -1.7445
  315MOL0     H43403   7.383   6.302   3.272  3.7851  3.0586 -1.2342
  315MOL0     H43404   7.313   6.365   3.125  0.6888  0.1055 -1.4798
  315MOL0     H43405   7.561   6.348   3.103  0.3041 -0.7890  2.6615
  315MOL0     H43406   7.559   6.184   3.164 -0.2876  2.1674  1.8014
  315MOL0     H43407   7.435   6.123   2.954 -1.4064  0.9674 -0.9503
  315MOL0     H43408   7.465   6.294   2.915  0.0246  0.7447  1.6030
  315MOL0     H43409   7.650   6.200   2.809 -1.3780 -1.3913 -0.5855
  315MOL0     H43410   7.712   6.227   2.980 -0.6300 -1.4035  0.9119
  315MOL0     H43411   7.610   5.960   2.927  0.5006  0.3207 -1.1067
  315MOL0     H43412   7.719   6.024   3.046  0.5207 -1.1235 -0.4335
  315MOL0     H43413   7.790   5.997   2.746  2.1942 -3.1281 -0.9744
  315MOL0     H43414   7.894   6.047   2.866 -0.2218 -0.2706 -2.5918
  315MOL0     H43415   7.769   5.765   2.850  1.5463 -1.6913  0.4548
  315MOL0     H43416   7.875   5.809   2.976 -0.6128 -3.1997  0.0824
  315MOL0     H43417   7.947   5.799   2.685 -0.6610  1.3691  0.0477
  315MOL0     H43418   8.058   5.863   2.788 -0.5117  0.8872 -1.8736
  315MOL0     H43419   8.126   5.642   3.023 -0.5808 -0.9010  0.3921
  315MOL0     H43420   8.155   5.316   3.010  1.9231  1.8151  3.5525
  315MOL0     H43421   8.266   5.450   3.023  2.5868 -3.8831  0.9429
  315MOL0     H43422   8.255   5.253   2.787  0.7342 -2.1700  0.7406
  315MOL0     H43423   8.334   5.411   2.782  0.7328 -0.5954 -1.7164
  315MOL0     H43424   8.483   5.349   2.970  2.2279 -0.9420 -0.3013
  315MOL0     H43425   8.394   5.206   3.004 -1.6853  0.7012 -0.4004
  315MOL0     H43426   8.465   5.127   2.775 -2.0664 -1.4679  3.3285
  315MOL0     H43427   8.599   5.248   2.783  0.5265 -0.8976 -0.3128
  315MOL0     H43428   8.655   4.921   2.746 -1.7145 -1.2557  0.7989
  315MOL0     H43429   8.955   4.746   2.716  1.1552 -0.8008 -2.0258
  315MOL0     H43430   8.931   4.844   2.578  1.9326 -0.8036 -0.1319
  315MOL0     H43431   8.790   4.771   2.650  0.7003  1.5382 -1.5242
  315MOL0     H43432   9.368   4.808   2.845  0.4337  1.4174  1.9760
  315MOL0     H43433   9.574   4.790   2.739 -1.7507 -0.5220 -0.6716
  315MOL0     H43434   9.718   5.096   2.507 -2.9559  1.8104  2.2693
  315MOL0     H43435   9.826   5.162   2.637 -1.1387 -0.5946  0.5143
  315MOL0     H43436   9.891   4.891   2.503  0.0375  1.2913 -6.0175
  315MOL0     H43437   9.939   5.053   2.437 -3.3628  0.4241 -0.9450
  315MOL0     H43438  10.001   4.964   2.727 -0.7978 -1.1547 -0.1538
  315MOL0     H43439  10.057   5.108   2.641 -2.4494  0.2978  2.8603
  315MOL0     H43440  10.185   4.935   2.475 -1.1354 -1.1801 -1.0345
  315MOL0     H43441  10.147   4.809   2.583 -0.0097 -0.9193  0.4442
  315MOL0     H43442  10.374   4.915   2.605  0.7392  1.6907 -0.5051
  315MOL0     H43443  10.303   5.066   2.630  2.4794 -0.3333  1.6452
  315MOL0     H43444  10.235   4.843   2.824 -0.6853  1.2166  2.2640
  315MOL0     H43445  10.230   5.018   2.840 -0.0653 -0.6969  0.4780
  315MOL0     H43446  10.469   5.037   2.847  0.7321 -0.5599  0.9545
  315MOL0     H43447  10.494   4.858   2.841 -0.1444 -1.1312  0.9883
  315MOL0     H43448  10.523   4.948   3.074 -1.1421  2.5800  3.0835
  315MOL0     H43449  10.378   4.845   3.074 -2.0455  2.7806  4.4637
  315MOL0     H43450   9.602   5.213   2.696  0.1183 -0.6271  1.2751
  315MOL0     H43451   9.378   5.236   2.812  1.9544  0.9849 -2.8972
  315MOL0     H43452   9.037   5.182   2.940  2.7082 -2.4182 -0.7762
  315MOL0     H43453   8.828   5.223   3.008  1.7073 -1.3692  1.1028
  315MOL0     H43454   7.220   5.958   3.304  0.0564 -0.4281  0.4444
  315MOL0     H43455   7.022   5.939   3.453 -2.7237 -1.1929 -0.7794
  315MOL0     H43456   6.708   5.928   3.630 -1.2616  0.0241  0.0974
  315MOL0     H43457   6.577   5.864   3.789  0.1296  0.6457 -2.8785
  315MOL0     H43458   6.389   6.020   4.186  2.7097 -1.6213  3.4813
  315MOL0     H43459   6.523   6.133   4.192 -1.4404 -1.9673  2.3533
  315MOL0     H43460   6.317   6.169   3.974  1.3096 -0.6228 -1.6206
  315MOL0     H43461   6.418   6.294   4.055 -0.8275 -0.5872 -1.3792
  315MOL0     H43462   6.191   6.166   4.193  1.8468 -0.6578 -1.8040
  315MOL0     H43463   6.279   6.310   4.251 -3.2325 -0.3003  1.3940
  315MOL0     H43464   6.058   6.340   4.131  1.0927  0.6190  1.6429
  315MOL0     H43465   6.145   6.300   3.980 -0.1384 -1.6788  1.3034
  315MOL0     H43466   6.195   6.711   4.075  0.7739 -0.1808 -0.7983
  315MOL0     H43467   6.665   6.202   4.032  3.8005  0.4739  1.4532
  315MOL0     H43468   6.891   6.343   3.915 -0.5649 -1.2536  0.1057
  315MOL0     H43469   6.799   6.392   3.766 -1.4397  1.2332  0.4411
  315MOL0     H43470   6.733   6.399   3.929  0.4281  0.7046 -0.6565
  316MOL0     O43471   2.519  11.131   9.481  0.2632 -0.1201  0.1507
  316MOL0     C43472   2.510  11.224   9.560  0.9992 -0.1172  0.4129
  316MOL0     O43473   2.548  11.355   9.536  0.4832  0.4048 -0.2006
  316MOL0     C43474   2.610  11.386   9.418 -0.0620 -0.0978  0.5251
  316MOL0     C43475   2.598  11.515   9.379 -0.1943 -0.4400  0.3647
  316MOL0     C43476   2.667  11.560   9.266 -0.5222  0.1307 -0.1821
  316MOL0     C43477   2.743  11.477   9.192 -0.1168  0.1572  0.4363
  316MOL0     O43478   2.816  11.517   9.087  1.0559 -0.3653  0.0366
  316MOL0     C43479   2.869  11.649   9.066  0.1147  0.8086 -0.6490
  316MOL0     C43480   2.839  11.689   8.924 -0.6578 -1.0121  0.3043
  316MOL0     C43481   2.861  11.836   8.898  0.5812 -1.1222  0.0921
  316MOL0     C43482   2.740  11.927   8.932  1.0910 -0.1321  0.7487
  316MOL0     C43483   2.745  12.065   8.876 -0.3018  0.5310 -0.3428
  316MOL0     C43484   2.608  12.139   8.891 -0.1291 -0.2637  0.4435
  316MOL0     C43485   2.618  12.269   8.810 -0.8557 -0.0442  0.3784
  316MOL0     C43486   2.565  12.387   8.895 -0.1016 -0.5578  0.0353
  316MOL0     N43487   2.684  12.440   8.977 -0.2191  0.0689  0.0388
  316MOL0     C43488   2.756  12.374   9.082  0.3718 -1.6271 -0.0627
  316MOL0     C43489   2.866  12.445   9.110 -0.7048  0.2652 -0.2303
  316MOL0     C43490   2.977  12.411   9.209  1.1392  0.7180 -0.2301
  316MOL0     C43491   2.923  12.315   9.323 -1.3748  0.0067  0.2608
  316MOL0     C43492   2.949  12.168   9.267 -0.0485 -0.0682 -0.8350
  316MOL0     C43493   2.892  12.061   9.368  0.6541  0.0533  0.1718
  316MOL0     O43494   2.750  12.064   9.376 -0.1987 -0.0819 -0.0326
  316MOL0     C43495   2.696  12.005   9.481  0.4106  0.5237  0.4971
  316MOL0     C43496   2.737  11.885   9.536 -0.2628 -0.0152  0.5429
  316MOL0     C43497   2.645  11.814   9.620  0.0384  0.4211  0.5071
  316MOL0     C43498   2.691  11.676   9.659 -0.2494 -0.7910 -0.9985
  316MOL0     C43499   2.535  11.879   9.665 -0.8575  0.1148 -0.1135
  316MOL0     C43500   2.445  11.811   9.763  0.8829 -0.0633 -0.1620
  316MOL0     O43501   2.335  11.881   9.784  0.0483 -1.0241 -0.2717
  316MOL0     C43502   2.247  11.830   9.876 -0.4476 -0.3551 -0.2479
  316MOL0     C43503   2.151  11.733   9.833 -0.8823 -0.4860 -0.1740
  316MOL0     C43504   2.078  11.669   9.930  0.4133  0.3343 -0.0398
  316MOL0     C43505   2.098  11.696  10.072 -0.8454 -0.0501  0.2968
  316MOL0     O43506   2.033  11.641  10.177  0.0994 -0.0032  0.4033
  316MOL0     C43507   1.985  11.509  10.131 -0.2927  0.4281 -0.4976
  316MOL0     C43508   1.960  11.423  10.257 -0.2694  0.8518  0.1850
  316MOL0     C43509   1.880  11.289  10.245  0.1781 -1.3826  0.4771
  316MOL0     C43510   1.873  11.222  10.378 -0.9829  0.4826 -0.1196
  316MOL0     C43511   1.791  11.092  10.362  0.1557 -0.1000  0.1107
  316MOL0     C43512   1.737  11.035  10.488 -0.1232  1.0310 -0.2395
  316MOL0     C43513   1.625  10.930  10.467 -0.2398 -0.5016 -0.9582
  316MOL0     C43514   1.614  10.827  10.582 -0.1665  0.1727 -0.2715
  316MOL0    Cl43515   1.459  10.717  10.592 -0.0200  0.8409  0.2991
  316MOL0     C43516   2.192  11.793  10.106 -0.3863  0.3672 -0.2079
  316MOL0     C43517   2.264  11.857  10.012  0.2253  0.7092 -0.2143
  316MOL0     O43518   2.480  11.718   9.828 -0.2515 -0.0433  0.5859
  316MOL0     C43519   2.504  12.007   9.615 -0.6514  0.4352 -0.2482
  316MOL0     C43520   2.585  12.066   9.522 -0.3617  0.6583  0.0789
  316MOL0     N43521   2.872  12.544   9.021  0.1722 -0.3326 -0.1766
  316MOL0     N43522   2.774  12.535   8.937  0.6208  0.3075  0.0006
  316MOL0     C43523   2.744  11.348   9.220 -0.9779  0.2915  1.0533
  316MOL0     C43524   2.688  11.299   9.333 -0.2600 -0.4451 -0.2852
  316MOL0     C43525   2.428  11.205   9.674  0.0343 -0.5513 -0.6502
  316MOL0     C43526   2.435  11.313   9.775 -0.2634  0.2651  0.5029
  316MOL0     C43527   2.380  11.303   9.900  0.0032 -0.4166 -0.2035
  316MOL0     C43528   2.301  11.181   9.929  0.7351 -0.9312 -0.0206
  316MOL0     O43529   2.215  11.181  10.035 -0.2857 -0.0831 -0.4481
  316MOL0     C43530   2.283  11.177  10.167  0.2383  0.6414  0.1801
  316MOL0     C43531   2.217  11.069  10.244 -0.1044 -0.3048 -0.4939
  316MOL0     C43532   2.216  10.931  10.189  0.6332  0.4781 -0.0120
  316MOL0     C43533   2.356  10.868  10.182 -1.1864  0.1928  0.7358
  316MOL0     C43534   2.397  10.824  10.312  0.3287 -0.8869 -0.1432
  316MOL0     C43535   2.441  10.765  10.402  0.8516 -0.7982 -0.7312
  316MOL0     C43536   2.287  11.088   9.828  0.5826  0.2652  0.1143
  316MOL0     C43537   2.345  11.087   9.702  1.2973 -1.0891  0.4752
  316MOL0     C43538   2.340  10.965   9.620 -0.5304  1.0024  0.8874
  316MOL0     H43539   2.527  11.575   9.434 -1.7127 -0.3982 -1.5601
  316MOL0     H43540   2.671  11.663   9.232  1.1261 -0.0639 -0.6479
  316MOL0     H43541   2.978  11.643   9.073  0.0421 -0.0357 -0.0336
  316MOL0     H43542   2.833  11.720   9.140  3.9065  2.7577 -0.4087
  316MOL0     H43543   2.887  11.628   8.848  0.5035  0.7490 -0.4354
  316MOL0     H43544   2.731  11.672   8.914 -1.0693  1.3828  0.1207
  316MOL0     H43545   2.950  11.870   8.951 -1.2601 -0.0875  2.7383
  316MOL0     H43546   2.874  11.837   8.789 -2.0963  2.9176 -0.3910
  316MOL0     H43547   2.656  11.884   8.876  1.9271 -1.0858  0.2108
  316MOL0     H43548   2.720  11.925   9.040  0.2175  1.9813  0.6796
  316MOL0     H43549   2.778  12.058   8.772 -1.7874 -0.2081 -0.7836
  316MOL0     H43550   2.815  12.122   8.939  1.5971 -0.4589 -1.4457
  316MOL0     H43551   2.524  12.075   8.864 -0.3939 -0.0915  0.8525
  316MOL0     H43552   2.601  12.165   8.997  4.9683  0.2103  0.9050
  316MOL0     H43553   2.561  12.260   8.717 -2.4581  1.3381  1.1879
  316MOL0     H43554   2.720  12.299   8.781 -1.3521 -0.0150 -1.4550
  316MOL0     H43555   2.514  12.466   8.838 -0.2330 -0.2028  0.6301
  316MOL0     H43556   2.490  12.345   8.963 -1.9110  1.7147 -0.4027
  316MOL0     H43557   2.727  12.274   9.113 -0.5006 -0.7738  2.0214
  316MOL0     H43558   3.009  12.508   9.250  1.4941  0.6507 -0.3449
  316MOL0     H43559   3.064  12.361   9.166  1.2493  1.9226 -1.5137
  316MOL0     H43560   2.985  12.336   9.411 -1.5414  0.9243  0.1752
  316MOL0     H43561   2.822  12.348   9.349 -1.4356 -1.0637  1.4796
  316MOL0     H43562   2.893  12.155   9.175 -1.1691 -0.7573 -0.0797
  316MOL0     H43563   3.054  12.144   9.245 -0.2384  0.6747 -2.7116
  316MOL0     H43564   2.920  11.957   9.347 -1.0457 -0.5225  0.6265
  316MOL0     H43565   2.929  12.076   9.470 -1.0550 -4.7583  1.7842
  316MOL0     H43566   2.828  11.841   9.497 -0.1539 -1.1095  1.9372
  316MOL0     H43567   2.610  11.603   9.667  0.9846 -2.1587 -0.4931
  316MOL0     H43568   2.741  11.673   9.756 -1.9674 -2.3003 -0.0932
  316MOL0     H43569   2.755  11.624   9.587 -2.6817 -3.2510 -1.5717
  316MOL0     H43570   2.128  11.712   9.729 -2.1060  1.1578 -0.2833
  316MOL0     H43571   1.990  11.615   9.898 -0.3409  1.3544  0.2559
  316MOL0     H43572   1.896  11.518  10.069 -0.3070  1.5838 -0.3272
  316MOL0     H43573   2.064  11.450  10.083  0.7861 -1.6425  3.3455
  316MOL0     H43574   2.055  11.409  10.309 -1.3359 -1.4095  1.6702
  316MOL0     H43575   1.902  11.488  10.322  1.1687  2.4679 -0.0780
  316MOL0     H43576   1.940  11.230  10.176  0.1761  1.5396 -2.2636
  316MOL0     H43577   1.780  11.300  10.200  1.7586 -2.7210 -3.8353
  316MOL0     H43578   1.831  11.291  10.452  2.0648  2.9179 -0.4223
  316MOL0     H43579   1.973  11.205  10.418 -0.9540  3.0496  1.1283
  316MOL0     H43580   1.705  11.119  10.300  0.7119 -2.0178 -1.6328
  316MOL0     H43581   1.845  11.008  10.317 -1.1886 -0.8870 -0.0847
  316MOL0     H43582   1.684  11.106  10.553 -0.0782  0.9139 -0.0752
  316MOL0     H43583   1.823  10.996  10.543 -1.6484  0.2151  1.6846
  316MOL0     H43584   1.636  10.883  10.369 -1.8883  0.7914 -1.8173
  316MOL0     H43585   1.534  10.990  10.467  2.1207  3.5421  0.6822
  316MOL0     H43586   1.638  10.864  10.682  1.5264 -3.1757  0.7065
  316MOL0     H43587   1.701  10.762  10.568  0.5112  0.9670  0.1666
  316MOL0     H43588   2.236  11.805  10.205  0.5988  2.3134 -0.8137
  316MOL0     H43589   2.346  11.926  10.033 -0.2451  1.5014 -0.9370
  316MOL0     H43590   2.421  12.058   9.663 -1.5659 -0.7600 -0.5022
  316MOL0     H43591   2.563  12.167   9.489  1.6803  1.0256 -0.3089
  316MOL0     H43592   2.811  11.284   9.164 -0.9417 -0.3264  1.7934
  316MOL0     H43593   2.696  11.193   9.354 -4.1703 -0.5822  1.2637
  316MOL0     H43594   2.494  11.402   9.760  1.0139 -0.7719 -0.9298
  316MOL0     H43595   2.397  11.379   9.975 -0.3241 -1.0052  0.4787
  316MOL0     H43596   2.390  11.153  10.170 -0.2384 -2.2408 -1.8150
  316MOL0     H43597   2.262  11.267  10.225  2.9896  1.3403  0.2017
  316MOL0     H43598   2.112  11.095  10.260 -1.0993 -4.5254  1.2694
  316MOL0     H43599   2.259  11.062  10.344  0.3422 -2.9843 -0.7839
  316MOL0     H43600   2.145  10.872  10.248  3.0791 -1.1176  1.5054
  316MOL0     H43601   2.186  10.935  10.084  1.3162  0.0449 -0.2269
  316MOL0     H43602   2.434  10.937  10.148  0.4984 -1.2073  1.5809
  316MOL0     H43603   2.350  10.785  10.111 -0.9961  0.4714  0.3908
  316MOL0     H43604   2.497  10.722  10.483  1.5295  0.9497 -0.2306
  316MOL0     H43605   2.220  11.005   9.849 -0.5710  0.5502 -2.0679
  316MOL0     H43606   2.297  10.990   9.522  0.2105 -0.3827  0.1719
  316MOL0     H43607   2.437  10.913   9.611 -1.3412 -1.0684  3.1040
  316MOL0     H43608   2.274  10.889   9.661  2.8405 -1.7754  1.7233
  317MOL0     O43609  10.142   2.502   6.441  0.4598  0.2380  0.0096
  317MOL0     C43610  10.027   2.531   6.466  1.6607  0.5754  0.0459
  317MOL0     O43611   9.976   2.543   6.595 -0.1195 -0.0058  0.6611
  317MOL0     C43612  10.038   2.499   6.715  0.3578  0.1264 -0.2981
  317MOL0     C43613   9.981   2.539   6.845  0.4094  0.0415  0.1340
  317MOL0     C43614  10.042   2.509   6.964  0.0009 -0.2170  0.0543
  317MOL0     C43615  10.164   2.442   6.961  0.4929 -0.0494 -0.2675
  317MOL0     O43616  10.226   2.425   7.088 -0.2366  0.0824  0.0067
  317MOL0     C43617  10.361   2.380   7.098 -0.4517  0.0785  0.1568
  317MOL0     C43618  10.417   2.402   7.248 -0.3910  0.1862 -0.0095
  317MOL0     C43619  10.573   2.410   7.259 -0.4897  0.0480  0.3815
  317MOL0     C43620  10.649   2.290   7.215 -0.8006 -0.1523 -0.2255
  317MOL0     C43621  10.806   2.313   7.225  0.5126 -0.1515 -0.1712
  317MOL0     C43622  10.838   2.395   7.100 -0.0649 -0.3145 -0.5981
  317MOL0     C43623  10.972   2.346   7.037  1.1450 -0.2732 -0.5855
  317MOL0     C43624  11.087   2.396   7.122 -1.0065 -0.2085 -0.1043
  317MOL0     N43625  11.212   2.418   7.042  0.5967  0.0419 -0.5575
  317MOL0     C43626  11.223   2.491   6.920  0.4297 -0.6877 -0.1068
  317MOL0     C43627  11.345   2.480   6.876  0.6180  0.6333 -0.3477
  317MOL0     C43628  11.401   2.568   6.769  0.1685 -0.1226  0.4420
  317MOL0     C43629  11.352   2.528   6.631  0.0464  0.2435  0.4105
  317MOL0     C43630  11.389   2.383   6.595 -0.9615 -0.8883 -0.6241
  317MOL0     C43631  11.365   2.368   6.447 -0.0558  0.5402  0.1619
  317MOL0     O43632  11.232   2.407   6.412  0.0622  0.4026 -0.0039
  317MOL0     C43633  11.128   2.327   6.454  0.2190 -0.2614  0.1849
  317MOL0     C43634  11.125   2.186   6.471 -0.2215  0.1442  0.6596
  317MOL0     C43635  11.022   2.110   6.511  0.6236  0.4100  0.1256
  317MOL0     C43636  11.041   1.961   6.517 -0.9215  0.5776 -0.2054
  317MOL0     C43637  10.902   2.175   6.557 -0.3589 -0.1530 -0.8449
  317MOL0     C43638  10.792   2.111   6.628 -0.4890 -1.1546  0.4027
  317MOL0     O43639  10.700   2.192   6.682  0.6104  0.3022  0.7727
  317MOL0     C43640  10.598   2.127   6.751  0.3318  0.0169 -0.0349
  317MOL0     C43641  10.624   2.071   6.878  1.2164 -0.1476 -0.7595
  317MOL0     C43642  10.528   2.026   6.961  0.7630  0.1495 -0.1072
  317MOL0     C43643  10.399   2.011   6.918  1.0776 -1.3091  1.3373
  317MOL0     O43644  10.296   1.964   6.997 -0.2647  0.5226  0.6334
  317MOL0     C43645  10.307   1.969   7.133 -0.6799 -0.5958  0.0503
  317MOL0     C43646  10.163   1.967   7.193 -0.5703  0.3383  0.6390
  317MOL0     C43647  10.099   2.097   7.158 -0.3647 -0.4419 -0.2998
  317MOL0     C43648   9.948   2.087   7.200 -0.8106  0.0782  0.2556
  317MOL0     C43649   9.877   2.225   7.210 -0.0903  0.6587  0.1540
  317MOL0     C43650   9.739   2.197   7.262 -0.1375 -0.5943 -1.1216
  317MOL0     C43651   9.665   2.336   7.304 -1.1920  0.3477  0.5376
  317MOL0     C43652   9.519   2.294   7.313  0.8099 -0.6154 -1.0887
  317MOL0    Cl43653   9.428   2.427   7.398  0.6480  0.0761  0.1336
  317MOL0     C43654  10.366   2.064   6.793  0.6516 -0.9419  0.3050
  317MOL0     C43655  10.464   2.120   6.705 -0.2699 -0.1975 -0.7196
  317MOL0     O43656  10.775   1.995   6.607  0.2212 -0.7812  1.0590
  317MOL0     C43657  10.894   2.314   6.525 -0.4315 -0.3397 -0.5986
  317MOL0     C43658  11.004   2.384   6.472 -0.4452 -0.3200  0.2278
  317MOL0     N43659  11.414   2.403   6.963 -0.3558  0.2659  0.1843
  317MOL0     N43660  11.339   2.359   7.063 -1.4504  0.1765 -0.2714
  317MOL0     C43661  10.223   2.405   6.846  0.0163  0.1843  0.0449
  317MOL0     C43662  10.162   2.440   6.721 -0.5872  0.3708 -0.2898
  317MOL0     C43663   9.942   2.558   6.351  0.0041  0.5873  0.4896
  317MOL0     C43664  10.005   2.608   6.240 -0.4910  0.1944  0.7333
  317MOL0     C43665   9.926   2.624   6.120  0.1663 -0.1442 -1.0578
  317MOL0     C43666   9.783   2.609   6.117  0.2026  0.0679  0.1806
  317MOL0     O43667   9.707   2.620   6.004  0.1046 -1.5972  0.4577
  317MOL0     C43668   9.767   2.651   5.878 -0.1180  0.6516  1.1626
  317MOL0     C43669   9.815   2.513   5.824  0.3116 -0.5745  0.0823
  317MOL0     C43670   9.953   2.500   5.761  0.3042  1.0396  0.1462
  317MOL0     C43671   9.976   2.588   5.645  0.5577 -0.6780  0.2361
  317MOL0     C43672   9.953   2.534   5.520 -0.8414  0.1055  0.1731
  317MOL0     C43673   9.948   2.492   5.409  0.7110 -0.3122  0.3273
  317MOL0     C43674   9.719   2.569   6.230 -0.0371  0.2967 -0.4853
  317MOL0     C43675   9.798   2.537   6.349  0.5408 -0.7651 -0.4123
  317MOL0     C43676   9.722   2.486   6.465  0.2523  0.2844 -0.1645
  317MOL0     H43677   9.886   2.589   6.830 -0.0140 -0.1313  2.0093
  317MOL0     H43678   9.997   2.551   7.054  1.5773 -0.0543  0.7944
  317MOL0     H43679  10.426   2.429   7.024  1.3012 -1.3898  0.6683
  317MOL0     H43680  10.358   2.273   7.074 -1.6452  0.5833 -2.3739
  317MOL0     H43681  10.382   2.500   7.281 -2.7147  0.1228 -1.9909
  317MOL0     H43682  10.371   2.323   7.308 -1.6701  0.2968 -0.8081
  317MOL0     H43683  10.618   2.501   7.219  0.2487  0.2944  1.7080
  317MOL0     H43684  10.595   2.418   7.366  0.9808  1.0816  0.0425
  317MOL0     H43685  10.619   2.221   7.294 -3.2795  1.6147  0.5013
  317MOL0     H43686  10.617   2.255   7.116 -1.7163 -0.8280  0.2936
  317MOL0     H43687  10.856   2.216   7.233 -2.1616 -1.8356 -2.1634
  317MOL0     H43688  10.843   2.375   7.307 -0.7197 -1.4130  1.4274
  317MOL0     H43689  10.753   2.392   7.031  0.7126 -0.6595 -1.5691
  317MOL0     H43690  10.863   2.495   7.135 -0.8756  0.4301 -2.0493
  317MOL0     H43691  10.966   2.387   6.936 -1.4748  0.9110 -0.0333
  317MOL0     H43692  10.983   2.241   7.011  0.5350 -0.0305 -1.8751
  317MOL0     H43693  11.073   2.487   7.181  0.5243 -0.9547  1.4891
  317MOL0     H43694  11.115   2.322   7.197  2.0245  2.0864  1.2472
  317MOL0     H43695  11.148   2.557   6.876  0.4723  0.2475  1.1837
  317MOL0     H43696  11.510   2.558   6.775  0.1292 -0.2705  1.0445
  317MOL0     H43697  11.365   2.668   6.797  0.2491 -0.9353  3.8843
  317MOL0     H43698  11.244   2.541   6.626  0.2652  2.4668 -3.6308
  317MOL0     H43699  11.393   2.597   6.555 -1.8546 -1.7954 -2.6786
  317MOL0     H43700  11.493   2.362   6.619 -1.0869  0.3682  1.1669
  317MOL0     H43701  11.324   2.325   6.661  0.3850  1.0878  2.6542
  317MOL0     H43702  11.434   2.432   6.391 -0.1551 -2.9578 -4.6070
  317MOL0     H43703  11.397   2.268   6.414  1.9035  0.1621  2.8725
  317MOL0     H43704  11.219   2.143   6.440  0.0611  1.4269 -0.3796
  317MOL0     H43705  11.139   1.922   6.489 -1.8994 -1.1323 -1.3662
  317MOL0     H43706  10.960   1.912   6.464 -1.0028  2.5485 -2.0103
  317MOL0     H43707  11.029   1.932   6.622  0.4223  3.7534  0.9658
  317MOL0     H43708  10.717   2.080   6.934  0.4589  2.4071  0.2488
  317MOL0     H43709  10.562   2.002   7.061 -0.9107  0.5706  0.6118
  317MOL0     H43710  10.363   1.881   7.167 -0.3259  0.2386  1.7180
  317MOL0     H43711  10.370   2.052   7.167 -1.0775  0.2356 -1.1879
  317MOL0     H43712  10.101   1.877   7.182 -0.4307 -0.2168  3.5373
  317MOL0     H43713  10.163   1.970   7.302 -4.2180  0.1188  0.7683
  317MOL0     H43714  10.108   2.135   7.056 -0.6415  2.3282  0.5923
  317MOL0     H43715  10.141   2.181   7.215  0.8362 -0.9252 -0.4552
  317MOL0     H43716   9.952   2.052   7.303  1.3362  2.3198  1.0385
  317MOL0     H43717   9.895   2.029   7.123  1.9537 -0.6841 -1.1830
  317MOL0     H43718   9.932   2.295   7.274 -0.3003  0.4876  0.5304
  317MOL0     H43719   9.878   2.274   7.113 -0.5272 -1.8876 -1.2154
  317MOL0     H43720   9.736   2.140   7.356 -3.2122 -0.7073 -1.2156
  317MOL0     H43721   9.687   2.149   7.179  0.2682 -0.2176 -1.5974
  317MOL0     H43722   9.681   2.416   7.231  3.5591 -0.5430  0.2595
  317MOL0     H43723   9.704   2.382   7.395 -3.3217  0.9216  1.2160
  317MOL0     H43724   9.507   2.200   7.367  0.6943 -0.4001 -0.7385
  317MOL0     H43725   9.489   2.272   7.210 -0.3947 -0.2699 -0.8326
  317MOL0     H43726  10.261   2.056   6.767  0.9989  2.1796 -2.8164
  317MOL0     H43727  10.437   2.168   6.612 -0.9482  0.7582 -0.0545
  317MOL0     H43728  10.799   2.361   6.549 -0.3284 -1.4485  2.2798
  317MOL0     H43729  10.989   2.491   6.474 -0.8714 -0.3648  3.1388
  317MOL0     H43730  10.315   2.349   6.850  0.0734  0.2268  4.6357
  317MOL0     H43731  10.225   2.420   6.635  2.7569  2.1249  1.5381
  317MOL0     H43732  10.111   2.626   6.223 -1.4853  3.7875 -3.4799
  317MOL0     H43733   9.977   2.661   6.031  1.4323  0.0362 -0.2841
  317MOL0     H43734   9.685   2.693   5.820  0.2975  0.9047  0.7592
  317MOL0     H43735   9.846   2.725   5.889  0.7702 -0.4656  2.8724
  317MOL0     H43736   9.743   2.474   5.752 -0.5240  1.2928 -0.1377
  317MOL0     H43737   9.804   2.443   5.907 -0.1215  1.9702  2.2927
  317MOL0     H43738  10.029   2.530   5.834  1.5344 -0.6583 -0.3582
  317MOL0     H43739   9.990   2.399   5.743  0.5624  1.4339 -1.6774
  317MOL0     H43740  10.078   2.628   5.652  0.7390 -0.3921 -2.9518
  317MOL0     H43741   9.909   2.675   5.646 -0.6428 -1.5662 -0.1340
  317MOL0     H43742   9.936   2.449   5.312 -1.0984 -1.5543  1.0486
  317MOL0     H43743   9.612   2.553   6.234  0.0724 -0.1672  2.6848
  317MOL0     H43744   9.720   2.568   6.538  1.3384 -0.3235  0.5867
  317MOL0     H43745   9.616   2.465   6.450 -0.0102  1.2571  0.2350
  317MOL0     H43746   9.779   2.402   6.505 -0.6856 -1.2166 -1.8487
  318MOL0     O43747   8.233   8.703   2.796 -0.1831  0.3214 -0.2330
  318MOL0     C43748   8.161   8.801   2.784 -0.0763  0.0084 -1.2278
  318MOL0     O43749   8.079   8.846   2.880  0.2272 -0.4542 -0.2186
  318MOL0     C43750   8.045   8.776   2.996  0.1739  0.0246 -0.0478
  318MOL0     C43751   7.931   8.817   3.060  0.3301 -1.0994 -0.9155
  318MOL0     C43752   7.880   8.757   3.180  0.0807 -0.5851  0.6292
  318MOL0     C43753   7.948   8.646   3.228 -1.2480  0.2318 -0.8085
  318MOL0     O43754   7.898   8.591   3.344 -0.0812  0.3784 -0.3830
  318MOL0     C43755   7.990   8.549   3.455  0.2709  0.6434 -0.2868
  318MOL0     C43756   7.937   8.431   3.542 -0.3754 -0.1201 -0.1006
  318MOL0     C43757   7.991   8.431   3.690  0.4592  0.2290  0.2674
  318MOL0     C43758   7.922   8.324   3.779  0.9536 -0.8435 -0.0140
  318MOL0     C43759   7.977   8.316   3.917 -0.0958 -0.3729 -0.6221
  318MOL0     C43760   8.115   8.245   3.925  0.1800  0.9671  0.0928
  318MOL0     C43761   8.156   8.264   4.077  0.4710  0.0346  0.6629
  318MOL0     C43762   8.302   8.214   4.097  0.1301  0.6696  0.0353
  318MOL0     N43763   8.361   8.250   4.230 -0.3670  0.2004  0.0660
  318MOL0     C43764   8.357   8.176   4.349 -0.0999  0.9293  0.1245
  318MOL0     C43765   8.409   8.254   4.453  0.1770  0.6717  0.2103
  318MOL0     C43766   8.455   8.213   4.595 -0.1403 -0.6031  0.2175
  318MOL0     C43767   8.341   8.186   4.696 -0.8658 -0.3930 -0.0509
  318MOL0     C43768   8.207   8.124   4.635 -1.3508  0.0326 -0.2962
  318MOL0     C43769   8.118   8.082   4.747 -0.7572 -0.6797 -0.5411
  318MOL0     O43770   7.979   8.060   4.708 -0.8588 -0.3136  0.5090
  318MOL0     C43771   7.931   7.935   4.675  0.1948 -0.4180  0.1461
  318MOL0     C43772   7.958   7.890   4.545  0.1005 -0.5063 -0.4963
  318MOL0     C43773   7.902   7.769   4.498 -0.0033 -0.9165 -0.0204
  318MOL0     C43774   7.926   7.747   4.347  0.7445  0.3947  0.7861
  318MOL0     C43775   7.819   7.697   4.576 -0.1942  0.8349 -0.6000
  318MOL0     C43776   7.748   7.572   4.547  0.1075  0.2128 -0.9722
  318MOL0     O43777   7.643   7.532   4.629  0.4207  0.7487  0.7935
  318MOL0     C43778   7.582   7.402   4.618 -0.0416  0.1078 -0.7434
  318MOL0     C43779   7.538   7.339   4.735 -0.1975 -0.0430 -0.6178
  318MOL0     C43780   7.474   7.211   4.726  0.0797 -0.5907 -0.3649
  318MOL0     C43781   7.460   7.139   4.609  1.3463 -0.4186 -0.2819
  318MOL0     O43782   7.404   7.016   4.612 -0.5719 -0.1987  0.0834
  318MOL0     C43783   7.444   6.921   4.715 -0.1919 -1.3098 -0.2974
  318MOL0     C43784   7.402   6.779   4.674 -0.5161 -1.3478 -0.7107
  318MOL0     C43785   7.451   6.729   4.541 -0.3315 -0.5019 -0.1353
  318MOL0     C43786   7.596   6.734   4.499 -0.0405  1.0723  0.5607
  318MOL0     C43787   7.682   6.657   4.615  0.2447  0.3028  0.1662
  318MOL0     C43788   7.822   6.636   4.563  1.0566 -0.0717 -0.6234
  318MOL0     C43789   7.900   6.553   4.671 -0.6642 -0.4744  0.5768
  318MOL0     C43790   8.035   6.507   4.619 -0.1477  0.0042  0.1598
  318MOL0    Cl43791   8.121   6.633   4.531 -0.4355 -0.5449  0.0159
  318MOL0     C43792   7.484   7.213   4.492  0.9894  0.3334  0.7389
  318MOL0     C43793   7.552   7.338   4.497 -0.2828 -0.1300  0.2128
  318MOL0     O43794   7.793   7.510   4.455  0.1089 -0.0253 -0.6422
  318MOL0     C43795   7.808   7.733   4.703  0.4620  0.7578 -0.8584
  318MOL0     C43796   7.855   7.854   4.760 -0.5085 -0.6214  0.0431
  318MOL0     N43797   8.425   8.381   4.386 -0.2726  0.7057 -0.2114
  318MOL0     N43798   8.400   8.378   4.264 -0.5772  0.0793 -0.0849
  318MOL0     C43799   8.066   8.603   3.168 -0.1936  0.9625 -0.5422
  318MOL0     C43800   8.110   8.663   3.054 -0.8227 -0.3265 -0.1754
  318MOL0     C43801   8.176   8.880   2.660 -0.5401 -0.3240 -0.4760
  318MOL0     C43802   8.299   8.878   2.590  0.8662 -0.5837  0.5944
  318MOL0     C43803   8.323   8.964   2.479 -0.1694  0.7444  1.2653
  318MOL0     C43804   8.222   9.065   2.444  0.0314  0.4280 -0.5086
  318MOL0     O43805   8.258   9.154   2.351 -0.2883  0.3185 -0.2541
  318MOL0     C43806   8.221   9.108   2.216  0.2824 -0.1546 -0.3085
  318MOL0     C43807   8.149   9.227   2.141 -0.3837  0.4835 -0.1204
  318MOL0     C43808   8.237   9.340   2.094  0.4138  0.5093  0.4840
  318MOL0     C43809   8.163   9.436   2.002  0.7511 -0.3018  0.4585
  318MOL0     C43810   8.187   9.424   1.858 -0.3938  0.0898  0.3958
  318MOL0     C43811   8.189   9.438   1.739  0.0222 -0.0298 -0.2220
  318MOL0     C43812   8.105   9.061   2.501 -0.0177 -0.2587  0.0907
  318MOL0     C43813   8.080   8.984   2.612 -0.5758  0.2241 -0.3919
  318MOL0     C43814   7.946   8.999   2.682  0.4706  0.2121  0.2065
  318MOL0     H43815   7.868   8.898   3.026 -1.9027 -2.9161 -1.3627
  318MOL0     H43816   7.789   8.796   3.226  0.2491  0.2092  0.3140
  318MOL0     H43817   8.002   8.629   3.529 -1.5308 -0.1776  0.9550
  318MOL0     H43818   8.092   8.522   3.425  0.1080 -0.2745 -0.0524
  318MOL0     H43819   7.828   8.426   3.539 -0.3951 -1.1373 -4.1073
  318MOL0     H43820   7.953   8.335   3.493  0.6638  0.3922 -0.7937
  318MOL0     H43821   8.100   8.420   3.684  0.7612  1.5935  2.1965
  318MOL0     H43822   7.976   8.535   3.721 -2.0496  0.7270 -2.2005
  318MOL0     H43823   7.814   8.344   3.778  1.1862  1.0140  2.1781
  318MOL0     H43824   7.925   8.222   3.741  0.5353  0.3930 -3.7118
  318MOL0     H43825   7.909   8.258   3.980  0.1523  0.2676  0.2506
  318MOL0     H43826   7.975   8.417   3.957 -0.1464 -0.1865 -1.0905
  318MOL0     H43827   8.110   8.140   3.896  0.6339  1.2754 -1.1284
  318MOL0     H43828   8.181   8.290   3.851 -1.3994  2.7108 -0.3297
  318MOL0     H43829   8.091   8.222   4.154 -2.0495  0.6460 -1.0122
  318MOL0     H43830   8.166   8.372   4.086 -2.3093  0.3518  0.8162
  318MOL0     H43831   8.301   8.106   4.079  0.0847  1.2074 -4.0701
  318MOL0     H43832   8.367   8.250   4.017  0.3807 -0.8558 -0.4715
  318MOL0     H43833   8.346   8.068   4.350  1.4663  0.7070  3.0046
  318MOL0     H43834   8.510   8.302   4.627 -0.6578 -0.4137  0.5849
  318MOL0     H43835   8.527   8.130   4.602  0.3756 -0.0759  1.6085
  318MOL0     H43836   8.391   8.126   4.773 -1.7997  0.8658  1.5960
  318MOL0     H43837   8.321   8.288   4.732  1.1004  0.1371 -0.3401
  318MOL0     H43838   8.163   8.194   4.564  2.6210  1.2248 -1.8592
  318MOL0     H43839   8.240   8.040   4.574  0.5368  1.9013 -2.0551
  318MOL0     H43840   8.163   8.001   4.805  0.4152  0.7041  0.5766
  318MOL0     H43841   8.113   8.170   4.811  3.0429 -0.7340  0.0639
  318MOL0     H43842   8.034   7.943   4.489  0.3502  0.0129  0.3094
  318MOL0     H43843   7.971   7.651   4.321  1.2372  1.1476 -1.4518
  318MOL0     H43844   7.990   7.828   4.308  3.8182 -2.0651  0.3533
  318MOL0     H43845   7.829   7.749   4.297  0.9164 -2.4945  0.1495
  318MOL0     H43846   7.567   7.385   4.829 -0.5527  0.9929 -1.0058
  318MOL0     H43847   7.428   7.181   4.820  1.4780  0.3248  0.6551
  318MOL0     H43848   7.552   6.917   4.733 -0.4411 -1.0205  1.4019
  318MOL0     H43849   7.399   6.958   4.807 -0.1302  0.8222 -1.0648
  318MOL0     H43850   7.432   6.709   4.752  2.5822 -0.5712 -1.0732
  318MOL0     H43851   7.292   6.777   4.670 -0.4846 -2.9758 -1.3323
  318MOL0     H43852   7.405   6.795   4.468  0.7148  2.9788  2.1355
  318MOL0     H43853   7.410   6.628   4.530 -0.3101 -0.4071 -1.2398
  318MOL0     H43854   7.638   6.828   4.463  0.3727  0.6441 -0.0896
  318MOL0     H43855   7.602   6.682   4.404  3.0858  0.9693  0.7156
  318MOL0     H43856   7.685   6.721   4.704 -0.8459  1.3797 -0.5335
  318MOL0     H43857   7.629   6.565   4.642 -0.0544  0.1880 -0.7765
  318MOL0     H43858   7.871   6.733   4.565 -1.0609  1.0785 -1.8608
  318MOL0     H43859   7.823   6.592   4.463 -0.0796  1.5199 -1.3757
  318MOL0     H43860   7.846   6.463   4.702  3.6033 -3.4183  0.4455
  318MOL0     H43861   7.911   6.621   4.756  0.6557  3.9100 -2.6958
  318MOL0     H43862   8.012   6.414   4.566  2.5842 -0.9623  0.4920
  318MOL0     H43863   8.087   6.465   4.705  0.5699  0.2344 -0.1487
  318MOL0     H43864   7.463   7.161   4.399 -0.8356 -1.2648  1.9727
  318MOL0     H43865   7.582   7.382   4.401 -1.1412 -0.0401 -0.0182
  318MOL0     H43866   7.747   7.672   4.769  1.1055  0.6194 -0.3861
  318MOL0     H43867   7.856   7.892   4.862  1.4926 -0.3648 -0.0264
  318MOL0     H43868   8.117   8.516   3.208 -2.6451 -0.5440 -0.4614
  318MOL0     H43869   8.204   8.627   3.016 -1.0781 -0.4301 -0.7192
  318MOL0     H43870   8.373   8.808   2.628  1.3132  1.0875  3.0513
  318MOL0     H43871   8.413   8.961   2.418  0.4338 -3.0268  2.1149
  318MOL0     H43872   8.303   9.066   2.157 -0.3344 -4.0978  1.3685
  318MOL0     H43873   8.153   9.023   2.226 -0.9785  0.9151  0.6268
  318MOL0     H43874   8.074   9.272   2.206  0.3871  0.8613  0.5346
  318MOL0     H43875   8.099   9.191   2.051  2.7150  0.5036 -2.0050
  318MOL0     H43876   8.270   9.384   2.189 -1.1657  3.2574 -0.1350
  318MOL0     H43877   8.320   9.294   2.039  0.9081 -0.4129  1.9350
  318MOL0     H43878   8.193   9.538   2.029 -1.3119  0.3707  0.3560
  318MOL0     H43879   8.055   9.436   2.020  0.8314 -1.6888  1.0639
  318MOL0     H43880   8.194   9.440   1.632 -0.5535  0.0349 -0.2513
  318MOL0     H43881   8.041   9.139   2.460  0.0558  0.0248  0.5142
  318MOL0     H43882   7.893   8.911   2.719 -1.7045  1.2896 -0.1961
  318MOL0     H43883   7.956   9.059   2.773 -0.3140 -0.4912  0.7746
  318MOL0     H43884   7.885   9.055   2.611  1.3700  0.8577 -0.0816
  319MOL0     O43885   1.548   2.827  10.503 -0.6574 -0.3120  1.0080
  319MOL0     C43886   1.518   2.903  10.413 -1.0514  0.4022 -0.3197
  319MOL0     O43887   1.412   2.880  10.323  0.2657  0.0788  0.2452
  319MOL0     C43888   1.364   2.757  10.330  0.0074 -0.0887  1.2823
  319MOL0     C43889   1.286   2.713  10.438 -0.5058  1.1081  0.6314
  319MOL0     C43890   1.216   2.591  10.421  0.2456  0.5989  0.6411
  319MOL0     C43891   1.218   2.508  10.303 -0.1653 -0.6549  0.2659
  319MOL0     O43892   1.158   2.380  10.295  0.2943  0.6737 -0.0537
  319MOL0     C43893   1.086   2.347  10.414  0.7635 -0.0559 -1.6247
  319MOL0     C43894   0.992   2.223  10.384  0.2884 -0.1883 -0.1890
  319MOL0     C43895   1.084   2.102  10.376 -1.0819  0.0715  0.3716
  319MOL0     C43896   0.994   1.985  10.359  0.3513  0.0643 -0.7300
  319MOL0     C43897   0.965   1.944  10.211 -0.4644 -0.8887  0.1197
  319MOL0     C43898   0.975   1.787  10.204 -0.7735 -1.0035  0.0842
  319MOL0     C43899   0.899   1.745  10.079  0.1739  0.1144 -0.2211
  319MOL0     C43900   0.873   1.594  10.085  0.8221 -0.1373 -0.7488
  319MOL0     N43901   0.996   1.522  10.099 -0.3212  0.3224  0.8206
  319MOL0     C43902   1.099   1.530  10.008  0.1346 -0.1782  1.7501
  319MOL0     C43903   1.195   1.478  10.082  0.5445  0.8727 -0.0124
  319MOL0     C43904   1.339   1.438  10.033 -0.5621  0.1865  0.3538
  319MOL0     C43905   1.327   1.342   9.907 -0.5590 -1.2837  0.1092
  319MOL0     C43906   1.467   1.297   9.856 -0.3708 -0.2055  0.2188
  319MOL0     C43907   1.465   1.279   9.708  0.4499  0.9325  0.4304
  319MOL0     O43908   1.360   1.183   9.681  0.6379 -0.4585  0.2601
  319MOL0     C43909   1.323   1.187   9.551  0.5688 -0.1821 -0.6606
  319MOL0     C43910   1.206   1.235   9.503 -0.8009 -0.5820  0.5623
  319MOL0     C43911   1.160   1.222   9.374  0.7583  0.2061  0.6361
  319MOL0     C43912   1.031   1.278   9.335  0.5621 -0.7722  0.3762
  319MOL0     C43913   1.248   1.153   9.288 -0.3385 -0.3167  0.3503
  319MOL0     C43914   1.234   1.146   9.143 -0.2786 -0.0463 -0.5730
  319MOL0     O43915   1.350   1.136   9.073 -0.0967  0.4561  0.6947
  319MOL0     C43916   1.343   1.081   8.952  0.0820 -0.4625  0.1783
  319MOL0     C43917   1.315   1.158   8.841  0.1189  0.0759 -0.2572
  319MOL0     C43918   1.297   1.101   8.709 -0.2992 -0.3205  0.0335
  319MOL0     C43919   1.309   0.964   8.700 -0.3101 -0.3935 -0.5895
  319MOL0     O43920   1.296   0.917   8.572  0.1051  0.0155 -0.0912
  319MOL0     C43921   1.310   0.770   8.541  0.0982  0.2169 -1.0151
  319MOL0     C43922   1.336   0.742   8.390 -0.0624 -0.8016 -0.2169
  319MOL0     C43923   1.220   0.793   8.293  0.1693  0.5285 -1.0781
  319MOL0     C43924   1.113   0.689   8.310 -0.4840 -0.1237  0.0512
  319MOL0     C43925   0.988   0.718   8.220 -0.1601  0.7117  0.5386
  319MOL0     C43926   0.882   0.617   8.270 -0.2085 -0.0900  0.3745
  319MOL0     C43927   0.764   0.619   8.166 -0.2763 -0.3555  0.0159
  319MOL0     C43928   0.680   0.744   8.175  0.1087  0.5862  0.4056
  319MOL0    Cl43929   0.531   0.732   8.070 -0.1662 -0.3931 -0.3055
  319MOL0     C43930   1.354   0.888   8.808  0.5388 -0.6352 -0.4428
  319MOL0     C43931   1.371   0.943   8.938 -0.0971  0.2879  0.5136
  319MOL0     O43932   1.120   1.143   9.100 -0.5146  0.1488  0.2406
  319MOL0     C43933   1.361   1.088   9.337  0.5453 -0.3159  0.0726
  319MOL0     C43934   1.395   1.108   9.469 -0.6188 -0.4976 -0.6844
  319MOL0     N43935   1.156   1.452  10.209 -0.5528 -0.1646 -0.8094
  319MOL0     N43936   1.042   1.488  10.223  0.4913 -0.5811 -0.8504
  319MOL0     C43937   1.302   2.556  10.206 -1.0243  0.6242  0.6834
  319MOL0     C43938   1.374   2.680  10.217  1.4017 -0.6628 -0.1815
  319MOL0     C43939   1.574   3.044  10.402 -0.2194  0.1070 -0.2550
  319MOL0     C43940   1.548   3.121  10.289 -0.2395  0.1462 -0.0790
  319MOL0     C43941   1.600   3.255  10.276 -0.3300  1.3689  0.3627
  319MOL0     C43942   1.673   3.308  10.382 -0.0919 -0.4995  1.0277
  319MOL0     O43943   1.721   3.439  10.384  0.3010  0.5578 -0.2871
  319MOL0     C43944   1.661   3.535  10.298  0.3875  0.4600  0.0946
  319MOL0     C43945   1.695   3.685  10.342 -0.8495  0.3515  0.2262
  319MOL0     C43946   1.658   3.776  10.229  0.1891  0.2997  0.7517
  319MOL0     C43947   1.695   3.922  10.250  0.3750 -1.3126 -0.6142
  319MOL0     C43948   1.584   4.017  10.282 -1.2134 -0.2354 -0.1518
  319MOL0     C43949   1.484   4.083  10.286 -1.0710 -0.7340 -0.6038
  319MOL0     C43950   1.696   3.231  10.492 -0.1116  0.0539 -0.2622
  319MOL0     C43951   1.649   3.105  10.512 -1.3266  0.1927  1.1087
  319MOL0     C43952   1.676   3.040  10.647  0.7623  0.8034 -0.2472
  319MOL0     H43953   1.290   2.781  10.523  2.0007  2.5931 -0.5746
  319MOL0     H43954   1.165   2.564  10.513  1.6408  0.9646  1.5541
  319MOL0     H43955   1.016   2.425  10.443 -1.3910 -2.6472  0.7714
  319MOL0     H43956   1.153   2.315  10.495  0.5230  1.5880 -0.7314
  319MOL0     H43957   0.922   2.213  10.467 -1.4977  1.8060 -1.3556
  319MOL0     H43958   0.945   2.245  10.287 -0.7004  0.7862  0.4888
  319MOL0     H43959   1.161   2.104  10.298  1.0106 -0.9845  2.2642
  319MOL0     H43960   1.149   2.090  10.464 -0.9236  0.8127  0.3625
  319MOL0     H43961   1.041   1.897  10.403 -0.4662 -0.9677 -1.8474
  319MOL0     H43962   0.901   2.009  10.413  1.7082  1.2885  1.2052
  319MOL0     H43963   1.038   1.977  10.136 -3.2817 -1.7111 -3.3137
  319MOL0     H43964   0.866   1.976  10.178  0.2934 -1.0329 -2.5713
  319MOL0     H43965   1.079   1.755  10.196 -0.1870  0.5946  0.9058
  319MOL0     H43966   0.930   1.739  10.292 -1.5654 -0.1261  0.1799
  319MOL0     H43967   0.964   1.757   9.992  2.5851  2.3007  1.7018
  319MOL0     H43968   0.802   1.796  10.075 -0.9926 -1.8502  0.9433
  319MOL0     H43969   0.803   1.560  10.162  1.2278 -3.6669 -1.7497
  319MOL0     H43970   0.819   1.582   9.991  2.2555  2.7888 -2.0495
  319MOL0     H43971   1.107   1.558   9.903 -1.9037  0.0887  1.6424
  319MOL0     H43972   1.392   1.390  10.115  2.6515 -0.8677 -2.1472
  319MOL0     H43973   1.382   1.534  10.005 -2.0183  0.3476 -1.5990
  319MOL0     H43974   1.263   1.260   9.942  0.7106 -1.4223  2.3067
  319MOL0     H43975   1.264   1.384   9.829  0.9582 -0.3529 -0.6527
  319MOL0     H43976   1.540   1.376   9.871  2.1851 -1.8980 -2.3554
  319MOL0     H43977   1.489   1.207   9.913  0.0623  0.8211  1.7251
  319MOL0     H43978   1.433   1.370   9.656 -2.4619 -0.9131 -1.2591
  319MOL0     H43979   1.556   1.229   9.675  0.8592 -0.1915  3.0377
  319MOL0     H43980   1.143   1.274   9.583 -0.4297 -4.0750  2.7901
  319MOL0     H43981   0.973   1.335   9.408 -1.0839  2.6362 -3.2264
  319MOL0     H43982   0.968   1.200   9.292  0.7965 -2.5202  2.9751
  319MOL0     H43983   1.052   1.355   9.260 -1.5165 -0.8215 -0.3195
  319MOL0     H43984   1.299   1.264   8.855  0.9772  0.1337  0.3395
  319MOL0     H43985   1.272   1.171   8.630  0.9393  1.6064  1.2529
  319MOL0     H43986   1.394   0.724   8.593  0.3678  0.8675 -0.8651
  319MOL0     H43987   1.219   0.719   8.575 -0.4817  2.8682  1.7925
  319MOL0     H43988   1.432   0.788   8.364 -1.1662  2.2983  0.8280
  319MOL0     H43989   1.348   0.634   8.376 -0.7158 -0.8711 -0.2361
  319MOL0     H43990   1.251   0.802   8.188 -2.8999  0.0900 -2.1213
  319MOL0     H43991   1.190   0.895   8.316  1.6766  1.4969 -3.0890
  319MOL0     H43992   1.076   0.688   8.413  1.3396  1.4448  0.7726
  319MOL0     H43993   1.149   0.587   8.293  0.3114 -0.1046  1.4822
  319MOL0     H43994   0.947   0.819   8.226  1.1879  1.5342 -2.1544
  319MOL0     H43995   1.009   0.704   8.114 -0.3892  0.6236  0.5049
  319MOL0     H43996   0.832   0.664   8.356 -1.9398  0.8868 -1.1034
  319MOL0     H43997   0.921   0.516   8.283  0.5928 -0.0449 -1.4176
  319MOL0     H43998   0.696   0.537   8.188 -1.9286  1.3792  1.7734
  319MOL0     H43999   0.799   0.615   8.062 -3.0099 -2.1791 -0.9368
  319MOL0     H44000   0.726   0.838   8.144  1.2125 -0.0196  0.1136
  319MOL0     H44001   0.651   0.755   8.279 -3.2019 -0.9599 -0.2407
  319MOL0     H44002   1.370   0.782   8.795  0.4049 -0.7909  0.6180
  319MOL0     H44003   1.396   0.877   9.020 -0.0401  1.2665  1.3047
  319MOL0     H44004   1.429   1.030   9.276 -2.2264 -2.2703 -1.4129
  319MOL0     H44005   1.489   1.078   9.515  0.2568  0.2647 -1.8990
  319MOL0     H44006   1.298   2.505  10.111  1.7958  0.3980  0.6017
  319MOL0     H44007   1.439   2.702  10.133  0.4081 -0.6020 -0.9560
  319MOL0     H44008   1.479   3.086  10.213  0.1073 -0.3451 -0.1739
  319MOL0     H44009   1.578   3.301  10.181 -0.1352  2.3512  0.7862
  319MOL0     H44010   1.683   3.530  10.191  0.0167  4.2041 -0.2852
  319MOL0     H44011   1.552   3.524  10.309  0.4883 -0.1218  0.5492
  319MOL0     H44012   1.802   3.679  10.363 -0.9323  1.8434  1.2092
  319MOL0     H44013   1.644   3.715  10.434  0.8914 -0.0989  1.3990
  319MOL0     H44014   1.704   3.751  10.133 -1.7841  0.6961 -0.3695
  319MOL0     H44015   1.550   3.770  10.208  0.9232 -0.1555 -4.1131
  319MOL0     H44016   1.745   3.961  10.161 -1.1865 -2.4297 -2.0613
  319MOL0     H44017   1.778   3.933  10.320  1.1594  0.3932 -1.7439
  319MOL0     H44018   1.391   4.135  10.296 -2.7090 -2.4656 -4.8647
  319MOL0     H44019   1.764   3.277  10.563  0.9734 -0.2884 -1.0466
  319MOL0     H44020   1.703   2.935  10.634 -2.7096 -0.2121 -0.3825
  319MOL0     H44021   1.761   3.083  10.700  1.7065 -0.4828 -0.6662
  319MOL0     H44022   1.585   3.049  10.707  0.1226  1.1190 -1.2354
  320MOL0     O44023   8.734   8.958   3.640  0.1738 -0.2950 -0.1060
  320MOL0     C44024   8.748   9.022   3.533  0.3628 -0.6467  0.3163
  320MOL0     O44025   8.834   8.976   3.433 -0.5433  0.3575  0.6768
  320MOL0     C44026   8.901   8.856   3.439 -0.1839  0.4704  0.0969
  320MOL0     C44027   8.841   8.727   3.452  0.1836  0.1361 -0.8904
  320MOL0     C44028   8.917   8.607   3.472  0.8494 -0.1631 -1.1661
  320MOL0     C44029   9.054   8.614   3.452  0.3577  0.0051  0.3945
  320MOL0     O44030   9.129   8.494   3.448  0.5132  0.1157  0.7881
  320MOL0     C44031   9.077   8.393   3.360  0.0693 -0.7099  0.2915
  320MOL0     C44032   9.135   8.248   3.380  0.2501  0.0595 -0.2029
  320MOL0     C44033   9.288   8.248   3.364  0.5365  0.6262 -0.5598
  320MOL0     C44034   9.386   8.298   3.467  0.5290  1.0653 -0.1768
  320MOL0     C44035   9.497   8.370   3.392 -0.4738  0.2647 -0.2841
  320MOL0     C44036   9.467   8.519   3.358  0.1848 -1.0241  0.6406
  320MOL0     C44037   9.554   8.553   3.231  0.2349  0.1361  0.4248
  320MOL0     C44038   9.611   8.700   3.243  0.4503 -0.0123 -0.7130
  320MOL0     N44039   9.721   8.695   3.342  0.1771  0.4970  0.6013
  320MOL0     C44040   9.764   8.801   3.402 -1.4937 -0.4197 -0.9104
  320MOL0     C44041   9.877   8.769   3.464 -0.4153  0.9052 -0.9648
  320MOL0     C44042   9.969   8.858   3.543 -0.8631 -0.7038  0.5777
  320MOL0     C44043   9.984   8.814   3.693  0.6580  1.2729 -0.5772
  320MOL0     C44044  10.105   8.728   3.727 -0.3005 -0.5104 -0.0106
  320MOL0     C44045  10.234   8.807   3.723 -0.1246 -0.4125 -0.4912
  320MOL0     O44046  10.350   8.722   3.726  0.6861 -0.4807 -0.3485
  320MOL0     C44047  10.396   8.659   3.612 -0.3873  0.4501 -0.1744
  320MOL0     C44048  10.332   8.667   3.484  0.6751 -0.0701  0.0999
  320MOL0     C44049  10.385   8.609   3.372 -0.8783 -0.1606 -0.0626
  320MOL0     C44050  10.315   8.618   3.245  0.6570  0.0275 -0.0587
  320MOL0     C44051  10.509   8.534   3.386 -0.5027 -0.8358  1.1041
  320MOL0     C44052  10.592   8.485   3.271  0.6511  0.8233  0.7503
  320MOL0     O44053  10.597   8.550   3.145 -1.0044 -0.4076 -0.8016
  320MOL0     C44054  10.638   8.501   3.027  0.7705  0.6168 -1.1488
  320MOL0     C44055  10.706   8.577   2.933  0.3989  0.8397 -0.3484
  320MOL0     C44056  10.770   8.525   2.811  0.3522 -0.1533  0.5585
  320MOL0     C44057  10.751   8.391   2.777 -0.7044 -1.0022 -0.8347
  320MOL0     O44058  10.827   8.340   2.664 -0.5219  0.3926 -0.3075
  320MOL0     C44059  10.800   8.200   2.643 -0.3738  0.8234  0.0825
  320MOL0     C44060  10.874   8.160   2.518 -0.4808  0.1045  0.5140
  320MOL0     C44061  11.029   8.140   2.544 -0.0209 -0.2225 -0.3923
  320MOL0     C44062  11.107   8.128   2.417 -0.4731  0.1494  0.2651
  320MOL0     C44063  11.252   8.182   2.429 -0.0210  0.3336  0.5229
  320MOL0     C44064  11.315   8.226   2.289 -0.4098 -0.3932  0.7141
  320MOL0     C44065  11.362   8.112   2.206  0.5789  0.2374 -0.6344
  320MOL0     C44066  11.409   8.154   2.071  0.6637  0.8398 -0.5087
  320MOL0    Cl44067  11.529   8.293   2.075 -0.4267  0.0868  0.1550
  320MOL0     C44068  10.659   8.319   2.859 -1.1140 -0.7412  0.3368
  320MOL0     C44069  10.613   8.372   2.988  0.1011 -0.0142 -0.6820
  320MOL0     O44070  10.632   8.367   3.290 -0.7580 -0.0158  0.3682
  320MOL0     C44071  10.568   8.513   3.510 -0.1840  0.1612 -0.4392
  320MOL0     C44072  10.511   8.573   3.615  0.0579  0.6141 -0.1076
  320MOL0     N44073   9.883   8.631   3.468  0.1037 -0.1913  0.0640
  320MOL0     N44074   9.795   8.585   3.387  0.2802 -0.0999 -0.6238
  320MOL0     C44075   9.117   8.739   3.452  0.3555  0.1580 -0.8755
  320MOL0     C44076   9.042   8.858   3.453  0.3586  0.6380  0.5848
  320MOL0     C44077   8.670   9.146   3.495  0.7715  0.0183  0.0516
  320MOL0     C44078   8.664   9.187   3.359 -0.5951  0.1037  0.7018
  320MOL0     C44079   8.603   9.304   3.311 -0.2342 -0.4549  0.0214
  320MOL0     C44080   8.530   9.383   3.399 -0.2025 -0.2370  0.3292
  320MOL0     O44081   8.450   9.483   3.359 -0.0087  0.0124  0.2985
  320MOL0     C44082   8.314   9.459   3.351  0.2555 -0.1611 -1.4220
  320MOL0     C44083   8.227   9.583   3.368  0.4888  0.7764 -0.2639
  320MOL0     C44084   8.255   9.703   3.284 -0.4441 -0.6368  0.0609
  320MOL0     C44085   8.216   9.667   3.132  0.9239 -0.0456  0.0599
  320MOL0     C44086   8.290   9.765   3.062  0.7644 -0.4508  0.6406
  320MOL0     C44087   8.353   9.852   2.995  0.1617 -1.3002  0.0771
  320MOL0     C44088   8.523   9.345   3.530 -0.6039 -0.0025 -0.3350
  320MOL0     C44089   8.594   9.237   3.580  0.3053  0.6887  0.7139
  320MOL0     C44090   8.594   9.203   3.727 -0.9825 -0.5239  0.1938
  320MOL0     H44091   8.733   8.739   3.442  0.0695  0.6097  0.7087
  320MOL0     H44092   8.863   8.514   3.487  0.0337  0.4189 -0.3708
  320MOL0     H44093   9.097   8.407   3.253 -0.3263 -3.4977 -0.2357
  320MOL0     H44094   8.972   8.367   3.374  0.2648 -1.0443  1.1973
  320MOL0     H44095   9.095   8.219   3.478 -2.4050 -1.9148 -1.7371
  320MOL0     H44096   9.089   8.176   3.312  0.1883 -0.4681  0.3836
  320MOL0     H44097   9.311   8.142   3.351 -1.1171  0.4313 -2.4829
  320MOL0     H44098   9.313   8.290   3.266  2.5706 -0.3460 -0.5020
  320MOL0     H44099   9.339   8.368   3.536  1.5150  0.8970  0.6878
  320MOL0     H44100   9.437   8.214   3.515 -0.7822 -0.2607 -1.0038
  320MOL0     H44101   9.514   8.311   3.301 -0.3894 -1.3998  0.7740
  320MOL0     H44102   9.594   8.353   3.439 -1.7901 -2.1064  1.8346
  320MOL0     H44103   9.362   8.539   3.336  0.9728  2.5590 -0.4592
  320MOL0     H44104   9.491   8.584   3.442 -1.3500  2.2911 -1.3202
  320MOL0     H44105   9.486   8.543   3.146  0.0558  0.4791  0.5263
  320MOL0     H44106   9.638   8.485   3.219  1.0479  0.9074  1.5556
  320MOL0     H44107   9.634   8.737   3.143  0.9230  0.3969 -0.4561
  320MOL0     H44108   9.530   8.767   3.271  1.7862  2.4520 -2.4226
  320MOL0     H44109   9.733   8.905   3.399 -1.3123 -0.3500 -0.4621
  320MOL0     H44110   9.930   8.959   3.538  0.0998 -0.3945 -3.2358
  320MOL0     H44111  10.062   8.853   3.487  0.2301 -2.4961  2.3916
  320MOL0     H44112   9.981   8.903   3.756  0.1774  2.5921 -2.3590
  320MOL0     H44113   9.893   8.761   3.722  1.2861  0.1667 -0.5843
  320MOL0     H44114  10.087   8.695   3.830 -2.8377  2.7206  0.7411
  320MOL0     H44115  10.111   8.639   3.664  1.8197 -1.0067  0.7883
  320MOL0     H44116  10.241   8.870   3.634 -0.7702  2.7628  1.5370
  320MOL0     H44117  10.235   8.883   3.802  0.2971  0.9750 -1.8031
  320MOL0     H44118  10.237   8.716   3.466 -0.7687 -2.0105  1.8659
  320MOL0     H44119  10.373   8.683   3.179 -0.3325  2.3890  1.3113
  320MOL0     H44120  10.213   8.655   3.242  1.3536  2.1775 -3.3891
  320MOL0     H44121  10.305   8.523   3.191  3.1234  1.3080 -3.1058
  320MOL0     H44122  10.715   8.678   2.969 -0.6490  0.5172  0.9245
  320MOL0     H44123  10.830   8.588   2.746  0.3335 -0.2784  0.4182
  320MOL0     H44124  10.833   8.131   2.722 -1.2505 -2.3922 -2.1419
  320MOL0     H44125  10.693   8.179   2.629 -0.5416 -0.5062  2.6542
  320MOL0     H44126  10.832   8.066   2.482 -0.3349  0.0585  0.4670
  320MOL0     H44127  10.871   8.240   2.444 -0.3073 -0.8326 -0.5374
  320MOL0     H44128  11.046   8.055   2.610  0.4004  0.4375  0.3688
  320MOL0     H44129  11.059   8.228   2.603 -2.1230 -0.8874  1.8531
  320MOL0     H44130  11.058   8.175   2.331  3.1572 -0.3340 -2.2885
  320MOL0     H44131  11.115   8.021   2.396 -0.2528  0.1905  0.1410
  320MOL0     H44132  11.254   8.262   2.503 -0.1402  0.5742  0.2678
  320MOL0     H44133  11.319   8.104   2.465 -0.1447  0.0711  0.1969
  320MOL0     H44134  11.401   8.291   2.311  0.1639  0.0493 -2.4271
  320MOL0     H44135  11.245   8.293   2.238 -0.4520 -0.5873  0.5150
  320MOL0     H44136  11.278   8.042   2.198 -0.3586  1.2498  0.0676
  320MOL0     H44137  11.447   8.062   2.254 -0.9763  0.0405  2.0739
  320MOL0     H44138  11.329   8.185   2.003  0.8226  1.3660 -0.4599
  320MOL0     H44139  11.458   8.070   2.020  0.2853 -0.6308  1.4386
  320MOL0     H44140  10.627   8.222   2.822  0.7661  0.1755 -4.3921
  320MOL0     H44141  10.556   8.297   3.043  0.1059 -1.1175 -2.1314
  320MOL0     H44142  10.662   8.460   3.521 -0.3895 -0.2761 -0.7617
  320MOL0     H44143  10.563   8.575   3.710 -1.0811  1.3814  0.5271
  320MOL0     H44144   9.225   8.743   3.438  0.3028 -0.4188 -1.4674
  320MOL0     H44145   9.099   8.949   3.438  1.8073  0.0827  2.3370
  320MOL0     H44146   8.719   9.127   3.287 -3.2592 -2.5331  0.6862
  320MOL0     H44147   8.608   9.329   3.206 -1.1534 -2.2196 -0.4924
  320MOL0     H44148   8.301   9.404   3.257  0.6128 -3.7151  0.3982
  320MOL0     H44149   8.291   9.384   3.427  1.7129 -0.7997 -1.5762
  320MOL0     H44150   8.239   9.614   3.472  4.1214 -0.8108 -0.0782
  320MOL0     H44151   8.121   9.561   3.349  0.9810 -1.2779 -0.9933
  320MOL0     H44152   8.183   9.780   3.314  0.5778  0.9076 -1.2975
  320MOL0     H44153   8.355   9.743   3.298 -0.3297 -1.6302  2.5896
  320MOL0     H44154   8.111   9.676   3.103  0.6909  1.1377  1.1666
  320MOL0     H44155   8.245   9.565   3.107 -0.6166 -0.0728 -1.8357
  320MOL0     H44156   8.413   9.920   2.938  1.5108 -3.5569 -1.3768
  320MOL0     H44157   8.470   9.408   3.600 -1.1704 -1.9719  1.0954
  320MOL0     H44158   8.506   9.141   3.744 -2.1384  1.0439  0.2069
  320MOL0     H44159   8.685   9.152   3.760  0.7119  1.5520 -1.0003
  320MOL0     H44160   8.594   9.300   3.777  2.7191  0.3582 -1.2291
  321MOL0     O44161  10.764  10.584   8.832 -0.8131  0.5860  1.0332
  321MOL0     C44162  10.792  10.586   8.954  0.2496 -0.2945  0.0051
  321MOL0     O44163  10.909  10.634   9.002 -0.3285 -0.5136  0.5784
  321MOL0     C44164  11.015  10.643   8.915  0.3895 -0.2460 -0.5165
  321MOL0     C44165  11.052  10.540   8.818 -0.5059 -0.7990 -1.0517
  321MOL0     C44166  11.163  10.554   8.736  0.8230 -0.6715  0.4457
  321MOL0     C44167  11.252  10.662   8.755 -0.0081  0.0065  0.2900
  321MOL0     O44168  11.356  10.669   8.655 -0.3818 -0.0075  0.1794
  321MOL0     C44169  11.318  10.766   8.559 -0.2594  0.1489 -0.5185
  321MOL0     C44170  11.435  10.785   8.472  1.4470 -0.0456 -0.5303
  321MOL0     C44171  11.522  10.665   8.436  0.1894  0.0364 -0.2463
  321MOL0     C44172  11.632  10.704   8.335  0.6168 -0.8546  1.4742
  321MOL0     C44173  11.742  10.600   8.337 -0.7867  0.8693  0.0314
  321MOL0     C44174  11.853  10.646   8.245 -0.4108  0.7188 -0.2529
  321MOL0     C44175  11.801  10.676   8.110  0.0811  0.2346  1.0900
  321MOL0     C44176  11.919  10.687   8.014 -0.0469  0.2328 -0.5577
  321MOL0     N44177  11.876  10.741   7.877 -0.1485 -0.4243 -0.5599
  321MOL0     C44178  11.871  10.669   7.763  0.4447  0.4144  0.5344
  321MOL0     C44179  11.855  10.759   7.660  0.5130  0.1918 -1.0788
  321MOL0     C44180  11.845  10.752   7.508  0.0884 -0.7043 -0.3331
  321MOL0     C44181  11.697  10.802   7.469 -0.0434  0.3571 -0.4455
  321MOL0     C44182  11.670  10.766   7.321  0.3138  1.0054  0.7221
  321MOL0     C44183  11.529  10.776   7.280 -0.3349 -1.0483 -0.5263
  321MOL0     O44184  11.460  10.661   7.334 -0.0849 -0.1308 -0.1043
  321MOL0     C44185  11.323  10.676   7.342 -0.3347  0.3317 -0.5157
  321MOL0     C44186  11.258  10.797   7.388  0.0798  0.4562  0.1241
  321MOL0     C44187  11.119  10.802   7.394  0.6428 -0.2835  0.0633
  321MOL0     C44188  11.050  10.936   7.436 -0.5023  0.1322  0.2406
  321MOL0     C44189  11.043  10.686   7.357 -0.0671 -0.1337 -0.4161
  321MOL0     C44190  10.894  10.692   7.345  0.0877 -0.4832 -0.5515
  321MOL0     O44191  10.850  10.613   7.239  0.0121 -0.0178  0.5326
  321MOL0     C44192  10.716  10.588   7.233 -0.8840  0.8260 -0.3900
  321MOL0     C44193  10.621  10.691   7.239 -0.0366 -0.2134 -1.0841
  321MOL0     C44194  10.484  10.657   7.265  0.3085  1.0778 -0.0753
  321MOL0     C44195  10.436  10.531   7.276  0.6417 -0.1662 -0.0014
  321MOL0     O44196  10.307  10.494   7.301  0.4516  0.4044  0.2525
  321MOL0     C44197  10.241  10.556   7.415  0.0468  0.0165  0.2337
  321MOL0     C44198  10.319  10.536   7.549 -0.0454 -0.7235 -1.4530
  321MOL0     C44199  10.221  10.538   7.677  0.1159  0.0987  0.3037
  321MOL0     C44200  10.240  10.396   7.760  0.2545  0.0444 -0.6003
  321MOL0     C44201  10.147  10.378   7.879  0.3162 -0.5662 -0.2096
  321MOL0     C44202  10.179  10.249   7.932 -0.3863  0.5803  1.1594
  321MOL0     C44203  10.111  10.220   8.061  0.6758 -0.0704  0.3461
  321MOL0     C44204  10.143  10.085   8.111 -0.5345 -0.3791 -1.0910
  321MOL0    Cl44205  10.318  10.078   8.140  0.2476 -0.1310  0.5223
  321MOL0     C44206  10.530  10.421   7.275 -0.2466  0.3071 -1.0532
  321MOL0     C44207  10.668  10.455   7.261  0.1885  0.3706  0.6024
  321MOL0     O44208  10.829  10.747   7.437 -0.5903  0.6210  0.4001
  321MOL0     C44209  11.106  10.568   7.314 -0.5518  0.8686 -0.1180
  321MOL0     C44210  11.243  10.566   7.313  0.9695 -0.4091 -0.0040
  321MOL0     N44211  11.860  10.885   7.720  0.1502 -0.2168 -1.0636
  321MOL0     N44212  11.870  10.871   7.854 -0.3672 -0.9611 -0.4316
  321MOL0     C44213  11.226  10.756   8.855  0.2087  0.5574  0.6059
  321MOL0     C44214  11.105  10.752   8.934 -0.2856 -0.1256 -0.8078
  321MOL0     C44215  10.695  10.534   9.056  1.0420 -0.1130  0.1889
  321MOL0     C44216  10.696  10.606   9.179 -1.4891  0.8789  0.1276
  321MOL0     C44217  10.610  10.565   9.281  0.2216 -0.6129  0.5803
  321MOL0     C44218  10.504  10.464   9.261 -0.2419 -0.3617 -0.2925
  321MOL0     O44219  10.407  10.423   9.350 -0.5396  0.4818  0.2066
  321MOL0     C44220  10.449  10.433   9.488 -0.9412 -0.1321 -0.1583
  321MOL0     C44221  10.367  10.358   9.588 -0.1007 -0.7326  0.1699
  321MOL0     C44222  10.219  10.397   9.580 -0.1077  1.0427  0.2831
  321MOL0     C44223  10.176  10.504   9.689 -0.4740  0.6227 -0.0982
  321MOL0     C44224  10.033  10.493   9.720 -0.6925  0.3002  0.4068
  321MOL0     C44225   9.921  10.502   9.759 -0.3080  0.6609  0.0528
  321MOL0     C44226  10.506  10.416   9.141  0.3170  0.9564  0.0172
  321MOL0     C44227  10.597  10.431   9.041 -0.4001 -0.7172  1.6049
  321MOL0     C44228  10.581  10.354   8.906 -0.0048  0.5761 -0.0850
  321MOL0     H44229  10.989  10.452   8.809 -2.6353  0.7747 -2.7743
  321MOL0     H44230  11.179  10.481   8.658  0.8265 -0.9101  0.6682
  321MOL0     H44231  11.302  10.863   8.607  3.2452  1.2262 -1.2170
  321MOL0     H44232  11.235  10.741   8.491 -1.8527  1.2484  0.9185
  321MOL0     H44233  11.392  10.834   8.384  1.1579  1.8784  0.6146
  321MOL0     H44234  11.492  10.865   8.520 -2.5852  2.2307  0.9852
  321MOL0     H44235  11.564  10.618   8.525 -0.2427 -0.4996 -0.3179
  321MOL0     H44236  11.459  10.586   8.392 -0.0803 -1.2566  2.3000
  321MOL0     H44237  11.588  10.724   8.237 -1.0228 -3.2005  1.6414
  321MOL0     H44238  11.671  10.795   8.381 -0.9994  1.2411 -0.9839
  321MOL0     H44239  11.708  10.504   8.296  0.6903  0.0269  0.7296
  321MOL0     H44240  11.775  10.580   8.439 -3.2199  2.1424  1.1721
  321MOL0     H44241  11.900  10.740   8.277 -0.0164  0.8481 -1.1574
  321MOL0     H44242  11.928  10.566   8.247  0.6910  1.7108 -0.3738
  321MOL0     H44243  11.751  10.772   8.127 -0.8623 -0.0656  0.1008
  321MOL0     H44244  11.733  10.594   8.088  2.1065 -1.6422  1.4733
  321MOL0     H44245  11.998  10.754   8.047  0.5338 -0.3703 -0.7057
  321MOL0     H44246  11.968  10.589   8.003  1.1186  0.4473  1.9599
  321MOL0     H44247  11.903  10.566   7.750  0.6600  0.3216  1.6837
  321MOL0     H44248  11.868  10.658   7.457  0.3761 -2.2152  2.4041
  321MOL0     H44249  11.915  10.830   7.477 -0.0413 -0.7822 -0.8348
  321MOL0     H44250  11.634  10.750   7.542  0.9467 -0.5211 -0.1914
  321MOL0     H44251  11.693  10.908   7.492  0.4487 -0.2092  2.6207
  321MOL0     H44252  11.729  10.831   7.255 -1.1204  1.5679 -0.0393
  321MOL0     H44253  11.710  10.664   7.310 -1.0959  0.2664  2.0563
  321MOL0     H44254  11.499  10.871   7.325 -0.8932 -1.6523  0.4346
  321MOL0     H44255  11.514  10.768   7.172 -1.7449 -1.9415 -0.3029
  321MOL0     H44256  11.316  10.882   7.421 -1.3924  1.3912  0.3826
  321MOL0     H44257  10.984  10.927   7.523 -3.0216  0.1562 -1.5833
  321MOL0     H44258  10.991  10.972   7.352  2.2408  0.6924 -1.5732
  321MOL0     H44259  11.135  11.003   7.456  1.3917 -1.1795 -2.7525
  321MOL0     H44260  10.651  10.796   7.235 -1.7839  0.3654 -0.1271
  321MOL0     H44261  10.420  10.744   7.276  0.5488  0.9187  4.3986
  321MOL0     H44262  10.222  10.663   7.400 -1.1070  0.2822  2.8716
  321MOL0     H44263  10.138  10.518   7.418  0.6739 -1.6826  1.1321
  321MOL0     H44264  10.370  10.440   7.541 -0.7426 -1.5206  1.8860
  321MOL0     H44265  10.385  10.623   7.560 -0.5829 -0.5865  1.4680
  321MOL0     H44266  10.118  10.532   7.642  0.3005 -3.3273  0.0439
  321MOL0     H44267  10.243  10.621   7.745  1.1262 -1.3340  1.8005
  321MOL0     H44268  10.347  10.382   7.777  0.1018  0.3879  0.7096
  321MOL0     H44269  10.217  10.323   7.682  0.0379 -1.1682  0.5594
  321MOL0     H44270  10.173  10.456   7.951  3.4553 -0.4844 -1.2476
  321MOL0     H44271  10.050  10.387   7.830  0.1215 -0.0922  0.2535
  321MOL0     H44272  10.288  10.253   7.935 -0.3206 -0.4120  0.7427
  321MOL0     H44273  10.148  10.168   7.865 -0.2026  2.2544 -1.0565
  321MOL0     H44274  10.005  10.233   8.040  1.4363  2.5820 -2.6040
  321MOL0     H44275  10.130  10.293   8.140  3.7898 -1.1598  0.7591
  321MOL0     H44276  10.110   9.992   8.064 -2.1949 -2.6627  3.8055
  321MOL0     H44277  10.100  10.067   8.211 -2.1823 -1.4621 -1.9541
  321MOL0     H44278  10.502  10.318   7.295  3.8344 -0.4317  2.3302
  321MOL0     H44279  10.739  10.374   7.257 -2.4483 -2.0843 -0.5291
  321MOL0     H44280  11.041  10.487   7.284 -2.2322  1.1630  2.4661
  321MOL0     H44281  11.286  10.472   7.280  0.5567 -1.5734  2.5058
  321MOL0     H44282  11.294  10.839   8.868 -0.2698  0.9571  0.5905
  321MOL0     H44283  11.089  10.827   9.011  1.3077 -1.1589  0.6070
  321MOL0     H44284  10.755  10.696   9.192  1.4862 -0.2305 -3.7666
  321MOL0     H44285  10.602  10.621   9.374 -1.8952  2.0291 -1.0703
  321MOL0     H44286  10.551  10.394   9.494 -1.2992 -0.8787  2.2572
  321MOL0     H44287  10.443  10.539   9.517 -0.1369 -0.5702  1.7628
  321MOL0     H44288  10.401  10.379   9.690 -0.3906 -1.9106  0.5358
  321MOL0     H44289  10.389  10.253   9.567 -3.7681 -1.7060  0.3664
  321MOL0     H44290  10.209  10.438   9.479 -0.4417  0.5254  0.1052
  321MOL0     H44291  10.150  10.313   9.584 -1.7599  2.0391 -3.3252
  321MOL0     H44292  10.204  10.605   9.659 -0.0618  0.2923 -0.8676
  321MOL0     H44293  10.226  10.484   9.784 -0.2225  1.9975  0.0710
  321MOL0     H44294   9.816  10.510   9.782  0.0906  1.7114  1.6881
  321MOL0     H44295  10.428  10.344   9.114 -1.0291  2.0639  0.8374
  321MOL0     H44296  10.515  10.267   8.901 -0.8045  1.2235 -1.8607
  321MOL0     H44297  10.519  10.422   8.846  0.3214  0.9685  0.0130
  321MOL0     H44298  10.674  10.326   8.855  0.8099  1.0610  1.0915
  322MOL0     O44299   4.303   0.441   2.204 -0.8381 -0.3369  0.3504
  322MOL0     C44300   4.346   0.552   2.168 -0.7752 -0.4970 -0.5674
  322MOL0     O44301   4.432   0.621   2.237 -0.1145 -0.4168  0.1657
  322MOL0     C44302   4.538   0.559   2.303  0.4246  0.5003  0.2457
  322MOL0     C44303   4.600   0.656   2.385  1.0339  0.2535  1.1077
  322MOL0     C44304   4.716   0.627   2.452  0.7319 -0.6071 -0.5596
  322MOL0     C44305   4.776   0.493   2.443 -0.7507 -0.5889 -0.5698
  322MOL0     O44306   4.888   0.469   2.519 -0.1806  0.6536 -0.0317
  322MOL0     C44307   4.875   0.332   2.588  0.0674 -0.2532  0.1735
  322MOL0     C44308   4.994   0.329   2.686  0.2305  0.4621 -0.4570
  322MOL0     C44309   4.988   0.207   2.787 -0.2240  0.8646 -0.1328
  322MOL0     C44310   5.110   0.119   2.774 -0.5809  0.0131 -0.9656
  322MOL0     C44311   5.136   0.022   2.887  0.0638  0.0030 -0.2169
  322MOL0     C44312   5.112  -0.125   2.861 -0.4206  0.1374  0.1369
  322MOL0     C44313   4.957  -0.154   2.862 -0.1709 -0.2168  1.1288
  322MOL0     C44314   4.922  -0.297   2.826  0.0084 -0.0285 -0.2564
  322MOL0     N44315   4.905  -0.376   2.945  0.8564  0.1489 -0.9503
  322MOL0     C44316   4.787  -0.403   3.007  0.1680 -0.9100 -0.3014
  322MOL0     C44317   4.805  -0.500   3.101 -0.0140 -0.4386 -0.2423
  322MOL0     C44318   4.707  -0.567   3.202 -0.5985  0.6411  0.2688
  322MOL0     C44319   4.624  -0.480   3.298 -0.2767 -0.2799 -1.0739
  322MOL0     C44320   4.533  -0.578   3.380  0.5384  1.0287  0.4128
  322MOL0     C44321   4.585  -0.609   3.514  0.6148  0.1873  0.2201
  322MOL0     O44322   4.476  -0.679   3.587  0.6171  0.0615 -0.4288
  322MOL0     C44323   4.501  -0.671   3.721  0.1389  0.1390 -0.1577
  322MOL0     C44324   4.592  -0.757   3.784  0.8075 -0.5144  0.3150
  322MOL0     C44325   4.607  -0.747   3.917 -0.2748 -0.0382 -0.6041
  322MOL0     C44326   4.691  -0.847   3.981 -0.1475 -0.4513  0.2579
  322MOL0     C44327   4.549  -0.642   3.996 -0.2417 -0.4913  0.5987
  322MOL0     C44328   4.586  -0.600   4.134 -0.1689  0.3802 -0.8416
  322MOL0     O44329   4.495  -0.526   4.202 -0.1141 -0.5664 -0.6366
  322MOL0     C44330   4.520  -0.488   4.331 -0.2614  0.7430  0.1305
  322MOL0     C44331   4.433  -0.536   4.424 -0.7764  0.9211 -0.8155
  322MOL0     C44332   4.445  -0.500   4.561 -0.2232 -0.1501 -0.1436
  322MOL0     C44333   4.548  -0.400   4.592 -0.0573 -0.3576 -0.3209
  322MOL0     O44334   4.564  -0.336   4.717  0.0980 -0.6249  0.4663
  322MOL0     C44335   4.438  -0.301   4.789 -0.2250 -0.6162 -0.3827
  322MOL0     C44336   4.386  -0.398   4.901 -0.3756  0.2764 -0.5876
  322MOL0     C44337   4.485  -0.383   5.018  0.1842 -0.7592 -1.2392
  322MOL0     C44338   4.422  -0.293   5.122  0.7658 -0.4707  0.0868
  322MOL0     C44339   4.527  -0.249   5.232 -0.6790 -0.9469 -0.6983
  322MOL0     C44340   4.531  -0.344   5.360  0.2108 -0.8563  1.0187
  322MOL0     C44341   4.423  -0.308   5.461 -0.7670  0.6255  0.1217
  322MOL0     C44342   4.399  -0.167   5.497  0.2389 -0.0468  0.1405
  322MOL0    Cl44343   4.295  -0.143   5.634  0.0730  0.0601 -0.6794
  322MOL0     C44344   4.639  -0.356   4.495 -0.0752 -0.6126  0.4040
  322MOL0     C44345   4.627  -0.400   4.364 -0.4720  0.8083 -0.1477
  322MOL0     O44346   4.694  -0.636   4.182 -0.3590  0.4277  0.4736
  322MOL0     C44347   4.460  -0.553   3.936  0.9443  0.2297 -0.3456
  322MOL0     C44348   4.434  -0.575   3.799  0.3969  1.3338  0.9308
  322MOL0     N44349   4.939  -0.529   3.102 -0.2896 -0.1128 -0.0743
  322MOL0     N44350   4.995  -0.453   3.017  0.4782  0.1548 -0.0361
  322MOL0     C44351   4.720   0.409   2.345 -0.9421  0.1039  0.0890
  322MOL0     C44352   4.602   0.444   2.279  0.5146  0.1595  0.4839
  322MOL0     C44353   4.295   0.622   2.047 -0.2922 -0.4296 -0.9745
  322MOL0     C44354   4.341   0.757   2.021 -0.0136 -1.1887 -0.8022
  322MOL0     C44355   4.298   0.844   1.922  0.0205 -0.2531 -0.4382
  322MOL0     C44356   4.190   0.796   1.844 -0.4755  0.6046 -0.5852
  322MOL0     O44357   4.136   0.879   1.737 -0.5427  0.3930 -0.3906
  322MOL0     C44358   4.011   0.830   1.675 -0.0323 -0.5994 -0.0490
  322MOL0     C44359   3.974   0.946   1.579  1.2558  0.2395  0.2200
  322MOL0     C44360   3.828   0.928   1.515  0.1618  1.3814  0.1903
  322MOL0     C44361   3.783   1.045   1.439  0.2229  0.7241  0.0629
  322MOL0     C44362   3.630   1.053   1.435 -0.1063 -0.1848  0.2608
  322MOL0     C44363   3.511   1.063   1.405  0.5070  0.1903  0.2379
  322MOL0     C44364   4.134   0.670   1.875 -0.5473  0.0611 -0.2927
  322MOL0     C44365   4.188   0.579   1.970  0.4561  0.1512 -0.2246
  322MOL0     C44366   4.135   0.439   1.972 -0.4388  0.5753 -0.0763
  322MOL0     H44367   4.560   0.757   2.392 -0.9547 -0.4574  0.6531
  322MOL0     H44368   4.762   0.696   2.522 -0.0960 -2.2970  1.7680
  322MOL0     H44369   4.876   0.248   2.518  1.4685  0.4884 -0.7531
  322MOL0     H44370   4.788   0.329   2.654  2.2067  2.2606  3.4415
  322MOL0     H44371   5.089   0.315   2.634 -0.0525 -3.6643 -0.1892
  322MOL0     H44372   5.001   0.425   2.737  0.1869 -0.6036  1.6640
  322MOL0     H44373   4.989   0.245   2.890  4.8506 -1.1794  0.8544
  322MOL0     H44374   4.899   0.145   2.772 -0.9294  1.5277  1.1053
  322MOL0     H44375   5.105   0.071   2.676  0.1865  1.3122 -1.6708
  322MOL0     H44376   5.205   0.172   2.786  0.7519 -2.6476  1.3323
  322MOL0     H44377   5.093   0.057   2.981  0.1746 -3.0188  1.0818
  322MOL0     H44378   5.242   0.036   2.910 -0.4077  1.7481  1.1022
  322MOL0     H44379   5.157  -0.162   2.769 -1.3894 -2.3493  0.5888
  322MOL0     H44380   5.168  -0.178   2.937  1.0325 -1.8184 -2.1483
  322MOL0     H44381   4.914  -0.099   2.778 -0.5622 -1.7924  0.2640
  322MOL0     H44382   4.890  -0.124   2.943 -2.0028  0.1807 -0.4667
  322MOL0     H44383   4.836  -0.309   2.760 -0.7376  0.0660  0.6699
  322MOL0     H44384   5.006  -0.334   2.765  1.0285  1.2179  0.3446
  322MOL0     H44385   4.691  -0.368   2.972  1.0046  1.4552 -0.4502
  322MOL0     H44386   4.765  -0.647   3.248 -0.7557  0.2101 -0.2777
  322MOL0     H44387   4.635  -0.612   3.134 -0.7101 -1.5957  1.7784
  322MOL0     H44388   4.688  -0.423   3.366  2.0746 -1.8348 -1.8639
  322MOL0     H44389   4.558  -0.414   3.241  2.4244  1.7549 -2.0514
  322MOL0     H44390   4.430  -0.542   3.395  0.0891  0.1454 -0.4039
  322MOL0     H44391   4.516  -0.670   3.323  2.8163  1.3205 -0.8452
  322MOL0     H44392   4.666  -0.683   3.506 -1.2770 -2.2499  2.0926
  322MOL0     H44393   4.611  -0.515   3.563 -0.4684  0.2493  0.7033
  322MOL0     H44394   4.639  -0.836   3.725  1.3944 -0.9770  1.3630
  322MOL0     H44395   4.792  -0.805   3.975 -0.5605  0.3625 -3.8791
  322MOL0     H44396   4.691  -0.940   3.924 -2.3592 -0.4898  0.2569
  322MOL0     H44397   4.664  -0.865   4.086  2.9327 -1.3151  1.0237
  322MOL0     H44398   4.352  -0.605   4.400 -0.7060 -0.3798  2.2401
  322MOL0     H44399   4.372  -0.530   4.635 -0.5702 -1.6161 -1.0311
  322MOL0     H44400   4.439  -0.199   4.830  2.4578 -2.1402  4.1186
  322MOL0     H44401   4.362  -0.303   4.710  0.5351 -1.6605 -1.0996
  322MOL0     H44402   4.281  -0.376   4.921 -0.6408  0.2065 -1.7941
  322MOL0     H44403   4.401  -0.501   4.865 -0.2375 -0.4064  1.2974
  322MOL0     H44404   4.579  -0.335   4.989  0.3630 -0.5763 -0.3629
  322MOL0     H44405   4.503  -0.477   5.071 -0.7114 -0.4185 -0.2927
  322MOL0     H44406   4.347  -0.354   5.172 -1.4542 -1.1546 -3.7800
  322MOL0     H44407   4.383  -0.202   5.076 -0.1719 -0.1765  1.3931
  322MOL0     H44408   4.626  -0.244   5.185 -1.1725 -0.5081 -1.7082
  322MOL0     H44409   4.502  -0.145   5.254  1.3506 -0.0478 -2.3061
  322MOL0     H44410   4.622  -0.323   5.416  1.7685  0.4039 -1.7828
  322MOL0     H44411   4.527  -0.447   5.324 -1.6602  0.3658 -2.8517
  322MOL0     H44412   4.461  -0.361   5.549  1.3021 -1.4357 -1.8590
  322MOL0     H44413   4.332  -0.356   5.426 -1.1430 -1.2267  3.2846
  322MOL0     H44414   4.353  -0.114   5.413 -0.9623  0.8116  1.3160
  322MOL0     H44415   4.491  -0.115   5.525 -0.6359  0.5487  2.0258
  322MOL0     H44416   4.709  -0.276   4.514  1.2233 -0.9685 -2.3912
  322MOL0     H44417   4.696  -0.374   4.285 -0.2463  1.6210  0.3114
  322MOL0     H44418   4.412  -0.466   3.979 -0.4445  0.5410 -2.3841
  322MOL0     H44419   4.354  -0.527   3.743 -2.5754 -3.3091  0.7200
  322MOL0     H44420   4.776   0.318   2.329  1.5988  1.6385 -0.2439
  322MOL0     H44421   4.555   0.389   2.198  0.9542  1.2347 -0.5243
  322MOL0     H44422   4.424   0.782   2.087  0.4298 -0.2453 -1.6882
  322MOL0     H44423   4.357   0.934   1.906  1.0004 -0.8482 -0.2549
  322MOL0     H44424   4.043   0.737   1.626  1.5863 -1.5762  2.6508
  322MOL0     H44425   3.927   0.802   1.740 -1.0096 -1.6644 -1.6611
  322MOL0     H44426   4.058   0.958   1.510  2.2842 -5.8043 -0.0532
  322MOL0     H44427   3.974   1.035   1.643 -1.2144 -0.8054  1.8129
  322MOL0     H44428   3.829   0.845   1.444 -1.8883  0.9419  0.5967
  322MOL0     H44429   3.753   0.915   1.594  1.3304  3.1805  1.6781
  322MOL0     H44430   3.835   1.046   1.343  0.5421 -2.2005  0.1176
  322MOL0     H44431   3.823   1.130   1.494  1.3900  0.6033 -0.5766
  322MOL0     H44432   3.410   1.072   1.371  1.6621  1.7230 -3.1816
  322MOL0     H44433   4.046   0.646   1.817  0.0742  1.0904 -1.7313
  322MOL0     H44434   4.118   0.396   2.071 -1.1564  0.9808 -0.0186
  322MOL0     H44435   4.032   0.432   1.937 -0.6202  1.1224  0.3310
  322MOL0     H44436   4.209   0.378   1.920  1.1333 -1.2591  3.8890
  323MOL0     O44437  11.167   2.288   7.552  0.3702  0.4781  0.1901
  323MOL0     C44438  11.201   2.354   7.650 -0.7432  0.2796  0.3034
  323MOL0     O44439  11.152   2.334   7.773  0.1644  0.2292 -0.3320
  323MOL0     C44440  11.087   2.220   7.806  0.4593 -0.1405  0.5356
  323MOL0     C44441  10.960   2.182   7.753  0.1086 -0.0489 -1.0649
  323MOL0     C44442  10.901   2.073   7.809 -1.2083  1.0308 -0.4961
  323MOL0     C44443  10.962   2.003   7.922 -0.8368 -0.7025  0.7104
  323MOL0     O44444  10.922   1.889   7.989  0.5849 -0.0601  0.1812
  323MOL0     C44445  10.866   1.779   7.903  0.6857 -0.6581 -0.4424
  323MOL0     C44446  10.901   1.646   7.963  0.6006 -0.0605  0.1648
  323MOL0     C44447  10.790   1.544   7.893 -0.2140 -0.8805 -0.1548
  323MOL0     C44448  10.812   1.399   7.955 -0.2841  0.2451 -0.9141
  323MOL0     C44449  10.712   1.301   7.892  0.5549  0.1478 -1.0721
  323MOL0     C44450  10.726   1.159   7.948  0.2717  0.2219  0.0338
  323MOL0     C44451  10.671   1.048   7.858  0.7344  0.5164 -0.8409
  323MOL0     C44452  10.684   0.902   7.925 -1.0889  0.2497  0.2837
  323MOL0     N44453  10.635   0.803   7.834  0.9991  0.3757 -0.3440
  323MOL0     C44454  10.714   0.738   7.743  0.0475 -0.1616  0.1660
  323MOL0     C44455  10.631   0.650   7.695 -0.6764 -0.2239  0.6836
  323MOL0     C44456  10.671   0.561   7.586 -0.0323 -0.4848 -0.3832
  323MOL0     C44457  10.786   0.477   7.623  0.6585  0.9821  0.2406
  323MOL0     C44458  10.842   0.397   7.509  0.2199  0.1693  0.6637
  323MOL0     C44459  10.938   0.286   7.553 -0.5005  0.2990  0.3125
  323MOL0     O44460  10.851   0.187   7.605  0.5631 -0.9218 -0.8437
  323MOL0     C44461  10.900   0.085   7.675 -0.5667 -0.3250  0.0041
  323MOL0     C44462  10.821   0.020   7.774  0.5945 -0.5789 -0.6437
  323MOL0     C44463  10.875  -0.076   7.869  0.5085  0.0345 -0.2099
  323MOL0     C44464  10.784  -0.114   7.985  0.7346  1.0279 -0.2539
  323MOL0     C44465  11.013  -0.103   7.866 -0.5146 -0.4172  0.5634
  323MOL0     C44466  11.089  -0.180   7.978 -0.0271  0.3883  0.4165
  323MOL0     O44467  11.215  -0.217   7.944  0.1034  0.1582 -0.6636
  323MOL0     C44468  11.308  -0.240   8.043 -0.1415 -0.4002  0.1286
  323MOL0     C44469  11.400  -0.148   8.075 -0.9464  0.4016 -0.5555
  323MOL0     C44470  11.501  -0.186   8.164 -0.2292  0.2034  0.3154
  323MOL0     C44471  11.507  -0.310   8.223  0.2283  0.4043 -0.0156
  323MOL0     O44472  11.617  -0.331   8.305  0.1540  0.5593  0.1286
  323MOL0     C44473  11.662  -0.456   8.338  0.6239  0.0488 -0.1125
  323MOL0     C44474  11.735  -0.455   8.468  0.1942 -0.4548 -0.0930
  323MOL0     C44475  11.831  -0.334   8.480 -1.1737  0.0630 -0.0386
  323MOL0     C44476  11.932  -0.360   8.596  0.6379  0.2664 -0.0881
  323MOL0     C44477  12.054  -0.261   8.573  0.2325  0.7647 -0.2857
  323MOL0     C44478  12.175  -0.316   8.653 -0.1587 -0.1521  0.0375
  323MOL0     C44479  12.307  -0.238   8.639 -0.3385  0.6839 -0.2299
  323MOL0     C44480  12.344  -0.246   8.486 -0.3946 -0.0583 -0.1866
  323MOL0    Cl44481  12.510  -0.188   8.455 -0.6294  0.1100 -0.6534
  323MOL0     C44482  11.394  -0.391   8.203 -0.0584 -0.3546 -1.2753
  323MOL0     C44483  11.294  -0.360   8.117  0.7320 -0.4771  1.0116
  323MOL0     O44484  11.039  -0.199   8.090 -0.7945 -0.1107 -0.8207
  323MOL0     C44485  11.090  -0.052   7.756  0.6031 -0.6296 -0.2366
  323MOL0     C44486  11.034   0.045   7.667 -0.3873  0.0232 -0.5346
  323MOL0     N44487  10.511   0.657   7.767  0.0830  0.0296 -0.0719
  323MOL0     N44488  10.511   0.749   7.855  0.1092 -0.5589 -0.0436
  323MOL0     C44489  11.094   2.032   7.953  0.4016  1.0057  0.4248
  323MOL0     C44490  11.153   2.142   7.899  0.8319  0.0925  0.8529
  323MOL0     C44491  11.319   2.443   7.643  0.3216 -0.0055 -1.1733
  323MOL0     C44492  11.368   2.507   7.758 -0.0459 -0.7151  0.5444
  323MOL0     C44493  11.477   2.592   7.759 -0.8361 -0.1933  0.0186
  323MOL0     C44494  11.550   2.599   7.636  0.5178  0.2198 -0.0913
  323MOL0     O44495  11.656   2.688   7.633 -0.1656 -0.1022 -0.3437
  323MOL0     C44496  11.773   2.660   7.547  0.4150  0.2876 -0.6382
  323MOL0     C44497  11.909   2.662   7.629  0.0973 -0.6056  0.1082
  323MOL0     C44498  11.930   2.524   7.693  0.0475  0.1723  0.7199
  323MOL0     C44499  11.984   2.526   7.837  0.4294 -0.6375  0.6069
  323MOL0     C44500  12.116   2.593   7.826 -0.4517  0.7345  0.1103
  323MOL0     C44501  12.229   2.643   7.830 -0.3440 -0.1426  0.6913
  323MOL0     C44502  11.508   2.534   7.522 -0.0196 -0.2550 -0.1319
  323MOL0     C44503  11.394   2.463   7.522  0.5025  1.1441  0.8062
  323MOL0     C44504  11.359   2.399   7.385 -0.2493  0.9090 -0.2746
  323MOL0     H44505  10.915   2.248   7.679 -1.2802  0.8768  0.5207
  323MOL0     H44506  10.808   2.035   7.768 -0.2656 -0.6091 -1.2416
  323MOL0     H44507  10.911   1.786   7.804  2.1385  2.5893  0.3036
  323MOL0     H44508  10.760   1.803   7.896  0.5485 -0.3937  1.8213
  323MOL0     H44509  11.007   1.621   7.949  1.0117  0.4523  2.1437
  323MOL0     H44510  10.892   1.641   8.071 -0.7197 -1.6630  0.0253
  323MOL0     H44511  10.692   1.580   7.925  0.2001 -1.6075  2.0905
  323MOL0     H44512  10.788   1.543   7.783 -1.4634  0.1043 -0.1624
  323MOL0     H44513  10.912   1.371   7.922  0.3301  0.2659  0.8607
  323MOL0     H44514  10.800   1.393   8.063 -1.3084 -1.4122 -1.0762
  323MOL0     H44515  10.729   1.296   7.784 -0.1490 -0.5738 -1.1574
  323MOL0     H44516  10.609   1.338   7.901  0.8055  0.7898 -0.7318
  323MOL0     H44517  10.832   1.133   7.960 -0.1440 -2.9100 -2.0664
  323MOL0     H44518  10.677   1.150   8.045  2.9731  0.0939  1.4926
  323MOL0     H44519  10.721   1.044   7.761 -0.4626  1.4835 -1.5207
  323MOL0     H44520  10.563   1.064   7.850  0.0276 -3.8994 -2.5618
  323MOL0     H44521  10.784   0.865   7.952 -1.2988 -0.2744  0.3563
  323MOL0     H44522  10.631   0.893   8.020 -2.9468 -0.2048 -0.7649
  323MOL0     H44523  10.810   0.764   7.700  0.2906  0.3265  0.9891
  323MOL0     H44524  10.710   0.626   7.507 -2.0645  1.8487  0.3751
  323MOL0     H44525  10.586   0.499   7.556 -0.5929 -0.0564  0.2894
  323MOL0     H44526  10.868   0.540   7.661  1.5058 -0.0409  0.1643
  323MOL0     H44527  10.759   0.407   7.703 -1.9837  0.8979 -0.6245
  323MOL0     H44528  10.759   0.354   7.452 -0.3202  2.0768 -0.0331
  323MOL0     H44529  10.890   0.465   7.439 -0.8177 -3.2140 -3.8558
  323MOL0     H44530  11.005   0.244   7.477 -0.2592  1.1436  0.0475
  323MOL0     H44531  10.999   0.314   7.640  1.1097 -1.6794 -0.1033
  323MOL0     H44532  10.714   0.032   7.762  0.7325  2.2032  0.2773
  323MOL0     H44533  10.691  -0.057   7.983  1.2085  1.8004 -1.0237
  323MOL0     H44534  10.829  -0.103   8.084  1.6371 -0.5258 -0.4593
  323MOL0     H44535  10.760  -0.220   7.985  0.0628  1.1611 -1.2927
  323MOL0     H44536  11.402  -0.056   8.017 -4.3224  0.0190 -1.5163
  323MOL0     H44537  11.581  -0.114   8.180  1.3884 -1.3972 -0.2681
  323MOL0     H44538  11.584  -0.532   8.337 -0.1840  0.8711 -0.2474
  323MOL0     H44539  11.737  -0.494   8.267  0.0906 -1.5484  0.1327
  323MOL0     H44540  11.660  -0.435   8.545  2.2978  1.3391  1.6581
  323MOL0     H44541  11.791  -0.546   8.494 -0.2058 -0.7536 -0.2816
  323MOL0     H44542  11.775  -0.246   8.511  0.5208  0.5022  2.0157
  323MOL0     H44543  11.881  -0.315   8.384  2.0394  0.9452  1.6492
  323MOL0     H44544  11.959  -0.466   8.594 -0.6086 -0.2556  3.6166
  323MOL0     H44545  11.875  -0.353   8.689 -1.2357  0.9845 -1.2378
  323MOL0     H44546  12.067  -0.268   8.465 -3.9282 -1.1065 -0.8617
  323MOL0     H44547  12.030  -0.161   8.608  1.4249  1.3750 -1.1641
  323MOL0     H44548  12.204  -0.421   8.644 -0.6827 -0.4546  1.5553
  323MOL0     H44549  12.145  -0.327   8.758  0.6500  2.8308  0.6786
  323MOL0     H44550  12.365  -0.287   8.717 -2.9585 -2.4298 -0.0500
  323MOL0     H44551  12.284  -0.135   8.669 -1.9226  0.2907  0.0149
  323MOL0     H44552  12.280  -0.182   8.425 -0.6160 -0.7389 -0.6841
  323MOL0     H44553  12.334  -0.339   8.428 -0.6123 -0.2416  0.1419
  323MOL0     H44554  11.391  -0.476   8.271  2.5230 -0.7980 -1.6360
  323MOL0     H44555  11.213  -0.429   8.101 -0.1567  0.4911  1.2337
  323MOL0     H44556  11.194  -0.081   7.749  0.3228 -1.4055 -1.6290
  323MOL0     H44557  11.094   0.083   7.585 -1.8312  0.9012 -1.2189
  323MOL0     H44558  11.147   1.957   8.010  1.8861  1.2859 -0.5410
  323MOL0     H44559  11.253   2.172   7.930  0.7197  2.0340 -0.4513
  323MOL0     H44560  11.327   2.494   7.857 -0.2695  0.7606  0.6605
  323MOL0     H44561  11.514   2.639   7.849  3.1989 -1.0628 -0.9558
  323MOL0     H44562  11.767   2.570   7.486  1.7903  0.9138 -1.7636
  323MOL0     H44563  11.788   2.738   7.471 -0.6700 -1.3679 -2.6455
  323MOL0     H44564  11.902   2.722   7.720 -2.4141 -0.1807 -0.2834
  323MOL0     H44565  12.001   2.679   7.572  0.2797  1.7775  1.0191
  323MOL0     H44566  11.834   2.470   7.698  0.3307 -0.3981  0.1728
  323MOL0     H44567  11.996   2.461   7.633  0.4100  1.4088 -0.2332
  323MOL0     H44568  11.991   2.422   7.869 -1.6898 -1.2278 -0.6905
  323MOL0     H44569  11.912   2.577   7.902 -1.3461 -4.1040  1.5805
  323MOL0     H44570  12.332   2.670   7.847 -0.9632  3.7521 -0.5755
  323MOL0     H44571  11.561   2.553   7.429 -0.5842  1.3046 -0.1792
  323MOL0     H44572  11.260   2.430   7.349 -0.5082  1.3360  0.7630
  323MOL0     H44573  11.431   2.415   7.305 -0.3311  0.1084 -0.5168
  323MOL0     H44574  11.359   2.290   7.378  1.1524  0.8181  0.7345
  324MOL0     O44575   8.675   6.487   0.944 -0.1973  0.2316 -0.2492
  324MOL0     C44576   8.557   6.468   0.982 -0.0579 -0.6991  0.8930
  324MOL0     O44577   8.512   6.340   1.007 -0.1394  0.2778  0.6347
  324MOL0     C44578   8.588   6.227   1.010 -0.0756  0.0538 -0.0028
  324MOL0     C44579   8.704   6.192   0.929 -1.8651 -0.4667 -0.1073
  324MOL0     C44580   8.779   6.069   0.942  0.1645 -0.1469 -0.7540
  324MOL0     C44581   8.726   5.981   1.040 -0.0174  0.4561 -0.5280
  324MOL0     O44582   8.799   5.883   1.085  0.0299 -0.0209 -0.9467
  324MOL0     C44583   8.721   5.758   1.105 -0.2663 -0.4202  0.6091
  324MOL0     C44584   8.754   5.652   0.993  0.8511  0.0407  0.1750
  324MOL0     C44585   8.891   5.588   1.010 -0.6282 -0.2793  0.5305
  324MOL0     C44586   8.906   5.497   0.891 -0.8766  0.7003 -0.1184
  324MOL0     C44587   8.900   5.358   0.937 -0.5353  0.4880 -0.2625
  324MOL0     C44588   8.942   5.265   0.818 -0.4660 -0.1338  0.4792
  324MOL0     C44589   8.970   5.123   0.869  0.1734 -0.9076  0.2724
  324MOL0     C44590   8.966   5.016   0.756 -0.2200 -0.2329 -0.2512
  324MOL0     N44591   9.087   5.018   0.690 -0.3997 -0.6372  0.3843
  324MOL0     C44592   9.201   4.962   0.729  0.5591  1.1606  0.6906
  324MOL0     C44593   9.287   4.990   0.635  0.8784 -0.9417 -0.4534
  324MOL0     C44594   9.431   4.951   0.641 -0.1521 -0.5654 -0.4567
  324MOL0     C44595   9.520   5.075   0.647  1.2115 -0.1805 -1.4146
  324MOL0     C44596   9.486   5.190   0.752 -0.7085 -0.0499  0.7170
  324MOL0     C44597   9.369   5.289   0.704 -0.4721 -0.1080 -0.0005
  324MOL0     O44598   9.349   5.392   0.799  0.2220  0.1462  0.6215
  324MOL0     C44599   9.299   5.368   0.927  0.0217 -0.1134 -0.2811
  324MOL0     C44600   9.280   5.243   0.992  0.8973  0.0568 -0.6991
  324MOL0     C44601   9.234   5.214   1.118  0.1086  0.4952 -0.2884
  324MOL0     C44602   9.220   5.066   1.166  0.5716  0.5185 -0.7809
  324MOL0     C44603   9.201   5.336   1.189  0.5104  0.1069 -0.2964
  324MOL0     C44604   9.148   5.338   1.328 -0.1278 -0.8655  0.4421
  324MOL0     O44605   9.100   5.460   1.378 -0.2725  0.5598  0.5884
  324MOL0     C44606   9.096   5.493   1.508  0.6230 -0.4118 -0.1033
  324MOL0     C44607   9.053   5.626   1.542  0.0422  0.6819 -0.1196
  324MOL0     C44608   9.037   5.675   1.677  0.0266  0.0598  1.0531
  324MOL0     C44609   9.073   5.584   1.779  1.3015  0.7667  0.7321
  324MOL0     O44610   9.061   5.636   1.907 -0.0672  0.0523  0.5734
  324MOL0     C44611   9.173   5.612   1.996 -0.1221  0.3651 -0.4814
  324MOL0     C44612   9.280   5.713   1.968 -0.1218  0.3331 -0.1843
  324MOL0     C44613   9.244   5.859   2.009  0.2425 -0.3827  0.6642
  324MOL0     C44614   9.352   5.957   1.961  0.7059  1.1478  0.6040
  324MOL0     C44615   9.327   6.096   2.026  1.2279  0.0900 -0.7616
  324MOL0     C44616   9.441   6.177   1.988 -0.3352 -0.1639  0.2846
  324MOL0     C44617   9.456   6.307   2.064  0.3651 -0.1008 -0.5415
  324MOL0     C44618   9.533   6.288   2.191  0.7437 -0.5441 -0.6448
  324MOL0    Cl44619   9.532   6.124   2.271 -0.2076  0.3013  0.0888
  324MOL0     C44620   9.104   5.452   1.746  0.0869  0.5830 -0.1813
  324MOL0     C44621   9.114   5.405   1.617 -0.3795 -0.0085 -0.7245
  324MOL0     O44622   9.146   5.227   1.381 -0.7716  0.2364  0.0058
  324MOL0     C44623   9.230   5.464   1.136  0.7476  0.4874 -0.0381
  324MOL0     C44624   9.287   5.481   1.009 -0.1401  0.3930 -0.2486
  324MOL0     N44625   9.217   5.061   0.539  0.1953 -0.6816 -0.4188
  324MOL0     N44626   9.096   5.073   0.565 -0.3067  0.7479 -1.0613
  324MOL0     C44627   8.611   6.018   1.112 -0.1876  0.5949  0.1400
  324MOL0     C44628   8.542   6.135   1.095 -0.1225  0.7417 -0.3790
  324MOL0     C44629   8.477   6.585   0.990  0.3765  0.2168 -0.7449
  324MOL0     C44630   8.338   6.573   0.964  0.0993 -0.1059 -0.0530
  324MOL0     C44631   8.259   6.689   0.977  0.1425  1.4527 -0.2310
  324MOL0     C44632   8.310   6.815   1.003 -0.3403 -0.0736  0.5605
  324MOL0     O44633   8.234   6.931   1.020  0.1093 -0.2189  0.2667
  324MOL0     C44634   8.154   6.958   0.901 -1.3338  0.0798  0.4292
  324MOL0     C44635   8.242   6.932   0.766  0.5306 -0.0346  0.5120
  324MOL0     C44636   8.153   6.988   0.658  0.1749 -0.0102  0.1407
  324MOL0     C44637   8.202   6.958   0.511 -0.5382 -0.0397 -0.4247
  324MOL0     C44638   8.165   6.827   0.462 -0.5242  0.5389 -0.9104
  324MOL0     C44639   8.151   6.727   0.396  0.5383 -0.4357 -0.2902
  324MOL0     C44640   8.443   6.829   1.007  0.4610 -0.3049  0.1902
  324MOL0     C44641   8.527   6.723   1.018  0.0878 -0.1032  0.0644
  324MOL0     C44642   8.667   6.769   1.074  0.6773  0.0053 -0.3937
  324MOL0     H44643   8.744   6.264   0.858  1.3889 -0.4235  1.5583
  324MOL0     H44644   8.869   6.038   0.890 -0.0707 -1.2117 -0.5586
  324MOL0     H44645   8.614   5.775   1.113 -0.1047  0.4923  0.9302
  324MOL0     H44646   8.739   5.723   1.207  1.6144 -1.1349  0.0906
  324MOL0     H44647   8.674   5.578   0.988 -1.3379  2.3412 -2.0219
  324MOL0     H44648   8.763   5.695   0.893  1.5776 -3.0424 -1.1783
  324MOL0     H44649   8.966   5.667   1.005  0.6006 -1.3818  0.7881
  324MOL0     H44650   8.918   5.542   1.106  3.5528  0.5582 -0.0287
  324MOL0     H44651   8.827   5.501   0.815  0.0777 -2.7251 -1.5325
  324MOL0     H44652   8.999   5.514   0.835  0.5814 -0.3981  1.8640
  324MOL0     H44653   8.799   5.335   0.972 -0.1742 -0.5339  0.1277
  324MOL0     H44654   8.965   5.346   1.025  0.3473 -0.9798 -1.0791
  324MOL0     H44655   8.866   5.266   0.741  0.3223  0.8915 -0.3164
  324MOL0     H44656   9.038   5.302   0.781 -0.3965 -2.3550 -1.8266
  324MOL0     H44657   8.888   5.091   0.934  0.4740 -0.9117  0.6490
  324MOL0     H44658   9.066   5.124   0.922 -0.1039  0.1365  0.7863
  324MOL0     H44659   8.948   4.923   0.810 -2.6124  0.7267  0.7278
  324MOL0     H44660   8.883   5.040   0.689 -0.1861 -0.3967 -0.3512
  324MOL0     H44661   9.221   4.907   0.821 -1.1430  0.4321  0.6574
  324MOL0     H44662   9.456   4.890   0.554  0.8146 -1.9833  0.7670
  324MOL0     H44663   9.441   4.883   0.726 -1.7450 -2.1904 -1.4933
  324MOL0     H44664   9.612   5.033   0.687  1.2253  0.8455 -0.3108
  324MOL0     H44665   9.529   5.107   0.542 -0.9475  0.8088 -1.3646
  324MOL0     H44666   9.476   5.152   0.854  0.7624 -2.4757  0.0405
  324MOL0     H44667   9.577   5.250   0.760 -0.7003 -0.0806  0.8522
  324MOL0     H44668   9.409   5.338   0.615  0.7068  1.4187  1.3179
  324MOL0     H44669   9.273   5.242   0.682 -0.8260  1.1929 -1.4146
  324MOL0     H44670   9.289   5.157   0.926 -1.7899 -0.8133 -0.0721
  324MOL0     H44671   9.289   5.047   1.248  0.6416  5.1312  0.5074
  324MOL0     H44672   9.251   4.995   1.089  0.0893  0.2954 -0.7758
  324MOL0     H44673   9.115   5.052   1.192  0.6912 -1.0254 -1.0746
  324MOL0     H44674   9.029   5.698   1.464  1.8380  0.4431 -0.9362
  324MOL0     H44675   8.998   5.773   1.700 -2.6239 -0.6446 -0.0296
  324MOL0     H44676   9.143   5.631   2.099  2.0166 -1.3114  0.5178
  324MOL0     H44677   9.197   5.505   1.988 -1.4383 -0.0118  0.2604
  324MOL0     H44678   9.370   5.682   2.023  0.1683 -2.3736 -1.9894
  324MOL0     H44679   9.311   5.707   1.863  0.7536 -2.3486  0.1562
  324MOL0     H44680   9.236   5.864   2.118 -3.1814 -0.2648  0.5016
  324MOL0     H44681   9.148   5.888   1.966  0.9129  0.7697 -0.1192
  324MOL0     H44682   9.362   5.967   1.852  2.8886 -0.7121  0.5639
  324MOL0     H44683   9.446   5.914   1.997  0.1417 -0.4398  0.2614
  324MOL0     H44684   9.236   6.143   1.986  1.9618  5.3866  2.7312
  324MOL0     H44685   9.312   6.076   2.132  1.6735 -1.2364 -0.9358
  324MOL0     H44686   9.431   6.219   1.888 -0.6189 -0.0054  0.3817
  324MOL0     H44687   9.529   6.111   1.991 -0.6682 -0.7464 -1.4909
  324MOL0     H44688   9.363   6.364   2.063  1.5694  2.0104 -2.5642
  324MOL0     H44689   9.510   6.375   1.999 -2.4106 -1.5707 -4.7818
  324MOL0     H44690   9.495   6.367   2.257 -1.1313 -1.6236 -0.3670
  324MOL0     H44691   9.633   6.328   2.174 -0.2928  1.7533 -2.0022
  324MOL0     H44692   9.103   5.385   1.831  0.7395 -0.5873 -1.0699
  324MOL0     H44693   9.126   5.297   1.610 -0.0372 -0.4812  3.8418
  324MOL0     H44694   9.199   5.559   1.179  0.6706  0.9570 -1.0943
  324MOL0     H44695   9.321   5.580   0.982  0.6385 -0.2001 -1.4991
  324MOL0     H44696   8.573   5.961   1.196 -0.4056 -2.3872 -1.8430
  324MOL0     H44697   8.450   6.139   1.153 -0.0101 -1.5009  0.0526
  324MOL0     H44698   8.282   6.480   0.960  1.3451 -0.8147 -1.8227
  324MOL0     H44699   8.153   6.671   0.988  0.1438  2.7255  2.6113
  324MOL0     H44700   8.059   6.907   0.888 -1.1125 -1.0093  2.6226
  324MOL0     H44701   8.141   7.067   0.902  0.9767  0.4591 -0.8562
  324MOL0     H44702   8.265   6.825   0.757  0.1383 -0.3214  2.5125
  324MOL0     H44703   8.327   7.001   0.759  1.6056 -1.4418 -1.3316
  324MOL0     H44704   8.056   6.936   0.662  0.2771 -0.1474  1.0978
  324MOL0     H44705   8.147   7.097   0.670  1.9439  0.1290 -0.0213
  324MOL0     H44706   8.311   6.960   0.506 -0.3880 -0.5596  1.7717
  324MOL0     H44707   8.172   7.035   0.439  2.1978  0.7085 -0.8717
  324MOL0     H44708   8.139   6.664   0.311  0.6002  1.2671 -1.6021
  324MOL0     H44709   8.478   6.932   1.007  0.2946 -0.2208  1.9214
  324MOL0     H44710   8.732   6.808   0.996  0.2429 -0.3496 -0.9380
  324MOL0     H44711   8.665   6.840   1.157 -1.2406 -0.9368  0.4467
  324MOL0     H44712   8.733   6.691   1.113  4.2903  1.8820 -2.3108
  325MOL0     O44713  11.347   1.860   2.915  0.3355  0.4392  0.1087
  325MOL0     C44714  11.226   1.873   2.945  0.0340  0.2473  0.4231
  325MOL0     O44715  11.176   1.911   3.068 -0.0929  0.3739  0.1980
  325MOL0     C44716  11.263   1.925   3.179  0.0741 -0.5539  1.7032
  325MOL0     C44717  11.384   1.860   3.202  0.0723  0.3969 -0.0943
  325MOL0     C44718  11.464   1.891   3.308 -0.4293 -0.1246  0.6822
  325MOL0     C44719  11.431   1.985   3.400  0.0669 -0.2667  0.6312
  325MOL0     O44720  11.509   2.026   3.504  0.6888  0.4967  0.0630
  325MOL0     C44721  11.595   1.929   3.578 -0.8401 -0.5438  0.3148
  325MOL0     C44722  11.505   1.816   3.631 -0.6007 -0.4844  0.1121
  325MOL0     C44723  11.491   1.839   3.779 -0.7562  0.1433  0.2969
  325MOL0     C44724  11.398   1.733   3.838  0.5825 -0.1716  0.0278
  325MOL0     C44725  11.375   1.747   3.987 -0.8711 -0.0987  0.3115
  325MOL0     C44726  11.269   1.666   4.054 -0.1871 -0.5464 -0.5044
  325MOL0     C44727  11.301   1.518   4.067  0.2448 -1.2134 -0.1895
  325MOL0     C44728  11.189   1.432   4.133 -0.4737 -0.7082 -1.0775
  325MOL0     N44729  11.061   1.444   4.063 -0.6184 -0.0975  0.3764
  325MOL0     C44730  10.975   1.539   4.075 -0.2854  0.2128 -0.3209
  325MOL0     C44731  10.876   1.505   3.989  0.2594  0.7173  0.6111
  325MOL0     C44732  10.737   1.570   3.971 -0.1434 -0.4776  0.3546
  325MOL0     C44733  10.620   1.494   4.024  0.5041  0.1277  0.3663
  325MOL0     C44734  10.594   1.520   4.171  0.0260  0.8460  0.7043
  325MOL0     C44735  10.456   1.477   4.217  0.8570  0.0954  0.1040
  325MOL0     O44736  10.364   1.584   4.231  0.9623 -0.5521 -0.6301
  325MOL0     C44737  10.379   1.657   4.345 -0.0268 -0.6087 -0.6418
  325MOL0     C44738  10.293   1.765   4.364  0.1785 -0.2173 -0.6826
  325MOL0     C44739  10.293   1.862   4.465  0.7084 -0.3101 -0.0632
  325MOL0     C44740  10.176   1.962   4.468  1.0485 -0.0169 -0.0909
  325MOL0     C44741  10.403   1.861   4.547  1.2896  0.5059 -0.5319
  325MOL0     C44742  10.420   1.953   4.656  0.7731  0.9583 -0.0125
  325MOL0     O44743  10.404   2.085   4.633 -0.1389 -0.4970 -0.9689
  325MOL0     C44744  10.434   2.185   4.727  0.9031  0.0689 -0.3602
  325MOL0     C44745  10.454   2.163   4.861  0.5407 -0.2202  0.5344
  325MOL0     C44746  10.503   2.269   4.943 -1.0919 -0.0972 -0.0267
  325MOL0     C44747  10.515   2.408   4.892 -1.0103 -0.3027  0.7400
  325MOL0     O44748  10.553   2.501   4.986  0.6171 -0.3067  0.7012
  325MOL0     C44749  10.517   2.633   4.941 -0.3492  0.4174  0.1829
  325MOL0     C44750  10.542   2.734   5.056  0.0660  0.1476  0.1381
  325MOL0     C44751  10.442   2.723   5.164 -0.3592 -0.5338 -0.0065
  325MOL0     C44752  10.511   2.770   5.296  0.0547 -0.6247 -0.2539
  325MOL0     C44753  10.415   2.806   5.412 -0.6693 -0.7736 -0.3137
  325MOL0     C44754  10.468   2.787   5.553 -0.5842 -0.1762 -0.7442
  325MOL0     C44755  10.454   2.647   5.608 -0.1376  0.4728 -0.4025
  325MOL0     C44756  10.545   2.614   5.735 -0.7347  0.7100 -0.0473
  325MOL0    Cl44757  10.493   2.461   5.812 -0.2083 -0.3072  0.6417
  325MOL0     C44758  10.498   2.423   4.757 -0.2583  0.1580  1.2401
  325MOL0     C44759  10.462   2.312   4.675  0.7565 -0.5065 -0.5564
  325MOL0     O44760  10.428   1.899   4.759 -0.5157  0.4254 -0.5582
  325MOL0     C44761  10.501   1.761   4.533  0.4337 -0.5999  0.2868
  325MOL0     C44762  10.492   1.660   4.437  0.4176 -0.4489 -0.3199
  325MOL0     N44763  10.916   1.396   3.923  0.0602 -0.0092 -0.0986
  325MOL0     N44764  11.029   1.356   3.962  0.1672 -0.8810  0.6340
  325MOL0     C44765  11.311   2.056   3.378  1.3387  0.3950  0.4298
  325MOL0     C44766  11.225   2.028   3.274  0.3619  0.1333  0.0439
  325MOL0     C44767  11.126   1.863   2.841  0.7694  0.5065 -1.2731
  325MOL0     C44768  11.023   1.954   2.854  0.3303  0.1321  0.1990
  325MOL0     C44769  10.911   1.949   2.774  0.1047 -0.7493  0.5053
  325MOL0     C44770  10.907   1.857   2.664  0.6419 -0.8200  0.1379
  325MOL0     O44771  10.798   1.851   2.583  0.1298  0.1969  0.6601
  325MOL0     C44772  10.799   1.930   2.466  0.7515 -0.8287  0.1446
  325MOL0     C44773  10.848   1.843   2.351  0.8316  0.2273 -0.7310
  325MOL0     C44774  10.770   1.863   2.224  0.1369  0.3505 -0.3077
  325MOL0     C44775  10.785   1.998   2.158 -0.2588 -0.7013 -0.0171
  325MOL0     C44776  10.925   2.049   2.146  0.3841 -0.6531  0.7826
  325MOL0     C44777  11.026   2.104   2.141 -0.0422  0.0002 -0.3580
  325MOL0     C44778  11.012   1.759   2.654 -0.0387  0.0163  0.1670
  325MOL0     C44779  11.114   1.757   2.748  0.1204  0.5747 -0.2355
  325MOL0     C44780  11.216   1.642   2.743  0.2762  0.1486  0.1269
  325MOL0     H44781  11.411   1.771   3.145 -0.7120 -2.2261  3.2747
  325MOL0     H44782  11.558   1.838   3.322  0.0819  0.8310  0.9574
  325MOL0     H44783  11.643   1.982   3.661  0.1034 -0.4717 -0.2614
  325MOL0     H44784  11.679   1.889   3.521  1.4511  0.2796  2.9182
  325MOL0     H44785  11.408   1.812   3.582 -0.1101 -0.8314 -0.8647
  325MOL0     H44786  11.540   1.713   3.626  0.8438 -0.1060  1.4225
  325MOL0     H44787  11.594   1.840   3.814 -0.0976 -0.8537 -1.4967
  325MOL0     H44788  11.439   1.933   3.801 -0.9953  0.3997 -1.2290
  325MOL0     H44789  11.303   1.733   3.784  0.5417  0.7403  0.0892
  325MOL0     H44790  11.448   1.636   3.834 -0.7250 -1.1333  3.6221
  325MOL0     H44791  11.359   1.855   3.997  1.1356  0.2421  0.2684
  325MOL0     H44792  11.471   1.722   4.032 -1.8791 -0.6286  2.2640
  325MOL0     H44793  11.250   1.710   4.152  2.1186 -0.8126  0.1187
  325MOL0     H44794  11.180   1.676   3.990 -1.0221  0.8450  0.8036
  325MOL0     H44795  11.393   1.508   4.125  0.8674 -0.0532 -0.9464
  325MOL0     H44796  11.311   1.484   3.963 -3.2611  0.9193 -1.4137
  325MOL0     H44797  11.224   1.329   4.140  0.2185 -0.4710 -0.8937
  325MOL0     H44798  11.178   1.456   4.240 -0.4722 -4.9035  0.0281
  325MOL0     H44799  10.969   1.623   4.144  1.6539  1.6217 -1.7788
  325MOL0     H44800  10.730   1.566   3.862  2.2444 -2.2697  0.1888
  325MOL0     H44801  10.751   1.672   4.009 -0.8056  0.0948 -0.8744
  325MOL0     H44802  10.528   1.514   3.968  0.6341  1.1888  0.5117
  325MOL0     H44803  10.632   1.385   4.020  0.8451  0.0891  1.9566
  325MOL0     H44804  10.660   1.449   4.222  2.1801  1.1281 -1.5471
  325MOL0     H44805  10.624   1.621   4.200 -0.6068  1.2598 -0.0528
  325MOL0     H44806  10.425   1.397   4.149  1.2674  1.3358 -1.6002
  325MOL0     H44807  10.457   1.435   4.318  0.1465  0.6500  0.3484
  325MOL0     H44808  10.208   1.756   4.298  0.2063  4.1736 -1.6050
  325MOL0     H44809  10.091   1.948   4.401 -0.6970  4.9901  0.6318
  325MOL0     H44810  10.220   2.058   4.443 -1.1476  0.6853 -1.5611
  325MOL0     H44811  10.139   1.965   4.571  1.1509 -3.2754  0.1490
  325MOL0     H44812  10.445   2.067   4.912  0.2321 -0.4275  0.0931
  325MOL0     H44813  10.520   2.261   5.050 -0.4499  1.0261 -0.0214
  325MOL0     H44814  10.570   2.655   4.848 -0.7194 -2.1746 -0.7026
  325MOL0     H44815  10.410   2.649   4.919  0.4500  2.7553 -2.7198
  325MOL0     H44816  10.642   2.722   5.100  0.7828 -0.9246 -1.6480
  325MOL0     H44817  10.539   2.836   5.016 -1.0367 -0.1581 -0.6118
  325MOL0     H44818  10.400   2.622   5.176 -2.0616  0.1243 -0.1575
  325MOL0     H44819  10.365   2.789   5.124  2.4186  1.6514 -2.0926
  325MOL0     H44820  10.580   2.853   5.284  0.7250 -1.0401  0.6134
  325MOL0     H44821  10.575   2.688   5.330  0.8417  0.1423  0.1399
  325MOL0     H44822  10.390   2.913   5.411  2.6199  0.0900 -1.7674
  325MOL0     H44823  10.327   2.742   5.405 -1.1832  0.0130 -1.3577
  325MOL0     H44824  10.424   2.860   5.621 -0.6897 -2.0344  1.2883
  325MOL0     H44825  10.574   2.813   5.541 -0.6108  0.3824  0.2075
  325MOL0     H44826  10.477   2.582   5.523  1.3168  0.9084 -0.3624
  325MOL0     H44827  10.353   2.626   5.645  0.5882  1.1588  2.1387
  325MOL0     H44828  10.531   2.687   5.816 -0.4158  0.1946  0.4812
  325MOL0     H44829  10.649   2.614   5.701 -0.7424 -1.1495 -0.1831
  325MOL0     H44830  10.528   2.507   4.695  3.5947 -2.6968 -1.2032
  325MOL0     H44831  10.449   2.328   4.568  0.5893 -0.7931 -0.5813
  325MOL0     H44832  10.588   1.763   4.598 -0.6901 -0.6990  1.8448
  325MOL0     H44833  10.571   1.587   4.426  2.6752  1.2426  2.9965
  325MOL0     H44834  11.284   2.138   3.443  1.6685  0.9991 -0.1893
  325MOL0     H44835  11.132   2.084   3.270 -0.7309 -1.5754  0.2681
  325MOL0     H44836  11.026   2.042   2.918 -0.1323  0.3603 -0.0878
  325MOL0     H44837  10.834   2.026   2.780  2.1551  1.4079  0.9157
  325MOL0     H44838  10.706   1.986   2.450  1.4603  0.0423 -1.1612
  325MOL0     H44839  10.868   2.013   2.482  0.0350  0.1201 -1.4258
  325MOL0     H44840  10.837   1.738   2.377 -1.2194  0.1523 -1.7066
  325MOL0     H44841  10.953   1.865   2.325  0.4989  0.1826 -2.1864
  325MOL0     H44842  10.799   1.796   2.143 -0.6430 -0.4816  0.0773
  325MOL0     H44843  10.662   1.847   2.235  0.3001  0.6140  2.6542
  325MOL0     H44844  10.723   2.079   2.199  0.5841  0.4412 -0.9153
  325MOL0     H44845  10.755   1.991   2.053  1.8347  1.2216 -0.8129
  325MOL0     H44846  11.121   2.154   2.134  0.0985 -0.1556  0.3540
  325MOL0     H44847  10.996   1.676   2.587 -1.2621  0.7661 -0.5105
  325MOL0     H44848  11.274   1.619   2.832 -0.3702 -0.1946  0.4631
  325MOL0     H44849  11.164   1.549   2.719 -0.6229 -0.1975  3.0421
  325MOL0     H44850  11.290   1.678   2.670 -1.0271 -0.4350 -1.5420
  326MOL0     O44851   9.234  10.338   7.870  0.3247  0.5709  0.3091
  326MOL0     C44852   9.357  10.338   7.855  0.2508  0.4353 -0.1251
  326MOL0     O44853   9.420  10.293   7.739 -0.5602  0.6216 -0.3216
  326MOL0     C44854   9.349  10.262   7.619  0.0167  0.2630 -0.2272
  326MOL0     C44855   9.251  10.354   7.573  0.3771  0.2819  0.0450
  326MOL0     C44856   9.181  10.331   7.448 -0.4133 -1.1952 -0.4474
  326MOL0     C44857   9.209  10.218   7.380 -0.3423 -0.1451 -0.4250
  326MOL0     O44858   9.141  10.198   7.269  0.5197 -0.4231  0.4888
  326MOL0     C44859   9.111  10.063   7.228 -0.8612 -0.7845 -0.3638
  326MOL0     C44860   9.023  10.074   7.119 -0.4320 -0.1084  0.9293
  326MOL0     C44861   8.887  10.135   7.147 -0.3723 -0.5969 -0.3446
  326MOL0     C44862   8.791  10.130   7.036  0.7994 -0.5199  0.2320
  326MOL0     C44863   8.809  10.239   6.918 -0.1901  0.4914 -0.6576
  326MOL0     C44864   8.773  10.380   6.974 -0.1355  0.0187  0.6340
  326MOL0     C44865   8.761  10.497   6.870 -0.4556 -0.2662 -0.5817
  326MOL0     C44866   8.621  10.558   6.862  0.0827  0.3045 -0.4557
  326MOL0     N44867   8.540  10.465   6.780 -0.8956 -0.3163 -0.2297
  326MOL0     C44868   8.551  10.465   6.645  0.0775 -0.0483  0.0928
  326MOL0     C44869   8.479  10.359   6.599  0.2138  0.4067 -0.4356
  326MOL0     C44870   8.493  10.314   6.456  0.5225 -0.5455 -0.6647
  326MOL0     C44871   8.533  10.166   6.451 -0.0367  0.4598  0.4840
  326MOL0     C44872   8.593  10.132   6.318 -0.3136 -0.7513 -0.6309
  326MOL0     C44873   8.513  10.165   6.193  0.2751  0.0154 -0.2283
  326MOL0     O44874   8.555  10.082   6.088  0.1523  0.9513 -0.3900
  326MOL0     C44875   8.462  10.032   6.002 -0.5052  0.7159 -0.1470
  326MOL0     C44876   8.491  10.026   5.868  0.0856  0.7346 -0.7729
  326MOL0     C44877   8.408   9.972   5.765 -0.2321 -0.3681 -0.3395
  326MOL0     C44878   8.441   9.994   5.619 -0.9363  0.5602  0.2014
  326MOL0     C44879   8.296   9.894   5.812 -0.2666 -0.3934  0.6328
  326MOL0     C44880   8.201   9.821   5.727  0.3153 -0.4741  0.4279
  326MOL0     O44881   8.080   9.786   5.780  0.0973 -0.1266 -0.4087
  326MOL0     C44882   8.015   9.706   5.698 -0.4914 -0.0932  0.3247
  326MOL0     C44883   8.055   9.568   5.706  0.3820 -0.4759  0.2087
  326MOL0     C44884   7.980   9.475   5.618 -0.3957 -0.8053 -0.8588
  326MOL0     C44885   7.886   9.523   5.527  0.4573 -0.2129  0.3054
  326MOL0     O44886   7.824   9.420   5.465  0.0243 -0.3383  0.1096
  326MOL0     C44887   7.684   9.406   5.514  0.5135  0.4630 -0.3906
  326MOL0     C44888   7.644   9.262   5.479 -0.5698  0.2542 -0.1922
  326MOL0     C44889   7.609   9.263   5.324 -0.8624 -0.0045 -0.0241
  326MOL0     C44890   7.560   9.121   5.293 -0.4020 -0.1317  0.0673
  326MOL0     C44891   7.554   9.093   5.141  0.1960  0.3636  1.0762
  326MOL0     C44892   7.542   8.940   5.106 -0.6457 -0.0680 -0.1207
  326MOL0     C44893   7.399   8.887   5.121 -0.1135 -0.7820 -0.6320
  326MOL0     C44894   7.394   8.734   5.126 -0.8074  0.1517  1.0995
  326MOL0    Cl44895   7.231   8.704   5.161  0.4752 -0.0935 -0.4768
  326MOL0     C44896   7.858   9.662   5.518  0.9266  0.3492 -0.3858
  326MOL0     C44897   7.921   9.753   5.610 -0.2152  0.7366 -0.7055
  326MOL0     O44898   8.230   9.803   5.611 -0.4431  0.1438  0.9395
  326MOL0     C44899   8.250   9.914   5.948 -0.6684  0.2548  0.5296
  326MOL0     C44900   8.335   9.982   6.039 -0.0109 -0.6312  0.0804
  326MOL0     N44901   8.420  10.296   6.710 -0.2515  0.8095 -0.5384
  326MOL0     N44902   8.454  10.365   6.816  0.0636  0.2825  0.4703
  326MOL0     C44903   9.322  10.137   7.413  0.1889  0.6854  0.0892
  326MOL0     C44904   9.387  10.160   7.537  0.6791 -0.4004 -0.2877
  326MOL0     C44905   9.448  10.360   7.972 -0.6044  0.3682  0.0813
  326MOL0     C44906   9.568  10.302   7.975 -0.3809 -0.3004 -0.2369
  326MOL0     C44907   9.661  10.314   8.080  0.4040 -0.2240  0.9779
  326MOL0     C44908   9.633  10.397   8.186 -0.0343 -0.1967  0.5148
  326MOL0     O44909   9.710  10.418   8.303 -0.4299 -0.0821  0.1800
  326MOL0     C44910   9.839  10.357   8.308  0.2103  0.1442 -0.3540
  326MOL0     C44911   9.880  10.389   8.459  0.4184  0.3853  0.9325
  326MOL0     C44912  10.016  10.319   8.464 -0.4675  0.3834  0.4100
  326MOL0     C44913  10.092  10.370   8.582 -0.5828 -0.4110 -0.9499
  326MOL0     C44914  10.208  10.296   8.620  0.1809 -0.7150  0.4441
  326MOL0     C44915  10.315  10.241   8.611  1.5845  0.0620  0.1019
  326MOL0     C44916   9.511  10.465   8.177 -0.6020  0.7251  0.0130
  326MOL0     C44917   9.415  10.447   8.076 -0.7529 -0.0631 -0.4892
  326MOL0     C44918   9.295  10.542   8.083  0.5691 -0.6447 -1.4297
  326MOL0     H44919   9.231  10.437   7.640 -1.6955 -2.9028  3.7999
  326MOL0     H44920   9.109  10.400   7.406 -0.4040 -0.8813  0.0402
  326MOL0     H44921   9.065  10.004   7.307  1.2797 -2.8040 -0.5337
  326MOL0     H44922   9.200  10.009   7.196 -0.1338 -0.5143  1.1329
  326MOL0     H44923   9.068  10.136   7.040 -2.7099  0.9382  0.3505
  326MOL0     H44924   9.020   9.974   7.075  0.7778  0.1134  0.2718
  326MOL0     H44925   8.843  10.090   7.236 -1.6430  3.0702  1.0264
  326MOL0     H44926   8.903  10.238   7.178  0.3730 -0.2730 -1.7281
  326MOL0     H44927   8.790  10.028   6.995  2.2350  0.1151 -1.5146
  326MOL0     H44928   8.692  10.141   7.081  0.9716  0.2617  0.4333
  326MOL0     H44929   8.730  10.200   6.853 -0.5061 -2.6131  1.3802
  326MOL0     H44930   8.909  10.233   6.874  0.5220 -0.5545  0.9821
  326MOL0     H44931   8.681  10.381   7.034 -0.5109  3.9390  0.2462
  326MOL0     H44932   8.854  10.403   7.044  0.0997  2.6024 -0.3850
  326MOL0     H44933   8.795  10.458   6.773 -1.8699 -1.9974 -0.4227
  326MOL0     H44934   8.831  10.576   6.900 -0.0274 -0.5944 -0.6956
  326MOL0     H44935   8.577  10.590   6.957 -2.8678 -1.5184 -1.0900
  326MOL0     H44936   8.637  10.650   6.804 -1.8367  0.4544 -0.8343
  326MOL0     H44937   8.611  10.531   6.583  1.0833 -2.5211 -1.7484
  326MOL0     H44938   8.564  10.385   6.413 -0.5076 -0.6730 -2.7123
  326MOL0     H44939   8.391  10.321   6.416  0.0285  2.2306  0.8308
  326MOL0     H44940   8.602  10.145   6.533  2.4049  0.1075 -1.5126
  326MOL0     H44941   8.442  10.108   6.471 -0.6785  2.1302  2.7458
  326MOL0     H44942   8.692  10.178   6.308 -0.4078  0.1608  1.9115
  326MOL0     H44943   8.615  10.025   6.327 -1.5771 -1.0489 -0.9669
  326MOL0     H44944   8.412  10.150   6.232  1.3005  0.1967  2.7378
  326MOL0     H44945   8.531  10.268   6.163  0.6212 -0.3183 -1.2306
  326MOL0     H44946   8.586  10.070   5.837 -1.1455  2.4825 -2.3312
  326MOL0     H44947   8.497  10.086   5.601 -1.3086  0.4997 -1.4089
  326MOL0     H44948   8.348  10.009   5.562 -1.6673  1.1438  1.4974
  326MOL0     H44949   8.491   9.902   5.589  3.6210  2.4777  1.1133
  326MOL0     H44950   8.139   9.530   5.762  1.4900 -1.6218 -2.0725
  326MOL0     H44951   7.995   9.368   5.627 -0.1339 -0.7319 -0.4430
  326MOL0     H44952   7.678   9.427   5.621  0.3673  1.0367 -0.5060
  326MOL0     H44953   7.612   9.474   5.466 -0.5610 -1.0137 -0.9567
  326MOL0     H44954   7.730   9.198   5.503  1.0220  2.3773  0.1071
  326MOL0     H44955   7.552   9.244   5.535 -1.5417  0.7633 -1.5755
  326MOL0     H44956   7.697   9.277   5.261 -0.7209  0.7397  0.3270
  326MOL0     H44957   7.538   9.337   5.285  1.5112  0.0633 -4.9118
  326MOL0     H44958   7.459   9.108   5.335  0.5590 -4.5735  1.5473
  326MOL0     H44959   7.620   9.050   5.350 -1.1876  0.7487  2.0947
  326MOL0     H44960   7.463   9.138   5.101 -0.4160 -0.3740  1.6091
  326MOL0     H44961   7.638   9.131   5.083  1.0600 -2.6349  0.1868
  326MOL0     H44962   7.621   8.890   5.163  0.4934 -1.8660 -3.0119
  326MOL0     H44963   7.569   8.931   5.000 -1.6966 -0.7466 -0.3527
  326MOL0     H44964   7.328   8.938   5.055  1.7220  0.0235 -2.0887
  326MOL0     H44965   7.363   8.908   5.223 -0.2990 -0.8325 -0.6858
  326MOL0     H44966   7.458   8.689   5.203  1.7652 -0.4825 -1.2214
  326MOL0     H44967   7.419   8.694   5.027  1.6535  2.4873  0.6575
  326MOL0     H44968   7.788   9.692   5.440 -1.2041  1.0310  1.6731
  326MOL0     H44969   7.874   9.851   5.602  0.5852  1.0856 -1.2956
  326MOL0     H44970   8.154   9.886   5.988  0.6495 -2.9407  1.7705
  326MOL0     H44971   8.315   9.988   6.146 -0.2954  0.6925 -0.0380
  326MOL0     H44972   9.355  10.048   7.360 -1.7701  0.0638 -0.1342
  326MOL0     H44973   9.466  10.088   7.557 -0.9421 -2.5853 -1.3771
  326MOL0     H44974   9.599  10.244   7.889  0.9372  0.6083 -0.3967
  326MOL0     H44975   9.760  10.270   8.067 -0.5361 -2.2923  0.2116
  326MOL0     H44976   9.832  10.249   8.293  0.1125  0.4777 -3.0703
  326MOL0     H44977   9.895  10.421   8.238 -1.1018  2.8967  0.9392
  326MOL0     H44978   9.819  10.349   8.541  1.0445 -2.0551  0.2984
  326MOL0     H44979   9.878  10.497   8.472 -1.6589  0.7805 -1.8327
  326MOL0     H44980  10.003  10.211   8.479  0.9878 -0.3224 -2.5476
  326MOL0     H44981  10.075  10.336   8.373  2.4252  3.1552  2.5707
  326MOL0     H44982  10.030  10.382   8.671 -2.6307 -1.9202 -2.0752
  326MOL0     H44983  10.130  10.471   8.563 -0.1764 -0.7923 -2.3094
  326MOL0     H44984  10.400  10.176   8.614  1.4222 -0.1332  0.6218
  326MOL0     H44985   9.489  10.540   8.252 -0.4928 -0.2997  1.0967
  326MOL0     H44986   9.296  10.581   8.186  1.0016 -1.5564 -1.0764
  326MOL0     H44987   9.313  10.627   8.017  1.5151  0.3966  0.0855
  326MOL0     H44988   9.206  10.481   8.068  0.8186 -2.1431  2.1850
  327MOL0     O44989   4.704   5.596   6.931  0.2637  0.4635  0.0135
  327MOL0     C44990   4.693   5.589   6.807 -0.1444 -0.7225  0.6681
  327MOL0     O44991   4.691   5.700   6.727 -0.1791  0.2309  0.9963
  327MOL0     C44992   4.695   5.820   6.790 -1.4282 -0.1889 -0.6036
  327MOL0     C44993   4.818   5.895   6.781  0.4225 -0.2616 -0.6876
  327MOL0     C44994   4.824   6.018   6.846  1.3377 -0.5765  0.0246
  327MOL0     C44995   4.715   6.086   6.908 -1.0732  0.3399 -0.8841
  327MOL0     O44996   4.725   6.211   6.967 -0.4248  0.1698 -0.4850
  327MOL0     C44997   4.809   6.304   6.896 -0.0932  0.0905 -0.0942
  327MOL0     C44998   4.789   6.444   6.947  0.6821 -0.4610 -0.0788
  327MOL0     C44999   4.674   6.520   6.875  1.3292 -0.0207 -0.7660
  327MOL0     C45000   4.675   6.667   6.932 -0.9721  0.6450 -0.4682
  327MOL0     C45001   4.611   6.771   6.846 -0.7960 -0.5282  0.0755
  327MOL0     C45002   4.463   6.731   6.816  0.3174  0.1004 -0.3982
  327MOL0     C45003   4.363   6.849   6.851 -0.8635 -0.4802  0.2797
  327MOL0     C45004   4.376   6.980   6.767  0.5078 -0.5658 -0.3473
  327MOL0     N45005   4.334   7.102   6.836  0.0712 -0.1411 -0.0507
  327MOL0     C45006   4.298   7.211   6.766  0.0281 -0.7649 -0.0933
  327MOL0     C45007   4.254   7.299   6.864  0.0811  1.0776  0.7480
  327MOL0     C45008   4.217   7.445   6.860  0.3714 -0.6399  0.1091
  327MOL0     C45009   4.240   7.521   6.730  0.3150  0.5388  0.8272
  327MOL0     C45010   4.227   7.681   6.734  0.6452 -1.0542 -0.3826
  327MOL0     C45011   4.179   7.746   6.600 -0.1353 -0.0432 -0.5992
  327MOL0     O45012   4.244   7.687   6.492  0.1008  0.1502 -0.3032
  327MOL0     C45013   4.243   7.757   6.375  0.3731  0.5608 -0.0736
  327MOL0     C45014   4.176   7.875   6.340 -0.0971  0.9115 -0.3788
  327MOL0     C45015   4.160   7.911   6.203  0.3391  0.1415  0.2989
  327MOL0     C45016   4.063   8.024   6.170 -0.0932  0.3418 -0.5901
  327MOL0     C45017   4.248   7.860   6.101 -0.7161 -0.3081  0.1842
  327MOL0     C45018   4.258   7.914   5.963  0.4804 -0.3618  0.0712
  327MOL0     O45019   4.217   8.037   5.932  0.3471 -0.0193  0.1823
  327MOL0     C45020   4.227   8.092   5.809  0.2233 -0.0772  0.2233
  327MOL0     C45021   4.182   8.225   5.795  0.9795 -0.1377 -0.5462
  327MOL0     C45022   4.195   8.301   5.685 -0.5277  0.0620 -0.1095
  327MOL0     C45023   4.241   8.249   5.568 -0.6874  1.0295  0.4416
  327MOL0     O45024   4.273   8.342   5.466 -0.7165  0.5956 -0.0731
  327MOL0     C45025   4.344   8.294   5.350  0.5810  0.6570  0.0486
  327MOL0     C45026   4.493   8.332   5.364 -0.7333  0.0608  0.2987
  327MOL0     C45027   4.574   8.281   5.237 -0.4872 -0.2876  0.2131
  327MOL0     C45028   4.717   8.332   5.239 -0.6192 -0.2222  0.0439
  327MOL0     C45029   4.792   8.279   5.120  0.3659 -0.4583 -0.2387
  327MOL0     C45030   4.941   8.319   5.103 -0.1666 -0.2786  0.0693
  327MOL0     C45031   5.020   8.191   5.148 -0.4686 -0.7925 -0.2093
  327MOL0     C45032   5.169   8.220   5.168  0.2938 -0.6080  0.1288
  327MOL0    Cl45033   5.243   8.274   5.018 -0.1559  0.0531 -0.1188
  327MOL0     C45034   4.288   8.108   5.566  0.2597  0.1903 -0.5571
  327MOL0     C45035   4.291   8.037   5.688 -0.3657 -0.7578 -0.5130
  327MOL0     O45036   4.320   7.844   5.882  0.4229  0.1492 -0.0250
  327MOL0     C45037   4.324   7.749   6.145  0.1382  0.0956  0.7385
  327MOL0     C45038   4.317   7.699   6.276  1.4220 -0.8667 -0.0838
  327MOL0     N45039   4.271   7.244   6.990 -0.6065  0.5911  0.2410
  327MOL0     N45040   4.322   7.124   6.972  0.0335  0.2150  0.0099
  327MOL0     C45041   4.598   6.010   6.919 -0.1927 -0.7089  0.7328
  327MOL0     C45042   4.593   5.881   6.863  0.6365  0.6807 -0.1580
  327MOL0     C45043   4.682   5.457   6.737  0.0657 -0.2233 -0.1165
  327MOL0     C45044   4.714   5.446   6.605 -0.0954 -0.4157 -0.6797
  327MOL0     C45045   4.699   5.329   6.530  0.2058 -0.1522  0.5623
  327MOL0     C45046   4.675   5.207   6.591 -0.4028 -0.3764  0.9104
  327MOL0     O45047   4.672   5.101   6.504 -0.3855  0.7606  0.6017
  327MOL0     C45048   4.661   4.966   6.546  0.4480 -0.7844 -0.0077
  327MOL0     C45049   4.512   4.922   6.561  0.1524 -0.3606 -0.0568
  327MOL0     C45050   4.446   4.934   6.424  0.3611 -0.5543  0.5504
  327MOL0     C45051   4.301   4.872   6.421 -0.5702 -0.5606 -0.1538
  327MOL0     C45052   4.242   4.893   6.295  0.8171 -0.6601  0.0486
  327MOL0     C45053   4.174   4.905   6.193  0.5918  0.1011 -0.3822
  327MOL0     C45054   4.643   5.217   6.731 -0.9934  0.0751 -0.0461
  327MOL0     C45055   4.642   5.334   6.798 -0.2703  0.0057  0.8291
  327MOL0     C45056   4.584   5.341   6.943 -0.1462 -0.6759 -0.3491
  327MOL0     H45057   4.897   5.833   6.740  0.4837 -0.5790 -0.0974
  327MOL0     H45058   4.922   6.065   6.850  0.6733  1.1980 -2.1346
  327MOL0     H45059   4.804   6.298   6.786  2.9344 -0.5223 -0.2787
  327MOL0     H45060   4.911   6.280   6.925 -0.9127  0.1154  3.1645
  327MOL0     H45061   4.768   6.447   7.054 -1.3353  0.0496 -0.4556
  327MOL0     H45062   4.878   6.507   6.930 -0.0468  1.4494  2.5041
  327MOL0     H45063   4.686   6.525   6.766  1.0597 -0.2990 -0.8106
  327MOL0     H45064   4.578   6.469   6.889  0.9612  1.2730  2.0999
  327MOL0     H45065   4.615   6.681   7.022 -1.1095  0.5891 -0.5500
  327MOL0     H45066   4.779   6.699   6.945 -0.3347 -1.3130 -0.3326
  327MOL0     H45067   4.658   6.785   6.748  0.5132  0.3349  0.8102
  327MOL0     H45068   4.618   6.871   6.890 -0.9851  0.1321 -1.3441
  327MOL0     H45069   4.448   6.695   6.714  0.9393 -0.7676 -0.1899
  327MOL0     H45070   4.438   6.650   6.884  1.0489 -1.1524 -1.5571
  327MOL0     H45071   4.378   6.882   6.954  0.6443 -0.4754  0.0863
  327MOL0     H45072   4.258   6.820   6.838 -0.3832 -2.5337  0.6175
  327MOL0     H45073   4.482   6.994   6.740  1.0991  1.6125  2.5907
  327MOL0     H45074   4.318   6.966   6.675 -1.7135 -1.8334  1.1754
  327MOL0     H45075   4.314   7.243   6.664 -0.1502  3.1649  0.9404
  327MOL0     H45076   4.274   7.486   6.944 -2.1433  0.7007  1.2518
  327MOL0     H45077   4.114   7.467   6.890 -0.1002  1.5926 -2.6900
  327MOL0     H45078   4.334   7.498   6.678 -1.6524 -2.5530 -1.6937
  327MOL0     H45079   4.173   7.483   6.653  1.3198  1.2643 -0.4488
  327MOL0     H45080   4.159   7.711   6.815  2.0336  0.9611  0.1350
  327MOL0     H45081   4.326   7.721   6.757  0.4360  0.0241 -1.2421
  327MOL0     H45082   4.073   7.732   6.578 -0.1464 -1.7995  0.3642
  327MOL0     H45083   4.195   7.853   6.616 -1.4267  0.1754 -0.6695
  327MOL0     H45084   4.116   7.932   6.411  1.7422  2.2820  0.1370
  327MOL0     H45085   3.993   7.986   6.094 -0.9109 -2.4776  1.4323
  327MOL0     H45086   4.120   8.114   6.143 -0.0868  1.1822  1.9653
  327MOL0     H45087   4.009   8.051   6.261  0.5269 -0.0522 -0.1044
  327MOL0     H45088   4.140   8.262   5.889 -1.2083 -1.4034 -0.9392
  327MOL0     H45089   4.167   8.404   5.667 -0.4488 -0.3839 -3.4622
  327MOL0     H45090   4.336   8.187   5.328  0.6515  0.3198  1.5504
  327MOL0     H45091   4.293   8.340   5.265  2.9789 -1.2042 -2.5694
  327MOL0     H45092   4.491   8.441   5.372  0.3536  0.0863  0.4586
  327MOL0     H45093   4.540   8.289   5.453 -0.4145 -0.7378 -0.2473
  327MOL0     H45094   4.529   8.315   5.144 -0.3951  1.8634  0.8846
  327MOL0     H45095   4.577   8.172   5.235 -1.3055 -0.5747  4.3859
  327MOL0     H45096   4.775   8.295   5.324 -0.4746 -1.6148 -0.6329
  327MOL0     H45097   4.713   8.441   5.229  0.4451 -0.3325 -1.8239
  327MOL0     H45098   4.775   8.171   5.117  0.7201 -0.7075  3.2024
  327MOL0     H45099   4.746   8.324   5.032 -1.1650 -0.3044  0.6005
  327MOL0     H45100   4.965   8.391   5.182  2.7066 -3.1724  2.0492
  327MOL0     H45101   4.972   8.366   5.009  0.5218  2.6991  1.6559
  327MOL0     H45102   5.005   8.110   5.076 -1.0224  0.8406 -2.0127
  327MOL0     H45103   4.986   8.166   5.249 -0.5534  4.2350  1.2800
  327MOL0     H45104   5.215   8.131   5.213  0.5235  1.0717  3.5414
  327MOL0     H45105   5.182   8.300   5.242  3.8178 -0.1841 -0.7611
  327MOL0     H45106   4.321   8.055   5.477  1.8815 -2.7964  1.6354
  327MOL0     H45107   4.325   7.935   5.679  0.9022 -0.8176  3.2242
  327MOL0     H45108   4.383   7.687   6.078 -2.2758 -1.2120 -0.2873
  327MOL0     H45109   4.372   7.614   6.314  3.8430  0.8980  0.6679
  327MOL0     H45110   4.511   6.044   6.975  0.3291  0.0421  1.1018
  327MOL0     H45111   4.501   5.827   6.885 -0.3935  1.6052 -1.9820
  327MOL0     H45112   4.756   5.528   6.547  0.6538 -1.2857 -1.3935
  327MOL0     H45113   4.720   5.324   6.424 -1.4197  2.0304  0.0584
  327MOL0     H45114   4.721   4.898   6.486  1.0253  0.2856 -0.6848
  327MOL0     H45115   4.703   4.962   6.647  0.5920 -1.4720 -0.0927
  327MOL0     H45116   4.470   4.985   6.640  3.7969  0.2085  1.6219
  327MOL0     H45117   4.497   4.817   6.587 -2.6447  0.0099  0.1096
  327MOL0     H45118   4.430   5.042   6.411  2.6186 -0.3657 -1.3823
  327MOL0     H45119   4.514   4.903   6.345  0.9235 -4.0368  2.2375
  327MOL0     H45120   4.233   4.899   6.503  3.8338  0.7715  3.5217
  327MOL0     H45121   4.303   4.763   6.432 -0.0527 -0.3570  2.5797
  327MOL0     H45122   4.119   4.918   6.102 -0.0656  0.6942  0.0767
  327MOL0     H45123   4.623   5.128   6.789 -0.9859  0.4192  0.4986
  327MOL0     H45124   4.501   5.412   6.940  0.4862  0.0630 -0.8393
  327MOL0     H45125   4.541   5.243   6.964 -2.4297  0.1210 -0.9783
  327MOL0     H45126   4.642   5.373   7.030 -1.7969 -0.7606  0.8370
  328MOL0     O45127   4.458   7.786   0.953  0.0162  0.3204 -0.1965
  328MOL0     C45128   4.561   7.844   0.977 -0.5284 -0.2404  0.9055
  328MOL0     O45129   4.679   7.790   1.008 -0.1887  0.1518  0.1944
  328MOL0     C45130   4.700   7.656   0.965 -0.5607 -0.0592 -0.5939
  328MOL0     C45131   4.766   7.568   1.049 -0.3815  0.3634  0.7178
  328MOL0     C45132   4.803   7.437   1.004 -0.2058 -0.2911  0.8475
  328MOL0     C45133   4.762   7.393   0.877  0.7030  0.6089 -0.2817
  328MOL0     O45134   4.793   7.269   0.815  0.1670  0.2420 -0.3933
  328MOL0     C45135   4.798   7.153   0.897 -0.0865  0.1510  0.0843
  328MOL0     C45136   4.785   7.021   0.828  0.1451 -0.5769 -0.2842
  328MOL0     C45137   4.803   6.911   0.936 -0.5640 -1.1561  0.2920
  328MOL0     C45138   4.749   6.777   0.892  0.5584  0.2072 -0.3923
  328MOL0     C45139   4.797   6.656   0.978  0.5191  1.8362  0.3628
  328MOL0     C45140   4.946   6.627   0.977  0.0854  0.1711  0.3499
  328MOL0     C45141   4.989   6.532   1.092  0.1633  0.4455 -0.6499
  328MOL0     C45142   5.143   6.527   1.098 -0.2141 -0.0223  1.0331
  328MOL0     N45143   5.175   6.619   1.213  0.2945  0.3718 -0.7914
  328MOL0     C45144   5.197   6.593   1.346  0.4552  0.0365 -0.1681
  328MOL0     C45145   5.236   6.704   1.396  0.9631 -0.1963 -0.1352
  328MOL0     C45146   5.270   6.722   1.538 -0.5192 -0.4316  0.1074
  328MOL0     C45147   5.152   6.793   1.616 -0.3920  0.2818 -0.1464
  328MOL0     C45148   5.182   6.839   1.760  0.0099 -0.1952 -0.5363
  328MOL0     C45149   5.330   6.898   1.776  0.0586  0.7647 -0.4243
  328MOL0     O45150   5.423   6.789   1.768  0.1725  0.2180 -0.3073
  328MOL0     C45151   5.454   6.704   1.868 -0.8466 -1.1993  0.2767
  328MOL0     C45152   5.404   6.719   1.996  0.2897  0.4222 -0.0978
  328MOL0     C45153   5.426   6.622   2.099  0.1842 -0.3748  0.3138
  328MOL0     C45154   5.363   6.643   2.245 -0.7775  0.7300  1.4743
  328MOL0     C45155   5.524   6.521   2.072  0.6719  0.6174  0.1244
  328MOL0     C45156   5.574   6.426   2.175 -0.4380  0.4951 -0.1571
  328MOL0     O45157   5.639   6.310   2.128 -0.0252 -0.1041 -0.3174
  328MOL0     C45158   5.688   6.200   2.213 -0.2338 -0.2025  0.2809
  328MOL0     C45159   5.708   6.076   2.144 -0.8878 -0.3219  0.0420
  328MOL0     C45160   5.770   5.968   2.216 -1.1790  0.7029 -0.0253
  328MOL0     C45161   5.795   5.972   2.358 -0.2155 -0.3205  0.2159
  328MOL0     O45162   5.855   5.865   2.417  0.1299 -0.6831  0.3147
  328MOL0     C45163   5.989   5.858   2.400 -0.7281  0.3274 -0.5237
  328MOL0     C45164   6.038   5.759   2.296 -1.2830 -0.0020  0.7285
  328MOL0     C45165   5.967   5.622   2.306  0.4893  0.1804  0.6989
  328MOL0     C45166   6.021   5.502   2.219 -0.6216  0.0553 -0.7010
  328MOL0     C45167   5.952   5.367   2.236  0.0038  0.9542 -2.0105
  328MOL0     C45168   5.969   5.319   2.389  0.4056 -0.4734  1.0089
  328MOL0     C45169   5.897   5.190   2.401  1.2276 -0.7749 -0.3323
  328MOL0     C45170   5.954   5.069   2.331  0.1806 -0.5647  0.8502
  328MOL0    Cl45171   5.826   4.958   2.283  0.2113 -0.0582  0.0684
  328MOL0     C45172   5.772   6.093   2.416  0.3777 -0.1783 -0.5243
  328MOL0     C45173   5.709   6.199   2.353  0.3376 -0.2012  0.6413
  328MOL0     O45174   5.549   6.445   2.293  0.1990  0.3321  0.8833
  328MOL0     C45175   5.575   6.510   1.937  0.9973 -0.1434 -0.2280
  328MOL0     C45176   5.539   6.602   1.840  0.1231 -0.6010 -0.6888
  328MOL0     N45177   5.241   6.802   1.299  0.0509 -0.2501 -0.5163
  328MOL0     N45178   5.211   6.743   1.185 -0.1169 -0.6150 -0.2518
  328MOL0     C45179   4.690   7.482   0.797 -0.4734  0.6177 -0.8581
  328MOL0     C45180   4.661   7.612   0.835 -0.0389  0.8256 -1.3911
  328MOL0     C45181   4.561   7.998   0.987 -0.1267  0.1738 -0.1024
  328MOL0     C45182   4.680   8.069   0.987 -0.2587  0.7851  0.1900
  328MOL0     C45183   4.689   8.211   0.998  0.2768  0.7176 -0.0789
  328MOL0     C45184   4.577   8.281   1.012  0.0449 -1.0099 -0.5472
  328MOL0     O45185   4.589   8.418   1.003 -0.2023  0.2909 -0.8254
  328MOL0     C45186   4.477   8.506   1.024  0.5143 -0.2817 -0.5759
  328MOL0     C45187   4.436   8.558   0.888  0.1351  0.2007 -0.1781
  328MOL0     C45188   4.318   8.666   0.901 -0.0527  0.4039  0.5046
  328MOL0     C45189   4.293   8.715   0.760  0.2453  0.3601  0.5084
  328MOL0     C45190   4.230   8.847   0.746  0.4682  0.0780 -0.4477
  328MOL0     C45191   4.171   8.958   0.727 -0.3459  0.5005  0.8011
  328MOL0     C45192   4.450   8.217   1.022 -0.6800 -0.3357  0.5192
  328MOL0     C45193   4.444   8.077   1.018  0.1777  0.5167  0.4616
  328MOL0     C45194   4.305   8.015   1.039  0.5196  0.0388 -0.1433
  328MOL0     H45195   4.791   7.609   1.146 -0.4401 -0.1677  0.9604
  328MOL0     H45196   4.850   7.374   1.079  1.4654 -0.5058 -0.3259
  328MOL0     H45197   4.732   7.157   0.984 -1.2815 -2.9590 -0.5303
  328MOL0     H45198   4.900   7.163   0.935  0.0676  1.3945 -0.6250
  328MOL0     H45199   4.684   7.013   0.786 -0.9846 -2.7767  2.4603
  328MOL0     H45200   4.870   7.027   0.759 -0.2129 -0.6930 -0.7390
  328MOL0     H45201   4.909   6.924   0.959 -0.4154 -1.4313 -0.2101
  328MOL0     H45202   4.754   6.932   1.031  0.8795 -0.8817  1.0040
  328MOL0     H45203   4.640   6.782   0.894  0.6122  1.2799  1.0407
  328MOL0     H45204   4.787   6.752   0.792 -2.4526  0.7992 -1.8064
  328MOL0     H45205   4.741   6.566   0.950  0.0743  1.5227  2.1656
  328MOL0     H45206   4.769   6.677   1.081 -1.9739 -0.3209  0.2301
  328MOL0     H45207   4.969   6.575   0.883  1.8102  1.1537  0.1848
  328MOL0     H45208   5.006   6.719   0.975 -0.9288  0.8373 -1.0196
  328MOL0     H45209   4.935   6.442   1.059 -0.0356  1.5576 -3.6390
  328MOL0     H45210   4.940   6.568   1.183  0.5907  4.0866 -1.6996
  328MOL0     H45211   5.175   6.426   1.125  0.5447 -0.7470 -2.1356
  328MOL0     H45212   5.185   6.549   1.000 -2.1466 -0.0258  0.1505
  328MOL0     H45213   5.198   6.499   1.400 -0.2997  0.9019  1.3901
  328MOL0     H45214   5.362   6.781   1.539 -1.2600  0.7581  0.2960
  328MOL0     H45215   5.295   6.626   1.584  1.7284  0.6755  1.3836
  328MOL0     H45216   5.119   6.881   1.560 -0.4661 -0.5283 -1.4114
  328MOL0     H45217   5.075   6.715   1.615 -1.4512  1.1378  2.8176
  328MOL0     H45218   5.107   6.911   1.792  2.0420  1.2573  1.2933
  328MOL0     H45219   5.172   6.745   1.815 -1.4208  0.6065  0.6455
  328MOL0     H45220   5.363   6.972   1.703  1.8026  1.3914  0.9367
  328MOL0     H45221   5.345   6.951   1.871  3.9974 -0.7052 -0.0443
  328MOL0     H45222   5.313   6.779   2.000 -0.8249 -1.0355 -1.8603
  328MOL0     H45223   5.275   6.706   2.227  0.6274  2.8976  1.8630
  328MOL0     H45224   5.424   6.700   2.315 -1.4560  0.2615  2.4758
  328MOL0     H45225   5.343   6.548   2.295 -1.4806  1.5445  2.7935
  328MOL0     H45226   5.678   6.046   2.045 -1.1486 -2.5498  0.7430
  328MOL0     H45227   5.802   5.876   2.167 -0.7795  0.0431  1.3993
  328MOL0     H45228   6.030   5.958   2.387  0.2732 -0.1442 -1.1980
  328MOL0     H45229   6.033   5.831   2.497 -0.0273  3.0493 -0.0157
  328MOL0     H45230   6.045   5.807   2.199  0.4072  0.5123  1.0742
  328MOL0     H45231   6.144   5.744   2.321 -0.8181  3.2576  1.1919
  328MOL0     H45232   5.868   5.638   2.261  0.8171 -1.2554 -0.6217
  328MOL0     H45233   5.935   5.592   2.406  0.2695 -3.2840 -0.2912
  328MOL0     H45234   6.123   5.489   2.255 -0.3697 -0.1148 -1.4552
  328MOL0     H45235   6.027   5.530   2.113 -1.2206  3.6658  0.0774
  328MOL0     H45236   5.848   5.375   2.205 -0.0888 -0.3157 -2.0525
  328MOL0     H45237   5.977   5.291   2.162  1.5161 -0.0847 -0.5175
  328MOL0     H45238   5.917   5.392   2.451 -1.8442 -0.6823 -0.5190
  328MOL0     H45239   6.073   5.305   2.421  0.7664 -2.5025 -0.8239
  328MOL0     H45240   5.797   5.201   2.359  0.8046 -3.6065 -0.2438
  328MOL0     H45241   5.882   5.165   2.507 -2.5410  1.5158 -0.1230
  328MOL0     H45242   6.027   5.002   2.378 -1.2882 -3.0847 -0.2015
  328MOL0     H45243   5.997   5.098   2.234 -2.8467  0.7849 -0.2088
  328MOL0     H45244   5.785   6.114   2.522  0.3634  0.2023 -0.5944
  328MOL0     H45245   5.690   6.292   2.406  2.1451  1.0862 -0.8481
  328MOL0     H45246   5.642   6.427   1.921  0.8512 -0.4525  0.7038
  328MOL0     H45247   5.575   6.600   1.738 -0.3048  0.8245 -0.8921
  328MOL0     H45248   4.659   7.460   0.696  0.0158  1.7728 -1.2784
  328MOL0     H45249   4.603   7.680   0.773  0.3323  2.1771 -0.2893
  328MOL0     H45250   4.769   8.009   0.970  0.6646  2.0049  0.6477
  328MOL0     H45251   4.789   8.249   0.975 -0.1460  0.2936 -3.0664
  328MOL0     H45252   4.391   8.461   1.073  0.0739  0.7835 -0.3618
  328MOL0     H45253   4.491   8.590   1.092  0.6560 -0.5394 -0.2844
  328MOL0     H45254   4.400   8.469   0.835  1.6620 -2.0068  2.2601
  328MOL0     H45255   4.526   8.601   0.844  2.4434 -1.9491  2.1604
  328MOL0     H45256   4.230   8.617   0.943 -0.6511  0.3842 -0.7406
  328MOL0     H45257   4.338   8.749   0.971  1.5509  0.3155  0.1794
  328MOL0     H45258   4.237   8.640   0.704  0.8574  1.3026 -1.4646
  328MOL0     H45259   4.381   8.731   0.697  0.0986 -1.5346 -0.2385
  328MOL0     H45260   4.103   9.038   0.705 -2.7070 -1.3284  1.0403
  328MOL0     H45261   4.355   8.270   1.026 -0.9348 -0.8203  1.2113
  328MOL0     H45262   4.238   8.090   1.082  0.6122  0.4657 -0.7405
  328MOL0     H45263   4.259   7.980   0.946  0.5158 -1.0937  0.2646
  328MOL0     H45264   4.309   7.938   1.117 -0.9084 -1.0168 -1.0551
  329MOL0     O45265   0.671   0.798  10.279 -0.7791  0.0037  0.8356
  329MOL0     C45266   0.696   0.919  10.265 -0.5162  1.2059 -0.0817
  329MOL0     O45267   0.614   1.006  10.195  0.1366 -0.0910 -0.1317
  329MOL0     C45268   0.552   0.957  10.084  0.5395  0.4810 -0.8450
  329MOL0     C45269   0.594   0.854  10.009 -0.1860  0.0087 -0.1855
  329MOL0     C45270   0.514   0.792   9.914  0.1006  0.1783 -0.4254
  329MOL0     C45271   0.381   0.843   9.897 -0.1815  0.2701 -0.1465
  329MOL0     O45272   0.295   0.783   9.807  0.0278  0.4932  0.1540
  329MOL0     C45273   0.225   0.671   9.853  0.2564 -0.7322 -0.1818
  329MOL0     C45274   0.167   0.594   9.738 -0.1082 -0.3376  0.0926
  329MOL0     C45275   0.240   0.603   9.596 -0.5584 -0.0638  1.0141
  329MOL0     C45276   0.373   0.520   9.593  0.5122 -0.1241 -0.0656
  329MOL0     C45277   0.457   0.573   9.472 -0.0267 -0.1904 -0.3826
  329MOL0     C45278   0.616   0.543   9.474  0.1880  0.4111  1.0080
  329MOL0     C45279   0.677   0.601   9.345 -0.0715  1.0023  0.2140
  329MOL0     C45280   0.820   0.562   9.349 -1.4974  0.4386  0.0985
  329MOL0     N45281   0.892   0.595   9.223 -0.1211 -0.2680  0.3704
  329MOL0     C45282   0.955   0.707   9.178  0.1375  0.1313  0.3429
  329MOL0     C45283   0.958   0.704   9.048  0.0715 -0.3996  0.3082
  329MOL0     C45284   1.013   0.811   8.954 -0.5558 -0.2576  0.3140
  329MOL0     C45285   0.913   0.929   8.946  0.1785 -0.3707  0.9589
  329MOL0     C45286   0.949   1.036   8.840 -0.3209 -0.5915 -0.9881
  329MOL0     C45287   0.828   1.141   8.832 -0.1494 -0.4968  0.4226
  329MOL0     O45288   0.868   1.226   8.719  0.5763  0.3596  0.3967
  329MOL0     C45289   0.965   1.325   8.726  0.0929  0.2728 -0.3714
  329MOL0     C45290   1.038   1.365   8.840  0.1522  0.1813  0.3026
  329MOL0     C45291   1.117   1.483   8.844  0.4500 -0.5141  0.5532
  329MOL0     C45292   1.194   1.522   8.967  0.0179  0.2475  0.0564
  329MOL0     C45293   1.143   1.541   8.712 -0.1386 -0.3180  0.8288
  329MOL0     C45294   1.234   1.660   8.683  1.2712  0.5475 -0.4018
  329MOL0     O45295   1.261   1.693   8.547 -0.0409 -0.0468  0.6348
  329MOL0     C45296   1.329   1.803   8.517  0.3979 -0.8151  0.2749
  329MOL0     C45297   1.267   1.933   8.484 -0.0011 -0.9874  0.3404
  329MOL0     C45298   1.344   2.047   8.447  0.2546  0.6641  0.4361
  329MOL0     C45299   1.482   2.023   8.456 -0.2519  0.0766  0.1868
  329MOL0     O45300   1.575   2.119   8.417  0.2989 -0.3893  0.5869
  329MOL0     C45301   1.551   2.158   8.281  0.1272 -0.6892  0.3591
  329MOL0     C45302   1.687   2.205   8.229 -0.6226  0.1193  0.5964
  329MOL0     C45303   1.786   2.093   8.176  0.6115 -0.6850  0.1927
  329MOL0     C45304   1.930   2.142   8.133  0.2589 -0.4106 -0.6915
  329MOL0     C45305   2.020   2.034   8.100  0.2091  1.0404  0.0236
  329MOL0     C45306   2.097   1.969   8.216 -0.1273  0.3844 -0.6835
  329MOL0     C45307   2.185   1.848   8.162 -1.3235 -0.4193 -0.4495
  329MOL0     C45308   2.260   1.780   8.275 -0.3166  1.3307  0.5854
  329MOL0    Cl45309   2.377   1.892   8.349 -0.1774  0.4236 -0.0991
  329MOL0     C45310   1.546   1.905   8.500 -0.4783  1.1311 -0.4218
  329MOL0     C45311   1.470   1.796   8.524 -0.7519  0.5981 -0.1634
  329MOL0     O45312   1.255   1.732   8.784 -0.0499 -0.4273 -0.1269
  329MOL0     C45313   1.069   1.504   8.600  0.2060 -0.8791  0.5063
  329MOL0     C45314   0.968   1.403   8.612  0.8695 -0.6110 -0.6387
  329MOL0     N45315   0.902   0.591   9.000  0.3508  0.5386 -0.8817
  329MOL0     N45316   0.862   0.529   9.104  0.4775  0.0450 -0.4269
  329MOL0     C45317   0.335   0.951   9.971 -0.6403 -0.0282 -0.0334
  329MOL0     C45318   0.425   1.009  10.063 -0.8383  1.2422  0.5594
  329MOL0     C45319   0.821   0.958  10.339  0.2962  0.8795  0.0848
  329MOL0     C45320   0.924   0.861  10.339 -0.0686  0.7534 -0.8985
  329MOL0     C45321   1.050   0.901  10.384 -0.5640  0.1591 -0.4057
  329MOL0     C45322   1.078   1.025  10.429  0.0238 -0.9024 -0.4786
  329MOL0     O45323   1.201   1.069  10.453 -0.7201 -0.2385 -0.3624
  329MOL0     C45324   1.260   1.195  10.424 -0.1378 -1.0066  0.4553
  329MOL0     C45325   1.401   1.177  10.368  0.8990  0.6246  0.6795
  329MOL0     C45326   1.390   1.114  10.230 -0.3863 -0.2429 -0.6822
  329MOL0     C45327   1.523   1.101  10.148  0.9751  0.1732 -0.0639
  329MOL0     C45328   1.600   1.005  10.232 -1.3373  1.1355 -0.8356
  329MOL0     C45329   1.650   0.946  10.322  0.0980 -0.0830  0.2885
  329MOL0     C45330   0.971   1.122  10.425 -0.0705  0.6452  0.2533
  329MOL0     C45331   0.840   1.093  10.382  0.3355 -0.3935 -0.2943
  329MOL0     C45332   0.743   1.199  10.358  0.1772  0.4983  0.2972
  329MOL0     H45333   0.696   0.818  10.012  0.1484  0.4024 -3.4966
  329MOL0     H45334   0.536   0.704   9.854  1.5292  0.8790 -0.9749
  329MOL0     H45335   0.153   0.697   9.931  2.5197  1.4203  1.3227
  329MOL0     H45336   0.295   0.602   9.902 -1.7104 -1.5061  1.7225
  329MOL0     H45337   0.158   0.496   9.785  0.6986 -1.0457 -1.1562
  329MOL0     H45338   0.068   0.639   9.726  0.8334  2.1537  1.0005
  329MOL0     H45339   0.178   0.553   9.521 -0.4745  1.7831 -0.3383
  329MOL0     H45340   0.247   0.709   9.570 -3.8540  0.1806  0.7948
  329MOL0     H45341   0.431   0.526   9.686  2.6141 -3.0757 -1.0412
  329MOL0     H45342   0.358   0.413   9.581  1.5656 -0.4748  1.4120
  329MOL0     H45343   0.456   0.682   9.464  1.5810 -0.2066 -1.2165
  329MOL0     H45344   0.418   0.528   9.381  0.7921 -0.0332 -0.8191
  329MOL0     H45345   0.660   0.564   9.572  2.1152 -1.3543  0.5946
  329MOL0     H45346   0.630   0.434   9.479  0.0246  0.4325  3.9012
  329MOL0     H45347   0.684   0.709   9.334 -1.2507  1.0639 -0.1688
  329MOL0     H45348   0.619   0.566   9.259 -1.8893  0.6326  1.5369
  329MOL0     H45349   0.875   0.619   9.425  2.4962 -1.1551 -1.3298
  329MOL0     H45350   0.828   0.454   9.364 -1.5634  0.3871 -0.2343
  329MOL0     H45351   0.993   0.779   9.250 -0.0156  1.1444 -0.5538
  329MOL0     H45352   1.020   0.773   8.851 -0.8052 -1.0096  0.5657
  329MOL0     H45353   1.112   0.842   8.987 -0.8045  0.1463  0.6886
  329MOL0     H45354   0.818   0.883   8.918 -2.5720  4.5137  1.0861
  329MOL0     H45355   0.891   0.975   9.043 -1.7588  2.0845 -0.5245
  329MOL0     H45356   1.034   1.094   8.877 -2.7532  2.5318  0.1446
  329MOL0     H45357   0.979   0.984   8.748  0.9864  0.3878 -1.1557
  329MOL0     H45358   0.729   1.096   8.818 -0.6975  0.8652 -0.3032
  329MOL0     H45359   0.823   1.190   8.929  0.6721 -2.5380  1.5453
  329MOL0     H45360   1.012   1.318   8.934 -0.6508 -0.3047 -0.1414
  329MOL0     H45361   1.302   1.505   8.963  0.0403  0.1853  0.8702
  329MOL0     H45362   1.158   1.471   9.057  1.9606  0.5681  1.0451
  329MOL0     H45363   1.172   1.627   8.989  1.1128  0.6064 -0.4958
  329MOL0     H45364   1.160   1.947   8.478  0.4649  4.0973 -0.4561
  329MOL0     H45365   1.299   2.143   8.425 -2.4967 -0.7067 -0.4061
  329MOL0     H45366   1.523   2.074   8.218 -0.7556 -0.3927  0.3432
  329MOL0     H45367   1.479   2.237   8.256  2.5657  1.0338 -1.7620
  329MOL0     H45368   1.672   2.266   8.139 -2.4366 -3.5267 -1.8107
  329MOL0     H45369   1.735   2.269   8.304 -1.5628  0.9899  0.4862
  329MOL0     H45370   1.734   2.042   8.095 -1.1109  2.1026 -0.6142
  329MOL0     H45371   1.798   2.018   8.254  1.3420  0.2237  0.9828
  329MOL0     H45372   1.982   2.191   8.215 -1.2726 -2.6833  1.8056
  329MOL0     H45373   1.924   2.202   8.042 -0.2619  0.2968 -0.2084
  329MOL0     H45374   1.965   1.960   8.041 -1.7035  1.3407  1.3716
  329MOL0     H45375   2.099   2.073   8.035 -0.0001 -0.1174 -0.9629
  329MOL0     H45376   2.033   1.932   8.296 -0.4117  1.9092 -0.1870
  329MOL0     H45377   2.171   2.043   8.248  0.3412 -0.6529  0.7793
  329MOL0     H45378   2.253   1.899   8.093 -2.7676  1.5407 -0.5223
  329MOL0     H45379   2.128   1.780   8.097  1.3330 -3.0834 -0.2024
  329MOL0     H45380   2.311   1.685   8.260  0.1415  1.3468  1.8634
  329MOL0     H45381   2.182   1.760   8.349  2.4214  0.5162  3.5069
  329MOL0     H45382   1.653   1.895   8.517 -0.6697  0.1880  0.2929
  329MOL0     H45383   1.511   1.706   8.570 -3.3351  0.9321  3.1641
  329MOL0     H45384   1.092   1.543   8.501 -1.2287  0.8078  0.7885
  329MOL0     H45385   0.911   1.373   8.524  1.2216 -0.2223 -1.0028
  329MOL0     H45386   0.238   0.998   9.959 -2.2240 -1.8659  3.8265
  329MOL0     H45387   0.391   1.094  10.121  1.1801  0.8704  2.4006
  329MOL0     H45388   0.908   0.767  10.287  2.9600 -0.5869  0.4070
  329MOL0     H45389   1.132   0.830  10.384  0.4623  1.1418  2.9746
  329MOL0     H45390   1.206   1.250  10.346  3.1791 -0.7446 -1.8467
  329MOL0     H45391   1.262   1.250  10.518  2.2234 -0.8993  0.4042
  329MOL0     H45392   1.463   1.122  10.440 -2.1528 -2.0641  1.4670
  329MOL0     H45393   1.433   1.281  10.360 -1.3183  1.4161  1.2998
  329MOL0     H45394   1.361   1.011  10.254  0.7635 -0.3892  0.1331
  329MOL0     H45395   1.319   1.169  10.167 -0.9787 -0.4411 -0.1910
  329MOL0     H45396   1.568   1.195  10.117 -0.2685  1.5106  2.0231
  329MOL0     H45397   1.512   1.040  10.057 -0.1000  1.4240 -0.8087
  329MOL0     H45398   1.705   0.885  10.391  0.3531 -1.1927 -0.8625
  329MOL0     H45399   1.001   1.226  10.420 -0.6092  0.7399 -2.2278
  329MOL0     H45400   0.640   1.170  10.378 -0.0933 -0.0650 -1.7143
  329MOL0     H45401   0.769   1.274  10.433 -0.2069 -0.3906  1.3344
  329MOL0     H45402   0.753   1.240  10.257 -0.6797 -1.1979 -0.5197
  330MOL0     O45403   4.110   9.651   4.968 -0.4178 -0.0390  0.0488
  330MOL0     C45404   4.067   9.598   5.068 -0.0591  0.7912  0.3566
  330MOL0     O45405   4.124   9.620   5.191 -0.5771  0.4101  0.1597
  330MOL0     C45406   4.257   9.669   5.198  0.2486 -0.3559 -0.7878
  330MOL0     C45407   4.278   9.774   5.291  0.2414 -0.1699  0.3406
  330MOL0     C45408   4.396   9.830   5.312 -0.5197 -0.7169  0.2431
  330MOL0     C45409   4.508   9.805   5.235  0.9221 -1.2285  0.0290
  330MOL0     O45410   4.622   9.876   5.240 -0.5044  0.0761  0.6678
  330MOL0     C45411   4.638   9.984   5.336 -0.2980  0.0993  0.2063
  330MOL0     C45412   4.711  10.100   5.268  0.4000  0.6137 -0.1146
  330MOL0     C45413   4.851  10.061   5.209  0.2469 -0.5149 -0.0551
  330MOL0     C45414   4.943   9.976   5.298  0.1788  0.1947 -0.3588
  330MOL0     C45415   5.090   9.981   5.249 -0.4010  0.1400  0.5809
  330MOL0     C45416   5.194   9.923   5.352  0.0524  0.0916 -0.2064
  330MOL0     C45417   5.335   9.930   5.302  0.8802  0.3497  0.6787
  330MOL0     C45418   5.446   9.899   5.408 -1.0007 -0.0351  0.2226
  330MOL0     N45419   5.577   9.892   5.341 -0.6461  0.3003 -0.9458
  330MOL0     C45420   5.636   9.984   5.266  0.8046  0.7720  0.7430
  330MOL0     C45421   5.768   9.949   5.264  0.0882 -0.6636  0.8073
  330MOL0     C45422   5.878  10.013   5.179 -0.5410 -0.5944  0.3535
  330MOL0     C45423   5.973   9.918   5.110 -0.4124 -0.1307 -0.3173
  330MOL0     C45424   6.061  10.001   5.020 -0.4881 -0.8379  0.6237
  330MOL0     C45425   6.166   9.927   4.942 -0.1910 -0.6109  0.4943
  330MOL0     O45426   6.099   9.823   4.864 -0.2066  0.3146  0.2609
  330MOL0     C45427   6.032   9.861   4.744  0.7364  1.1081  0.1830
  330MOL0     C45428   5.955   9.757   4.686  0.2300  0.6575 -1.4444
  330MOL0     C45429   5.865   9.772   4.583  0.1097 -0.4133  0.2691
  330MOL0     C45430   5.772   9.658   4.547 -0.2364  0.0437  0.0753
  330MOL0     C45431   5.872   9.895   4.517 -0.0367 -0.2013  0.1709
  330MOL0     C45432   5.796   9.921   4.395  0.4044  1.3135 -0.6168
  330MOL0     O45433   5.869   9.963   4.289 -0.2381  0.6615  0.4246
  330MOL0     C45434   5.801   9.988   4.171 -0.1405  0.6379 -0.4868
  330MOL0     C45435   5.714   9.888   4.109  0.3233  0.7378 -0.0593
  330MOL0     C45436   5.656   9.913   3.983  0.8666  0.1541 -0.8591
  330MOL0     C45437   5.671  10.034   3.925 -0.8509 -0.2411 -0.0644
  330MOL0     O45438   5.621  10.035   3.796  0.0789  0.4339 -0.3207
  330MOL0     C45439   5.659  10.132   3.699  0.2218 -0.1849 -0.1059
  330MOL0     C45440   5.600  10.095   3.568  0.6708  1.0406  0.9916
  330MOL0     C45441   5.612  10.208   3.471  0.8626 -0.7425 -0.4725
  330MOL0     C45442   5.552  10.183   3.329  0.6027 -0.2283  0.2293
  330MOL0     C45443   5.573  10.298   3.227 -0.5702  0.1168  0.5853
  330MOL0     C45444   5.543  10.261   3.087 -0.4743 -0.1548  0.8555
  330MOL0     C45445   5.565  10.382   2.995  0.3659  0.4393 -0.3096
  330MOL0     C45446   5.516  10.361   2.849 -0.1982 -0.6804 -0.1779
  330MOL0    Cl45447   5.635  10.430   2.731  0.0868  0.3560  0.4485
  330MOL0     C45448   5.736  10.138   3.992  0.0492 -0.4269 -0.4254
  330MOL0     C45449   5.806  10.116   4.113 -0.1358  0.1053  0.3806
  330MOL0     O45450   5.666   9.910   4.398  0.1011 -0.1887 -0.1857
  330MOL0     C45451   5.964   9.993   4.558 -0.1619  0.1548 -0.4282
  330MOL0     C45452   6.042   9.978   4.676  0.2217 -0.2519  0.1277
  330MOL0     N45453   5.782   9.830   5.330  0.7492 -0.4888  0.7953
  330MOL0     N45454   5.668   9.803   5.380 -0.0245 -0.0148 -0.5589
  330MOL0     C45455   4.489   9.711   5.131  0.0020  0.2263  0.2286
  330MOL0     C45456   4.362   9.636   5.115 -1.2454 -0.3573 -0.6606
  330MOL0     C45457   3.944   9.516   5.059  0.5215  0.1955  0.0592
  330MOL0     C45458   3.910   9.439   5.177 -0.0844 -0.2604  0.3042
  330MOL0     C45459   3.836   9.321   5.177  0.2798 -0.6875 -0.4970
  330MOL0     C45460   3.768   9.284   5.062 -0.0499 -0.8950  0.0901
  330MOL0     O45461   3.688   9.177   5.047 -0.2678  0.3163 -0.2996
  330MOL0     C45462   3.663   9.082   5.152  0.5077 -0.2659  0.9159
  330MOL0     C45463   3.546   8.992   5.113  0.3415 -0.2919  0.2208
  330MOL0     C45464   3.504   8.906   5.241  0.2601 -0.4986  0.2374
  330MOL0     C45465   3.414   8.787   5.215  0.2196 -0.0385 -0.0331
  330MOL0     C45466   3.288   8.837   5.160  0.8384  0.0150  0.0614
  330MOL0     C45467   3.179   8.857   5.109 -0.3385  0.0689 -0.2797
  330MOL0     C45468   3.781   9.369   4.948 -0.0739  0.2963  0.0855
  330MOL0     C45469   3.871   9.477   4.945  0.6110 -0.0350  1.3343
  330MOL0     C45470   3.900   9.554   4.809  0.1824  0.7462 -0.3618
  330MOL0     H45471   4.191   9.784   5.355 -1.8793 -1.2136 -2.2338
  330MOL0     H45472   4.398   9.893   5.400 -2.1368  1.0225 -0.9092
  330MOL0     H45473   4.697   9.946   5.420 -2.3929  0.0580  1.7536
  330MOL0     H45474   4.541  10.030   5.356  0.4950  1.9180  0.0858
  330MOL0     H45475   4.637  10.135   5.195 -1.9958  2.7108  2.9883
  330MOL0     H45476   4.708  10.179   5.344 -1.4252 -0.5769  1.1427
  330MOL0     H45477   4.834   9.987   5.130 -1.0518  0.6656 -0.9176
  330MOL0     H45478   4.900  10.149   5.167 -1.0019 -0.5845 -1.7259
  330MOL0     H45479   4.939  10.016   5.400  0.5358 -0.2713 -0.1615
  330MOL0     H45480   4.908   9.873   5.293 -0.1137  0.2681  0.1353
  330MOL0     H45481   5.119  10.085   5.230 -0.8355  0.3758  1.1814
  330MOL0     H45482   5.097   9.937   5.149 -1.2868  2.4273 -0.5819
  330MOL0     H45483   5.200   9.969   5.451 -0.9919  1.5694 -0.7884
  330MOL0     H45484   5.166   9.824   5.388 -0.3585  0.9589  1.9974
  330MOL0     H45485   5.349  10.037   5.281  0.5553  0.1217 -0.7345
  330MOL0     H45486   5.343   9.863   5.216 -2.4135 -0.0480  0.5550
  330MOL0     H45487   5.453   9.980   5.481 -1.7825 -0.8891  1.2951
  330MOL0     H45488   5.414   9.805   5.456 -0.2473  0.9872  2.9153
  330MOL0     H45489   5.597  10.063   5.202  0.9210 -0.3302 -0.7483
  330MOL0     H45490   5.931  10.079   5.248 -2.2292 -0.0901  1.2326
  330MOL0     H45491   5.836  10.063   5.092 -2.2857 -3.1223 -0.3698
  330MOL0     H45492   6.040   9.886   5.191 -0.5561 -1.6123 -0.7588
  330MOL0     H45493   5.909   9.840   5.068 -0.5532  0.5029 -1.2933
  330MOL0     H45494   6.008  10.058   4.943  1.6688 -2.3577 -2.1571
  330MOL0     H45495   6.100  10.080   5.085 -0.9805  0.8490 -1.0413
  330MOL0     H45496   6.231   9.985   4.876  0.2008 -1.9569 -0.3400
  330MOL0     H45497   6.239   9.879   5.008  1.7890  1.4254 -0.0642
  330MOL0     H45498   5.955   9.661   4.736 -2.3069  1.3400  0.0386
  330MOL0     H45499   5.769   9.575   4.619  2.7083  1.5422  2.1674
  330MOL0     H45500   5.815   9.623   4.453  3.0704  1.7806  0.7709
  330MOL0     H45501   5.669   9.692   4.535 -0.5432 -0.6500  0.6331
  330MOL0     H45502   5.683   9.794   4.153 -0.6538  1.3263  0.5432
  330MOL0     H45503   5.593   9.839   3.934  1.8180  0.1189 -2.0620
  330MOL0     H45504   5.612  10.222   3.742 -1.9285 -0.5690 -1.5238
  330MOL0     H45505   5.767  10.148   3.696 -0.2757  4.4944 -2.3898
  330MOL0     H45506   5.660  10.012   3.530 -1.2821 -0.2251  0.5304
  330MOL0     H45507   5.496  10.064   3.579  0.9484 -1.3316 -1.9578
  330MOL0     H45508   5.720  10.218   3.456  0.6832  1.5295 -0.6792
  330MOL0     H45509   5.574  10.298   3.521  2.9260 -0.5835  0.9418
  330MOL0     H45510   5.446  10.157   3.322  1.0692 -1.7392 -2.5752
  330MOL0     H45511   5.608  10.101   3.284 -0.4439 -0.8989  0.1036
  330MOL0     H45512   5.507  10.380   3.255 -2.6916 -2.2668  3.0818
  330MOL0     H45513   5.678  10.330   3.235  0.1185 -1.9392  0.3257
  330MOL0     H45514   5.440  10.226   3.077 -0.2419 -0.6472  0.0635
  330MOL0     H45515   5.603  10.181   3.043  0.0822  0.7574 -0.0953
  330MOL0     H45516   5.672  10.403   2.998  0.0401  2.1691  0.1234
  330MOL0     H45517   5.511  10.473   3.022  0.3045  0.9216 -1.9723
  330MOL0     H45518   5.424  10.418   2.834 -0.6503 -1.5700 -0.8979
  330MOL0     H45519   5.510  10.256   2.818  0.2746 -0.9791  0.7076
  330MOL0     H45520   5.737  10.243   3.965 -1.3826 -0.5272 -0.9935
  330MOL0     H45521   5.846  10.207   4.156 -0.1785  0.3407 -0.0689
  330MOL0     H45522   5.963  10.092   4.513  0.6707  0.9304  1.1899
  330MOL0     H45523   6.113  10.056   4.702  2.4895 -1.8025 -1.1360
  330MOL0     H45524   4.579   9.689   5.075 -0.0684  1.4688 -0.3898
  330MOL0     H45525   4.351   9.564   5.035  1.6574  0.3446 -1.8089
  330MOL0     H45526   3.962   9.471   5.267  2.1001  0.2252 -1.0770
  330MOL0     H45527   3.819   9.265   5.268 -2.0282 -1.3116 -1.2231
  330MOL0     H45528   3.744   9.012   5.176  0.0209  0.0469  3.8655
  330MOL0     H45529   3.647   9.141   5.243  1.5735  2.3862 -0.5102
  330MOL0     H45530   3.574   8.918   5.037 -2.1596 -2.3622  1.1709
  330MOL0     H45531   3.464   9.054   5.074 -0.0443  0.4715  2.1646
  330MOL0     H45532   3.601   8.874   5.281  0.8003 -1.2291 -1.5274
  330MOL0     H45533   3.465   8.975   5.315  1.5942  0.6926 -0.1190
  330MOL0     H45534   3.396   8.750   5.317  0.2919  1.8847  0.7383
  330MOL0     H45535   3.458   8.708   5.155 -0.8747  1.1753 -2.5917
  330MOL0     H45536   3.084   8.870   5.062 -0.0124 -4.2672 -2.6116
  330MOL0     H45537   3.712   9.345   4.868 -1.7214  2.2426  0.8271
  330MOL0     H45538   3.999   9.526   4.772 -0.0507 -0.7015  0.0505
  330MOL0     H45539   3.821   9.520   4.742  0.3666 -1.3894  0.4078
  330MOL0     H45540   3.888   9.661   4.826  1.9694  0.9615 -0.2761
  331MOL0     O45541   0.097   5.716  10.194  0.4003 -0.0685 -0.7102
  331MOL0     C45542   0.149   5.734  10.083  0.2614  0.4241 -0.3809
  331MOL0     O45543   0.284   5.756  10.063 -0.0277 -0.6493 -0.0166
  331MOL0     C45544   0.379   5.711  10.152 -0.1728  0.3341  0.0946
  331MOL0     C45545   0.360   5.597  10.231  0.6393  0.4572  0.1417
  331MOL0     C45546   0.434   5.571  10.342  0.0343  0.1976  0.0329
  331MOL0     C45547   0.546   5.651  10.378 -0.8605  0.3832 -0.1982
  331MOL0     O45548   0.643   5.606  10.465 -0.2246 -0.4442  0.3675
  331MOL0     C45549   0.638   5.466  10.495  0.1755  0.3286  0.7276
  331MOL0     C45550   0.749   5.437  10.587 -0.2978  0.4127 -0.8608
  331MOL0     C45551   0.891   5.471  10.533  0.4246 -0.0156 -0.3997
  331MOL0     C45552   1.006   5.435  10.624 -0.6350 -0.0931  0.1005
  331MOL0     C45553   1.137   5.509  10.583  0.2319  0.4562 -0.8156
  331MOL0     C45554   1.246   5.490  10.695  1.0197  0.5802 -0.2404
  331MOL0     C45555   1.387   5.547  10.646 -0.4293 -0.4010  0.5815
  331MOL0     C45556   1.476   5.450  10.562  1.0483  0.2110  1.2249
  331MOL0     N45557   1.594   5.526  10.488  0.6020  0.6746 -1.0831
  331MOL0     C45558   1.677   5.620  10.546 -0.0782  0.5087 -0.3335
  331MOL0     C45559   1.763   5.670  10.454  0.2435  1.1622  0.8417
  331MOL0     C45560   1.896   5.747  10.464  0.1046 -0.9396 -1.0130
  331MOL0     C45561   2.025   5.666  10.494  0.4639 -0.6299 -0.1600
  331MOL0     C45562   2.055   5.549  10.403 -0.8044 -1.5993  1.1051
  331MOL0     C45563   2.203   5.535  10.392 -1.5922  0.1795  0.1186
  331MOL0     O45564   2.264   5.504  10.518  0.1297  0.3011  0.1405
  331MOL0     C45565   2.380   5.432  10.546 -0.1313  0.1623  0.8684
  331MOL0     C45566   2.382   5.351  10.651 -0.5276 -0.4855 -0.7692
  331MOL0     C45567   2.501   5.278  10.680  0.0534 -0.4351 -0.4118
  331MOL0     C45568   2.513   5.217  10.818  0.0774  0.4706 -0.0715
  331MOL0     C45569   2.618   5.269  10.587  0.2086 -0.1029 -0.2324
  331MOL0     C45570   2.746   5.208  10.616  0.0229  0.7080  1.1239
  331MOL0     O45571   2.851   5.237  10.528 -0.2667 -0.5472 -0.4356
  331MOL0     C45572   2.964   5.161  10.556  1.1794 -0.6593  0.9504
  331MOL0     C45573   3.036   5.186  10.668 -0.0013  0.3599  0.2495
  331MOL0     C45574   3.158   5.132  10.687 -0.2529  0.7995 -0.1426
  331MOL0     C45575   3.217   5.045  10.602  0.2561  0.3517  0.3224
  331MOL0     O45576   3.346   4.992  10.628  0.3968  0.0097  0.0373
  331MOL0     C45577   3.440   4.967  10.525 -0.1336 -0.1122 -0.2159
  331MOL0     C45578   3.568   4.920  10.602  0.1725 -0.3558  0.1503
  331MOL0     C45579   3.690   4.946  10.517  0.2412  0.1432  0.8083
  331MOL0     C45580   3.804   4.990  10.605 -0.9513  0.3708  0.7010
  331MOL0     C45581   3.944   4.972  10.548 -0.1896  0.7722  0.0490
  331MOL0     C45582   4.053   5.041  10.643  0.2669 -0.1746 -0.5395
  331MOL0     C45583   4.186   5.034  10.562  0.1212 -0.7340 -0.3045
  331MOL0     C45584   4.273   4.917  10.590 -0.3838 -0.3470  0.1546
  331MOL0    Cl45585   4.356   4.916  10.747 -0.0716  0.2401 -0.1060
  331MOL0     C45586   3.156   5.017  10.490  0.7752 -0.9899  0.2886
  331MOL0     C45587   3.024   5.078  10.459 -0.3347 -0.5749  0.6301
  331MOL0     O45588   2.752   5.131  10.709 -0.4683 -0.0436 -0.4161
  331MOL0     C45589   2.595   5.337  10.466  0.8705  0.1858  0.6216
  331MOL0     C45590   2.484   5.421  10.452  0.1471 -0.7365  0.2067
  331MOL0     N45591   1.725   5.608  10.334 -0.3825  0.4858 -0.6675
  331MOL0     N45592   1.622   5.523  10.355 -0.2744  0.5249 -0.4431
  331MOL0     C45593   0.573   5.760  10.298  0.7770 -1.0658  0.6698
  331MOL0     C45594   0.491   5.795  10.182  0.3719 -0.4582 -0.2710
  331MOL0     C45595   0.063   5.709   9.967 -0.0399 -1.4215  0.0564
  331MOL0     C45596   0.125   5.670   9.849 -0.0334  0.8239  0.7503
  331MOL0     C45597   0.047   5.624   9.736  0.3327 -0.2511  0.0816
  331MOL0     C45598  -0.090   5.634   9.737  0.4703  0.6238  0.0906
  331MOL0     O45599  -0.154   5.579   9.628 -0.0140  0.1330 -0.0042
  331MOL0     C45600  -0.294   5.538   9.627  1.2619  0.2221  0.7029
  331MOL0     C45601  -0.310   5.412   9.705  0.8867 -0.7550  0.7149
  331MOL0     C45602  -0.463   5.389   9.742 -0.9478 -0.5465  0.2005
  331MOL0     C45603  -0.492   5.472   9.869  0.7559 -0.8451  0.2214
  331MOL0     C45604  -0.623   5.429   9.927 -0.4399  0.1136  0.9398
  331MOL0     C45605  -0.724   5.392   9.983 -0.1281  0.7378 -0.2021
  331MOL0     C45606  -0.151   5.705   9.848  0.6741 -0.5153  1.3304
  331MOL0     C45607  -0.078   5.739   9.961 -0.2103 -0.4141 -0.2052
  331MOL0     C45608  -0.160   5.777  10.085 -0.3102  1.3464 -0.0818
  331MOL0     H45609   0.285   5.521  10.213  1.5303 -0.3487 -0.2677
  331MOL0     H45610   0.413   5.485  10.405  2.0821  0.3291  0.9847
  331MOL0     H45611   0.643   5.409  10.401  1.0457 -1.7922  1.9986
  331MOL0     H45612   0.543   5.444  10.545 -0.4575 -2.1127 -1.3222
  331MOL0     H45613   0.729   5.495  10.677  0.8732  2.3201 -1.7551
  331MOL0     H45614   0.749   5.332  10.617  1.4758  0.9722  1.3979
  331MOL0     H45615   0.904   5.412  10.442  1.2756 -0.5749  0.0760
  331MOL0     H45616   0.896   5.576  10.503 -1.6370  0.0553 -0.6943
  331MOL0     H45617   0.982   5.470  10.725 -3.3428 -0.6727 -0.2634
  331MOL0     H45618   1.012   5.326  10.634 -2.9389 -0.5056 -2.0766
  331MOL0     H45619   1.109   5.614  10.572  1.1643  0.8511  0.3706
  331MOL0     H45620   1.172   5.471  10.486 -0.4754 -2.2400 -0.1112
  331MOL0     H45621   1.229   5.560  10.778  2.8857  3.1918 -1.9100
  331MOL0     H45622   1.253   5.388  10.735 -1.9430  1.0411  1.7363
  331MOL0     H45623   1.454   5.569  10.730  3.3528 -1.5313 -1.8527
  331MOL0     H45624   1.379   5.647  10.601  1.2937  0.0664  1.2018
  331MOL0     H45625   1.519   5.373  10.627 -1.3651 -0.8980  1.6537
  331MOL0     H45626   1.409   5.408  10.486  2.9066  2.3566 -1.8059
  331MOL0     H45627   1.699   5.632  10.652  1.6822  2.2582 -0.8234
  331MOL0     H45628   1.884   5.812  10.551 -0.3871 -0.3654 -1.5032
  331MOL0     H45629   1.906   5.807  10.373 -0.6630 -0.4572 -0.7895
  331MOL0     H45630   2.108   5.735  10.481  1.8419 -2.6937 -3.4548
  331MOL0     H45631   2.019   5.638  10.600  0.5642  3.2155  1.0064
  331MOL0     H45632   2.024   5.456  10.452 -1.4773 -2.1988 -0.4136
  331MOL0     H45633   2.019   5.548  10.300  1.5226  0.8639  0.1301
  331MOL0     H45634   2.233   5.456  10.323  1.2292  1.2856 -0.0726
  331MOL0     H45635   2.253   5.622  10.348 -0.0707 -1.9350 -2.6793
  331MOL0     H45636   2.298   5.350  10.721  0.3509  0.8380  0.3445
  331MOL0     H45637   2.438   5.263  10.884  0.1010 -0.4954  0.6569
  331MOL0     H45638   2.611   5.242  10.860 -0.2285  1.0898  0.2924
  331MOL0     H45639   2.496   5.109  10.826 -0.5792  0.5472 -0.3939
  331MOL0     H45640   2.986   5.249  10.741 -0.4600  1.6582 -1.1302
  331MOL0     H45641   3.213   5.138  10.780 -1.1341  1.0424  0.3709
  331MOL0     H45642   3.406   4.890  10.455  3.0132  1.1981 -3.5162
  331MOL0     H45643   3.458   5.057  10.466  1.7752 -1.4614 -1.7852
  331MOL0     H45644   3.579   4.976  10.695  0.2821 -2.3554  1.3951
  331MOL0     H45645   3.554   4.816  10.633  0.4354  0.1762  2.1982
  331MOL0     H45646   3.680   5.021  10.438 -1.1966 -1.7077 -0.8423
  331MOL0     H45647   3.705   4.850  10.467 -3.5402 -2.3082  3.7388
  331MOL0     H45648   3.787   4.964  10.710  0.4034  2.3653  1.4987
  331MOL0     H45649   3.787   5.098  10.617  0.1170  0.5024  1.1949
  331MOL0     H45650   3.955   4.863  10.544 -0.9056  0.7135 -0.5733
  331MOL0     H45651   3.940   5.009  10.446  3.2355 -1.9662 -1.2753
  331MOL0     H45652   4.052   5.002  10.745 -0.1777  0.6146 -0.2351
  331MOL0     H45653   4.032   5.146  10.663 -3.2790 -0.3093 -2.6439
  331MOL0     H45654   4.236   5.119  10.610  2.6030 -2.4598  0.3072
  331MOL0     H45655   4.160   5.053  10.457 -3.8963  0.3839  0.6958
  331MOL0     H45656   4.356   4.927  10.518 -0.7739  1.8928 -0.0543
  331MOL0     H45657   4.221   4.822  10.578  0.7500 -1.6036  3.7569
  331MOL0     H45658   3.208   4.956  10.417 -2.7080  0.2173 -3.5668
  331MOL0     H45659   2.970   5.051  10.369  1.4792 -1.9042 -0.1286
  331MOL0     H45660   2.668   5.321  10.387  0.0383 -0.8064  0.0307
  331MOL0     H45661   2.464   5.473  10.359 -3.0335  1.6049  1.9615
  331MOL0     H45662   0.664   5.818  10.310 -0.3124  0.8315  0.2954
  331MOL0     H45663   0.513   5.879  10.117 -1.1495  0.0505 -0.1746
  331MOL0     H45664   0.233   5.658   9.850 -0.2455 -2.2083  2.8775
  331MOL0     H45665   0.101   5.575   9.655 -0.0731  1.2045 -1.1221
  331MOL0     H45666  -0.356   5.626   9.648  1.5632  0.7054 -0.3517
  331MOL0     H45667  -0.310   5.513   9.522  0.8395 -2.1595  1.2943
  331MOL0     H45668  -0.252   5.408   9.797  1.0995 -0.3799  0.6000
  331MOL0     H45669  -0.267   5.326   9.652 -1.7664 -1.1796 -0.9897
  331MOL0     H45670  -0.519   5.425   9.655 -0.0572  0.3243 -0.0325
  331MOL0     H45671  -0.482   5.287   9.775  1.6553 -1.4025 -0.7337
  331MOL0     H45672  -0.484   5.581   9.866  0.5307 -0.8023  0.9047
  331MOL0     H45673  -0.421   5.450   9.949  1.5550 -0.4936 -0.3785
  331MOL0     H45674  -0.818   5.381  10.033 -0.2267 -2.0937 -0.8195
  331MOL0     H45675  -0.259   5.709   9.860  0.6445 -1.6502  1.5429
  331MOL0     H45676  -0.256   5.819  10.052 -1.8972 -2.3570 -0.6614
  331MOL0     H45677  -0.178   5.682  10.136 -1.9358  2.5000  1.6465
  331MOL0     H45678  -0.104   5.843  10.153 -1.5784  0.8465  1.5156
  332MOL0     O45679   0.434   8.973   0.460  0.0080  0.1898 -0.7469
  332MOL0     C45680   0.411   9.092   0.434  1.0170  0.6066 -0.5411
  332MOL0     O45681   0.493   9.189   0.383 -0.3208  0.2934  0.6292
  332MOL0     C45682   0.611   9.140   0.347  0.3860  1.0954 -0.7870
  332MOL0     C45683   0.636   9.119   0.213  0.1839 -0.6691  0.6686
  332MOL0     C45684   0.750   9.061   0.165 -0.0237  0.1886 -0.3303
  332MOL0     C45685   0.851   9.024   0.246 -0.0852 -1.1973  0.0505
  332MOL0     O45686   0.965   8.963   0.208 -0.6621  0.0514 -0.1384
  332MOL0     C45687   1.007   8.953   0.068  0.1965 -0.1264 -1.2935
  332MOL0     C45688   0.965   8.816   0.021  0.1421  0.0547 -0.9771
  332MOL0     C45689   1.020   8.684   0.077  0.0619  0.1517  0.3164
  332MOL0     C45690   1.161   8.662   0.020  0.1381  0.6814  0.6203
  332MOL0     C45691   1.209   8.519   0.037  0.4912  0.3479  0.2704
  332MOL0     C45692   1.332   8.478  -0.047  0.4244  1.1652 -0.4813
  332MOL0     C45693   1.361   8.328  -0.013  0.4358  1.1283 -0.1736
  332MOL0     C45694   1.462   8.320   0.097 -0.2464  0.7298  0.0836
  332MOL0     N45695   1.499   8.180   0.126  0.9840  0.0030  0.0339
  332MOL0     C45696   1.576   8.097   0.041 -1.1104 -0.6515  0.4409
  332MOL0     C45697   1.594   7.986   0.108  0.0810 -0.4143 -0.4629
  332MOL0     C45698   1.678   7.870   0.068 -0.9177 -0.6015 -0.5286
  332MOL0     C45699   1.600   7.750   0.017 -0.2845 -0.0747 -0.4576
  332MOL0     C45700   1.572   7.778  -0.127  0.0283  0.4927  0.5309
  332MOL0     C45701   1.540   7.646  -0.189 -0.3998 -0.0511  0.5645
  332MOL0     O45702   1.656   7.558  -0.194 -0.1156 -0.0751  0.4819
  332MOL0     C45703   1.750   7.593  -0.286  0.4522 -0.0068 -0.8205
  332MOL0     C45704   1.872   7.646  -0.251 -0.0945 -1.8994 -0.0895
  332MOL0     C45705   1.962   7.685  -0.348 -0.4534 -0.1313 -0.0771
  332MOL0     C45706   2.102   7.748  -0.309  0.3228 -0.6052  0.7482
  332MOL0     C45707   1.929   7.658  -0.485 -0.0888  0.0788 -0.2721
  332MOL0     C45708   2.021   7.694  -0.592  0.2647 -0.5026 -0.2475
  332MOL0     O45709   2.161   7.678  -0.575 -0.4159 -0.0194 -0.1008
  332MOL0     C45710   2.259   7.690  -0.675 -0.0873 -0.0318  1.1333
  332MOL0     C45711   2.249   7.729  -0.811 -0.1892 -0.0366  0.5236
  332MOL0     C45712   2.365   7.735  -0.891  0.4099  0.0639  0.6296
  332MOL0     C45713   2.493   7.688  -0.849  0.0540 -0.6771  0.0356
  332MOL0     O45714   2.607   7.676  -0.920  0.2493  0.1749 -0.3173
  332MOL0     C45715   2.580   7.660  -1.056  0.2753  0.5391 -0.5972
  332MOL0     C45716   2.695   7.603  -1.139  0.4782  0.0829 -0.2870
  332MOL0     C45717   2.710   7.452  -1.152 -0.4419  0.1027  0.3769
  332MOL0     C45718   2.663   7.371  -1.032 -0.0416  0.9048 -0.4210
  332MOL0     C45719   2.721   7.219  -1.022  0.2251 -0.2041  0.3302
  332MOL0     C45720   2.675   7.133  -0.907 -0.7064  0.3649  0.1960
  332MOL0     C45721   2.752   7.002  -0.891  0.5082 -1.0583 -0.1702
  332MOL0     C45722   2.699   6.930  -0.766 -1.1762  0.3012  0.6512
  332MOL0    Cl45723   2.524   6.904  -0.780 -0.8976 -0.0196 -0.3360
  332MOL0     C45724   2.500   7.641  -0.717 -0.9164 -0.2324  0.4037
  332MOL0     C45725   2.387   7.646  -0.631 -0.9909 -0.5095  0.0120
  332MOL0     O45726   1.974   7.748  -0.691 -0.6378 -0.3972 -0.5318
  332MOL0     C45727   1.812   7.601  -0.517 -0.4972  0.3327 -0.3447
  332MOL0     C45728   1.721   7.572  -0.416 -0.3060  0.0092  0.3608
  332MOL0     N45729   1.522   7.992   0.227  0.5210  0.1741 -0.1058
  332MOL0     N45730   1.458   8.107   0.229  0.9271  0.2790  0.4355
  332MOL0     C45731   0.836   9.041   0.380 -0.9388 -0.5083 -0.2615
  332MOL0     C45732   0.716   9.105   0.431  0.2400  0.4384 -1.1947
  332MOL0     C45733   0.273   9.132   0.443 -0.8003  0.2429  0.2173
  332MOL0     C45734   0.193   9.108   0.325 -0.3619  0.0477 -0.8418
  332MOL0     C45735   0.053   9.134   0.324 -0.8988  0.3163 -0.4921
  332MOL0     C45736  -0.014   9.185   0.439 -0.0169  0.0955 -0.2797
  332MOL0     O45737  -0.140   9.225   0.447 -0.3547 -1.0872  0.1886
  332MOL0     C45738  -0.212   9.208   0.335  0.3621 -0.2664 -0.7709
  332MOL0     C45739  -0.360   9.238   0.394 -0.0751  0.4494  0.0655
  332MOL0     C45740  -0.464   9.183   0.296 -0.4230  0.4245  1.4174
  332MOL0     C45741  -0.598   9.173   0.359  0.7711  0.6653  1.1169
  332MOL0     C45742  -0.674   9.302   0.354  0.8362 -0.1940 -0.4756
  332MOL0     C45743  -0.722   9.410   0.324  0.6266 -0.1884 -0.0134
  332MOL0     C45744   0.062   9.182   0.560  0.0452  0.0308  0.3896
  332MOL0     C45745   0.201   9.171   0.557 -0.1900  0.4469  0.8194
  332MOL0     C45746   0.262   9.174   0.694  0.4649  0.3851  1.5375
  332MOL0     H45747   0.553   9.142   0.147  0.6292 -1.5770 -0.2382
  332MOL0     H45748   0.746   9.032   0.061 -0.3359 -0.7373 -0.0685
  332MOL0     H45749   1.116   8.964   0.066  0.1081  2.4419  1.1637
  332MOL0     H45750   0.963   9.029   0.003 -3.1091  0.0244  0.8478
  332MOL0     H45751   0.856   8.807   0.028  0.2285  0.0965  0.7217
  332MOL0     H45752   0.998   8.822  -0.083 -2.1601  3.3904 -1.7012
  332MOL0     H45753   1.019   8.695   0.186 -1.2498 -0.9740  0.4468
  332MOL0     H45754   0.949   8.610   0.040  0.0982  1.8229 -3.6060
  332MOL0     H45755   1.160   8.668  -0.089  0.8268 -1.1268  0.4749
  332MOL0     H45756   1.229   8.732   0.070 -2.2863  1.9343  2.3390
  332MOL0     H45757   1.127   8.457   0.001 -0.0853  1.0464  0.3678
  332MOL0     H45758   1.223   8.496   0.142  1.2436 -0.1035  0.0747
  332MOL0     H45759   1.302   8.487  -0.152 -2.5466  0.0168  0.1723
  332MOL0     H45760   1.415   8.544  -0.021 -0.1067  0.4339  3.7002
  332MOL0     H45761   1.391   8.285  -0.109 -2.0550 -0.3992 -0.3718
  332MOL0     H45762   1.270   8.274   0.016  0.3141  0.0267 -2.3719
  332MOL0     H45763   1.557   8.368   0.072  0.0301 -0.3905 -1.1445
  332MOL0     H45764   1.427   8.372   0.187  2.9230  0.7260  1.4768
  332MOL0     H45765   1.619   8.134  -0.052 -2.3487  5.1566  1.7989
  332MOL0     H45766   1.727   7.844   0.161 -0.4555 -0.7626 -0.8161
  332MOL0     H45767   1.756   7.899  -0.003  1.5268  0.7594  2.5056
  332MOL0     H45768   1.668   7.665   0.018  1.4078  1.1399 -2.9580
  332MOL0     H45769   1.508   7.726   0.071 -1.6236  3.5735 -0.8893
  332MOL0     H45770   1.480   7.834  -0.145 -0.0683  0.5246  1.0960
  332MOL0     H45771   1.655   7.818  -0.185 -0.1151 -2.1878 -1.7002
  332MOL0     H45772   1.452   7.602  -0.142 -0.1459  1.3116  2.4244
  332MOL0     H45773   1.511   7.670  -0.292 -0.5534  0.7145  0.7813
  332MOL0     H45774   1.888   7.667  -0.145  0.4237 -0.0575 -0.4868
  332MOL0     H45775   2.171   7.663  -0.312  1.4505  0.3079  0.2714
  332MOL0     H45776   2.097   7.787  -0.207 -1.4946 -0.7749  0.7700
  332MOL0     H45777   2.146   7.831  -0.365  3.3119 -2.0245  0.7967
  332MOL0     H45778   2.161   7.758  -0.869  1.7384  2.6952 -1.2785
  332MOL0     H45779   2.366   7.776  -0.991 -3.1209  1.4352  1.0140
  332MOL0     H45780   2.501   7.587  -1.076 -1.3606  1.1074  2.9157
  332MOL0     H45781   2.539   7.751  -1.100 -1.0939  0.6853  0.8878
  332MOL0     H45782   2.667   7.644  -1.236 -0.5761  2.5074  0.9364
  332MOL0     H45783   2.787   7.653  -1.107  0.4747 -0.8774  1.3605
  332MOL0     H45784   2.817   7.438  -1.169  0.0383  1.9602  1.5732
  332MOL0     H45785   2.659   7.417  -1.242  0.2606  0.8512 -0.3295
  332MOL0     H45786   2.556   7.373  -1.009  0.1731  0.2924  0.6942
  332MOL0     H45787   2.700   7.428  -0.947 -2.3575  1.5012  0.2570
  332MOL0     H45788   2.676   7.178  -1.113 -2.0734  3.1838 -0.2794
  332MOL0     H45789   2.829   7.228  -1.032  0.1716  0.4426  0.2790
  332MOL0     H45790   2.567   7.119  -0.902 -0.7810  0.9588  4.3355
  332MOL0     H45791   2.704   7.195  -0.821  4.1277 -0.5559 -0.4485
  332MOL0     H45792   2.860   7.019  -0.897  0.2200  0.7158 -0.8004
  332MOL0     H45793   2.717   6.936  -0.970  0.3687 -0.1827 -0.8516
  332MOL0     H45794   2.723   6.996  -0.681  0.2328  0.0909  0.4285
  332MOL0     H45795   2.748   6.835  -0.744 -2.3904 -0.1604  1.5023
  332MOL0     H45796   2.597   7.611  -0.678  0.4063  3.1725  0.0404
  332MOL0     H45797   2.401   7.606  -0.531  1.6647 -1.9185 -0.8036
  332MOL0     H45798   1.780   7.574  -0.617 -0.3833 -0.6938 -0.1109
  332MOL0     H45799   1.625   7.524  -0.437 -0.1065  0.7710 -2.7794
  332MOL0     H45800   0.910   9.005   0.451  2.3053 -0.1262 -3.1824
  332MOL0     H45801   0.703   9.122   0.537 -1.0089 -0.5900 -1.1601
  332MOL0     H45802   0.254   9.077   0.241  2.8168 -1.5527  1.8221
  332MOL0     H45803   0.002   9.135   0.228 -0.6860  1.4429 -0.6098
  332MOL0     H45804  -0.185   9.273   0.251 -1.1771  1.4160 -0.0007
  332MOL0     H45805  -0.199   9.111   0.286 -0.4488 -0.2585 -1.0054
  332MOL0     H45806  -0.373   9.343   0.419  1.5197  0.9512 -1.0626
  332MOL0     H45807  -0.356   9.176   0.484  1.1145  0.6126  0.1454
  332MOL0     H45808  -0.466   9.255   0.214  1.2127 -0.4528  0.5607
  332MOL0     H45809  -0.429   9.087   0.258 -0.8867  0.7806  0.0476
  332MOL0     H45810  -0.587   9.139   0.462  2.6277 -0.7431  0.5215
  332MOL0     H45811  -0.641   9.084   0.311  0.0622  1.3958  0.3703
  332MOL0     H45812  -0.759   9.502   0.284  0.7224 -1.0995 -2.3139
  332MOL0     H45813   0.009   9.180   0.655 -0.1393 -3.0982  0.3140
  332MOL0     H45814   0.196   9.119   0.760 -0.5340 -0.3379 -0.0067
  332MOL0     H45815   0.364   9.134   0.700  0.8555  0.9926 -0.3694
  332MOL0     H45816   0.261   9.274   0.737 -2.7035  0.4935  1.4424
  333MOL0     O45817   4.030  10.677  10.237 -0.1816  0.4520  0.5382
  333MOL0     C45818   4.039  10.618  10.343  0.1243 -0.0329 -0.1398
  333MOL0     O45819   3.979  10.503  10.380 -0.0940 -0.5823 -0.4510
  333MOL0     C45820   3.894  10.439  10.298 -0.4403  0.2413 -0.8456
  333MOL0     C45821   3.876  10.301  10.315  0.4212 -0.2054  0.2859
  333MOL0     C45822   3.786  10.225  10.240  0.6118  0.1864  0.3365
  333MOL0     C45823   3.685  10.286  10.166  0.7375  0.1597 -0.5263
  333MOL0     O45824   3.575  10.229  10.108 -0.1402  0.4616 -0.4625
  333MOL0     C45825   3.558  10.087  10.094 -0.9030  0.7232 -0.2035
  333MOL0     C45826   3.425  10.056  10.011 -0.4930 -0.5963  0.0926
  333MOL0     C45827   3.435  10.136   9.882  0.8317  0.6198  0.1980
  333MOL0     C45828   3.323  10.106   9.781  0.4096  0.4900 -0.5795
  333MOL0     C45829   3.330  10.208   9.675  0.6541  0.4656  0.4629
  333MOL0     C45830   3.206  10.219   9.592 -0.1378  0.0827  0.2572
  333MOL0     C45831   3.219  10.306   9.460 -0.7260  0.5056  0.2235
  333MOL0     C45832   3.300  10.238   9.338  0.9498 -0.6191  0.1358
  333MOL0     N45833   3.249  10.118   9.279  0.3581  0.1947 -0.1158
  333MOL0     C45834   3.124  10.109   9.219 -0.0307  0.3979 -0.0563
  333MOL0     C45835   3.119   9.992   9.158  0.8190  0.9358  0.0540
  333MOL0     C45836   2.992   9.950   9.077 -0.6422  1.2405 -0.1694
  333MOL0     C45837   2.901   9.865   9.161 -0.1526 -0.1850 -0.8127
  333MOL0     C45838   2.781   9.943   9.227  0.4195  0.2924 -0.6624
  333MOL0     C45839   2.709   9.845   9.326  0.3093 -0.3512 -0.4472
  333MOL0     O45840   2.798   9.813   9.445  0.5754 -0.5658  0.1971
  333MOL0     C45841   2.811   9.902   9.545 -0.2416 -0.4415 -0.3694
  333MOL0     C45842   2.702   9.977   9.594  0.1609  0.1614  0.7969
  333MOL0     C45843   2.722  10.062   9.700 -0.3004  0.6873  0.2519
  333MOL0     C45844   2.592  10.132   9.758  0.3026  0.2553  0.2602
  333MOL0     C45845   2.849  10.081   9.750 -0.3921 -0.3174 -0.2943
  333MOL0     C45846   2.877  10.166   9.870 -0.3607 -0.1661  0.0822
  333MOL0     O45847   2.979  10.133   9.953 -0.5268  0.4826  0.5737
  333MOL0     C45848   3.018  10.222  10.051  0.3868  0.4525  0.1675
  333MOL0     C45849   2.947  10.234  10.171 -0.3314 -0.3510  0.1240
  333MOL0     C45850   2.997  10.323  10.269  0.7311 -0.2246 -0.0001
  333MOL0     C45851   3.116  10.397  10.243  0.0921 -0.1323 -0.1273
  333MOL0     O45852   3.168  10.494  10.319  0.2312 -0.1835  0.3952
  333MOL0     C45853   3.132  10.504  10.455 -0.4272  0.5250 -0.6828
  333MOL0     C45854   3.239  10.594  10.532 -0.7405 -1.0572  0.6921
  333MOL0     C45855   3.378  10.546  10.499 -0.1582  0.0281 -0.5440
  333MOL0     C45856   3.472  10.598  10.617 -0.9269  0.6439 -0.2082
  333MOL0     C45857   3.600  10.528  10.608 -1.1323  0.3462 -0.2840
  333MOL0     C45858   3.659  10.551  10.752  0.0993  0.6094  2.0484
  333MOL0     C45859   3.813  10.505  10.761  0.6175 -0.4954 -0.1873
  333MOL0     C45860   3.845  10.373  10.685  1.1408 -0.1197 -0.2575
  333MOL0    Cl45861   3.987  10.294  10.727 -0.2257  0.2131  0.5416
  333MOL0     C45862   3.191  10.371  10.128  0.1441 -0.5489 -0.3794
  333MOL0     C45863   3.142  10.289  10.028 -0.2343  0.0677 -0.3751
  333MOL0     O45864   2.812  10.265   9.881 -0.0546 -0.2626  0.3452
  333MOL0     C45865   2.949  10.002   9.700 -0.4053  0.4470 -0.9995
  333MOL0     C45866   2.931   9.921   9.593 -0.2425  0.9436  0.1855
  333MOL0     N45867   3.236   9.926   9.188  0.1381 -0.0735  0.2122
  333MOL0     N45868   3.315  10.004   9.255  0.4587  0.7145  1.4404
  333MOL0     C45869   3.696  10.427  10.159 -0.9535  0.1556 -0.1332
  333MOL0     C45870   3.801  10.502  10.219  0.4485  0.6750  0.1940
  333MOL0     C45871   4.123  10.677  10.448 -0.2810  0.4564 -0.8175
  333MOL0     C45872   4.158  10.596  10.561  1.0610 -0.3527  0.7914
  333MOL0     C45873   4.246  10.642  10.652  1.0500 -1.0333 -0.8375
  333MOL0     C45874   4.289  10.769  10.654 -0.1001  1.1169 -0.4518
  333MOL0     O45875   4.375  10.829  10.742  1.0070 -0.6423 -0.6421
  333MOL0     C45876   4.405  10.759  10.865  0.3061  0.0771  0.3652
  333MOL0     C45877   4.532  10.661  10.854  0.0343 -1.0492 -0.3961
  333MOL0     C45878   4.539  10.553  10.968  0.6979 -0.6941  0.4408
  333MOL0     C45879   4.659  10.467  10.939 -0.8109  0.3188  0.4156
  333MOL0     C45880   4.647  10.346  11.026  0.1045  0.0991  0.7489
  333MOL0     C45881   4.634  10.252  11.104  0.5844  0.2808  0.3111
  333MOL0     C45882   4.238  10.853  10.559 -0.9142 -0.2301  0.0342
  333MOL0     C45883   4.158  10.811  10.457  0.1008 -0.2185  0.4135
  333MOL0     C45884   4.104  10.924  10.367  0.8570  0.1907  0.0283
  333MOL0     H45885   3.942  10.243  10.379  2.3522  0.2676 -1.1779
  333MOL0     H45886   3.779  10.118  10.257 -3.0570  0.0971 -0.9524
  333MOL0     H45887   3.549  10.053  10.197 -3.1279  0.6116 -0.3957
  333MOL0     H45888   3.642  10.045  10.037 -1.7326  2.4959 -2.9246
  333MOL0     H45889   3.417   9.949   9.989  2.8422 -1.2541  1.3605
  333MOL0     H45890   3.335  10.096  10.059  0.2870  0.6439  0.5699
  333MOL0     H45891   3.436  10.243   9.903 -0.3375  0.5048  0.8890
  333MOL0     H45892   3.532  10.120   9.832 -0.0822 -3.1727 -0.6929
  333MOL0     H45893   3.328  10.001   9.751 -2.1098 -0.4687  1.8922
  333MOL0     H45894   3.231  10.105   9.839  0.9898  0.2206  0.3482
  333MOL0     H45895   3.416  10.175   9.616 -0.8709 -2.1774 -0.4712
  333MOL0     H45896   3.356  10.307   9.714  3.1415  0.0481  0.0547
  333MOL0     H45897   3.176  10.114   9.581  0.5456 -0.5196  3.3736
  333MOL0     H45898   3.135  10.270   9.657 -1.5098 -2.0267  0.4919
  333MOL0     H45899   3.240  10.411   9.485 -3.5734  1.2532 -0.1942
  333MOL0     H45900   3.118  10.315   9.420 -0.4525 -1.9120 -1.1991
  333MOL0     H45901   3.298  10.308   9.253  2.9663 -0.2507  0.3615
  333MOL0     H45902   3.405  10.238   9.367  0.2230  0.7971  3.1866
  333MOL0     H45903   3.049  10.186   9.224  1.2537  1.7248 -0.5572
  333MOL0     H45904   3.028   9.881   9.001 -0.5117  2.1063 -0.9193
  333MOL0     H45905   2.950  10.044   9.038  0.3043  1.5901 -0.3805
  333MOL0     H45906   2.864   9.780   9.102 -2.2666 -1.5952  2.2872
  333MOL0     H45907   2.951   9.806   9.238 -2.4104  0.5910  1.3843
  333MOL0     H45908   2.816  10.029   9.286  0.2613  2.9424 -4.0805
  333MOL0     H45909   2.712   9.985   9.153 -1.8564 -0.9712  0.6420
  333MOL0     H45910   2.613   9.880   9.364  0.7054 -0.5988  0.8171
  333MOL0     H45911   2.670   9.756   9.275  0.0153  0.0147 -0.8725
  333MOL0     H45912   2.600   9.963   9.560  0.7069 -0.7429 -0.5725
  333MOL0     H45913   2.599  10.232   9.713  1.8863 -0.9764 -2.4554
  333MOL0     H45914   2.587  10.136   9.868 -1.6045  1.0015  0.1824
  333MOL0     H45915   2.496  10.097   9.722 -0.8370  3.4887 -0.2165
  333MOL0     H45916   2.858  10.173  10.166  0.3898 -1.3386 -1.5634
  333MOL0     H45917   2.942  10.329  10.362  1.2043  4.1863  0.2206
  333MOL0     H45918   3.030  10.543  10.466  0.2813  1.8247  1.9819
  333MOL0     H45919   3.144  10.403  10.495  1.1928  0.3078 -1.6111
  333MOL0     H45920   3.235  10.701  10.510  0.8213 -0.8401  1.3234
  333MOL0     H45921   3.219  10.582  10.639 -2.5973 -1.3404  0.3439
  333MOL0     H45922   3.420  10.578  10.404  0.9868 -0.7354 -0.3210
  333MOL0     H45923   3.381  10.437  10.493 -0.9365  0.0630 -2.3256
  333MOL0     H45924   3.420  10.575  10.710 -0.3682  1.2162  0.2536
  333MOL0     H45925   3.486  10.706  10.601  0.4703  0.2635 -1.9905
  333MOL0     H45926   3.589  10.421  10.590 -0.9103  0.3376 -0.3771
  333MOL0     H45927   3.658  10.565  10.523  0.4335 -0.9424  0.1595
  333MOL0     H45928   3.596  10.490  10.817 -3.1902  0.6226 -0.8471
  333MOL0     H45929   3.655  10.657  10.777 -0.9578  1.3783 -0.9670
  333MOL0     H45930   3.840  10.497  10.867  0.4259 -0.2407 -0.1195
  333MOL0     H45931   3.879  10.581  10.716 -0.6082 -0.3560 -1.8276
  333MOL0     H45932   3.834  10.399  10.580  0.9887 -0.1738 -0.2558
  333MOL0     H45933   3.769  10.296  10.706  0.0296  0.9060 -0.3972
  333MOL0     H45934   3.281  10.430  10.116 -1.1273  1.7246  0.5838
  333MOL0     H45935   3.195  10.291   9.933  1.4507 -0.0864  0.5078
  333MOL0     H45936   3.041  10.002   9.758 -1.1914  1.9663  0.3016
  333MOL0     H45937   2.999   9.849   9.548 -1.3664  1.2019 -2.0436
  333MOL0     H45938   3.613  10.477  10.110 -2.7704 -3.7745 -1.5184
  333MOL0     H45939   3.794  10.608  10.199 -0.5316  0.2346 -2.2014
  333MOL0     H45940   4.108  10.500  10.569 -0.2797 -0.1697 -3.2534
  333MOL0     H45941   4.288  10.576  10.727 -0.0300  0.0804  0.7990
  333MOL0     H45942   4.429  10.830  10.945 -3.2629 -1.2570  2.9373
  333MOL0     H45943   4.320  10.707  10.912  0.5444  0.6139  1.4150
  333MOL0     H45944   4.620  10.725  10.855 -0.2661 -0.6150 -1.2594
  333MOL0     H45945   4.523  10.613  10.756 -1.3932 -0.2195 -0.7117
  333MOL0     H45946   4.542  10.607  11.063 -2.5680 -0.5224  0.5748
  333MOL0     H45947   4.444  10.499  10.967  0.1216  0.0706 -3.5985
  333MOL0     H45948   4.740  10.530  10.978  1.0038  2.0428 -5.0902
  333MOL0     H45949   4.671  10.445  10.832 -1.3381 -1.4198  0.6934
  333MOL0     H45950   4.616  10.189  11.189 -0.8772  4.1265  3.1758
  333MOL0     H45951   4.259  10.959  10.570  0.6202 -0.4485 -0.4913
  333MOL0     H45952   3.996  10.908  10.370  0.6716  1.4454  1.0858
  333MOL0     H45953   4.132  11.022  10.406  0.8193 -0.3595  1.5303
  333MOL0     H45954   4.123  10.918  10.260 -2.1172  0.1603 -0.5965
  334MOL0     O45955   0.924  11.371   5.929  0.3341  0.2073 -0.3512
  334MOL0     C45956   0.849  11.395   6.021  0.3926  0.5272 -0.3755
  334MOL0     O45957   0.832  11.309   6.120 -0.1520 -0.0892 -1.1621
  334MOL0     C45958   0.836  11.176   6.073 -0.4452  0.2981  0.0547
  334MOL0     C45959   0.959  11.099   6.096 -0.3157  0.7666  0.1329
  334MOL0     C45960   0.958  10.960   6.052  0.5557  0.4956  0.6058
  334MOL0     C45961   0.847  10.889   6.005  0.1738  0.6669 -0.5773
  334MOL0     O45962   0.849  10.757   5.962  0.7982  0.3678  0.1090
  334MOL0     C45963   0.734  10.689   5.917  0.2189 -0.3376 -0.0093
  334MOL0     C45964   0.759  10.544   5.916  0.2942  1.1493 -1.0061
  334MOL0     C45965   0.652  10.459   5.849  0.7304  0.0376  0.4730
  334MOL0     C45966   0.512  10.479   5.902  1.2434  0.0334 -0.6578
  334MOL0     C45967   0.505  10.465   6.049 -0.2093  1.0837 -0.0892
  334MOL0     C45968   0.362  10.454   6.105 -0.5734 -1.3304 -0.8390
  334MOL0     C45969   0.338  10.527   6.234  0.3523  0.2096  0.6934
  334MOL0     C45970   0.378  10.464   6.370 -0.0891  0.2173 -0.0682
  334MOL0     N45971   0.363  10.536   6.496  0.6024  0.5719 -0.0244
  334MOL0     C45972   0.256  10.622   6.519  0.3833  0.5324 -0.3410
  334MOL0     C45973   0.281  10.708   6.623 -1.8494 -0.5946 -0.2392
  334MOL0     C45974   0.179  10.808   6.676 -0.9828  0.4398 -0.2362
  334MOL0     C45975   0.168  10.946   6.610 -0.0585  0.5151 -1.2729
  334MOL0     C45976   0.048  11.028   6.672  0.2864 -0.3367 -0.7893
  334MOL0     C45977  -0.095  10.978   6.629  0.4334  0.7571 -0.0500
  334MOL0     O45978  -0.191  11.078   6.623  0.1159  0.4428  0.0958
  334MOL0     C45979  -0.313  11.059   6.558  0.2231 -0.8836 -0.4825
  334MOL0     C45980  -0.357  10.933   6.515  0.0843  0.3226 -0.4565
  334MOL0     C45981  -0.478  10.926   6.458  0.7967 -1.2833 -0.2782
  334MOL0     C45982  -0.522  10.788   6.412  0.4149  0.1364 -0.6386
  334MOL0     C45983  -0.567  11.043   6.432  0.1298 -0.1420  0.8043
  334MOL0     C45984  -0.701  11.044   6.377 -0.3131  0.7602  0.4960
  334MOL0     O45985  -0.800  11.134   6.422 -0.2610  0.9720 -0.4598
  334MOL0     C45986  -0.933  11.092   6.402  0.0397  0.5385 -0.9845
  334MOL0     C45987  -1.025  11.194   6.381 -0.7802  0.7407  0.7566
  334MOL0     C45988  -1.160  11.177   6.365  1.0844  0.0260  0.6941
  334MOL0     C45989  -1.217  11.049   6.378 -0.7934  0.3354 -0.5553
  334MOL0     O45990  -1.346  11.031   6.349  0.4058  0.0013 -0.3613
  334MOL0     C45991  -1.416  10.935   6.443  0.2294  0.2561 -1.2208
  334MOL0     C45992  -1.563  10.937   6.433  1.0434 -0.4044  0.0123
  334MOL0     C45993  -1.623  10.867   6.558 -0.2645 -0.1074 -0.6033
  334MOL0     C45994  -1.779  10.882   6.569 -0.4676  0.4453 -0.0252
  334MOL0     C45995  -1.840  11.025   6.573 -0.3144  0.4191  0.1370
  334MOL0     C45996  -1.991  11.049   6.606  0.7666 -0.0247 -1.2899
  334MOL0     C45997  -2.082  10.967   6.522  0.4635 -0.4576  0.4162
  334MOL0     C45998  -2.228  11.020   6.532  0.4507  0.6574  0.4069
  334MOL0    Cl45999  -2.321  10.902   6.432  0.0002  0.3379 -0.0744
  334MOL0     C46000  -1.122  10.943   6.401 -0.1306  0.2815 -0.6077
  334MOL0     C46001  -0.989  10.966   6.416 -0.2618  0.3870  0.1637
  334MOL0     O46002  -0.715  10.971   6.286  0.1839  0.2239 -0.5150
  334MOL0     C46003  -0.519  11.168   6.479  0.4873 -0.2741 -0.1078
  334MOL0     C46004  -0.395  11.173   6.539 -0.2547 -0.1859  0.1861
  334MOL0     N46005   0.408  10.668   6.675  0.5731  1.2198  0.2837
  334MOL0     N46006   0.450  10.566   6.598 -0.2065 -0.0237  0.2861
  334MOL0     C46007   0.729  10.968   5.987 -0.3505 -0.2617  0.2761
  334MOL0     C46008   0.728  11.112   6.011  0.6081 -0.0789  0.0306
  334MOL0     C46009   0.806  11.534   6.023 -0.3344 -0.4754  0.1791
  334MOL0     C46010   0.827  11.614   5.904 -0.7461 -0.1780 -0.6033
  334MOL0     C46011   0.801  11.750   5.900 -0.5650 -0.5794 -0.5245
  334MOL0     C46012   0.765  11.823   6.015 -0.6414  1.2266 -1.1001
  334MOL0     O46013   0.748  11.956   6.005 -0.5110  0.4778 -0.4690
  334MOL0     C46014   0.610  11.990   5.980 -0.1952  0.3302 -0.1456
  334MOL0     C46015   0.557  12.001   5.834  0.0551  0.6274 -0.2010
  334MOL0     C46016   0.646  12.092   5.757  0.7181 -1.2802  0.1030
  334MOL0     C46017   0.573  12.130   5.628  0.1505 -0.5562 -0.5089
  334MOL0     C46018   0.515  12.009   5.568 -0.4396  0.7639 -0.2475
  334MOL0     C46019   0.486  11.906   5.508  1.1529 -0.0399  0.8717
  334MOL0     C46020   0.736  11.748   6.135  0.3827 -0.5777 -0.9067
  334MOL0     C46021   0.752  11.606   6.134 -0.3714  0.1400  0.1508
  334MOL0     C46022   0.717  11.535   6.264  0.6032 -0.3258 -0.1813
  334MOL0     H46023   1.051  11.134   6.141  1.8223 -1.3713 -2.2207
  334MOL0     H46024   1.050  10.904   6.064 -0.8851 -2.5101 -1.2464
  334MOL0     H46025   0.712  10.718   5.814  1.7032  1.8918  0.2334
  334MOL0     H46026   0.655  10.709   5.990  0.0143  0.7552 -0.5170
  334MOL0     H46027   0.842  10.511   5.854 -1.6563 -1.9283 -2.1568
  334MOL0     H46028   0.775  10.510   6.019  2.5363  1.0543 -1.3419
  334MOL0     H46029   0.649  10.489   5.744 -1.9972  1.7846  0.9644
  334MOL0     H46030   0.674  10.352   5.853  0.6205  0.0387  1.8543
  334MOL0     H46031   0.466  10.574   5.871  0.0748  0.2905  1.6329
  334MOL0     H46032   0.448  10.409   5.847  0.1286 -1.1074  1.9319
  334MOL0     H46033   0.563  10.545   6.095 -0.7495 -0.0648  2.8556
  334MOL0     H46034   0.556  10.377   6.091  1.3987  1.8034 -0.4651
  334MOL0     H46035   0.297  10.491   6.025  2.9403  0.1936 -3.2119
  334MOL0     H46036   0.342  10.349   6.129 -0.1624 -0.9744  1.3274
  334MOL0     H46037   0.229  10.539   6.226  0.4326  1.8911  1.5465
  334MOL0     H46038   0.385  10.625   6.221  2.8185 -0.9208  0.5595
  334MOL0     H46039   0.329  10.366   6.374  0.8623 -0.3315 -1.2890
  334MOL0     H46040   0.486  10.463   6.351 -0.4891  5.6143 -5.2632
  334MOL0     H46041   0.164  10.623   6.462 -1.4057  2.9341  2.3126
  334MOL0     H46042   0.195  10.814   6.784 -1.1487 -2.7903  0.0706
  334MOL0     H46043   0.082  10.761   6.660 -1.3511  0.4569  1.7178
  334MOL0     H46044   0.265  10.994   6.625  2.2674 -3.9240 -0.3046
  334MOL0     H46045   0.154  10.929   6.503 -1.8435  1.0270 -1.1544
  334MOL0     H46046   0.057  11.051   6.779  1.0973  4.4222 -1.6370
  334MOL0     H46047   0.060  11.126   6.625  0.6040 -0.2407 -0.5100
  334MOL0     H46048  -0.081  10.948   6.525 -0.3204  0.8381 -0.1751
  334MOL0     H46049  -0.133  10.903   6.699 -0.2305  0.3532 -0.8308
  334MOL0     H46050  -0.300  10.842   6.534 -0.3428  0.0196 -0.6141
  334MOL0     H46051  -0.630  10.790   6.427 -0.1300  1.1310 -3.9224
  334MOL0     H46052  -0.476  10.706   6.468 -0.8628 -0.8879 -1.0501
  334MOL0     H46053  -0.498  10.765   6.308  0.6361  3.0432 -1.3044
  334MOL0     H46054  -0.985  11.292   6.357  0.6276  0.3016  1.2019
  334MOL0     H46055  -1.225  11.259   6.337 -2.5257 -3.0887 -0.9964
  334MOL0     H46056  -1.391  10.829   6.434 -1.1217 -0.4773  2.3355
  334MOL0     H46057  -1.387  10.964   6.544  0.4420 -1.9015 -0.6174
  334MOL0     H46058  -1.606  11.037   6.430  0.9447 -0.3688  1.9373
  334MOL0     H46059  -1.604  10.891   6.342  0.3636  3.3378 -1.7461
  334MOL0     H46060  -1.589  10.920   6.647  0.6457 -0.1054 -0.9446
  334MOL0     H46061  -1.592  10.762   6.562 -1.2632 -0.4637 -1.6114
  334MOL0     H46062  -1.821  10.829   6.655 -0.3691  0.3473 -0.0386
  334MOL0     H46063  -1.833  10.833   6.487  1.3594  0.6374 -1.3926
  334MOL0     H46064  -1.790  11.094   6.641 -1.1323  1.5624 -0.3844
  334MOL0     H46065  -1.828  11.071   6.475 -1.6920  0.2090 -0.1560
  334MOL0     H46066  -2.025  11.152   6.589  0.1128  0.5335  2.5093
  334MOL0     H46067  -2.013  11.025   6.710  0.4277  3.0667 -0.5633
  334MOL0     H46068  -2.073  10.860   6.542 -0.7334 -0.8527 -0.9081
  334MOL0     H46069  -2.049  10.982   6.418  1.1112 -0.9322  0.5515
  334MOL0     H46070  -2.229  11.121   6.491 -0.1400  0.0820 -1.0425
  334MOL0     H46071  -2.266  11.025   6.635 -3.0496 -0.5839 -0.7214
  334MOL0     H46072  -1.149  10.838   6.400 -1.6098  0.6427 -1.6392
  334MOL0     H46073  -0.930  10.875   6.419 -3.9005 -2.2164  1.2071
  334MOL0     H46074  -0.576  11.259   6.465  0.8856 -0.0600 -0.3416
  334MOL0     H46075  -0.354  11.273   6.547  0.2181 -0.1401 -2.0080
  334MOL0     H46076   0.640  10.925   5.942  1.7676 -2.7284 -1.8684
  334MOL0     H46077   0.632  11.162   5.997 -0.9116 -3.0571 -1.0490
  334MOL0     H46078   0.880  11.573   5.818  1.6057 -0.9863  1.1280
  334MOL0     H46079   0.814  11.812   5.812 -2.8273  0.8005  0.0343
  334MOL0     H46080   0.549  11.915   6.031 -1.1883 -0.7333 -2.7267
  334MOL0     H46081   0.590  12.086   6.029 -0.9796 -0.0289  0.2653
  334MOL0     H46082   0.452  12.033   5.838 -0.3335 -0.1187 -2.7917
  334MOL0     H46083   0.550  11.899   5.797 -2.9622 -0.0871  1.9236
  334MOL0     H46084   0.662  12.185   5.812 -2.7632  0.4662 -1.5072
  334MOL0     H46085   0.740  12.041   5.733  1.1054 -0.9457  0.8962
  334MOL0     H46086   0.634  12.188   5.559 -1.7780  0.8980 -1.0934
  334MOL0     H46087   0.494  12.203   5.651  2.7538  1.9884  1.0964
  334MOL0     H46088   0.457  11.818   5.454 -1.1402  1.4928 -0.5465
  334MOL0     H46089   0.681  11.809   6.206  1.5835  1.1296 -1.3836
  334MOL0     H46090   0.683  11.433   6.245  1.2198 -0.4349 -0.7659
  334MOL0     H46091   0.804  11.545   6.330  0.8185 -0.2516 -0.4750
  334MOL0     H46092   0.640  11.595   6.313 -0.6148  0.0263 -2.3970
  335MOL0     O46093   0.373   9.731  11.313 -0.2572  1.4312 -0.3343
  335MOL0     C46094   0.466   9.668  11.366 -0.0937  0.4641 -0.3504
  335MOL0     O46095   0.547   9.722  11.461  0.9059  0.5325 -0.0002
  335MOL0     C46096   0.629   9.821  11.419  0.3786  0.5430  0.6459
  335MOL0     C46097   0.637   9.876  11.291  0.0771 -0.0556  0.1923
  335MOL0     C46098   0.722   9.981  11.259  0.1887 -0.7611  0.0268
  335MOL0     C46099   0.813  10.027  11.362 -0.2658  0.5390 -0.8313
  335MOL0     O46100   0.904  10.131  11.362 -0.0257 -0.2053 -0.0006
  335MOL0     C46101   0.970  10.156  11.235  0.3868  0.3085  0.0707
  335MOL0     C46102   1.020  10.302  11.223  0.2865  0.5089 -0.1217
  335MOL0     C46103   0.902  10.393  11.235 -0.4476  0.1304  0.3263
  335MOL0     C46104   0.926  10.526  11.158 -0.6359 -0.2832 -0.8402
  335MOL0     C46105   0.979  10.631  11.252 -0.1882 -0.6641  0.3643
  335MOL0     C46106   1.010  10.773  11.187  0.1284 -0.6431  0.5977
  335MOL0     C46107   1.071  10.889  11.271 -1.0333  0.1660 -0.6181
  335MOL0     C46108   1.198  10.856  11.356  0.2107 -0.1003  0.4877
  335MOL0     N46109   1.292  10.972  11.386 -0.1696 -0.1197 -1.1446
  335MOL0     C46110   1.256  11.110  11.403  0.2845  0.1169  0.0370
  335MOL0     C46111   1.373  11.180  11.421 -0.7875 -0.3818  0.2665
  335MOL0     C46112   1.392  11.318  11.466 -0.0244 -0.5198  0.2839
  335MOL0     C46113   1.403  11.312  11.617  0.1662 -0.6232  0.6700
  335MOL0     C46114   1.369  11.446  11.671  0.0829  0.4233 -0.4178
  335MOL0     C46115   1.378  11.466  11.824 -0.0346 -0.6066  0.8234
  335MOL0     O46116   1.523  11.500  11.829  0.3495  0.0492 -0.3347
  335MOL0     C46117   1.576  11.480  11.957  0.6343  0.2433 -0.0077
  335MOL0     C46118   1.714  11.445  11.968  0.1618 -0.1034  0.2873
  335MOL0     C46119   1.778  11.430  12.092  0.2614 -0.0830 -1.0430
  335MOL0     C46120   1.924  11.411  12.098 -0.2077  0.2089 -0.0663
  335MOL0     C46121   1.698  11.447  12.211  0.4161 -0.4615 -0.0524
  335MOL0     C46122   1.757  11.440  12.343 -0.2068  0.1537  0.1625
  335MOL0     O46123   1.864  11.522  12.381  0.6363 -0.1259 -0.2791
  335MOL0     C46124   1.918  11.506  12.507  0.7812 -0.0737 -1.1567
  335MOL0     C46125   1.850  11.524  12.633  0.5424  0.4053  0.0851
  335MOL0     C46126   1.918  11.488  12.745 -0.8388  0.6519 -0.0231
  335MOL0     C46127   2.048  11.432  12.749  0.2409  0.0181 -0.1675
  335MOL0     O46128   2.114  11.416  12.869  0.8106 -0.4902  0.5568
  335MOL0     C46129   2.110  11.536  12.962  0.4248 -0.3655 -0.1886
  335MOL0     C46130   2.052  11.487  13.091  0.7707 -0.6894  0.0490
  335MOL0     C46131   2.068  11.588  13.201 -0.1794 -0.5304  0.4435
  335MOL0     C46132   2.054  11.510  13.337  0.1129 -0.4827  0.2774
  335MOL0     C46133   1.902  11.485  13.369 -0.6812  0.5031 -0.5727
  335MOL0     C46134   1.880  11.415  13.503  0.1469  0.1880  0.7918
  335MOL0     C46135   1.928  11.266  13.506 -0.0783 -0.2448 -0.7278
  335MOL0     C46136   1.983  11.226  13.639  0.3707  0.5321 -0.3303
  335MOL0    Cl46137   2.020  11.051  13.654 -0.0988 -0.0441  0.2542
  335MOL0     C46138   2.110  11.416  12.632 -1.0332 -0.6755 -0.2656
  335MOL0     C46139   2.044  11.449  12.517  1.0801 -0.0259  0.5164
  335MOL0     O46140   1.702  11.360  12.412 -0.1387  0.6489  0.2299
  335MOL0     C46141   1.567  11.491  12.203  0.6982 -0.3964 -1.0197
  335MOL0     C46142   1.514  11.521  12.074  0.4778  0.8570  0.5350
  335MOL0     N46143   1.477  11.081  11.421 -0.3883  0.4346 -0.0930
  335MOL0     N46144   1.430  10.967  11.393 -0.8264 -0.0010  0.9496
  335MOL0     C46145   0.800   9.975  11.489 -0.3108  0.3323  1.5279
  335MOL0     C46146   0.711   9.873  11.517 -0.1885 -0.6986 -0.8884
  335MOL0     C46147   0.494   9.525  11.312 -0.0071 -0.4834 -0.7683
  335MOL0     C46148   0.581   9.444  11.384  0.2799 -0.5512 -1.2087
  335MOL0     C46149   0.605   9.323  11.334 -0.3634  0.1909 -0.8961
  335MOL0     C46150   0.564   9.277  11.215 -0.3057 -0.1225  0.5089
  335MOL0     O46151   0.610   9.158  11.162 -0.7199 -0.5779 -0.3466
  335MOL0     C46152   0.648   9.046  11.243 -0.2041 -0.5581 -0.1507
  335MOL0     C46153   0.796   9.031  11.228 -0.2770  0.0385  0.9205
  335MOL0     C46154   0.833   8.965  11.095 -0.6370 -0.2222  0.3369
  335MOL0     C46155   0.978   8.971  11.050  0.3213 -0.5729  0.6252
  335MOL0     C46156   1.074   8.906  11.141  0.5025  0.1816 -0.1942
  335MOL0     C46157   1.140   8.848  11.221 -0.3164  0.1577  0.0228
  335MOL0     C46158   0.476   9.349  11.145  0.0327  0.1190  0.2105
  335MOL0     C46159   0.439   9.477  11.185 -0.8089  0.0592 -0.4205
  335MOL0     C46160   0.350   9.562  11.085  0.8513 -0.5825  0.5860
  335MOL0     H46161   0.583   9.840  11.204  1.6638  0.0991 -0.8943
  335MOL0     H46162   0.724  10.024  11.159  0.9513 -0.8659 -0.0047
  335MOL0     H46163   0.916  10.132  11.143 -0.6269 -4.7785  1.7068
  335MOL0     H46164   1.062  10.096  11.228  1.1797  1.6535 -2.3082
  335MOL0     H46165   1.090  10.321  11.305  0.1444 -0.3273  0.2026
  335MOL0     H46166   1.069  10.317  11.126 -1.1825 -2.5662 -1.4849
  335MOL0     H46167   0.816  10.341  11.194  0.3150 -1.8778  1.1609
  335MOL0     H46168   0.874  10.401  11.341  1.0593 -2.3401  1.0019
  335MOL0     H46169   1.008  10.525  11.084  2.2683  2.3695  2.0263
  335MOL0     H46170   0.829  10.552  11.116 -1.5341  0.1366  1.3445
  335MOL0     H46171   1.071  10.599  11.301  0.9455  3.8002  1.6148
  335MOL0     H46172   0.902  10.649  11.328 -0.5271 -0.9066  0.0782
  335MOL0     H46173   1.084  10.751  11.110  0.4016  2.2355 -0.0592
  335MOL0     H46174   0.928  10.821  11.132  0.1589 -2.7527 -1.4790
  335MOL0     H46175   0.995  10.935  11.334 -0.7529 -0.6775  0.3628
  335MOL0     H46176   1.103  10.952  11.188  3.0273 -0.2567  0.4288
  335MOL0     H46177   1.167  10.804  11.447  0.5819 -3.1792 -1.0063
  335MOL0     H46178   1.241  10.765  11.313  1.0372 -0.7985  2.6435
  335MOL0     H46179   1.156  11.153  11.399 -0.0771 -0.7730 -1.0380
  335MOL0     H46180   1.304  11.371  11.428 -1.1178 -1.6141  1.2407
  335MOL0     H46181   1.480  11.371  11.426  1.7803 -2.5361  1.3836
  335MOL0     H46182   1.329  11.243  11.658  1.1833 -1.6701  0.7985
  335MOL0     H46183   1.505  11.281  11.643  0.5092  0.0530  0.1842
  335MOL0     H46184   1.430  11.519  11.617 -2.7922  1.7434 -2.1512
  335MOL0     H46185   1.265  11.457  11.637  0.2927 -0.1614 -1.2675
  335MOL0     H46186   1.323  11.552  11.862 -4.1136 -3.7652  2.8812
  335MOL0     H46187   1.350  11.376  11.881 -2.7187  1.2669  2.6984
  335MOL0     H46188   1.766  11.427  11.875 -1.0996 -4.3050  0.1502
  335MOL0     H46189   1.926  11.342  12.183 -3.5594  0.6856  0.5429
  335MOL0     H46190   1.980  11.499  12.131  1.9024 -1.5164  1.2270
  335MOL0     H46191   1.964  11.367  12.007  2.1157  1.2165  0.3723
  335MOL0     H46192   1.746  11.556  12.635  0.3935 -0.1224  1.0218
  335MOL0     H46193   1.866  11.489  12.841 -0.5025  2.4631  0.1729
  335MOL0     H46194   2.212  11.573  12.959  0.1425  0.4163 -0.2051
  335MOL0     H46195   2.045  11.613  12.920 -0.2127 -0.6648  0.2267
  335MOL0     H46196   1.947  11.456  13.084  0.7159 -0.8446  1.3853
  335MOL0     H46197   2.102  11.395  13.120 -1.1146 -1.9533 -0.5404
  335MOL0     H46198   1.999  11.672  13.202  3.3555  2.6646 -1.2042
  335MOL0     H46199   2.166  11.636  13.205  1.2034 -3.1650  1.3222
  335MOL0     H46200   2.095  11.574  13.416 -3.9207  2.1068  0.5149
  335MOL0     H46201   2.110  11.416  13.334 -0.6049 -0.8868 -1.7851
  335MOL0     H46202   1.846  11.579  13.374 -0.9615  0.3025  0.1755
  335MOL0     H46203   1.863  11.435  13.280  0.7639  0.9079 -1.4733
  335MOL0     H46204   1.771  11.419  13.511 -0.2475  2.8787 -3.1643
  335MOL0     H46205   1.927  11.474  13.581  0.7118 -0.3526  0.8663
  335MOL0     H46206   2.011  11.245  13.439  2.5631  0.5636  2.0378
  335MOL0     H46207   1.845  11.200  13.480  0.3886 -0.2137 -2.3980
  335MOL0     H46208   1.918  11.261  13.719  0.1309 -0.9392  0.1418
  335MOL0     H46209   2.072  11.281  13.670  0.1706  0.4154  0.4712
  335MOL0     H46210   2.214  11.384  12.622  0.2475  2.2505  2.1145
  335MOL0     H46211   2.096  11.420  12.427  0.7304 -1.7896  0.8475
  335MOL0     H46212   1.499  11.504  12.286  1.4985 -0.3632 -0.3498
  335MOL0     H46213   1.414  11.562  12.069  0.2943  0.2729 -2.5120
  335MOL0     H46214   0.863  10.016  11.568  1.2627 -0.4380  0.7271
  335MOL0     H46215   0.703   9.840  11.620 -1.5006  2.3120  0.0617
  335MOL0     H46216   0.630   9.475  11.475  0.0569  2.5987 -2.0504
  335MOL0     H46217   0.675   9.266  11.393 -1.6361  0.7977  1.3223
  335MOL0     H46218   0.623   9.054  11.349 -0.9698  0.6333 -0.3972
  335MOL0     H46219   0.605   8.955  11.199 -1.4134  1.0870 -2.5459
  335MOL0     H46220   0.814   8.965  11.313 -1.2891 -0.2130  0.9515
  335MOL0     H46221   0.852   9.124  11.243  0.8948 -0.2118 -1.3457
  335MOL0     H46222   0.803   8.860  11.103  0.2742 -0.6154 -1.0000
  335MOL0     H46223   0.780   9.016  11.013  1.4615 -1.6009 -2.0399
  335MOL0     H46224   0.991   9.079  11.057 -0.9251 -0.4962  2.2443
  335MOL0     H46225   1.000   8.934  10.949  0.3340  0.4816  0.2266
  335MOL0     H46226   1.197   8.790  11.291 -1.6816 -0.2685  0.8267
  335MOL0     H46227   0.412   9.320  11.062 -3.2186  2.0178  1.8444
  335MOL0     H46228   0.248   9.562  11.125  0.6397 -1.0449  0.0575
  335MOL0     H46229   0.383   9.666  11.079  0.8527 -0.5032  1.6747
  335MOL0     H46230   0.354   9.514  10.987  1.5766  1.8279 -0.6189
  336MOL0     O46231   9.792   3.099   6.190 -0.3496 -0.3859  0.0387
  336MOL0     C46232   9.743   3.152   6.296  0.6360 -0.6157  0.0335
  336MOL0     O46233   9.638   3.244   6.302 -0.1479 -0.0282 -0.4825
  336MOL0     C46234   9.588   3.294   6.191  0.3879  1.0059  0.9934
  336MOL0     C46235   9.523   3.210   6.102  0.1559  0.2671 -0.1623
  336MOL0     C46236   9.473   3.259   5.980  0.1394 -1.5242  0.6450
  336MOL0     C46237   9.501   3.398   5.944  0.5028 -0.4000 -0.1157
  336MOL0     O46238   9.446   3.445   5.832  0.0699  0.1991 -0.2112
  336MOL0     C46239   9.348   3.549   5.853 -0.7293 -0.6004  1.0368
  336MOL0     C46240   9.219   3.480   5.877 -0.2420  0.0900  0.0661
  336MOL0     C46241   9.108   3.587   5.899 -0.1624 -0.3433 -1.0082
  336MOL0     C46242   9.030   3.536   6.014 -0.1313 -0.1440 -1.2116
  336MOL0     C46243   8.905   3.638   6.021 -0.8679 -0.0638  0.3129
  336MOL0     C46244   8.781   3.567   6.081  0.1390 -0.5642  0.3349
  336MOL0     C46245   8.666   3.656   6.074  0.6924 -0.1670  0.5265
  336MOL0     C46246   8.551   3.585   6.143 -0.4726  0.1916 -0.1264
  336MOL0     N46247   8.433   3.675   6.153  0.3094  0.3537 -0.1224
  336MOL0     C46248   8.322   3.705   6.072  0.1432  0.4321  0.3020
  336MOL0     C46249   8.229   3.775   6.141 -0.1118 -0.0412 -0.3997
  336MOL0     C46250   8.082   3.786   6.103  0.2948 -0.1925  0.6042
  336MOL0     C46251   8.015   3.880   6.195  0.1616  0.1690  0.1000
  336MOL0     C46252   7.870   3.921   6.159  0.3630  0.4164 -0.6067
  336MOL0     C46253   7.857   4.013   6.027 -0.3960  0.2190  0.2463
  336MOL0     O46254   7.739   4.095   6.023 -0.3674 -0.5001  0.4563
  336MOL0     C46255   7.619   4.034   6.003  0.4097 -0.4295  0.1969
  336MOL0     C46256   7.506   4.116   6.010  0.0816  1.4420  0.4665
  336MOL0     C46257   7.375   4.069   5.994 -0.1353 -0.6779 -0.6027
  336MOL0     C46258   7.267   4.176   6.004 -0.1624 -0.0850  0.7370
  336MOL0     C46259   7.345   3.930   5.978 -1.1024 -0.1762 -0.1477
  336MOL0     C46260   7.215   3.876   5.939  0.2044  0.1538  0.2036
  336MOL0     O46261   7.210   3.746   5.962  0.5992  0.1192  0.1675
  336MOL0     C46262   7.106   3.691   5.900 -0.5389 -0.5125  0.0577
  336MOL0     C46263   7.116   3.646   5.769  0.5860  0.1559  0.0418
  336MOL0     C46264   7.001   3.606   5.703 -0.0564  1.3955 -0.3024
  336MOL0     C46265   6.878   3.602   5.758 -0.7766  0.0221 -0.7961
  336MOL0     O46266   6.767   3.592   5.686 -0.6552  0.2030 -0.0304
  336MOL0     C46267   6.729   3.461   5.643 -0.5710  0.3334  0.2115
  336MOL0     C46268   6.580   3.461   5.622 -0.2273  0.2797 -0.9181
  336MOL0     C46269   6.535   3.571   5.533  0.5386  0.6476  0.6102
  336MOL0     C46270   6.381   3.582   5.519  0.1273 -0.5635  0.2382
  336MOL0     C46271   6.335   3.681   5.410  0.5302 -0.1502  0.1842
  336MOL0     C46272   6.397   3.818   5.412 -0.8148  0.4039 -0.1659
  336MOL0     C46273   6.325   3.901   5.303  0.9320 -1.3058  0.8590
  336MOL0     C46274   6.353   4.052   5.309 -0.0706 -0.0952  0.3912
  336MOL0    Cl46275   6.308   4.113   5.148  0.1633  0.1902 -0.1762
  336MOL0     C46276   6.872   3.643   5.900  0.0789 -0.1283  1.3313
  336MOL0     C46277   6.983   3.684   5.972  0.1916  0.1595  0.1428
  336MOL0     O46278   7.137   3.945   5.870 -0.0416 -0.0161  0.4016
  336MOL0     C46279   7.461   3.839   5.980 -0.0088 -0.1847  0.3797
  336MOL0     C46280   7.593   3.892   5.983 -0.0462  0.2192 -0.1613
  336MOL0     N46281   8.292   3.799   6.264 -0.1266 -0.3892 -0.0331
  336MOL0     N46282   8.411   3.747   6.261  0.0712  0.4690  0.6188
  336MOL0     C46283   9.581   3.476   6.034  0.1782 -0.2182 -0.2396
  336MOL0     C46284   9.623   3.425   6.158  1.1446  0.4334  0.2164
  336MOL0     C46285   9.785   3.083   6.416  0.4030  0.1340  0.2025
  336MOL0     C46286   9.777   2.936   6.419  0.6089 -1.6233  0.2965
  336MOL0     C46287   9.813   2.876   6.534 -0.6373  1.1677  0.5145
  336MOL0     C46288   9.833   2.937   6.657 -0.1912  1.6314 -0.1442
  336MOL0     O46289   9.847   2.863   6.773 -0.1727  0.2382 -0.1588
  336MOL0     C46290   9.830   2.927   6.899 -0.4266  0.2625 -0.3627
  336MOL0     C46291   9.788   2.823   7.000 -1.1174 -0.0405 -0.4745
  336MOL0     C46292   9.644   2.790   6.977 -0.3118 -0.4573  0.6594
  336MOL0     C46293   9.598   2.669   7.048  0.2336 -0.8925 -1.0333
  336MOL0     C46294   9.456   2.652   7.029 -0.1142 -0.5968 -0.0769
  336MOL0     C46295   9.336   2.626   7.036  0.4080 -0.3327 -0.3275
  336MOL0     C46296   9.846   3.077   6.648  0.0449 -0.1202  0.2271
  336MOL0     C46297   9.818   3.150   6.529 -0.6850 -0.5973 -0.4172
  336MOL0     C46298   9.844   3.306   6.527 -0.1857  0.8791 -0.8612
  336MOL0     H46299   9.502   3.107   6.128 -0.1141  0.6355  1.1184
  336MOL0     H46300   9.414   3.196   5.914 -1.9062 -0.9265  1.8170
  336MOL0     H46301   9.355   3.616   5.767  3.2272 -0.4876  1.3036
  336MOL0     H46302   9.367   3.610   5.942 -0.4802 -0.5435  0.9428
  336MOL0     H46303   9.206   3.421   5.786 -1.4052  0.9475 -0.3478
  336MOL0     H46304   9.215   3.414   5.964 -2.7679  0.9712  0.7013
  336MOL0     H46305   9.135   3.693   5.901 -0.1603 -0.3464  1.4003
  336MOL0     H46306   9.048   3.587   5.807 -2.4721 -1.9189  0.3808
  336MOL0     H46307   8.996   3.432   6.015  0.8303 -0.6544  3.2435
  336MOL0     H46308   9.091   3.541   6.105 -2.8408  3.0879  0.6878
  336MOL0     H46309   8.877   3.683   5.925  0.9597 -2.2247 -1.3410
  336MOL0     H46310   8.937   3.724   6.082  1.6415 -1.8474  1.6919
  336MOL0     H46311   8.760   3.476   6.025  1.4349  0.3954 -1.8522
  336MOL0     H46312   8.796   3.551   6.188 -0.4081  0.9344  0.6736
  336MOL0     H46313   8.634   3.675   5.971 -1.7101 -1.7105  0.9175
  336MOL0     H46314   8.674   3.756   6.118 -1.9883  0.0231  0.7020
  336MOL0     H46315   8.526   3.496   6.085  0.9113 -1.6895  2.0118
  336MOL0     H46316   8.567   3.558   6.248  0.7996  0.1203 -0.3263
  336MOL0     H46317   8.299   3.657   5.978 -3.6594 -0.2171  1.3912
  336MOL0     H46318   8.036   3.688   6.120  0.5179 -0.2627  0.8118
  336MOL0     H46319   8.074   3.813   5.997  0.1333  0.0716  0.6825
  336MOL0     H46320   8.006   3.839   6.296 -4.2340  0.0660 -0.1358
  336MOL0     H46321   8.083   3.965   6.200  0.3069  0.1028 -0.6869
  336MOL0     H46322   7.803   3.835   6.158 -1.3043  1.6609 -1.2498
  336MOL0     H46323   7.835   3.992   6.235  0.6317 -0.1927  0.0947
  336MOL0     H46324   7.940   4.084   6.023  0.2277 -0.5361 -0.5841
  336MOL0     H46325   7.846   3.951   5.937 -0.4031  0.0493  0.3617
  336MOL0     H46326   7.529   4.222   6.019  2.5250  1.7213 -4.8179
  336MOL0     H46327   7.226   4.207   5.908 -1.9613 -0.0773  1.4557
  336MOL0     H46328   7.305   4.266   6.053 -2.9905  2.0040 -0.5931
  336MOL0     H46329   7.185   4.130   6.060 -0.2599 -0.5478  0.2115
  336MOL0     H46330   7.212   3.657   5.719  1.0457 -0.5133  0.7429
  336MOL0     H46331   6.997   3.572   5.600  1.6708  2.4590 -0.7751
  336MOL0     H46332   6.772   3.428   5.548 -0.5128  0.7696  0.0861
  336MOL0     H46333   6.749   3.385   5.719  0.0784  0.5504  0.2584
  336MOL0     H46334   6.548   3.359   5.598 -1.4773  0.9331 -2.1934
  336MOL0     H46335   6.533   3.467   5.721  3.0674  0.5711  0.7575
  336MOL0     H46336   6.573   3.552   5.433 -2.8030 -6.3732  0.0931
  336MOL0     H46337   6.574   3.666   5.572 -0.0848  1.3134 -0.3404
  336MOL0     H46338   6.344   3.599   5.620  3.0297  0.7983  1.2037
  336MOL0     H46339   6.343   3.486   5.483 -1.5768  0.3705 -0.5368
  336MOL0     H46340   6.348   3.643   5.308  0.6051  2.3180 -0.8112
  336MOL0     H46341   6.227   3.689   5.423  0.3805  2.3854 -1.7129
  336MOL0     H46342   6.501   3.806   5.381 -1.1672 -1.5457 -0.7223
  336MOL0     H46343   6.385   3.874   5.505 -0.1949  3.6648 -1.9121
  336MOL0     H46344   6.216   3.889   5.311  0.7218 -0.4218 -0.4384
  336MOL0     H46345   6.347   3.856   5.206  0.2538  1.4646 -0.6970
  336MOL0     H46346   6.459   4.068   5.334  0.6390 -1.0531 -1.7304
  336MOL0     H46347   6.298   4.092   5.395  1.9391 -0.2927  1.8549
  336MOL0     H46348   6.771   3.642   5.941 -0.2241  2.1434  0.7455
  336MOL0     H46349   6.968   3.717   6.074 -3.0639 -1.7787  0.4157
  336MOL0     H46350   7.437   3.739   5.945  0.7461  0.2692 -1.5535
  336MOL0     H46351   7.665   3.810   5.987 -0.7931 -0.4221  3.4175
  336MOL0     H46352   9.592   3.582   6.013 -3.6252  0.0014 -2.0887
  336MOL0     H46353   9.691   3.470   6.230  3.8211  0.0501 -1.9157
  336MOL0     H46354   9.741   2.875   6.337  0.3567 -4.1186  2.1556
  336MOL0     H46355   9.831   2.769   6.531  0.7504  1.3965  0.2036
  336MOL0     H46356   9.931   2.959   6.924  1.2842 -2.3057 -3.3401
  336MOL0     H46357   9.759   3.011   6.893  0.0444  0.6047 -1.2716
  336MOL0     H46358   9.802   2.865   7.101 -0.1271  0.4644 -0.8123
  336MOL0     H46359   9.851   2.735   7.013  0.8935  1.3548 -0.3491
  336MOL0     H46360   9.588   2.882   7.000  1.2016 -0.0342  3.0054
  336MOL0     H46361   9.633   2.773   6.870 -3.6010  0.0684  0.8144
  336MOL0     H46362   9.624   2.680   7.153 -2.7426  1.8998 -0.4387
  336MOL0     H46363   9.660   2.589   7.007  0.7979 -0.6509 -0.6614
  336MOL0     H46364   9.230   2.614   7.034  0.6052 -2.4676 -2.8156
  336MOL0     H46365   9.893   3.122   6.735 -0.7014 -0.5817  0.8837
  336MOL0     H46366   9.908   3.337   6.444  3.4236  3.0474  2.3722
  336MOL0     H46367   9.746   3.352   6.514 -1.0036  0.1215  1.9006
  336MOL0     H46368   9.895   3.338   6.618  0.0964  0.1873 -0.7683
  337MOL0     O46369   2.045   9.268  11.359 -0.1877 -0.2124 -0.0998
  337MOL0     C46370   1.939   9.210  11.377 -0.3605  0.4219  0.1672
  337MOL0     O46371   1.816   9.269  11.388 -0.2755 -0.0006 -0.1374
  337MOL0     C46372   1.792   9.398  11.355 -0.0800 -0.0821  0.9238
  337MOL0     C46373   1.696   9.468  11.426  0.2171 -0.1914  0.7857
  337MOL0     C46374   1.649   9.595  11.387  0.0973 -0.7403  0.6618
  337MOL0     C46375   1.716   9.668  11.286 -0.4946  0.6218 -0.1772
  337MOL0     O46376   1.672   9.802  11.255  0.0912 -0.3265  1.1935
  337MOL0     C46377   1.699   9.862  11.132 -1.1756  0.4545 -0.9906
  337MOL0     C46378   1.594   9.968  11.120  0.0103 -1.0748 -0.1054
  337MOL0     C46379   1.451   9.911  11.131 -0.2712  0.1086 -0.4961
  337MOL0     C46380   1.348  10.010  11.097 -0.7008 -0.1135 -0.1413
  337MOL0     C46381   1.343  10.049  10.944 -0.1536  0.6193 -0.5810
  337MOL0     C46382   1.201  10.111  10.915  0.5479  0.7824  0.2487
  337MOL0     C46383   1.156  10.094  10.764  0.1053  0.2033  0.0451
  337MOL0     C46384   1.015  10.161  10.729 -1.2231 -0.4316 -0.4873
  337MOL0     N46385   0.906  10.088  10.787  0.1098  0.1395 -0.4619
  337MOL0     C46386   0.896   9.951  10.803 -0.1070  0.0378  0.3966
  337MOL0     C46387   0.770   9.927  10.851  0.1693  0.3266  0.1117
  337MOL0     C46388   0.713   9.797  10.888  0.5557  0.5952 -0.4960
  337MOL0     C46389   0.819   9.712  10.968  0.8086  0.2808  0.1012
  337MOL0     C46390   0.755   9.585  10.995  0.2309 -0.6331 -0.3392
  337MOL0     C46391   0.841   9.457  10.999 -0.8112  0.3445 -0.4507
  337MOL0     O46392   0.928   9.433  10.890 -0.6232 -0.3677 -0.4270
  337MOL0     C46393   0.917   9.315  10.811 -0.2728  0.3452 -1.0256
  337MOL0     C46394   1.033   9.284  10.725  0.0428 -1.5213  0.7835
  337MOL0     C46395   1.046   9.165  10.649  0.0461  0.2457 -0.1879
  337MOL0     C46396   1.174   9.162  10.565 -0.4908 -0.2005  0.3505
  337MOL0     C46397   0.945   9.065  10.652  0.0910  0.2155 -0.5029
  337MOL0     C46398   0.937   8.943  10.569  0.2195  0.2596  0.3621
  337MOL0     O46399   1.014   8.927  10.460  0.2931 -0.6328  0.8537
  337MOL0     C46400   1.027   8.798  10.409 -0.2609  0.3267  0.3189
  337MOL0     C46401   0.912   8.749  10.349 -0.8424 -0.5885  0.9243
  337MOL0     C46402   0.923   8.623  10.286 -0.3772  0.2094  0.0344
  337MOL0     C46403   1.031   8.535  10.290  1.1319  0.6389  0.2979
  337MOL0     O46404   1.030   8.426  10.207  0.2342 -0.6202  0.2352
  337MOL0     C46405   1.140   8.341  10.202  0.0350  0.1787 -0.0849
  337MOL0     C46406   1.096   8.207  10.134  0.2555 -0.8312  0.3907
  337MOL0     C46407   1.033   8.237  10.004 -0.8451  0.3927  0.2828
  337MOL0     C46408   1.040   8.114   9.922 -0.6705  0.1261  0.3586
  337MOL0     C46409   0.943   8.140   9.802 -0.4147 -0.6360 -0.2595
  337MOL0     C46410   0.984   8.267   9.720 -0.4618 -0.1075 -1.1681
  337MOL0     C46411   0.939   8.254   9.573 -0.6087 -0.1090 -0.2342
  337MOL0     C46412   0.979   8.379   9.491  0.0323 -0.5963  0.2476
  337MOL0    Cl46413   0.857   8.508   9.524  0.1713 -0.3346 -0.0544
  337MOL0     C46414   1.139   8.586  10.361  0.7206 -0.3266 -0.2208
  337MOL0     C46415   1.141   8.716  10.421  0.5765  1.0327 -0.0473
  337MOL0     O46416   0.846   8.864  10.603 -0.2008  0.4070 -0.0183
  337MOL0     C46417   0.833   9.101  10.737  0.3226 -0.8480  0.1127
  337MOL0     C46418   0.820   9.212  10.815  0.1736 -0.7954 -0.5708
  337MOL0     N46419   0.704  10.050  10.870 -0.3902 -0.4018 -0.6295
  337MOL0     N46420   0.794  10.143  10.843 -0.4749  0.1324 -0.5801
  337MOL0     C46421   1.807   9.589  11.212  0.1471 -0.4383 -0.3686
  337MOL0     C46422   1.842   9.455  11.242  0.0348  1.1726  1.4131
  337MOL0     C46423   1.963   9.066  11.414 -0.4022  0.0320  0.1603
  337MOL0     C46424   1.904   9.017  11.535 -0.6662 -0.9725  0.3022
  337MOL0     C46425   1.917   8.888  11.581 -0.2345 -0.3822  0.3445
  337MOL0     C46426   2.008   8.804  11.511  0.7047  0.5882 -0.3098
  337MOL0     O46427   2.030   8.678  11.566 -0.2305  0.4555  0.1913
  337MOL0     C46428   2.171   8.662  11.607 -0.6585 -0.1428 -0.4059
  337MOL0     C46429   2.217   8.521  11.585  0.0286 -0.3481 -1.0460
  337MOL0     C46430   2.373   8.502  11.619 -0.4354  0.6263 -0.0399
  337MOL0     C46431   2.428   8.363  11.579 -1.0057  0.5159  0.3254
  337MOL0     C46432   2.554   8.324  11.646  0.1037  0.5787  0.3725
  337MOL0     C46433   2.661   8.285  11.695  1.0666 -0.7510 -0.9437
  337MOL0     C46434   2.070   8.856  11.398  0.7452 -0.4327 -0.3431
  337MOL0     C46435   2.053   8.983  11.352 -0.0617  0.1217  0.7442
  337MOL0     C46436   2.123   9.025  11.227 -0.1757  0.2755  0.1359
  337MOL0     H46437   1.644   9.425  11.511 -0.5036 -1.5779 -0.3178
  337MOL0     H46438   1.571   9.647  11.442  0.2866  0.6416 -0.3206
  337MOL0     H46439   1.702   9.792  11.048 -1.1025  1.6631 -2.0202
  337MOL0     H46440   1.801   9.895  11.155 -1.1625 -0.3868  0.2584
  337MOL0     H46441   1.614  10.043  11.197  0.0104 -1.8695  0.6824
  337MOL0     H46442   1.608  10.019  11.024 -0.2942 -0.0273  0.3904
  337MOL0     H46443   1.441   9.821  11.069 -1.7296  1.3199 -2.0896
  337MOL0     H46444   1.444   9.883  11.237 -3.0107  3.5394  0.3949
  337MOL0     H46445   1.260   9.957  11.135 -2.7724  2.3712 -1.2275
  337MOL0     H46446   1.362  10.095  11.165 -1.7403 -1.0871  1.3690
  337MOL0     H46447   1.357   9.959  10.883 -0.7102  0.9284 -1.1855
  337MOL0     H46448   1.426  10.119  10.930  3.5420 -2.8261  1.8377
  337MOL0     H46449   1.130  10.052  10.974  2.3587 -1.4590  0.3475
  337MOL0     H46450   1.194  10.217  10.941  0.8169  1.1551 -1.1301
  337MOL0     H46451   1.161   9.987  10.740 -0.7797  0.1445  0.1056
  337MOL0     H46452   1.228  10.145  10.699 -1.0778 -0.5175 -1.9391
  337MOL0     H46453   1.010  10.263  10.768 -1.3215 -0.5807 -0.1037
  337MOL0     H46454   1.006  10.160  10.620 -2.3054 -0.9492 -0.4090
  337MOL0     H46455   0.966   9.873  10.776 -2.9040 -1.0407 -5.1653
  337MOL0     H46456   0.674   9.749  10.797  2.7850 -2.5402  0.0648
  337MOL0     H46457   0.629   9.820  10.954  0.6428  1.6850 -0.7520
  337MOL0     H46458   0.908   9.686  10.910 -0.1945 -2.6495 -0.2815
  337MOL0     H46459   0.849   9.780  11.049  0.3919  1.5162 -0.7382
  337MOL0     H46460   0.703   9.603  11.090  3.7127  0.9950  1.4313
  337MOL0     H46461   0.679   9.569  10.918  1.4016  0.4646 -1.7740
  337MOL0     H46462   0.902   9.473  11.088  0.7756 -1.7825 -1.0787
  337MOL0     H46463   0.775   9.370  11.002 -1.8876  1.1530  1.7409
  337MOL0     H46464   1.112   9.357  10.716 -1.5455 -0.0215 -3.0158
  337MOL0     H46465   1.164   9.152  10.456  1.8414 -0.1811  0.0633
  337MOL0     H46466   1.242   9.080  10.591  1.2640  0.2479 -2.3126
  337MOL0     H46467   1.242   9.245  10.590 -1.3481  0.7404 -0.3749
  337MOL0     H46468   0.833   8.823  10.341 -0.1623  0.1106  0.5145
  337MOL0     H46469   0.838   8.579  10.234 -3.3056  0.1010  4.4233
  337MOL0     H46470   1.231   8.378  10.155  0.5084 -0.3598  0.3887
  337MOL0     H46471   1.160   8.318  10.307  0.5922 -2.2563 -0.6619
  337MOL0     H46472   1.180   8.137  10.120  0.3162 -0.9647  1.3248
  337MOL0     H46473   1.019   8.156  10.192 -0.0012  1.4187  2.1816
  337MOL0     H46474   1.083   8.318   9.951 -2.0019 -0.8240 -2.9258
  337MOL0     H46475   0.931   8.276  10.013 -0.8122  0.1190  2.1306
  337MOL0     H46476   1.001   8.025   9.972  0.0535 -0.9136 -0.8717
  337MOL0     H46477   1.141   8.087   9.889 -0.1611  0.5418  1.5225
  337MOL0     H46478   0.956   8.054   9.736 -1.1258 -1.6237  0.8445
  337MOL0     H46479   0.841   8.139   9.843 -0.5079 -2.6407 -0.4359
  337MOL0     H46480   1.092   8.284   9.723 -0.4092  0.1547  3.3752
  337MOL0     H46481   0.930   8.353   9.762  0.9560 -0.2008  1.0380
  337MOL0     H46482   0.832   8.240   9.555 -0.0060 -2.3800 -2.6688
  337MOL0     H46483   0.987   8.165   9.533  2.1374  0.4163  1.6411
  337MOL0     H46484   0.974   8.366   9.382  0.2317 -0.0254  0.1660
  337MOL0     H46485   1.076   8.418   9.520 -0.5808  1.0330  0.2474
  337MOL0     H46486   1.223   8.518  10.374 -0.2696 -1.5178  0.0672
  337MOL0     H46487   1.220   8.746  10.490  0.0367 -3.0770  2.7324
  337MOL0     H46488   0.749   9.035  10.756  0.4928 -0.0632  4.8874
  337MOL0     H46489   0.729   9.210  10.873 -0.4763 -0.1423 -1.5421
  337MOL0     H46490   1.863   9.631  11.130 -1.5496 -1.6890 -2.2651
  337MOL0     H46491   1.905   9.399  11.174 -2.9329 -1.4435  0.6360
  337MOL0     H46492   1.855   9.094  11.595  1.3201  2.0830 -1.7011
  337MOL0     H46493   1.871   8.850  11.672 -0.3771 -0.5092  0.2206
  337MOL0     H46494   2.230   8.726  11.541 -0.6662 -0.8924 -1.1706
  337MOL0     H46495   2.191   8.698  11.708 -1.1818 -0.8527 -0.0350
  337MOL0     H46496   2.193   8.497  11.481  1.8479  0.4517 -1.6835
  337MOL0     H46497   2.154   8.463  11.653 -0.2658 -0.6242 -1.5476
  337MOL0     H46498   2.432   8.579  11.568 -1.4567  0.6615 -1.2221
  337MOL0     H46499   2.381   8.519  11.727 -1.6299  0.0635  0.1502
  337MOL0     H46500   2.462   8.350  11.475 -1.3956  1.6435  0.0370
  337MOL0     H46501   2.358   8.286  11.613 -2.2069  2.2793  2.0485
  337MOL0     H46502   2.752   8.253  11.743  0.7958  1.6580  1.4197
  337MOL0     H46503   2.135   8.802  11.330 -1.2424  0.7902 -3.4751
  337MOL0     H46504   2.151   8.943  11.161 -0.1996 -0.3820  0.9350
  337MOL0     H46505   2.060   9.094  11.169 -1.9432  0.0096  1.6494
  337MOL0     H46506   2.213   9.083  11.249  0.5427 -0.6989 -0.1866
  338MOL0     O46507   8.328  10.001   2.337  0.2096 -1.1557  0.6989
  338MOL0     C46508   8.206   9.978   2.321  0.1905  0.3452  0.2265
  338MOL0     O46509   8.138   9.867   2.359 -0.0696  0.1830 -0.0319
  338MOL0     C46510   8.198   9.766   2.414  0.1522  0.4793 -0.2773
  338MOL0     C46511   8.243   9.788   2.548 -1.5476  0.7440  0.0597
  338MOL0     C46512   8.305   9.696   2.628  0.0839  0.3669  0.9075
  338MOL0     C46513   8.310   9.566   2.580 -0.4623 -0.8488 -0.2459
  338MOL0     O46514   8.361   9.467   2.666  0.3976 -0.0905  0.5902
  338MOL0     C46515   8.291   9.336   2.653 -0.8521  0.1227 -0.6384
  338MOL0     C46516   8.316   9.250   2.775 -0.6124  0.5179  0.2175
  338MOL0     C46517   8.461   9.204   2.778  0.4723  0.9545  0.4446
  338MOL0     C46518   8.505   9.135   2.909 -0.2616  0.0904  0.6813
  338MOL0     C46519   8.659   9.109   2.916 -0.0110  0.8195 -0.7445
  338MOL0     C46520   8.692   9.016   3.039 -0.0454  0.2863  0.2245
  338MOL0     C46521   8.670   8.861   3.008 -0.9913 -0.8133 -0.7000
  338MOL0     C46522   8.627   8.784   3.136 -0.1995  0.1876 -0.0395
  338MOL0     N46523   8.625   8.636   3.120 -0.9816  0.3719 -0.8158
  338MOL0     C46524   8.727   8.547   3.144 -0.1477  0.2685  0.0329
  338MOL0     C46525   8.668   8.432   3.112  0.5729  0.6053 -0.3703
  338MOL0     C46526   8.746   8.303   3.124 -0.2645 -0.2262 -0.4524
  338MOL0     C46527   8.797   8.257   2.985  0.3820 -0.6377 -0.6952
  338MOL0     C46528   8.697   8.172   2.903 -0.5606 -0.2640 -0.8834
  338MOL0     C46529   8.692   8.039   2.966 -0.4022  0.5488 -0.7423
  338MOL0     O46530   8.814   7.979   3.030  0.7139 -0.3023  0.3052
  338MOL0     C46531   8.827   7.849   2.989  0.3943  2.0998 -0.0785
  338MOL0     C46532   8.791   7.735   3.071  0.1807 -0.0654  0.6409
  338MOL0     C46533   8.802   7.610   3.026 -0.5646 -0.0263 -0.0901
  338MOL0     C46534   8.743   7.511   3.130 -0.3444  1.4269  0.0320
  338MOL0     C46535   8.860   7.589   2.897 -0.6096 -0.5290 -0.6442
  338MOL0     C46536   8.865   7.458   2.836  0.1397  0.5945  0.5384
  338MOL0     O46537   8.872   7.449   2.702  0.1887  1.1063  0.9295
  338MOL0     C46538   8.855   7.314   2.648  0.2890 -0.3067 -1.0022
  338MOL0     C46539   8.744   7.225   2.678 -0.2878 -1.3302  0.3876
  338MOL0     C46540   8.734   7.101   2.611  0.1125  0.1942  1.0533
  338MOL0     C46541   8.831   7.062   2.523  0.9379 -0.9245  0.7489
  338MOL0     O46542   8.803   6.945   2.452 -0.5809 -0.0875 -0.3904
  338MOL0     C46543   8.898   6.916   2.350  0.2004 -0.0979 -0.2559
  338MOL0     C46544   8.890   6.767   2.317  0.5014  0.3753  0.0582
  338MOL0     C46545   8.750   6.729   2.268  0.0542  0.3994 -0.3552
  338MOL0     C46546   8.744   6.580   2.229  0.5483 -0.3705 -0.0813
  338MOL0     C46547   8.606   6.531   2.191 -0.0925 -0.8846  1.1531
  338MOL0     C46548   8.612   6.379   2.156  0.1159  0.4726 -0.2927
  338MOL0     C46549   8.474   6.322   2.168  0.4574  1.0504  0.9910
  338MOL0     C46550   8.457   6.180   2.104 -0.1613 -0.6007 -0.5795
  338MOL0    Cl46551   8.560   6.055   2.190  0.1488  0.1613 -0.2894
  338MOL0     C46552   8.945   7.149   2.503  0.2484 -0.1534  0.2360
  338MOL0     C46553   8.956   7.272   2.562 -0.0467  0.4149  0.1675
  338MOL0     O46554   8.855   7.361   2.908  0.3689 -0.7592  0.1859
  338MOL0     C46555   8.901   7.697   2.824 -1.7735 -0.3461 -0.1534
  338MOL0     C46556   8.878   7.824   2.862  0.1593 -0.8126  0.2726
  338MOL0     N46557   8.529   8.450   3.081  0.1657  0.6940  0.0017
  338MOL0     N46558   8.509   8.574   3.091 -0.2944  0.5823  0.3031
  338MOL0     C46559   8.252   9.537   2.455 -0.2477  1.0005  0.1718
  338MOL0     C46560   8.192   9.631   2.378 -0.3546 -0.2574  0.1094
  338MOL0     C46561   8.130  10.083   2.256 -0.5544 -0.0385  0.3688
  338MOL0     C46562   8.151  10.212   2.294 -0.3749 -0.4534 -0.4072
  338MOL0     C46563   8.104  10.320   2.224  0.7795 -0.7012 -0.3012
  338MOL0     C46564   8.005  10.295   2.125  0.7491 -0.0302 -0.3002
  338MOL0     O46565   7.958  10.404   2.059 -0.0896 -0.5001 -0.4795
  338MOL0     C46566   7.847  10.408   1.966  0.3345 -0.0665  0.6232
  338MOL0     C46567   7.799  10.549   1.926 -0.5406  0.2028 -0.2355
  338MOL0     C46568   7.674  10.540   1.831 -0.0852 -0.2944  0.6356
  338MOL0     C46569   7.643  10.683   1.786 -0.6965 -0.9301 -0.1916
  338MOL0     C46570   7.518  10.675   1.699 -0.0358  0.8825 -0.6733
  338MOL0     C46571   7.408  10.664   1.649 -0.0621 -0.4686  0.2767
  338MOL0     C46572   7.963  10.165   2.099  0.2107  0.4343  0.5194
  338MOL0     C46573   8.029  10.056   2.158 -1.1741  0.0223 -0.4425
  338MOL0     C46574   8.024   9.910   2.096 -0.5351  0.2911 -0.3699
  338MOL0     H46575   8.229   9.889   2.585  2.2794  2.4930 -2.5948
  338MOL0     H46576   8.329   9.729   2.728 -1.2983 -1.0163  1.7356
  338MOL0     H46577   8.328   9.281   2.566 -0.5059  0.8386 -0.9516
  338MOL0     H46578   8.185   9.351   2.633 -0.9256  0.2683 -0.1686
  338MOL0     H46579   8.293   9.306   2.866 -0.2523  0.4581  0.3475
  338MOL0     H46580   8.248   9.165   2.767 -2.1663  1.8804 -5.4039
  338MOL0     H46581   8.475   9.142   2.689  0.4578 -0.9700  1.7255
  338MOL0     H46582   8.531   9.285   2.759  1.2198 -0.2054 -2.1118
  338MOL0     H46583   8.476   9.191   2.998 -0.9717 -1.8688  1.7426
  338MOL0     H46584   8.452   9.039   2.909  1.2869 -0.7921  0.9439
  338MOL0     H46585   8.714   9.202   2.926 -1.5177  1.5155  2.3175
  338MOL0     H46586   8.676   9.055   2.822 -1.8380  0.2223 -0.7782
  338MOL0     H46587   8.799   9.039   3.037 -0.6910  3.7671 -0.6620
  338MOL0     H46588   8.636   9.046   3.128 -0.3421 -0.6154  0.3478
  338MOL0     H46589   8.767   8.828   2.971 -0.9451 -0.5158 -0.8470
  338MOL0     H46590   8.594   8.850   2.930 -4.0259  3.4453  1.2425
  338MOL0     H46591   8.686   8.813   3.224 -1.4534 -1.2956  1.3424
  338MOL0     H46592   8.521   8.804   3.156 -0.6867 -3.3228  1.5014
  338MOL0     H46593   8.829   8.563   3.180  0.1002 -0.6956 -0.2095
  338MOL0     H46594   8.672   8.233   3.164 -1.1369 -0.0026 -1.6230
  338MOL0     H46595   8.831   8.303   3.193 -2.6607 -3.7958  2.9466
  338MOL0     H46596   8.833   8.346   2.933  4.3244 -0.9150  1.2085
  338MOL0     H46597   8.888   8.205   3.016  1.3472  1.1457 -0.3754
  338MOL0     H46598   8.599   8.220   2.909 -0.1048  1.1382 -3.4970
  338MOL0     H46599   8.715   8.162   2.796 -3.1785  0.2951 -1.4547
  338MOL0     H46600   8.626   8.048   3.052  0.3174  0.7996 -0.2089
  338MOL0     H46601   8.637   7.973   2.898 -1.4819  1.9365 -1.2894
  338MOL0     H46602   8.747   7.769   3.165  2.7475 -0.3976  2.0490
  338MOL0     H46603   8.827   7.458   3.175  0.1962  0.7055 -1.7412
  338MOL0     H46604   8.678   7.438   3.082  0.3299  1.6135 -1.1943
  338MOL0     H46605   8.683   7.548   3.214 -3.2948 -3.8467  0.6776
  338MOL0     H46606   8.661   7.272   2.731 -1.3428 -0.4441 -1.9326
  338MOL0     H46607   8.647   7.041   2.637 -0.5446  0.9343  0.6472
  338MOL0     H46608   8.876   6.977   2.261  0.6315  1.0047  0.3717
  338MOL0     H46609   9.002   6.934   2.381  0.8541 -1.0202 -1.8105
  338MOL0     H46610   8.958   6.733   2.239  1.0809 -1.0367  1.1267
  338MOL0     H46611   8.918   6.710   2.406 -0.0285  1.9831  1.3116
  338MOL0     H46612   8.720   6.777   2.174  0.8193 -2.2270 -2.0523
  338MOL0     H46613   8.677   6.750   2.347  1.8273  0.6042  1.2822
  338MOL0     H46614   8.780   6.526   2.317 -1.1460  0.8506  1.4285
  338MOL0     H46615   8.824   6.576   2.155  2.6857  2.4374  1.8137
  338MOL0     H46616   8.532   6.549   2.269 -1.5778 -2.3735  0.1464
  338MOL0     H46617   8.568   6.582   2.102  0.7063 -2.5532 -0.2104
  338MOL0     H46618   8.678   6.328   2.227  2.6897  0.3895 -2.5567
  338MOL0     H46619   8.647   6.374   2.053 -0.8918  1.3939 -0.6969
  338MOL0     H46620   8.405   6.390   2.116 -1.9299  0.1380  2.7661
  338MOL0     H46621   8.435   6.327   2.270 -0.0846 -2.3917  1.0629
  338MOL0     H46622   8.502   6.176   2.004  3.6743  0.9288  0.9230
  338MOL0     H46623   8.350   6.155   2.098 -0.0234 -0.8927 -2.4125
  338MOL0     H46624   9.023   7.131   2.430 -1.6616  1.9919 -2.5150
  338MOL0     H46625   9.031   7.345   2.532 -1.4281  0.6640 -3.1553
  338MOL0     H46626   8.944   7.695   2.724 -1.6446 -0.0087 -0.1088
  338MOL0     H46627   8.896   7.911   2.800  0.6518 -1.5944 -0.7107
  338MOL0     H46628   8.260   9.435   2.420  0.0833  0.7682  0.8978
  338MOL0     H46629   8.147   9.595   2.286 -0.6260 -1.0102  0.5265
  338MOL0     H46630   8.228  10.230   2.369 -0.0652 -1.3537 -0.4986
  338MOL0     H46631   8.128  10.425   2.231  0.7707 -0.5322 -2.2294
  338MOL0     H46632   7.866  10.365   1.867 -1.1698  3.4347 -1.3826
  338MOL0     H46633   7.762  10.363   2.018 -2.3656 -0.0032 -3.2811
  338MOL0     H46634   7.880  10.603   1.876 -0.5856  1.8336  1.3477
  338MOL0     H46635   7.778  10.600   2.020  1.0143 -0.3389  0.4408
  338MOL0     H46636   7.704  10.489   1.739 -1.0850  1.3307 -0.6559
  338MOL0     H46637   7.585  10.492   1.873 -0.7238  0.8509  0.6458
  338MOL0     H46638   7.714  10.732   1.719 -0.9817 -2.2588 -1.5135
  338MOL0     H46639   7.619  10.739   1.877 -0.9818 -1.3193 -0.0270
  338MOL0     H46640   7.320  10.622   1.605  1.4358 -1.8303 -1.5872
  338MOL0     H46641   7.876  10.140   2.041  0.0596 -0.2320  1.0247
  338MOL0     H46642   7.963   9.925   2.006  1.6856  2.1398 -1.6909
  338MOL0     H46643   8.120   9.866   2.069 -0.8409 -1.4343  1.2034
  338MOL0     H46644   7.974   9.840   2.162  1.7502 -1.0316  0.0579
  339MOL0     O46645   6.659   2.086   3.409  0.4626 -0.5785 -0.1527
  339MOL0     C46646   6.564   2.156   3.440 -0.0142  0.9829  0.5926
  339MOL0     O46647   6.549   2.290   3.416 -0.6000 -0.3816  0.0485
  339MOL0     C46648   6.641   2.334   3.322  0.2250  0.9400 -0.3001
  339MOL0     C46649   6.621   2.298   3.194 -0.3943 -0.2008 -0.4287
  339MOL0     C46650   6.713   2.335   3.094 -0.0095 -0.0059 -0.1251
  339MOL0     C46651   6.821   2.413   3.128 -0.1235 -0.5495 -0.5306
  339MOL0     O46652   6.924   2.458   3.051  0.4227 -0.1909  0.3410
  339MOL0     C46653   6.915   2.430   2.912 -0.7172  0.3703 -0.3271
  339MOL0     C46654   6.864   2.548   2.830 -0.6521  0.9910  0.6565
  339MOL0     C46655   6.910   2.519   2.684  0.3377  0.8083 -0.0182
  339MOL0     C46656   6.796   2.438   2.607 -0.0044 -0.2898 -0.9550
  339MOL0     C46657   6.824   2.426   2.462 -0.7207 -0.2575  0.1577
  339MOL0     C46658   6.954   2.345   2.427 -0.6021  0.3416  0.3421
  339MOL0     C46659   7.018   2.369   2.285  0.2539 -0.1756  0.2268
  339MOL0     C46660   7.090   2.247   2.233  0.1998 -0.2479 -0.0024
  339MOL0     N46661   7.183   2.268   2.122  0.4824  0.4558 -0.0960
  339MOL0     C46662   7.149   2.337   2.003  0.5452 -0.1163  0.7869
  339MOL0     C46663   7.262   2.358   1.939 -0.0374 -0.4994  0.5423
  339MOL0     C46664   7.299   2.447   1.817  0.0571  1.2774  0.3223
  339MOL0     C46665   7.384   2.561   1.882 -0.3724 -0.3023  0.2684
  339MOL0     C46666   7.428   2.656   1.769  0.6638 -0.0379 -0.1222
  339MOL0     C46667   7.519   2.778   1.803 -0.3742 -0.2752  0.4712
  339MOL0     O46668   7.630   2.727   1.868  1.2281  1.4396 -0.1574
  339MOL0     C46669   7.721   2.810   1.920 -0.7868  0.5245  0.1020
  339MOL0     C46670   7.813   2.749   2.006  0.3255 -0.9920  0.2401
  339MOL0     C46671   7.918   2.833   2.057 -0.3053 -0.2034 -0.3746
  339MOL0     C46672   8.020   2.758   2.142  0.4462  0.1511  0.0019
  339MOL0     C46673   7.918   2.980   2.042  1.0437  0.5386  0.2479
  339MOL0     C46674   8.023   3.065   2.107  0.5416  1.1258 -0.5388
  339MOL0     O46675   8.140   3.007   2.160 -0.0979  0.6424 -0.0788
  339MOL0     C46676   8.232   3.100   2.200 -0.0854 -0.4338 -1.0257
  339MOL0     C46677   8.300   3.057   2.315 -0.1382 -0.3688 -0.9222
  339MOL0     C46678   8.404   3.133   2.365 -0.3192  0.2717 -0.7777
  339MOL0     C46679   8.428   3.260   2.319  0.1178  1.6660  0.4297
  339MOL0     O46680   8.518   3.334   2.396  0.8670  0.4203  0.4952
  339MOL0     C46681   8.536   3.476   2.364 -0.6009  0.5783 -0.0658
  339MOL0     C46682   8.607   3.543   2.481  0.7802  0.4465 -0.3700
  339MOL0     C46683   8.606   3.690   2.461  0.4166 -1.2915 -0.7333
  339MOL0     C46684   8.662   3.759   2.587 -0.1083 -0.6697  0.1770
  339MOL0     C46685   8.652   3.909   2.561  1.0928 -0.1235 -0.5064
  339MOL0     C46686   8.669   3.994   2.693 -0.6614 -0.3277  1.0470
  339MOL0     C46687   8.559   3.961   2.796  0.6462 -0.2482  0.9022
  339MOL0     C46688   8.543   4.070   2.901 -0.0847 -0.8260  0.2782
  339MOL0    Cl46689   8.674   4.051   3.025  0.1734 -0.2153  0.1752
  339MOL0     C46690   8.359   3.302   2.205 -0.0850 -0.3628  1.1686
  339MOL0     C46691   8.263   3.224   2.147  0.5464  0.1495 -0.0299
  339MOL0     O46692   7.988   3.186   2.107 -0.0372  0.0728 -0.0107
  339MOL0     C46693   7.818   3.036   1.959 -1.3170  0.0591 -1.1243
  339MOL0     C46694   7.723   2.948   1.903 -0.8424 -0.8418 -0.7058
  339MOL0     N46695   7.361   2.300   2.012  0.1504  0.3593  0.4102
  339MOL0     N46696   7.322   2.258   2.126 -0.2259  0.4305  0.0339
  339MOL0     C46697   6.824   2.468   3.262 -0.2974 -1.0883 -0.0232
  339MOL0     C46698   6.736   2.431   3.354  0.2411  0.4109  0.3303
  339MOL0     C46699   6.447   2.094   3.500  0.9114  0.2298 -0.2527
  339MOL0     C46700   6.357   2.180   3.565 -1.3528 -0.1996  0.0851
  339MOL0     C46701   6.249   2.131   3.630  1.2119  0.0628 -1.0525
  339MOL0     C46702   6.225   1.998   3.647  0.0153  0.7914  0.0847
  339MOL0     O46703   6.126   1.940   3.729 -0.4519 -0.5077 -0.8527
  339MOL0     C46704   6.015   2.009   3.781 -0.8016  0.2614 -0.1646
  339MOL0     C46705   5.908   2.042   3.667 -0.6870  0.4136 -0.0399
  339MOL0     C46706   5.797   2.121   3.717  0.1358  1.5427 -0.6246
  339MOL0     C46707   5.695   2.040   3.800  0.4395 -0.1600  0.1460
  339MOL0     C46708   5.582   2.130   3.823  0.2112 -0.3885  0.7600
  339MOL0     C46709   5.498   2.214   3.837  0.2833 -0.0065  0.4124
  339MOL0     C46710   6.313   1.913   3.580 -0.1577  0.3410  0.0532
  339MOL0     C46711   6.428   1.957   3.514 -0.3569 -0.1507 -0.1218
  339MOL0     C46712   6.526   1.847   3.462  0.7358 -0.2343 -0.2052
  339MOL0     H46713   6.539   2.234   3.162  0.0842 -0.6567 -0.7727
  339MOL0     H46714   6.706   2.303   2.990  0.4357 -3.1576  0.7060
  339MOL0     H46715   6.870   2.334   2.886 -1.2848  0.5520 -0.0366
  339MOL0     H46716   7.021   2.418   2.885 -0.3185 -1.1206  1.6394
  339MOL0     H46717   6.756   2.553   2.845 -0.6533 -1.1545  1.7240
  339MOL0     H46718   6.915   2.641   2.859 -1.8754  1.5138  1.2030
  339MOL0     H46719   6.929   2.616   2.639  0.7942  0.3701 -0.8012
  339MOL0     H46720   7.001   2.458   2.678  0.2301  0.3166  2.4444
  339MOL0     H46721   6.768   2.342   2.650 -0.9311 -1.0676 -3.1327
  339MOL0     H46722   6.708   2.499   2.632  1.1731  0.4280  1.7690
  339MOL0     H46723   6.830   2.523   2.412  1.8695 -0.9941 -1.1908
  339MOL0     H46724   6.734   2.387   2.414  0.7064 -3.3360 -0.3175
  339MOL0     H46725   7.031   2.375   2.499  1.9440 -1.7214 -1.3519
  339MOL0     H46726   6.939   2.237   2.438 -0.2234  0.1350 -0.9613
  339MOL0     H46727   7.094   2.446   2.300 -1.4538  0.9559  4.7745
  339MOL0     H46728   6.954   2.406   2.204  0.6532  0.5279  0.2210
  339MOL0     H46729   7.151   2.205   2.313 -2.2673  0.3434  2.3166
  339MOL0     H46730   7.020   2.169   2.204 -1.2931 -0.1654  3.0290
  339MOL0     H46731   7.055   2.382   1.976  0.0519 -2.2971 -1.5323
  339MOL0     H46732   7.214   2.495   1.766 -0.0621 -1.4501 -2.2876
  339MOL0     H46733   7.359   2.387   1.748  1.2851  0.6548  1.8793
  339MOL0     H46734   7.334   2.620   1.959 -2.0829 -1.8768  0.4395
  339MOL0     H46735   7.471   2.516   1.930  0.9525  2.3253  0.4905
  339MOL0     H46736   7.470   2.590   1.692  1.8578  1.2627 -0.6198
  339MOL0     H46737   7.344   2.694   1.710  1.2332  0.7354 -0.4535
  339MOL0     H46738   7.528   2.832   1.708 -2.4801  1.3920  1.1488
  339MOL0     H46739   7.453   2.841   1.865 -3.0225 -1.2909 -1.1628
  339MOL0     H46740   7.812   2.641   2.013 -1.7685 -0.9631  1.3487
  339MOL0     H46741   7.983   2.656   2.155  0.1443  0.4297  1.4235
  339MOL0     H46742   8.029   2.803   2.241 -2.7147  0.8965  0.0411
  339MOL0     H46743   8.120   2.761   2.098  0.3321 -0.5126 -0.3154
  339MOL0     H46744   8.287   2.954   2.344  0.1453  0.2609  1.7561
  339MOL0     H46745   8.452   3.100   2.456  0.9192  0.3294 -1.3955
  339MOL0     H46746   8.592   3.489   2.271  0.9697  3.2445  1.1289
  339MOL0     H46747   8.443   3.530   2.343  0.7983  3.7589  1.2923
  339MOL0     H46748   8.556   3.511   2.572  1.0626 -0.9518 -0.6872
  339MOL0     H46749   8.710   3.505   2.481  0.8786  0.6908  0.4459
  339MOL0     H46750   8.501   3.719   2.454 -1.1675 -5.3831  2.2389
  339MOL0     H46751   8.659   3.719   2.370 -1.0509  1.4919 -0.7928
  339MOL0     H46752   8.765   3.723   2.592  2.3177  4.8620 -2.0121
  339MOL0     H46753   8.605   3.729   2.676  0.0390  0.7689  0.7714
  339MOL0     H46754   8.723   3.947   2.487 -0.4980  1.6251 -1.2278
  339MOL0     H46755   8.551   3.932   2.524  0.9756 -1.5134 -1.1190
  339MOL0     H46756   8.652   4.098   2.662 -0.9753  0.0453  2.4331
  339MOL0     H46757   8.771   3.977   2.728  0.3433 -3.8761 -2.7691
  339MOL0     H46758   8.585   3.867   2.844 -2.1427 -2.6397 -1.8156
  339MOL0     H46759   8.465   3.954   2.740  1.3809 -3.1159 -0.1499
  339MOL0     H46760   8.441   4.067   2.942 -0.9137  0.8628 -1.4678
  339MOL0     H46761   8.557   4.168   2.853 -1.3527  0.1220  1.7279
  339MOL0     H46762   8.391   3.400   2.173  1.0936 -0.7946  0.9903
  339MOL0     H46763   8.214   3.255   2.055  1.5907  0.7541 -0.3982
  339MOL0     H46764   7.826   3.143   1.942  4.1038  0.0070 -0.6935
  339MOL0     H46765   7.652   2.994   1.835  0.5928  1.8978 -0.4744
  339MOL0     H46766   6.889   2.545   3.303 -1.2945  0.4505 -1.2411
  339MOL0     H46767   6.732   2.470   3.455 -1.2487  1.2797 -0.0295
  339MOL0     H46768   6.379   2.284   3.584  2.6226 -1.3061  2.7389
  339MOL0     H46769   6.183   2.209   3.667 -2.7126 -1.9923 -3.0010
  339MOL0     H46770   5.960   1.944   3.850 -0.3034  0.6250  0.5959
  339MOL0     H46771   6.032   2.107   3.826 -2.2966 -0.3571  1.9174
  339MOL0     H46772   5.870   1.951   3.620 -0.3544  1.4012 -2.3691
  339MOL0     H46773   5.978   2.086   3.595  2.3895 -1.6685  1.4645
  339MOL0     H46774   5.835   2.208   3.772 -0.0239  1.8233 -0.9512
  339MOL0     H46775   5.738   2.150   3.629  0.8044  2.5545 -0.7567
  339MOL0     H46776   5.732   2.008   3.898 -2.6664  1.4153  1.9591
  339MOL0     H46777   5.657   1.955   3.742  0.2036  0.4267 -0.5696
  339MOL0     H46778   5.419   2.286   3.834 -0.4059 -0.6515  1.9255
  339MOL0     H46779   6.301   1.805   3.588  2.5132  0.0608  1.6681
  339MOL0     H46780   6.559   1.875   3.361 -1.2565  4.2851  0.1663
  339MOL0     H46781   6.602   1.826   3.538 -1.0819  1.6850  2.2712
  339MOL0     H46782   6.460   1.760   3.455  0.2331  0.1052  0.3296
  340MOL0     O46783   7.497   5.976  10.557 -0.6216 -0.2515  0.5008
  340MOL0     C46784   7.391   5.974  10.495  1.5410 -0.1101  0.1999
  340MOL0     O46785   7.333   6.072  10.428 -0.4735 -0.2222  0.1974
  340MOL0     C46786   7.397   6.193  10.408 -0.1537  0.7754 -0.0871
  340MOL0     C46787   7.326   6.270  10.311  0.7420  0.6886  0.2008
  340MOL0     C46788   7.370   6.394  10.281 -0.2563 -0.1263  0.2008
  340MOL0     C46789   7.486   6.449  10.343 -0.6770  0.5326 -0.1960
  340MOL0     O46790   7.540   6.575  10.311  0.3660  0.1523 -0.2545
  340MOL0     C46791   7.475   6.672  10.223 -0.0249 -0.5081  0.4895
  340MOL0     C46792   7.549   6.814  10.226 -0.4156  0.3391 -1.0649
  340MOL0     C46793   7.580   6.859  10.375 -0.3724  0.5830  0.6032
  340MOL0     C46794   7.657   6.989  10.380  0.9471  0.0062 -0.2704
  340MOL0     C46795   7.586   7.113  10.319 -0.0569 -0.9737 -0.4218
  340MOL0     C46796   7.659   7.244  10.347 -0.0689 -0.1815 -0.4028
  340MOL0     C46797   7.612   7.326  10.468  0.0994 -0.6273  0.1792
  340MOL0     C46798   7.488   7.419  10.421 -0.9383 -0.4834 -0.5767
  340MOL0     N46799   7.436   7.510  10.528 -0.0517  0.1106 -0.2329
  340MOL0     C46800   7.358   7.473  10.632  0.2184 -0.0305  0.1739
  340MOL0     C46801   7.363   7.573  10.726 -0.3867  1.0253 -0.4593
  340MOL0     C46802   7.272   7.590  10.845  0.5650 -0.5153 -0.1519
  340MOL0     C46803   7.231   7.737  10.872 -0.3623  0.0493  0.3028
  340MOL0     C46804   7.119   7.750  10.991 -0.5114  0.1512 -0.5332
  340MOL0     C46805   7.043   7.886  11.002 -1.0668  0.2993  0.6373
  340MOL0     O46806   6.946   7.881  11.107 -0.1011 -0.3694  0.4619
  340MOL0     C46807   6.845   7.980  11.106  0.4714  0.2378 -0.3578
  340MOL0     C46808   6.716   7.964  11.045 -0.5843  0.6040 -0.0181
  340MOL0     C46809   6.615   8.057  11.055  0.1905 -0.2288 -0.0363
  340MOL0     C46810   6.489   8.030  10.986  0.4629  0.0921  0.2545
  340MOL0     C46811   6.648   8.185  11.114 -0.0267  0.5738  0.0472
  340MOL0     C46812   6.550   8.291  11.143 -0.2673  0.5568 -0.2033
  340MOL0     O46813   6.418   8.260  11.126  0.1563  0.6383 -0.5761
  340MOL0     C46814   6.328   8.361  11.160 -0.6144 -0.2128  0.4226
  340MOL0     C46815   6.333   8.417  11.287  0.1499 -0.3868  0.9166
  340MOL0     C46816   6.232   8.503  11.324  0.0844 -0.4828 -0.5906
  340MOL0     C46817   6.149   8.564  11.229 -0.6074 -0.3608 -0.3104
  340MOL0     O46818   6.057   8.655  11.274  0.2380  0.2634 -0.0226
  340MOL0     C46819   5.937   8.674  11.197 -0.2683  0.9050  0.5944
  340MOL0     C46820   5.834   8.757  11.284  0.5293  0.2454  0.2169
  340MOL0     C46821   5.824   8.909  11.243  0.2238 -0.6446  0.2611
  340MOL0     C46822   5.709   8.980  11.311 -0.5763  0.4423  0.0717
  340MOL0     C46823   5.708   9.132  11.273 -0.4399 -0.3886  0.3636
  340MOL0     C46824   5.807   9.213  11.350 -0.1705  0.7367 -0.4425
  340MOL0     C46825   5.758   9.355  11.385 -0.7217  0.4082  0.1566
  340MOL0     C46826   5.848   9.412  11.491  0.7962 -0.3913 -0.2838
  340MOL0    Cl46827   5.824   9.574  11.569  0.1854 -0.0114  0.4561
  340MOL0     C46828   6.163   8.521  11.097  0.3362  0.3089  0.1173
  340MOL0     C46829   6.251   8.416  11.061 -0.2396  0.2962  0.1101
  340MOL0     O46830   6.596   8.405  11.174 -0.2448  0.6142 -0.9912
  340MOL0     C46831   6.779   8.204  11.165 -0.2623 -0.2604 -1.0318
  340MOL0     C46832   6.871   8.098  11.177  0.1102 -0.3514  0.7847
  340MOL0     N46833   7.437   7.675  10.674 -0.3793 -0.0020 -1.5071
  340MOL0     N46834   7.475   7.636  10.554  0.2300 -0.1878 -0.3297
  340MOL0     C46835   7.565   6.373  10.426  0.5249 -0.1352  0.2949
  340MOL0     C46836   7.519   6.241  10.456 -0.4161  0.1656  1.3579
  340MOL0     C46837   7.332   5.838  10.476  0.2167  0.1468  0.2788
  340MOL0     C46838   7.244   5.803  10.370  0.1775 -0.4650 -0.5228
  340MOL0     C46839   7.188   5.679  10.334 -0.0010  0.0472  0.9028
  340MOL0     C46840   7.212   5.571  10.421  0.0872  0.4803  0.8158
  340MOL0     O46841   7.179   5.440  10.386 -0.1687  0.8901  0.6791
  340MOL0     C46842   7.149   5.406  10.252  0.0608 -0.0806  0.9911
  340MOL0     C46843   7.265   5.388  10.151  0.3249  0.3446 -0.3015
  340MOL0     C46844   7.386   5.329  10.217  0.1085  0.9216 -1.0820
  340MOL0     C46845   7.354   5.189  10.279  0.9824  0.2921  0.4043
  340MOL0     C46846   7.476   5.112  10.304 -0.3810  1.1484 -0.8783
  340MOL0     C46847   7.579   5.055  10.334  0.0677 -0.5345 -0.7972
  340MOL0     C46848   7.288   5.599  10.545  0.8301  0.2948 -0.5704
  340MOL0     C46849   7.341   5.726  10.568  0.5860  0.0426 -0.2921
  340MOL0     C46850   7.424   5.736  10.692  0.5488 -1.0996  0.8427
  340MOL0     H46851   7.230   6.246  10.266 -0.3309  4.0359  0.4088
  340MOL0     H46852   7.310   6.454  10.214 -2.1017 -2.5567 -0.4615
  340MOL0     H46853   7.375   6.679  10.267  0.6388 -0.6560  2.1034
  340MOL0     H46854   7.479   6.628  10.123 -0.5395 -3.6774  1.7537
  340MOL0     H46855   7.647   6.801  10.180  1.6533  3.3155  1.9901
  340MOL0     H46856   7.476   6.873  10.170 -4.4379 -0.8899  2.3296
  340MOL0     H46857   7.490   6.872  10.435  0.5450  0.4883  2.0312
  340MOL0     H46858   7.645   6.788  10.427  0.5994  0.9237 -0.1239
  340MOL0     H46859   7.677   7.016  10.484 -1.7147  0.3550  0.2202
  340MOL0     H46860   7.747   6.976  10.319  0.2317 -2.8890 -0.8423
  340MOL0     H46861   7.484   7.121  10.360 -0.1738 -1.0608 -0.6925
  340MOL0     H46862   7.581   7.087  10.213  0.6810 -2.6937 -0.0585
  340MOL0     H46863   7.767   7.230  10.352 -0.0168  0.5680  1.0155
  340MOL0     H46864   7.624   7.313  10.269  3.3560  0.6078 -1.4105
  340MOL0     H46865   7.694   7.390  10.503 -1.8625  1.1833  1.7406
  340MOL0     H46866   7.586   7.273  10.560  0.9961  0.6740  1.2357
  340MOL0     H46867   7.521   7.484  10.339  0.6752  1.2115  1.3272
  340MOL0     H46868   7.403   7.365  10.379 -2.5868 -1.2803  3.4077
  340MOL0     H46869   7.297   7.385  10.652 -0.9129  0.4063 -1.1751
  340MOL0     H46870   7.319   7.561  10.940 -1.2380  1.2827  1.3745
  340MOL0     H46871   7.189   7.520  10.833 -0.4893  0.7034 -0.1654
  340MOL0     H46872   7.320   7.797  10.891  1.6308 -2.2972 -1.0370
  340MOL0     H46873   7.180   7.771  10.781  0.6157 -0.6449 -0.5262
  340MOL0     H46874   7.044   7.670  10.980 -0.8682  0.5537 -1.0563
  340MOL0     H46875   7.174   7.724  11.082 -3.2749 -0.2992  1.1284
  340MOL0     H46876   7.102   7.978  11.010 -4.8868  2.8504  2.8357
  340MOL0     H46877   6.994   7.906  10.906  1.0696 -1.6074 -0.9649
  340MOL0     H46878   6.697   7.870  10.995 -0.2479 -0.6525  2.0616
  340MOL0     H46879   6.404   7.987  11.040  0.2133 -0.0553 -0.2457
  340MOL0     H46880   6.515   7.963  10.904  2.1977  1.5189 -0.4230
  340MOL0     H46881   6.454   8.117  10.929  1.2691  0.3966  0.2156
  340MOL0     H46882   6.402   8.385  11.365 -0.2546 -0.0282  1.4245
  340MOL0     H46883   6.224   8.538  11.426 -2.9177 -0.6157 -0.6923
  340MOL0     H46884   5.952   8.732  11.105  0.8023 -3.1800 -2.1112
  340MOL0     H46885   5.891   8.580  11.165  1.1654  0.2608  0.3375
  340MOL0     H46886   5.736   8.715  11.262  1.4353 -2.8352  1.4659
  340MOL0     H46887   5.857   8.742  11.390  1.2611 -0.0648  0.0236
  340MOL0     H46888   5.804   8.928  11.137 -2.7286 -0.5204  0.7446
  340MOL0     H46889   5.920   8.951  11.275  1.1576 -1.6148 -1.1222
  340MOL0     H46890   5.728   8.984  11.418 -1.4477  5.0254  0.2822
  340MOL0     H46891   5.610   8.934  11.297 -0.6300  0.8984 -1.1652
  340MOL0     H46892   5.720   9.159  11.168  1.5831  1.7399  1.0468
  340MOL0     H46893   5.604   9.159  11.292 -0.9300  0.0417 -2.5516
  340MOL0     H46894   5.904   9.208  11.300  0.4986  0.8612  0.8024
  340MOL0     H46895   5.813   9.163  11.448 -3.1899  0.0305 -0.5264
  340MOL0     H46896   5.653   9.357  11.416 -0.4371 -1.0955  1.3578
  340MOL0     H46897   5.762   9.418  11.296 -0.1270  0.2388  0.0574
  340MOL0     H46898   5.944   9.409  11.439 -0.3589 -1.3677 -2.4886
  340MOL0     H46899   5.852   9.330  11.563  2.0272  0.2624  0.4196
  340MOL0     H46900   6.106   8.564  11.016 -0.7252 -0.9334  0.1590
  340MOL0     H46901   6.272   8.399  10.956  0.9086  0.8278  0.2464
  340MOL0     H46902   6.810   8.302  11.200 -0.9999 -0.1872 -0.5709
  340MOL0     H46903   6.975   8.113  11.205  1.0913 -1.6390 -1.8438
  340MOL0     H46904   7.651   6.414  10.479 -1.2671  2.0179  1.7361
  340MOL0     H46905   7.587   6.189  10.522 -0.4305 -0.9064  0.5565
  340MOL0     H46906   7.204   5.884  10.310 -0.3552 -1.3003 -1.3459
  340MOL0     H46907   7.121   5.676  10.248  2.4126 -0.8880 -1.0733
  340MOL0     H46908   7.119   5.302  10.271  1.3549 -0.6191  0.2370
  340MOL0     H46909   7.071   5.465  10.203  1.4522  1.6537  0.7431
  340MOL0     H46910   7.281   5.488  10.110 -0.2824  0.1680 -1.0021
  340MOL0     H46911   7.227   5.329  10.067 -0.0261 -1.4662  1.0510
  340MOL0     H46912   7.475   5.321  10.155  0.6290  0.2828 -0.2742
  340MOL0     H46913   7.414   5.406  10.290 -0.1303 -0.0031  0.0261
  340MOL0     H46914   7.296   5.132  10.205 -1.3901  1.0376  1.5600
  340MOL0     H46915   7.288   5.191  10.367 -1.1124 -1.0718 -1.0126
  340MOL0     H46916   7.657   4.999  10.381 -0.5499 -2.1897 -1.6760
  340MOL0     H46917   7.290   5.519  10.618 -4.4511 -0.5228 -0.8940
  340MOL0     H46918   7.415   5.648  10.757  2.3334 -3.0609 -1.3547
  340MOL0     H46919   7.529   5.750  10.665  0.2463 -0.4048 -0.0135
  340MOL0     H46920   7.393   5.824  10.748  3.4494  1.5506 -1.3836
  341MOL0     O46921   5.593   4.304   0.997  0.4038  0.0177 -0.4929
  341MOL0     C46922   5.596   4.281   1.117  0.2031  0.5085 -0.0575
  341MOL0     O46923   5.533   4.362   1.211 -0.1572 -0.4838  0.4445
  341MOL0     C46924   5.456   4.472   1.160 -0.4143  0.1326  0.1773
  341MOL0     C46925   5.501   4.603   1.184  1.2168  0.2092 -0.7475
  341MOL0     C46926   5.444   4.706   1.108  0.2610  0.6205 -0.8464
  341MOL0     C46927   5.342   4.682   1.022  0.0057 -0.5770  0.9442
  341MOL0     O46928   5.264   4.782   0.963 -0.7049  0.2484 -0.5521
  341MOL0     C46929   5.345   4.850   0.866 -0.6574  0.9147 -0.4244
  341MOL0     C46930   5.310   4.817   0.719 -0.6939 -0.2956 -0.6202
  341MOL0     C46931   5.377   4.909   0.617  0.0792  0.3453  0.0040
  341MOL0     C46932   5.379   4.842   0.484  0.9251  0.0373 -0.3921
  341MOL0     C46933   5.450   4.916   0.376  0.8979 -0.7640 -0.4520
  341MOL0     C46934   5.475   4.850   0.241  0.3517 -0.1819 -0.4029
  341MOL0     C46935   5.564   4.936   0.149 -0.4812 -0.2404 -0.6445
  341MOL0     C46936   5.540   4.893  -0.001 -0.3089  0.6872 -0.8303
  341MOL0     N46937   5.515   4.746  -0.020 -0.0530 -0.4891 -0.1108
  341MOL0     C46938   5.609   4.657  -0.011 -0.0991  0.4431  0.3254
  341MOL0     C46939   5.554   4.532  -0.044 -0.4895  0.5154  0.0180
  341MOL0     C46940   5.632   4.401  -0.069  0.1568 -0.1838 -0.3667
  341MOL0     C46941   5.527   4.294  -0.108 -1.1901  1.3009 -0.6087
  341MOL0     C46942   5.608   4.161  -0.122  0.6164 -0.0879 -0.4990
  341MOL0     C46943   5.511   4.051  -0.141 -0.5027  0.6347  0.1609
  341MOL0     O46944   5.459   4.065  -0.273  0.1464 -0.0031  0.2920
  341MOL0     C46945   5.457   3.947  -0.347  0.3849 -0.5799  0.0891
  341MOL0     C46946   5.560   3.909  -0.425  0.0101  0.4324  1.4434
  341MOL0     C46947   5.549   3.786  -0.502  0.1400 -0.6196 -1.1621
  341MOL0     C46948   5.655   3.740  -0.592 -0.3478 -0.3848 -0.3402
  341MOL0     C46949   5.439   3.699  -0.482  1.3486  0.4587 -0.0518
  341MOL0     C46950   5.410   3.586  -0.571 -1.0010  1.0470  0.0728
  341MOL0     O46951   5.343   3.483  -0.509 -1.2974  0.4073  0.2308
  341MOL0     C46952   5.298   3.386  -0.591 -0.4415  0.1985  0.9712
  341MOL0     C46953   5.375   3.269  -0.599  0.3026  0.1020 -0.3407
  341MOL0     C46954   5.336   3.160  -0.675  0.6254 -0.1021  0.0076
  341MOL0     C46955   5.211   3.171  -0.740 -0.8800  0.2878  0.7157
  341MOL0     O46956   5.173   3.049  -0.804 -0.2752  0.4224 -0.3015
  341MOL0     C46957   5.037   3.058  -0.869  0.0256 -0.2144  0.6051
  341MOL0     C46958   5.013   2.959  -0.973  0.2839 -0.1674 -0.0197
  341MOL0     C46959   5.089   2.993  -1.100  1.0495  0.2970  0.3849
  341MOL0     C46960   5.068   2.878  -1.186 -1.0425  0.5412 -0.3936
  341MOL0     C46961   5.128   2.911  -1.325 -1.0058 -0.7799 -0.7660
  341MOL0     C46962   5.088   2.804  -1.425 -0.3284  0.6701 -0.2277
  341MOL0     C46963   5.174   2.670  -1.417  0.1326 -1.0734 -0.5502
  341MOL0     C46964   5.332   2.667  -1.445  0.3004  0.2841  0.6646
  341MOL0    Cl46965   5.359   2.482  -1.458  0.5680  0.0043 -0.7137
  341MOL0     C46966   5.137   3.286  -0.732  0.4614 -0.4016  0.4425
  341MOL0     C46967   5.171   3.390  -0.652 -0.4353  0.4409  0.0749
  341MOL0     O46968   5.431   3.592  -0.688  0.4229  0.5517 -0.4721
  341MOL0     C46969   5.340   3.737  -0.386  0.2584 -0.0184 -0.6422
  341MOL0     C46970   5.346   3.861  -0.319 -1.3321  0.4159 -0.2952
  341MOL0     N46971   5.422   4.561  -0.067  0.3260  0.0485  0.1085
  341MOL0     N46972   5.395   4.689  -0.044 -0.3590  0.4659 -0.1845
  341MOL0     C46973   5.302   4.548   0.999 -0.3435 -0.7150 -1.1152
  341MOL0     C46974   5.348   4.444   1.079 -0.7225 -0.1428  0.4778
  341MOL0     C46975   5.680   4.171   1.171  0.0700  0.5594 -0.4508
  341MOL0     C46976   5.693   4.164   1.312  0.1147 -0.0697  0.4605
  341MOL0     C46977   5.759   4.057   1.371 -0.3664 -0.7164  0.3236
  341MOL0     C46978   5.830   3.963   1.300  0.3349  1.5088  0.2464
  341MOL0     O46979   5.890   3.841   1.339 -0.3129 -0.8612 -0.0945
  341MOL0     C46980   5.883   3.801   1.483 -0.1470  0.1229  0.9113
  341MOL0     C46981   6.013   3.827   1.570 -0.4944  0.8315 -0.4210
  341MOL0     C46982   6.037   3.974   1.596 -0.1097 -0.5632  1.0198
  341MOL0     C46983   6.183   3.988   1.630 -0.7352 -0.3084  0.3164
  341MOL0     C46984   6.218   4.134   1.613 -0.1943 -0.1664  0.1081
  341MOL0     C46985   6.252   4.239   1.578  0.1081 -0.5844 -0.9290
  341MOL0     C46986   5.821   3.971   1.159  0.4244 -0.0095 -0.3577
  341MOL0     C46987   5.754   4.067   1.095  0.6492 -1.2852 -0.7803
  341MOL0     C46988   5.743   4.040   0.947  0.6581 -0.4570  1.0506
  341MOL0     H46989   5.562   4.623   1.272 -1.3409  1.6482  0.8219
  341MOL0     H46990   5.463   4.807   1.143  3.0189  0.0855 -0.5455
  341MOL0     H46991   5.452   4.846   0.887 -0.0830  3.6709 -2.1708
  341MOL0     H46992   5.314   4.952   0.891 -1.1829  0.4999  0.6667
  341MOL0     H46993   5.336   4.711   0.712  2.7940 -0.0732  3.7161
  341MOL0     H46994   5.203   4.834   0.707 -0.9681  0.0360  1.7141
  341MOL0     H46995   5.323   5.004   0.612 -2.4272 -1.0543 -2.1756
  341MOL0     H46996   5.473   4.944   0.656 -1.0173 -0.2856  3.5733
  341MOL0     H46997   5.429   4.747   0.503  0.5183 -0.2689 -0.8059
  341MOL0     H46998   5.281   4.825   0.438  1.1577  0.7450 -1.1960
  341MOL0     H46999   5.541   4.951   0.426 -0.4452 -0.7068  2.1625
  341MOL0     H47000   5.400   5.013   0.363  0.3021 -1.0434 -0.2902
  341MOL0     H47001   5.512   4.748   0.256 -3.8681 -1.7216  1.2934
  341MOL0     H47002   5.377   4.842   0.192  0.4281 -1.0955 -0.4309
  341MOL0     H47003   5.667   4.915   0.179 -0.6237 -1.0792 -0.7024
  341MOL0     H47004   5.547   5.043   0.163 -0.3200  0.0889 -2.5754
  341MOL0     H47005   5.454   4.946  -0.042  0.4889  0.9616 -2.2290
  341MOL0     H47006   5.631   4.912  -0.060 -0.3027 -0.5856 -1.2849
  341MOL0     H47007   5.715   4.672   0.005 -0.3198  1.9071  0.5251
  341MOL0     H47008   5.680   4.359   0.020 -0.3190 -4.5928 -1.9453
  341MOL0     H47009   5.712   4.425  -0.139 -0.0907  3.9413  0.5187
  341MOL0     H47010   5.456   4.294  -0.025  1.2382 -0.1409  1.6221
  341MOL0     H47011   5.482   4.325  -0.203  0.5495 -0.4606 -2.0901
  341MOL0     H47012   5.677   4.171  -0.206 -2.5575  4.1847 -3.0082
  341MOL0     H47013   5.664   4.140  -0.031 -1.4881  1.7035  1.3491
  341MOL0     H47014   5.545   3.947  -0.130 -2.6445 -0.5424 -2.9816
  341MOL0     H47015   5.428   4.052  -0.070 -2.8344 -2.6715 -2.2487
  341MOL0     H47016   5.647   3.972  -0.441 -0.1399  0.2381 -0.2591
  341MOL0     H47017   5.679   3.633  -0.587 -0.2493 -0.3109  2.3636
  341MOL0     H47018   5.741   3.793  -0.551 -0.5745 -2.6902  3.5762
  341MOL0     H47019   5.639   3.777  -0.694  1.9914 -0.3031 -0.7307
  341MOL0     H47020   5.470   3.277  -0.547  0.5350  0.6662 -0.8346
  341MOL0     H47021   5.393   3.069  -0.687 -1.2475 -1.1314 -1.8648
  341MOL0     H47022   4.964   3.046  -0.789  2.1940  1.1166  2.9392
  341MOL0     H47023   5.020   3.150  -0.926 -1.1393 -2.3410 -2.7621
  341MOL0     H47024   5.051   2.868  -0.925  1.1615  0.6435  0.8636
  341MOL0     H47025   4.906   2.945  -0.991  0.5015 -1.8974 -0.1585
  341MOL0     H47026   5.193   3.011  -1.071  2.4975 -2.1409 -2.7193
  341MOL0     H47027   5.056   3.089  -1.142  0.6441  0.2749  0.6524
  341MOL0     H47028   4.963   2.848  -1.193 -0.8547 -0.4282  0.5912
  341MOL0     H47029   5.112   2.787  -1.144 -5.0266 -1.5462 -0.2506
  341MOL0     H47030   5.101   3.004  -1.375  2.3028  1.2300  0.8065
  341MOL0     H47031   5.237   2.912  -1.310 -1.0244 -1.4125 -0.5487
  341MOL0     H47032   5.089   2.852  -1.523 -1.2954  0.0728 -0.5346
  341MOL0     H47033   4.984   2.774  -1.408  0.3501 -0.0112  3.6670
  341MOL0     H47034   5.118   2.591  -1.467 -0.0978 -0.9115 -0.5465
  341MOL0     H47035   5.172   2.641  -1.312 -1.9511  2.5092  0.5580
  341MOL0     H47036   5.388   2.721  -1.369  2.5258  2.0266 -2.0219
  341MOL0     H47037   5.360   2.715  -1.540 -2.9151 -2.1615 -1.7607
  341MOL0     H47038   5.034   3.284  -0.767  0.8716  3.3826 -1.4776
  341MOL0     H47039   5.099   3.470  -0.636 -0.8255  0.1412 -0.1559
  341MOL0     H47040   5.252   3.677  -0.367  0.7280 -1.0603 -1.6483
  341MOL0     H47041   5.266   3.879  -0.248 -0.2342 -0.1943  1.1485
  341MOL0     H47042   5.213   4.528   0.940 -2.2893  0.5216  1.2223
  341MOL0     H47043   5.306   4.344   1.071 -1.9077  0.3674  0.2166
  341MOL0     H47044   5.657   4.248   1.371  1.2760  2.0598 -1.6988
  341MOL0     H47045   5.772   4.064   1.478  0.5733 -2.3986  0.3580
  341MOL0     H47046   5.793   3.854   1.518  0.4564  0.8521  1.3900
  341MOL0     H47047   5.860   3.695   1.475  2.1766 -0.2843 -3.4529
  341MOL0     H47048   6.097   3.773   1.525  0.5959  1.2672  1.0275
  341MOL0     H47049   5.998   3.777   1.666 -1.2409  0.1321 -0.8858
  341MOL0     H47050   6.019   4.027   1.502  2.3783  1.3961  1.5472
  341MOL0     H47051   5.975   4.019   1.674 -2.1691  2.3504 -2.0094
  341MOL0     H47052   6.246   3.920   1.573 -2.9687 -0.0244 -2.7952
  341MOL0     H47053   6.198   3.977   1.738  0.0916  0.2592  0.2672
  341MOL0     H47054   6.308   4.329   1.564  1.6366 -0.9735  1.8986
  341MOL0     H47055   5.874   3.889   1.111 -1.8978 -0.5709 -2.1749
  341MOL0     H47056   5.792   4.120   0.891  0.2470 -1.7679 -1.3030
  341MOL0     H47057   5.797   3.951   0.913 -0.8386 -0.3970 -1.7842
  341MOL0     H47058   5.639   4.041   0.914  0.8034  1.9799  0.4836
  342MOL0     O47059   5.741   3.099   0.405  1.3776 -0.4723  0.1123
  342MOL0     C47060   5.635   3.155   0.356  0.0479 -0.6269 -0.6688
  342MOL0     O47061   5.633   3.279   0.296 -0.4136  0.4400 -0.8341
  342MOL0     C47062   5.759   3.344   0.291  0.6646  0.8172  0.5386
  342MOL0     C47063   5.792   3.431   0.397 -0.3364  0.1493  0.1527
  342MOL0     C47064   5.911   3.500   0.406  0.0908  0.5930  0.0099
  342MOL0     C47065   6.001   3.479   0.299  0.1091  0.2302 -0.7503
  342MOL0     O47066   6.118   3.546   0.296 -0.1480  0.1760 -0.3658
  342MOL0     C47067   6.233   3.454   0.269  0.2543 -0.1161  0.0554
  342MOL0     C47068   6.357   3.504   0.351  0.1265 -0.6278  0.9683
  342MOL0     C47069   6.354   3.454   0.494  0.2706  0.3883  0.2149
  342MOL0     C47070   6.449   3.531   0.572 -1.1633  0.2819  0.4220
  342MOL0     C47071   6.429   3.493   0.719 -0.2111  0.1447 -0.8599
  342MOL0     C47072   6.467   3.350   0.767 -0.1339 -0.7880  0.0927
  342MOL0     C47073   6.604   3.305   0.733  1.0023  0.5041 -0.8209
  342MOL0     C47074   6.699   3.353   0.836 -0.2463 -0.2365 -0.2397
  342MOL0     N47075   6.834   3.299   0.798  0.0706  0.0459 -0.2265
  342MOL0     C47076   6.950   3.362   0.813  0.0263 -0.6116  1.1418
  342MOL0     C47077   7.047   3.268   0.782 -0.4639 -0.3029 -0.7060
  342MOL0     C47078   7.193   3.287   0.763  0.6012 -1.0880 -0.6458
  342MOL0     C47079   7.267   3.234   0.877  0.0427 -0.7199  0.3114
  342MOL0     C47080   7.226   3.289   1.009 -0.5673 -0.1862  0.5657
  342MOL0     C47081   7.305   3.231   1.126 -0.0409  0.0360 -0.7525
  342MOL0     O47082   7.269   3.296   1.253  0.5084 -0.4732  0.1709
  342MOL0     C47083   7.323   3.404   1.305 -0.0416  0.5152  0.1874
  342MOL0     C47084   7.275   3.461   1.417  0.1906  0.2468 -0.1692
  342MOL0     C47085   7.315   3.580   1.469 -0.5466 -0.8187 -1.2614
  342MOL0     C47086   7.232   3.628   1.569 -0.5037 -0.0729 -0.5211
  342MOL0     C47087   7.426   3.647   1.415  0.2997 -0.3434 -0.2331
  342MOL0     C47088   7.471   3.776   1.458 -0.6089 -0.4620  0.0599
  342MOL0     O47089   7.599   3.802   1.416 -1.3202 -0.7281 -0.1982
  342MOL0     C47090   7.665   3.922   1.455 -0.5456  0.4469  0.1069
  342MOL0     C47091   7.659   3.967   1.589 -0.3376  0.0004  0.6236
  342MOL0     C47092   7.721   4.084   1.631  0.1817 -0.1393 -0.6623
  342MOL0     C47093   7.794   4.164   1.535 -0.8391 -0.2791 -0.4870
  342MOL0     O47094   7.856   4.276   1.571  0.4902 -0.1741 -0.6711
  342MOL0     C47095   7.988   4.271   1.621  0.4632 -0.6973 -0.0098
  342MOL0     C47096   8.004   4.257   1.769 -1.0071 -0.6533  0.1200
  342MOL0     C47097   7.915   4.355   1.847 -0.5040  0.0461 -0.2712
  342MOL0     C47098   7.940   4.367   2.003  0.8390 -0.3526 -0.3763
  342MOL0     C47099   8.053   4.467   2.044 -0.9515  0.1057 -0.4586
  342MOL0     C47100   8.081   4.476   2.194  0.7331 -0.2436  1.1351
  342MOL0     C47101   7.953   4.525   2.262 -0.3082 -0.5998  0.3196
  342MOL0     C47102   7.985   4.554   2.408 -0.2942 -0.5719  0.0054
  342MOL0    Cl47103   7.839   4.592   2.500  0.3611  0.1244 -0.1936
  342MOL0     C47104   7.800   4.119   1.401 -0.3301 -0.1494  0.2983
  342MOL0     C47105   7.747   3.991   1.364 -0.3484  0.1682 -0.4221
  342MOL0     O47106   7.404   3.866   1.516  0.3457 -0.1668 -0.0974
  342MOL0     C47107   7.490   3.584   1.300  0.5399 -0.5018  0.1457
  342MOL0     C47108   7.436   3.463   1.252  0.6593  0.2431 -0.1312
  342MOL0     N47109   6.978   3.150   0.756 -1.0465 -0.3486 -0.6130
  342MOL0     N47110   6.857   3.175   0.750  0.3659  0.1803 -0.6358
  342MOL0     C47111   5.965   3.408   0.184 -0.6920  0.2371 -0.2721
  342MOL0     C47112   5.846   3.332   0.180 -0.8539  0.6594  0.1048
  342MOL0     C47113   5.499   3.092   0.365 -0.5866 -0.0750 -0.7394
  342MOL0     C47114   5.388   3.181   0.356 -0.3870 -0.2668  0.7810
  342MOL0     C47115   5.256   3.126   0.360 -0.0673 -0.0730  0.4129
  342MOL0     C47116   5.239   2.986   0.367 -0.2178  0.2815  0.0224
  342MOL0     O47117   5.107   2.924   0.369  0.5259 -0.2567  0.0156
  342MOL0     C47118   4.994   3.016   0.353 -0.2704  0.0493  0.1416
  342MOL0     C47119   4.960   3.013   0.199  0.3808 -0.4832 -0.2699
  342MOL0     C47120   4.843   3.111   0.162 -0.0531  0.8595  0.4526
  342MOL0     C47121   4.761   3.055   0.038 -0.8150  0.0582  0.6905
  342MOL0     C47122   4.706   3.180  -0.016  0.3820 -0.1573 -0.3598
  342MOL0     C47123   4.656   3.264  -0.076 -0.7950 -0.2740  0.1764
  342MOL0     C47124   5.348   2.907   0.387 -0.9039  0.2253  0.6657
  342MOL0     C47125   5.483   2.957   0.376 -0.7649 -0.4629  0.1324
  342MOL0     C47126   5.596   2.857   0.362 -0.1118  0.1179 -0.6236
  342MOL0     H47127   5.715   3.441   0.473 -1.7525 -0.2708 -1.1876
  342MOL0     H47128   5.938   3.562   0.491  1.9036 -2.1828  1.6227
  342MOL0     H47129   6.255   3.451   0.162  1.0665  1.1316  0.1690
  342MOL0     H47130   6.203   3.352   0.296  0.0099 -0.7825 -2.4794
  342MOL0     H47131   6.452   3.473   0.307 -0.4048  0.8994 -1.4383
  342MOL0     H47132   6.358   3.613   0.340  1.8665 -0.8859 -3.7912
  342MOL0     H47133   6.257   3.479   0.537  0.0177 -3.1316  2.0228
  342MOL0     H47134   6.364   3.345   0.493  0.3582  0.3506 -2.2840
  342MOL0     H47135   6.550   3.512   0.535 -1.7509  0.5124 -1.4140
  342MOL0     H47136   6.437   3.637   0.547 -1.7288 -0.3051 -2.0596
  342MOL0     H47137   6.324   3.517   0.736  0.1729  1.7657 -0.5723
  342MOL0     H47138   6.487   3.566   0.776  0.7396 -0.5028 -0.9710
  342MOL0     H47139   6.448   3.352   0.875 -1.1878 -2.8050 -0.0029
  342MOL0     H47140   6.397   3.281   0.719  0.1564 -0.0434 -1.4655
  342MOL0     H47141   6.637   3.333   0.632  0.8902  1.4586 -0.5948
  342MOL0     H47142   6.608   3.195   0.738  1.5867  0.4493 -2.0558
  342MOL0     H47143   6.695   3.462   0.835  0.9764 -0.1341 -3.5382
  342MOL0     H47144   6.673   3.320   0.937  0.1987 -1.4262 -0.4875
  342MOL0     H47145   6.971   3.464   0.844  1.7672 -0.1900 -1.1775
  342MOL0     H47146   7.216   3.392   0.741 -1.3197 -0.6446 -0.7233
  342MOL0     H47147   7.229   3.234   0.674 -1.1396  2.3962 -3.6905
  342MOL0     H47148   7.258   3.125   0.873  2.1412 -0.9728  1.0934
  342MOL0     H47149   7.373   3.256   0.858 -0.1589 -0.2158 -0.2761
  342MOL0     H47150   7.251   3.396   1.008  2.7233 -0.7832 -2.9819
  342MOL0     H47151   7.123   3.271   1.039 -0.0663  1.9268  4.1388
  342MOL0     H47152   7.279   3.127   1.145 -0.9345  0.4786  0.6769
  342MOL0     H47153   7.409   3.251   1.099  0.0880  4.2427  1.8567
  342MOL0     H47154   7.192   3.401   1.451 -1.0823  2.4168  0.7526
  342MOL0     H47155   7.304   3.667   1.641 -0.5440  1.0565 -1.0741
  342MOL0     H47156   7.172   3.548   1.615  0.8568 -0.4919  0.6193
  342MOL0     H47157   7.165   3.708   1.539  0.7459  1.9770  1.7623
  342MOL0     H47158   7.604   3.908   1.662  0.1678 -0.3985  0.6955
  342MOL0     H47159   7.707   4.120   1.732 -1.8733 -0.2972 -0.8494
  342MOL0     H47160   8.052   4.195   1.576 -0.0636 -1.6767  0.8506
  342MOL0     H47161   8.041   4.365   1.607 -2.2002  0.9784  0.4175
  342MOL0     H47162   7.976   4.153   1.789 -0.9508 -1.7171 -4.3205
  342MOL0     H47163   8.108   4.265   1.801 -0.8421 -1.0316 -0.3060
  342MOL0     H47164   7.810   4.325   1.845 -1.2119  0.4883  6.2860
  342MOL0     H47165   7.925   4.458   1.813  0.6035 -0.5457 -1.8372
  342MOL0     H47166   7.967   4.269   2.042 -0.5342 -0.1653  1.1331
  342MOL0     H47167   7.843   4.395   2.045  0.1834 -1.3484 -1.1513
  342MOL0     H47168   8.150   4.436   2.004  0.3002 -2.1119  3.6873
  342MOL0     H47169   8.020   4.564   2.005 -2.5647 -0.0130  0.5118
  342MOL0     H47170   8.167   4.542   2.210  1.0582 -0.5745  0.7768
  342MOL0     H47171   8.111   4.372   2.211  0.2025 -0.7716 -0.8505
  342MOL0     H47172   7.879   4.445   2.249 -1.8762  0.9884 -1.1704
  342MOL0     H47173   7.927   4.621   2.216  0.7312  0.8515  2.5788
  342MOL0     H47174   8.053   4.640   2.412  0.5204 -0.9806 -2.5444
  342MOL0     H47175   8.036   4.466   2.448  2.0668  0.1088 -1.2788
  342MOL0     H47176   7.860   4.175   1.331 -1.2496  4.2529  2.6304
  342MOL0     H47177   7.751   3.962   1.260 -0.0781 -3.0186  0.3794
  342MOL0     H47178   7.582   3.621   1.258  2.1731 -3.1806  1.0847
  342MOL0     H47179   7.491   3.413   1.174  4.4843 -0.2124  2.5990
  342MOL0     H47180   6.017   3.403   0.089  1.2051  1.8330  0.5947
  342MOL0     H47181   5.823   3.266   0.098 -1.0713  0.1904  0.5379
  342MOL0     H47182   5.396   3.288   0.346  0.8607 -0.4124 -0.0586
  342MOL0     H47183   5.179   3.202   0.358 -0.3885 -0.4041 -0.5161
  342MOL0     H47184   4.922   2.961   0.415 -0.9850  0.1110 -0.6239
  342MOL0     H47185   5.006   3.120   0.386  0.3346  1.3254 -3.6482
  342MOL0     H47186   4.944   2.909   0.172 -1.6947 -0.0825 -0.7013
  342MOL0     H47187   5.047   3.054   0.146 -1.2316  1.8956 -1.2936
  342MOL0     H47188   4.766   3.124   0.239  1.0459 -1.7332  2.1267
  342MOL0     H47189   4.891   3.208   0.147  2.4819 -0.5725 -1.5056
  342MOL0     H47190   4.686   2.979   0.064 -2.5673  0.9516 -1.4463
  342MOL0     H47191   4.836   3.011  -0.028 -0.2732 -0.1049  1.3903
  342MOL0     H47192   4.615   3.357  -0.109  0.3128  0.8734  1.8833
  342MOL0     H47193   5.330   2.801   0.406  2.4522 -0.3707  1.1339
  342MOL0     H47194   5.649   2.861   0.457 -2.5446 -1.2075  0.9035
  342MOL0     H47195   5.551   2.759   0.342 -0.0824 -0.7460  2.9026
  342MOL0     H47196   5.662   2.878   0.277  1.5761 -5.2620 -1.0728
  343MOL0     O47197   9.042   5.953   7.560  0.8416 -0.4337  0.1747
  343MOL0     C47198   9.165   5.924   7.560 -0.3704 -1.0715 -0.2427
  343MOL0     O47199   9.246   5.901   7.454  0.3492 -0.2838  0.2106
  343MOL0     C47200   9.180   5.883   7.333 -0.0291 -0.2317 -0.8769
  343MOL0     C47201   9.232   5.781   7.257  0.4315 -0.2563  0.0289
  343MOL0     C47202   9.177   5.745   7.132 -0.1158 -0.2874  0.0532
  343MOL0     C47203   9.070   5.814   7.082  0.3323 -0.4958  0.3683
  343MOL0     O47204   9.035   5.781   6.955 -0.1239 -0.2809 -0.2043
  343MOL0     C47205   8.899   5.801   6.919  0.0435  0.6113  1.1676
  343MOL0     C47206   8.880   5.732   6.780 -0.4202  0.1412  0.8358
  343MOL0     C47207   8.999   5.758   6.675  0.2721  0.0304 -0.2742
  343MOL0     C47208   8.945   5.743   6.532 -1.0939  0.2105 -0.2359
  343MOL0     C47209   9.032   5.653   6.433  1.0083  0.3909 -0.2347
  343MOL0     C47210   9.177   5.703   6.398 -0.6920 -0.1178 -0.8467
  343MOL0     C47211   9.234   5.603   6.301 -0.0598  0.5932  0.2785
  343MOL0     C47212   9.181   5.626   6.157  0.4239 -0.3610 -0.2007
  343MOL0     N47213   9.219   5.513   6.068 -0.5755 -0.9452  0.1885
  343MOL0     C47214   9.129   5.442   5.988  0.6078  0.2265  0.5477
  343MOL0     C47215   9.193   5.406   5.877 -0.6706 -0.1470 -1.1983
  343MOL0     C47216   9.139   5.325   5.763 -0.5162 -1.1035 -0.5314
  343MOL0     C47217   8.999   5.356   5.728 -0.5562 -1.0174  0.1623
  343MOL0     C47218   8.934   5.286   5.617  0.2935 -0.0228  0.0476
  343MOL0     C47219   8.985   5.324   5.482  0.0017 -0.9110 -0.2071
  343MOL0     O47220   8.875   5.309   5.388 -0.3491  0.0896  0.7981
  343MOL0     C47221   8.905   5.318   5.252 -0.1252  0.6002  0.3052
  343MOL0     C47222   8.798   5.322   5.162 -0.9938 -0.0288 -1.0713
  343MOL0     C47223   8.811   5.339   5.026 -0.5606  0.4582 -0.0343
  343MOL0     C47224   8.679   5.351   4.949 -0.6154  0.4483  0.2972
  343MOL0     C47225   8.937   5.367   4.968 -0.9516 -0.9911  0.4060
  343MOL0     C47226   8.974   5.404   4.827 -0.6180 -0.5007 -0.2895
  343MOL0     O47227   9.104   5.384   4.792 -0.2452 -0.8551 -0.2960
  343MOL0     C47228   9.140   5.396   4.658 -0.1898 -0.0833  0.0330
  343MOL0     C47229   9.122   5.515   4.588  1.5775 -0.6220  0.1842
  343MOL0     C47230   9.155   5.536   4.459 -0.5468  0.1297 -0.3037
  343MOL0     C47231   9.221   5.432   4.388 -0.4673 -0.0943  0.5682
  343MOL0     O47232   9.245   5.442   4.261 -0.4985  0.0369  0.3181
  343MOL0     C47233   9.229   5.560   4.184 -0.0962 -0.0727 -0.8024
  343MOL0     C47234   9.278   5.529   4.044 -0.4934 -0.0351 -0.5405
  343MOL0     C47235   9.192   5.412   3.982  0.5227  0.2580  0.7792
  343MOL0     C47236   9.232   5.374   3.837 -0.4257  0.2003 -0.2396
  343MOL0     C47237   9.131   5.294   3.764  0.1747 -0.3475  0.2522
  343MOL0     C47238   9.067   5.177   3.837 -0.3437  1.0128 -0.6436
  343MOL0     C47239   9.159   5.058   3.857  0.2018 -0.1269  0.1943
  343MOL0     C47240   9.193   4.983   3.727 -0.0458  0.3426  0.4387
  343MOL0    Cl47241   9.054   4.896   3.650 -0.0864 -0.0385  0.1156
  343MOL0     C47242   9.242   5.311   4.448 -0.6494 -0.4141 -0.4423
  343MOL0     C47243   9.198   5.291   4.579  0.2282  0.6909  0.2841
  343MOL0     O47244   8.887   5.446   4.756 -0.4717 -0.7845  0.1120
  343MOL0     C47245   9.040   5.369   5.062  1.1032  0.1815  0.3763
  343MOL0     C47246   9.030   5.351   5.200  0.3927  0.2393 -0.4858
  343MOL0     N47247   9.322   5.447   5.901  0.3024  0.4582 -0.1560
  343MOL0     N47248   9.345   5.504   6.015 -0.2746  0.6963 -0.2116
  343MOL0     C47249   9.017   5.924   7.152  0.9631  0.0921 -0.3327
  343MOL0     C47250   9.082   5.966   7.278  0.6874  0.5558 -0.4588
  343MOL0     C47251   9.228   5.918   7.687 -0.2089 -0.0534  0.0872
  343MOL0     C47252   9.360   5.855   7.690  0.8558  0.7506 -0.5825
  343MOL0     C47253   9.417   5.816   7.811 -0.0627 -0.3893  0.5675
  343MOL0     C47254   9.363   5.832   7.934 -0.3591 -0.5060 -0.4682
  343MOL0     O47255   9.432   5.776   8.046 -0.1291 -0.2477 -0.7372
  343MOL0     C47256   9.456   5.875   8.149  0.0846  0.3981 -0.0882
  343MOL0     C47257   9.583   5.960   8.120 -0.1567  0.1410 -0.4378
  343MOL0     C47258   9.730   5.892   8.104  0.4347 -0.6792 -0.2681
  343MOL0     C47259   9.826   6.000   8.042  0.4812 -0.0356  0.3343
  343MOL0     C47260   9.938   5.929   7.981 -0.4002 -0.8263  0.0029
  343MOL0     C47261  10.028   5.888   7.906  0.2495 -0.4887 -0.2765
  343MOL0     C47262   9.235   5.899   7.931 -0.2964  0.0963 -0.3592
  343MOL0     C47263   9.167   5.940   7.812 -1.1776  0.5099  0.4204
  343MOL0     C47264   9.030   6.000   7.842  0.0300  0.3860  0.3378
  343MOL0     H47265   9.319   5.727   7.293  1.3904  0.6296 -0.8725
  343MOL0     H47266   9.233   5.674   7.071  0.5287 -3.4688  3.9587
  343MOL0     H47267   8.872   5.907   6.928  2.1775  1.4658 -1.0071
  343MOL0     H47268   8.830   5.750   6.986 -0.7456  0.3263  0.1728
  343MOL0     H47269   8.885   5.624   6.795 -1.4303  0.2103  1.7819
  343MOL0     H47270   8.780   5.755   6.742  0.3117 -0.7472 -1.9038
  343MOL0     H47271   9.045   5.854   6.699 -0.0045  0.0468  0.1832
  343MOL0     H47272   9.074   5.684   6.704  3.6836  2.5786 -1.8254
  343MOL0     H47273   8.840   5.713   6.530 -1.3243  0.9307  0.5251
  343MOL0     H47274   8.941   5.845   6.490 -0.9210  0.3439  0.0680
  343MOL0     H47275   8.975   5.650   6.340 -0.5666 -4.2390  0.6177
  343MOL0     H47276   9.034   5.548   6.465  1.5856 -0.3757 -2.5953
  343MOL0     H47277   9.185   5.800   6.348 -0.1171  1.7254  2.5345
  343MOL0     H47278   9.233   5.703   6.492  0.0325 -0.7442 -1.2669
  343MOL0     H47279   9.210   5.503   6.340  0.3131  0.5102  0.2991
  343MOL0     H47280   9.342   5.612   6.288  0.5079 -1.8596  2.3497
  343MOL0     H47281   9.074   5.648   6.146  0.0759 -0.8995  1.6553
  343MOL0     H47282   9.229   5.721   6.130  2.0833 -1.7909 -2.6407
  343MOL0     H47283   9.025   5.418   6.010  0.2559 -2.1618 -2.9125
  343MOL0     H47284   9.147   5.222   5.800 -0.4188 -0.4946  1.2522
  343MOL0     H47285   9.213   5.348   5.686 -1.6904  0.0517 -1.3373
  343MOL0     H47286   8.935   5.336   5.814 -0.8391  0.7608  0.4144
  343MOL0     H47287   8.993   5.461   5.696 -0.6568 -2.0858 -3.8036
  343MOL0     H47288   8.936   5.179   5.637 -1.0666  0.0524  0.7026
  343MOL0     H47289   8.830   5.316   5.629  0.5754  1.4080 -0.8628
  343MOL0     H47290   9.013   5.430   5.479 -2.0829 -0.2520 -4.1220
  343MOL0     H47291   9.073   5.271   5.446  0.3354  0.1097 -0.9514
  343MOL0     H47292   8.710   5.302   5.221  0.7175  0.5449  1.8674
  343MOL0     H47293   8.701   5.299   4.855 -0.4082 -0.0009  0.5950
  343MOL0     H47294   8.658   5.456   4.924  1.1395  0.6531 -0.4743
  343MOL0     H47295   8.588   5.310   4.993 -2.2851  1.8938 -1.5751
  343MOL0     H47296   9.067   5.592   4.641  1.1000 -0.7930 -0.0667
  343MOL0     H47297   9.143   5.632   4.411  0.9706  0.4369 -0.1317
  343MOL0     H47298   9.127   5.598   4.172 -0.1568 -0.4178 -1.4032
  343MOL0     H47299   9.277   5.643   4.237 -1.7120  0.2275  0.2771
  343MOL0     H47300   9.258   5.618   3.983 -0.4039  0.4710  0.1542
  343MOL0     H47301   9.385   5.506   4.036 -0.5046 -0.1399 -0.3930
  343MOL0     H47302   9.087   5.442   3.997 -0.1304 -0.0599 -2.4250
  343MOL0     H47303   9.198   5.324   4.047  2.2227  0.4226  0.8929
  343MOL0     H47304   9.322   5.312   3.843 -0.5990  0.0305  0.7738
  343MOL0     H47305   9.250   5.469   3.786  1.0610  0.2462  0.3334
  343MOL0     H47306   9.050   5.363   3.740 -2.2616 -3.2358 -0.4172
  343MOL0     H47307   9.178   5.269   3.668  0.3186 -0.6459  0.3973
  343MOL0     H47308   8.970   5.149   3.794  0.5244 -0.2707 -1.8914
  343MOL0     H47309   9.040   5.221   3.933  0.1974 -2.8388  1.4616
  343MOL0     H47310   9.122   5.000   3.942  2.1434 -1.1940  0.3649
  343MOL0     H47311   9.245   5.100   3.911 -2.0342  1.8570  2.5368
  343MOL0     H47312   9.270   4.906   3.739 -1.9297 -2.1052 -1.8704
  343MOL0     H47313   9.222   5.062   3.657  0.4531  1.8915  2.3007
  343MOL0     H47314   9.294   5.232   4.394  4.6237  1.8131  0.7967
  343MOL0     H47315   9.209   5.192   4.624 -1.1561 -0.0512 -0.9350
  343MOL0     H47316   9.141   5.388   5.027  0.0802  1.0978 -2.3974
  343MOL0     H47317   9.124   5.349   5.255  0.7247  2.2539 -0.8862
  343MOL0     H47318   8.927   5.982   7.129  0.4326  1.3916  4.0716
  343MOL0     H47319   9.047   6.048   7.339  2.1072 -0.8951  2.5385
  343MOL0     H47320   9.409   5.830   7.596  1.4838  1.4466 -0.4508
  343MOL0     H47321   9.505   5.753   7.818  0.1025 -0.0238  5.3092
  343MOL0     H47322   9.374   5.946   8.162 -0.0919 -0.3002  3.9482
  343MOL0     H47323   9.468   5.832   8.249 -2.6524 -2.5019 -0.8334
  343MOL0     H47324   9.583   6.039   8.195 -1.4709  2.1138 -2.3869
  343MOL0     H47325   9.567   6.019   8.029  1.4696 -2.3435 -2.5076
  343MOL0     H47326   9.761   5.872   8.206 -2.1049  1.0206  0.9476
  343MOL0     H47327   9.724   5.799   8.046  2.9254 -1.8750  1.2705
  343MOL0     H47328   9.859   6.070   8.119 -1.3970  3.0701 -1.4831
  343MOL0     H47329   9.779   6.053   7.959  1.9017  3.5391  1.6506
  343MOL0     H47330  10.109   5.856   7.843 -1.2737  0.7567 -3.0418
  343MOL0     H47331   9.190   5.917   8.028  2.2993 -0.5508  1.0596
  343MOL0     H47332   8.943   5.946   7.803  0.2377  1.0452 -1.0687
  343MOL0     H47333   9.020   6.007   7.951  2.7272  0.4103  0.6380
  343MOL0     H47334   9.037   6.097   7.792  0.6914 -0.1424 -0.6359
  344MOL0     O47335   3.278   9.717   0.030 -0.8750 -0.5339  0.6877
  344MOL0     C47336   3.363   9.671  -0.048  0.3730  0.5702  0.0528
  344MOL0     O47337   3.449   9.741  -0.125 -0.3482  0.0561  0.1578
  344MOL0     C47338   3.459   9.868  -0.089 -0.5742 -0.0871  0.2452
  344MOL0     C47339   3.504   9.910   0.036 -0.5443 -0.2660  0.4473
  344MOL0     C47340   3.515  10.046   0.069 -0.3319  0.2261  0.4528
  344MOL0     C47341   3.469  10.143  -0.012 -0.0256 -0.5369 -0.6595
  344MOL0     O47342   3.482  10.277   0.017 -0.4135  0.1201  0.1752
  344MOL0     C47343   3.542  10.334   0.136 -0.0289 -1.3775  0.8875
  344MOL0     C47344   3.432  10.354   0.244 -0.0447 -0.5929  0.5234
  344MOL0     C47345   3.323  10.456   0.206 -0.3538  0.3330  0.2042
  344MOL0     C47346   3.243  10.489   0.334 -0.8335 -0.2349  0.6743
  344MOL0     C47347   3.114  10.585   0.307 -0.5780  0.5795 -0.1834
  344MOL0     C47348   3.124  10.680   0.182  0.8975  0.6389 -0.3958
  344MOL0     C47349   3.090  10.631   0.041 -0.5677  0.4340  0.3211
  344MOL0     C47350   2.956  10.550   0.009 -0.3298 -0.0550  0.0025
  344MOL0     N47351   2.846  10.619   0.067 -0.3988 -0.6075 -0.2523
  344MOL0     C47352   2.801  10.738   0.018  1.5038  0.3180 -0.3871
  344MOL0     C47353   2.696  10.759   0.095 -0.4189 -0.1929 -0.5140
  344MOL0     C47354   2.602  10.876   0.104  0.0717 -0.3425 -0.3986
  344MOL0     C47355   2.647  10.987   0.001  0.0217  0.1091  0.3203
  344MOL0     C47356   2.571  11.117   0.017 -0.8068  0.0546 -0.1273
  344MOL0     C47357   2.596  11.195   0.150  0.3427 -0.5976  0.2658
  344MOL0     O47358   2.493  11.170   0.249 -0.5608 -0.0335  0.1530
  344MOL0     C47359   2.514  11.184   0.382 -0.2828 -0.0789 -0.5294
  344MOL0     C47360   2.391  11.204   0.455 -0.0810 -0.2648 -0.3263
  344MOL0     C47361   2.394  11.241   0.592 -0.1428  0.7329  0.0770
  344MOL0     C47362   2.262  11.237   0.674  0.3258 -0.0268 -0.0924
  344MOL0     C47363   2.515  11.255   0.657 -0.1553  0.7886  0.0195
  344MOL0     C47364   2.527  11.294   0.799 -0.0458  0.2050  0.8465
  344MOL0     O47365   2.630  11.236   0.858 -0.2144 -0.5580  0.4289
  344MOL0     C47366   2.624  11.257   0.999 -0.3140 -0.2110  0.9415
  344MOL0     C47367   2.724  11.320   1.072 -0.8338 -0.8049  0.0421
  344MOL0     C47368   2.733  11.315   1.212  0.3203  0.1202  0.2642
  344MOL0     C47369   2.638  11.249   1.288  0.8334  0.0451  0.3448
  344MOL0     O47370   2.636  11.248   1.429 -0.0308 -0.2902  0.1997
  344MOL0     C47371   2.762  11.254   1.506 -0.4412 -0.0431  0.1151
  344MOL0     C47372   2.774  11.151   1.611 -0.2171 -0.7397  0.2733
  344MOL0     C47373   2.668  11.154   1.722 -0.3540  0.1728  0.0303
  344MOL0     C47374   2.700  11.052   1.833  0.1680 -0.2322  1.1402
  344MOL0     C47375   2.589  11.029   1.932  0.2648 -0.5020 -0.2850
  344MOL0     C47376   2.605  10.905   2.013 -0.0558  0.1226 -0.6704
  344MOL0     C47377   2.486  10.889   2.103 -0.5543 -0.4912 -0.4920
  344MOL0     C47378   2.495  10.771   2.199 -0.1940 -0.7966  0.2752
  344MOL0    Cl47379   2.528  10.634   2.091  0.3739  0.5510 -0.0122
  344MOL0     C47380   2.524  11.202   1.215 -0.0623 -0.5193 -0.0115
  344MOL0     C47381   2.520  11.198   1.079 -0.4558  0.0203  1.3051
  344MOL0     O47382   2.448  11.371   0.851  0.2599  0.3067  0.9164
  344MOL0     C47383   2.632  11.240   0.584  0.0212 -0.6160  0.4266
  344MOL0     C47384   2.639  11.203   0.450  0.3592  0.2455  0.1647
  344MOL0     N47385   2.664  10.644   0.174  0.1827 -0.3854  0.1381
  344MOL0     N47386   2.763  10.568   0.159  0.1317  0.3348  0.4464
  344MOL0     C47387   3.425  10.107  -0.139  0.3371  0.1284  0.1272
  344MOL0     C47388   3.416   9.971  -0.177  0.3683  0.2947  0.0052
  344MOL0     C47389   3.362   9.526  -0.090 -1.0688  0.1529  0.6184
  344MOL0     C47390   3.493   9.463  -0.120  0.5581  0.2238  0.9202
  344MOL0     C47391   3.500   9.338  -0.179  0.2198 -0.3821  0.0913
  344MOL0     C47392   3.383   9.275  -0.224 -0.3644  0.9067  0.8368
  344MOL0     O47393   3.382   9.155  -0.288  0.8646 -0.0092 -0.0249
  344MOL0     C47394   3.494   9.113  -0.371 -0.1719 -0.5400  0.1206
  344MOL0     C47395   3.623   9.058  -0.310 -0.0615  0.6144  0.0709
  344MOL0     C47396   3.594   8.954  -0.210  0.4203 -0.1872 -0.4018
  344MOL0     C47397   3.597   9.002  -0.067  0.2596  1.4399 -0.2608
  344MOL0     C47398   3.615   8.882   0.025 -0.3633 -0.3198  0.9132
  344MOL0     C47399   3.633   8.780   0.082  0.3444  0.8624  0.5273
  344MOL0     C47400   3.262   9.332  -0.199 -0.7273 -0.0675  0.5728
  344MOL0     C47401   3.246   9.452  -0.127  0.3569  0.0455  0.1291
  344MOL0     C47402   3.109   9.509  -0.104 -0.9525 -0.5695  0.5086
  344MOL0     H47403   3.529   9.826   0.100  0.7274 -3.1948 -3.4986
  344MOL0     H47404   3.559  10.061   0.167 -2.2875 -0.0984  1.4248
  344MOL0     H47405   3.590  10.429   0.113  0.9921 -1.6155  1.9417
  344MOL0     H47406   3.622  10.273   0.179  0.7042  1.6492  4.2411
  344MOL0     H47407   3.388  10.260   0.281  1.0771 -0.8190  1.3479
  344MOL0     H47408   3.485  10.396   0.330  0.1717 -2.6532  1.4618
  344MOL0     H47409   3.369  10.548   0.170 -0.1888  0.7430  1.4398
  344MOL0     H47410   3.269  10.405   0.125  1.5705  1.0781 -1.6337
  344MOL0     H47411   3.208  10.399   0.384 -1.0344 -0.6783 -0.2417
  344MOL0     H47412   3.308  10.548   0.399 -0.5578  0.3597 -0.1252
  344MOL0     H47413   3.090  10.650   0.392 -0.8804  1.9577 -1.2750
  344MOL0     H47414   3.028  10.520   0.290 -2.2418  2.4146  0.8155
  344MOL0     H47415   3.055  10.763   0.194  2.5889  1.9915  0.4127
  344MOL0     H47416   3.222  10.728   0.176 -0.2371  2.9520 -5.0609
  344MOL0     H47417   3.168  10.566   0.001 -0.4569 -0.7198  2.2873
  344MOL0     H47418   3.092  10.712  -0.033  1.8178  1.7445  1.7161
  344MOL0     H47419   2.939  10.545  -0.099  1.6386 -2.0466 -0.2872
  344MOL0     H47420   2.959  10.451   0.054  0.0826 -1.8351 -3.6121
  344MOL0     H47421   2.839  10.809  -0.054  3.9271 -1.4334 -0.9087
  344MOL0     H47422   2.609  10.918   0.205  0.6938 -3.2790  0.8946
  344MOL0     H47423   2.497  10.855   0.085 -0.7187  1.3033  1.7038
  344MOL0     H47424   2.754  11.005   0.017  0.4193 -1.8144  0.0724
  344MOL0     H47425   2.627  10.952  -0.101 -2.2184 -0.6700  0.9827
  344MOL0     H47426   2.619  11.179  -0.060 -1.6804  1.5880  0.5193
  344MOL0     H47427   2.465  11.101  -0.002 -0.5955 -2.1645  0.3247
  344MOL0     H47428   2.693  11.152   0.176  1.5678  1.1180 -1.1723
  344MOL0     H47429   2.601  11.303   0.130  1.2696 -0.9020 -1.3339
  344MOL0     H47430   2.300  11.182   0.400  1.0155 -1.5386 -1.7116
  344MOL0     H47431   2.230  11.339   0.697  1.2776  0.5172 -1.1090
  344MOL0     H47432   2.275  11.176   0.764 -0.1339  0.9956  0.6777
  344MOL0     H47433   2.182  11.191   0.615 -0.7695 -0.0833  1.3899
  344MOL0     H47434   2.806  11.356   1.010  0.3943 -1.8460  0.9911
  344MOL0     H47435   2.824  11.365   1.244  1.7056 -2.2659  0.2706
  344MOL0     H47436   2.842  11.245   1.431 -0.1277  1.3758  0.2458
  344MOL0     H47437   2.772  11.353   1.551  0.5195 -0.6240  1.2103
  344MOL0     H47438   2.756  11.056   1.560 -0.8807  0.0994 -1.1237
  344MOL0     H47439   2.873  11.158   1.658  0.7416 -0.3273 -1.6777
  344MOL0     H47440   2.569  11.130   1.683  0.4704 -2.1694 -0.8065
  344MOL0     H47441   2.667  11.259   1.754  2.3241  1.5778 -3.7335
  344MOL0     H47442   2.792  11.074   1.889  1.5843 -1.3529 -0.6639
  344MOL0     H47443   2.729  10.957   1.787 -1.1505 -0.9679  1.7381
  344MOL0     H47444   2.583  11.112   2.003 -2.2213  1.8192 -2.9518
  344MOL0     H47445   2.489  11.028   1.887 -1.6616  5.6241  2.6390
  344MOL0     H47446   2.697  10.918   2.070  0.1962 -1.3583 -0.7179
  344MOL0     H47447   2.610  10.817   1.948 -3.0883 -2.7275  2.4869
  344MOL0     H47448   2.401  10.869   2.036  0.0939  1.5493 -2.0243
  344MOL0     H47449   2.458  10.981   2.155 -2.1411  0.6625 -3.1741
  344MOL0     H47450   2.402  10.751   2.253  1.3999 -2.1609  2.6995
  344MOL0     H47451   2.572  10.778   2.277 -0.1182 -1.5351  0.2729
  344MOL0     H47452   2.435  11.164   1.262 -0.9156  1.1232 -0.2227
  344MOL0     H47453   2.439  11.160   1.017 -0.3793  2.9216 -0.7877
  344MOL0     H47454   2.730  11.249   0.629  0.1064  1.5878 -0.0495
  344MOL0     H47455   2.736  11.193   0.401  1.0320 -1.6663  1.7057
  344MOL0     H47456   3.406  10.188  -0.208 -1.7426 -0.0666  0.3992
  344MOL0     H47457   3.373   9.962  -0.276  3.1014 -1.4506 -1.1490
  344MOL0     H47458   3.581   9.515  -0.085  0.9818 -1.1760  2.0667
  344MOL0     H47459   3.601   9.300  -0.189  0.9484  1.4838 -0.0197
  344MOL0     H47460   3.451   9.033  -0.432  0.2723 -0.0715 -0.8286
  344MOL0     H47461   3.522   9.191  -0.442 -1.8107 -1.1887 -1.3112
  344MOL0     H47462   3.687   9.138  -0.273 -0.5498  1.5211 -1.0091
  344MOL0     H47463   3.682   9.008  -0.387 -1.2868  1.9005 -1.7835
  344MOL0     H47464   3.502   8.899  -0.231  0.3874  0.6091 -2.6217
  344MOL0     H47465   3.675   8.881  -0.223  1.3275  0.6285  0.4938
  344MOL0     H47466   3.502   9.048  -0.038 -0.6685 -0.3941 -0.2041
  344MOL0     H47467   3.677   9.074  -0.050 -0.3653  2.8117 -2.6140
  344MOL0     H47468   3.670   8.688   0.122 -1.7656  0.2699  1.2311
  344MOL0     H47469   3.171   9.291  -0.242  0.8752 -0.4404 -2.7236
  344MOL0     H47470   3.107   9.612  -0.142  1.3556  0.0184  1.8029
  344MOL0     H47471   3.032   9.455  -0.160 -0.7635  1.0089 -1.3783
  344MOL0     H47472   3.076   9.516   0.000  0.4772 -0.9441  1.0030
  345MOL0     O47473   3.861   7.961   3.512  0.3629 -0.3438 -0.5435
  345MOL0     C47474   3.825   7.878   3.599  0.0214  0.5434  0.4215
  345MOL0     O47475   3.710   7.886   3.676  0.0792 -0.0027 -0.7672
  345MOL0     C47476   3.596   7.948   3.638  0.1397 -0.4791  0.4282
  345MOL0     C47477   3.471   7.884   3.657 -0.4336  0.4155  0.1507
  345MOL0     C47478   3.346   7.933   3.608 -0.6253  0.3043 -0.9323
  345MOL0     C47479   3.341   8.055   3.547  0.0837  0.0415 -0.3931
  345MOL0     O47480   3.219   8.095   3.488  0.4069  0.1399 -0.0379
  345MOL0     C47481   3.239   8.168   3.362 -0.0950  0.5950 -0.4314
  345MOL0     C47482   3.109   8.159   3.281  0.0514 -0.2558 -0.5932
  345MOL0     C47483   3.069   8.020   3.237 -0.0533 -0.2137 -0.0179
  345MOL0     C47484   2.968   8.011   3.114 -0.8849 -0.8880 -0.1343
  345MOL0     C47485   3.012   8.082   2.989 -0.5384  0.5713  0.5259
  345MOL0     C47486   2.908   8.044   2.890 -0.7377 -0.4411  0.1612
  345MOL0     C47487   2.980   8.049   2.751  0.3507 -0.2257 -0.4184
  345MOL0     C47488   2.892   8.026   2.633  0.2417  1.0017 -0.2353
  345MOL0     N47489   2.959   8.050   2.510 -0.1745 -0.1883  0.3755
  345MOL0     C47490   3.092   8.049   2.478 -0.1751 -0.2837 -0.0820
  345MOL0     C47491   3.088   8.096   2.349 -0.1943  0.2193 -0.6226
  345MOL0     C47492   3.212   8.124   2.255  0.4932 -0.0015  0.5296
  345MOL0     C47493   3.342   8.133   2.328 -0.2529 -0.0772 -0.3908
  345MOL0     C47494   3.412   8.007   2.374  0.3088  0.6568 -0.7037
  345MOL0     C47495   3.493   8.018   2.501 -0.4817  0.4289 -0.2318
  345MOL0     O47496   3.402   8.062   2.602 -0.6380  0.1026 -0.1746
  345MOL0     C47497   3.452   8.106   2.724  0.3118  0.2918 -0.4867
  345MOL0     C47498   3.581   8.073   2.773  0.3509  0.3677 -0.0903
  345MOL0     C47499   3.635   8.112   2.894 -0.9911 -0.3386 -0.4707
  345MOL0     C47500   3.775   8.075   2.924 -0.1023 -0.3170  0.0045
  345MOL0     C47501   3.546   8.174   2.990 -0.5542 -0.7181  0.5411
  345MOL0     C47502   3.600   8.232   3.113  0.5175 -0.1859 -0.8190
  345MOL0     O47503   3.703   8.310   3.098 -0.7744  1.2503 -0.5444
  345MOL0     C47504   3.801   8.332   3.190 -0.0083  0.0967  0.2278
  345MOL0     C47505   3.826   8.253   3.303  0.8997 -0.1991 -0.3864
  345MOL0     C47506   3.945   8.284   3.388  0.8100 -0.6051 -0.7277
  345MOL0     C47507   4.017   8.400   3.371  0.3234  0.0744  0.5611
  345MOL0     O47508   4.114   8.430   3.470  0.4736 -0.0687  0.3332
  345MOL0     C47509   4.199   8.543   3.442  0.3675 -0.2396  0.1132
  345MOL0     C47510   4.262   8.601   3.574 -0.6987  0.2835  0.3486
  345MOL0     C47511   4.374   8.706   3.542 -0.0887 -0.5311  0.0724
  345MOL0     C47512   4.326   8.848   3.529  0.7005  0.1080 -0.0349
  345MOL0     C47513   4.449   8.930   3.485 -0.5047 -0.5520 -0.2705
  345MOL0     C47514   4.472   9.064   3.571 -0.1941  0.0225  0.6128
  345MOL0     C47515   4.604   9.146   3.537 -0.1144  0.3005 -0.0529
  345MOL0     C47516   4.615   9.158   3.385 -0.6346  0.6121  0.3292
  345MOL0    Cl47517   4.723   9.284   3.341 -0.0177  0.7958 -0.3749
  345MOL0     C47518   3.987   8.479   3.259  0.3907  0.4580  0.4334
  345MOL0     C47519   3.887   8.440   3.165 -0.2482  0.4595  0.0002
  345MOL0     O47520   3.546   8.192   3.219  0.0228  0.1552 -0.0373
  345MOL0     C47521   3.424   8.217   2.943 -0.3178  0.2928 -0.6910
  345MOL0     C47522   3.382   8.179   2.814 -0.1378  0.8663 -0.2268
  345MOL0     N47523   2.956   8.099   2.307 -0.6590  0.5303 -0.5621
  345MOL0     N47524   2.872   8.079   2.401  0.8295  0.3432 -0.2703
  345MOL0     C47525   3.465   8.124   3.538  0.4547 -0.1400 -0.0047
  345MOL0     C47526   3.584   8.075   3.590  0.5764  0.5911 -0.0346
  345MOL0     C47527   3.914   7.761   3.615  0.4733 -0.6904  0.4985
  345MOL0     C47528   3.972   7.703   3.504 -0.3221  0.3272 -0.5167
  345MOL0     C47529   4.063   7.595   3.509  0.1390 -0.6075  0.0707
  345MOL0     C47530   4.101   7.535   3.628  0.8809 -0.6075 -0.5056
  345MOL0     O47531   4.201   7.449   3.640  0.2088  0.0615  0.3508
  345MOL0     C47532   4.183   7.313   3.600 -0.4591  0.3487  0.0271
  345MOL0     C47533   4.121   7.232   3.711 -0.8733 -0.0747  0.6174
  345MOL0     C47534   4.150   7.084   3.677  0.1678  0.3292  0.2919
  345MOL0     C47535   4.073   6.977   3.764  0.3229  0.7250  0.8424
  345MOL0     C47536   3.935   6.975   3.733  0.2341 -0.3377  1.2891
  345MOL0     C47537   3.818   6.996   3.699  0.3562 -0.2531 -0.3440
  345MOL0     C47538   4.040   7.588   3.750 -0.2915  0.1228  0.3971
  345MOL0     C47539   3.953   7.703   3.744  0.2375  0.1070 -0.1313
  345MOL0     C47540   3.887   7.750   3.868  0.0858 -0.5686 -0.5526
  345MOL0     H47541   3.488   7.790   3.707  1.1572 -0.5769 -2.0700
  345MOL0     H47542   3.256   7.877   3.630 -3.0673  3.1240 -2.9701
  345MOL0     H47543   3.316   8.112   3.309  0.0334 -1.3433  1.6590
  345MOL0     H47544   3.268   8.269   3.393 -2.4052  0.5845  2.1946
  345MOL0     H47545   3.023   8.208   3.328  0.7174  1.2267 -0.8893
  345MOL0     H47546   3.125   8.216   3.190  1.5347 -0.5636 -0.5597
  345MOL0     H47547   3.162   7.967   3.214 -1.0144 -1.2929 -1.6523
  345MOL0     H47548   3.020   7.976   3.324  0.0623  0.8616  0.6061
  345MOL0     H47549   2.965   7.904   3.092  0.7027 -0.9708 -0.0960
  345MOL0     H47550   2.865   8.034   3.140 -0.0266 -1.5144  4.7193
  345MOL0     H47551   3.117   8.060   2.967 -0.4758  1.4577 -0.1153
  345MOL0     H47552   3.022   8.188   3.014  3.3303  0.4415  0.2289
  345MOL0     H47553   2.868   7.944   2.911  0.4361 -1.1315 -0.7556
  345MOL0     H47554   2.829   8.118   2.907 -0.0205  0.2600  0.5042
  345MOL0     H47555   3.058   7.973   2.761  2.4734  1.9815  1.0733
  345MOL0     H47556   3.025   8.148   2.745  1.4173 -0.2190  3.9991
  345MOL0     H47557   2.876   7.918   2.629 -0.5824  1.0609  0.9429
  345MOL0     H47558   2.793   8.072   2.636  0.3508  1.5535 -2.7440
  345MOL0     H47559   3.178   8.034   2.541  0.7728 -0.9179 -1.4708
  345MOL0     H47560   3.218   8.214   2.194 -1.8896 -0.0899  0.0938
  345MOL0     H47561   3.214   8.039   2.186 -2.3696  0.1250  0.1978
  345MOL0     H47562   3.419   8.178   2.264  3.2267 -3.1535  1.2113
  345MOL0     H47563   3.319   8.194   2.416 -0.2835 -0.8941  0.1782
  345MOL0     H47564   3.344   7.923   2.387 -0.0896  0.9674 -0.7668
  345MOL0     H47565   3.485   7.967   2.302 -0.0546 -3.1863  0.8395
  345MOL0     H47566   3.533   7.919   2.525  0.0623  0.4834 -0.9031
  345MOL0     H47567   3.577   8.085   2.480 -0.1836 -0.2690 -1.3253
  345MOL0     H47568   3.644   8.002   2.720  1.3853  2.3373 -1.6221
  345MOL0     H47569   3.841   8.120   2.850  0.2295 -2.1700 -0.8695
  345MOL0     H47570   3.780   7.967   2.938 -0.6632 -0.2978  0.4183
  345MOL0     H47571   3.806   8.105   3.025 -0.1815  0.3836 -0.1698
  345MOL0     H47572   3.766   8.165   3.326  1.2787  0.4726  4.0889
  345MOL0     H47573   3.964   8.226   3.478 -0.8241  1.2557  0.8964
  345MOL0     H47574   4.275   8.512   3.370  0.5990  1.5459 -0.4423
  345MOL0     H47575   4.138   8.619   3.393 -0.7384 -1.7666 -0.9643
  345MOL0     H47576   4.180   8.646   3.631 -1.1675 -0.6974  0.4595
  345MOL0     H47577   4.311   8.520   3.628  2.0019  2.0570  0.7597
  345MOL0     H47578   4.414   8.667   3.449  0.4308  0.8368 -0.2949
  345MOL0     H47579   4.450   8.691   3.619  0.9712 -2.3774 -1.2650
  345MOL0     H47580   4.280   8.888   3.620  2.0829  0.0942  0.7091
  345MOL0     H47581   4.252   8.845   3.449  2.1580  3.9540 -1.7878
  345MOL0     H47582   4.544   8.876   3.486 -0.2844 -0.3834 -3.0232
  345MOL0     H47583   4.450   8.964   3.381  4.2367  1.0669  0.0785
  345MOL0     H47584   4.488   9.034   3.675  1.2283  4.0524  1.7108
  345MOL0     H47585   4.379   9.120   3.556  0.5582  1.5712  1.4702
  345MOL0     H47586   4.690   9.091   3.575 -0.1778  0.1441 -0.1332
  345MOL0     H47587   4.597   9.246   3.580 -1.5161  1.1899 -2.1632
  345MOL0     H47588   4.519   9.198   3.350 -0.9817  0.2739  0.8713
  345MOL0     H47589   4.642   9.067   3.332 -0.1499  0.7622  0.3169
  345MOL0     H47590   4.040   8.570   3.229  1.4189  0.3856  1.9308
  345MOL0     H47591   3.860   8.494   3.074  0.7155  0.8382 -0.0710
  345MOL0     H47592   3.359   8.272   3.011  1.1988 -0.0161  1.0828
  345MOL0     H47593   3.285   8.206   2.773 -0.2752 -1.4089 -1.5891
  345MOL0     H47594   3.471   8.222   3.493  0.3197  1.3698  3.0400
  345MOL0     H47595   3.678   8.129   3.597  0.8025  0.1843  0.0975
  345MOL0     H47596   3.942   7.727   3.403  0.2015 -0.1541 -0.7926
  345MOL0     H47597   4.097   7.558   3.413 -2.1327  2.0248 -1.9197
  345MOL0     H47598   4.122   7.304   3.510 -0.8516  1.4072  0.1682
  345MOL0     H47599   4.280   7.267   3.582 -0.4198  0.7525 -0.8683
  345MOL0     H47600   4.013   7.244   3.715 -0.8764 -0.3299  1.8572
  345MOL0     H47601   4.174   7.253   3.805 -0.1799  1.6485 -0.1062
  345MOL0     H47602   4.116   7.059   3.576 -4.0419 -0.4570  1.6988
  345MOL0     H47603   4.258   7.075   3.690  0.2826  0.8326 -0.2460
  345MOL0     H47604   4.101   6.983   3.870  2.1653 -0.4698  0.4639
  345MOL0     H47605   4.102   6.873   3.744 -0.6266  0.6552 -0.2772
  345MOL0     H47606   3.713   7.013   3.687 -0.1038 -3.3774 -1.8325
  345MOL0     H47607   4.084   7.548   3.841  1.0394 -0.7256 -0.5850
  345MOL0     H47608   3.882   7.859   3.860  0.3381 -0.6810 -3.6149
  345MOL0     H47609   3.788   7.705   3.874 -0.3723  0.0874 -2.2941
  345MOL0     H47610   3.948   7.741   3.958  1.7927  2.1419 -1.2936
  346MOL0     O47611   9.673   7.064  10.317  0.0673 -0.1948  0.0943
  346MOL0     C47612   9.552   7.038  10.330 -0.3329 -0.6344 -0.1398
  346MOL0     O47613   9.452   7.129  10.354 -0.5922  0.4172 -0.2515
  346MOL0     C47614   9.473   7.256  10.318  0.6648  0.3465 -0.0312
  346MOL0     C47615   9.414   7.313  10.201 -0.4744  0.8118 -0.7428
  346MOL0     C47616   9.414   7.453  10.186  0.8682  0.1149 -0.2516
  346MOL0     C47617   9.476   7.531  10.281  0.3941  0.4920  0.2683
  346MOL0     O47618   9.483   7.662  10.243  0.0135  0.6182 -0.0251
  346MOL0     C47619   9.468   7.761  10.346  0.1219  0.1124  0.0468
  346MOL0     C47620   9.463   7.901  10.280 -0.2259  0.0354  0.2572
  346MOL0     C47621   9.454   8.008  10.380  0.4041 -0.0413 -0.6874
  346MOL0     C47622   9.321   8.047  10.435 -0.4828 -0.5188 -0.4062
  346MOL0     C47623   9.332   8.148  10.544 -0.3569 -0.3817 -0.4508
  346MOL0     C47624   9.196   8.191  10.596  0.2574  0.0661  0.1100
  346MOL0     C47625   9.217   8.279  10.713  0.9088 -0.0337  0.7250
  346MOL0     C47626   9.079   8.298  10.764 -0.4165 -0.2243  0.2722
  346MOL0     N47627   9.065   8.407  10.858 -0.1511 -0.5611  1.0364
  346MOL0     C47628   9.162   8.503  10.891  0.4965 -0.5827  0.8365
  346MOL0     C47629   9.097   8.594  10.969  0.3647  0.0409 -0.0753
  346MOL0     C47630   9.152   8.719  11.030 -0.8742 -0.3497 -0.7939
  346MOL0     C47631   9.179   8.709  11.180  0.1806 -0.3645  0.6745
  346MOL0     C47632   9.313   8.637  11.210  0.4145 -0.6576  0.3527
  346MOL0     C47633   9.437   8.708  11.143  1.2309 -0.1102  0.0359
  346MOL0     O47634   9.427   8.849  11.159  0.5820 -0.2107  0.9216
  346MOL0     C47635   9.528   8.926  11.109 -0.0590 -0.8789 -0.5204
  346MOL0     C47636   9.496   9.063  11.081  0.2378  0.4918  0.1246
  346MOL0     C47637   9.590   9.150  11.014  0.2497  0.4227 -0.5704
  346MOL0     C47638   9.530   9.292  10.989 -0.2259  0.2056  0.2399
  346MOL0     C47639   9.714   9.100  10.971 -0.1600  0.0285 -0.0335
  346MOL0     C47640   9.811   9.177  10.898 -0.4756 -0.4137  0.8776
  346MOL0     O47641   9.940   9.122  10.878  0.1820 -0.0939 -0.2818
  346MOL0     C47642  10.038   9.215  10.844  0.3142  0.1825  0.9308
  346MOL0     C47643  10.152   9.172  10.767 -0.0743 -0.6391 -0.6063
  346MOL0     C47644  10.258   9.259  10.728  0.2709  0.3491  0.5669
  346MOL0     C47645  10.255   9.392  10.756  0.6561 -0.3357 -0.5856
  346MOL0     O47646  10.359   9.466  10.711  0.5862  0.4457  0.1213
  346MOL0     C47647  10.362   9.606  10.753 -1.2103  0.0897  0.4482
  346MOL0     C47648  10.459   9.689  10.659 -0.4438  0.0111 -0.8943
  346MOL0     C47649  10.456   9.843  10.701  0.2055  0.3978 -0.1604
  346MOL0     C47650  10.591   9.922  10.657 -0.2621 -0.0346  0.0775
  346MOL0     C47651  10.591  10.070  10.698 -0.4493  0.8595  0.2295
  346MOL0     C47652  10.724  10.133  10.696 -0.9318 -0.7463 -0.8407
  346MOL0     C47653  10.807  10.134  10.569  1.5229  0.2183  1.0327
  346MOL0     C47654  10.929  10.224  10.588  0.8944  0.2096  0.2424
  346MOL0    Cl47655  10.893  10.385  10.652 -0.1565 -0.0027  0.4470
  346MOL0     C47656  10.158   9.431  10.848 -0.5985 -0.1858  0.8047
  346MOL0     C47657  10.060   9.344  10.903 -0.8263  0.3039  1.3103
  346MOL0     O47658   9.776   9.286  10.851  0.5098 -0.1634 -0.3559
  346MOL0     C47659   9.743   8.964  11.006  0.7199 -0.0993 -0.9395
  346MOL0     C47660   9.656   8.882  11.079  0.0904 -0.5510 -0.2081
  346MOL0     N47661   8.962   8.557  10.981 -0.5677  0.0993 -0.0754
  346MOL0     N47662   8.953   8.441  10.924  0.3072 -0.4877  0.6213
  346MOL0     C47663   9.528   7.479  10.399 -0.4451 -0.1423  0.7933
  346MOL0     C47664   9.511   7.344  10.418 -0.1110  0.6632  0.7400
  346MOL0     C47665   9.503   6.909  10.338 -0.5406 -0.9977 -0.4785
  346MOL0     C47666   9.497   6.833  10.225 -0.1530 -0.4940 -0.9436
  346MOL0     C47667   9.459   6.699  10.230 -0.4418 -1.1366  0.7195
  346MOL0     C47668   9.448   6.638  10.354  0.0385  0.2823  0.2137
  346MOL0     O47669   9.447   6.499  10.361  0.2983 -0.9382 -0.2827
  346MOL0     C47670   9.372   6.421  10.267  0.1525 -0.3062  0.1533
  346MOL0     C47671   9.224   6.446  10.255  0.1037  0.0011 -0.0861
  346MOL0     C47672   9.152   6.418  10.382  0.1955 -0.5897  0.0833
  346MOL0     C47673   8.998   6.418  10.360 -0.4184  0.4647 -0.3776
  346MOL0     C47674   8.947   6.550  10.351 -0.0171  0.3245  0.0151
  346MOL0     C47675   8.893   6.651  10.338  1.3906  0.2778 -0.7876
  346MOL0     C47676   9.475   6.707  10.470  0.0363  0.6650 -0.5059
  346MOL0     C47677   9.498   6.844  10.466  0.2829  0.5902 -0.0849
  346MOL0     C47678   9.512   6.929  10.591 -0.0668  0.2553 -0.3563
  346MOL0     H47679   9.404   7.256  10.109  2.0299 -1.7781  0.4298
  346MOL0     H47680   9.395   7.503  10.091  0.1246  1.3162  0.5018
  346MOL0     H47681   9.562   7.763  10.402 -1.4910 -0.3133  2.9599
  346MOL0     H47682   9.391   7.740  10.420 -0.5383 -0.2658 -0.7312
  346MOL0     H47683   9.551   7.919  10.218  0.1957  0.8137  1.0753
  346MOL0     H47684   9.375   7.897  10.214 -0.6092  1.6797  0.6234
  346MOL0     H47685   9.525   7.985  10.460  0.5197 -1.1480 -1.0946
  346MOL0     H47686   9.491   8.100  10.335  0.0464  0.4807  0.0750
  346MOL0     H47687   9.266   8.086  10.350 -1.3955 -1.0494 -0.0712
  346MOL0     H47688   9.266   7.961  10.475 -0.7394  0.6336  1.8793
  346MOL0     H47689   9.393   8.235  10.520 -1.6809  0.3985 -1.1278
  346MOL0     H47690   9.387   8.113  10.632 -2.0238  2.1843  1.7879
  346MOL0     H47691   9.137   8.230  10.513 -2.9615 -0.1722  2.1175
  346MOL0     H47692   9.143   8.103  10.634 -1.9167  0.9118 -0.7785
  346MOL0     H47693   9.282   8.360  10.678  1.9078 -1.3785 -0.7114
  346MOL0     H47694   9.254   8.224  10.799  1.1517  0.3844  0.8903
  346MOL0     H47695   9.006   8.305  10.683  1.0856 -0.2151 -1.1329
  346MOL0     H47696   9.037   8.209  10.810 -0.3916 -0.4744 -0.1842
  346MOL0     H47697   9.265   8.516  10.858  0.6909 -0.6592  1.4137
  346MOL0     H47698   9.078   8.795  11.001  2.8662  3.0287 -2.3765
  346MOL0     H47699   9.240   8.747  10.971 -0.9263  1.5935 -0.0130
  346MOL0     H47700   9.161   8.807  11.225 -1.1185  1.0711 -2.6249
  346MOL0     H47701   9.103   8.641  11.219 -2.1229  1.7666  0.1610
  346MOL0     H47702   9.329   8.658  11.316  2.9920  4.4630 -0.7592
  346MOL0     H47703   9.302   8.529  11.201  1.3060 -0.7350  0.1112
  346MOL0     H47704   9.521   8.676  11.206  0.9165  0.1970  0.6118
  346MOL0     H47705   9.449   8.672  11.040  1.7519  2.0113 -0.6942
  346MOL0     H47706   9.395   9.088  11.113  0.6755  2.7357 -0.0954
  346MOL0     H47707   9.599   9.363  11.035 -0.6960 -0.1918  1.6146
  346MOL0     H47708   9.428   9.305  11.029 -0.3751  2.4474 -0.7312
  346MOL0     H47709   9.527   9.305  10.881 -2.7179 -0.2636  0.1957
  346MOL0     H47710  10.141   9.075  10.719 -0.5530 -2.0288  2.1245
  346MOL0     H47711  10.327   9.221  10.653  0.0312 -0.7240  0.8779
  346MOL0     H47712  10.264   9.655  10.747 -1.7820 -1.1311 -0.8249
  346MOL0     H47713  10.393   9.611  10.858  0.7943 -0.7296 -0.0674
  346MOL0     H47714  10.563   9.661  10.674  0.2118  2.2311 -1.0106
  346MOL0     H47715  10.438   9.673  10.553 -0.0881  3.1052 -1.5255
  346MOL0     H47716  10.455   9.867  10.807 -1.2707  2.7327 -0.6317
  346MOL0     H47717  10.367   9.886  10.654 -0.9089  1.7548  2.9766
  346MOL0     H47718  10.596   9.933  10.548 -2.1681  2.4029  0.1558
  346MOL0     H47719  10.678   9.872  10.701 -1.3730 -0.5390  1.7841
  346MOL0     H47720  10.528  10.120  10.625 -0.6676 -1.6010 -1.3739
  346MOL0     H47721  10.535  10.095  10.789 -1.3068  0.2183 -0.1077
  346MOL0     H47722  10.777  10.100  10.787 -2.2031 -0.7360 -0.0773
  346MOL0     H47723  10.705  10.241  10.705 -0.6919 -0.7258 -0.5354
  346MOL0     H47724  10.735  10.176  10.499 -1.0987 -0.8116  2.9716
  346MOL0     H47725  10.826  10.035  10.525 -1.7347 -1.0075  2.1179
  346MOL0     H47726  10.982  10.218  10.492  0.2488  1.0474 -0.1714
  346MOL0     H47727  10.997  10.181  10.662  0.9690  1.1049  0.7027
  346MOL0     H47728  10.168   9.526  10.900 -1.6001 -0.5313  1.6791
  346MOL0     H47729   9.988   9.388  10.971 -0.6242  2.8594 -0.0187
  346MOL0     H47730   9.838   8.925  10.970  0.2147  0.4805 -3.0268
  346MOL0     H47731   9.695   8.782  11.092  1.1331 -0.4590 -2.2386
  346MOL0     H47732   9.560   7.531  10.488 -0.0919 -0.5393  0.8964
  346MOL0     H47733   9.540   7.300  10.513  0.3929 -1.9219 -0.5179
  346MOL0     H47734   9.523   6.873  10.128  1.3936  2.0951  0.4203
  346MOL0     H47735   9.452   6.649  10.134  0.7051  0.2056 -0.1015
  346MOL0     H47736   9.431   6.433  10.175 -0.0664 -0.4182 -0.0031
  346MOL0     H47737   9.381   6.317  10.299  1.3122 -0.0727  0.6179
  346MOL0     H47738   9.182   6.375  10.183  0.5082 -3.2360  2.5671
  346MOL0     H47739   9.197   6.549  10.229 -1.1809 -0.4307 -0.5443
  346MOL0     H47740   9.183   6.323  10.426 -2.9670 -1.4214  0.8014
  346MOL0     H47741   9.178   6.491  10.459 -2.4738  0.8445 -0.2843
  346MOL0     H47742   8.953   6.364  10.444  1.2504  0.4893  0.5839
  346MOL0     H47743   8.980   6.355  10.273  2.3990 -1.1353  0.0857
  346MOL0     H47744   8.843   6.745  10.331 -1.0500 -1.0495 -4.0787
  346MOL0     H47745   9.471   6.641  10.557 -0.7651 -1.0591 -1.7805
  346MOL0     H47746   9.598   6.997  10.589 -0.4366  0.9157  2.2356
  346MOL0     H47747   9.425   6.993  10.607  0.6038  0.6207  2.4493
  346MOL0     H47748   9.521   6.867  10.681 -0.6886  0.4046 -0.1909
  347MOL0     O47749   7.659   0.099   5.495  0.3164 -0.1329 -0.0570
  347MOL0     C47750   7.656   0.008   5.578 -0.1251 -0.6126  0.1673
  347MOL0     O47751   7.546  -0.037   5.641 -0.1823  0.0606  0.4301
  347MOL0     C47752   7.429   0.035   5.624 -0.4664  0.0676  0.9421
  347MOL0     C47753   7.308  -0.041   5.597  1.3155 -0.0053  0.4806
  347MOL0     C47754   7.189   0.031   5.572 -0.4845 -0.2969  0.0671
  347MOL0     C47755   7.181   0.165   5.574 -0.7225 -0.7305  0.2041
  347MOL0     O47756   7.073   0.253   5.562  0.4458 -0.0172 -0.3817
  347MOL0     C47757   6.997   0.299   5.686 -1.0502  0.6398  0.4806
  347MOL0     C47758   6.855   0.317   5.632 -0.8264 -0.6101  0.1995
  347MOL0     C47759   6.790   0.180   5.587  0.2368 -0.7336  0.6236
  347MOL0     C47760   6.675   0.209   5.499  1.4693 -0.3484 -0.8930
  347MOL0     C47761   6.599   0.070   5.462  0.7315  0.0862 -0.7667
  347MOL0     C47762   6.672  -0.011   5.361  0.5852  0.6669 -0.5232
  347MOL0     C47763   6.698   0.069   5.228  0.2931 -0.1467  0.0507
  347MOL0     C47764   6.765  -0.016   5.128  0.8139 -0.2911 -0.1842
  347MOL0     N47765   6.845   0.065   5.036 -0.6208 -0.3955 -0.3179
  347MOL0     C47766   6.855   0.044   4.907 -0.3221  0.0500  0.4386
  347MOL0     C47767   6.971   0.094   4.865 -0.3775 -0.0712 -0.4094
  347MOL0     C47768   7.036   0.059   4.735  0.1885  0.3619  0.4711
  347MOL0     C47769   7.088   0.180   4.658  0.4876 -0.6252 -0.3589
  347MOL0     C47770   7.225   0.224   4.695 -0.8486 -0.1648 -0.5246
  347MOL0     C47771   7.273   0.335   4.594  0.5046  0.6454 -0.8439
  347MOL0     O47772   7.406   0.360   4.627  0.3732 -0.5015 -0.3324
  347MOL0     C47773   7.435   0.473   4.700 -0.2982 -0.9264 -0.4079
  347MOL0     C47774   7.567   0.474   4.747 -0.6503 -0.0022  0.0821
  347MOL0     C47775   7.623   0.583   4.815  1.4045  0.3613  0.3809
  347MOL0     C47776   7.764   0.576   4.869 -0.6893 -0.5781 -0.4103
  347MOL0     C47777   7.548   0.704   4.832  0.2947  1.1120 -0.1188
  347MOL0     C47778   7.585   0.820   4.901 -0.6677  0.2870 -0.0059
  347MOL0     O47779   7.501   0.932   4.890 -0.5063  0.6739  0.1423
  347MOL0     C47780   7.535   1.058   4.923 -0.5706  0.3295 -0.1661
  347MOL0     C47781   7.540   1.149   4.817  1.0692 -0.5525  0.9588
  347MOL0     C47782   7.584   1.282   4.851  0.0151 -0.4024  0.4402
  347MOL0     C47783   7.607   1.322   4.985 -0.6972 -0.6244  0.5934
  347MOL0     O47784   7.630   1.453   5.012 -0.7378 -0.1868  0.8985
  347MOL0     C47785   7.706   1.486   5.131 -0.3315 -0.3989 -0.1185
  347MOL0     C47786   7.784   1.621   5.110  0.7982  0.7322 -0.5175
  347MOL0     C47787   7.858   1.655   5.239 -0.3140  0.9703  0.5771
  347MOL0     C47788   7.993   1.721   5.221  0.0519 -0.9514  0.1834
  347MOL0     C47789   8.058   1.715   5.368 -0.7517  0.6647 -0.1779
  347MOL0     C47790   7.976   1.783   5.479 -0.7488  0.6709 -0.0514
  347MOL0     C47791   8.062   1.766   5.607  0.4672 -0.0288  0.2428
  347MOL0     C47792   7.988   1.798   5.741  0.0616 -0.8329  0.7439
  347MOL0    Cl47793   7.958   1.988   5.751 -0.0294  0.3647 -0.2999
  347MOL0     C47794   7.604   1.222   5.085 -0.0065  0.2227  0.2537
  347MOL0     C47795   7.570   1.092   5.052 -0.5366 -0.4605  0.6994
  347MOL0     O47796   7.687   0.816   4.977 -0.4620 -0.5938 -0.2759
  347MOL0     C47797   7.420   0.704   4.769  0.1009 -0.9963 -0.4711
  347MOL0     C47798   7.363   0.596   4.704  0.0583  0.0903 -0.3335
  347MOL0     N47799   7.025   0.170   4.975  0.6714 -0.1929  0.7505
  347MOL0     N47800   6.952   0.147   5.077 -0.0520  0.3204  0.2593
  347MOL0     C47801   7.307   0.235   5.600 -0.5247  0.5784 -0.3341
  347MOL0     C47802   7.429   0.173   5.626 -0.2051  0.0746 -0.5687
  347MOL0     C47803   7.785  -0.050   5.614  1.1191 -1.0362 -1.1892
  347MOL0     C47804   7.903   0.009   5.554  0.2700 -0.5768 -0.1273
  347MOL0     C47805   8.031  -0.044   5.587  0.5547  0.3340 -0.8430
  347MOL0     C47806   8.042  -0.149   5.686 -0.0016 -0.8863 -0.3090
  347MOL0     O47807   8.161  -0.210   5.727  0.8257  0.1245 -0.4425
  347MOL0     C47808   8.278  -0.209   5.645 -0.4244 -0.2175  0.5341
  347MOL0     C47809   8.261  -0.323   5.545 -0.4605  1.0819 -0.8689
  347MOL0     C47810   8.367  -0.346   5.444  0.1494  0.1814  0.1672
  347MOL0     C47811   8.353  -0.480   5.363  0.1931  0.1141 -0.4281
  347MOL0     C47812   8.481  -0.511   5.283  0.1462  1.4008  0.3614
  347MOL0     C47813   8.576  -0.549   5.206  0.3137  0.0209 -0.6957
  347MOL0     C47814   7.930  -0.208   5.753  0.2607 -0.1168 -0.0884
  347MOL0     C47815   7.803  -0.146   5.722  0.4695 -0.4272 -0.5680
  347MOL0     C47816   7.683  -0.211   5.807 -0.1446  0.3246 -0.1530
  347MOL0     H47817   7.296  -0.148   5.602 -0.6956  0.1344 -0.3315
  347MOL0     H47818   7.097  -0.022   5.547  0.5979 -0.9089 -2.9603
  347MOL0     H47819   7.040   0.397   5.710  0.8637  0.0552 -0.3644
  347MOL0     H47820   7.019   0.222   5.761  2.2975 -1.7965 -2.6793
  347MOL0     H47821   6.783   0.359   5.703 -0.3003 -2.1213  1.6762
  347MOL0     H47822   6.855   0.380   5.542  0.5002 -0.0001  0.5970
  347MOL0     H47823   6.859   0.121   5.526 -1.2331 -2.4487  0.5383
  347MOL0     H47824   6.770   0.119   5.676  0.0421 -0.4573  0.7738
  347MOL0     H47825   6.599   0.271   5.547  1.4828 -1.5605  0.7515
  347MOL0     H47826   6.701   0.276   5.417  0.5606 -1.7374 -2.3721
  347MOL0     H47827   6.499   0.080   5.418  1.7245  0.4667 -3.0747
  347MOL0     H47828   6.580   0.007   5.549 -0.7371  0.3414 -0.8598
  347MOL0     H47829   6.765  -0.042   5.411 -1.4895 -0.6450  2.8835
  347MOL0     H47830   6.609  -0.100   5.349 -0.0828  1.2660 -1.5425
  347MOL0     H47831   6.760   0.157   5.244  1.5707 -0.9147 -0.5174
  347MOL0     H47832   6.605   0.107   5.186 -0.7850 -0.1361  2.2974
  347MOL0     H47833   6.824  -0.100   5.166  1.2755  0.7076  1.3766
  347MOL0     H47834   6.685  -0.058   5.065 -1.2001  3.1745 -0.1924
  347MOL0     H47835   6.788  -0.016   4.847 -0.3579 -2.1940  2.5525
  347MOL0     H47836   6.972   0.002   4.667 -1.8939  0.2069  2.4368
  347MOL0     H47837   7.112  -0.017   4.751  0.0761  0.4904  1.6956
  347MOL0     H47838   7.074   0.151   4.553 -1.1635  1.8747 -0.9150
  347MOL0     H47839   7.013   0.258   4.666 -0.4264 -1.7079  3.6717
  347MOL0     H47840   7.228   0.272   4.794 -1.9283 -1.7318  0.3082
  347MOL0     H47841   7.293   0.139   4.689  1.6076  1.2008  3.5414
  347MOL0     H47842   7.272   0.294   4.492 -1.0680  0.5410 -0.8125
  347MOL0     H47843   7.198   0.414   4.594  1.2560  1.4371 -2.9534
  347MOL0     H47844   7.627   0.385   4.729  2.3089  2.1038 -1.2219
  347MOL0     H47845   7.822   0.669   4.869  1.8828 -2.0668 -0.9701
  347MOL0     H47846   7.822   0.517   4.797 -2.2987  0.1197 -2.4014
  347MOL0     H47847   7.774   0.531   4.968  2.5949  0.9568  0.1014
  347MOL0     H47848   7.530   1.123   4.712 -0.0679 -0.7693  1.1074
  347MOL0     H47849   7.589   1.362   4.778 -2.7381  0.5376  1.1479
  347MOL0     H47850   7.634   1.483   5.213  2.2880  0.4518  2.3440
  347MOL0     H47851   7.769   1.401   5.158 -1.7882 -2.3391 -2.3480
  347MOL0     H47852   7.840   1.616   5.016 -1.3253  0.9296 -1.8599
  347MOL0     H47853   7.709   1.699   5.093  2.0197  2.6693  2.3556
  347MOL0     H47854   7.885   1.567   5.299 -0.9749  1.0623  1.0254
  347MOL0     H47855   7.795   1.706   5.312  0.7422  0.7242  1.7084
  347MOL0     H47856   7.988   1.826   5.191  1.3044 -1.4044 -1.7450
  347MOL0     H47857   8.048   1.669   5.143 -1.4789 -0.5883 -1.2104
  347MOL0     H47858   8.084   1.615   5.405  2.7074  2.8245  4.2770
  347MOL0     H47859   8.159   1.755   5.356 -0.7225 -0.2515 -4.9999
  347MOL0     H47860   7.878   1.734   5.487 -2.0274  3.1410  0.2940
  347MOL0     H47861   7.955   1.889   5.466  1.2905  1.4617  2.2563
  347MOL0     H47862   8.147   1.835   5.602 -2.1535  3.6467  1.6097
  347MOL0     H47863   8.113   1.669   5.613  0.2573 -0.3600 -2.2198
  347MOL0     H47864   8.041   1.772   5.833  2.4726  4.8978  1.4290
  347MOL0     H47865   7.897   1.738   5.745  1.0736 -2.4101  1.0947
  347MOL0     H47866   7.644   1.243   5.184  0.1205  2.4186 -0.2205
  347MOL0     H47867   7.563   1.019   5.132  0.1437 -0.7893  0.4648
  347MOL0     H47868   7.345   0.782   4.774  0.0478 -0.9329 -1.8770
  347MOL0     H47869   7.265   0.605   4.658 -0.4611 -0.6932  0.5685
  347MOL0     H47870   7.295   0.341   5.618 -4.0246 -0.0553  1.9237
  347MOL0     H47871   7.514   0.239   5.643  0.1903 -1.1202  2.8229
  347MOL0     H47872   7.907   0.087   5.479 -0.5692 -1.6847 -1.3668
  347MOL0     H47873   8.118   0.003   5.543  0.7104  0.3691 -0.5030
  347MOL0     H47874   8.315  -0.114   5.606  1.2039 -1.4696 -1.1482
  347MOL0     H47875   8.363  -0.244   5.704 -1.5959 -0.0838  2.3965
  347MOL0     H47876   8.159  -0.314   5.505 -1.3267 -1.5872  0.4823
  347MOL0     H47877   8.249  -0.414   5.605 -0.7930  3.0592  2.3166
  347MOL0     H47878   8.385  -0.261   5.377 -1.3523  1.0206  0.7864
  347MOL0     H47879   8.457  -0.360   5.505  1.5657 -0.5888 -1.9872
  347MOL0     H47880   8.266  -0.464   5.298 -0.3294  2.3044  0.6997
  347MOL0     H47881   8.330  -0.561   5.432 -1.1188  0.0113 -0.9638
  347MOL0     H47882   8.658  -0.557   5.138 -0.7817 -3.9292 -1.8064
  347MOL0     H47883   7.955  -0.295   5.812 -0.9360 -0.9283 -0.7283
  347MOL0     H47884   7.637  -0.136   5.872 -3.4458 -0.5282 -1.3073
  347MOL0     H47885   7.606  -0.245   5.737  0.2185 -2.3525  0.6539
  347MOL0     H47886   7.716  -0.301   5.859 -0.8087  0.4077  0.4274
  348MOL0     O47887   8.410   9.834   4.063 -0.4993  0.1705 -0.1186
  348MOL0     C47888   8.441   9.916   4.153  0.0538  0.2015  0.3949
  348MOL0     O47889   8.347   9.973   4.241  0.1761  0.0951  0.0991
  348MOL0     C47890   8.228   9.916   4.264  0.1101  0.5527 -0.4813
  348MOL0     C47891   8.127  10.001   4.305  0.4172  0.2933  0.6142
  348MOL0     C47892   7.995   9.955   4.329  1.5308  0.0982 -0.2079
  348MOL0     C47893   7.977   9.820   4.308 -0.4860 -0.9479  0.4269
  348MOL0     O47894   7.859   9.753   4.336  0.0339 -0.4407 -0.1364
  348MOL0     C47895   7.755   9.826   4.403  0.4577 -0.5132  0.4814
  348MOL0     C47896   7.649   9.725   4.452  0.8344  0.1902 -0.6229
  348MOL0     C47897   7.590   9.758   4.585 -0.2892  0.9003 -0.0795
  348MOL0     C47898   7.509   9.643   4.640 -0.3928  0.2871 -0.4253
  348MOL0     C47899   7.367   9.639   4.571 -0.1498  0.8339 -0.2133
  348MOL0     C47900   7.290   9.517   4.625  0.5563 -0.7751  0.1462
  348MOL0     C47901   7.173   9.480   4.532  0.3522  0.4156 -0.1831
  348MOL0     C47902   7.090   9.361   4.585  1.2013  0.4221 -0.5932
  348MOL0     N47903   6.960   9.343   4.529  0.4562  0.3734  0.6023
  348MOL0     C47904   6.947   9.293   4.403  0.2667  0.1937  0.2235
  348MOL0     C47905   6.821   9.234   4.388  0.9519 -0.9541  0.6499
  348MOL0     C47906   6.771   9.164   4.257 -0.9140  0.2621  1.0453
  348MOL0     C47907   6.736   9.248   4.128 -0.0835 -0.4575  0.3463
  348MOL0     C47908   6.636   9.364   4.165 -0.5090  0.6007  0.9006
  348MOL0     C47909   6.506   9.311   4.216 -0.6610 -0.7913  0.7302
  348MOL0     O47910   6.442   9.226   4.114 -0.5365 -0.3950 -0.1498
  348MOL0     C47911   6.319   9.174   4.161  0.7802 -0.1844  0.7490
  348MOL0     C47912   6.310   9.033   4.157  0.0992  0.0776  0.1102
  348MOL0     C47913   6.203   8.948   4.201  0.5488 -0.1631  0.8304
  348MOL0     C47914   6.211   8.794   4.179 -0.2664 -1.8107  0.2459
  348MOL0     C47915   6.087   9.023   4.245 -0.3562  0.1957 -0.5624
  348MOL0     C47916   5.967   8.959   4.299  0.4948  0.2498  0.1420
  348MOL0     O47917   5.844   9.023   4.275  0.1419 -0.3228  0.0539
  348MOL0     C47918   5.735   8.985   4.352  0.6038 -0.1420  0.6915
  348MOL0     C47919   5.635   8.897   4.295 -0.0620 -1.7091 -0.0238
  348MOL0     C47920   5.528   8.855   4.369 -0.1310  0.5654  0.2571
  348MOL0     C47921   5.515   8.872   4.508 -0.0637 -0.0377  0.3800
  348MOL0     O47922   5.416   8.828   4.586  0.0625  0.0575  0.3958
  348MOL0     C47923   5.309   8.748   4.535 -0.7967  0.8311 -0.0284
  348MOL0     C47924   5.206   8.710   4.635  0.0619  0.2955 -0.3917
  348MOL0     C47925   5.269   8.650   4.768  0.8403  0.5147 -0.3390
  348MOL0     C47926   5.161   8.663   4.871 -0.3721 -0.0694 -0.0060
  348MOL0     C47927   5.206   8.623   5.005  0.1416 -0.7468 -0.4206
  348MOL0     C47928   5.125   8.691   5.116 -0.0137  0.5977  0.6433
  348MOL0     C47929   5.159   8.660   5.265  0.2551  0.8344  0.0058
  348MOL0     C47930   5.044   8.714   5.349  0.9221 -0.7424 -0.6122
  348MOL0    Cl47931   4.908   8.596   5.361  0.3510 -0.0409 -0.2269
  348MOL0     C47932   5.603   8.976   4.563 -0.4852  0.6849  0.0640
  348MOL0     C47933   5.718   9.023   4.485 -0.1938  1.3790 -0.4953
  348MOL0     O47934   5.985   8.868   4.379  0.0087  1.0765 -0.2232
  348MOL0     C47935   6.087   9.165   4.231 -1.0783  0.4194 -0.6904
  348MOL0     C47936   6.203   9.238   4.193  0.1657 -0.4747  0.6240
  348MOL0     N47937   6.749   9.271   4.503 -0.8330 -0.1714 -0.9256
  348MOL0     N47938   6.835   9.346   4.578 -0.4852  0.6550 -0.2429
  348MOL0     C47939   8.075   9.733   4.265  1.2923 -0.4378 -0.7940
  348MOL0     C47940   8.201   9.779   4.249  0.0895 -1.0814 -0.3178
  348MOL0     C47941   8.582   9.966   4.176  0.2305 -0.6333  0.1423
  348MOL0     C47942   8.620   9.997   4.305 -0.4260 -0.2069 -0.4786
  348MOL0     C47943   8.742  10.055   4.345  0.6835  0.1445  0.4773
  348MOL0     C47944   8.840  10.081   4.243  1.2223 -0.0882  0.3764
  348MOL0     O47945   8.957  10.133   4.291 -0.5205 -0.5890 -0.8663
  348MOL0     C47946   9.073  10.053   4.264 -0.9333  0.1519 -0.8171
  348MOL0     C47947   9.179  10.140   4.179 -0.5655 -0.0553  0.4067
  348MOL0     C47948   9.123  10.184   4.038 -0.3464  0.6395 -0.9566
  348MOL0     C47949   9.220  10.261   3.949  0.1283  0.4866 -0.7130
  348MOL0     C47950   9.245  10.398   3.987 -0.3918 -0.4104 -0.0450
  348MOL0     C47951   9.267  10.513   4.020  0.4764 -0.7694 -0.5585
  348MOL0     C47952   8.810  10.039   4.108 -0.6235  0.4974 -1.3662
  348MOL0     C47953   8.680   9.983   4.081 -0.2749  0.3250  0.3878
  348MOL0     C47954   8.651   9.953   3.934  0.0461  0.3367  0.4078
  348MOL0     H47955   8.148  10.103   4.335 -0.1845 -0.4313  3.8608
  348MOL0     H47956   7.915  10.020   4.362  0.5535 -1.5300  0.7529
  348MOL0     H47957   7.703   9.902   4.344  1.1843 -0.0064  0.4732
  348MOL0     H47958   7.810   9.874   4.485  0.0266  1.6903 -0.4436
  348MOL0     H47959   7.560   9.718   4.389 -0.2813 -2.2830  1.0468
  348MOL0     H47960   7.694   9.625   4.458 -0.8502 -0.7884 -2.9931
  348MOL0     H47961   7.673   9.778   4.654 -0.4123  1.0373  0.0272
  348MOL0     H47962   7.524   9.845   4.584  2.5147  3.2368  1.8562
  348MOL0     H47963   7.563   9.548   4.631 -2.2354 -1.0661  1.7830
  348MOL0     H47964   7.496   9.662   4.746  0.8090 -0.6682 -0.0763
  348MOL0     H47965   7.375   9.636   4.462  0.7667  0.6214 -0.1496
  348MOL0     H47966   7.311   9.731   4.589  3.2218  3.1558 -0.6352
  348MOL0     H47967   7.363   9.436   4.639  1.5928  0.1420  0.1428
  348MOL0     H47968   7.250   9.547   4.722 -0.2406 -1.9963  0.2256
  348MOL0     H47969   7.210   9.447   4.434  2.4524  1.0349  0.3471
  348MOL0     H47970   7.104   9.563   4.513  1.3444  1.7152  1.5334
  348MOL0     H47971   7.157   9.275   4.578 -0.8309 -1.9076  4.1151
  348MOL0     H47972   7.074   9.369   4.693  1.2278  0.1430 -0.5697
  348MOL0     H47973   7.024   9.274   4.329 -0.2123 -0.5798 -0.0979
  348MOL0     H47974   6.676   9.117   4.283 -1.8972  1.5927  0.0090
  348MOL0     H47975   6.853   9.095   4.237 -0.5132  0.8235  0.7086
  348MOL0     H47976   6.823   9.301   4.088 -0.7085  0.5231  0.2518
  348MOL0     H47977   6.700   9.180   4.051 -1.5860 -2.9982  3.0929
  348MOL0     H47978   6.683   9.427   4.241 -0.9904 -0.0463  1.7500
  348MOL0     H47979   6.624   9.429   4.078 -0.2905 -0.0925  0.3399
  348MOL0     H47980   6.520   9.263   4.313  3.0057  0.4039  0.9183
  348MOL0     H47981   6.449   9.404   4.227  0.1276 -0.1817 -0.1454
  348MOL0     H47982   6.401   8.977   4.138 -0.8174 -1.0920 -1.0559
  348MOL0     H47983   6.294   8.751   4.236 -0.2856 -2.0713  0.0765
  348MOL0     H47984   6.231   8.769   4.074 -2.8414 -0.2174 -0.7116
  348MOL0     H47985   6.122   8.745   4.220 -2.0728  0.6194 -0.5101
  348MOL0     H47986   5.643   8.869   4.191  0.6965  3.9512 -1.8043
  348MOL0     H47987   5.461   8.790   4.314 -0.0817 -0.2663  1.1641
  348MOL0     H47988   5.262   8.794   4.448 -2.2385 -1.6509 -0.6780
  348MOL0     H47989   5.358   8.658   4.497 -0.7424 -0.9182  3.7325
  348MOL0     H47990   5.164   8.807   4.662  0.2432  1.0729 -2.6975
  348MOL0     H47991   5.132   8.640   4.595  0.4416 -0.6026  0.4545
  348MOL0     H47992   5.353   8.714   4.798  0.1095  2.0285 -1.4097
  348MOL0     H47993   5.300   8.546   4.755 -0.7473  0.1285 -1.2420
  348MOL0     H47994   5.067   8.617   4.839 -2.9348  1.5121  4.4508
  348MOL0     H47995   5.134   8.768   4.880  1.7686  0.4652  0.9733
  348MOL0     H47996   5.204   8.515   5.026  2.5119 -0.5793  1.1688
  348MOL0     H47997   5.308   8.657   5.026 -0.4663  0.0762  1.4427
  348MOL0     H47998   5.026   8.651   5.095  0.8242  0.1366 -3.1338
  348MOL0     H47999   5.135   8.796   5.090  3.4885  0.2469  0.0600
  348MOL0     H48000   5.252   8.717   5.278  1.1313 -0.1692 -1.5102
  348MOL0     H48001   5.167   8.553   5.284 -1.6356  0.7676  0.5720
  348MOL0     H48002   5.015   8.809   5.302 -1.6988 -1.3659 -0.4161
  348MOL0     H48003   5.087   8.749   5.443 -1.8098  0.7911  0.1698
  348MOL0     H48004   5.588   9.029   4.656 -3.0470  2.0860 -1.0382
  348MOL0     H48005   5.786   9.096   4.527  1.2237  0.7097 -1.5544
  348MOL0     H48006   6.002   9.215   4.274 -1.7821 -0.5464 -0.9206
  348MOL0     H48007   6.193   9.346   4.186 -0.3539 -0.4329  1.7706
  348MOL0     H48008   8.040   9.632   4.246 -1.4830  0.3962 -0.4651
  348MOL0     H48009   8.282   9.715   4.217  2.7739  2.2716 -0.6673
  348MOL0     H48010   8.553   9.999   4.391  0.4249 -0.8660  0.2180
  348MOL0     H48011   8.766  10.076   4.448 -0.6472  0.3775  0.7589
  348MOL0     H48012   9.109  10.032   4.365 -1.4124 -1.5375 -0.9664
  348MOL0     H48013   9.076   9.957   4.211 -0.3988  0.4389 -1.3191
  348MOL0     H48014   9.271  10.081   4.179  0.3240  1.0142  4.4640
  348MOL0     H48015   9.207  10.226   4.241  1.2672 -0.8567  0.7484
  348MOL0     H48016   9.107  10.093   3.979  1.4345 -1.8463  2.0737
  348MOL0     H48017   9.032  10.243   4.052  0.1439  1.0814  0.5889
  348MOL0     H48018   9.187  10.260   3.844 -0.3874  1.7942 -0.5841
  348MOL0     H48019   9.320  10.216   3.956  1.3091  3.1200  0.7035
  348MOL0     H48020   9.274  10.617   4.042  1.9862 -0.7043 -1.2075
  348MOL0     H48021   8.880  10.054   4.026  0.5924  0.4144 -0.3757
  348MOL0     H48022   8.725   9.993   3.864 -1.8513  2.1892 -0.6490
  348MOL0     H48023   8.642   9.848   3.906 -4.5686  0.5214  0.3761
  348MOL0     H48024   8.553   9.990   3.904 -0.8928  0.1131  2.9532
  349MOL0     O48025   8.043   6.302  10.413  0.3329  0.0110 -0.5007
  349MOL0     C48026   8.122   6.259  10.489 -0.1822  0.9816 -0.1309
  349MOL0     O48027   8.250   6.315  10.500  0.3908  0.3827  0.1851
  349MOL0     C48028   8.328   6.354  10.393  1.2933  0.7104  0.3545
  349MOL0     C48029   8.276   6.402  10.267 -0.5292  0.0700  1.2062
  349MOL0     C48030   8.361   6.433  10.161 -0.2209  0.7325 -0.2870
  349MOL0     C48031   8.498   6.428  10.177  0.2373  0.8911 -0.3881
  349MOL0     O48032   8.584   6.474  10.082  0.0187  0.2864  0.1611
  349MOL0     C48033   8.535   6.554   9.969  0.3771  0.6370  0.1097
  349MOL0     C48034   8.485   6.694  10.004  0.4516  0.6552 -0.2645
  349MOL0     C48035   8.561   6.775  10.107  0.0645 -0.2758 -0.1453
  349MOL0     C48036   8.480   6.907  10.130  0.2932  0.1656 -0.8243
  349MOL0     C48037   8.566   6.992  10.213 -0.1161 -0.4444 -0.1267
  349MOL0     C48038   8.502   7.130  10.260  0.4359  0.8922 -0.4218
  349MOL0     C48039   8.485   7.223  10.146 -0.0825  0.3941 -0.2118
  349MOL0     C48040   8.613   7.289  10.109  0.0525  0.2741 -0.4916
  349MOL0     N48041   8.583   7.386  10.003  0.0358 -0.0536 -0.6284
  349MOL0     C48042   8.554   7.348   9.872 -0.3883 -0.8012  0.0511
  349MOL0     C48043   8.574   7.464   9.806  0.1704  1.0327 -0.0386
  349MOL0     C48044   8.546   7.506   9.668  0.4960 -0.0642  0.2059
  349MOL0     C48045   8.655   7.591   9.605 -0.3266  0.0104 -0.3504
  349MOL0     C48046   8.794   7.538   9.590  0.3428 -0.0265 -0.3924
  349MOL0     C48047   8.810   7.421   9.504  0.1726 -0.0994 -0.0454
  349MOL0     O48048   8.811   7.296   9.570 -0.2336  0.2189 -1.2240
  349MOL0     C48049   8.712   7.197   9.554  0.5145  0.2305  0.1881
  349MOL0     C48050   8.724   7.090   9.637 -0.4117 -0.4440 -0.5948
  349MOL0     C48051   8.657   6.973   9.645  0.4489 -0.4129 -1.0586
  349MOL0     C48052   8.693   6.871   9.754 -0.7950 -0.0896 -1.1813
  349MOL0     C48053   8.544   6.978   9.570  0.3447  1.2327  0.8672
  349MOL0     C48054   8.455   6.867   9.553 -0.8827 -0.2004 -1.0782
  349MOL0     O48055   8.413   6.837   9.431  0.0389 -0.0239 -0.6483
  349MOL0     C48056   8.340   6.723   9.417  0.2931 -0.0162  0.7233
  349MOL0     C48057   8.200   6.736   9.412 -0.3967  0.0838 -0.0781
  349MOL0     C48058   8.134   6.620   9.413  0.0594 -0.4087 -0.0574
  349MOL0     C48059   8.194   6.494   9.416  0.0758  0.1194  0.5048
  349MOL0     O48060   8.120   6.378   9.412 -0.0911 -0.4803  0.6403
  349MOL0     C48061   7.987   6.387   9.460  1.4413 -0.5932  0.5634
  349MOL0     C48062   7.944   6.256   9.510 -0.4783  0.7272 -0.0911
  349MOL0     C48063   7.827   6.271   9.610  0.8352 -0.3863  0.2645
  349MOL0     C48064   7.762   6.134   9.628 -0.1611 -0.3866 -0.2467
  349MOL0     C48065   7.650   6.128   9.735 -0.3815 -0.1414  0.7203
  349MOL0     C48066   7.574   5.996   9.743  0.1122  0.5769 -1.0400
  349MOL0     C48067   7.494   5.970   9.873  0.3069 -0.2054 -0.7264
  349MOL0     C48068   7.474   5.820   9.908  0.4303  0.2652  1.0989
  349MOL0    Cl48069   7.382   5.723   9.786 -0.8435  0.0090  0.2738
  349MOL0     C48070   8.332   6.482   9.406 -0.0547 -1.0497 -0.3790
  349MOL0     C48071   8.400   6.598   9.416  0.3549 -0.5634 -1.1214
  349MOL0     O48072   8.417   6.810   9.660 -0.1325 -0.1239 -0.4957
  349MOL0     C48073   8.523   7.080   9.479 -0.1571 -0.0434  1.1050
  349MOL0     C48074   8.605   7.193   9.469 -0.5064 -0.3069  0.4774
  349MOL0     N48075   8.604   7.560   9.896 -0.0034 -0.2787 -1.0437
  349MOL0     N48076   8.613   7.519  10.014 -0.5461  1.3322  0.1365
  349MOL0     C48077   8.545   6.376  10.294  0.5618  0.2132 -0.3324
  349MOL0     C48078   8.465   6.325  10.398  0.5512 -0.1998 -0.1429
  349MOL0     C48079   8.081   6.147  10.583  0.3122  0.1656  0.1358
  349MOL0     C48080   7.964   6.068  10.560 -0.0275  0.2107 -0.4357
  349MOL0     C48081   7.931   5.959  10.641 -0.5155 -0.0431  0.0756
  349MOL0     C48082   8.005   5.932  10.758 -0.6895 -0.7597 -0.3234
  349MOL0     O48083   7.989   5.833  10.851  0.1744  0.5038  0.0437
  349MOL0     C48084   7.895   5.721  10.825 -0.0232  0.2335 -0.6206
  349MOL0     C48085   7.913   5.612  10.928 -0.0129 -0.0352 -0.2939
  349MOL0     C48086   7.808   5.512  10.904  1.5292  0.2869 -0.5291
  349MOL0     C48087   7.797   5.428  11.028 -0.4038 -0.1261 -0.5496
  349MOL0     C48088   7.724   5.487  11.140  0.4331  0.4731 -0.0955
  349MOL0     C48089   7.677   5.544  11.243 -0.0468 -0.7667  0.9950
  349MOL0     C48090   8.112   6.013  10.789 -0.0663 -0.1925  0.6945
  349MOL0     C48091   8.150   6.118  10.707  0.2423  0.7863 -0.5282
  349MOL0     C48092   8.262   6.201  10.757  0.1240 -0.4811 -0.2382
  349MOL0     H48093   8.170   6.404  10.244 -0.3059  2.3283  0.0349
  349MOL0     H48094   8.325   6.453  10.061 -0.0684  0.2448 -0.4423
  349MOL0     H48095   8.466   6.504   9.901 -0.5382  0.5446  1.0838
  349MOL0     H48096   8.617   6.572   9.898 -0.2306  0.4149 -0.6648
  349MOL0     H48097   8.470   6.752   9.913  2.9414 -1.4537 -2.1959
  349MOL0     H48098   8.385   6.684  10.046  1.3125  0.7733  1.9298
  349MOL0     H48099   8.572   6.745  10.211 -1.2272 -1.7073 -0.3831
  349MOL0     H48100   8.660   6.805  10.071 -0.3125  3.0540  1.2208
  349MOL0     H48101   8.452   6.951  10.034  2.1711  0.9570 -1.0594
  349MOL0     H48102   8.394   6.889  10.195  1.6206  1.9920  1.6518
  349MOL0     H48103   8.662   6.998  10.161  0.5247 -1.9583  0.8106
  349MOL0     H48104   8.596   6.938  10.303 -1.4634  0.5947  0.9916
  349MOL0     H48105   8.402   7.112  10.301 -0.1238  3.7466 -0.3495
  349MOL0     H48106   8.558   7.176  10.342 -3.4750  1.4443  2.2471
  349MOL0     H48107   8.418   7.305  10.174 -0.3797 -0.3846  1.5089
  349MOL0     H48108   8.439   7.173  10.061 -1.9688 -1.0547  1.5366
  349MOL0     H48109   8.655   7.338  10.197 -2.8932  1.5274  0.3323
  349MOL0     H48110   8.684   7.217  10.067 -1.9396 -2.3786  0.4219
  349MOL0     H48111   8.523   7.261   9.815 -1.3253 -0.4821  0.0534
  349MOL0     H48112   8.453   7.563   9.664  1.3949  1.3726 -1.4559
  349MOL0     H48113   8.532   7.411   9.615 -3.5847 -0.5273  1.7626
  349MOL0     H48114   8.626   7.627   9.505 -3.2158  1.1297  0.7763
  349MOL0     H48115   8.668   7.681   9.665  1.4979 -0.8418  0.5889
  349MOL0     H48116   8.848   7.622   9.546 -1.0822 -0.1296 -2.4975
  349MOL0     H48117   8.829   7.524   9.693  0.0455  0.0717 -0.2764
  349MOL0     H48118   8.745   7.437   9.418  2.6256  0.2075 -1.9354
  349MOL0     H48119   8.907   7.430   9.456 -0.3875  4.9857 -0.7293
  349MOL0     H48120   8.812   7.086   9.700  0.7301 -1.5801 -2.1890
  349MOL0     H48121   8.792   6.902   9.790 -1.3677  1.0906 -0.5537
  349MOL0     H48122   8.702   6.771   9.712  3.1900 -0.4838  0.1684
  349MOL0     H48123   8.623   6.881   9.837 -1.6665 -2.2571 -1.5843
  349MOL0     H48124   8.151   6.832   9.402 -0.9713 -0.1873  0.0638
  349MOL0     H48125   8.027   6.630   9.398  0.2141 -0.8458 -1.7546
  349MOL0     H48126   7.973   6.463   9.538 -2.1832  2.1553 -2.3470
  349MOL0     H48127   7.930   6.419   9.372  1.8400 -2.1143 -0.2809
  349MOL0     H48128   7.922   6.192   9.424 -1.7250 -0.1257  0.8243
  349MOL0     H48129   8.029   6.211   9.563 -0.4466 -1.1193 -1.6113
  349MOL0     H48130   7.750   6.339   9.573 -0.9447 -1.1343  2.3539
  349MOL0     H48131   7.860   6.319   9.703 -2.1403  0.3593  1.0611
  349MOL0     H48132   7.849   6.071   9.651 -1.2573 -2.3853 -1.2758
  349MOL0     H48133   7.724   6.092   9.534  1.5330 -2.1831 -0.2070
  349MOL0     H48134   7.699   6.150   9.830  1.3168 -0.8027  0.0234
  349MOL0     H48135   7.586   6.214   9.718  0.4376 -0.2197 -4.0283
  349MOL0     H48136   7.643   5.911   9.737 -0.3164  0.0984  0.4370
  349MOL0     H48137   7.510   5.968   9.659  0.3488 -1.6466 -0.5371
  349MOL0     H48138   7.396   6.017   9.881 -0.2536 -0.7300 -3.5486
  349MOL0     H48139   7.551   6.012   9.957  0.1517 -0.6559 -0.3893
  349MOL0     H48140   7.426   5.814  10.006 -2.1867  0.1497 -0.1064
  349MOL0     H48141   7.574   5.777   9.920  0.6077  0.3464  0.0141
  349MOL0     H48142   8.393   6.393   9.395  3.9610  1.1062  2.0542
  349MOL0     H48143   8.505   6.583   9.440  0.5628  0.6209 -1.1894
  349MOL0     H48144   8.433   7.076   9.419 -0.5964 -1.0914  1.7974
  349MOL0     H48145   8.598   7.273   9.396  1.4499 -2.4089 -2.2086
  349MOL0     H48146   8.652   6.360  10.294  0.3592 -1.3860 -1.1960
  349MOL0     H48147   8.517   6.287  10.486  0.4299  0.5113  0.2462
  349MOL0     H48148   7.899   6.089  10.475 -0.7485 -1.4985 -0.3536
  349MOL0     H48149   7.845   5.898  10.614 -0.6395  0.4752 -0.7477
  349MOL0     H48150   7.794   5.761  10.831  0.2038  0.6658  0.6734
  349MOL0     H48151   7.919   5.686  10.724 -2.0025  1.2598 -1.5040
  349MOL0     H48152   7.897   5.659  11.026 -1.7734 -2.3360  0.6393
  349MOL0     H48153   8.010   5.565  10.911 -0.9233 -0.7399 -4.6957
  349MOL0     H48154   7.712   5.550  10.869  1.6667  0.8878 -0.2566
  349MOL0     H48155   7.834   5.439  10.826  0.7225 -1.7966  1.0505
  349MOL0     H48156   7.901   5.400  11.045 -0.0249  0.7771 -1.3267
  349MOL0     H48157   7.736   5.340  11.004 -0.5564  0.1104 -1.0230
  349MOL0     H48158   7.636   5.602  11.323  0.9351 -0.0505  1.0058
  349MOL0     H48159   8.172   5.989  10.876  2.7912  0.1723 -1.0573
  349MOL0     H48160   8.284   6.188  10.863  1.0993 -1.2429 -0.5219
  349MOL0     H48161   8.351   6.174  10.699  1.4739  4.7504 -1.1864
  349MOL0     H48162   8.235   6.305  10.734  1.0842  0.0557  0.9727
  350MOL0     O48163   1.229   9.212   6.778  0.0129  0.1114 -0.0799
  350MOL0     C48164   1.182   9.226   6.891 -0.1207  0.6575 -0.0850
  350MOL0     O48165   1.059   9.275   6.913 -0.4702  0.0766  0.2890
  350MOL0     C48166   1.005   9.359   6.819  0.0104  0.2896 -0.8673
  350MOL0     C48167   1.050   9.495   6.797  0.1693  0.8051  0.1786
  350MOL0     C48168   0.988   9.578   6.700  0.4584 -0.2132 -0.6019
  350MOL0     C48169   0.885   9.521   6.619 -0.4571  0.5124  0.0090
  350MOL0     O48170   0.829   9.593   6.525  0.0909  0.0966 -0.1933
  350MOL0     C48171   0.746   9.701   6.565  0.1549 -0.3142  0.7989
  350MOL0     C48172   0.737   9.801   6.445  0.4050 -0.0150 -0.4362
  350MOL0     C48173   0.658   9.928   6.477  0.2464  0.2119  0.8904
  350MOL0     C48174   0.652  10.020   6.352  0.7613  0.1668 -0.3198
  350MOL0     C48175   0.565   9.967   6.234  0.2923  0.2732  0.6088
  350MOL0     C48176   0.432   9.889   6.266 -0.6234 -0.4754  0.2645
  350MOL0     C48177   0.318   9.977   6.341  0.6744 -0.0128 -0.5932
  350MOL0     C48178   0.278  10.103   6.273 -0.0327  0.4756 -0.3646
  350MOL0     N48179   0.184  10.087   6.153 -0.5857 -1.2344  0.2255
  350MOL0     C48180   0.217  10.072   6.017 -1.0509 -1.4244 -0.5316
  350MOL0     C48181   0.096  10.070   5.960  0.9487 -0.6197 -0.7407
  350MOL0     C48182   0.073  10.078   5.812 -0.3374 -0.4473 -0.1421
  350MOL0     C48183  -0.078  10.083   5.793  1.0320 -0.2139 -0.5685
  350MOL0     C48184  -0.127  10.233   5.829  0.2673 -0.6498 -0.5840
  350MOL0     C48185  -0.279  10.252   5.823  0.9954 -0.0626 -0.4097
  350MOL0     O48186  -0.324  10.152   5.910 -0.1256 -0.4542  0.3497
  350MOL0     C48187  -0.459  10.123   5.901 -0.0227 -0.6315  0.1128
  350MOL0     C48188  -0.553  10.206   5.839  0.2998  0.2796 -0.3423
  350MOL0     C48189  -0.688  10.174   5.831 -0.7202  0.7893  1.0661
  350MOL0     C48190  -0.779  10.264   5.752  0.2451 -0.6679 -0.1502
  350MOL0     C48191  -0.730  10.055   5.890 -0.2983  0.0064  0.4903
  350MOL0     C48192  -0.866  10.003   5.884 -0.1755 -0.4859 -0.3669
  350MOL0     O48193  -0.877   9.861   5.875  0.8446 -0.0238  0.0372
  350MOL0     C48194  -1.002   9.804   5.876 -0.4221  0.6675 -0.1672
  350MOL0     C48195  -1.080   9.787   5.990  0.1395  0.2645  0.3436
  350MOL0     C48196  -1.212   9.721   5.977 -0.3356 -0.1590  0.1318
  350MOL0     C48197  -1.249   9.650   5.861  0.3521  0.7248 -0.3519
  350MOL0     O48198  -1.372   9.578   5.866  0.0624  0.6840  0.6012
  350MOL0     C48199  -1.443   9.551   5.745 -0.0451  0.2384 -0.5253
  350MOL0     C48200  -1.577   9.493   5.773  1.0187  0.1497  0.4225
  350MOL0     C48201  -1.569   9.358   5.837  0.4185  0.0415  0.5323
  350MOL0     C48202  -1.601   9.382   5.991 -0.0989  0.4576  0.3806
  350MOL0     C48203  -1.605   9.248   6.078  0.9691 -0.2949  0.0656
  350MOL0     C48204  -1.672   9.274   6.216  0.4268  0.5720  0.1195
  350MOL0     C48205  -1.826   9.267   6.219 -0.0331  0.2818  0.0880
  350MOL0     C48206  -1.871   9.229   6.366 -0.0755 -0.3511 -0.2946
  350MOL0    Cl48207  -2.038   9.264   6.395 -0.3476 -0.1668 -0.0143
  350MOL0     C48208  -1.151   9.651   5.758  0.1872  0.9876  0.5460
  350MOL0     C48209  -1.027   9.734   5.764 -0.0212 -0.0486 -0.2229
  350MOL0     O48210  -0.963  10.078   5.888  0.7595  0.0044 -0.2090
  350MOL0     C48211  -0.639   9.984   5.968  0.6563 -0.1485  0.3466
  350MOL0     C48212  -0.508  10.019   5.975 -0.2084 -0.0649 -0.2501
  350MOL0     N48213  -0.007  10.079   6.064  0.1044  0.7082  0.2726
  350MOL0     N48214   0.051  10.074   6.174 -0.3251 -0.5556 -0.2335
  350MOL0     C48215   0.847   9.396   6.641 -1.0759 -0.0191  0.6556
  350MOL0     C48216   0.901   9.313   6.734 -0.9846 -0.4786  0.2034
  350MOL0     C48217   1.252   9.163   7.012 -0.3715 -0.2328  0.8549
  350MOL0     C48218   1.178   9.139   7.131  0.1222 -0.1343  0.0462
  350MOL0     C48219   1.231   9.074   7.235  1.1526 -0.2987 -0.1881
  350MOL0     C48220   1.363   9.026   7.232 -0.7643 -0.5122  0.3276
  350MOL0     O48221   1.422   8.964   7.337  0.0311 -0.6186  0.3361
  350MOL0     C48222   1.353   8.879   7.430 -0.3388 -0.6259 -0.5353
  350MOL0     C48223   1.441   8.796   7.528  0.4877 -0.5522  0.7835
  350MOL0     C48224   1.531   8.703   7.445  0.2539 -0.4854 -0.1808
  350MOL0     C48225   1.566   8.591   7.531 -0.6619  0.4154 -0.3199
  350MOL0     C48226   1.661   8.515   7.453  1.1192  0.6288  0.3086
  350MOL0     C48227   1.742   8.443   7.397 -0.2731 -1.6315 -0.6897
  350MOL0     C48228   1.441   9.055   7.126 -1.1195 -0.4566 -0.5640
  350MOL0     C48229   1.385   9.124   7.020  0.0933 -0.2901  0.5136
  350MOL0     C48230   1.479   9.147   6.899  0.1605 -0.8037  0.1367
  350MOL0     H48231   1.133   9.519   6.864  1.2734  2.4901 -1.6724
  350MOL0     H48232   1.036   9.673   6.678  2.7780  0.2531  4.9478
  350MOL0     H48233   0.780   9.758   6.652 -0.3111 -0.0350  0.7986
  350MOL0     H48234   0.645   9.666   6.588  0.3406 -1.4254  0.0365
  350MOL0     H48235   0.839   9.836   6.422  0.1889  1.5473  0.8381
  350MOL0     H48236   0.702   9.747   6.357  1.2861 -0.4711 -0.5254
  350MOL0     H48237   0.555   9.910   6.510  0.1166 -0.2435  0.2476
  350MOL0     H48238   0.705   9.986   6.557 -1.1972  3.9467 -0.7329
  350MOL0     H48239   0.606  10.112   6.389  0.5689 -1.3164  3.7105
  350MOL0     H48240   0.754  10.033   6.314  0.1351  0.5391 -1.9154
  350MOL0     H48241   0.634   9.899   6.184  0.6405  1.6498 -0.8428
  350MOL0     H48242   0.547  10.048   6.163  3.7272  0.2112 -0.5057
  350MOL0     H48243   0.393   9.858   6.169 -0.6103  0.9027 -0.2016
  350MOL0     H48244   0.441   9.797   6.325 -3.1079 -1.9756 -1.5170
  350MOL0     H48245   0.353  10.001   6.442  2.8625  0.8252 -1.4724
  350MOL0     H48246   0.226   9.918   6.337 -0.8962  2.3807 -1.5016
  350MOL0     H48247   0.236  10.162   6.355 -0.2333 -1.1742  0.7612
  350MOL0     H48248   0.373  10.152   6.253  1.3405 -0.8086  2.4397
  350MOL0     H48249   0.310  10.068   5.960 -1.7545  0.5556 -1.8925
  350MOL0     H48250   0.112   9.996   5.750 -1.0507  0.6630 -2.1562
  350MOL0     H48251   0.120  10.168   5.773  0.8980 -0.9306  0.1905
  350MOL0     H48252  -0.106  10.061   5.690  0.9101 -0.7861 -0.4145
  350MOL0     H48253  -0.118  10.011   5.865  0.7435  0.1589 -0.3514
  350MOL0     H48254  -0.082  10.255   5.926 -1.9360 -2.5851  1.0031
  350MOL0     H48255  -0.084  10.306   5.760  3.5119 -0.5927  1.2827
  350MOL0     H48256  -0.300  10.353   5.861  0.5420 -0.6656  1.0118
  350MOL0     H48257  -0.308  10.234   5.719  2.2798 -5.3174 -0.1111
  350MOL0     H48258  -0.530  10.307   5.807 -0.3184  0.9104  1.0794
  350MOL0     H48259  -0.827  10.327   5.827  0.5241  0.2023 -0.6937
  350MOL0     H48260  -0.853  10.211   5.691 -3.3781 -0.2846  3.4626
  350MOL0     H48261  -0.734  10.338   5.685 -1.6495 -0.9138 -1.7595
  350MOL0     H48262  -1.056   9.841   6.081 -3.7810  1.5417  0.8270
  350MOL0     H48263  -1.275   9.702   6.064 -0.3721 -4.7241 -0.6671
  350MOL0     H48264  -1.459   9.647   5.696 -2.4611  0.3670  0.3560
  350MOL0     H48265  -1.391   9.478   5.683  0.0093 -0.5350  0.4107
  350MOL0     H48266  -1.643   9.562   5.826 -1.6813 -3.7654  2.6762
  350MOL0     H48267  -1.611   9.479   5.669  1.1027 -0.2045  0.4402
  350MOL0     H48268  -1.478   9.297   5.831 -0.3405 -1.0942  0.1637
  350MOL0     H48269  -1.653   9.308   5.788 -2.1011  3.7317  0.7230
  350MOL0     H48270  -1.700   9.429   5.995 -0.9879 -1.0844 -1.9043
  350MOL0     H48271  -1.533   9.453   6.040 -0.0141 -0.2125  1.2607
  350MOL0     H48272  -1.672   9.174   6.032  1.1553  1.6451 -3.7510
  350MOL0     H48273  -1.510   9.197   6.095  2.5559  2.7999  1.0431
  350MOL0     H48274  -1.652   9.378   6.245  1.1051 -0.0459  2.0371
  350MOL0     H48275  -1.622   9.201   6.280 -1.4335 -0.8813 -0.0051
  350MOL0     H48276  -1.848   9.193   6.141  5.2810 -3.0617  1.2597
  350MOL0     H48277  -1.856   9.368   6.187  1.5834  1.7268  2.8173
  350MOL0     H48278  -1.806   9.272   6.443 -0.3098  0.1970 -0.3939
  350MOL0     H48279  -1.856   9.121   6.372  1.8946 -0.3835 -3.5539
  350MOL0     H48280  -1.163   9.593   5.666  3.6726  3.0615 -1.4305
  350MOL0     H48281  -0.959   9.750   5.681  1.6163 -0.2407  1.0391
  350MOL0     H48282  -0.678   9.897   6.020 -0.9429 -0.1996 -0.8715
  350MOL0     H48283  -0.440   9.963   6.039 -0.7616 -0.5669 -0.0967
  350MOL0     H48284   0.776   9.356   6.570  3.0398  1.0725 -4.7437
  350MOL0     H48285   0.866   9.210   6.740  0.2285 -1.0988 -2.1647
  350MOL0     H48286   1.073   9.161   7.140 -0.6517 -2.9895 -0.8520
  350MOL0     H48287   1.160   9.054   7.314  0.0447  2.7232 -0.2820
  350MOL0     H48288   1.288   8.944   7.489  0.0795  1.1484 -1.9270
  350MOL0     H48289   1.297   8.803   7.375 -2.7189  1.1543 -0.7669
  350MOL0     H48290   1.379   8.742   7.600  1.2318 -2.4873  0.0401
  350MOL0     H48291   1.505   8.861   7.587 -1.1606 -1.7513  4.1479
  350MOL0     H48292   1.477   8.672   7.355  0.3607  2.7533 -1.5142
  350MOL0     H48293   1.615   8.762   7.407  0.7192 -1.9895 -1.5798
  350MOL0     H48294   1.480   8.528   7.558 -0.7595 -0.8950 -3.3313
  350MOL0     H48295   1.624   8.628   7.617  1.9859  0.2251 -1.9187
  350MOL0     H48296   1.817   8.374   7.363  1.1783 -0.4353 -0.0665
  350MOL0     H48297   1.542   9.017   7.113 -0.4799  0.8210  0.4268
  350MOL0     H48298   1.583   9.120   6.918 -0.1071 -1.9055  0.1239
  350MOL0     H48299   1.441   9.079   6.822 -1.1120  0.3464 -0.2816
  350MOL0     H48300   1.476   9.248   6.858  3.5070 -0.8508 -0.5254
  351MOL0     O48301   8.759  10.280   5.799 -0.5432  0.2437 -0.0319
  351MOL0     C48302   8.708  10.345   5.708 -0.2296 -1.1712 -0.3675
  351MOL0     O48303   8.616  10.450   5.726  0.4030  0.1368 -0.4379
  351MOL0     C48304   8.580  10.491   5.854 -1.0034 -0.3919  0.3533
  351MOL0     C48305   8.672  10.535   5.952 -0.1540  0.3382 -0.4014
  351MOL0     C48306   8.635  10.575   6.086  0.1578 -0.6933 -0.2995
  351MOL0     C48307   8.504  10.570   6.120  1.5063  0.0174  0.4146
  351MOL0     O48308   8.470  10.596   6.254 -0.5948  0.0233 -0.2592
  351MOL0     C48309   8.385  10.708   6.267 -0.1567  0.1405  0.3017
  351MOL0     C48310   8.339  10.710   6.405  0.2559 -0.1963  0.5948
  351MOL0     C48311   8.248  10.595   6.444 -0.5968 -1.2531  0.6564
  351MOL0     C48312   8.099  10.633   6.411  0.4006  0.6582 -0.4723
  351MOL0     C48313   8.002  10.516   6.410 -0.3850 -0.1128 -0.1692
  351MOL0     C48314   8.032  10.399   6.309  0.3150 -0.8449  0.0876
  351MOL0     C48315   8.034  10.438   6.161 -0.0693 -0.2950 -0.3673
  351MOL0     C48316   8.091  10.315   6.086 -0.1110  0.1430  0.6804
  351MOL0     N48317   8.060  10.335   5.939 -0.6371 -0.1033  0.1561
  351MOL0     C48318   8.124  10.270   5.833  1.0131 -0.0178 -0.4452
  351MOL0     C48319   8.053  10.319   5.730  0.5682  0.3975 -0.4404
  351MOL0     C48320   8.075  10.292   5.585  0.0415  0.5293 -0.7776
  351MOL0     C48321   8.003  10.171   5.538  0.5657  0.2586 -0.4886
  351MOL0     C48322   7.884  10.203   5.442  0.7018  0.2408 -0.2729
  351MOL0     C48323   7.920  10.281   5.317 -0.1016 -0.1426  0.1787
  351MOL0     O48324   7.818  10.310   5.226  0.3104 -0.1283 -0.1659
  351MOL0     C48325   7.858  10.385   5.110  0.0674  0.0625  0.6282
  351MOL0     C48326   7.763  10.438   5.022  0.3891 -1.0709  0.1766
  351MOL0     C48327   7.791  10.511   4.901 -0.0322  0.7100  0.8090
  351MOL0     C48328   7.671  10.528   4.807  0.4428 -0.5157 -0.8611
  351MOL0     C48329   7.933  10.545   4.874  0.2779  0.4862 -0.5468
  351MOL0     C48330   7.973  10.638   4.758 -0.0644  1.1725 -0.3807
  351MOL0     O48331   7.898  10.734   4.706  0.7701  0.7945  0.5719
  351MOL0     C48332   7.920  10.755   4.569  0.2590  0.2689 -0.2480
  351MOL0     C48333   8.007  10.859   4.539 -1.1201 -0.6580  0.3161
  351MOL0     C48334   8.049  10.888   4.412 -0.1756  0.0487  0.2377
  351MOL0     C48335   8.000  10.817   4.302  0.0110  0.7861  0.1193
  351MOL0     O48336   8.021  10.855   4.170 -0.1331  0.7957  0.6561
  351MOL0     C48337   8.153  10.894   4.132 -0.5284 -0.2661 -1.0705
  351MOL0     C48338   8.181  10.842   3.988  0.3444 -0.5413  0.0030
  351MOL0     C48339   8.315  10.906   3.935  0.4112  0.3469  0.4460
  351MOL0     C48340   8.427  10.837   4.014  1.1952 -0.6243  0.6722
  351MOL0     C48341   8.560  10.868   3.963 -0.9725  0.1689 -0.2541
  351MOL0     C48342   8.669  10.779   4.019 -0.2762 -0.2423  0.4758
  351MOL0     C48343   8.815  10.801   3.973 -0.1479 -0.0892  0.2331
  351MOL0     C48344   8.824  10.809   3.821  0.1816 -1.1222 -0.8337
  351MOL0    Cl48345   8.995  10.811   3.789  0.2426  0.2757 -0.0664
  351MOL0     C48346   7.906  10.717   4.327 -0.2035  0.1693 -0.6953
  351MOL0     C48347   7.861  10.688   4.457  0.4645  0.1648 -0.2614
  351MOL0     O48348   8.083  10.610   4.707  0.7972 -1.1860  0.1583
  351MOL0     C48349   8.028  10.486   4.961  0.1568 -0.3995 -1.0127
  351MOL0     C48350   7.990  10.410   5.075  0.2837  0.5060  0.3534
  351MOL0     N48351   7.941  10.389   5.767  0.0271 -0.0607 -0.4355
  351MOL0     N48352   7.955  10.406   5.893 -0.3981 -0.4283  0.8823
  351MOL0     C48353   8.403  10.530   6.023 -0.5966  0.3163  0.7631
  351MOL0     C48354   8.439  10.493   5.893 -0.6303 -0.1829  0.9342
  351MOL0     C48355   8.722  10.301   5.566  0.0589 -0.0200  0.5615
  351MOL0     C48356   8.657  10.385   5.466 -0.0657  0.8978  1.0987
  351MOL0     C48357   8.679  10.355   5.332  0.3851 -0.2388  0.9631
  351MOL0     C48358   8.764  10.247   5.291 -0.5293  0.2557 -0.5096
  351MOL0     O48359   8.762  10.224   5.159  0.1575  1.0560  0.4435
  351MOL0     C48360   8.834  10.117   5.100  0.1928 -0.2709  0.9946
  351MOL0     C48361   8.969  10.144   5.016  0.0021 -0.5512 -0.5786
  351MOL0     C48362   8.945  10.271   4.930  0.1390 -0.3492 -0.5549
  351MOL0     C48363   8.822  10.281   4.841 -0.2274 -0.2598  0.3522
  351MOL0     C48364   8.825  10.376   4.735  0.3341  0.4141  0.2383
  351MOL0     C48365   8.840  10.467   4.659 -0.0559 -0.7366  0.8057
  351MOL0     C48366   8.830  10.169   5.386 -0.0809 -0.1800 -0.2366
  351MOL0     C48367   8.808  10.201   5.522 -0.1287  0.3167 -0.4833
  351MOL0     C48368   8.896  10.120   5.626 -0.4152  0.7625  0.3220
  351MOL0     H48369   8.774  10.549   5.917 -0.9676 -1.2277 -3.8732
  351MOL0     H48370   8.698  10.617   6.164 -0.0448 -0.4008 -0.2942
  351MOL0     H48371   8.304  10.696   6.193  1.8406 -1.1030 -1.8227
  351MOL0     H48372   8.426  10.805   6.240 -1.8162  1.2229  1.4547
  351MOL0     H48373   8.424  10.704   6.473 -1.3328 -0.1617  2.6640
  351MOL0     H48374   8.287  10.805   6.412  0.8997  0.2658 -0.5236
  351MOL0     H48375   8.285  10.514   6.380  1.0143  0.1713 -0.3356
  351MOL0     H48376   8.262  10.556   6.545 -0.5370  0.5908  1.3933
  351MOL0     H48377   8.066  10.711   6.481  0.2010  0.4295 -0.3084
  351MOL0     H48378   8.101  10.678   6.311  2.1517  1.7372  0.0067
  351MOL0     H48379   7.907  10.565   6.390  1.4185  3.0383 -1.9651
  351MOL0     H48380   7.990  10.488   6.514  2.8995  0.7883  0.5857
  351MOL0     H48381   8.134  10.363   6.325  1.6991  0.5374 -4.1882
  351MOL0     H48382   7.962  10.316   6.322 -0.3933 -0.2154  0.4589
  351MOL0     H48383   8.097  10.525   6.142 -2.1440  0.9764 -1.8492
  351MOL0     H48384   7.933  10.465   6.129  0.2534  0.5880 -0.6469
  351MOL0     H48385   8.199  10.312   6.107 -0.1150 -0.6778  0.6081
  351MOL0     H48386   8.053  10.227   6.138  1.6438 -2.0081 -1.4328
  351MOL0     H48387   8.210  10.204   5.834  2.0981  1.3561  1.0014
  351MOL0     H48388   8.179  10.264   5.567 -0.2627  0.0839 -1.9488
  351MOL0     H48389   8.068  10.386   5.529  1.8322  0.7400 -0.7077
  351MOL0     H48390   8.072  10.099   5.492 -0.0090 -0.2920 -0.5172
  351MOL0     H48391   7.964  10.109   5.619  3.2890 -3.0738 -1.4936
  351MOL0     H48392   7.825  10.115   5.416 -0.0288  0.4100  0.7481
  351MOL0     H48393   7.812  10.259   5.503  0.3902 -1.2243  0.7451
  351MOL0     H48394   7.973  10.375   5.335  0.0124 -0.2232  0.2766
  351MOL0     H48395   7.987  10.213   5.264  1.6876  1.3510  0.3993
  351MOL0     H48396   7.662  10.406   5.045 -0.2256  0.6677  0.0796
  351MOL0     H48397   7.581  10.522   4.869  1.1502 -0.6640  0.1875
  351MOL0     H48398   7.668  10.436   4.748 -1.2951 -0.5823 -0.7108
  351MOL0     H48399   7.673  10.619   4.748  2.5268 -1.1248 -1.8236
  351MOL0     H48400   8.060  10.904   4.622  2.7543 -3.0163 -0.5861
  351MOL0     H48401   8.128  10.959   4.392  0.6528 -1.5019 -2.4200
  351MOL0     H48402   8.173  11.000   4.152  0.8507 -0.5723 -0.7606
  351MOL0     H48403   8.221  10.838   4.196  1.6106 -2.6028 -4.9757
  351MOL0     H48404   8.190  10.734   3.999  1.9165 -0.3368  0.9998
  351MOL0     H48405   8.093  10.873   3.930 -0.6169  0.7562  2.0292
  351MOL0     H48406   8.302  11.012   3.960  0.1404  0.4868 -0.2792
  351MOL0     H48407   8.323  10.887   3.828  1.4366  0.2025  0.5425
  351MOL0     H48408   8.406  10.730   4.023 -1.5522 -0.0599  1.7184
  351MOL0     H48409   8.417  10.881   4.113  0.4863  0.1687  0.2570
  351MOL0     H48410   8.552  10.848   3.856  0.4217  0.7143 -0.4832
  351MOL0     H48411   8.579  10.972   3.992 -0.8761 -0.0588  0.4980
  351MOL0     H48412   8.635  10.677   3.999 -4.6130  1.1251 -0.1881
  351MOL0     H48413   8.665  10.797   4.127 -1.6408  3.7689 -0.0822
  351MOL0     H48414   8.882  10.726   4.016  0.9180 -1.1113 -2.9725
  351MOL0     H48415   8.851  10.896   4.015 -0.6379  0.1105  0.2086
  351MOL0     H48416   8.764  10.894   3.789 -0.7567 -1.3152  0.3227
  351MOL0     H48417   8.787  10.712   3.788 -2.1570 -0.6370  0.1266
  351MOL0     H48418   7.870  10.647   4.253 -3.3997 -0.8620  1.5907
  351MOL0     H48419   7.801  10.598   4.467  1.0600 -0.1300  0.8801
  351MOL0     H48420   8.137  10.488   4.956  0.1816 -1.4407 -1.1087
  351MOL0     H48421   8.070  10.363   5.131 -1.0522 -0.8760  1.1806
  351MOL0     H48422   8.303  10.512   6.062 -0.5409  1.9214  1.7814
  351MOL0     H48423   8.364  10.470   5.817  1.9956  1.1414 -2.2968
  351MOL0     H48424   8.591  10.467   5.493 -0.2776  1.4818 -1.0315
  351MOL0     H48425   8.629  10.412   5.255  3.7483  0.6491 -0.7128
  351MOL0     H48426   8.856  10.035   5.169 -0.9124 -0.7652  0.7859
  351MOL0     H48427   8.754  10.087   5.031  0.1015  0.4760  0.7623
  351MOL0     H48428   8.997  10.069   4.941  0.5207 -2.2598  1.2177
  351MOL0     H48429   9.060  10.159   5.074  1.3920 -0.6590 -2.6268
  351MOL0     H48430   8.951  10.360   4.993 -0.9141  0.7424 -1.9204
  351MOL0     H48431   9.040  10.282   4.877  1.9817 -1.8387  2.2248
  351MOL0     H48432   8.729  10.299   4.896 -1.1312  2.3201 -1.8066
  351MOL0     H48433   8.809  10.181   4.799 -2.2680 -0.8477  2.1978
  351MOL0     H48434   8.852  10.553   4.595 -0.5411 -1.1756  0.1130
  351MOL0     H48435   8.897  10.088   5.362  0.1768  0.1420 -0.6053
  351MOL0     H48436   8.954  10.174   5.701  3.3219 -1.1627 -0.9441
  351MOL0     H48437   8.829  10.049   5.674 -1.5641  1.4156 -0.2563
  351MOL0     H48438   8.978  10.077   5.568 -0.9915 -1.4795  1.1001
  352MOL0     O48439   0.387   9.369  10.576  0.2009 -0.0067  0.3792
  352MOL0     C48440   0.347   9.431  10.480 -0.6948  0.0884  0.3838
  352MOL0     O48441   0.324   9.375  10.354 -0.2083  0.5743  0.0916
  352MOL0     C48442   0.272   9.249  10.352  0.2227  0.3713 -0.1455
  352MOL0     C48443   0.156   9.214  10.418  0.2532  0.1787 -0.6131
  352MOL0     C48444   0.095   9.094  10.406 -0.3576  0.1537  0.4626
  352MOL0     C48445   0.138   9.004  10.306 -0.0288 -0.3093  0.3984
  352MOL0     O48446   0.080   8.883  10.288 -0.1655 -0.4098  0.2034
  352MOL0     C48447   0.072   8.791  10.396  0.4083  0.4864  0.1422
  352MOL0     C48448   0.042   8.659  10.321  0.4887 -0.5006  0.6934
  352MOL0     C48449  -0.044   8.556  10.390 -0.3372  0.4158  0.1537
  352MOL0     C48450  -0.000   8.529  10.529 -0.3658 -0.6751  0.2604
  352MOL0     C48451  -0.091   8.422  10.607 -0.0962  0.4275  0.3564
  352MOL0     C48452  -0.022   8.274  10.607 -0.1507 -0.4288 -0.0687
  352MOL0     C48453   0.117   8.255  10.665  0.5056 -0.0313 -0.4124
  352MOL0     C48454   0.133   8.304  10.811  1.6853  0.6115 -0.0904
  352MOL0     N48455   0.031   8.242  10.895  0.1655  0.5499  0.1804
  352MOL0     C48456   0.045   8.121  10.960  0.4106  0.0097 -0.2431
  352MOL0     C48457  -0.058   8.108  11.041 -0.0269  0.0947 -1.0652
  352MOL0     C48458  -0.084   8.011  11.150  0.3691 -0.1384  0.9925
  352MOL0     C48459  -0.061   7.865  11.114 -1.0183  0.0527  0.5309
  352MOL0     C48460  -0.082   7.766  11.233  0.0976  0.1336  0.1335
  352MOL0     C48461  -0.059   7.626  11.191  0.1736 -0.6729 -0.0941
  352MOL0     O48462   0.086   7.620  11.190 -0.0629  0.3519  0.1934
  352MOL0     C48463   0.138   7.498  11.151  0.0847  0.0923 -0.7801
  352MOL0     C48464   0.075   7.376  11.150  0.9067 -0.0117  0.9250
  352MOL0     C48465   0.138   7.260  11.127 -0.2984  0.2490 -0.5704
  352MOL0     C48466   0.071   7.126  11.153 -0.8502  0.3566 -0.3638
  352MOL0     C48467   0.281   7.272  11.099  0.6076  0.3801  0.3086
  352MOL0     C48468   0.368   7.153  11.085  0.9443  0.8896  0.4736
  352MOL0     O48469   0.483   7.163  11.148  0.2305  0.0917  0.4220
  352MOL0     C48470   0.578   7.067  11.156 -0.5248  0.6732 -0.3855
  352MOL0     C48471   0.562   6.928  11.157  0.2390 -0.8402  0.1354
  352MOL0     C48472   0.665   6.831  11.174  0.2440 -0.5168  0.5434
  352MOL0     C48473   0.791   6.885  11.205  0.0298 -0.8971 -0.1734
  352MOL0     O48474   0.904   6.808  11.234 -0.3029 -0.4272  0.4348
  352MOL0     C48475   0.886   6.667  11.229  0.6364  0.4137 -0.4750
  352MOL0     C48476   1.017   6.597  11.196  0.0104 -0.7246 -0.2014
  352MOL0     C48477   1.092   6.639  11.078  0.2598  0.1459  0.2758
  352MOL0     C48478   1.008   6.615  10.942  0.3110  0.4352 -1.2862
  352MOL0     C48479   1.000   6.466  10.903 -0.6882  1.3141  0.6653
  352MOL0     C48480   1.138   6.405  10.849  0.8807 -0.5579  0.0999
  352MOL0     C48481   1.139   6.435  10.698 -0.0400  0.5375  0.0008
  352MOL0     C48482   1.268   6.414  10.622 -0.7330  0.0461 -0.2665
  352MOL0    Cl48483   1.252   6.492  10.461 -0.1924  0.1088 -0.3958
  352MOL0     C48484   0.814   7.021  11.208 -0.6436 -0.3445 -0.2557
  352MOL0     C48485   0.704   7.109  11.183 -0.2258 -0.1120  1.1059
  352MOL0     O48486   0.315   7.054  11.031  0.6864 -0.6090  0.1119
  352MOL0     C48487   0.344   7.398  11.105 -0.0530  0.4758  0.2222
  352MOL0     C48488   0.276   7.511  11.135  0.3055 -0.0902 -0.0462
  352MOL0     N48489  -0.138   8.226  11.028  0.4873  0.5800  0.3968
  352MOL0     N48490  -0.088   8.299  10.936  0.3014  0.5940 -0.3440
  352MOL0     C48491   0.253   9.039  10.233  0.0231 -0.8822  0.9863
  352MOL0     C48492   0.321   9.160  10.260  0.4711  0.8822  0.7500
  352MOL0     C48493   0.358   9.578  10.490 -0.4133  1.1404  0.0808
  352MOL0     C48494   0.349   9.654  10.377  0.6624 -0.2210  0.0474
  352MOL0     C48495   0.388   9.785  10.378  0.0365  0.6703  0.6050
  352MOL0     C48496   0.443   9.848  10.489  0.3907  0.5591  0.4154
  352MOL0     O48497   0.479   9.974  10.468  0.1778  1.1296 -0.0140
  352MOL0     C48498   0.516  10.067  10.564 -0.0952 -0.7607  0.4226
  352MOL0     C48499   0.622  10.168  10.515  0.5091 -0.0526 -0.5274
  352MOL0     C48500   0.727  10.111  10.426 -0.0363 -0.0909  0.1648
  352MOL0     C48501   0.820  10.226  10.363  0.5975  0.3867  0.3589
  352MOL0     C48502   0.924  10.182  10.274 -0.3028  1.2036  0.2271
  352MOL0     C48503   1.006  10.157  10.183  0.4839  0.1423 -0.4176
  352MOL0     C48504   0.442   9.775  10.608 -0.9014 -0.2959  0.2781
  352MOL0     C48505   0.402   9.640  10.613 -0.5117 -0.1786  0.4371
  352MOL0     C48506   0.408   9.576  10.747  0.5930  0.1123 -0.5489
  352MOL0     H48507   0.130   9.276  10.504 -2.0840 -1.3163 -0.1711
  352MOL0     H48508   0.018   9.058  10.474 -0.3896  2.0166  1.4715
  352MOL0     H48509  -0.023   8.822  10.441  0.5104 -0.2396  0.8807
  352MOL0     H48510   0.157   8.792  10.464 -1.2979 -4.8372  2.9208
  352MOL0     H48511  -0.017   8.689  10.233  0.7107  1.1304  1.0637
  352MOL0     H48512   0.132   8.608  10.286  1.8453  0.4164  2.6815
  352MOL0     H48513  -0.149   8.586  10.400  0.7281  3.8225  2.5818
  352MOL0     H48514  -0.043   8.458  10.341 -1.7300 -0.7168  2.2163
  352MOL0     H48515   0.104   8.495  10.538 -0.5336 -1.3688 -0.3276
  352MOL0     H48516   0.005   8.620  10.590  0.1578 -0.9698  0.6668
  352MOL0     H48517  -0.187   8.422  10.555 -1.8266  1.6090  3.3015
  352MOL0     H48518  -0.109   8.459  10.708  1.0144 -0.9737  1.1033
  352MOL0     H48519  -0.100   8.221  10.661 -1.1101  1.7210  0.7870
  352MOL0     H48520  -0.028   8.238  10.504 -0.1578  1.3337 -0.7299
  352MOL0     H48521   0.196   8.311  10.614  0.6594 -1.1933 -1.4920
  352MOL0     H48522   0.143   8.150  10.655 -1.4765 -0.5361 -0.8813
  352MOL0     H48523   0.238   8.282  10.830  2.0220 -0.7383 -3.0216
  352MOL0     H48524   0.110   8.411  10.809 -0.2802  0.2299 -2.6029
  352MOL0     H48525   0.118   8.042  10.941  0.1925 -0.9353  2.4525
  352MOL0     H48526  -0.190   8.028  11.169  0.5466  2.7256 -0.0922
  352MOL0     H48527  -0.024   8.040  11.237  0.0259  2.3737  0.4592
  352MOL0     H48528  -0.122   7.828  11.031  0.1246  0.7176 -0.6253
  352MOL0     H48529   0.041   7.860  11.075 -1.3085 -3.9350 -0.1584
  352MOL0     H48530  -0.021   7.794  11.319  0.5209 -2.9607  0.9648
  352MOL0     H48531  -0.189   7.779  11.253 -0.9646 -0.6474 -3.9181
  352MOL0     H48532  -0.105   7.551  11.255 -1.4410 -0.9861 -1.5324
  352MOL0     H48533  -0.100   7.604  11.092 -3.8568  1.1106  0.9556
  352MOL0     H48534  -0.033   7.371  11.160  0.6638  4.2078  2.1131
  352MOL0     H48535  -0.025   7.139  11.203  0.5924  0.3325  2.6113
  352MOL0     H48536   0.133   7.063  11.218 -3.4675  0.5308  2.5691
  352MOL0     H48537   0.044   7.075  11.060 -0.3600  2.5336 -1.7551
  352MOL0     H48538   0.461   6.890  11.150 -0.6176  0.6897  2.7641
  352MOL0     H48539   0.649   6.724  11.166  1.5111 -0.7411  0.8543
  352MOL0     H48540   0.859   6.637  11.331  3.0711  0.6666  0.3023
  352MOL0     H48541   0.819   6.624  11.153  2.4394 -1.2042 -1.2448
  352MOL0     H48542   1.087   6.623  11.277  0.8272  1.8943 -1.6313
  352MOL0     H48543   0.996   6.490  11.199 -1.1504 -0.4938  0.4350
  352MOL0     H48544   1.190   6.589  11.085 -0.2589 -0.7156  1.8597
  352MOL0     H48545   1.111   6.746  11.080  0.1399  0.2411 -1.6280
  352MOL0     H48546   1.072   6.673  10.874  1.5588  0.9138  0.2363
  352MOL0     H48547   0.909   6.661  10.944 -0.3737 -0.8154 -3.4701
  352MOL0     H48548   0.976   6.406  10.991 -1.4160 -2.1854 -1.7269
  352MOL0     H48549   0.923   6.452  10.827 -2.5753 -2.2640  2.9340
  352MOL0     H48550   1.141   6.298  10.867  1.1549 -0.3864  1.0998
  352MOL0     H48551   1.219   6.450  10.907  5.2774 -4.1874 -2.5753
  352MOL0     H48552   1.115   6.541  10.689 -0.5388  0.2228 -3.7490
  352MOL0     H48553   1.072   6.361  10.652 -0.6355 -0.2478  2.0211
  352MOL0     H48554   1.286   6.307  10.615 -0.0476  0.1918 -0.8536
  352MOL0     H48555   1.346   6.460  10.684 -1.6808  0.4082  0.7035
  352MOL0     H48556   0.918   7.043  11.233 -0.6824 -1.6771  1.2456
  352MOL0     H48557   0.734   7.213  11.175 -0.5532 -0.1482 -2.4039
  352MOL0     H48558   0.450   7.395  11.083 -0.0074 -2.6232  0.3274
  352MOL0     H48559   0.330   7.605  11.137  1.9408 -0.9580 -0.5002
  352MOL0     H48560   0.297   8.963  10.169  0.1548 -0.3010  0.3730
  352MOL0     H48561   0.415   9.182  10.211  1.3531 -1.4423  1.2548
  352MOL0     H48562   0.311   9.611  10.286 -0.8138 -0.6533  0.8330
  352MOL0     H48563   0.387   9.833  10.280  3.7433 -1.0978 -0.4890
  352MOL0     H48564   0.431  10.110  10.618  1.7376  0.9081  2.1267
  352MOL0     H48565   0.561  10.003  10.639 -0.4146 -1.1165  0.3121
  352MOL0     H48566   0.656  10.207  10.611 -2.5017  0.5405  0.4135
  352MOL0     H48567   0.576  10.255  10.467  1.2920 -0.0835 -1.3501
  352MOL0     H48568   0.795  10.049  10.485 -0.6402 -1.1236 -0.1977
  352MOL0     H48569   0.692  10.044  10.347  1.6099  0.9199 -1.5011
  352MOL0     H48570   0.867  10.283  10.443  0.3556  1.4317 -0.2274
  352MOL0     H48571   0.764  10.297  10.303  0.2172  0.4180  0.7487
  352MOL0     H48572   1.081  10.150  10.107 -1.6154 -0.7143 -2.4870
  352MOL0     H48573   0.470   9.830  10.698 -3.1630 -1.6578  1.9298
  352MOL0     H48574   0.319   9.521  10.777 -1.0786  3.2796  0.8057
  352MOL0     H48575   0.494   9.509  10.746 -0.3164 -1.0781 -1.5457
  352MOL0     H48576   0.409   9.660  10.817 -2.0774 -0.4749  0.2986
  353MOL0     O48577   7.112   8.670   8.639  0.0848  0.4113 -0.7033
  353MOL0     C48578   7.076   8.622   8.536  0.0649  0.1668  0.1498
  353MOL0     O48579   6.970   8.541   8.515 -0.0957 -0.4289 -0.2154
  353MOL0     C48580   6.931   8.461   8.618  0.1902  0.1478  0.8314
  353MOL0     C48581   6.881   8.506   8.740 -0.3195  0.0473  0.9769
  353MOL0     C48582   6.807   8.413   8.825 -0.1948  0.5021 -0.2017
  353MOL0     C48583   6.788   8.281   8.793  0.4871  0.4302  0.2840
  353MOL0     O48584   6.693   8.195   8.848 -0.3946 -0.2306  0.0143
  353MOL0     C48585   6.706   8.168   8.991  0.1208  0.3586  0.3154
  353MOL0     C48586   6.844   8.101   9.025 -0.4402  0.4144  0.2978
  353MOL0     C48587   6.854   8.038   9.169  0.3283 -0.2918  0.4105
  353MOL0     C48588   6.988   7.972   9.210 -0.9008 -0.6219  0.3722
  353MOL0     C48589   6.989   7.930   9.366  0.4050  0.3031  0.0096
  353MOL0     C48590   7.120   7.862   9.415  0.2410 -0.0458  0.0802
  353MOL0     C48591   7.100   7.761   9.520 -0.5004  0.6466 -0.3737
  353MOL0     C48592   7.217   7.678   9.559  0.5646  0.0662 -0.4845
  353MOL0     N48593   7.182   7.543   9.607 -0.2452 -0.2435 -0.2604
  353MOL0     C48594   7.074   7.508   9.678  0.0748  0.0510 -0.1759
  353MOL0     C48595   7.112   7.388   9.731 -1.1651  0.4638 -0.4679
  353MOL0     C48596   7.027   7.294   9.806  0.1201 -0.1579 -0.3024
  353MOL0     C48597   7.042   7.141   9.767  0.0429  0.6307 -0.0101
  353MOL0     C48598   6.954   7.050   9.849  0.1128 -0.6820  0.7532
  353MOL0     C48599   6.809   7.050   9.813 -0.5900 -0.5535 -0.3219
  353MOL0     O48600   6.786   7.070   9.672  0.2661 -0.7306  0.4144
  353MOL0     C48601   6.705   7.179   9.628  0.1767 -0.0974 -0.7555
  353MOL0     C48602   6.612   7.245   9.711  0.6161 -0.8437 -0.2620
  353MOL0     C48603   6.558   7.370   9.667  0.9125  0.6277 -0.3655
  353MOL0     C48604   6.462   7.445   9.764 -0.1337 -0.5727  0.3718
  353MOL0     C48605   6.599   7.425   9.545 -0.3406  0.4368  0.3101
  353MOL0     C48606   6.540   7.546   9.498  0.3892  0.2447 -0.4349
  353MOL0     O48607   6.628   7.628   9.433  0.0796  0.5272  0.5821
  353MOL0     C48608   6.569   7.733   9.376  0.3319 -0.2352  0.4895
  353MOL0     C48609   6.542   7.730   9.241 -0.2846 -0.6179 -0.4960
  353MOL0     C48610   6.491   7.850   9.175  0.1004 -1.2809  0.1393
  353MOL0     C48611   6.459   7.967   9.249  0.2766 -0.3830  0.9554
  353MOL0     O48612   6.433   8.095   9.187  0.0325  0.7454  0.4254
  353MOL0     C48613   6.412   8.215   9.269 -0.3033 -0.1139  0.0290
  353MOL0     C48614   6.378   8.342   9.189  0.0480  0.5897  0.3146
  353MOL0     C48615   6.445   8.467   9.247  0.0754 -0.0109 -0.8214
  353MOL0     C48616   6.374   8.593   9.200  0.6828 -0.0819 -0.0636
  353MOL0     C48617   6.250   8.628   9.288 -0.5182 -0.4155  0.0807
  353MOL0     C48618   6.128   8.534   9.274 -1.2392 -0.1059  0.4695
  353MOL0     C48619   6.006   8.601   9.334  0.1099 -0.5188 -0.0954
  353MOL0     C48620   5.958   8.718   9.255 -0.4058 -0.4621 -0.2640
  353MOL0    Cl48621   5.782   8.752   9.288  1.0869  0.0797 -0.4480
  353MOL0     C48622   6.487   7.959   9.385  0.3300 -0.9788  0.3198
  353MOL0     C48623   6.543   7.849   9.450 -1.1937  0.0282 -0.0502
  353MOL0     O48624   6.417   7.535   9.475 -0.1651  1.5687  0.2688
  353MOL0     C48625   6.682   7.349   9.467  0.3429  0.6954  0.4816
  353MOL0     C48626   6.736   7.227   9.505 -0.6586  0.7816 -0.7928
  353MOL0     N48627   7.240   7.361   9.674  0.4321  0.2497 -1.1027
  353MOL0     N48628   7.280   7.457   9.596  0.3260 -0.5009 -0.4543
  353MOL0     C48629   6.831   8.250   8.666 -0.6713 -0.3461  0.4071
  353MOL0     C48630   6.889   8.336   8.579  0.2263 -0.0444 -0.4413
  353MOL0     C48631   7.172   8.647   8.419 -0.4964 -0.3124  0.1507
  353MOL0     C48632   7.231   8.536   8.375  0.1296  1.2716  0.0668
  353MOL0     C48633   7.334   8.541   8.282 -0.0393  0.7475  0.3247
  353MOL0     C48634   7.377   8.669   8.237 -0.2423  0.7506  0.3958
  353MOL0     O48635   7.475   8.669   8.137 -0.2635  0.7161 -0.8485
  353MOL0     C48636   7.603   8.645   8.184  0.4967  0.1719  0.5454
  353MOL0     C48637   7.640   8.523   8.103 -0.7990  0.5792  0.2007
  353MOL0     C48638   7.774   8.452   8.144  0.5599  0.0739  0.3155
  353MOL0     C48639   7.824   8.380   8.024  0.3512 -0.3372 -0.5253
  353MOL0     C48640   7.947   8.294   8.037 -0.1314 -0.6243 -0.2102
  353MOL0     C48641   8.052   8.240   8.030  0.1043 -0.3443 -0.0776
  353MOL0     C48642   7.318   8.787   8.282 -0.2596  0.2997 -0.1020
  353MOL0     C48643   7.213   8.771   8.369  0.2077  0.7063  0.2175
  353MOL0     C48644   7.141   8.892   8.416 -0.1278  0.4579 -0.8073
  353MOL0     H48645   6.892   8.606   8.782 -0.3039  0.8481 -0.8533
  353MOL0     H48646   6.765   8.453   8.917  3.8830  1.2947  1.5551
  353MOL0     H48647   6.619   8.114   9.030  1.0301  0.2426  2.2974
  353MOL0     H48648   6.710   8.266   9.039  2.0395  2.9366 -4.4012
  353MOL0     H48649   6.849   8.016   8.956 -1.0981  1.4061 -1.0230
  353MOL0     H48650   6.921   8.176   9.006 -0.9117  0.6506 -0.7801
  353MOL0     H48651   6.830   8.115   9.242  1.4015 -0.0244  0.4965
  353MOL0     H48652   6.769   7.972   9.188  0.8107 -0.8408  0.7080
  353MOL0     H48653   7.027   7.892   9.146  0.0179  0.8533 -0.9656
  353MOL0     H48654   7.060   8.054   9.207 -1.7546  0.1492  0.4628
  353MOL0     H48655   6.911   7.853   9.378  1.3673 -0.8094 -0.6998
  353MOL0     H48656   6.976   8.024   9.421 -0.3101  0.0086  0.3695
  353MOL0     H48657   7.172   7.815   9.331  0.6785 -0.1219  0.3907
  353MOL0     H48658   7.183   7.945   9.448 -1.9609  1.4969  0.6127
  353MOL0     H48659   7.014   7.699   9.493 -1.0306  0.7172  1.0726
  353MOL0     H48660   7.069   7.794   9.619  0.0142 -1.8518  0.6992
  353MOL0     H48661   7.296   7.680   9.483  0.1562  2.7728 -0.9429
  353MOL0     H48662   7.268   7.735   9.637  2.0180 -2.1065  0.2359
  353MOL0     H48663   6.986   7.567   9.702  0.1338 -0.2793  0.9362
  353MOL0     H48664   6.922   7.324   9.792  0.7579  2.0463 -0.7730
  353MOL0     H48665   7.030   7.305   9.915 -2.2037 -1.3706 -0.0355
  353MOL0     H48666   7.030   7.129   9.659  2.2315 -2.2421 -0.0625
  353MOL0     H48667   7.145   7.110   9.789 -0.5058 -0.5681  0.9872
  353MOL0     H48668   6.997   6.949   9.849 -0.8283 -1.1059 -0.3412
  353MOL0     H48669   6.972   7.085   9.951  5.2901  0.5632 -0.2716
  353MOL0     H48670   6.771   6.952   9.845 -0.9270 -0.4343 -0.3505
  353MOL0     H48671   6.771   7.135   9.871  1.2636  0.0645  0.0421
  353MOL0     H48672   6.593   7.206   9.810  0.0164  1.4441  0.5922
  353MOL0     H48673   6.367   7.451   9.710 -0.0492 -2.2687 -0.0231
  353MOL0     H48674   6.511   7.543   9.775  0.3764 -0.5902 -1.3905
  353MOL0     H48675   6.445   7.382   9.851  1.7022 -3.1829 -1.0031
  353MOL0     H48676   6.571   7.639   9.190  1.9941 -0.3552  0.1856
  353MOL0     H48677   6.500   7.856   9.067  4.5010  1.2799  0.3857
  353MOL0     H48678   6.333   8.189   9.340 -0.4141 -1.1180 -0.4542
  353MOL0     H48679   6.507   8.222   9.323  0.7957 -1.3410 -1.6184
  353MOL0     H48680   6.410   8.323   9.085 -2.7845 -1.3533 -0.3026
  353MOL0     H48681   6.269   8.351   9.189  0.1838  2.5366  0.6748
  353MOL0     H48682   6.545   8.473   9.202 -0.8981 -1.1814 -3.3663
  353MOL0     H48683   6.445   8.454   9.355 -0.9773 -1.1128 -0.9337
  353MOL0     H48684   6.345   8.583   9.095  4.4013 -0.5312 -1.1902
  353MOL0     H48685   6.444   8.677   9.204 -1.7438  2.0834  0.2229
  353MOL0     H48686   6.276   8.630   9.394 -1.8774  0.5789  0.4249
  353MOL0     H48687   6.228   8.734   9.268  0.5832 -0.0630  0.6572
  353MOL0     H48688   6.143   8.441   9.329 -0.8641 -1.3474 -1.5963
  353MOL0     H48689   6.099   8.510   9.171 -2.2446 -1.9104  1.1233
  353MOL0     H48690   6.031   8.636   9.435  1.4996 -3.3255  0.6284
  353MOL0     H48691   5.933   8.520   9.346  0.9545 -1.2452  0.2226
  353MOL0     H48692   5.971   8.704   9.148  0.0688  2.5036 -0.6748
  353MOL0     H48693   6.013   8.806   9.291  1.0941 -2.2266  2.0819
  353MOL0     H48694   6.477   8.051   9.443  2.1025 -1.8948  2.2141
  353MOL0     H48695   6.584   7.837   9.550  3.2676 -0.1251 -1.6730
  353MOL0     H48696   6.703   7.392   9.370  0.2218 -0.8437 -0.2560
  353MOL0     H48697   6.808   7.167   9.450 -2.9386 -1.3139 -1.6667
  353MOL0     H48698   6.803   8.154   8.624  0.3991  0.2305 -1.7913
  353MOL0     H48699   6.905   8.310   8.475 -1.1291  1.8576 -1.2029
  353MOL0     H48700   7.197   8.445   8.425 -0.5807  3.2681  3.5277
  353MOL0     H48701   7.381   8.450   8.247  0.0902  0.3454  1.4854
  353MOL0     H48702   7.678   8.718   8.152  0.8802 -0.0724  0.8888
  353MOL0     H48703   7.615   8.648   8.293 -1.7572  1.8442  0.8247
  353MOL0     H48704   7.658   8.556   8.000 -0.8642  1.8520  0.5794
  353MOL0     H48705   7.568   8.441   8.096  1.9852 -2.0010 -0.1938
  353MOL0     H48706   7.842   8.529   8.179 -0.5010  1.0912  0.2137
  353MOL0     H48707   7.757   8.372   8.217 -2.0492 -0.9160 -1.2146
  353MOL0     H48708   7.857   8.447   7.945  0.1522 -1.2122 -1.3775
  353MOL0     H48709   7.748   8.311   7.984  0.8808 -2.3565  1.7021
  353MOL0     H48710   8.148   8.193   8.035  0.4748 -0.0139 -2.6953
  353MOL0     H48711   7.340   8.885   8.240 -1.3599  0.0021 -1.4683
  353MOL0     H48712   7.034   8.890   8.392 -0.8609  0.7261  2.0542
  353MOL0     H48713   7.145   8.903   8.524 -0.4553 -2.1492 -0.4484
  353MOL0     H48714   7.181   8.985   8.376 -1.1640  2.0351  1.6383
  354MOL0     O48715   2.592   1.934   7.189  0.9362 -0.0321  0.1706
  354MOL0     C48716   2.490   1.931   7.121  0.5947  0.7380  0.3631
  354MOL0     O48717   2.493   1.942   6.982 -0.2479 -0.6908 -0.5541
  354MOL0     C48718   2.610   1.992   6.932  0.9451  0.6672 -0.0440
  354MOL0     C48719   2.602   2.106   6.851 -0.2463  0.1662  0.9900
  354MOL0     C48720   2.712   2.148   6.775  0.1113  0.5270 -0.7118
  354MOL0     C48721   2.830   2.069   6.773  0.0157  0.0956 -0.6267
  354MOL0     O48722   2.926   2.114   6.684  0.1428 -1.2410  0.7530
  354MOL0     C48723   2.957   2.255   6.677 -0.2763  0.2787  0.2146
  354MOL0     C48724   2.987   2.321   6.822  0.2391 -0.4832 -0.3105
  354MOL0     C48725   2.994   2.471   6.816  0.1145  0.0090  0.5116
  354MOL0     C48726   2.847   2.531   6.832 -0.3004  0.3581  0.1343
  354MOL0     C48727   2.856   2.673   6.885 -1.4824  0.1583  0.7172
  354MOL0     C48728   2.741   2.757   6.845 -0.3583 -0.8646  0.1548
  354MOL0     C48729   2.754   2.904   6.886 -0.2378  0.8629 -0.3163
  354MOL0     C48730   2.855   2.983   6.808 -0.3953 -0.1798  0.3705
  354MOL0     N48731   2.853   3.123   6.858  0.7076  0.3721  0.9567
  354MOL0     C48732   2.885   3.152   6.985  0.2641  0.4239 -0.8349
  354MOL0     C48733   2.879   3.286   6.984 -0.2254  0.5863  0.7950
  354MOL0     C48734   2.888   3.360   7.106  0.6283  0.0876 -0.2729
  354MOL0     C48735   2.842   3.500   7.086  0.5181  0.4081 -0.4655
  354MOL0     C48736   2.804   3.571   7.216 -0.7137  0.6951  0.1454
  354MOL0     C48737   2.734   3.707   7.189  0.1741 -0.0545  0.2711
  354MOL0     O48738   2.813   3.812   7.130  0.5708  0.2831  0.3408
  354MOL0     C48739   2.751   3.928   7.096 -0.5985 -0.1495 -0.0628
  354MOL0     C48740   2.608   3.950   7.086 -0.1067 -0.7063 -1.0277
  354MOL0     C48741   2.562   4.080   7.058 -0.1405 -0.0887 -0.4210
  354MOL0     C48742   2.414   4.089   7.031 -0.8473 -0.5366 -0.7969
  354MOL0     C48743   2.650   4.188   7.041  0.3801 -0.8253  0.0654
  354MOL0     C48744   2.611   4.332   7.027  0.0283  0.5534  0.1804
  354MOL0     O48745   2.705   4.425   7.018  0.1373 -0.0782 -0.1938
  354MOL0     C48746   2.684   4.562   7.013  0.7324  0.7080 -0.2300
  354MOL0     C48747   2.782   4.638   7.069 -0.2782 -0.2765  0.4001
  354MOL0     C48748   2.768   4.771   7.102 -0.7828 -0.2277  0.5197
  354MOL0     C48749   2.652   4.845   7.069  0.1485  1.3250  0.9869
  354MOL0     O48750   2.630   4.964   7.105  0.2009 -0.0694 -0.1797
  354MOL0     C48751   2.724   5.066   7.072 -0.4725  0.6404  0.1896
  354MOL0     C48752   2.680   5.142   6.945 -0.1406  0.5469  0.3090
  354MOL0     C48753   2.763   5.273   6.941  0.6532  0.1909 -0.2884
  354MOL0     C48754   2.737   5.358   6.814  1.1892  0.1196 -0.3739
  354MOL0     C48755   2.794   5.501   6.802 -0.2579 -0.0902  0.2888
  354MOL0     C48756   2.755   5.564   6.660  0.0717 -0.6189 -0.0531
  354MOL0     C48757   2.843   5.668   6.605 -0.5650 -0.3181  0.7026
  354MOL0     C48758   2.993   5.670   6.641 -0.5262  0.4202 -0.0637
  354MOL0    Cl48759   3.084   5.787   6.535  0.5720  0.2296 -0.1473
  354MOL0     C48760   2.547   4.767   7.012  0.6014  0.2818  0.4736
  354MOL0     C48761   2.562   4.631   6.997  1.2755  0.3788  0.8158
  354MOL0     O48762   2.491   4.356   7.038  0.9010  0.3983  0.0274
  354MOL0     C48763   2.789   4.161   7.053  0.0033 -0.9906  0.2485
  354MOL0     C48764   2.831   4.035   7.080  0.4517  0.0763 -0.0017
  354MOL0     N48765   2.848   3.333   6.854 -0.0160  0.8704  0.0518
  354MOL0     N48766   2.836   3.232   6.780  0.5663 -0.9632 -0.3763
  354MOL0     C48767   2.835   1.958   6.858  0.1320  0.2006  0.1082
  354MOL0     C48768   2.728   1.924   6.945 -0.0480  0.0491  1.2448
  354MOL0     C48769   2.362   1.895   7.183 -0.0051  0.2077  1.1564
  354MOL0     C48770   2.252   1.890   7.092  1.2155  0.4943 -1.0105
  354MOL0     C48771   2.121   1.855   7.139 -0.2428  0.4781  1.2692
  354MOL0     C48772   2.095   1.843   7.276 -0.3262 -0.4179  0.0478
  354MOL0     O48773   1.963   1.824   7.307 -0.6877  0.3140  0.7053
  354MOL0     C48774   1.947   1.819   7.447 -0.7282  0.6191  1.1690
  354MOL0     C48775   1.791   1.820   7.473  0.0470  0.0454  0.0978
  354MOL0     C48776   1.736   1.954   7.460 -0.2388 -0.0050  0.0068
  354MOL0     C48777   1.598   1.951   7.513 -0.3401 -0.9494  0.1384
  354MOL0     C48778   1.553   2.089   7.536  0.1632  0.0387  0.5643
  354MOL0     C48779   1.498   2.195   7.560  0.1952 -0.1506 -0.1410
  354MOL0     C48780   2.210   1.852   7.362 -0.3398 -0.2766 -0.4957
  354MOL0     C48781   2.336   1.878   7.320 -0.0024  0.0426 -0.1655
  354MOL0     C48782   2.447   1.877   7.424 -0.0346 -0.0530 -0.3566
  354MOL0     H48783   2.519   2.171   6.826  1.6803  2.8653  1.0701
  354MOL0     H48784   2.703   2.243   6.722 -0.1735  1.9750  1.7703
  354MOL0     H48785   2.875   2.302   6.619  1.2930  0.8648 -1.6474
  354MOL0     H48786   3.048   2.262   6.617 -0.7251 -2.2145 -0.8868
  354MOL0     H48787   2.909   2.286   6.890  0.1390  2.2696  1.1342
  354MOL0     H48788   3.087   2.287   6.851  0.2595  0.8503  1.2681
  354MOL0     H48789   3.063   2.517   6.887  0.4575  1.8677 -0.9376
  354MOL0     H48790   3.039   2.500   6.721  0.4007  0.2570  0.7215
  354MOL0     H48791   2.789   2.533   6.739  1.3786 -0.8542 -0.9949
  354MOL0     H48792   2.788   2.475   6.905 -2.3524  1.4597 -0.5982
  354MOL0     H48793   2.946   2.717   6.841 -0.5464 -1.6620  0.7111
  354MOL0     H48794   2.874   2.670   6.993  1.7548 -0.2422  0.2793
  354MOL0     H48795   2.725   2.753   6.737 -2.2292 -3.3434  0.4520
  354MOL0     H48796   2.652   2.714   6.891 -0.2054 -2.4306 -0.9064
  354MOL0     H48797   2.781   2.905   6.992 -1.2933 -2.8049  0.1090
  354MOL0     H48798   2.659   2.955   6.873  0.0975  2.1361  1.7463
  354MOL0     H48799   2.957   2.945   6.820  0.4950  1.3837 -1.6827
  354MOL0     H48800   2.843   2.975   6.699  2.5521 -2.6981  0.0739
  354MOL0     H48801   2.901   3.082   7.066 -0.1748 -0.4514 -1.4853
  354MOL0     H48802   2.993   3.356   7.133  0.6182  2.0301  0.1868
  354MOL0     H48803   2.823   3.307   7.176  2.4299 -0.0550  1.3774
  354MOL0     H48804   2.911   3.562   7.028 -1.4166  1.7017 -1.4599
  354MOL0     H48805   2.751   3.515   7.028  0.6531  1.4824 -0.4298
  354MOL0     H48806   2.742   3.502   7.273  1.3085 -0.8758  0.5610
  354MOL0     H48807   2.891   3.588   7.280 -0.3039  4.2269 -1.1065
  354MOL0     H48808   2.640   3.692   7.135 -0.3680 -1.6829  1.5747
  354MOL0     H48809   2.705   3.741   7.288  1.3205 -4.6083  2.4168
  354MOL0     H48810   2.551   3.859   7.083  0.7115 -1.2362 -0.8492
  354MOL0     H48811   2.386   4.116   6.929 -0.6895 -0.5772 -0.8514
  354MOL0     H48812   2.372   4.154   7.109 -2.1513  0.3864 -2.2163
  354MOL0     H48813   2.364   3.993   7.041 -1.1481 -0.3227 -0.1339
  354MOL0     H48814   2.861   4.575   7.111  0.0534  0.1990  0.5035
  354MOL0     H48815   2.845   4.815   7.164 -0.7060  0.1539  0.1538
  354MOL0     H48816   2.736   5.135   7.155 -0.8738  3.3307 -1.8546
  354MOL0     H48817   2.819   5.018   7.047 -0.8421  0.6296 -1.3075
  354MOL0     H48818   2.692   5.076   6.859 -2.9047  2.1644 -1.4687
  354MOL0     H48819   2.575   5.169   6.964  0.4361  1.6695  2.1978
  354MOL0     H48820   2.871   5.259   6.956  0.5496 -0.8468 -0.4732
  354MOL0     H48821   2.732   5.316   7.037  2.9911 -2.0837  1.6348
  354MOL0     H48822   2.629   5.371   6.802  0.9383 -1.5661 -0.2524
  354MOL0     H48823   2.780   5.289   6.741  1.6566 -1.7684  1.5580
  354MOL0     H48824   2.764   5.564   6.886 -3.0503 -1.0038  0.0539
  354MOL0     H48825   2.902   5.490   6.816 -0.6039 -4.6095  0.9285
  354MOL0     H48826   2.657   5.609   6.678 -0.5224 -0.3682 -3.4073
  354MOL0     H48827   2.735   5.483   6.589 -4.5422  1.2337 -1.2199
  354MOL0     H48828   2.785   5.758   6.629 -0.8500 -0.0718 -0.7629
  354MOL0     H48829   2.845   5.675   6.496  1.3943  0.1376  0.7456
  354MOL0     H48830   3.038   5.573   6.619  1.4066  0.8389  1.7451
  354MOL0     H48831   3.007   5.693   6.747 -0.7223 -0.5709  0.1849
  354MOL0     H48832   2.450   4.807   6.984 -0.0242 -0.8403  0.9894
  354MOL0     H48833   2.472   4.582   6.964  1.4394  0.4881  0.1941
  354MOL0     H48834   2.868   4.235   7.048 -0.8640  0.0310  1.1269
  354MOL0     H48835   2.939   4.030   7.076  0.5911  2.1576  0.4414
  354MOL0     H48836   2.911   1.880   6.849 -4.0009 -4.4786  1.4828
  354MOL0     H48837   2.735   1.834   7.005 -0.3451  0.0369  1.2595
  354MOL0     H48838   2.264   1.908   6.985  1.3096 -0.5062 -1.1811
  354MOL0     H48839   2.041   1.852   7.066  3.7899 -2.4972 -3.6973
  354MOL0     H48840   1.996   1.731   7.489 -0.3878 -0.1706 -0.7841
  354MOL0     H48841   1.993   1.910   7.488 -0.3035  1.8351 -1.8118
  354MOL0     H48842   1.784   1.800   7.581  0.1061  0.7742  0.2421
  354MOL0     H48843   1.748   1.738   7.415  1.5397 -1.8116  1.4734
  354MOL0     H48844   1.809   2.022   7.503 -2.2226  1.4744  1.2166
  354MOL0     H48845   1.737   1.981   7.354 -0.6093 -0.8691 -0.2258
  354MOL0     H48846   1.601   1.887   7.601 -2.7298 -1.3131  0.0424
  354MOL0     H48847   1.530   1.903   7.442  0.2037 -2.1285  0.3986
  354MOL0     H48848   1.458   2.293   7.580 -2.0401 -1.0716  0.1976
  354MOL0     H48849   2.188   1.840   7.468 -4.4220 -3.6569 -1.4426
  354MOL0     H48850   2.533   1.821   7.387  0.5192  1.8672 -2.2067
  354MOL0     H48851   2.486   1.979   7.435  0.5239 -0.3168  0.1127
  354MOL0     H48852   2.407   1.838   7.518 -2.3410  1.7209 -0.4997
  355MOL0     O48853   6.247   4.073   3.761  0.2373 -0.0660  0.3192
  355MOL0     C48854   6.141   4.081   3.830 -1.0746  0.5682 -0.6175
  355MOL0     O48855   6.126   4.011   3.948 -0.3037 -0.0219  0.3926
  355MOL0     C48856   6.212   3.918   3.981 -0.3457  0.6725  0.0133
  355MOL0     C48857   6.277   3.932   4.105 -0.4816 -0.2176 -0.4252
  355MOL0     C48858   6.372   3.840   4.141 -0.0486 -0.5964 -0.2922
  355MOL0     C48859   6.406   3.737   4.065  0.6485  0.8167 -1.2860
  355MOL0     O48860   6.508   3.654   4.110  0.2539  0.0701 -0.0447
  355MOL0     C48861   6.578   3.576   4.007  0.1101 -0.2961 -0.3908
  355MOL0     C48862   6.715   3.531   4.056 -0.2785  0.0217 -0.7229
  355MOL0     C48863   6.711   3.473   4.203  0.4337 -0.9150  0.4782
  355MOL0     C48864   6.831   3.387   4.253 -0.2141  0.2712 -0.4942
  355MOL0     C48865   6.782   3.273   4.350  0.5418  0.9531  0.4868
  355MOL0     C48866   6.750   3.314   4.488  0.0446 -0.7938 -0.0940
  355MOL0     C48867   6.867   3.381   4.557  0.6746 -0.4209  0.4931
  355MOL0     C48868   6.968   3.282   4.600 -0.4906 -0.2139 -0.0083
  355MOL0     N48869   7.072   3.347   4.684 -0.8822  0.3777 -0.2898
  355MOL0     C48870   7.085   3.321   4.823 -0.0326 -0.1500  0.0787
  355MOL0     C48871   7.159   3.418   4.857 -0.2175 -0.3937 -0.4318
  355MOL0     C48872   7.200   3.450   5.005  1.0716 -0.1045 -0.1582
  355MOL0     C48873   7.079   3.496   5.094 -0.0936  0.1977 -0.1948
  355MOL0     C48874   7.104   3.529   5.241 -0.4654 -0.4420 -0.3099
  355MOL0     C48875   7.184   3.650   5.278  0.0969  0.1396  0.0998
  355MOL0     O48876   7.116   3.762   5.238 -0.8071 -0.6089 -0.3034
  355MOL0     C48877   7.135   3.884   5.301 -0.4937 -0.4617 -0.2884
  355MOL0     C48878   7.217   3.900   5.415 -0.3322  0.2643 -0.2314
  355MOL0     C48879   7.244   4.031   5.467 -0.0001 -0.6500 -0.6040
  355MOL0     C48880   7.348   4.049   5.574  0.3021 -0.6661 -0.0126
  355MOL0     C48881   7.170   4.135   5.404  0.7720 -0.1440  0.4790
  355MOL0     C48882   7.188   4.271   5.463  0.2229  0.5704 -0.2480
  355MOL0     O48883   7.084   4.340   5.525 -0.2382  0.6878 -1.2412
  355MOL0     C48884   6.965   4.276   5.554 -0.2903  0.6749  0.8254
  355MOL0     C48885   6.973   4.153   5.629 -0.7718 -0.4408  0.7211
  355MOL0     C48886   6.856   4.082   5.648 -0.2941  0.0534 -0.0707
  355MOL0     C48887   6.737   4.130   5.605  0.3612  0.7975 -0.1509
  355MOL0     O48888   6.621   4.059   5.615 -0.0209 -0.0354 -0.2618
  355MOL0     C48889   6.612   3.939   5.709  0.3250 -0.1715 -0.2915
  355MOL0     C48890   6.480   3.950   5.785  0.4703 -0.6329 -0.7646
  355MOL0     C48891   6.444   3.809   5.842 -0.1243  0.9453  0.2842
  355MOL0     C48892   6.293   3.794   5.845  0.0948 -0.0604 -0.1148
  355MOL0     C48893   6.250   3.680   5.933 -0.2977  0.9105  0.8954
  355MOL0     C48894   6.099   3.668   5.941  0.0942 -0.0138 -0.5698
  355MOL0     C48895   6.027   3.779   6.025  0.1509 -0.9825 -0.0404
  355MOL0     C48896   5.869   3.799   6.025 -0.1079 -0.2860 -0.3902
  355MOL0    Cl48897   5.801   3.672   6.128  0.2671 -0.2547  0.0698
  355MOL0     C48898   6.735   4.251   5.534  0.3703  0.0333  0.2920
  355MOL0     C48899   6.844   4.331   5.516  0.5705  0.3194  0.3944
  355MOL0     O48900   7.304   4.320   5.448 -0.2300  1.6190  0.5683
  355MOL0     C48901   7.081   4.109   5.307 -1.3306  0.4426  0.0627
  355MOL0     C48902   7.058   3.976   5.260  0.4001 -0.7390  0.2471
  355MOL0     N48903   7.198   3.497   4.748  0.3558 -0.4173 -0.7134
  355MOL0     N48904   7.149   3.450   4.640 -0.5995  0.2828  0.7016
  355MOL0     C48905   6.343   3.712   3.944  0.1360  0.4453  0.1934
  355MOL0     C48906   6.244   3.795   3.904 -0.0596 -0.3655 -0.2998
  355MOL0     C48907   6.044   4.185   3.798 -0.0363  0.2301 -0.6932
  355MOL0     C48908   6.074   4.281   3.699 -0.5545 -0.8383  0.7201
  355MOL0     C48909   6.013   4.402   3.696  0.2561 -0.1036 -0.4669
  355MOL0     C48910   5.898   4.425   3.767  0.1215 -0.5796 -0.0298
  355MOL0     O48911   5.832   4.540   3.728  0.4645 -0.3805 -0.4626
  355MOL0     C48912   5.698   4.563   3.740  0.6424 -0.4278 -0.4057
  355MOL0     C48913   5.644   4.597   3.600  0.1554  0.2249 -0.9538
  355MOL0     C48914   5.677   4.492   3.485 -0.3265  0.0856 -0.1853
  355MOL0     C48915   5.656   4.349   3.510  0.1938 -0.5197 -0.3963
  355MOL0     C48916   5.509   4.319   3.534  0.1992 -0.2830  0.3280
  355MOL0     C48917   5.390   4.315   3.555  0.3919 -0.0581 -0.4200
  355MOL0     C48918   5.855   4.328   3.861  0.7749 -0.6463 -0.0223
  355MOL0     C48919   5.924   4.206   3.878 -0.5624 -0.3087  0.0217
  355MOL0     C48920   5.859   4.109   3.979 -0.2379 -0.9672  0.0120
  355MOL0     H48921   6.251   4.011   4.175  3.3962  0.1814  0.7842
  355MOL0     H48922   6.428   3.850   4.233  1.2777  0.1081 -1.1474
  355MOL0     H48923   6.591   3.625   3.911  0.8166 -0.9961 -0.6661
  355MOL0     H48924   6.526   3.483   3.980 -1.0129  1.3652 -4.7016
  355MOL0     H48925   6.760   3.452   3.996  0.6802 -1.4357  1.7744
  355MOL0     H48926   6.784   3.615   4.069 -2.5047  1.6364  1.5786
  355MOL0     H48927   6.705   3.557   4.272 -0.1077  0.2306 -0.9155
  355MOL0     H48928   6.620   3.415   4.221 -0.1540 -0.4150 -0.7846
  355MOL0     H48929   6.877   3.344   4.163 -1.6474 -0.5562 -0.8587
  355MOL0     H48930   6.908   3.445   4.304 -1.7354 -1.0892  3.8090
  355MOL0     H48931   6.873   3.212   4.353  2.4351  3.6192  0.7017
  355MOL0     H48932   6.700   3.218   4.302  1.2840 -2.3283  2.7093
  355MOL0     H48933   6.671   3.390   4.485  0.7845  0.7581  5.8489
  355MOL0     H48934   6.713   3.240   4.559  0.5953 -0.4867  0.5233
  355MOL0     H48935   6.819   3.399   4.654 -1.3580 -1.9702 -0.1514
  355MOL0     H48936   6.913   3.470   4.514  0.5892 -0.7342 -0.2565
  355MOL0     H48937   6.919   3.204   4.658 -1.2465  1.2940  1.4468
  355MOL0     H48938   7.016   3.241   4.511  2.1367  2.7627 -0.1459
  355MOL0     H48939   7.043   3.242   4.884 -1.6414  1.3867  1.0451
  355MOL0     H48940   7.269   3.535   5.010  0.8106  0.0882  4.0011
  355MOL0     H48941   7.255   3.367   5.049 -0.0455 -0.2998  0.9112
  355MOL0     H48942   7.031   3.575   5.035 -1.2238  1.7198  2.6112
  355MOL0     H48943   7.017   3.405   5.093  0.2784 -0.0674  0.3214
  355MOL0     H48944   7.003   3.547   5.279  0.5592  0.3245  2.2266
  355MOL0     H48945   7.139   3.443   5.298 -2.1778 -2.6086 -2.3199
  355MOL0     H48946   7.179   3.656   5.387 -0.9970 -0.7301  0.1202
  355MOL0     H48947   7.285   3.653   5.235 -0.6943  0.3712 -1.8412
  355MOL0     H48948   7.267   3.815   5.460 -2.0975 -2.0189 -2.2803
  355MOL0     H48949   7.344   3.959   5.636  1.6618  0.3406  1.5906
  355MOL0     H48950   7.322   4.142   5.626  2.0507  2.0044 -3.4644
  355MOL0     H48951   7.449   4.053   5.533  0.7708 -0.2031  1.1588
  355MOL0     H48952   7.069   4.125   5.672 -1.2774 -2.7797  0.4827
  355MOL0     H48953   6.866   3.986   5.697 -2.3516  1.1097  2.7058
  355MOL0     H48954   6.606   3.858   5.635 -1.0309 -0.2217 -0.1606
  355MOL0     H48955   6.693   3.915   5.777 -1.6498 -0.4764  2.0988
  355MOL0     H48956   6.477   4.025   5.864 -1.7426 -2.8494  1.4197
  355MOL0     H48957   6.398   3.971   5.715 -1.1841 -1.7030  0.7709
  355MOL0     H48958   6.472   3.808   5.948 -1.5047  0.4828  0.6608
  355MOL0     H48959   6.496   3.740   5.775  0.4724  3.8809 -2.5087
  355MOL0     H48960   6.263   3.770   5.743  0.6587 -1.9280  0.1315
  355MOL0     H48961   6.255   3.893   5.871  0.0358 -0.3067  0.7662
  355MOL0     H48962   6.298   3.593   5.887 -2.5673  0.1308 -0.1274
  355MOL0     H48963   6.288   3.690   6.035 -0.8481 -0.1821  1.2271
  355MOL0     H48964   6.075   3.571   5.984  0.6394 -0.3375 -0.9786
  355MOL0     H48965   6.063   3.656   5.838 -1.3454 -4.8671  0.2709
  355MOL0     H48966   6.068   3.874   5.989 -3.3370  0.8074  0.2937
  355MOL0     H48967   6.053   3.778   6.131  1.2054  0.1585 -0.2650
  355MOL0     H48968   5.825   3.791   5.925 -1.1431 -0.9277  0.0991
  355MOL0     H48969   5.844   3.900   6.058  0.2182  0.4208 -2.1892
  355MOL0     H48970   6.639   4.278   5.491  0.2591 -1.2315 -0.2971
  355MOL0     H48971   6.840   4.422   5.457  0.4393 -0.1972 -0.4070
  355MOL0     H48972   7.032   4.192   5.258 -1.0980  0.3702 -0.2944
  355MOL0     H48973   6.991   3.948   5.180  2.6435  0.8289 -2.3748
  355MOL0     H48974   6.368   3.633   3.875 -2.2945  0.4707 -0.8395
  355MOL0     H48975   6.189   3.769   3.814  0.9306  0.7940 -1.2686
  355MOL0     H48976   6.153   4.283   3.625  0.6494 -0.6524  1.9542
  355MOL0     H48977   6.036   4.476   3.620  0.8421 -0.0168 -0.2100
  355MOL0     H48978   5.638   4.483   3.784 -3.5921  2.2917 -0.5966
  355MOL0     H48979   5.680   4.654   3.798 -0.3588  0.7170 -2.3758
  355MOL0     H48980   5.686   4.689   3.558  2.1934 -1.8170 -3.7926
  355MOL0     H48981   5.535   4.606   3.599  0.1973  0.8665 -0.4333
  355MOL0     H48982   5.620   4.520   3.396 -1.6082 -3.6657 -0.7324
  355MOL0     H48983   5.783   4.495   3.457  0.1026 -0.3610  1.3111
  355MOL0     H48984   5.709   4.315   3.599 -2.7288 -2.3772  0.7557
  355MOL0     H48985   5.686   4.295   3.419  2.9829  0.6188 -0.2503
  355MOL0     H48986   5.286   4.294   3.568  0.3334  1.5645  2.4950
  355MOL0     H48987   5.767   4.351   3.922  0.0770  0.8375 -1.5234
  355MOL0     H48988   5.750   4.119   3.982 -0.0487  2.1095 -0.8054
  355MOL0     H48989   5.883   4.008   3.943  0.9015  0.9583 -5.5532
  355MOL0     H48990   5.898   4.129   4.079 -2.8320  1.7446  0.6312
  356MOL0     O48991   3.179   5.157   6.754 -0.2969  0.2116 -0.3248
  356MOL0     C48992   3.181   5.068   6.671  0.4508 -0.2943 -0.9119
  356MOL0     O48993   3.155   5.073   6.541  0.0512 -0.0442 -0.2922
  356MOL0     C48994   3.094   5.182   6.493  0.7554  0.8859 -0.3147
  356MOL0     C48995   3.149   5.305   6.481  0.7515 -0.4619  0.4713
  356MOL0     C48996   3.085   5.410   6.404 -0.1009 -0.3074 -0.1155
  356MOL0     C48997   2.955   5.395   6.353  0.6030 -0.6426 -0.2331
  356MOL0     O48998   2.885   5.502   6.302 -0.3317  0.3717 -0.3935
  356MOL0     C48999   2.832   5.493   6.168 -0.6518 -0.4096  0.1294
  356MOL0     C49000   2.922   5.585   6.087 -1.2065 -0.7188 -0.1414
  356MOL0     C49001   2.945   5.724   6.148  0.0152 -0.4886  0.0115
  356MOL0     C49002   3.007   5.822   6.056 -0.1822  0.0103 -1.4064
  356MOL0     C49003   3.040   5.943   6.136 -0.2518 -0.5333  1.2129
  356MOL0     C49004   3.099   6.043   6.040 -0.6374  0.7918  0.4606
  356MOL0     C49005   2.991   6.148   5.995  0.3217  1.1539 -0.4713
  356MOL0     C49006   3.040   6.244   5.883 -0.5324 -0.2346 -0.2948
  356MOL0     N49007   2.935   6.303   5.801  0.2877 -0.1537 -0.1801
  356MOL0     C49008   2.893   6.437   5.803 -0.3201 -0.1128 -0.4813
  356MOL0     C49009   2.791   6.434   5.718  0.0248 -0.6281  0.2484
  356MOL0     C49010   2.720   6.565   5.673  0.3010 -0.1420 -0.2023
  356MOL0     C49011   2.763   6.611   5.531  0.5940 -0.4475  0.0040
  356MOL0     C49012   2.682   6.731   5.474  0.2437 -0.1259 -0.5243
  356MOL0     C49013   2.762   6.809   5.366  0.6207  0.0909 -0.4553
  356MOL0     O49014   2.694   6.924   5.304 -0.1140  0.1423 -0.4163
  356MOL0     C49015   2.765   6.987   5.199 -1.2499  0.0326  0.5470
  356MOL0     C49016   2.713   7.101   5.144 -0.1642 -0.4095 -0.7886
  356MOL0     C49017   2.784   7.189   5.059  0.2334 -0.2818 -0.5101
  356MOL0     C49018   2.705   7.319   5.021 -0.1044  0.0076  0.0802
  356MOL0     C49019   2.921   7.158   5.024  0.4170  0.3214  0.1774
  356MOL0     C49020   2.999   7.250   4.941  0.4779  0.4931  0.1336
  356MOL0     O49021   2.984   7.385   4.974  0.0661  0.2502  0.2148
  356MOL0     C49022   3.047   7.484   4.898  0.2500 -0.7470 -0.0746
  356MOL0     C49023   3.185   7.474   4.876 -0.5965 -0.0687 -0.3239
  356MOL0     C49024   3.249   7.565   4.788 -0.5050 -1.1850 -0.3202
  356MOL0     C49025   3.172   7.646   4.708 -0.3493 -0.2211  0.2337
  356MOL0     O49026   3.230   7.730   4.618  0.4839  0.1988 -0.0784
  356MOL0     C49027   3.223   7.703   4.480 -0.1639 -0.2097  0.1673
  356MOL0     C49028   3.230   7.844   4.418 -0.0903  0.4848  0.0547
  356MOL0     C49029   3.349   7.923   4.456  0.2356  0.3561 -0.9052
  356MOL0     C49030   3.343   8.057   4.376 -0.3944 -0.1467  0.0795
  356MOL0     C49031   3.464   8.135   4.424 -0.8018 -1.0692  0.5713
  356MOL0     C49032   3.448   8.276   4.361  0.9903  0.0740  0.9649
  356MOL0     C49033   3.585   8.358   4.356  0.7470  0.2375 -1.5599
  356MOL0     C49034   3.570   8.493   4.272 -0.0309 -0.4134 -0.4279
  356MOL0    Cl49035   3.465   8.608   4.354  0.1649  0.1658 -0.0283
  356MOL0     C49036   3.036   7.653   4.720 -0.4177 -0.1281  0.4752
  356MOL0     C49037   2.971   7.579   4.824  0.9354 -1.0758  0.0975
  356MOL0     O49038   3.084   7.201   4.861 -0.3285 -0.2490 -0.4798
  356MOL0     C49039   2.964   7.022   5.059  0.5700 -0.5852  0.7118
  356MOL0     C49040   2.888   6.948   5.148 -0.5498  0.1356 -0.3576
  356MOL0     N49041   2.763   6.307   5.677 -0.1528 -0.6895  0.5162
  356MOL0     N49042   2.852   6.225   5.725 -0.0519  0.0423 -0.2931
  356MOL0     C49043   2.893   5.274   6.378 -0.3612  0.7780 -0.6159
  356MOL0     C49044   2.967   5.168   6.440  0.2861  0.4719  0.3766
  356MOL0     C49045   3.250   4.943   6.702  0.9443 -0.0728 -0.8698
  356MOL0     C49046   3.353   4.899   6.619  0.9273  0.4779  0.3939
  356MOL0     C49047   3.424   4.778   6.657 -0.0203 -1.3352  0.7197
  356MOL0     C49048   3.390   4.708   6.777 -1.3044 -0.5917 -0.3095
  356MOL0     O49049   3.463   4.597   6.821  0.7928 -0.4296  0.1410
  356MOL0     C49050   3.580   4.562   6.741  0.6035 -0.2478  0.4441
  356MOL0     C49051   3.647   4.438   6.788  0.9787  0.8763  0.7217
  356MOL0     C49052   3.753   4.384   6.685 -0.4575 -0.1879 -0.3673
  356MOL0     C49053   3.844   4.265   6.725 -0.2179 -0.4818  0.1021
  356MOL0     C49054   3.932   4.308   6.836  0.1095 -0.6227  0.2558
  356MOL0     C49055   4.011   4.342   6.919  0.1154 -0.2973 -0.2257
  356MOL0     C49056   3.293   4.763   6.858  0.2707  0.0247 -0.6937
  356MOL0     C49057   3.209   4.868   6.815  0.1087  0.0765 -0.0108
  356MOL0     C49058   3.084   4.899   6.891 -0.3939 -0.2274 -0.0072
  356MOL0     H49059   3.250   5.311   6.519  0.9882 -1.1272 -0.0239
  356MOL0     H49060   3.140   5.498   6.371 -1.8454  1.0060  0.3192
  356MOL0     H49061   2.728   5.527   6.170 -0.4210  0.5198 -1.5297
  356MOL0     H49062   2.834   5.389   6.134 -1.1016 -1.0829  2.0456
  356MOL0     H49063   3.021   5.547   6.059 -1.7917 -1.9382 -0.6321
  356MOL0     H49064   2.876   5.586   5.988  0.7004  0.6585 -1.0839
  356MOL0     H49065   2.850   5.758   6.190 -0.6300 -1.7372 -0.3685
  356MOL0     H49066   3.020   5.709   6.226  3.1080  1.3816 -2.3964
  356MOL0     H49067   3.104   5.786   6.019 -0.2477  1.1590 -2.7463
  356MOL0     H49068   2.938   5.851   5.977 -1.0132  2.7099  0.2003
  356MOL0     H49069   3.116   5.926   6.213  0.6759 -0.6808  0.2899
  356MOL0     H49070   2.958   5.990   6.191  0.9405  1.5394  1.3672
  356MOL0     H49071   3.182   6.096   6.088 -0.5667  2.7175 -1.6017
  356MOL0     H49072   3.155   6.001   5.955 -0.1600 -1.7825  1.9408
  356MOL0     H49073   2.953   6.203   6.082  3.8794  0.7402  1.5251
  356MOL0     H49074   2.906   6.084   5.971 -0.2226  2.0189 -0.8950
  356MOL0     H49075   3.119   6.313   5.914  3.9915 -4.2405 -1.4545
  356MOL0     H49076   3.086   6.183   5.804 -2.1427 -0.3919 -1.1536
  356MOL0     H49077   2.939   6.527   5.840  2.0493 -1.8084  0.9736
  356MOL0     H49078   2.754   6.643   5.742 -0.5458 -1.9412  2.3775
  356MOL0     H49079   2.612   6.549   5.674  0.4520 -1.2683 -0.5644
  356MOL0     H49080   2.870   6.633   5.544 -0.0653  1.8217  3.0281
  356MOL0     H49081   2.752   6.523   5.468 -1.0297 -2.4065  2.7967
  356MOL0     H49082   2.585   6.708   5.430  0.4884 -1.1815 -0.5183
  356MOL0     H49083   2.656   6.792   5.561  0.0650 -1.7992  0.6451
  356MOL0     H49084   2.859   6.840   5.407  0.3843  0.5650 -0.2511
  356MOL0     H49085   2.778   6.735   5.287 -0.4220  0.4816 -1.0520
  356MOL0     H49086   2.617   7.140   5.178 -1.7540 -2.1455 -2.9366
  356MOL0     H49087   2.731   7.351   4.920 -0.0438 -0.3727 -0.0286
  356MOL0     H49088   2.736   7.396   5.093  2.1447 -2.2903  1.8032
  356MOL0     H49089   2.597   7.305   5.019 -0.7391  2.8340  3.5848
  356MOL0     H49090   3.244   7.394   4.918  2.0305  0.7341 -2.2490
  356MOL0     H49091   3.356   7.579   4.778 -0.3139 -0.2657  2.3180
  356MOL0     H49092   3.294   7.630   4.440 -2.2511 -2.3492  0.1200
  356MOL0     H49093   3.122   7.668   4.457 -0.9037  0.9683  1.4624
  356MOL0     H49094   3.233   7.827   4.310 -0.7503  0.8205 -0.0209
  356MOL0     H49095   3.139   7.902   4.436 -0.4522  0.2758 -1.0365
  356MOL0     H49096   3.440   7.863   4.460 -0.9064 -1.4667  3.1599
  356MOL0     H49097   3.347   7.956   4.560  0.5218  0.3113 -0.8851
  356MOL0     H49098   3.252   8.114   4.395 -1.4012 -1.9360  0.8838
  356MOL0     H49099   3.343   8.034   4.269 -1.5946 -1.3961  0.3123
  356MOL0     H49100   3.482   8.146   4.532  1.8517  0.0085  0.0932
  356MOL0     H49101   3.550   8.082   4.381 -2.3804 -2.9256 -0.4418
  356MOL0     H49102   3.368   8.334   4.406 -0.2330  0.8724 -2.0079
  356MOL0     H49103   3.417   8.249   4.259 -2.3301  0.4980  1.7575
  356MOL0     H49104   3.664   8.301   4.307 -0.2249 -3.1795  0.4851
  356MOL0     H49105   3.619   8.380   4.458 -0.2697  0.2104 -1.2057
  356MOL0     H49106   3.524   8.471   4.175 -2.7906 -0.9521  0.8801
  356MOL0     H49107   3.667   8.543   4.265 -0.6739  0.8133 -0.7630
  356MOL0     H49108   2.974   7.715   4.655  0.7250  1.0268  0.4519
  356MOL0     H49109   2.865   7.578   4.844  1.2237 -0.3316  1.8540
  356MOL0     H49110   3.064   6.987   5.038 -0.7225 -2.8513 -2.5558
  356MOL0     H49111   2.942   6.868   5.197 -2.3830 -0.3148  1.0129
  356MOL0     H49112   2.787   5.254   6.368  0.0687 -2.8193  0.4678
  356MOL0     H49113   2.918   5.073   6.460 -0.9118  0.7677 -1.0237
  356MOL0     H49114   3.377   4.950   6.526 -3.3653  1.0764 -0.6336
  356MOL0     H49115   3.505   4.756   6.588 -0.6711 -3.0460  0.4399
  356MOL0     H49116   3.547   4.538   6.639  1.7742 -2.0113  0.4462
  356MOL0     H49117   3.644   4.651   6.743  0.2336  0.0119  2.0193
  356MOL0     H49118   3.571   4.362   6.808  2.0204 -0.4919 -0.3105
  356MOL0     H49119   3.695   4.461   6.883 -3.0652  2.4306  2.6222
  356MOL0     H49120   3.708   4.354   6.590 -0.4820  3.2746 -1.6065
  356MOL0     H49121   3.817   4.471   6.668 -0.1285 -0.8386 -2.7200
  356MOL0     H49122   3.909   4.244   6.640  0.2093  2.1863 -0.3036
  356MOL0     H49123   3.793   4.172   6.755  1.1114 -1.4100 -0.4239
  356MOL0     H49124   4.082   4.367   6.996 -0.7459  1.2291  0.1269
  356MOL0     H49125   3.285   4.726   6.960 -1.2000  1.5865 -0.2140
  356MOL0     H49126   3.101   4.992   6.947  3.5105 -1.2969  0.8946
  356MOL0     H49127   2.995   4.892   6.828 -0.5990  1.7286  0.0017
  356MOL0     H49128   3.066   4.824   6.968 -1.7910  1.1482  1.0656
  357MOL0     O49129   5.515   8.237   3.144  0.1889 -0.1764 -0.5005
  357MOL0     C49130   5.573   8.137   3.104 -0.3759 -0.2624  0.1274
  357MOL0     O49131   5.687   8.074   3.161  0.2150 -0.3274 -0.3060
  357MOL0     C49132   5.738   8.112   3.288  0.0267  0.1663 -0.2054
  357MOL0     C49133   5.687   8.204   3.391  0.0490  0.1726  0.9904
  357MOL0     C49134   5.756   8.226   3.516 -0.1463 -0.3087 -0.6025
  357MOL0     C49135   5.870   8.157   3.548 -0.0178  1.0664  0.1710
  357MOL0     O49136   5.949   8.166   3.662 -0.6777  1.0888 -0.2771
  357MOL0     C49137   5.894   8.234   3.774 -0.5591  0.2471 -1.3137
  357MOL0     C49138   6.002   8.242   3.875 -0.8245 -0.2818  0.5303
  357MOL0     C49139   5.948   8.284   4.016 -0.8720 -0.1056 -0.1630
  357MOL0     C49140   6.065   8.301   4.109 -0.4559 -0.0368  0.4623
  357MOL0     C49141   6.128   8.170   4.155 -0.2053  0.0910  0.4489
  357MOL0     C49142   6.146   8.166   4.310 -0.3263 -0.6066  0.6147
  357MOL0     C49143   6.005   8.161   4.378  0.0624 -0.1312 -0.5367
  357MOL0     C49144   6.003   8.076   4.505  0.5118 -0.5991 -0.8696
  357MOL0     N49145   6.065   8.139   4.628  1.1007  0.7718  0.1655
  357MOL0     C49146   6.196   8.175   4.647  0.9774 -0.9111 -0.3057
  357MOL0     C49147   6.188   8.249   4.756  0.0480  0.0034 -0.5889
  357MOL0     C49148   6.317   8.290   4.819 -0.4825  0.2021  0.1949
  357MOL0     C49149   6.300   8.314   4.967  0.9204  0.9534  0.9264
  357MOL0     C49150   6.429   8.338   5.041 -0.7866  0.7286  0.2360
  357MOL0     C49151   6.419   8.320   5.199  0.1819  0.2475  0.6660
  357MOL0     O49152   6.520   8.394   5.265  0.7005 -0.5449 -0.4981
  357MOL0     C49153   6.650   8.358   5.243  1.1497 -0.1587  0.8224
  357MOL0     C49154   6.705   8.231   5.241  0.2276  0.8458  1.1693
  357MOL0     C49155   6.841   8.206   5.213  0.2359  0.5224  0.5323
  357MOL0     C49156   6.883   8.062   5.224  0.1511  0.2118 -0.1375
  357MOL0     C49157   6.920   8.321   5.171  0.5507  0.0172  1.2562
  357MOL0     C49158   7.064   8.306   5.131 -0.0718 -0.8148 -0.4818
  357MOL0     O49159   7.102   8.390   5.028  0.4418  0.6772  1.0074
  357MOL0     C49160   7.239   8.395   5.005 -0.1462 -0.2453  0.3229
  357MOL0     C49161   7.275   8.359   4.877  0.2653 -0.0365 -0.3509
  357MOL0     C49162   7.408   8.375   4.822  0.2381 -0.0217 -0.2478
  357MOL0     C49163   7.507   8.409   4.913  0.1652 -0.5881 -0.4580
  357MOL0     O49164   7.633   8.416   4.861  0.2286 -0.0586  0.0483
  357MOL0     C49165   7.751   8.416   4.954 -0.4126  0.6962 -0.4094
  357MOL0     C49166   7.808   8.556   4.966 -0.4241  0.3218 -1.0012
  357MOL0     C49167   7.887   8.568   5.099  0.3830  0.6222 -0.6076
  357MOL0     C49168   8.023   8.519   5.065 -0.5870  0.8684 -0.4947
  357MOL0     C49169   8.100   8.462   5.186 -0.6975  0.1138  0.1235
  357MOL0     C49170   8.146   8.572   5.283  0.0755  0.1966 -0.4510
  357MOL0     C49171   8.271   8.639   5.231 -0.4357 -0.3051  0.2693
  357MOL0     C49172   8.269   8.793   5.258 -0.3071  0.0874 -0.4062
  357MOL0    Cl49173   8.270   8.834   5.436 -0.4780  0.1756 -0.2590
  357MOL0     C49174   7.475   8.420   5.049 -0.6322  0.5549 -0.5271
  357MOL0     C49175   7.345   8.415   5.092  0.9407 -0.1698 -1.0139
  357MOL0     O49176   7.138   8.225   5.190 -0.6757 -0.1506 -0.2797
  357MOL0     C49177   6.862   8.453   5.172 -0.5954 -0.3210  0.1171
  357MOL0     C49178   6.729   8.464   5.209 -0.0029 -0.0496 -0.2606
  357MOL0     N49179   6.065   8.256   4.801 -0.0296 -0.3467 -0.3363
  357MOL0     N49180   5.985   8.186   4.728 -0.7756 -0.2744 -0.4747
  357MOL0     C49181   5.913   8.058   3.449 -1.3508 -1.3404 -0.1354
  357MOL0     C49182   5.851   8.036   3.324  0.0518 -0.2254  1.5387
  357MOL0     C49183   5.520   8.056   2.992  0.9772 -0.4910  1.1497
  357MOL0     C49184   5.580   7.927   2.972  0.1570  0.3699 -0.6680
  357MOL0     C49185   5.525   7.831   2.885 -0.8417 -0.0014  1.2758
  357MOL0     C49186   5.417   7.868   2.802  0.2134 -0.8301  0.9150
  357MOL0     O49187   5.370   7.769   2.713 -0.3011  0.1800  0.0621
  357MOL0     C49188   5.273   7.806   2.613 -0.2052  0.7664  0.3874
  357MOL0     C49189   5.236   7.676   2.529  0.2774 -0.2845  0.2637
  357MOL0     C49190   5.129   7.600   2.590 -0.0912  0.7120  0.1178
  357MOL0     C49191   5.090   7.474   2.505 -0.5796  0.8673 -0.0762
  357MOL0     C49192   5.190   7.368   2.502 -0.1788 -0.0589 -0.8696
  357MOL0     C49193   5.263   7.271   2.489 -0.3705  0.2064 -0.9251
  357MOL0     C49194   5.372   7.999   2.808  0.4890 -0.0087  0.1182
  357MOL0     C49195   5.422   8.096   2.896 -0.4410  0.4232  0.5919
  357MOL0     C49196   5.359   8.240   2.897  0.6428  0.3107  0.9086
  357MOL0     H49197   5.607   8.266   3.354 -0.4796 -1.3595 -0.5685
  357MOL0     H49198   5.723   8.317   3.565  2.2988  1.1504 -1.5408
  357MOL0     H49199   5.813   8.184   3.828  0.2449  1.4643  1.1635
  357MOL0     H49200   5.858   8.335   3.752 -0.2694  1.1534  1.9507
  357MOL0     H49201   6.042   8.141   3.885  0.1743  0.2779  3.0393
  357MOL0     H49202   6.078   8.314   3.845 -1.5347  2.0369  3.7020
  357MOL0     H49203   5.904   8.383   4.007  0.7852  0.9041  1.9504
  357MOL0     H49204   5.882   8.213   4.067 -0.2923 -0.5429 -0.0077
  357MOL0     H49205   6.140   8.369   4.066  1.6549 -1.2575  1.9855
  357MOL0     H49206   6.025   8.352   4.197 -1.7121 -0.6751  0.2830
  357MOL0     H49207   6.226   8.163   4.107 -0.5092  2.4165 -0.6626
  357MOL0     H49208   6.075   8.079   4.125  2.6920 -1.8398  0.8143
  357MOL0     H49209   6.213   8.086   4.342  3.0893  1.7036 -0.2069
  357MOL0     H49210   6.193   8.261   4.335  0.8903 -0.6071 -1.4648
  357MOL0     H49211   5.937   8.111   4.309 -1.1064 -2.6490  2.2251
  357MOL0     H49212   5.973   8.263   4.398 -0.1145 -0.8451  3.7193
  357MOL0     H49213   5.900   8.042   4.519  0.8053 -1.7870 -1.4535
  357MOL0     H49214   6.069   7.991   4.483  2.0952  0.1242  0.8650
  357MOL0     H49215   6.284   8.147   4.590  0.5360  2.6453 -3.0837
  357MOL0     H49216   6.344   8.386   4.775  3.6910  0.7720  3.3536
  357MOL0     H49217   6.391   8.214   4.793 -2.0574 -1.6728  0.9066
  357MOL0     H49218   6.217   8.383   4.988  0.8381  0.6149  1.7754
  357MOL0     H49219   6.265   8.213   4.988 -0.5901  0.7324 -2.1483
  357MOL0     H49220   6.503   8.268   5.003 -4.0546 -2.0477 -1.5451
  357MOL0     H49221   6.462   8.436   5.005  1.8482 -0.0435  0.3292
  357MOL0     H49222   6.324   8.353   5.243  0.3803  3.8385 -1.2010
  357MOL0     H49223   6.432   8.215   5.227 -0.0063 -0.1320 -0.6197
  357MOL0     H49224   6.638   8.155   5.281  0.4836  0.6640  1.2509
  357MOL0     H49225   6.797   7.994   5.219  0.4821 -0.1654 -0.8667
  357MOL0     H49226   6.939   8.042   5.315  2.1632 -0.9313 -1.5465
  357MOL0     H49227   6.951   8.039   5.141 -0.1183 -2.5905  0.3059
  357MOL0     H49228   7.190   8.340   4.812  0.6814  0.2248 -0.9812
  357MOL0     H49229   7.434   8.367   4.717  1.7367  0.3684  0.0721
  357MOL0     H49230   7.733   8.373   5.053  1.9608  1.1593  0.2749
  357MOL0     H49231   7.825   8.347   4.915  0.6031  0.0720  2.3697
  357MOL0     H49232   7.872   8.576   4.879  1.9216  0.2864  0.6282
  357MOL0     H49233   7.724   8.626   4.964 -0.8204 -0.1359 -0.6484
  357MOL0     H49234   7.830   8.519   5.178  2.5187  1.0498  1.3127
  357MOL0     H49235   7.898   8.669   5.140  2.8720 -0.1102  0.7807
  357MOL0     H49236   8.068   8.608   5.020  1.7514  0.6810  1.3526
  357MOL0     H49237   8.004   8.428   5.007 -4.6656  0.3005  1.3954
  357MOL0     H49238   8.028   8.397   5.237  0.5181 -1.4749 -0.1186
  357MOL0     H49239   8.179   8.389   5.165 -0.1929  1.2079 -2.0203
  357MOL0     H49240   8.164   8.524   5.380  5.3622  0.6821 -0.8805
  357MOL0     H49241   8.075   8.655   5.290 -1.5000 -0.7995 -3.1688
  357MOL0     H49242   8.278   8.602   5.128  2.5189 -0.5024  0.4526
  357MOL0     H49243   8.371   8.612   5.264  0.5901 -1.1779 -3.1726
  357MOL0     H49244   8.173   8.828   5.218 -1.5088 -0.6309  1.6856
  357MOL0     H49245   8.360   8.842   5.224 -2.0120  4.1994  0.3152
  357MOL0     H49246   7.556   8.431   5.120 -1.2473  0.9875  0.1123
  357MOL0     H49247   7.329   8.435   5.197  1.9423 -2.2273 -0.4110
  357MOL0     H49248   6.933   8.533   5.156  0.7753 -1.1847  1.6635
  357MOL0     H49249   6.687   8.564   5.219 -1.4607 -0.4641 -1.7725
  357MOL0     H49250   6.002   8.005   3.478  0.4519  1.6275  0.1620
  357MOL0     H49251   5.891   7.961   3.257 -0.9092  2.1011 -1.9597
  357MOL0     H49252   5.669   7.885   3.018 -0.0036  0.5127 -0.2264
  357MOL0     H49253   5.557   7.729   2.866 -0.9475  0.3559 -1.1444
  357MOL0     H49254   5.188   7.865   2.647 -0.4116  0.0408  1.1557
  357MOL0     H49255   5.332   7.863   2.540 -0.2065  1.2320  0.7503
  357MOL0     H49256   5.327   7.617   2.522  1.3780  1.4152 -0.5708
  357MOL0     H49257   5.201   7.704   2.429 -1.2049 -1.7535  0.3362
  357MOL0     H49258   5.173   7.552   2.678 -0.9995  0.3870  0.4015
  357MOL0     H49259   5.048   7.670   2.609 -0.5982  0.1295  0.1487
  357MOL0     H49260   5.071   7.515   2.405  1.6675 -0.5776 -1.1720
  357MOL0     H49261   4.998   7.440   2.553 -1.2278 -0.1033 -1.8910
  357MOL0     H49262   5.332   7.189   2.490 -0.0046  0.4940  0.5797
  357MOL0     H49263   5.307   8.026   2.725 -1.1890 -1.7833  0.7947
  357MOL0     H49264   5.298   8.254   2.987 -1.1995  2.4496 -0.5490
  357MOL0     H49265   5.442   8.311   2.897  0.5628  0.4248  1.7965
  357MOL0     H49266   5.287   8.261   2.817  1.3844  2.2524  0.6941
  358MOL0     O49267   1.206   5.836  10.750 -0.2413 -0.1146 -0.4688
  358MOL0     C49268   1.236   5.951  10.714  0.9584  1.1683 -0.0408
  358MOL0     O49269   1.149   6.052  10.702 -0.1875 -0.3816 -0.1554
  358MOL0     C49270   1.013   6.023  10.722 -0.3277 -0.2512 -0.0964
  358MOL0     C49271   0.943   6.105  10.806  0.7038 -0.9425  0.0049
  358MOL0     C49272   0.810   6.094  10.824 -0.1418 -0.0967 -0.1935
  358MOL0     C49273   0.739   6.008  10.750 -0.2913  0.0951  0.0033
  358MOL0     O49274   0.601   6.001  10.768 -0.6457 -0.1558  0.5905
  358MOL0     C49275   0.534   5.885  10.722  0.4506 -0.0553  0.1137
  358MOL0     C49276   0.387   5.882  10.772  0.7665 -0.4286  0.2027
  358MOL0     C49277   0.307   5.770  10.692  0.0314  0.1091 -0.3067
  358MOL0     C49278   0.353   5.633  10.744 -0.3500 -0.0309 -1.1814
  358MOL0     C49279   0.270   5.522  10.690 -0.5433  0.2745  0.1315
  358MOL0     C49280   0.127   5.493  10.754 -1.1625  1.3617 -0.0207
  358MOL0     C49281   0.054   5.378  10.685  0.4064  0.0450 -0.0273
  358MOL0     C49282  -0.051   5.313  10.780  0.0458  0.6987 -0.1889
  358MOL0     N49283  -0.174   5.400  10.786 -0.0018  0.1540  0.4436
  358MOL0     C49284  -0.192   5.519  10.851 -0.7073  0.3496  0.2402
  358MOL0     C49285  -0.322   5.539  10.825 -1.2380  0.4793 -0.5797
  358MOL0     C49286  -0.380   5.647  10.898 -0.1384  0.0378  0.5099
  358MOL0     C49287  -0.473   5.732  10.821  0.5235  0.2374 -0.0167
  358MOL0     C49288  -0.532   5.848  10.903  0.4497 -0.4205 -0.5281
  358MOL0     C49289  -0.601   5.806  11.033  0.3425  0.0325  0.2315
  358MOL0     O49290  -0.593   5.911  11.139 -0.1272 -0.8368  0.3260
  358MOL0     C49291  -0.669   6.023  11.116 -1.2495 -0.0601  0.8951
  358MOL0     C49292  -0.623   6.143  11.170 -0.3069  0.2649  0.4535
  358MOL0     C49293  -0.692   6.260  11.160  0.5265  0.4856  0.8521
  358MOL0     C49294  -0.633   6.380  11.224  0.1185 -1.2818  0.0315
  358MOL0     C49295  -0.811   6.265  11.083 -0.4680  0.1447  0.0261
  358MOL0     C49296  -0.895   6.385  11.069  0.7619 -0.3517 -0.0303
  358MOL0     O49297  -1.027   6.366  11.042 -0.3585  0.2954 -0.7022
  358MOL0     C49298  -1.129   6.439  11.104  0.4303 -0.2943  0.2172
  358MOL0     C49299  -1.264   6.396  11.071 -0.0318  1.0910  0.7148
  358MOL0     C49300  -1.378   6.442  11.125  0.4581  0.3686 -0.1373
  358MOL0     C49301  -1.363   6.538  11.227 -0.2639 -0.5354  0.0921
  358MOL0     O49302  -1.461   6.609  11.298 -0.7417 -0.5855 -0.0454
  358MOL0     C49303  -1.599   6.592  11.254  0.2714  0.0281  0.8206
  358MOL0     C49304  -1.694   6.675  11.349  0.3399  0.1926 -0.2260
  358MOL0     C49305  -1.644   6.819  11.361 -0.0779  0.2126 -0.5972
  358MOL0     C49306  -1.761   6.910  11.407  0.0396 -1.1037  0.0721
  358MOL0     C49307  -1.708   7.053  11.434  0.2266 -0.0394 -0.1013
  358MOL0     C49308  -1.822   7.162  11.465  0.5849  0.3594  0.5410
  358MOL0     C49309  -1.772   7.285  11.531  0.6006 -0.2833  0.4856
  358MOL0     C49310  -1.687   7.371  11.439 -0.0110 -0.4770  0.7580
  358MOL0    Cl49311  -1.683   7.532  11.512 -0.2392  0.0885  0.0315
  358MOL0     C49312  -1.236   6.592  11.252  0.2482  0.1609 -0.7204
  358MOL0     C49313  -1.117   6.550  11.194  0.5888  0.4068 -0.4119
  358MOL0     O49314  -0.834   6.489  11.062  0.0940  0.7292  0.3178
  358MOL0     C49315  -0.849   6.150  11.014 -0.0590  0.3665 -0.4519
  358MOL0     C49316  -0.787   6.023  11.040 -0.2149 -0.2368  0.3149
  358MOL0     N49317  -0.384   5.443  10.755 -0.4412  0.8295  1.3179
  358MOL0     N49318  -0.294   5.363  10.729  1.1074  0.1106  0.0193
  358MOL0     C49319   0.806   5.920  10.657 -0.0461 -0.4419  0.2875
  358MOL0     C49320   0.938   5.925  10.638  0.1226 -0.8666 -0.7247
  358MOL0     C49321   1.372   5.970  10.688 -0.2177  0.1544 -0.6511
  358MOL0     C49322   1.451   6.011  10.794 -0.3456 -0.4910 -0.2437
  358MOL0     C49323   1.583   6.052  10.763 -0.5820 -0.1106 -0.5588
  358MOL0     C49324   1.639   6.031  10.637  0.2592 -0.5591 -0.7535
  358MOL0     O49325   1.772   6.067  10.604 -0.2298 -0.0600  0.4964
  358MOL0     C49326   1.876   6.099  10.695 -0.7315  0.4848 -0.3677
  358MOL0     C49327   2.006   6.104  10.613 -0.4636 -0.2170  0.6268
  358MOL0     C49328   2.131   6.123  10.706  0.2889 -0.1604 -0.7237
  358MOL0     C49329   2.254   6.170  10.627  0.6718  0.2548 -0.0639
  358MOL0     C49330   2.247   6.306  10.569 -1.1002 -0.4853 -0.2475
  358MOL0     C49331   2.242   6.421  10.535  0.9490  0.6881  0.3205
  358MOL0     C49332   1.563   5.981  10.539  0.1737 -0.2203  0.3369
  358MOL0     C49333   1.427   5.950  10.553  0.2543  0.1237 -0.7229
  358MOL0     C49334   1.339   5.885  10.442  0.3076  0.1722 -0.3275
  358MOL0     H49335   0.992   6.168  10.879  0.8803  1.1225 -1.7719
  358MOL0     H49336   0.764   6.153  10.903 -1.9618 -0.8178 -0.6708
  358MOL0     H49337   0.584   5.800  10.768  1.1678  0.5407  0.4572
  358MOL0     H49338   0.536   5.873  10.614  0.5185  0.2321  0.0813
  358MOL0     H49339   0.391   5.858  10.879  1.2765 -2.6494 -0.2676
  358MOL0     H49340   0.332   5.976  10.761 -0.8176 -1.1502  1.6695
  358MOL0     H49341   0.201   5.786  10.715  0.8336  4.1051  1.4026
  358MOL0     H49342   0.318   5.779  10.583 -2.5953  0.5092 -0.6090
  358MOL0     H49343   0.462   5.625  10.736  0.1447 -0.4192  3.4417
  358MOL0     H49344   0.333   5.628  10.851 -1.3422 -0.6448 -1.3830
  358MOL0     H49345   0.326   5.431  10.709 -0.6630 -0.2082 -1.6591
  358MOL0     H49346   0.262   5.544  10.583  1.1931  0.3682 -0.0124
  358MOL0     H49347   0.136   5.467  10.860 -1.0654  1.3500 -0.0319
  358MOL0     H49348   0.076   5.590  10.764 -0.9495  1.5283 -0.5063
  358MOL0     H49349   0.125   5.305  10.646 -1.3599 -1.8951  0.1923
  358MOL0     H49350   0.001   5.410  10.595 -0.2276  0.9705  0.6610
  358MOL0     H49351  -0.069   5.211  10.746  2.1192 -0.0896  0.8748
  358MOL0     H49352  -0.018   5.308  10.884  0.8069 -0.2282 -0.4637
  358MOL0     H49353  -0.125   5.578  10.913 -2.4546  4.5283 -1.4458
  358MOL0     H49354  -0.306   5.720  10.931 -4.3565  3.3866  3.6974
  358MOL0     H49355  -0.412   5.600  10.992 -1.9897 -0.2209 -0.2016
  358MOL0     H49356  -0.424   5.774  10.733 -0.6219  0.1056 -0.7445
  358MOL0     H49357  -0.555   5.679  10.771 -0.5513  0.9013  0.9741
  358MOL0     H49358  -0.445   5.912  10.923  0.6210 -1.0230  0.7597
  358MOL0     H49359  -0.608   5.907  10.851 -0.6713  0.7056  2.1876
  358MOL0     H49360  -0.703   5.773  11.015 -0.7250  2.0806  1.9970
  358MOL0     H49361  -0.547   5.722  11.077  2.1978  0.7081 -0.6663
  358MOL0     H49362  -0.532   6.125  11.227  1.3760  1.1675 -1.7871
  358MOL0     H49363  -0.543   6.346  11.277 -0.2877  1.1270  2.4570
  358MOL0     H49364  -0.700   6.422  11.299  0.1083 -2.9141  0.9728
  358MOL0     H49365  -0.591   6.457  11.159 -3.3308  1.6870  1.0273
  358MOL0     H49366  -1.273   6.341  10.978 -1.8093  0.2376  1.3614
  358MOL0     H49367  -1.474   6.404  11.095 -2.4621  4.7015  2.5392
  358MOL0     H49368  -1.608   6.637  11.155  1.2124  0.2344  0.8186
  358MOL0     H49369  -1.634   6.489  11.253  2.1385 -0.6696 -0.8046
  358MOL0     H49370  -1.791   6.691  11.301  0.0830 -0.2765  0.1300
  358MOL0     H49371  -1.711   6.635  11.449 -3.1835 -1.2311 -1.2625
  358MOL0     H49372  -1.595   6.854  11.270  0.7754 -0.5748 -0.4543
  358MOL0     H49373  -1.577   6.812  11.448 -0.5119 -1.3778 -0.3460
  358MOL0     H49374  -1.818   6.875  11.495  0.6286 -0.1933  0.8374
  358MOL0     H49375  -1.829   6.918  11.322 -0.0696  0.9709  0.3171
  358MOL0     H49376  -1.640   7.062  11.519 -2.0466  1.0490  1.7213
  358MOL0     H49377  -1.647   7.082  11.348  1.5709 -0.6769  0.6151
  358MOL0     H49378  -1.873   7.102  11.540  0.5611 -1.9200 -1.1955
  358MOL0     H49379  -1.891   7.171  11.381 -1.2246 -2.9897  1.5222
  358MOL0     H49380  -1.719   7.269  11.625 -0.1368  0.2990  1.0204
  358MOL0     H49381  -1.867   7.332  11.558 -0.3867 -3.0922  2.3215
  358MOL0     H49382  -1.723   7.373  11.336  3.0788 -1.1147 -0.4574
  358MOL0     H49383  -1.584   7.335  11.432 -0.2320 -0.8319 -1.9382
  358MOL0     H49384  -1.249   6.679  11.315 -4.4440 -0.9395  0.2153
  358MOL0     H49385  -1.020   6.598  11.193  1.3400 -1.0110 -2.7463
  358MOL0     H49386  -0.930   6.144  10.942 -0.9283 -0.9469  0.5937
  358MOL0     H49387  -0.829   5.943  10.979  2.4005  0.0240 -2.0368
  358MOL0     H49388   0.747   5.848  10.602  1.2747 -1.0246 -0.4233
  358MOL0     H49389   0.995   5.859  10.572  5.2908  1.9284  0.3642
  358MOL0     H49390   1.410   6.020  10.894  2.0639  4.5369  0.6171
  358MOL0     H49391   1.647   6.101  10.837  2.1735  0.1912 -2.9739
  358MOL0     H49392   1.861   6.193  10.748  1.4857  1.1525 -0.8140
  358MOL0     H49393   1.882   6.019  10.769 -0.1591  2.1413  1.4493
  358MOL0     H49394   2.003   6.180  10.535  3.3362 -0.2951  0.1955
  358MOL0     H49395   2.015   6.003  10.572 -2.1440 -0.0200 -0.3146
  358MOL0     H49396   2.106   6.198  10.781 -1.6412 -2.0234  0.6217
  358MOL0     H49397   2.150   6.024  10.748 -0.5354  0.0012  0.0636
  358MOL0     H49398   2.270   6.095  10.549  0.2698 -0.5456  0.5931
  358MOL0     H49399   2.338   6.170  10.698 -0.5568 -2.8832  1.6328
  358MOL0     H49400   2.227   6.521  10.498 -0.9690  0.0988 -0.5897
  358MOL0     H49401   1.604   5.965  10.440 -2.4890 -1.3153 -0.6784
  358MOL0     H49402   1.302   5.974  10.389 -0.7042 -0.5158 -0.8083
  358MOL0     H49403   1.397   5.823  10.374 -0.5184 -1.8027  0.6776
  358MOL0     H49404   1.252   5.832  10.482 -0.8399  3.5396  2.1575
  359MOL0     O49405  10.979   6.396   9.589 -0.0854 -0.9522 -0.3130
  359MOL0     C49406  10.946   6.512   9.547 -0.8939 -0.2320  0.2398
  359MOL0     O49407  10.966   6.549   9.415  1.0692  1.1383 -0.0418
  359MOL0     C49408  11.056   6.480   9.334  0.4244  0.6926  0.3696
  359MOL0     C49409  11.003   6.415   9.217  0.8908 -0.4794 -0.6495
  359MOL0     C49410  11.089   6.356   9.128  0.0591  0.2801 -0.6377
  359MOL0     C49411  11.224   6.373   9.143 -0.9458  0.3089  0.6472
  359MOL0     O49412  11.316   6.324   9.048  1.0051 -0.0022 -0.3478
  359MOL0     C49413  11.301   6.365   8.915 -0.6232 -0.6814  0.5958
  359MOL0     C49414  11.358   6.508   8.887 -0.2333 -0.2492  0.2064
  359MOL0     C49415  11.501   6.530   8.921  0.4933 -0.8960  0.2049
  359MOL0     C49416  11.604   6.417   8.899 -1.0873 -0.1713 -0.3478
  359MOL0     C49417  11.638   6.402   8.755  0.2687 -0.2339  0.1116
  359MOL0     C49418  11.717   6.274   8.735  0.3842  1.0695 -0.9734
  359MOL0     C49419  11.619   6.156   8.715 -0.4598  0.1790 -1.1241
  359MOL0     C49420  11.692   6.028   8.730  0.0878  0.4468  0.5547
  359MOL0     N49421  11.614   5.917   8.663  0.0944 -0.1511 -0.2399
  359MOL0     C49422  11.497   5.924   8.589 -0.6527  0.0874 -1.1897
  359MOL0     C49423  11.455   5.801   8.572 -0.2110  0.2660 -1.1648
  359MOL0     C49424  11.333   5.750   8.497 -0.7829  0.0811  1.1408
  359MOL0     C49425  11.220   5.712   8.593  1.1123  1.1861 -0.6980
  359MOL0     C49426  11.082   5.704   8.522  0.0411 -0.3897  0.4661
  359MOL0     C49427  10.976   5.614   8.595 -0.3748 -0.8881 -0.4067
  359MOL0     O49428  10.987   5.626   8.736  0.4740 -0.3236  0.1564
  359MOL0     C49429  10.901   5.710   8.803 -0.6073 -0.5668 -0.8173
  359MOL0     C49430  10.802   5.789   8.750  0.2175  0.7018 -0.2215
  359MOL0     C49431  10.717   5.872   8.820 -0.5528 -0.7055  0.4265
  359MOL0     C49432  10.617   5.954   8.734 -0.2142 -0.4071  0.2752
  359MOL0     C49433  10.735   5.879   8.957  0.4485 -0.6048  0.5827
  359MOL0     C49434  10.645   5.957   9.050  0.7470 -0.7451 -0.8647
  359MOL0     O49435  10.700   6.003   9.165 -0.7925  0.5112  0.0803
  359MOL0     C49436  10.634   6.094   9.247  0.0335  0.3623 -0.2162
  359MOL0     C49437  10.640   6.239   9.233  0.0577  0.4037  0.4764
  359MOL0     C49438  10.572   6.315   9.330 -0.7419 -0.8694  0.2831
  359MOL0     C49439  10.507   6.258   9.438  0.1362 -0.4480 -0.3690
  359MOL0     O49440  10.460   6.325   9.552 -0.6135 -0.2942 -0.0199
  359MOL0     C49441  10.577   6.371   9.630  0.1351 -0.6779  0.2209
  359MOL0     C49442  10.513   6.479   9.713  0.0289 -0.5293 -1.0175
  359MOL0     C49443  10.411   6.445   9.822 -0.2155  0.4459  0.1010
  359MOL0     C49444  10.398   6.555   9.925  0.3976  0.4531 -0.1422
  359MOL0     C49445  10.516   6.550  10.025 -0.2738 -0.8104 -0.4558
  359MOL0     C49446  10.514   6.431  10.129  0.2298 -0.1603  0.0130
  359MOL0     C49447  10.640   6.412  10.215  0.1077 -0.0466  1.0323
  359MOL0     C49448  10.772   6.378  10.137 -0.0495 -0.0815 -0.1033
  359MOL0    Cl49449  10.754   6.221  10.048  0.0962  0.1999  0.3679
  359MOL0     C49450  10.497   6.116   9.444 -0.8514  0.5227  0.0666
  359MOL0     C49451  10.567   6.033   9.352  0.1511 -0.3330 -0.7404
  359MOL0     O49452  10.535   5.995   9.007  0.3842 -0.4984 -0.6487
  359MOL0     C49453  10.838   5.810   9.014 -0.3715  0.8038 -0.0508
  359MOL0     C49454  10.924   5.720   8.942  0.4731  0.0819 -0.2275
  359MOL0     N49455  11.549   5.717   8.628 -0.9868  0.3240  0.5815
  359MOL0     N49456  11.642   5.786   8.692  0.4297  0.1559  1.2691
  359MOL0     C49457  11.274   6.446   9.256  0.4015  0.0961 -0.5107
  359MOL0     C49458  11.196   6.490   9.356 -0.1072 -0.4609 -0.0063
  359MOL0     C49459  10.873   6.606   9.634  1.7442 -0.4809  0.3268
  359MOL0     C49460  10.803   6.707   9.562 -0.6369  0.5053  0.2754
  359MOL0     C49461  10.729   6.804   9.635  0.0221  0.1340 -0.3040
  359MOL0     C49462  10.738   6.809   9.776 -0.0109  0.2444  0.1312
  359MOL0     O49463  10.672   6.903   9.854 -0.4394 -0.6999  0.1927
  359MOL0     C49464  10.590   6.999   9.786 -0.4233 -0.5184 -0.3874
  359MOL0     C49465  10.515   7.065   9.907 -0.4013  0.2978  1.8088
  359MOL0     C49466  10.446   6.957   9.997  0.2559  0.2421  0.5247
  359MOL0     C49467  10.376   7.005  10.124  0.0499 -0.1229 -0.5648
  359MOL0     C49468  10.319   6.890  10.195 -0.3580 -0.3524 -0.4620
  359MOL0     C49469  10.270   6.812  10.275 -0.0754 -0.1620 -1.4708
  359MOL0     C49470  10.814   6.713   9.844  0.2505 -0.0696 -0.0586
  359MOL0     C49471  10.880   6.605   9.775  0.9582 -0.2487  0.2047
  359MOL0     C49472  10.965   6.511   9.854 -0.8719  0.4045 -0.5738
  359MOL0     H49473  10.896   6.421   9.202  0.3441  0.8456  2.8653
  359MOL0     H49474  11.054   6.295   9.045  1.1568  2.0294 -2.4677
  359MOL0     H49475  11.198   6.361   8.880  0.8401  4.0185 -6.5897
  359MOL0     H49476  11.351   6.293   8.850 -1.0184 -0.0192 -0.4782
  359MOL0     H49477  11.352   6.521   8.779  2.7012 -0.4177 -0.0343
  359MOL0     H49478  11.300   6.580   8.945  1.2521  0.1988  1.1653
  359MOL0     H49479  11.536   6.623   8.875  4.7095 -1.8804  1.0316
  359MOL0     H49480  11.509   6.553   9.027  1.1947 -0.5973  0.0974
  359MOL0     H49481  11.691   6.439   8.961 -1.0915 -1.7504  0.2621
  359MOL0     H49482  11.584   6.321   8.947  1.0302 -0.0918  0.7897
  359MOL0     H49483  11.698   6.489   8.727 -2.1062  0.9678 -1.5844
  359MOL0     H49484  11.549   6.388   8.692  0.0781 -0.9105  0.5195
  359MOL0     H49485  11.772   6.303   8.645 -1.2680  1.5795 -1.8735
  359MOL0     H49486  11.787   6.264   8.818 -0.5812  2.2200  0.0176
  359MOL0     H49487  11.576   6.153   8.615  0.2420 -3.3156 -1.4701
  359MOL0     H49488  11.545   6.156   8.796 -0.4224  0.3352 -1.0896
  359MOL0     H49489  11.789   6.033   8.680 -0.4196  2.0353 -0.3372
  359MOL0     H49490  11.711   5.997   8.834 -1.2107 -2.3873  0.0547
  359MOL0     H49491  11.445   6.015   8.560  1.2217  1.4894 -0.3761
  359MOL0     H49492  11.371   5.660   8.449 -0.1240 -0.4305  2.5465
  359MOL0     H49493  11.307   5.824   8.421 -2.0997  0.0517  1.5519
  359MOL0     H49494  11.245   5.620   8.647  1.1523  1.5321 -0.1224
  359MOL0     H49495  11.223   5.794   8.666  0.1789  0.9352 -0.3568
  359MOL0     H49496  11.039   5.804   8.515 -1.1380 -0.8645  0.7958
  359MOL0     H49497  11.091   5.669   8.419 -0.5138 -1.4835  0.7748
  359MOL0     H49498  10.874   5.633   8.561 -0.8486 -1.6501  0.5466
  359MOL0     H49499  10.995   5.508   8.576  0.1868 -0.6458 -1.2678
  359MOL0     H49500  10.794   5.776   8.642  0.9076 -1.3881 -0.0535
  359MOL0     H49501  10.623   5.945   8.625  2.7391  3.2534 -0.0643
  359MOL0     H49502  10.622   6.062   8.746  1.1967 -0.5619  1.4789
  359MOL0     H49503  10.514   5.933   8.763  0.5485 -0.6810  3.0459
  359MOL0     H49504  10.679   6.282   9.141 -0.6417  1.4243  0.6437
  359MOL0     H49505  10.579   6.423   9.319  3.2300 -1.1226 -1.2251
  359MOL0     H49506  10.620   6.289   9.689  0.3782 -1.6978 -1.2862
  359MOL0     H49507  10.661   6.414   9.574 -1.1967  0.1546 -1.2181
  359MOL0     H49508  10.595   6.534   9.761 -0.6607  0.1946 -0.6427
  359MOL0     H49509  10.464   6.551   9.647  3.0692 -0.4903 -3.5020
  359MOL0     H49510  10.437   6.348   9.864  1.4954  0.5491 -0.6400
  359MOL0     H49511  10.318   6.437   9.765 -0.4828  1.6954  0.3411
  359MOL0     H49512  10.305   6.562   9.982 -0.7962  2.7329 -2.1743
  359MOL0     H49513  10.406   6.646   9.864 -1.5875 -0.0255 -1.2095
  359MOL0     H49514  10.615   6.543   9.980  1.2251 -1.3613  2.6392
  359MOL0     H49515  10.519   6.642  10.086 -0.0730  0.3323 -2.1200
  359MOL0     H49516  10.499   6.337  10.075  1.2898  1.2791 -3.0130
  359MOL0     H49517  10.427   6.460  10.189 -2.1146  0.6672 -3.4922
  359MOL0     H49518  10.611   6.328  10.279  1.1905  0.0629  1.6863
  359MOL0     H49519  10.661   6.501  10.274 -0.7762  1.2665 -0.5617
  359MOL0     H49520  10.842   6.360  10.220  0.0784 -1.1895 -0.4312
  359MOL0     H49521  10.803   6.466  10.080  0.5758 -0.9318 -1.1228
  359MOL0     H49522  10.453   6.073   9.533 -0.7717 -0.0582 -0.1697
  359MOL0     H49523  10.586   5.928   9.372  3.1228  0.3075  0.2368
  359MOL0     H49524  10.857   5.816   9.121  1.0096 -1.7792 -0.0569
  359MOL0     H49525  11.006   5.663   8.983  0.2324 -0.9201 -1.0866
  359MOL0     H49526  11.380   6.471   9.256  0.0850  1.5042 -0.7583
  359MOL0     H49527  11.226   6.541   9.447 -0.0032  1.5579 -1.1029
  359MOL0     H49528  10.788   6.691   9.456  2.2440  0.3138 -0.1651
  359MOL0     H49529  10.667   6.875   9.581 -0.6675  0.4537  0.8573
  359MOL0     H49530  10.649   7.087   9.757 -0.8585 -0.3066 -0.6360
  359MOL0     H49531  10.517   6.964   9.713  0.5130 -1.7292 -0.7769
  359MOL0     H49532  10.447   7.138   9.861 -2.2560 -0.0170  3.8753
  359MOL0     H49533  10.594   7.106   9.970 -0.7722  2.1788  1.1051
  359MOL0     H49534  10.364   6.908   9.944  0.5733 -0.7278  0.9066
  359MOL0     H49535  10.516   6.875  10.016  0.9813  0.5182 -0.8258
  359MOL0     H49536  10.291   7.061  10.083 -1.5025 -3.5231 -2.4605
  359MOL0     H49537  10.445   7.059  10.190 -0.9895 -2.9955  3.1866
  359MOL0     H49538  10.239   6.754  10.360  1.4370 -0.1817 -0.9003
  359MOL0     H49539  10.825   6.736   9.950 -1.6403  1.7546 -0.1965
  359MOL0     H49540  10.984   6.533   9.959 -1.7483 -0.8249 -0.1319
  359MOL0     H49541  10.891   6.432   9.873  0.0361 -0.2166  0.5132
  359MOL0     H49542  11.058   6.477   9.808  0.0066 -2.1653  2.6879
  360MOL0     O49543   2.937   0.288   5.241 -0.1189 -0.1657  0.1012
  360MOL0     C49544   3.014   0.271   5.333 -1.0147 -0.0468 -0.6961
  360MOL0     O49545   2.985   0.249   5.470 -0.0796 -0.4725 -0.0421
  360MOL0     C49546   2.856   0.213   5.514 -0.3268  0.5606  0.4057
  360MOL0     C49547   2.794   0.291   5.607 -0.5194 -0.4893  0.2889
  360MOL0     C49548   2.670   0.260   5.657  0.2330  0.3952 -0.1389
  360MOL0     C49549   2.599   0.151   5.596 -0.4534  0.6197 -0.2456
  360MOL0     O49550   2.465   0.125   5.636 -0.5252  1.1926  0.3449
  360MOL0     C49551   2.404  -0.003   5.613  0.1841 -0.6624  0.0830
  360MOL0     C49552   2.256   0.024   5.631  0.0912 -0.4484  0.6387
  360MOL0     C49553   2.175  -0.095   5.600  0.2532 -0.5963  0.1364
  360MOL0     C49554   2.200  -0.207   5.693  0.1620 -0.1520  0.2700
  360MOL0     C49555   2.089  -0.315   5.686  0.8214 -0.9528 -0.3248
  360MOL0     C49556   2.104  -0.418   5.789 -0.4604  0.2151 -0.2539
  360MOL0     C49557   1.987  -0.508   5.780 -0.1642  0.5882  0.4592
  360MOL0     C49558   2.002  -0.641   5.864 -0.5363 -0.4641  0.2806
  360MOL0     N49559   1.908  -0.744   5.797 -0.2918  0.0516 -0.1703
  360MOL0     C49560   1.766  -0.733   5.785 -0.4174 -0.5304 -0.5152
  360MOL0     C49561   1.718  -0.836   5.716 -0.0886  0.4099 -0.3290
  360MOL0     C49562   1.573  -0.872   5.684  0.0439  0.7077 -0.7289
  360MOL0     C49563   1.509  -0.815   5.559 -0.7661  0.7688 -0.5361
  360MOL0     C49564   1.494  -0.919   5.450  0.9536  0.2232  0.5605
  360MOL0     C49565   1.623  -0.990   5.400  0.5260 -0.2348  0.1732
  360MOL0     O49566   1.667  -0.929   5.288 -0.0621  0.2273  0.2125
  360MOL0     C49567   1.777  -0.974   5.223  0.8703  1.0818  0.8132
  360MOL0     C49568   1.817  -0.904   5.117  0.5488 -0.1354  0.7929
  360MOL0     C49569   1.923  -0.935   5.040 -0.2867 -1.0228  0.2304
  360MOL0     C49570   1.969  -0.843   4.924  0.5039  0.2752  0.9251
  360MOL0     C49571   2.001  -1.051   5.074 -0.0138  0.4385  0.4829
  360MOL0     C49572   2.111  -1.105   4.986 -0.4253  0.2419 -0.0718
  360MOL0     O49573   2.195  -1.183   5.050 -0.4662  0.2080  0.1590
  360MOL0     C49574   2.328  -1.160   5.012 -0.0148 -0.0407  0.0214
  360MOL0     C49575   2.377  -1.027   5.031  0.3314  0.4254 -0.0217
  360MOL0     C49576   2.514  -1.015   5.029  1.7727  0.5824 -0.6928
  360MOL0     C49577   2.601  -1.113   4.991 -0.8638 -0.1049  1.2806
  360MOL0     O49578   2.735  -1.076   4.989  0.2935  0.3936 -0.0185
  360MOL0     C49579   2.837  -1.173   4.962  0.0610 -0.2674  0.2653
  360MOL0     C49580   2.969  -1.123   5.017  0.3169 -0.0406 -0.3758
  360MOL0     C49581   3.089  -1.205   4.959 -0.0152 -0.0792  0.4417
  360MOL0     C49582   3.096  -1.347   5.016 -0.2888 -0.0575  0.2694
  360MOL0     C49583   3.219  -1.422   4.966  0.1920  0.4394  0.2402
  360MOL0     C49584   3.305  -1.500   5.071 -0.5077 -1.1149 -0.4292
  360MOL0     C49585   3.395  -1.605   5.014  0.0010  0.1371 -0.2134
  360MOL0     C49586   3.475  -1.681   5.123  0.1777  0.2795 -0.2875
  360MOL0    Cl49587   3.593  -1.779   5.041  0.1849  0.2266 -0.2434
  360MOL0     C49588   2.550  -1.240   4.958  0.2326  0.5986 -0.5564
  360MOL0     C49589   2.415  -1.259   4.972  0.4153 -0.3877 -0.4266
  360MOL0     O49590   2.109  -1.087   4.869 -0.2578  0.1263 -0.4243
  360MOL0     C49591   1.974  -1.107   5.196  0.7696 -0.4501 -1.0328
  360MOL0     C49592   1.862  -1.070   5.265  0.1652  0.1460 -0.1638
  360MOL0     N49593   1.832  -0.902   5.669  0.0404 -0.2645  0.1245
  360MOL0     N49594   1.947  -0.857   5.729  0.0041  0.1524  0.7613
  360MOL0     C49595   2.673   0.063   5.504 -0.3148  0.7416 -0.7307
  360MOL0     C49596   2.800   0.096   5.466  0.5289 -0.1515  0.5192
  360MOL0     C49597   3.158   0.270   5.292  0.4638  0.4201  0.7055
  360MOL0     C49598   3.213   0.366   5.197  0.4408  0.1886 -0.0169
  360MOL0     C49599   3.344   0.380   5.168  0.3712  0.0665  0.7503
  360MOL0     C49600   3.438   0.284   5.214 -0.3570 -1.1887 -0.5985
  360MOL0     O49601   3.571   0.270   5.181  0.0727  0.1944  0.5999
  360MOL0     C49602   3.671   0.300   5.281  0.3556 -0.3551 -0.8810
  360MOL0     C49603   3.684   0.444   5.285  0.1162 -1.0125 -0.0778
  360MOL0     C49604   3.710   0.520   5.150 -0.4391 -0.2677 -0.4024
  360MOL0     C49605   3.815   0.461   5.063 -1.0632  0.3986  0.4340
  360MOL0     C49606   3.845   0.556   4.954 -0.9164 -0.0823 -0.0983
  360MOL0     C49607   3.863   0.637   4.857 -0.2582 -0.0563 -0.7985
  360MOL0     C49608   3.395   0.181   5.304 -0.5790  0.5256 -0.5162
  360MOL0     C49609   3.256   0.166   5.343  0.1625 -0.4150 -0.1385
  360MOL0     C49610   3.210   0.053   5.430 -0.3431  0.4158  0.0828
  360MOL0     H49611   2.844   0.381   5.641  3.5314 -2.0306 -0.9803
  360MOL0     H49612   2.625   0.325   5.731 -0.2890  0.5277 -0.5727
  360MOL0     H49613   2.450  -0.073   5.685  0.2484 -2.2935 -1.4683
  360MOL0     H49614   2.412  -0.032   5.508  1.0052  0.9009 -0.3046
  360MOL0     H49615   2.239   0.066   5.730 -2.5546 -0.0906  0.1043
  360MOL0     H49616   2.224   0.102   5.561  2.6232 -1.1827 -1.5038
  360MOL0     H49617   2.072  -0.060   5.603  0.0372 -1.2818  1.0261
  360MOL0     H49618   2.199  -0.129   5.498  1.3422  0.1989  0.1066
  360MOL0     H49619   2.292  -0.263   5.671 -0.6023 -1.4597  0.3087
  360MOL0     H49620   2.212  -0.163   5.793 -0.8689  0.7520  0.0199
  360MOL0     H49621   2.099  -0.369   5.591  0.3058 -0.8892 -0.4187
  360MOL0     H49622   1.992  -0.263   5.680  1.2077  0.1337  1.8386
  360MOL0     H49623   2.202  -0.465   5.779  0.5467  2.5347 -2.7319
  360MOL0     H49624   2.099  -0.374   5.889  2.3699 -0.3219  0.2117
  360MOL0     H49625   1.967  -0.538   5.676 -0.9164  0.8069  0.5359
  360MOL0     H49626   1.891  -0.460   5.802 -0.3742  0.2057  0.3964
  360MOL0     H49627   2.107  -0.671   5.858  0.4177  2.3867  1.1566
  360MOL0     H49628   1.972  -0.625   5.968 -1.1621  2.6244 -0.2576
  360MOL0     H49629   1.703  -0.653   5.824  2.6010  1.5442  0.5641
  360MOL0     H49630   1.502  -0.843   5.763  1.2535  1.2949  0.1701
  360MOL0     H49631   1.579  -0.982   5.680 -0.3486  0.5908  1.0071
  360MOL0     H49632   1.407  -0.778   5.571  0.1094  3.3558 -0.4738
  360MOL0     H49633   1.570  -0.731   5.527 -0.5543  0.6752 -0.3793
  360MOL0     H49634   1.416  -0.988   5.486 -0.5348  1.8203  0.5265
  360MOL0     H49635   1.437  -0.869   5.371  1.5910  0.4795  0.2620
  360MOL0     H49636   1.703  -0.994   5.474  3.3240 -1.4095 -2.6602
  360MOL0     H49637   1.612  -1.097   5.380 -0.6207 -0.4891  1.9602
  360MOL0     H49638   1.750  -0.829   5.075  0.7852  0.7263  1.8883
  360MOL0     H49639   1.920  -0.746   4.921 -0.9547 -0.4013  1.6174
  360MOL0     H49640   1.969  -0.887   4.824  1.0597  3.4540 -0.5938
  360MOL0     H49641   2.072  -0.819   4.952  0.1615  1.4068  1.2343
  360MOL0     H49642   2.316  -0.945   5.068  0.6854 -0.3005  2.3177
  360MOL0     H49643   2.562  -0.920   5.050  1.1825  1.3191 -2.4540
  360MOL0     H49644   2.822  -1.270   5.011  0.6696  0.4795  1.9944
  360MOL0     H49645   2.847  -1.174   4.853  0.9191 -1.3573  0.3299
  360MOL0     H49646   2.982  -1.017   4.993  1.5172  1.0564  4.0254
  360MOL0     H49647   2.969  -1.111   5.126  0.7268  2.0900 -0.5518
  360MOL0     H49648   3.182  -1.155   4.986  1.1080 -1.5110 -0.6287
  360MOL0     H49649   3.083  -1.206   4.850  1.3063 -1.1306  0.3570
  360MOL0     H49650   3.005  -1.403   4.991  0.7081 -2.0657  0.8875
  360MOL0     H49651   3.090  -1.339   5.125  0.8533  0.3051  0.3185
  360MOL0     H49652   3.192  -1.489   4.884  1.7633 -0.3342  0.3081
  360MOL0     H49653   3.292  -1.352   4.924  4.1616 -4.0742 -1.2602
  360MOL0     H49654   3.246  -1.571   5.130  0.7351 -2.2938 -0.5667
  360MOL0     H49655   3.364  -1.435   5.137  1.0067 -2.4056 -0.4640
  360MOL0     H49656   3.463  -1.579   4.932 -0.2001 -1.2028 -0.8372
  360MOL0     H49657   3.326  -1.677   4.970 -0.7492 -0.8461  2.3848
  360MOL0     H49658   3.412  -1.738   5.192  1.4177 -1.2465 -0.3658
  360MOL0     H49659   3.534  -1.613   5.186 -0.6082  1.0842 -0.4023
  360MOL0     H49660   2.624  -1.311   4.924 -0.6819 -0.1008 -1.1401
  360MOL0     H49661   2.383  -1.363   4.963  1.2685 -0.5717 -1.4910
  360MOL0     H49662   2.023  -1.190   5.246 -0.0087  0.5217  1.4639
  360MOL0     H49663   1.845  -1.121   5.359  0.0455  0.6439  0.0875
  360MOL0     H49664   2.630  -0.023   5.454  1.4847 -1.2290  0.9272
  360MOL0     H49665   2.847   0.027   5.397 -3.0678 -2.6943  0.2892
  360MOL0     H49666   3.143   0.435   5.152  0.8447  2.0109  1.9919
  360MOL0     H49667   3.368   0.456   5.094  0.1491  0.3309  0.9472
  360MOL0     H49668   3.651   0.264   5.382  3.1746 -0.4796 -0.2762
  360MOL0     H49669   3.763   0.255   5.242  0.5040 -0.8099 -0.0294
  360MOL0     H49670   3.766   0.463   5.355 -1.9956  2.0611  1.8424
  360MOL0     H49671   3.608   0.488   5.349  1.2609  0.5815  0.2578
  360MOL0     H49672   3.615   0.525   5.096 -1.2944  0.4589  1.1113
  360MOL0     H49673   3.745   0.619   5.180 -2.1367 -0.1339  1.3764
  360MOL0     H49674   3.788   0.368   5.013  0.7864 -0.3512  0.7497
  360MOL0     H49675   3.898   0.427   5.125  1.9139 -0.9789 -3.8824
  360MOL0     H49676   3.894   0.720   4.796 -0.6496  4.2116  4.0526
  360MOL0     H49677   3.470   0.105   5.323 -0.0158  0.6988 -1.9312
  360MOL0     H49678   3.102   0.050   5.441 -0.4353 -2.1284 -0.9928
  360MOL0     H49679   3.244  -0.040   5.383 -1.4221  0.1129 -0.1143
  360MOL0     H49680   3.262   0.063   5.526  4.3876 -2.7318 -1.7543
  361MOL0     O49681   6.311  11.321   6.746 -0.0660 -0.4197 -0.1449
  361MOL0     C49682   6.401  11.395   6.704 -0.2504  0.5397  0.6384
  361MOL0     O49683   6.409  11.528   6.734 -0.3356 -0.3201 -0.8675
  361MOL0     C49684   6.326  11.593   6.825  0.6509  0.2990 -0.5602
  361MOL0     C49685   6.211  11.538   6.896  0.4671 -0.2372  0.3329
  361MOL0     C49686   6.114  11.618   6.964 -0.6710 -0.1027  0.2354
  361MOL0     C49687   6.140  11.758   6.966  0.0984  0.0145 -0.2616
  361MOL0     O49688   6.073  11.856   7.031 -0.8854 -0.9891 -0.7982
  361MOL0     C49689   5.971  11.822   7.128 -0.2072  0.9460 -0.4622
  361MOL0     C49690   5.935  11.934   7.227  0.4219  0.2726 -0.6384
  361MOL0     C49691   6.033  11.929   7.341  0.6332  1.0210 -0.1222
  361MOL0     C49692   5.986  12.027   7.441  0.0660 -0.1272  0.2673
  361MOL0     C49693   6.042  12.008   7.586 -0.7959 -0.3303 -0.2759
  361MOL0     C49694   5.982  12.110   7.688  0.2365 -0.3548 -0.1014
  361MOL0     C49695   6.018  12.073   7.827  0.5648  0.3018 -0.5655
  361MOL0     C49696   6.041  12.175   7.938 -0.5192 -0.1841 -0.8013
  361MOL0     N49697   6.148  12.277   7.910  0.0680 -0.3651 -0.3873
  361MOL0     C49698   6.240  12.285   7.806 -0.7652 -0.2925 -0.5435
  361MOL0     C49699   6.282  12.410   7.795  0.3388 -0.6579 -1.4747
  361MOL0     C49700   6.371  12.462   7.691 -0.1555 -0.2748  0.1999
  361MOL0     C49701   6.288  12.539   7.579 -0.0666  0.5049 -0.7663
  361MOL0     C49702   6.359  12.574   7.458  0.0544 -0.7223 -0.2150
  361MOL0     C49703   6.270  12.635   7.349 -0.1087 -0.7023  0.1010
  361MOL0     O49704   6.308  12.594   7.216 -0.1958  0.2092 -0.1119
  361MOL0     C49705   6.275  12.671   7.106 -0.5744 -0.3108  0.0084
  361MOL0     C49706   6.366  12.699   7.005 -0.3498 -0.3057 -0.5829
  361MOL0     C49707   6.323  12.782   6.897 -0.2850  0.6464  0.2277
  361MOL0     C49708   6.417  12.823   6.789 -0.4664 -0.3055 -0.5284
  361MOL0     C49709   6.188  12.832   6.892  1.5454  0.3952  0.2775
  361MOL0     C49710   6.140  12.936   6.803  0.3818  0.2575  0.2822
  361MOL0     O49711   6.147  12.910   6.666 -0.2424  0.4251  0.6174
  361MOL0     C49712   6.131  13.001   6.560 -0.5754 -0.1062  0.1331
  361MOL0     C49713   6.142  13.148   6.563 -0.1196 -0.2235 -0.1023
  361MOL0     C49714   6.151  13.230   6.448 -0.6381 -0.3647  1.1829
  361MOL0     C49715   6.179  13.169   6.328  0.4103 -1.2475 -0.6110
  361MOL0     O49716   6.208  13.235   6.213  0.3771 -0.2543  0.1611
  361MOL0     C49717   6.132  13.358   6.186  0.1676 -0.9714  0.0225
  361MOL0     C49718   5.982  13.341   6.167  0.0110 -0.0848  0.6565
  361MOL0     C49719   5.920  13.473   6.129  0.9945 -0.2383 -1.0929
  361MOL0     C49720   5.863  13.542   6.264 -0.2321  0.4720  0.2057
  361MOL0     C49721   5.813  13.689   6.241 -0.6250 -0.1667 -0.1713
  361MOL0     C49722   5.667  13.693   6.175  0.1153 -0.6412  0.3812
  361MOL0     C49723   5.541  13.637   6.246  0.1152 -0.3134  0.1999
  361MOL0     C49724   5.418  13.637   6.164 -0.1312 -0.4046 -0.3615
  361MOL0    Cl49725   5.287  13.549   6.257 -0.1043  0.1578 -0.1206
  361MOL0     C49726   6.161  13.031   6.321 -0.4652  0.0135 -0.3828
  361MOL0     C49727   6.141  12.949   6.436  0.0432 -0.0089  0.4360
  361MOL0     O49728   6.100  13.046   6.850 -0.4690 -0.5506  0.6885
  361MOL0     C49729   6.103  12.799   7.001  0.4825  0.1581 -0.8709
  361MOL0     C49730   6.141  12.721   7.102 -0.8915 -0.3193 -0.3050
  361MOL0     N49731   6.221  12.477   7.901  0.5355 -0.1191 -0.2790
  361MOL0     N49732   6.140  12.402   7.954 -0.6815 -0.6561 -0.1426
  361MOL0     C49733   6.263  11.805   6.916 -0.0593 -0.0425 -0.4787
  361MOL0     C49734   6.355  11.728   6.850  0.6942  0.8706  0.1287
  361MOL0     C49735   6.499  11.349   6.613  0.5193  0.3734  0.6874
  361MOL0     C49736   6.598  11.437   6.558  0.0508  0.1951  0.8253
  361MOL0     C49737   6.682  11.397   6.456 -0.0074  0.4765 -0.0675
  361MOL0     C49738   6.673  11.272   6.392 -0.4429  0.6555 -0.4623
  361MOL0     O49739   6.755  11.239   6.283  0.6539  0.5103  0.0943
  361MOL0     C49740   6.902  11.260   6.289  0.1016  0.3550 -1.4078
  361MOL0     C49741   6.978  11.189   6.171  0.9217 -0.6019  0.0812
  361MOL0     C49742   6.928  11.219   6.030  0.8519 -0.4252 -0.2715
  361MOL0     C49743   7.026  11.181   5.925 -0.8365  0.3918 -0.1495
  361MOL0     C49744   7.122  11.288   5.904  0.5928  0.5985 -0.7732
  361MOL0     C49745   7.189  11.391   5.899  0.2478  0.6385 -0.6468
  361MOL0     C49746   6.592  11.178   6.454  0.1018  0.6384  0.0866
  361MOL0     C49747   6.502  11.211   6.555  0.8813 -0.4352 -0.7229
  361MOL0     C49748   6.394  11.107   6.601 -0.0551  1.0355 -0.3039
  361MOL0     H49749   6.186  11.432   6.898  2.8743 -0.9161 -1.0994
  361MOL0     H49750   6.024  11.567   6.999 -1.2873  0.1857 -0.8936
  361MOL0     H49751   5.990  11.728   7.180 -1.9440  1.1618  0.6576
  361MOL0     H49752   5.877  11.801   7.075 -0.3393 -0.4204  0.2819
  361MOL0     H49753   5.931  12.032   7.177  1.1569  0.4454 -0.3674
  361MOL0     H49754   5.831  11.914   7.255 -1.2956  3.8135 -3.5193
  361MOL0     H49755   6.026  11.825   7.375 -2.5653  1.0486 -0.4324
  361MOL0     H49756   6.135  11.950   7.309  0.8491 -0.9703 -0.8695
  361MOL0     H49757   6.008  12.124   7.395  3.1513 -0.9177 -0.1370
  361MOL0     H49758   5.877  12.021   7.447  0.1274 -1.6158  0.2611
  361MOL0     H49759   6.151  12.019   7.584 -0.3036 -1.4615  5.1745
  361MOL0     H49760   6.031  11.903   7.614 -0.1780 -0.2806  0.1799
  361MOL0     H49761   6.010  12.213   7.663 -0.1959 -0.7306 -2.3814
  361MOL0     H49762   5.875  12.110   7.666  0.1613 -0.9357  0.2420
  361MOL0     H49763   6.092  11.993   7.838 -0.8491 -1.0680 -0.5607
  361MOL0     H49764   5.928  12.023   7.865 -1.6191  0.9980 -4.2541
  361MOL0     H49765   5.945  12.219   7.970 -0.4766  0.9332 -2.1159
  361MOL0     H49766   6.071  12.120   8.028 -1.6548 -6.0033 -3.4909
  361MOL0     H49767   6.272  12.202   7.743  0.2544 -0.6986  0.4682
  361MOL0     H49768   6.431  12.383   7.644 -1.8112 -0.9917 -0.7813
  361MOL0     H49769   6.441  12.534   7.733  0.1974 -0.9633  0.8307
  361MOL0     H49770   6.190  12.491   7.571 -0.7030  0.9817  2.6657
  361MOL0     H49771   6.257  12.632   7.629 -0.2216 -0.3206  0.7129
  361MOL0     H49772   6.447  12.638   7.471 -0.3348 -0.5121  1.4957
  361MOL0     H49773   6.401  12.480   7.419 -0.8963 -0.3033 -2.4033
  361MOL0     H49774   6.166  12.603   7.358 -0.6346  0.7272 -0.4714
  361MOL0     H49775   6.273  12.744   7.363 -0.7348 -0.7345  0.5440
  361MOL0     H49776   6.467  12.659   7.016  0.1010  0.6795 -0.9815
  361MOL0     H49777   6.396  12.783   6.690 -2.6869  1.5330 -0.8910
  361MOL0     H49778   6.522  12.802   6.810 -0.0777  2.2615  0.5541
  361MOL0     H49779   6.415  12.932   6.781 -0.6017 -0.2985 -0.4118
  361MOL0     H49780   6.150  13.196   6.660  2.0051  2.0522 -1.2865
  361MOL0     H49781   6.138  13.336   6.467 -0.4011 -0.5093  2.1735
  361MOL0     H49782   6.140  13.429   6.269 -0.0466 -1.2643  0.2942
  361MOL0     H49783   6.178  13.409   6.101  0.4697  2.3258  1.9586
  361MOL0     H49784   5.977  13.268   6.086 -2.4296  0.8232 -0.1032
  361MOL0     H49785   5.936  13.299   6.257  0.1852  0.1173  0.8385
  361MOL0     H49786   5.833  13.470   6.061  1.5538 -1.0046 -1.7938
  361MOL0     H49787   6.001  13.520   6.072  1.0757  2.0215  0.7667
  361MOL0     H49788   5.946  13.536   6.335 -1.0253 -1.4377  1.0328
  361MOL0     H49789   5.783  13.478   6.302  0.5623 -0.5204  0.2378
  361MOL0     H49790   5.798  13.733   6.340 -2.3038 -0.4396 -0.2852
  361MOL0     H49791   5.884  13.747   6.181 -0.4060 -0.0151  0.2276
  361MOL0     H49792   5.670  13.626   6.088  0.8000 -1.6038  1.1186
  361MOL0     H49793   5.657  13.796   6.139  1.9997  0.9027  3.7686
  361MOL0     H49794   5.527  13.694   6.338 -1.0594 -3.5397  2.1816
  361MOL0     H49795   5.564  13.536   6.279 -0.9574 -0.5066  0.3899
  361MOL0     H49796   5.438  13.575   6.076  2.2165  0.5063 -0.5545
  361MOL0     H49797   5.391  13.740   6.139  3.1359  1.2987  2.2907
  361MOL0     H49798   6.183  12.987   6.224  3.2980 -2.5803  1.3874
  361MOL0     H49799   6.127  12.841   6.435 -2.0182  0.2168  0.0727
  361MOL0     H49800   6.000  12.831   6.989  1.0248  3.6701  2.1088
  361MOL0     H49801   6.067  12.690   7.175 -1.0189 -1.3125 -0.8372
  361MOL0     H49802   6.264  11.913   6.924  0.9531 -0.1159  0.7709
  361MOL0     H49803   6.441  11.775   6.803  0.1562  1.7149 -0.0338
  361MOL0     H49804   6.600  11.541   6.589  1.5587  0.4043  0.1093
  361MOL0     H49805   6.735  11.477   6.408 -0.4228  1.4250  1.0077
  361MOL0     H49806   6.910  11.368   6.276 -1.1923  0.4873 -1.2295
  361MOL0     H49807   6.940  11.230   6.387 -1.6424 -2.0845 -1.3592
  361MOL0     H49808   6.974  11.080   6.177 -0.0041 -0.6091 -0.4746
  361MOL0     H49809   7.086  11.207   6.175  1.0662 -1.5506  1.5436
  361MOL0     H49810   6.832  11.172   6.008 -0.1301  1.4917 -0.2322
  361MOL0     H49811   6.915  11.327   6.028  0.4697 -0.4641  0.1201
  361MOL0     H49812   6.977  11.162   5.830 -0.0846 -0.4660 -0.3854
  361MOL0     H49813   7.088  11.093   5.948  0.5159  0.8694 -1.7527
  361MOL0     H49814   7.254  11.475   5.887 -0.7907  1.4781 -0.5321
  361MOL0     H49815   6.577  11.081   6.407 -2.0469  1.4052 -0.9217
  361MOL0     H49816   6.305  11.156   6.561 -0.8419 -0.0814  0.0131
  361MOL0     H49817   6.410  11.006   6.560 -0.9245  0.9239 -0.3882
  361MOL0     H49818   6.391  11.104   6.710 -1.8698 -1.2145 -0.3254
  362MOL0     O49819   8.309   8.252   8.641 -0.2612  0.6996 -0.0518
  362MOL0     C49820   8.299   8.373   8.668 -0.8422 -0.0515 -0.1651
  362MOL0     O49821   8.393   8.446   8.744  0.4474  0.1661  0.6084
  362MOL0     C49822   8.526   8.416   8.735  0.7092  0.2241 -1.0942
  362MOL0     C49823   8.574   8.273   8.746  0.7748 -0.1431  0.9680
  362MOL0     C49824   8.712   8.254   8.750 -0.9386 -0.6312  0.7543
  362MOL0     C49825   8.803   8.362   8.755 -0.4582  0.0394 -0.5375
  362MOL0     O49826   8.942   8.347   8.769  0.1338 -0.4279 -0.2857
  362MOL0     C49827   8.990   8.265   8.871 -0.8882 -0.4657 -0.8016
  362MOL0     C49828   9.093   8.342   8.953 -0.5812 -0.0656 -0.3249
  362MOL0     C49829   9.038   8.375   9.099 -0.1896 -0.2821  0.5137
  362MOL0     C49830   9.090   8.278   9.199 -0.3543 -0.0889 -0.9165
  362MOL0     C49831   9.000   8.279   9.328  0.2995 -0.8082  1.3705
  362MOL0     C49832   9.080   8.208   9.436 -0.5688 -0.0680 -0.3883
  362MOL0     C49833   8.990   8.172   9.554 -0.0045  0.9378  0.1282
  362MOL0     C49834   8.891   8.049   9.523 -0.2326 -1.0574 -0.3161
  362MOL0     N49835   8.836   7.998   9.645  0.1146  0.0485 -0.2963
  362MOL0     C49836   8.912   7.917   9.727 -0.2158  0.2360  0.6568
  362MOL0     C49837   8.849   7.918   9.841  0.6485 -0.2427 -0.4930
  362MOL0     C49838   8.896   7.842   9.962 -1.4537  0.7891  0.1627
  362MOL0     C49839   8.924   7.692   9.931 -0.3089  0.5975 -0.3179
  362MOL0     C49840   8.970   7.626  10.061  0.6443  1.1066  0.9389
  362MOL0     C49841   8.970   7.469  10.071 -0.1147 -0.8175  0.4232
  362MOL0     O49842   9.074   7.414   9.985 -0.1053 -0.3736  0.2448
  362MOL0     C49843   9.093   7.275   9.991  0.6925  0.3106 -0.1486
  362MOL0     C49844   9.121   7.205  10.108  0.1093 -0.3458  0.9107
  362MOL0     C49845   9.136   7.066  10.114  0.2632  0.8502 -0.2137
  362MOL0     C49846   9.157   7.014  10.254  0.0342  0.4473 -1.8321
  362MOL0     C49847   9.118   6.984   9.997 -0.1994  0.2682 -0.3142
  362MOL0     C49848   9.122   6.830   9.995  0.4789 -1.0930 -0.8080
  362MOL0     O49849   9.072   6.780   9.884 -0.3931  1.1767 -0.0274
  362MOL0     C49850   9.043   6.642   9.880  1.1637 -0.2273  0.3191
  362MOL0     C49851   9.088   6.559   9.780 -0.5954 -0.1176 -1.0359
  362MOL0     C49852   9.063   6.420   9.786  0.4507 -0.4641 -0.7498
  362MOL0     C49853   8.984   6.369   9.884 -0.2074  0.1307 -0.0946
  362MOL0     O49854   8.933   6.243   9.873  0.1461  0.1110  0.8257
  362MOL0     C49855   8.934   6.154   9.981 -0.2509 -0.0177  0.7580
  362MOL0     C49856   8.814   6.063   9.979  0.0609  0.2061 -0.0846
  362MOL0     C49857   8.844   5.924  10.026  0.9948 -0.3725  0.2820
  362MOL0     C49858   8.896   5.921  10.170 -0.7131 -0.4475 -1.6517
  362MOL0     C49859   8.773   5.941  10.270  0.3548  0.5533  0.1167
  362MOL0     C49860   8.816   5.894  10.410 -0.1882  0.3084  0.9779
  362MOL0     C49861   8.709   5.922  10.516 -0.7305 -1.0413 -0.3834
  362MOL0     C49862   8.756   5.872  10.655  0.4424  0.0207 -0.7359
  362MOL0    Cl49863   8.743   5.691  10.681  0.2487  0.3293  0.6193
  362MOL0     C49864   8.937   6.449   9.987 -0.9172  0.5922 -0.1060
  362MOL0     C49865   8.974   6.589   9.991 -0.1085 -0.1502 -0.2503
  362MOL0     O49866   9.199   6.782  10.076 -0.5240  0.5101  0.0795
  362MOL0     C49867   9.094   7.056   9.874  0.4118  0.3909  0.4650
  362MOL0     C49868   9.081   7.196   9.878  0.2768 -0.0467  0.1043
  362MOL0     N49869   8.738   7.998   9.842  0.4314  0.1681 -0.5584
  362MOL0     N49870   8.739   8.061   9.728 -0.8290  0.3308  0.4391
  362MOL0     C49871   8.756   8.491   8.758  0.7405 -0.5227  0.5982
  362MOL0     C49872   8.621   8.524   8.734  0.0294 -0.3976 -0.5670
  362MOL0     C49873   8.179   8.448   8.640  0.2139  0.3245  0.6606
  362MOL0     C49874   8.129   8.533   8.740 -0.0128 -0.0987  0.3886
  362MOL0     C49875   8.001   8.599   8.712  0.1698  0.3140 -0.6537
  362MOL0     C49876   7.934   8.587   8.593 -0.2176 -0.1952 -0.7194
  362MOL0     O49877   7.824   8.659   8.552  0.6054 -0.5536 -0.3428
  362MOL0     C49878   7.752   8.745   8.649  0.0708  0.0092  0.1430
  362MOL0     C49879   7.784   8.889   8.616 -0.4104  0.7332  0.1819
  362MOL0     C49880   7.760   8.945   8.474 -0.2255 -0.3853  0.8047
  362MOL0     C49881   7.622   8.915   8.441 -0.7638  0.1950 -0.8929
  362MOL0     C49882   7.529   8.992   8.519 -0.2505 -0.4494 -0.5943
  362MOL0     C49883   7.447   9.044   8.589 -0.7357  1.1903 -0.3857
  362MOL0     C49884   7.995   8.517   8.493 -0.1849  1.0620  0.0745
  362MOL0     C49885   8.104   8.440   8.517 -0.0892  0.7120 -0.0683
  362MOL0     C49886   8.166   8.360   8.399  0.6094 -0.1129  0.2525
  362MOL0     H49887   8.502   8.194   8.759  0.6101  0.1323  1.7629
  362MOL0     H49888   8.752   8.153   8.760 -0.1371 -0.2131  1.8637
  362MOL0     H49889   9.034   8.172   8.834  1.1907 -0.1503  0.6897
  362MOL0     H49890   8.902   8.247   8.933  1.3230  1.1325  3.1381
  362MOL0     H49891   9.195   8.302   8.954 -0.5782 -0.0481  0.0320
  362MOL0     H49892   9.087   8.444   8.915  2.1508 -1.3697 -5.0612
  362MOL0     H49893   9.063   8.478   9.127 -1.8280 -0.2237  1.8895
  362MOL0     H49894   8.930   8.362   9.098 -0.1098 -1.0361  0.8305
  362MOL0     H49895   9.083   8.178   9.157 -2.7729  0.1701 -1.2750
  362MOL0     H49896   9.192   8.314   9.220 -1.2544  2.5846 -0.7109
  362MOL0     H49897   8.906   8.227   9.312 -0.9681  2.2108 -2.2894
  362MOL0     H49898   8.982   8.385   9.347 -0.0798  0.2589 -3.5720
  362MOL0     H49899   9.135   8.120   9.400 -2.7345 -2.1329  1.0585
  362MOL0     H49900   9.157   8.275   9.475 -0.3357 -0.8687  0.5808
  362MOL0     H49901   8.933   8.258   9.588 -0.8095  1.0572 -1.4070
  362MOL0     H49902   9.059   8.136   9.631  0.7125  1.3535 -0.3070
  362MOL0     H49903   8.812   8.083   9.455 -1.3472 -1.9948  0.4646
  362MOL0     H49904   8.946   7.972   9.469  0.3954  1.6907 -3.9556
  362MOL0     H49905   9.003   7.861   9.706  1.0193  1.7186  1.8510
  362MOL0     H49906   8.821   7.849  10.042 -3.2064  2.1392 -1.4807
  362MOL0     H49907   8.985   7.894   9.996 -1.4249  2.5374 -2.3514
  362MOL0     H49908   8.834   7.644   9.892 -0.9662  2.4284 -1.1099
  362MOL0     H49909   9.006   7.678   9.859  0.5638 -1.3363  0.9400
  362MOL0     H49910   9.070   7.670  10.069  1.9192 -0.8835 -2.2278
  362MOL0     H49911   8.905   7.651  10.145  0.0175 -0.4434  0.9565
  362MOL0     H49912   8.988   7.428  10.171  0.1768 -1.1742  0.2287
  362MOL0     H49913   8.875   7.425  10.038  0.5441 -0.6447 -1.9235
  362MOL0     H49914   9.145   7.260  10.198  0.7329  3.2118 -1.2603
  362MOL0     H49915   9.098   6.929  10.289  0.5582  1.4300  1.8093
  362MOL0     H49916   9.160   7.091  10.331  2.2323 -1.8156  0.5652
  362MOL0     H49917   9.254   6.964  10.246 -1.8004 -4.0474  0.2252
  362MOL0     H49918   9.145   6.602   9.699 -1.4934  1.4448 -0.8746
  362MOL0     H49919   9.106   6.354   9.712  1.2463  0.8627 -1.5141
  362MOL0     H49920   9.027   6.095   9.976 -1.7906 -2.8251  2.7331
  362MOL0     H49921   8.947   6.202  10.078  2.0448  2.5171 -0.6381
  362MOL0     H49922   8.735   6.114  10.035  0.5304  1.7684 -0.7718
  362MOL0     H49923   8.777   6.052   9.877 -4.3395  2.3718  1.0246
  362MOL0     H49924   8.908   5.863   9.962  0.4560 -1.8148  1.0897
  362MOL0     H49925   8.751   5.866  10.032  1.1877 -0.6634  0.4644
  362MOL0     H49926   8.977   5.989  10.201 -2.3093  0.4769  0.7540
  362MOL0     H49927   8.935   5.821  10.193  1.7858  1.3907  3.9122
  362MOL0     H49928   8.763   6.049  10.280  2.3199  0.5611  2.8409
  362MOL0     H49929   8.678   5.899  10.234  1.1039  0.1633 -1.4950
  362MOL0     H49930   8.906   5.945  10.446  1.1396 -1.8653  0.9031
  362MOL0     H49931   8.847   5.789  10.403 -0.1530  0.4159 -0.8498
  362MOL0     H49932   8.613   5.872  10.499 -1.5098  0.7585 -1.5265
  362MOL0     H49933   8.696   6.030  10.511 -1.1154 -1.0378  0.3879
  362MOL0     H49934   8.691   5.919  10.729  1.2965  2.0716 -1.2477
  362MOL0     H49935   8.852   5.921  10.672  0.4720  0.0813 -1.0637
  362MOL0     H49936   8.877   6.407  10.067 -1.6905 -0.8390 -1.3892
  362MOL0     H49937   8.954   6.648  10.079  0.2030 -0.0726 -0.2290
  362MOL0     H49938   9.095   7.002   9.779  1.8849 -0.8662  1.1536
  362MOL0     H49939   9.076   7.244   9.781  0.8910 -0.7586 -0.2883
  362MOL0     H49940   8.826   8.574   8.755 -0.8936  0.8844 -1.7395
  362MOL0     H49941   8.592   8.628   8.735  1.7505  0.1445  1.5417
  362MOL0     H49942   8.171   8.554   8.838 -3.4796 -1.4968  2.3683
  362MOL0     H49943   7.957   8.661   8.789  0.1474  2.3655 -2.2460
  362MOL0     H49944   7.643   8.733   8.643  0.2130 -0.5742 -2.3699
  362MOL0     H49945   7.786   8.721   8.750  1.4630 -2.7298 -0.8747
  362MOL0     H49946   7.890   8.904   8.636  0.6648 -2.0655 -2.6119
  362MOL0     H49947   7.740   8.960   8.687 -0.3394 -1.2840  2.3649
  362MOL0     H49948   7.786   9.051   8.469  0.8271 -0.5642  1.9612
  362MOL0     H49949   7.831   8.910   8.398  0.8197 -0.3162  1.7130
  362MOL0     H49950   7.607   8.810   8.467 -0.6730  1.0487  3.2938
  362MOL0     H49951   7.603   8.922   8.333 -3.0669 -0.7565 -0.6170
  362MOL0     H49952   7.362   9.078   8.644 -0.8904  0.6745 -0.2965
  362MOL0     H49953   7.958   8.516   8.391 -1.8994 -3.3550  0.5500
  362MOL0     H49954   8.130   8.415   8.311 -1.7430  2.7877  2.8253
  362MOL0     H49955   8.275   8.350   8.389  0.6921 -1.2215  1.9422
  362MOL0     H49956   8.116   8.263   8.400 -1.1709  0.6584 -2.4453
  363MOL0     O49957   2.703   0.258   4.952 -0.6253 -0.0104 -0.6815
  363MOL0     C49958   2.632   0.304   5.045  0.6681  0.3652  0.3868
  363MOL0     O49959   2.637   0.433   5.096 -0.2532 -0.2935 -0.3889
  363MOL0     C49960   2.730   0.531   5.038  0.2489  0.1320  1.2333
  363MOL0     C49961   2.685   0.669   5.043  0.1290  0.3044  0.4265
  363MOL0     C49962   2.763   0.771   4.981  0.7071  0.4349 -0.7347
  363MOL0     C49963   2.895   0.742   4.939 -0.4974  0.6874  0.5019
  363MOL0     O49964   2.981   0.843   4.898 -0.3815  0.1065  0.2135
  363MOL0     C49965   2.933   0.968   4.851 -0.2774  0.1068 -0.2934
  363MOL0     C49966   2.870   0.978   4.711  0.7273 -0.9026  0.8283
  363MOL0     C49967   2.872   1.131   4.677  0.1355 -0.0343 -0.0880
  363MOL0     C49968   2.841   1.156   4.523 -0.1258  0.6777 -1.0923
  363MOL0     C49969   2.856   1.294   4.478  0.7777  0.3099 -0.9151
  363MOL0     C49970   2.809   1.314   4.333  0.8622 -0.7875  0.2558
  363MOL0     C49971   2.802   1.459   4.283 -0.3774  0.2266 -0.3733
  363MOL0     C49972   2.657   1.521   4.269  1.3332  0.2553  0.7382
  363MOL0     N49973   2.642   1.604   4.154  0.2137 -0.6427  0.4122
  363MOL0     C49974   2.551   1.574   4.054 -0.0784  0.1037 -0.2313
  363MOL0     C49975   2.554   1.683   3.983 -0.2042  0.0824  0.4994
  363MOL0     C49976   2.476   1.700   3.865  0.1000 -0.1178  0.4451
  363MOL0     C49977   2.570   1.680   3.744 -0.4293  0.5774  0.7921
  363MOL0     C49978   2.493   1.715   3.614  0.0199  0.6435  0.2157
  363MOL0     C49979   2.583   1.718   3.494 -0.6545 -0.5763  0.8490
  363MOL0     O49980   2.527   1.655   3.382 -0.6573  0.9138 -0.7524
  363MOL0     C49981   2.601   1.641   3.267  0.5194  0.4048 -0.1848
  363MOL0     C49982   2.530   1.618   3.151 -0.4241  0.0072  0.0100
  363MOL0     C49983   2.590   1.593   3.030  0.6132 -0.0416  0.1911
  363MOL0     C49984   2.495   1.556   2.917  0.0656 -0.7782 -0.2920
  363MOL0     C49985   2.732   1.599   3.025  0.1112 -0.7242  0.0862
  363MOL0     C49986   2.807   1.568   2.902  0.3463 -0.9556  0.0434
  363MOL0     O49987   2.748   1.604   2.787  0.1496 -0.2266  0.6948
  363MOL0     C49988   2.787   1.536   2.670 -0.4856  0.5408 -0.6192
  363MOL0     C49989   2.913   1.550   2.614 -0.3443  0.1558  0.3837
  363MOL0     C49990   2.947   1.478   2.503 -0.5800  0.1112 -0.3646
  363MOL0     C49991   2.857   1.378   2.449  0.1602 -0.7509  0.4476
  363MOL0     O49992   2.895   1.304   2.341  0.1705  0.6229 -0.6264
  363MOL0     C49993   2.790   1.276   2.246  0.2836  0.6318 -0.2936
  363MOL0     C49994   2.797   1.368   2.127  0.8364 -0.0997  0.4180
  363MOL0     C49995   2.938   1.358   2.063 -0.3022  0.3240  0.7097
  363MOL0     C49996   2.942   1.464   1.955  0.1602  0.4509  0.1706
  363MOL0     C49997   3.065   1.457   1.859  0.0656 -0.1089 -1.0781
  363MOL0     C49998   3.066   1.340   1.762  0.3374  0.1323  0.8652
  363MOL0     C49999   3.156   1.376   1.639  0.6845  0.3219 -0.7637
  363MOL0     C50000   3.253   1.265   1.605 -0.2241 -0.0679  0.4223
  363MOL0    Cl50001   3.160   1.117   1.564 -0.1979 -0.1698 -0.1220
  363MOL0     C50002   2.727   1.379   2.501  1.0543  0.1495  0.1483
  363MOL0     C50003   2.695   1.448   2.610 -0.1472 -0.3480 -0.2227
  363MOL0     O50004   2.923   1.528   2.912  0.3118  0.0138 -0.0218
  363MOL0     C50005   2.796   1.628   3.149 -0.7662 -0.1184 -0.5622
  363MOL0     C50006   2.735   1.646   3.270 -1.2523  0.4568  0.7531
  363MOL0     N50007   2.640   1.774   4.042  0.9874 -0.3270 -0.1456
  363MOL0     N50008   2.693   1.729   4.145 -0.1210  0.2686 -0.2529
  363MOL0     C50009   2.944   0.608   4.948 -0.0324  1.0132 -0.1723
  363MOL0     C50010   2.867   0.505   4.997  0.6707 -0.0009  0.1566
  363MOL0     C50011   2.519   0.226   5.105  0.5501  0.2721 -0.1960
  363MOL0     C50012   2.455   0.123   5.030 -0.2885 -1.1542  0.0860
  363MOL0     C50013   2.345   0.059   5.078 -0.3615 -0.4798 -0.4381
  363MOL0     C50014   2.285   0.096   5.196  0.0997  0.8523 -0.0801
  363MOL0     O50015   2.180   0.021   5.251  0.3017 -0.1865 -0.4874
  363MOL0     C50016   2.097  -0.051   5.153  0.1680 -0.5758 -0.6441
  363MOL0     C50017   1.956  -0.053   5.196 -0.0188  0.1671  0.0694
  363MOL0     C50018   1.930  -0.146   5.311 -0.4306  0.1427 -0.0200
  363MOL0     C50019   1.788  -0.183   5.351  0.1287 -0.3986 -0.2068
  363MOL0     C50020   1.706  -0.066   5.385 -0.2045 -0.2178  0.4021
  363MOL0     C50021   1.632   0.019   5.426 -0.5447 -1.0630 -0.3538
  363MOL0     C50022   2.341   0.198   5.267 -0.5520  0.6021  0.0704
  363MOL0     C50023   2.465   0.264   5.232  0.8363 -0.0358  1.4940
  363MOL0     C50024   2.511   0.365   5.333 -0.3633 -0.2323  0.7986
  363MOL0     H50025   2.589   0.684   5.092 -0.7983 -1.1239 -0.8605
  363MOL0     H50026   2.719   0.869   4.970 -0.2946 -0.1319 -2.1528
  363MOL0     H50027   3.026   1.025   4.843  0.3091 -0.4887  1.5446
  363MOL0     H50028   2.872   1.028   4.920 -0.0696  0.8323 -0.7352
  363MOL0     H50029   2.930   0.919   4.642  0.3995 -0.5197  0.2036
  363MOL0     H50030   2.763   0.955   4.703  0.8653 -0.9118 -2.7105
  363MOL0     H50031   2.796   1.189   4.730  0.6588  1.3478 -0.8031
  363MOL0     H50032   2.967   1.173   4.711  0.8375 -2.3854  1.0113
  363MOL0     H50033   2.903   1.090   4.461 -1.8584 -0.8657 -1.2945
  363MOL0     H50034   2.738   1.126   4.500 -1.3849  2.3670  1.8343
  363MOL0     H50035   2.960   1.324   4.493  0.8281 -0.4920  0.4695
  363MOL0     H50036   2.790   1.365   4.529  3.7052  3.3613 -0.9919
  363MOL0     H50037   2.880   1.260   4.270  2.5595  0.9731  0.5516
  363MOL0     H50038   2.709   1.272   4.322 -0.0512  0.9545  1.3611
  363MOL0     H50039   2.852   1.475   4.187 -1.5895 -0.2810 -1.1107
  363MOL0     H50040   2.862   1.515   4.355 -0.1467 -2.0241  1.2684
  363MOL0     H50041   2.590   1.435   4.260 -1.0849  1.8346  2.5764
  363MOL0     H50042   2.636   1.571   4.364 -0.4389 -3.6588  2.6141
  363MOL0     H50043   2.477   1.497   4.041 -2.8828  2.7170 -0.8216
  363MOL0     H50044   2.432   1.800   3.868  1.5081  0.5172  0.6519
  363MOL0     H50045   2.397   1.624   3.861  2.7712 -3.0694  0.3548
  363MOL0     H50046   2.652   1.753   3.754 -0.5066  0.5406  1.7835
  363MOL0     H50047   2.621   1.584   3.734  0.8832  1.1499  1.5386
  363MOL0     H50048   2.406   1.651   3.597  1.4397 -2.0242  2.2359
  363MOL0     H50049   2.443   1.810   3.632  0.9310  0.7918  2.1567
  363MOL0     H50050   2.619   1.819   3.473  1.3346 -1.6936 -1.7116
  363MOL0     H50051   2.674   1.662   3.516 -0.2463 -0.9740 -1.5191
  363MOL0     H50052   2.422   1.612   3.161 -0.3251  0.1259  1.3447
  363MOL0     H50053   2.532   1.463   2.873  1.1727 -0.7736  0.5789
  363MOL0     H50054   2.492   1.637   2.844 -1.1381  0.0869  0.6750
  363MOL0     H50055   2.393   1.544   2.955  0.0933 -0.5138 -0.1295
  363MOL0     H50056   2.982   1.627   2.648  1.0842 -0.3316 -1.2506
  363MOL0     H50057   3.040   1.501   2.452  0.4667  0.5098  1.6247
  363MOL0     H50058   2.821   1.177   2.210  1.4809 -0.4141  3.1756
  363MOL0     H50059   2.691   1.266   2.291  1.8716 -0.8082  3.2829
  363MOL0     H50060   2.742   1.325   2.043  1.8723 -1.7574  0.5358
  363MOL0     H50061   2.765   1.469   2.151 -0.7784 -0.6453  0.6532
  363MOL0     H50062   2.962   1.261   2.020 -0.8824 -0.4119  1.9855
  363MOL0     H50063   3.002   1.375   2.150 -2.4791  0.9525  2.2569
  363MOL0     H50064   2.941   1.561   2.007  1.6602 -0.1198  1.3253
  363MOL0     H50065   2.848   1.459   1.899  0.4568 -1.3425 -0.2021
  363MOL0     H50066   3.061   1.550   1.802  2.5641  0.1611 -0.9089
  363MOL0     H50067   3.159   1.455   1.915  1.8287 -0.4673 -3.8486
  363MOL0     H50068   2.961   1.320   1.739  0.0133 -0.3402  2.6321
  363MOL0     H50069   3.098   1.250   1.815 -2.0050 -0.9796  0.5481
  363MOL0     H50070   3.204   1.472   1.659 -2.2475  2.0792 -1.5838
  363MOL0     H50071   3.087   1.387   1.555 -1.9795 -1.6513  0.9723
  363MOL0     H50072   3.328   1.243   1.682 -0.0776  1.7539  0.8510
  363MOL0     H50073   3.317   1.283   1.517  1.8106 -2.5340  1.2679
  363MOL0     H50074   2.650   1.309   2.472 -0.0264  0.8692  1.1914
  363MOL0     H50075   2.598   1.440   2.658  0.0934  1.0350  0.5553
  363MOL0     H50076   2.902   1.632   3.171 -0.9165 -4.2198  2.0517
  363MOL0     H50077   2.801   1.676   3.350 -0.5321  1.5095 -0.2035
  363MOL0     H50078   3.043   0.573   4.918  1.0972  1.2497  2.9448
  363MOL0     H50079   2.916   0.408   5.001  2.9655  1.1259  0.8659
  363MOL0     H50080   2.491   0.102   4.930  0.8941 -0.1889  0.2915
  363MOL0     H50081   2.303  -0.021   5.017 -0.6966 -0.2164 -0.5557
  363MOL0     H50082   2.094   0.004   5.059 -0.7116  0.3467 -0.0964
  363MOL0     H50083   2.135  -0.153   5.142 -3.2179 -1.7628 -2.7420
  363MOL0     H50084   1.894  -0.092   5.115 -1.1702  1.6686  0.1902
  363MOL0     H50085   1.927   0.050   5.221 -1.2836 -0.5272  1.6935
  363MOL0     H50086   1.988  -0.234   5.282  0.0725  1.4352 -3.2488
  363MOL0     H50087   1.982  -0.089   5.389  1.2748  0.0920 -1.0875
  363MOL0     H50088   1.804  -0.240   5.443  1.3946  2.8602  1.7345
  363MOL0     H50089   1.732  -0.252   5.286 -4.2080  0.3407  2.3984
  363MOL0     H50090   1.554   0.084   5.459  1.0272 -0.4720  2.5586
  363MOL0     H50091   2.303   0.229   5.364 -0.6773  0.4902  0.0581
  363MOL0     H50092   2.506   0.471   5.305  0.4012 -0.0472  1.3333
  363MOL0     H50093   2.449   0.361   5.424 -3.3579  4.0798 -0.6854
  363MOL0     H50094   2.616   0.340   5.348 -0.0383 -0.9315 -2.1578
  364MOL0     O50095   4.013   6.600   9.951 -0.1985  0.1056  0.1425
  364MOL0     C50096   4.063   6.584  10.065  0.0994 -0.4490 -0.0195
  364MOL0     O50097   4.140   6.475  10.102  0.5863  0.1630  0.3552
  364MOL0     C50098   4.168   6.369  10.015  0.6631 -0.1674  1.1406
  364MOL0     C50099   4.285   6.284  10.039  0.3131 -0.6720 -0.4358
  364MOL0     C50100   4.310   6.182   9.957 -0.7786  0.1276  0.2934
  364MOL0     C50101   4.244   6.150   9.843  0.6997 -0.5730 -0.1853
  364MOL0     O50102   4.269   6.048   9.761  0.1042  0.7115  0.4476
  364MOL0     C50103   4.393   5.973   9.768 -0.0273  0.6931  0.6960
  364MOL0     C50104   4.404   5.891   9.635  0.8532  0.1478  0.5819
  364MOL0     C50105   4.532   5.804   9.617 -0.0449 -0.8940 -0.0985
  364MOL0     C50106   4.519   5.672   9.703 -0.7067 -0.9361  0.6376
  364MOL0     C50107   4.652   5.597   9.679  0.0188 -0.4243  1.0458
  364MOL0     C50108   4.659   5.484   9.790  0.4910 -0.5919  0.3493
  364MOL0     C50109   4.781   5.394   9.755  0.7601  0.3738 -0.1299
  364MOL0     C50110   4.744   5.289   9.646  0.0822  0.0481  0.0145
  364MOL0     N50111   4.642   5.207   9.702 -0.2506  0.8020  0.4994
  364MOL0     C50112   4.643   5.105   9.794  0.4120 -0.3042  0.5999
  364MOL0     C50113   4.524   5.038   9.793  1.0713 -0.1701 -0.6919
  364MOL0     C50114   4.474   4.920   9.876 -0.6283 -0.4139 -1.0379
  364MOL0     C50115   4.412   4.958  10.010 -0.2990 -0.8850  0.6646
  364MOL0     C50116   4.514   5.003  10.109 -0.9072 -0.3303 -0.8651
  364MOL0     C50117   4.443   5.079  10.231 -0.0656  0.7049  0.5386
  364MOL0     O50118   4.529   5.064  10.349 -0.0151  0.2107 -0.1184
  364MOL0     C50119   4.634   5.149  10.349 -0.7370  0.8778  0.1968
  364MOL0     C50120   4.761   5.100  10.381  0.9041  0.0976 -0.4471
  364MOL0     C50121   4.866   5.190  10.393 -0.5379  0.4417 -0.2475
  364MOL0     C50122   5.003   5.125  10.425  0.0796 -0.4589 -0.5450
  364MOL0     C50123   4.845   5.328  10.363 -0.7629 -0.1023  0.5288
  364MOL0     C50124   4.962   5.431  10.360 -0.1831  0.1140  1.0079
  364MOL0     O50125   4.943   5.553  10.298  0.7314 -0.0877  0.6253
  364MOL0     C50126   5.047   5.638  10.263 -0.0969  0.2859  0.1608
  364MOL0     C50127   5.128   5.701  10.353 -0.7755  0.0053 -0.6164
  364MOL0     C50128   5.238   5.791  10.318 -0.3891  0.6058  0.2145
  364MOL0     C50129   5.262   5.816  10.186 -0.3343  1.1620 -0.7127
  364MOL0     O50130   5.340   5.927  10.162  0.5816  0.1259  0.6590
  364MOL0     C50131   5.291   6.021  10.061 -0.2660  1.3833 -0.1369
  364MOL0     C50132   5.399   6.119  10.012  0.4155 -0.2072 -0.3484
  364MOL0     C50133   5.520   6.056   9.939 -0.0209 -0.8966  0.4685
  364MOL0     C50134   5.638   6.152   9.924 -0.1087  1.1071 -0.4275
  364MOL0     C50135   5.746   6.075   9.854 -1.1114  0.5616 -0.2710
  364MOL0     C50136   5.868   6.169   9.848  0.3215 -0.1545  0.0113
  364MOL0     C50137   5.984   6.111   9.761 -0.4777 -0.7327  0.5836
  364MOL0     C50138   6.116   6.189   9.771 -0.4169  0.4313 -0.6241
  364MOL0    Cl50139   6.122   6.350   9.714  0.1088 -0.6293  0.0678
  364MOL0     C50140   5.185   5.747  10.088  0.5110  0.1892  0.1207
  364MOL0     C50141   5.087   5.655  10.129  0.6430  0.0814 -1.0106
  364MOL0     O50142   5.063   5.406  10.419 -0.4033  0.3965 -0.2540
  364MOL0     C50143   4.716   5.375  10.332  0.6341 -0.1352 -0.2221
  364MOL0     C50144   4.620   5.279  10.327  0.0385  0.3600 -1.1576
  364MOL0     N50145   4.447   5.101   9.703 -0.7326  0.0418 -0.8208
  364MOL0     N50146   4.519   5.195   9.644  0.0682 -0.0087 -0.0582
  364MOL0     C50147   4.138   6.233   9.809  0.3123  0.1399 -0.0434
  364MOL0     C50148   4.102   6.339   9.890  0.9677 -1.4599 -0.2034
  364MOL0     C50149   4.052   6.679  10.180  0.4354  0.4899  0.7645
  364MOL0     C50150   4.035   6.633  10.311 -0.4341 -0.2786  0.7961
  364MOL0     C50151   4.017   6.709  10.430 -0.2331  0.3071 -0.6276
  364MOL0     C50152   4.038   6.846  10.421 -0.8835 -0.0469 -0.1386
  364MOL0     O50153   4.046   6.921  10.530  0.0285 -0.4811  0.0274
  364MOL0     C50154   4.052   7.062  10.546  1.1526 -0.1565  0.2946
  364MOL0     C50155   4.192   7.095  10.603 -0.0012  0.3259 -0.9924
  364MOL0     C50156   4.303   7.081  10.503 -0.4052  0.1545 -0.7364
  364MOL0     C50157   4.439   7.126  10.562  0.3902 -0.2897  0.1624
  364MOL0     C50158   4.510   7.017  10.629  0.5676  0.7822 -1.4879
  364MOL0     C50159   4.566   6.928  10.695 -0.5683  0.0466  1.0079
  364MOL0     C50160   4.061   6.901  10.287 -0.5225 -0.6543 -0.0589
  364MOL0     C50161   4.080   6.817  10.175 -0.1272 -0.7620 -0.5253
  364MOL0     C50162   4.106   6.882  10.049 -0.1379  0.9633 -0.5485
  364MOL0     H50163   4.337   6.295  10.134 -2.6565 -1.2304  1.3708
  364MOL0     H50164   4.383   6.109   9.991 -0.7447 -0.5812 -1.2098
  364MOL0     H50165   4.393   5.906   9.854 -0.8390 -2.3577 -1.5216
  364MOL0     H50166   4.482   6.037   9.772 -0.1805  1.2088 -2.1746
  364MOL0     H50167   4.327   5.813   9.627  1.0887 -0.0878  0.5706
  364MOL0     H50168   4.378   5.962   9.556 -0.4574 -0.9795 -0.0442
  364MOL0     H50169   4.531   5.775   9.512 -0.4933  2.6972 -1.2248
  364MOL0     H50170   4.620   5.860   9.650  0.5693 -1.0420 -1.4371
  364MOL0     H50171   4.514   5.718   9.802  0.4234 -1.0264  0.7511
  364MOL0     H50172   4.432   5.608   9.688 -0.7212 -0.4990 -1.4711
  364MOL0     H50173   4.740   5.662   9.683 -0.2386  0.2135 -1.6359
  364MOL0     H50174   4.656   5.556   9.578 -0.5563 -0.4305  1.0211
  364MOL0     H50175   4.672   5.539   9.884  0.8635  1.5287 -0.8695
  364MOL0     H50176   4.564   5.431   9.799  0.7949 -1.2477 -0.2278
  364MOL0     H50177   4.813   5.334   9.841  3.1090  0.0411 -1.1535
  364MOL0     H50178   4.864   5.460   9.729  1.3907  0.1882  1.3293
  364MOL0     H50179   4.715   5.337   9.552 -0.6678  3.6993  1.9096
  364MOL0     H50180   4.825   5.218   9.629  1.8577  1.7481  1.0268
  364MOL0     H50181   4.726   5.069   9.854  2.0389 -0.8433 -1.8361
  364MOL0     H50182   4.544   4.837   9.882 -2.1179 -1.6454  0.3524
  364MOL0     H50183   4.387   4.883   9.821 -1.2993 -1.4687  0.6546
  364MOL0     H50184   4.332   5.031   9.993  0.7993 -0.0263 -1.0442
  364MOL0     H50185   4.372   4.870  10.062  1.3448 -0.6392  2.4592
  364MOL0     H50186   4.573   4.921  10.152 -0.1178 -0.0210 -1.3224
  364MOL0     H50187   4.580   5.080  10.068  0.1092 -0.2537  0.8157
  364MOL0     H50188   4.422   5.182  10.201  0.4188  0.8800  0.7903
  364MOL0     H50189   4.342   5.041  10.247 -1.0567  1.7733 -2.3929
  364MOL0     H50190   4.775   5.000  10.420  2.3464  1.9745  4.6096
  364MOL0     H50191   5.035   5.176  10.516 -0.0121  0.1859 -0.8666
  364MOL0     H50192   5.071   5.143  10.341 -0.8364  0.0782 -1.1830
  364MOL0     H50193   4.992   5.018  10.445 -0.9884 -0.2384  0.0955
  364MOL0     H50194   5.116   5.669  10.456 -1.2015 -2.4031 -1.3657
  364MOL0     H50195   5.310   5.833  10.387 -0.1136  1.0313 -0.3274
  364MOL0     H50196   5.244   5.992   9.967 -1.3239  3.8554 -0.4577
  364MOL0     H50197   5.218   6.077  10.121  0.7053  0.4938  1.9951
  364MOL0     H50198   5.349   6.180   9.937 -0.0262 -2.5173 -2.0798
  364MOL0     H50199   5.434   6.175  10.099  2.6504  0.0926 -1.3759
  364MOL0     H50200   5.484   6.029   9.839 -2.3074  0.2698  0.8976
  364MOL0     H50201   5.548   5.964   9.993  1.9582  1.0663  3.0437
  364MOL0     H50202   5.674   6.188  10.020 -1.9650 -1.9444  1.5716
  364MOL0     H50203   5.591   6.231   9.865  1.9967  1.6792 -1.4528
  364MOL0     H50204   5.768   5.994   9.924 -0.8614 -0.7952 -1.8812
  364MOL0     H50205   5.724   6.050   9.750  0.2969 -0.5828 -0.3263
  364MOL0     H50206   5.903   6.192   9.949 -2.0827 -0.6016  1.0224
  364MOL0     H50207   5.833   6.265   9.807  0.8723  0.1961  0.3513
  364MOL0     H50208   5.953   6.109   9.656  2.3023 -1.5009 -0.3145
  364MOL0     H50209   6.012   6.009   9.791  1.1999  0.4711  3.5055
  364MOL0     H50210   6.185   6.124   9.717  1.1922 -2.0271  3.8473
  364MOL0     H50211   6.135   6.185   9.879 -0.8111  1.5006 -0.5015
  364MOL0     H50212   5.180   5.760   9.981 -2.6634 -3.9178 -0.4991
  364MOL0     H50213   5.023   5.609  10.055  0.4996 -1.3754 -0.0384
  364MOL0     H50214   4.690   5.480  10.320  0.6130 -0.3400 -2.2443
  364MOL0     H50215   4.523   5.323  10.307  0.6779  2.9220  0.7700
  364MOL0     H50216   4.078   6.193   9.728 -1.3211 -0.7370  1.5355
  364MOL0     H50217   4.017   6.392   9.850  1.2005 -2.6635 -2.4623
  364MOL0     H50218   4.043   6.526  10.327 -2.9747 -0.9117 -1.4077
  364MOL0     H50219   4.000   6.670  10.530  2.0638  0.4217 -0.1395
  364MOL0     H50220   4.019   7.118  10.458 -0.2261  3.9530  3.1655
  364MOL0     H50221   3.976   7.070  10.624  1.2714 -2.1004  0.6592
  364MOL0     H50222   4.213   7.028  10.688 -3.3901 -0.7195 -0.8073
  364MOL0     H50223   4.191   7.198  10.640 -2.0558  0.7157 -1.9518
  364MOL0     H50224   4.317   6.985  10.454  1.5533  1.0987 -2.1971
  364MOL0     H50225   4.270   7.143  10.419 -0.9420 -0.8355 -1.2723
  364MOL0     H50226   4.409   7.212  10.622 -1.0519  1.8059 -3.2753
  364MOL0     H50227   4.514   7.168  10.495  3.0991 -0.4470  2.8768
  364MOL0     H50228   4.622   6.851  10.744 -0.5971 -0.9768 -0.5027
  364MOL0     H50229   4.070   7.009  10.285  1.1646 -0.7052  1.6276
  364MOL0     H50230   4.021   6.870   9.980 -3.0493  0.7981  2.7568
  364MOL0     H50231   4.155   6.978  10.066  2.3810 -0.2729 -0.4377
  364MOL0     H50232   4.190   6.831  10.001 -0.0027 -1.7901  2.3279
  365MOL0     O50233   8.837  10.899   6.176  0.6661  0.3801 -0.5412
  365MOL0     C50234   8.825  11.021   6.151 -0.5322  0.8530 -0.6842
  365MOL0     O50235   8.738  11.104   6.210  0.6777 -0.7260  0.5704
  365MOL0     C50236   8.645  11.070   6.309  1.6793  1.0046  0.2800
  365MOL0     C50237   8.655  10.953   6.387  0.2576  0.0685  0.1689
  365MOL0     C50238   8.570  10.936   6.499 -0.9496 -0.6528 -0.0274
  365MOL0     C50239   8.473  11.034   6.532 -0.5654  0.0604 -0.2235
  365MOL0     O50240   8.385  11.021   6.635 -0.2831  0.0639 -0.1631
  365MOL0     C50241   8.379  10.902   6.711 -1.2467 -0.5974  0.6283
  365MOL0     C50242   8.268  10.906   6.818 -0.1289  0.1174  0.3294
  365MOL0     C50243   8.139  10.882   6.746 -0.5379 -0.6892  0.1792
  365MOL0     C50244   8.022  10.866   6.842  0.5505 -1.2455  0.4477
  365MOL0     C50245   8.041  10.743   6.916  0.2371  0.5016 -0.0914
  365MOL0     C50246   8.052  10.614   6.832  0.4729 -0.7715 -0.6458
  365MOL0     C50247   8.038  10.475   6.903 -0.1718  0.2834 -0.4700
  365MOL0     C50248   8.161  10.440   6.997 -0.5447  0.1450 -0.2360
  365MOL0     N50249   8.134  10.307   7.042  0.1168  0.8933 -0.2031
  365MOL0     C50250   8.201  10.205   6.990  0.2382 -0.3488  0.0296
  365MOL0     C50251   8.202  10.111   7.092  0.7077 -0.5331 -0.0566
  365MOL0     C50252   8.283   9.986   7.081  0.8963  0.1424  0.2817
  365MOL0     C50253   8.428  10.001   7.126  0.5754 -0.1671 -0.5766
  365MOL0     C50254   8.481  10.015   7.275  0.5606  0.0216 -0.2905
  365MOL0     C50255   8.479  10.159   7.325 -0.1195 -0.6447 -0.2178
  365MOL0     O50256   8.516  10.162   7.467  0.5227  0.3883  0.4836
  365MOL0     C50257   8.424  10.155   7.564 -0.6110 -0.1659 -0.5828
  365MOL0     C50258   8.473  10.196   7.685  0.3993 -0.6911 -1.2470
  365MOL0     C50259   8.390  10.200   7.792  0.1343 -0.1434  0.2021
  365MOL0     C50260   8.464  10.260   7.912  0.5001  0.3009 -0.8412
  365MOL0     C50261   8.257  10.143   7.776 -0.0308 -0.6536 -0.4596
  365MOL0     C50262   8.166  10.153   7.894  0.4840  0.2580  0.0682
  365MOL0     O50263   8.220  10.136   8.025 -0.2890 -0.2827 -0.3801
  365MOL0     C50264   8.139  10.104   8.133 -0.2264 -0.0266 -1.2679
  365MOL0     C50265   8.187  10.162   8.254 -0.7924  0.3231 -0.2023
  365MOL0     C50266   8.124  10.137   8.377 -0.4893 -1.0940  0.7205
  365MOL0     C50267   8.007  10.063   8.367  0.0783 -0.1017 -0.3210
  365MOL0     O50268   7.949  10.043   8.495 -0.9903  0.3161  1.0294
  365MOL0     C50269   7.820  10.096   8.523  0.3429  0.6636  0.9303
  365MOL0     C50270   7.790  10.123   8.669  0.7664  0.5867  0.9345
  365MOL0     C50271   7.864  10.247   8.726  0.1388 -1.3088  0.9227
  365MOL0     C50272   7.849  10.249   8.879  0.9367 -0.0790 -0.1985
  365MOL0     C50273   7.899  10.377   8.941  0.5832 -0.0542  0.0718
  365MOL0     C50274   7.829  10.514   8.897  0.4977  0.0749  0.4792
  365MOL0     C50275   7.898  10.630   8.974 -0.5086 -0.7311 -0.7406
  365MOL0     C50276   7.968  10.737   8.888  0.5019 -1.1911 -0.4475
  365MOL0    Cl50277   8.107  10.660   8.807 -0.1773 -0.3011  0.1153
  365MOL0     C50278   7.976   9.991   8.253  0.3900 -0.0293 -0.2056
  365MOL0     C50279   8.037  10.010   8.127 -0.0930  0.0096 -0.4269
  365MOL0     O50280   8.050  10.174   7.867  0.4875 -0.5991 -0.0744
  365MOL0     C50281   8.210  10.101   7.643 -0.3654  0.0353  0.3332
  365MOL0     C50282   8.293  10.109   7.532 -0.9796 -0.3358 -0.6389
  365MOL0     N50283   8.122  10.157   7.192 -1.5960 -0.3534  1.3282
  365MOL0     N50284   8.084  10.274   7.161  0.1205 -0.0690  0.5167
  365MOL0     C50285   8.473  11.145   6.444  0.2960  0.5428  0.1430
  365MOL0     C50286   8.548  11.165   6.339 -0.3103  0.1601  0.1794
  365MOL0     C50287   8.911  11.089   6.049 -0.9388 -0.3228  0.6966
  365MOL0     C50288   8.850  11.181   5.969  0.2719  0.2604  0.1123
  365MOL0     C50289   8.910  11.242   5.857 -0.3158 -0.0139  0.4670
  365MOL0     C50290   9.036  11.208   5.816  0.0076 -0.2183 -0.6483
  365MOL0     O50291   9.096  11.273   5.711  0.5586 -0.4396  0.3265
  365MOL0     C50292   9.216  11.353   5.731 -0.3214 -0.0361  0.5095
  365MOL0     C50293   9.275  11.376   5.595  0.0432 -0.1031 -0.5068
  365MOL0     C50294   9.410  11.449   5.581 -0.7777  0.3954 -0.0875
  365MOL0     C50295   9.531  11.394   5.663 -0.1448 -0.1486  0.7622
  365MOL0     C50296   9.519  11.248   5.667 -0.4322  0.5109  1.2596
  365MOL0     C50297   9.494  11.127   5.663 -0.3260 -0.1522 -0.2495
  365MOL0     C50298   9.092  11.107   5.887 -0.4465 -0.1332 -0.1521
  365MOL0     C50299   9.039  11.051   6.008  0.3920 -0.1547  0.5356
  365MOL0     C50300   9.111  10.944   6.080  0.2937  0.0854 -0.5019
  365MOL0     H50301   8.733  10.880   6.365  1.2122  0.4799  1.9479
  365MOL0     H50302   8.584  10.848   6.561  1.6239  1.5388  2.8060
  365MOL0     H50303   8.467  10.885   6.773  2.6469  0.7340 -3.9486
  365MOL0     H50304   8.368  10.829   6.630 -0.2491 -0.0494 -0.0218
  365MOL0     H50305   8.288  10.832   6.896 -1.2315  1.7529  2.2660
  365MOL0     H50306   8.261  11.003   6.869  3.0743  0.3575  0.5020
  365MOL0     H50307   8.125  10.974   6.688  2.5608  1.6633  2.7559
  365MOL0     H50308   8.138  10.806   6.667 -1.6661 -0.1322 -0.3578
  365MOL0     H50309   8.025  10.950   6.912 -1.3497  0.5004 -1.4068
  365MOL0     H50310   7.923  10.881   6.797  1.6460  1.3285 -1.3897
  365MOL0     H50311   7.960  10.723   6.987  1.2193 -1.3138  0.5754
  365MOL0     H50312   8.123  10.754   6.987 -0.0622 -1.7567  0.6898
  365MOL0     H50313   7.973  10.613   6.756  1.2827  0.9566 -1.5714
  365MOL0     H50314   8.139  10.615   6.765 -0.6266  0.7486 -2.1357
  365MOL0     H50315   8.042  10.397   6.827  4.5110  0.1337 -0.4134
  365MOL0     H50316   7.945  10.466   6.960  2.3931 -0.6723  4.1693
  365MOL0     H50317   8.252  10.438   6.937 -0.4075 -1.0184 -0.0109
  365MOL0     H50318   8.147  10.512   7.078 -2.5781  0.1304 -0.5144
  365MOL0     H50319   8.262  10.213   6.900  0.7598 -0.4194  0.3682
  365MOL0     H50320   8.289   9.936   6.984  1.3299 -0.3676  0.5666
  365MOL0     H50321   8.239   9.919   7.155  0.7825  1.7540  1.7544
  365MOL0     H50322   8.479   9.910   7.092  0.4797 -0.5147  0.1644
  365MOL0     H50323   8.463  10.092   7.077  0.4318  0.0780 -0.2285
  365MOL0     H50324   8.414   9.946   7.329  2.1381 -0.9696  0.4943
  365MOL0     H50325   8.586   9.986   7.281  0.7227  0.3630 -1.2827
  365MOL0     H50326   8.559  10.215   7.277 -1.4290  1.5270 -0.0127
  365MOL0     H50327   8.386  10.214   7.306 -0.3560 -1.4795 -1.6641
  365MOL0     H50328   8.576  10.229   7.691  1.7612 -4.6614  1.7892
  365MOL0     H50329   8.573  10.261   7.900  0.7554 -1.6013  0.9105
  365MOL0     H50330   8.451  10.204   8.005  2.1171  1.0420 -0.1295
  365MOL0     H50331   8.427  10.363   7.915  1.0289  0.4880 -0.4855
  365MOL0     H50332   8.279  10.219   8.259  0.1166 -1.1469  0.4945
  365MOL0     H50333   8.143  10.180   8.474 -3.3918  1.5452  0.2670
  365MOL0     H50334   7.806  10.186   8.463 -3.2184 -0.8418 -0.7955
  365MOL0     H50335   7.747  10.023   8.487  1.3761 -0.0503  0.1901
  365MOL0     H50336   7.683  10.141   8.678  0.6114 -0.8561  2.4029
  365MOL0     H50337   7.813  10.034   8.728  2.8127  1.4977  1.6138
  365MOL0     H50338   7.808  10.332   8.686  0.7964 -0.2120  2.2664
  365MOL0     H50339   7.966  10.254   8.687 -0.3222 -0.8423 -0.2504
  365MOL0     H50340   7.892  10.155   8.916  0.7794 -0.2227 -0.3785
  365MOL0     H50341   7.741  10.250   8.900  0.4625  0.2532 -2.4605
  365MOL0     H50342   7.874  10.387   9.047 -0.6683  2.3629 -0.3647
  365MOL0     H50343   8.008  10.387   8.937  0.5119  1.0443  0.4583
  365MOL0     H50344   7.720  10.518   8.907  0.4151 -0.1207 -0.2310
  365MOL0     H50345   7.849  10.533   8.791  1.9765 -0.7457  0.5871
  365MOL0     H50346   7.972  10.594   9.046 -0.4902  1.6175  0.5127
  365MOL0     H50347   7.813  10.680   9.023 -2.6682 -2.2640 -2.7170
  365MOL0     H50348   7.996  10.819   8.955 -1.1997  1.0847 -2.3365
  365MOL0     H50349   7.904  10.789   8.815  2.2112  1.0369 -0.4750
  365MOL0     H50350   7.891   9.924   8.264 -1.4102  1.8062 -2.1057
  365MOL0     H50351   8.034   9.953   8.034  0.7679 -0.7992  0.0337
  365MOL0     H50352   8.105  10.073   7.638 -0.6218  0.0561  3.4127
  365MOL0     H50353   8.241  10.077   7.442 -1.9643 -0.3504 -0.0826
  365MOL0     H50354   8.398  11.220   6.467 -1.2988 -1.0631  0.3083
  365MOL0     H50355   8.546  11.263   6.293 -1.3396  1.8888  3.5092
  365MOL0     H50356   8.744  11.204   5.970  0.4919  1.4650 -0.8152
  365MOL0     H50357   8.844  11.310   5.804  0.7632  3.2818  2.9630
  365MOL0     H50358   9.184  11.448   5.774 -1.6664 -1.0751  1.8838
  365MOL0     H50359   9.286  11.302   5.798 -0.9886  0.0760  1.2965
  365MOL0     H50360   9.208  11.434   5.531 -0.1274 -1.2372 -1.3998
  365MOL0     H50361   9.269  11.287   5.531 -1.6535  0.3778 -1.0932
  365MOL0     H50362   9.432  11.431   5.476 -1.2226 -2.0601  0.1850
  365MOL0     H50363   9.384  11.551   5.611 -1.5734  0.6279 -1.5062
  365MOL0     H50364   9.534  11.435   5.765  1.8724 -1.6585  1.3794
  365MOL0     H50365   9.623  11.432   5.616 -0.3696 -0.4085  0.1048
  365MOL0     H50366   9.480  11.021   5.658 -0.9686 -0.0676 -0.2682
  365MOL0     H50367   9.197  11.084   5.867 -0.6983 -1.0463 -0.4939
  365MOL0     H50368   9.123  10.960   6.187 -1.0050  2.1720 -0.6122
  365MOL0     H50369   9.063  10.848   6.060  0.4337 -0.2415  0.6717
  365MOL0     H50370   9.210  10.926   6.037  0.0513 -4.8195  0.4456
  366MOL0     O50371   2.985   9.125   4.385  0.1654  0.8597  0.2951
  366MOL0     C50372   2.968   9.019   4.446  0.7401  0.0314  0.0247
  366MOL0     O50373   2.947   9.015   4.583  0.4207  0.8996 -0.2082
  366MOL0     C50374   2.900   9.121   4.653  1.1086 -0.6575  0.0429
  366MOL0     C50375   2.951   9.140   4.785  0.2546  0.3310 -0.2953
  366MOL0     C50376   2.900   9.241   4.865 -0.3150 -1.4334 -0.2064
  366MOL0     C50377   2.802   9.333   4.814 -0.6960 -0.2839  0.1048
  366MOL0     O50378   2.749   9.432   4.889  0.2146 -0.5479  0.9493
  366MOL0     C50379   2.824   9.491   4.995 -0.4972 -0.6914 -0.3466
  366MOL0     C50380   2.768   9.466   5.139 -0.3029 -0.2033  0.5613
  366MOL0     C50381   2.670   9.573   5.194 -1.1206  0.2876 -0.6596
  366MOL0     C50382   2.555   9.619   5.100  0.2551 -0.3997  0.5478
  366MOL0     C50383   2.503   9.762   5.129 -0.0432  0.1493  0.3609
  366MOL0     C50384   2.438   9.765   5.275 -0.8114 -0.1157 -1.1069
  366MOL0     C50385   2.420   9.911   5.326 -0.3418  0.6548  0.0435
  366MOL0     C50386   2.315   9.993   5.244  0.4054 -0.6907  1.3683
  366MOL0     N50387   2.299  10.123   5.304  0.1288 -0.6391  0.3277
  366MOL0     C50388   2.397  10.217   5.319 -1.1372 -1.2945 -0.7554
  366MOL0     C50389   2.341  10.320   5.400 -0.4040 -0.0301  0.0074
  366MOL0     C50390   2.397  10.462   5.423 -0.2760  0.5927 -0.2545
  366MOL0     C50391   2.285  10.562   5.390 -0.8132  0.0405 -0.0900
  366MOL0     C50392   2.356  10.688   5.345  0.0215 -0.8140  0.9168
  366MOL0     C50393   2.264  10.799   5.275 -0.1532 -0.2516 -0.6834
  366MOL0     O50394   2.185  10.852   5.384 -0.0756 -0.2785 -0.3029
  366MOL0     C50395   2.070  10.911   5.348  0.1330  0.0941  0.3709
  366MOL0     C50396   2.049  10.979   5.229 -0.2039  0.4602 -0.3052
  366MOL0     C50397   1.921  11.003   5.172  0.3711  1.0033  0.2559
  366MOL0     C50398   1.915  11.079   5.046 -0.2730  0.5230 -0.1009
  366MOL0     C50399   1.807  10.973   5.251  0.7287 -0.4106 -0.5992
  366MOL0     C50400   1.668  11.028   5.232 -0.3848  0.6174  0.4757
  366MOL0     O50401   1.598  11.061   5.342 -0.1821 -0.4529  0.1512
  366MOL0     C50402   1.488  11.140   5.353 -0.6201 -0.0246  1.2102
  366MOL0     C50403   1.412  11.132   5.478 -0.0788 -0.8210  0.6524
  366MOL0     C50404   1.300  11.211   5.501 -0.2585 -0.3413 -0.0316
  366MOL0     C50405   1.262  11.305   5.403 -0.1021 -0.3164 -0.4462
  366MOL0     O50406   1.159  11.393   5.424  0.6304 -0.5384  0.2300
  366MOL0     C50407   1.190  11.489   5.526 -0.0963  1.1968  0.3200
  366MOL0     C50408   1.058  11.547   5.580  0.4560  0.1228 -0.8073
  366MOL0     C50409   1.015  11.681   5.530  0.0977 -0.3936  0.4290
  366MOL0     C50410   1.094  11.794   5.602 -0.5182  0.6908  0.4568
  366MOL0     C50411   1.034  11.938   5.584 -0.5435  0.9871 -0.1313
  366MOL0     C50412   1.102  12.037   5.672 -0.7658  0.1244  0.0479
  366MOL0     C50413   1.050  12.016   5.820 -0.0073  0.9168 -0.2034
  366MOL0     C50414   1.145  12.053   5.939 -0.7943  0.4523 -1.3373
  366MOL0    Cl50415   1.192  12.223   5.919 -0.3329 -0.2586 -0.3652
  366MOL0     C50416   1.340  11.322   5.291  1.2501  0.7160  0.2863
  366MOL0     C50417   1.443  11.236   5.259 -0.2206 -0.0784  0.2015
  366MOL0     O50418   1.616  11.031   5.118  0.6032 -0.1548  0.1283
  366MOL0     C50419   1.829  10.902   5.371 -0.2312 -0.5663  0.4080
  366MOL0     C50420   1.956  10.867   5.416 -0.0836  0.4543  0.0937
  366MOL0     N50421   2.212  10.275   5.427 -0.4293  0.3575 -0.2455
  366MOL0     N50422   2.188  10.154   5.382 -0.6429  0.1686 -1.1090
  366MOL0     C50423   2.755   9.315   4.686  0.9302 -0.0359  1.5907
  366MOL0     C50424   2.798   9.210   4.606 -0.0686  0.5836 -0.5148
  366MOL0     C50425   2.980   8.900   4.371 -0.6840  0.0137  0.3062
  366MOL0     C50426   2.872   8.822   4.353  0.2681  0.3829  0.5195
  366MOL0     C50427   2.884   8.701   4.291 -0.8067 -0.7930 -0.3433
  366MOL0     C50428   3.010   8.649   4.260  1.2004  1.0997 -0.9539
  366MOL0     O50429   3.010   8.521   4.217  0.3469  0.6342  0.2243
  366MOL0     C50430   3.126   8.482   4.136 -0.3111  0.2272 -0.2997
  366MOL0     C50431   3.109   8.353   4.054  0.2071  0.1901 -0.1499
  366MOL0     C50432   3.106   8.228   4.160  0.8190 -0.0848  0.2638
  366MOL0     C50433   3.108   8.100   4.078 -0.4658  0.6773  0.7770
  366MOL0     C50434   3.244   8.084   4.011 -0.5083 -0.4596 -0.8118
  366MOL0     C50435   3.354   8.067   3.954  0.7304  0.3659 -0.5538
  366MOL0     C50436   3.123   8.722   4.274  0.0390  0.0765 -0.0288
  366MOL0     C50437   3.107   8.847   4.336  0.5532  0.3566  0.0554
  366MOL0     C50438   3.231   8.931   4.363 -0.2154 -0.4793  0.0621
  366MOL0     H50439   3.021   9.069   4.828 -0.2829  0.2277  0.4274
  366MOL0     H50440   2.928   9.246   4.970 -1.5473 -1.3393  0.1237
  366MOL0     H50441   2.843   9.597   4.973  2.0714 -1.5018 -2.4808
  366MOL0     H50442   2.930   9.463   4.997  0.7467  3.2873 -1.0444
  366MOL0     H50443   2.716   9.370   5.132 -2.1605  0.8074 -0.2629
  366MOL0     H50444   2.850   9.471   5.212 -0.0836 -0.6219  0.3522
  366MOL0     H50445   2.633   9.531   5.288 -0.6338 -2.4440 -1.5833
  366MOL0     H50446   2.726   9.664   5.219 -1.8322  0.4640  0.3472
  366MOL0     H50447   2.602   9.623   5.001 -1.4345 -0.2334 -0.2779
  366MOL0     H50448   2.478   9.542   5.104  0.1332 -0.2661  0.8252
  366MOL0     H50449   2.449   9.803   5.043  4.2623  2.0912 -1.7382
  366MOL0     H50450   2.587   9.831   5.118  0.8819 -1.0435 -0.4790
  366MOL0     H50451   2.347   9.704   5.279 -3.7318  3.9116 -0.0963
  366MOL0     H50452   2.502   9.707   5.342  1.0006  2.2843 -0.6517
  366MOL0     H50453   2.522   9.950   5.322  1.0299 -2.6714 -1.4486
  366MOL0     H50454   2.396   9.903   5.433  0.8278  2.9588  0.5290
  366MOL0     H50455   2.335  10.000   5.137  1.0181 -0.6912  1.4803
  366MOL0     H50456   2.219   9.946   5.269  0.0855 -2.0902 -1.9854
  366MOL0     H50457   2.500  10.208   5.285 -0.4872 -1.9515  1.2021
  366MOL0     H50458   2.482  10.472   5.355 -1.6507 -1.7766 -2.5373
  366MOL0     H50459   2.435  10.470   5.525 -1.9214 -0.1107  0.4634
  366MOL0     H50460   2.221  10.530   5.307 -2.0438 -2.5619  1.7538
  366MOL0     H50461   2.229  10.594   5.478  1.6081  2.3626  0.7707
  366MOL0     H50462   2.413  10.738   5.424  0.2040  0.4451  0.0171
  366MOL0     H50463   2.422  10.653   5.265 -2.6300 -0.4852 -1.6035
  366MOL0     H50464   2.338  10.873   5.242 -1.1896  0.9056 -0.4934
  366MOL0     H50465   2.194  10.769   5.197 -2.5439  2.8789  0.0638
  366MOL0     H50466   2.141  11.013   5.184  0.0693  0.3106  0.1350
  366MOL0     H50467   1.883  11.180   5.073  1.1949  0.5070  1.9557
  366MOL0     H50468   1.838  11.033   4.983 -0.3823 -0.5343  0.7807
  366MOL0     H50469   2.006  11.087   4.985  0.4743 -1.0312  0.7405
  366MOL0     H50470   1.440  11.058   5.552 -1.9059 -3.4073 -1.0953
  366MOL0     H50471   1.232  11.201   5.585 -2.9076  3.1955 -1.4641
  366MOL0     H50472   1.243  11.443   5.610  2.3306 -3.3307 -3.2299
  366MOL0     H50473   1.243  11.576   5.487 -2.4663  2.2374 -0.8091
  366MOL0     H50474   0.981  11.476   5.548  0.5640 -0.5661  0.3897
  366MOL0     H50475   1.060  11.551   5.690  1.2003 -0.3006 -0.7991
  366MOL0     H50476   0.910  11.704   5.552  0.1947  0.9536 -0.3995
  366MOL0     H50477   1.022  11.681   5.421 -1.7004 -0.4005  0.2959
  366MOL0     H50478   1.198  11.803   5.570  0.4145  2.9265  3.6320
  366MOL0     H50479   1.094  11.773   5.709  0.2276  2.4066  0.8220
  366MOL0     H50480   1.063  11.980   5.487  0.2266  1.1858  0.1777
  366MOL0     H50481   0.925  11.935   5.594 -0.6941 -1.4288 -1.6258
  366MOL0     H50482   1.083  12.138   5.634 -1.0713 -0.4584 -1.4403
  366MOL0     H50483   1.209  12.016   5.670 -0.9559 -0.8989 -1.0951
  366MOL0     H50484   1.030  11.910   5.837  2.9708 -0.1363 -2.4318
  366MOL0     H50485   0.960  12.078   5.826 -0.9429 -0.2504 -1.5456
  366MOL0     H50486   1.235  11.991   5.934 -1.0380 -0.0424  0.0170
  366MOL0     H50487   1.096  12.031   6.034 -0.0570  1.7848 -0.6199
  366MOL0     H50488   1.310  11.394   5.215 -1.4114 -0.9180 -0.3407
  366MOL0     H50489   1.490  11.264   5.166  1.3163 -0.7260  0.7406
  366MOL0     H50490   1.748  10.878   5.440 -1.8591  2.1640 -0.3742
  366MOL0     H50491   1.972  10.813   5.509 -0.6442  3.0035  1.7878
  366MOL0     H50492   2.692   9.395   4.648  2.9128  1.0875  0.5104
  366MOL0     H50493   2.760   9.189   4.506  2.6503  2.0752 -1.9845
  366MOL0     H50494   2.774   8.864   4.372 -0.4257 -0.4345 -1.0031
  366MOL0     H50495   2.796   8.641   4.270 -0.0612 -1.0623 -3.0846
  366MOL0     H50496   3.150   8.558   4.062  1.3030  0.3562  0.3221
  366MOL0     H50497   3.214   8.486   4.200  0.1732  2.0066 -1.0209
  366MOL0     H50498   3.192   8.348   3.982  0.7183 -0.1306  0.4540
  366MOL0     H50499   3.020   8.356   3.990  0.8667 -1.1712 -1.1962
  366MOL0     H50500   3.194   8.233   4.224 -0.1369  2.3123  1.5245
  366MOL0     H50501   3.021   8.240   4.227 -0.5197 -0.3596 -1.3363
  366MOL0     H50502   3.022   8.087   4.011  0.4287 -1.4491 -0.0615
  366MOL0     H50503   3.108   8.021   4.154 -0.6679  2.1736  2.4063
  366MOL0     H50504   3.444   8.054   3.898 -0.2064 -2.2440 -1.6538
  366MOL0     H50505   3.222   8.679   4.263  0.5968  1.2201  0.3449
  366MOL0     H50506   3.303   8.866   4.413 -1.0735 -1.7668 -0.3187
  366MOL0     H50507   3.286   8.955   4.272 -1.0669 -1.5447 -0.7704
  366MOL0     H50508   3.220   9.025   4.417 -1.2831 -0.2133 -0.5744
  367MOL0     O50509   2.220   3.818   0.975 -0.1122  0.0436 -0.1850
  367MOL0     C50510   2.194   3.916   0.910 -0.2784 -0.1073 -1.0068
  367MOL0     O50511   2.068   3.942   0.863 -0.5321  0.2016 -0.4842
  367MOL0     C50512   1.973   3.868   0.930 -0.6213  0.8339  0.1914
  367MOL0     C50513   1.882   3.929   1.022  0.1013 -0.5566 -0.5139
  367MOL0     C50514   1.770   3.857   1.068  0.5829 -0.3018  0.1574
  367MOL0     C50515   1.743   3.719   1.028  0.8374 -1.1534 -0.7909
  367MOL0     O50516   1.624   3.665   1.073  0.4586 -0.2991 -0.0502
  367MOL0     C50517   1.591   3.537   1.029  0.3932  0.3283  0.3282
  367MOL0     C50518   1.456   3.495   1.084 -0.1766 -0.4548  0.0931
  367MOL0     C50519   1.412   3.367   1.027 -0.0739 -0.0861 -1.0030
  367MOL0     C50520   1.274   3.320   1.070 -0.6996 -0.8953  0.3359
  367MOL0     C50521   1.232   3.180   1.024  1.0880  0.7666 -0.1136
  367MOL0     C50522   1.094   3.153   1.077 -0.4315  0.3184 -0.3609
  367MOL0     C50523   1.061   3.009   1.034  0.5742 -0.0994  0.3151
  367MOL0     C50524   1.040   2.977   0.880 -0.3027 -0.1736 -0.9502
  367MOL0     N50525   0.983   3.082   0.798  0.0622 -0.2470 -0.5073
  367MOL0     C50526   0.877   3.167   0.828 -0.1342  0.5400 -0.1891
  367MOL0     C50527   0.894   3.276   0.750 -0.1153 -0.6759 -0.7328
  367MOL0     C50528   0.798   3.392   0.739 -0.2585 -0.2098 -0.3743
  367MOL0     C50529   0.823   3.491   0.855 -0.3750 -0.3193  0.8375
  367MOL0     C50530   0.719   3.596   0.870  0.0052  0.2983  0.3407
  367MOL0     C50531   0.698   3.678   0.739 -0.1728  0.1081 -0.3077
  367MOL0     O50532   0.820   3.752   0.705 -0.2065  0.1568  0.3723
  367MOL0     C50533   0.812   3.844   0.611 -0.2462 -0.0440 -0.4581
  367MOL0     C50534   0.702   3.911   0.564 -0.0708 -0.4886 -1.2046
  367MOL0     C50535   0.705   4.010   0.466 -0.8151 -0.1481  0.0832
  367MOL0     C50536   0.574   4.073   0.423  0.2978 -0.1062  0.3721
  367MOL0     C50537   0.824   4.043   0.406 -0.1910 -0.1038 -0.0658
  367MOL0     C50538   0.841   4.130   0.289 -1.1397 -0.7000  0.3715
  367MOL0     O50539   0.741   4.213   0.254  0.0654 -0.5000  0.6125
  367MOL0     C50540   0.731   4.282   0.132  0.8168  1.0427  0.1402
  367MOL0     C50541   0.784   4.249   0.008 -0.8492 -0.4490 -0.0075
  367MOL0     C50542   0.768   4.325  -0.105  0.0226  0.4826 -0.3280
  367MOL0     C50543   0.691   4.439  -0.096 -0.3797 -0.4377 -0.4302
  367MOL0     O50544   0.690   4.502  -0.210  0.0026  0.6249  0.5421
  367MOL0     C50545   0.592   4.608  -0.236  0.1742  0.7764  0.9818
  367MOL0     C50546   0.603   4.630  -0.391 -0.3137 -0.4064 -0.0780
  367MOL0     C50547   0.539   4.523  -0.479  0.0587  0.1092  0.6805
  367MOL0     C50548   0.624   4.398  -0.515  0.1382  0.0209 -0.5149
  367MOL0     C50549   0.596   4.266  -0.452  0.8358  0.8637 -0.2483
  367MOL0     C50550   0.496   4.185  -0.538 -0.0453  0.0573 -0.1249
  367MOL0     C50551   0.374   4.249  -0.591  0.0607  0.4292 -0.2601
  367MOL0     C50552   0.300   4.140  -0.667  0.2842  0.6556 -0.9362
  367MOL0    Cl50553   0.366   4.112  -0.832  0.0432 -0.1941  0.2929
  367MOL0     C50554   0.646   4.484   0.027  1.2894  0.8924 -0.2441
  367MOL0     C50555   0.666   4.400   0.140 -0.1405  0.5806 -0.3584
  367MOL0     O50556   0.947   4.125   0.226  0.3091 -0.1234 -0.0591
  367MOL0     C50557   0.939   3.983   0.465 -0.9455 -0.1543  1.1053
  367MOL0     C50558   0.941   3.896   0.574 -0.0662  0.4329  0.6271
  367MOL0     N50559   1.008   3.264   0.668 -0.6662  0.1162 -0.3505
  367MOL0     N50560   1.055   3.144   0.699  0.7464  0.5110 -0.5721
  367MOL0     C50561   1.833   3.654   0.943 -0.0328 -0.8874  0.0992
  367MOL0     C50562   1.947   3.729   0.899 -0.2323 -0.3521 -0.2923
  367MOL0     C50563   2.307   3.981   0.850  0.4927 -0.1585  0.1852
  367MOL0     C50564   2.303   4.002   0.715 -0.0330 -0.6209  0.0668
  367MOL0     C50565   2.407   4.047   0.642  0.1427  0.0861 -0.5413
  367MOL0     C50566   2.525   4.084   0.711 -0.4394 -0.3904  0.2719
  367MOL0     O50567   2.622   4.147   0.626  0.0406  0.4591  0.1121
  367MOL0     C50568   2.744   4.182   0.684 -0.3415 -0.4935  0.3144
  367MOL0     C50569   2.840   4.059   0.681  0.2682  0.6308 -0.1290
  367MOL0     C50570   2.875   4.049   0.537 -0.8098  0.8978  0.3890
  367MOL0     C50571   2.945   3.913   0.516  0.8271  0.2917  0.1001
  367MOL0     C50572   2.953   3.903   0.364  0.8148  0.4576 -0.3627
  367MOL0     C50573   2.962   3.890   0.244  0.2482  0.7782 -0.3819
  367MOL0     C50574   2.520   4.088   0.850 -0.2288  0.5958 -0.6496
  367MOL0     C50575   2.418   4.023   0.926  0.6453 -0.4934  0.1520
  367MOL0     C50576   2.434   4.011   1.074  0.4204  0.2171 -1.0198
  367MOL0     H50577   1.913   4.029   1.049  3.9247 -1.1972 -1.8446
  367MOL0     H50578   1.697   3.893   1.140 -0.7286  0.5249 -1.4959
  367MOL0     H50579   1.674   3.474   1.063  1.6730  1.2940 -0.8609
  367MOL0     H50580   1.587   3.538   0.920  0.1193  1.6591  0.3316
  367MOL0     H50581   1.449   3.516   1.192 -1.9109  1.1198 -0.2772
  367MOL0     H50582   1.380   3.562   1.043 -1.7539 -3.1589 -1.6705
  367MOL0     H50583   1.414   3.369   0.917 -2.4691 -0.0135 -1.0903
  367MOL0     H50584   1.483   3.290   1.059 -0.4404  0.0325  0.1263
  367MOL0     H50585   1.253   3.334   1.176 -2.4487  1.5930 -0.2500
  367MOL0     H50586   1.213   3.389   1.011  0.9759 -1.7536 -2.5710
  367MOL0     H50587   1.303   3.105   1.060 -0.4445 -0.0079  1.4300
  367MOL0     H50588   1.221   3.186   0.915  0.4578  0.3634 -0.0758
  367MOL0     H50589   1.107   3.145   1.185 -3.0325 -1.0288 -0.0723
  367MOL0     H50590   1.011   3.218   1.050 -1.1098 -0.3848  0.0039
  367MOL0     H50591   0.973   2.989   1.096 -0.0405 -0.2022 -0.5844
  367MOL0     H50592   1.143   2.938   1.050 -0.0765 -1.3336 -1.4817
  367MOL0     H50593   1.138   2.945   0.845  0.0421 -0.2207  0.0291
  367MOL0     H50594   0.983   2.885   0.868 -1.1198 -0.2638  2.5053
  367MOL0     H50595   0.793   3.157   0.895 -2.1644 -0.5917 -2.7455
  367MOL0     H50596   0.700   3.345   0.737 -0.0674 -0.7032 -3.5536
  367MOL0     H50597   0.803   3.443   0.642 -4.0145  0.7201 -0.2426
  367MOL0     H50598   0.819   3.454   0.958  1.1763  1.8813  1.7749
  367MOL0     H50599   0.920   3.538   0.835 -0.5114 -0.9860 -1.7949
  367MOL0     H50600   0.616   3.566   0.893  0.0347 -0.7173 -0.7747
  367MOL0     H50601   0.755   3.656   0.954 -0.0045  0.9748 -0.1351
  367MOL0     H50602   0.654   3.618   0.659 -2.2371  0.0864  0.7923
  367MOL0     H50603   0.621   3.751   0.767 -0.5874  0.9268 -3.1899
  367MOL0     H50604   0.602   3.883   0.594  0.7196 -3.5435 -1.1388
  367MOL0     H50605   0.485   4.046   0.481  1.0809 -1.0449  1.1871
  367MOL0     H50606   0.550   4.076   0.317 -2.7754  0.9546  1.0046
  367MOL0     H50607   0.576   4.181   0.440 -0.3984 -0.2376  1.4152
  367MOL0     H50608   0.856   4.168   0.002  0.2752  0.4753  0.5353
  367MOL0     H50609   0.818   4.300  -0.198 -1.5325 -1.8861 -0.6338
  367MOL0     H50610   0.494   4.576  -0.198  0.1434  1.0064  1.0949
  367MOL0     H50611   0.637   4.690  -0.179  0.7236  0.5998  0.8101
  367MOL0     H50612   0.557   4.728  -0.408  2.8595  1.2406  0.0754
  367MOL0     H50613   0.701   4.659  -0.428 -0.9735  0.2525 -1.3724
  367MOL0     H50614   0.515   4.575  -0.572  2.4951  1.1291  0.5295
  367MOL0     H50615   0.449   4.495  -0.424  0.3537  2.4240  2.4849
  367MOL0     H50616   0.727   4.426  -0.491  0.2056 -2.6949  3.1091
  367MOL0     H50617   0.612   4.376  -0.621  0.3868  0.5630 -0.6608
  367MOL0     H50618   0.689   4.210  -0.436 -0.0737 -1.3129 -2.0537
  367MOL0     H50619   0.552   4.282  -0.354 -4.3847  1.9543 -2.4161
  367MOL0     H50620   0.455   4.101  -0.481 -1.2579  0.7378  0.0418
  367MOL0     H50621   0.548   4.149  -0.627  0.7091 -1.7812  1.0057
  367MOL0     H50622   0.413   4.306  -0.676  0.2162 -0.7576 -1.0076
  367MOL0     H50623   0.320   4.296  -0.508  1.5180 -2.6749  2.6928
  367MOL0     H50624   0.195   4.166  -0.683  0.3651  0.9674 -0.9721
  367MOL0     H50625   0.297   4.041  -0.621 -0.9957  0.0539 -2.2633
  367MOL0     H50626   0.594   4.579   0.017 -0.7568 -0.2578 -1.3661
  367MOL0     H50627   0.620   4.427   0.234 -0.4536 -2.5837  0.4942
  367MOL0     H50628   1.040   4.008   0.437 -0.9178  0.2932  1.5863
  367MOL0     H50629   1.030   3.861   0.624  2.9015  3.3190 -2.0793
  367MOL0     H50630   1.815   3.552   0.912  0.6501  0.2293 -4.7746
  367MOL0     H50631   2.028   3.682   0.844  1.4153  0.5662  1.2539
  367MOL0     H50632   2.207   3.983   0.668 -0.6788 -1.2055  1.5674
  367MOL0     H50633   2.403   4.050   0.533  0.0038 -0.3501 -0.5482
  367MOL0     H50634   2.802   4.260   0.635 -0.0579 -1.0700 -0.2887
  367MOL0     H50635   2.727   4.221   0.785  0.9360 -1.0686  0.7824
  367MOL0     H50636   2.795   3.964   0.712 -0.4159  1.1942  0.6473
  367MOL0     H50637   2.924   4.087   0.744 -0.5126  2.3791  0.1954
  367MOL0     H50638   2.794   4.060   0.465  0.1920  0.5999 -0.8268
  367MOL0     H50639   2.954   4.117   0.503 -0.8636  1.0099  0.4927
  367MOL0     H50640   2.890   3.829   0.560  0.4095  0.3382 -0.3241
  367MOL0     H50641   3.042   3.931   0.562  0.9366 -4.3276  2.2842
  367MOL0     H50642   2.953   3.885   0.138 -0.1329 -2.4055 -0.2752
  367MOL0     H50643   2.597   4.129   0.915 -2.2948  1.8094  1.1600
  367MOL0     H50644   2.453   3.905   1.095 -2.1341 -0.3800 -1.3090
  367MOL0     H50645   2.512   4.078   1.111 -2.6248  2.6578  1.5487
  367MOL0     H50646   2.341   4.032   1.128 -0.3490 -0.7688 -1.9030
  368MOL0     O50647   9.509   2.627   9.835 -0.2105 -0.7104  0.3048
  368MOL0     C50648   9.481   2.528   9.769  0.1424  0.1378 -0.8507
  368MOL0     O50649   9.559   2.461   9.683 -0.5556 -0.9322 -0.5860
  368MOL0     C50650   9.693   2.505   9.674 -0.5048 -0.4409  0.7915
  368MOL0     C50651   9.733   2.644   9.640 -0.0367  0.5825  0.3055
  368MOL0     C50652   9.865   2.678   9.652  0.4590  0.3269  0.6282
  368MOL0     C50653   9.965   2.580   9.671 -0.4829 -0.3854  0.1086
  368MOL0     O50654  10.097   2.621   9.691 -0.3899  0.1056 -0.1799
  368MOL0     C50655  10.173   2.551   9.799 -0.2540 -0.6713 -0.4859
  368MOL0     C50656  10.118   2.550   9.947 -1.3095  0.3839  0.4417
  368MOL0     C50657  10.238   2.571  10.036  0.1763 -0.2532  0.6799
  368MOL0     C50658  10.225   2.563  10.179  0.3318  0.2071 -0.6183
  368MOL0     C50659  10.359   2.592  10.252 -0.5734 -0.1518 -0.4261
  368MOL0     C50660  10.339   2.597  10.410  0.4646 -0.9140  1.0017
  368MOL0     C50661  10.476   2.627  10.474  0.0975 -1.1154  0.3633
  368MOL0     C50662  10.468   2.658  10.630  0.0193 -0.3767 -0.3116
  368MOL0     N50663  10.568   2.566  10.688 -0.1639 -0.0169 -0.5887
  368MOL0     C50664  10.559   2.500  10.807  0.3559 -0.9673  0.3222
  368MOL0     C50665  10.670   2.417  10.813  0.0340  0.2232  0.0880
  368MOL0     C50666  10.704   2.313  10.913 -0.5983 -0.0871 -0.0445
  368MOL0     C50667  10.609   2.194  10.894  0.0128  0.1209 -0.2923
  368MOL0     C50668  10.621   2.123  10.761 -0.3526  0.7791 -0.8891
  368MOL0     C50669  10.494   2.037  10.738 -0.4991 -0.4674  0.2708
  368MOL0     O50670  10.377   2.132  10.728  0.3616  0.8180 -0.2169
  368MOL0     C50671  10.245   2.084  10.726 -0.7616 -0.0755  1.3121
  368MOL0     C50672  10.136   2.171  10.693 -1.1213  0.3969 -0.1479
  368MOL0     C50673  10.004   2.123  10.681  0.3154  0.4140  1.5986
  368MOL0     C50674   9.898   2.239  10.675 -0.4749  0.1991  0.3005
  368MOL0     C50675   9.982   1.980  10.696  0.3693 -1.0024 -0.0080
  368MOL0     C50676   9.851   1.924  10.692  0.1445  0.9430  0.4041
  368MOL0     O50677   9.743   1.988  10.627 -0.2641 -0.5624 -0.6120
  368MOL0     C50678   9.616   1.944  10.644 -0.6920  0.4213  0.1566
  368MOL0     C50679   9.525   1.981  10.544 -0.0968 -0.0713 -0.0069
  368MOL0     C50680   9.389   1.938  10.553 -0.0766 -0.0664  0.0093
  368MOL0     C50681   9.347   1.854  10.656  0.5833 -0.1176 -0.8657
  368MOL0     O50682   9.211   1.837  10.654  0.1077 -0.0497  0.8940
  368MOL0     C50683   9.139   1.724  10.709  0.0910 -1.0385  1.3013
  368MOL0     C50684   9.074   1.759  10.844  0.1462 -0.1576  0.9421
  368MOL0     C50685   8.962   1.859  10.828  0.2622  0.7602 -0.2907
  368MOL0     C50686   8.867   1.872  10.953 -0.0026  0.6396 -0.5207
  368MOL0     C50687   8.738   1.941  10.917  0.5594 -0.3224  0.6477
  368MOL0     C50688   8.627   1.837  10.865 -0.4694 -0.4538 -0.5747
  368MOL0     C50689   8.496   1.904  10.849 -0.4538  0.0878  0.5877
  368MOL0     C50690   8.393   1.807  10.803 -0.1856 -0.5465 -0.0387
  368MOL0    Cl50691   8.390   1.640  10.878  0.3425 -0.5268 -0.4093
  368MOL0     C50692   9.437   1.833  10.762 -0.3448  0.5723 -0.4769
  368MOL0     C50693   9.566   1.876  10.759  0.0435 -0.6228  0.3402
  368MOL0     O50694   9.851   1.808  10.739  0.2645 -0.5190 -0.6518
  368MOL0     C50695  10.090   1.899  10.720 -1.2435  0.2003 -0.3055
  368MOL0     C50696  10.222   1.951  10.736  0.4070  0.4032 -0.8264
  368MOL0     N50697  10.743   2.442  10.702 -1.0836 -0.1960  0.0358
  368MOL0     N50698  10.698   2.545  10.637 -0.7520 -0.3145 -0.4157
  368MOL0     C50699   9.928   2.447   9.683 -0.0964 -0.0904 -1.2629
  368MOL0     C50700   9.789   2.402   9.682  0.0039 -0.9468  0.0052
  368MOL0     C50701   9.337   2.483   9.789 -0.7568 -0.5447 -0.2829
  368MOL0     C50702   9.285   2.476   9.913 -0.0859 -0.3557 -0.4836
  368MOL0     C50703   9.154   2.449   9.938 -0.5675  0.1900 -0.7751
  368MOL0     C50704   9.069   2.420   9.826 -0.1122 -0.5950 -0.4932
  368MOL0     O50705   8.936   2.384   9.849  0.5766 -0.0718  0.4124
  368MOL0     C50706   8.852   2.334   9.752  0.5927  1.0707 -0.1345
  368MOL0     C50707   8.724   2.275   9.815  0.5666 -0.2507 -0.5342
  368MOL0     C50708   8.624   2.215   9.716  0.4455 -0.7266  0.4151
  368MOL0     C50709   8.480   2.211   9.770 -1.1431  0.5128 -0.2562
  368MOL0     C50710   8.384   2.181   9.653 -0.0282  0.3919  0.1230
  368MOL0     C50711   8.296   2.157   9.569 -0.3137 -0.4019 -0.1171
  368MOL0     C50712   9.118   2.437   9.696  0.7703  0.3768 -0.0766
  368MOL0     C50713   9.254   2.472   9.681  0.2008 -0.8142  0.3376
  368MOL0     C50714   9.307   2.490   9.530 -0.2760  0.4615 -0.2946
  368MOL0     H50715   9.664   2.722   9.609 -1.4827 -0.6532  0.2996
  368MOL0     H50716   9.897   2.781   9.648 -0.0653  0.4991  0.7472
  368MOL0     H50717  10.271   2.601   9.801 -0.5730 -0.0288 -0.7814
  368MOL0     H50718  10.183   2.445   9.773  3.2877 -0.9788  1.3912
  368MOL0     H50719  10.044   2.626   9.974 -2.7627 -0.0799 -1.9479
  368MOL0     H50720  10.075   2.451   9.967  1.3448 -0.8757  0.4293
  368MOL0     H50721  10.299   2.486  10.005 -2.2233 -1.5790 -0.7302
  368MOL0     H50722  10.277   2.666  10.000 -3.1982 -0.0975 -3.2359
  368MOL0     H50723  10.145   2.630  10.211 -1.9412 -1.5305 -2.2378
  368MOL0     H50724  10.198   2.459  10.201 -1.9253  0.9352  0.3175
  368MOL0     H50725  10.378   2.691  10.209 -6.9652  0.0279 -4.0771
  368MOL0     H50726  10.436   2.516  10.231  2.2494  2.0353  1.3124
  368MOL0     H50727  10.271   2.680  10.430  2.0123  0.7444 -0.3056
  368MOL0     H50728  10.289   2.503  10.435  0.3017 -0.7630  1.2482
  368MOL0     H50729  10.526   2.710  10.422 -1.5991 -0.4678 -0.3064
  368MOL0     H50730  10.537   2.540  10.448 -1.4668 -2.2851  0.5178
  368MOL0     H50731  10.492   2.761  10.659  1.8370 -0.4917 -1.2387
  368MOL0     H50732  10.366   2.629  10.654 -0.3178  1.1907  0.2639
  368MOL0     H50733  10.491   2.515  10.890 -0.1517 -0.5454 -0.1630
  368MOL0     H50734  10.698   2.357  11.013 -0.4480 -0.8829  0.3284
  368MOL0     H50735  10.807   2.278  10.903 -0.0754  0.9807  1.3243
  368MOL0     H50736  10.640   2.134  10.979 -1.0166  0.2121  0.1634
  368MOL0     H50737  10.509   2.230  10.920  1.7349  3.8795  1.9646
  368MOL0     H50738  10.650   2.176  10.670  1.9268 -0.0611 -0.7210
  368MOL0     H50739  10.706   2.058  10.785 -1.6202 -0.2122  1.2083
  368MOL0     H50740  10.526   1.983  10.648  1.8507  3.4312 -1.5085
  368MOL0     H50741  10.485   1.966  10.820  4.1697  0.0634  1.4816
  368MOL0     H50742  10.147   2.276  10.670  2.3025  1.0576  3.3297
  368MOL0     H50743   9.929   2.320  10.742  1.3019 -1.8907  2.1467
  368MOL0     H50744   9.800   2.206  10.709  0.1614 -0.4634  1.5555
  368MOL0     H50745   9.893   2.271  10.570  2.4541  0.0621  0.0106
  368MOL0     H50746   9.562   2.042  10.462 -0.7012  1.4499  0.8098
  368MOL0     H50747   9.321   1.977  10.478  2.0659 -2.7527 -3.6618
  368MOL0     H50748   9.057   1.694  10.643  0.5266 -1.7424  1.0648
  368MOL0     H50749   9.208   1.640  10.721 -1.0076 -1.9746  1.2289
  368MOL0     H50750   9.035   1.669  10.892 -0.6082  1.4837  3.6650
  368MOL0     H50751   9.143   1.799  10.919  1.8328 -1.2548  0.0215
  368MOL0     H50752   8.893   1.815  10.756 -1.3364 -1.9022  2.5957
  368MOL0     H50753   8.988   1.960  10.796 -1.8409  1.0237 -1.2996
  368MOL0     H50754   8.922   1.925  11.031  0.5775 -0.0652 -0.4401
  368MOL0     H50755   8.842   1.776  10.999  0.5704  0.7437  0.0271
  368MOL0     H50756   8.701   1.980  11.013  0.8033 -2.4986  1.6977
  368MOL0     H50757   8.765   2.014  10.841 -0.1474 -0.4547  0.2568
  368MOL0     H50758   8.616   1.765  10.946 -1.1649 -2.6380 -2.5277
  368MOL0     H50759   8.661   1.778  10.779 -1.4409 -0.6045 -0.8569
  368MOL0     H50760   8.516   1.979  10.772 -1.7676 -2.7901 -2.8669
  368MOL0     H50761   8.462   1.951  10.942 -1.2489  1.1554 -0.2051
  368MOL0     H50762   8.405   1.808  10.694 -3.6480 -3.4998 -0.6318
  368MOL0     H50763   8.291   1.837  10.831 -0.5331 -1.8207  0.1553
  368MOL0     H50764   9.394   1.791  10.852  0.2963  3.4805  1.3139
  368MOL0     H50765   9.632   1.863  10.844  1.0162  0.2397 -0.2551
  368MOL0     H50766  10.071   1.793  10.724 -1.4213  0.2627  1.3471
  368MOL0     H50767  10.302   1.881  10.755  0.5164  1.0242  1.1729
  368MOL0     H50768  10.005   2.374   9.706  1.1536  1.2050 -1.1323
  368MOL0     H50769   9.765   2.298   9.702 -0.4495 -0.3388  2.9899
  368MOL0     H50770   9.349   2.496   9.999 -0.6943  0.5464 -0.2294
  368MOL0     H50771   9.121   2.448  10.042 -0.5760  0.9661 -0.7593
  368MOL0     H50772   8.818   2.416   9.689 -1.2340  1.7761  1.6653
  368MOL0     H50773   8.902   2.262   9.686 -1.7125 -0.2844 -0.4925
  368MOL0     H50774   8.678   2.357   9.871  3.0383  1.9335 -1.4937
  368MOL0     H50775   8.753   2.198   9.887  1.1080 -0.0215 -0.4984
  368MOL0     H50776   8.626   2.276   9.626  0.6853 -0.0009  0.9059
  368MOL0     H50777   8.670   2.118   9.694  3.0755  1.0073 -2.4098
  368MOL0     H50778   8.464   2.308   9.818  5.3996  2.0468 -0.2926
  368MOL0     H50779   8.463   2.135   9.847  0.9449 -2.2455 -2.2990
  368MOL0     H50780   8.217   2.132   9.502  0.7386  3.3220 -3.1415
  368MOL0     H50781   9.056   2.417   9.610 -0.5424  0.1089  0.8995
  368MOL0     H50782   9.327   2.596   9.513 -0.3763  0.4953 -0.2066
  368MOL0     H50783   9.391   2.422   9.515 -0.5146  0.4278 -1.5873
  368MOL0     H50784   9.224   2.466   9.463  1.7405  0.8391 -3.0866
  369MOL0     O50785   5.840   8.116   2.124 -0.2891 -0.5794  0.8382
  369MOL0     C50786   5.875   8.211   2.047  0.2177  0.3747 -0.3910
  369MOL0     O50787   5.931   8.195   1.920  0.5477  0.5032 -0.0256
  369MOL0     C50788   5.885   8.089   1.851 -0.1540  0.1733  0.0593
  369MOL0     C50789   5.972   8.026   1.771 -0.5572  0.6145 -1.3406
  369MOL0     C50790   5.933   7.916   1.699  0.5119  0.6104 -0.2035
  369MOL0     C50791   5.803   7.872   1.707  0.4753 -0.3265 -0.4431
  369MOL0     O50792   5.781   7.749   1.634 -0.0269  0.5058  0.7991
  369MOL0     C50793   5.664   7.743   1.552 -0.5640  0.7886  0.4511
  369MOL0     C50794   5.627   7.596   1.510 -0.2206  0.1771  0.0438
  369MOL0     C50795   5.728   7.555   1.399  0.0393  0.3545  0.4846
  369MOL0     C50796   5.740   7.403   1.373  1.3008 -0.1292 -0.2165
  369MOL0     C50797   5.623   7.356   1.292  0.4282 -0.1883  0.1290
  369MOL0     C50798   5.619   7.205   1.278  1.0153  0.4097  0.0565
  369MOL0     C50799   5.673   7.167   1.135 -0.7498 -0.3459 -0.5495
  369MOL0     C50800   5.598   7.179   1.003  0.4387 -0.6206 -0.6769
  369MOL0     N50801   5.669   7.108   0.897 -0.7429  0.4362  0.2533
  369MOL0     C50802   5.608   7.012   0.832  0.8545 -0.2690 -0.2080
  369MOL0     C50803   5.689   6.957   0.748  1.0940 -0.2673  0.1727
  369MOL0     C50804   5.658   6.864   0.631  0.8573  0.4487 -0.0531
  369MOL0     C50805   5.603   6.954   0.523  0.1554  0.3038 -1.0070
  369MOL0     C50806   5.566   6.858   0.406 -0.1945  0.6460 -0.2681
  369MOL0     C50807   5.551   6.924   0.275 -0.6673  0.6600  0.5697
  369MOL0     O50808   5.520   6.823   0.177 -0.6749 -1.0055  0.1674
  369MOL0     C50809   5.438   6.849   0.069 -0.5084 -0.3473  0.7384
  369MOL0     C50810   5.388   6.751  -0.017 -0.4536 -0.3995  0.1224
  369MOL0     C50811   5.311   6.769  -0.132  0.3823  0.1769 -0.1620
  369MOL0     C50812   5.280   6.643  -0.208  0.0285  0.6001 -1.0929
  369MOL0     C50813   5.271   6.904  -0.168 -0.8984  0.0663  0.0636
  369MOL0     C50814   5.201   6.937  -0.298  0.0972  0.4588  0.7286
  369MOL0     O50815   5.177   6.832  -0.382 -0.8933 -0.1382  0.9397
  369MOL0     C50816   5.124   6.865  -0.508  0.4599 -0.3884 -0.6848
  369MOL0     C50817   4.987   6.853  -0.544  0.4817  0.0902 -0.5364
  369MOL0     C50818   4.950   6.855  -0.677 -0.4698  0.7770  0.1616
  369MOL0     C50819   5.045   6.885  -0.773 -0.5062 -0.3125  0.4224
  369MOL0     O50820   4.995   6.897  -0.903  0.1196  0.0664 -0.1239
  369MOL0     C50821   5.007   7.035  -0.954  0.1602  0.3193 -0.0158
  369MOL0     C50822   4.897   7.059  -1.058 -0.7876 -0.3721  0.3919
  369MOL0     C50823   4.931   6.996  -1.197 -0.0053 -0.3031  0.1865
  369MOL0     C50824   4.963   7.103  -1.304  0.4371 -0.3203 -0.6412
  369MOL0     C50825   4.968   7.061  -1.455 -1.0299 -1.1538  0.8417
  369MOL0     C50826   5.085   6.977  -1.494  0.3212  0.4939  0.6716
  369MOL0     C50827   5.223   7.044  -1.505  0.1130  0.2142 -0.0800
  369MOL0     C50828   5.335   6.942  -1.527  0.9622  0.3163 -0.6396
  369MOL0    Cl50829   5.356   6.824  -1.394  0.3990  0.2883 -0.6038
  369MOL0     C50830   5.185   6.906  -0.741  0.5124  0.5236  0.7509
  369MOL0     C50831   5.224   6.894  -0.604 -0.7980 -0.0136  0.0574
  369MOL0     O50832   5.162   7.052  -0.327 -0.0997  0.8049 -0.3129
  369MOL0     C50833   5.304   7.008  -0.069  0.4712 -0.1506 -0.4301
  369MOL0     C50834   5.395   6.981   0.038  0.6576 -0.6646  0.2419
  369MOL0     N50835   5.799   7.031   0.756  0.2247  0.0321 -0.4510
  369MOL0     N50836   5.795   7.123   0.846 -0.3915  0.3464 -0.2832
  369MOL0     C50837   5.707   7.947   1.780 -0.7664  0.8266 -0.1663
  369MOL0     C50838   5.747   8.055   1.848 -1.7158 -0.2649 -0.5666
  369MOL0     C50839   5.874   8.346   2.111  0.3208  0.8256  0.3380
  369MOL0     C50840   5.793   8.362   2.223 -0.1163 -0.1024 -0.4988
  369MOL0     C50841   5.774   8.488   2.275 -0.5701  0.4680 -0.6090
  369MOL0     C50842   5.845   8.600   2.236 -0.3622  0.1075  0.7963
  369MOL0     O50843   5.822   8.718   2.301 -0.4789  0.3038  0.2694
  369MOL0     C50844   5.928   8.820   2.312 -1.0687  0.6123  0.4428
  369MOL0     C50845   5.993   8.814   2.456 -0.3707  0.0674  0.9534
  369MOL0     C50846   6.125   8.887   2.468  0.3982  0.5501  0.6547
  369MOL0     C50847   6.136   9.039   2.459  1.2541 -0.4188 -0.7432
  369MOL0     C50848   6.123   9.081   2.320 -0.2211  0.3954 -0.6726
  369MOL0     C50849   6.110   9.113   2.209 -1.4617 -0.5310  0.4410
  369MOL0     C50850   5.941   8.579   2.132 -0.4512  0.4946 -1.2727
  369MOL0     C50851   5.955   8.457   2.070  0.7599 -0.1181 -0.5349
  369MOL0     C50852   6.043   8.457   1.944  0.5108  0.4578 -0.8208
  369MOL0     H50853   6.075   8.059   1.774 -0.3596  0.0400  1.3715
  369MOL0     H50854   6.010   7.869   1.639  0.5659  0.8106 -0.2902
  369MOL0     H50855   5.676   7.804   1.463  1.5982  1.7801  1.3563
  369MOL0     H50856   5.578   7.787   1.605 -0.6939  1.7504 -0.5220
  369MOL0     H50857   5.630   7.534   1.600 -1.0000 -2.7432 -1.8104
  369MOL0     H50858   5.528   7.595   1.465 -0.4055 -0.0112  0.4537
  369MOL0     H50859   5.688   7.598   1.307  0.2767 -0.1601  0.1345
  369MOL0     H50860   5.830   7.593   1.414 -0.4558  1.3412  1.4955
  369MOL0     H50861   5.834   7.375   1.326  2.6447 -0.2282  2.3931
  369MOL0     H50862   5.738   7.358   1.472  0.5785  1.0817  0.3452
  369MOL0     H50863   5.608   7.410   1.198 -0.8947 -1.9917 -0.7467
  369MOL0     H50864   5.536   7.394   1.346 -1.0730 -1.3589 -1.3864
  369MOL0     H50865   5.688   7.162   1.351  2.9474  0.5064 -1.6139
  369MOL0     H50866   5.520   7.166   1.303  1.0243  1.0567  1.1238
  369MOL0     H50867   5.703   7.062   1.133 -1.3828 -0.5338 -0.0571
  369MOL0     H50868   5.766   7.221   1.113 -0.5488 -0.0887  0.8390
  369MOL0     H50869   5.505   7.132   1.036  1.1967 -1.2701  0.6780
  369MOL0     H50870   5.570   7.282   0.982  0.3619 -0.5352 -0.1816
  369MOL0     H50871   5.504   6.984   0.846  0.9695  0.2529  2.0290
  369MOL0     H50872   5.590   6.784   0.663  2.3831 -0.8580  0.0574
  369MOL0     H50873   5.753   6.820   0.600  0.0851 -1.2686 -0.0973
  369MOL0     H50874   5.511   7.004   0.554 -1.0315 -2.3471  0.1335
  369MOL0     H50875   5.669   7.034   0.488  0.0552  0.8739  0.0614
  369MOL0     H50876   5.641   6.778   0.398 -0.0057  0.9695 -2.3530
  369MOL0     H50877   5.475   6.804   0.430  1.1239 -1.3756  0.4484
  369MOL0     H50878   5.476   7.003   0.283  1.4193  2.8696 -0.4296
  369MOL0     H50879   5.645   6.968   0.241 -1.2376 -0.7920 -3.4852
  369MOL0     H50880   5.437   6.654  -0.011  0.4598  0.0241 -0.2137
  369MOL0     H50881   5.174   6.635  -0.231 -1.1021 -3.9962  3.7297
  369MOL0     H50882   5.305   6.548  -0.159  2.0055 -0.7934 -4.4769
  369MOL0     H50883   5.330   6.639  -0.305 -3.2110  4.3986 -3.1943
  369MOL0     H50884   4.910   6.824  -0.473 -0.5238  2.2290 -0.6604
  369MOL0     H50885   4.848   6.832  -0.704 -0.2797 -0.2960  0.3150
  369MOL0     H50886   4.974   7.093  -0.868 -0.1656 -0.8417  0.6583
  369MOL0     H50887   5.109   7.054  -0.988  0.3499 -2.9983 -1.7565
  369MOL0     H50888   4.800   7.021  -1.026 -1.2261  1.6971  1.6750
  369MOL0     H50889   4.889   7.167  -1.075  1.7076  0.1236  1.8089
  369MOL0     H50890   4.854   6.928  -1.234  0.6938 -2.2443  2.1189
  369MOL0     H50891   5.020   6.933  -1.199 -0.7557 -1.4615  1.7228
  369MOL0     H50892   5.050   7.162  -1.275 -1.7953  3.2393 -0.6287
  369MOL0     H50893   4.881   7.175  -1.310 -0.0049 -0.7820 -0.2380
  369MOL0     H50894   4.868   7.019  -1.472 -0.1416 -3.3176  0.6974
  369MOL0     H50895   4.958   7.153  -1.514 -1.0238  0.7136  3.5480
  369MOL0     H50896   5.067   6.936  -1.594  1.0908  0.0010  0.7290
  369MOL0     H50897   5.079   6.889  -1.430 -3.2685  0.7696  0.9266
  369MOL0     H50898   5.242   7.088  -1.407  1.7919 -1.6257  0.4703
  369MOL0     H50899   5.222   7.118  -1.586 -2.1420 -1.7904 -2.0548
  369MOL0     H50900   5.433   6.990  -1.533  0.8993  0.4619 -0.4927
  369MOL0     H50901   5.309   6.888  -1.619 -1.9751 -0.1695  0.3777
  369MOL0     H50902   5.260   6.917  -0.818  2.1114  1.4474  2.3511
  369MOL0     H50903   5.328   6.877  -0.578 -1.1490 -4.0017 -0.4646
  369MOL0     H50904   5.282   7.112  -0.090 -0.8239 -0.2730  0.1889
  369MOL0     H50905   5.417   7.070   0.096  3.2854 -1.1306  0.0638
  369MOL0     H50906   5.605   7.910   1.788  0.4682 -3.2361 -0.5148
  369MOL0     H50907   5.664   8.097   1.903  0.3989  2.1915  0.9563
  369MOL0     H50908   5.742   8.274   2.261  0.3125  0.8840  2.5692
  369MOL0     H50909   5.693   8.482   2.348  0.2007 -1.5990  0.1777
  369MOL0     H50910   6.008   8.806   2.239 -0.1942 -1.1969  1.6752
  369MOL0     H50911   5.896   8.924   2.296 -1.0291  0.3758 -1.3150
  369MOL0     H50912   6.009   8.710   2.488 -0.8011 -0.1776  0.3933
  369MOL0     H50913   5.925   8.851   2.533 -0.1070  0.0134  1.2101
  369MOL0     H50914   6.161   8.845   2.562  0.6738 -1.5383 -0.3142
  369MOL0     H50915   6.194   8.846   2.394 -0.2149  0.8147 -0.0811
  369MOL0     H50916   6.231   9.078   2.498 -0.3733  1.9897  1.1111
  369MOL0     H50917   6.066   9.089   2.526  1.3510  0.5067 -1.3183
  369MOL0     H50918   6.068   9.131   2.112  1.2281  4.6010 -0.1371
  369MOL0     H50919   6.016   8.653   2.107  3.1063 -1.9039  1.2511
  369MOL0     H50920   6.128   8.390   1.953  0.5722  0.7735  1.7490
  369MOL0     H50921   5.978   8.420   1.863 -1.3431  1.2738  0.2182
  369MOL0     H50922   6.063   8.559   1.910  3.0389  1.2691  2.5780
  370MOL0     O50923  10.928   7.992   8.093 -0.6583  0.0798  0.3582
  370MOL0     C50924  10.875   8.077   8.164  0.5039  1.2665 -0.3344
  370MOL0     O50925  10.936   8.159   8.256 -0.9464  0.4710 -0.2867
  370MOL0     C50926  11.069   8.132   8.274  0.2904  0.6047 -0.2424
  370MOL0     C50927  11.116   8.045   8.370 -0.0393 -0.3918  0.4437
  370MOL0     C50928  11.250   8.028   8.398 -0.3092 -0.9533  0.4152
  370MOL0     C50929  11.352   8.090   8.325 -0.9980 -0.7978  0.0706
  370MOL0     O50930  11.479   8.035   8.346 -0.6230  0.3776 -0.8688
  370MOL0     C50931  11.596   8.118   8.328  0.1966  0.0182 -0.1501
  370MOL0     C50932  11.688   8.107   8.446  0.3225 -1.0903  0.6879
  370MOL0     C50933  11.787   7.992   8.438 -0.7945  0.6577 -0.4607
  370MOL0     C50934  11.732   7.848   8.446 -0.2379  0.3667 -0.1395
  370MOL0     C50935  11.665   7.830   8.582 -0.9381  0.2430 -0.0182
  370MOL0     C50936  11.645   7.685   8.625  0.3698 -0.2122 -0.5382
  370MOL0     C50937  11.585   7.665   8.764  0.1290  0.2732  0.2102
  370MOL0     C50938  11.450   7.729   8.773  0.2060  0.3427  0.3120
  370MOL0     N50939  11.379   7.699   8.900  0.3602 -0.6813 -0.1333
  370MOL0     C50940  11.418   7.756   9.019  0.2486 -0.0224 -0.0579
  370MOL0     C50941  11.305   7.738   9.105 -0.4759 -0.1441  0.2267
  370MOL0     C50942  11.307   7.796   9.240 -0.2478 -0.1828  0.3904
  370MOL0     C50943  11.318   7.955   9.240  0.2048 -0.7043  0.0063
  370MOL0     C50944  11.184   8.025   9.182 -0.8005 -0.4015 -0.6022
  370MOL0     C50945  11.195   8.180   9.178 -0.1470  0.1924  1.0253
  370MOL0     O50946  11.102   8.243   9.092  0.3861  0.1932 -0.3748
  370MOL0     C50947  10.970   8.229   9.127 -0.4519  0.4710 -0.1909
  370MOL0     C50948  10.921   8.229   9.254  1.0485  0.5796 -0.3895
  370MOL0     C50949  10.777   8.220   9.288 -0.8420  0.4755  0.3917
  370MOL0     C50950  10.737   8.214   9.436  0.4035 -0.5441 -0.1585
  370MOL0     C50951  10.691   8.200   9.174  0.4134 -0.8018 -0.0449
  370MOL0     C50952  10.543   8.185   9.191  0.3789  0.0811  0.3248
  370MOL0     O50953  10.483   8.127   9.086  0.5017 -0.2094  0.2449
  370MOL0     C50954  10.345   8.128   9.073 -0.0707 -0.1460 -0.6334
  370MOL0     C50955  10.295   8.239   9.005  0.3035 -0.2490  0.2633
  370MOL0     C50956  10.163   8.241   8.965  0.2053 -0.2471  0.0909
  370MOL0     C50957  10.071   8.140   9.000  1.2108 -0.5135  0.1789
  370MOL0     O50958   9.936   8.157   8.971 -0.9921 -0.1257 -0.1675
  370MOL0     C50959   9.851   8.045   8.944  0.3035 -0.0367  0.1773
  370MOL0     C50960   9.712   8.091   8.922  0.2168 -0.0547  0.2399
  370MOL0     C50961   9.617   8.100   9.040  0.5145 -1.1416  0.7301
  370MOL0     C50962   9.660   8.196   9.149  0.8966  0.0143 -0.0683
  370MOL0     C50963   9.615   8.339   9.128  0.5109  0.2427  1.4245
  370MOL0     C50964   9.469   8.371   9.153  0.9409 -0.0384 -0.0694
  370MOL0     C50965   9.431   8.484   9.247 -0.8540  0.0057 -0.0794
  370MOL0     C50966   9.379   8.612   9.167  0.2586 -0.3923  0.1285
  370MOL0    Cl50967   9.339   8.750   9.285  0.1027  0.4160 -0.2663
  370MOL0     C50968  10.127   8.036   9.081  0.2412 -0.1599  0.2582
  370MOL0     C50969  10.260   8.030   9.116  0.4599 -0.0286  0.9296
  370MOL0     O50970  10.485   8.233   9.290  0.0836 -0.0932  0.1819
  370MOL0     C50971  10.749   8.198   9.044 -0.9940  0.0230  0.1251
  370MOL0     C50972  10.889   8.209   9.021  0.1703  0.0137  0.0003
  370MOL0     N50973  11.212   7.667   9.042  1.1688  0.5017  0.5809
  370MOL0     N50974  11.253   7.653   8.918 -0.2050 -0.0049 -0.5224
  370MOL0     C50975  11.305   8.194   8.239  0.3748 -0.0463  0.5387
  370MOL0     C50976  11.166   8.210   8.206 -0.5142 -0.1452  0.1510
  370MOL0     C50977  10.728   8.085   8.143  0.4283  0.1132  0.4741
  370MOL0     C50978  10.664   7.981   8.081 -0.8626 -0.1025 -1.0922
  370MOL0     C50979  10.531   7.980   8.047 -0.8131  0.3132  0.7406
  370MOL0     C50980  10.452   8.090   8.071 -0.5698 -0.5451  0.4398
  370MOL0     O50981  10.317   8.089   8.045 -0.2823 -0.5771  0.8023
  370MOL0     C50982  10.244   8.200   8.103  0.3308 -0.0074 -0.3786
  370MOL0     C50983  10.091   8.138   8.120 -0.9182 -0.4124 -1.0861
  370MOL0     C50984   9.997   8.238   8.178  0.1334  0.8558  0.1883
  370MOL0     C50985   9.966   8.362   8.102  0.8173  0.6158  0.1849
  370MOL0     C50986   9.838   8.426   8.143 -0.6537  0.5154 -0.7632
  370MOL0     C50987   9.740   8.484   8.191  0.6752  0.6363  0.5494
  370MOL0     C50988  10.514   8.210   8.129  0.6291 -0.0472 -0.7039
  370MOL0     C50989  10.650   8.202   8.173  0.2970 -0.0019 -0.6370
  370MOL0     C50990  10.709   8.319   8.262  0.3890  0.7233 -0.2190
  370MOL0     H50991  11.038   7.989   8.420 -1.2561  1.5059  0.7510
  370MOL0     H50992  11.276   7.953   8.472  1.6358 -0.8458 -0.1194
  370MOL0     H50993  11.564   8.222   8.330 -1.1717 -0.3834 -0.2530
  370MOL0     H50994  11.650   8.098   8.235  0.7200  1.1397 -0.0925
  370MOL0     H50995  11.754   8.194   8.440 -0.9999 -0.1334 -0.5453
  370MOL0     H50996  11.632   8.114   8.540  1.5168 -3.0315  1.5959
  370MOL0     H50997  11.844   8.010   8.347 -1.9134 -0.0113 -1.3192
  370MOL0     H50998  11.860   8.004   8.518 -0.0431 -3.1648 -0.3817
  370MOL0     H50999  11.658   7.827   8.368  1.8279  1.4374 -2.5249
  370MOL0     H51000  11.814   7.775   8.444 -1.2315 -0.7740 -1.8767
  370MOL0     H51001  11.570   7.884   8.579 -0.2455  1.6957  2.2103
  370MOL0     H51002  11.731   7.881   8.652  2.4514 -3.3833 -0.1810
  370MOL0     H51003  11.587   7.636   8.547 -1.6262 -1.7051  1.7608
  370MOL0     H51004  11.747   7.644   8.627  0.9250  0.3588 -5.4269
  370MOL0     H51005  11.655   7.712   8.833 -2.7705  2.1858  2.0624
  370MOL0     H51006  11.556   7.563   8.791 -2.3939  0.1185 -2.5287
  370MOL0     H51007  11.470   7.836   8.761  2.6948 -0.1661 -0.7433
  370MOL0     H51008  11.382   7.705   8.691 -0.9624  1.1960  1.0000
  370MOL0     H51009  11.512   7.811   9.016 -1.7664  3.9437  1.3897
  370MOL0     H51010  11.390   7.755   9.299  1.0645 -0.6417 -1.6719
  370MOL0     H51011  11.210   7.778   9.288  0.1312 -0.3973  1.0941
  370MOL0     H51012  11.350   7.992   9.338  1.0802 -0.8611 -0.2185
  370MOL0     H51013  11.400   7.993   9.179 -0.4735  2.2074  0.7266
  370MOL0     H51014  11.175   7.998   9.077  3.8996  0.3061 -1.3888
  370MOL0     H51015  11.102   7.997   9.250  0.3463 -0.3218  0.8523
  370MOL0     H51016  11.182   8.218   9.280 -0.6640 -2.3351  1.9690
  370MOL0     H51017  11.293   8.201   9.135 -0.7428 -1.1788 -1.1687
  370MOL0     H51018  10.991   8.255   9.334  2.7726  0.5263 -1.8267
  370MOL0     H51019  10.823   8.233   9.501  1.9499  1.0544 -2.5326
  370MOL0     H51020  10.682   8.122   9.457 -1.8714  0.4948 -1.2516
  370MOL0     H51021  10.667   8.296   9.457  1.2161 -0.2733  1.7642
  370MOL0     H51022  10.367   8.318   8.983 -1.6060  1.8442  1.0474
  370MOL0     H51023  10.126   8.321   8.900  0.6945  1.4052  1.7609
  370MOL0     H51024   9.887   7.982   8.862 -1.3891  0.4180 -0.9502
  370MOL0     H51025   9.847   7.986   9.036 -1.9354 -1.2648 -0.6252
  370MOL0     H51026   9.719   8.188   8.871  1.1601  0.3682  1.1473
  370MOL0     H51027   9.656   8.028   8.852 -0.8429  1.7211 -0.6077
  370MOL0     H51028   9.616   8.001   9.085  4.0021 -0.9810  1.4827
  370MOL0     H51029   9.520   8.133   9.002  0.7635 -1.0537  0.1670
  370MOL0     H51030   9.766   8.190   9.175  1.3103 -1.5114 -1.8853
  370MOL0     H51031   9.612   8.160   9.240  0.7658 -0.6531 -0.3948
  370MOL0     H51032   9.689   8.409   9.169 -0.4455  1.0791  1.7586
  370MOL0     H51033   9.639   8.369   9.026 -0.1863  2.0400  1.7572
  370MOL0     H51034   9.397   8.291   9.170  0.4454  0.4191  0.0382
  370MOL0     H51035   9.445   8.410   9.054  3.8146 -2.7222 -1.9823
  370MOL0     H51036   9.526   8.504   9.297 -0.1533 -4.2995  0.6571
  370MOL0     H51037   9.360   8.446   9.320 -2.2100 -2.3608 -2.4704
  370MOL0     H51038   9.285   8.586   9.118 -1.0658  1.1835  1.7104
  370MOL0     H51039   9.454   8.662   9.105 -0.8698  2.0735  0.6376
  370MOL0     H51040  10.062   7.957   9.115  0.9114 -0.7388  0.2201
  370MOL0     H51041  10.301   7.938   9.158  0.9987 -0.5356 -0.6441
  370MOL0     H51042  10.690   8.167   8.959  0.4625  1.3716 -1.4697
  370MOL0     H51043  10.933   8.201   8.922  0.8485  0.2906  0.2701
  370MOL0     H51044  11.368   8.259   8.179  0.4025  0.6136  1.2665
  370MOL0     H51045  11.127   8.286   8.140  1.8485  0.6339 -0.4336
  370MOL0     H51046  10.713   7.890   8.049 -0.5736  0.0239 -1.0154
  370MOL0     H51047  10.477   7.894   8.009 -1.0941  0.1970  1.3786
  370MOL0     H51048  10.287   8.234   8.197  3.4201  1.0644 -2.0202
  370MOL0     H51049  10.235   8.285   8.034 -1.5758 -0.4734 -0.7685
  370MOL0     H51050  10.089   8.044   8.174 -0.9512  0.3581  0.2980
  370MOL0     H51051  10.052   8.113   8.021  1.7517  2.5230 -3.0899
  370MOL0     H51052   9.905   8.179   8.193 -0.6588  1.5972 -1.4976
  370MOL0     H51053  10.023   8.275   8.278 -1.4402  0.0287  0.9532
  370MOL0     H51054   9.954   8.335   7.996  0.7972  0.1483  0.3073
  370MOL0     H51055  10.050   8.432   8.100  0.9707  0.4739  1.1917
  370MOL0     H51056   9.654   8.540   8.222  1.0898  2.6511 -1.6060
  370MOL0     H51057  10.463   8.304   8.146  0.0121 -0.1352 -1.8871
  370MOL0     H51058  10.808   8.355   8.234 -0.1338  0.6460 -2.3003
  370MOL0     H51059  10.640   8.404   8.260  0.1760  0.5312 -1.7041
  370MOL0     H51060  10.707   8.281   8.365  1.4972 -2.5731 -1.2907
  371MOL0     O51061  10.180   6.223   3.227 -0.4537  0.3378 -0.2660
  371MOL0     C51062  10.232   6.182   3.335  0.1891  0.0706  0.3892
  371MOL0     O51063  10.333   6.076   3.342  0.6272  0.5022 -0.6308
  371MOL0     C51064  10.388   6.048   3.227 -0.8095 -0.1510 -1.1332
  371MOL0     C51065  10.338   5.935   3.160 -0.4475 -0.4943 -0.5055
  371MOL0     C51066  10.384   5.898   3.036  0.1818  0.3765  0.1515
  371MOL0     C51067  10.495   5.956   2.981 -0.7843 -0.2708  0.2584
  371MOL0     O51068  10.528   5.903   2.858  0.4140 -0.4451  0.9347
  371MOL0     C51069  10.589   5.992   2.775 -0.0491 -0.1566  1.7964
  371MOL0     C51070  10.564   5.957   2.621  0.3920  0.4453 -0.6335
  371MOL0     C51071  10.653   6.043   2.531  0.2681 -0.4658  1.1586
  371MOL0     C51072  10.651   5.996   2.379  0.7981 -1.0621 -0.6613
  371MOL0     C51073  10.792   6.007   2.305 -0.4186  0.2301  0.3366
  371MOL0     C51074  10.793   5.907   2.194  0.6139 -0.3462 -0.4502
  371MOL0     C51075  10.932   5.916   2.124  0.0344  0.3333  0.4531
  371MOL0     C51076  10.943   6.044   2.048 -0.0881  0.2070 -1.5372
  371MOL0     N51077  11.070   6.082   1.989  0.5151 -0.6359 -0.0231
  371MOL0     C51078  11.148   5.994   1.913 -0.8345  0.3669 -0.5165
  371MOL0     C51079  11.259   6.069   1.882  0.0949  0.4490  0.4176
  371MOL0     C51080  11.378   6.031   1.801  0.4775  0.3939  0.0626
  371MOL0     C51081  11.360   5.901   1.720  0.2895  0.2665 -0.5413
  371MOL0     C51082  11.399   5.777   1.802 -0.4003 -0.6713  1.3291
  371MOL0     C51083  11.332   5.653   1.747 -0.6000  0.4185 -0.2386
  371MOL0     O51084  11.192   5.644   1.764 -0.2889  0.3584  1.0698
  371MOL0     C51085  11.119   5.613   1.876 -0.3109 -0.7792 -0.8119
  371MOL0     C51086  10.975   5.619   1.872 -0.9853 -0.2955  0.5846
  371MOL0     C51087  10.900   5.595   1.986  0.2425  0.4932 -0.4359
  371MOL0     C51088  10.751   5.604   1.970 -0.2969 -0.7663  0.8511
  371MOL0     C51089  10.960   5.551   2.108 -0.5425  0.0689 -0.2568
  371MOL0     C51090  10.885   5.527   2.243 -0.2866 -0.4507  0.1953
  371MOL0     O51091  10.963   5.467   2.334  0.0559  0.1754 -0.2766
  371MOL0     C51092  10.916   5.478   2.463 -0.9191  0.4477 -0.2402
  371MOL0     C51093  10.921   5.602   2.525 -0.0429  0.2693 -0.1965
  371MOL0     C51094  10.889   5.623   2.657 -1.0156  0.9210 -0.1577
  371MOL0     C51095  10.849   5.507   2.742  0.7155 -0.8661 -0.7092
  371MOL0     O51096  10.807   5.515   2.876 -0.0068 -0.0279  0.4029
  371MOL0     C51097  10.795   5.643   2.927  0.3696  0.6704 -0.0400
  371MOL0     C51098  10.745   5.623   3.067  0.0186  0.1818 -0.0668
  371MOL0     C51099  10.778   5.754   3.141  0.6107 -0.2852 -0.1938
  371MOL0     C51100  10.706   5.779   3.281  0.1726  0.3225  0.3170
  371MOL0     C51101  10.783   5.897   3.340  0.1314  0.6489  0.3129
  371MOL0     C51102  10.753   5.923   3.488 -0.1310  0.4488 -0.1232
  371MOL0     C51103  10.846   6.036   3.555 -0.1921 -0.3907  0.2199
  371MOL0     C51104  10.777   6.070   3.683 -0.4185  0.6782 -1.0488
  371MOL0    Cl51105  10.809   5.937   3.809 -0.6891 -0.4850 -0.2765
  371MOL0     C51106  10.846   5.384   2.681  0.2112  0.1083 -0.7138
  371MOL0     C51107  10.883   5.368   2.545 -0.0568  0.7712 -0.5043
  371MOL0     O51108  10.773   5.566   2.268  0.5015  0.5973  0.2364
  371MOL0     C51109  11.105   5.542   2.108 -0.5972 -0.2289 -0.3338
  371MOL0     C51110  11.174   5.583   1.998 -0.1501 -0.0153  0.0422
  371MOL0     N51111  11.226   6.200   1.916 -0.7291 -0.4482 -0.3378
  371MOL0     N51112  11.125   6.206   1.990  0.8402 -0.4482  0.0997
  371MOL0     C51113  10.558   6.058   3.050  0.2426 -1.0037 -0.1767
  371MOL0     C51114  10.500   6.110   3.176  0.9911 -0.2195 -0.2624
  371MOL0     C51115  10.167   6.225   3.462 -0.1946 -0.3426  0.3253
  371MOL0     C51116  10.181   6.153   3.573 -0.0490  0.2169  0.1338
  371MOL0     C51117  10.115   6.178   3.694 -0.1199 -0.4282 -0.1672
  371MOL0     C51118  10.054   6.294   3.715  1.2835 -0.0551 -0.0810
  371MOL0     O51119  10.017   6.306   3.851  0.2552  0.2311 -0.0236
  371MOL0     C51120   9.984   6.439   3.895 -0.7914 -0.5224 -0.0091
  371MOL0     C51121   9.829   6.442   3.885  0.7612 -0.1986 -0.3036
  371MOL0     C51122   9.761   6.365   4.000  0.3400  0.1489 -0.1979
  371MOL0     C51123   9.720   6.453   4.119 -1.1020  0.3832  0.6737
  371MOL0     C51124   9.660   6.388   4.236 -0.9296 -0.0213 -0.9651
  371MOL0     C51125   9.601   6.337   4.324  0.5079  0.4327  0.0453
  371MOL0     C51126  10.037   6.382   3.606 -0.3535  0.7787  0.3534
  371MOL0     C51127  10.092   6.347   3.477 -0.8440  0.5537  0.2690
  371MOL0     C51128  10.058   6.439   3.367 -0.3587 -0.0645 -0.4949
  371MOL0     H51129  10.260   5.881   3.213  0.4200 -0.7134  0.5924
  371MOL0     H51130  10.338   5.809   2.993 -2.2199  0.6102  1.9827
  371MOL0     H51131  10.695   5.986   2.800  0.5835  0.4390 -0.4768
  371MOL0     H51132  10.576   6.100   2.792  0.0747  1.2085 -4.3005
  371MOL0     H51133  10.591   5.855   2.592 -1.0128  0.2913 -1.4891
  371MOL0     H51134  10.459   5.966   2.593  0.5074 -0.5366 -1.4324
  371MOL0     H51135  10.633   6.150   2.548  2.1034 -0.1855  1.7124
  371MOL0     H51136  10.755   6.026   2.565  1.7104  1.7352 -1.7415
  371MOL0     H51137  10.624   5.890   2.381  1.0738 -1.2159  3.1902
  371MOL0     H51138  10.577   6.061   2.331 -0.3994  2.6993  5.2160
  371MOL0     H51139  10.874   6.001   2.377  0.2995  3.7376 -0.0039
  371MOL0     H51140  10.798   6.110   2.268 -1.0346  0.9335  2.0844
  371MOL0     H51141  10.777   5.814   2.250  0.0752  0.6732  1.1757
  371MOL0     H51142  10.703   5.927   2.135 -1.0867 -1.5504  1.5921
  371MOL0     H51143  10.942   5.839   2.047 -0.8264 -0.3981  1.0549
  371MOL0     H51144  11.003   5.893   2.204 -3.6723 -3.1304  3.1877
  371MOL0     H51145  10.875   6.024   1.965 -1.3699 -1.8520 -0.1023
  371MOL0     H51146  10.906   6.128   2.108  2.3213  0.5687 -0.4103
  371MOL0     H51147  11.128   5.890   1.886  1.4055  0.6893 -3.9726
  371MOL0     H51148  11.459   6.001   1.868  0.8518 -0.8551 -0.9178
  371MOL0     H51149  11.406   6.118   1.742 -2.4432  1.0369 -0.5443
  371MOL0     H51150  11.255   5.892   1.691 -0.5095 -0.1256  2.2190
  371MOL0     H51151  11.421   5.912   1.630 -0.5720  2.2704 -0.9451
  371MOL0     H51152  11.506   5.757   1.804 -0.5750 -1.6447  1.5083
  371MOL0     H51153  11.370   5.796   1.906 -0.4954  0.8152  1.0610
  371MOL0     H51154  11.351   5.645   1.639 -0.4668 -0.8024 -0.1475
  371MOL0     H51155  11.380   5.572   1.803  2.2510  2.7189  0.9469
  371MOL0     H51156  10.927   5.652   1.781 -1.0617  1.9928  1.3948
  371MOL0     H51157  10.726   5.655   1.876  1.4055 -2.6861 -0.7617
  371MOL0     H51158  10.702   5.664   2.047 -0.0630  1.8393 -0.9169
  371MOL0     H51159  10.712   5.502   1.979  2.0237 -1.6042  2.2015
  371MOL0     H51160  10.954   5.687   2.466  1.7675 -0.4172 -0.2426
  371MOL0     H51161  10.890   5.724   2.697 -0.5401 -0.0029  2.3738
  371MOL0     H51162  10.894   5.687   2.922  1.1972 -1.0218  0.5613
  371MOL0     H51163  10.723   5.704   2.871 -0.8427 -0.6635 -0.0046
  371MOL0     H51164  10.638   5.600   3.065  0.1363 -0.4462  0.5624
  371MOL0     H51165  10.808   5.546   3.113  0.8174  2.0930  2.2136
  371MOL0     H51166  10.751   5.840   3.079 -0.5742 -1.9455 -2.1132
  371MOL0     H51167  10.886   5.752   3.157  0.4493  0.7488  1.2027
  371MOL0     H51168  10.719   5.692   3.347 -0.3915  0.9464  1.2849
  371MOL0     H51169  10.600   5.805   3.271  0.7295  3.7587  1.9369
  371MOL0     H51170  10.891   5.891   3.328 -0.0832 -2.7709 -0.9351
  371MOL0     H51171  10.753   5.983   3.279  0.9558  1.7860  1.4591
  371MOL0     H51172  10.764   5.831   3.545 -2.3355 -0.2952 -0.7878
  371MOL0     H51173  10.646   5.938   3.508 -0.1856 -2.7733  2.8580
  371MOL0     H51174  10.869   6.124   3.494 -0.0189 -1.3479 -1.1566
  371MOL0     H51175  10.938   5.979   3.572 -1.1357 -2.3803 -0.9991
  371MOL0     H51176  10.672   6.096   3.666 -1.8261 -1.4472  3.1223
  371MOL0     H51177  10.827   6.158   3.725  4.0771 -2.3635  0.7480
  371MOL0     H51178  10.803   5.298   2.732 -1.0563  0.0108 -1.8673
  371MOL0     H51179  10.873   5.272   2.496  1.1794  1.5777 -2.4695
  371MOL0     H51180  11.156   5.515   2.200  1.5268  2.0266 -0.7250
  371MOL0     H51181  11.283   5.586   2.004 -0.1707 -1.0087  1.5370
  371MOL0     H51182  10.642   6.118   3.018 -2.6091  3.6609  0.1186
  371MOL0     H51183  10.540   6.191   3.238 -0.5853  1.3704 -1.2458
  371MOL0     H51184  10.235   6.059   3.567  1.6021  1.2140 -1.3139
  371MOL0     H51185  10.120   6.100   3.770  2.3921  0.3970  0.6077
  371MOL0     H51186  10.024   6.456   3.996  0.5505  0.1290 -0.6267
  371MOL0     H51187  10.020   6.513   3.823 -3.0478  1.1158  0.4469
  371MOL0     H51188   9.799   6.401   3.788  2.8634 -1.3926 -0.5027
  371MOL0     H51189   9.782   6.541   3.888  1.0071 -0.0960  1.4389
  371MOL0     H51190   9.667   6.325   3.960  0.4613 -0.4157  0.0682
  371MOL0     H51191   9.823   6.283   4.039 -1.7057 -1.7206 -0.7048
  371MOL0     H51192   9.645   6.525   4.085  0.2107  1.6838  0.4340
  371MOL0     H51193   9.803   6.522   4.139 -1.5913  1.4921 -0.9496
  371MOL0     H51194   9.529   6.298   4.393 -2.1591  3.5847 -0.7022
  371MOL0     H51195   9.979   6.473   3.621 -1.5642  0.1019 -0.0636
  371MOL0     H51196  10.146   6.459   3.306  0.3829  2.1143  1.1470
  371MOL0     H51197   9.965   6.414   3.314  0.6546 -1.1042 -1.8220
  371MOL0     H51198  10.042   6.536   3.416  3.3120 -0.0409  0.9395
  372MOL0     O51199   1.217  11.165   3.956  0.6383  1.0507 -0.7412
  372MOL0     C51200   1.287  11.167   3.859 -0.7025  0.7807  0.2801
  372MOL0     O51201   1.267  11.110   3.736 -0.1821 -0.5346 -0.4354
  372MOL0     C51202   1.149  11.061   3.705  0.3201 -0.1219 -0.2598
  372MOL0     C51203   1.122  10.917   3.693  0.2450 -0.2988 -0.4841
  372MOL0     C51204   0.987  10.871   3.682  0.3089 -0.4105 -0.3122
  372MOL0     C51205   0.875  10.954   3.677  0.5206 -0.2865 -0.0303
  372MOL0     O51206   0.746  10.897   3.665 -0.4972 -0.0611  0.1711
  372MOL0     C51207   0.647  10.971   3.591 -0.2489 -0.0641  0.0180
  372MOL0     C51208   0.533  10.882   3.549  0.7364 -0.5504 -0.2329
  372MOL0     C51209   0.391  10.951   3.544  1.2482  0.6736  0.4576
  372MOL0     C51210   0.383  11.068   3.443  0.3340 -0.3009  0.7091
  372MOL0     C51211   0.229  11.113   3.430 -0.6119 -0.3609  0.5129
  372MOL0     C51212   0.216  11.227   3.326 -0.2127  0.4441  0.3912
  372MOL0     C51213   0.195  11.182   3.181  0.5456  0.3310 -0.5289
  372MOL0     C51214   0.175  11.314   3.097  0.2508 -0.2762 -0.1623
  372MOL0     N51215   0.176  11.299   2.953 -1.1138  0.2250  0.4142
  372MOL0     C51216   0.294  11.272   2.878 -0.2881  0.1021  0.8201
  372MOL0     C51217   0.273  11.312   2.752 -0.0862 -0.0083  0.3722
  372MOL0     C51218   0.358  11.326   2.631  0.3419 -0.5094 -0.5023
  372MOL0     C51219   0.475  11.417   2.660 -0.2492  0.4210 -0.3051
  372MOL0     C51220   0.566  11.452   2.538  0.7292 -0.3318 -0.0374
  372MOL0     C51221   0.603  11.330   2.463  0.3853  0.3765  0.5731
  372MOL0     O51222   0.662  11.233   2.554 -0.1218  0.1199 -0.0381
  372MOL0     C51223   0.742  11.135   2.503  0.3885 -1.0074  0.8217
  372MOL0     C51224   0.751  11.099   2.367  0.4149  0.2537  0.9672
  372MOL0     C51225   0.826  10.981   2.326  0.0634 -0.0684 -0.2935
  372MOL0     C51226   0.820  10.936   2.188  0.0685 -0.4411 -0.0913
  372MOL0     C51227   0.883  10.902   2.434  0.5267  0.1450 -0.3472
  372MOL0     C51228   0.949  10.774   2.405  0.4578 -0.4588  0.1176
  372MOL0     O51229   1.040  10.779   2.301  0.1764 -0.2405  0.3149
  372MOL0     C51230   1.126  10.668   2.277  0.1903 -0.1552  0.2861
  372MOL0     C51231   1.249  10.703   2.222  0.0941 -0.0808 -0.3829
  372MOL0     C51232   1.344  10.609   2.188 -0.2465 -1.5469 -0.5199
  372MOL0     C51233   1.311  10.473   2.201 -0.5943  0.6876 -0.7312
  372MOL0     O51234   1.385  10.374   2.154 -0.1279  0.0548 -0.1055
  372MOL0     C51235   1.530  10.388   2.138  0.2612 -0.0923 -0.5118
  372MOL0     C51236   1.594  10.381   2.284  0.3631  0.4972  0.3383
  372MOL0     C51237   1.625  10.247   2.325  1.4600 -0.5972 -0.5676
  372MOL0     C51238   1.513  10.168   2.399 -0.1189 -0.9355 -0.5677
  372MOL0     C51239   1.457  10.045   2.333  0.0285  0.7051  1.2944
  372MOL0     C51240   1.331   9.989   2.395  0.1784 -0.2539  0.3262
  372MOL0     C51241   1.325   9.974   2.545  1.0755 -0.9527 -0.7274
  372MOL0     C51242   1.453   9.899   2.595  0.4076 -0.6580 -0.0896
  372MOL0    Cl51243   1.428   9.766   2.703  0.9310  0.3246  0.3279
  372MOL0     C51244   1.187  10.444   2.251  0.7126 -0.1504 -0.0524
  372MOL0     C51245   1.092  10.536   2.303 -0.5392  0.3674  0.4633
  372MOL0     O51246   0.930  10.685   2.487 -0.3051  1.0966  0.3381
  372MOL0     C51247   0.879  10.943   2.563 -0.2164  0.1541 -0.9649
  372MOL0     C51248   0.808  11.060   2.595 -0.0710 -0.0724 -0.1379
  372MOL0     N51249   0.139  11.357   2.749 -0.1906 -0.1311  0.2547
  372MOL0     N51250   0.084  11.349   2.863  0.6393 -0.2872  0.0737
  372MOL0     C51251   0.910  11.089   3.664  0.6490 -0.3736 -1.0236
  372MOL0     C51252   1.038  11.144   3.693 -0.8637 -0.2660 -1.0127
  372MOL0     C51253   1.422  11.245   3.868  0.3570 -0.5500 -0.3008
  372MOL0     C51254   1.484  11.290   3.753 -0.5056 -0.3314 -0.3269
  372MOL0     C51255   1.603  11.363   3.746 -0.0956  0.6773  0.4488
  372MOL0     C51256   1.678  11.395   3.860 -0.5386  0.8856  0.5271
  372MOL0     O51257   1.799  11.458   3.844 -0.1741  0.9423 -0.4975
  372MOL0     C51258   1.914  11.417   3.925  0.9710 -0.5251  0.4630
  372MOL0     C51259   1.956  11.277   3.874  0.4709 -0.5682 -0.0523
  372MOL0     C51260   2.003  11.281   3.730 -0.1278 -0.6772  0.0468
  372MOL0     C51261   2.067  11.150   3.693  0.1842 -0.5295  0.4049
  372MOL0     C51262   1.958  11.048   3.656  0.1656 -0.0884  0.4512
  372MOL0     C51263   1.881  10.970   3.621  0.4001 -0.0225  0.3148
  372MOL0     C51264   1.618  11.347   3.982 -0.0880 -0.1556  0.7361
  372MOL0     C51265   1.489  11.286   3.991  0.5426 -0.4559 -0.0983
  372MOL0     C51266   1.430  11.262   4.119  0.2372 -1.1168 -0.4214
  372MOL0     H51267   1.212  10.856   3.697  0.7600  0.4527  2.3263
  372MOL0     H51268   0.975  10.763   3.679  0.4832 -0.5103  1.3818
  372MOL0     H51269   0.684  11.030   3.506  1.7810 -0.9269  0.2370
  372MOL0     H51270   0.595  11.044   3.653 -0.4951 -2.2196  2.5247
  372MOL0     H51271   0.552  10.844   3.448  0.8336  0.7417 -0.7254
  372MOL0     H51272   0.525  10.804   3.625 -1.3108  0.5512  0.7439
  372MOL0     H51273   0.326  10.870   3.509  2.9385 -0.2340 -0.7338
  372MOL0     H51274   0.346  10.979   3.639 -1.3229  0.3741 -0.5825
  372MOL0     H51275   0.442  11.152   3.480  0.2232 -0.2299  0.7275
  372MOL0     H51276   0.433  11.041   3.350 -1.3706 -1.6169  0.1329
  372MOL0     H51277   0.197  11.152   3.527  1.6683  0.6986  0.9102
  372MOL0     H51278   0.162  11.031   3.401 -0.4653 -0.4179  0.3308
  372MOL0     H51279   0.129  11.286   3.359  0.8505  2.3593 -0.0761
  372MOL0     H51280   0.305  11.290   3.319  2.7211 -3.4860 -1.4977
  372MOL0     H51281   0.117  11.107   3.168  2.1788 -1.7464  0.8368
  372MOL0     H51282   0.290  11.140   3.148  1.1417 -0.6795  2.1940
  372MOL0     H51283   0.076  11.354   3.122  0.8613  1.5707 -0.5898
  372MOL0     H51284   0.246  11.395   3.114  1.3418 -1.3225  0.4246
  372MOL0     H51285   0.389  11.233   2.913  0.1694 -1.4660 -1.8494
  372MOL0     H51286   0.304  11.379   2.552  1.4288  1.0025 -0.2841
  372MOL0     H51287   0.397  11.231   2.595  1.2848  0.4887 -2.2178
  372MOL0     H51288   0.432  11.512   2.694 -1.9384  0.4697 -2.4036
  372MOL0     H51289   0.528  11.361   2.737 -0.6158  0.6450  0.1180
  372MOL0     H51290   0.512  11.531   2.484 -1.2290 -1.3801  0.3045
  372MOL0     H51291   0.654  11.495   2.586 -2.1615  0.5284  5.2775
  372MOL0     H51292   0.525  11.284   2.400  1.9262 -1.5002 -0.0725
  372MOL0     H51293   0.676  11.371   2.392  0.5883 -1.0055 -0.0606
  372MOL0     H51294   0.697  11.154   2.291 -0.2250 -2.5177 -0.6959
  372MOL0     H51295   0.811  10.828   2.173  2.3748 -0.4458 -2.1445
  372MOL0     H51296   0.914  10.966   2.140  0.0510  1.1697  0.7896
  372MOL0     H51297   0.739  10.980   2.129  0.9387 -0.9615 -1.7274
  372MOL0     H51298   1.267  10.807   2.196 -2.6335 -0.2244 -3.4644
  372MOL0     H51299   1.442  10.639   2.151 -0.8502 -3.1551 -3.7423
  372MOL0     H51300   1.588  10.316   2.080  0.2185  1.0618 -2.0477
  372MOL0     H51301   1.558  10.483   2.092 -1.0178  0.2486 -0.6157
  372MOL0     H51302   1.683  10.445   2.289 -1.4502  3.3219 -0.8240
  372MOL0     H51303   1.524  10.435   2.349 -0.3135  3.9676 -2.9252
  372MOL0     H51304   1.705  10.250   2.400  1.7562 -0.0580 -0.9040
  372MOL0     H51305   1.667  10.198   2.236  0.3891  3.7562 -3.7701
  372MOL0     H51306   1.431  10.238   2.415 -0.7925 -2.0733  1.2468
  372MOL0     H51307   1.551  10.151   2.500  0.3301  1.1696 -0.3285
  372MOL0     H51308   1.438  10.067   2.227  0.5828 -0.2509  0.9887
  372MOL0     H51309   1.528   9.962   2.325 -1.8392 -0.7595 -1.7711
  372MOL0     H51310   1.311   9.886   2.366 -2.1155 -0.0836  1.1348
  372MOL0     H51311   1.242  10.042   2.360  0.6464 -0.0214 -0.5428
  372MOL0     H51312   1.240   9.917   2.583  1.5154 -0.0705  1.8012
  372MOL0     H51313   1.323  10.070   2.598 -0.0820 -0.3175 -1.8703
  372MOL0     H51314   1.526   9.967   2.641 -0.4576  0.6348 -0.5989
  372MOL0     H51315   1.496   9.849   2.508  1.1704  1.8387 -1.2514
  372MOL0     H51316   1.163  10.341   2.275  0.5353 -0.5473 -1.7657
  372MOL0     H51317   1.000  10.498   2.347  0.2757 -3.9538 -1.0088
  372MOL0     H51318   0.929  10.885   2.639  0.9080  0.8523 -1.1481
  372MOL0     H51319   0.792  11.094   2.696  0.9998  1.7817 -0.5564
  372MOL0     H51320   0.838  11.167   3.641  0.7938 -0.3464 -1.3937
  372MOL0     H51321   1.054  11.252   3.695 -3.1210  0.1364  1.4467
  372MOL0     H51322   1.446  11.254   3.658 -2.5660 -1.5831  0.8933
  372MOL0     H51323   1.638  11.393   3.648 -0.2045 -1.3688 -0.2710
  372MOL0     H51324   2.005  11.471   3.895  0.3323 -0.7160 -2.0625
  372MOL0     H51325   1.886  11.405   4.030 -4.3425 -0.3891 -0.6657
  372MOL0     H51326   1.870  11.211   3.888 -0.4618  0.8967  1.6366
  372MOL0     H51327   2.035  11.245   3.943 -0.3974  0.8186  1.6721
  372MOL0     H51328   1.922  11.311   3.663 -0.8661 -1.1819  0.7058
  372MOL0     H51329   2.073  11.365   3.723 -1.7163  0.7967  1.0004
  372MOL0     H51330   2.126  11.102   3.772  2.9197 -0.6937 -1.6268
  372MOL0     H51331   2.129  11.170   3.606  0.4024 -0.4950  0.5674
  372MOL0     H51332   1.812  10.893   3.595  0.4850 -1.2991  3.4608
  372MOL0     H51333   1.682  11.357   4.069  1.0758  1.9477 -0.2592
  372MOL0     H51334   1.333  11.310   4.134  0.9762 -0.2156  1.7269
  372MOL0     H51335   1.406  11.156   4.136  0.3116 -1.5963 -2.9218
  372MOL0     H51336   1.498  11.280   4.203 -1.3795 -2.1307  1.1664
  373MOL0     O51337   9.379   3.203   9.999  0.8492  1.0156  0.8558
  373MOL0     C51338   9.409   3.139   9.897  0.9158 -0.5881 -0.3863
  373MOL0     O51339   9.536   3.129   9.850 -0.0304 -0.8399  0.3568
  373MOL0     C51340   9.637   3.216   9.874  0.0811  0.3421  0.7967
  373MOL0     C51341   9.632   3.358   9.863  0.5253  0.6815 -0.0653
  373MOL0     C51342   9.744   3.432   9.904  0.6846 -0.8319 -1.0659
  373MOL0     C51343   9.863   3.377   9.961 -0.5587  0.0415 -0.4390
  373MOL0     O51344   9.976   3.437  10.012  0.8644  0.5847 -0.4449
  373MOL0     C51345   9.965   3.569  10.065  0.6179  0.7473  0.5978
  373MOL0     C51346  10.095   3.621  10.125 -0.0825 -0.1700  0.0192
  373MOL0     C51347  10.201   3.633  10.018  0.1699  0.5618 -0.4310
  373MOL0     C51348  10.154   3.712   9.890  0.0330  0.0046 -0.7139
  373MOL0     C51349  10.096   3.855   9.898  0.6031 -1.1463  0.0428
  373MOL0     C51350  10.053   3.917   9.759  0.7286  0.4788  0.5937
  373MOL0     C51351  10.136   3.872   9.628 -1.0532 -0.4099  0.9170
  373MOL0     C51352  10.061   3.908   9.502 -0.2581 -0.7612  0.0305
  373MOL0     N51353   9.947   3.826   9.472  0.0983  0.3320 -0.8117
  373MOL0     C51354   9.821   3.860   9.523  0.2625  0.5589  1.2120
  373MOL0     C51355   9.747   3.754   9.474  0.4909  0.0499 -1.3923
  373MOL0     C51356   9.600   3.749   9.483 -0.5598  0.2359  0.0890
  373MOL0     C51357   9.534   3.759   9.347 -0.0789 -0.8747  0.2430
  373MOL0     C51358   9.452   3.885   9.321  1.3361  1.3591  0.0903
  373MOL0     C51359   9.412   3.885   9.178 -0.8578 -0.3289 -0.1639
  373MOL0     O51360   9.322   3.771   9.148 -0.5377  0.8569 -0.8285
  373MOL0     C51361   9.267   3.763   9.018  1.3067 -0.0798  0.2414
  373MOL0     C51362   9.291   3.852   8.915 -0.3503  0.2143  0.4929
  373MOL0     C51363   9.256   3.819   8.776 -0.1305 -0.3612  0.5113
  373MOL0     C51364   9.322   3.908   8.673 -0.0616 -0.5673  1.4491
  373MOL0     C51365   9.169   3.711   8.754 -1.3516  0.3424 -0.1766
  373MOL0     C51366   9.094   3.688   8.626  0.9840  0.2173  0.5415
  373MOL0     O51367   8.963   3.640   8.631 -0.0760  0.3153 -0.2846
  373MOL0     C51368   8.895   3.587   8.518  0.2220  0.0257  0.4357
  373MOL0     C51369   8.783   3.496   8.533  0.5174  0.2264  0.4747
  373MOL0     C51370   8.702   3.453   8.425 -0.2048  0.2912  0.7413
  373MOL0     C51371   8.726   3.502   8.298  0.8506  0.5711  0.6105
  373MOL0     O51372   8.635   3.469   8.202  0.3188 -0.4484 -0.0242
  373MOL0     C51373   8.665   3.499   8.060 -0.5747 -0.3412 -1.2749
  373MOL0     C51374   8.762   3.392   8.010 -1.0483 -0.3642 -0.2933
  373MOL0     C51375   8.854   3.442   7.892 -0.0849  0.3253 -0.1376
  373MOL0     C51376   8.985   3.520   7.919 -0.3784  0.0495 -0.7060
  373MOL0     C51377   9.088   3.443   8.019  0.0844  0.0481 -0.0719
  373MOL0     C51378   9.213   3.523   8.036  0.2451 -0.7263 -0.2091
  373MOL0     C51379   9.261   3.527   8.184 -0.1405  0.3951 -0.1851
  373MOL0     C51380   9.382   3.607   8.210  0.4088 -0.3478 -0.1352
  373MOL0    Cl51381   9.524   3.517   8.151  0.3513  0.3554  0.0524
  373MOL0     C51382   8.825   3.592   8.282 -0.5711 -0.1898  0.5348
  373MOL0     C51383   8.908   3.633   8.389  0.4971  0.1150  0.7601
  373MOL0     O51384   9.154   3.704   8.516 -0.3084  0.0912  0.2238
  373MOL0     C51385   9.126   3.641   8.865  0.1662  0.5513  0.9491
  373MOL0     C51386   9.173   3.656   8.987 -0.0959  0.2186 -0.4584
  373MOL0     N51387   9.825   3.663   9.407  0.2117 -0.3242  0.1449
  373MOL0     N51388   9.948   3.711   9.412  0.6623  0.2285  0.4330
  373MOL0     C51389   9.865   3.237   9.949 -0.4604 -0.4542 -0.4664
  373MOL0     C51390   9.758   3.160   9.904  0.9274  0.2007  0.7363
  373MOL0     C51391   9.295   3.090   9.808 -0.6227  0.4648 -0.7195
  373MOL0     C51392   9.162   3.139   9.814 -0.7858  0.2162  1.2902
  373MOL0     C51393   9.062   3.086   9.727 -0.1142 -0.1536  0.5393
  373MOL0     C51394   9.089   2.995   9.628 -0.2492  0.0437 -0.0596
  373MOL0     O51395   9.001   2.954   9.535 -0.2756  1.0594 -0.5692
  373MOL0     C51396   8.870   2.956   9.572  0.1601 -0.8968  1.2298
  373MOL0     C51397   8.784   2.846   9.510  0.1255 -0.2120 -0.0245
  373MOL0     C51398   8.853   2.702   9.484  0.1686 -0.8854  0.1031
  373MOL0     C51399   8.749   2.597   9.428 -0.2092  0.4831  0.4763
  373MOL0     C51400   8.630   2.583   9.509  0.1700  0.1305  0.0702
  373MOL0     C51401   8.532   2.571   9.579 -0.7455  0.3635 -0.1627
  373MOL0     C51402   9.223   2.954   9.620 -1.2674  0.4752  0.2993
  373MOL0     C51403   9.325   2.995   9.704  0.3110 -0.9832 -0.8497
  373MOL0     C51404   9.456   2.927   9.674  0.0746 -0.3623  1.2056
  373MOL0     H51405   9.541   3.391   9.815  1.3590  0.4891 -1.8543
  373MOL0     H51406   9.722   3.537   9.886 -0.1592 -0.6567  0.7910
  373MOL0     H51407   9.890   3.572  10.145  0.3940  1.9573  0.3592
  373MOL0     H51408   9.928   3.641   9.992 -0.0023  0.4903  0.6458
  373MOL0     H51409  10.077   3.721  10.165  2.1678  1.4723 -2.6154
  373MOL0     H51410  10.130   3.551  10.201  0.8026  0.0031 -0.2174
  373MOL0     H51411  10.292   3.672  10.064  2.3343 -0.6627 -3.3121
  373MOL0     H51412  10.220   3.529   9.987 -1.4989  0.3942 -0.9810
  373MOL0     H51413  10.241   3.713   9.823  1.6523 -2.2413  1.1439
  373MOL0     H51414  10.075   3.649   9.850 -2.1172  1.4008  1.1147
  373MOL0     H51415  10.167   3.927   9.940 -0.9345  1.3477 -1.3565
  373MOL0     H51416  10.004   3.863   9.957  0.9151  0.7097  0.3529
  373MOL0     H51417   9.953   3.873   9.748  0.8853  0.6815 -2.8087
  373MOL0     H51418  10.040   4.025   9.761  0.3493  0.4395  0.4322
  373MOL0     H51419  10.162   3.766   9.627 -0.8559 -0.3611  0.0892
  373MOL0     H51420  10.232   3.923   9.628 -1.1889 -0.1466  0.6040
  373MOL0     H51421  10.042   4.015   9.489 -0.0781 -0.9461 -2.1845
  373MOL0     H51422  10.132   3.895   9.420  0.5549  1.0278  0.4038
  373MOL0     H51423   9.784   3.939   9.586 -2.1820 -1.7970  2.9840
  373MOL0     H51424   9.559   3.829   9.544  0.4736 -0.0554  1.2036
  373MOL0     H51425   9.566   3.662   9.540  0.7680  0.4852  1.3236
  373MOL0     H51426   9.610   3.766   9.268 -2.9065 -1.7716 -2.7631
  373MOL0     H51427   9.480   3.669   9.320 -0.9101 -0.4284  0.3947
  373MOL0     H51428   9.369   3.898   9.390  2.1105  0.3922  1.2509
  373MOL0     H51429   9.523   3.968   9.331  2.1606  0.7842 -0.7701
  373MOL0     H51430   9.368   3.982   9.152  0.6724  0.5050  0.2333
  373MOL0     H51431   9.504   3.883   9.119 -1.1153  1.6335 -0.6887
  373MOL0     H51432   9.374   3.922   8.917 -0.5038  0.6329 -2.3588
  373MOL0     H51433   9.239   3.953   8.618  0.1510 -0.0078  1.5854
  373MOL0     H51434   9.380   3.847   8.602 -3.4059 -0.8175 -1.3302
  373MOL0     H51435   9.384   3.993   8.702  2.4575 -0.1360 -3.9817
  373MOL0     H51436   8.772   3.458   8.633  3.7562  0.1373  0.9211
  373MOL0     H51437   8.629   3.376   8.448  1.0778 -0.7630  1.3637
  373MOL0     H51438   8.568   3.497   8.010 -1.6172  1.3940  0.5265
  373MOL0     H51439   8.697   3.599   8.032  0.7065 -0.1143  0.7917
  373MOL0     H51440   8.831   3.351   8.084 -1.6362 -1.9591 -0.5877
  373MOL0     H51441   8.707   3.303   7.976  2.1864 -2.6312 -0.0630
  373MOL0     H51442   8.785   3.485   7.819 -2.3174  1.5626  2.5024
  373MOL0     H51443   8.890   3.354   7.839  1.2004  0.6037  0.2485
  373MOL0     H51444   8.953   3.620   7.949 -1.0535  0.4985 -2.8139
  373MOL0     H51445   9.042   3.531   7.826  0.2742 -0.8438 -0.4340
  373MOL0     H51446   9.040   3.436   8.117  1.2499 -2.8506  0.3726
  373MOL0     H51447   9.109   3.345   7.976  0.5070  0.6514 -1.2946
  373MOL0     H51448   9.203   3.622   7.991  2.9308  0.0823  0.8165
  373MOL0     H51449   9.294   3.477   7.978  0.5829  1.5842 -1.7296
  373MOL0     H51450   9.283   3.423   8.211 -1.5318 -0.3125 -1.5543
  373MOL0     H51451   9.177   3.549   8.251  0.5009 -3.1862  2.1031
  373MOL0     H51452   9.405   3.622   8.316 -0.2590 -1.2693  0.1526
  373MOL0     H51453   9.379   3.712   8.179  1.0043 -0.1351  0.4927
  373MOL0     H51454   8.836   3.636   8.184  0.3436 -1.2976  0.1218
  373MOL0     H51455   8.971   3.719   8.369  1.1291  0.0021  2.1647
  373MOL0     H51456   9.046   3.568   8.853 -0.7143  1.7778 -1.0679
  373MOL0     H51457   9.164   3.579   9.063  1.4586 -1.0395 -1.4931
  373MOL0     H51458   9.952   3.180   9.980 -0.8514  0.0342  1.6818
  373MOL0     H51459   9.770   3.054   9.884 -2.3514  0.3546 -3.7287
  373MOL0     H51460   9.138   3.220   9.881 -0.9529  1.5400 -0.3011
  373MOL0     H51461   8.971   3.145   9.731 -0.6029 -0.6913 -1.5512
  373MOL0     H51462   8.851   2.935   9.678 -3.0797 -2.2850  0.5013
  373MOL0     H51463   8.835   3.057   9.550 -0.1938 -1.4333 -0.8586
  373MOL0     H51464   8.750   2.879   9.412  3.4483  3.3787 -0.2261
  373MOL0     H51465   8.697   2.836   9.575  1.1463  0.3542  1.5027
  373MOL0     H51466   8.940   2.717   9.420 -1.6624 -0.1833 -2.3714
  373MOL0     H51467   8.881   2.662   9.582 -0.4126 -0.2862  0.5281
  373MOL0     H51468   8.795   2.497   9.432  0.9003  0.6934 -3.1028
  373MOL0     H51469   8.735   2.620   9.322  4.0025 -1.8675 -0.8482
  373MOL0     H51470   8.442   2.552   9.633 -0.2154  0.3576  0.7412
  373MOL0     H51471   9.232   2.897   9.528 -0.0184  0.8629  0.1663
  373MOL0     H51472   9.529   3.001   9.639 -3.2471  2.6427 -0.0688
  373MOL0     H51473   9.498   2.879   9.763  1.5582 -1.1706  0.1253
  373MOL0     H51474   9.451   2.859   9.589  2.0642 -0.2150  0.9101
  374MOL0     O51475   0.500   4.175   2.934 -0.3586 -0.1986 -0.2927
  374MOL0     C51476   0.434   4.261   2.874 -0.3994 -0.1199 -0.1408
  374MOL0     O51477   0.487   4.368   2.804  0.2175  0.1480 -0.2832
  374MOL0     C51478   0.623   4.386   2.794 -0.3765  0.5409  0.1845
  374MOL0     C51479   0.675   4.506   2.837  0.2055 -0.1791 -0.3747
  374MOL0     C51480   0.805   4.541   2.840 -0.3413 -0.0305  1.0078
  374MOL0     C51481   0.905   4.444   2.792  0.6655 -0.7730  0.3244
  374MOL0     O51482   1.038   4.472   2.769 -0.3346 -0.3413 -0.6246
  374MOL0     C51483   1.122   4.391   2.684 -0.5107  0.0404  0.9147
  374MOL0     C51484   1.256   4.466   2.663  0.2230 -0.0176  0.4006
  374MOL0     C51485   1.322   4.509   2.801 -0.4436 -0.2030 -0.0869
  374MOL0     C51486   1.448   4.584   2.780  0.6877 -0.7393  0.1234
  374MOL0     C51487   1.570   4.536   2.853  0.1319  0.3778 -0.1887
  374MOL0     C51488   1.574   4.537   3.002 -0.0165 -0.6891  0.3257
  374MOL0     C51489   1.702   4.462   3.038  0.3381 -0.2822 -0.1298
  374MOL0     C51490   1.708   4.314   3.010 -0.5170 -0.3946  0.3523
  374MOL0     N51491   1.797   4.247   3.108  0.2384 -0.4918 -0.6538
  374MOL0     C51492   1.755   4.162   3.204  0.4349 -0.8873  0.5172
  374MOL0     C51493   1.860   4.113   3.267  0.3030  0.4459  0.0310
  374MOL0     C51494   1.842   4.012   3.376 -0.2524 -0.3456  0.2399
  374MOL0     C51495   1.923   3.885   3.346 -0.0840  0.6207  0.3932
  374MOL0     C51496   1.932   3.786   3.471 -0.1674 -0.4023  0.1828
  374MOL0     C51497   1.814   3.707   3.496 -0.0928  1.2868 -0.3641
  374MOL0     O51498   1.790   3.628   3.382 -0.0274  0.1513 -0.0438
  374MOL0     C51499   1.672   3.568   3.369  0.4186 -0.0482 -0.1829
  374MOL0     C51500   1.641   3.540   3.238  1.0183  1.1053 -0.3080
  374MOL0     C51501   1.512   3.482   3.205  0.0281 -0.1668  0.2903
  374MOL0     C51502   1.484   3.466   3.059 -0.2882  0.0030  0.5722
  374MOL0     C51503   1.407   3.474   3.304 -0.9199  0.0960  0.7405
  374MOL0     C51504   1.263   3.463   3.276  0.3828 -0.6084  0.2686
  374MOL0     O51505   1.214   3.480   3.156  0.5134 -0.9446  1.1908
  374MOL0     C51506   1.089   3.420   3.120  0.2308  0.2618 -0.0763
  374MOL0     C51507   1.085   3.303   3.037 -0.1202 -0.5237  0.4538
  374MOL0     C51508   0.962   3.248   3.004  1.3452 -0.7170  0.7757
  374MOL0     C51509   0.834   3.298   3.046  0.3381  0.2231 -0.4772
  374MOL0     O51510   0.709   3.269   2.999 -0.3648  0.4940  0.3818
  374MOL0     C51511   0.700   3.189   2.879 -0.3765  0.0244 -0.3285
  374MOL0     C51512   0.566   3.118   2.864  0.4477 -1.1153 -0.0444
  374MOL0     C51513   0.466   3.219   2.800 -0.1043  0.0448  0.0224
  374MOL0     C51514   0.318   3.159   2.788 -0.3922  0.1749  0.8874
  374MOL0     C51515   0.218   3.275   2.745  0.6286  0.4930  1.2848
  374MOL0     C51516   0.090   3.201   2.702  0.9876  0.4434 -0.1522
  374MOL0     C51517  -0.038   3.289   2.695  0.4070  0.5524 -0.0351
  374MOL0     C51518  -0.162   3.196   2.673 -0.6788  0.0200  0.1676
  374MOL0    Cl51519  -0.159   3.131   2.511  0.3195  0.0727 -0.4751
  374MOL0     C51520   0.841   3.406   3.137 -0.5481  0.3445  0.9753
  374MOL0     C51521   0.965   3.468   3.166 -0.2823  0.6265  0.3436
  374MOL0     O51522   1.191   3.425   3.370  0.3339  0.1162 -0.7220
  374MOL0     C51523   1.448   3.511   3.434  0.4218  0.7940  0.4275
  374MOL0     C51524   1.575   3.553   3.468 -0.4865  0.0632 -0.4728
  374MOL0     N51525   1.974   4.177   3.211  0.2029  0.6729  0.0145
  374MOL0     N51526   1.930   4.275   3.130  0.1014 -0.3493 -0.1149
  374MOL0     C51527   0.852   4.314   2.764  0.1487  0.0861 -0.4765
  374MOL0     C51528   0.718   4.284   2.766  0.7876 -0.3410  0.3746
  374MOL0     C51529   0.289   4.253   2.883 -0.5445 -0.1377  0.0490
  374MOL0     C51530   0.226   4.129   2.921 -0.2806  0.7361 -1.3131
  374MOL0     C51531   0.091   4.118   2.932  0.7289  0.3663  0.5570
  374MOL0     C51532   0.015   4.225   2.892  1.2433  0.3958 -0.0282
  374MOL0     O51533  -0.121   4.219   2.872  0.0511  0.5350  0.8620
  374MOL0     C51534  -0.198   4.099   2.873 -0.2017 -0.6960 -0.1813
  374MOL0     C51535  -0.335   4.147   2.859  0.6826 -0.7270  0.3543
  374MOL0     C51536  -0.435   4.032   2.862 -0.2000  0.2257 -0.7810
  374MOL0     C51537  -0.580   4.072   2.845  0.6380  0.1170  0.4838
  374MOL0     C51538  -0.604   4.156   2.726  0.6384 -0.2768 -0.7303
  374MOL0     C51539  -0.624   4.223   2.623 -0.6913  0.1447  0.5008
  374MOL0     C51540   0.072   4.344   2.870  0.1767 -0.2504 -0.3754
  374MOL0     C51541   0.210   4.363   2.855 -0.1138  0.1090 -0.1286
  374MOL0     C51542   0.253   4.508   2.857  0.9918 -0.6068  0.2888
  374MOL0     H51543   0.606   4.573   2.888  1.9446  1.8954 -0.5754
  374MOL0     H51544   0.830   4.642   2.867 -0.2729  0.2979 -0.2009
  374MOL0     H51545   1.073   4.364   2.590 -1.9529  0.5934  1.4702
  374MOL0     H51546   1.146   4.298   2.736 -2.0628 -0.9363 -0.0263
  374MOL0     H51547   1.330   4.406   2.610  0.5256 -0.7465  1.6049
  374MOL0     H51548   1.234   4.558   2.608  0.7941 -0.7844 -1.1714
  374MOL0     H51549   1.261   4.579   2.858 -3.5568 -0.3325 -2.9626
  374MOL0     H51550   1.336   4.423   2.868  0.8169  1.1716  1.4818
  374MOL0     H51551   1.470   4.590   2.673  0.0265 -1.3455 -0.0581
  374MOL0     H51552   1.429   4.687   2.809 -1.1321 -0.6042 -1.3148
  374MOL0     H51553   1.643   4.607   2.813 -0.3756  0.1125 -1.6099
  374MOL0     H51554   1.595   4.438   2.811  1.8037  0.1188  1.2795
  374MOL0     H51555   1.579   4.643   3.029 -0.9822 -1.0574  2.1347
  374MOL0     H51556   1.491   4.483   3.047  0.2213 -1.6586 -0.3816
  374MOL0     H51557   1.720   4.474   3.146  0.1807  2.1494 -0.3022
  374MOL0     H51558   1.780   4.522   2.989 -0.7700  1.4040  0.0813
  374MOL0     H51559   1.608   4.275   3.029 -1.0749  1.0772  0.5588
  374MOL0     H51560   1.743   4.304   2.907 -1.8827  0.0042 -0.1581
  374MOL0     H51561   1.653   4.130   3.220  0.2014 -1.2783 -1.5191
  374MOL0     H51562   1.737   3.984   3.382 -0.6072  0.4335 -1.6387
  374MOL0     H51563   1.881   4.050   3.471  2.1344 -0.4180 -0.6482
  374MOL0     H51564   1.894   3.822   3.262  1.3771 -0.0547  0.3637
  374MOL0     H51565   2.026   3.917   3.330  0.1199  0.2828  1.0057
  374MOL0     H51566   2.026   3.730   3.462 -0.4276 -0.4863 -3.4061
  374MOL0     H51567   1.945   3.849   3.559 -1.7247  0.4508 -0.1587
  374MOL0     H51568   1.816   3.636   3.580 -1.1449  0.5972 -0.8805
  374MOL0     H51569   1.728   3.770   3.521 -1.8498 -1.5756  1.5224
  374MOL0     H51570   1.716   3.560   3.162 -0.5921  0.3127 -2.1976
  374MOL0     H51571   1.419   3.378   3.050 -0.1770 -0.3014  2.2924
  374MOL0     H51572   1.581   3.454   3.012 -0.4055 -0.2335  0.3927
  374MOL0     H51573   1.442   3.557   3.015 -0.2027 -0.3938 -0.3534
  374MOL0     H51574   1.183   3.271   3.000  0.4691  0.2704  1.2981
  374MOL0     H51575   0.969   3.188   2.914  3.5269  1.3241 -0.5223
  374MOL0     H51576   0.719   3.257   2.796 -1.5974  1.8728  0.8119
  374MOL0     H51577   0.775   3.110   2.872  0.4068  0.8391 -1.4944
  374MOL0     H51578   0.577   3.046   2.783  0.6388 -1.5144  0.3322
  374MOL0     H51579   0.543   3.074   2.961  1.6832 -2.3258 -0.2769
  374MOL0     H51580   0.506   3.247   2.702  3.4868  0.2679  1.4063
  374MOL0     H51581   0.461   3.309   2.862 -1.8687  0.2294 -0.3484
  374MOL0     H51582   0.303   3.112   2.885 -1.1005 -0.1244  0.6364
  374MOL0     H51583   0.333   3.084   2.710  0.9768 -0.0543  1.3512
  374MOL0     H51584   0.204   3.349   2.823 -2.3500  0.3599  0.9847
  374MOL0     H51585   0.243   3.321   2.649 -4.4825  3.3106  0.9731
  374MOL0     H51586   0.059   3.125   2.774  2.0727  0.6473  0.5515
  374MOL0     H51587   0.109   3.140   2.613  3.5937 -1.8499  1.7985
  374MOL0     H51588  -0.021   3.363   2.617 -0.5694 -1.1927 -2.0232
  374MOL0     H51589  -0.044   3.342   2.790 -0.5801  2.3596 -1.0568
  374MOL0     H51590  -0.246   3.263   2.693 -0.1068  0.8172 -0.0459
  374MOL0     H51591  -0.167   3.114   2.746  0.1473  1.1431  1.5553
  374MOL0     H51592   0.754   3.467   3.161 -2.6671 -1.9696 -0.2372
  374MOL0     H51593   0.980   3.560   3.221 -1.0190  1.4914 -0.8692
  374MOL0     H51594   1.364   3.500   3.502 -0.7837  1.1429 -0.9505
  374MOL0     H51595   1.606   3.582   3.568  1.1213  0.3069 -1.0084
  374MOL0     H51596   0.908   4.235   2.716 -0.7521 -1.6682  1.2343
  374MOL0     H51597   0.686   4.182   2.752  1.7872 -0.8083  1.3450
  374MOL0     H51598   0.279   4.037   2.942 -2.9482 -0.4259  1.1007
  374MOL0     H51599   0.044   4.026   2.963  0.5859  0.2114 -0.1091
  374MOL0     H51600  -0.165   4.027   2.797 -3.1079 -3.8949  1.3516
  374MOL0     H51601  -0.182   4.048   2.969 -4.0290  0.5297  1.3020
  374MOL0     H51602  -0.346   4.209   2.770  0.6183 -0.4613  0.5472
  374MOL0     H51603  -0.346   4.212   2.946 -1.0920 -1.3434  0.6327
  374MOL0     H51604  -0.400   3.966   2.782  1.6469  3.4774 -2.8924
  374MOL0     H51605  -0.426   3.985   2.960  1.6671  1.4594 -0.3061
  374MOL0     H51606  -0.606   4.125   2.937  2.4359  2.1393 -0.1048
  374MOL0     H51607  -0.645   3.984   2.836 -1.0363  1.3199  0.3617
  374MOL0     H51608  -0.641   4.284   2.536  6.2431  3.3901  0.7608
  374MOL0     H51609  -0.001   4.425   2.866 -1.7962 -1.9815 -1.8519
  374MOL0     H51610   0.256   4.542   2.753 -1.0949 -0.8622  0.1120
  374MOL0     H51611   0.178   4.571   2.905 -0.4102 -1.0522 -1.2358
  374MOL0     H51612   0.346   4.529   2.911 -0.1515  0.5437  1.8991
  375MOL0     O51613   4.168   7.891   1.692 -0.1320 -0.4053 -0.0185
  375MOL0     C51614   4.110   7.861   1.795  0.0186 -0.1255 -0.4066
  375MOL0     O51615   4.098   7.943   1.902 -0.3313 -0.3711  0.3920
  375MOL0     C51616   4.139   8.068   1.896 -1.1248 -0.0029 -0.5730
  375MOL0     C51617   4.176   8.122   2.023  0.4265  0.4148 -0.3870
  375MOL0     C51618   4.220   8.256   2.034 -0.4327 -1.0639 -0.2763
  375MOL0     C51619   4.228   8.342   1.923 -0.6035  0.0876  0.6210
  375MOL0     O51620   4.287   8.465   1.933  0.7411 -0.0659 -0.5327
  375MOL0     C51621   4.317   8.539   1.813  1.2328 -0.6691 -1.1140
  375MOL0     C51622   4.359   8.686   1.844  0.2091  0.4960 -0.1062
  375MOL0     C51623   4.454   8.707   1.958  1.0753 -1.0661 -0.5194
  375MOL0     C51624   4.445   8.850   2.019  0.6492 -0.5220 -0.4478
  375MOL0     C51625   4.539   8.877   2.141 -0.0126  0.3685  0.0542
  375MOL0     C51626   4.494   8.791   2.262 -0.8254 -0.5207  0.9430
  375MOL0     C51627   4.601   8.814   2.375 -1.0401 -0.4627 -0.4371
  375MOL0     C51628   4.601   8.718   2.502  0.3969 -0.8526 -1.0029
  375MOL0     N51629   4.699   8.761   2.593 -0.7978  0.5294 -0.9929
  375MOL0     C51630   4.841   8.745   2.579  0.2361 -0.5956 -0.1900
  375MOL0     C51631   4.893   8.778   2.702 -0.3370 -0.8069  0.1991
  375MOL0     C51632   5.037   8.755   2.735 -0.4333 -1.0302 -0.2450
  375MOL0     C51633   5.043   8.620   2.802  0.0136 -0.3178  0.4711
  375MOL0     C51634   5.165   8.543   2.764  0.2765 -0.3080  0.4260
  375MOL0     C51635   5.151   8.437   2.653  0.3824  0.6831 -0.5125
  375MOL0     O51636   5.059   8.334   2.705 -0.6074 -0.0710  0.5749
  375MOL0     C51637   5.027   8.240   2.609  0.7769 -0.4291  0.2952
  375MOL0     C51638   5.072   8.235   2.476  0.3306 -0.2944  0.0813
  375MOL0     C51639   5.029   8.126   2.387  0.2447  0.0941 -0.4090
  375MOL0     C51640   5.071   8.137   2.240 -0.0586 -0.4052 -0.5277
  375MOL0     C51641   4.958   8.011   2.442 -0.4875 -0.3726 -0.3409
  375MOL0     C51642   4.940   7.889   2.365  0.3105 -0.3661 -0.3856
  375MOL0     O51643   4.820   7.815   2.398 -0.3004  0.1467 -0.7548
  375MOL0     C51644   4.769   7.724   2.299 -0.0644 -0.6097 -0.3173
  375MOL0     C51645   4.726   7.601   2.335 -0.7182  0.0217  0.1609
  375MOL0     C51646   4.644   7.522   2.255 -0.7113 -1.1254 -0.0926
  375MOL0     C51647   4.613   7.565   2.130  0.4014 -0.3221  0.6786
  375MOL0     O51648   4.536   7.478   2.067 -0.0670 -0.0596  0.4527
  375MOL0     C51649   4.465   7.535   1.953 -0.6174 -1.0771  0.5815
  375MOL0     C51650   4.535   7.494   1.829 -1.6305  0.0180  0.5766
  375MOL0     C51651   4.563   7.331   1.826 -0.0529 -1.0304 -0.9731
  375MOL0     C51652   4.598   7.289   1.679  0.0207  0.5871 -0.3574
  375MOL0     C51653   4.737   7.334   1.639 -0.3830 -0.6393 -0.6227
  375MOL0     C51654   4.788   7.271   1.511  1.0418 -0.2010  1.3159
  375MOL0     C51655   4.718   7.328   1.381 -0.3166  0.8075 -0.6330
  375MOL0     C51656   4.588   7.246   1.334  0.5603 -0.4821  0.6820
  375MOL0    Cl51657   4.652   7.110   1.247  0.1294 -0.4639  0.5787
  375MOL0     C51658   4.676   7.688   2.083 -0.8232 -0.3694 -0.0178
  375MOL0     C51659   4.748   7.772   2.165 -0.5458  0.0847  0.0049
  375MOL0     O51660   5.017   7.856   2.272 -1.0030  0.3782 -0.1093
  375MOL0     C51661   4.913   8.020   2.577 -0.0852 -0.3017  0.9514
  375MOL0     C51662   4.941   8.135   2.659 -0.8152  0.4509  0.3558
  375MOL0     N51663   4.799   8.818   2.793  1.0645 -0.6330  0.4208
  375MOL0     N51664   4.685   8.802   2.726  0.1435 -0.7847  0.0448
  375MOL0     C51665   4.172   8.296   1.801  0.4073  0.3120 -0.0742
  375MOL0     C51666   4.128   8.164   1.788  0.5484  1.3597 -0.4779
  375MOL0     C51667   4.056   7.717   1.806 -0.1493  0.1521  1.0267
  375MOL0     C51668   3.987   7.660   1.701  0.2520 -0.0756  0.1390
  375MOL0     C51669   3.929   7.533   1.709 -0.2472  0.1072  0.4254
  375MOL0     C51670   3.933   7.458   1.821 -0.1182 -0.4651 -0.3858
  375MOL0     O51671   3.864   7.347   1.807  0.4644  0.7026  0.1655
  375MOL0     C51672   3.860   7.246   1.919 -0.6670 -0.3082 -0.3935
  375MOL0     C51673   3.990   7.160   1.920 -0.0198 -1.0386 -0.3969
  375MOL0     C51674   3.961   7.030   1.989  0.1338 -0.5009 -0.5231
  375MOL0     C51675   3.885   6.935   1.895 -0.2492  1.0334 -0.6224
  375MOL0     C51676   3.895   6.803   1.953  0.0264  0.1234 -0.2354
  375MOL0     C51677   3.896   6.695   2.010  0.0207  0.0865  0.4631
  375MOL0     C51678   3.998   7.519   1.935 -1.2921 -0.2247 -0.8546
  375MOL0     C51679   4.058   7.645   1.930 -0.7843 -0.1084  0.0313
  375MOL0     C51680   4.133   7.694   2.056 -0.7224 -0.1896 -0.0765
  375MOL0     H51681   4.155   8.059   2.108 -0.6124 -1.3940 -1.8939
  375MOL0     H51682   4.239   8.286   2.136 -3.9823 -2.4462  0.9311
  375MOL0     H51683   4.221   8.543   1.760 -1.2492 -0.3984  2.9812
  375MOL0     H51684   4.395   8.490   1.753  0.1547 -1.2672 -2.0598
  375MOL0     H51685   4.399   8.743   1.760 -0.3380  2.0726  0.6651
  375MOL0     H51686   4.265   8.731   1.876 -0.0607 -1.2599  1.7822
  375MOL0     H51687   4.437   8.634   2.038  0.1302 -0.3826 -0.0664
  375MOL0     H51688   4.554   8.689   1.918  2.5010 -0.1477  2.3902
  375MOL0     H51689   4.480   8.928   1.950 -1.6004  1.5664  0.6137
  375MOL0     H51690   4.340   8.873   2.040  0.8410  0.4248 -0.4728
  375MOL0     H51691   4.524   8.984   2.156 -1.3487  0.7167 -2.9479
  375MOL0     H51692   4.641   8.848   2.115 -0.5746 -0.7242 -1.0374
  375MOL0     H51693   4.394   8.819   2.299 -1.6610 -1.2537 -0.6492
  375MOL0     H51694   4.492   8.683   2.244 -1.2577 -1.1406  4.1073
  375MOL0     H51695   4.580   8.917   2.404 -0.2425 -0.9091  1.9539
  375MOL0     H51696   4.706   8.812   2.345  0.0511  1.7513  2.7074
  375MOL0     H51697   4.497   8.723   2.535  0.4420 -2.3287 -0.5716
  375MOL0     H51698   4.627   8.613   2.487 -2.2882 -1.6758 -0.5032
  375MOL0     H51699   4.890   8.713   2.488  1.5128  2.4332 -0.6847
  375MOL0     H51700   5.076   8.841   2.791  1.3765 -2.0323  0.1123
  375MOL0     H51701   5.097   8.754   2.643  0.2811  2.9484 -0.0004
  375MOL0     H51702   5.042   8.650   2.907  0.0822  0.4487  0.2554
  375MOL0     H51703   4.954   8.567   2.767 -1.7241  2.0015  1.1941
  375MOL0     H51704   5.242   8.612   2.726  2.8122 -1.4718  3.0806
  375MOL0     H51705   5.206   8.496   2.853 -2.0847 -0.3882  1.5339
  375MOL0     H51706   5.103   8.489   2.570  0.3541  0.2058 -0.7985
  375MOL0     H51707   5.244   8.395   2.613  0.3241 -0.6227  0.6562
  375MOL0     H51708   5.132   8.312   2.429 -1.4392  3.2032  3.0516
  375MOL0     H51709   5.129   8.230   2.230  0.8021 -0.7722  0.7353
  375MOL0     H51710   4.988   8.155   2.171 -1.2661  5.5540  1.8314
  375MOL0     H51711   5.130   8.051   2.208  0.7152 -0.3274  0.6184
  375MOL0     H51712   4.734   7.565   2.438 -3.2425 -0.6462  0.1749
  375MOL0     H51713   4.600   7.427   2.285 -0.7125 -1.3501 -0.7794
  375MOL0     H51714   4.367   7.486   1.959 -2.2290  2.0000  1.1763
  375MOL0     H51715   4.429   7.638   1.949 -2.6128 -1.7558 -0.2521
  375MOL0     H51716   4.488   7.529   1.737  1.5951 -0.4665 -1.4004
  375MOL0     H51717   4.634   7.538   1.814 -2.9914  2.3951 -2.5855
  375MOL0     H51718   4.480   7.276   1.870  1.4016  0.6244  4.7962
  375MOL0     H51719   4.653   7.315   1.887  0.3205 -2.3547 -1.8268
  375MOL0     H51720   4.517   7.302   1.607  0.1907  1.2811 -0.4318
  375MOL0     H51721   4.601   7.180   1.692  0.5994  0.7306  0.8519
  375MOL0     H51722   4.735   7.443   1.631 -1.7915 -0.6785 -1.0987
  375MOL0     H51723   4.810   7.300   1.713 -2.5610  0.9317  2.4415
  375MOL0     H51724   4.785   7.162   1.517 -0.4235 -0.1657  1.5923
  375MOL0     H51725   4.894   7.289   1.494  0.8932 -0.2738  0.2846
  375MOL0     H51726   4.796   7.329   1.304 -0.0649  0.8174 -0.3810
  375MOL0     H51727   4.690   7.434   1.382 -0.7245  0.7902 -3.2016
  375MOL0     H51728   4.526   7.311   1.271  1.9653 -0.5940 -0.8889
  375MOL0     H51729   4.518   7.215   1.412  0.4898 -1.0078  0.4169
  375MOL0     H51730   4.667   7.718   1.979  2.1891 -2.2081 -0.9540
  375MOL0     H51731   4.780   7.864   2.119 -0.4519  0.3138  0.5169
  375MOL0     H51732   4.854   7.937   2.614  0.4301 -0.0133  2.4797
  375MOL0     H51733   4.893   8.146   2.756 -4.0338  2.8163 -1.3342
  375MOL0     H51734   4.162   8.359   1.714  3.3894 -1.3050 -1.7303
  375MOL0     H51735   4.078   8.138   1.695 -1.1927  1.8222  0.2897
  375MOL0     H51736   3.983   7.711   1.606 -3.9089  0.7179  0.5293
  375MOL0     H51737   3.869   7.488   1.630  1.0052 -2.2846  0.7433
  375MOL0     H51738   3.848   7.304   2.012 -0.5242 -1.3452  0.2882
  375MOL0     H51739   3.770   7.185   1.910 -0.1044 -1.2187 -0.0584
  375MOL0     H51740   4.081   7.200   1.966 -0.6096 -2.1109  1.8621
  375MOL0     H51741   4.022   7.139   1.818  1.6250 -0.0128 -0.1159
  375MOL0     H51742   4.059   6.988   2.012  1.0053 -0.7412 -4.0699
  375MOL0     H51743   3.916   7.047   2.087 -0.3401  0.7977 -0.9348
  375MOL0     H51744   3.924   6.937   1.793 -0.0376 -2.0963 -0.7153
  375MOL0     H51745   3.779   6.957   1.910 -0.0955  0.6320  1.4424
  375MOL0     H51746   3.892   6.601   2.062 -2.6880 -1.9928 -3.1037
  375MOL0     H51747   3.988   7.469   2.031  0.1606 -0.9684 -1.0666
  375MOL0     H51748   4.073   7.775   2.098 -1.3160  0.3418 -1.8337
  375MOL0     H51749   4.148   7.614   2.130 -3.3596 -0.0382  0.7213
  375MOL0     H51750   4.230   7.731   2.023  0.2683 -0.7106  2.1070
  376MOL0     O51751  10.520   6.443   0.848  0.6057  0.8340 -0.0666
  376MOL0     C51752  10.410   6.379   0.828 -1.1408  0.5666  0.0329
  376MOL0     O51753  10.289   6.430   0.791  0.6138  0.0699 -0.4544
  376MOL0     C51754  10.268   6.544   0.711  0.5912  0.2309 -0.0511
  376MOL0     C51755  10.360   6.647   0.655  0.1318  0.7329  1.1069
  376MOL0     C51756  10.311   6.758   0.582  0.2198  0.4514 -0.1861
  376MOL0     C51757  10.180   6.767   0.560 -0.3280  0.1022 -0.3812
  376MOL0     O51758  10.123   6.889   0.522 -0.0906  0.0125  0.2188
  376MOL0     C51759  10.194   6.997   0.451  0.2998  0.2410 -0.3739
  376MOL0     C51760  10.083   7.040   0.347 -0.1567  0.6625  0.5102
  376MOL0     C51761  10.121   7.158   0.259  0.2914 -0.1347 -0.2391
  376MOL0     C51762  10.250   7.121   0.184 -0.2741 -0.4654  0.1433
  376MOL0     C51763  10.269   7.201   0.048 -0.7728  0.2642 -1.4874
  376MOL0     C51764  10.188   7.138  -0.056  0.4376 -0.5795  0.5807
  376MOL0     C51765  10.206   7.211  -0.193 -0.1710 -0.2954  0.5092
  376MOL0     C51766  10.308   7.125  -0.281 -0.3195 -0.3383 -0.1061
  376MOL0     N51767  10.321   7.177  -0.420 -0.7147  0.6556 -0.3330
  376MOL0     C51768  10.281   7.105  -0.532  0.5886 -0.5889  0.7005
  376MOL0     C51769  10.331   7.172  -0.640 -0.0025  0.7735  0.0298
  376MOL0     C51770  10.316   7.135  -0.781  0.1661  0.6825  0.0532
  376MOL0     C51771  10.431   7.043  -0.834 -0.1784  0.6394  0.9542
  376MOL0     C51772  10.416   6.990  -0.976 -0.4989  0.1761 -0.6510
  376MOL0     C51773  10.522   6.892  -1.028  0.2503 -0.8561  0.0487
  376MOL0     O51774  10.600   6.950  -1.139  0.4146  0.4920  0.1239
  376MOL0     C51775  10.705   6.874  -1.180  0.9292  0.7898  0.1656
  376MOL0     C51776  10.785   6.934  -1.277 -0.4039  0.0946  0.0697
  376MOL0     C51777  10.897   6.865  -1.319  0.1306 -0.4223  0.5306
  376MOL0     C51778  10.996   6.924  -1.406  0.2026  0.1836  0.3952
  376MOL0     C51779  10.927   6.732  -1.278  0.4166 -0.2586 -0.2156
  376MOL0     C51780  11.055   6.657  -1.296 -1.1468  0.3951 -0.4991
  376MOL0     O51781  11.044   6.522  -1.284 -0.0380  0.9253  0.7001
  376MOL0     C51782  11.153   6.448  -1.314 -0.7805  0.3904  0.1946
  376MOL0     C51783  11.284   6.469  -1.267 -0.8187 -0.0656 -0.5153
  376MOL0     C51784  11.393   6.397  -1.307  0.5881 -0.5007 -1.2189
  376MOL0     C51785  11.379   6.288  -1.385  1.3246  1.0253  0.0925
  376MOL0     O51786  11.487   6.220  -1.419  0.3822  0.1274 -0.5860
  376MOL0     C51787  11.479   6.148  -1.544  0.6820 -1.6829  0.2927
  376MOL0     C51788  11.626   6.111  -1.576  0.4271  0.1478  0.0671
  376MOL0     C51789  11.647   6.042  -1.706 -0.0425  0.0156 -0.4588
  376MOL0     C51790  11.631   6.136  -1.827 -0.2840  0.7254 -0.2814
  376MOL0     C51791  11.618   6.051  -1.952  0.1689  0.2945  0.0446
  376MOL0     C51792  11.623   6.141  -2.079  0.8493  0.0473 -0.5138
  376MOL0     C51793  11.584   6.069  -2.215  0.5142 -0.8248 -0.9857
  376MOL0     C51794  11.636   6.155  -2.332  0.2975  0.9426 -0.3400
  376MOL0    Cl51795  11.767   6.067  -2.422 -0.4481 -0.0842  0.4116
  376MOL0     C51796  11.245   6.256  -1.422 -0.2042  1.1746 -0.5142
  376MOL0     C51797  11.134   6.334  -1.395 -0.5698 -1.0393  0.8784
  376MOL0     O51798  11.158   6.725  -1.304  0.2279 -0.8276 -0.2180
  376MOL0     C51799  10.843   6.682  -1.177  0.0023 -0.0171  0.3951
  376MOL0     C51800  10.733   6.749  -1.128  0.6224  0.3270  0.3293
  376MOL0     N51801  10.393   7.285  -0.588 -1.0207  0.1191 -0.0515
  376MOL0     N51802  10.394   7.286  -0.456 -0.3335 -0.0211  0.0696
  376MOL0     C51803  10.093   6.667   0.605 -0.4297 -0.5038  0.0906
  376MOL0     C51804  10.131   6.563   0.676 -0.2793 -0.2984 -0.0473
  376MOL0     C51805  10.427   6.230   0.845 -0.3812 -0.1702  0.1681
  376MOL0     C51806  10.548   6.170   0.797  0.1919  1.0470  1.0301
  376MOL0     C51807  10.572   6.035   0.800  1.5487 -0.2522 -0.1393
  376MOL0     C51808  10.460   5.950   0.838  1.2355  0.3460  0.8614
  376MOL0     O51809  10.475   5.812   0.835  0.5807  0.4351  0.6357
  376MOL0     C51810  10.547   5.747   0.947 -0.2956 -0.1394  0.2042
  376MOL0     C51811  10.480   5.654   1.039 -0.2091  1.0438 -0.4878
  376MOL0     C51812  10.427   5.522   0.963 -0.6134  0.2178 -0.5040
  376MOL0     C51813  10.542   5.411   0.984  0.1882 -0.1786 -0.2305
  376MOL0     C51814  10.480   5.285   0.931  0.0620  0.4108  1.0904
  376MOL0     C51815  10.433   5.185   0.878 -0.1997 -1.3117 -0.2917
  376MOL0     C51816  10.342   6.004   0.893  0.2062  0.5755 -0.1574
  376MOL0     C51817  10.325   6.141   0.906  0.1257  0.8306 -0.2761
  376MOL0     C51818  10.201   6.195   0.961  0.2973 -0.0872 -0.4324
  376MOL0     H51819  10.468   6.644   0.664  0.6936  3.7438 -2.4018
  376MOL0     H51820  10.382   6.805   0.514  2.7093 -3.8968 -1.0400
  376MOL0     H51821  10.292   6.970   0.411  0.9604  0.8221  0.8167
  376MOL0     H51822  10.210   7.075   0.526 -2.6354  0.0702  0.5537
  376MOL0     H51823  10.065   6.946   0.294  1.5818 -1.0756  2.7739
  376MOL0     H51824   9.988   7.066   0.396 -1.3464  2.7264 -2.6019
  376MOL0     H51825  10.045   7.185   0.186 -0.0131 -0.6703 -0.1244
  376MOL0     H51826  10.138   7.248   0.319  0.2053  0.1622 -0.6587
  376MOL0     H51827  10.337   7.143   0.248  0.6257  0.7442 -1.4130
  376MOL0     H51828  10.241   7.014   0.165 -4.1471 -0.1828 -0.4277
  376MOL0     H51829  10.374   7.211   0.018  0.1496  2.5745  1.9385
  376MOL0     H51830  10.233   7.302   0.066  1.3802  0.7947  0.3200
  376MOL0     H51831  10.207   7.031  -0.070  0.6600 -0.3522 -1.1601
  376MOL0     H51832  10.079   7.151  -0.049  0.1450 -0.0715 -2.9076
  376MOL0     H51833  10.244   7.313  -0.182 -1.2897  0.1595  0.3145
  376MOL0     H51834  10.110   7.218  -0.246  0.7836  1.3001 -1.1210
  376MOL0     H51835  10.405   7.134  -0.232 -0.2310 -0.2317 -0.2999
  376MOL0     H51836  10.276   7.020  -0.284  2.3199 -1.1874 -2.1327
  376MOL0     H51837  10.224   7.012  -0.535 -0.9239  0.2747  1.7489
  376MOL0     H51838  10.298   7.228  -0.837 -3.2464  0.7920  1.1019
  376MOL0     H51839  10.223   7.077  -0.791  1.1168 -2.0235  4.3241
  376MOL0     H51840  10.519   7.106  -0.824 -1.7903  3.1156  0.3301
  376MOL0     H51841  10.433   6.964  -0.758  1.5797 -0.1939  0.0957
  376MOL0     H51842  10.322   6.935  -0.984  0.3961 -1.3651 -1.2896
  376MOL0     H51843  10.419   7.066  -1.055 -0.7709  0.8997  0.0258
  376MOL0     H51844  10.589   6.867  -0.946  0.4359  3.0080  1.2647
  376MOL0     H51845  10.476   6.805  -1.076 -0.7690  1.5035 -3.7555
  376MOL0     H51846  10.782   7.031  -1.325 -1.5982  0.2269  0.3901
  376MOL0     H51847  11.073   6.981  -1.354 -0.5941  0.5446  1.2048
  376MOL0     H51848  10.947   7.008  -1.458  3.9995  1.4328 -1.5866
  376MOL0     H51849  11.021   6.869  -1.497  0.6113  1.4412 -0.2706
  376MOL0     H51850  11.306   6.549  -1.197  3.2577 -2.3091  1.0904
  376MOL0     H51851  11.494   6.412  -1.269 -0.2148 -1.7263  1.6896
  376MOL0     H51852  11.420   6.057  -1.531 -0.7129 -0.7779  0.4887
  376MOL0     H51853  11.439   6.215  -1.621  2.5480 -0.1735  0.5414
  376MOL0     H51854  11.690   6.200  -1.580 -0.2323  0.6191 -0.1407
  376MOL0     H51855  11.662   6.060  -1.486 -3.5557 -2.8367  0.2211
  376MOL0     H51856  11.572   5.962  -1.718  0.7132 -0.6972 -0.5203
  376MOL0     H51857  11.750   6.007  -1.700  0.4436  1.6698  1.5777
  376MOL0     H51858  11.729   6.185  -1.830  0.1633 -0.0326  1.1574
  376MOL0     H51859  11.552   6.211  -1.816 -2.0849 -1.2933  1.3819
  376MOL0     H51860  11.708   5.988  -1.960  1.4447  1.8822  1.2355
  376MOL0     H51861  11.530   5.987  -1.956 -0.2548  0.9244 -0.8955
  376MOL0     H51862  11.724   6.182  -2.090  1.5832 -1.7943 -1.0474
  376MOL0     H51863  11.548   6.219  -2.067 -0.2422 -0.8364 -1.3963
  376MOL0     H51864  11.477   6.051  -2.225  0.0338  1.2078  0.0555
  376MOL0     H51865  11.636   5.973  -2.213 -0.6340 -1.4738  1.8806
  376MOL0     H51866  11.678   6.253  -2.306 -0.4671  1.3408 -0.5641
  376MOL0     H51867  11.551   6.164  -2.401 -0.1184 -1.3809 -0.1924
  376MOL0     H51868  11.229   6.171  -1.488 -0.7251  1.7226 -1.1045
  376MOL0     H51869  11.035   6.303  -1.425 -1.4930  1.2767  1.3417
  376MOL0     H51870  10.859   6.582  -1.139  1.2742 -1.1310 -2.7290
  376MOL0     H51871  10.667   6.680  -1.075  1.3782 -0.5266  0.1830
  376MOL0     H51872   9.986   6.686   0.599 -0.1363  1.1398 -0.2790
  376MOL0     H51873  10.067   6.484   0.715 -1.7362  0.3980 -0.9486
  376MOL0     H51874  10.635   6.222   0.759  0.7596  1.4225  2.7694
  376MOL0     H51875  10.667   5.987   0.778  2.3172  0.9489  0.4677
  376MOL0     H51876  10.628   5.692   0.899 -0.7850 -0.4889 -0.2311
  376MOL0     H51877  10.599   5.822   1.008  2.6154 -1.3050 -0.6927
  376MOL0     H51878  10.391   5.686   1.093 -0.0261 -1.1779  1.2889
  376MOL0     H51879  10.555   5.626   1.114  1.1974 -0.0688 -2.2048
  376MOL0     H51880  10.331   5.479   0.993  0.7570 -1.4903  1.6913
  376MOL0     H51881  10.422   5.537   0.855 -0.9855 -2.6387 -0.9536
  376MOL0     H51882  10.580   5.393   1.085  0.0482 -0.8325 -0.2892
  376MOL0     H51883  10.632   5.438   0.927 -1.6580 -2.4697 -4.7161
  376MOL0     H51884  10.396   5.090   0.843 -0.0818 -1.3028 -0.4417
  376MOL0     H51885  10.262   5.941   0.931  0.1415  0.8994  0.2529
  376MOL0     H51886  10.119   6.209   0.890 -1.8552 -0.4046  1.8155
  376MOL0     H51887  10.152   6.121   1.025  0.8136  2.0119  2.6157
  376MOL0     H51888  10.226   6.286   1.015 -1.2144 -0.3019  0.7050
  377MOL0     O51889   2.858   5.158  11.213  0.0228  0.6742 -0.8771
  377MOL0     C51890   2.787   5.241  11.151 -0.0417 -0.2020 -0.0037
  377MOL0     O51891   2.655   5.225  11.107 -0.0993  0.4969  0.4462
  377MOL0     C51892   2.600   5.101  11.144 -0.3668  0.8970  0.7672
  377MOL0     C51893   2.602   4.985  11.067 -0.7990  0.3686 -0.2539
  377MOL0     C51894   2.555   4.862  11.109  0.5382 -0.6873 -0.2050
  377MOL0     C51895   2.486   4.863  11.227  0.3763  0.4247  0.2844
  377MOL0     O51896   2.418   4.743  11.257  0.1148 -0.6747  0.5784
  377MOL0     C51897   2.419   4.694  11.392  0.0530  0.5046 -0.3801
  377MOL0     C51898   2.422   4.538  11.404  0.3338 -0.1666  0.2710
  377MOL0     C51899   2.419   4.479  11.547  0.4367  0.2765  0.0085
  377MOL0     C51900   2.526   4.527  11.635  0.7819  0.3958 -0.4870
  377MOL0     C51901   2.550   4.441  11.759  0.9144  0.0673  0.1820
  377MOL0     C51902   2.460   4.488  11.866  0.0339  0.1260 -0.5710
  377MOL0     C51903   2.456   4.376  11.981 -0.6904 -0.1130  0.4228
  377MOL0     C51904   2.421   4.431  12.125 -1.1105  0.0266 -0.0526
  377MOL0     N51905   2.535   4.504  12.188 -0.0988 -0.2696  1.0849
  377MOL0     C51906   2.580   4.475  12.316 -0.7968 -0.2165 -0.8892
  377MOL0     C51907   2.633   4.592  12.357 -0.2990 -0.1271 -0.5296
  377MOL0     C51908   2.706   4.615  12.490 -0.3790 -1.1571  0.8482
  377MOL0     C51909   2.852   4.615  12.465  0.1250 -0.2356  0.1503
  377MOL0     C51910   2.938   4.636  12.597 -0.1628 -0.1261 -0.8641
  377MOL0     C51911   2.896   4.754  12.682 -0.6842  0.4989  0.5404
  377MOL0     O51912   2.938   4.883  12.631 -0.2537  0.5799  0.2478
  377MOL0     C51913   2.862   4.995  12.669  0.1935  1.2565 -0.1990
  377MOL0     C51914   2.833   5.092  12.577 -0.3504  0.4609  0.0346
  377MOL0     C51915   2.767   5.209  12.613  0.7545  0.0722  0.4525
  377MOL0     C51916   2.722   5.306  12.504  0.3482  0.2488 -0.1617
  377MOL0     C51917   2.745   5.232  12.745  1.1961 -0.7883 -0.0693
  377MOL0     C51918   2.693   5.358  12.797  0.3928 -0.0766  0.3099
  377MOL0     O51919   2.607   5.348  12.901 -0.5655 -0.1509  0.3558
  377MOL0     C51920   2.579   5.470  12.963  0.1158 -0.2225  0.1676
  377MOL0     C51921   2.638   5.492  13.091  0.1533 -0.7174  0.5931
  377MOL0     C51922   2.559   5.571  13.183 -1.4962  0.7074 -1.1680
  377MOL0     C51923   2.437   5.624  13.157  0.0184  0.3769  0.0615
  377MOL0     O51924   2.367   5.693  13.252  0.2023 -0.6643  0.5322
  377MOL0     C51925   2.295   5.607  13.334  0.1505 -0.3195 -0.1018
  377MOL0     C51926   2.207   5.671  13.441  0.3100  0.5349  0.3776
  377MOL0     C51927   2.096   5.758  13.382  0.5567 -0.5310 -0.2112
  377MOL0     C51928   2.049   5.847  13.489 -0.5080 -0.7307 -0.3821
  377MOL0     C51929   1.925   5.915  13.450  0.3538  0.0094  0.4287
  377MOL0     C51930   1.817   5.953  13.556 -1.0449  0.3353 -0.8855
  377MOL0     C51931   1.678   5.972  13.495 -0.0416 -0.3120 -0.6611
  377MOL0     C51932   1.586   6.053  13.595  0.2375 -0.2919 -0.2613
  377MOL0    Cl51933   1.641   6.226  13.634 -0.2584  0.1605  0.2125
  377MOL0     C51934   2.385   5.608  13.032 -0.4049 -0.1927  0.5381
  377MOL0     C51935   2.456   5.541  12.929 -0.2724 -0.0634  0.4303
  377MOL0     O51936   2.741   5.462  12.753 -1.3915 -1.0631 -0.2005
  377MOL0     C51937   2.759   5.135  12.838 -0.3838 -1.1387 -0.4068
  377MOL0     C51938   2.814   5.012  12.801 -0.0074 -0.4430 -0.2469
  377MOL0     N51939   2.646   4.673  12.245 -0.4302  0.1159  0.0968
  377MOL0     N51940   2.584   4.625  12.149 -0.4422 -0.1185  0.1814
  377MOL0     C51941   2.479   4.974  11.317 -0.8878  0.7938 -0.2002
  377MOL0     C51942   2.540   5.097  11.266  0.2816  0.8958  0.5584
  377MOL0     C51943   2.858   5.362  11.105  1.4857 -0.2606  0.2269
  377MOL0     C51944   2.773   5.473  11.079  1.5819  0.0661 -0.2377
  377MOL0     C51945   2.826   5.597  11.043  0.0760  0.8078 -0.7452
  377MOL0     C51946   2.966   5.615  11.030  0.3198  0.1568 -0.2047
  377MOL0     O51947   3.013   5.750  11.025  0.1657  0.2179  0.2801
  377MOL0     C51948   3.148   5.774  10.989 -0.2297  0.4674 -0.2816
  377MOL0     C51949   3.225   5.814  11.122 -1.1215 -0.9051  0.9447
  377MOL0     C51950   3.202   5.960  11.154 -0.5480 -0.5448  0.2111
  377MOL0     C51951   3.290   6.001  11.278  0.6279 -0.9724  0.5259
  377MOL0     C51952   3.424   6.016  11.222  0.3494  0.3035 -0.2901
  377MOL0     C51953   3.530   6.029  11.166 -0.2465 -0.8785 -0.2348
  377MOL0     C51954   3.049   5.508  11.066 -0.9088 -0.7868  0.1881
  377MOL0     C51955   2.997   5.382  11.091 -0.9129  0.1399  0.8941
  377MOL0     C51956   3.114   5.272  11.097  0.2904  1.2461 -0.2797
  377MOL0     H51957   2.654   4.992  10.972 -0.7397 -0.9608 -0.3297
  377MOL0     H51958   2.559   4.779  11.040  1.8750 -0.6878 -0.1601
  377MOL0     H51959   2.326   4.727  11.439 -0.3495  0.9785 -1.4762
  377MOL0     H51960   2.508   4.730  11.445 -0.1285 -0.6615  0.7680
  377MOL0     H51961   2.331   4.498  11.359  0.4012 -1.2581  1.0664
  377MOL0     H51962   2.500   4.500  11.338  1.5588 -0.4349  1.8097
  377MOL0     H51963   2.316   4.489  11.584  0.6197 -0.9516  0.9303
  377MOL0     H51964   2.429   4.370  11.539  0.4504  0.3258 -0.6684
  377MOL0     H51965   2.625   4.524  11.588  2.1133 -0.2099  2.1754
  377MOL0     H51966   2.498   4.630  11.661 -1.3483 -0.7097  2.0640
  377MOL0     H51967   2.655   4.461  11.784  0.5526  2.8468 -0.1428
  377MOL0     H51968   2.542   4.332  11.753  0.4487  0.1416 -0.7300
  377MOL0     H51969   2.493   4.582  11.910  0.2307  0.8801 -2.2364
  377MOL0     H51970   2.357   4.503  11.831 -0.1451  1.2790  0.3842
  377MOL0     H51971   2.551   4.322  11.985 -0.6341 -0.0852 -0.4140
  377MOL0     H51972   2.372   4.311  11.957 -0.6219 -0.1619  0.3149
  377MOL0     H51973   2.340   4.504  12.123  1.0208  2.6895  1.9953
  377MOL0     H51974   2.402   4.348  12.195  1.1846  0.7412  1.5521
  377MOL0     H51975   2.559   4.394  12.385 -3.4469  0.7534 -0.4542
  377MOL0     H51976   2.676   4.548  12.571  1.5780  1.8747  4.3724
  377MOL0     H51977   2.669   4.714  12.516  0.2777 -0.4377 -0.8016
  377MOL0     H51978   2.879   4.522  12.414  0.0621  0.8923 -2.0747
  377MOL0     H51979   2.881   4.694  12.395 -1.1528 -0.1451 -0.3042
  377MOL0     H51980   2.925   4.547  12.659 -0.6860 -1.2725 -2.5525
  377MOL0     H51981   3.043   4.645  12.567 -0.5096  0.7702 -1.8853
  377MOL0     H51982   2.790   4.753  12.709 -0.3913  1.1850  1.8331
  377MOL0     H51983   2.938   4.756  12.783 -0.3606 -2.0190  0.5027
  377MOL0     H51984   2.870   5.083  12.475 -0.8856 -0.9226 -0.0535
  377MOL0     H51985   2.774   5.402  12.506 -0.4832  0.6946  0.0667
  377MOL0     H51986   2.617   5.330  12.523  0.2678 -0.9635  1.0865
  377MOL0     H51987   2.735   5.253  12.408 -1.0461 -0.0221 -0.2168
  377MOL0     H51988   2.728   5.448  13.133 -0.7357 -2.5488  0.6872
  377MOL0     H51989   2.605   5.592  13.280  0.3581  1.9869 -2.2467
  377MOL0     H51990   2.233   5.537  13.278 -2.1279  0.1269  1.7206
  377MOL0     H51991   2.359   5.553  13.405 -2.6482  0.2496  3.1174
  377MOL0     H51992   2.150   5.589  13.486  1.1109 -1.7794 -2.4759
  377MOL0     H51993   2.264   5.722  13.519  1.7914  0.3233 -0.5328
  377MOL0     H51994   2.014   5.694  13.350 -0.8984  0.2212  1.8023
  377MOL0     H51995   2.131   5.828  13.306 -0.3090  2.0749  1.6459
  377MOL0     H51996   2.135   5.908  13.521 -0.9114 -2.0171  3.6738
  377MOL0     H51997   2.013   5.783  13.570 -1.0879  0.9113  0.7141
  377MOL0     H51998   1.951   6.005  13.394 -1.4496  2.0578  2.6484
  377MOL0     H51999   1.874   5.846  13.383  1.3816 -2.2172  1.8374
  377MOL0     H52000   1.844   6.041  13.615  2.4577 -0.3561 -1.2635
  377MOL0     H52001   1.797   5.867  13.622  3.8544 -0.6784 -0.3234
  377MOL0     H52002   1.618   5.882  13.482  0.4996 -0.2650 -4.7362
  377MOL0     H52003   1.688   6.026  13.400  1.7765 -3.6934 -2.5651
  377MOL0     H52004   1.584   5.991  13.685 -0.7008 -3.9923 -2.5718
  377MOL0     H52005   1.479   6.059  13.573 -0.2562 -2.0320  1.3802
  377MOL0     H52006   2.291   5.653  13.002 -0.5818 -0.8831  0.0157
  377MOL0     H52007   2.423   5.535  12.826  0.8562  0.0232  0.0535
  377MOL0     H52008   2.733   5.162  12.940  1.4183 -0.3552 -0.1124
  377MOL0     H52009   2.836   4.941  12.879 -0.8111  0.9517  1.3130
  377MOL0     H52010   2.430   4.963  11.413  0.7579 -0.1508  0.5642
  377MOL0     H52011   2.535   5.183  11.332 -1.9790  2.0692 -1.0192
  377MOL0     H52012   2.666   5.462  11.095  1.6019  0.7338  0.3952
  377MOL0     H52013   2.757   5.680  11.033 -2.3854 -0.7070  1.9163
  377MOL0     H52014   3.190   5.685  10.940 -0.3664  1.5056 -2.4084
  377MOL0     H52015   3.156   5.853  10.913 -2.1137  0.6365 -0.3733
  377MOL0     H52016   3.331   5.812  11.097 -0.9567 -0.4366  1.5715
  377MOL0     H52017   3.210   5.743  11.204 -0.6838 -1.0783  0.8786
  377MOL0     H52018   3.219   6.034  11.076  1.4701 -0.8578  0.2931
  377MOL0     H52019   3.094   5.960  11.171 -1.0820  0.4679 -2.6048
  377MOL0     H52020   3.277   5.922  11.353  1.5571 -0.9903  0.6831
  377MOL0     H52021   3.247   6.096  11.311 -3.2455 -1.8432 -1.4265
  377MOL0     H52022   3.633   6.041  11.139 -0.5988  1.6508 -0.7802
  377MOL0     H52023   3.157   5.508  11.059 -0.9137 -1.1740  0.1201
  377MOL0     H52024   3.157   5.270  11.197  0.2475  0.0818 -0.2808
  377MOL0     H52025   3.074   5.173  11.076 -0.4775  1.4553  0.1680
  377MOL0     H52026   3.185   5.285  11.015  1.5678 -1.5514  0.2659
  378MOL0     O52027   8.388   6.806  11.285 -0.4673  0.7413  0.6002
  378MOL0     C52028   8.438   6.905  11.231  0.0876  0.6690 -0.7352
  378MOL0     O52029   8.568   6.938  11.232 -0.4412  0.5414  0.5426
  378MOL0     C52030   8.662   6.841  11.247 -0.4977  1.1688  0.5785
  378MOL0     C52031   8.774   6.861  11.158  1.0168 -0.3436  0.6779
  378MOL0     C52032   8.881   6.773  11.157 -0.7244  0.0460 -0.3095
  378MOL0     C52033   8.885   6.658  11.228 -0.6860 -0.7395 -0.1137
  378MOL0     O52034   8.992   6.577  11.217  0.4304  0.7198 -0.1425
  378MOL0     C52035   8.985   6.450  11.281  0.2022  0.0691  0.4943
  378MOL0     C52036   9.120   6.381  11.257  0.1827  0.5826  0.5708
  378MOL0     C52037   9.142   6.327  11.113  1.2913 -0.0111  0.4640
  378MOL0     C52038   9.106   6.179  11.090  0.1065 -0.9894 -0.1620
  378MOL0     C52039   9.152   6.125  10.954  0.7095 -0.2878 -0.5432
  378MOL0     C52040   9.068   6.173  10.831  0.2560 -1.1042  0.9914
  378MOL0     C52041   9.167   6.173  10.708  0.6414  1.1995 -0.0802
  378MOL0     C52042   9.180   6.018  10.648 -0.8887 -0.1032  0.2411
  378MOL0     N52043   9.217   6.009  10.507 -1.0672 -0.4070  0.5560
  378MOL0     C52044   9.204   5.898  10.434 -0.7748  0.1506 -0.0561
  378MOL0     C52045   9.261   5.924  10.315  0.8088 -0.1513 -0.6670
  378MOL0     C52046   9.267   5.825  10.211 -0.1869  0.7954  1.0924
  378MOL0     C52047   9.414   5.783  10.182  0.6414 -0.8237  0.5003
  378MOL0     C52048   9.429   5.661  10.081 -0.0540 -0.1298  0.2744
  378MOL0     C52049   9.542   5.581  10.133  0.6691  0.4399  0.8979
  378MOL0     O52050   9.569   5.483  10.031 -0.7273  0.1779 -0.2345
  378MOL0     C52051   9.681   5.403  10.031 -0.1948 -0.5836 -0.9671
  378MOL0     C52052   9.803   5.435  10.102 -0.7773  0.5190  0.6005
  378MOL0     C52053   9.921   5.358  10.066  0.2163  0.1957  0.2912
  378MOL0     C52054  10.053   5.392  10.131 -0.1504  0.1718 -0.9372
  378MOL0     C52055   9.910   5.253   9.971  0.2271 -0.0383  0.1810
  378MOL0     C52056  10.012   5.159   9.933  0.9631 -0.1573 -0.0740
  378MOL0     O52057   9.998   5.094   9.810 -0.3215  0.2470 -0.0684
  378MOL0     C52058  10.073   4.977   9.783 -0.4644 -0.4863 -0.5429
  378MOL0     C52059  10.050   4.864   9.861  0.0265  0.0644 -1.0351
  378MOL0     C52060  10.121   4.745   9.832  0.5572 -0.5051  0.5649
  378MOL0     C52061  10.207   4.742   9.723 -0.5704 -0.1916 -0.4494
  378MOL0     O52062  10.254   4.620   9.678  0.4127 -0.2486  0.2910
  378MOL0     C52063  10.152   4.521   9.658  0.8506  0.5328 -0.4871
  378MOL0     C52064  10.174   4.416   9.552  0.3072 -0.0953  0.2289
  378MOL0     C52065  10.292   4.316   9.596 -0.3295 -0.0654  0.1546
  378MOL0     C52066  10.327   4.227   9.480  0.5991  0.0105 -0.1550
  378MOL0     C52067  10.450   4.140   9.488 -0.4141 -0.1026  0.1801
  378MOL0     C52068  10.542   4.146   9.606  0.0747  0.3425  0.4620
  378MOL0     C52069  10.653   4.042   9.607  0.0337  0.3766 -0.1333
  378MOL0     C52070  10.767   4.060   9.505  0.7876 -0.8515 -0.9448
  378MOL0    Cl52071  10.875   4.202   9.540  0.8358  0.0856 -0.6402
  378MOL0     C52072  10.240   4.852   9.653  0.4290  0.1256 -0.1027
  378MOL0     C52073  10.166   4.970   9.678 -0.4966  0.1745  0.2761
  378MOL0     O52074  10.079   5.116  10.029  0.1963  0.4091  0.3548
  378MOL0     C52075   9.781   5.226   9.917  0.8474 -0.6730 -1.0236
  378MOL0     C52076   9.673   5.300   9.949  0.1300  0.0762 -0.6507
  378MOL0     N52077   9.306   6.050  10.312 -0.0405 -0.4028 -0.1987
  378MOL0     N52078   9.277   6.103  10.428 -0.8624  0.6315  0.9799
  378MOL0     C52079   8.782   6.644  11.318  0.3870  0.2423  0.6324
  378MOL0     C52080   8.683   6.732  11.333  0.3592  0.2242  0.2087
  378MOL0     C52081   8.352   7.009  11.161  0.6724  0.3885 -0.3660
  378MOL0     C52082   8.414   7.127  11.102  0.2383 -0.1338  0.3162
  378MOL0     C52083   8.334   7.225  11.036 -0.2989 -0.4269 -0.0692
  378MOL0     C52084   8.199   7.215  11.029  0.6366 -0.8414  0.4103
  378MOL0     O52085   8.135   7.313  10.966  0.4130 -0.4304  0.6009
  378MOL0     C52086   8.020   7.381  11.005  0.2927  0.4357  0.6713
  378MOL0     C52087   8.046   7.506  11.098  0.1173 -0.6676  1.0818
  378MOL0     C52088   8.095   7.624  11.002 -0.5332 -0.2391  0.4392
  378MOL0     C52089   8.229   7.607  10.933  0.2283  0.0708 -0.7111
  378MOL0     C52090   8.340   7.595  11.035  0.8849  0.1878  0.8544
  378MOL0     C52091   8.430   7.586  11.112 -0.2480  0.1056  0.2978
  378MOL0     C52092   8.138   7.106  11.087 -0.4592 -0.0889  0.0729
  378MOL0     C52093   8.213   6.997  11.132 -1.0400  1.0494  0.3345
  378MOL0     C52094   8.134   6.871  11.155  0.0410  0.5239  0.1257
  378MOL0     H52095   8.767   6.957  11.108  0.1897  0.5347  2.3885
  378MOL0     H52096   8.953   6.781  11.077  0.2382 -0.6322  0.4639
  378MOL0     H52097   8.914   6.389  11.225  1.1996  0.7303 -1.6074
  378MOL0     H52098   8.975   6.461  11.389  0.9972  1.7366  0.4174
  378MOL0     H52099   9.198   6.451  11.288 -0.0280  2.0098 -1.8762
  378MOL0     H52100   9.123   6.291  11.320 -0.2446 -1.5873 -2.2939
  378MOL0     H52101   9.088   6.391  11.042  0.4308  0.2484  1.3326
  378MOL0     H52102   9.250   6.330  11.091  1.2362  1.3533  0.3006
  378MOL0     H52103   9.144   6.120  11.174  0.4845  1.2357  1.3256
  378MOL0     H52104   8.997   6.173  11.099 -0.0525  1.0615 -0.2385
  378MOL0     H52105   9.151   6.016  10.959 -1.6336 -0.3077 -0.3437
  378MOL0     H52106   9.259   6.147  10.942  1.3529 -2.0147  1.5055
  378MOL0     H52107   8.987   6.100  10.817 -1.8502  1.2448  0.1285
  378MOL0     H52108   9.018   6.269  10.847  0.5578 -0.5815 -0.9075
  378MOL0     H52109   9.265   6.195  10.751  1.0697 -2.1647  0.9967
  378MOL0     H52110   9.133   6.243  10.631 -1.1882 -0.2086 -0.6249
  378MOL0     H52111   9.253   5.957  10.703  3.4779  1.9568 -2.6750
  378MOL0     H52112   9.087   5.964  10.666  0.4517 -2.5732  0.2647
  378MOL0     H52113   9.169   5.801  10.469 -1.6092 -0.5638 -2.6894
  378MOL0     H52114   9.228   5.866  10.118  1.0031  1.4130  0.8448
  378MOL0     H52115   9.216   5.733  10.240  2.4797 -0.2617  2.7816
  378MOL0     H52116   9.470   5.862  10.130  0.8930 -2.5042 -1.9276
  378MOL0     H52117   9.462   5.772  10.280 -2.0922 -0.9844  1.9118
  378MOL0     H52118   9.338   5.601  10.077  0.0235 -0.6119  3.3148
  378MOL0     H52119   9.452   5.685   9.977  0.0407 -0.7459  0.1464
  378MOL0     H52120   9.629   5.647  10.144 -1.5375  3.2785  2.5145
  378MOL0     H52121   9.511   5.536  10.228 -0.8190 -0.7155 -0.0854
  378MOL0     H52122   9.818   5.514  10.176 -1.7514  1.0023  0.3074
  378MOL0     H52123  10.052   5.339  10.226  2.0212  2.4661  0.5160
  378MOL0     H52124  10.059   5.499  10.154 -1.5474 -0.2809  1.9946
  378MOL0     H52125  10.137   5.366  10.065 -0.3382 -0.8421 -0.7782
  378MOL0     H52126   9.984   4.868   9.946  0.3285  1.2539 -0.8445
  378MOL0     H52127  10.102   4.649   9.878 -1.4533 -1.2577 -1.6158
  378MOL0     H52128  10.126   4.478   9.755 -0.0117  2.4183  0.1522
  378MOL0     H52129  10.054   4.565   9.638  1.4872  2.0402 -0.4145
  378MOL0     H52130  10.092   4.344   9.559  1.4320 -1.5794 -1.0100
  378MOL0     H52131  10.184   4.457   9.451  0.7710 -1.0942 -0.1473
  378MOL0     H52132  10.253   4.254   9.677  0.3209  1.1803  1.4509
  378MOL0     H52133  10.383   4.364   9.633  0.5779 -0.7221 -1.1206
  378MOL0     H52134  10.336   4.279   9.384 -1.7289  0.0444 -0.4058
  378MOL0     H52135  10.240   4.161   9.472  0.7470 -0.3182  0.7590
  378MOL0     H52136  10.414   4.038   9.479  0.2072 -0.3413  0.3578
  378MOL0     H52137  10.509   4.150   9.397 -1.2441 -1.7733 -0.5877
  378MOL0     H52138  10.486   4.139   9.700 -0.3642  0.6888  0.2327
  378MOL0     H52139  10.588   4.245   9.612  0.7276  0.1073 -0.4916
  378MOL0     H52140  10.605   3.946   9.588  0.9780 -0.0887 -0.2153
  378MOL0     H52141  10.704   4.035   9.703 -1.1867  2.0554  0.6955
  378MOL0     H52142  10.731   4.074   9.403 -1.2243  2.6948  0.0624
  378MOL0     H52143  10.828   3.970   9.501  3.0291  0.5951 -1.6713
  378MOL0     H52144  10.308   4.847   9.569  0.4124  0.8429 -0.1584
  378MOL0     H52145  10.188   5.061   9.623  0.3465 -1.2016 -1.7831
  378MOL0     H52146   9.770   5.152   9.838 -0.0465 -3.0805  1.1974
  378MOL0     H52147   9.570   5.279   9.918 -0.4302 -0.7724  1.5667
  378MOL0     H52148   8.773   6.553  11.378  3.5216 -0.5921  0.0368
  378MOL0     H52149   8.617   6.727  11.419  0.0968  0.1406  0.0025
  378MOL0     H52150   8.521   7.142  11.099  0.7509 -1.3822  4.6579
  378MOL0     H52151   8.383   7.312  10.994 -2.1412 -0.0587 -1.6145
  378MOL0     H52152   7.964   7.416  10.918  0.0435  0.1795  0.7267
  378MOL0     H52153   7.960   7.308  11.061 -0.3523 -0.3481 -0.9794
  378MOL0     H52154   8.123   7.489  11.173  1.9607  0.5076 -0.4648
  378MOL0     H52155   7.955   7.541  11.147 -0.3403  0.6524 -0.6244
  378MOL0     H52156   8.016   7.643  10.929  0.4665  0.8102 -0.4114
  378MOL0     H52157   8.107   7.711  11.067 -0.0125 -1.4637  2.0557
  378MOL0     H52158   8.261   7.694  10.874  2.3639 -1.1430 -1.4230
  378MOL0     H52159   8.223   7.515  10.874  3.2475 -0.9699  0.4371
  378MOL0     H52160   8.503   7.562  11.186  1.4363  0.7377 -1.0924
  378MOL0     H52161   8.032   7.090  11.069 -0.4107 -2.3482  1.3756
  378MOL0     H52162   8.046   6.862  11.091 -0.3540  1.7229  0.4726
  378MOL0     H52163   8.186   6.776  11.140 -1.2345 -0.2048  0.1142
  378MOL0     H52164   8.097   6.873  11.258  0.2763  0.1724  0.2187
  379MOL0     O52165   2.644   8.353   4.585 -0.3003 -0.1145  0.4281
  379MOL0     C52166   2.680   8.352   4.463  0.4906 -0.0766 -0.5848
  379MOL0     O52167   2.784   8.295   4.412  0.1430  0.8692 -0.7224
  379MOL0     C52168   2.883   8.253   4.498 -0.3175  0.0583 -0.1926
  379MOL0     C52169   2.978   8.348   4.561 -0.4958 -0.0924  0.8655
  379MOL0     C52170   3.077   8.295   4.645 -0.2275 -0.5895  0.6963
  379MOL0     C52171   3.090   8.157   4.673  0.4712  0.3825  0.3641
  379MOL0     O52172   3.203   8.120   4.748  0.3511 -0.2985  0.0673
  379MOL0     C52173   3.197   8.018   4.857  0.3206 -0.0859  0.2397
  379MOL0     C52174   3.341   7.972   4.895 -0.5283  0.7339  0.3551
  379MOL0     C52175   3.436   8.088   4.924 -0.0009  0.0682 -0.3679
  379MOL0     C52176   3.587   8.067   4.947  0.5052 -0.1897  0.2293
  379MOL0     C52177   3.654   8.207   4.937 -0.1098 -0.9574  0.3935
  379MOL0     C52178   3.801   8.184   4.938  0.0243 -0.6222  0.1381
  379MOL0     C52179   3.881   8.315   4.911 -0.3197  0.2416  0.9793
  379MOL0     C52180   3.862   8.431   5.001  0.1143  0.8496  0.0147
  379MOL0     N52181   3.939   8.541   4.954 -0.4183  0.1435 -0.5805
  379MOL0     C52182   4.073   8.572   4.984 -0.2848  1.3383 -0.2927
  379MOL0     C52183   4.086   8.701   4.933  0.0209  1.3768 -0.6992
  379MOL0     C52184   4.215   8.766   4.939 -0.4925  0.3905 -0.6962
  379MOL0     C52185   4.290   8.754   4.804 -0.1658  0.7301  0.3697
  379MOL0     C52186   4.263   8.879   4.714 -0.0039  0.8875  0.1859
  379MOL0     C52187   4.303   8.864   4.561  1.0387  0.0076  0.2195
  379MOL0     O52188   4.337   8.733   4.531 -0.6915 -0.2046  0.3227
  379MOL0     C52189   4.250   8.648   4.482  0.3116  0.0476 -0.3783
  379MOL0     C52190   4.113   8.658   4.519 -0.0753  0.3866  0.2135
  379MOL0     C52191   4.033   8.552   4.490 -0.4856 -0.2769 -0.3095
  379MOL0     C52192   3.887   8.565   4.534  0.6878  0.2474 -0.1897
  379MOL0     C52193   4.076   8.433   4.423  0.2486 -0.0121 -0.9722
  379MOL0     C52194   3.993   8.309   4.410  0.5585  0.3191 -0.4155
  379MOL0     O52195   3.944   8.254   4.525 -0.1149 -0.2074  0.0315
  379MOL0     C52196   3.883   8.130   4.516 -0.2936  0.0882  0.2962
  379MOL0     C52197   3.937   8.015   4.456  0.2036 -0.1861  0.1951
  379MOL0     C52198   3.867   7.892   4.460 -0.0497  0.5667 -0.7292
  379MOL0     C52199   3.750   7.873   4.531  0.1047 -0.2517  0.2693
  379MOL0     O52200   3.683   7.749   4.543  0.6735 -0.6249  0.4185
  379MOL0     C52201   3.702   7.678   4.666  0.2288 -0.5605  0.1650
  379MOL0     C52202   3.743   7.538   4.639 -0.5919 -0.2253  1.1786
  379MOL0     C52203   3.854   7.526   4.530 -0.0786  0.5420  0.2555
  379MOL0     C52204   3.886   7.385   4.500  1.4779  1.0238 -1.2636
  379MOL0     C52205   3.992   7.373   4.400 -0.6795 -0.0703  0.7051
  379MOL0     C52206   3.997   7.224   4.351  0.1733 -0.7657 -0.0953
  379MOL0     C52207   3.886   7.192   4.249 -0.2043 -0.2341 -0.1951
  379MOL0     C52208   3.903   7.269   4.117 -0.7002  0.2607  0.9668
  379MOL0    Cl52209   3.804   7.189   3.992 -0.0837 -0.0566 -0.2007
  379MOL0     C52210   3.697   7.991   4.593 -0.2898  0.2255  0.3798
  379MOL0     C52211   3.762   8.114   4.585  0.5817  0.5845  0.3699
  379MOL0     O52212   3.980   8.259   4.294 -0.0924  0.5334  0.3754
  379MOL0     C52213   4.211   8.438   4.377 -0.3535  0.1896 -0.2180
  379MOL0     C52214   4.295   8.542   4.408 -1.1011 -0.5914 -0.1213
  379MOL0     N52215   3.960   8.742   4.886 -0.6003 -0.0829  0.0630
  379MOL0     N52216   3.876   8.643   4.898  0.1478 -0.2377 -1.2162
  379MOL0     C52217   3.005   8.070   4.605 -1.7904 -1.0424 -0.3178
  379MOL0     C52218   2.897   8.116   4.525  0.2259  0.2429 -0.7509
  379MOL0     C52219   2.575   8.409   4.378  0.4039  0.4431 -0.4465
  379MOL0     C52220   2.479   8.493   4.436 -0.2054 -0.6438 -0.5338
  379MOL0     C52221   2.383   8.558   4.357  0.6195  0.0144  0.1118
  379MOL0     C52222   2.382   8.553   4.218 -0.4462  0.0108  0.2779
  379MOL0     O52223   2.282   8.619   4.165  0.1987  0.5097  0.3176
  379MOL0     C52224   2.265   8.622   4.022 -0.0810 -0.9303 -0.0298
  379MOL0     C52225   2.141   8.707   3.967  0.0338 -0.4061 -0.0541
  379MOL0     C52226   2.178   8.858   3.971  0.6668  0.9253  0.1945
  379MOL0     C52227   2.053   8.928   3.926  1.0447 -0.0269  0.5610
  379MOL0     C52228   1.928   8.905   4.002  0.0141  0.8674  0.6681
  379MOL0     C52229   1.825   8.883   4.066 -0.8688 -0.6420 -0.3162
  379MOL0     C52230   2.473   8.477   4.156 -0.1669  0.8392 -0.5942
  379MOL0     C52231   2.570   8.396   4.236  0.6209  1.0393 -0.2651
  379MOL0     C52232   2.635   8.284   4.152 -0.3256 -0.5086 -0.8416
  379MOL0     H52233   2.968   8.452   4.530 -2.6119 -0.7901 -1.0676
  379MOL0     H52234   3.149   8.360   4.693  1.0287 -0.2180 -1.5188
  379MOL0     H52235   3.136   7.930   4.837  0.8826 -0.0143 -2.0410
  379MOL0     H52236   3.149   8.056   4.948 -0.6056 -1.1813  0.2320
  379MOL0     H52237   3.335   7.907   4.983 -1.6009 -1.9363 -1.5605
  379MOL0     H52238   3.376   7.923   4.804 -0.1245  0.5320  0.6141
  379MOL0     H52239   3.434   8.155   4.838  0.5515 -0.8826 -1.1425
  379MOL0     H52240   3.414   8.143   5.016  0.9106  0.2132 -0.2205
  379MOL0     H52241   3.595   8.032   5.050  0.8876 -1.0478 -0.0828
  379MOL0     H52242   3.619   7.987   4.880 -2.5755  0.2684 -1.9894
  379MOL0     H52243   3.619   8.268   5.021 -1.0280 -1.7462  0.6001
  379MOL0     H52244   3.629   8.263   4.847 -0.4377 -0.8875  0.5269
  379MOL0     H52245   3.830   8.141   5.035 -1.7668 -1.7045  0.2417
  379MOL0     H52246   3.821   8.098   4.875  1.0514 -2.2378  2.5257
  379MOL0     H52247   3.878   8.338   4.805 -0.6749  0.4033  1.0239
  379MOL0     H52248   3.986   8.286   4.924  1.4152  3.8124 -2.9496
  379MOL0     H52249   3.759   8.462   5.022 -0.0380  1.0933 -1.0304
  379MOL0     H52250   3.904   8.403   5.098 -2.2257  2.8275  1.7510
  379MOL0     H52251   4.143   8.508   5.036 -0.3775 -2.0068 -3.8419
  379MOL0     H52252   4.286   8.719   5.007 -0.3630  0.2614 -0.9217
  379MOL0     H52253   4.194   8.872   4.954 -1.2519  0.3889 -1.6808
  379MOL0     H52254   4.400   8.753   4.804 -0.0747  2.4497 -1.9371
  379MOL0     H52255   4.270   8.657   4.757 -0.7370  1.3034 -0.6022
  379MOL0     H52256   4.160   8.915   4.709  0.4955  2.2469 -0.7331
  379MOL0     H52257   4.323   8.955   4.765 -0.4518  0.6768  1.0409
  379MOL0     H52258   4.217   8.895   4.502  0.1618 -1.9684  0.3899
  379MOL0     H52259   4.379   8.940   4.538  0.8241 -0.6049 -2.9503
  379MOL0     H52260   4.077   8.745   4.573  0.8797  0.8762  0.0788
  379MOL0     H52261   3.845   8.662   4.504 -2.3376 -0.9565 -0.1588
  379MOL0     H52262   3.875   8.540   4.640 -2.3168  0.7944 -0.2976
  379MOL0     H52263   3.834   8.488   4.478  1.8734 -1.3687  0.8258
  379MOL0     H52264   4.028   8.018   4.397  1.3385 -1.7409  1.7851
  379MOL0     H52265   3.898   7.806   4.401  1.8345 -0.8268  2.0910
  379MOL0     H52266   3.777   7.731   4.726 -2.8249  2.9645  1.2359
  379MOL0     H52267   3.608   7.674   4.722 -0.8502  1.9027 -1.3050
  379MOL0     H52268   3.754   7.471   4.725 -3.7313 -2.6181 -0.0861
  379MOL0     H52269   3.653   7.493   4.597 -0.0919 -1.9091  1.8616
  379MOL0     H52270   3.952   7.559   4.567  0.6736 -2.0922  0.7761
  379MOL0     H52271   3.841   7.584   4.438  0.8717 -2.1309 -1.6831
  379MOL0     H52272   3.792   7.332   4.484  0.7505  2.3229 -1.4851
  379MOL0     H52273   3.928   7.342   4.591 -0.0410  0.2370 -0.8918
  379MOL0     H52274   3.977   7.436   4.312  0.8258 -0.5380  0.0781
  379MOL0     H52275   4.088   7.401   4.443 -0.8654 -0.0534  1.1161
  379MOL0     H52276   4.008   7.155   4.435 -0.2528 -1.2681 -0.4478
  379MOL0     H52277   4.089   7.220   4.292 -1.1744  0.1232 -2.4209
  379MOL0     H52278   3.790   7.213   4.296  0.8320  2.3488  0.9688
  379MOL0     H52279   3.899   7.086   4.225  2.0246 -0.2318  0.7583
  379MOL0     H52280   4.005   7.257   4.081 -0.5931  0.0749  1.3293
  379MOL0     H52281   3.876   7.373   4.138  2.3090  0.9839  1.5864
  379MOL0     H52282   3.598   7.983   4.637 -0.2009  0.9416  0.7411
  379MOL0     H52283   3.734   8.192   4.653  0.2181 -0.9762  2.0863
  379MOL0     H52284   4.254   8.359   4.316 -2.2062 -0.5451 -0.6539
  379MOL0     H52285   4.400   8.543   4.382 -1.0816  2.1592 -0.2423
  379MOL0     H52286   3.025   7.966   4.629  2.7095 -0.1108  0.8942
  379MOL0     H52287   2.824   8.053   4.474  1.1808 -0.6825 -1.0237
  379MOL0     H52288   2.487   8.507   4.544  0.8287 -0.1184 -0.6671
  379MOL0     H52289   2.304   8.611   4.410 -0.4414 -1.0789 -0.3359
  379MOL0     H52290   2.355   8.667   3.980 -1.4313 -0.9364 -3.2374
  379MOL0     H52291   2.245   8.524   3.977 -2.6239  0.8649 -3.2573
  379MOL0     H52292   2.049   8.683   4.021  0.6284 -0.0903  1.1474
  379MOL0     H52293   2.139   8.683   3.860 -2.5933 -1.3415  0.1316
  379MOL0     H52294   2.209   8.883   4.073 -2.6803  1.6573  1.1454
  379MOL0     H52295   2.259   8.898   3.909 -0.2931  0.9413 -1.0603
  379MOL0     H52296   2.033   8.926   3.819 -1.1427 -0.5570  0.9200
  379MOL0     H52297   2.077   9.029   3.959  1.6531 -1.1093  3.8702
  379MOL0     H52298   1.745   8.869   4.135 -1.6765  3.5022 -0.1483
  379MOL0     H52299   2.471   8.463   4.049 -4.8757 -0.3715 -0.5872
  379MOL0     H52300   2.717   8.324   4.092  1.2011 -2.6350 -0.3056
  379MOL0     H52301   2.672   8.209   4.224  0.1344  2.4352  2.2406
  379MOL0     H52302   2.573   8.220   4.089  0.3459 -1.5867 -0.4361
  380MOL0     O52303   0.726   2.509   8.147 -0.2958 -0.3339 -0.2524
  380MOL0     C52304   0.608   2.530   8.158  0.0370  0.3185  0.0777
  380MOL0     O52305   0.554   2.647   8.185  0.2166 -0.5291 -0.8636
  380MOL0     C52306   0.621   2.772   8.191  0.1332  0.4681  0.0337
  380MOL0     C52307   0.586   2.876   8.102  0.1371  0.0755  0.5304
  380MOL0     C52308   0.645   2.997   8.115 -0.3881 -0.3770  0.3578
  380MOL0     C52309   0.745   3.027   8.199  0.1621  0.3545  0.4756
  380MOL0     O52310   0.787   3.161   8.204  0.2536  0.6613 -0.2914
  380MOL0     C52311   0.931   3.183   8.235  1.0916  0.5698  1.0760
  380MOL0     C52312   0.974   3.320   8.193 -0.7474 -0.2045  0.2284
  380MOL0     C52313   0.889   3.437   8.241  1.1193  0.4226  0.0268
  380MOL0     C52314   0.941   3.565   8.188 -0.4666  0.3132  0.3596
  380MOL0     C52315   0.860   3.692   8.215  0.5156  0.0457  1.3723
  380MOL0     C52316   0.879   3.810   8.119  0.3452  0.0224 -0.3421
  380MOL0     C52317   1.018   3.879   8.137 -0.5024  0.3743  0.6938
  380MOL0     C52318   1.049   3.947   8.267 -0.3310 -0.3641 -0.4013
  380MOL0     N52319   0.960   4.054   8.289 -0.0753  0.4854  0.3789
  380MOL0     C52320   0.977   4.177   8.234  0.1345  0.0329 -0.3364
  380MOL0     C52321   0.869   4.249   8.284 -0.8038 -0.7216  0.4655
  380MOL0     C52322   0.831   4.391   8.242 -0.2935 -0.0792 -0.9435
  380MOL0     C52323   0.774   4.392   8.106 -0.0933  0.1850  0.5638
  380MOL0     C52324   0.869   4.347   7.992  0.1006  0.1425  0.2766
  380MOL0     C52325   0.817   4.404   7.862  0.2251  0.5507  0.1388
  380MOL0     O52326   0.856   4.532   7.811  0.0725 -0.5812 -0.3561
  380MOL0     C52327   0.987   4.558   7.765 -0.9047 -0.5725  0.7534
  380MOL0     C52328   1.020   4.693   7.734 -0.7737  0.4716 -0.2117
  380MOL0     C52329   1.142   4.727   7.674 -0.5222 -1.4598 -0.6210
  380MOL0     C52330   1.185   4.871   7.658  1.3822  0.5545 -0.0957
  380MOL0     C52331   1.235   4.624   7.645  1.1367 -0.1339  0.3887
  380MOL0     C52332   1.356   4.648   7.572  0.9180  0.1596 -0.1455
  380MOL0     O52333   1.347   4.724   7.464  0.1570  0.4638 -0.6032
  380MOL0     C52334   1.446   4.707   7.360 -0.2734 -0.2539  0.1162
  380MOL0     C52335   1.437   4.605   7.264 -0.4525 -0.5278  1.0483
  380MOL0     C52336   1.551   4.585   7.176  0.8562  0.2810  0.0412
  380MOL0     C52337   1.658   4.668   7.173 -0.9177 -0.2097  1.1462
  380MOL0     O52338   1.767   4.651   7.087 -0.2851  0.9829  0.2889
  380MOL0     C52339   1.807   4.526   7.031  0.1172 -0.3202 -0.3346
  380MOL0     C52340   1.950   4.552   6.997 -0.6510 -0.4308 -0.0175
  380MOL0     C52341   2.043   4.587   7.119  0.3821 -0.8864  0.4382
  380MOL0     C52342   2.181   4.620   7.077  1.1697  0.5594 -1.0052
  380MOL0     C52343   2.235   4.719   7.182  0.4133  0.1115 -0.6184
  380MOL0     C52344   2.208   4.867   7.141  0.3832  0.0800 -0.2089
  380MOL0     C52345   2.270   4.968   7.235  0.7501  0.2894 -0.3005
  380MOL0     C52346   2.237   5.116   7.194  0.3379 -0.4010 -0.3646
  380MOL0    Cl52347   2.310   5.159   7.034  0.2613  0.3229 -0.3080
  380MOL0     C52348   1.665   4.773   7.266  0.0155 -0.0933  0.3448
  380MOL0     C52349   1.559   4.792   7.360  0.0240 -0.0679  0.5045
  380MOL0     O52350   1.459   4.605   7.625 -0.2886 -0.2873 -0.3552
  380MOL0     C52351   1.206   4.492   7.688 -0.0316  0.9305  0.2177
  380MOL0     C52352   1.076   4.456   7.739  0.6324 -0.6572 -0.9159
  380MOL0     N52353   0.791   4.167   8.368  0.0107 -0.1474 -0.1194
  380MOL0     N52354   0.833   4.042   8.358 -0.9581 -0.0981  0.0888
  380MOL0     C52355   0.780   2.926   8.290  0.5212  0.1798  0.1327
  380MOL0     C52356   0.715   2.804   8.286  0.1221 -0.2885  0.5165
  380MOL0     C52357   0.515   2.409   8.153 -1.0229 -0.0577 -1.0054
  380MOL0     C52358   0.385   2.437   8.196 -0.9286 -0.1672  0.0674
  380MOL0     C52359   0.286   2.332   8.182 -0.4623 -0.4984  0.2035
  380MOL0     C52360   0.319   2.204   8.134 -0.1820 -0.0686  0.1647
  380MOL0     O52361   0.218   2.108   8.130  0.4843  0.2289 -0.3360
  380MOL0     C52362   0.080   2.154   8.124  0.0963  0.0902  0.3209
  380MOL0     C52363   0.006   2.047   8.041  0.3474 -0.2873 -0.0636
  380MOL0     C52364  -0.026   1.918   8.114 -1.2630 -0.1620  0.2385
  380MOL0     C52365  -0.100   1.810   8.027  0.6041 -0.9348  0.9379
  380MOL0     C52366  -0.229   1.771   8.099  0.2249 -0.0645  0.5012
  380MOL0     C52367  -0.339   1.754   8.143 -0.0460 -0.3955  0.4763
  380MOL0     C52368   0.456   2.179   8.109 -0.5846  0.1341 -0.4825
  380MOL0     C52369   0.551   2.281   8.109  0.1657 -0.1137  0.1745
  380MOL0     C52370   0.695   2.238   8.089  0.1182  0.0810  0.0250
  380MOL0     H52371   0.502   2.868   8.033 -0.9110  1.9409  1.4991
  380MOL0     H52372   0.615   3.068   8.039 -2.9748 -1.4447  0.2854
  380MOL0     H52373   0.984   3.104   8.181 -0.8121 -0.4357  0.5828
  380MOL0     H52374   0.939   3.186   8.344 -1.7388  0.0758  1.3916
  380MOL0     H52375   1.080   3.335   8.218 -0.1817 -1.4306 -1.2262
  380MOL0     H52376   0.961   3.316   8.084 -0.1579 -0.7971  0.1721
  380MOL0     H52377   0.788   3.434   8.201  1.1979  1.9060 -0.3355
  380MOL0     H52378   0.877   3.441   8.350 -0.2379  1.5495 -0.1457
  380MOL0     H52379   1.045   3.575   8.222 -0.2950 -2.4492  0.8501
  380MOL0     H52380   0.940   3.550   8.080 -1.9359 -0.0764  0.4016
  380MOL0     H52381   0.887   3.728   8.315  0.9536  0.4942  1.0964
  380MOL0     H52382   0.753   3.667   8.212  0.7528 -0.8977 -0.1128
  380MOL0     H52383   0.866   3.778   8.015  0.2645  1.2351 -0.7227
  380MOL0     H52384   0.800   3.882   8.141  0.2029  0.4808 -2.2013
  380MOL0     H52385   1.032   3.942   8.049 -1.2905  1.4798  1.3232
  380MOL0     H52386   1.087   3.795   8.130  2.7443  2.8715 -0.1546
  380MOL0     H52387   1.046   3.880   8.353 -0.3813 -0.5944 -0.5844
  380MOL0     H52388   1.151   3.985   8.261  0.0291 -0.5461  2.8279
  380MOL0     H52389   1.051   4.213   8.163  0.5301  1.9401  0.9776
  380MOL0     H52390   0.914   4.463   8.253  1.2132 -1.9027  0.3483
  380MOL0     H52391   0.759   4.423   8.318 -0.3854  1.1371 -1.5071
  380MOL0     H52392   0.674   4.347   8.115 -0.3678  0.6443 -0.1244
  380MOL0     H52393   0.746   4.496   8.087 -1.2368  0.0118  1.1906
  380MOL0     H52394   0.975   4.374   7.995 -0.0357  0.8104 -0.5302
  380MOL0     H52395   0.858   4.239   7.984  0.7182  0.2382 -3.3480
  380MOL0     H52396   0.838   4.331   7.783 -1.2282 -1.2730  1.3331
  380MOL0     H52397   0.710   4.417   7.882  0.8094  3.4747  1.9741
  380MOL0     H52398   0.950   4.775   7.745 -1.2336 -0.0954  1.3922
  380MOL0     H52399   1.109   4.941   7.693  0.3713 -0.5800  0.0515
  380MOL0     H52400   1.203   4.886   7.551 -0.1635 -1.6550 -0.7380
  380MOL0     H52401   1.281   4.883   7.710  2.1322  0.8833 -1.5166
  380MOL0     H52402   1.356   4.534   7.251 -0.9528  0.5106 -3.4736
  380MOL0     H52403   1.542   4.501   7.109 -1.9490 -2.5691  3.5260
  380MOL0     H52404   1.792   4.454   7.112 -2.1987  1.6617  1.1351
  380MOL0     H52405   1.744   4.501   6.945 -1.3995 -1.0851  0.9586
  380MOL0     H52406   1.989   4.464   6.946 -0.1715 -0.8220  0.9823
  380MOL0     H52407   1.952   4.646   6.941 -0.2844 -1.9173 -2.6334
  380MOL0     H52408   2.044   4.491   7.171  2.1303 -0.9504  0.3426
  380MOL0     H52409   1.997   4.669   7.175  0.6426  1.0449 -2.0128
  380MOL0     H52410   2.180   4.662   6.976  0.1642 -1.3897 -1.8504
  380MOL0     H52411   2.242   4.529   7.079  1.4085  0.6268  2.8631
  380MOL0     H52412   2.186   4.707   7.279  1.2100 -2.3951 -0.4706
  380MOL0     H52413   2.343   4.701   7.187  0.0328 -4.1819 -2.9707
  380MOL0     H52414   2.100   4.884   7.134  0.2454  0.8497  2.6708
  380MOL0     H52415   2.241   4.887   7.038 -2.0219  0.8009 -0.9036
  380MOL0     H52416   2.378   4.950   7.231  0.8254 -0.6828  3.1139
  380MOL0     H52417   2.235   4.951   7.337 -0.9855  1.0237 -0.7400
  380MOL0     H52418   2.279   5.178   7.273  0.2145 -0.0564 -0.5704
  380MOL0     H52419   2.132   5.144   7.189  0.9567  1.9641 -1.0401
  380MOL0     H52420   1.744   4.847   7.265  2.2161 -2.2965 -0.7465
  380MOL0     H52421   1.569   4.871   7.433  1.5649  0.9273 -0.7002
  380MOL0     H52422   1.265   4.410   7.649 -2.3126 -0.5595 -0.2938
  380MOL0     H52423   1.062   4.349   7.750  2.6369 -0.6871  2.7183
  380MOL0     H52424   0.849   2.954   8.369  0.9894  2.7793 -1.0847
  380MOL0     H52425   0.732   2.724   8.357 -1.0766 -0.2041  0.9281
  380MOL0     H52426   0.354   2.533   8.236 -0.2641  0.2476 -0.3884
  380MOL0     H52427   0.187   2.345   8.224  0.1068  0.8436  1.2037
  380MOL0     H52428   0.036   2.152   8.224  0.7821  1.6358  0.6828
  380MOL0     H52429   0.072   2.252   8.077  1.5089 -0.2319 -0.6615
  380MOL0     H52430   0.061   2.007   7.956 -3.3741  0.3273 -3.0296
  380MOL0     H52431  -0.090   2.085   8.004  0.3567 -1.3242 -1.2001
  380MOL0     H52432   0.066   1.874   8.153  1.0788  2.0609 -2.3556
  380MOL0     H52433  -0.086   1.948   8.201 -1.6667  0.3633 -0.2203
  380MOL0     H52434  -0.032   1.725   8.025  0.2429 -1.3008  2.6933
  380MOL0     H52435  -0.106   1.848   7.925 -1.0366 -0.7397  1.0655
  380MOL0     H52436  -0.432   1.756   8.196  0.4411  0.7639  1.3325
  380MOL0     H52437   0.486   2.076   8.093 -0.6402 -0.1931  1.3332
  380MOL0     H52438   0.732   2.202   8.185 -0.1060 -2.6493 -0.8283
  380MOL0     H52439   0.688   2.148   8.028 -2.5088  0.9607 -1.1036
  380MOL0     H52440   0.763   2.301   8.030 -0.7374 -1.4199 -2.7680
  381MOL0     O52441   7.009   7.006   7.261  0.5362 -1.5687  0.0925
  381MOL0     C52442   6.987   7.106   7.186  0.2349 -0.5434  0.8552
  381MOL0     O52443   6.898   7.107   7.082  0.5243  0.9168 -1.0502
  381MOL0     C52444   6.820   6.996   7.066 -0.9313  0.6617  0.1385
  381MOL0     C52445   6.840   6.935   6.944 -0.0406  0.5487  0.4197
  381MOL0     C52446   6.772   6.814   6.914  0.0919  0.2109 -0.0059
  381MOL0     C52447   6.680   6.756   7.002 -0.5393 -0.7067  0.3090
  381MOL0     O52448   6.621   6.636   6.970 -0.4304  0.2997 -0.0029
  381MOL0     C52449   6.492   6.602   7.006  0.4060  0.1315 -1.3361
  381MOL0     C52450   6.420   6.493   6.916 -1.0476 -0.9817 -0.1488
  381MOL0     C52451   6.492   6.362   6.923 -0.3625 -0.3418  0.1007
  381MOL0     C52452   6.460   6.277   7.037 -0.2419 -0.0490 -0.5032
  381MOL0     C52453   6.554   6.146   7.046 -0.3053 -0.8321  0.2213
  381MOL0     C52454   6.567   6.068   6.921  0.6826 -0.3525  0.4305
  381MOL0     C52455   6.617   5.927   6.935  0.5141 -0.2319 -0.6116
  381MOL0     C52456   6.598   5.854   6.800 -0.4295  0.3422  0.0340
  381MOL0     N52457   6.591   5.705   6.812  0.7917 -1.4108 -0.2582
  381MOL0     C52458   6.627   5.628   6.917 -0.5061 -0.3750  0.0806
  381MOL0     C52459   6.595   5.504   6.886  0.6216  0.1888 -0.3552
  381MOL0     C52460   6.633   5.378   6.961  0.1935 -0.3601  0.5969
  381MOL0     C52461   6.664   5.414   7.108 -0.4437  1.0559 -0.0805
  381MOL0     C52462   6.534   5.432   7.179 -0.7854 -0.2138 -0.1799
  381MOL0     C52463   6.554   5.438   7.335 -0.1143  0.0899 -0.0002
  381MOL0     O52464   6.624   5.559   7.376 -0.6206  0.0045 -0.8964
  381MOL0     C52465   6.554   5.674   7.402  1.0209  0.3138 -0.2305
  381MOL0     C52466   6.614   5.799   7.374  0.3817  0.2872 -0.1579
  381MOL0     C52467   6.543   5.920   7.387 -0.7134  0.1933 -0.5505
  381MOL0     C52468   6.629   6.043   7.386 -0.9691  1.0430 -0.5598
  381MOL0     C52469   6.401   5.918   7.403 -0.1580 -0.3216 -0.0306
  381MOL0     C52470   6.324   6.037   7.416  0.9301  0.1097  0.8357
  381MOL0     O52471   6.195   6.011   7.400  1.0644 -0.2429  0.7496
  381MOL0     C52472   6.095   6.108   7.397  0.0080 -0.9069  0.0011
  381MOL0     C52473   5.968   6.076   7.331  0.3184 -0.5436  0.6595
  381MOL0     C52474   5.867   6.169   7.319 -0.0300 -0.3870 -0.0833
  381MOL0     C52475   5.890   6.300   7.368 -0.2242  0.5909  0.7014
  381MOL0     O52476   5.780   6.386   7.343 -0.4481  0.5473 -0.0647
  381MOL0     C52477   5.783   6.509   7.417  0.4000  1.0736 -0.7563
  381MOL0     C52478   5.663   6.592   7.373 -0.3369  0.2840  0.0137
  381MOL0     C52479   5.528   6.533   7.394  0.5942 -0.5404 -0.3230
  381MOL0     C52480   5.463   6.455   7.279 -0.0987  0.3264  0.9174
  381MOL0     C52481   5.325   6.417   7.311 -1.1018  0.6838 -0.2216
  381MOL0     C52482   5.322   6.290   7.407 -0.1661  0.0412 -0.0860
  381MOL0     C52483   5.198   6.298   7.492  0.6501  0.0415  0.3951
  381MOL0     C52484   5.173   6.181   7.590 -0.5886 -0.4341  0.4078
  381MOL0    Cl52485   5.017   6.211   7.665  0.2054 -0.4339  0.5076
  381MOL0     C52486   6.010   6.335   7.433  0.5001  0.1374  0.6554
  381MOL0     C52487   6.107   6.243   7.450 -0.2737  0.4994  0.4325
  381MOL0     O52488   6.369   6.141   7.457 -0.2927  0.1711  0.4184
  381MOL0     C52489   6.344   5.789   7.424  0.1263  0.4539  0.4725
  381MOL0     C52490   6.414   5.674   7.419  0.0279 -0.4914 -0.2945
  381MOL0     N52491   6.527   5.505   6.767  0.3747 -0.8695 -0.1035
  381MOL0     N52492   6.527   5.630   6.725 -1.1779 -0.3480 -0.1271
  381MOL0     C52493   6.666   6.821   7.127 -0.2025  0.2837 -0.1100
  381MOL0     C52494   6.733   6.938   7.158  0.3751  0.1734  0.4030
  381MOL0     C52495   7.065   7.240   7.208  1.3439  1.4319  0.1048
  381MOL0     C52496   7.097   7.250   7.342  0.4659 -0.8893 -1.1647
  381MOL0     C52497   7.171   7.366   7.379  0.1029 -0.7256 -0.8288
  381MOL0     C52498   7.208   7.465   7.290  0.4933 -0.5361 -0.0292
  381MOL0     O52499   7.283   7.579   7.324  0.5924  0.7863  0.1623
  381MOL0     C52500   7.420   7.554   7.355  0.6237  0.0564 -0.3697
  381MOL0     C52501   7.476   7.659   7.269  0.5486  0.5262 -0.7699
  381MOL0     C52502   7.633   7.658   7.285 -0.0502 -0.1027 -0.5752
  381MOL0     C52503   7.709   7.782   7.236 -0.6585  0.6432  0.1822
  381MOL0     C52504   7.681   7.794   7.095  0.9281 -0.0469 -0.6211
  381MOL0     C52505   7.638   7.789   6.976 -0.4899  0.3551 -0.3309
  381MOL0     C52506   7.152   7.457   7.157 -0.6071 -0.9581 -0.1103
  381MOL0     C52507   7.079   7.345   7.118  0.3580 -0.0888 -0.3540
  381MOL0     C52508   7.038   7.344   6.974 -0.1074 -0.6324  0.5553
  381MOL0     H52509   6.896   6.974   6.859 -0.9653  0.9939  0.0010
  381MOL0     H52510   6.792   6.762   6.820  0.9302 -1.0596  0.8503
  381MOL0     H52511   6.437   6.696   6.996  0.3034  0.9594  3.8215
  381MOL0     H52512   6.499   6.563   7.108  0.0896  1.8498 -0.6171
  381MOL0     H52513   6.317   6.501   6.952 -1.8405  0.3162 -2.4895
  381MOL0     H52514   6.418   6.522   6.811 -5.1661  2.1745  0.5487
  381MOL0     H52515   6.469   6.310   6.829  1.8916 -0.0223 -0.6927
  381MOL0     H52516   6.599   6.383   6.926 -0.8980  2.7950  0.0676
  381MOL0     H52517   6.473   6.337   7.127 -1.1093  0.9876 -1.0452
  381MOL0     H52518   6.353   6.254   7.033 -0.2868 -0.0348  0.5659
  381MOL0     H52519   6.505   6.074   7.111 -2.7368 -0.9327 -1.5754
  381MOL0     H52520   6.654   6.169   7.085 -0.8235 -0.5182  1.3904
  381MOL0     H52521   6.463   6.063   6.887  1.3990  1.6948 -2.4793
  381MOL0     H52522   6.625   6.133   6.855  1.9353 -1.1214  0.7413
  381MOL0     H52523   6.559   5.874   7.010  1.0346  1.1171  0.7941
  381MOL0     H52524   6.724   5.924   6.961  0.0103  0.9891  1.8747
  381MOL0     H52525   6.507   5.889   6.749  0.0028 -0.8993 -1.6653
  381MOL0     H52526   6.691   5.873   6.746 -0.4138  0.1726  0.0021
  381MOL0     H52527   6.692   5.660   6.998 -0.0462 -0.6465 -0.1746
  381MOL0     H52528   6.725   5.336   6.919  0.6038 -0.8904  1.9850
  381MOL0     H52529   6.550   5.309   6.938  0.1262 -0.3414  0.7830
  381MOL0     H52530   6.721   5.330   7.148  1.4387  1.8755 -0.9248
  381MOL0     H52531   6.733   5.499   7.113 -0.4918  1.1130 -0.3423
  381MOL0     H52532   6.478   5.522   7.152 -1.8839 -0.8350 -0.0344
  381MOL0     H52533   6.464   5.352   7.153  0.5428 -0.2923 -4.2477
  381MOL0     H52534   6.456   5.431   7.382 -0.0494  1.2111  0.3259
  381MOL0     H52535   6.615   5.357   7.376 -0.1735  1.4575  3.0331
  381MOL0     H52536   6.720   5.806   7.352 -0.1336  1.9755 -2.5491
  381MOL0     H52537   6.632   6.070   7.492  1.6458 -1.4994  0.1429
  381MOL0     H52538   6.598   6.126   7.322 -0.1380 -0.4074 -3.0278
  381MOL0     H52539   6.734   6.015   7.371  0.0137  0.2451  5.3834
  381MOL0     H52540   5.972   5.976   7.287 -0.6888  0.0421 -0.8195
  381MOL0     H52541   5.772   6.144   7.273  0.1420  0.6744 -1.0614
  381MOL0     H52542   5.772   6.476   7.520 -0.0817 -1.4814 -1.5519
  381MOL0     H52543   5.880   6.555   7.398 -0.0602  2.0934 -0.6589
  381MOL0     H52544   5.661   6.673   7.447 -1.0333 -0.1153  0.4406
  381MOL0     H52545   5.674   6.623   7.269  0.9003 -1.8021 -0.5194
  381MOL0     H52546   5.458   6.616   7.403 -0.2371 -0.6942 -3.9193
  381MOL0     H52547   5.539   6.466   7.480  3.0919  0.1287 -0.0521
  381MOL0     H52548   5.521   6.370   7.244 -3.6874 -1.2352 -1.8395
  381MOL0     H52549   5.461   6.523   7.193  0.9594 -2.2340 -1.2530
  381MOL0     H52550   5.284   6.506   7.361  0.4023  0.4365  1.5509
  381MOL0     H52551   5.271   6.385   7.221 -1.4892  1.0157 -0.1104
  381MOL0     H52552   5.417   6.289   7.461  0.1203  0.3854 -0.5853
  381MOL0     H52553   5.320   6.191   7.360  1.3829 -0.9607  1.7982
  381MOL0     H52554   5.111   6.304   7.426  1.7426 -0.2367 -1.1352
  381MOL0     H52555   5.213   6.387   7.554  0.6924  0.1339  0.2541
  381MOL0     H52556   5.246   6.183   7.671 -1.9802 -0.0535  1.6990
  381MOL0     H52557   5.180   6.086   7.535  1.4570  0.3395 -0.7560
  381MOL0     H52558   6.018   6.433   7.478  0.4123 -0.3303  1.7339
  381MOL0     H52559   6.195   6.284   7.499 -1.5355  3.5104  0.4020
  381MOL0     H52560   6.242   5.777   7.458  0.0857  1.2090  0.6297
  381MOL0     H52561   6.355   5.589   7.449 -0.3802  0.6608  2.3883
  381MOL0     H52562   6.603   6.766   7.197  0.2506  0.6724  0.6202
  381MOL0     H52563   6.737   6.974   7.261  0.5218 -0.4042  0.6041
  381MOL0     H52564   7.079   7.178   7.422  0.0195  0.6032  0.1444
  381MOL0     H52565   7.212   7.382   7.478  0.5597  2.4957 -1.4233
  381MOL0     H52566   7.445   7.566   7.460 -0.8845  1.5110 -0.1261
  381MOL0     H52567   7.436   7.448   7.330 -4.3888 -0.3938 -3.0955
  381MOL0     H52568   7.431   7.745   7.319 -0.5216  0.9091 -2.3043
  381MOL0     H52569   7.444   7.646   7.165 -3.3167 -4.2121  0.6538
  381MOL0     H52570   7.655   7.641   7.391 -0.3903 -1.8560 -0.7585
  381MOL0     H52571   7.672   7.570   7.234 -1.3916 -1.2432  0.3009
  381MOL0     H52572   7.816   7.775   7.257 -0.6099  0.5386 -0.0947
  381MOL0     H52573   7.678   7.872   7.290 -0.5313  0.9649 -0.2753
  381MOL0     H52574   7.614   7.797   6.872  2.1763 -3.2109 -1.3979
  381MOL0     H52575   7.174   7.539   7.089 -0.7590  0.0866  1.0426
  381MOL0     H52576   7.076   7.257   6.919  0.5865 -0.0982  0.1710
  381MOL0     H52577   6.929   7.342   6.986 -0.2016 -1.1444 -0.2835
  381MOL0     H52578   7.090   7.426   6.923 -0.4486 -0.1588  0.9676
  382MOL0     O52579   9.826   6.717   8.898  0.4376 -0.8244 -0.0921
  382MOL0     C52580   9.923   6.674   8.951 -0.2760  0.6097 -1.0722
  382MOL0     O52581   9.924   6.580   9.047 -0.1284 -0.4084  0.0968
  382MOL0     C52582   9.803   6.544   9.099 -0.5496 -1.6813  0.1673
  382MOL0     C52583   9.719   6.460   9.029  0.4122  0.0161  0.3741
  382MOL0     C52584   9.584   6.438   9.060 -0.0188 -1.2907  0.7426
  382MOL0     C52585   9.536   6.509   9.180  0.2422  1.2058  0.0303
  382MOL0     O52586   9.410   6.513   9.232  0.5667  0.3634 -0.0813
  382MOL0     C52587   9.307   6.431   9.178 -0.2822  0.3538 -1.2892
  382MOL0     C52588   9.216   6.511   9.082  0.1019 -0.0122 -0.7221
  382MOL0     C52589   9.094   6.429   9.035 -0.0473  0.6192 -0.1863
  382MOL0     C52590   9.014   6.496   8.918  0.7570  0.2971 -0.4571
  382MOL0     C52591   8.995   6.437   8.769 -0.4196  0.7512 -0.8357
  382MOL0     C52592   9.131   6.397   8.716 -0.0364  0.1380 -0.1900
  382MOL0     C52593   9.116   6.386   8.560 -0.1919  0.4958 -0.5119
  382MOL0     C52594   9.074   6.245   8.512  0.2592  0.1633  0.2498
  382MOL0     N52595   9.091   6.247   8.369 -0.7898 -0.4652  0.5653
  382MOL0     C52596   9.007   6.294   8.276 -0.4713 -0.0337  0.0455
  382MOL0     C52597   9.069   6.279   8.160  0.7087 -0.0928  0.1684
  382MOL0     C52598   9.015   6.326   8.031 -0.6674 -0.1158 -0.3133
  382MOL0     C52599   9.040   6.484   8.020  0.2869 -0.6516 -0.0111
  382MOL0     C52600   9.171   6.510   7.940 -0.2175  0.0209 -0.3732
  382MOL0     C52601   9.197   6.653   7.922  0.0422 -0.6974 -0.3090
  382MOL0     O52602   9.093   6.737   7.861  0.1446  0.5280 -0.4368
  382MOL0     C52603   9.148   6.858   7.807  0.1737  0.3205 -0.7131
  382MOL0     C52604   9.073   6.907   7.705  0.2971 -0.1688 -0.5413
  382MOL0     C52605   9.119   7.019   7.627  0.7038 -1.1180 -0.6641
  382MOL0     C52606   9.025   7.063   7.515  0.4666  0.8003 -0.2995
  382MOL0     C52607   9.235   7.093   7.667 -0.2842  0.6869 -0.8435
  382MOL0     C52608   9.281   7.221   7.604  0.0001 -0.8211  0.4882
  382MOL0     O52609   9.202   7.284   7.511 -0.3504  0.2289 -0.8158
  382MOL0     C52610   9.259   7.394   7.445 -0.0737  0.3540 -0.2628
  382MOL0     C52611   9.194   7.512   7.426 -0.1349  0.4272 -0.0864
  382MOL0     C52612   9.236   7.617   7.346  0.6293  0.9195  0.3798
  382MOL0     C52613   9.365   7.599   7.292  0.2088  0.3540 -0.4382
  382MOL0     O52614   9.403   7.699   7.212 -0.1619 -0.4192  0.1443
  382MOL0     C52615   9.536   7.728   7.225 -1.1033  0.3296  0.7011
  382MOL0     C52616   9.558   7.865   7.201  0.2925  0.9816  0.6944
  382MOL0     C52617   9.521   7.944   7.325  0.2655 -0.6615  0.2081
  382MOL0     C52618   9.569   8.091   7.311  0.0825  0.0150  0.5603
  382MOL0     C52619   9.529   8.171   7.431 -0.7022  0.4889  0.6803
  382MOL0     C52620   9.380   8.206   7.424  0.0042 -0.7601  0.1020
  382MOL0     C52621   9.313   8.121   7.536 -0.8436  0.2375 -0.4231
  382MOL0     C52622   9.165   8.101   7.521  0.5648  0.5677  0.8926
  382MOL0    Cl52623   9.116   8.008   7.387 -0.0128  0.6816  0.0792
  382MOL0     C52624   9.433   7.480   7.293  0.9544 -0.0408  0.4796
  382MOL0     C52625   9.373   7.371   7.369 -1.0449 -0.4210  1.1509
  382MOL0     O52626   9.392   7.256   7.636 -0.0302  0.3954 -0.7134
  382MOL0     C52627   9.315   7.031   7.774  0.3158  0.1049  0.8022
  382MOL0     C52628   9.270   6.911   7.836 -0.5268 -0.1194 -0.2702
  382MOL0     N52629   9.200   6.238   8.182  0.1184  1.3537  0.3706
  382MOL0     N52630   9.212   6.222   8.305 -0.1136  0.9643  0.3073
  382MOL0     C52631   9.620   6.598   9.242 -0.2162 -0.8294  0.1262
  382MOL0     C52632   9.758   6.612   9.208 -1.4280 -0.7314 -0.3844
  382MOL0     C52633  10.046   6.734   8.921 -0.3631 -0.9707  0.5335
  382MOL0     C52634  10.145   6.755   9.016 -0.1172 -0.0317  0.7539
  382MOL0     C52635  10.252   6.833   8.988  0.1496 -0.3259  0.2128
  382MOL0     C52636  10.284   6.882   8.861  0.0048 -1.0000  0.2443
  382MOL0     O52637  10.401   6.943   8.831  0.0692  0.0966 -0.8043
  382MOL0     C52638  10.508   6.843   8.811  0.5215  0.9546  0.3652
  382MOL0     C52639  10.512   6.807   8.669  0.1290 -0.0947  0.2788
  382MOL0     C52640  10.645   6.727   8.645  0.8173 -0.1138 -0.2654
  382MOL0     C52641  10.775   6.810   8.632 -0.9697  0.1914  0.0609
  382MOL0     C52642  10.889   6.721   8.638  0.6357  0.2840 -0.2585
  382MOL0     C52643  10.985   6.650   8.655  0.2521 -0.2108  1.2618
  382MOL0     C52644  10.185   6.861   8.771 -0.4819  0.3803  0.3923
  382MOL0     C52645  10.072   6.783   8.791  0.1783  0.2283 -0.1814
  382MOL0     C52646   9.991   6.757   8.664  0.2992  0.0587  0.0382
  382MOL0     H52647   9.761   6.400   8.949 -1.6903 -0.0611 -0.7368
  382MOL0     H52648   9.530   6.366   8.999  2.3264 -1.8139 -0.8590
  382MOL0     H52649   9.253   6.409   9.271 -0.2413  0.1147 -1.3219
  382MOL0     H52650   9.334   6.336   9.131 -0.3664 -0.9332  1.1217
  382MOL0     H52651   9.179   6.597   9.139  0.8530 -0.6595  0.8253
  382MOL0     H52652   9.272   6.552   8.998  2.5431 -2.6371 -0.5253
  382MOL0     H52653   9.126   6.330   8.998  0.3038  0.6326  0.0751
  382MOL0     H52654   9.033   6.416   9.124  1.5109  0.8162  0.9391
  382MOL0     H52655   8.909   6.496   8.950  0.0499 -0.0071 -2.5939
  382MOL0     H52656   9.050   6.599   8.928  2.7326 -0.5248  1.7309
  382MOL0     H52657   8.942   6.513   8.710  0.6232  1.1178 -1.3260
  382MOL0     H52658   8.938   6.344   8.773 -1.7086  1.5124 -0.5667
  382MOL0     H52659   9.207   6.476   8.730 -0.7913  1.0279 -0.9518
  382MOL0     H52660   9.184   6.309   8.752  2.2541  2.1844  1.8420
  382MOL0     H52661   9.220   6.407   8.537  0.1814  2.0462  2.1457
  382MOL0     H52662   9.049   6.464   8.522 -0.4517  2.5266  3.5298
  382MOL0     H52663   9.142   6.169   8.553  0.7978 -0.9971 -2.5540
  382MOL0     H52664   8.972   6.223   8.543 -0.7778  2.1501 -1.5772
  382MOL0     H52665   8.909   6.337   8.296 -0.7291  0.4675 -2.0711
  382MOL0     H52666   8.909   6.302   8.015 -0.1841 -2.6369 -0.0678
  382MOL0     H52667   9.070   6.264   7.960  0.9555  2.6037 -1.5936
  382MOL0     H52668   8.952   6.534   7.978 -0.0931  0.3978  1.9015
  382MOL0     H52669   9.050   6.527   8.120  2.5204  1.1138 -0.9088
  382MOL0     H52670   9.255   6.470   7.997  0.1678 -0.6993 -1.3954
  382MOL0     H52671   9.175   6.465   7.840 -0.5304 -1.8186  0.4008
  382MOL0     H52672   9.207   6.698   8.021  0.6942 -0.4607 -0.4820
  382MOL0     H52673   9.286   6.667   7.860 -0.9919  1.4719 -1.3934
  382MOL0     H52674   8.971   6.872   7.692  0.7912 -1.6328 -0.6056
  382MOL0     H52675   8.999   7.166   7.541  1.5699  0.6505  1.5062
  382MOL0     H52676   8.936   7.000   7.520  0.4165  0.8745 -0.2623
  382MOL0     H52677   9.078   7.061   7.419  0.4443  0.7255 -0.3111
  382MOL0     H52678   9.094   7.518   7.468 -0.9352  1.8796 -2.0591
  382MOL0     H52679   9.174   7.705   7.331 -3.0774 -1.8068 -1.7925
  382MOL0     H52680   9.580   7.696   7.320  0.5789 -3.2412 -1.0403
  382MOL0     H52681   9.589   7.666   7.151  0.7475 -0.3464  2.4887
  382MOL0     H52682   9.662   7.876   7.170  0.2263 -3.8038 -2.1443
  382MOL0     H52683   9.498   7.913   7.123  2.0339 -0.2530 -1.4927
  382MOL0     H52684   9.569   7.897   7.411  3.0377 -2.7289 -2.2379
  382MOL0     H52685   9.412   7.948   7.339  0.6091 -1.4451  4.1937
  382MOL0     H52686   9.543   8.139   7.216  1.7679  1.0760  0.6010
  382MOL0     H52687   9.677   8.079   7.299  0.2949 -1.2975  3.0804
  382MOL0     H52688   9.561   8.116   7.520  1.9383 -1.0131 -1.0711
  382MOL0     H52689   9.566   8.274   7.430 -0.1705  0.2956  0.1765
  382MOL0     H52690   9.332   8.176   7.330  2.1360 -2.8198 -0.4206
  382MOL0     H52691   9.365   8.312   7.444  1.5232  0.0662 -2.5620
  382MOL0     H52692   9.330   8.176   7.629  0.4879 -0.9782  0.1056
  382MOL0     H52693   9.358   8.021   7.538 -2.3404 -0.4743  2.3929
  382MOL0     H52694   9.124   8.198   7.494  0.6624 -0.4661 -3.6738
  382MOL0     H52695   9.114   8.051   7.604  0.1287 -1.9664 -0.8159
  382MOL0     H52696   9.524   7.466   7.235  1.6025 -1.5918  1.7809
  382MOL0     H52697   9.410   7.269   7.367  4.3440  1.0786 -3.7444
  382MOL0     H52698   9.402   7.088   7.804 -1.2262  4.8014 -2.4163
  382MOL0     H52699   9.331   6.876   7.919  0.0769 -1.9986 -1.4396
  382MOL0     H52700   9.580   6.670   9.313 -2.1320 -1.0310 -0.6922
  382MOL0     H52701   9.827   6.680   9.257 -0.5197 -2.9941  1.6844
  382MOL0     H52702  10.137   6.703   9.111 -0.5852 -1.8040 -0.2176
  382MOL0     H52703  10.313   6.834   9.077 -1.6098 -1.9610  1.5229
  382MOL0     H52704  10.608   6.878   8.837  3.0962 -4.6647 -0.5799
  382MOL0     H52705  10.483   6.755   8.872 -1.6745 -0.2217 -2.0240
  382MOL0     H52706  10.507   6.891   8.599 -2.0611 -2.4214 -2.6324
  382MOL0     H52707  10.431   6.738   8.646  1.2050 -1.7758  1.2885
  382MOL0     H52708  10.665   6.663   8.731  1.2238  1.8106  1.1589
  382MOL0     H52709  10.629   6.667   8.555 -0.8673 -1.9827  1.2010
  382MOL0     H52710  10.787   6.873   8.721 -3.0549  2.9108 -1.4352
  382MOL0     H52711  10.770   6.868   8.539  2.2539  0.5791  0.0054
  382MOL0     H52712  11.086   6.618   8.668 -0.3082 -1.5778  2.7175
  382MOL0     H52713  10.207   6.890   8.669  0.0562  1.1648  0.7216
  382MOL0     H52714   9.939   6.661   8.667  1.0991 -0.3587  1.0974
  382MOL0     H52715   9.919   6.839   8.674  1.7353  1.1818  1.8020
  382MOL0     H52716  10.054   6.761   8.575 -0.8213  1.6478 -0.7341
  383MOL0     O52717   4.698   9.793   7.864 -0.2137  0.1514  0.4180
  383MOL0     C52718   4.739   9.792   7.745  0.2450 -0.3919  0.5161
  383MOL0     O52719   4.668   9.772   7.633 -0.0619  0.1995 -0.5187
  383MOL0     C52720   4.556   9.689   7.632  0.1754 -0.6498 -0.3955
  383MOL0     C52721   4.457   9.675   7.734 -0.6408  0.6340  0.3409
  383MOL0     C52722   4.344   9.594   7.716  0.4721 -0.6132 -0.5723
  383MOL0     C52723   4.328   9.526   7.598  0.3441 -0.6311  0.6485
  383MOL0     O52724   4.219   9.441   7.583  0.0793 -0.6777  0.0310
  383MOL0     C52725   4.097   9.509   7.558  0.3128 -0.0871  0.6648
  383MOL0     C52726   4.091   9.534   7.411 -0.0925 -0.1515 -0.3966
  383MOL0     C52727   4.113   9.393   7.328 -0.5709 -0.2981 -1.2215
  383MOL0     C52728   4.084   9.421   7.177  0.2001  0.0144 -0.2783
  383MOL0     C52729   4.181   9.352   7.083  0.5487  0.3059 -0.5244
  383MOL0     C52730   4.135   9.382   6.936  0.6545 -0.6861 -0.3752
  383MOL0     C52731   4.240   9.342   6.831  0.3587 -0.2886 -0.8248
  383MOL0     C52732   4.310   9.198   6.848  0.2161 -0.3807 -0.5950
  383MOL0     N52733   4.228   9.083   6.800 -0.5371 -0.4739 -0.2868
  383MOL0     C52734   4.091   9.078   6.789 -0.1777 -0.0952  0.4983
  383MOL0     C52735   4.066   8.947   6.771  0.6056 -0.3525  1.0884
  383MOL0     C52736   3.925   8.888   6.755 -0.0920  0.1621 -0.4414
  383MOL0     C52737   3.900   8.754   6.822 -0.6082  0.0333 -0.2535
  383MOL0     C52738   3.924   8.768   6.976  0.0217 -0.1439 -0.1114
  383MOL0     C52739   3.902   8.643   7.054  0.4017 -0.7915  0.6933
  383MOL0     O52740   3.764   8.604   7.033 -0.5414  0.2552 -0.6262
  383MOL0     C52741   3.719   8.476   7.050  0.4725  0.9486 -0.3744
  383MOL0     C52742   3.785   8.373   7.123  0.4864 -0.1432  0.4102
  383MOL0     C52743   3.752   8.244   7.129 -0.3830 -0.4718 -0.0065
  383MOL0     C52744   3.844   8.146   7.202 -0.1753 -0.1615 -0.2116
  383MOL0     C52745   3.632   8.208   7.067  0.2402  0.0862  0.3130
  383MOL0     C52746   3.582   8.061   7.074 -0.3703  0.0227  0.3905
  383MOL0     O52747   3.601   7.998   7.200  0.1485  0.1532 -0.1829
  383MOL0     C52748   3.569   7.862   7.212 -0.5622 -0.3345  0.7399
  383MOL0     C52749   3.672   7.776   7.241 -0.5607  0.5889  0.6803
  383MOL0     C52750   3.648   7.634   7.240 -0.5718  0.0348  0.0322
  383MOL0     C52751   3.518   7.589   7.223 -0.2244  0.1962  0.0691
  383MOL0     O52752   3.481   7.454   7.210  0.2952 -0.6715  0.6611
  383MOL0     C52753   3.518   7.367   7.322 -0.4698 -0.2912 -0.2623
  383MOL0     C52754   3.460   7.229   7.306  0.6665  0.1463 -0.5061
  383MOL0     C52755   3.477   7.147   7.433 -0.2526  0.0632  0.3271
  383MOL0     C52756   3.604   7.062   7.433 -0.6396  0.4124 -0.1420
  383MOL0     C52757   3.600   6.949   7.546  0.2915 -0.0912  0.6790
  383MOL0     C52758   3.742   6.891   7.544 -0.4715  0.5094 -0.5435
  383MOL0     C52759   3.760   6.762   7.626  0.6505 -0.6971 -0.0236
  383MOL0     C52760   3.893   6.682   7.605  0.3524 -1.5349  0.5373
  383MOL0    Cl52761   4.029   6.791   7.616 -0.1225 -0.7069 -0.1982
  383MOL0     C52762   3.416   7.680   7.196  1.4988  1.0338  0.7095
  383MOL0     C52763   3.446   7.810   7.187 -0.4130 -0.9926 -0.2188
  383MOL0     O52764   3.523   8.015   6.979 -0.2023 -0.4173  0.4056
  383MOL0     C52765   3.555   8.302   6.991 -0.5402  0.2092  0.0090
  383MOL0     C52766   3.609   8.433   6.976  0.4207 -0.7710  0.3749
  383MOL0     N52767   4.182   8.881   6.740  0.7836 -0.3783  1.1994
  383MOL0     N52768   4.278   8.965   6.756 -0.6306  0.3970  0.1367
  383MOL0     C52769   4.414   9.544   7.498 -0.3624 -0.3582  0.5165
  383MOL0     C52770   4.532   9.623   7.510  0.1918 -0.9038  0.3974
  383MOL0     C52771   4.866   9.861   7.723 -0.0820  0.3949 -0.1175
  383MOL0     C52772   4.882   9.966   7.638 -0.4949 -0.3366  0.5745
  383MOL0     C52773   5.011  10.028   7.619  0.5178 -0.3361  0.0791
  383MOL0     C52774   5.126   9.969   7.673  0.3929 -0.2519 -0.3845
  383MOL0     O52775   5.254  10.011   7.660 -0.1269 -0.5101  0.0317
  383MOL0     C52776   5.284  10.139   7.593 -0.7970 -0.6742 -0.5004
  383MOL0     C52777   5.369  10.229   7.678 -0.0285  0.1034 -0.0617
  383MOL0     C52778   5.511  10.180   7.675  0.4714 -0.0446  0.6367
  383MOL0     C52779   5.587  10.227   7.804  0.3759 -0.0686  0.3182
  383MOL0     C52780   5.587  10.372   7.806 -0.7043  0.0019 -0.3764
  383MOL0     C52781   5.583  10.493   7.816 -0.0852 -0.5226 -0.5665
  383MOL0     C52782   5.114   9.857   7.761 -0.0943 -0.5094 -0.7023
  383MOL0     C52783   4.982   9.809   7.786 -0.0699  0.8198  0.0206
  383MOL0     C52784   4.973   9.698   7.894  0.2550  0.1339  0.2612
  383MOL0     H52785   4.477   9.716   7.833 -0.7185  0.5114  0.4067
  383MOL0     H52786   4.274   9.594   7.799  1.3683 -0.5622  0.2056
  383MOL0     H52787   4.098   9.601   7.618  0.0473 -0.3845  1.1293
  383MOL0     H52788   4.010   9.450   7.588 -2.1858  1.8400 -2.2627
  383MOL0     H52789   3.997   9.586   7.390  0.1591  0.7701  0.6386
  383MOL0     H52790   4.167   9.607   7.383 -0.0740  0.5151  1.2902
  383MOL0     H52791   4.214   9.351   7.333  0.0616  0.9681 -2.4644
  383MOL0     H52792   4.050   9.315   7.370  0.1644 -1.1236 -1.6325
  383MOL0     H52793   3.981   9.387   7.167  0.0770 -0.1037  1.2229
  383MOL0     H52794   4.095   9.526   7.147 -4.3845  0.1128 -2.6392
  383MOL0     H52795   4.190   9.244   7.098 -1.9767  0.2394  1.0721
  383MOL0     H52796   4.280   9.398   7.091  1.0843 -1.1236  2.1984
  383MOL0     H52797   4.035   9.340   6.921  0.6650 -0.6021 -0.6790
  383MOL0     H52798   4.128   9.491   6.929 -2.4548 -0.8778 -1.7462
  383MOL0     H52799   4.325   9.410   6.822 -0.4665  0.8149 -0.4616
  383MOL0     H52800   4.194   9.354   6.732  1.4419  0.1474 -1.2896
  383MOL0     H52801   4.402   9.202   6.789  0.0362  1.5876 -0.7917
  383MOL0     H52802   4.336   9.182   6.953 -0.1489 -0.6173 -0.5391
  383MOL0     H52803   4.016   9.155   6.807  0.6878  1.5616 -2.2330
  383MOL0     H52804   3.916   8.874   6.646 -1.0499 -0.5295 -0.2926
  383MOL0     H52805   3.852   8.965   6.779 -1.7278 -1.3621 -0.2749
  383MOL0     H52806   3.796   8.722   6.811 -0.5943 -0.2782  0.4452
  383MOL0     H52807   3.971   8.687   6.772  0.5481  2.1363 -1.5612
  383MOL0     H52808   4.025   8.806   6.994  0.2627 -0.3593 -0.9802
  383MOL0     H52809   3.844   8.832   7.017 -1.9565 -3.2943  1.3492
  383MOL0     H52810   3.964   8.565   7.008  0.7371  0.5151 -1.1413
  383MOL0     H52811   3.923   8.662   7.160 -0.7594  3.1453  0.3909
  383MOL0     H52812   3.871   8.412   7.176  1.5592 -2.4590  0.4987
  383MOL0     H52813   3.818   8.150   7.309 -0.0880  1.3576 -0.2192
  383MOL0     H52814   3.948   8.180   7.198 -0.3240  0.9087  2.6290
  383MOL0     H52815   3.839   8.044   7.165 -2.1778 -0.3332  0.3858
  383MOL0     H52816   3.769   7.816   7.268 -0.1980 -1.6662  3.2610
  383MOL0     H52817   3.732   7.570   7.264 -0.8352 -0.2578  0.1836
  383MOL0     H52818   3.624   7.359   7.344 -0.7457 -2.9165  0.5077
  383MOL0     H52819   3.465   7.402   7.411  0.9824  0.9679  0.1350
  383MOL0     H52820   3.355   7.229   7.274 -0.3426  1.1825  2.5012
  383MOL0     H52821   3.511   7.181   7.221  2.7806  1.2176  0.0914
  383MOL0     H52822   3.387   7.085   7.439 -1.8603  2.3921  3.1368
  383MOL0     H52823   3.452   7.200   7.525 -3.2956 -2.2413  0.9776
  383MOL0     H52824   3.690   7.128   7.447 -0.3811  0.4874 -1.8212
  383MOL0     H52825   3.609   7.019   7.332  0.8087  4.4082 -2.0035
  383MOL0     H52826   3.575   6.984   7.646  1.4205 -0.3282  1.0647
  383MOL0     H52827   3.526   6.876   7.514  2.6510 -2.3494  0.0072
  383MOL0     H52828   3.821   6.955   7.585  2.3684 -1.6329 -2.2913
  383MOL0     H52829   3.760   6.881   7.437 -3.7084 -1.0978 -1.0545
  383MOL0     H52830   3.672   6.698   7.624 -1.0790  1.3390  3.0343
  383MOL0     H52831   3.762   6.801   7.728  1.2484  2.3117 -1.0745
  383MOL0     H52832   3.896   6.643   7.503 -0.4152 -2.4984  0.8659
  383MOL0     H52833   3.895   6.615   7.691 -3.8908  0.7455  2.7223
  383MOL0     H52834   3.326   7.639   7.152  0.1491  2.0712  2.3615
  383MOL0     H52835   3.374   7.879   7.144  2.4015  2.7499  0.5536
  383MOL0     H52836   3.462   8.269   6.945 -2.3977  2.2357  2.0559
  383MOL0     H52837   3.554   8.509   6.921 -4.3814 -2.7121  1.9778
  383MOL0     H52838   4.397   9.497   7.402 -0.8097  1.9803 -0.6241
  383MOL0     H52839   4.598   9.638   7.425  1.7549 -0.5222  1.6254
  383MOL0     H52840   4.791  10.008   7.596  0.8944  1.1164 -1.1885
  383MOL0     H52841   5.018  10.110   7.548  1.4999  0.6271  1.2360
  383MOL0     H52842   5.345  10.120   7.504  0.3333  3.3168 -0.7647
  383MOL0     H52843   5.189  10.178   7.554 -1.1243 -1.9238 -1.0125
  383MOL0     H52844   5.330  10.225   7.780  0.1978 -0.5995  0.0049
  383MOL0     H52845   5.355  10.332   7.646 -5.0602 -0.7160 -1.3956
  383MOL0     H52846   5.522  10.071   7.668  1.3440  0.1030 -0.5892
  383MOL0     H52847   5.561  10.221   7.587  1.9883 -0.1528  1.4153
  383MOL0     H52848   5.687  10.185   7.792 -0.3640 -1.9163  0.2446
  383MOL0     H52849   5.541  10.170   7.886  3.3120 -2.1700  0.6496
  383MOL0     H52850   5.600  10.599   7.814 -1.1930 -0.3250 -0.3312
  383MOL0     H52851   5.205   9.824   7.810  2.5706  4.1523 -1.8928
  383MOL0     H52852   4.889   9.628   7.899  0.1199  0.3631  2.4629
  383MOL0     H52853   5.060   9.633   7.880  1.0530  0.6447  2.4404
  383MOL0     H52854   4.966   9.746   7.992 -2.2937  0.9930 -0.2775
  384MOL0     O52855   9.297   2.935   8.284  0.3764  0.1352 -0.1344
  384MOL0     C52856   9.257   3.024   8.360  1.2987 -0.2872 -0.2652
  384MOL0     O52857   9.338   3.116   8.427  0.3592 -0.1736  0.0886
  384MOL0     C52858   9.471   3.099   8.427  0.2327 -0.1072 -1.0519
  384MOL0     C52859   9.539   3.184   8.348 -0.6017  0.0780 -0.4073
  384MOL0     C52860   9.684   3.179   8.355 -0.2414  0.5284 -0.2592
  384MOL0     C52861   9.740   3.069   8.417 -0.2024  0.4009  0.4061
  384MOL0     O52862   9.861   3.033   8.407 -0.9066 -0.1462  0.1765
  384MOL0     C52863   9.961   3.110   8.335  0.2388 -0.0832 -0.2346
  384MOL0     C52864   9.999   3.236   8.410 -0.5889 -0.1346 -0.0157
  384MOL0     C52865  10.123   3.204   8.500  0.7377  0.3880  0.2955
  384MOL0     C52866  10.168   3.319   8.593  0.9012  0.3194  0.1089
  384MOL0     C52867  10.274   3.267   8.694 -0.6081  0.5525 -0.0907
  384MOL0     C52868  10.315   3.368   8.803  0.7538 -0.5145  0.5958
  384MOL0     C52869  10.340   3.503   8.737  0.1269 -0.5394  0.4242
  384MOL0     C52870  10.404   3.610   8.817 -0.3594  0.0527  0.2991
  384MOL0     N52871  10.437   3.729   8.732 -0.5737 -0.3860  0.4247
  384MOL0     C52872  10.412   3.861   8.756 -0.2696 -1.4348  0.0538
  384MOL0     C52873  10.415   3.931   8.640 -0.8775 -0.6228 -0.4303
  384MOL0     C52874  10.397   4.073   8.613  0.6018  0.5765  0.0062
  384MOL0     C52875  10.525   4.139   8.574 -1.2096 -0.3469  0.6026
  384MOL0     C52876  10.598   4.192   8.707 -0.1243  0.4415  0.3713
  384MOL0     C52877  10.735   4.265   8.695 -0.5550  0.6204  0.1728
  384MOL0     O52878  10.825   4.172   8.639  0.6802 -0.1026  0.6474
  384MOL0     C52879  10.952   4.211   8.644 -0.7045 -0.2148 -0.1497
  384MOL0     C52880  10.985   4.319   8.577 -0.0999 -0.7907  0.4087
  384MOL0     C52881  11.125   4.348   8.553 -0.1090 -0.2783  0.1321
  384MOL0     C52882  11.154   4.449   8.441  0.1061 -0.4305 -0.6032
  384MOL0     C52883  11.220   4.275   8.631 -0.7342 -0.6081 -0.1055
  384MOL0     C52884  11.375   4.295   8.620 -0.3060  1.6512  0.1771
  384MOL0     O52885  11.459   4.213   8.693 -0.7793 -0.5658  0.3187
  384MOL0     C52886  11.593   4.240   8.702  1.0546 -0.8357 -0.2510
  384MOL0     C52887  11.678   4.135   8.711 -0.3860 -0.2672  0.3622
  384MOL0     C52888  11.813   4.156   8.730  0.3779 -0.7811 -0.5215
  384MOL0     C52889  11.870   4.285   8.747 -0.3434  0.0854  0.0896
  384MOL0     O52890  12.000   4.316   8.773  0.8634  0.0592 -0.6826
  384MOL0     C52891  12.088   4.209   8.787  0.3836  0.3925  0.4021
  384MOL0     C52892  12.224   4.262   8.821  0.1451  0.9166 -0.3626
  384MOL0     C52893  12.321   4.153   8.857 -0.3616 -0.1816  0.7624
  384MOL0     C52894  12.342   4.042   8.763 -0.9659 -0.2645 -0.0838
  384MOL0     C52895  12.442   3.939   8.804 -0.3100 -0.6291  0.2051
  384MOL0     C52896  12.450   3.823   8.705 -0.3269 -0.2806 -0.3085
  384MOL0     C52897  12.517   3.712   8.779 -0.2311  0.1936  0.2124
  384MOL0     C52898  12.442   3.580   8.760 -0.7576 -0.5870 -0.6306
  384MOL0    Cl52899  12.470   3.557   8.583 -0.2402  0.2908 -0.1410
  384MOL0     C52900  11.780   4.385   8.735  0.6381 -0.1608  0.6445
  384MOL0     C52901  11.641   4.364   8.724  0.0029  0.1319 -0.6173
  384MOL0     O52902  11.412   4.384   8.549 -0.2881 -0.5534  1.3048
  384MOL0     C52903  11.176   4.170   8.711  0.2758 -0.1835  0.0243
  384MOL0     C52904  11.045   4.135   8.725 -0.7486 -0.7845 -0.4506
  384MOL0     N52905  10.435   3.838   8.542 -0.3959  0.3311  0.2666
  384MOL0     N52906  10.444   3.722   8.596 -0.9251  0.2398 -0.3442
  384MOL0     C52907   9.665   2.973   8.491  0.3631  0.0215 -0.4650
  384MOL0     C52908   9.526   2.994   8.492 -0.9400  1.3549 -0.1553
  384MOL0     C52909   9.108   3.037   8.371  0.3948  0.1306 -1.1213
  384MOL0     C52910   9.026   2.932   8.331  1.3165 -0.2031 -0.2674
  384MOL0     C52911   8.887   2.929   8.352  0.7030  0.0060 -0.0924
  384MOL0     C52912   8.821   3.048   8.397 -1.1862 -0.4900 -0.3892
  384MOL0     O52913   8.687   3.073   8.397  0.2361 -0.1301  0.0944
  384MOL0     C52914   8.615   3.022   8.283  0.2685  1.1618  0.0757
  384MOL0     C52915   8.467   3.047   8.286 -0.3628 -0.9317 -0.7646
  384MOL0     C52916   8.441   3.196   8.272 -0.4503 -0.1789  0.7712
  384MOL0     C52917   8.285   3.225   8.289 -0.1725  0.5279 -0.1480
  384MOL0     C52918   8.258   3.358   8.268 -0.5698 -0.8583 -0.6197
  384MOL0     C52919   8.223   3.475   8.232  0.5014 -0.0635 -1.1083
  384MOL0     C52920   8.902   3.155   8.424 -0.3182  0.3174  0.1165
  384MOL0     C52921   9.043   3.158   8.414  0.1972 -0.3113  0.0679
  384MOL0     C52922   9.116   3.288   8.461  0.8718  0.0944  0.0265
  384MOL0     H52923   9.484   3.264   8.300  0.5043  0.8088 -0.5058
  384MOL0     H52924   9.738   3.264   8.313 -0.3855  1.6409  1.6610
  384MOL0     H52925   9.931   3.128   8.231 -2.0360 -2.0965 -0.0027
  384MOL0     H52926  10.052   3.049   8.333  0.9670  0.8756  1.2787
  384MOL0     H52927  10.040   3.305   8.335 -0.2655  0.6028  0.8124
  384MOL0     H52928   9.913   3.284   8.458 -0.1114  0.2591  0.4605
  384MOL0     H52929  10.097   3.123   8.569 -0.4051  0.1808 -0.3563
  384MOL0     H52930  10.204   3.171   8.433  0.7494  0.2886  0.3577
  384MOL0     H52931  10.211   3.398   8.531  1.6836  0.6060  0.9952
  384MOL0     H52932  10.086   3.351   8.658  0.8513 -0.0938  0.2504
  384MOL0     H52933  10.364   3.236   8.641 -3.2185 -1.5689 -3.6996
  384MOL0     H52934  10.236   3.175   8.738  0.3349  0.4576  0.5724
  384MOL0     H52935  10.233   3.385   8.872  1.0438 -2.1170  1.3707
  384MOL0     H52936  10.404   3.327   8.850  2.2494 -0.3333 -1.8549
  384MOL0     H52937  10.246   3.543   8.699  0.5424 -1.1039 -1.2703
  384MOL0     H52938  10.415   3.487   8.658  0.8680 -5.6443  1.8171
  384MOL0     H52939  10.334   3.630   8.899 -1.5390  1.9040 -1.0853
  384MOL0     H52940  10.501   3.587   8.862  0.8102  1.6749 -1.2548
  384MOL0     H52941  10.386   3.902   8.853 -1.1918  1.1284 -1.2045
  384MOL0     H52942  10.349   4.115   8.701 -1.0032  0.5469 -0.8248
  384MOL0     H52943  10.307   4.090   8.553 -0.9841 -0.4339  2.0056
  384MOL0     H52944  10.587   4.063   8.525 -3.8649 -1.2631 -1.5618
  384MOL0     H52945  10.523   4.224   8.505  3.1778 -0.6138 -0.1676
  384MOL0     H52946  10.528   4.258   8.761  0.9624 -0.2871  2.8045
  384MOL0     H52947  10.615   4.107   8.773 -1.6001  0.5982  0.9859
  384MOL0     H52948  10.724   4.341   8.618 -0.0438  0.7892  0.2690
  384MOL0     H52949  10.768   4.289   8.796 -0.3332 -1.7958  0.7537
  384MOL0     H52950  10.904   4.355   8.514  1.0053 -0.0475 -0.6354
  384MOL0     H52951  11.090   4.416   8.358 -1.4267 -1.5417  0.9438
  384MOL0     H52952  11.253   4.456   8.394 -0.1327 -0.0773 -1.0617
  384MOL0     H52953  11.133   4.553   8.468  0.1901 -0.4655 -0.3984
  384MOL0     H52954  11.638   4.034   8.709 -0.1684 -0.4301  2.2856
  384MOL0     H52955  11.889   4.078   8.726 -0.1364 -1.3943  0.8655
  384MOL0     H52956  12.057   4.150   8.874  1.3363 -1.4455 -0.4445
  384MOL0     H52957  12.087   4.159   8.690  2.7440 -1.5682  1.2749
  384MOL0     H52958  12.277   4.329   8.752  0.1225  1.6236  0.3003
  384MOL0     H52959  12.209   4.330   8.905 -0.3388  1.2072 -0.6796
  384MOL0     H52960  12.273   4.110   8.946 -2.3899  2.9672  1.3278
  384MOL0     H52961  12.417   4.193   8.889 -0.2786  2.0477 -1.9219
  384MOL0     H52962  12.387   4.084   8.672  1.4494 -3.2691 -0.4503
  384MOL0     H52963  12.244   3.994   8.755 -1.4618 -0.0788  3.4649
  384MOL0     H52964  12.539   3.990   8.804 -0.3882 -0.4804  0.2367
  384MOL0     H52965  12.414   3.899   8.902  3.5338 -0.2203  1.6749
  384MOL0     H52966  12.508   3.842   8.614  0.6037  1.0029  0.5171
  384MOL0     H52967  12.347   3.814   8.671 -1.2399  2.4749  1.4125
  384MOL0     H52968  12.527   3.728   8.886  3.4934 -1.8778  0.3591
  384MOL0     H52969  12.622   3.703   8.749 -0.2424 -1.7634  0.6340
  384MOL0     H52970  12.335   3.575   8.781 -0.7078  0.4316 -0.0170
  384MOL0     H52971  12.492   3.503   8.819 -3.0464 -0.2746  1.8786
  384MOL0     H52972  11.823   4.484   8.744 -1.3420  0.9132 -1.0698
  384MOL0     H52973  11.565   4.442   8.726 -0.5983 -0.4465 -0.3641
  384MOL0     H52974  11.252   4.109   8.760  1.3714  2.1086  1.3705
  384MOL0     H52975  11.016   4.060   8.797 -0.3796  0.6204  1.2405
  384MOL0     H52976   9.707   2.880   8.529  3.7671  0.6707 -2.2787
  384MOL0     H52977   9.451   2.936   8.545  0.5177 -0.3682  0.1133
  384MOL0     H52978   9.073   2.852   8.276  0.0366 -3.2107  2.6589
  384MOL0     H52979   8.836   2.840   8.315 -0.1075  0.0972  0.7432
  384MOL0     H52980   8.657   3.071   8.195  0.3171 -0.2390 -0.7043
  384MOL0     H52981   8.636   2.915   8.272  0.7622  1.1197  1.2955
  384MOL0     H52982   8.427   3.020   8.384  0.5526  1.5788  0.3916
  384MOL0     H52983   8.428   2.977   8.212 -1.9256 -3.2549  2.0529
  384MOL0     H52984   8.492   3.257   8.347  0.6681 -0.5814  0.3711
  384MOL0     H52985   8.481   3.232   8.177  0.3770 -1.5042  0.5938
  384MOL0     H52986   8.257   3.213   8.394  3.5989  2.4254  1.2770
  384MOL0     H52987   8.220   3.162   8.227 -1.2075 -0.0713  1.4749
  384MOL0     H52988   8.206   3.575   8.199 -0.2774 -0.4367 -1.8922
  384MOL0     H52989   8.855   3.246   8.459  1.0316  0.4129  1.8778
  384MOL0     H52990   9.161   3.279   8.560  1.8893  0.2367 -0.4090
  384MOL0     H52991   9.190   3.324   8.390  1.0210  1.5722  0.9003
  384MOL0     H52992   9.051   3.375   8.465 -0.3679 -0.8580  1.6625
  385MOL0     O52993   5.613   7.679   9.143 -0.9771  1.3429 -0.1263
  385MOL0     C52994   5.583   7.724   9.249 -0.3353 -0.8542 -0.6057
  385MOL0     O52995   5.635   7.685   9.379 -0.5106 -0.0103 -0.5251
  385MOL0     C52996   5.719   7.578   9.370 -0.0024  0.2544  0.1301
  385MOL0     C52997   5.858   7.612   9.355  0.2777  0.6256 -0.5574
  385MOL0     C52998   5.956   7.520   9.381  0.1966  0.1518 -0.1331
  385MOL0     C52999   5.920   7.385   9.404 -0.2542 -0.4108 -0.3610
  385MOL0     O53000   6.005   7.281   9.429  0.3749 -0.4371  0.1366
  385MOL0     C53001   6.108   7.308   9.519 -0.1928  0.4165 -0.4564
  385MOL0     C53002   6.220   7.213   9.511  0.8000 -0.0867 -0.5121
  385MOL0     C53003   6.263   7.205   9.365 -0.3493  1.1084  0.4004
  385MOL0     C53004   6.388   7.122   9.351 -0.1382 -0.4835  0.3015
  385MOL0     C53005   6.468   7.150   9.213 -0.0011 -0.2917 -0.1569
  385MOL0     C53006   6.554   7.026   9.164 -0.7768 -0.3962  0.0468
  385MOL0     C53007   6.667   6.989   9.261  1.1678 -0.2853 -0.6298
  385MOL0     C53008   6.755   6.879   9.216  0.5551  0.2331 -0.2112
  385MOL0     N53009   6.675   6.770   9.163  0.0540  0.2430  1.5338
  385MOL0     C53010   6.649   6.729   9.035 -0.4136 -0.5431 -0.2277
  385MOL0     C53011   6.604   6.605   9.037 -0.1306  0.7091 -0.0563
  385MOL0     C53012   6.577   6.523   8.907  0.2971 -0.1682 -0.9411
  385MOL0     C53013   6.456   6.434   8.929 -0.1463 -0.3156 -0.6615
  385MOL0     C53014   6.417   6.336   8.815  0.4273  0.5903  0.6966
  385MOL0     C53015   6.547   6.262   8.777  0.5704 -0.2772 -0.0683
  385MOL0     O53016   6.527   6.147   8.690  0.5174  0.2435 -0.3899
  385MOL0     C53017   6.485   6.025   8.734  0.5686  1.4674 -0.7554
  385MOL0     C53018   6.473   5.987   8.873  0.2708 -0.0653  0.0308
  385MOL0     C53019   6.452   5.855   8.921  0.0001 -0.2849 -0.5154
  385MOL0     C53020   6.455   5.837   9.070  0.0616  0.4142 -0.3821
  385MOL0     C53021   6.409   5.752   8.830  0.1823  0.3130  0.2122
  385MOL0     C53022   6.377   5.602   8.869  0.7205 -0.0599 -0.2077
  385MOL0     O53023   6.365   5.513   8.768 -0.1103 -0.4614  0.0347
  385MOL0     C53024   6.382   5.381   8.791  0.3179 -0.4414  0.9132
  385MOL0     C53025   6.264   5.307   8.812 -0.4332 -0.4548  1.3473
  385MOL0     C53026   6.266   5.165   8.840 -1.1847  0.1807  0.4533
  385MOL0     C53027   6.390   5.100   8.841 -0.8043 -0.4148 -0.1086
  385MOL0     O53028   6.412   4.960   8.831  0.7017 -0.4907 -0.4507
  385MOL0     C53029   6.309   4.862   8.856  0.2641  0.5482 -0.3240
  385MOL0     C53030   6.293   4.834   9.006 -0.3687 -0.9385  0.7289
  385MOL0     C53031   6.208   4.713   9.040  0.2865  1.0344  0.3107
  385MOL0     C53032   6.276   4.580   9.065  0.4638  0.0043 -0.0350
  385MOL0     C53033   6.181   4.459   9.082 -0.0262  0.1924  0.1072
  385MOL0     C53034   6.265   4.331   9.108  0.7411 -0.3537  0.0027
  385MOL0     C53035   6.176   4.216   9.173 -0.4488  0.2356  1.0891
  385MOL0     C53036   6.251   4.088   9.205 -0.0167 -0.3376 -0.1111
  385MOL0    Cl53037   6.400   4.106   9.297 -0.3101 -0.3945 -0.1968
  385MOL0     C53038   6.504   5.183   8.840 -0.6001  0.5711  0.1832
  385MOL0     C53039   6.494   5.317   8.819 -0.5408  1.2116 -0.3522
  385MOL0     O53040   6.365   5.579   8.989  0.1535  0.6822 -0.1619
  385MOL0     C53041   6.416   5.790   8.693  0.4234 -0.5682 -0.8329
  385MOL0     C53042   6.445   5.923   8.641 -0.3900 -0.6737  0.4330
  385MOL0     N53043   6.587   6.569   9.171  0.5800 -0.3971  0.0242
  385MOL0     N53044   6.630   6.668   9.237  0.4752 -0.3602  0.0689
  385MOL0     C53045   5.788   7.353   9.427  0.3287 -0.5955  0.7122
  385MOL0     C53046   5.689   7.449   9.407  0.4330 -0.3032  0.8859
  385MOL0     C53047   5.478   7.824   9.251  1.1585 -0.0076 -0.8312
  385MOL0     C53048   5.479   7.915   9.144 -0.6294  0.7437  0.3927
  385MOL0     C53049   5.391   8.024   9.148 -0.9703  0.2728 -0.2468
  385MOL0     C53050   5.299   8.042   9.244  0.7184  0.3770 -0.7811
  385MOL0     O53051   5.214   8.143   9.218  0.7890 -0.0650  0.0170
  385MOL0     C53052   5.077   8.124   9.260  0.1711  0.4943  0.1895
  385MOL0     C53053   4.976   8.200   9.169 -0.2545 -0.2722 -0.2947
  385MOL0     C53054   4.977   8.159   9.019 -0.3992 -0.5361  0.4509
  385MOL0     C53055   5.007   8.017   8.985  0.5358 -0.1849  0.6048
  385MOL0     C53056   4.907   7.924   9.051  0.9955 -1.1051 -0.1078
  385MOL0     C53057   4.810   7.874   9.103  0.2543 -0.0096  0.5492
  385MOL0     C53058   5.288   7.949   9.343 -0.0918  0.3943  1.0854
  385MOL0     C53059   5.381   7.843   9.357 -0.2616  0.2880  0.2351
  385MOL0     C53060   5.370   7.750   9.471 -0.1303  0.1845 -0.6702
  385MOL0     H53061   5.891   7.713   9.334 -1.2562  1.2634 -0.0481
  385MOL0     H53062   6.059   7.554   9.380 -0.3571  2.4295  2.9210
  385MOL0     H53063   6.074   7.314   9.623 -4.1699 -1.2586 -1.4635
  385MOL0     H53064   6.151   7.407   9.502  1.5987 -0.0258  1.1316
  385MOL0     H53065   6.298   7.251   9.578 -0.0876  3.2258 -1.1839
  385MOL0     H53066   6.181   7.115   9.541 -2.4647 -0.0067 -3.7351
  385MOL0     H53067   6.187   7.160   9.300 -2.8408  1.2138  3.0319
  385MOL0     H53068   6.282   7.305   9.326  2.8670  1.4152  2.3607
  385MOL0     H53069   6.450   7.152   9.436  1.5407 -0.2181 -0.9691
  385MOL0     H53070   6.366   7.016   9.362 -1.2882 -0.5305 -1.8924
  385MOL0     H53071   6.525   7.244   9.206  4.6144 -2.4501  3.3456
  385MOL0     H53072   6.386   7.157   9.141 -1.9021  2.2193  2.0588
  385MOL0     H53073   6.488   6.938   9.161 -0.9817 -0.2758  0.8355
  385MOL0     H53074   6.594   7.046   9.065  0.1482 -0.9294  0.2959
  385MOL0     H53075   6.623   6.957   9.356  2.2564 -2.1446 -0.7170
  385MOL0     H53076   6.732   7.076   9.277  1.0385 -0.0348 -1.4370
  385MOL0     H53077   6.826   6.901   9.135  0.9899 -3.3302 -0.9409
  385MOL0     H53078   6.815   6.853   9.303 -1.6862  0.2860  1.4392
  385MOL0     H53079   6.676   6.784   8.945 -0.4068 -0.2214 -0.0300
  385MOL0     H53080   6.675   6.478   8.891  0.3139 -0.2264 -0.6757
  385MOL0     H53081   6.558   6.594   8.825  1.4528  0.0159 -1.0690
  385MOL0     H53082   6.474   6.378   9.021  0.3267  1.0961  0.1370
  385MOL0     H53083   6.380   6.508   8.955  0.6581  0.2123  0.2484
  385MOL0     H53084   6.340   6.265   8.847 -2.3945  1.5217 -3.1991
  385MOL0     H53085   6.371   6.378   8.725  0.0508 -0.6807  0.2708
  385MOL0     H53086   6.626   6.323   8.732  0.6956 -1.4331 -1.4924
  385MOL0     H53087   6.586   6.215   8.869  0.3427 -1.6905 -0.6719
  385MOL0     H53088   6.495   6.056   8.954  2.1513 -2.4343  1.7004
  385MOL0     H53089   6.478   5.933   9.116  2.7661 -0.5558  0.4462
  385MOL0     H53090   6.527   5.767   9.113  1.0258  1.6712  0.1091
  385MOL0     H53091   6.355   5.812   9.107  0.4456  1.9696  1.8757
  385MOL0     H53092   6.166   5.353   8.817  0.0176  0.5345  1.1912
  385MOL0     H53093   6.169   5.124   8.867 -1.2481 -3.7701 -4.3784
  385MOL0     H53094   6.207   4.861   8.816 -0.1908 -3.8845  0.4142
  385MOL0     H53095   6.336   4.761   8.823 -0.6536 -0.1042  0.8591
  385MOL0     H53096   6.393   4.829   9.051  0.0408  1.6837  0.3200
  385MOL0     H53097   6.254   4.930   9.042  0.1468 -0.7449  0.7889
  385MOL0     H53098   6.139   4.708   8.955  0.4436 -1.5607  0.2662
  385MOL0     H53099   6.142   4.745   9.121  0.2083  0.3926  0.5064
  385MOL0     H53100   6.346   4.581   9.149  0.5587 -0.0063 -0.1151
  385MOL0     H53101   6.326   4.563   8.969 -0.4824  0.4806 -0.6276
  385MOL0     H53102   6.112   4.477   9.165  1.0811 -2.5476  1.7822
  385MOL0     H53103   6.125   4.450   8.989 -1.4628  2.9377  0.6051
  385MOL0     H53104   6.352   4.361   9.166 -0.8010  2.9826  0.7965
  385MOL0     H53105   6.303   4.302   9.009  3.1759  2.0862  0.1210
  385MOL0     H53106   6.111   4.184   9.092  1.0963 -0.6256  0.1378
  385MOL0     H53107   6.121   4.259   9.257 -1.3299  1.6328 -0.1548
  385MOL0     H53108   6.275   4.035   9.112 -0.5106  0.2721 -0.6035
  385MOL0     H53109   6.189   4.026   9.271 -2.4361  1.0094 -0.9723
  385MOL0     H53110   6.598   5.128   8.841 -1.2859 -0.7429 -1.3147
  385MOL0     H53111   6.583   5.378   8.812  0.3048  0.1904  0.9557
  385MOL0     H53112   6.382   5.722   8.615  2.3153  0.5049 -2.7065
  385MOL0     H53113   6.457   5.933   8.534  0.8302  0.8726  0.6868
  385MOL0     H53114   5.770   7.251   9.458  3.2961 -1.3461  0.2324
  385MOL0     H53115   5.583   7.424   9.415  0.4763 -1.8110 -2.0758
  385MOL0     H53116   5.569   7.910   9.083  0.5675 -0.2991  2.1466
  385MOL0     H53117   5.402   8.107   9.079  1.1021 -0.2319 -0.5690
  385MOL0     H53118   5.051   8.019   9.273  0.6667  0.2834 -0.5187
  385MOL0     H53119   5.069   8.167   9.361 -0.6647  0.6946  0.0440
  385MOL0     H53120   4.993   8.308   9.170  2.6418 -0.6559 -0.2289
  385MOL0     H53121   4.876   8.185   9.212  0.8897  2.8641  4.2842
  385MOL0     H53122   4.885   8.186   8.967 -0.4028 -4.6314 -2.0677
  385MOL0     H53123   5.050   8.225   8.971 -4.6097  4.1327 -0.4776
  385MOL0     H53124   5.112   8.005   9.013  1.1269 -0.6787 -1.6814
  385MOL0     H53125   5.000   8.011   8.876 -1.6393 -1.8846  0.7647
  385MOL0     H53126   4.719   7.839   9.148 -1.1440  1.0455 -1.3336
  385MOL0     H53127   5.213   7.964   9.420 -1.4951  3.4818 -0.7086
  385MOL0     H53128   5.287   7.778   9.537  0.6097 -1.8469  1.2594
  385MOL0     H53129   5.358   7.649   9.429 -4.2489  1.7539 -3.9725
  385MOL0     H53130   5.459   7.752   9.535 -1.7590  1.3740  1.7323
  386MOL0     O53131   3.356   6.065  10.559 -0.6209  0.6400 -0.2731
  386MOL0     C53132   3.421   6.031  10.459  0.0406 -0.0005  0.6689
  386MOL0     O53133   3.533   5.952  10.455  0.0025  0.7043 -0.8734
  386MOL0     C53134   3.583   5.878  10.569  1.6706 -0.5240  0.4293
  386MOL0     C53135   3.515   5.849  10.688 -0.3548  0.1158 -1.0863
  386MOL0     C53136   3.580   5.792  10.801  1.0360 -0.7364  0.5713
  386MOL0     C53137   3.718   5.776  10.799  0.1396  0.3339  0.2581
  386MOL0     O53138   3.767   5.730  10.916 -0.4962 -0.2743 -0.8868
  386MOL0     C53139   3.907   5.737  10.942  0.2506  0.2513  0.0200
  386MOL0     C53140   3.934   5.698  11.078  0.4951 -0.4566 -0.2872
  386MOL0     C53141   3.819   5.731  11.179  0.4010  0.6303  0.1226
  386MOL0     C53142   3.862   5.704  11.324 -0.0458 -0.4348  0.4282
  386MOL0     C53143   3.971   5.807  11.360  0.3641 -0.3434 -0.0720
  386MOL0     C53144   3.997   5.823  11.509  0.1790 -0.3969 -0.9464
  386MOL0     C53145   4.121   5.904  11.553  0.0495  0.0818  0.1429
  386MOL0     C53146   4.103   5.935  11.700  0.8424 -0.0173  0.0460
  386MOL0     N53147   4.228   6.004  11.741 -0.8522  0.4292 -0.4559
  386MOL0     C53148   4.349   5.946  11.767 -0.5722 -0.2785  0.3056
  386MOL0     C53149   4.436   6.049  11.803  0.6810  0.5397  0.8796
  386MOL0     C53150   4.577   6.035  11.828  0.2532  0.3356 -0.6692
  386MOL0     C53151   4.591   5.977  11.968 -0.1595 -0.2880  0.0416
  386MOL0     C53152   4.747   5.968  12.000  0.7383  0.6774  0.1796
  386MOL0     C53153   4.754   5.952  12.144 -0.1000  0.7428 -0.1305
  386MOL0     O53154   4.778   5.814  12.175 -0.0896 -0.1595  0.3776
  386MOL0     C53155   4.768   5.768  12.306  0.0205  0.3177 -0.9593
  386MOL0     C53156   4.715   5.837  12.422 -0.2196  0.5475  0.3301
  386MOL0     C53157   4.723   5.789  12.550  0.9068  0.2697 -0.5942
  386MOL0     C53158   4.697   5.880  12.667 -0.2434 -0.8008 -0.8423
  386MOL0     C53159   4.752   5.657  12.569 -0.1817  0.3003  0.3109
  386MOL0     C53160   4.736   5.584  12.696  0.2332 -0.0902 -0.8174
  386MOL0     O53161   4.695   5.457  12.682  1.0376  0.3712 -0.0832
  386MOL0     C53162   4.664   5.389  12.800  0.2401  0.3360  0.8468
  386MOL0     C53163   4.768   5.336  12.874 -0.0080 -0.7423  0.7009
  386MOL0     C53164   4.734   5.261  12.980  1.0058  0.2234 -1.0915
  386MOL0     C53165   4.598   5.229  13.016 -0.1674  0.1671 -0.2943
  386MOL0     O53166   4.585   5.127  13.112 -1.3908  0.4014  0.6126
  386MOL0     C53167   4.451   5.095  13.145 -0.2250  0.9957 -0.1142
  386MOL0     C53168   4.448   4.981  13.246  0.2828 -0.1241 -0.3006
  386MOL0     C53169   4.317   4.982  13.323 -0.0328  0.2961 -0.2171
  386MOL0     C53170   4.312   4.893  13.451  0.1714 -0.1145  0.0850
  386MOL0     C53171   4.182   4.888  13.533  0.9496 -0.1115 -0.1942
  386MOL0     C53172   4.201   4.786  13.653  0.1555 -0.4595 -0.1231
  386MOL0     C53173   4.076   4.778  13.740 -0.6267  0.8596  0.7050
  386MOL0     C53174   4.089   4.661  13.834 -0.4793  0.0190 -0.3341
  386MOL0    Cl53175   4.214   4.701  13.950  0.0747 -0.2083 -0.2772
  386MOL0     C53176   4.500   5.288  12.947 -0.1969 -0.0814 -0.5080
  386MOL0     C53177   4.531   5.365  12.835 -0.4763 -0.3399 -0.4737
  386MOL0     O53178   4.789   5.625  12.795  0.8146  0.2451 -0.1996
  386MOL0     C53179   4.797   5.584  12.450  0.5941  0.7210 -0.7399
  386MOL0     C53180   4.802   5.638  12.327  0.2831 -0.6319  0.5112
  386MOL0     N53181   4.369   6.168  11.790 -0.0923  0.0910 -0.4757
  386MOL0     N53182   4.243   6.138  11.765 -0.8889  0.0042  0.5890
  386MOL0     C53183   3.794   5.803  10.685 -0.1822  0.9313  0.1705
  386MOL0     C53184   3.722   5.844  10.568 -0.0351  0.3177 -0.7818
  386MOL0     C53185   3.365   6.093  10.331  0.7415  0.7660 -0.5497
  386MOL0     C53186   3.283   6.217  10.342  0.6196  0.0670  0.1607
  386MOL0     C53187   3.243   6.295  10.237 -1.0202 -0.6868  0.5720
  386MOL0     C53188   3.274   6.253  10.109 -0.0930 -0.3325  0.2170
  386MOL0     O53189   3.229   6.331  10.001 -0.3729 -0.0847  0.4280
  386MOL0     C53190   3.211   6.261   9.880  0.8650  0.3457  0.7981
  386MOL0     C53191   3.108   6.340   9.798  0.2661  0.3967 -0.9439
  386MOL0     C53192   2.971   6.336   9.867  0.9242  1.0206 -0.1553
  386MOL0     C53193   2.934   6.474   9.929  0.3656 -0.3846  0.1958
  386MOL0     C53194   2.796   6.471   9.978 -0.4500  0.2036 -0.3227
  386MOL0     C53195   2.690   6.474  10.037  0.2266  0.5542 -0.2839
  386MOL0     C53196   3.348   6.135  10.097 -0.6666 -1.2216  0.2260
  386MOL0     C53197   3.392   6.052  10.202  0.2947  0.5632 -0.9052
  386MOL0     C53198   3.454   5.919  10.171  0.0073  0.0156  0.0251
  386MOL0     H53199   3.408   5.862  10.695 -0.6211 -2.1860  0.2695
  386MOL0     H53200   3.524   5.784  10.894  1.8028 -0.5806  1.0588
  386MOL0     H53201   3.937   5.842  10.941  1.1874 -0.0051 -0.3269
  386MOL0     H53202   3.968   5.685  10.867 -0.7156 -0.1535 -0.5028
  386MOL0     H53203   3.954   5.591  11.077  0.5289 -0.4580  0.1812
  386MOL0     H53204   4.024   5.755  11.100 -0.1819  0.2877  0.6816
  386MOL0     H53205   3.800   5.839  11.173 -0.9237  0.6783  3.2220
  386MOL0     H53206   3.727   5.677  11.158 -0.1724  1.2906  0.8762
  386MOL0     H53207   3.774   5.720  11.387 -1.5004  0.3108 -1.6764
  386MOL0     H53208   3.914   5.609  11.335  3.3592  1.3654  1.3110
  386MOL0     H53209   3.938   5.904  11.320  2.5607  1.4453  2.1610
  386MOL0     H53210   4.061   5.789  11.300  0.8433  3.2974 -0.6625
  386MOL0     H53211   3.910   5.873  11.551  0.9950 -1.1591  1.8846
  386MOL0     H53212   3.998   5.729  11.565 -1.3175  1.9299  3.4394
  386MOL0     H53213   4.133   5.998  11.499  0.7308 -1.3486 -2.3751
  386MOL0     H53214   4.209   5.841  11.537 -0.8527 -0.7376 -2.0893
  386MOL0     H53215   4.014   5.996  11.714  1.3418  0.6506  0.3474
  386MOL0     H53216   4.089   5.845  11.762 -3.9844  0.6875  0.3060
  386MOL0     H53217   4.380   5.843  11.749 -3.1021 -0.6841 -2.3378
  386MOL0     H53218   4.637   6.127  11.825 -1.2591  1.4649  1.1628
  386MOL0     H53219   4.623   5.964  11.758  2.5843 -0.3376  1.4090
  386MOL0     H53220   4.532   6.043  12.032 -2.5773 -1.7760 -0.4733
  386MOL0     H53221   4.552   5.875  11.970  0.2598 -0.4602 -0.3946
  386MOL0     H53222   4.809   5.892  11.952  2.6703  0.9008  2.1848
  386MOL0     H53223   4.791   6.064  11.971 -0.1044  0.1776 -3.2305
  386MOL0     H53224   4.834   6.008  12.193  0.6629  0.5884 -1.1546
  386MOL0     H53225   4.663   5.991  12.191  0.0650  0.4782  0.4123
  386MOL0     H53226   4.697   5.942  12.404  0.8157  0.4681 -1.4207
  386MOL0     H53227   4.674   5.982  12.636  2.5418 -0.6762 -2.8139
  386MOL0     H53228   4.783   5.881  12.734 -0.8537  0.0008 -0.0525
  386MOL0     H53229   4.609   5.847  12.723 -2.0016  5.4587  0.8674
  386MOL0     H53230   4.871   5.350  12.844  0.1473 -1.4227  0.9048
  386MOL0     H53231   4.800   5.205  13.045  0.9266 -0.0155 -1.2158
  386MOL0     H53232   4.415   5.186  13.195  0.7922 -0.1328  2.9307
  386MOL0     H53233   4.385   5.074  13.060  0.2803  0.6009 -0.4138
  386MOL0     H53234   4.456   4.893  13.182 -0.8584 -0.5108  0.0565
  386MOL0     H53235   4.535   4.975  13.312  0.7575 -1.8798 -1.0353
  386MOL0     H53236   4.247   4.952  13.245  1.4709 -2.8086 -0.5595
  386MOL0     H53237   4.288   5.080  13.361  2.1420  1.4881 -1.4426
  386MOL0     H53238   4.392   4.909  13.524 -3.2762 -0.9624  4.5201
  386MOL0     H53239   4.322   4.789  13.420 -2.7802 -0.4622  0.0504
  386MOL0     H53240   4.157   4.990  13.563  1.8045 -0.0916  0.5098
  386MOL0     H53241   4.097   4.864  13.468  0.8972  1.0971 -0.5989
  386MOL0     H53242   4.294   4.803  13.707  1.0463 -2.9908 -0.6836
  386MOL0     H53243   4.222   4.684  13.618  5.1107 -0.3392  1.7888
  386MOL0     H53244   3.991   4.770  13.671  0.7004  2.7699 -1.3250
  386MOL0     H53245   4.058   4.877  13.784 -2.0903  0.8306  0.2356
  386MOL0     H53246   4.111   4.567  13.783 -0.4566 -1.0598  1.5616
  386MOL0     H53247   3.992   4.650  13.883 -0.8932 -1.9141 -1.5040
  386MOL0     H53248   4.397   5.276  12.977 -0.1926  0.5864 -0.2026
  386MOL0     H53249   4.452   5.401  12.770 -0.7453 -0.3990 -0.1821
  386MOL0     H53250   4.810   5.477  12.468  0.0428  0.9178  1.0527
  386MOL0     H53251   4.861   5.583  12.255 -0.1400  0.3656 -0.6183
  386MOL0     H53252   3.899   5.784  10.665 -0.6284  0.4563 -1.9839
  386MOL0     H53253   3.776   5.887  10.484 -1.0099 -0.0947 -1.6443
  386MOL0     H53254   3.262   6.262  10.438  1.2100  1.0485 -0.1595
  386MOL0     H53255   3.166   6.366  10.266  0.0819  0.3652  1.0305
  386MOL0     H53256   3.299   6.241   9.818 -0.9480 -2.0045 -1.2585
  386MOL0     H53257   3.164   6.165   9.903  0.9296  0.5225  1.6948
  386MOL0     H53258   3.102   6.296   9.698 -0.4134  0.3022 -0.8692
  386MOL0     H53259   3.126   6.444   9.770 -0.7371 -0.2030 -4.2391
  386MOL0     H53260   2.898   6.320   9.787  0.5232  0.0895  0.3951
  386MOL0     H53261   2.960   6.268   9.951  2.5857  1.3398  0.3608
  386MOL0     H53262   2.937   6.547   9.848 -1.3995 -0.6936 -0.1988
  386MOL0     H53263   3.006   6.499  10.007 -0.3119  1.7322  0.2080
  386MOL0     H53264   2.595   6.480  10.085 -0.0523 -0.9307 -0.6096
  386MOL0     H53265   3.366   6.092   9.999 -1.2406  0.0461 -0.4583
  386MOL0     H53266   3.430   5.882  10.071  1.3490 -1.6653  0.2632
  386MOL0     H53267   3.563   5.935  10.173  0.0241 -0.1930  1.6876
  386MOL0     H53268   3.428   5.844  10.246  0.6822 -0.6697 -0.4010
  387MOL0     O53269   4.313  11.359   9.114  0.0066  0.8219  0.1149
  387MOL0     C53270   4.371  11.443   9.180  0.0309 -0.2405 -0.6021
  387MOL0     O53271   4.479  11.516   9.133  0.0771 -0.3357  0.1001
  387MOL0     C53272   4.528  11.479   9.009 -0.3314 -0.1412 -0.4641
  387MOL0     C53273   4.588  11.362   8.997 -0.3422 -0.7590  0.1543
  387MOL0     C53274   4.631  11.322   8.870  0.2528  0.9405 -0.0664
  387MOL0     C53275   4.610  11.397   8.758  0.6689 -0.0383  0.8494
  387MOL0     O53276   4.649  11.332   8.640  0.0576 -0.1506  0.2482
  387MOL0     C53277   4.612  11.391   8.514 -0.5859 -0.3461  0.0886
  387MOL0     C53278   4.720  11.501   8.482 -0.7050 -0.1646  0.1728
  387MOL0     C53279   4.699  11.554   8.344 -0.7690  0.2726  0.1581
  387MOL0     C53280   4.783  11.682   8.319 -0.5974  0.0149  0.1848
  387MOL0     C53281   4.929  11.681   8.299  0.2448  0.0937  0.0384
  387MOL0     C53282   4.989  11.824   8.269  0.5413  1.0695  0.7252
  387MOL0     C53283   4.962  11.938   8.374  0.6263  0.0003  0.8435
  387MOL0     C53284   5.076  12.039   8.379 -0.7886 -0.4199  0.4357
  387MOL0     N53285   5.059  12.152   8.281 -0.6520  0.8142  0.5289
  387MOL0     C53286   5.076  12.135   8.146 -0.9848 -0.0187 -0.7696
  387MOL0     C53287   5.027  12.246   8.089  0.0966 -0.1057  0.1957
  387MOL0     C53288   5.027  12.277   7.940 -0.2602 -0.6683 -0.6714
  387MOL0     C53289   4.887  12.244   7.877 -0.7216  0.5315 -0.6174
  387MOL0     C53290   4.895  12.235   7.730  0.0264 -0.1316  0.4970
  387MOL0     C53291   4.932  12.357   7.654  0.5560 -0.7114  0.9895
  387MOL0     O53292   5.071  12.354   7.645 -0.8937  0.0549 -0.0903
  387MOL0     C53293   5.126  12.461   7.585  0.2353 -0.1317 -0.9340
  387MOL0     C53294   5.143  12.462   7.451 -0.4755  0.1742  0.0459
  387MOL0     C53295   5.199  12.582   7.394 -0.1710  0.1329 -0.2661
  387MOL0     C53296   5.230  12.589   7.247 -0.5943 -0.2073  0.8227
  387MOL0     C53297   5.238  12.697   7.479  0.5645  0.4620  0.8564
  387MOL0     C53298   5.311  12.817   7.434 -0.2213  0.8062 -0.2905
  387MOL0     O53299   5.411  12.788   7.350 -0.5445 -0.3492  0.3919
  387MOL0     C53300   5.496  12.892   7.326  0.1382 -0.6847 -0.2776
  387MOL0     C53301   5.558  12.969   7.427  0.0557  0.1541 -0.1466
  387MOL0     C53302   5.669  13.050   7.396 -0.7239 -1.0592  0.3335
  387MOL0     C53303   5.726  13.034   7.271  0.3054 -0.6361  1.1650
  387MOL0     O53304   5.841  13.107   7.267  0.2442  0.0697  0.0269
  387MOL0     C53305   5.941  13.032   7.196 -0.9207  0.0835 -0.0027
  387MOL0     C53306   6.072  13.103   7.189 -1.3352 -0.2593  0.8714
  387MOL0     C53307   6.163  13.090   7.312 -0.1996  0.3376 -0.6884
  387MOL0     C53308   6.096  13.139   7.440  0.3845 -0.4854 -0.4894
  387MOL0     C53309   6.198  13.163   7.560  0.2831 -0.3805  0.1094
  387MOL0     C53310   6.123  13.174   7.693  0.3523 -0.3869 -0.2572
  387MOL0     C53311   6.180  13.286   7.787 -0.2954 -0.2865 -0.0047
  387MOL0     C53312   6.087  13.309   7.910  0.1439  0.3242  0.0397
  387MOL0    Cl53313   6.159  13.220   8.050  0.0815 -0.6978  0.1619
  387MOL0     C53314   5.671  12.957   7.172 -0.0937  0.0914  0.2755
  387MOL0     C53315   5.554  12.888   7.196  0.8845 -0.2648  0.1451
  387MOL0     O53316   5.266  12.934   7.455 -0.7126  0.5191 -0.2722
  387MOL0     C53317   5.223  12.681   7.609 -0.2222 -0.0768  0.2455
  387MOL0     C53318   5.160  12.574   7.669 -0.1130  0.3029  0.5239
  387MOL0     N53319   4.968  12.326   8.184  0.2568  0.5254  0.0677
  387MOL0     N53320   4.988  12.264   8.292  0.5031  0.6468 -0.9755
  387MOL0     C53321   4.542  11.518   8.772 -0.6791  0.5515 -0.4642
  387MOL0     C53322   4.505  11.559   8.899  0.3887 -0.4875  0.8154
  387MOL0     C53323   4.305  11.474   9.312 -0.3368 -0.3070  0.4538
  387MOL0     C53324   4.173  11.429   9.333  0.4484  0.0611  0.1209
  387MOL0     C53325   4.099  11.466   9.453 -0.2795 -0.5957 -0.2704
  387MOL0     C53326   4.162  11.551   9.544  0.0051 -0.1740  0.5809
  387MOL0     O53327   4.115  11.603   9.659  0.3533  0.3238 -0.7472
  387MOL0     C53328   3.992  11.554   9.716  0.2967  0.5106  0.5877
  387MOL0     C53329   4.003  11.412   9.768  0.9582 -0.4888 -0.8677
  387MOL0     C53330   4.147  11.389   9.824 -0.3117 -0.5449 -0.8870
  387MOL0     C53331   4.187  11.266   9.912  0.7389  0.2476  0.2426
  387MOL0     C53332   4.179  11.138   9.847  0.6995 -0.6402 -0.0381
  387MOL0     C53333   4.165  11.026   9.806 -0.4103 -0.2617  0.2509
  387MOL0     C53334   4.290  11.595   9.518  0.1203  0.1463 -0.5686
  387MOL0     C53335   4.365  11.553   9.409  0.3306  0.1774 -0.0970
  387MOL0     C53336   4.518  11.577   9.411  0.2709  0.1871  0.7192
  387MOL0     H53337   4.605  11.301   9.085 -0.9240 -0.7581  0.2665
  387MOL0     H53338   4.683  11.227   8.863 -3.3263 -1.3482  1.5829
  387MOL0     H53339   4.512  11.434   8.501  0.2982  1.8391  0.0919
  387MOL0     H53340   4.624  11.316   8.435  0.1644  1.4640 -1.5778
  387MOL0     H53341   4.716  11.587   8.549 -2.6496  1.8058 -2.2822
  387MOL0     H53342   4.819  11.458   8.494 -0.3465  0.6578  0.2201
  387MOL0     H53343   4.752  11.488   8.275  3.2047  3.7884 -0.5563
  387MOL0     H53344   4.596  11.575   8.315  0.3219  3.6017 -1.8813
  387MOL0     H53345   4.742  11.716   8.223 -1.3694 -0.5833  0.2846
  387MOL0     H53346   4.770  11.754   8.399  0.1757 -0.0610  0.3789
  387MOL0     H53347   4.936  11.618   8.210 -0.9697  0.9321 -0.6798
  387MOL0     H53348   4.964  11.633   8.391 -0.1246 -1.0895 -0.4159
  387MOL0     H53349   5.097  11.806   8.266  0.1179 -1.8888  0.8404
  387MOL0     H53350   4.947  11.864   8.176  1.2050 -1.1231 -0.5708
  387MOL0     H53351   4.975  11.904   8.477  2.4259  2.1929  1.4207
  387MOL0     H53352   4.863  11.979   8.353  0.5162  0.2957  1.8912
  387MOL0     H53353   5.083  12.085   8.478 -0.3711 -0.3746  0.3896
  387MOL0     H53354   5.172  11.988   8.362 -0.7894 -0.3364  0.1774
  387MOL0     H53355   5.127  12.058   8.090  0.0348  0.0901 -0.0301
  387MOL0     H53356   5.101  12.213   7.890  0.7638 -1.4063  1.6311
  387MOL0     H53357   5.049  12.383   7.922  1.0543 -0.9807 -1.0387
  387MOL0     H53358   4.854  12.150   7.923  1.4737  1.0292  2.3214
  387MOL0     H53359   4.819  12.323   7.908 -1.2129 -0.7440  1.8267
  387MOL0     H53360   4.973  12.161   7.710 -0.0731  0.0811 -0.7174
  387MOL0     H53361   4.804  12.194   7.686 -0.6449  1.3750  0.4038
  387MOL0     H53362   4.884  12.352   7.556  0.9874 -2.0522  0.8275
  387MOL0     H53363   4.894  12.449   7.701  1.4832  0.7246 -0.9105
  387MOL0     H53364   5.111  12.378   7.389 -0.4907  0.3507 -0.1868
  387MOL0     H53365   5.197  12.495   7.203 -1.4880 -0.5850  2.2170
  387MOL0     H53366   5.337  12.596   7.225 -0.8991  0.4967 -0.5529
  387MOL0     H53367   5.192  12.670   7.185 -0.2261 -3.0057 -3.4289
  387MOL0     H53368   5.526  12.972   7.531  1.9136 -1.8724  0.5557
  387MOL0     H53369   5.711  13.117   7.470 -2.5942  1.7923 -0.9929
  387MOL0     H53370   5.952  12.928   7.228 -0.4884 -0.3730 -1.5607
  387MOL0     H53371   5.920  13.022   7.089  0.4385  0.9119 -0.3648
  387MOL0     H53372   6.119  13.057   7.101 -2.4976  0.1020  0.0372
  387MOL0     H53373   6.053  13.205   7.156 -2.6499 -0.8843 -0.4178
  387MOL0     H53374   6.251  13.153   7.296 -0.1246  0.2286 -0.7073
  387MOL0     H53375   6.192  12.985   7.317  0.3619  0.5374  3.2192
  387MOL0     H53376   6.015  13.074   7.473  0.6618 -0.2752  0.6648
  387MOL0     H53377   6.035  13.228   7.425 -1.3216 -1.3052  1.1645
  387MOL0     H53378   6.256  13.071   7.570  1.2591  0.1113 -0.8058
  387MOL0     H53379   6.262  13.249   7.539  1.8288 -1.7489 -1.0524
  387MOL0     H53380   6.137  13.077   7.742 -2.4923 -0.6148  0.2891
  387MOL0     H53381   6.016  13.187   7.679  0.0915  0.7758  2.2441
  387MOL0     H53382   6.190  13.375   7.725 -1.0499  0.2572  0.6405
  387MOL0     H53383   6.286  13.262   7.802  0.1232 -2.1215 -4.4224
  387MOL0     H53384   5.988  13.267   7.888  0.5536 -0.1035 -1.0311
  387MOL0     H53385   6.087  13.415   7.935  1.9560  0.4190 -0.2051
  387MOL0     H53386   5.714  12.942   7.074 -0.7477 -1.7716  0.2284
  387MOL0     H53387   5.500  12.833   7.120  0.5754  0.7953 -0.4257
  387MOL0     H53388   5.251  12.760   7.678 -2.7079 -0.0602  1.3163
  387MOL0     H53389   5.133  12.561   7.773 -0.8226 -0.2966  0.2698
  387MOL0     H53390   4.534  11.585   8.687  2.1135  1.8192  0.1392
  387MOL0     H53391   4.446  11.649   8.912  1.0782  0.5373 -2.1801
  387MOL0     H53392   4.112  11.381   9.257  0.5476 -0.7698  0.5628
  387MOL0     H53393   3.997  11.431   9.466  0.0263 -0.6724  2.3915
  387MOL0     H53394   3.978  11.612   9.807 -0.5393 -0.8623  1.3565
  387MOL0     H53395   3.902  11.570   9.656 -0.8760 -0.7035  1.9483
  387MOL0     H53396   3.987  11.344   9.684 -1.8795 -0.3355 -0.5668
  387MOL0     H53397   3.921  11.395   9.839  1.5860 -0.2018 -0.0565
  387MOL0     H53398   4.197  11.373   9.728 -2.4738 -3.1255 -1.7217
  387MOL0     H53399   4.190  11.479   9.868 -1.0096  0.6434 -2.5224
  387MOL0     H53400   4.119  11.254   9.997 -1.3318  2.7193 -0.9195
  387MOL0     H53401   4.291  11.273   9.947  0.8431 -3.1611  0.9275
  387MOL0     H53402   4.150  10.925   9.775 -2.4767  0.1672 -0.2557
  387MOL0     H53403   4.347  11.642   9.598 -2.0505 -4.0417  3.9143
  387MOL0     H53404   4.555  11.608   9.509 -1.6570 -0.9029  1.8636
  387MOL0     H53405   4.574  11.490   9.376 -0.0155  0.2743  0.0318
  387MOL0     H53406   4.548  11.660   9.347  2.9646  0.1806  1.8517
  388MOL0     O53407   7.612   2.038   6.764  0.2909  0.4753  0.1285
  388MOL0     C53408   7.686   1.975   6.687 -0.0327 -0.1227 -0.0418
  388MOL0     O53409   7.773   2.030   6.602 -0.8080 -0.8848  0.3442
  388MOL0     C53410   7.787   2.162   6.597 -0.6237 -0.1375 -0.5537
  388MOL0     C53411   7.912   2.219   6.620  0.5238 -0.3090 -0.0859
  388MOL0     C53412   7.938   2.354   6.615  0.0059  0.3695 -0.7810
  388MOL0     C53413   7.835   2.443   6.581 -0.0862 -0.0265  0.2649
  388MOL0     O53414   7.839   2.582   6.553 -0.4021  0.0230  0.3832
  388MOL0     C53415   7.947   2.659   6.621  0.8505 -0.2521  0.1728
  388MOL0     C53416   7.997   2.770   6.536 -0.0851  0.0662  0.5299
  388MOL0     C53417   8.070   2.727   6.396  0.1554 -0.9946  0.4031
  388MOL0     C53418   8.191   2.632   6.407  0.5107  0.1296  0.6355
  388MOL0     C53419   8.277   2.640   6.283 -0.2993 -0.2024  0.0449
  388MOL0     C53420   8.340   2.774   6.257  0.2336  0.9177  0.4110
  388MOL0     C53421   8.478   2.760   6.161 -0.6948 -0.4602 -0.9044
  388MOL0     C53422   8.453   2.742   6.020  0.1237 -0.1741 -0.1921
  388MOL0     N53423   8.552   2.649   5.957  0.9294 -0.4792  0.0725
  388MOL0     C53424   8.525   2.536   5.871  0.3555 -0.8819 -1.0598
  388MOL0     C53425   8.643   2.502   5.833 -0.0003  0.2573  0.8251
  388MOL0     C53426   8.673   2.382   5.751 -0.0775  0.7104  0.2826
  388MOL0     C53427   8.766   2.422   5.624 -0.2024  0.9804  0.0101
  388MOL0     C53428   8.817   2.293   5.547 -0.0319 -0.6350  0.1107
  388MOL0     C53429   8.913   2.334   5.428  0.0437  0.6920  0.3840
  388MOL0     O53430   8.957   2.212   5.366  0.3387 -0.0616 -0.0134
  388MOL0     C53431   9.022   2.220   5.243  0.3735  0.6015  0.6145
  388MOL0     C53432   9.077   2.342   5.198  1.0768 -0.7528 -0.4752
  388MOL0     C53433   9.170   2.353   5.089  0.2210 -1.3618 -0.0744
  388MOL0     C53434   9.222   2.492   5.066 -0.6288  0.0170 -0.0900
  388MOL0     C53435   9.204   2.242   5.009  0.7755 -0.0769  0.2383
  388MOL0     C53436   9.289   2.239   4.890  0.7569 -0.0304 -1.2003
  388MOL0     O53437   9.362   2.126   4.871 -0.0378 -0.5417 -0.3978
  388MOL0     C53438   9.447   2.114   4.768  0.4303  0.6390  0.3319
  388MOL0     C53439   9.423   2.168   4.639  0.1432  0.2437  0.3610
  388MOL0     C53440   9.510   2.136   4.528 -0.0587 -0.1776  0.0626
  388MOL0     C53441   9.622   2.053   4.552  0.3408  1.0237 -0.9603
  388MOL0     O53442   9.694   2.017   4.442  0.1296  0.2057 -0.0333
  388MOL0     C53443   9.829   2.073   4.439  0.5788  0.4531 -0.0816
  388MOL0     C53444   9.825   2.214   4.386  0.7666  0.1376 -0.3904
  388MOL0     C53445   9.753   2.224   4.257 -0.3728 -0.2733  0.2489
  388MOL0     C53446   9.767   2.373   4.212 -0.0742  0.8437 -0.4923
  388MOL0     C53447   9.669   2.409   4.093 -0.4383 -0.2147 -0.7562
  388MOL0     C53448   9.718   2.356   3.962 -0.3790 -0.2316 -0.2208
  388MOL0     C53449   9.627   2.398   3.848  0.0644 -0.4358 -0.1864
  388MOL0     C53450   9.669   2.324   3.714  1.0750 -0.0282 -0.1407
  388MOL0    Cl53451   9.519   2.323   3.608  0.7203  0.6965  0.2148
  388MOL0     C53452   9.663   2.017   4.682 -0.6087 -0.2395 -0.3906
  388MOL0     C53453   9.573   2.048   4.785 -0.1779 -0.0979 -0.1272
  388MOL0     O53454   9.300   2.346   4.826 -0.6523  0.5820  0.0412
  388MOL0     C53455   9.140   2.123   5.048  0.0885 -0.3872  0.5429
  388MOL0     C53456   9.051   2.115   5.161 -0.1811  0.6319 -0.7127
  388MOL0     N53457   8.735   2.600   5.874 -0.6792  0.0021  0.1473
  388MOL0     N53458   8.684   2.684   5.946  0.3720 -0.0066 -0.4837
  388MOL0     C53459   7.707   2.386   6.560 -0.2182 -0.7329  0.0142
  388MOL0     C53460   7.684   2.252   6.570 -0.5854  0.2542 -0.4580
  388MOL0     C53461   7.650   1.834   6.667  0.4146 -0.1414  0.1714
  388MOL0     C53462   7.606   1.765   6.779  0.5565 -0.2362 -0.0716
  388MOL0     C53463   7.578   1.629   6.786  0.7232  0.0137  0.9868
  388MOL0     C53464   7.587   1.558   6.666 -0.7719  0.4334 -0.9986
  388MOL0     O53465   7.552   1.422   6.665 -0.3899  0.3648 -0.3536
  388MOL0     C53466   7.574   1.359   6.544 -0.1883  0.1318  0.2110
  388MOL0     C53467   7.720   1.337   6.501  0.5902  0.7859  0.1922
  388MOL0     C53468   7.747   1.344   6.348 -0.1093  0.5795  0.3661
  388MOL0     C53469   7.905   1.364   6.319  0.9143 -0.4541  0.3686
  388MOL0     C53470   7.984   1.264   6.385  0.6111  0.9473  0.7491
  388MOL0     C53471   8.059   1.185   6.430 -0.2688 -0.8264 -0.2381
  388MOL0     C53472   7.628   1.635   6.550 -0.0158  0.0650 -0.4585
  388MOL0     C53473   7.662   1.765   6.555  0.5450 -0.0636  0.4393
  388MOL0     C53474   7.689   1.843   6.417 -0.0881  0.7639 -0.2051
  388MOL0     H53475   7.996   2.156   6.648 -2.0566 -3.6947  0.7269
  388MOL0     H53476   8.039   2.393   6.625  0.2093 -0.6619  2.2455
  388MOL0     H53477   8.033   2.598   6.650  1.9561  0.4824 -1.3707
  388MOL0     H53478   7.912   2.702   6.715  0.6961 -0.3778  0.1718
  388MOL0     H53479   7.913   2.835   6.510 -0.6335  0.4119  2.9422
  388MOL0     H53480   8.074   2.829   6.586  1.7525  2.3106 -4.2840
  388MOL0     H53481   8.005   2.677   6.324 -1.0855 -3.4337  3.0067
  388MOL0     H53482   8.100   2.813   6.336  0.4713  0.3753  2.4266
  388MOL0     H53483   8.247   2.662   6.496  0.6851  1.3809  0.1283
  388MOL0     H53484   8.157   2.529   6.422  1.1544 -0.1781  0.0288
  388MOL0     H53485   8.221   2.598   6.199  2.3082 -3.0547 -0.4484
  388MOL0     H53486   8.360   2.571   6.297  1.1689  0.3268 -4.4413
  388MOL0     H53487   8.271   2.845   6.210 -0.3158 -0.8132 -1.5249
  388MOL0     H53488   8.375   2.810   6.354 -0.8149 -0.9320  1.5134
  388MOL0     H53489   8.545   2.682   6.198 -2.0642 -1.5421 -0.6297
  388MOL0     H53490   8.527   2.856   6.182 -1.1696 -0.1684 -1.1225
  388MOL0     H53491   8.352   2.701   6.014  0.0534 -0.7322  2.8697
  388MOL0     H53492   8.450   2.843   5.980  0.5338 -0.2840 -0.5030
  388MOL0     H53493   8.434   2.478   5.857 -0.2892  0.0184 -0.7348
  388MOL0     H53494   8.578   2.338   5.720 -0.0859  0.2810  0.9135
  388MOL0     H53495   8.721   2.305   5.811 -2.1597 -2.9407 -2.3061
  388MOL0     H53496   8.711   2.485   5.554 -1.2189  0.7067  0.5405
  388MOL0     H53497   8.856   2.473   5.659 -1.5295  1.5076  2.9450
  388MOL0     H53498   8.873   2.228   5.616  2.6264  1.4512  0.0827
  388MOL0     H53499   8.748   2.229   5.492  1.0882 -0.7837 -1.1697
  388MOL0     H53500   8.858   2.404   5.364 -1.4862 -1.6029 -0.9224
  388MOL0     H53501   9.004   2.385   5.463 -0.6197  2.3984 -0.2549
  388MOL0     H53502   9.063   2.425   5.266 -0.1698 -0.4881 -1.0313
  388MOL0     H53503   9.247   2.546   5.158  0.8938 -2.0284  0.7772
  388MOL0     H53504   9.144   2.540   5.005 -3.1988 -2.0893  1.3436
  388MOL0     H53505   9.321   2.486   5.020 -1.2496  0.5112 -1.5836
  388MOL0     H53506   9.326   2.214   4.623 -0.5927 -1.7992 -1.3387
  388MOL0     H53507   9.497   2.169   4.425  2.7430 -1.0317 -0.6559
  388MOL0     H53508   9.877   2.073   4.537  3.2067 -1.5781 -1.2533
  388MOL0     H53509   9.894   2.008   4.380  0.8676  1.2695 -0.6859
  388MOL0     H53510   9.778   2.272   4.466  2.1699 -0.6151  1.0311
  388MOL0     H53511   9.927   2.255   4.379  0.0540  1.8856 -1.1437
  388MOL0     H53512   9.646   2.208   4.278 -0.6179  1.8438  0.7701
  388MOL0     H53513   9.776   2.158   4.173 -1.8710  0.3519 -0.6933
  388MOL0     H53514   9.866   2.413   4.187 -0.2326  2.2151  0.9339
  388MOL0     H53515   9.743   2.433   4.300 -0.0896 -0.1377  0.1805
  388MOL0     H53516   9.572   2.370   4.126  1.4317 -1.3284  4.2287
  388MOL0     H53517   9.652   2.517   4.087 -2.7008 -0.4079  0.8417
  388MOL0     H53518   9.735   2.247   3.962 -1.9396 -0.5476 -2.2261
  388MOL0     H53519   9.817   2.401   3.948  0.2022 -0.4194  2.5961
  388MOL0     H53520   9.635   2.504   3.821 -0.9136 -1.0996 -3.6723
  388MOL0     H53521   9.524   2.365   3.863 -0.4150  1.0077 -0.1479
  388MOL0     H53522   9.708   2.223   3.726  3.1202  0.4323 -2.2459
  388MOL0     H53523   9.744   2.379   3.657  0.6500  0.6749 -0.0384
  388MOL0     H53524   9.754   1.964   4.707  0.3347  1.4579 -0.0157
  388MOL0     H53525   9.574   1.995   4.880 -2.4169 -0.5695 -0.3206
  388MOL0     H53526   9.158   2.034   4.988 -0.4092  1.7914 -3.1065
  388MOL0     H53527   9.013   2.017   5.188  0.5635  1.0506  2.2681
  388MOL0     H53528   7.622   2.448   6.530  1.9024  1.8003 -1.1710
  388MOL0     H53529   7.581   2.218   6.559 -1.6297  3.4702 -1.8136
  388MOL0     H53530   7.602   1.822   6.871 -0.0688  0.4818 -0.5333
  388MOL0     H53531   7.534   1.574   6.869 -1.7061 -0.8959 -0.7756
  388MOL0     H53532   7.528   1.260   6.553 -1.7383  0.8469  0.6691
  388MOL0     H53533   7.511   1.401   6.465  0.3540 -1.7974 -1.3140
  388MOL0     H53534   7.733   1.231   6.520 -2.9621  0.8645  5.0557
  388MOL0     H53535   7.787   1.396   6.564  2.5089 -0.7852 -0.3017
  388MOL0     H53536   7.705   1.258   6.296  1.5875 -0.1999  0.2469
  388MOL0     H53537   7.700   1.436   6.312  0.3282  1.4636  1.9447
  388MOL0     H53538   7.939   1.464   6.346  1.7288 -0.8826  0.9346
  388MOL0     H53539   7.912   1.348   6.211  2.6284  1.8885  0.0618
  388MOL0     H53540   8.116   1.103   6.468 -1.4401 -0.1039  3.4575
  388MOL0     H53541   7.626   1.584   6.455 -2.7032  3.4272 -2.4421
  388MOL0     H53542   7.625   1.932   6.421 -0.2288  0.6431  0.2693
  388MOL0     H53543   7.791   1.880   6.410 -0.7652  2.6979 -0.6211
  388MOL0     H53544   7.654   1.785   6.330 -0.1651 -0.4675  0.6258
  389MOL0     O53545   8.398  10.922   8.569  0.2779 -0.0708 -0.9967
  389MOL0     C53546   8.384  11.040   8.598 -0.4755 -0.5956 -0.2020
  389MOL0     O53547   8.481  11.137   8.635 -0.2491  0.4820 -0.5986
  389MOL0     C53548   8.615  11.118   8.609  0.8180  0.7353 -0.1127
  389MOL0     C53549   8.655  11.205   8.517 -0.2052 -0.2270  0.5385
  389MOL0     C53550   8.782  11.195   8.457 -0.3256  0.5208  0.1218
  389MOL0     C53551   8.876  11.098   8.511 -0.5346 -0.1675 -0.7090
  389MOL0     O53552   9.006  11.088   8.478  0.0154  0.0452  0.3658
  389MOL0     C53553   9.076  11.209   8.465 -0.8743 -1.0079  0.5413
  389MOL0     C53554   9.226  11.179   8.424  0.1774 -0.0940 -0.9521
  389MOL0     C53555   9.307  11.110   8.532 -0.2749 -0.0793 -0.1587
  389MOL0     C53556   9.321  11.204   8.660  0.7894  0.0379 -0.0063
  389MOL0     C53557   9.401  11.135   8.769 -0.0759 -0.9961  0.4908
  389MOL0     C53558   9.546  11.104   8.736 -0.0129 -0.0347  1.2068
  389MOL0     C53559   9.591  10.979   8.815 -0.1721 -0.1538 -0.1295
  389MOL0     C53560   9.736  10.952   8.784  0.0646 -0.6156  0.3530
  389MOL0     N53561   9.828  11.013   8.882  0.5951  0.1641  0.2420
  389MOL0     C53562   9.927  10.948   8.940  0.7290  0.3880  0.8283
  389MOL0     C53563  10.002  11.035   9.002  0.8421 -0.3965  0.0495
  389MOL0     C53564  10.131  11.003   9.064  0.3107 -0.3851 -0.0938
  389MOL0     C53565  10.253  10.998   8.956  0.0820 -0.0922  0.1655
  389MOL0     C53566  10.372  10.944   9.028 -0.1183 -0.2573  0.2702
  389MOL0     C53567  10.484  10.975   8.939 -0.2987 -0.4863  0.5961
  389MOL0     O53568  10.597  10.902   9.001 -0.1233  0.2073  0.7256
  389MOL0     C53569  10.668  10.975   9.095 -0.4946 -0.6812 -1.6492
  389MOL0     C53570  10.615  10.982   9.224 -0.1409  0.3649  0.2556
  389MOL0     C53571  10.667  11.064   9.333 -0.7810  0.3604 -1.1606
  389MOL0     C53572  10.592  11.059   9.465 -0.2194  0.6992 -0.8554
  389MOL0     C53573  10.789  11.130   9.307  0.5199  0.1111 -0.9526
  389MOL0     C53574  10.845  11.228   9.402  0.3423  0.6283  0.7771
  389MOL0     O53575  10.893  11.350   9.360 -0.8758  0.0587  0.3135
  389MOL0     C53576  10.971  11.428   9.441 -0.2355 -1.2311  0.1382
  389MOL0     C53577  10.912  11.515   9.537  0.4428 -0.4376  1.0977
  389MOL0     C53578  10.975  11.607   9.620 -0.1816  0.1818  0.4568
  389MOL0     C53579  11.111  11.590   9.639 -0.7647  1.3562  0.1208
  389MOL0     O53580  11.192  11.666   9.720 -0.1232  1.0252 -0.7264
  389MOL0     C53581  11.176  11.808   9.693 -0.2845  0.8631  0.5417
  389MOL0     C53582  11.238  11.876   9.816  0.4124  0.0949  0.7028
  389MOL0     C53583  11.237  12.029   9.800 -0.2525 -0.1901  0.0886
  389MOL0     C53584  11.327  12.090   9.912 -0.3203 -0.3619 -0.0218
  389MOL0     C53585  11.356  12.233   9.902  0.6796 -0.4621  0.8861
  389MOL0     C53586  11.236  12.318   9.890 -0.0985  0.0207  0.0520
  389MOL0     C53587  11.258  12.468   9.932 -0.9802  0.7793 -0.7805
  389MOL0     C53588  11.142  12.549   9.888  0.2284 -0.7342  0.0347
  389MOL0    Cl53589  11.143  12.598   9.719  0.0352  0.4761 -0.1124
  389MOL0     C53590  11.173  11.492   9.553  0.0140 -0.7042  0.0388
  389MOL0     C53591  11.107  11.424   9.452  0.5659  0.6211  0.5617
  389MOL0     O53592  10.869  11.182   9.513 -0.3550  0.1511 -0.3931
  389MOL0     C53593  10.844  11.117   9.188 -0.1416  0.3751  0.6278
  389MOL0     C53594  10.788  11.048   9.085 -0.2090  0.1408 -0.3088
  389MOL0     N53595   9.947  11.160   8.980 -0.5822  0.0093  0.2606
  389MOL0     N53596   9.845  11.145   8.912 -0.1479  0.4968 -0.0852
  389MOL0     C53597   8.828  11.010   8.603  0.3078  0.5829 -0.0229
  389MOL0     C53598   8.698  11.017   8.656  0.2212 -0.4997 -0.5899
  389MOL0     C53599   8.243  11.084   8.612 -0.3880  0.6500  0.1937
  389MOL0     C53600   8.144  10.988   8.615  0.9216  0.2227 -1.2451
  389MOL0     C53601   8.002  11.020   8.638 -0.3210 -0.3005 -0.2851
  389MOL0     C53602   7.962  11.150   8.674  0.8199  0.1892 -0.6381
  389MOL0     O53603   7.828  11.187   8.692  0.5391 -0.8067 -0.5818
  389MOL0     C53604   7.726  11.099   8.632  1.1363  0.3316 -0.3623
  389MOL0     C53605   7.666  11.011   8.744 -0.1478 -0.0807  0.4466
  389MOL0     C53606   7.538  10.944   8.716 -0.0715  0.3147 -0.0132
  389MOL0     C53607   7.542  10.870   8.579  0.0559 -0.4628 -0.2181
  389MOL0     C53608   7.651  10.786   8.550  0.2117  0.2770 -0.5129
  389MOL0     C53609   7.750  10.712   8.542 -0.1273 -0.3322  0.5537
  389MOL0     C53610   8.067  11.242   8.674 -0.3540 -0.4237  1.1871
  389MOL0     C53611   8.204  11.214   8.638  0.1405 -1.1330  0.4549
  389MOL0     C53612   8.299  11.325   8.630 -0.2605  1.4088 -1.0420
  389MOL0     H53613   8.594  11.289   8.484 -0.1389 -0.0382  0.8838
  389MOL0     H53614   8.829  11.271   8.395  3.2778 -2.2392 -0.9388
  389MOL0     H53615   9.081  11.271   8.555 -0.3534 -1.4845  0.8481
  389MOL0     H53616   9.041  11.280   8.389 -0.7526 -0.7286  0.7442
  389MOL0     H53617   9.235  11.117   8.334  0.6681 -0.2276 -0.8140
  389MOL0     H53618   9.282  11.272   8.412 -4.0415  3.4657  2.9845
  389MOL0     H53619   9.247  11.027   8.570  2.8078 -1.8392  1.2426
  389MOL0     H53620   9.405  11.086   8.491  0.7715 -0.1295  2.2215
  389MOL0     H53621   9.370  11.302   8.652  0.1828  0.3554  0.1344
  389MOL0     H53622   9.230  11.232   8.713 -0.2726  2.3527 -2.7691
  389MOL0     H53623   9.350  11.042   8.795 -1.5719  0.2271  2.2058
  389MOL0     H53624   9.390  11.201   8.855 -1.2388  0.3471 -0.6527
  389MOL0     H53625   9.559  11.087   8.628 -2.2050 -1.5405  1.1010
  389MOL0     H53626   9.598  11.196   8.762 -3.1337  2.2301  0.0634
  389MOL0     H53627   9.533  10.894   8.779 -1.2475  0.5882 -0.2347
  389MOL0     H53628   9.583  10.993   8.924  0.5462 -2.4259  0.2605
  389MOL0     H53629   9.755  10.844   8.790  1.0363 -0.5785 -1.4337
  389MOL0     H53630   9.771  10.985   8.686 -0.1020 -1.5452 -0.0269
  389MOL0     H53631   9.950  10.843   8.923  0.3692  0.3329  0.6517
  389MOL0     H53632  10.131  10.911   9.123 -0.6400 -0.2589  0.1229
  389MOL0     H53633  10.139  11.073   9.147  2.1909  0.0009 -0.5522
  389MOL0     H53634  10.238  10.928   8.873 -2.2396  2.1080 -1.4136
  389MOL0     H53635  10.259  11.094   8.905 -1.0061  0.4579  1.0184
  389MOL0     H53636  10.392  10.973   9.132  0.7113  0.5542 -0.0971
  389MOL0     H53637  10.370  10.835   9.032  1.3101 -0.4771 -2.7115
  389MOL0     H53638  10.458  10.926   8.845 -1.1158 -0.6772  0.9091
  389MOL0     H53639  10.505  11.082   8.925  0.3391 -0.7388 -0.5029
  389MOL0     H53640  10.542  10.907   9.252  0.8341  0.4520  3.5329
  389MOL0     H53641  10.489  11.023   9.453 -0.4602  1.1847 -0.3069
  389MOL0     H53642  10.582  11.160   9.506  1.2258 -0.0338  1.5166
  389MOL0     H53643  10.641  10.984   9.528 -0.6787  1.2072  0.1310
  389MOL0     H53644  10.805  11.508   9.548  0.1990  1.6433  0.4879
  389MOL0     H53645  10.906  11.658   9.687  1.1307 -0.8500  2.7234
  389MOL0     H53646  11.218  11.827   9.594 -3.8493  1.3369 -1.0491
  389MOL0     H53647  11.070  11.831   9.682 -0.7494 -0.9804  0.8888
  389MOL0     H53648  11.189  11.858   9.912 -0.6751  2.8106  0.7649
  389MOL0     H53649  11.345  11.857   9.812  0.2756 -0.4575 -0.6239
  389MOL0     H53650  11.135  12.061   9.820  0.0330 -0.1361  1.5311
  389MOL0     H53651  11.279  12.068   9.707  2.5708  0.6978  1.6341
  389MOL0     H53652  11.423  12.037   9.907 -0.2338 -0.1481 -0.6616
  389MOL0     H53653  11.277  12.075  10.008 -1.0886  0.8138 -0.2258
  389MOL0     H53654  11.420  12.253   9.989 -0.6106  1.0003  1.5359
  389MOL0     H53655  11.406  12.242   9.805  0.5598  0.1909  0.8799
  389MOL0     H53656  11.156  12.276   9.951 -2.4991 -0.5976 -3.2623
  389MOL0     H53657  11.200  12.322   9.787 -2.9641  3.0206  0.9881
  389MOL0     H53658  11.351  12.504   9.888  0.2921 -1.8402 -0.3954
  389MOL0     H53659  11.264  12.475  10.041  1.8659 -3.2299 -0.4904
  389MOL0     H53660  11.152  12.643   9.943  0.8660 -1.2237  0.7657
  389MOL0     H53661  11.056  12.488   9.915 -0.8352  0.7829  0.1824
  389MOL0     H53662  11.278  11.472   9.569 -0.3188 -0.5235  3.0574
  389MOL0     H53663  11.161  11.379   9.369 -0.9622  2.3231 -1.4695
  389MOL0     H53664  10.939  11.167   9.175 -0.3627  0.4021 -1.1506
  389MOL0     H53665  10.838  11.050   8.989  1.5052 -0.3878  0.5328
  389MOL0     H53666   8.888  10.927   8.638 -1.8639  0.5328  4.2694
  389MOL0     H53667   8.663  10.946   8.730 -0.1097  1.0322  0.7784
  389MOL0     H53668   8.165  10.884   8.594  0.9448  0.3423 -1.8494
  389MOL0     H53669   7.931  10.938   8.642  1.0470 -1.4937  1.9525
  389MOL0     H53670   7.645  11.152   8.582  0.0023 -0.1622  0.9174
  389MOL0     H53671   7.773  11.050   8.546  3.8907  2.3459 -0.1685
  389MOL0     H53672   7.653  11.063   8.839 -0.7356 -2.1175  1.5508
  389MOL0     H53673   7.746  10.942   8.772  0.0285  0.3098  0.9108
  389MOL0     H53674   7.507  10.880   8.799 -3.3193 -1.3603 -2.3037
  389MOL0     H53675   7.458  11.018   8.712 -0.8903 -0.1710  3.7351
  389MOL0     H53676   7.529  10.942   8.498  0.7531 -1.6261 -1.3843
  389MOL0     H53677   7.447  10.815   8.575  0.1020 -0.4636 -1.6542
  389MOL0     H53678   7.840  10.655   8.534  0.7834  0.9979  0.9599
  389MOL0     H53679   8.043  11.344   8.702  1.2655  0.7750 -1.4246
  389MOL0     H53680   8.357  11.317   8.538  0.4134  0.4703 -0.5588
  389MOL0     H53681   8.263  11.427   8.641  2.4884  2.1556  3.9900
  389MOL0     H53682   8.359  11.345   8.719  1.1259 -0.3862 -1.5138
  390MOL0     O53683   0.351  10.220   8.826 -0.7445 -0.0125 -0.0457
  390MOL0     C53684   0.351  10.130   8.912  0.3316 -0.3229  0.2168
  390MOL0     O53685   0.421  10.013   8.899  0.3111  0.0737  0.4195
  390MOL0     C53686   0.513  10.010   8.798 -0.3338  0.1105 -0.7349
  390MOL0     C53687   0.482   9.959   8.678 -0.1188 -0.4048  0.2677
  390MOL0     C53688   0.582   9.906   8.590  0.2343  0.5560 -0.5939
  390MOL0     C53689   0.714   9.931   8.614  0.1365  0.4757 -1.1304
  390MOL0     O53690   0.814   9.913   8.521  0.0766  0.0768  0.0719
  390MOL0     C53691   0.848  10.040   8.454 -0.2347 -0.0179  0.7964
  390MOL0     C53692   0.961  10.016   8.354 -0.7082 -0.5075  0.4023
  390MOL0     C53693   0.951   9.898   8.257 -0.2915 -0.2996 -0.2192
  390MOL0     C53694   1.075   9.900   8.167 -0.1490  0.1063 -0.4510
  390MOL0     C53695   1.062   9.808   8.042 -0.2525 -0.3542  0.4870
  390MOL0     C53696   1.190   9.826   7.954 -0.6038 -0.6777  0.5028
  390MOL0     C53697   1.221   9.704   7.869 -0.0516  0.1418 -0.2437
  390MOL0     C53698   1.325   9.728   7.754 -0.3173 -0.5029 -0.4663
  390MOL0     N53699   1.285   9.841   7.664  0.1853  0.1465 -0.9051
  390MOL0     C53700   1.223   9.811   7.543 -0.9033  0.6003  0.0021
  390MOL0     C53701   1.242   9.919   7.465  0.7089 -0.2794  0.2412
  390MOL0     C53702   1.222   9.945   7.318  0.3614 -0.2465 -0.1676
  390MOL0     C53703   1.079   9.995   7.280 -0.0869  0.0788  0.6190
  390MOL0     C53704   1.053  10.132   7.324  0.1506 -0.5892 -0.0631
  390MOL0     C53705   0.928  10.197   7.250 -0.2873 -0.7321  0.1518
  390MOL0     O53706   0.812  10.124   7.288 -0.1303  0.1694  0.6446
  390MOL0     C53707   0.729  10.171   7.389 -0.7673 -0.1988  0.2938
  390MOL0     C53708   0.734  10.293   7.462  0.4576 -0.1758  0.9754
  390MOL0     C53709   0.643  10.319   7.564 -0.2619  0.0352  0.1573
  390MOL0     C53710   0.679  10.445   7.635  0.5641 -0.7451 -1.3563
  390MOL0     C53711   0.524  10.239   7.583 -0.6937  0.3455  0.8058
  390MOL0     C53712   0.411  10.268   7.683  0.2080 -0.2816 -0.4248
  390MOL0     O53713   0.297  10.188   7.687  0.3767  0.4297 -0.1152
  390MOL0     C53714   0.198  10.241   7.772 -0.4091  0.5763  0.8777
  390MOL0     C53715   0.140  10.155   7.857  1.1053  0.5178  0.2059
  390MOL0     C53716   0.034  10.191   7.944  1.5524 -0.2098 -0.5824
  390MOL0     C53717  -0.011  10.326   7.933 -0.7791  0.3583 -0.1595
  390MOL0     O53718  -0.083  10.393   8.028  0.0374 -0.1550 -0.2653
  390MOL0     C53719  -0.180  10.321   8.098 -0.6886  0.5804  0.6529
  390MOL0     C53720  -0.264  10.401   8.193 -0.6420  0.2678 -0.3487
  390MOL0     C53721  -0.398  10.334   8.224 -0.2675  0.4203  0.7824
  390MOL0     C53722  -0.477  10.398   8.348  0.7152 -0.2551  1.0429
  390MOL0     C53723  -0.513  10.545   8.337 -0.5973  0.5308 -0.1830
  390MOL0     C53724  -0.583  10.597   8.206 -0.7651 -0.2965  1.5484
  390MOL0     C53725  -0.567  10.747   8.211 -0.6083 -0.3284  0.5522
  390MOL0     C53726  -0.657  10.809   8.108  0.6557 -0.1006 -0.0680
  390MOL0    Cl53727  -0.616  10.977   8.096 -0.5626  0.0114  0.0341
  390MOL0     C53728   0.045  10.411   7.841 -1.0369 -1.0402  0.9316
  390MOL0     C53729   0.146  10.373   7.756 -0.7903  0.3404 -0.5037
  390MOL0     O53730   0.442  10.353   7.771 -0.3947 -0.1766  0.6436
  390MOL0     C53731   0.520  10.123   7.509 -1.2535  0.2946 -0.4819
  390MOL0     C53732   0.627  10.085   7.432 -0.3339  1.1042  0.1523
  390MOL0     N53733   1.316  10.009   7.530 -0.4347 -0.2938  0.2905
  390MOL0     N53734   1.356   9.957   7.644  0.2218 -0.1129  0.4265
  390MOL0     C53735   0.749   9.991   8.738 -0.7473 -0.0168 -0.4647
  390MOL0     C53736   0.651  10.028   8.829  0.2417  0.6533 -0.5082
  390MOL0     C53737   0.278  10.157   9.034  1.1842  0.0340 -0.7363
  390MOL0     C53738   0.142  10.187   9.008 -0.6989  0.1453  0.1570
  390MOL0     C53739   0.052  10.202   9.116  0.5014  0.1948  0.1921
  390MOL0     C53740   0.088  10.178   9.252  0.3094 -0.1821  0.7496
  390MOL0     O53741   0.020  10.174   9.370 -0.8503 -0.2107 -0.0844
  390MOL0     C53742  -0.092  10.267   9.385  0.1378  0.3135  0.3814
  390MOL0     C53743  -0.230  10.197   9.385  0.3076 -0.1138  0.2485
  390MOL0     C53744  -0.257  10.106   9.262  0.4452 -0.4842 -0.0451
  390MOL0     C53745  -0.395  10.033   9.275 -0.0877  0.4036  0.1578
  390MOL0     C53746  -0.396   9.908   9.353 -0.7383  0.2459 -0.8060
  390MOL0     C53747  -0.388   9.799   9.392  0.1372  1.6136 -0.0076
  390MOL0     C53748   0.222  10.150   9.266 -0.5453 -0.5597 -0.0374
  390MOL0     C53749   0.318  10.133   9.161 -0.6517  0.9510 -1.1051
  390MOL0     C53750   0.452  10.079   9.205  0.8973 -0.3262  0.4714
  390MOL0     H53751   0.378   9.966   8.648  0.5606 -0.2836 -2.2962
  390MOL0     H53752   0.549   9.863   8.496 -2.5145  2.7410 -0.7924
  390MOL0     H53753   0.886  10.117   8.522 -0.0911 -0.2287  0.9570
  390MOL0     H53754   0.753  10.064   8.405  0.4910  0.8922 -0.1963
  390MOL0     H53755   0.963  10.111   8.300 -3.3204 -0.8391 -0.4254
  390MOL0     H53756   1.054   9.982   8.401  0.0405  1.0112  0.0836
  390MOL0     H53757   0.968   9.815   8.326  0.0180 -0.0021  0.0704
  390MOL0     H53758   0.863   9.896   8.192  0.4532 -1.4165 -1.2187
  390MOL0     H53759   1.076  10.003   8.132 -2.9692  0.2381 -0.3499
  390MOL0     H53760   1.167   9.869   8.218  0.2646 -1.8155 -2.1930
  390MOL0     H53761   0.964   9.827   7.997 -1.4177 -2.6006  1.9024
  390MOL0     H53762   1.068   9.703   8.071 -3.2254 -0.9344 -0.6303
  390MOL0     H53763   1.176   9.909   7.885 -2.6285  0.4174  2.1282
  390MOL0     H53764   1.275   9.845   8.021  0.2843 -0.8205 -0.5470
  390MOL0     H53765   1.129   9.668   7.823  0.7182 -0.5829 -1.2814
  390MOL0     H53766   1.269   9.627   7.931  1.9969  1.4055 -0.1480
  390MOL0     H53767   1.425   9.750   7.794  0.4456  1.1893 -3.0133
  390MOL0     H53768   1.342   9.641   7.689 -1.4932  1.1878 -3.2278
  390MOL0     H53769   1.170   9.720   7.515  1.9043 -0.9141 -0.7446
  390MOL0     H53770   1.250   9.851   7.270  2.0448  0.5949 -0.9130
  390MOL0     H53771   1.302  10.008   7.279  2.6711 -2.1471  1.2309
  390MOL0     H53772   1.072  10.001   7.171 -0.5388 -2.3304  0.4624
  390MOL0     H53773   1.011   9.917   7.317  1.8509 -2.0353 -0.1091
  390MOL0     H53774   1.034  10.137   7.431 -1.3496 -3.3410 -0.1157
  390MOL0     H53775   1.131  10.201   7.289 -0.7148  1.1502  1.2892
  390MOL0     H53776   0.912  10.297   7.290  0.2226 -0.7903  0.5131
  390MOL0     H53777   0.942  10.198   7.142 -0.1246 -2.3575  0.1231
  390MOL0     H53778   0.816  10.363   7.450  2.4955 -2.8231 -2.2171
  390MOL0     H53779   0.598  10.517   7.632 -0.1143 -1.4188 -0.1292
  390MOL0     H53780   0.764  10.503   7.599 -0.0074 -0.1912 -1.8320
  390MOL0     H53781   0.706  10.423   7.739  0.2009  0.6902 -0.9398
  390MOL0     H53782   0.185  10.056   7.855 -1.5094 -0.7792 -2.4383
  390MOL0     H53783  -0.015  10.124   8.013  0.6768  1.8975  0.9644
  390MOL0     H53784  -0.246  10.271   8.027 -3.6201  1.6319  2.4399
  390MOL0     H53785  -0.128  10.255   8.168 -1.8343  2.7287  3.7731
  390MOL0     H53786  -0.198  10.415   8.280  0.0711 -0.7015 -0.7168
  390MOL0     H53787  -0.278  10.504   8.160  1.0569  1.9384  3.5288
  390MOL0     H53788  -0.393  10.231   8.261 -1.5368  0.7960  2.0938
  390MOL0     H53789  -0.461  10.343   8.135 -1.6414  1.6719  1.8295
  390MOL0     H53790  -0.409  10.391   8.433  3.0273  0.2233 -0.6820
  390MOL0     H53791  -0.572  10.346   8.365  0.4548 -0.5270 -0.9260
  390MOL0     H53792  -0.565  10.583   8.425 -0.1776  1.2944 -0.2525
  390MOL0     H53793  -0.417  10.598   8.346 -0.7913  0.6472  1.3368
  390MOL0     H53794  -0.690  10.572   8.204 -0.7391 -0.3965  0.0073
  390MOL0     H53795  -0.537  10.559   8.114 -1.0159  2.4374  0.1747
  390MOL0     H53796  -0.462  10.775   8.198 -1.1373  1.1600 -0.7876
  390MOL0     H53797  -0.584  10.797   8.306 -0.9653  2.7667 -1.0052
  390MOL0     H53798  -0.759  10.797   8.147  0.1367  2.5854 -0.3637
  390MOL0     H53799  -0.667  10.773   8.005  0.8887  2.4960 -1.0808
  390MOL0     H53800   0.018  10.516   7.838 -0.3829 -0.6996  4.0117
  390MOL0     H53801   0.193  10.426   7.673  1.4967 -2.3620 -1.1135
  390MOL0     H53802   0.441  10.053   7.536 -1.4180  0.3815 -0.7364
  390MOL0     H53803   0.622   9.989   7.381  0.8939  1.8383 -1.4385
  390MOL0     H53804   0.848  10.029   8.761 -0.1355 -0.0275 -2.8302
  390MOL0     H53805   0.669  10.061   8.931  1.1974 -1.9825  0.2852
  390MOL0     H53806   0.114  10.200   8.904 -1.3721 -1.1785  0.1531
  390MOL0     H53807  -0.053  10.226   9.101  0.5492  0.0637 -0.3777
  390MOL0     H53808  -0.076  10.323   9.477  2.9182  0.5938 -0.1573
  390MOL0     H53809  -0.093  10.335   9.299  1.4384 -0.6306 -0.4331
  390MOL0     H53810  -0.312  10.269   9.380 -2.2983 -2.9834 -0.5259
  390MOL0     H53811  -0.233  10.145   9.481 -3.1970  0.3179  0.5014
  390MOL0     H53812  -0.271  10.165   9.171  1.4985 -0.5373 -0.2538
  390MOL0     H53813  -0.178  10.033   9.244  0.0626 -0.1266 -4.1441
  390MOL0     H53814  -0.428  10.012   9.172  2.9733  2.3950 -1.3820
  390MOL0     H53815  -0.464  10.096   9.333 -0.0937 -2.0784  3.0913
  390MOL0     H53816  -0.401   9.694   9.411  2.2876  1.1628 -0.7044
  390MOL0     H53817   0.256  10.127   9.366  0.7994  2.5696  0.3312
  390MOL0     H53818   0.449   9.970   9.207  2.4847 -0.3816  0.7094
  390MOL0     H53819   0.536  10.114   9.144  2.8213 -1.1651  2.5143
  390MOL0     H53820   0.469  10.116   9.306 -1.5920 -1.1635  1.2717
  391MOL0     O53821   4.211   3.975  10.351  0.5902 -0.8862 -0.0025
  391MOL0     C53822   4.320   3.922  10.351 -0.1567 -0.2695 -0.4862
  391MOL0     O53823   4.433   3.976  10.409  0.1426 -0.4381  0.9412
  391MOL0     C53824   4.418   4.086  10.490  0.0536 -0.1263 -0.4304
  391MOL0     C53825   4.432   4.219  10.440 -0.0595 -0.7104  0.0751
  391MOL0     C53826   4.425   4.333  10.525  0.2338  0.0310  0.9977
  391MOL0     C53827   4.403   4.312  10.654 -0.8716  0.6665 -1.3567
  391MOL0     O53828   4.404   4.411  10.751 -0.3229 -0.0093 -0.0451
  391MOL0     C53829   4.503   4.516  10.726  0.2633  0.4055 -0.3941
  391MOL0     C53830   4.522   4.602  10.853  0.4283  0.1962  0.7207
  391MOL0     C53831   4.636   4.710  10.820 -0.3501 -0.4134  0.8033
  391MOL0     C53832   4.677   4.775  10.956  0.4764 -0.4089  0.1561
  391MOL0     C53833   4.777   4.890  10.927 -0.3741 -0.2097 -0.2059
  391MOL0     C53834   4.729   4.992  10.822 -0.1926  0.0194  0.2506
  391MOL0     C53835   4.777   5.139  10.853  0.9169  0.0131 -0.4123
  391MOL0     C53836   4.735   5.245  10.740 -0.3149  0.1233 -0.0823
  391MOL0     N53837   4.822   5.358  10.757  0.0629 -0.3997 -0.0648
  391MOL0     C53838   4.958   5.374  10.759  0.5885 -0.6231  0.4643
  391MOL0     C53839   4.974   5.509  10.780 -0.4405 -0.6798 -0.9606
  391MOL0     C53840   5.101   5.598  10.787 -0.0656  0.8080  0.1761
  391MOL0     C53841   5.103   5.732  10.870  0.2731  0.9064  0.4657
  391MOL0     C53842   5.101   5.708  11.028 -0.3875  0.3198  0.1182
  391MOL0     C53843   5.094   5.839  11.108  0.7569 -1.1779 -0.4362
  391MOL0     O53844   4.961   5.889  11.090 -0.0281  0.4524  0.6546
  391MOL0     C53845   4.945   6.024  11.120 -0.3896 -0.3594  0.4857
  391MOL0     C53846   4.823   6.071  11.075 -1.0715  0.1101 -0.8077
  391MOL0     C53847   4.781   6.208  11.085 -0.3976 -0.8483 -0.1189
  391MOL0     C53848   4.658   6.240  11.017  0.1505 -0.2831  0.1013
  391MOL0     C53849   4.869   6.295  11.160 -0.4153  0.0667  0.2588
  391MOL0     C53850   4.845   6.436  11.193  0.4099 -0.3829  0.3079
  391MOL0     O53851   4.728   6.471  11.271 -0.4341  0.6587  0.4262
  391MOL0     C53852   4.713   6.604  11.310 -0.1747  0.0207 -0.2766
  391MOL0     C53853   4.807   6.689  11.369 -1.0853  0.0931 -0.0149
  391MOL0     C53854   4.778   6.815  11.412 -0.0550 -0.2115 -0.3399
  391MOL0     C53855   4.642   6.853  11.414  0.2355  1.0713  0.6339
  391MOL0     O53856   4.630   6.968  11.477  0.2566 -0.0739  0.1162
  391MOL0     C53857   4.501   7.022  11.495 -0.2281  0.7483  0.1329
  391MOL0     C53858   4.496   7.124  11.608 -0.9130  0.4476  0.4425
  391MOL0     C53859   4.358   7.194  11.607  0.0797  0.0500 -0.4247
  391MOL0     C53860   4.344   7.304  11.722  0.3713  0.5144 -0.5179
  391MOL0     C53861   4.332   7.241  11.862 -1.0236  0.4771 -0.3356
  391MOL0     C53862   4.198   7.167  11.887  0.3934 -0.3587 -0.9750
  391MOL0     C53863   4.186   7.131  12.036  0.1205 -0.8583 -0.2853
  391MOL0     C53864   4.046   7.080  12.070  0.4025  0.5266  0.1887
  391MOL0    Cl53865   4.018   6.935  11.977 -0.0622 -0.1478 -0.0466
  391MOL0     C53866   4.548   6.773  11.355 -0.1864  1.4994  0.2666
  391MOL0     C53867   4.583   6.645  11.307  0.6768  0.2102  0.5981
  391MOL0     O53868   4.929   6.518  11.153 -0.4759  0.5128 -0.3270
  391MOL0     C53869   4.987   6.240  11.204 -0.5740 -0.9150 -0.1238
  391MOL0     C53870   5.029   6.110  11.184  0.3511  1.3522  0.3760
  391MOL0     N53871   4.854   5.568  10.775 -0.2130  0.0215  0.1750
  391MOL0     N53872   4.764   5.480  10.764  0.2140 -0.1285 -0.4084
  391MOL0     C53873   4.381   4.182  10.696  0.9677 -0.1761  0.2709
  391MOL0     C53874   4.378   4.071  10.620 -0.2374  0.2775  0.5431
  391MOL0     C53875   4.332   3.786  10.294 -0.1444 -0.3719 -0.1366
  391MOL0     C53876   4.233   3.693  10.323 -1.2275  0.3542  0.3803
  391MOL0     C53877   4.235   3.577  10.257 -0.0148 -0.2543 -0.2613
  391MOL0     C53878   4.332   3.538  10.163  0.0442  0.2116  0.4607
  391MOL0     O53879   4.320   3.416  10.095  0.2410  0.3769  0.6049
  391MOL0     C53880   4.268   3.421   9.967 -0.0504  0.0539  0.5947
  391MOL0     C53881   4.338   3.329   9.870  0.1375 -0.5233 -0.5559
  391MOL0     C53882   4.316   3.180   9.920  0.6186  0.4081 -0.3733
  391MOL0     C53883   4.320   3.062   9.818 -0.4511  0.7329  0.3865
  391MOL0     C53884   4.226   3.088   9.706 -0.6697  0.2364 -0.1837
  391MOL0     C53885   4.145   3.100   9.616  0.3261 -0.7000 -0.0196
  391MOL0     C53886   4.437   3.627  10.137 -0.1121 -0.9631  0.4374
  391MOL0     C53887   4.441   3.747  10.207  0.9131  0.7234 -0.9636
  391MOL0     C53888   4.555   3.829  10.172  0.1202  0.3455  0.1887
  391MOL0     H53889   4.456   4.238  10.335  3.8505 -0.7320  0.7944
  391MOL0     H53890   4.435   4.433  10.484  1.7479 -0.8459 -0.9447
  391MOL0     H53891   4.471   4.573  10.638  1.4829 -0.9879 -1.8007
  391MOL0     H53892   4.598   4.469  10.703  0.9839 -0.0725  3.0678
  391MOL0     H53893   4.431   4.653  10.885  0.7960  0.9611  0.5529
  391MOL0     H53894   4.548   4.535  10.936 -0.1660 -2.2489 -0.9418
  391MOL0     H53895   4.719   4.669  10.763 -0.4799  0.9824 -0.4684
  391MOL0     H53896   4.581   4.782  10.758  0.4637  0.7297  1.3559
  391MOL0     H53897   4.585   4.807  11.007  0.4127  3.7078 -2.1490
  391MOL0     H53898   4.733   4.714  11.028 -0.2007  1.6512  2.5537
  391MOL0     H53899   4.877   4.856  10.899  0.5481  0.0216  2.5387
  391MOL0     H53900   4.794   4.945  11.020  2.1245 -0.9153 -0.1575
  391MOL0     H53901   4.771   4.958  10.727  1.8176  0.6881  0.8474
  391MOL0     H53902   4.621   4.988  10.806 -0.2675 -1.4059  0.9071
  391MOL0     H53903   4.882   5.114  10.870  0.4166 -1.6567  0.4942
  391MOL0     H53904   4.733   5.160  10.951  0.3121  0.5891 -0.7957
  391MOL0     H53905   4.746   5.204  10.640 -1.8434 -0.6917  0.0549
  391MOL0     H53906   4.631   5.277  10.751  0.4218  2.5508  0.4688
  391MOL0     H53907   5.040   5.303  10.749  1.8285  0.7782  0.2578
  391MOL0     H53908   5.122   5.614  10.681 -0.8737  1.8404  0.1592
  391MOL0     H53909   5.188   5.540  10.821  0.3959  0.0979 -2.0085
  391MOL0     H53910   5.200   5.775  10.846  0.9662 -0.5836  0.5362
  391MOL0     H53911   5.029   5.805  10.835  0.9777  0.9045 -1.1152
  391MOL0     H53912   5.014   5.650  11.063 -0.7018  0.8352  0.2004
  391MOL0     H53913   5.193   5.658  11.060  0.8176  2.4177  0.1330
  391MOL0     H53914   5.118   5.811  11.211  0.8338  2.4013  0.6778
  391MOL0     H53915   5.160   5.916  11.067 -0.4044  0.7385  1.1163
  391MOL0     H53916   4.757   6.003  11.021  0.3456 -2.1433  0.1329
  391MOL0     H53917   4.621   6.336  11.054  3.1349 -0.3567  3.8629
  391MOL0     H53918   4.581   6.175  11.059  1.3733 -0.0340  2.9610
  391MOL0     H53919   4.659   6.215  10.910 -2.8248 -1.9700  0.3761
  391MOL0     H53920   4.909   6.653  11.385 -1.5739 -2.4312 -1.9338
  391MOL0     H53921   4.858   6.875  11.453  0.4600 -2.2618  1.8587
  391MOL0     H53922   4.464   7.051  11.397  2.9731 -0.6985 -1.6536
  391MOL0     H53923   4.433   6.942  11.527 -0.0446 -0.1493 -1.6174
  391MOL0     H53924   4.487   7.058  11.695 -3.5495 -0.1366 -0.1837
  391MOL0     H53925   4.584   7.181  11.580  0.4555 -2.2276 -1.1276
  391MOL0     H53926   4.276   7.124  11.626  2.0427 -1.6590  2.7655
  391MOL0     H53927   4.351   7.251  11.515  1.3159 -0.2098 -0.6964
  391MOL0     H53928   4.256   7.366  11.704 -0.1678  0.1059  0.5787
  391MOL0     H53929   4.432   7.367  11.706  1.7461 -1.3137 -0.5836
  391MOL0     H53930   4.413   7.168  11.876 -0.9982  0.3830 -0.9624
  391MOL0     H53931   4.351   7.319  11.935 -1.2032  0.0793  0.1447
  391MOL0     H53932   4.183   7.078  11.826  2.1570 -2.1651  1.0947
  391MOL0     H53933   4.107   7.223  11.864 -0.5483 -0.9541  1.0611
  391MOL0     H53934   4.205   7.215  12.103 -1.3200 -0.5701 -0.2184
  391MOL0     H53935   4.268   7.061  12.058 -0.3047 -0.7112  2.0164
  391MOL0     H53936   3.967   7.146  12.032 -3.1253 -2.8994  0.9478
  391MOL0     H53937   4.028   7.069  12.177  1.6323 -1.4918  0.2310
  391MOL0     H53938   4.448   6.814  11.350 -0.1220  2.0965  2.5215
  391MOL0     H53939   4.502   6.587  11.265  0.6273  0.5851  0.1717
  391MOL0     H53940   5.054   6.301  11.264 -0.9552 -0.8517  0.2419
  391MOL0     H53941   5.126   6.080  11.223  0.7832  0.1373 -1.4947
  391MOL0     H53942   4.348   4.169  10.799  2.8259 -0.0571  0.9282
  391MOL0     H53943   4.362   3.964  10.634 -0.4285 -0.3144 -3.1555
  391MOL0     H53944   4.152   3.715  10.393 -1.0671  1.2600  0.2910
  391MOL0     H53945   4.149   3.512  10.268 -0.9290  0.6555 -1.6360
  391MOL0     H53946   4.160   3.403   9.965  0.1060 -0.9126  0.5031
  391MOL0     H53947   4.282   3.521   9.924  0.5367 -0.0020  0.6425
  391MOL0     H53948   4.443   3.360   9.874  0.0473 -0.1869 -0.7260
  391MOL0     H53949   4.310   3.340   9.765  0.3687 -0.3466 -0.6017
  391MOL0     H53950   4.395   3.159   9.993  1.1159  0.8179 -0.7821
  391MOL0     H53951   4.216   3.164   9.961  0.5406 -1.4091 -1.1583
  391MOL0     H53952   4.306   2.963   9.862  0.9411 -0.8315 -2.4683
  391MOL0     H53953   4.417   3.062   9.768 -1.1346 -2.1558 -1.1349
  391MOL0     H53954   4.082   3.125   9.534  1.8492  0.7896 -0.7957
  391MOL0     H53955   4.518   3.588  10.076  0.1053 -1.7673  1.2121
  391MOL0     H53956   4.528   3.930  10.140  2.5525  0.5501 -1.5545
  391MOL0     H53957   4.608   3.826  10.268 -4.5149 -0.0950  3.0027
  391MOL0     H53958   4.604   3.805  10.077 -2.5317  3.8712 -2.3476
  392MOL0     O53959   7.286   8.881   3.933 -0.4469 -0.4015  0.9138
  392MOL0     C53960   7.264   8.909   3.814  0.2512 -0.1563 -1.0404
  392MOL0     O53961   7.293   9.025   3.761 -0.1787 -0.2820 -0.1199
  392MOL0     C53962   7.397   9.110   3.799  0.0891 -0.9166 -0.6372
  392MOL0     C53963   7.502   9.075   3.879 -0.7485  1.7139  0.0083
  392MOL0     C53964   7.616   9.153   3.908  0.4761  0.2306  0.3609
  392MOL0     C53965   7.616   9.284   3.866  0.5948 -0.1300  0.1255
  392MOL0     O53966   7.699   9.378   3.908  0.6742 -0.6456 -0.8333
  392MOL0     C53967   7.822   9.342   3.965  0.0905  0.6628 -0.7572
  392MOL0     C53968   7.894   9.477   3.993  0.6843 -0.5398  0.3862
  392MOL0     C53969   7.938   9.542   3.866  0.6361 -0.2380  0.0781
  392MOL0     C53970   8.014   9.675   3.887 -0.3855 -0.6413  0.5124
  392MOL0     C53971   8.038   9.742   3.750 -0.1397  0.4850 -0.7997
  392MOL0     C53972   8.130   9.871   3.777 -0.5024  0.9712 -0.0415
  392MOL0     C53973   8.188   9.936   3.646 -0.3319 -0.0682 -0.5374
  392MOL0     C53974   8.271  10.054   3.670  0.3147 -0.3254  0.1419
  392MOL0     N53975   8.333  10.111   3.549 -0.2918  0.2733  0.5917
  392MOL0     C53976   8.462  10.159   3.521 -0.1242  0.0539 -1.7332
  392MOL0     C53977   8.462  10.194   3.392  0.0859  0.0995 -0.4019
  392MOL0     C53978   8.574  10.259   3.319 -0.0940 -0.2813 -0.1815
  392MOL0     C53979   8.562  10.406   3.338 -0.3516  0.2244  0.4007
  392MOL0     C53980   8.634  10.477   3.224  0.6726  0.0604  1.0162
  392MOL0     C53981   8.782  10.444   3.239  0.4375 -0.2382 -0.0113
  392MOL0     O53982   8.865  10.544   3.176  0.3441  0.4739 -0.5262
  392MOL0     C53983   8.890  10.535   3.046 -0.1194 -1.0561  0.5780
  392MOL0     C53984   8.820  10.463   2.951 -0.8360 -0.7522  0.6181
  392MOL0     C53985   8.845  10.467   2.814 -0.4662  0.4235  0.8444
  392MOL0     C53986   8.762  10.378   2.718 -0.9619 -0.3461  0.7517
  392MOL0     C53987   8.945  10.570   2.775  0.0725 -0.3143  0.6112
  392MOL0     C53988   8.984  10.585   2.632 -0.6354  0.1511 -0.6206
  392MOL0     O53989   9.025  10.709   2.588  0.3218  0.8366 -0.3715
  392MOL0     C53990   9.102  10.717   2.471  0.1202  0.9356 -0.2614
  392MOL0     C53991   9.102  10.839   2.401 -0.0100  0.1138 -0.6837
  392MOL0     C53992   9.176  10.858   2.287  0.4785 -0.4324  0.2756
  392MOL0     C53993   9.273  10.765   2.250  0.1525  0.2505  0.3829
  392MOL0     O53994   9.354  10.815   2.147  0.5659  0.6309  0.0788
  392MOL0     C53995   9.449  10.716   2.096 -0.4110  0.0055  0.5188
  392MOL0     C53996   9.540  10.772   1.989 -0.3868 -0.4484  0.3652
  392MOL0     C53997   9.445  10.862   1.892 -0.3764  0.0167 -0.2430
  392MOL0     C53998   9.527  10.918   1.768 -0.0135 -0.0188 -0.3474
  392MOL0     C53999   9.439  11.021   1.698  0.2684  0.8477  0.2411
  392MOL0     C54000   9.515  11.080   1.574  0.2634  0.5395 -0.2350
  392MOL0     C54001   9.408  11.138   1.476 -0.0325 -0.1744  0.3136
  392MOL0     C54002   9.468  11.219   1.363  0.0854  0.1970 -0.1088
  392MOL0    Cl54003   9.584  11.104   1.269  0.6329 -0.2723 -0.0430
  392MOL0     C54004   9.300  10.656   2.329  0.6793 -0.6644  0.2604
  392MOL0     C54005   9.213  10.632   2.437 -0.3321  1.0475  0.1168
  392MOL0     O54006   8.992  10.481   2.571 -0.0946 -0.1268 -0.0608
  392MOL0     C54007   9.010  10.651   2.871 -0.6167 -0.5489  0.1863
  392MOL0     C54008   8.981  10.632   3.007 -0.3109  0.2771  0.0154
  392MOL0     N54009   8.339  10.168   3.332  0.2345 -0.2793 -0.5310
  392MOL0     N54010   8.263  10.129   3.429  0.3732 -0.2095  1.1485
  392MOL0     C54011   7.507   9.332   3.789  0.5953 -0.3815 -1.2995
  392MOL0     C54012   7.395   9.245   3.762  0.4084  0.2848  0.6767
  392MOL0     C54013   7.180   8.806   3.735 -0.4996 -0.4707  0.3014
  392MOL0     C54014   7.191   8.820   3.591 -0.0333  0.4582 -0.9924
  392MOL0     C54015   7.138   8.729   3.502 -1.2734 -0.2127  0.8170
  392MOL0     C54016   7.071   8.615   3.548 -0.7269 -0.7351 -1.0300
  392MOL0     O54017   7.012   8.528   3.455 -0.7017  0.4448 -0.5710
  392MOL0     C54018   7.018   8.547   3.312 -0.4006 -0.8580 -0.2104
  392MOL0     C54019   6.924   8.645   3.257  0.1714 -0.7129 -0.7077
  392MOL0     C54020   6.780   8.618   3.278  0.2084  0.7831 -0.1746
  392MOL0     C54021   6.697   8.591   3.151 -0.2944 -0.6743 -0.4530
  392MOL0     C54022   6.576   8.502   3.168  0.0090 -0.8294  0.5336
  392MOL0     C54023   6.480   8.427   3.177 -0.1089  0.4363  1.5534
  392MOL0     C54024   7.078   8.603   3.691 -0.3829  0.6515  0.5952
  392MOL0     C54025   7.114   8.694   3.787  0.1002 -0.7771  0.4194
  392MOL0     C54026   7.087   8.673   3.930 -0.3698  0.0587 -0.4509
  392MOL0     H54027   7.504   8.974   3.919  0.6643  1.2839 -1.0736
  392MOL0     H54028   7.691   9.103   3.968 -2.2005 -1.6752  2.3388
  392MOL0     H54029   7.893   9.286   3.903  1.7765  4.0597 -2.1063
  392MOL0     H54030   7.804   9.292   4.061 -1.8436  1.1689 -0.8238
  392MOL0     H54031   7.812   9.531   4.041  1.2857  0.0275  0.8091
  392MOL0     H54032   7.978   9.479   4.064  0.7574  3.9753  0.4941
  392MOL0     H54033   8.000   9.477   3.803 -0.1868  0.4695 -1.5136
  392MOL0     H54034   7.846   9.553   3.807  0.9008 -0.5493 -0.4096
  392MOL0     H54035   7.957   9.745   3.949 -0.5675 -0.4890  0.1794
  392MOL0     H54036   8.112   9.652   3.929 -1.4683 -4.3095  1.3947
  392MOL0     H54037   7.952   9.768   3.689  0.1798  0.5080 -1.2479
  392MOL0     H54038   8.102   9.669   3.699  2.4683  1.7074  0.5050
  392MOL0     H54039   8.084   9.948   3.839 -1.5346 -0.3305  0.8689
  392MOL0     H54040   8.218   9.829   3.827 -3.1377 -1.8095  2.6668
  392MOL0     H54041   8.107   9.973   3.582  0.7224 -0.8906 -2.4192
  392MOL0     H54042   8.248   9.871   3.583 -1.4118 -0.4075 -1.2481
  392MOL0     H54043   8.215  10.136   3.715 -2.3202 -0.1257 -3.0916
  392MOL0     H54044   8.361  10.025   3.726  0.5822 -2.8387 -1.4305
  392MOL0     H54045   8.541  10.169   3.595 -0.5643  1.4205 -1.4047
  392MOL0     H54046   8.576  10.233   3.213 -1.9515 -2.2120  0.1804
  392MOL0     H54047   8.670  10.232   3.363  2.1336  0.1062 -4.3079
  392MOL0     H54048   8.457  10.438   3.345 -0.9104 -1.1864 -1.0260
  392MOL0     H54049   8.596  10.436   3.438  2.2728  0.0367 -0.3611
  392MOL0     H54050   8.591  10.460   3.125  1.6835 -0.4240  0.6440
  392MOL0     H54051   8.622  10.585   3.235 -0.9518  0.0944 -0.6337
  392MOL0     H54052   8.811  10.428   3.343  5.2890 -3.5689 -1.5597
  392MOL0     H54053   8.815  10.347   3.203  2.5652 -0.4165  2.1959
  392MOL0     H54054   8.746  10.394   2.992 -2.9481  0.6555 -0.5845
  392MOL0     H54055   8.682  10.325   2.771 -0.5263  0.6266  2.4432
  392MOL0     H54056   8.842  10.309   2.690 -0.2006  0.3049  1.2998
  392MOL0     H54057   8.727  10.446   2.640  0.9519  1.6544  1.5168
  392MOL0     H54058   9.035  10.916   2.439  1.4586  0.6625  0.9151
  392MOL0     H54059   9.168  10.952   2.232 -0.6485 -2.0198 -2.4878
  392MOL0     H54060   9.518  10.683   2.174  2.3018  2.0624 -0.8567
  392MOL0     H54061   9.389  10.637   2.050 -0.9205 -0.9366  2.6712
  392MOL0     H54062   9.623  10.834   2.026 -0.2484  0.5091 -1.4280
  392MOL0     H54063   9.585  10.693   1.928 -1.9250 -0.4233 -0.8478
  392MOL0     H54064   9.410  10.953   1.941 -1.2699 -0.3572 -0.1755
  392MOL0     H54065   9.365  10.793   1.862 -0.7015 -0.3342  1.3301
  392MOL0     H54066   9.561  10.843   1.696  3.0515  1.9614 -1.1655
  392MOL0     H54067   9.614  10.966   1.814  0.9996 -2.0302 -0.0852
  392MOL0     H54068   9.354  10.964   1.659 -1.2295  0.8371  3.1937
  392MOL0     H54069   9.403  11.098   1.768  0.3017  0.9066  0.1934
  392MOL0     H54070   9.584  11.006   1.534  1.5435  1.0722  0.8886
  392MOL0     H54071   9.575  11.160   1.619 -1.2768  0.0818  2.8805
  392MOL0     H54072   9.334  11.197   1.532  0.5843 -0.6925  1.6944
  392MOL0     H54073   9.350  11.055   1.434 -1.3321  0.3876  0.9424
  392MOL0     H54074   9.528  11.302   1.401 -1.6281  1.6210 -0.4071
  392MOL0     H54075   9.391  11.259   1.296 -0.2886 -0.7475 -0.2661
  392MOL0     H54076   9.370  10.577   2.304 -2.6425 -3.8059 -0.0325
  392MOL0     H54077   9.236  10.537   2.483 -1.7332  1.1908  1.1658
  392MOL0     H54078   9.072  10.734   2.840 -2.7923 -0.1726 -3.9350
  392MOL0     H54079   9.037  10.684   3.083  1.7597 -1.5552 -0.1856
  392MOL0     H54080   7.505   9.439   3.766 -1.1376  0.3656  1.7556
  392MOL0     H54081   7.317   9.280   3.695  0.7546 -2.0479 -1.1173
  392MOL0     H54082   7.232   8.908   3.543  0.2017  0.9799  0.1165
  392MOL0     H54083   7.161   8.757   3.400 -1.1496  1.2890  1.2296
  392MOL0     H54084   7.122   8.567   3.282 -0.9098 -1.1039 -2.2337
  392MOL0     H54085   6.996   8.454   3.258 -1.2933 -0.5987 -0.3071
  392MOL0     H54086   6.937   8.651   3.148 -0.5954  1.0633 -0.7395
  392MOL0     H54087   6.944   8.746   3.293 -1.3194  0.3287 -2.5976
  392MOL0     H54088   6.756   8.538   3.349  0.8338  0.0508 -0.7792
  392MOL0     H54089   6.739   8.710   3.321  0.7788  0.2268  1.6428
  392MOL0     H54090   6.766   8.556   3.073  1.5010  4.0621 -1.3943
  392MOL0     H54091   6.664   8.690   3.117  0.3530 -1.2198 -2.8535
  392MOL0     H54092   6.395   8.363   3.186 -0.5924  0.2723 -2.4173
  392MOL0     H54093   7.028   8.518   3.737 -1.1973 -0.5736 -2.3022
  392MOL0     H54094   7.079   8.765   3.989  2.6900 -2.1078  3.9094
  392MOL0     H54095   6.998   8.611   3.947  1.3282 -2.0323  1.5200
  392MOL0     H54096   7.175   8.620   3.968 -0.1752 -0.0884 -1.1056
  393MOL0     O54097   2.622   5.265   1.983 -0.6689 -0.1029  0.4499
  393MOL0     C54098   2.532   5.212   2.051  0.3792  0.5108  0.8303
  393MOL0     O54099   2.419   5.159   2.001 -0.3248  0.0040 -0.1061
  393MOL0     C54100   2.392   5.143   1.865  0.1992 -0.4614  0.4383
  393MOL0     C54101   2.465   5.182   1.748  0.3531 -0.2878 -0.6102
  393MOL0     C54102   2.413   5.158   1.623  0.8037  0.1753 -1.2451
  393MOL0     C54103   2.288   5.091   1.609 -0.4635  0.1692  0.2046
  393MOL0     O54104   2.231   5.064   1.484  0.1042  0.2821 -0.3846
  393MOL0     C54105   2.250   5.158   1.377 -0.0467 -0.0364 -0.1353
  393MOL0     C54106   2.144   5.134   1.267  0.4710 -0.1595  0.4815
  393MOL0     C54107   2.177   5.223   1.150 -0.3965  0.7531 -0.9185
  393MOL0     C54108   2.305   5.184   1.072  0.3950  0.5871  1.1531
  393MOL0     C54109   2.279   5.212   0.928  0.0688 -0.2357  0.3615
  393MOL0     C54110   2.373   5.142   0.828  0.6744 -0.6707 -0.4383
  393MOL0     C54111   2.331   5.168   0.686  0.9775 -0.3157  0.5297
  393MOL0     C54112   2.398   5.081   0.589 -0.2029  0.3015  0.2901
  393MOL0     N54113   2.534   5.095   0.564  0.7237 -0.9353 -0.1814
  393MOL0     C54114   2.626   4.994   0.543  0.3520 -0.8313 -0.3567
  393MOL0     C54115   2.745   5.048   0.548 -0.4354 -0.8721 -0.2405
  393MOL0     C54116   2.880   4.974   0.532 -0.1497 -0.5918  0.6041
  393MOL0     C54117   2.963   5.014   0.398 -0.1166  0.0292 -0.6821
  393MOL0     C54118   3.015   5.156   0.408  0.0068  0.0235  0.0590
  393MOL0     C54119   3.110   5.186   0.525 -0.4984  0.7845  0.3590
  393MOL0     O54120   3.216   5.088   0.520  0.1011 -0.4476 -0.3114
  393MOL0     C54121   3.328   5.112   0.454  0.4425 -0.5860  0.7523
  393MOL0     C54122   3.362   5.206   0.354 -0.0769  0.2274 -0.0536
  393MOL0     C54123   3.494   5.226   0.301  0.5753 -0.4765  0.4703
  393MOL0     C54124   3.524   5.342   0.209 -0.3674  0.0158 -0.4921
  393MOL0     C54125   3.594   5.133   0.348  0.1814  0.7072  0.1837
  393MOL0     C54126   3.741   5.131   0.306  0.0336  0.3437 -1.0687
  393MOL0     O54127   3.821   5.024   0.348 -0.4908  0.5861 -0.0556
  393MOL0     C54128   3.949   5.032   0.305 -0.4062 -0.6970 -0.9929
  393MOL0     C54129   3.990   4.974   0.188  0.3578 -0.1013 -0.3541
  393MOL0     C54130   4.128   4.985   0.150  0.3677 -0.0131 -0.1322
  393MOL0     C54131   4.226   5.037   0.231 -0.0620 -0.3683 -0.9605
  393MOL0     O54132   4.349   5.041   0.192 -0.4058  0.6305  0.3721
  393MOL0     C54133   4.367   5.154   0.104 -0.1997  0.7762  0.3750
  393MOL0     C54134   4.508   5.128   0.056  0.0676  0.2302 -0.8537
  393MOL0     C54135   4.541   5.216  -0.069 -0.1733 -0.0575 -0.4409
  393MOL0     C54136   4.688   5.196  -0.105 -1.1630  0.2859  0.7821
  393MOL0     C54137   4.719   5.213  -0.256  0.6949 -0.3485 -0.5564
  393MOL0     C54138   4.705   5.366  -0.280 -1.5601  0.0828  0.2497
  393MOL0     C54139   4.733   5.409  -0.412 -0.4900  0.0544 -0.6183
  393MOL0     C54140   4.712   5.567  -0.431 -0.0014 -0.1952 -0.1806
  393MOL0    Cl54141   4.544   5.606  -0.410 -0.0493 -0.0568 -0.0128
  393MOL0     C54142   4.190   5.093   0.355  0.2131  1.1363 -0.6047
  393MOL0     C54143   4.053   5.086   0.390  0.3588  0.0191 -0.4497
  393MOL0     O54144   3.786   5.223   0.244 -0.4453 -0.6182  0.1204
  393MOL0     C54145   3.558   5.037   0.452  0.7978  0.6063  0.6668
  393MOL0     C54146   3.427   5.035   0.506  0.3446  0.3936 -0.0018
  393MOL0     N54147   2.735   5.184   0.567  0.4054 -0.0703 -0.5677
  393MOL0     N54148   2.607   5.208   0.575 -0.1250 -0.0100 -0.3848
  393MOL0     C54149   2.225   5.046   1.723  0.7332 -0.3943 -0.5181
  393MOL0     C54150   2.266   5.078   1.850 -0.9687  0.1484 -0.1769
  393MOL0     C54151   2.549   5.209   2.192  1.4377 -0.1282 -0.6327
  393MOL0     C54152   2.436   5.252   2.265 -0.9921  0.5104 -0.0211
  393MOL0     C54153   2.448   5.265   2.402  0.1980 -0.8557  0.1228
  393MOL0     C54154   2.562   5.234   2.476  0.1552 -1.1777  0.6652
  393MOL0     O54155   2.564   5.239   2.613  0.6825  0.6559 -0.4832
  393MOL0     C54156   2.597   5.363   2.677  0.1075  0.0711  0.6843
  393MOL0     C54157   2.562   5.360   2.822  0.5645 -0.0526 -0.3177
  393MOL0     C54158   2.557   5.507   2.879 -0.7100  0.3435 -0.5809
  393MOL0     C54159   2.499   5.504   3.021  0.7503  0.1056 -0.7259
  393MOL0     C54160   2.456   5.642   3.047  0.3112  0.3626  0.2697
  393MOL0     C54161   2.423   5.760   3.062 -0.5595  0.7550  0.6916
  393MOL0     C54162   2.680   5.195   2.409  0.4169 -0.5041 -0.4174
  393MOL0     C54163   2.670   5.197   2.267 -0.1512 -0.0740 -0.0353
  393MOL0     C54164   2.795   5.169   2.198  0.1492  0.5250  0.0838
  393MOL0     H54165   2.561   5.232   1.757 -0.2547  0.6050  1.2923
  393MOL0     H54166   2.458   5.205   1.536 -0.4211  2.2219 -0.8470
  393MOL0     H54167   2.355   5.152   1.346 -0.2456  1.1255 -1.0711
  393MOL0     H54168   2.229   5.256   1.419  2.1364  1.2717 -1.8752
  393MOL0     H54169   2.145   5.032   1.228 -1.5419 -0.4229  1.0240
  393MOL0     H54170   2.043   5.166   1.294  0.6521 -0.5270  1.6723
  393MOL0     H54171   2.079   5.210   1.103 -1.3153  0.0841  1.0943
  393MOL0     H54172   2.186   5.326   1.184  0.3318  0.2598  0.4366
  393MOL0     H54173   2.385   5.238   1.123 -0.3896  1.4993  1.4551
  393MOL0     H54174   2.330   5.078   1.082 -0.2648  0.3976  0.8922
  393MOL0     H54175   2.271   5.319   0.909  1.6264 -0.2659 -0.7126
  393MOL0     H54176   2.179   5.174   0.904 -0.4053  0.7922  0.6463
  393MOL0     H54177   2.480   5.160   0.846  0.0735  1.2966  1.6624
  393MOL0     H54178   2.361   5.036   0.850 -1.8608 -0.2206  0.6288
  393MOL0     H54179   2.357   5.268   0.651  2.5596 -0.9185 -0.0903
  393MOL0     H54180   2.222   5.160   0.673  0.6171  0.1432  2.8627
  393MOL0     H54181   2.390   4.980   0.629  1.2870 -0.1075 -0.3891
  393MOL0     H54182   2.351   5.085   0.491 -3.8102  0.2268  1.8634
  393MOL0     H54183   2.611   4.887   0.537  0.8538 -0.8335 -2.8430
  393MOL0     H54184   2.859   4.867   0.528 -1.7788 -0.5226  3.7189
  393MOL0     H54185   2.937   4.992   0.624 -0.8257  1.8152  0.6235
  393MOL0     H54186   3.046   4.943   0.395  0.0554  0.1841  0.1839
  393MOL0     H54187   2.898   5.001   0.311 -2.7985  0.6188  1.0936
  393MOL0     H54188   3.060   5.165   0.308 -0.9177  2.1454 -0.2266
  393MOL0     H54189   2.930   5.224   0.407 -0.7411 -0.8506  1.4258
  393MOL0     H54190   3.150   5.287   0.533  0.8741  0.1484  2.0213
  393MOL0     H54191   3.051   5.171   0.616 -2.1689  1.0106 -0.6337
  393MOL0     H54192   3.283   5.269   0.316  1.3466  1.0595 -1.7926
  393MOL0     H54193   3.435   5.400   0.183 -1.9436 -0.3939  3.2951
  393MOL0     H54194   3.567   5.306   0.115  1.2275  1.9651 -0.5685
  393MOL0     H54195   3.590   5.410   0.264  0.2897 -0.0488 -1.1861
  393MOL0     H54196   3.922   4.929   0.115  2.2414  0.3452 -2.4957
  393MOL0     H54197   4.145   4.957   0.046 -0.8909 -0.5289 -0.2251
  393MOL0     H54198   4.303   5.144   0.016  1.0048  2.2319 -0.7228
  393MOL0     H54199   4.361   5.253   0.150  0.6564  1.9305 -1.8533
  393MOL0     H54200   4.578   5.160   0.134  1.2217 -1.7570 -1.0308
  393MOL0     H54201   4.509   5.022   0.032 -1.8927  0.1945 -0.9123
  393MOL0     H54202   4.523   5.320  -0.040  0.8178 -0.9443  4.1523
  393MOL0     H54203   4.476   5.190  -0.153 -3.1942  1.3000  1.3258
  393MOL0     H54204   4.708   5.089  -0.095  0.1724  0.6097  2.0015
  393MOL0     H54205   4.763   5.253  -0.049 -1.5396  1.4744  0.1221
  393MOL0     H54206   4.821   5.190  -0.289  0.7882 -1.8876  0.6504
  393MOL0     H54207   4.642   5.161  -0.314 -0.1491 -2.0636  1.9475
  393MOL0     H54208   4.782   5.423  -0.227 -0.8449  1.7758 -2.3985
  393MOL0     H54209   4.604   5.405  -0.266 -0.2669  3.5843  0.8012
  393MOL0     H54210   4.680   5.347  -0.485 -1.6982 -0.3255  0.5457
  393MOL0     H54211   4.836   5.399  -0.447 -0.6732  1.6682 -1.7269
  393MOL0     H54212   4.751   5.591  -0.530 -2.1971 -3.9750 -2.2113
  393MOL0     H54213   4.769   5.616  -0.351  1.8304  0.4848 -1.8237
  393MOL0     H54214   4.271   5.115   0.423 -1.0146 -2.7488  2.4741
  393MOL0     H54215   4.035   5.119   0.492  1.0763 -1.5148  0.2204
  393MOL0     H54216   3.631   4.980   0.509  1.0033 -1.8641 -1.8754
  393MOL0     H54217   3.393   4.965   0.581 -3.1964  0.5530 -1.2483
  393MOL0     H54218   2.136   4.984   1.720  0.2240  0.3659 -2.4679
  393MOL0     H54219   2.222   5.047   1.944  3.6460  0.1606  2.2541
  393MOL0     H54220   2.343   5.272   2.212 -0.3491  1.2756 -0.8891
  393MOL0     H54221   2.357   5.293   2.455 -0.2766  0.1277 -1.1401
  393MOL0     H54222   2.706   5.375   2.670 -0.0075  0.6190 -0.4717
  393MOL0     H54223   2.547   5.445   2.624 -0.2293  0.7241  1.9858
  393MOL0     H54224   2.633   5.293   2.871 -0.2479 -1.6492 -1.2183
  393MOL0     H54225   2.460   5.320   2.824  0.4579 -0.0504 -2.8019
  393MOL0     H54226   2.655   5.556   2.885  0.4327 -1.8091 -0.7297
  393MOL0     H54227   2.491   5.563   2.812 -1.1373  1.6345  0.8704
  393MOL0     H54228   2.578   5.478   3.092  0.3902  2.2860  0.5633
  393MOL0     H54229   2.414   5.435   3.020 -2.2042  3.3681  1.8831
  393MOL0     H54230   2.404   5.865   3.075 -2.1261  0.9534 -2.2512
  393MOL0     H54231   2.771   5.170   2.462  0.1397  0.6465  0.6552
  393MOL0     H54232   2.816   5.264   2.148  2.4465  0.6691  1.2155
  393MOL0     H54233   2.876   5.127   2.258  1.0186 -0.7213 -1.8699
  393MOL0     H54234   2.785   5.103   2.112  0.1108  0.4243  0.1649
  394MOL0     O54235   5.589   4.854   1.868 -0.1386  0.5710 -0.2918
  394MOL0     C54236   5.539   4.893   1.766  0.2359 -0.6399  1.1844
  394MOL0     O54237   5.414   4.870   1.725 -0.0409 -0.8806  0.7548
  394MOL0     C54238   5.343   4.758   1.766 -1.4920  0.1535 -0.2272
  394MOL0     C54239   5.375   4.633   1.722 -0.0940  0.1089  0.3490
  394MOL0     C54240   5.300   4.529   1.773 -0.2375 -0.2759 -0.4391
  394MOL0     C54241   5.215   4.537   1.886  0.0497  0.1581  0.0153
  394MOL0     O54242   5.160   4.416   1.930 -0.5099  0.0026  0.1984
  394MOL0     C54243   5.238   4.376   2.048  0.4868 -0.6320  0.8645
  394MOL0     C54244   5.254   4.225   2.055 -0.6003 -1.6133  0.2078
  394MOL0     C54245   5.340   4.198   2.181  0.8051  0.0111 -0.0275
  394MOL0     C54246   5.390   4.044   2.198  0.0885  0.1351  0.2840
  394MOL0     C54247   5.334   3.974   2.315 -0.2413 -0.0063 -0.3853
  394MOL0     C54248   5.387   3.829   2.332  0.3000  0.0310  0.0082
  394MOL0     C54249   5.302   3.754   2.428 -0.0542 -0.4655 -0.2707
  394MOL0     C54250   5.307   3.792   2.572 -0.1241  0.0920  0.7387
  394MOL0     N54251   5.439   3.793   2.639  0.9191  0.3141  0.1128
  394MOL0     C54252   5.494   3.893   2.709  0.5917  0.0561 -0.0923
  394MOL0     C54253   5.580   3.834   2.792  0.4169  1.0117  0.5970
  394MOL0     C54254   5.674   3.923   2.881  0.3860  0.0868  0.8374
  394MOL0     C54255   5.798   3.842   2.932  0.2374 -1.1371  0.0666
  394MOL0     C54256   5.894   3.932   2.998 -0.2483  0.3701 -0.5221
  394MOL0     C54257   6.039   3.882   3.001  0.3397 -0.7931  0.1379
  394MOL0     O54258   6.113   3.966   3.089 -0.1383 -0.0584 -0.1537
  394MOL0     C54259   6.238   3.905   3.097  0.9155 -0.4975 -0.2985
  394MOL0     C54260   6.342   3.925   3.005 -0.3831  0.3122  0.2712
  394MOL0     C54261   6.454   3.855   2.998 -0.3186  0.7090  0.8718
  394MOL0     C54262   6.557   3.892   2.893  0.5552 -0.2694 -0.6357
  394MOL0     C54263   6.483   3.762   3.103 -0.8661  0.2648 -0.1830
  394MOL0     C54264   6.603   3.669   3.116 -1.0441  0.6389 -0.0553
  394MOL0     O54265   6.576   3.545   3.173 -0.0910  0.2062  0.2648
  394MOL0     C54266   6.680   3.491   3.249 -0.1930  0.0660  0.7515
  394MOL0     C54267   6.686   3.532   3.383 -0.4788  0.8196 -0.1462
  394MOL0     C54268   6.789   3.495   3.472  0.4802  0.7108  0.2433
  394MOL0     C54269   6.901   3.424   3.417 -0.0159 -0.2876  0.8476
  394MOL0     O54270   7.007   3.398   3.496 -0.4902  0.4850 -0.3677
  394MOL0     C54271   7.010   3.263   3.555 -0.5115 -0.2480 -0.1690
  394MOL0     C54272   7.141   3.239   3.621 -0.6464  0.9097 -0.6898
  394MOL0     C54273   7.164   3.115   3.707  1.2978 -0.0994 -0.3193
  394MOL0     C54274   7.290   3.125   3.781 -0.7221 -0.7428 -0.6613
  394MOL0     C54275   7.332   2.999   3.856 -0.1731  0.3417  0.1332
  394MOL0     C54276   7.470   3.012   3.927  1.4984 -0.5683 -0.4219
  394MOL0     C54277   7.491   2.885   4.007  0.9145 -0.2979 -0.0395
  394MOL0     C54278   7.618   2.910   4.089 -0.8502  0.0571  0.2638
  394MOL0    Cl54279   7.768   2.919   3.989  0.6558  0.2376  0.2830
  394MOL0     C54280   6.890   3.383   3.286 -0.1458 -0.6343  0.5088
  394MOL0     C54281   6.788   3.423   3.198 -1.0446 -0.3749  0.9306
  394MOL0     O54282   6.711   3.709   3.089 -0.7041  0.0664  0.6872
  394MOL0     C54283   6.391   3.755   3.205 -0.7973  0.9201 -0.7455
  394MOL0     C54284   6.261   3.820   3.199 -0.0833 -0.6356 -0.3952
  394MOL0     N54285   5.585   3.701   2.759  0.6920  0.0320  0.1744
  394MOL0     N54286   5.504   3.678   2.661  0.7948  0.2627  0.1280
  394MOL0     C54287   5.187   4.666   1.929  0.2257 -0.2589 -0.6895
  394MOL0     C54288   5.249   4.776   1.867  0.3206  0.4620  0.4378
  394MOL0     C54289   5.598   5.008   1.688 -0.0772  0.9370 -0.4575
  394MOL0     C54290   5.515   5.119   1.679 -0.2207 -0.4093  1.0591
  394MOL0     C54291   5.561   5.229   1.605 -0.2959 -0.7224 -0.0605
  394MOL0     C54292   5.681   5.243   1.549 -1.4054  0.5731  0.2195
  394MOL0     O54293   5.730   5.348   1.478  0.2312 -0.6122  0.4663
  394MOL0     C54294   5.675   5.478   1.484  1.3335 -1.2626  0.1687
  394MOL0     C54295   5.754   5.583   1.401 -1.2423  0.5306 -0.5190
  394MOL0     C54296   5.738   5.552   1.257 -0.1085 -0.3340  0.5534
  394MOL0     C54297   5.826   5.655   1.184 -0.0656  0.2285 -0.0522
  394MOL0     C54298   5.804   5.614   1.040 -1.7133 -0.3288 -0.0846
  394MOL0     C54299   5.796   5.583   0.925 -0.3431  0.0225  0.9808
  394MOL0     C54300   5.770   5.137   1.571 -0.2952  0.9044  0.2678
  394MOL0     C54301   5.731   5.015   1.636  0.2455  0.5634 -0.6024
  394MOL0     C54302   5.832   4.904   1.659 -0.3139  0.2847 -0.5953
  394MOL0     H54303   5.442   4.611   1.640  1.2938 -1.6611  1.8724
  394MOL0     H54304   5.334   4.434   1.735  3.1586 -0.1631  1.8645
  394MOL0     H54305   5.180   4.415   2.132 -0.1734  1.8017 -0.6251
  394MOL0     H54306   5.336   4.423   2.039 -0.2370  0.7556 -0.1589
  394MOL0     H54307   5.157   4.175   2.062 -0.5706 -1.6505  0.3435
  394MOL0     H54308   5.296   4.189   1.961  0.3107 -0.1950  0.0370
  394MOL0     H54309   5.434   4.254   2.176  1.4485 -0.3608  4.3644
  394MOL0     H54310   5.290   4.232   2.272 -1.3399  0.8123 -1.4382
  394MOL0     H54311   5.364   3.989   2.108 -1.9154 -1.5354  1.7821
  394MOL0     H54312   5.497   4.041   2.222  0.7119  0.8944 -2.1617
  394MOL0     H54313   5.224   3.979   2.309 -0.1682  0.1420 -1.9994
  394MOL0     H54314   5.360   4.036   2.401  0.4167  0.3923 -0.8613
  394MOL0     H54315   5.381   3.786   2.231  3.1601 -3.4893  1.1340
  394MOL0     H54316   5.489   3.841   2.368  0.4642 -0.4144 -0.3016
  394MOL0     H54317   5.328   3.650   2.410  2.9558  0.3555 -1.3196
  394MOL0     H54318   5.195   3.761   2.405 -0.4699  0.1001  1.6348
  394MOL0     H54319   5.277   3.897   2.577  2.0583  0.9183 -1.5355
  394MOL0     H54320   5.242   3.735   2.639  0.3463 -0.2226  0.9349
  394MOL0     H54321   5.468   3.998   2.703 -2.8723 -0.6766  0.3314
  394MOL0     H54322   5.620   3.970   2.963 -2.5248 -1.1320 -0.2367
  394MOL0     H54323   5.708   4.002   2.814  2.6332  0.0562  1.8448
  394MOL0     H54324   5.763   3.764   3.000  2.0560  0.3768  2.8922
  394MOL0     H54325   5.831   3.802   2.835  0.6137  0.8236 -0.6490
  394MOL0     H54326   5.886   4.028   2.946  2.6213  1.2362  0.4448
  394MOL0     H54327   5.850   3.945   3.097 -2.8220  0.6154 -1.6138
  394MOL0     H54328   6.030   3.777   3.027 -1.3156 -0.5729  0.5768
  394MOL0     H54329   6.077   3.884   2.898  1.6040  0.7361  0.5915
  394MOL0     H54330   6.309   3.990   2.925 -2.9595  0.0992  1.0755
  394MOL0     H54331   6.512   3.960   2.820  0.9987  1.1905  0.3980
  394MOL0     H54332   6.596   3.803   2.842  2.9868 -0.4222  1.3110
  394MOL0     H54333   6.643   3.946   2.933  2.0758 -1.1514 -2.5334
  394MOL0     H54334   6.603   3.597   3.407 -0.2441  0.2920  2.2663
  394MOL0     H54335   6.796   3.521   3.577 -1.7806  4.7778 -0.4128
  394MOL0     H54336   6.932   3.257   3.631  1.0888 -2.5593  1.3983
  394MOL0     H54337   6.996   3.184   3.480  1.7121  0.2421 -1.1771
  394MOL0     H54338   7.213   3.245   3.539 -1.9302 -0.0348 -1.9428
  394MOL0     H54339   7.155   3.326   3.685 -2.9646  1.5453 -0.9466
  394MOL0     H54340   7.179   3.033   3.636  1.2877  1.0675 -1.7034
  394MOL0     H54341   7.077   3.077   3.761  2.0803 -3.6000 -1.2398
  394MOL0     H54342   7.276   3.198   3.861  0.0131  0.1807 -1.3502
  394MOL0     H54343   7.370   3.159   3.715 -1.0344  1.8055  0.1649
  394MOL0     H54344   7.257   2.965   3.928 -1.0034  2.1960  0.2228
  394MOL0     H54345   7.338   2.920   3.781  1.1575  1.8653 -1.4517
  394MOL0     H54346   7.470   3.097   3.995  1.0481  0.2884 -1.4543
  394MOL0     H54347   7.554   3.021   3.857  3.7781 -3.4000  1.7009
  394MOL0     H54348   7.507   2.799   3.941  0.2961 -1.2630  1.0214
  394MOL0     H54349   7.402   2.867   4.068 -0.6619  2.1309 -1.4629
  394MOL0     H54350   7.620   2.831   4.165  1.7605 -0.5908 -0.3921
  394MOL0     H54351   7.621   3.003   4.146 -1.0416 -1.4051  2.8356
  394MOL0     H54352   6.959   3.312   3.243  1.0085 -1.3249  3.2443
  394MOL0     H54353   6.787   3.404   3.091 -1.9880 -2.8617  1.3301
  394MOL0     H54354   6.419   3.689   3.286 -1.7970  0.3313 -0.8579
  394MOL0     H54355   6.189   3.783   3.271  0.3036 -1.6325 -0.5036
  394MOL0     H54356   5.126   4.686   2.017 -2.0796 -1.2147 -1.9745
  394MOL0     H54357   5.244   4.873   1.915 -0.4746  0.4486  0.3981
  394MOL0     H54358   5.425   5.119   1.739  0.7619 -3.3577  2.6855
  394MOL0     H54359   5.506   5.321   1.623  0.6692 -0.0211 -0.5963
  394MOL0     H54360   5.567   5.470   1.464  0.8077 -1.6720  2.8029
  394MOL0     H54361   5.668   5.513   1.587 -1.1454  0.3277 -0.4473
  394MOL0     H54362   5.858   5.584   1.435 -0.7208  2.4291 -1.9841
  394MOL0     H54363   5.717   5.684   1.419  1.1934  0.8588  3.9887
  394MOL0     H54364   5.774   5.452   1.236  0.6318  0.4652 -2.3268
  394MOL0     H54365   5.631   5.564   1.241  0.0031  0.0016  0.0361
  394MOL0     H54366   5.929   5.633   1.215 -0.2431  1.3832  1.4801
  394MOL0     H54367   5.796   5.755   1.217 -0.6577  0.4922 -1.3536
  394MOL0     H54368   5.796   5.545   0.824 -3.1764 -2.2323  1.7109
  394MOL0     H54369   5.875   5.139   1.547 -0.2468 -2.1367 -0.1575
  394MOL0     H54370   5.796   4.804   1.631 -0.3555  0.3675 -0.8375
  394MOL0     H54371   5.928   4.917   1.610 -1.3172 -0.2418 -2.8386
  394MOL0     H54372   5.851   4.907   1.767 -0.2828 -0.1886 -0.5842
  395MOL0     O54373   8.245   5.084  10.524  0.0901 -0.1486 -0.7195
  395MOL0     C54374   8.193   4.976  10.483  0.0402 -0.6658 -0.8146
  395MOL0     O54375   8.219   4.861  10.529  0.0895 -0.0602 -0.0789
  395MOL0     C54376   8.334   4.842  10.611  0.3061  0.8064 -0.2647
  395MOL0     C54377   8.454   4.812  10.543 -0.2053  0.2986 -0.5974
  395MOL0     C54378   8.566   4.765  10.621  0.2420  0.5604 -0.1055
  395MOL0     C54379   8.555   4.769  10.762  0.3843  0.9282 -0.3860
  395MOL0     O54380   8.654   4.702  10.841 -0.2781  0.2903  0.5289
  395MOL0     C54381   8.756   4.792  10.900  0.0741 -0.0231  0.1551
  395MOL0     C54382   8.838   4.868  10.794  0.5655  0.2819 -0.0500
  395MOL0     C54383   8.941   4.973  10.854 -0.5150 -0.2621  0.0014
  395MOL0     C54384   8.885   5.116  10.907  0.4065  0.1445  0.3868
  395MOL0     C54385   8.989   5.230  10.885 -0.3275  0.4132  0.1792
  395MOL0     C54386   9.112   5.223  10.980  0.6147 -0.3361  0.2427
  395MOL0     C54387   9.067   5.248  11.125  0.4842  0.0055  0.4698
  395MOL0     C54388   9.168   5.248  11.232  0.6614  0.7773  0.7316
  395MOL0     N54389   9.103   5.264  11.366 -0.2405  0.0971  1.0186
  395MOL0     C54390   9.049   5.166  11.441  0.5950 -0.1309  0.0761
  395MOL0     C54391   8.986   5.219  11.548 -0.1113 -0.2140  0.1862
  395MOL0     C54392   8.906   5.153  11.652  0.3026  0.4124 -0.5912
  395MOL0     C54393   8.823   5.260  11.728  0.3543  0.1368  0.0485
  395MOL0     C54394   8.891   5.355  11.831 -0.9064 -0.1464  0.3610
  395MOL0     C54395   8.990   5.287  11.928 -0.6625  0.5920  0.7180
  395MOL0     O54396   9.056   5.368  12.026  0.2531 -0.0885  0.1167
  395MOL0     C54397   9.166   5.435  11.987  0.6955 -0.2947  0.0290
  395MOL0     C54398   9.214   5.513  12.090  0.3000  0.1624  0.1429
  395MOL0     C54399   9.323   5.600  12.065  0.0358  0.8470 -0.3734
  395MOL0     C54400   9.355   5.700  12.179  0.7796  0.8697  0.7133
  395MOL0     C54401   9.384   5.607  11.939 -0.2489  1.4327  0.4113
  395MOL0     C54402   9.483   5.700  11.899 -0.1227  0.4034 -0.9286
  395MOL0     O54403   9.527   5.688  11.769 -0.2628  0.0594 -0.0147
  395MOL0     C54404   9.625   5.775  11.723  0.5099 -0.5018 -0.6523
  395MOL0     C54405   9.743   5.799  11.793 -0.1978  0.2473 -0.2101
  395MOL0     C54406   9.849   5.865  11.726  0.0268  0.1617 -0.2458
  395MOL0     C54407   9.840   5.904  11.590 -0.0763  0.9851 -0.2355
  395MOL0     O54408   9.948   5.970  11.547  0.3828  0.7215 -0.3190
  395MOL0     C54409   9.974   5.975  11.409 -0.2680 -0.1388 -0.5612
  395MOL0     C54410  10.099   6.063  11.388 -0.4326  0.9119 -0.0814
  395MOL0     C54411  10.119   6.122  11.246 -0.0842 -0.0588  1.0363
  395MOL0     C54412  10.133   6.019  11.129  0.4026 -0.2780 -0.8759
  395MOL0     C54413  10.267   5.951  11.151  0.2840  0.7165  0.8438
  395MOL0     C54414  10.320   5.869  11.031  0.6634  0.2086  0.4992
  395MOL0     C54415  10.325   5.956  10.894 -0.2916 -0.1013  0.1938
  395MOL0     C54416  10.390   5.870  10.784  0.5556  0.0200  0.3746
  395MOL0    Cl54417  10.574   5.880  10.787  0.2574  0.0637 -0.1191
  395MOL0     C54418   9.720   5.883  11.523  0.6393 -0.3484  0.6716
  395MOL0     C54419   9.609   5.828  11.590 -0.3031  0.8694 -0.7063
  395MOL0     O54420   9.528   5.781  11.985  0.3414  0.6937  0.8002
  395MOL0     C54421   9.333   5.525  11.832 -0.0829 -0.7984 -0.0645
  395MOL0     C54422   9.220   5.448  11.858  0.0806  0.8889  0.3329
  395MOL0     N54423   9.010   5.356  11.530  0.0866  0.5345 -0.3676
  395MOL0     N54424   9.079   5.381  11.432 -0.1501  0.8830  0.0993
  395MOL0     C54425   8.432   4.793  10.824  0.4747  0.7826 -1.0808
  395MOL0     C54426   8.323   4.833  10.747 -0.4389  0.6047  0.2416
  395MOL0     C54427   8.096   4.994  10.365 -0.0565  0.5670 -0.4692
  395MOL0     C54428   8.039   4.870  10.324 -0.4033 -0.5497  0.2875
  395MOL0     C54429   7.953   4.871  10.205 -0.0906  0.8395 -0.1002
  395MOL0     C54430   7.933   4.985  10.139  0.3133 -0.2174 -0.7486
  395MOL0     O54431   7.843   4.975  10.037 -0.0571 -0.4774  0.5957
  395MOL0     C54432   7.808   5.090   9.957 -0.5290  0.9116  0.2866
  395MOL0     C54433   7.703   5.037   9.866 -0.1912 -0.8998 -0.8196
  395MOL0     C54434   7.568   5.054   9.932  0.2792  0.7132  0.9554
  395MOL0     C54435   7.447   5.005   9.849  0.2378 -1.1575  0.7631
  395MOL0     C54436   7.315   5.066   9.886  0.0362  0.1083  0.1125
  395MOL0     C54437   7.198   5.096   9.913  0.6697  1.1275  0.6784
  395MOL0     C54438   8.003   5.098  10.172  0.2129 -0.9564  0.6613
  395MOL0     C54439   8.082   5.108  10.282 -1.3742  0.5753  0.3870
  395MOL0     C54440   8.157   5.234  10.295 -0.6649 -0.1150  1.4810
  395MOL0     H54441   8.462   4.820  10.435  0.0997 -0.3710 -0.6296
  395MOL0     H54442   8.649   4.726  10.562 -0.7082 -3.2546  0.8315
  395MOL0     H54443   8.825   4.735  10.963  1.3302  3.1543  1.8952
  395MOL0     H54444   8.704   4.865  10.963 -3.8578  0.5710 -3.3483
  395MOL0     H54445   8.895   4.788  10.747 -2.0414 -1.6960 -0.0477
  395MOL0     H54446   8.771   4.908  10.717 -3.0739 -3.2455  0.9344
  395MOL0     H54447   9.002   4.923  10.930  2.5081 -0.2603 -2.2656
  395MOL0     H54448   9.013   4.991  10.774 -0.1429  0.7409  0.5473
  395MOL0     H54449   8.802   5.149  10.845  1.1122  1.9478  0.3257
  395MOL0     H54450   8.827   5.119  10.999 -1.2607 -0.7598 -0.5966
  395MOL0     H54451   8.939   5.326  10.902  1.2479  1.2109  0.4303
  395MOL0     H54452   9.030   5.225  10.784  0.1245 -0.6998  0.4089
  395MOL0     H54453   9.164   5.127  10.974  1.4878  0.1217  0.2787
  395MOL0     H54454   9.192   5.290  10.947 -1.2259  1.6972 -0.4014
  395MOL0     H54455   8.995   5.167  11.144  1.7116 -1.0541  0.7226
  395MOL0     H54456   9.007   5.339  11.132  2.7604  1.5178  1.5751
  395MOL0     H54457   9.212   5.148  11.234  7.8551  2.8334 -5.5646
  395MOL0     H54458   9.252   5.317  11.223  0.9058  0.3903 -0.1086
  395MOL0     H54459   9.067   5.062  11.418  1.9886 -0.4448  2.2549
  395MOL0     H54460   8.974   5.101  11.720 -0.8168  0.2624  0.4320
  395MOL0     H54461   8.827   5.102  11.597 -0.0902  1.6256 -1.1899
  395MOL0     H54462   8.780   5.320  11.647  2.4936  4.9914  2.1000
  395MOL0     H54463   8.749   5.207  11.787  3.8590 -2.0228  2.9340
  395MOL0     H54464   8.940   5.433  11.773  0.0351  0.6288  2.1506
  395MOL0     H54465   8.817   5.415  11.884 -0.9890  0.5056 -0.4639
  395MOL0     H54466   8.934   5.210  11.982 -0.2169 -0.2819 -0.0372
  395MOL0     H54467   9.059   5.229  11.867 -1.7265  1.8441 -1.8104
  395MOL0     H54468   9.157   5.507  12.183  1.7176 -0.0349  1.0230
  395MOL0     H54469   9.335   5.805  12.153  0.3394  0.3154 -1.3042
  395MOL0     H54470   9.460   5.690  12.210  0.7072 -0.6886  0.4937
  395MOL0     H54471   9.297   5.666  12.265 -0.6808 -1.0887 -0.9563
  395MOL0     H54472   9.749   5.752  11.890 -3.7882 -1.1336 -0.5092
  395MOL0     H54473   9.945   5.881  11.773  0.3276 -1.1575 -0.3813
  395MOL0     H54474   9.982   5.875  11.366 -1.4430 -0.6368  0.3425
  395MOL0     H54475   9.885   6.020  11.364  1.0377  0.8617 -2.2994
  395MOL0     H54476  10.081   6.144  11.459  0.9621  1.4339 -0.3021
  395MOL0     H54477  10.184   6.004  11.422 -2.6163 -1.1306  2.2177
  395MOL0     H54478  10.205   6.190  11.257 -1.2659  1.4349  1.3356
  395MOL0     H54479  10.026   6.178  11.237 -0.6894 -1.1034  0.7063
  395MOL0     H54480  10.136   6.084  11.041 -2.2084  0.6464 -0.3581
  395MOL0     H54481  10.046   5.953  11.122 -0.5775  0.5169  2.0813
  395MOL0     H54482  10.341   6.025  11.183  1.1321 -0.3033  1.3038
  395MOL0     H54483  10.253   5.877  11.231 -3.5854  0.7980  0.4349
  395MOL0     H54484  10.250   5.786  11.021  2.3773 -1.0440 -2.1429
  395MOL0     H54485  10.422   5.836  11.051  0.3838 -1.8764 -1.1394
  395MOL0     H54486  10.379   6.051  10.903 -1.1561  0.4681 -0.5577
  395MOL0     H54487  10.219   5.973  10.873 -0.5101  0.7609  1.8184
  395MOL0     H54488  10.361   5.905  10.685  0.8173 -0.2864  0.1850
  395MOL0     H54489  10.365   5.764  10.801  3.1642 -0.3717  2.5102
  395MOL0     H54490   9.709   5.912  11.419  1.6566 -4.7201 -0.8810
  395MOL0     H54491   9.514   5.808  11.541 -0.1398  0.0346 -0.7064
  395MOL0     H54492   9.370   5.531  11.730 -1.2135 -0.7796 -0.4865
  395MOL0     H54493   9.170   5.388  11.784 -3.7170 -2.6119  5.1040
  395MOL0     H54494   8.417   4.779  10.930  0.6042 -0.5483 -1.2123
  395MOL0     H54495   8.227   4.844  10.796  1.2818  4.5818  3.3072
  395MOL0     H54496   8.050   4.780  10.384  0.6176 -1.0277 -0.5817
  395MOL0     H54497   7.892   4.784  10.183  0.1096  0.2987  1.4031
  395MOL0     H54498   7.782   5.175  10.021 -4.4603 -0.0120  0.1880
  395MOL0     H54499   7.893   5.118   9.893  1.7464 -0.8309  2.3562
  395MOL0     H54500   7.719   4.930   9.850 -0.9595 -1.1927  0.3114
  395MOL0     H54501   7.701   5.099   9.776  1.2423  0.2123 -0.1301
  395MOL0     H54502   7.571   5.023  10.037 -0.5602  0.9636  1.0584
  395MOL0     H54503   7.565   5.160   9.956 -0.3035  0.9223 -0.0133
  395MOL0     H54504   7.451   4.896   9.860  0.1568 -1.2495 -0.0264
  395MOL0     H54505   7.469   5.021   9.743 -1.5915 -2.2500  0.1710
  395MOL0     H54506   7.094   5.116   9.928  0.2030 -1.0710  0.7462
  395MOL0     H54507   8.005   5.185  10.106 -0.1889 -2.0474 -0.8321
  395MOL0     H54508   8.265   5.224  10.306 -0.1319 -1.9927 -2.9902
  395MOL0     H54509   8.139   5.312  10.220  1.6639  0.0585  1.0430
  395MOL0     H54510   8.103   5.279  10.379 -0.9905 -0.9145  1.7101
  396MOL0     O54511   0.246   3.241   6.970 -0.5619 -0.1257 -0.4819
  396MOL0     C54512   0.357   3.259   7.020 -0.9975 -0.8361 -0.6108
  396MOL0     O54513   0.381   3.257   7.159 -0.7477  0.1556  0.8234
  396MOL0     C54514   0.271   3.223   7.237  0.0150  0.8784  0.2820
  396MOL0     C54515   0.257   3.096   7.289 -0.3029  0.0324 -0.6154
  396MOL0     C54516   0.146   3.055   7.361  0.7601 -0.0772  1.1623
  396MOL0     C54517   0.041   3.150   7.389 -0.3578  1.2794 -0.4396
  396MOL0     O54518  -0.075   3.118   7.444 -0.3542  0.1928  0.5064
  396MOL0     C54519  -0.116   2.982   7.463 -0.3828  0.1858 -0.2032
  396MOL0     C54520  -0.254   2.987   7.530  0.5635  0.2228  0.5306
  396MOL0     C54521  -0.305   2.836   7.539  0.4319  0.2898  0.7291
  396MOL0     C54522  -0.455   2.823   7.583 -0.5715  0.3512 -0.2680
  396MOL0     C54523  -0.530   2.695   7.548 -0.2900 -0.0259  0.0296
  396MOL0     C54524  -0.671   2.696   7.619  0.0192 -1.1756  0.3835
  396MOL0     C54525  -0.754   2.572   7.599 -0.2191 -0.3911  0.2061
  396MOL0     C54526  -0.869   2.580   7.703 -0.1010 -0.7955 -0.2827
  396MOL0     N54527  -0.971   2.473   7.698  0.0564  0.4833 -0.6269
  396MOL0     C54528  -0.958   2.360   7.778 -0.6972  0.4213 -0.6520
  396MOL0     C54529  -1.065   2.287   7.760  0.3720 -0.1354  0.4435
  396MOL0     C54530  -1.076   2.140   7.806 -0.4920  1.0074  0.2082
  396MOL0     C54531  -1.045   2.106   7.951  0.0272  0.2990  0.0617
  396MOL0     C54532  -1.085   1.968   8.004  0.7196  0.4542  0.4624
  396MOL0     C54533  -1.022   1.936   8.132  0.5129  0.0484 -1.0090
  396MOL0     O54534  -0.887   1.893   8.119  0.0751 -0.5876 -0.4613
  396MOL0     C54535  -0.834   1.866   8.240  0.9821  0.0409 -0.2615
  396MOL0     C54536  -0.756   1.960   8.301 -1.3608 -0.2100  0.2527
  396MOL0     C54537  -0.687   1.922   8.412 -0.5467 -0.4653 -0.3411
  396MOL0     C54538  -0.573   2.013   8.451 -0.5876  0.4249  0.8675
  396MOL0     C54539  -0.716   1.804   8.484 -0.2229 -0.8666  0.9805
  396MOL0     C54540  -0.663   1.786   8.616 -0.0688  0.9848 -0.9017
  396MOL0     O54541  -0.697   1.662   8.668  0.0690 -0.3532  0.0616
  396MOL0     C54542  -0.651   1.627   8.791  0.7736 -0.7326  0.1688
  396MOL0     C54543  -0.578   1.508   8.800  0.2164  0.2835  0.8463
  396MOL0     C54544  -0.549   1.446   8.930 -0.2125  0.5897  0.4042
  396MOL0     C54545  -0.595   1.508   9.044  0.3483 -0.2263  0.3512
  396MOL0     O54546  -0.559   1.442   9.157  0.3905 -0.2549 -0.8587
  396MOL0     C54547  -0.630   1.468   9.283  0.4425  0.9505  0.9648
  396MOL0     C54548  -0.591   1.355   9.389 -0.6138 -0.5684  0.2436
  396MOL0     C54549  -0.657   1.230   9.357  0.4088 -0.4270 -0.2839
  396MOL0     C54550  -0.644   1.131   9.472  0.1771 -0.6089 -0.1545
  396MOL0     C54551  -0.717   0.991   9.449 -0.4314 -0.1913 -0.8579
  396MOL0     C54552  -0.664   0.896   9.558  0.1982  0.2041 -0.3837
  396MOL0     C54553  -0.706   0.759   9.529 -0.2964  0.4373 -0.3606
  396MOL0     C54554  -0.647   0.645   9.616 -0.0021  0.5253 -0.1559
  396MOL0    Cl54555  -0.685   0.671   9.794  0.2948  0.1076  0.1993
  396MOL0     C54556  -0.668   1.627   9.039 -0.1356 -0.0441 -0.2162
  396MOL0     C54557  -0.687   1.696   8.912 -1.3208  0.7882 -0.3292
  396MOL0     O54558  -0.592   1.872   8.674  0.7384 -0.0189 -0.0958
  396MOL0     C54559  -0.812   1.722   8.433  0.3470  1.0700  1.3193
  396MOL0     C54560  -0.861   1.747   8.300  0.3976  0.7987 -0.8288
  396MOL0     N54561  -1.152   2.361   7.669 -0.6636 -0.8628 -0.2544
  396MOL0     N54562  -1.093   2.472   7.646 -0.1338 -0.7110  0.3223
  396MOL0     C54563   0.060   3.280   7.347 -0.0054  0.6640 -0.5080
  396MOL0     C54564   0.178   3.315   7.279  0.2059 -0.2667 -0.6802
  396MOL0     C54565   0.478   3.275   6.933  0.0517  0.6740 -0.3048
  396MOL0     C54566   0.480   3.170   6.838  0.4247  0.6597 -0.4120
  396MOL0     C54567   0.580   3.161   6.740 -0.1579 -0.1627 -0.4574
  396MOL0     C54568   0.694   3.241   6.752  0.7278  0.3911 -0.1629
  396MOL0     O54569   0.802   3.231   6.668 -0.6266  0.5088  0.1385
  396MOL0     C54570   0.799   3.143   6.556  0.1888 -0.8761  0.2054
  396MOL0     C54571   0.935   3.150   6.488  0.3875  0.3750 -0.2710
  396MOL0     C54572   1.063   3.179   6.568  0.7922 -0.2626  0.1671
  396MOL0     C54573   1.092   3.082   6.689  0.4216  0.3893 -0.1885
  396MOL0     C54574   1.145   2.947   6.642  0.3146 -0.4715  0.4255
  396MOL0     C54575   1.178   2.842   6.589  0.1362 -0.1896 -0.3734
  396MOL0     C54576   0.691   3.343   6.846  0.3045  0.0049  0.1109
  396MOL0     C54577   0.590   3.365   6.936 -0.6902  0.6935  0.0387
  396MOL0     C54578   0.612   3.473   7.034 -0.3653  0.9654  0.1577
  396MOL0     H54579   0.337   3.024   7.279 -1.3793 -1.2187 -0.4963
  396MOL0     H54580   0.141   2.957   7.408 -2.4275 -1.1430 -1.0367
  396MOL0     H54581  -0.046   2.930   7.530  1.6520  0.7605 -1.7800
  396MOL0     H54582  -0.118   2.928   7.368 -1.0231 -3.1681  1.5401
  396MOL0     H54583  -0.257   3.015   7.636  0.4950 -1.4065  0.9925
  396MOL0     H54584  -0.329   3.044   7.476  0.6887 -1.2383 -1.2818
  396MOL0     H54585  -0.295   2.787   7.442 -0.7189 -0.5786  1.0226
  396MOL0     H54586  -0.252   2.776   7.613 -0.3721  1.1302  2.0268
  396MOL0     H54587  -0.456   2.839   7.691  3.3129 -0.3179  0.0096
  396MOL0     H54588  -0.515   2.909   7.551  1.9154  3.1180  1.9347
  396MOL0     H54589  -0.461   2.611   7.565 -1.5114 -1.6376 -2.3801
  396MOL0     H54590  -0.544   2.688   7.440  3.4785  1.3306 -0.6804
  396MOL0     H54591  -0.652   2.705   7.726 -0.0692  0.9707  0.2621
  396MOL0     H54592  -0.711   2.784   7.568  3.0793 -0.5492 -1.1630
  396MOL0     H54593  -0.698   2.480   7.619  2.6294  1.1928  0.0008
  396MOL0     H54594  -0.782   2.566   7.493  1.1230  2.4108 -0.4012
  396MOL0     H54595  -0.838   2.594   7.807  1.0490  0.1571 -0.7307
  396MOL0     H54596  -0.925   2.671   7.682  0.4038 -0.5269 -0.4824
  396MOL0     H54597  -0.879   2.325   7.845  1.3776 -0.1113 -3.2025
  396MOL0     H54598  -1.013   2.079   7.740  1.8312  0.9062  2.3721
  396MOL0     H54599  -1.184   2.123   7.794 -0.7901  2.2829  0.9695
  396MOL0     H54600  -0.939   2.133   7.958 -0.3908  1.9583  0.3769
  396MOL0     H54601  -1.104   2.173   8.013 -1.8998 -0.4503 -0.8819
  396MOL0     H54602  -1.193   1.976   8.019  0.5028 -0.3051 -0.6085
  396MOL0     H54603  -1.069   1.883   7.937 -0.4250  0.7134 -0.1563
  396MOL0     H54604  -1.028   2.023   8.199  0.6249  0.2302 -1.2334
  396MOL0     H54605  -1.080   1.860   8.185  0.8712 -0.4418 -1.3167
  396MOL0     H54606  -0.727   2.042   8.235  1.3428  0.6647  2.3482
  396MOL0     H54607  -0.484   1.962   8.490 -0.3603 -1.7008 -2.0588
  396MOL0     H54608  -0.611   2.098   8.508 -1.2383 -0.2636  1.4842
  396MOL0     H54609  -0.532   2.058   8.360 -0.1243  0.9739  1.3358
  396MOL0     H54610  -0.540   1.463   8.708  1.6307  1.6257  0.7310
  396MOL0     H54611  -0.497   1.351   8.935  1.1924  1.3613  1.4066
  396MOL0     H54612  -0.608   1.568   9.319  1.4486  0.6734  1.1462
  396MOL0     H54613  -0.737   1.459   9.262  0.9565  0.7114 -1.8863
  396MOL0     H54614  -0.483   1.343   9.377 -0.8602 -3.0518 -0.0328
  396MOL0     H54615  -0.620   1.383   9.490 -1.6114  3.9945 -1.0696
  396MOL0     H54616  -0.606   1.192   9.268  0.6675  3.7511 -2.1621
  396MOL0     H54617  -0.761   1.255   9.334  0.8031 -0.6344 -2.4567
  396MOL0     H54618  -0.688   1.178   9.560  1.1164  0.0890 -0.0438
  396MOL0     H54619  -0.539   1.107   9.492  0.2503  0.9793  1.6568
  396MOL0     H54620  -0.825   1.005   9.455 -0.3999 -0.5187  1.2371
  396MOL0     H54621  -0.711   0.951   9.347  1.0203 -0.3933 -0.7087
  396MOL0     H54622  -0.687   0.928   9.661  1.8421  4.2521 -1.0763
  396MOL0     H54623  -0.556   0.905   9.551  0.1994  2.0777  1.1479
  396MOL0     H54624  -0.678   0.737   9.426  2.6238 -1.1407  0.6512
  396MOL0     H54625  -0.814   0.744   9.522 -0.1531 -1.5431  1.0030
  396MOL0     H54626  -0.538   0.635   9.614 -0.0299 -0.9768  2.4477
  396MOL0     H54627  -0.686   0.545   9.596  0.2044  0.9676 -3.3734
  396MOL0     H54628  -0.714   1.679   9.122 -0.3724 -0.9021  0.2024
  396MOL0     H54629  -0.758   1.778   8.904 -1.8739  0.5026  1.2822
  396MOL0     H54630  -0.859   1.637   8.481 -1.9718  0.5481 -1.5660
  396MOL0     H54631  -0.931   1.675   8.259 -1.4083 -1.0208  4.6124
  396MOL0     H54632  -0.012   3.358   7.371  1.9956  2.1423  1.0026
  396MOL0     H54633   0.187   3.423   7.269 -2.8780  0.4626  2.6779
  396MOL0     H54634   0.396   3.102   6.823 -1.0191  2.5747 -1.3531
  396MOL0     H54635   0.580   3.080   6.668  2.4087 -0.2690 -0.4469
  396MOL0     H54636   0.787   3.042   6.596  0.8013 -0.2416  2.1194
  396MOL0     H54637   0.717   3.178   6.492  1.1170  2.3641  0.5961
  396MOL0     H54638   0.931   3.219   6.403  3.4178 -0.5927 -1.3152
  396MOL0     H54639   0.946   3.054   6.436 -1.4917  1.0299 -2.0321
  396MOL0     H54640   1.148   3.177   6.499  0.6579  1.6528 -0.1323
  396MOL0     H54641   1.059   3.281   6.610  0.8366 -1.1735  2.5479
  396MOL0     H54642   1.001   3.075   6.750 -0.7084  0.9950 -1.7438
  396MOL0     H54643   1.170   3.125   6.752  1.9289 -1.0784 -0.9611
  396MOL0     H54644   1.230   2.752   6.561 -0.3950 -0.7650  0.4702
  396MOL0     H54645   0.777   3.409   6.849 -0.5634  1.1731  2.9707
  396MOL0     H54646   0.647   3.422   7.124 -0.7397  0.2988 -0.0721
  396MOL0     H54647   0.675   3.556   7.001 -0.1128  0.2086 -1.3054
  396MOL0     H54648   0.512   3.511   7.058 -0.6488 -0.1093  0.7691
  397MOL0     O54649   4.453   3.530   5.116  1.0135  0.2358 -0.0546
  397MOL0     C54650   4.507   3.630   5.171  1.0691  0.3701  0.5839
  397MOL0     O54651   4.635   3.636   5.203 -0.3078 -0.5253 -0.5860
  397MOL0     C54652   4.732   3.550   5.156  0.9643 -0.0861 -0.0845
  397MOL0     C54653   4.710   3.421   5.104 -1.1466  0.3809 -0.1422
  397MOL0     C54654   4.834   3.355   5.060 -0.4531  0.3713 -0.3228
  397MOL0     C54655   4.960   3.412   5.080 -0.0155 -0.0900  0.4058
  397MOL0     O54656   5.073   3.348   5.031  0.7335  0.3012 -1.2106
  397MOL0     C54657   5.087   3.329   4.896 -0.2609  0.4369  0.6378
  397MOL0     C54658   5.177   3.207   4.865  0.0129  0.0995 -0.5130
  397MOL0     C54659   5.322   3.240   4.878 -0.2669  0.2730  0.0411
  397MOL0     C54660   5.416   3.135   4.821 -0.3653 -0.7852 -0.6833
  397MOL0     C54661   5.574   3.170   4.831  0.1641 -0.7322  0.3036
  397MOL0     C54662   5.649   3.051   4.796  0.1129  0.9067  0.0606
  397MOL0     C54663   5.803   3.068   4.812 -0.4106  0.6116  0.2782
  397MOL0     C54664   5.888   2.989   4.700  0.8524 -1.1420 -0.0790
  397MOL0     N54665   5.869   2.848   4.725  0.3660 -0.1646 -0.1329
  397MOL0     C54666   5.944   2.792   4.825  0.1022  0.3194  0.0365
  397MOL0     C54667   5.892   2.665   4.833  0.2652 -0.3262 -0.4388
  397MOL0     C54668   5.936   2.549   4.915 -0.1585  0.3433  1.1769
  397MOL0     C54669   6.084   2.522   4.877 -1.2336  1.1979 -0.6282
  397MOL0     C54670   6.108   2.413   4.779 -0.4238  0.2603  0.0771
  397MOL0     C54671   6.256   2.404   4.740 -0.4973 -0.1359 -0.1918
  397MOL0     O54672   6.333   2.323   4.830  0.6113 -0.6849  0.0029
  397MOL0     C54673   6.469   2.331   4.814  0.2111  0.6713  0.4317
  397MOL0     C54674   6.535   2.392   4.708  0.2955  0.2290 -0.4135
  397MOL0     C54675   6.671   2.410   4.702 -0.6706 -0.1784 -0.3526
  397MOL0     C54676   6.714   2.487   4.573  0.7665 -0.4350 -0.2375
  397MOL0     C54677   6.753   2.343   4.793  0.4045  0.2502 -1.4875
  397MOL0     C54678   6.905   2.348   4.804  0.3665  0.0046  0.4003
  397MOL0     O54679   6.979   2.438   4.727  0.2785 -0.1378  0.3352
  397MOL0     C54680   7.110   2.445   4.752 -0.5884  0.5562  0.2369
  397MOL0     C54681   7.154   2.493   4.872  0.9350  0.5869  0.4787
  397MOL0     C54682   7.283   2.532   4.879  0.4213 -0.2758 -0.9495
  397MOL0     C54683   7.379   2.515   4.778 -0.0755  0.0310 -0.8807
  397MOL0     O54684   7.511   2.536   4.810  0.1549  1.0838 -0.2131
  397MOL0     C54685   7.614   2.500   4.710 -0.3382  0.2139  0.7022
  397MOL0     C54686   7.755   2.524   4.750  0.1427 -0.8433  0.4509
  397MOL0     C54687   7.809   2.430   4.864  0.6065 -0.9871 -0.1313
  397MOL0     C54688   7.960   2.437   4.888  0.3809 -0.0189 -0.6079
  397MOL0     C54689   8.006   2.350   5.013 -0.4173  0.5344  0.2625
  397MOL0     C54690   7.949   2.394   5.144 -0.0834  0.0448  0.0194
  397MOL0     C54691   8.015   2.312   5.266 -0.2746 -1.0790  0.1226
  397MOL0     C54692   7.979   2.382   5.407 -0.8414  0.2842 -0.3122
  397MOL0    Cl54693   8.055   2.279   5.532  0.4286 -0.0012 -0.3608
  397MOL0     C54694   7.335   2.471   4.658 -0.1652  0.3329  1.1741
  397MOL0     C54695   7.197   2.433   4.646  0.6646 -1.1718 -0.6817
  397MOL0     O54696   6.947   2.273   4.884  0.5182  0.2518  0.1980
  397MOL0     C54697   6.686   2.251   4.886 -0.0349  0.6091 -0.3927
  397MOL0     C54698   6.545   2.252   4.898 -0.1324  0.3983  0.1231
  397MOL0     N54699   5.791   2.652   4.738  0.7436 -1.1246 -0.4452
  397MOL0     N54700   5.768   2.768   4.677 -0.3022 -0.2141 -0.6386
  397MOL0     C54701   4.966   3.537   5.138  0.8874 -0.6991 -0.3743
  397MOL0     C54702   4.859   3.610   5.174 -0.3055  0.1031 -0.6331
  397MOL0     C54703   4.420   3.749   5.203 -0.4864  0.0967  0.1157
  397MOL0     C54704   4.467   3.834   5.313 -0.2096 -0.0587  0.6883
  397MOL0     C54705   4.380   3.926   5.367  0.2706  0.5912  0.2009
  397MOL0     C54706   4.253   3.951   5.310 -0.3802 -0.5809  0.0403
  397MOL0     O54707   4.178   4.054   5.374 -0.5495  0.0133 -0.3371
  397MOL0     C54708   4.050   4.084   5.321  1.0061  0.3698  0.5519
  397MOL0     C54709   3.970   4.202   5.389 -0.2511  1.0075  0.8476
  397MOL0     C54710   3.848   4.214   5.301  0.3113 -0.4640  0.7881
  397MOL0     C54711   3.759   4.336   5.324 -0.4047  0.0964 -0.6999
  397MOL0     C54712   3.670   4.368   5.211  0.5376 -0.9012  0.5592
  397MOL0     C54713   3.611   4.405   5.112  0.0395  0.2874 -0.0272
  397MOL0     C54714   4.216   3.883   5.191  0.4581  0.1806  0.2147
  397MOL0     C54715   4.300   3.780   5.134  0.3092 -0.1013 -0.4100
  397MOL0     C54716   4.240   3.696   5.016  0.0920  0.2544  0.2015
  397MOL0     H54717   4.619   3.362   5.101  0.6126 -2.5087 -0.3471
  397MOL0     H54718   4.839   3.253   5.023  3.0389  0.6784 -1.0501
  397MOL0     H54719   5.135   3.420   4.858 -2.1970  0.4578 -1.9895
  397MOL0     H54720   4.992   3.310   4.847 -0.3199  1.2370  0.4188
  397MOL0     H54721   5.149   3.130   4.938  2.1252 -0.4378 -0.2068
  397MOL0     H54722   5.149   3.166   4.767  0.4729 -0.6132 -0.3515
  397MOL0     H54723   5.343   3.337   4.830  0.0396  0.4310  0.4884
  397MOL0     H54724   5.338   3.253   4.985 -2.7350 -1.0513  0.6496
  397MOL0     H54725   5.393   3.048   4.883 -1.5005  0.9068  1.4543
  397MOL0     H54726   5.382   3.107   4.721  1.2992  1.7114 -2.0645
  397MOL0     H54727   5.601   3.207   4.931 -4.5171  0.7214  1.2835
  397MOL0     H54728   5.590   3.242   4.751  2.7054 -0.4642  0.9651
  397MOL0     H54729   5.617   2.966   4.858  1.3072  0.5996  0.2775
  397MOL0     H54730   5.625   3.024   4.693 -0.2316  0.4250  0.2665
  397MOL0     H54731   5.824   3.048   4.917  0.8635  0.3639 -0.0116
  397MOL0     H54732   5.828   3.172   4.789 -0.2447  1.2629  3.0489
  397MOL0     H54733   5.846   3.020   4.604  4.5880  0.2575 -1.4694
  397MOL0     H54734   5.994   3.015   4.697  1.4141 -3.2845 -0.2092
  397MOL0     H54735   6.024   2.837   4.883  0.0365 -0.1307  0.4761
  397MOL0     H54736   5.872   2.462   4.899  1.7316 -0.9630  0.2235
  397MOL0     H54737   5.924   2.569   5.022  3.7639 -1.5853  2.1604
  397MOL0     H54738   6.140   2.611   4.848  2.3890  0.0253  2.0286
  397MOL0     H54739   6.124   2.486   4.972 -1.2670 -2.0517 -1.7134
  397MOL0     H54740   6.080   2.318   4.825 -2.4452  0.0734 -1.3754
  397MOL0     H54741   6.030   2.413   4.701 -3.9398  1.0557  3.3175
  397MOL0     H54742   6.247   2.359   4.641 -2.4811  0.8027 -0.5009
  397MOL0     H54743   6.296   2.505   4.726  0.9504 -0.7917 -0.9907
  397MOL0     H54744   6.474   2.427   4.626  0.8329 -2.2065 -1.9694
  397MOL0     H54745   6.637   2.542   4.517  1.0301  0.7831  0.5537
  397MOL0     H54746   6.756   2.419   4.498  0.5806 -0.4205 -0.3578
  397MOL0     H54747   6.787   2.564   4.599 -1.1830  0.8020  1.8824
  397MOL0     H54748   7.075   2.519   4.942 -0.2402 -0.1030 -0.5401
  397MOL0     H54749   7.315   2.560   4.979 -0.4998 -1.1422 -0.3847
  397MOL0     H54750   7.606   2.399   4.669  1.2800  0.0457  0.7614
  397MOL0     H54751   7.581   2.568   4.631 -2.5473  0.3742  1.6836
  397MOL0     H54752   7.818   2.504   4.662 -2.4159  0.4052 -1.7828
  397MOL0     H54753   7.779   2.627   4.779  3.1530 -0.7254 -1.9280
  397MOL0     H54754   7.769   2.329   4.876  1.8533 -1.2166  3.1641
  397MOL0     H54755   7.764   2.482   4.950  2.3433  0.0155  0.2135
  397MOL0     H54756   7.997   2.539   4.904  2.5025 -0.8761  0.2601
  397MOL0     H54757   7.993   2.393   4.793 -2.9053  0.0793 -1.9051
  397MOL0     H54758   7.994   2.244   4.987  0.8117  0.6571 -0.9257
  397MOL0     H54759   8.115   2.359   5.012 -0.3871  2.7519 -4.3648
  397MOL0     H54760   7.845   2.360   5.147  0.6239 -2.2269  0.8728
  397MOL0     H54761   7.954   2.502   5.158  1.1742 -0.1303  1.0838
  397MOL0     H54762   8.124   2.316   5.256 -0.3622 -0.9260 -0.8554
  397MOL0     H54763   7.984   2.207   5.256 -2.2200 -0.2772 -4.7199
  397MOL0     H54764   7.872   2.383   5.429 -0.2781 -2.1837  3.4889
  397MOL0     H54765   8.021   2.483   5.415  0.6722 -0.1785 -1.9189
  397MOL0     H54766   7.395   2.462   4.568 -1.2896  1.8765  0.2180
  397MOL0     H54767   7.155   2.392   4.555 -2.6896 -1.9928  1.0554
  397MOL0     H54768   6.746   2.188   4.950 -1.2542  1.7577  2.0281
  397MOL0     H54769   6.500   2.189   4.974  0.7815 -2.1260 -1.2996
  397MOL0     H54770   5.064   3.581   5.153  0.7900 -1.0225  1.5468
  397MOL0     H54771   4.873   3.706   5.224  0.3544  0.4926 -1.5301
  397MOL0     H54772   4.553   3.806   5.372 -1.2534  1.6353  3.1995
  397MOL0     H54773   4.413   3.978   5.457  1.7251 -1.5016  0.9491
  397MOL0     H54774   4.080   4.120   5.222 -0.7383 -1.8976 -0.8878
  397MOL0     H54775   3.989   3.994   5.312  2.3501 -0.4423 -0.7891
  397MOL0     H54776   4.029   4.294   5.389  1.9102 -0.2933 -0.3774
  397MOL0     H54777   3.935   4.170   5.488  0.7794 -1.0671  0.6082
  397MOL0     H54778   3.881   4.222   5.197 -0.7435 -2.7951  0.2186
  397MOL0     H54779   3.779   4.132   5.324  0.3506 -1.8428 -3.2912
  397MOL0     H54780   3.824   4.424   5.331 -1.9339  1.2702 -0.6584
  397MOL0     H54781   3.711   4.327   5.421  2.4572 -0.1678  0.7993
  397MOL0     H54782   3.556   4.443   5.029 -0.0414 -2.5458 -1.4129
  397MOL0     H54783   4.120   3.911   5.149  0.8091  2.0486  0.5979
  397MOL0     H54784   4.326   3.674   4.952 -1.0448 -4.2079 -0.1354
  397MOL0     H54785   4.206   3.597   5.048 -0.3213 -0.1188 -1.3207
  397MOL0     H54786   4.170   3.753   4.956 -0.8349 -0.4806  0.5627
  398MOL0     O54787   0.435   2.813   6.593 -0.1499 -0.2939 -0.0652
  398MOL0     C54788   0.407   2.831   6.478 -0.2506 -0.7429  0.0920
  398MOL0     O54789   0.290   2.879   6.439 -0.0555  0.2242  0.1475
  398MOL0     C54790   0.195   2.928   6.523  1.1461 -0.0023 -0.3858
  398MOL0     C54791   0.085   2.850   6.543  0.9691 -0.7752  0.6815
  398MOL0     C54792  -0.004   2.878   6.647 -0.4448  0.2698  0.7309
  398MOL0     C54793   0.008   2.994   6.719 -0.0595  0.3532 -0.6281
  398MOL0     O54794  -0.088   3.019   6.818  0.5642  0.3528  0.7809
  398MOL0     C54795  -0.049   3.108   6.921  0.1188  0.1755 -0.5928
  398MOL0     C54796  -0.173   3.089   7.027 -0.8016 -1.3569  0.2941
  398MOL0     C54797  -0.280   3.195   7.007  0.1314 -0.0951  0.3489
  398MOL0     C54798  -0.250   3.325   7.082  0.2840  0.0807 -0.3970
  398MOL0     C54799  -0.371   3.428   7.078  1.0606  0.0871 -0.3268
  398MOL0     C54800  -0.324   3.570   7.130 -0.1634  0.4571  0.3794
  398MOL0     C54801  -0.278   3.643   7.001  0.0621  0.7575 -0.4569
  398MOL0     C54802  -0.244   3.791   7.047  0.1630  0.3094  0.5396
  398MOL0     N54803  -0.369   3.858   7.066  0.9122  0.3341  0.5742
  398MOL0     C54804  -0.469   3.898   6.972 -0.4216  0.5528 -0.2908
  398MOL0     C54805  -0.572   3.927   7.053  0.2043  0.6615  0.9237
  398MOL0     C54806  -0.720   3.940   7.020 -0.0035  0.1715  0.5178
  398MOL0     C54807  -0.789   3.815   7.054  0.7242  0.7767 -0.0475
  398MOL0     C54808  -0.753   3.693   6.976 -0.1115  1.0690 -0.8754
  398MOL0     C54809  -0.797   3.709   6.827  0.1074  0.1404  0.2184
  398MOL0     O54810  -0.940   3.676   6.810  0.0522  0.1795 -1.3219
  398MOL0     C54811  -1.006   3.651   6.691  0.0754  0.9677  0.7015
  398MOL0     C54812  -0.942   3.656   6.565  1.1329  0.8707 -0.2118
  398MOL0     C54813  -1.025   3.638   6.444  0.2525  0.6817 -0.3000
  398MOL0     C54814  -0.958   3.636   6.316  0.7159  0.1234  0.1841
  398MOL0     C54815  -1.169   3.604   6.453  0.4129 -0.5677 -0.1806
  398MOL0     C54816  -1.251   3.560   6.339  0.1221 -1.0705  0.1929
  398MOL0     O54817  -1.394   3.593   6.344  1.0109 -0.3690 -0.2048
  398MOL0     C54818  -1.467   3.548   6.233  0.7752 -0.7453 -0.2312
  398MOL0     C54819  -1.491   3.416   6.207 -0.3071  0.3389  0.1985
  398MOL0     C54820  -1.556   3.379   6.091 -0.7816  0.4674  0.1058
  398MOL0     C54821  -1.591   3.477   5.993  0.1514 -0.3403  0.4825
  398MOL0     O54822  -1.685   3.465   5.894  0.2625  0.8943 -0.2310
  398MOL0     C54823  -1.689   3.334   5.838 -0.6695  0.1601  0.5284
  398MOL0     C54824  -1.747   3.340   5.694  0.3531  0.6314  1.0566
  398MOL0     C54825  -1.655   3.414   5.595 -0.1135  0.5853 -0.1085
  398MOL0     C54826  -1.722   3.421   5.459  0.0318  0.6736 -0.4301
  398MOL0     C54827  -1.634   3.453   5.334  1.3897  0.1729 -1.5202
  398MOL0     C54828  -1.535   3.576   5.326  0.6050 -0.3406 -0.0970
  398MOL0     C54829  -1.544   3.653   5.184 -0.3068  0.2535 -0.6754
  398MOL0     C54830  -1.468   3.779   5.209 -0.5209 -0.9188  0.5763
  398MOL0    Cl54831  -1.484   3.878   5.049  0.1747 -0.1392 -0.3704
  398MOL0     C54832  -1.552   3.612   6.013 -0.5991  0.3359 -0.1201
  398MOL0     C54833  -1.488   3.643   6.129 -0.3259 -0.4603  0.3668
  398MOL0     O54834  -1.198   3.511   6.242  0.9483 -0.4328  0.4119
  398MOL0     C54835  -1.226   3.607   6.581 -0.1337 -0.4527  0.1055
  398MOL0     C54836  -1.145   3.629   6.696  0.4857  0.6108 -0.1222
  398MOL0     N54837  -0.543   3.908   7.184  0.2784 -0.7442  0.6696
  398MOL0     N54838  -0.421   3.865   7.186  0.0450  0.8884 -0.3425
  398MOL0     C54839   0.112   3.078   6.689  0.0364  0.3881  0.0280
  398MOL0     C54840   0.206   3.045   6.594  0.5054 -0.1568 -0.2409
  398MOL0     C54841   0.510   2.798   6.371  0.5276 -0.4986 -0.3091
  398MOL0     C54842   0.470   2.815   6.236 -0.4034 -0.9404 -0.5945
  398MOL0     C54843   0.545   2.782   6.125 -0.1443 -0.5286  0.6976
  398MOL0     C54844   0.677   2.741   6.133  0.1001 -0.3919  0.6120
  398MOL0     O54845   0.747   2.719   6.016 -0.0152  1.0922 -0.5429
  398MOL0     C54846   0.885   2.698   6.036 -0.3833 -0.0634 -0.0326
  398MOL0     C54847   0.965   2.832   6.060 -0.6711 -0.2558  0.6254
  398MOL0     C54848   0.996   2.910   5.933  0.1964 -0.0556  0.8151
  398MOL0     C54849   1.082   3.034   5.960  0.3428  0.1096 -0.3643
  398MOL0     C54850   1.213   2.994   6.002 -0.4808  0.2047 -0.1672
  398MOL0     C54851   1.327   2.981   6.041 -0.9310  0.9684  0.1780
  398MOL0     C54852   0.723   2.721   6.273  0.3278 -1.4753 -0.3199
  398MOL0     C54853   0.638   2.735   6.384 -1.8365 -0.2563  0.1720
  398MOL0     C54854   0.690   2.679   6.514 -0.2605 -0.0620  0.2531
  398MOL0     H54855   0.087   2.756   6.490  3.3719 -2.0375  2.8003
  398MOL0     H54856  -0.068   2.791   6.659  0.2263 -0.2408  0.7288
  398MOL0     H54857  -0.037   3.211   6.884 -0.7416  0.7622  0.7205
  398MOL0     H54858   0.041   3.073   6.972  2.1208  1.6604 -2.8372
  398MOL0     H54859  -0.219   2.990   7.017 -2.0714 -0.7138 -0.6653
  398MOL0     H54860  -0.131   3.093   7.127  1.0413  3.6371 -0.4250
  398MOL0     H54861  -0.307   3.199   6.901  1.7803 -1.6354 -0.1829
  398MOL0     H54862  -0.374   3.160   7.049  2.2483 -2.1429  3.8811
  398MOL0     H54863  -0.234   3.315   7.189 -0.3599 -4.3808 -0.5243
  398MOL0     H54864  -0.165   3.379   7.040  1.3039 -0.6712  0.6600
  398MOL0     H54865  -0.455   3.390   7.136 -2.2722  3.2488 -2.6330
  398MOL0     H54866  -0.422   3.428   6.981 -0.7221 -3.4982  0.4534
  398MOL0     H54867  -0.403   3.621   7.186  0.1000 -0.7969  1.9366
  398MOL0     H54868  -0.239   3.556   7.197  0.4935  2.3280 -0.0081
  398MOL0     H54869  -0.351   3.642   6.919 -1.5325 -1.6786  0.8829
  398MOL0     H54870  -0.180   3.605   6.971 -1.4165  0.2830 -5.6841
  398MOL0     H54871  -0.182   3.800   7.137 -1.1317  0.2641  1.4720
  398MOL0     H54872  -0.192   3.848   6.969 -0.7488  0.1753 -0.1893
  398MOL0     H54873  -0.465   3.888   6.864 -0.8523 -1.6650 -0.1417
  398MOL0     H54874  -0.731   3.951   6.912 -0.9753  0.2238  0.6075
  398MOL0     H54875  -0.761   4.026   7.075  0.5393 -0.5553  2.1258
  398MOL0     H54876  -0.776   3.813   7.163 -1.8104  0.3750  0.3000
  398MOL0     H54877  -0.896   3.823   7.033  0.7819  0.6011 -0.4114
  398MOL0     H54878  -0.647   3.670   6.985 -0.3913  0.5897  4.1993
  398MOL0     H54879  -0.795   3.600   7.016  2.4718 -0.6835 -2.0045
  398MOL0     H54880  -0.789   3.808   6.782 -4.4419  0.6630  0.1421
  398MOL0     H54881  -0.734   3.634   6.778 -0.3121 -0.2706  0.2991
  398MOL0     H54882  -0.840   3.688   6.547  0.7208  1.4312 -1.7750
  398MOL0     H54883  -1.009   3.698   6.241  0.4669 -0.9038 -0.5114
  398MOL0     H54884  -0.952   3.530   6.292 -2.8645 -0.3611  0.8761
  398MOL0     H54885  -0.854   3.669   6.322  1.1798 -1.4155  1.0317
  398MOL0     H54886  -1.461   3.333   6.271 -0.9797  1.7406  2.4728
  398MOL0     H54887  -1.574   3.274   6.069  2.5734 -0.6507  1.9533
  398MOL0     H54888  -1.593   3.283   5.829  1.4485  4.1125 -1.9006
  398MOL0     H54889  -1.765   3.279   5.895 -1.2144  2.8155  2.5289
  398MOL0     H54890  -1.762   3.240   5.653  4.9740 -1.0349  2.7596
  398MOL0     H54891  -1.837   3.402   5.696  0.3616  0.7860 -0.9843
  398MOL0     H54892  -1.561   3.358   5.585  1.2098  2.6091  0.4437
  398MOL0     H54893  -1.635   3.515   5.633  2.4407  0.0561  0.1663
  398MOL0     H54894  -1.795   3.502   5.467 -1.4710 -0.5137 -1.7244
  398MOL0     H54895  -1.767   3.329   5.423  1.3000  1.0621 -3.3107
  398MOL0     H54896  -1.568   3.366   5.328  2.4270  0.9084 -1.1149
  398MOL0     H54897  -1.699   3.468   5.248 -1.8720  3.5161  1.2055
  398MOL0     H54898  -1.436   3.537   5.351 -0.4984 -4.4885 -1.3010
  398MOL0     H54899  -1.553   3.651   5.404  1.3464  2.8351 -2.7841
  398MOL0     H54900  -1.645   3.693   5.174 -1.3603 -1.9054  0.5368
  398MOL0     H54901  -1.501   3.596   5.101  1.1837  0.4080 -0.0553
  398MOL0     H54902  -1.363   3.761   5.235  0.1763  1.5606 -0.1899
  398MOL0     H54903  -1.517   3.843   5.283 -1.0336  1.2770 -1.5249
  398MOL0     H54904  -1.582   3.691   5.945  2.4893 -0.0620 -2.1305
  398MOL0     H54905  -1.471   3.747   6.155  1.2507 -0.9099  1.2210
  398MOL0     H54906  -1.334   3.613   6.594  0.2152  3.6957  3.3468
  398MOL0     H54907  -1.193   3.629   6.793  2.9243  1.0037  1.1675
  398MOL0     H54908   0.124   3.166   6.750  2.0087 -1.0272  1.8404
  398MOL0     H54909   0.291   3.109   6.572 -0.2389  0.2418 -2.1189
  398MOL0     H54910   0.363   2.827   6.220 -0.8349  1.3408  2.8376
  398MOL0     H54911   0.497   2.799   6.029  0.2062  0.9780  0.7519
  398MOL0     H54912   0.899   2.625   6.116 -1.8732  0.6756  0.9562
  398MOL0     H54913   0.926   2.660   5.942  0.7016  4.3339 -1.6208
  398MOL0     H54914   1.061   2.793   6.095  1.0888  3.2741  0.2072
  398MOL0     H54915   0.926   2.896   6.140  0.4496  1.7176 -0.3299
  398MOL0     H54916   1.049   2.848   5.860 -1.3013 -0.5127  0.0558
  398MOL0     H54917   0.907   2.948   5.882 -1.7324 -0.5881  3.5223
  398MOL0     H54918   1.035   3.095   6.038  1.2496 -0.2294  0.4753
  398MOL0     H54919   1.103   3.084   5.865  1.4558 -1.0873 -0.7755
  398MOL0     H54920   1.427   2.987   6.080 -0.5867 -4.9260  1.0805
  398MOL0     H54921   0.830   2.700   6.279  0.5262 -0.7659 -1.3319
  398MOL0     H54922   0.743   2.585   6.499  0.0774  0.1740 -0.0301
  398MOL0     H54923   0.752   2.752   6.568 -0.0220  2.8066 -3.5132
  398MOL0     H54924   0.599   2.650   6.568 -0.2043  0.1586  0.4708
  399MOL0     O54925   3.740   6.269   0.134  0.5805 -0.2246 -0.4904
  399MOL0     C54926   3.685   6.203   0.219  0.3438  0.7489  0.3746
  399MOL0     O54927   3.709   6.205   0.358 -0.0179  0.1722 -1.0041
  399MOL0     C54928   3.815   6.285   0.399 -0.7730 -0.0628 -0.0947
  399MOL0     C54929   3.792   6.413   0.459  0.4260  1.2024  0.1220
  399MOL0     C54930   3.896   6.478   0.529 -0.0152 -0.5415  0.0927
  399MOL0     C54931   4.029   6.439   0.508 -0.2574  0.0689 -0.2493
  399MOL0     O54932   4.133   6.510   0.560  0.5308 -0.0320  0.1599
  399MOL0     C54933   4.198   6.458   0.674 -0.3178  0.9881  0.5004
  399MOL0     C54934   4.350   6.484   0.656  0.3847  0.1905 -0.5945
  399MOL0     C54935   4.387   6.631   0.648  0.5041 -1.3692  1.0977
  399MOL0     C54936   4.523   6.653   0.583  0.2209  0.7354 -0.2443
  399MOL0     C54937   4.565   6.800   0.571  0.4541  0.1144 -0.0317
  399MOL0     C54938   4.669   6.820   0.457  0.1873  0.7856  0.0851
  399MOL0     C54939   4.676   6.972   0.426  1.0249 -0.0832  0.1298
  399MOL0     C54940   4.797   7.028   0.473  0.9733 -0.5878 -0.7489
  399MOL0     N54941   4.876   7.066   0.355 -0.0425 -0.0840  0.0273
  399MOL0     C54942   4.869   7.175   0.278 -0.5679 -0.7768  0.5929
  399MOL0     C54943   4.935   7.148   0.164 -0.4147 -0.6313  0.0648
  399MOL0     C54944   4.952   7.234   0.037  0.4744  0.0613 -0.1515
  399MOL0     C54945   4.867   7.201  -0.089 -0.2352 -0.9360  0.0884
  399MOL0     C54946   4.899   7.310  -0.192 -0.1222  0.2827 -0.4380
  399MOL0     C54947   4.861   7.455  -0.144 -1.0235  0.5535  0.0703
  399MOL0     O54948   4.733   7.461  -0.089  0.9459 -0.3217 -0.0140
  399MOL0     C54949   4.628   7.500  -0.168 -0.0119  0.4548 -0.3053
  399MOL0     C54950   4.504   7.525  -0.094 -0.4725 -0.1303  0.4730
  399MOL0     C54951   4.383   7.570  -0.151 -0.5843  0.2310 -0.5485
  399MOL0     C54952   4.268   7.587  -0.061  0.2737 -0.5317 -0.2463
  399MOL0     C54953   4.384   7.573  -0.297  0.3313 -0.2463  0.5761
  399MOL0     C54954   4.262   7.604  -0.379  0.0680  0.0721  0.0434
  399MOL0     O54955   4.139   7.618  -0.309  0.2371 -0.4169 -0.4184
  399MOL0     C54956   4.023   7.645  -0.381 -0.1581 -0.0303  0.5302
  399MOL0     C54957   3.910   7.566  -0.357  0.6252  0.4534 -0.5879
  399MOL0     C54958   3.794   7.586  -0.437 -1.1389  0.0935  0.7094
  399MOL0     C54959   3.785   7.691  -0.529  0.2642 -0.1133  0.5274
  399MOL0     O54960   3.667   7.697  -0.606 -0.2963 -1.9277  0.2177
  399MOL0     C54961   3.634   7.816  -0.672 -0.9867  0.0403  0.1645
  399MOL0     C54962   3.493   7.813  -0.725 -0.4042  0.3777 -0.9690
  399MOL0     C54963   3.462   7.713  -0.830 -0.1639  0.7002  0.4488
  399MOL0     C54964   3.356   7.771  -0.927 -0.2369 -0.3720  1.2827
  399MOL0     C54965   3.313   7.679  -1.041  0.4827 -0.8729 -0.0894
  399MOL0     C54966   3.174   7.609  -1.034 -0.2996 -0.1919  0.0306
  399MOL0     C54967   3.162   7.510  -0.915 -0.6809 -0.8803 -0.0182
  399MOL0     C54968   3.029   7.440  -0.915 -0.8021  1.1343  0.8753
  399MOL0    Cl54969   3.025   7.313  -0.788  0.1821  0.4407 -0.3611
  399MOL0     C54970   3.891   7.784  -0.536 -0.2537 -1.1673 -0.5149
  399MOL0     C54971   4.010   7.762  -0.464  0.2150  0.2723  0.3303
  399MOL0     O54972   4.267   7.614  -0.502  0.3575  0.0130  0.1005
  399MOL0     C54973   4.496   7.541  -0.369  0.3433  0.4713 -0.5652
  399MOL0     C54974   4.613   7.504  -0.310 -0.4267  0.8899  0.0326
  399MOL0     N54975   4.992   7.024   0.187 -0.0116  0.4494  0.1544
  399MOL0     N54976   4.954   6.975   0.299 -0.9874  0.4534 -0.2187
  399MOL0     C54977   4.049   6.323   0.434 -0.2510  0.1161 -0.3661
  399MOL0     C54978   3.944   6.247   0.386 -0.5829  0.6232 -1.0626
  399MOL0     C54979   3.566   6.116   0.183 -0.2548  0.1666  0.6818
  399MOL0     C54980   3.574   6.036   0.060 -0.0637  0.7350  0.1939
  399MOL0     C54981   3.477   5.943   0.027 -0.9060 -0.5917  0.4380
  399MOL0     C54982   3.374   5.918   0.117 -0.7848 -1.3286 -0.0920
  399MOL0     O54983   3.298   5.818   0.074  1.0131  0.0810  0.7901
  399MOL0     C54984   3.164   5.815   0.130 -0.3047  0.7113 -0.8855
  399MOL0     C54985   3.079   5.945   0.102  0.6740  1.1935 -0.2866
  399MOL0     C54986   2.989   5.928  -0.025  0.4116  0.5483 -0.3426
  399MOL0     C54987   2.893   6.044  -0.051 -0.3890 -0.2921 -0.3275
  399MOL0     C54988   2.765   6.017   0.013  0.3207  0.0892 -0.6304
  399MOL0     C54989   2.657   5.995   0.070 -0.4598  0.0127  1.0956
  399MOL0     C54990   3.368   5.986   0.239  0.0497 -0.2163 -0.4836
  399MOL0     C54991   3.462   6.089   0.272 -0.1622 -0.4535  0.4212
  399MOL0     C54992   3.450   6.181   0.389 -0.4845  0.9459 -0.3236
  399MOL0     H54993   3.689   6.447   0.463 -0.1088 -0.4740  2.8251
  399MOL0     H54994   3.880   6.564   0.593  2.2209 -1.4679  2.1037
  399MOL0     H54995   4.187   6.349   0.679 -2.7576  1.1576  0.0684
  399MOL0     H54996   4.159   6.507   0.764 -0.1921  0.6029  0.7650
  399MOL0     H54997   4.409   6.451   0.742 -0.1996 -0.7803 -0.5487
  399MOL0     H54998   4.387   6.425   0.572  1.1366  0.6799 -0.6109
  399MOL0     H54999   4.308   6.681   0.590  2.2454 -1.5416 -1.5684
  399MOL0     H55000   4.383   6.679   0.746  0.8380 -0.6705  0.7770
  399MOL0     H55001   4.604   6.605   0.637 -1.2368 -3.5188 -1.4355
  399MOL0     H55002   4.509   6.608   0.484 -0.8825  0.0315  0.2111
  399MOL0     H55003   4.605   6.833   0.667 -0.7539 -1.0653  0.9345
  399MOL0     H55004   4.475   6.853   0.539 -0.1417 -1.3056 -0.8303
  399MOL0     H55005   4.765   6.773   0.480 -0.0742 -0.3608 -1.0478
  399MOL0     H55006   4.632   6.769   0.368 -0.8613  1.3156  0.1987
  399MOL0     H55007   4.593   7.018   0.480  0.4737 -1.1209  0.2018
  399MOL0     H55008   4.657   6.987   0.319  1.4208 -0.4889 -0.0041
  399MOL0     H55009   4.777   7.118   0.531 -0.1438 -1.2762 -0.0304
  399MOL0     H55010   4.860   6.962   0.533 -0.9135 -2.5958 -0.8442
  399MOL0     H55011   4.800   7.258   0.291  1.9314  1.8538 -1.5855
  399MOL0     H55012   5.058   7.233   0.014  0.4018  1.4083 -0.5943
  399MOL0     H55013   4.924   7.335   0.068  0.8049  0.8145 -2.1665
  399MOL0     H55014   4.875   7.098  -0.128  0.4917 -0.9909  0.3736
  399MOL0     H55015   4.763   7.227  -0.067 -0.1868  0.4089 -1.1258
  399MOL0     H55016   5.007   7.304  -0.213 -0.4032 -1.3168 -1.6226
  399MOL0     H55017   4.847   7.289  -0.286  1.2541  0.8076 -1.3611
  399MOL0     H55018   4.925   7.493  -0.064  0.4596  2.2732 -1.8045
  399MOL0     H55019   4.871   7.529  -0.224  1.8589  2.8613  2.3083
  399MOL0     H55020   4.503   7.531   0.014 -2.7798  3.0160  0.3996
  399MOL0     H55021   4.229   7.689  -0.064  0.3021 -0.5308 -0.6179
  399MOL0     H55022   4.290   7.571   0.045  0.5650  2.0938  0.1535
  399MOL0     H55023   4.193   7.514  -0.091 -0.5364  0.6897 -1.2794
  399MOL0     H55024   3.908   7.483  -0.288 -0.2276  1.2565  0.3870
  399MOL0     H55025   3.713   7.520  -0.407  0.1315 -1.7907  0.1659
  399MOL0     H55026   3.637   7.905  -0.608  0.5501  0.8772 -0.9982
  399MOL0     H55027   3.697   7.831  -0.759 -1.6732 -1.6645 -0.6613
  399MOL0     H55028   3.430   7.792  -0.638 -0.8209  2.2875 -0.7665
  399MOL0     H55029   3.469   7.916  -0.753 -0.3208  1.6814  3.1058
  399MOL0     H55030   3.414   7.625  -0.786 -0.7017  1.4928  1.4794
  399MOL0     H55031   3.557   7.690  -0.879  0.1400  1.2068  0.8023
  399MOL0     H55032   3.395   7.862  -0.972  1.4676 -0.7138  1.9955
  399MOL0     H55033   3.270   7.800  -0.866  1.7860  4.8774  2.1404
  399MOL0     H55034   3.321   7.734  -1.135 -0.4546  0.8701  0.7912
  399MOL0     H55035   3.391   7.609  -1.070  0.9087  0.8564 -3.5856
  399MOL0     H55036   3.158   7.551  -1.125 -4.3228 -0.0926  0.4709
  399MOL0     H55037   3.104   7.693  -1.024  2.1624  1.7431  3.3959
  399MOL0     H55038   3.177   7.560  -0.819 -2.3776 -1.3486  0.5303
  399MOL0     H55039   3.249   7.446  -0.929 -0.7854 -0.8506 -0.8491
  399MOL0     H55040   3.013   7.398  -1.015 -2.7097 -2.0404  2.3556
  399MOL0     H55041   2.955   7.519  -0.901 -0.7343  1.1730  1.0164
  399MOL0     H55042   3.880   7.873  -0.597  0.6800  0.6569  1.8454
  399MOL0     H55043   4.100   7.820  -0.484  1.1884 -1.7851 -1.7088
  399MOL0     H55044   4.479   7.543  -0.477 -1.1017  0.9533 -0.3510
  399MOL0     H55045   4.700   7.481  -0.370  0.0227  3.9043 -0.6414
  399MOL0     H55046   4.155   6.298   0.425  0.3661  1.3168  2.4006
  399MOL0     H55047   3.960   6.156   0.329 -0.7119  0.9597 -1.6508
  399MOL0     H55048   3.659   6.059  -0.003 -0.3249 -0.0684 -0.4690
  399MOL0     H55049   3.472   5.890  -0.067 -2.2314  0.7631 -0.3045
  399MOL0     H55050   3.109   5.726   0.095 -0.5429  1.5307 -2.7515
  399MOL0     H55051   3.170   5.790   0.236 -2.0648 -0.7059 -1.0688
  399MOL0     H55052   3.159   6.020   0.093  1.7242  1.0709  4.9145
  399MOL0     H55053   3.013   5.971   0.186  0.8236  0.7923 -0.0415
  399MOL0     H55054   3.047   5.922  -0.118  1.5950  4.2382 -0.0228
  399MOL0     H55055   2.932   5.835  -0.018 -2.1783  2.0474 -0.2593
  399MOL0     H55056   2.881   6.057  -0.159 -2.2123 -1.0356 -0.2346
  399MOL0     H55057   2.917   6.142  -0.008  2.1911 -0.6808 -0.6787
  399MOL0     H55058   2.580   6.000   0.144 -2.6078 -0.3985 -1.0044
  399MOL0     H55059   3.299   5.963   0.320  1.1795 -0.9391  0.2920
  399MOL0     H55060   3.506   6.135   0.472 -0.9190  2.3861  0.8258
  399MOL0     H55061   3.488   6.282   0.369  3.3253 -0.5241 -1.4663
  399MOL0     H55062   3.348   6.183   0.427 -1.2218 -2.5592 -1.7518
  400MOL0     O55063   3.433  10.797   5.901 -0.2955  0.8321  0.1378
  400MOL0     C55064   3.318  10.828   5.852 -0.3674  0.7579  0.1888
  400MOL0     O55065   3.282  10.944   5.798 -0.4056  0.0197 -0.3783
  400MOL0     C55066   3.371  11.050   5.812  0.3922 -0.0809 -0.2843
  400MOL0     C55067   3.406  11.097   5.944 -0.5663 -0.0224 -0.0378
  400MOL0     C55068   3.502  11.202   5.967 -0.5198 -0.1546 -0.6351
  400MOL0     C55069   3.551  11.279   5.854  0.0565 -0.1867  0.2432
  400MOL0     O55070   3.633  11.392   5.858 -0.4583 -0.1860  0.7365
  400MOL0     C55071   3.724  11.395   5.975 -0.1541  0.1545 -0.0656
  400MOL0     C55072   3.853  11.476   5.933 -0.7762  0.6747  0.0269
  400MOL0     C55073   3.979  11.432   6.003  0.2288 -0.3091  0.4286
  400MOL0     C55074   4.104  11.491   5.935 -0.2127  0.6124  0.3614
  400MOL0     C55075   4.246  11.450   5.992 -0.2146 -0.5629 -1.0265
  400MOL0     C55076   4.277  11.300   5.969  0.4547  0.4923 -0.7164
  400MOL0     C55077   4.401  11.252   6.043  0.2133 -0.3405  0.0413
  400MOL0     C55078   4.494  11.355   6.114 -0.7965 -0.1442 -0.6985
  400MOL0     N55079   4.590  11.271   6.182 -0.8732 -0.0181  0.0254
  400MOL0     C55080   4.707  11.228   6.122  1.0647 -0.2077  0.7728
  400MOL0     C55081   4.775  11.173   6.219 -1.3732 -0.2959  0.5179
  400MOL0     C55082   4.918  11.123   6.208 -0.6345  0.0457  0.5627
  400MOL0     C55083   4.932  11.014   6.098 -0.0838  0.4566  0.4428
  400MOL0     C55084   5.068  10.945   6.097 -0.1875  0.0818 -0.4223
  400MOL0     C55085   5.060  10.810   6.159 -0.4156  1.2064  0.0759
  400MOL0     O55086   5.016  10.720   6.046  0.4066 -0.0427 -0.1245
  400MOL0     C55087   5.026  10.588   6.076  0.4587 -1.3364 -0.3768
  400MOL0     C55088   4.975  10.521   6.186 -0.3088  0.1702  0.6411
  400MOL0     C55089   4.979  10.386   6.197 -0.9026 -0.4026 -0.1759
  400MOL0     C55090   4.905  10.312   6.304  0.1123 -0.4002  0.2577
  400MOL0     C55091   5.044  10.307   6.109  0.4694  0.2146 -0.1874
  400MOL0     C55092   5.064  10.159   6.112  0.1760 -0.1408 -0.2302
  400MOL0     O55093   5.132  10.101   6.223  0.6666  0.5017  0.5221
  400MOL0     C55094   5.176   9.975   6.224 -0.8598  1.3532 -0.6047
  400MOL0     C55095   5.313   9.948   6.264 -0.9289  0.1890 -0.0085
  400MOL0     C55096   5.343   9.809   6.269 -1.3467 -0.3436 -0.3093
  400MOL0     C55097   5.252   9.705   6.243 -0.6075  0.9540  0.1352
  400MOL0     O55098   5.313   9.579   6.245 -0.3807 -0.4825 -0.2130
  400MOL0     C55099   5.241   9.477   6.310 -0.4531  1.1712  0.1880
  400MOL0     C55100   5.350   9.384   6.367 -0.7935  0.3522  0.1783
  400MOL0     C55101   5.438   9.456   6.474  0.1121 -0.7679 -0.6940
  400MOL0     C55102   5.511   9.359   6.569 -0.3387  0.5257 -0.8963
  400MOL0     C55103   5.426   9.259   6.648  0.4197  0.1738  0.0077
  400MOL0     C55104   5.493   9.184   6.764  0.1671 -0.2435  0.0436
  400MOL0     C55105   5.406   9.059   6.813  0.1122  0.2333  0.2415
  400MOL0     C55106   5.377   8.957   6.707  0.5082 -0.2224  0.7620
  400MOL0    Cl55107   5.517   8.896   6.619 -0.2897  0.0712  0.0849
  400MOL0     C55108   5.112   9.739   6.219 -0.5267 -0.2721 -0.3449
  400MOL0     C55109   5.082   9.874   6.209  0.8172  0.0232 -0.0060
  400MOL0     O55110   5.035  10.103   6.004  0.0874  0.3291 -0.8925
  400MOL0     C55111   5.104  10.372   6.000 -0.5212 -0.5808 -0.9447
  400MOL0     C55112   5.091  10.510   5.984  0.2174 -0.3035 -0.1043
  400MOL0     N55113   4.698  11.168   6.337  0.2123 -0.2490 -0.4808
  400MOL0     N55114   4.597  11.244   6.312 -0.5498 -0.0747  0.6155
  400MOL0     C55115   3.502  11.242   5.729  0.0947 -0.0071 -0.0459
  400MOL0     C55116   3.419  11.125   5.706  0.7515 -0.0571  0.2059
  400MOL0     C55117   3.206  10.730   5.892  0.0407  0.0777 -0.6255
  400MOL0     C55118   3.243  10.602   5.935 -0.6399 -0.1219 -0.9941
  400MOL0     C55119   3.146  10.509   5.968  0.2741  0.0807  0.8487
  400MOL0     C55120   3.008  10.533   5.946  0.8301 -0.3191  0.7777
  400MOL0     O55121   2.928  10.426   5.942  0.8992  0.8257  0.1966
  400MOL0     C55122   2.782  10.442   5.918 -0.2189  0.5083  0.3855
  400MOL0     C55123   2.687  10.320   5.923  0.2027 -0.6161 -0.0076
  400MOL0     C55124   2.724  10.205   5.824 -1.1254 -0.3249  0.2081
  400MOL0     C55125   2.667  10.238   5.681 -1.3153 -0.1864 -0.4112
  400MOL0     C55126   2.549  10.156   5.648 -0.3026 -0.9426  0.9768
  400MOL0     C55127   2.463  10.079   5.633  1.2260 -0.5366 -0.4614
  400MOL0     C55128   2.973  10.659   5.899  0.6383 -0.8751 -1.1206
  400MOL0     C55129   3.062  10.758   5.879 -0.1150 -0.9249 -0.5238
  400MOL0     C55130   2.995  10.891   5.832 -0.0706  0.2389 -0.5761
  400MOL0     H55131   3.352  11.057   6.029 -0.3184  0.7138  0.4710
  400MOL0     H55132   3.538  11.237   6.064  1.3655 -2.1076 -0.5729
  400MOL0     H55133   3.753  11.295   6.009  1.7266  0.1812 -1.4547
  400MOL0     H55134   3.679  11.448   6.060 -1.4528 -0.5799 -0.2815
  400MOL0     H55135   3.874  11.459   5.827  1.0668 -2.0214  0.7300
  400MOL0     H55136   3.830  11.582   5.947 -2.0883  0.3545  0.4117
  400MOL0     H55137   3.973  11.470   6.106 -2.1970 -1.3156  0.7293
  400MOL0     H55138   3.986  11.324   6.016  2.8701 -0.4026 -1.1717
  400MOL0     H55139   4.104  11.456   5.831 -2.1263 -0.3832  0.6381
  400MOL0     H55140   4.092  11.599   5.925 -0.1827  0.5030 -1.2136
  400MOL0     H55141   4.254  11.482   6.097  3.8881  1.6099 -1.7978
  400MOL0     H55142   4.318  11.513   5.939  0.3016  0.9481  1.3188
  400MOL0     H55143   4.186  11.249   6.001  0.2879 -0.9296 -3.2036
  400MOL0     H55144   4.292  11.270   5.865  0.0725 -3.1167  0.1410
  400MOL0     H55145   4.457  11.170   5.997  0.8820 -1.0442  1.9670
  400MOL0     H55146   4.364  11.191   6.126 -1.1817 -2.2785 -1.9193
  400MOL0     H55147   4.542  11.423   6.043 -0.0658  1.1364  0.9588
  400MOL0     H55148   4.444  11.423   6.183 -0.1016 -0.8608  0.5596
  400MOL0     H55149   4.744  11.244   6.022 -0.7119 -2.1922 -0.2818
  400MOL0     H55150   4.951  11.094   6.308  1.9103  1.3654  0.1752
  400MOL0     H55151   4.969  11.216   6.185 -2.0990  1.5100  2.8331
  400MOL0     H55152   4.854  10.938   6.105  0.9090 -0.6440 -0.0505
  400MOL0     H55153   4.925  11.073   6.007  0.3475  0.6189  0.5087
  400MOL0     H55154   5.124  10.944   6.003  0.0680  1.5067 -0.3004
  400MOL0     H55155   5.118  11.010   6.169 -0.7121  0.0316 -0.0088
  400MOL0     H55156   5.153  10.776   6.205 -0.6134  0.8752  0.2331
  400MOL0     H55157   4.991  10.811   6.243  1.5848 -0.9638  1.8937
  400MOL0     H55158   4.910  10.581   6.249  1.4682  4.0691 -0.8738
  400MOL0     H55159   4.849  10.227   6.265  1.2389 -0.4040 -1.4344
  400MOL0     H55160   4.839  10.387   6.347 -1.0469 -1.4333  0.3139
  400MOL0     H55161   4.982  10.274   6.373  2.7560  2.7004 -0.6998
  400MOL0     H55162   5.378  10.033   6.276 -0.8765  0.0350  0.8394
  400MOL0     H55163   5.440   9.774   6.302 -1.8513 -3.3751 -1.7539
  400MOL0     H55164   5.166   9.500   6.386  0.6878 -2.4239  2.6938
  400MOL0     H55165   5.186   9.426   6.231  1.1182  0.3651 -0.4345
  400MOL0     H55166   5.302   9.301   6.420  0.2442  1.0822  2.3911
  400MOL0     H55167   5.417   9.338   6.294 -0.0613 -2.1386  2.2381
  400MOL0     H55168   5.364   9.517   6.528  0.2887  1.1944 -2.5289
  400MOL0     H55169   5.508   9.516   6.415  3.6875 -1.5082  2.4328
  400MOL0     H55170   5.566   9.428   6.634 -2.4799  0.6834  0.8448
  400MOL0     H55171   5.590   9.301   6.520  1.1255 -0.6046  2.4993
  400MOL0     H55172   5.340   9.312   6.690  0.6804 -0.2799  1.1612
  400MOL0     H55173   5.388   9.185   6.578 -0.6993  0.8509 -0.1230
  400MOL0     H55174   5.489   9.258   6.844 -0.3592  0.1396 -0.3325
  400MOL0     H55175   5.597   9.151   6.750  0.5962  0.8911  0.4449
  400MOL0     H55176   5.313   9.088   6.861  1.1199  0.9520  1.8580
  400MOL0     H55177   5.475   9.012   6.884  0.3847  0.4794  0.1456
  400MOL0     H55178   5.317   9.009   6.632  2.6928  0.3134 -0.7342
  400MOL0     H55179   5.310   8.879   6.745 -0.9631  0.4455 -0.3746
  400MOL0     H55180   5.044   9.656   6.201  2.1000 -3.3222  2.3825
  400MOL0     H55181   4.978   9.893   6.183  0.4585 -1.6013  0.1686
  400MOL0     H55182   5.162  10.309   5.933 -1.3030 -4.9978  2.0964
  400MOL0     H55183   5.142  10.557   5.900  1.5928  1.2388  1.5168
  400MOL0     H55184   3.537  11.313   5.655  2.3340  0.8907  1.7488
  400MOL0     H55185   3.372  11.103   5.610  1.6304 -2.1998  0.2105
  400MOL0     H55186   3.343  10.560   5.934 -0.1430  1.0230 -1.4993
  400MOL0     H55187   3.173  10.412   6.009 -1.0812  0.1690  1.9835
  400MOL0     H55188   2.751  10.518   5.990  0.3819  1.8173 -0.6786
  400MOL0     H55189   2.771  10.488   5.819  2.2536  1.3672  0.4340
  400MOL0     H55190   2.584  10.355   5.914  0.2896  0.3970  2.1901
  400MOL0     H55191   2.710  10.275   6.020  2.5189  0.6177  0.0899
  400MOL0     H55192   2.831  10.195   5.801 -1.5093  0.2732 -2.1853
  400MOL0     H55193   2.694  10.108   5.863  3.3621 -2.7204 -1.5575
  400MOL0     H55194   2.752  10.224   5.613 -0.8947 -2.3162  0.4800
  400MOL0     H55195   2.655  10.347   5.691  2.3534  0.1039  4.4589
  400MOL0     H55196   2.387  10.006   5.614 -0.5348  1.6627 -2.4939
  400MOL0     H55197   2.868  10.686   5.903  1.0419  1.6260 -3.9611
  400MOL0     H55198   2.974  10.962   5.913 -0.3251  1.2573 -1.5138
  400MOL0     H55199   3.065  10.930   5.758  2.0259 -0.6510  0.8418
  400MOL0     H55200   2.896  10.875   5.786 -0.9351 -1.7431  1.7144
  401MOL0     O55201   2.820   6.734   3.495  0.3533  0.2329  0.4540
  401MOL0     C55202   2.734   6.654   3.531 -0.6370  0.2646 -0.4103
  401MOL0     O55203   2.754   6.555   3.622  0.9731  0.4866 -0.0274
  401MOL0     C55204   2.888   6.538   3.662  0.6149 -0.2682  1.0262
  401MOL0     C55205   2.905   6.494   3.791  0.0471  0.4841  0.0618
  401MOL0     C55206   3.037   6.476   3.840  0.1776 -0.0612 -0.5483
  401MOL0     C55207   3.147   6.485   3.760 -0.9095  0.6830 -0.4537
  401MOL0     O55208   3.276   6.461   3.796 -0.0516  0.1325 -0.5918
  401MOL0     C55209   3.301   6.378   3.909  0.1862  0.7144 -0.1629
  401MOL0     C55210   3.445   6.401   3.937 -0.3066 -0.1158  0.1038
  401MOL0     C55211   3.522   6.319   3.848 -0.2577 -0.8290  0.7853
  401MOL0     C55212   3.674   6.338   3.845 -0.6365 -0.1508  0.1658
  401MOL0     C55213   3.737   6.240   3.746  0.2026 -0.3559 -0.3901
  401MOL0     C55214   3.888   6.257   3.754 -0.5823 -0.3342  0.2055
  401MOL0     C55215   3.958   6.233   3.885  0.7542  0.3237  0.7471
  401MOL0     C55216   3.958   6.083   3.919  0.3878  0.5266  0.0025
  401MOL0     N55217   4.044   6.058   4.033  0.3694 -0.7880  0.0618
  401MOL0     C55218   4.103   5.938   4.055 -1.0050  0.5129  0.3408
  401MOL0     C55219   4.168   5.946   4.177  0.0400 -0.1568  0.6820
  401MOL0     C55220   4.225   5.826   4.237  0.2912 -0.2693  0.0920
  401MOL0     C55221   4.125   5.712   4.262  0.0634 -0.6128  0.0792
  401MOL0     C55222   4.048   5.713   4.390 -0.5105 -0.3881 -0.4706
  401MOL0     C55223   3.937   5.818   4.406  0.3186 -0.6786 -0.0094
  401MOL0     O55224   3.843   5.805   4.302 -0.7685 -0.2667 -0.3916
  401MOL0     C55225   3.745   5.900   4.289 -0.1105  0.6667  0.1765
  401MOL0     C55226   3.653   5.884   4.186  0.4539 -0.2794  0.9673
  401MOL0     C55227   3.550   5.969   4.153 -0.2075 -1.0878 -0.2216
  401MOL0     C55228   3.467   5.926   4.036 -0.0448  0.5570 -0.5110
  401MOL0     C55229   3.530   6.081   4.233  0.7179  0.2627  0.3834
  401MOL0     C55230   3.427   6.188   4.219 -1.0722 -0.0062  0.4023
  401MOL0     O55231   3.452   6.296   4.297  0.1671 -0.1479 -1.0117
  401MOL0     C55232   3.353   6.391   4.304 -1.0346 -0.5615  0.5119
  401MOL0     C55233   3.228   6.366   4.360  0.9693 -1.0933  0.4193
  401MOL0     C55234   3.139   6.471   4.382 -0.1985  0.1529 -0.1211
  401MOL0     C55235   3.178   6.598   4.339  0.9393 -0.4989 -1.1707
  401MOL0     O55236   3.083   6.696   4.374  0.9438  0.8027  1.1717
  401MOL0     C55237   3.138   6.794   4.454 -0.0430  0.5138  0.7239
  401MOL0     C55238   3.029   6.822   4.561 -0.5813  0.1942 -0.8705
  401MOL0     C55239   3.072   6.941   4.651 -0.0328  0.2959  0.2465
  401MOL0     C55240   3.208   6.929   4.708  0.3859 -0.9072  0.7757
  401MOL0     C55241   3.237   6.792   4.778  0.2434  0.4684 -0.8232
  401MOL0     C55242   3.385   6.769   4.827  0.7242  0.7009  1.3573
  401MOL0     C55243   3.478   6.750   4.711  0.5256  0.0525  0.1518
  401MOL0     C55244   3.453   6.625   4.615  0.4038  0.1793  0.0124
  401MOL0    Cl55245   3.530   6.495   4.688 -0.0344 -0.1238 -0.1939
  401MOL0     C55246   3.305   6.625   4.286 -0.1038  0.5008 -0.4251
  401MOL0     C55247   3.390   6.520   4.272 -0.4032  0.2066 -0.6619
  401MOL0     O55248   3.322   6.164   4.159 -0.6426  0.2930 -1.2982
  401MOL0     C55249   3.609   6.090   4.353  0.1855  0.8456 -0.3477
  401MOL0     C55250   3.712   6.004   4.372 -0.1863  0.4379 -0.3581
  401MOL0     N55251   4.151   6.076   4.218 -0.2484 -0.4150  0.8122
  401MOL0     N55252   4.062   6.132   4.148  0.9119 -0.3853  0.4405
  401MOL0     C55253   3.128   6.508   3.623 -0.0011  0.3222 -0.7980
  401MOL0     C55254   2.996   6.526   3.576 -0.0612 -0.2680  0.0328
  401MOL0     C55255   2.602   6.667   3.468  1.0531  0.5057 -0.1666
  401MOL0     C55256   2.559   6.800   3.448  0.0391  0.2303  0.6817
  401MOL0     C55257   2.433   6.822   3.384  0.3166  0.0929  0.0635
  401MOL0     C55258   2.350   6.713   3.350 -0.3460 -0.6010  0.5066
  401MOL0     O55259   2.234   6.731   3.284  0.3063  0.1455 -0.1498
  401MOL0     C55260   2.121   6.731   3.376 -0.3674  0.0587  0.1944
  401MOL0     C55261   2.110   6.858   3.469  0.8771 -0.3848 -0.5556
  401MOL0     C55262   1.957   6.887   3.497 -0.3386  0.1065  0.6794
  401MOL0     C55263   1.908   6.968   3.382 -0.0026 -0.4452 -0.7012
  401MOL0     C55264   1.767   6.950   3.354 -0.5888 -0.4652 -0.5253
  401MOL0     C55265   1.655   6.943   3.314  0.0515 -0.5076  0.4274
  401MOL0     C55266   2.392   6.585   3.370 -0.4126 -0.1836 -0.8505
  401MOL0     C55267   2.517   6.554   3.441  0.0631 -0.0754  0.0214
  401MOL0     C55268   2.541   6.415   3.488 -0.3013  0.0943 -1.0015
  401MOL0     H55269   2.826   6.493   3.865  0.6748  2.0952  0.8134
  401MOL0     H55270   3.044   6.446   3.944 -1.9527 -0.8948 -0.5875
  401MOL0     H55271   3.275   6.272   3.903 -0.2904  0.8847 -1.3247
  401MOL0     H55272   3.256   6.415   4.002 -0.2898  1.0448 -0.5204
  401MOL0     H55273   3.475   6.504   3.916  0.1845  0.4936  3.2431
  401MOL0     H55274   3.469   6.376   4.041  3.5994  0.3125 -0.5319
  401MOL0     H55275   3.502   6.212   3.865  0.6149 -0.8631  1.6115
  401MOL0     H55276   3.504   6.343   3.742  2.1167 -2.3894 -0.0544
  401MOL0     H55277   3.702   6.442   3.829 -0.9478  0.5593  3.5139
  401MOL0     H55278   3.718   6.325   3.944  1.9081  2.2322 -0.5381
  401MOL0     H55279   3.690   6.245   3.647 -0.7796  0.5578  0.1096
  401MOL0     H55280   3.707   6.142   3.786 -0.7055 -0.6438 -1.7090
  401MOL0     H55281   3.926   6.194   3.673  1.9771 -2.1695  2.6677
  401MOL0     H55282   3.911   6.357   3.715 -0.8131  0.1246  1.2060
  401MOL0     H55283   3.913   6.289   3.967  1.0620 -0.6827  1.6271
  401MOL0     H55284   4.063   6.264   3.878  0.8034  1.0348  3.6576
  401MOL0     H55285   3.861   6.050   3.956 -0.0117  0.4919 -1.0502
  401MOL0     H55286   3.984   6.024   3.831 -0.9382 -0.6612  0.3718
  401MOL0     H55287   4.100   5.860   3.979  0.0541  0.6246  0.1741
  401MOL0     H55288   4.267   5.856   4.333  1.1404 -2.1859  0.3667
  401MOL0     H55289   4.305   5.782   4.178  0.0837 -1.1573  0.4467
  401MOL0     H55290   4.038   5.713   4.195 -2.3680  2.6490  2.9082
  401MOL0     H55291   4.167   5.614   4.238 -0.8456 -0.4907 -2.3453
  401MOL0     H55292   4.003   5.616   4.411  1.1093 -0.8559  1.0454
  401MOL0     H55293   4.121   5.703   4.471 -4.9429 -3.9390  3.6840
  401MOL0     H55294   3.875   5.816   4.495  0.1434 -1.9671 -0.1422
  401MOL0     H55295   3.981   5.918   4.419  0.4630 -0.8341  0.7521
  401MOL0     H55296   3.676   5.794   4.129  1.9778  0.4877  0.3096
  401MOL0     H55297   3.442   6.013   3.976 -2.7270  1.7592  2.0686
  401MOL0     H55298   3.377   5.866   4.052 -0.9696  1.9073 -0.4747
  401MOL0     H55299   3.526   5.857   3.975 -0.2222  1.1078 -1.3172
  401MOL0     H55300   3.200   6.264   4.387  0.3078 -1.1004 -0.2514
  401MOL0     H55301   3.044   6.455   4.432 -1.3009  1.1211 -1.7961
  401MOL0     H55302   3.231   6.756   4.497  0.5148  1.2391  0.1909
  401MOL0     H55303   3.162   6.881   4.393  1.3412  0.1086  0.6397
  401MOL0     H55304   2.940   6.844   4.502 -0.8954  1.3628  0.0068
  401MOL0     H55305   3.005   6.740   4.630 -0.2243  0.9913  0.2365
  401MOL0     H55306   3.007   6.949   4.739  0.8423  1.3911  0.8292
  401MOL0     H55307   3.070   7.039   4.603 -0.6852  1.2094  2.0474
  401MOL0     H55308   3.222   7.000   4.790 -0.1209  1.3915 -1.0371
  401MOL0     H55309   3.285   6.956   4.635 -0.9050 -1.3786 -0.8242
  401MOL0     H55310   3.173   6.789   4.867 -1.4918 -0.0428 -2.0358
  401MOL0     H55311   3.199   6.706   4.722  1.9924  1.3165 -3.5243
  401MOL0     H55312   3.391   6.680   4.890 -1.7076  0.8198  1.8800
  401MOL0     H55313   3.422   6.845   4.897  1.7971  0.4867  1.0332
  401MOL0     H55314   3.576   6.733   4.758  0.0580 -0.4109  0.9878
  401MOL0     H55315   3.484   6.842   4.652  1.2713  0.6484  1.1178
  401MOL0     H55316   3.509   6.636   4.522 -1.7545  0.6841 -1.2839
  401MOL0     H55317   3.350   6.596   4.592  0.3074  0.6542 -0.1597
  401MOL0     H55318   3.334   6.729   4.274 -2.4505  1.5330  1.7090
  401MOL0     H55319   3.490   6.553   4.246  0.0650  0.6221  1.4672
  401MOL0     H55320   3.603   6.168   4.429  2.9556 -1.8231  2.9357
  401MOL0     H55321   3.777   6.023   4.457  1.4561  3.9387 -2.1844
  401MOL0     H55322   3.214   6.503   3.557 -0.6384 -1.2522 -1.5571
  401MOL0     H55323   2.983   6.545   3.470  0.3870 -0.1482 -0.0030
  401MOL0     H55324   2.617   6.886   3.479 -0.5600 -0.1079  3.0009
  401MOL0     H55325   2.403   6.925   3.373  3.4410  0.9742 -1.0851
  401MOL0     H55326   2.026   6.708   3.326  0.4611 -0.0710 -1.3909
  401MOL0     H55327   2.129   6.646   3.444  1.0317  1.1442  1.4311
  401MOL0     H55328   2.163   6.944   3.428  2.2951 -1.2271 -0.5730
  401MOL0     H55329   2.153   6.827   3.565 -1.2650 -0.2837  0.5028
  401MOL0     H55330   1.900   6.794   3.502 -1.0537  0.5379  0.7056
  401MOL0     H55331   1.944   6.942   3.590 -3.0110  0.3919  0.2179
  401MOL0     H55332   1.959   6.937   3.291 -0.3300  1.2457 -1.4934
  401MOL0     H55333   1.949   7.069   3.381 -0.4496 -0.2621 -1.0094
  401MOL0     H55334   1.556   6.925   3.277  0.7795 -1.9190 -0.9266
  401MOL0     H55335   2.336   6.494   3.351  0.6426 -1.0435 -0.0102
  401MOL0     H55336   2.556   6.409   3.596 -0.5334 -3.2537 -1.0480
  401MOL0     H55337   2.450   6.361   3.458 -0.0996 -0.1874 -1.1097
  401MOL0     H55338   2.623   6.373   3.429  0.9181 -1.5070  1.6093
  402MOL0     O55339   4.215   1.127   9.123 -0.3057 -0.5681  0.3859
  402MOL0     C55340   4.118   1.191   9.155 -0.3045  0.6410 -1.0202
  402MOL0     O55341   4.042   1.266   9.077 -0.8154 -0.4755 -0.7582
  402MOL0     C55342   4.030   1.243   8.946  0.3415  0.6960 -0.2474
  402MOL0     C55343   3.986   1.362   8.871  0.2641 -0.3396 -0.4531
  402MOL0     C55344   3.972   1.355   8.733  1.1781  0.0754  0.4058
  402MOL0     C55345   3.968   1.224   8.676  0.3941 -0.1391 -0.5670
  402MOL0     O55346   3.944   1.221   8.541 -0.4294 -0.5211  0.5063
  402MOL0     C55347   3.841   1.133   8.497  0.4488  0.4409  0.5164
  402MOL0     C55348   3.851   1.129   8.344  0.8028  0.4130 -0.6574
  402MOL0     C55349   3.712   1.134   8.280 -0.4460  0.0149 -0.0196
  402MOL0     C55350   3.634   0.999   8.287  0.0899 -0.2724 -0.2591
  402MOL0     C55351   3.494   1.042   8.226  0.6769  0.4316  0.9037
  402MOL0     C55352   3.388   0.933   8.257  0.8585  0.1493 -0.6133
  402MOL0     C55353   3.437   0.800   8.201  0.9620 -0.3004 -0.1509
  402MOL0     C55354   3.309   0.711   8.170  0.0902  0.2004 -0.0542
  402MOL0     N55355   3.348   0.570   8.143  0.2556 -1.0936 -0.8023
  402MOL0     C55356   3.365   0.525   8.023  0.0930  0.0570  1.1184
  402MOL0     C55357   3.310   0.405   8.031 -0.9309  1.0890 -0.1716
  402MOL0     C55358   3.314   0.303   7.920  0.5450 -0.0236 -0.1485
  402MOL0     C55359   3.239   0.175   7.929  0.4339 -0.4972  0.3371
  402MOL0     C55360   3.320   0.085   8.030 -0.3152 -0.7409  0.4718
  402MOL0     C55361   3.430   0.018   7.956  0.9465  0.4251 -0.3625
  402MOL0     O55362   3.441  -0.115   7.994  0.1881  0.2570 -0.5371
  402MOL0     C55363   3.490  -0.132   8.123  0.9151  1.2298  1.4995
  402MOL0     C55364   3.607  -0.079   8.170  0.3140  0.0148  0.8909
  402MOL0     C55365   3.676  -0.126   8.285  0.1496 -0.0668  0.3144
  402MOL0     C55366   3.810  -0.071   8.318 -0.5493  1.1053  0.2002
  402MOL0     C55367   3.611  -0.213   8.372  0.6120  1.7418 -0.1013
  402MOL0     C55368   3.646  -0.257   8.508 -0.3791 -0.2507 -0.4384
  402MOL0     O55369   3.565  -0.340   8.579  0.1409 -0.4543  0.2208
  402MOL0     C55370   3.568  -0.335   8.714  0.3050 -0.0361 -0.2703
  402MOL0     C55371   3.567  -0.453   8.792  0.2517  0.2221 -0.3991
  402MOL0     C55372   3.573  -0.451   8.929 -0.2544  1.2745 -0.3114
  402MOL0     C55373   3.583  -0.329   8.993  0.3499 -0.2505 -0.0112
  402MOL0     O55374   3.607  -0.326   9.132  0.7908 -0.6589 -0.1664
  402MOL0     C55375   3.514  -0.247   9.203  0.7170 -0.6123 -0.2020
  402MOL0     C55376   3.541  -0.279   9.354  0.1958 -0.3457 -0.5911
  402MOL0     C55377   3.510  -0.426   9.402  0.6324 -0.0687 -0.0230
  402MOL0     C55378   3.570  -0.466   9.532  0.5487 -0.6514 -0.3606
  402MOL0     C55379   3.566  -0.613   9.570  0.0536  0.3193 -1.0100
  402MOL0     C55380   3.611  -0.643   9.718 -1.0377 -1.0880 -0.0379
  402MOL0     C55381   3.752  -0.695   9.709 -0.2247 -0.2683  0.6117
  402MOL0     C55382   3.835  -0.708   9.845 -0.8534 -0.5384  0.5033
  402MOL0    Cl55383   3.781  -0.851   9.944  0.0574 -0.1929  0.0896
  402MOL0     C55384   3.587  -0.203   8.927 -0.1120 -0.8966  0.2327
  402MOL0     C55385   3.577  -0.208   8.786  0.7180 -0.2959  0.1937
  402MOL0     O55386   3.749  -0.204   8.556  0.5563 -0.6678  0.1174
  402MOL0     C55387   3.479  -0.253   8.327 -0.6398 -0.5063 -0.1075
  402MOL0     C55388   3.426  -0.225   8.206  0.4286  0.3587  0.4010
  402MOL0     N55389   3.262   0.379   8.155  0.3118 -0.9312  0.0894
  402MOL0     N55390   3.309   0.479   8.232  0.2995  0.5564 -0.3493
  402MOL0     C55391   4.010   1.110   8.753 -0.6190  1.3945 -0.5590
  402MOL0     C55392   4.038   1.118   8.890  0.5296  0.4635 -0.0588
  402MOL0     C55393   4.087   1.199   9.302 -0.1127  0.5254 -0.3177
  402MOL0     C55394   4.167   1.101   9.375  0.4275 -0.1138 -0.6621
  402MOL0     C55395   4.180   1.119   9.513 -0.2970  0.2033 -0.4369
  402MOL0     C55396   4.101   1.200   9.587 -0.4765 -0.2733 -0.0065
  402MOL0     O55397   4.108   1.189   9.727  0.4273  0.1482 -0.0662
  402MOL0     C55398   4.031   1.277   9.804 -0.0290  0.3730  0.5892
  402MOL0     C55399   4.068   1.435   9.788 -0.5692 -0.2538  0.4410
  402MOL0     C55400   4.160   1.458   9.899 -0.4971 -0.8371 -0.0946
  402MOL0     C55401   4.262   1.570   9.877 -0.0868  0.0668 -0.1646
  402MOL0     C55402   4.340   1.578   9.996  0.6280  0.2916 -1.1087
  402MOL0     C55403   4.388   1.558  10.108  0.0089  0.1282 -0.1615
  402MOL0     C55404   4.005   1.274   9.515  0.4026 -0.1568 -0.9489
  402MOL0     C55405   4.007   1.294   9.379 -1.1395 -0.5125  0.2270
  402MOL0     C55406   3.934   1.416   9.322 -0.0161 -0.2283 -0.7506
  402MOL0     H55407   3.971   1.461   8.912  1.6109 -0.0160 -0.6995
  402MOL0     H55408   3.942   1.436   8.667 -4.6346 -1.2720  0.8071
  402MOL0     H55409   3.746   1.175   8.530 -3.1008 -4.6522 -1.9286
  402MOL0     H55410   3.834   1.033   8.539 -2.2106 -1.7064 -4.2096
  402MOL0     H55411   3.910   1.219   8.322  0.5176  1.4516  2.3598
  402MOL0     H55412   3.909   1.040   8.314  0.0968 -0.4714  0.5261
  402MOL0     H55413   3.655   1.215   8.326  0.3805  0.4546  0.2440
  402MOL0     H55414   3.721   1.154   8.172 -4.2321 -0.8797 -0.6533
  402MOL0     H55415   3.684   0.911   8.246 -0.3817 -0.7240  0.1210
  402MOL0     H55416   3.618   0.978   8.393  1.4315  2.6324  0.6182
  402MOL0     H55417   3.514   1.039   8.119  0.0794 -0.3038  0.8039
  402MOL0     H55418   3.450   1.140   8.249 -1.8587 -0.2831 -0.4722
  402MOL0     H55419   3.377   0.922   8.366  2.0265  5.3980  0.2997
  402MOL0     H55420   3.291   0.963   8.215 -0.0552 -1.2044  0.4056
  402MOL0     H55421   3.499   0.743   8.270 -0.7800 -2.3466 -0.1661
  402MOL0     H55422   3.507   0.801   8.116  0.5666  2.7847 -0.5667
  402MOL0     H55423   3.242   0.718   8.256  1.0744  1.9605  0.6217
  402MOL0     H55424   3.252   0.748   8.084 -0.5275 -3.0581 -1.1893
  402MOL0     H55425   3.410   0.577   7.939  0.4314 -0.2378  1.1117
  402MOL0     H55426   3.416   0.298   7.880  0.4098  3.0344 -1.2046
  402MOL0     H55427   3.262   0.351   7.836  1.0586 -2.5478 -2.0127
  402MOL0     H55428   3.138   0.186   7.969  0.0629  0.5117 -0.8376
  402MOL0     H55429   3.215   0.125   7.835  0.4865  0.4269 -0.1735
  402MOL0     H55430   3.362   0.157   8.101  0.4759  0.1424 -0.8283
  402MOL0     H55431   3.253   0.010   8.074 -1.4591 -1.6021 -2.4828
  402MOL0     H55432   3.411   0.010   7.849  0.0428  0.2790 -0.1997
  402MOL0     H55433   3.522   0.078   7.961  0.8593  0.5047  0.4267
  402MOL0     H55434   3.647  -0.005   8.101 -2.1412 -1.2025 -2.1196
  402MOL0     H55435   3.822  -0.013   8.410 -0.5419  1.2650  0.0995
  402MOL0     H55436   3.844  -0.014   8.231  0.5754  0.3285  0.1186
  402MOL0     H55437   3.869  -0.163   8.324 -3.2449 -0.6671  1.6749
  402MOL0     H55438   3.558  -0.551   8.746  1.4685 -1.8352  3.2635
  402MOL0     H55439   3.560  -0.539   8.992  1.0340  0.7930 -0.7031
  402MOL0     H55440   3.521  -0.140   9.185 -0.8981 -0.4459  0.0498
  402MOL0     H55441   3.415  -0.283   9.172  0.3071 -0.1361  0.5080
  402MOL0     H55442   3.647  -0.266   9.378  0.2205 -3.0797  1.2817
  402MOL0     H55443   3.481  -0.205   9.407 -0.0182 -0.5038 -0.6099
  402MOL0     H55444   3.547  -0.496   9.327  3.2652  1.4933 -0.3150
  402MOL0     H55445   3.401  -0.435   9.407  0.6702  0.1490  2.2862
  402MOL0     H55446   3.530  -0.399   9.609  2.1879 -2.2772  2.0710
  402MOL0     H55447   3.674  -0.430   9.532  0.3002  0.0871 -0.2787
  402MOL0     H55448   3.468  -0.658   9.586 -0.7486  1.8646 -1.4275
  402MOL0     H55449   3.616  -0.683   9.502 -3.2847 -3.0107 -0.3718
  402MOL0     H55450   3.544  -0.713   9.770 -0.9667 -0.1783  1.3354
  402MOL0     H55451   3.604  -0.550   9.776 -0.4564  0.1819 -1.9419
  402MOL0     H55452   3.810  -0.630   9.643  1.6028 -1.5165  0.9476
  402MOL0     H55453   3.739  -0.791   9.660  4.2366  0.0055 -1.6282
  402MOL0     H55454   3.821  -0.618   9.906  0.7885  2.1807 -2.8212
  402MOL0     H55455   3.940  -0.720   9.820 -0.6519  0.5537  0.7622
  402MOL0     H55456   3.600  -0.101   8.963  2.8757 -1.8021  2.0346
  402MOL0     H55457   3.566  -0.113   8.736 -3.6178 -0.2100  0.9384
  402MOL0     H55458   3.423  -0.317   8.395 -3.2979 -0.5265 -2.1237
  402MOL0     H55459   3.335  -0.271   8.169  0.5434  1.8495 -1.9445
  402MOL0     H55460   4.022   1.023   8.690 -2.2675  2.6490 -2.7262
  402MOL0     H55461   4.064   1.029   8.946 -1.5566  0.4877  1.0362
  402MOL0     H55462   4.221   1.014   9.337 -0.2521 -1.4064  1.1872
  402MOL0     H55463   4.260   1.066   9.563 -0.7966 -0.8822 -0.7747
  402MOL0     H55464   3.929   1.268   9.766 -0.0564  1.2092  0.4314
  402MOL0     H55465   4.037   1.238   9.906  3.1541  0.3744  0.4927
  402MOL0     H55466   3.974   1.489   9.801  0.0484  2.0846 -3.4598
  402MOL0     H55467   4.112   1.452   9.690 -0.4933  1.8312  0.7931
  402MOL0     H55468   4.099   1.484   9.986  2.3966  2.9899  1.0476
  402MOL0     H55469   4.218   1.369   9.926 -0.9616 -2.4840 -3.8726
  402MOL0     H55470   4.216   1.667   9.856 -0.0103  0.5818  1.8284
  402MOL0     H55471   4.322   1.542   9.790  0.0080 -0.3285  0.0284
  402MOL0     H55472   4.448   1.535  10.194  4.0934  0.9927 -2.4645
  402MOL0     H55473   3.935   1.336   9.570 -1.2229 -2.5189 -0.1565
  402MOL0     H55474   3.871   1.472   9.391 -2.0664 -2.5017 -0.6337
  402MOL0     H55475   4.001   1.484   9.269 -1.9198  2.9397  0.6140
  402MOL0     H55476   3.866   1.368   9.250 -1.4966 -3.0172  2.2362
  403MOL0     O55477   3.586   7.453   2.012  0.1900  0.6106  0.2874
  403MOL0     C55478   3.621   7.515   1.912 -0.1403 -0.8033  0.0270
  403MOL0     O55479   3.602   7.472   1.778  0.5096  0.3111  0.7176
  403MOL0     C55480   3.522   7.360   1.755 -0.7457  0.0281 -0.4995
  403MOL0     C55481   3.560   7.270   1.657  0.0537  0.1161  0.1664
  403MOL0     C55482   3.483   7.158   1.620 -0.0635 -1.0942  0.2628
  403MOL0     C55483   3.356   7.146   1.680  1.4367 -0.0670  0.1792
  403MOL0     O55484   3.290   7.030   1.647 -0.2655 -1.4067  0.7210
  403MOL0     C55485   3.171   7.003   1.723 -0.0923  0.2616  0.0391
  403MOL0     C55486   3.144   6.857   1.698  0.4477 -1.0367 -0.0689
  403MOL0     C55487   3.260   6.763   1.737 -0.6155 -0.4502 -0.6491
  403MOL0     C55488   3.318   6.770   1.881  0.0474  0.3442 -0.0597
  403MOL0     C55489   3.438   6.666   1.900 -0.4547 -1.6948 -0.1530
  403MOL0     C55490   3.410   6.522   1.872 -0.0086 -0.6437  0.4055
  403MOL0     C55491   3.491   6.421   1.952 -0.2546 -0.1935  0.0005
  403MOL0     C55492   3.633   6.399   1.903 -0.1493  0.0117  0.6430
  403MOL0     N55493   3.636   6.319   1.778  0.2185  0.0084  0.2397
  403MOL0     C55494   3.637   6.381   1.657  0.9344  0.1802  0.1489
  403MOL0     C55495   3.619   6.286   1.565  0.4541 -0.4155 -0.1469
  403MOL0     C55496   3.608   6.327   1.423  0.2791  0.1032 -0.0341
  403MOL0     C55497   3.737   6.330   1.356 -0.8440  0.4645  0.0857
  403MOL0     C55498   3.751   6.417   1.226  0.7112 -0.5360  0.2844
  403MOL0     C55499   3.905   6.445   1.191  0.6418 -1.2569  0.3451
  403MOL0     O55500   3.974   6.318   1.187 -0.2966 -0.2545 -0.3245
  403MOL0     C55501   4.093   6.290   1.121  0.6825 -0.1746 -0.0767
  403MOL0     C55502   4.141   6.161   1.121 -1.1171 -0.5910 -1.0505
  403MOL0     C55503   4.267   6.128   1.057  0.4263  0.3603  0.6645
  403MOL0     C55504   4.323   5.993   1.075  0.8709  0.6312  0.6343
  403MOL0     C55505   4.339   6.231   0.987 -0.3730 -0.5245  0.4574
  403MOL0     C55506   4.461   6.213   0.904  0.2243 -1.0253 -0.1812
  403MOL0     O55507   4.549   6.324   0.913 -0.1761 -0.1352 -0.1086
  403MOL0     C55508   4.662   6.303   0.839 -0.7942  1.0018 -0.4561
  403MOL0     C55509   4.660   6.307   0.700  0.8390 -0.1433 -0.2750
  403MOL0     C55510   4.776   6.281   0.626  0.2975  0.4524 -0.2703
  403MOL0     C55511   4.896   6.244   0.684 -0.1211  0.3697  0.4729
  403MOL0     O55512   5.006   6.209   0.603  0.2452 -0.9619  0.3716
  403MOL0     C55513   5.015   6.258   0.465  0.1867 -0.8531  0.8540
  403MOL0     C55514   5.141   6.210   0.392 -0.3210 -0.2012 -0.8185
  403MOL0     C55515   5.112   6.072   0.324  0.1347 -0.8584 -0.3340
  403MOL0     C55516   5.038   6.089   0.191 -0.0622  0.1035 -0.9147
  403MOL0     C55517   4.994   5.945   0.144 -0.2409  0.1791 -0.4433
  403MOL0     C55518   4.892   5.964   0.025  0.0152 -0.2361  0.6049
  403MOL0     C55519   4.831   5.828  -0.013 -0.3513  0.5002 -0.8309
  403MOL0     C55520   4.721   5.833  -0.111 -0.6099  0.5556  0.2064
  403MOL0    Cl55521   4.576   5.900  -0.041 -0.1657  0.6784 -0.2393
  403MOL0     C55522   4.897   6.239   0.827 -0.1879 -0.3612 -0.1203
  403MOL0     C55523   4.781   6.263   0.902 -0.0395  0.2548 -0.8001
  403MOL0     O55524   4.462   6.128   0.818  0.6741  0.0163 -0.0919
  403MOL0     C55525   4.284   6.362   0.999 -1.1481  0.6374 -0.0958
  403MOL0     C55526   4.166   6.388   1.062  0.0679 -0.3540 -0.3920
  403MOL0     N55527   3.611   6.161   1.626 -0.5579  0.0300  0.0289
  403MOL0     N55528   3.629   6.185   1.753 -0.5554  0.1607  0.7129
  403MOL0     C55529   3.304   7.245   1.748 -0.2926 -0.7472 -0.1058
  403MOL0     C55530   3.388   7.350   1.797  0.9757 -0.6266  0.6961
  403MOL0     C55531   3.656   7.657   1.947 -0.4557  0.4061  0.3818
  403MOL0     C55532   3.689   7.732   1.834  2.2729 -0.3883  0.6766
  403MOL0     C55533   3.730   7.862   1.842 -0.6568  0.4727  0.1846
  403MOL0     C55534   3.766   7.917   1.968 -0.0629  1.4135  0.1146
  403MOL0     O55535   3.827   8.035   1.970 -0.1598  0.3392 -0.0274
  403MOL0     C55536   3.868   8.098   2.095 -0.5428 -0.4075  0.6152
  403MOL0     C55537   3.755   8.169   2.165 -1.0767 -0.3265 -0.1093
  403MOL0     C55538   3.794   8.193   2.316 -0.0311  0.5490  0.0529
  403MOL0     C55539   3.919   8.278   2.341 -0.8921 -0.1664 -0.8339
  403MOL0     C55540   4.034   8.195   2.360 -0.2176 -0.0709  0.1311
  403MOL0     C55541   4.123   8.114   2.389  0.7832  0.1708  0.9246
  403MOL0     C55542   3.744   7.837   2.081 -1.0728  0.3695 -1.1612
  403MOL0     C55543   3.690   7.701   2.075  0.5891 -0.2350 -0.3546
  403MOL0     C55544   3.679   7.623   2.206  0.3411 -0.5544 -0.6559
  403MOL0     H55545   3.663   7.290   1.629  0.2303 -0.6724  0.2237
  403MOL0     H55546   3.530   7.090   1.550  0.7109  0.7530 -1.1093
  403MOL0     H55547   3.087   7.068   1.697 -0.3476 -0.3729 -0.7489
  403MOL0     H55548   3.197   7.003   1.829  1.1375  0.4515 -0.2534
  403MOL0     H55549   3.063   6.815   1.758 -1.8316  0.7727 -1.7236
  403MOL0     H55550   3.120   6.845   1.592 -2.3049 -1.3736  0.5229
  403MOL0     H55551   3.214   6.667   1.712 -0.7685 -0.6042  0.2157
  403MOL0     H55552   3.347   6.780   1.672 -1.3155  1.5408 -1.1280
  403MOL0     H55553   3.343   6.870   1.918  0.7911  0.9637 -2.0822
  403MOL0     H55554   3.244   6.741   1.956  1.2322  1.1168  1.4487
  403MOL0     H55555   3.472   6.672   2.003 -0.7571 -0.2993 -0.1218
  403MOL0     H55556   3.531   6.702   1.855 -0.0348 -0.2893  1.7477
  403MOL0     H55557   3.309   6.506   1.911 -0.2162 -1.4565 -0.4233
  403MOL0     H55558   3.391   6.502   1.766 -2.5036 -0.1888  0.6995
  403MOL0     H55559   3.437   6.326   1.949 -1.0793  0.2338  0.8017
  403MOL0     H55560   3.488   6.455   2.056  0.3722  0.2035 -0.1011
  403MOL0     H55561   3.691   6.490   1.888  1.9713 -1.1466  1.3911
  403MOL0     H55562   3.681   6.343   1.984  0.4818  1.7557  1.5187
  403MOL0     H55563   3.642   6.489   1.649  0.1261  0.2316  0.3001
  403MOL0     H55564   3.554   6.422   1.412 -0.2241 -0.2409 -0.6327
  403MOL0     H55565   3.543   6.248   1.383 -2.0515 -0.8109  4.6920
  403MOL0     H55566   3.811   6.376   1.421 -3.7857  3.1540  1.8112
  403MOL0     H55567   3.763   6.224   1.345  0.5100  0.7489  0.3505
  403MOL0     H55568   3.716   6.348   1.150  0.1526  0.1134 -0.0615
  403MOL0     H55569   3.684   6.504   1.220  0.6532 -0.6792 -3.4523
  403MOL0     H55570   3.908   6.486   1.090 -2.3093  0.5472  0.8468
  403MOL0     H55571   3.944   6.512   1.269 -0.2023 -1.6517  1.1278
  403MOL0     H55572   4.076   6.091   1.173 -0.6395  0.2679  0.7746
  403MOL0     H55573   4.360   5.945   0.984 -1.3879 -1.0515  0.5069
  403MOL0     H55574   4.251   5.919   1.113  1.0550 -0.2333 -0.6034
  403MOL0     H55575   4.409   5.997   1.142  1.7610  2.3460 -0.5327
  403MOL0     H55576   4.568   6.335   0.650  2.5918  2.5800 -2.2808
  403MOL0     H55577   4.757   6.273   0.520 -1.4014  0.0589  0.0325
  403MOL0     H55578   4.928   6.239   0.401  1.9100 -0.1782 -1.8544
  403MOL0     H55579   5.025   6.366   0.479  0.9576 -0.3931 -2.4130
  403MOL0     H55580   5.180   6.286   0.324  1.5426  0.4849  0.9302
  403MOL0     H55581   5.225   6.200   0.460 -1.6455  4.2403  1.9478
  403MOL0     H55582   5.056   6.005   0.389  0.3960 -1.5243 -0.7883
  403MOL0     H55583   5.203   6.020   0.295  0.9483  1.8757 -3.3325
  403MOL0     H55584   5.099   6.125   0.108  1.7666 -0.0118  0.3393
  403MOL0     H55585   4.944   6.142   0.212 -0.5706 -1.0332 -0.2076
  403MOL0     H55586   5.074   5.882   0.103 -0.7458 -1.1718  0.5829
  403MOL0     H55587   4.942   5.888   0.221  1.0168  2.7715  2.5287
  403MOL0     H55588   4.939   6.016  -0.059  0.0262  0.8134  1.2323
  403MOL0     H55589   4.813   6.026   0.069  0.9879  3.8178 -2.6865
  403MOL0     H55590   4.792   5.767   0.069 -1.7860  0.8475 -1.2153
  403MOL0     H55591   4.922   5.779  -0.047  0.3720  1.0301  0.2942
  403MOL0     H55592   4.705   5.735  -0.157 -0.6757  0.0686  1.2346
  403MOL0     H55593   4.763   5.901  -0.186 -0.8346  1.0718  0.5446
  403MOL0     H55594   4.988   6.218   0.883  0.8140 -1.8493 -2.1472
  403MOL0     H55595   4.795   6.246   1.008 -0.3874  0.8897 -0.6468
  403MOL0     H55596   4.325   6.451   0.952 -1.7992  0.8956 -0.1872
  403MOL0     H55597   4.131   6.490   1.065  1.6574  0.2007  0.1683
  403MOL0     H55598   3.201   7.251   1.781 -0.0443  2.6247  0.4244
  403MOL0     H55599   3.358   7.422   1.873  0.7181 -0.2127  0.2116
  403MOL0     H55600   3.655   7.703   1.736 -0.5513 -1.7507  1.9390
  403MOL0     H55601   3.747   7.921   1.753 -3.1971  1.3330  0.2076
  403MOL0     H55602   3.904   8.019   2.162 -0.9593 -0.3204  0.9461
  403MOL0     H55603   3.959   8.158   2.082 -0.8568  0.2994  1.5154
  403MOL0     H55604   3.675   8.095   2.169  0.0117 -1.4854  1.5504
  403MOL0     H55605   3.739   8.263   2.111 -3.2715 -0.0969  0.8680
  403MOL0     H55606   3.711   8.256   2.348 -1.1906 -0.5794 -0.6408
  403MOL0     H55607   3.783   8.102   2.375 -3.6332  0.6053 -0.3443
  403MOL0     H55608   3.906   8.334   2.434  1.4594  0.5244 -0.8567
  403MOL0     H55609   3.956   8.345   2.264  0.2162 -1.4742 -1.4805
  403MOL0     H55610   4.203   8.047   2.415 -0.7618 -1.2643  2.1386
  403MOL0     H55611   3.777   7.871   2.179  1.4383 -2.1591 -0.9807
  403MOL0     H55612   3.693   7.690   2.291  1.9083 -1.8171  0.1515
  403MOL0     H55613   3.580   7.581   2.228  0.4566  0.5589  2.6251
  403MOL0     H55614   3.759   7.549   2.213 -0.9484 -2.1186 -1.7796
  404MOL0     O55615   2.637   9.150   5.665  0.4028 -0.2157 -0.4253
  404MOL0     C55616   2.675   9.218   5.566  0.2929 -0.5618  0.7281
  404MOL0     O55617   2.590   9.276   5.470 -0.1735 -0.4724  0.0380
  404MOL0     C55618   2.448   9.290   5.481 -0.5547 -0.4525 -0.4254
  404MOL0     C55619   2.363   9.241   5.581 -0.3131  0.6785 -0.4112
  404MOL0     C55620   2.223   9.246   5.582 -0.1102  0.1179  0.9652
  404MOL0     C55621   2.163   9.302   5.468  0.0349 -0.3576  0.2431
  404MOL0     O55622   2.027   9.293   5.460  0.4081  0.6349 -0.4696
  404MOL0     C55623   1.977   9.245   5.337 -0.7643  0.5961 -0.1999
  404MOL0     C55624   1.841   9.185   5.369  0.6007  0.2286  0.3369
  404MOL0     C55625   1.718   9.270   5.327  0.3385 -0.1454  0.2942
  404MOL0     C55626   1.701   9.395   5.403 -0.5042  0.1549  0.2999
  404MOL0     C55627   1.586   9.475   5.349  0.7260  0.0937 -0.6499
  404MOL0     C55628   1.568   9.586   5.462  1.0948  0.2506  0.5154
  404MOL0     C55629   1.460   9.688   5.411 -0.3667  0.1071  0.3229
  404MOL0     C55630   1.470   9.814   5.501  0.1658 -0.3071  0.4495
  404MOL0     N55631   1.418   9.789   5.634  0.9588 -0.0682 -0.5752
  404MOL0     C55632   1.494   9.760   5.752 -0.8840  0.2891 -0.0327
  404MOL0     C55633   1.416   9.785   5.858 -0.3858 -0.4509  0.3148
  404MOL0     C55634   1.449   9.788   6.003  0.0378 -0.9475 -0.6467
  404MOL0     C55635   1.535   9.920   6.039 -1.3947  0.5109 -0.0377
  404MOL0     C55636   1.690   9.895   6.030  0.8008 -0.3562 -0.2415
  404MOL0     C55637   1.764  10.028   6.051 -0.2894  0.3612 -0.2993
  404MOL0     O55638   1.908  10.011   6.066 -0.4036 -0.2684 -0.5115
  404MOL0     C55639   1.968  10.136   6.039 -0.3153 -0.0803 -0.5737
  404MOL0     C55640   2.061  10.144   5.934  1.1975 -0.2849 -0.6430
  404MOL0     C55641   2.110  10.268   5.893  0.3708 -1.2878 -0.3508
  404MOL0     C55642   2.178  10.267   5.756  0.1158  0.3916 -0.0983
  404MOL0     C55643   2.095  10.382   5.975 -0.2089  0.5593 -0.0257
  404MOL0     C55644   2.165  10.516   5.952 -0.0496 -0.5185 -0.4484
  404MOL0     O55645   2.270  10.521   5.866 -0.1872  0.6265  1.1850
  404MOL0     C55646   2.331  10.640   5.846 -0.2053 -0.3508 -0.7488
  404MOL0     C55647   2.417  10.706   5.938 -0.4831  0.0798  0.0785
  404MOL0     C55648   2.479  10.834   5.913  0.5131  0.3212  0.0026
  404MOL0     C55649   2.442  10.902   5.794 -1.0276  0.2551  0.1023
  404MOL0     O55650   2.487  11.031   5.779  0.4144  0.0550  0.8291
  404MOL0     C55651   2.496  11.073   5.646 -0.4581 -0.1550  0.1456
  404MOL0     C55652   2.583  11.198   5.639 -0.0319 -0.7194 -0.6507
  404MOL0     C55653   2.727  11.168   5.674  0.5520 -0.4343  0.5415
  404MOL0     C55654   2.795  11.302   5.680  0.4475 -0.5528 -0.0076
  404MOL0     C55655   2.945  11.268   5.699 -0.3924 -0.0632 -0.5744
  404MOL0     C55656   3.006  11.412   5.732 -0.9925  0.1260 -1.3728
  404MOL0     C55657   3.148  11.400   5.789  0.4297  0.3137  0.9655
  404MOL0     C55658   3.199  11.530   5.848  0.5653  0.4291 -0.0361
  404MOL0    Cl55659   3.359  11.527   5.929 -0.0865  0.2262 -0.6030
  404MOL0     C55660   2.339  10.851   5.718  0.0456 -0.4742  0.9279
  404MOL0     C55661   2.284  10.719   5.739 -0.5163  0.1612 -0.2062
  404MOL0     O55662   2.128  10.613   6.020 -0.3523  0.6056 -0.2875
  404MOL0     C55663   2.027  10.363   6.101  0.4672 -0.3580  0.3048
  404MOL0     C55664   1.955  10.247   6.125 -0.2878  0.7733 -0.5321
  404MOL0     N55665   1.291   9.823   5.797 -0.2489  1.3969  0.0977
  404MOL0     N55666   1.294   9.820   5.672 -0.1888  1.0993 -0.1400
  404MOL0     C55667   2.243   9.362   5.367  0.1956  0.1939 -0.5264
  404MOL0     C55668   2.388   9.343   5.372  0.0727  1.1719 -0.4168
  404MOL0     C55669   2.820   9.251   5.554  0.0429 -0.2336 -0.0472
  404MOL0     C55670   2.882   9.321   5.653 -0.5480 -0.4276  0.4447
  404MOL0     C55671   3.022   9.354   5.646  1.2596  0.3542 -0.1050
  404MOL0     C55672   3.102   9.303   5.542 -0.7909 -1.7101 -0.8862
  404MOL0     O55673   3.238   9.324   5.556 -0.4646  0.6323 -0.3514
  404MOL0     C55674   3.317   9.325   5.436  1.3137 -0.2601 -0.2109
  404MOL0     C55675   3.432   9.418   5.458 -0.7097  0.2497  0.1390
  404MOL0     C55676   3.541   9.413   5.349  0.4964  0.4981 -0.4238
  404MOL0     C55677   3.597   9.544   5.319  0.0050 -0.8537  0.0405
  404MOL0     C55678   3.704   9.569   5.417 -0.4029  0.2487 -0.6318
  404MOL0     C55679   3.794   9.567   5.505  1.2915 -0.4632 -0.6851
  404MOL0     C55680   3.037   9.234   5.437 -0.0609  0.9987  0.5108
  404MOL0     C55681   2.896   9.207   5.439 -0.2669 -0.0997  0.0496
  404MOL0     C55682   2.825   9.135   5.322  0.6876  0.3733 -0.1167
  404MOL0     H55683   2.406   9.204   5.674  0.2189  3.2391  0.4565
  404MOL0     H55684   2.162   9.206   5.662 -0.3577  1.0493  1.2495
  404MOL0     H55685   2.027   9.153   5.306 -0.8168  0.5451 -0.1321
  404MOL0     H55686   1.990   9.318   5.256  0.9845 -1.2105 -1.6381
  404MOL0     H55687   1.839   9.089   5.315  1.1870 -0.0024  0.7113
  404MOL0     H55688   1.840   9.176   5.478  0.4045  0.1317  0.3273
  404MOL0     H55689   1.730   9.300   5.223  2.5125  0.7478  0.7539
  404MOL0     H55690   1.630   9.207   5.341  3.3868 -4.8158  0.4946
  404MOL0     H55691   1.681   9.367   5.507  0.0346  2.7139  1.1675
  404MOL0     H55692   1.786   9.464   5.403 -0.8031  0.5311 -0.4413
  404MOL0     H55693   1.500   9.409   5.340  1.2664 -0.9584  1.2771
  404MOL0     H55694   1.600   9.519   5.250  0.4723 -2.3171 -1.8292
  404MOL0     H55695   1.548   9.543   5.560  0.4073 -0.3262  0.1312
  404MOL0     H55696   1.664   9.638   5.464  2.6444 -2.1514 -2.6483
  404MOL0     H55697   1.364   9.638   5.423  0.8896 -2.1993  1.3920
  404MOL0     H55698   1.483   9.693   5.304 -0.0605 -2.8824  0.1626
  404MOL0     H55699   1.575   9.845   5.507  0.2543 -0.5026 -0.0386
  404MOL0     H55700   1.407   9.892   5.458  0.1030  0.5525  2.0212
  404MOL0     H55701   1.593   9.721   5.736 -1.9582 -2.0504 -1.5396
  404MOL0     H55702   1.507   9.699   6.030  1.0094 -0.2141 -0.2689
  404MOL0     H55703   1.352   9.798   6.053  0.0491  2.7657 -1.1348
  404MOL0     H55704   1.507  10.005   5.975 -1.4868  1.7991  1.6535
  404MOL0     H55705   1.514   9.955   6.140 -0.4314  3.6455 -0.8009
  404MOL0     H55706   1.702   9.831   6.118 -1.4000  2.2081  2.1075
  404MOL0     H55707   1.730   9.834   5.948  4.0650  0.2093  0.7799
  404MOL0     H55708   1.738  10.082   5.959 -3.0538  0.3154  0.3952
  404MOL0     H55709   1.716  10.079   6.135 -2.2648 -1.7119 -0.1091
  404MOL0     H55710   2.073  10.064   5.862 -2.0967 -0.7884 -0.7861
  404MOL0     H55711   2.281  10.282   5.789 -0.6254  2.0054  1.6719
  404MOL0     H55712   2.140  10.353   5.699 -0.4413  0.9845  1.1415
  404MOL0     H55713   2.160  10.172   5.703 -4.9125  0.7622  0.4456
  404MOL0     H55714   2.442  10.663   6.034 -2.6719  1.2750  1.2426
  404MOL0     H55715   2.552  10.874   5.982  2.0867 -0.9846 -0.8278
  404MOL0     H55716   2.546  10.998   5.584  0.7925 -3.8078  4.9669
  404MOL0     H55717   2.393  11.102   5.625 -0.4618  0.1810  0.6100
  404MOL0     H55718   2.579  11.237   5.536 -0.8206 -2.2089 -1.2171
  404MOL0     H55719   2.545  11.273   5.709 -0.0030  0.5936 -1.9760
  404MOL0     H55720   2.780  11.111   5.597  1.1365  1.4693 -0.5422
  404MOL0     H55721   2.722  11.120   5.772 -2.7409  0.9220  1.1573
  404MOL0     H55722   2.756  11.361   5.764 -2.5602 -1.6345 -0.5261
  404MOL0     H55723   2.790  11.352   5.583  0.6688  0.1148  0.3120
  404MOL0     H55724   2.962  11.195   5.778 -1.8189 -0.0912 -0.2553
  404MOL0     H55725   2.991  11.235   5.606  1.2751  1.2184 -0.2605
  404MOL0     H55726   2.958  11.457   5.819  0.6982  1.9508 -1.3141
  404MOL0     H55727   3.003  11.476   5.643 -0.9364  2.7571  0.4041
  404MOL0     H55728   3.217  11.369   5.710  0.2906 -2.3159  1.7600
  404MOL0     H55729   3.156  11.321   5.864 -0.8558 -0.2500  0.5427
  404MOL0     H55730   3.137  11.554   5.935  0.4627 -2.3863  0.7858
  404MOL0     H55731   3.194  11.614   5.778  0.2539 -0.5772 -1.2795
  404MOL0     H55732   2.291  10.922   5.651 -3.2099 -0.4581  3.0129
  404MOL0     H55733   2.207  10.677   5.675  0.2771 -0.9471 -0.4744
  404MOL0     H55734   2.039  10.443   6.173  1.5167 -2.1567  2.2223
  404MOL0     H55735   1.897  10.249   6.216  3.9499  3.4936  2.4833
  404MOL0     H55736   2.194   9.414   5.286 -2.1287 -0.8522  0.1187
  404MOL0     H55737   2.449   9.370   5.286  0.0199  1.0418 -0.4958
  404MOL0     H55738   2.832   9.373   5.734 -2.2416 -1.5540  0.1536
  404MOL0     H55739   3.069   9.424   5.715 -1.1288 -0.2974  2.3693
  404MOL0     H55740   3.356   9.226   5.413  2.1785  0.4953 -2.2746
  404MOL0     H55741   3.262   9.374   5.355  0.2118 -0.2143  0.5554
  404MOL0     H55742   3.485   9.390   5.550 -1.8338 -0.1770  0.6769
  404MOL0     H55743   3.383   9.515   5.474 -4.5374 -1.9439  3.6491
  404MOL0     H55744   3.614   9.333   5.365  0.3919 -0.2313 -3.0594
  404MOL0     H55745   3.492   9.375   5.259  2.6045 -2.1123 -0.5975
  404MOL0     H55746   3.523   9.625   5.329  0.5428 -0.1509 -1.4039
  404MOL0     H55747   3.643   9.546   5.220  1.3417 -1.3306  0.6260
  404MOL0     H55748   3.883   9.561   5.565  1.0380 -2.0739 -0.4341
  404MOL0     H55749   3.090   9.219   5.344 -1.1761  4.1782 -0.7890
  404MOL0     H55750   2.824   9.183   5.224  1.2807  1.2477  0.3007
  404MOL0     H55751   2.882   9.042   5.318  1.5384  0.7764  1.6001
  404MOL0     H55752   2.723   9.102   5.348  1.1985 -0.6595  0.6411
  405MOL0     O55753  10.506  10.660   8.467  0.3945 -0.0606  0.2063
  405MOL0     C55754  10.614  10.604   8.444  0.0653 -0.7207 -0.7163
  405MOL0     O55755  10.740  10.668   8.440  0.5618 -0.0897  0.4752
  405MOL0     C55756  10.752  10.786   8.499 -0.5349  0.4849 -0.3173
  405MOL0     C55757  10.690  10.902   8.455  0.0736 -0.2335 -0.4151
  405MOL0     C55758  10.694  11.025   8.538 -0.3950  0.1460  0.6785
  405MOL0     C55759  10.750  11.013   8.668 -0.7523  0.9197 -0.3586
  405MOL0     O55760  10.748  11.119   8.750  0.6252 -0.7886  0.9035
  405MOL0     C55761  10.702  11.252   8.708 -0.2869  0.9811  0.4949
  405MOL0     C55762  10.713  11.339   8.832 -0.6795  0.6034 -0.2394
  405MOL0     C55763  10.861  11.357   8.871  0.9051 -0.1309  0.3453
  405MOL0     C55764  10.861  11.437   9.002 -0.8799 -0.0347 -0.4997
  405MOL0     C55765  11.004  11.493   9.016  0.2423  0.7353 -0.9676
  405MOL0     C55766  11.004  11.611   9.109 -0.3698  0.0485  0.0736
  405MOL0     C55767  11.144  11.652   9.165  0.3472  0.0695 -0.2583
  405MOL0     C55768  11.147  11.796   9.214  0.0879  0.1537  0.2404
  405MOL0     N55769  11.278  11.837   9.276  0.6425 -0.4451 -0.2120
  405MOL0     C55770  11.399  11.797   9.253 -0.4617 -0.8145  0.1628
  405MOL0     C55771  11.478  11.870   9.338  0.2925 -0.3338  0.8352
  405MOL0     C55772  11.632  11.872   9.354  0.2945  0.9848  0.4940
  405MOL0     C55773  11.714  11.770   9.264  0.5263  0.4549  0.7196
  405MOL0     C55774  11.866  11.784   9.278 -1.5271  0.0979  0.4572
  405MOL0     C55775  11.925  11.901   9.183 -0.4135  0.8575 -0.5368
  405MOL0     O55776  11.895  11.859   9.038  0.1791 -0.5970 -0.0514
  405MOL0     C55777  11.963  11.945   8.951  0.4018  0.1289  0.4757
  405MOL0     C55778  11.887  12.002   8.852  1.2065 -0.1850 -0.8340
  405MOL0     C55779  11.929  12.091   8.755 -0.0338  0.1173 -0.7520
  405MOL0     C55780  11.813  12.133   8.663  0.0386 -0.4849 -0.3949
  405MOL0     C55781  12.059  12.128   8.746  0.2958 -0.7750  0.6262
  405MOL0     C55782  12.108  12.216   8.637 -0.1884  0.9152 -1.2038
  405MOL0     O55783  12.189  12.317   8.685 -0.1039 -0.1785  0.1201
  405MOL0     C55784  12.246  12.390   8.590  0.4132 -0.3254 -0.7536
  405MOL0     C55785  12.382  12.375   8.582 -1.0740  1.1484 -0.2501
  405MOL0     C55786  12.458  12.450   8.489 -0.5014  0.7809 -1.1339
  405MOL0     C55787  12.398  12.547   8.415 -0.4463  1.1639 -0.4563
  405MOL0     O55788  12.478  12.604   8.315 -0.6106  0.1920  0.3750
  405MOL0     C55789  12.424  12.714   8.242  0.3003 -0.1436  0.9882
  405MOL0     C55790  12.525  12.807   8.169 -0.1717 -0.1431 -0.6151
  405MOL0     C55791  12.627  12.851   8.267 -0.4054  0.3690  0.4763
  405MOL0     C55792  12.736  12.933   8.200 -0.1433  0.2560 -0.1875
  405MOL0     C55793  12.848  12.983   8.290 -0.0679 -0.2079 -0.2515
  405MOL0     C55794  12.921  12.877   8.381  0.7151 -0.5593 -0.6970
  405MOL0     C55795  12.988  12.758   8.307  0.8511 -0.5048  0.7249
  405MOL0     C55796  13.121  12.802   8.236 -0.6858 -0.3975 -0.2469
  405MOL0    Cl55797  13.196  12.687   8.138 -0.2794  0.2207  0.5526
  405MOL0     C55798  12.256  12.565   8.430 -0.3120  0.3937  0.0509
  405MOL0     C55799  12.179  12.492   8.515 -0.4720  0.2525  0.1470
  405MOL0     O55800  12.096  12.178   8.522  0.4211  0.8068  0.2894
  405MOL0     C55801  12.145  12.068   8.839  0.1435  0.0642  0.3258
  405MOL0     C55802  12.094  11.977   8.945 -0.4185 -1.1748 -0.0209
  405MOL0     N55803  11.394  11.952   9.411 -0.5216  0.5998  0.1767
  405MOL0     N55804  11.273  11.930   9.384 -0.6086  0.3574 -0.1522
  405MOL0     C55805  10.818  10.900   8.704 -0.1006 -0.0466 -0.6137
  405MOL0     C55806  10.827  10.793   8.618  0.2056 -0.0521  0.8189
  405MOL0     C55807  10.633  10.459   8.431  0.8142  0.5917 -0.1274
  405MOL0     C55808  10.731  10.398   8.514  0.0602 -0.5633  0.5334
  405MOL0     C55809  10.744  10.260   8.505  0.5896 -0.0233 -0.1501
  405MOL0     C55810  10.651  10.184   8.431 -0.8676 -0.2268 -0.5316
  405MOL0     O55811  10.668  10.049   8.443 -0.2894  0.2346  0.2084
  405MOL0     C55812  10.598   9.964   8.346 -0.1343  0.5736 -0.0043
  405MOL0     C55813  10.656   9.826   8.363 -0.0891 -0.2493 -0.3675
  405MOL0     C55814  10.654   9.776   8.503 -0.3331  0.0620  0.0002
  405MOL0     C55815  10.653   9.625   8.513  0.1684  0.3040 -0.5638
  405MOL0     C55816  10.523   9.579   8.551  0.0990  0.2557  0.0026
  405MOL0     C55817  10.409   9.544   8.593 -0.1341  0.2780  0.2800
  405MOL0     C55818  10.562  10.248   8.349 -0.4177 -0.2204  1.4715
  405MOL0     C55819  10.553  10.381   8.345 -0.1497 -0.3333  0.5034
  405MOL0     C55820  10.440  10.450   8.265  0.6152 -0.6883 -0.1700
  405MOL0     H55821  10.642  10.905   8.358  0.7540 -3.2723 -0.9371
  405MOL0     H55822  10.634  11.110   8.508  2.3806  1.9162 -0.2600
  405MOL0     H55823  10.594  11.253   8.688 -0.5111 -0.1549  1.5320
  405MOL0     H55824  10.754  11.300   8.625  1.1701  1.2084  1.5066
  405MOL0     H55825  10.672  11.440   8.818 -1.0977  0.2038 -2.1605
  405MOL0     H55826  10.670  11.291   8.921  1.0654  0.7656  0.7359
  405MOL0     H55827  10.909  11.260   8.890  0.4547 -0.8343 -1.8709
  405MOL0     H55828  10.916  11.401   8.787 -1.3810 -0.2965 -1.3315
  405MOL0     H55829  10.791  11.521   9.010  0.0232  0.6060  1.2553
  405MOL0     H55830  10.842  11.371   9.087  1.1087 -0.0662 -0.0235
  405MOL0     H55831  11.044  11.523   8.919  0.3230  2.6491 -0.3979
  405MOL0     H55832  11.073  11.419   9.059 -1.8382 -0.3136  0.7404
  405MOL0     H55833  10.961  11.685   9.041 -1.0139 -0.8728 -0.5367
  405MOL0     H55834  10.943  11.595   9.199 -0.1069 -2.3354 -0.1042
  405MOL0     H55835  11.219  11.643   9.085 -0.3221 -1.3681 -0.7563
  405MOL0     H55836  11.171  11.587   9.249  1.3365 -1.4328 -1.6511
  405MOL0     H55837  11.127  11.868   9.134  0.9988  1.1655  0.8923
  405MOL0     H55838  11.063  11.794   9.284  0.7312  0.5182  1.0411
  405MOL0     H55839  11.427  11.728   9.174  2.0364  2.8582 -2.4587
  405MOL0     H55840  11.657  11.843   9.457 -0.5242 -2.7119 -0.1799
  405MOL0     H55841  11.665  11.975   9.338 -1.4701  1.5775  0.4571
  405MOL0     H55842  11.687  11.667   9.289 -0.4411  1.0355  2.2079
  405MOL0     H55843  11.679  11.796   9.163 -1.3152  2.2692  1.7431
  405MOL0     H55844  11.888  11.811   9.382 -1.1451 -1.7509  0.8950
  405MOL0     H55845  11.923  11.693   9.259 -3.3943 -1.1412  0.5734
  405MOL0     H55846  11.888  12.001   9.211 -1.6920  0.5505 -1.0596
  405MOL0     H55847  12.033  11.907   9.198 -0.1923  0.5924 -1.9640
  405MOL0     H55848  11.780  11.988   8.861  0.6867  3.6133  0.7684
  405MOL0     H55849  11.769  12.212   8.726  1.1793 -1.1281  1.2731
  405MOL0     H55850  11.732  12.060   8.651  1.0753 -1.4002 -2.2063
  405MOL0     H55851  11.843  12.171   8.565  0.8385 -2.6198 -1.0243
  405MOL0     H55852  12.441  12.305   8.640 -1.2166  2.2058  1.2295
  405MOL0     H55853  12.563  12.423   8.485 -1.1166 -2.0216 -0.5074
  405MOL0     H55854  12.364  12.667   8.164  3.5657 -0.7208 -1.3479
  405MOL0     H55855  12.365  12.776   8.311 -2.6807 -2.6476  0.9136
  405MOL0     H55856  12.572  12.750   8.088  1.0043  1.1037 -0.8581
  405MOL0     H55857  12.480  12.899   8.131 -0.1252  1.1972  2.3182
  405MOL0     H55858  12.678  12.763   8.309 -3.7394 -2.4744 -0.9181
  405MOL0     H55859  12.596  12.922   8.343 -1.3890 -0.1628  0.5819
  405MOL0     H55860  12.696  13.020   8.148  1.4781  1.7229  0.9367
  405MOL0     H55861  12.760  12.857   8.125 -2.9368  0.7055 -1.6699
  405MOL0     H55862  12.925  13.032   8.229  0.0811 -2.0200 -1.6315
  405MOL0     H55863  12.801  13.060   8.351  1.0981 -0.9763  1.6915
  405MOL0     H55864  12.856  12.837   8.459  0.2995  2.9787  0.9285
  405MOL0     H55865  12.995  12.937   8.435  2.2846 -2.7435 -0.2849
  405MOL0     H55866  12.921  12.724   8.227 -0.2261 -1.0273  1.8266
  405MOL0     H55867  13.005  12.673   8.374  0.8193 -0.6699  0.5258
  405MOL0     H55868  13.198  12.821   8.311 -2.8028  0.6985  1.7544
  405MOL0     H55869  13.102  12.892   8.176 -1.5119 -2.4702 -3.3837
  405MOL0     H55870  12.205  12.621   8.352 -1.0304 -0.8853 -0.4218
  405MOL0     H55871  12.072  12.493   8.533 -0.4270 -3.8700  1.8958
  405MOL0     H55872  12.252  12.089   8.846  0.9606 -3.5844  0.8748
  405MOL0     H55873  12.160  11.953   9.028  0.2632  1.7519  0.4169
  405MOL0     H55874  10.877  10.886   8.794 -3.4747 -1.5325  1.5871
  405MOL0     H55875  10.886  10.705   8.642 -1.2879 -2.2247 -2.6287
  405MOL0     H55876  10.790  10.463   8.577  1.0973 -0.6860 -0.2919
  405MOL0     H55877  10.821  10.202   8.555  1.3224 -1.3039 -2.5971
  405MOL0     H55878  10.490   9.969   8.361  0.0619  0.2138  1.6930
  405MOL0     H55879  10.605   9.995   8.241  1.1464 -0.3563 -0.2195
  405MOL0     H55880  10.762   9.834   8.337 -0.0042  0.6255  0.2178
  405MOL0     H55881  10.607   9.752   8.300 -1.2911 -1.6410  2.0780
  405MOL0     H55882  10.752   9.806   8.540 -0.2065  0.3151 -0.5392
  405MOL0     H55883  10.562   9.807   8.554 -2.4303 -3.0914 -1.5716
  405MOL0     H55884  10.714   9.603   8.601  0.9875 -1.3930 -1.5086
  405MOL0     H55885  10.703   9.573   8.431  2.3272 -1.3422  1.6452
  405MOL0     H55886  10.312   9.512   8.626  0.1493  0.0227  0.8847
  405MOL0     H55887  10.480  10.196   8.299  0.2865  0.5366 -0.5705
  405MOL0     H55888  10.376  10.380   8.211  0.4669 -0.6755 -0.0111
  405MOL0     H55889  10.381  10.491   8.347  1.6135  0.6357 -0.0751
  405MOL0     H55890  10.481  10.528   8.199 -1.3697 -0.3501 -1.0851
  406MOL0     O55891   2.035  10.855   1.538 -0.5433  0.1151 -0.1601
  406MOL0     C55892   2.137  10.902   1.505 -0.6422 -0.2813  0.0963
  406MOL0     O55893   2.205  10.861   1.396  0.3453  0.3925  0.4837
  406MOL0     C55894   2.168  10.771   1.295  0.0162 -0.1682  0.1847
  406MOL0     C55895   2.089  10.659   1.310 -0.7297  0.3966  0.6126
  406MOL0     C55896   2.063  10.576   1.204 -0.8590  0.1601  0.1711
  406MOL0     C55897   2.132  10.600   1.079  1.3036  0.1282  0.1533
  406MOL0     O55898   2.106  10.526   0.971  0.0763 -0.6947 -0.1683
  406MOL0     C55899   2.017  10.422   0.982  0.6482  0.5734  0.1490
  406MOL0     C55900   2.023  10.347   0.846  0.3327  0.4950  0.7290
  406MOL0     C55901   1.925  10.226   0.843  0.0458 -0.3663 -0.4836
  406MOL0     C55902   1.916  10.144   0.712  0.4996 -0.2980 -0.0671
  406MOL0     C55903   1.784  10.067   0.690  0.3302 -0.4830  0.0470
  406MOL0     C55904   1.746   9.970   0.809 -0.6894  0.1359  0.7596
  406MOL0     C55905   1.857   9.867   0.829 -0.5081 -0.3754 -0.1198
  406MOL0     C55906   1.816   9.778   0.947 -0.1432 -0.6896  0.4284
  406MOL0     N55907   1.729   9.662   0.917  0.2687 -0.6628 -0.4030
  406MOL0     C55908   1.685   9.577   1.022  0.1788 -0.0192  0.5342
  406MOL0     C55909   1.646   9.466   0.958  0.8663  0.2555  0.6013
  406MOL0     C55910   1.612   9.336   1.021 -0.2432  0.5941 -0.1356
  406MOL0     C55911   1.497   9.249   0.952  0.1684  0.3920 -0.2648
  406MOL0     C55912   1.552   9.165   0.837 -0.2716  0.4460 -0.3864
  406MOL0     C55913   1.466   9.046   0.803 -0.0927  0.5055 -1.1245
  406MOL0     O55914   1.519   8.995   0.680  0.5163  0.1607  0.8986
  406MOL0     C55915   1.456   8.881   0.632  0.5477 -0.0238  0.1833
  406MOL0     C55916   1.362   8.892   0.529 -0.4054  0.4736 -0.0176
  406MOL0     C55917   1.270   8.792   0.503 -0.2489 -0.6372  0.9042
  406MOL0     C55918   1.170   8.821   0.392  0.1328 -0.4476 -0.1237
  406MOL0     C55919   1.286   8.666   0.567 -0.5250 -0.4214  0.2240
  406MOL0     C55920   1.214   8.543   0.527 -0.3718 -0.3462 -0.0157
  406MOL0     O55921   1.149   8.529   0.401  1.3652 -0.2154 -0.0153
  406MOL0     C55922   1.095   8.408   0.368  1.0096 -0.6950  0.0190
  406MOL0     C55923   0.973   8.401   0.297  0.9317  0.6308  1.0347
  406MOL0     C55924   0.935   8.283   0.231  1.1678  0.1951  0.3834
  406MOL0     C55925   1.007   8.169   0.262  0.3472  0.4082 -0.1280
  406MOL0     O55926   0.939   8.058   0.222  0.3728 -0.1442  1.2461
  406MOL0     C55927   1.020   7.955   0.152  0.5176 -0.9201 -0.0968
  406MOL0     C55928   1.061   8.012   0.012 -0.2689 -0.3448 -0.6291
  406MOL0     C55929   1.175   7.926  -0.065  0.7434  0.6381 -0.1837
  406MOL0     C55930   1.128   7.788  -0.103  0.6492  0.8817  0.1322
  406MOL0     C55931   1.016   7.788  -0.214 -0.1692 -1.1605 -0.3732
  406MOL0     C55932   1.051   7.851  -0.352 -0.5971 -0.5271  0.0107
  406MOL0     C55933   1.139   7.755  -0.446 -1.2376 -0.9297 -0.2551
  406MOL0     C55934   1.116   7.773  -0.587  0.3145  0.0110  0.5305
  406MOL0    Cl55935   1.180   7.920  -0.637 -0.3887 -0.0631  0.2172
  406MOL0     C55936   1.128   8.179   0.324 -0.8967  0.7418  0.2585
  406MOL0     C55937   1.174   8.292   0.371  0.0536  0.2970  0.8348
  406MOL0     O55938   1.219   8.459   0.610 -0.2238  0.2790  0.7323
  406MOL0     C55939   1.382   8.662   0.672  0.4974 -0.4408  0.2394
  406MOL0     C55940   1.464   8.764   0.707 -0.4915  0.5450  0.6624
  406MOL0     N55941   1.652   9.487   0.820 -0.4556 -0.1660  0.4019
  406MOL0     N55942   1.692   9.608   0.795 -0.5940 -0.0975 -0.1783
  406MOL0     C55943   2.233  10.704   1.072 -0.2616  0.6784 -0.5665
  406MOL0     C55944   2.244  10.788   1.180 -0.6458 -0.0524  0.9094
  406MOL0     C55945   2.204  11.020   1.574  1.1671  0.4886 -0.1599
  406MOL0     C55946   2.258  11.125   1.497  0.5557  0.2232  0.8209
  406MOL0     C55947   2.312  11.231   1.563  0.1287 -0.3023  0.7244
  406MOL0     C55948   2.313  11.244   1.704  0.6267  0.5808  0.5066
  406MOL0     O55949   2.362  11.351   1.769 -1.1495  0.2259 -0.0847
  406MOL0     C55950   2.423  11.466   1.703  0.3188 -0.7634 -0.4820
  406MOL0     C55951   2.463  11.576   1.802  0.0314 -1.1058  0.5258
  406MOL0     C55952   2.564  11.529   1.910 -0.2557  0.0108 -0.5860
  406MOL0     C55953   2.615  11.644   1.989 -0.0546  0.2293 -0.0791
  406MOL0     C55954   2.512  11.728   2.058 -0.0824 -0.0274 -0.1704
  406MOL0     C55955   2.434  11.808   2.105  1.0815  0.1395  0.1294
  406MOL0     C55956   2.247  11.145   1.780  0.7973  0.4412  0.7492
  406MOL0     C55957   2.198  11.031   1.718  0.2188  0.7534  0.0728
  406MOL0     C55958   2.142  10.936   1.813 -0.6545 -0.0445  0.5873
  406MOL0     H55959   2.037  10.644   1.404 -1.9470 -0.5015 -0.1707
  406MOL0     H55960   2.001  10.489   1.225 -0.3928 -0.0469  0.7372
  406MOL0     H55961   1.920  10.472   0.998  0.2048  0.5854 -2.2024
  406MOL0     H55962   2.045  10.352   1.061 -0.0473 -1.3921 -1.2623
  406MOL0     H55963   1.994  10.419   0.768  1.7638  1.1525  0.7824
  406MOL0     H55964   2.128  10.328   0.824 -0.1638 -2.7071  0.5517
  406MOL0     H55965   1.950  10.158   0.925  0.9750 -2.5284 -2.4212
  406MOL0     H55966   1.822  10.262   0.858  0.4430  0.3421  0.6565
  406MOL0     H55967   1.939  10.210   0.628 -1.2981 -3.2521 -3.1333
  406MOL0     H55968   2.003  10.078   0.725  0.7529  0.0608  0.0724
  406MOL0     H55969   1.802  10.008   0.600 -0.7269 -0.0963 -0.4390
  406MOL0     H55970   1.699  10.134   0.671  0.5091 -0.2902 -0.0742
  406MOL0     H55971   1.718  10.017   0.903  0.4987  0.4338  0.9827
  406MOL0     H55972   1.669   9.899   0.775  0.6594 -0.5567 -1.0340
  406MOL0     H55973   1.941   9.928   0.863 -1.7884  1.9001 -0.7550
  406MOL0     H55974   1.882   9.810   0.740 -0.5698  0.7583 -0.8812
  406MOL0     H55975   1.908   9.739   0.992  0.8044 -4.5132 -3.9775
  406MOL0     H55976   1.762   9.846   1.013  0.6374 -0.0392  0.4091
  406MOL0     H55977   1.695   9.591   1.129  1.7727 -1.1227  0.5715
  406MOL0     H55978   1.568   9.344   1.121  0.9187 -0.0076  0.4438
  406MOL0     H55979   1.700   9.272   1.030 -0.9958 -0.9890 -2.8564
  406MOL0     H55980   1.459   9.176   1.025 -0.8665 -0.8211 -1.9458
  406MOL0     H55981   1.412   9.307   0.917 -0.6674  1.0059  2.5315
  406MOL0     H55982   1.563   9.244   0.762 -0.0105  0.9982  0.2306
  406MOL0     H55983   1.655   9.135   0.861  0.6915  2.0022 -2.2255
  406MOL0     H55984   1.469   8.980   0.890 -1.7578  2.7638  0.8058
  406MOL0     H55985   1.361   9.078   0.795 -0.0562  1.6155  1.6254
  406MOL0     H55986   1.364   8.992   0.486  1.5619  0.7835  0.7101
  406MOL0     H55987   1.181   8.785   0.289 -4.1649 -0.5081 -0.7104
  406MOL0     H55988   1.162   8.929   0.381  2.3729 -0.1285  0.7627
  406MOL0     H55989   1.069   8.784   0.411 -0.6010 -0.8238 -3.8625
  406MOL0     H55990   0.917   8.490   0.270  1.3314  0.8001  0.7477
  406MOL0     H55991   0.849   8.277   0.164  2.8884 -1.2738 -1.8574
  406MOL0     H55992   1.117   7.947   0.203  0.4114  0.0557  0.2801
  406MOL0     H55993   0.963   7.862   0.149 -0.2573 -0.5476  1.9728
  406MOL0     H55994   0.978   8.027  -0.058  1.4347 -1.6837 -3.0878
  406MOL0     H55995   1.112   8.106   0.032  1.3695 -1.5533  1.3467
  406MOL0     H55996   1.262   7.910  -0.001  0.8574 -1.0148 -0.7044
  406MOL0     H55997   1.210   7.985  -0.150  1.3264  2.8069  1.4574
  406MOL0     H55998   1.084   7.728  -0.023  1.8148 -2.1485 -1.3029
  406MOL0     H55999   1.217   7.737  -0.142  1.3396  2.5298 -0.5364
  406MOL0     H56000   1.001   7.682  -0.239  0.5790 -1.6117  0.9652
  406MOL0     H56001   0.923   7.827  -0.172  2.5454  3.1860  2.3634
  406MOL0     H56002   1.111   7.941  -0.336  0.9463 -1.6769  0.8937
  406MOL0     H56003   0.956   7.866  -0.405 -2.5282 -1.0062  3.0923
  406MOL0     H56004   1.112   7.653  -0.416  0.1697 -0.6486  2.2446
  406MOL0     H56005   1.244   7.781  -0.429 -1.0400 -0.6249 -1.8343
  406MOL0     H56006   1.009   7.775  -0.605  0.1866  1.7105  1.2890
  406MOL0     H56007   1.160   7.691  -0.645 -1.0687 -0.9775  0.8356
  406MOL0     H56008   1.194   8.095   0.343 -1.7618 -0.2614 -0.8959
  406MOL0     H56009   1.275   8.295   0.413  0.2177  2.8798  0.4029
  406MOL0     H56010   1.396   8.576   0.736 -0.3484  0.2083  1.3330
  406MOL0     H56011   1.531   8.767   0.793 -1.3571 -0.5580  1.4020
  406MOL0     H56012   2.276  10.717   0.973  0.8103 -1.9880 -0.5476
  406MOL0     H56013   2.320  10.865   1.170 -0.1444 -0.7646 -1.9255
  406MOL0     H56014   2.265  11.130   1.389  3.3609  2.6601  0.9997
  406MOL0     H56015   2.374  11.300   1.506  1.0238 -0.1261  1.8760
  406MOL0     H56016   2.505  11.427   1.642  1.0263  0.2514 -0.2030
  406MOL0     H56017   2.353  11.507   1.630 -0.0406 -1.2559 -0.4273
  406MOL0     H56018   2.378  11.613   1.861  0.9141  1.8883  0.1162
  406MOL0     H56019   2.494  11.662   1.742 -1.6043 -0.1107  1.0479
  406MOL0     H56020   2.513  11.456   1.974  2.1313 -0.7794  0.5305
  406MOL0     H56021   2.636  11.468   1.853  1.3870  2.2595 -1.0452
  406MOL0     H56022   2.684  11.709   1.936  1.5533 -0.2108  1.3799
  406MOL0     H56023   2.678  11.591   2.061  2.8407  2.8158 -0.4984
  406MOL0     H56024   2.350  11.865   2.141 -1.4557 -2.0170 -1.9928
  406MOL0     H56025   2.234  11.165   1.886  2.3537  0.5185  0.9507
  406MOL0     H56026   2.043  10.965   1.848 -1.5724 -2.3190  0.0209
  406MOL0     H56027   2.133  10.845   1.753 -1.9465  1.4916 -1.7456
  406MOL0     H56028   2.212  10.914   1.893 -1.3231 -1.6316  0.7607
  407MOL0     O56029   9.104  11.298   9.851 -0.4732 -0.3742 -0.5952
  407MOL0     C56030   9.069  11.291   9.970  0.6089  0.0021 -0.2005
  407MOL0     O56031   9.144  11.266  10.080  0.1336 -0.5030 -0.0843
  407MOL0     C56032   9.245  11.174  10.059 -1.3346  0.0355 -0.2612
  407MOL0     C56033   9.363  11.206  10.129 -0.4135  0.1682 -0.0063
  407MOL0     C56034   9.490  11.147  10.094  0.6182 -0.5776 -0.6266
  407MOL0     C56035   9.494  11.041  10.001 -0.7883 -0.6239 -0.2898
  407MOL0     O56036   9.614  10.976   9.984 -0.0524  0.0587 -1.1220
  407MOL0     C56037   9.609  10.839   9.935  0.3315 -0.1143  0.3269
  407MOL0     C56038   9.739  10.778   9.977 -0.6546 -1.3502  0.4619
  407MOL0     C56039   9.854  10.840   9.881 -0.2558  0.8426  0.4956
  407MOL0     C56040   9.994  10.826   9.932  0.2374  0.1693 -1.4755
  407MOL0     C56041  10.093  10.894   9.829  0.4030  0.6229  0.1711
  407MOL0     C56042  10.246  10.856   9.857  0.4412 -0.0091  0.2661
  407MOL0     C56043  10.354  10.939   9.792  0.9023 -0.2127 -0.1556
  407MOL0     C56044  10.483  10.858   9.754 -0.1084 -0.9841 -0.3852
  407MOL0     N56045  10.528  10.758   9.855 -0.3467 -0.0967 -0.4471
  407MOL0     C56046  10.608  10.790   9.966  0.2102  0.0573 -0.1761
  407MOL0     C56047  10.605  10.675  10.035 -0.1100 -0.0734 -0.3626
  407MOL0     C56048  10.662  10.652  10.172 -0.0727  0.1269 -0.8680
  407MOL0     C56049  10.806  10.598  10.168 -0.6148 -0.5074 -0.6226
  407MOL0     C56050  10.864  10.596  10.298 -1.0748  0.6414 -0.4581
  407MOL0     C56051  10.964  10.479  10.316 -0.2860  0.8702 -0.0951
  407MOL0     O56052  11.062  10.473  10.212  0.4478 -0.3735 -0.2308
  407MOL0     C56053  11.185  10.523  10.251 -0.2738 -0.1466  0.0308
  407MOL0     C56054  11.229  10.651  10.232 -0.3037 -0.4606  1.0805
  407MOL0     C56055  11.361  10.688  10.254 -0.0436 -0.3208 -0.2021
  407MOL0     C56056  11.420  10.815  10.208 -0.6178 -0.5798  0.3170
  407MOL0     C56057  11.439  10.600  10.334  0.7380 -0.1651  0.5250
  407MOL0     C56058  11.575  10.637  10.374  0.1348 -0.4867  0.1416
  407MOL0     O56059  11.571  10.722  10.482  0.3688  0.1948 -0.8979
  407MOL0     C56060  11.687  10.734  10.557 -0.0567 -0.6220 -0.8406
  407MOL0     C56061  11.803  10.799  10.513  0.1903  0.8760  0.1818
  407MOL0     C56062  11.919  10.803  10.594 -0.4045 -0.2067  0.0012
  407MOL0     C56063  11.927  10.747  10.729 -0.8796  0.6305  0.6020
  407MOL0     O56064  12.038  10.770  10.808  0.1674  0.1664 -0.6454
  407MOL0     C56065  12.048  10.721  10.946 -0.7115  0.1642  0.4417
  407MOL0     C56066  12.184  10.768  11.010  0.0974 -0.0088 -0.2754
  407MOL0     C56067  12.183  10.928  11.019 -0.3453 -0.0881 -0.1368
  407MOL0     C56068  12.238  11.000  10.901 -0.4355 -0.4929  1.1351
  407MOL0     C56069  12.145  11.124  10.854 -0.0885  0.6639  0.8814
  407MOL0     C56070  12.123  11.223  10.963 -0.8407  0.3187 -0.3225
  407MOL0     C56071  12.035  11.337  10.913 -0.6658  0.2298  0.5467
  407MOL0     C56072  11.882  11.310  10.909  0.7413  0.1002 -0.0045
  407MOL0    Cl56073  11.849  11.222  10.770 -0.5542 -0.0146  0.2436
  407MOL0     C56074  11.812  10.686  10.781  0.5306  0.2436 -0.4634
  407MOL0     C56075  11.701  10.674  10.689  0.0973  0.1832 -0.3869
  407MOL0     O56076  11.673  10.577  10.324 -0.0475  0.1997  0.4143
  407MOL0     C56077  11.390  10.470  10.366 -0.6846 -0.4542 -0.4613
  407MOL0     C56078  11.266  10.431  10.321 -0.2192  0.2212  0.4850
  407MOL0     N56079  10.540  10.574   9.964 -0.6191 -0.4354  0.5534
  407MOL0     N56080  10.490  10.626   9.859  0.1650 -0.1405 -0.4151
  407MOL0     C56081   9.376  11.002   9.940 -1.1097 -0.2482 -0.4419
  407MOL0     C56082   9.257  11.073   9.969 -0.3530 -0.1566  0.1195
  407MOL0     C56083   8.922  11.322   9.976 -0.7148 -0.1364 -0.3353
  407MOL0     C56084   8.856  11.387   9.866 -0.0717 -0.1992 -0.4761
  407MOL0     C56085   8.720  11.414   9.873  0.1562 -0.7738 -0.8667
  407MOL0     C56086   8.650  11.375   9.988 -0.3423  0.7817 -0.7404
  407MOL0     O56087   8.518  11.410   9.995  0.1640  0.2666 -0.1518
  407MOL0     C56088   8.428  11.391  10.114 -0.6336 -0.9745  0.1986
  407MOL0     C56089   8.281  11.385  10.068 -0.2638 -0.0771  0.4879
  407MOL0     C56090   8.269  11.262   9.974 -0.2974 -1.2596  0.2682
  407MOL0     C56091   8.113  11.242   9.943  0.4141 -0.6393  0.6725
  407MOL0     C56092   8.038  11.355   9.885  0.1837 -0.7022  0.6983
  407MOL0     C56093   7.984  11.447   9.828 -0.4784  0.1511 -0.5350
  407MOL0     C56094   8.715  11.318  10.090  0.8670 -0.3092  0.0998
  407MOL0     C56095   8.846  11.280  10.087 -0.0441  0.3805  0.3408
  407MOL0     C56096   8.901  11.203  10.207  0.2339  0.0474 -0.6231
  407MOL0     H56097   9.353  11.284  10.204 -2.1364 -0.7956  0.8290
  407MOL0     H56098   9.580  11.184  10.143 -1.0421  0.0704  2.2036
  407MOL0     H56099   9.606  10.847   9.826  0.6192  0.5135  0.3572
  407MOL0     H56100   9.534  10.769   9.973  0.8841 -0.8359  0.1063
  407MOL0     H56101   9.756  10.796  10.084 -1.2426  0.4951  0.2698
  407MOL0     H56102   9.729  10.669   9.972 -2.0787 -1.2878  1.3726
  407MOL0     H56103   9.858  10.795   9.781 -1.8221  2.1374 -0.1823
  407MOL0     H56104   9.850  10.948   9.867  3.4750  1.0911  0.2558
  407MOL0     H56105  10.001  10.879  10.027 -2.6561 -0.0501 -1.0578
  407MOL0     H56106  10.018  10.722   9.955  1.8088  1.2606  2.7246
  407MOL0     H56107  10.074  11.002   9.829  1.9328  0.9299 -1.2896
  407MOL0     H56108  10.073  10.860   9.727 -2.0314 -0.7618  1.0372
  407MOL0     H56109  10.261  10.846   9.965  0.6236  0.8871  0.3340
  407MOL0     H56110  10.256  10.755   9.816  1.2483 -0.3151  1.1976
  407MOL0     H56111  10.389  11.016   9.861  0.0917 -0.7688  0.9133
  407MOL0     H56112  10.315  10.988   9.702 -1.4414 -3.3407 -1.0296
  407MOL0     H56113  10.462  10.813   9.657 -0.4229  2.2395 -1.9492
  407MOL0     H56114  10.564  10.928   9.729 -0.6316  0.0980  0.8468
  407MOL0     H56115  10.641  10.885  10.006 -1.0213  0.3614  0.1652
  407MOL0     H56116  10.600  10.573  10.215  0.3310 -0.3817 -1.2176
  407MOL0     H56117  10.659  10.745  10.230  0.6805 -0.5432  0.2943
  407MOL0     H56118  10.796  10.497  10.127  0.5216 -0.9163  0.0796
  407MOL0     H56119  10.865  10.656  10.097  0.2748  0.3608  0.7826
  407MOL0     H56120  10.920  10.688  10.320  1.7403 -0.8750 -0.8147
  407MOL0     H56121  10.787  10.574  10.373 -1.7578 -2.9880 -2.0490
  407MOL0     H56122  11.013  10.482  10.414  3.2422  1.3266 -1.7546
  407MOL0     H56123  10.909  10.384  10.324  1.7418 -0.4809 -1.2028
  407MOL0     H56124  11.150  10.710  10.185  0.3450 -2.2123 -2.5525
  407MOL0     H56125  11.356  10.871  10.139  0.3733 -0.8923 -0.9202
  407MOL0     H56126  11.517  10.808  10.156  0.2006  2.9522  1.0858
  407MOL0     H56127  11.440  10.877  10.296 -2.0786 -0.6140  0.6998
  407MOL0     H56128  11.782  10.840  10.415 -2.4875  1.5594  0.9604
  407MOL0     H56129  12.004  10.856  10.554 -1.1908 -0.9163 -2.7921
  407MOL0     H56130  11.958  10.747  11.001 -1.7272 -0.2649 -0.9672
  407MOL0     H56131  12.059  10.615  10.923  1.1914  0.3500  0.3480
  407MOL0     H56132  12.195  10.720  11.108 -1.2263  2.1922  1.0323
  407MOL0     H56133  12.269  10.725  10.957  1.1436  1.6399 -0.0089
  407MOL0     H56134  12.237  10.957  11.110  0.4894  0.3920 -0.7682
  407MOL0     H56135  12.079  10.960  11.029 -0.9636  0.0382 -4.8598
  407MOL0     H56136  12.252  10.938  10.812 -5.1198 -1.2923  0.7359
  407MOL0     H56137  12.336  11.035  10.936  0.8978 -1.0795 -1.7059
  407MOL0     H56138  12.190  11.173  10.767 -0.8434  3.7882  2.1277
  407MOL0     H56139  12.048  11.080  10.831  1.0759 -2.8839  2.0137
  407MOL0     H56140  12.219  11.268  10.989 -1.8701  2.7164 -0.4064
  407MOL0     H56141  12.083  11.177  11.053  2.3770 -0.8275  0.6538
  407MOL0     H56142  12.079  11.367  10.818 -2.6273 -2.7441 -1.4647
  407MOL0     H56143  12.038  11.428  10.975  0.0255  0.6035 -0.0295
  407MOL0     H56144  11.818  11.398  10.917 -1.2089 -1.4311  2.1899
  407MOL0     H56145  11.853  11.253  10.997 -1.1747  2.7486  1.2087
  407MOL0     H56146  11.808  10.672  10.889 -1.2561 -0.7756 -0.6110
  407MOL0     H56147  11.616  10.620  10.730 -0.3288  0.7164 -0.5578
  407MOL0     H56148  11.445  10.391  10.415 -0.5688 -1.4946 -2.1582
  407MOL0     H56149  11.239  10.332  10.356 -0.1959 -0.0414 -0.2133
  407MOL0     H56150   9.374  10.910   9.883 -1.3229 -0.2348 -0.4568
  407MOL0     H56151   9.167  11.038   9.919 -0.4135  0.1231  0.0352
  407MOL0     H56152   8.905  11.418   9.774  3.5814 -3.2536  0.2006
  407MOL0     H56153   8.666  11.468   9.796  2.9773  2.2372 -0.9247
  407MOL0     H56154   8.452  11.293  10.158  0.4395 -0.2347  1.3455
  407MOL0     H56155   8.441  11.470  10.188  1.1244  0.9895 -2.0730
  407MOL0     H56156   8.255  11.474  10.010  0.0669 -0.0687  0.3465
  407MOL0     H56157   8.211  11.383  10.151  0.2891 -2.3268  0.9732
  407MOL0     H56158   8.327  11.289   9.885 -1.7541 -1.5670 -0.8188
  407MOL0     H56159   8.311  11.175  10.026  0.9631 -1.0220 -0.3299
  407MOL0     H56160   8.062  11.226  10.039 -0.0463  0.4580  0.6215
  407MOL0     H56161   8.089  11.147   9.895 -3.0246  0.5652 -0.2427
  407MOL0     H56162   7.944  11.531   9.774 -2.0348  0.0540  0.4177
  407MOL0     H56163   8.661  11.308  10.184  2.7330  0.4178  1.3099
  407MOL0     H56164   8.988  11.253  10.250  0.7257 -0.5976 -0.8488
  407MOL0     H56165   8.829  11.184  10.287 -1.0280  0.2590 -1.6714
  407MOL0     H56166   8.932  11.104  10.172 -0.1251 -0.0358 -0.7133
  408MOL0     O56167   7.996   0.353  11.414 -0.0841 -0.2531  0.9492
  408MOL0     C56168   8.024   0.439  11.493 -0.0714 -0.8438  0.0079
  408MOL0     O56169   8.133   0.516  11.482 -0.6303 -0.6431  0.3416
  408MOL0     C56170   8.231   0.469  11.409 -0.5715  0.3532  0.0076
  408MOL0     C56171   8.316   0.364  11.455 -0.8979  0.7778  0.8773
  408MOL0     C56172   8.414   0.314  11.365 -0.4378  0.0223 -0.6404
  408MOL0     C56173   8.436   0.378  11.236  0.2014  0.1107 -0.0913
  408MOL0     O56174   8.536   0.334  11.143  0.3443 -0.8768 -0.3672
  408MOL0     C56175   8.601   0.211  11.179 -0.0745  0.2253 -0.1548
  408MOL0     C56176   8.686   0.156  11.065  1.2950 -0.0290 -0.2931
  408MOL0     C56177   8.606   0.088  10.956 -0.2657 -0.0490  0.6928
  408MOL0     C56178   8.686  -0.015  10.875  0.7434 -0.7479 -0.4201
  408MOL0     C56179   8.603  -0.091  10.777  0.3896  0.4560 -0.5270
  408MOL0     C56180   8.689  -0.181  10.698 -1.0481  0.4390 -0.8542
  408MOL0     C56181   8.612  -0.268  10.592 -0.1231 -0.4009  0.3158
  408MOL0     C56182   8.505  -0.359  10.650 -0.0594 -0.8591  0.0883
  408MOL0     N56183   8.446  -0.438  10.538 -0.4388  0.4167  0.1449
  408MOL0     C56184   8.506  -0.532  10.458 -0.6194 -0.3056 -0.6573
  408MOL0     C56185   8.416  -0.558  10.370  0.4150  0.5576  0.4749
  408MOL0     C56186   8.439  -0.664  10.270 -0.2706 -0.4206  0.6801
  408MOL0     C56187   8.509  -0.600  10.146  0.1642  1.0329 -0.4106
  408MOL0     C56188   8.512  -0.689  10.018  0.5303 -0.3904 -1.3395
  408MOL0     C56189   8.590  -0.640   9.907  0.5423 -0.5524 -0.7353
  408MOL0     O56190   8.728  -0.662   9.941 -0.3804 -0.3312  0.0332
  408MOL0     C56191   8.803  -0.701   9.831 -0.1639  0.2202 -0.3404
  408MOL0     C56192   8.891  -0.602   9.788 -0.3302 -0.5870  0.1176
  408MOL0     C56193   8.983  -0.633   9.677 -0.1247 -0.5297 -0.1054
  408MOL0     C56194   9.092  -0.528   9.632  0.2916  0.2325  0.3944
  408MOL0     C56195   8.967  -0.760   9.620 -0.4497 -0.0859 -0.1647
  408MOL0     C56196   9.072  -0.812   9.526  0.0749  0.3913  0.3057
  408MOL0     O56197   9.020  -0.895   9.425 -0.0971 -0.9048  0.4670
  408MOL0     C56198   9.115  -0.982   9.368 -0.2144  0.2124 -0.7648
  408MOL0     C56199   9.161  -0.957   9.243  0.1564  0.4860  0.0863
  408MOL0     C56200   9.258  -1.031   9.192 -0.2806  0.1204  0.9165
  408MOL0     C56201   9.311  -1.140   9.258  0.2271 -0.1238  0.2666
  408MOL0     O56202   9.411  -1.209   9.194 -0.2003 -0.4887  0.4235
  408MOL0     C56203   9.481  -1.304   9.262 -0.2990  0.1954 -0.6353
  408MOL0     C56204   9.559  -1.379   9.162 -0.3231  0.6646 -0.3554
  408MOL0     C56205   9.476  -1.434   9.042 -1.1065  0.3945 -0.2170
  408MOL0     C56206   9.560  -1.544   8.969  0.2912 -0.6002  0.2725
  408MOL0     C56207   9.502  -1.605   8.840 -0.1895  0.4188 -1.1215
  408MOL0     C56208   9.372  -1.686   8.867 -0.4726  0.1788  0.0568
  408MOL0     C56209   9.389  -1.790   8.976  0.6361 -0.0106  1.1599
  408MOL0     C56210   9.262  -1.877   8.973 -0.0449 -0.5482  0.1471
  408MOL0    Cl56211   9.230  -1.995   8.838  0.4219 -0.4013 -0.3400
  408MOL0     C56212   9.269  -1.163   9.389 -0.8226  0.6960  0.7006
  408MOL0     C56213   9.169  -1.088   9.448 -0.0735  0.2314  0.3821
  408MOL0     O56214   9.197  -0.792   9.537  0.3913  0.3195  0.5582
  408MOL0     C56215   8.869  -0.851   9.657 -0.0116 -0.8855 -0.1056
  408MOL0     C56216   8.787  -0.816   9.769  1.2667  0.1443  0.4247
  408MOL0     N56217   8.319  -0.464  10.360  0.2116 -0.8378  0.1726
  408MOL0     N56218   8.336  -0.393  10.473 -0.4230 -0.2167 -0.2016
  408MOL0     C56219   8.363   0.492  11.215  0.1573 -0.1092 -0.8464
  408MOL0     C56220   8.258   0.530  11.289  0.2788  0.3931 -0.3887
  408MOL0     C56221   7.929   0.494  11.581 -0.2850 -0.0472  0.6131
  408MOL0     C56222   7.969   0.593  11.680  0.2141 -0.3964  1.3684
  408MOL0     C56223   7.878   0.656  11.762  0.5832  0.5271  0.4613
  408MOL0     C56224   7.744   0.622  11.749 -0.0956  0.1621 -0.0703
  408MOL0     O56225   7.642   0.667  11.836  0.5258 -0.1151 -0.5690
  408MOL0     C56226   7.577   0.793  11.791  0.2275  0.0171  0.0049
  408MOL0     C56227   7.424   0.776  11.778 -0.4997  0.1185 -0.3551
  408MOL0     C56228   7.369   0.718  11.912 -0.0561 -0.3427  0.6558
  408MOL0     C56229   7.219   0.697  11.903 -0.2065  0.5170 -0.1707
  408MOL0     C56230   7.165   0.667  12.038  0.0437  0.0054  0.1547
  408MOL0     C56231   7.121   0.650  12.147  0.3157  0.4881  0.9721
  408MOL0     C56232   7.709   0.511  11.671 -0.8008  0.6659  0.6995
  408MOL0     C56233   7.791   0.452  11.577 -0.1797  0.3602 -0.1118
  408MOL0     C56234   7.735   0.345  11.490  0.0091 -0.3224  0.4705
  408MOL0     H56235   8.307   0.303  11.544  0.8311 -0.9921 -0.0954
  408MOL0     H56236   8.470   0.228  11.401  1.7431  1.8793  0.6961
  408MOL0     H56237   8.533   0.131  11.209 -0.0922  0.2297 -0.1831
  408MOL0     H56238   8.670   0.232  11.261  1.4691  2.5435 -1.8964
  408MOL0     H56239   8.742   0.238  11.021  1.4126  0.9009  1.4959
  408MOL0     H56240   8.757   0.084  11.108  2.2639 -0.5393 -2.6248
  408MOL0     H56241   8.518   0.035  10.993 -0.3330  1.1848  2.4707
  408MOL0     H56242   8.564   0.169  10.896  1.9268 -1.4122 -3.0210
  408MOL0     H56243   8.763   0.038  10.819 -0.1841  0.1447 -0.8872
  408MOL0     H56244   8.729  -0.088  10.944 -0.2380 -2.5687 -1.6441
  408MOL0     H56245   8.539  -0.028  10.715 -3.1447 -1.5080  0.8025
  408MOL0     H56246   8.536  -0.160  10.830 -0.6823 -0.3288 -2.7916
  408MOL0     H56247   8.758  -0.115  10.645 -0.9048 -0.3279 -1.6395
  408MOL0     H56248   8.747  -0.243  10.768  2.0053  0.9111 -2.7773
  408MOL0     H56249   8.679  -0.326  10.528 -1.3727 -0.8785 -0.6167
  408MOL0     H56250   8.567  -0.200  10.519 -0.2138 -0.1492  0.6013
  408MOL0     H56251   8.539  -0.415  10.737  2.6380  0.6622  0.1032
  408MOL0     H56252   8.419  -0.301  10.685  1.2062  2.0360 -1.2484
  408MOL0     H56253   8.595  -0.590  10.480 -0.7587 -0.9460 -1.7046
  408MOL0     H56254   8.337  -0.698  10.250 -0.8977 -1.4280  4.6424
  408MOL0     H56255   8.481  -0.754  10.316  1.9952 -0.3504 -1.1091
  408MOL0     H56256   8.459  -0.505  10.123  0.4509  1.2545 -0.1252
  408MOL0     H56257   8.612  -0.575  10.174  1.5391 -0.5443 -3.6149
  408MOL0     H56258   8.532  -0.795  10.037 -0.0149 -0.4477 -1.0804
  408MOL0     H56259   8.406  -0.691   9.990 -0.1998  0.6345  1.0957
  408MOL0     H56260   8.557  -0.689   9.814  1.2762  0.2712 -1.4460
  408MOL0     H56261   8.577  -0.532   9.897  2.2828  0.0044  2.0390
  408MOL0     H56262   8.900  -0.502   9.828 -1.1854 -1.1049  1.6410
  408MOL0     H56263   9.115  -0.525   9.525 -0.3728 -0.5101  0.2225
  408MOL0     H56264   9.178  -0.546   9.697  0.3952 -1.1394 -0.1072
  408MOL0     H56265   9.062  -0.424   9.652  2.3158  1.4079 -2.1031
  408MOL0     H56266   9.120  -0.868   9.196 -1.5073  0.1830  0.8904
  408MOL0     H56267   9.306  -0.999   9.100 -1.1247  4.7433  1.8429
  408MOL0     H56268   9.531  -1.260   9.349 -0.0860  0.3663 -0.8429
  408MOL0     H56269   9.405  -1.374   9.298 -2.5880  2.6439 -0.3975
  408MOL0     H56270   9.645  -1.321   9.127  0.5721 -1.1316 -1.2757
  408MOL0     H56271   9.598  -1.466   9.216  1.1379  2.0006  0.8474
  408MOL0     H56272   9.446  -1.360   8.968 -1.0919  1.4066  0.7731
  408MOL0     H56273   9.388  -1.493   9.071 -2.0833  0.8476 -2.1118
  408MOL0     H56274   9.575  -1.628   9.037 -0.2660  0.6184  1.9849
  408MOL0     H56275   9.652  -1.485   8.963  0.8000 -0.6656  4.3825
  408MOL0     H56276   9.484  -1.524   8.769 -1.5333  0.8229 -0.3515
  408MOL0     H56277   9.582  -1.668   8.800  2.1865  2.4330  0.1503
  408MOL0     H56278   9.337  -1.746   8.782 -3.1481 -0.2224  1.3482
  408MOL0     H56279   9.291  -1.614   8.882 -0.4190  0.4583 -0.9048
  408MOL0     H56280   9.402  -1.746   9.075 -0.9108  1.7043  0.6394
  408MOL0     H56281   9.476  -1.851   8.950  1.4264  0.9854  1.4427
  408MOL0     H56282   9.175  -1.811   8.985  0.8294  0.6664 -0.0088
  408MOL0     H56283   9.261  -1.930   9.069 -0.6558  1.6051  1.4047
  408MOL0     H56284   9.316  -1.245   9.442  0.8022  0.8170 -0.4994
  408MOL0     H56285   9.144  -1.123   9.548  1.6299 -1.8229  0.1739
  408MOL0     H56286   8.875  -0.948   9.609  3.0253  0.1042 -2.0157
  408MOL0     H56287   8.711  -0.887   9.801  0.6795  1.2215  1.4938
  408MOL0     H56288   8.385   0.540  11.120  1.7433 -1.8581 -1.4410
  408MOL0     H56289   8.196   0.612  11.256 -0.2793  0.3975  0.6295
  408MOL0     H56290   8.074   0.621  11.690 -0.0321  1.7626 -1.1175
  408MOL0     H56291   7.898   0.745  11.821  2.1171  2.6794 -2.9726
  408MOL0     H56292   7.591   0.863  11.874 -3.5043  1.4026 -0.3665
  408MOL0     H56293   7.636   0.823  11.704 -1.2431 -0.9905 -1.4126
  408MOL0     H56294   7.414   0.700  11.700  2.1193 -0.6396 -0.0712
  408MOL0     H56295   7.378   0.870  11.748 -1.4523  0.2696  1.4371
  408MOL0     H56296   7.415   0.629  11.956 -1.0173  0.5493  3.7825
  408MOL0     H56297   7.392   0.795  11.987 -0.6236 -2.3778  3.0612
  408MOL0     H56298   7.201   0.614  11.834  0.8188 -1.7680  2.1562
  408MOL0     H56299   7.169   0.783  11.856  0.8773  1.4874  0.4112
  408MOL0     H56300   7.102   0.650  12.253  0.0138 -1.6554  0.9628
  408MOL0     H56301   7.609   0.475  11.690  0.1292 -1.1804  2.5127
  408MOL0     H56302   7.778   0.246  11.510  0.8164 -0.6252 -2.3181
  408MOL0     H56303   7.629   0.333  11.514 -0.4837 -0.8421 -1.7365
  408MOL0     H56304   7.751   0.372  11.385 -0.9449  2.8901  1.0576
  409MOL0     O56305   3.946   5.990   6.950  0.0446  0.1659  0.6901
  409MOL0     C56306   4.009   6.043   7.044 -0.4547 -0.3668  0.0214
  409MOL0     O56307   3.981   6.167   7.099 -0.1810 -0.4891 -0.2685
  409MOL0     C56308   3.900   6.234   7.026 -0.3384  0.3195 -0.3483
  409MOL0     C56309   3.957   6.312   6.920 -1.2068  0.1539 -0.0657
  409MOL0     C56310   3.880   6.397   6.839 -0.3923 -0.3472 -0.7190
  409MOL0     C56311   3.746   6.416   6.864  0.0680  0.0384  0.3704
  409MOL0     O56312   3.665   6.508   6.801 -0.1390  0.3571 -0.8001
  409MOL0     C56313   3.687   6.520   6.660 -0.8506 -0.2539  0.2456
  409MOL0     C56314   3.593   6.625   6.605  0.0601 -0.0861  0.0988
  409MOL0     C56315   3.450   6.563   6.575 -0.4065 -0.0742  1.1493
  409MOL0     C56316   3.337   6.665   6.560 -0.8375  0.4861  1.2398
  409MOL0     C56317   3.375   6.758   6.443  0.1429  0.0632 -0.0750
  409MOL0     C56318   3.271   6.872   6.437 -0.5947  0.5101 -0.4122
  409MOL0     C56319   3.280   6.981   6.334  0.0905  0.0376  0.3778
  409MOL0     C56320   3.222   6.926   6.197  0.5553 -0.1763 -0.2073
  409MOL0     N56321   3.249   7.020   6.086 -0.0322 -0.5764 -0.0796
  409MOL0     C56322   3.165   7.127   6.068  0.1369 -0.2104 -1.0584
  409MOL0     C56323   3.203   7.189   5.951 -0.0070  0.1879 -0.0008
  409MOL0     C56324   3.133   7.308   5.886  0.1946 -0.0738 -0.1098
  409MOL0     C56325   3.199   7.438   5.927 -0.7401  0.0422 -0.2895
  409MOL0     C56326   3.156   7.553   5.839  0.3835 -0.1999 -0.0091
  409MOL0     C56327   3.196   7.557   5.694  0.4042 -0.0328  0.6338
  409MOL0     O56328   3.340   7.576   5.697 -0.0672 -0.0058  0.6844
  409MOL0     C56329   3.405   7.608   5.576  0.2914  1.1259  0.7425
  409MOL0     C56330   3.336   7.649   5.463  0.0694 -0.1108  0.7653
  409MOL0     C56331   3.407   7.682   5.341  0.7328  0.2903  0.0978
  409MOL0     C56332   3.315   7.703   5.222 -0.9507 -0.2006  0.4315
  409MOL0     C56333   3.552   7.698   5.340  0.7811 -0.6365 -1.0904
  409MOL0     C56334   3.632   7.721   5.224 -0.2478  0.5172  0.0305
  409MOL0     O56335   3.750   7.652   5.212 -0.1605 -0.7943 -0.1183
  409MOL0     C56336   3.826   7.664   5.093 -0.6198  0.8527 -1.0995
  409MOL0     C56337   3.864   7.539   5.042 -0.1197  1.1719  0.1609
  409MOL0     C56338   3.946   7.542   4.927 -0.4613  0.8418 -0.3438
  409MOL0     C56339   4.006   7.662   4.869 -0.5405  0.1725 -1.4013
  409MOL0     O56340   4.086   7.650   4.762  0.2389 -0.7191 -0.0575
  409MOL0     C56341   4.140   7.773   4.707  0.4410 -0.4682  0.8683
  409MOL0     C56342   4.247   7.742   4.605  0.2301 -0.4001  0.1561
  409MOL0     C56343   4.193   7.726   4.461  0.4714 -0.6571 -0.1846
  409MOL0     C56344   4.310   7.719   4.358 -0.3944  0.0488  0.2316
  409MOL0     C56345   4.264   7.714   4.215 -0.2591 -0.0033 -0.1517
  409MOL0     C56346   4.380   7.723   4.111 -0.1663  1.3743 -0.4680
  409MOL0     C56347   4.317   7.747   3.974 -0.0095  1.1945 -0.4668
  409MOL0     C56348   4.410   7.711   3.860 -0.2412  0.9414  0.2158
  409MOL0    Cl56349   4.459   7.536   3.868  0.7829 -0.6690 -0.3070
  409MOL0     C56350   3.958   7.785   4.930  1.1134  0.1131  0.2107
  409MOL0     C56351   3.864   7.786   5.038  0.1277  0.5430  0.3334
  409MOL0     O56352   3.588   7.799   5.145  0.5982 -0.2928 -0.2315
  409MOL0     C56353   3.616   7.660   5.464  0.4978  0.3364 -0.2052
  409MOL0     C56354   3.543   7.617   5.574 -0.1236 -1.0091 -0.3646
  409MOL0     N56355   3.317   7.115   5.905 -0.0286 -0.1173  0.0701
  409MOL0     N56356   3.341   7.017   5.992  0.1726 -0.3273 -0.3964
  409MOL0     C56357   3.684   6.345   6.968  0.0139 -0.5541  0.1207
  409MOL0     C56358   3.755   6.247   7.039  0.6646  0.2888 -0.2155
  409MOL0     C56359   4.120   5.960   7.095 -0.1818  0.3549 -0.3393
  409MOL0     C56360   4.156   5.978   7.230 -0.1999  0.3491 -0.8393
  409MOL0     C56361   4.257   5.902   7.283  0.5166 -0.4627 -0.5436
  409MOL0     C56362   4.321   5.810   7.212 -0.2826  0.4866 -0.2856
  409MOL0     O56363   4.415   5.744   7.290  0.3527  0.2461 -0.1424
  409MOL0     C56364   4.495   5.641   7.231  0.0823  0.5562  0.2242
  409MOL0     C56365   4.600   5.575   7.324 -0.6771 -0.3640  0.2180
  409MOL0     C56366   4.674   5.685   7.403 -0.0774 -0.4035  0.1459
  409MOL0     C56367   4.821   5.647   7.428  0.8424  0.1834 -0.3442
  409MOL0     C56368   4.886   5.726   7.538 -0.8800 -0.3549 -0.4404
  409MOL0     C56369   4.934   5.809   7.618 -0.9888  0.4572  0.4645
  409MOL0     C56370   4.299   5.793   7.078  0.7206 -0.8279 -0.4700
  409MOL0     C56371   4.193   5.866   7.013 -0.8060 -0.3711  0.1734
  409MOL0     C56372   4.174   5.846   6.863 -0.5604  0.0375  0.7274
  409MOL0     H56373   4.058   6.285   6.891 -0.9869  0.0002  0.8130
  409MOL0     H56374   3.930   6.463   6.769  1.5139  0.7935  1.5662
  409MOL0     H56375   3.668   6.423   6.613 -1.2689 -1.1787  2.1942
  409MOL0     H56376   3.790   6.552   6.643 -0.6119 -0.3605  1.4050
  409MOL0     H56377   3.591   6.712   6.672  0.9434  0.0902 -0.0920
  409MOL0     H56378   3.640   6.660   6.513  3.6437 -2.9965  0.5828
  409MOL0     H56379   3.466   6.502   6.486  0.3642 -0.8642  1.8116
  409MOL0     H56380   3.427   6.498   6.660  2.2609 -4.2679 -0.9938
  409MOL0     H56381   3.249   6.604   6.536  0.6907 -1.0435 -0.8036
  409MOL0     H56382   3.319   6.721   6.653  0.4460  3.1040  0.0073
  409MOL0     H56383   3.370   6.705   6.348  1.6359 -0.4672  0.1172
  409MOL0     H56384   3.472   6.804   6.465  1.5122 -3.2337  1.3863
  409MOL0     H56385   3.169   6.833   6.425 -0.2878  0.2093 -2.3992
  409MOL0     H56386   3.285   6.923   6.532  1.1075  1.2023 -0.9890
  409MOL0     H56387   3.384   7.009   6.319  0.3253 -1.5671 -1.4182
  409MOL0     H56388   3.227   7.068   6.374 -0.6552 -0.0842 -0.3141
  409MOL0     H56389   3.253   6.823   6.177 -0.4935 -0.2764 -1.4126
  409MOL0     H56390   3.115   6.907   6.204  1.1459 -4.0122  0.3170
  409MOL0     H56391   3.078   7.154   6.127  1.5911 -1.7329  1.9824
  409MOL0     H56392   3.027   7.309   5.913  1.3756  0.6787  5.9497
  409MOL0     H56393   3.147   7.296   5.778  0.0470 -1.1989 -0.0174
  409MOL0     H56394   3.173   7.455   6.032  5.9059  0.2710  1.8126
  409MOL0     H56395   3.308   7.431   5.927 -0.6434  1.2340  0.6292
  409MOL0     H56396   3.047   7.556   5.848  0.1604  0.9763 -2.3799
  409MOL0     H56397   3.187   7.647   5.886 -1.6552  1.3128 -1.5287
  409MOL0     H56398   3.162   7.463   5.650 -2.1974  1.0995  0.0102
  409MOL0     H56399   3.136   7.645   5.666 -0.3244 -0.9988 -1.0148
  409MOL0     H56400   3.228   7.652   5.451  0.1581  0.7722  0.1083
  409MOL0     H56401   3.271   7.803   5.222 -3.7254 -1.2734  3.2261
  409MOL0     H56402   3.237   7.627   5.230 -0.2361 -0.8548  1.4444
  409MOL0     H56403   3.365   7.671   5.129 -3.9942 -1.3344 -0.9357
  409MOL0     H56404   3.827   7.452   5.096 -4.1963  2.4121 -0.3148
  409MOL0     H56405   3.991   7.451   4.891  0.7523 -0.0801  3.1786
  409MOL0     H56406   4.058   7.820   4.650 -2.2741 -1.9627  3.2846
  409MOL0     H56407   4.181   7.837   4.786 -0.6307 -0.3567  1.3595
  409MOL0     H56408   4.326   7.818   4.599 -0.0001 -0.2816 -3.0666
  409MOL0     H56409   4.292   7.649   4.639  0.0080 -0.0304  1.5133
  409MOL0     H56410   4.121   7.806   4.439  0.9895  1.0282  3.5658
  409MOL0     H56411   4.151   7.625   4.454  0.8246 -0.7590 -0.8661
  409MOL0     H56412   4.372   7.632   4.379  1.6388  0.9537 -1.6537
  409MOL0     H56413   4.365   7.813   4.371 -1.1640  0.2580  2.6351
  409MOL0     H56414   4.205   7.623   4.198 -1.7955 -0.0738  4.2146
  409MOL0     H56415   4.197   7.800   4.208 -0.4415 -0.1219  0.1050
  409MOL0     H56416   4.445   7.635   4.119 -6.0847 -3.4851  2.4591
  409MOL0     H56417   4.436   7.809   4.149 -2.2796  1.9731  1.5400
  409MOL0     H56418   4.295   7.853   3.963 -1.6918  0.9235 -0.0024
  409MOL0     H56419   4.218   7.701   3.970 -0.9460  3.2036 -1.7016
  409MOL0     H56420   4.502   7.770   3.853  1.1580 -1.0293  1.1113
  409MOL0     H56421   4.350   7.713   3.769 -1.3432  0.0802  0.8881
  409MOL0     H56422   3.989   7.885   4.900  0.7752  0.1147 -0.1484
  409MOL0     H56423   3.824   7.881   5.074 -5.7437 -1.2699 -0.4386
  409MOL0     H56424   3.724   7.662   5.475  0.1735  0.5469  5.3161
  409MOL0     H56425   3.585   7.592   5.671  0.5807  1.6571  0.0814
  409MOL0     H56426   3.576   6.354   6.977 -0.1544 -1.4996 -0.7266
  409MOL0     H56427   3.705   6.176   7.104 -3.4141  0.1721 -3.0873
  409MOL0     H56428   4.117   6.055   7.295 -0.6102 -1.3493  1.0098
  409MOL0     H56429   4.286   5.929   7.385  1.3490  0.1043 -0.9211
  409MOL0     H56430   4.426   5.574   7.180 -1.4916  3.3134 -1.5132
  409MOL0     H56431   4.549   5.681   7.145  2.5194 -0.2943  1.2903
  409MOL0     H56432   4.679   5.524   7.268 -1.9834 -1.0271 -1.0970
  409MOL0     H56433   4.548   5.511   7.396  0.2178 -1.8396 -0.4045
  409MOL0     H56434   4.661   5.790   7.374  0.6247  0.0868  1.5143
  409MOL0     H56435   4.614   5.688   7.494 -0.4823 -0.1139 -0.1301
  409MOL0     H56436   4.882   5.653   7.337  0.9205 -1.1341 -0.3928
  409MOL0     H56437   4.817   5.543   7.460  1.0066  0.9695  2.4572
  409MOL0     H56438   4.984   5.879   7.683 -0.5994 -1.8395  2.8041
  409MOL0     H56439   4.363   5.724   7.024  1.6444 -0.8076  0.5459
  409MOL0     H56440   4.082   5.793   6.838 -2.3666  2.4286  1.9280
  409MOL0     H56441   4.167   5.948   6.824  0.9929 -0.5189 -1.1250
  409MOL0     H56442   4.263   5.793   6.829 -1.0014 -0.5099  0.4026
  410MOL0     O56443   8.790   0.583   8.746  0.0438 -0.0251 -0.1867
  410MOL0     C56444   8.908   0.603   8.700 -0.1599 -0.2799 -0.0825
  410MOL0     O56445   8.942   0.624   8.568 -0.3496  0.4881  0.1749
  410MOL0     C56446   8.862   0.692   8.474  0.4851  0.1945 -0.1065
  410MOL0     C56447   8.910   0.729   8.348 -0.2716  0.4519 -0.1924
  410MOL0     C56448   8.840   0.804   8.254 -1.2138  0.9744 -0.0224
  410MOL0     C56449   8.714   0.866   8.288 -0.0935  0.7002  0.5338
  410MOL0     O56450   8.637   0.936   8.203 -0.4396  0.2867 -0.1401
  410MOL0     C56451   8.574   1.051   8.257  0.9244  0.4588  0.2239
  410MOL0     C56452   8.526   1.145   8.156  0.4380 -0.2978  0.2774
  410MOL0     C56453   8.633   1.196   8.059  0.4274  1.0966 -0.1670
  410MOL0     C56454   8.763   1.253   8.114 -0.6831  0.0661 -0.1250
  410MOL0     C56455   8.739   1.362   8.219 -0.3473  0.4731  0.2943
  410MOL0     C56456   8.868   1.429   8.266  0.3030 -0.5137 -0.3526
  410MOL0     C56457   8.929   1.539   8.176 -0.0321  0.3160 -0.4289
  410MOL0     C56458   8.868   1.669   8.214 -0.2266 -0.4719  0.1145
  410MOL0     N56459   8.911   1.778   8.125 -0.0537 -0.4126 -0.1849
  410MOL0     C56460   9.000   1.886   8.157  0.2009 -0.5038 -0.6599
  410MOL0     C56461   9.032   1.963   8.051 -0.6557 -0.2715  0.5405
  410MOL0     C56462   9.143   2.064   8.034 -0.4169  0.5800 -0.2529
  410MOL0     C56463   9.135   2.170   8.140 -1.2241  0.9783 -0.6019
  410MOL0     C56464   9.232   2.288   8.088 -0.1889 -0.0011 -0.6201
  410MOL0     C56465   9.373   2.236   8.097 -0.2377 -0.2794 -0.9953
  410MOL0     O56466   9.460   2.325   8.164  0.5254  0.1316 -0.1576
  410MOL0     C56467   9.502   2.439   8.090  0.1266  0.5661 -0.9481
  410MOL0     C56468   9.541   2.427   7.955 -0.2135  0.3102  0.6789
  410MOL0     C56469   9.573   2.537   7.877 -0.5135  0.9010 -0.1706
  410MOL0     C56470   9.601   2.510   7.735 -0.2498 -0.6634  0.0582
  410MOL0     C56471   9.584   2.668   7.935 -0.4372  0.3483  0.0280
  410MOL0     C56472   9.625   2.792   7.867 -0.4352  0.3066  0.1710
  410MOL0     O56473   9.604   2.913   7.933 -0.2148  0.3355 -0.4603
  410MOL0     C56474   9.664   3.032   7.898  0.2102  0.3996  0.1489
  410MOL0     C56475   9.689   3.126   7.995 -0.3992  0.3019 -0.1031
  410MOL0     C56476   9.743   3.250   7.955 -0.4149  0.6726  0.2487
  410MOL0     C56477   9.780   3.274   7.818 -0.0582  0.2342 -0.4284
  410MOL0     O56478   9.847   3.381   7.773 -0.3931  0.7715 -0.7486
  410MOL0     C56479   9.775   3.500   7.746 -0.8617  0.4932  1.1677
  410MOL0     C56480   9.855   3.626   7.717  0.4100 -0.0055 -0.3961
  410MOL0     C56481   9.915   3.685   7.849  0.2053 -0.0708 -0.6184
  410MOL0     C56482  10.046   3.619   7.896  0.3894  0.0004  0.2268
  410MOL0     C56483  10.142   3.718   7.966  0.0926  0.2179  0.5430
  410MOL0     C56484  10.229   3.796   7.868  0.0845  0.0037  0.3527
  410MOL0     C56485  10.264   3.936   7.923  0.3064 -0.1201 -0.3353
  410MOL0     C56486  10.378   3.992   7.849 -0.3631 -0.5719  0.4029
  410MOL0    Cl56487  10.442   4.140   7.917 -0.0774  0.1602 -0.1136
  410MOL0     C56488   9.754   3.177   7.729  0.7542  0.3628 -0.2685
  410MOL0     C56489   9.698   3.052   7.761  0.4756  0.1349 -0.5808
  410MOL0     O56490   9.683   2.780   7.758 -0.0608 -0.1337 -0.2231
  410MOL0     C56491   9.572   2.676   8.079 -0.3614  0.4594 -1.3325
  410MOL0     C56492   9.527   2.561   8.152  0.0004 -0.6727 -0.0164
  410MOL0     N56493   8.949   1.908   7.950 -0.8262 -0.6625 -0.9583
  410MOL0     N56494   8.872   1.810   8.005  0.2599 -0.1943 -0.1535
  410MOL0     C56495   8.670   0.842   8.413 -0.7708 -0.0319 -1.0794
  410MOL0     C56496   8.738   0.752   8.499 -0.0223  0.6562 -0.0709
  410MOL0     C56497   9.022   0.582   8.796 -0.6465  0.3979 -0.5577
  410MOL0     C56498   9.117   0.685   8.796 -1.1078  0.3447 -0.4934
  410MOL0     C56499   9.234   0.667   8.871  0.1600 -0.1540  0.3508
  410MOL0     C56500   9.242   0.558   8.961 -0.1576 -0.4062  0.7180
  410MOL0     O56501   9.352   0.561   9.042 -0.1806 -0.9250  0.0898
  410MOL0     C56502   9.454   0.460   9.020 -0.8015  0.3539  0.0046
  410MOL0     C56503   9.419   0.337   9.108 -0.3063 -1.1765  0.5039
  410MOL0     C56504   9.356   0.357   9.250 -0.0418  0.1425  0.3741
  410MOL0     C56505   9.441   0.400   9.369  0.0888 -0.2479  0.2788
  410MOL0     C56506   9.481   0.540   9.353 -0.2992 -0.6953  0.4126
  410MOL0     C56507   9.506   0.659   9.348 -0.8177  0.4323  0.2507
  410MOL0     C56508   9.146   0.460   8.966 -0.1309  0.3172 -0.1739
  410MOL0     C56509   9.035   0.476   8.892  0.6005 -0.2533  0.3537
  410MOL0     C56510   8.932   0.362   8.890  0.4564  1.2217  0.6206
  410MOL0     H56511   9.009   0.696   8.316 -0.1104 -0.2105  0.9264
  410MOL0     H56512   8.880   0.816   8.154  0.7351 -0.1543  0.5601
  410MOL0     H56513   8.645   1.099   8.325  0.0127  2.2920 -0.0661
  410MOL0     H56514   8.490   1.032   8.325  0.5704  2.0125  0.2442
  410MOL0     H56515   8.445   1.096   8.101  1.0471  0.6872 -1.5598
  410MOL0     H56516   8.473   1.224   8.210  2.3159 -1.0451  3.5019
  410MOL0     H56517   8.653   1.107   7.999 -1.3094 -1.3647  2.6119
  410MOL0     H56518   8.589   1.267   7.988  1.9986  1.3431 -0.9208
  410MOL0     H56519   8.811   1.170   8.168 -2.1021 -1.5944 -1.2745
  410MOL0     H56520   8.815   1.296   8.028 -1.0863 -0.2337 -0.5261
  410MOL0     H56521   8.704   1.304   8.305 -1.9323 -0.2357 -0.7775
  410MOL0     H56522   8.659   1.427   8.182 -1.0218 -1.4723 -1.9579
  410MOL0     H56523   8.851   1.471   8.365 -1.7861  0.7062 -1.1536
  410MOL0     H56524   8.941   1.347   8.266 -0.1542 -0.9304 -0.7302
  410MOL0     H56525   8.905   1.531   8.070 -1.1231  3.2100 -0.4632
  410MOL0     H56526   9.037   1.524   8.187 -0.3258 -2.6352 -0.6474
  410MOL0     H56527   8.760   1.653   8.204 -0.1220 -2.3503  1.5306
  410MOL0     H56528   8.893   1.686   8.319  0.3736 -0.2108 -0.0707
  410MOL0     H56529   9.026   1.906   8.260 -0.1488 -0.2722 -0.6151
  410MOL0     H56530   9.149   2.103   7.932 -0.7769  3.0549  0.6092
  410MOL0     H56531   9.229   1.997   8.031 -2.4867 -2.2929 -0.4445
  410MOL0     H56532   9.032   2.206   8.142 -0.7704  2.3229 -0.6993
  410MOL0     H56533   9.157   2.135   8.241 -0.3870  2.8063 -0.1178
  410MOL0     H56534   9.197   2.337   7.996 -2.5843 -1.2447 -0.4475
  410MOL0     H56535   9.233   2.366   8.164 -0.8888  1.5974 -2.1615
  410MOL0     H56536   9.383   2.146   8.159 -1.8370  0.6200  0.6677
  410MOL0     H56537   9.415   2.220   7.997  2.8313 -2.0928  0.4401
  410MOL0     H56538   9.544   2.328   7.910 -1.2275 -0.7426  2.7766
  410MOL0     H56539   9.561   2.584   7.665  2.0231 -1.1173 -1.8475
  410MOL0     H56540   9.559   2.412   7.712 -0.5207 -1.0940  2.1802
  410MOL0     H56541   9.710   2.499   7.736 -0.1348  0.3661  0.2563
  410MOL0     H56542   9.652   3.115   8.097 -3.3838  0.0675 -1.1352
  410MOL0     H56543   9.754   3.326   8.032 -0.0246  0.2527  0.6165
  410MOL0     H56544   9.726   3.475   7.652 -0.2860 -2.8758  1.6317
  410MOL0     H56545   9.698   3.525   7.820  0.1468  1.2794  1.9852
  410MOL0     H56546   9.939   3.616   7.648 -0.3712  2.5865 -1.8422
  410MOL0     H56547   9.787   3.701   7.677  0.4851 -0.2293 -0.9433
  410MOL0     H56548   9.837   3.676   7.924 -0.9138  1.9481 -1.4447
  410MOL0     H56549   9.937   3.790   7.824  0.1791  1.3351  4.2601
  410MOL0     H56550  10.106   3.572   7.817  2.6779  0.5053  1.5927
  410MOL0     H56551  10.014   3.540   7.965  1.7955 -1.8036 -1.0630
  410MOL0     H56552  10.105   3.788   8.041  2.5938  1.6179  0.6053
  410MOL0     H56553  10.217   3.656   8.017  0.7911  0.5192 -0.0920
  410MOL0     H56554  10.182   3.806   7.770 -0.4626 -2.2830  0.3253
  410MOL0     H56555  10.310   3.727   7.842 -0.4153 -0.7113  0.6920
  410MOL0     H56556  10.315   3.918   8.018  0.4990 -2.9904 -0.8925
  410MOL0     H56557  10.184   4.011   7.932 -0.3723 -0.7792 -0.8220
  410MOL0     H56558  10.338   4.013   7.750 -3.6377 -2.2206  1.2343
  410MOL0     H56559  10.455   3.918   7.826 -0.4445  0.1446 -2.5245
  410MOL0     H56560   9.781   3.206   7.629 -1.1510  2.1848 -0.3252
  410MOL0     H56561   9.667   2.990   7.677  1.1633 -2.2781  0.8414
  410MOL0     H56562   9.595   2.757   8.147  1.3591 -2.6906  2.1498
  410MOL0     H56563   9.506   2.570   8.258  1.7986 -0.3831  0.3441
  410MOL0     H56564   8.574   0.862   8.460 -1.2532 -0.8578 -1.6932
  410MOL0     H56565   8.695   0.723   8.595 -0.4696  1.0979 -0.1335
  410MOL0     H56566   9.102   0.768   8.728 -0.5434 -1.1361 -2.5283
  410MOL0     H56567   9.320   0.733   8.868  0.4098 -0.4934 -0.1433
  410MOL0     H56568   9.458   0.426   8.916  0.2666  0.0686  0.1337
  410MOL0     H56569   9.548   0.500   9.058 -1.2761  0.2718  1.2857
  410MOL0     H56570   9.504   0.270   9.095 -0.3930 -0.7597 -4.0012
  410MOL0     H56571   9.341   0.299   9.041 -0.2193  0.3232 -0.5125
  410MOL0     H56572   9.275   0.429   9.238  0.3381  1.7845  5.2078
  410MOL0     H56573   9.318   0.256   9.272  1.6344 -0.8600 -1.1006
  410MOL0     H56574   9.524   0.333   9.389 -1.0710 -1.8278 -0.0128
  410MOL0     H56575   9.381   0.402   9.461  4.3576 -2.3443  3.4614
  410MOL0     H56576   9.513   0.766   9.341 -1.8765  0.4310 -1.1048
  410MOL0     H56577   9.149   0.379   9.037  0.1932  0.7428  0.3030
  410MOL0     H56578   8.826   0.386   8.908  0.2026  1.6549 -1.2239
  410MOL0     H56579   8.933   0.319   8.789 -2.1175 -1.1510  1.4627
  410MOL0     H56580   8.965   0.279   8.952  0.6781 -0.7926 -1.9877
  411MOL0     O56581   0.535   4.979   5.376  0.3484 -0.1819  0.0781
  411MOL0     C56582   0.570   5.096   5.376 -0.0456  0.4938 -0.2043
  411MOL0     O56583   0.492   5.200   5.330  0.4507  0.0043 -0.4339
  411MOL0     C56584   0.359   5.173   5.316 -0.3519 -0.8922 -0.7198
  411MOL0     C56585   0.285   5.096   5.414  0.5354 -0.1927  0.3674
  411MOL0     C56586   0.140   5.089   5.395 -1.2118  0.2185 -0.2025
  411MOL0     C56587   0.081   5.156   5.290  0.4531 -0.0592 -0.9398
  411MOL0     O56588  -0.055   5.173   5.271 -0.1186 -0.0262 -0.8921
  411MOL0     C56589  -0.161   5.095   5.324  0.4237 -0.3595 -0.2600
  411MOL0     C56590  -0.284   5.168   5.284 -0.1792  0.6393 -0.5187
  411MOL0     C56591  -0.398   5.082   5.234 -0.0868  0.1663  0.9237
  411MOL0     C56592  -0.391   5.049   5.084  0.3156 -0.5961  0.1948
  411MOL0     C56593  -0.492   4.946   5.030 -0.5861 -0.8195 -0.4858
  411MOL0     C56594  -0.447   4.908   4.884 -0.1905  0.6143 -0.6623
  411MOL0     C56595  -0.539   4.815   4.818  0.3670  0.3207 -0.2757
  411MOL0     C56596  -0.556   4.682   4.891  0.7080 -0.2666 -0.3238
  411MOL0     N56597  -0.421   4.618   4.901  1.0400 -0.6177  0.6472
  411MOL0     C56598  -0.340   4.634   5.011  0.3373  0.7105  0.4042
  411MOL0     C56599  -0.229   4.573   4.975  0.5297 -0.2166 -0.9791
  411MOL0     C56600  -0.104   4.572   5.073 -0.4685 -0.1039  0.1987
  411MOL0     C56601  -0.148   4.547   5.222 -0.4415 -1.1498  0.2135
  411MOL0     C56602  -0.022   4.536   5.316  1.1281 -0.1778  0.6658
  411MOL0     C56603  -0.053   4.471   5.447  0.1197 -0.1702 -1.0111
  411MOL0     O56604  -0.074   4.325   5.423 -0.1057 -1.7979 -0.7218
  411MOL0     C56605  -0.145   4.262   5.520  0.2394 -0.9256  0.5214
  411MOL0     C56606  -0.139   4.281   5.661 -0.3967  0.5055  0.0418
  411MOL0     C56607  -0.192   4.195   5.759  1.0374 -0.3969  0.9722
  411MOL0     C56608  -0.160   4.228   5.904  0.3684  0.2333 -0.8437
  411MOL0     C56609  -0.285   4.090   5.709  0.0012 -1.1400 -0.0646
  411MOL0     C56610  -0.370   4.004   5.798 -0.0310 -0.4678 -0.4941
  411MOL0     O56611  -0.463   3.915   5.741 -0.1063  0.6366  0.0254
  411MOL0     C56612  -0.579   3.895   5.821  0.3480 -0.2133 -0.6285
  411MOL0     C56613  -0.580   3.832   5.944  0.3727 -0.2826 -0.5644
  411MOL0     C56614  -0.697   3.818   6.018  0.8323  0.1782  0.1132
  411MOL0     C56615  -0.819   3.863   5.965 -0.1977  0.5767 -0.0335
  411MOL0     O56616  -0.931   3.846   6.044  0.3251 -0.0387  0.7444
  411MOL0     C56617  -1.064   3.826   5.995  0.7951  0.0431  0.4929
  411MOL0     C56618  -1.162   3.931   6.052 -0.1706  0.2950 -0.3891
  411MOL0     C56619  -1.131   4.076   6.025  0.7578  1.0193 -0.0183
  411MOL0     C56620  -1.252   4.164   6.046 -0.5936 -0.7989  0.2472
  411MOL0     C56621  -1.343   4.177   5.922  0.5533  0.0846 -0.5315
  411MOL0     C56622  -1.492   4.155   5.942 -0.0905 -0.1336 -0.3103
  411MOL0     C56623  -1.549   4.264   6.030  1.0794  0.4857  0.2950
  411MOL0     C56624  -1.677   4.231   6.087  0.1006 -0.3249 -0.0709
  411MOL0    Cl56625  -1.805   4.220   5.960 -0.3497 -0.0092 -0.8367
  411MOL0     C56626  -0.823   3.909   5.832 -0.0137  0.8372  0.2651
  411MOL0     C56627  -0.703   3.934   5.755  0.5570 -0.4725 -0.7014
  411MOL0     O56628  -0.345   4.004   5.915 -0.2027  0.3994  0.6324
  411MOL0     C56629  -0.298   4.085   5.567  0.3897  0.7660 -0.7860
  411MOL0     C56630  -0.229   4.159   5.481 -0.3455 -0.0038 -0.3312
  411MOL0     N56631  -0.233   4.534   4.848 -0.3043  0.2699  0.6349
  411MOL0     N56632  -0.350   4.563   4.799 -1.0723  0.0845  0.0626
  411MOL0     C56633   0.154   5.217   5.196  0.1143 -0.2764  0.4386
  411MOL0     C56634   0.293   5.250   5.220 -0.8026 -0.1970  0.0670
  411MOL0     C56635   0.708   5.136   5.410  0.6602 -0.1506 -0.1396
  411MOL0     C56636   0.757   5.273   5.403  0.5022  0.1744  0.5574
  411MOL0     C56637   0.884   5.324   5.440  0.1663  0.8613  0.7112
  411MOL0     C56638   0.969   5.230   5.494 -0.3745 -0.2637  0.4383
  411MOL0     O56639   1.095   5.271   5.525  0.3043  0.7584 -0.1747
  411MOL0     C56640   1.125   5.279   5.663 -0.2373  0.6239 -0.6471
  411MOL0     C56641   1.125   5.424   5.711 -0.4480 -0.6232  0.1767
  411MOL0     C56642   1.238   5.514   5.663 -0.9439 -1.1234  0.2207
  411MOL0     C56643   1.377   5.495   5.716  0.3070 -0.0319 -0.9481
  411MOL0     C56644   1.448   5.620   5.704 -0.8099 -0.4734  0.5519
  411MOL0     C56645   1.507   5.723   5.711  0.3194  1.0190  0.3889
  411MOL0     C56646   0.925   5.097   5.515  0.1592 -1.0860  0.4448
  411MOL0     C56647   0.802   5.051   5.473  0.1649  0.8019 -0.0078
  411MOL0     C56648   0.789   4.903   5.489  0.1772 -0.0480  0.5501
  411MOL0     H56649   0.317   5.035   5.498  1.3950  0.0586  0.2317
  411MOL0     H56650   0.085   5.034   5.470 -2.3208  2.1181  0.4520
  411MOL0     H56651  -0.146   5.088   5.433  2.4445  1.9933 -0.2901
  411MOL0     H56652  -0.151   4.995   5.281  1.9985 -0.9101  1.2269
  411MOL0     H56653  -0.337   5.224   5.362 -1.2761  0.9906 -1.4866
  411MOL0     H56654  -0.254   5.238   5.206  1.5809  0.4089 -0.1016
  411MOL0     H56655  -0.399   4.989   5.291 -0.3223  0.2356  1.0356
  411MOL0     H56656  -0.486   5.147   5.236  0.8551  1.4857  0.9794
  411MOL0     H56657  -0.408   5.142   5.028 -3.1973  0.1540  2.1851
  411MOL0     H56658  -0.287   5.015   5.081 -0.1021 -2.0860  1.3900
  411MOL0     H56659  -0.585   5.003   5.025 -0.2768  0.0258  2.0233
  411MOL0     H56660  -0.496   4.857   5.094 -2.1698  0.7181  1.6464
  411MOL0     H56661  -0.444   4.995   4.818 -3.1255  0.5943 -0.9830
  411MOL0     H56662  -0.349   4.862   4.893 -0.6804 -0.3727 -0.1466
  411MOL0     H56663  -0.513   4.791   4.714  1.1543  0.3803 -0.0998
  411MOL0     H56664  -0.631   4.874   4.813 -1.3505 -2.3012 -3.2559
  411MOL0     H56665  -0.597   4.706   4.990  1.3318  1.3693 -0.4294
  411MOL0     H56666  -0.621   4.624   4.825  0.5840 -2.9059  1.9323
  411MOL0     H56667  -0.369   4.680   5.105 -1.8606  0.7083 -0.2276
  411MOL0     H56668  -0.059   4.672   5.068 -1.1652  0.2091  0.0065
  411MOL0     H56669  -0.024   4.507   5.037  0.0756  0.9323 -0.5123
  411MOL0     H56670  -0.210   4.631   5.254  0.4623 -0.1589 -0.5506
  411MOL0     H56671  -0.204   4.453   5.223  1.4018 -2.3110  0.2229
  411MOL0     H56672   0.057   4.486   5.258 -1.0488  0.5187 -3.2982
  411MOL0     H56673   0.017   4.638   5.331 -1.7247  1.2075 -0.5757
  411MOL0     H56674   0.032   4.482   5.515 -0.2005 -0.7116 -0.5135
  411MOL0     H56675  -0.136   4.520   5.498  1.7155  2.7505 -1.0459
  411MOL0     H56676  -0.088   4.369   5.699 -1.8915  0.2673  2.8445
  411MOL0     H56677  -0.230   4.302   5.942  1.0574  0.9410 -0.9355
  411MOL0     H56678  -0.054   4.248   5.922  0.7808 -0.3103 -2.4620
  411MOL0     H56679  -0.172   4.143   5.972  0.1695 -0.4118 -1.6564
  411MOL0     H56680  -0.486   3.798   5.986  0.1466 -0.1403  0.0649
  411MOL0     H56681  -0.691   3.771   6.116 -0.8068 -0.4574 -0.0450
  411MOL0     H56682  -1.064   3.827   5.886 -0.2769  0.2764  0.4846
  411MOL0     H56683  -1.092   3.723   6.021 -0.2072  1.0717  4.0718
  411MOL0     H56684  -1.261   3.900   6.018  0.1707 -2.0476  0.5733
  411MOL0     H56685  -1.162   3.924   6.162 -3.4634 -0.0314 -0.3308
  411MOL0     H56686  -1.097   4.083   5.921  0.3665 -1.1615 -0.3396
  411MOL0     H56687  -1.047   4.114   6.083 -0.7104  2.3332  1.3437
  411MOL0     H56688  -1.218   4.263   6.077  1.8142 -1.8858  1.3239
  411MOL0     H56689  -1.306   4.124   6.132 -1.3568 -1.1894 -0.4012
  411MOL0     H56690  -1.324   4.269   5.867  1.1826 -0.8202 -1.8913
  411MOL0     H56691  -1.313   4.091   5.861 -1.4501 -1.2359  0.2181
  411MOL0     H56692  -1.505   4.060   5.995 -3.5831 -0.7344 -1.9298
  411MOL0     H56693  -1.534   4.149   5.841  1.7648  1.0440 -1.2284
  411MOL0     H56694  -1.560   4.361   5.980 -0.8013  0.1502 -0.0130
  411MOL0     H56695  -1.477   4.280   6.110  1.2950  1.9780 -0.1711
  411MOL0     H56696  -1.710   4.317   6.146  0.5354  0.8976 -1.5439
  411MOL0     H56697  -1.663   4.144   6.152  0.9316  0.7510  1.2431
  411MOL0     H56698  -0.917   3.943   5.790 -0.9671  0.7099  2.1902
  411MOL0     H56699  -0.694   3.983   5.659  3.3942  0.1428 -0.2257
  411MOL0     H56700  -0.374   4.018   5.528  0.9169  0.0330 -0.5746
  411MOL0     H56701  -0.245   4.136   5.376  0.6415 -0.1098 -0.4700
  411MOL0     H56702   0.106   5.264   5.110  1.2166 -1.1401 -0.6923
  411MOL0     H56703   0.356   5.300   5.147  1.0122 -0.0272  1.6834
  411MOL0     H56704   0.689   5.345   5.357 -1.0012 -1.2253  0.5143
  411MOL0     H56705   0.911   5.429   5.430 -1.8662  1.3857  0.3722
  411MOL0     H56706   1.059   5.220   5.728  3.5928 -0.9223  2.2452
  411MOL0     H56707   1.229   5.250   5.674  0.7054  4.1796  1.8039
  411MOL0     H56708   1.125   5.435   5.820  4.8222 -0.0027  0.3699
  411MOL0     H56709   1.031   5.462   5.670  0.5916 -2.5965 -4.7950
  411MOL0     H56710   1.241   5.518   5.554 -1.7868  0.0242  0.2138
  411MOL0     H56711   1.197   5.608   5.702 -1.0352 -0.8033 -0.6318
  411MOL0     H56712   1.420   5.407   5.667 -0.5376 -1.4350  0.7501
  411MOL0     H56713   1.384   5.466   5.821  0.1231 -0.9189 -1.1725
  411MOL0     H56714   1.562   5.815   5.718 -0.0846  1.1719  1.8992
  411MOL0     H56715   1.004   5.040   5.563 -0.7422  0.6035  4.3954
  411MOL0     H56716   0.879   4.847   5.516  0.5667 -0.9675 -2.3301
  411MOL0     H56717   0.719   4.896   5.572 -0.7624  1.1432 -0.1062
  411MOL0     H56718   0.747   4.863   5.397 -4.1757  0.3827  2.1323
  412MOL0     O56719   1.160   2.434   5.158 -0.7753  0.4719 -0.6564
  412MOL0     C56720   1.066   2.436   5.082 -0.1247  0.2550 -0.2358
  412MOL0     O56721   0.978   2.330   5.067  0.5229  0.1022  0.2591
  412MOL0     C56722   1.013   2.217   5.142 -0.5045 -0.2820  0.1019
  412MOL0     C56723   1.134   2.157   5.129 -0.1710 -0.0953  0.0193
  412MOL0     C56724   1.151   2.036   5.202  0.2472 -0.0932 -0.3128
  412MOL0     C56725   1.052   1.998   5.301 -0.2438  0.0470  0.9708
  412MOL0     O56726   1.061   1.883   5.374  0.1807 -1.0400  0.3582
  412MOL0     C56727   1.111   1.905   5.503  0.1297  0.0154 -0.0926
  412MOL0     C56728   1.077   1.777   5.592 -1.4093  0.8935 -0.3164
  412MOL0     C56729   1.170   1.770   5.718 -0.1251 -0.2210  0.4742
  412MOL0     C56730   1.114   1.653   5.800  0.0251 -0.8019 -0.0908
  412MOL0     C56731   1.197   1.628   5.928 -0.5002  0.8982  0.2907
  412MOL0     C56732   1.327   1.548   5.886 -0.7274 -0.4989 -0.2380
  412MOL0     C56733   1.412   1.478   6.007 -0.1929 -1.2937 -0.1843
  412MOL0     C56734   1.508   1.595   6.067  1.0176  0.4559  0.7324
  412MOL0     N56735   1.634   1.612   5.996  0.3595 -0.4882  0.3615
  412MOL0     C56736   1.742   1.526   5.983  0.3781  0.4032 -0.0283
  412MOL0     C56737   1.833   1.602   5.918  0.1407  1.0670 -0.6677
  412MOL0     C56738   1.973   1.573   5.892 -0.2085  0.0274 -0.5078
  412MOL0     C56739   1.990   1.549   5.733 -0.2328 -0.0545  0.0250
  412MOL0     C56740   1.894   1.447   5.679 -0.3359 -0.6182  1.4875
  412MOL0     C56741   1.841   1.484   5.544  0.2765 -0.5753 -0.7005
  412MOL0     O56742   1.725   1.562   5.571  0.1806 -1.0054 -1.0041
  412MOL0     C56743   1.693   1.666   5.489 -0.7209 -0.2064  1.1782
  412MOL0     C56744   1.738   1.681   5.361  0.5876  0.0004 -0.1188
  412MOL0     C56745   1.716   1.798   5.295 -0.5220 -0.8414  0.5048
  412MOL0     C56746   1.777   1.807   5.156 -0.1673 -0.0760  0.4723
  412MOL0     C56747   1.652   1.906   5.360  0.3670 -0.0210  0.5893
  412MOL0     C56748   1.643   2.040   5.304  1.1101  0.8544 -0.3784
  412MOL0     O56749   1.585   2.039   5.177 -0.3174  0.3852  0.6430
  412MOL0     C56750   1.599   2.151   5.113 -0.0380  1.0391  0.8069
  412MOL0     C56751   1.700   2.178   5.020  0.3040 -0.1444 -0.1388
  412MOL0     C56752   1.705   2.302   4.949  0.0023  0.7981 -0.0938
  412MOL0     C56753   1.602   2.389   4.977 -0.1826 -0.2966 -0.7460
  412MOL0     O56754   1.582   2.514   4.923 -0.5898 -0.2020  0.4465
  412MOL0     C56755   1.649   2.533   4.804 -0.3789 -0.7147  0.0965
  412MOL0     C56756   1.632   2.692   4.765 -0.4854  0.5587  0.2461
  412MOL0     C56757   1.679   2.721   4.624 -0.2349  0.2331 -0.2535
  412MOL0     C56758   1.654   2.864   4.578 -0.1627  0.2973  0.4890
  412MOL0     C56759   1.673   2.884   4.420  0.5834  0.0932  0.1593
  412MOL0     C56760   1.826   2.890   4.398  0.1910  0.6986 -0.2006
  412MOL0     C56761   1.857   2.958   4.268 -0.7811 -0.7969 -0.6491
  412MOL0     C56762   1.988   3.048   4.257  0.4277  0.1385 -0.3971
  412MOL0    Cl56763   2.014   3.101   4.088 -0.3274 -0.2046  0.1379
  412MOL0     C56764   1.508   2.372   5.075 -0.2458 -0.3562 -0.3672
  412MOL0     C56765   1.509   2.252   5.145  0.3275  0.3598 -0.1624
  412MOL0     O56766   1.671   2.140   5.363  0.4693 -0.0635 -1.3902
  412MOL0     C56767   1.590   1.880   5.480 -0.6150 -0.9762 -0.8131
  412MOL0     C56768   1.609   1.762   5.548 -0.5586  0.5521  0.1964
  412MOL0     N56769   1.781   1.724   5.886 -0.2409 -0.0304  0.0551
  412MOL0     N56770   1.653   1.725   5.911  0.2812  0.4551  0.1051
  412MOL0     C56771   0.936   2.071   5.313  0.0185  1.5195 -0.4091
  412MOL0     C56772   0.920   2.177   5.235 -0.1976 -0.4343  0.0244
  412MOL0     C56773   1.021   2.566   5.015  0.2397 -0.3029 -0.2874
  412MOL0     C56774   0.894   2.563   4.957  0.2044  0.4745  0.1777
  412MOL0     C56775   0.834   2.676   4.904 -0.4037 -0.2073 -0.9763
  412MOL0     C56776   0.901   2.799   4.897  0.1361 -0.9031 -0.1216
  412MOL0     O56777   0.841   2.914   4.856  0.1545 -0.1914  0.0199
  412MOL0     C56778   0.777   3.004   4.954 -0.8560  0.2044  0.6708
  412MOL0     C56779   0.734   3.136   4.890 -0.5323  0.3992 -0.2165
  412MOL0     C56780   0.676   3.228   4.991 -0.1867  0.2271 -0.3451
  412MOL0     C56781   0.660   3.376   4.936 -0.3309 -0.9378 -0.0151
  412MOL0     C56782   0.576   3.466   5.021  0.1063  0.1789 -1.1300
  412MOL0     C56783   0.528   3.558   5.084  0.9157  0.2068 -0.5571
  412MOL0     C56784   1.032   2.805   4.943 -0.5602 -0.5631 -0.7446
  412MOL0     C56785   1.091   2.689   4.998 -0.7993 -0.9096 -0.0628
  412MOL0     C56786   1.233   2.702   5.059  0.8426 -0.1471 -0.1878
  412MOL0     H56787   1.203   2.198   5.056 -0.9658  0.6826 -0.3179
  412MOL0     H56788   1.234   1.967   5.189 -1.2282 -1.6594 -2.0249
  412MOL0     H56789   1.066   1.994   5.548  0.8931  0.3226  0.0855
  412MOL0     H56790   1.220   1.913   5.510  0.3405 -0.9109 -1.7771
  412MOL0     H56791   0.974   1.789   5.625 -1.8613  2.0886 -2.0856
  412MOL0     H56792   1.075   1.684   5.534 -0.5782  1.1201 -0.7317
  412MOL0     H56793   1.272   1.753   5.683 -0.7253 -0.7738 -1.0807
  412MOL0     H56794   1.158   1.855   5.787 -0.0267 -0.9267  1.3890
  412MOL0     H56795   1.012   1.683   5.828 -0.0979 -0.5349 -0.7858
  412MOL0     H56796   1.088   1.563   5.743 -2.4817  0.0212 -0.3918
  412MOL0     H56797   1.136   1.578   6.004 -1.6475 -0.4205 -1.4383
  412MOL0     H56798   1.241   1.723   5.960  2.5320  0.4655 -2.1293
  412MOL0     H56799   1.293   1.474   5.813  0.1329  1.4255 -2.7397
  412MOL0     H56800   1.394   1.615   5.830 -1.3727  2.0092  1.7915
  412MOL0     H56801   1.477   1.398   5.973  3.1555  0.8521  0.6970
  412MOL0     H56802   1.348   1.453   6.093 -0.3827 -0.0916  0.0426
  412MOL0     H56803   1.447   1.686   6.076 -1.2147 -0.7491 -0.9581
  412MOL0     H56804   1.532   1.561   6.168 -0.1403  0.0046  0.8735
  412MOL0     H56805   1.750   1.426   6.025  1.5597  0.0209 -1.0864
  412MOL0     H56806   2.026   1.495   5.947 -0.7601 -0.8209 -1.1492
  412MOL0     H56807   2.028   1.664   5.915  1.8622 -0.8974 -1.5410
  412MOL0     H56808   1.970   1.641   5.677  0.0513 -0.8721 -1.4606
  412MOL0     H56809   2.093   1.522   5.711  0.4662  1.8720  0.7154
  412MOL0     H56810   1.953   1.358   5.653  0.2108  0.6493 -2.2245
  412MOL0     H56811   1.814   1.418   5.747 -4.7911 -2.9103 -3.9185
  412MOL0     H56812   1.916   1.532   5.479  1.1710 -0.9612  0.0272
  412MOL0     H56813   1.795   1.393   5.503 -1.1078 -0.8329  1.3274
  412MOL0     H56814   1.793   1.597   5.319 -1.9490 -2.4987  1.1937
  412MOL0     H56815   1.819   1.714   5.116  0.0427  0.2264 -0.0255
  412MOL0     H56816   1.860   1.879   5.146  1.5972 -2.2753 -2.0230
  412MOL0     H56817   1.698   1.841   5.089  1.2087  2.2251 -0.1362
  412MOL0     H56818   1.771   2.099   4.996 -0.1235  0.0857 -2.3891
  412MOL0     H56819   1.778   2.325   4.873  0.0534  0.2322 -0.2246
  412MOL0     H56820   1.757   2.529   4.822 -0.4527 -0.8750  0.5102
  412MOL0     H56821   1.609   2.469   4.725  2.5391 -0.7353 -1.4935
  412MOL0     H56822   1.526   2.719   4.767 -1.9628 -4.3421  2.0019
  412MOL0     H56823   1.686   2.754   4.837  1.8343 -2.7624  1.5678
  412MOL0     H56824   1.625   2.655   4.556  0.6768 -0.2608 -0.5219
  412MOL0     H56825   1.780   2.682   4.605 -0.7890 -2.1941  1.3120
  412MOL0     H56826   1.716   2.936   4.632 -0.2785 -0.9387  2.3917
  412MOL0     H56827   1.553   2.890   4.611  0.3476  4.4423 -0.7256
  412MOL0     H56828   1.628   2.796   4.373 -1.5229  1.9262 -1.4213
  412MOL0     H56829   1.625   2.979   4.397 -1.2746 -0.6828  0.6605
  412MOL0     H56830   1.843   2.783   4.392 -0.5618  0.6713 -3.7715
  412MOL0     H56831   1.883   2.938   4.479 -0.2951  1.2400 -0.1739
  412MOL0     H56832   1.782   3.034   4.243 -0.3638  0.5329  1.7479
  412MOL0     H56833   1.847   2.875   4.198  0.0367 -1.0203 -0.5150
  412MOL0     H56834   2.073   2.981   4.278 -1.6333 -2.4257  0.3456
  412MOL0     H56835   1.982   3.136   4.320  1.9936  0.1192 -0.1622
  412MOL0     H56836   1.432   2.441   5.111 -0.3942 -1.2100  1.0695
  412MOL0     H56837   1.431   2.236   5.218  2.2956 -1.3660  1.6982
  412MOL0     H56838   1.537   1.957   5.535 -0.9971 -1.1593 -0.9178
  412MOL0     H56839   1.597   1.733   5.652  3.4324 -0.4377  0.5403
  412MOL0     H56840   0.876   2.029   5.394  1.4604 -0.0995 -0.1373
  412MOL0     H56841   0.824   2.225   5.243  0.9844  2.1333 -0.1749
  412MOL0     H56842   0.837   2.471   4.950 -0.4151  0.9290 -1.0090
  412MOL0     H56843   0.735   2.669   4.860 -1.5336  0.4817  1.2828
  412MOL0     H56844   0.686   2.956   4.993 -1.4169 -0.7389 -1.6284
  412MOL0     H56845   0.847   3.022   5.036 -2.6124 -1.7870  2.7667
  412MOL0     H56846   0.667   3.124   4.804 -0.0093  1.8693 -0.8712
  412MOL0     H56847   0.831   3.177   4.861 -0.6923  1.3538  0.5683
  412MOL0     H56848   0.588   3.175   5.027  1.2575  0.0038  3.2198
  412MOL0     H56849   0.740   3.237   5.079  2.3656 -2.1246 -1.7997
  412MOL0     H56850   0.595   3.369   4.848 -2.5201  4.2094  0.8555
  412MOL0     H56851   0.760   3.419   4.930  0.6820 -1.7074  5.5319
  412MOL0     H56852   0.479   3.643   5.127 -1.4426 -1.6089  0.5268
  412MOL0     H56853   1.089   2.896   4.952  0.7601 -1.5150  1.3848
  412MOL0     H56854   1.274   2.803   5.070  2.8201 -1.0655  1.7461
  412MOL0     H56855   1.230   2.658   5.159 -0.7346  1.7316  0.6737
  412MOL0     H56856   1.305   2.640   5.006  4.1903  2.6956  0.6200
  413MOL0     O56857   8.508   3.313   1.400 -0.6597  0.9549 -0.4998
  413MOL0     C56858   8.575   3.249   1.322  0.2893  0.7114  0.2229
  413MOL0     O56859   8.547   3.239   1.188  0.0626 -0.3488  0.1770
  413MOL0     C56860   8.472   3.325   1.103 -0.9642 -0.1035  0.4228
  413MOL0     C56861   8.366   3.405   1.151 -0.4765  0.1222 -0.0984
  413MOL0     C56862   8.301   3.489   1.062 -0.2021 -1.0353  0.5668
  413MOL0     C56863   8.351   3.507   0.926 -0.3166 -0.0948 -1.0493
  413MOL0     O56864   8.302   3.603   0.844 -0.0529 -0.1695 -0.5343
  413MOL0     C56865   8.207   3.698   0.899  0.3853 -0.4713  1.0744
  413MOL0     C56866   8.175   3.795   0.783  0.6154 -0.0067 -0.1844
  413MOL0     C56867   8.110   3.719   0.659  0.5070  0.5143 -0.6384
  413MOL0     C56868   8.033   3.795   0.557 -0.2608 -0.5625  1.2706
  413MOL0     C56869   7.991   3.703   0.442 -0.9631 -0.5478  1.0153
  413MOL0     C56870   7.870   3.606   0.475 -0.7297  0.0900 -0.3157
  413MOL0     C56871   7.863   3.489   0.375  0.0402  0.2282  0.3961
  413MOL0     C56872   7.838   3.553   0.236  0.2769  0.9123  0.7742
  413MOL0     N56873   7.804   3.453   0.133  0.4725  0.5534  0.5176
  413MOL0     C56874   7.708   3.470   0.026 -0.1409 -0.4924 -0.3537
  413MOL0     C56875   7.699   3.349  -0.036  0.1003  0.5397  0.6298
  413MOL0     C56876   7.617   3.319  -0.155  0.1903  0.4184 -0.2092
  413MOL0     C56877   7.663   3.378  -0.289  0.1571 -0.4210 -0.2848
  413MOL0     C56878   7.642   3.539  -0.301  0.1415  0.1077  0.0594
  413MOL0     C56879   7.649   3.587  -0.449 -0.4761 -0.2696 -0.2579
  413MOL0     O56880   7.776   3.550  -0.506  0.0455 -0.1021 -0.1617
  413MOL0     C56881   7.824   3.609  -0.624  1.4355 -0.2050  0.5681
  413MOL0     C56882   7.736   3.665  -0.722  0.4011 -0.1187  0.8035
  413MOL0     C56883   7.786   3.701  -0.853  0.5166  0.8572  0.3010
  413MOL0     C56884   7.680   3.741  -0.954  1.2759  0.2079 -1.0055
  413MOL0     C56885   7.921   3.707  -0.883 -0.2948 -0.5941 -0.2491
  413MOL0     C56886   7.984   3.735  -1.012  0.3575 -0.3927 -0.0599
  413MOL0     O56887   8.100   3.796  -1.004  0.5939  0.3207  0.4012
  413MOL0     C56888   8.164   3.830  -1.121  0.4958  0.5820  0.2522
  413MOL0     C56889   8.246   3.946  -1.111  1.0410  0.8844  0.5335
  413MOL0     C56890   8.320   3.997  -1.226  0.3542 -0.2231 -0.7026
  413MOL0     C56891   8.327   3.924  -1.346 -1.0635 -0.8437  0.2880
  413MOL0     O56892   8.402   3.966  -1.460  0.0594  0.5781 -0.0697
  413MOL0     C56893   8.458   4.096  -1.463 -0.4546  0.4086  0.2491
  413MOL0     C56894   8.596   4.102  -1.403  1.0691 -0.1523  0.5500
  413MOL0     C56895   8.709   4.056  -1.487 -0.2583  0.5975  1.0402
  413MOL0     C56896   8.848   4.079  -1.425 -0.8699 -0.1608  0.3329
  413MOL0     C56897   8.909   4.221  -1.452  0.7006 -0.2380  0.2558
  413MOL0     C56898   9.020   4.270  -1.361 -0.2307  0.5781 -0.7555
  413MOL0     C56899   9.152   4.208  -1.393 -0.0764  0.0213 -0.1637
  413MOL0     C56900   9.259   4.270  -1.304 -0.4815 -0.0806 -0.0171
  413MOL0    Cl56901   9.418   4.175  -1.325  0.0713  0.7584 -0.0901
  413MOL0     C56902   8.240   3.821  -1.360  1.1551 -0.4892  0.0816
  413MOL0     C56903   8.170   3.767  -1.248 -0.9821 -0.0757 -0.6303
  413MOL0     O56904   7.930   3.685  -1.112 -0.3995 -0.4386 -0.0226
  413MOL0     C56905   8.006   3.661  -0.775  0.2060 -0.5506  0.9633
  413MOL0     C56906   7.955   3.612  -0.656 -0.6871  1.2788 -0.4091
  413MOL0     N56907   7.790   3.259   0.021  0.4330  0.3875 -0.8187
  413MOL0     N56908   7.855   3.321   0.114 -0.1689 -0.0559  0.2564
  413MOL0     C56909   8.456   3.422   0.880 -1.0845  0.1422 -0.1737
  413MOL0     C56910   8.506   3.323   0.966  0.0007 -1.5097 -0.1791
  413MOL0     C56911   8.686   3.157   1.365  0.4361  1.0238  0.0010
  413MOL0     C56912   8.735   3.069   1.273 -0.2701  0.4764 -0.5664
  413MOL0     C56913   8.830   2.978   1.311 -0.0291 -0.9413  0.2314
  413MOL0     C56914   8.885   2.980   1.438  0.2834 -0.1755 -0.5719
  413MOL0     O56915   8.983   2.896   1.488 -0.5033  0.1536 -0.5288
  413MOL0     C56916   8.983   2.755   1.452  0.4531 -0.5789 -0.3215
  413MOL0     C56917   8.996   2.675   1.581 -0.5997  0.2808 -0.2269
  413MOL0     C56918   8.878   2.665   1.683 -0.6520  0.0715  0.0933
  413MOL0     C56919   8.918   2.554   1.779  0.2016  0.1097 -0.4210
  413MOL0     C56920   8.835   2.569   1.900 -1.0069  0.0786 -0.0406
  413MOL0     C56921   8.760   2.575   1.992 -0.0876 -0.4141  0.2777
  413MOL0     C56922   8.835   3.070   1.533 -0.7051  0.4195  0.0564
  413MOL0     C56923   8.735   3.156   1.499  0.4759 -0.3502  0.0601
  413MOL0     C56924   8.688   3.254   1.607  0.3636  0.2407 -0.3316
  413MOL0     H56925   8.325   3.402   1.252  1.7119 -1.2399  0.8287
  413MOL0     H56926   8.215   3.534   1.111 -1.7501 -1.9711 -1.2034
  413MOL0     H56927   8.250   3.752   0.985 -0.6904  1.8127  0.2453
  413MOL0     H56928   8.112   3.649   0.924 -0.5593 -0.4409 -2.0670
  413MOL0     H56929   8.103   3.872   0.811 -0.4381 -0.4326 -1.6002
  413MOL0     H56930   8.263   3.849   0.746  0.8020  0.1331  0.4611
  413MOL0     H56931   8.194   3.669   0.610  0.6704 -0.7309  0.8239
  413MOL0     H56932   8.048   3.634   0.689 -0.9710  0.8741 -2.4475
  413MOL0     H56933   7.940   3.833   0.599 -1.2964 -0.3251 -1.0724
  413MOL0     H56934   8.109   3.865   0.519 -1.3901  0.6438  1.1770
  413MOL0     H56935   8.078   3.645   0.408  1.7735  2.7935  1.7441
  413MOL0     H56936   7.971   3.763   0.353  1.1746 -0.5526  0.4607
  413MOL0     H56937   7.876   3.572   0.579 -0.4382 -0.8365 -0.6229
  413MOL0     H56938   7.776   3.661   0.476  0.5428  2.4261  1.1473
  413MOL0     H56939   7.781   3.419   0.392 -1.2418  1.5030 -0.2917
  413MOL0     H56940   7.958   3.436   0.374 -1.0874 -1.8926 -0.4998
  413MOL0     H56941   7.762   3.631   0.231  0.6238  1.1844 -2.7890
  413MOL0     H56942   7.925   3.609   0.200 -0.9981  2.3422 -0.1500
  413MOL0     H56943   7.652   3.557  -0.005  0.4181 -1.1806 -3.6118
  413MOL0     H56944   7.522   3.367  -0.130 -0.3415 -1.0772  0.7751
  413MOL0     H56945   7.608   3.211  -0.169  0.1760  0.6347 -2.0157
  413MOL0     H56946   7.771   3.366  -0.304  0.2264 -0.2643  0.0938
  413MOL0     H56947   7.602   3.340  -0.372 -0.7414 -5.7257  2.3708
  413MOL0     H56948   7.548   3.576  -0.258 -0.5256 -1.2476 -0.1709
  413MOL0     H56949   7.725   3.584  -0.247  0.1226 -2.3795  2.3409
  413MOL0     H56950   7.567   3.541  -0.504 -1.1131  0.4344  0.0751
  413MOL0     H56951   7.635   3.696  -0.443 -2.9110 -0.5971  1.1350
  413MOL0     H56952   7.632   3.676  -0.693  1.5141  0.6798  5.1917
  413MOL0     H56953   7.612   3.798  -0.890  0.7710 -2.3091  0.8165
  413MOL0     H56954   7.619   3.658  -0.989 -1.4969  2.1661 -1.1384
  413MOL0     H56955   7.709   3.814  -1.031 -1.9670  3.4753  0.5592
  413MOL0     H56956   8.248   4.000  -1.017 -4.8854  0.1859  1.4774
  413MOL0     H56957   8.379   4.086  -1.207  2.0815 -1.4990  0.2155
  413MOL0     H56958   8.458   4.141  -1.562 -0.3057  2.4559  1.1408
  413MOL0     H56959   8.396   4.164  -1.405 -0.3357 -0.9924  2.1571
  413MOL0     H56960   8.612   4.209  -1.388 -0.9789  0.7993 -2.9345
  413MOL0     H56961   8.593   4.046  -1.308  3.7739 -0.2182  0.6783
  413MOL0     H56962   8.693   4.104  -1.584  0.0038 -0.7342  0.3266
  413MOL0     H56963   8.707   3.949  -1.510  2.0680  0.3382  1.8020
  413MOL0     H56964   8.916   3.999  -1.457 -2.2653 -0.7745 -1.2572
  413MOL0     H56965   8.830   4.057  -1.320 -1.3498 -2.3145 -0.1435
  413MOL0     H56966   8.940   4.216  -1.557  2.7799 -1.4857  0.8692
  413MOL0     H56967   8.832   4.298  -1.451  1.4396  0.5171  0.3635
  413MOL0     H56968   8.981   4.239  -1.264 -2.7775 -0.8822 -2.1564
  413MOL0     H56969   9.033   4.379  -1.367  1.8545  0.4881  0.7855
  413MOL0     H56970   9.181   4.215  -1.499  1.0143  1.2337  0.1881
  413MOL0     H56971   9.152   4.101  -1.374 -0.6070  0.0976  0.2669
  413MOL0     H56972   9.230   4.283  -1.200  0.2234  3.3014 -0.1243
  413MOL0     H56973   9.275   4.376  -1.328  1.3712 -0.4358 -0.5147
  413MOL0     H56974   8.229   3.773  -1.457 -0.1009  1.5905 -0.8915
  413MOL0     H56975   8.116   3.673  -1.253  2.1174 -2.2716  2.3347
  413MOL0     H56976   8.113   3.642  -0.780 -0.2535 -3.7234 -4.1223
  413MOL0     H56977   8.026   3.557  -0.595 -1.2593  1.7113  0.6627
  413MOL0     H56978   8.494   3.420   0.778 -2.1157 -2.0376 -0.5809
  413MOL0     H56979   8.578   3.259   0.915  0.4730 -0.7396 -0.5135
  413MOL0     H56980   8.685   3.069   1.176  0.0132  0.6374 -0.7144
  413MOL0     H56981   8.865   2.921   1.225  2.3719 -0.9946  1.1589
  413MOL0     H56982   8.894   2.724   1.397  0.7034  1.3327 -1.9288
  413MOL0     H56983   9.070   2.733   1.390  1.1064 -2.9472  1.2895
  413MOL0     H56984   9.082   2.710   1.638 -0.6269 -1.2054  0.7975
  413MOL0     H56985   9.025   2.571   1.558  0.6899  0.1976  1.5348
  413MOL0     H56986   8.865   2.762   1.732  0.1012  0.7139 -0.9309
  413MOL0     H56987   8.785   2.635   1.633 -0.4767 -0.2659 -0.0350
  413MOL0     H56988   9.020   2.557   1.819  0.7601  1.3474 -1.8337
  413MOL0     H56989   8.895   2.461   1.726 -2.3186 -0.2566  1.1855
  413MOL0     H56990   8.691   2.588   2.073 -1.1928 -0.2758 -0.6471
  413MOL0     H56991   8.881   3.076   1.631 -0.2659  2.1694 -0.2172
  413MOL0     H56992   8.744   3.224   1.696  2.7934  1.1975 -1.4444
  413MOL0     H56993   8.697   3.361   1.584 -1.6265  0.2168 -1.4182
  413MOL0     H56994   8.580   3.247   1.626  0.2520 -0.2051 -1.1283
  414MOL0     O56995   0.682   7.259   9.879  0.2808  0.2498  0.2245
  414MOL0     C56996   0.680   7.364   9.931  1.1080 -0.2596  0.3728
  414MOL0     O56997   0.761   7.407  10.038  0.3480 -0.1294 -0.1875
  414MOL0     C56998   0.879   7.350  10.064  0.5931  0.1586 -0.0159
  414MOL0     C56999   0.915   7.341  10.197 -0.1569  0.5122  0.3054
  414MOL0     C57000   1.038   7.276  10.220  0.5736 -0.1965  0.1847
  414MOL0     C57001   1.121   7.228  10.118 -0.2975 -0.0592  0.2548
  414MOL0     O57002   1.247   7.164  10.138 -0.7188 -0.1376 -0.0009
  414MOL0     C57003   1.317   7.204  10.258 -0.2427  0.0311  0.6074
  414MOL0     C57004   1.473   7.200  10.245 -1.1171  0.2951  0.9955
  414MOL0     C57005   1.556   7.247  10.376 -0.7154  0.5310 -0.4748
  414MOL0     C57006   1.706   7.242  10.343 -0.1591  0.2610 -0.6415
  414MOL0     C57007   1.797   7.292  10.457 -0.3387  0.3457 -0.0979
  414MOL0     C57008   1.941   7.279  10.418 -0.7036 -1.2003 -0.6477
  414MOL0     C57009   2.032   7.341  10.535 -0.6686  0.4629 -0.1899
  414MOL0     C57010   2.183   7.348  10.505  0.4262 -0.6165  0.1705
  414MOL0     N57011   2.214   7.426  10.389  0.1877 -1.1276  0.1973
  414MOL0     C57012   2.210   7.383  10.251  0.2468 -0.5717  0.4929
  414MOL0     C57013   2.221   7.499  10.182 -1.0140  0.1096 -1.1871
  414MOL0     C57014   2.228   7.500  10.042 -0.2898  0.1822  0.4198
  414MOL0     C57015   2.335   7.599   9.989  0.1591  0.4649  0.4726
  414MOL0     C57016   2.362   7.593   9.836  0.2475 -0.9031 -0.2316
  414MOL0     C57017   2.433   7.732   9.795 -0.0187  0.3566  0.9268
  414MOL0     O57018   2.533   7.783   9.895  0.4320 -0.0633 -0.0138
  414MOL0     C57019   2.657   7.771   9.848  0.0363  0.2609 -0.1161
  414MOL0     C57020   2.706   7.870   9.770  0.3580 -0.2643  0.3871
  414MOL0     C57021   2.844   7.865   9.726  0.1983 -0.5269  0.0787
  414MOL0     C57022   2.884   7.965   9.630 -0.4064 -0.4551  0.6862
  414MOL0     C57023   2.923   7.749   9.762 -0.3926 -0.0073  0.3020
  414MOL0     C57024   3.060   7.733   9.719  0.1789 -0.1482  0.4994
  414MOL0     O57025   3.087   7.756   9.596  0.3313 -0.5168 -0.0893
  414MOL0     C57026   3.201   7.702   9.538 -0.3303  0.1009 -0.5616
  414MOL0     C57027   3.194   7.587   9.461 -0.1595 -0.8169  0.8041
  414MOL0     C57028   3.301   7.527   9.387  1.0762 -0.0834 -0.6509
  414MOL0     C57029   3.426   7.591   9.400 -0.3247 -1.4999 -0.4705
  414MOL0     O57030   3.536   7.532   9.353 -0.1648  0.2960 -0.3274
  414MOL0     C57031   3.676   7.575   9.392  0.5544 -0.7089  0.1491
  414MOL0     C57032   3.783   7.484   9.352 -0.5184 -1.0688  0.0461
  414MOL0     C57033   3.778   7.348   9.416 -0.5618  0.0875 -0.4676
  414MOL0     C57034   3.915   7.277   9.393  0.0944 -0.4802 -0.3623
  414MOL0     C57035   3.904   7.129   9.428 -0.3396 -0.3842  0.0432
  414MOL0     C57036   3.863   7.098   9.576  0.2619  0.6816 -0.0603
  414MOL0     C57037   3.883   6.947   9.600 -0.5685 -0.2118  0.4025
  414MOL0     C57038   3.849   6.901   9.743 -0.6963 -1.0767 -0.0437
  414MOL0    Cl57039   3.677   6.960   9.793  0.2025 -0.0386 -0.4793
  414MOL0     C57040   3.432   7.718   9.458 -0.8074  0.0468 -0.1302
  414MOL0     C57041   3.326   7.775   9.529 -0.0390  0.0384  0.2283
  414MOL0     O57042   3.139   7.690   9.799 -0.1709 -0.0819 -0.3652
  414MOL0     C57043   2.869   7.653   9.843 -0.0991 -0.0065  0.1369
  414MOL0     C57044   2.743   7.667   9.888 -1.3688 -0.1413  0.2415
  414MOL0     N57045   2.210   7.608  10.273 -0.0030  0.6172  0.9031
  414MOL0     N57046   2.208   7.562  10.386 -0.2094 -0.4450  0.8522
  414MOL0     C57047   1.083   7.237   9.988  0.3479 -0.6055  0.2643
  414MOL0     C57048   0.959   7.299   9.954  0.2864  0.4311 -0.6137
  414MOL0     C57049   0.570   7.457   9.912  0.1895 -0.1050 -0.5999
  414MOL0     C57050   0.531   7.537  10.023  0.9176 -0.6918 -0.0828
  414MOL0     C57051   0.417   7.627  10.024 -1.0726 -0.2619 -0.2738
  414MOL0     C57052   0.344   7.626   9.905  0.3157  0.5702 -0.4714
  414MOL0     O57053   0.237   7.709   9.900 -0.2134  0.6406  0.4181
  414MOL0     C57054   0.188   7.749   9.778  0.5542 -0.6295  0.3248
  414MOL0     C57055   0.107   7.882   9.804 -0.5596  0.0836  0.1630
  414MOL0     C57056   0.062   7.942   9.668  0.8138  0.6140 -0.0143
  414MOL0     C57057  -0.035   7.866   9.577  0.7848  0.1780  0.1833
  414MOL0     C57058   0.027   7.767   9.492  0.2134 -0.0896 -0.6612
  414MOL0     C57059   0.069   7.683   9.419  0.1724 -0.1453 -0.0810
  414MOL0     C57060   0.383   7.543   9.797  1.3867 -0.6384 -0.1312
  414MOL0     C57061   0.491   7.465   9.797 -0.4092 -0.7190 -0.8198
  414MOL0     C57062   0.514   7.383   9.675  0.2961 -0.1736 -0.3269
  414MOL0     H57063   0.848   7.387  10.269 -2.8529 -2.1790 -0.2846
  414MOL0     H57064   1.067   7.261  10.323  4.2454 -0.9239 -0.8274
  414MOL0     H57065   1.296   7.131  10.336  0.6009 -1.6258 -0.6349
  414MOL0     H57066   1.284   7.303  10.291 -1.3438 -0.4639  1.0015
  414MOL0     H57067   1.505   7.101  10.211 -0.4892  1.5041 -2.2824
  414MOL0     H57068   1.494   7.271  10.164 -0.7592 -2.2152 -1.2466
  414MOL0     H57069   1.525   7.350  10.394  1.9080  1.2869  0.0514
  414MOL0     H57070   1.530   7.197  10.470  1.1027  1.7976  0.7698
  414MOL0     H57071   1.739   7.139  10.325  1.9947  0.4934  1.3969
  414MOL0     H57072   1.729   7.299  10.252 -0.0594 -1.5018 -1.7620
  414MOL0     H57073   1.780   7.237  10.550  0.9570  3.6338  2.2901
  414MOL0     H57074   1.766   7.392  10.491  3.2394  0.7378  2.5975
  414MOL0     H57075   1.983   7.180  10.395  0.5139 -0.3954 -2.1319
  414MOL0     H57076   1.958   7.334  10.324  2.9150  0.1831  0.6284
  414MOL0     H57077   2.006   7.270  10.614  0.1096  0.3525 -0.0199
  414MOL0     H57078   1.983   7.433  10.566  0.5930  1.6493 -1.5482
  414MOL0     H57079   2.250   7.383  10.584 -0.4920  0.1544  0.6330
  414MOL0     H57080   2.221   7.248  10.483 -3.0690 -1.8089 -1.1276
  414MOL0     H57081   2.211   7.283  10.208  0.5677 -2.4939  4.4778
  414MOL0     H57082   2.131   7.523   9.996 -0.0618 -1.2111 -0.8459
  414MOL0     H57083   2.254   7.398  10.013  1.5616  0.5209  0.7297
  414MOL0     H57084   2.290   7.695  10.016 -0.8042  1.0484 -2.7226
  414MOL0     H57085   2.430   7.590  10.042  1.1778  2.2384 -0.9012
  414MOL0     H57086   2.437   7.514   9.826  1.2016  0.1555 -1.8036
  414MOL0     H57087   2.274   7.577   9.772  1.1769  1.1282 -2.1655
  414MOL0     H57088   2.481   7.718   9.697 -1.1529 -2.3713  0.6709
  414MOL0     H57089   2.349   7.802   9.790  0.9379  1.6399  2.1413
  414MOL0     H57090   2.638   7.953   9.754  0.7785  0.0119 -0.0395
  414MOL0     H57091   2.808   8.035   9.592  0.9275  0.4085 -0.4843
  414MOL0     H57092   2.918   7.916   9.538 -2.1676  1.5251 -1.1555
  414MOL0     H57093   2.968   8.016   9.678  0.8108 -1.0326 -0.7547
  414MOL0     H57094   3.101   7.532   9.474  0.5947 -2.2993  0.1724
  414MOL0     H57095   3.295   7.429   9.342 -2.7545 -0.1437 -0.2991
  414MOL0     H57096   3.691   7.672   9.343 -0.0823 -2.7798 -4.7838
  414MOL0     H57097   3.667   7.579   9.500 -0.9340  0.3768  0.0109
  414MOL0     H57098   3.800   7.495   9.245 -2.1312  2.5616  0.0177
  414MOL0     H57099   3.871   7.536   9.393 -2.3257  2.8539 -0.5883
  414MOL0     H57100   3.690   7.298   9.373 -2.3810  0.2151  2.8167
  414MOL0     H57101   3.762   7.362   9.523  2.1814 -0.6751  0.1118
  414MOL0     H57102   3.980   7.322   9.468  0.8204  0.2553 -1.4000
  414MOL0     H57103   3.953   7.286   9.291  0.1645  0.0084 -0.2920
  414MOL0     H57104   3.841   7.074   9.358  0.5991  2.0098 -2.8661
  414MOL0     H57105   4.001   7.078   9.420 -1.1016 -1.7345 -1.0307
  414MOL0     H57106   3.756   7.114   9.597 -0.4581 -3.9710  0.9681
  414MOL0     H57107   3.929   7.155   9.641  1.7916 -0.2918 -0.7137
  414MOL0     H57108   3.979   6.908   9.563  0.9134  3.1013  0.3496
  414MOL0     H57109   3.816   6.886   9.538 -0.0655  0.8202 -1.2077
  414MOL0     H57110   3.925   6.939   9.812 -1.3759 -2.3947  1.4844
  414MOL0     H57111   3.854   6.792   9.743 -0.9885 -1.1251 -2.2176
  414MOL0     H57112   3.516   7.785   9.447 -0.2141 -0.3222  1.7248
  414MOL0     H57113   3.358   7.863   9.583  0.7330  0.5759 -1.0675
  414MOL0     H57114   2.934   7.582   9.893  3.3100  2.0197 -1.0296
  414MOL0     H57115   2.701   7.587   9.949  0.2844 -0.9283  0.4153
  414MOL0     H57116   1.154   7.199   9.915  1.7869 -0.8053  1.7110
  414MOL0     H57117   0.927   7.309   9.851 -0.3820  0.5348 -0.4021
  414MOL0     H57118   0.568   7.531  10.125 -1.4096  1.0486  0.9517
  414MOL0     H57119   0.394   7.682  10.114  4.1383  0.9978  0.6222
  414MOL0     H57120   0.270   7.770   9.709 -0.2208  2.7635  0.2759
  414MOL0     H57121   0.123   7.672   9.732  0.5925  1.1441 -3.0468
  414MOL0     H57122   0.171   7.959   9.849 -1.6349  0.9019  0.3384
  414MOL0     H57123   0.026   7.856   9.872  0.5217  1.5659  2.1282
  414MOL0     H57124   0.009   8.037   9.684 -1.5332 -0.6194 -0.0626
  414MOL0     H57125   0.151   7.956   9.606 -1.6615 -1.2087 -4.4855
  414MOL0     H57126  -0.092   7.930   9.509  3.2883  0.0171 -2.2211
  414MOL0     H57127  -0.110   7.815   9.639  0.3107 -1.2367 -1.4707
  414MOL0     H57128   0.098   7.601   9.356  0.1530 -2.5266  2.7876
  414MOL0     H57129   0.318   7.545   9.711  0.5011  0.2259  0.5248
  414MOL0     H57130   0.619   7.381   9.646 -0.0086 -2.4223 -1.5270
  414MOL0     H57131   0.485   7.282   9.704 -2.1772  1.1865  2.5667
  414MOL0     H57132   0.453   7.420   9.591  1.3482  2.2124 -0.1363
  415MOL0     O57133   6.283   0.423   0.167 -0.5736 -0.1466  0.2818
  415MOL0     C57134   6.242   0.344   0.257  0.2503 -1.0763  0.4018
  415MOL0     O57135   6.280   0.214   0.275  0.0630 -0.2759  0.3201
  415MOL0     C57136   6.375   0.159   0.188  0.4299 -0.4490  0.8029
  415MOL0     C57137   6.357   0.030   0.141  0.1835  0.0200  0.1053
  415MOL0     C57138   6.444  -0.042   0.057 -0.0265 -0.5968  0.3893
  415MOL0     C57139   6.567   0.024   0.041  0.3143 -0.3247  0.5230
  415MOL0     O57140   6.674  -0.031  -0.016  0.7008 -0.0729  0.6030
  415MOL0     C57141   6.665  -0.101  -0.147  0.0469  0.0418  0.1014
  415MOL0     C57142   6.792  -0.194  -0.158  0.3000 -0.3459  0.7890
  415MOL0     C57143   6.815  -0.235  -0.302 -0.0060  0.0590  0.6168
  415MOL0     C57144   6.958  -0.269  -0.335 -0.6764  0.9565  0.4948
  415MOL0     C57145   6.966  -0.302  -0.485  0.6477  0.4932  0.8876
  415MOL0     C57146   7.100  -0.335  -0.541 -0.7489  0.2531  0.0164
  415MOL0     C57147   7.188  -0.215  -0.573 -0.4205 -0.5390 -0.7891
  415MOL0     C57148   7.323  -0.250  -0.631  0.2968 -1.1236 -0.1058
  415MOL0     N57149   7.425  -0.300  -0.534  0.3447 -0.1009 -0.2171
  415MOL0     C57150   7.496  -0.233  -0.440 -0.1963 -0.2584 -0.1497
  415MOL0     C57151   7.598  -0.315  -0.415 -0.7184  0.4806 -0.3268
  415MOL0     C57152   7.711  -0.281  -0.321 -0.3193  0.1539  0.5104
  415MOL0     C57153   7.751  -0.138  -0.317 -0.1533 -0.3254  1.2349
  415MOL0     C57154   7.858  -0.119  -0.209  0.1562  0.8111  0.0748
  415MOL0     C57155   7.806  -0.147  -0.065 -0.6400 -0.2689 -0.2535
  415MOL0     O57156   7.682  -0.085  -0.030  0.4434 -0.4581  0.2479
  415MOL0     C57157   7.642  -0.111   0.100  0.5746 -0.7658 -0.2325
  415MOL0     C57158   7.695  -0.045   0.207 -0.1136  0.2935 -0.2394
  415MOL0     C57159   7.666  -0.093   0.339 -0.2880  0.4967  1.4386
  415MOL0     C57160   7.719  -0.001   0.455 -1.0062  0.2619  0.1035
  415MOL0     C57161   7.570  -0.199   0.359 -0.3309 -0.2511 -0.1846
  415MOL0     C57162   7.504  -0.235   0.490 -0.2426  1.5484  1.1794
  415MOL0     O57163   7.398  -0.321   0.475  0.2549  0.4238 -0.0185
  415MOL0     C57164   7.306  -0.320   0.577 -0.3220  0.2769  0.3544
  415MOL0     C57165   7.314  -0.429   0.671  0.2217  0.0279 -0.1433
  415MOL0     C57166   7.254  -0.415   0.793  0.4416 -0.3935 -0.1090
  415MOL0     C57167   7.160  -0.309   0.812  0.3616  0.5511 -0.3524
  415MOL0     O57168   7.108  -0.303   0.939  0.2946 -0.7459 -0.1558
  415MOL0     C57169   7.017  -0.203   0.970 -0.0647  0.4735  0.6829
  415MOL0     C57170   6.987  -0.189   1.118  0.6880 -0.6633  0.1471
  415MOL0     C57171   6.937  -0.321   1.175  0.2735 -0.7201  0.1759
  415MOL0     C57172   6.911  -0.311   1.323 -0.0779 -0.1963 -0.4440
  415MOL0     C57173   6.871  -0.435   1.392  0.5849 -0.3140 -1.6472
  415MOL0     C57174   6.736  -0.484   1.350 -0.2803  0.1541 -0.5652
  415MOL0     C57175   6.672  -0.585   1.454  0.0634 -0.2908  0.2116
  415MOL0     C57176   6.559  -0.670   1.391  0.1433  0.0473 -0.5144
  415MOL0    Cl57177   6.603  -0.789   1.275 -0.4973 -0.2710 -0.1574
  415MOL0     C57178   7.132  -0.224   0.702  0.2838 -0.4114 -0.9210
  415MOL0     C57179   7.211  -0.231   0.587  1.5930 -0.6306 -0.1066
  415MOL0     O57180   7.564  -0.204   0.591  0.3695 -0.5290 -0.0589
  415MOL0     C57181   7.519  -0.266   0.242 -1.3441 -1.2865 -0.1453
  415MOL0     C57182   7.550  -0.216   0.120 -0.4237 -0.3983 -0.5077
  415MOL0     N57183   7.587  -0.434  -0.479 -0.4303 -0.4749 -0.7804
  415MOL0     N57184   7.473  -0.426  -0.543 -1.6513 -0.4147  0.0664
  415MOL0     C57185   6.581   0.155   0.074  0.2869  0.0784 -0.1448
  415MOL0     C57186   6.490   0.226   0.144  0.2423  0.8587 -0.7553
  415MOL0     C57187   6.146   0.421   0.352 -0.1162 -0.2549  0.1227
  415MOL0     C57188   6.068   0.525   0.301 -0.1058 -0.2316  0.0889
  415MOL0     C57189   5.969   0.592   0.367 -0.5966  0.0365 -0.4382
  415MOL0     C57190   5.928   0.547   0.492  0.0946  0.3457  0.1108
  415MOL0     O57191   5.823   0.593   0.560  0.4991 -0.0092 -0.0117
  415MOL0     C57192   5.700   0.625   0.489  0.1498  0.2492  0.4458
  415MOL0     C57193   5.578   0.602   0.581  0.0719  0.0693 -0.8613
  415MOL0     C57194   5.563   0.459   0.621  0.0480 -0.2366  0.4371
  415MOL0     C57195   5.418   0.424   0.662  0.7324 -0.5190  0.8137
  415MOL0     C57196   5.339   0.394   0.551  0.3572 -0.3238  0.3876
  415MOL0     C57197   5.251   0.361   0.475 -0.2128  0.0668 -0.0073
  415MOL0     C57198   6.008   0.447   0.548 -0.6342  0.1055 -1.1584
  415MOL0     C57199   6.106   0.379   0.487 -1.1036 -0.5663  1.2595
  415MOL0     C57200   6.181   0.260   0.551 -0.8353 -0.5289  0.6859
  415MOL0     H57201   6.269  -0.022   0.176 -1.7451  3.7491  1.3596
  415MOL0     H57202   6.437  -0.143   0.020 -0.3826  0.1166 -1.6120
  415MOL0     H57203   6.668  -0.027  -0.227  0.3702  1.3374  1.2841
  415MOL0     H57204   6.578  -0.167  -0.156  0.6900 -1.0288  1.2979
  415MOL0     H57205   6.867  -0.128  -0.113  0.8684 -0.7333  0.4361
  415MOL0     H57206   6.797  -0.279  -0.089 -0.7823  0.5269  1.9705
  415MOL0     H57207   6.754  -0.323  -0.326 -2.5440  2.3481 -1.9425
  415MOL0     H57208   6.789  -0.152  -0.368  2.7753  3.0876  2.9957
  415MOL0     H57209   7.029  -0.191  -0.304  0.9400 -1.0185  2.1034
  415MOL0     H57210   6.999  -0.357  -0.283  1.2497  2.0109  0.8675
  415MOL0     H57211   6.930  -0.210  -0.532  3.5824  1.7644  0.9488
  415MOL0     H57212   6.898  -0.387  -0.500  1.1708  0.0478  0.9859
  415MOL0     H57213   7.164  -0.390  -0.473  0.3134  0.4413 -0.8054
  415MOL0     H57214   7.081  -0.399  -0.628 -2.8646  0.7352  0.0633
  415MOL0     H57215   7.190  -0.150  -0.485 -0.2802  0.1943 -1.3273
  415MOL0     H57216   7.125  -0.162  -0.645 -1.1823  2.6367  1.9770
  415MOL0     H57217   7.306  -0.314  -0.718  0.6659  0.5343 -1.4560
  415MOL0     H57218   7.354  -0.151  -0.666 -1.2749 -0.0168  1.4456
  415MOL0     H57219   7.483  -0.131  -0.403  1.3589 -0.5946  1.4367
  415MOL0     H57220   7.807  -0.330  -0.341  1.6180  2.7032  2.7905
  415MOL0     H57221   7.676  -0.320  -0.225 -2.4573 -3.2893 -1.4600
  415MOL0     H57222   7.790  -0.116  -0.417 -3.0248  4.2246  0.8411
  415MOL0     H57223   7.663  -0.074  -0.314 -0.1750 -0.3058  0.2335
  415MOL0     H57224   7.935  -0.193  -0.233 -1.7185 -1.7322  1.3670
  415MOL0     H57225   7.902  -0.019  -0.209  1.2522  0.3548  0.8994
  415MOL0     H57226   7.792  -0.255  -0.057 -2.8681  0.0551  0.7264
  415MOL0     H57227   7.888  -0.116   0.000  0.3820 -3.1894  0.0069
  415MOL0     H57228   7.762   0.040   0.212 -0.4832  0.5196  2.2315
  415MOL0     H57229   7.768   0.089   0.415 -0.2589  0.6758  1.8882
  415MOL0     H57230   7.797  -0.064   0.498 -0.9364 -0.0454 -0.4529
  415MOL0     H57231   7.644   0.021   0.531 -1.1945  2.1643 -0.5759
  415MOL0     H57232   7.390  -0.504   0.657  0.8097  0.3149  1.2888
  415MOL0     H57233   7.272  -0.495   0.864 -2.7731 -1.4000 -0.2867
  415MOL0     H57234   7.044  -0.104   0.932 -3.2222  0.6552 -1.4823
  415MOL0     H57235   6.929  -0.234   0.912  0.4320  1.4427 -0.6266
  415MOL0     H57236   7.077  -0.154   1.169  1.5521  0.1697 -1.8264
  415MOL0     H57237   6.909  -0.115   1.136  0.2467 -1.6921  3.0739
  415MOL0     H57238   7.012  -0.397   1.149  0.3014 -0.5877 -0.1396
  415MOL0     H57239   6.839  -0.343   1.132 -0.8091  1.8237  1.1889
  415MOL0     H57240   6.838  -0.233   1.347 -1.7940 -2.1021  0.8671
  415MOL0     H57241   7.007  -0.287   1.369  0.0744  0.9874 -1.3245
  415MOL0     H57242   6.944  -0.516   1.380 -1.0883 -2.0940 -0.5501
  415MOL0     H57243   6.870  -0.406   1.498 -0.2671 -0.0389 -1.7185
  415MOL0     H57244   6.750  -0.528   1.251  1.4050  1.4337 -0.9491
  415MOL0     H57245   6.659  -0.406   1.337 -1.1304 -0.7492 -1.0684
  415MOL0     H57246   6.621  -0.527   1.532 -0.8427 -0.4303 -0.2576
  415MOL0     H57247   6.750  -0.649   1.495  0.9170 -1.1094 -2.4921
  415MOL0     H57248   6.494  -0.599   1.341  0.4569 -0.7803 -2.1501
  415MOL0     H57249   6.519  -0.720   1.480  1.7676 -0.4663 -0.0317
  415MOL0     H57250   7.048  -0.155   0.705 -1.3398 -2.3055  1.8146
  415MOL0     H57251   7.197  -0.153   0.513 -1.9783 -0.3398  0.6731
  415MOL0     H57252   7.463  -0.359   0.244 -2.6450 -0.5584 -1.1593
  415MOL0     H57253   7.510  -0.275   0.038  1.9100  2.4031 -3.9696
  415MOL0     H57254   6.678   0.196   0.047 -0.9188  4.8444  1.8656
  415MOL0     H57255   6.513   0.328   0.175  0.3787  1.4568 -2.6686
  415MOL0     H57256   6.083   0.566   0.201 -0.6789  0.8013  0.4067
  415MOL0     H57257   5.906   0.663   0.315 -0.4299  0.3167 -0.2578
  415MOL0     H57258   5.708   0.732   0.470  1.9724 -0.3006 -2.4394
  415MOL0     H57259   5.689   0.572   0.394 -0.9783 -0.5271  0.9887
  415MOL0     H57260   5.485   0.641   0.538  0.4348  1.4197 -0.4664
  415MOL0     H57261   5.591   0.671   0.664  1.8470  0.8862 -1.7613
  415MOL0     H57262   5.603   0.389   0.547 -0.3500 -1.0410  0.9576
  415MOL0     H57263   5.620   0.443   0.713 -1.8587 -1.4435  1.4999
  415MOL0     H57264   5.364   0.502   0.717  1.9698  1.5923 -0.8290
  415MOL0     H57265   5.420   0.331   0.720 -3.5797 -1.0205  0.4586
  415MOL0     H57266   5.169   0.337   0.411 -2.1939  1.0165  2.0298
  415MOL0     H57267   5.977   0.423   0.649  2.9131  2.1947  0.6216
  415MOL0     H57268   6.286   0.263   0.518 -0.6853 -1.2419  1.0789
  415MOL0     H57269   6.175   0.273   0.660  0.7986 -2.4150  1.0675
  415MOL0     H57270   6.134   0.170   0.511  1.3450 -0.6514 -1.8826
  416MOL0     O57271   2.634   6.522   9.471  0.8946 -0.3164  0.3855
  416MOL0     C57272   2.576   6.411   9.456  0.7193 -0.0602 -0.3213
  416MOL0     O57273   2.465   6.378   9.533 -0.0463  1.3134 -0.1306
  416MOL0     C57274   2.380   6.468   9.601 -0.1740  0.5455  0.4604
  416MOL0     C57275   2.250   6.411   9.618  0.0211 -0.1456 -0.1118
  416MOL0     C57276   2.163   6.481   9.702  0.7160  0.6303 -0.8143
  416MOL0     C57277   2.204   6.601   9.768  0.8313 -0.4162  0.1863
  416MOL0     O57278   2.110   6.659   9.856 -0.0159 -0.2188 -0.1125
  416MOL0     C57279   2.135   6.638   9.993  0.1817 -0.1986  0.6046
  416MOL0     C57280   2.005   6.603  10.063  1.2715 -1.2678 -0.1217
  416MOL0     C57281   1.970   6.461  10.036  0.5521 -0.9161 -0.5318
  416MOL0     C57282   1.852   6.413  10.112  0.4519 -0.2669  0.0315
  416MOL0     C57283   1.885   6.363  10.256  0.4779 -0.5142  0.0666
  416MOL0     C57284   1.762   6.322  10.341  0.2247  0.5617 -0.0855
  416MOL0     C57285   1.673   6.426  10.403 -0.5732  0.4456  0.2422
  416MOL0     C57286   1.750   6.528  10.486  0.2218  0.1553  0.3890
  416MOL0     N57287   1.671   6.618  10.576 -0.3160 -0.5815  0.5541
  416MOL0     C57288   1.548   6.674  10.548 -0.2236  0.3121 -0.2898
  416MOL0     C57289   1.523   6.743  10.663  0.0900 -0.2374  0.9173
  416MOL0     C57290   1.382   6.815  10.685  0.4459 -0.2904  0.2373
  416MOL0     C57291   1.401   6.957  10.752 -0.1627  0.2947  0.2942
  416MOL0     C57292   1.273   7.030  10.797  0.3568 -0.5962 -0.1290
  416MOL0     C57293   1.173   7.048  10.675  0.2487 -0.3048 -1.0859
  416MOL0     O57294   1.222   7.174  10.620  0.0710  0.0256  0.0136
  416MOL0     C57295   1.138   7.289  10.605 -0.7373  0.4213 -0.2744
  416MOL0     C57296   1.205   7.408  10.587  0.6883 -1.4248 -0.2930
  416MOL0     C57297   1.140   7.530  10.557  0.5963  0.2195 -0.3253
  416MOL0     C57298   1.217   7.640  10.507 -0.9284 -0.3842  0.4859
  416MOL0     C57299   1.003   7.541  10.576  0.1765  0.0579  0.1227
  416MOL0     C57300   0.926   7.666  10.567  0.2713 -0.4438 -0.6351
  416MOL0     O57301   0.956   7.763  10.661  0.2045  0.4582 -0.0563
  416MOL0     C57302   0.923   7.890  10.639 -0.0803  0.2097  0.0012
  416MOL0     C57303   0.955   7.966  10.521  0.4389  0.1517 -0.1901
  416MOL0     C57304   0.957   8.107  10.527  0.7720 -0.0213 -0.0286
  416MOL0     C57305   0.901   8.177  10.638  0.4681  0.4234 -0.5225
  416MOL0     O57306   0.900   8.314  10.655  0.5229 -0.1421  0.9321
  416MOL0     C57307   1.026   8.371  10.665 -0.9716 -0.3800 -1.1019
  416MOL0     C57308   1.096   8.356  10.804 -0.2479  0.3814 -0.1648
  416MOL0     C57309   1.013   8.408  10.922 -0.2202 -0.7064 -0.1063
  416MOL0     C57310   1.098   8.404  11.055 -1.1432  0.9771 -0.0484
  416MOL0     C57311   1.032   8.491  11.162 -0.5662 -0.4986 -0.6224
  416MOL0     C57312   0.886   8.475  11.193  1.0048 -0.7416 -0.3038
  416MOL0     C57313   0.847   8.579  11.298  0.9081  1.0042 -0.4090
  416MOL0     C57314   0.701   8.551  11.351 -0.2715  0.3965 -0.5924
  416MOL0    Cl57315   0.707   8.390  11.460 -0.0920  0.0884 -0.0614
  416MOL0     C57316   0.863   8.097  10.749  0.1317  0.0262 -0.6827
  416MOL0     C57317   0.882   7.959  10.748  0.3581  0.6714 -0.0938
  416MOL0     O57318   0.838   7.674  10.484  0.4978 -0.0412 -0.1047
  416MOL0     C57319   0.934   7.425  10.610 -1.0999 -0.9168  0.3098
  416MOL0     C57320   0.999   7.298  10.611  0.7469 -0.3631  0.5660
  416MOL0     N57321   1.626   6.742  10.749  0.4320  0.6470 -0.2054
  416MOL0     N57322   1.713   6.666  10.696 -0.2486  0.0636  0.1765
  416MOL0     C57323   2.332   6.650   9.758  0.2279  0.1512  0.4657
  416MOL0     C57324   2.413   6.587   9.669  0.1163 -1.0112 -0.2636
  416MOL0     C57325   2.616   6.324   9.344  0.8308 -0.6652 -0.5378
  416MOL0     C57326   2.523   6.286   9.244  0.6627 -0.2153  0.0613
  416MOL0     C57327   2.569   6.242   9.115  0.3238 -0.2176 -0.0861
  416MOL0     C57328   2.707   6.244   9.085 -0.1325 -0.2232 -0.2371
  416MOL0     O57329   2.731   6.232   8.956 -0.7451 -0.4580 -0.0543
  416MOL0     C57330   2.859   6.190   8.905 -0.6164  0.4864 -0.3196
  416MOL0     C57331   2.909   6.273   8.788  0.5983 -0.5193  0.4797
  416MOL0     C57332   2.816   6.298   8.673  0.0454 -0.0550 -0.8339
  416MOL0     C57333   2.884   6.377   8.554 -0.2040 -0.0099 -0.1102
  416MOL0     C57334   2.950   6.285   8.463  0.6281  0.4008 -0.1052
  416MOL0     C57335   2.992   6.199   8.394 -1.0018 -0.1856 -0.1794
  416MOL0     C57336   2.797   6.251   9.194 -1.0798  0.1810 -0.3346
  416MOL0     C57337   2.755   6.298   9.321 -0.4210  0.9641 -0.3490
  416MOL0     C57338   2.865   6.326   9.426  0.2546  0.0912  0.3175
  416MOL0     H57339   2.217   6.311   9.592  0.8802 -1.5329  3.5839
  416MOL0     H57340   2.061   6.451   9.722  0.8875  0.5148 -0.0776
  416MOL0     H57341   2.178   6.727  10.040  0.2683  0.0301  0.0885
  416MOL0     H57342   2.206   6.557  10.006  2.5972  2.0161  2.2896
  416MOL0     H57343   2.001   6.628  10.169  0.9964 -0.6379 -0.2750
  416MOL0     H57344   1.932   6.680  10.036  2.2367 -1.2773 -3.2801
  416MOL0     H57345   1.943   6.448   9.931  0.3096 -0.3628 -0.5424
  416MOL0     H57346   2.061   6.401  10.048 -0.1349 -1.7742  0.4997
  416MOL0     H57347   1.769   6.484  10.116 -2.1652 -2.9902 -1.3123
  416MOL0     H57348   1.814   6.318  10.072 -0.7829 -0.1891  0.9712
  416MOL0     H57349   1.940   6.441  10.309  2.4630 -0.7978 -1.4707
  416MOL0     H57350   1.955   6.280  10.248  2.8187  1.4590 -1.2046
  416MOL0     H57351   1.705   6.237  10.305 -1.3371  0.7376  1.7840
  416MOL0     H57352   1.803   6.277  10.432  0.6390  2.4807  0.7402
  416MOL0     H57353   1.604   6.369  10.465 -0.7327 -0.4560 -0.7392
  416MOL0     H57354   1.618   6.468  10.318  1.1411 -1.0436 -1.6942
  416MOL0     H57355   1.831   6.482  10.542  0.5919 -0.7192 -0.8230
  416MOL0     H57356   1.802   6.598  10.419 -1.6372  0.1811 -1.1471
  416MOL0     H57357   1.488   6.647  10.461  1.9432 -0.7066 -1.5720
  416MOL0     H57358   1.320   6.755  10.751  0.2023 -0.3829 -0.0733
  416MOL0     H57359   1.321   6.818  10.594  0.3970  1.7531  0.2829
  416MOL0     H57360   1.468   6.953  10.839  0.8831  3.2156 -0.2379
  416MOL0     H57361   1.446   7.021  10.675 -3.7909  1.5666 -0.9367
  416MOL0     H57362   1.221   6.981  10.880 -2.1970 -0.5082 -1.5751
  416MOL0     H57363   1.302   7.125  10.843 -1.4903 -0.2015  0.3203
  416MOL0     H57364   1.175   6.964  10.605 -4.5338 -0.7048 -1.1200
  416MOL0     H57365   1.066   7.059  10.698  0.6914 -0.7862  1.4168
  416MOL0     H57366   1.313   7.401  10.574  0.5027 -1.3737 -2.0637
  416MOL0     H57367   1.176   7.696  10.423  0.9321 -2.4186 -1.9467
  416MOL0     H57368   1.309   7.606  10.458 -0.4045  1.2086  0.3181
  416MOL0     H57369   1.259   7.692  10.594  1.8308 -1.0573 -0.3277
  416MOL0     H57370   0.985   7.914  10.431  0.8392  2.2619 -1.3379
  416MOL0     H57371   0.992   8.164  10.442  2.4732  0.2307  0.7953
  416MOL0     H57372   1.087   8.354  10.576 -1.5554  0.7402 -1.7298
  416MOL0     H57373   1.002   8.477  10.655 -3.4903 -0.7179  0.2756
  416MOL0     H57374   1.115   8.248  10.805 -3.3399 -0.2892 -1.8048
  416MOL0     H57375   1.189   8.414  10.806  0.5720 -0.9093  0.1957
  416MOL0     H57376   0.928   8.345  10.950 -0.9370 -0.1011 -0.8649
  416MOL0     H57377   0.987   8.512  10.900  1.1685 -0.2309  0.3787
  416MOL0     H57378   1.198   8.444  11.036 -0.3368 -2.4087 -4.7976
  416MOL0     H57379   1.101   8.300  11.090  1.0932  0.9523 -0.1617
  416MOL0     H57380   1.082   8.458  11.254 -2.2385 -1.5684 -0.0370
  416MOL0     H57381   1.077   8.589  11.148  0.5662 -0.5592  2.0431
  416MOL0     H57382   0.874   8.379  11.244 -3.2006 -0.5638 -0.5968
  416MOL0     H57383   0.822   8.485  11.105 -0.6347  5.0227  1.0950
  416MOL0     H57384   0.842   8.681  11.258  2.2696  0.7935 -1.1779
  416MOL0     H57385   0.921   8.588  11.378 -0.1220  1.9916  0.4802
  416MOL0     H57386   0.636   8.534  11.265  2.4325  0.5620 -2.8305
  416MOL0     H57387   0.666   8.632  11.414  1.2885  2.6554 -2.4603
  416MOL0     H57388   0.822   8.147  10.836  1.7662 -0.3303  0.3249
  416MOL0     H57389   0.882   7.905  10.842  2.1322  0.7887  0.0049
  416MOL0     H57390   0.828   7.436  10.630 -0.7007  2.5786  1.2028
  416MOL0     H57391   0.926   7.220  10.626 -0.7100  1.1507  1.8488
  416MOL0     H57392   2.367   6.739   9.810 -0.4872  0.0728  1.1022
  416MOL0     H57393   2.509   6.631   9.645 -0.4678 -0.5329 -1.8208
  416MOL0     H57394   2.416   6.288   9.264  0.6381 -1.7874  0.2196
  416MOL0     H57395   2.494   6.227   9.038  0.3218  0.1364 -0.1589
  416MOL0     H57396   2.939   6.188   8.980 -0.8957 -1.9066  0.0168
  416MOL0     H57397   2.844   6.084   8.879 -1.2685  0.9571 -1.9650
  416MOL0     H57398   2.983   6.217   8.730 -1.8778 -1.2871 -2.2129
  416MOL0     H57399   2.966   6.356   8.829  2.1987 -0.5972 -1.4967
  416MOL0     H57400   2.794   6.200   8.630  0.8704 -1.9450  2.7161
  416MOL0     H57401   2.722   6.337   8.714  1.3912  0.7421  1.6837
  416MOL0     H57402   2.963   6.438   8.600 -0.4548 -1.1659  1.9922
  416MOL0     H57403   2.822   6.442   8.492  0.0026 -1.4456 -1.8855
  416MOL0     H57404   3.039   6.134   8.323 -1.6925 -1.7634  0.7519
  416MOL0     H57405   2.902   6.229   9.185 -0.3510  2.6821  1.1231
  416MOL0     H57406   2.906   6.427   9.421 -0.2295  0.2709 -0.0908
  416MOL0     H57407   2.831   6.314   9.530  3.8374 -0.1713  1.6022
  416MOL0     H57408   2.942   6.253   9.401 -2.1663 -2.5953  0.0882
  417MOL0     O57409   9.028   0.245   4.601  0.2933  1.1539  0.0844
  417MOL0     C57410   9.097   0.350   4.595  0.1786  0.1116  0.2915
  417MOL0     O57411   9.057   0.470   4.644 -0.9501  0.0495 -1.1603
  417MOL0     C57412   8.962   0.473   4.741  0.2357  0.5733  0.4343
  417MOL0     C57413   8.997   0.490   4.873 -0.4033  1.0860 -1.0734
  417MOL0     C57414   8.897   0.493   4.969  0.1871  0.7527 -0.1609
  417MOL0     C57415   8.758   0.480   4.933  0.3080 -0.6987 -0.8668
  417MOL0     O57416   8.648   0.476   5.021 -0.4656 -0.0636 -0.4793
  417MOL0     C57417   8.664   0.514   5.152  1.1512 -0.1534  0.0449
  417MOL0     C57418   8.567   0.442   5.239 -0.3515 -0.4845  0.5970
  417MOL0     C57419   8.565   0.499   5.381 -0.1593  0.3952  0.3640
  417MOL0     C57420   8.436   0.490   5.465 -0.3228 -0.3116 -0.1354
  417MOL0     C57421   8.372   0.350   5.483 -0.5102 -0.3920  0.9355
  417MOL0     C57422   8.471   0.241   5.509 -0.5494  0.3363 -0.0928
  417MOL0     C57423   8.558   0.247   5.633  0.3153  0.2395 -0.5450
  417MOL0     C57424   8.615   0.110   5.677 -0.3985 -0.1960 -0.0059
  417MOL0     N57425   8.683   0.044   5.562  0.1598  0.0833 -0.0236
  417MOL0     C57426   8.683  -0.096   5.547  0.6500 -1.1227 -0.6794
  417MOL0     C57427   8.777  -0.126   5.458 -1.1249  0.0424 -0.3340
  417MOL0     C57428   8.793  -0.275   5.406 -0.0262 -0.1862 -0.0448
  417MOL0     C57429   8.919  -0.290   5.322  0.6072 -0.6040  0.4852
  417MOL0     C57430   8.912  -0.428   5.243 -0.0119  0.0438 -0.6868
  417MOL0     C57431   9.043  -0.468   5.172  0.2220 -0.4375  0.5179
  417MOL0     O57432   9.094  -0.361   5.090 -0.2105  0.4670 -0.1093
  417MOL0     C57433   9.191  -0.385   5.000 -0.4327 -0.1817 -0.9514
  417MOL0     C57434   9.269  -0.503   4.983 -0.5203 -0.2668 -0.5179
  417MOL0     C57435   9.380  -0.505   4.893 -0.1912 -0.5612  0.6316
  417MOL0     C57436   9.457  -0.639   4.881  1.2355 -0.0663 -0.2527
  417MOL0     C57437   9.408  -0.398   4.806  0.2612 -1.0260  0.2865
  417MOL0     C57438   9.511  -0.400   4.696 -0.3621  0.0342  0.4427
  417MOL0     O57439   9.628  -0.453   4.718 -0.6828 -0.5548  0.3105
  417MOL0     C57440   9.746  -0.423   4.647 -0.2358  0.3137  0.3065
  417MOL0     C57441   9.820  -0.305   4.671  0.2168  0.9430  0.6563
  417MOL0     C57442   9.940  -0.294   4.610 -0.9087 -0.1592  0.3434
  417MOL0     C57443   9.995  -0.396   4.519 -0.2562 -0.5883 -0.7650
  417MOL0     O57444  10.125  -0.363   4.489 -0.1325 -0.6701  0.1344
  417MOL0     C57445  10.165  -0.431   4.370  0.4799 -0.6854 -0.2170
  417MOL0     C57446  10.310  -0.385   4.338 -0.2815 -0.3312 -0.8746
  417MOL0     C57447  10.406  -0.437   4.438 -0.0151  0.3281  1.5480
  417MOL0     C57448  10.536  -0.361   4.426 -0.5034 -1.1393 -0.4969
  417MOL0     C57449  10.630  -0.432   4.525  0.5204  0.6659  0.2730
  417MOL0     C57450  10.769  -0.386   4.496  0.5084  0.7696 -0.1108
  417MOL0     C57451  10.875  -0.488   4.543 -0.3271 -0.2735 -0.4580
  417MOL0     C57452  11.012  -0.426   4.527  0.1912 -0.5732 -0.4416
  417MOL0    Cl57453  11.112  -0.505   4.660  0.3074 -0.0731  0.2532
  417MOL0     C57454   9.912  -0.504   4.487 -0.0040 -0.4113  0.1078
  417MOL0     C57455   9.789  -0.521   4.551 -0.4423 -0.4610  0.7839
  417MOL0     O57456   9.492  -0.313   4.602  0.5260 -0.3365  0.3859
  417MOL0     C57457   9.336  -0.286   4.838 -0.3313  0.8770  1.1149
  417MOL0     C57458   9.226  -0.275   4.923  0.2292 -0.6868 -0.2772
  417MOL0     N57459   8.843  -0.015   5.418 -0.5075  0.0223 -0.1824
  417MOL0     N57460   8.783   0.083   5.489 -0.5712 -0.1720 -0.3995
  417MOL0     C57461   8.719   0.446   4.804  0.1416 -0.0962 -0.6273
  417MOL0     C57462   8.824   0.444   4.711  0.7911  0.6782  0.7742
  417MOL0     C57463   9.201   0.355   4.494 -0.5731 -0.8128 -0.1039
  417MOL0     C57464   9.191   0.277   4.376  0.2084  0.2543 -0.5436
  417MOL0     C57465   9.282   0.295   4.275  0.3384 -0.0519 -0.6683
  417MOL0     C57466   9.392   0.384   4.294 -1.2272  0.7103 -0.2769
  417MOL0     O57467   9.477   0.401   4.195  0.1354  0.0911  0.0290
  417MOL0     C57468   9.531   0.281   4.133  0.3257 -0.0810 -0.7777
  417MOL0     C57469   9.632   0.309   4.018 -0.2798 -0.7324  0.2577
  417MOL0     C57470   9.748   0.399   4.058 -0.1257 -0.7950 -1.5171
  417MOL0     C57471   9.719   0.545   4.015  0.8243  0.7107 -0.5196
  417MOL0     C57472   9.739   0.562   3.870  0.0325  0.3439  0.5805
  417MOL0     C57473   9.744   0.598   3.749  0.0117  0.3517  0.1697
  417MOL0     C57474   9.410   0.439   4.421  0.0976 -0.6652  0.1489
  417MOL0     C57475   9.319   0.435   4.518 -0.1240  0.0822 -0.4778
  417MOL0     C57476   9.359   0.494   4.648  0.8739  0.2786 -0.0664
  417MOL0     H57477   9.100   0.508   4.903 -0.7969  0.1891  0.9776
  417MOL0     H57478   8.920   0.518   5.071 -0.2650  1.9229 -0.3268
  417MOL0     H57479   8.649   0.622   5.168  1.9933 -0.3908  3.1731
  417MOL0     H57480   8.758   0.478   5.195  1.4443 -0.2045 -0.6380
  417MOL0     H57481   8.464   0.447   5.201 -0.5333  0.4196  1.1844
  417MOL0     H57482   8.573   0.333   5.241 -1.6881 -0.6344 -0.8013
  417MOL0     H57483   8.649   0.461   5.439  0.0945  4.0074  2.7186
  417MOL0     H57484   8.585   0.607   5.378  0.6649  0.3494  2.6610
  417MOL0     H57485   8.468   0.530   5.562 -2.3000  0.6353  0.1541
  417MOL0     H57486   8.363   0.559   5.422 -0.1825  1.6147  2.4437
  417MOL0     H57487   8.318   0.331   5.390  0.3506  0.7241  0.1896
  417MOL0     H57488   8.296   0.351   5.562  0.5767  4.1938  2.2425
  417MOL0     H57489   8.412   0.151   5.526 -2.8329  1.9878  1.3180
  417MOL0     H57490   8.544   0.237   5.428  1.3406  1.5813  1.4573
  417MOL0     H57491   8.507   0.294   5.717 -1.2861  0.4942 -1.6213
  417MOL0     H57492   8.647   0.311   5.626 -0.0979  1.4353  3.0480
  417MOL0     H57493   8.691   0.125   5.754  1.0906  0.0721 -1.4672
  417MOL0     H57494   8.535   0.042   5.709 -0.4739  0.2178  0.7038
  417MOL0     H57495   8.617  -0.164   5.600  1.8664  1.1663  4.3522
  417MOL0     H57496   8.702  -0.300   5.350 -0.4362  0.0485  0.5077
  417MOL0     H57497   8.799  -0.340   5.493  0.6396  4.0629  3.4490
  417MOL0     H57498   8.903  -0.209   5.250 -1.5643 -0.6673  0.8327
  417MOL0     H57499   9.004  -0.279   5.391 -0.0993 -1.5626  1.5205
  417MOL0     H57500   8.870  -0.499   5.315 -0.7774  1.1438 -0.0303
  417MOL0     H57501   8.832  -0.418   5.169  0.0865  0.1834 -0.7744
  417MOL0     H57502   9.128  -0.502   5.232 -0.0300 -1.2199  0.4433
  417MOL0     H57503   9.015  -0.549   5.105 -0.7347  0.7781 -0.6048
  417MOL0     H57504   9.242  -0.600   5.022  2.9567 -0.0154  3.1657
  417MOL0     H57505   9.408  -0.679   4.791 -0.4661  2.5150 -0.5728
  417MOL0     H57506   9.446  -0.700   4.971  0.4183  0.5944  0.1032
  417MOL0     H57507   9.563  -0.636   4.855  1.4584  1.9885  0.7149
  417MOL0     H57508   9.787  -0.224   4.736  0.3989 -0.6720  2.8809
  417MOL0     H57509   9.982  -0.196   4.628 -1.8284  0.3711 -0.3054
  417MOL0     H57510  10.151  -0.540   4.376 -1.4571 -0.4541  0.1994
  417MOL0     H57511  10.103  -0.404   4.283  0.9629 -3.7733 -1.6523
  417MOL0     H57512  10.346  -0.422   4.242  0.8081 -0.6202 -0.3625
  417MOL0     H57513  10.305  -0.276   4.333 -0.8972 -0.1831  1.5702
  417MOL0     H57514  10.425  -0.543   4.418 -0.1126  0.7057 -0.7459
  417MOL0     H57515  10.367  -0.419   4.539 -0.7095 -0.2362  1.3879
  417MOL0     H57516  10.522  -0.254   4.443 -1.6248 -1.5266  1.2034
  417MOL0     H57517  10.575  -0.375   4.324  3.0102 -2.4665  0.8738
  417MOL0     H57518  10.599  -0.403   4.626  0.2668  2.6151 -0.3148
  417MOL0     H57519  10.631  -0.541   4.516 -2.9094  0.4887  0.5723
  417MOL0     H57520  10.795  -0.290   4.543  1.1910  2.0006 -2.8344
  417MOL0     H57521  10.778  -0.384   4.387 -1.6593 -1.9362 -0.4340
  417MOL0     H57522  10.870  -0.581   4.486  1.8645  0.9877 -2.9271
  417MOL0     H57523  10.849  -0.494   4.649 -1.2683 -0.5068 -0.6911
  417MOL0     H57524  11.004  -0.320   4.551 -0.1139 -0.9421  1.1595
  417MOL0     H57525  11.057  -0.447   4.429  1.4550 -0.7440  0.1601
  417MOL0     H57526   9.927  -0.590   4.423 -2.1702  0.2055 -1.3324
  417MOL0     H57527   9.718  -0.601   4.532 -0.6488  0.1253 -1.1766
  417MOL0     H57528   9.359  -0.204   4.770 -2.1301 -0.4307 -1.2064
  417MOL0     H57529   9.167  -0.184   4.931  0.6698 -0.2500 -1.7698
  417MOL0     H57530   8.616   0.422   4.779  1.1311 -1.5569 -4.0126
  417MOL0     H57531   8.797   0.431   4.607  1.8701  0.8691  0.4615
  417MOL0     H57532   9.111   0.207   4.353 -2.2982  2.9091 -0.4539
  417MOL0     H57533   9.270   0.243   4.181  2.7622 -0.3966 -0.8448
  417MOL0     H57534   9.575   0.221   4.213 -2.9618 -1.1293  0.4157
  417MOL0     H57535   9.449   0.216   4.100  1.1288 -3.1588  2.7064
  417MOL0     H57536   9.587   0.351   3.928  1.7918 -3.1937 -2.1019
  417MOL0     H57537   9.669   0.209   3.991 -2.3302 -1.7138  0.8837
  417MOL0     H57538   9.769   0.407   4.165 -1.3134  1.0490 -1.3838
  417MOL0     H57539   9.827   0.354   3.998 -0.9281 -3.7016 -0.5503
  417MOL0     H57540   9.794   0.616   4.052  0.9646  2.1905 -3.3656
  417MOL0     H57541   9.619   0.576   4.045  0.2468  0.5678 -2.2051
  417MOL0     H57542   9.759   0.632   3.649 -0.0832  0.1472  0.0857
  417MOL0     H57543   9.500   0.499   4.419 -1.5871  2.2914  2.9765
  417MOL0     H57544   9.467   0.511   4.648  0.9731 -0.1285 -1.8409
  417MOL0     H57545   9.299   0.584   4.665 -1.1904 -0.4499 -2.8512
  417MOL0     H57546   9.346   0.420   4.727 -0.5844 -0.6090 -1.0935
  418MOL0     O57547   4.503   1.027   2.429  0.0144  0.8584 -0.8826
  418MOL0     C57548   4.418   1.029   2.348  0.5978 -0.5097 -0.3281
  418MOL0     O57549   4.429   1.067   2.223  0.3864 -0.7104  0.1665
  418MOL0     C57550   4.547   1.119   2.172 -0.3133  0.3951  1.2275
  418MOL0     C57551   4.630   1.028   2.114 -0.2159 -1.0686  0.6611
  418MOL0     C57552   4.758   1.080   2.069  0.2006  0.6586  0.0236
  418MOL0     C57553   4.785   1.210   2.073 -0.5089 -1.0017 -0.0555
  418MOL0     O57554   4.904   1.243   2.012  0.1199 -0.1305  0.3251
  418MOL0     C57555   4.985   1.323   2.102 -0.1110 -1.3241 -0.6315
  418MOL0     C57556   5.133   1.320   2.069 -0.7460  1.1215 -0.5887
  418MOL0     C57557   5.178   1.171   2.058 -0.0620 -0.0961  0.1079
  418MOL0     C57558   5.151   1.074   2.181 -0.2460 -0.4782  0.7705
  418MOL0     C57559   5.211   1.119   2.304  0.2111 -0.5132  0.5388
  418MOL0     C57560   5.367   1.139   2.289 -0.3988 -0.6169  0.0845
  418MOL0     C57561   5.447   1.122   2.419 -0.8379 -0.0859  0.3687
  418MOL0     C57562   5.593   1.171   2.397  0.2377 -1.1813  0.4018
  418MOL0     N57563   5.669   1.110   2.291  0.3701 -0.2438  0.0940
  418MOL0     C57564   5.711   1.172   2.176  0.0408 -1.0854  0.8687
  418MOL0     C57565   5.800   1.088   2.120 -0.2649 -0.1353  0.8890
  418MOL0     C57566   5.860   1.136   1.988 -0.5797  0.2229 -0.5048
  418MOL0     C57567   6.002   1.168   2.020 -0.5265  1.0468  0.1147
  418MOL0     C57568   6.060   1.209   1.885 -0.3723 -1.0646  0.6693
  418MOL0     C57569   6.214   1.243   1.908 -0.7973 -0.6718  0.3665
  418MOL0     O57570   6.235   1.350   1.999  0.4602 -0.2174 -0.0318
  418MOL0     C57571   6.351   1.421   1.984  0.1344  0.3977 -0.3035
  418MOL0     C57572   6.368   1.506   1.885  0.3001 -0.1753  0.0346
  418MOL0     C57573   6.490   1.576   1.872  0.7217  1.1904  0.5889
  418MOL0     C57574   6.500   1.658   1.752 -1.0035  0.4388  0.5786
  418MOL0     C57575   6.592   1.561   1.963 -0.6556  0.2601 -0.2507
  418MOL0     C57576   6.722   1.638   1.966 -1.4321  0.3647 -0.4590
  418MOL0     O57577   6.715   1.770   1.913 -0.5088  0.2911  0.1626
  418MOL0     C57578   6.822   1.841   1.882 -0.4509  1.2799 -0.3719
  418MOL0     C57579   6.863   1.938   1.963 -0.1636 -0.4625 -1.2555
  418MOL0     C57580   6.968   2.023   1.931  0.2507 -0.0951 -0.2918
  418MOL0     C57581   7.022   2.021   1.804 -0.7287  0.6112  1.5277
  418MOL0     O57582   7.123   2.110   1.777 -0.4599 -0.2188 -0.5143
  418MOL0     C57583   7.187   2.111   1.645 -0.2652  0.3187 -0.9316
  418MOL0     C57584   7.305   2.014   1.648 -0.5197 -0.3219 -0.2226
  418MOL0     C57585   7.411   2.036   1.529 -0.6436 -0.1055 -1.2581
  418MOL0     C57586   7.341   2.017   1.393  0.1044  0.3507 -0.5184
  418MOL0     C57587   7.432   2.053   1.271 -0.3798  0.5495 -0.1664
  418MOL0     C57588   7.561   1.977   1.253  0.2942 -0.2653  1.8534
  418MOL0     C57589   7.523   1.831   1.229 -0.4971 -0.9351 -0.5449
  418MOL0     C57590   7.641   1.738   1.184  0.0659  0.1741 -0.0049
  418MOL0    Cl57591   7.726   1.791   1.050  0.0557 -0.2906  0.2872
  418MOL0     C57592   6.983   1.921   1.712  0.0161 -0.3495 -0.1176
  418MOL0     C57593   6.886   1.823   1.752 -0.6031 -0.0382 -0.1841
  418MOL0     O57594   6.829   1.580   2.011  0.1403  0.2804 -0.3833
  418MOL0     C57595   6.572   1.459   2.061 -0.0103 -0.3788 -0.4141
  418MOL0     C57596   6.442   1.402   2.083  0.3523  0.2715  1.1556
  418MOL0     N57597   5.812   0.973   2.195  0.0107 -0.0459  0.1424
  418MOL0     N57598   5.724   0.984   2.293 -0.2858 -0.6466  0.9990
  418MOL0     C57599   4.692   1.304   2.129  0.6086 -0.6324 -0.7096
  418MOL0     C57600   4.574   1.249   2.177  0.4168 -0.0575 -0.4391
  418MOL0     C57601   4.271   0.982   2.377 -0.1328  0.3018 -0.3162
  418MOL0     C57602   4.171   0.986   2.279  0.9964 -0.1065  0.3870
  418MOL0     C57603   4.033   0.973   2.305  0.0517  0.2612 -0.8285
  418MOL0     C57604   3.988   0.949   2.432 -0.3123 -0.1102 -0.3792
  418MOL0     O57605   3.856   0.986   2.444  0.3749 -0.0675 -0.5412
  418MOL0     C57606   3.829   1.110   2.499 -0.3080  0.2045  0.1766
  418MOL0     C57607   3.785   1.214   2.402 -0.6489  0.3270  0.3083
  418MOL0     C57608   3.682   1.172   2.301  0.0983  0.6303 -0.3205
  418MOL0     C57609   3.651   1.305   2.225  0.0480  0.5024  1.1058
  418MOL0     C57610   3.509   1.321   2.201  0.1954  0.0942  0.4253
  418MOL0     C57611   3.388   1.361   2.191  0.1039 -0.8847  0.6282
  418MOL0     C57612   4.086   0.911   2.529 -0.2731  0.3804 -0.4165
  418MOL0     C57613   4.227   0.919   2.501 -0.9532 -0.2280 -1.2486
  418MOL0     C57614   4.319   0.874   2.609  0.6451  1.1563 -0.2123
  418MOL0     H57615   4.592   0.929   2.092 -2.3365  0.0323 -1.0318
  418MOL0     H57616   4.826   1.013   2.017  0.9794  1.9200 -0.6094
  418MOL0     H57617   4.965   1.303   2.207  1.4289  0.5406  0.0792
  418MOL0     H57618   4.948   1.425   2.090 -1.4759 -1.7753 -0.3953
  418MOL0     H57619   5.149   1.366   1.971  0.0383 -1.0805 -1.5400
  418MOL0     H57620   5.193   1.376   2.142  0.8200  0.9825 -1.7206
  418MOL0     H57621   5.125   1.129   1.972  2.8530 -3.0709 -0.4655
  418MOL0     H57622   5.285   1.175   2.037 -0.0743  0.3001  0.1147
  418MOL0     H57623   5.044   1.058   2.199 -0.5241 -3.4362 -2.6102
  418MOL0     H57624   5.183   0.975   2.147 -2.3251 -0.6767 -0.8373
  418MOL0     H57625   5.189   1.046   2.382  0.4577 -3.1023 -1.6633
  418MOL0     H57626   5.171   1.214   2.342  1.5672 -0.0905  0.9923
  418MOL0     H57627   5.400   1.053   2.230 -0.1463 -2.4106  2.6604
  418MOL0     H57628   5.394   1.235   2.243  3.0407 -0.7547  1.4755
  418MOL0     H57629   5.447   1.020   2.455 -1.9062  0.8786  3.3754
  418MOL0     H57630   5.399   1.196   2.484 -2.5623  0.9458 -1.8933
  418MOL0     H57631   5.599   1.280   2.388 -2.8694 -0.9340  0.1144
  418MOL0     H57632   5.641   1.139   2.490  4.4739  2.2616 -0.2966
  418MOL0     H57633   5.677   1.271   2.146  1.5533 -0.6720  0.4481
  418MOL0     H57634   5.813   1.231   1.961 -0.4474 -0.0476 -1.7233
  418MOL0     H57635   5.858   1.064   1.906 -1.3440  0.2735 -0.5396
  418MOL0     H57636   6.014   1.244   2.098 -0.4287  0.9257  0.2169
  418MOL0     H57637   6.045   1.080   2.068 -3.5936 -0.5122  0.2088
  418MOL0     H57638   6.054   1.121   1.820  1.6497 -1.8266  1.4090
  418MOL0     H57639   6.001   1.290   1.842  1.0363 -0.5676 -0.4091
  418MOL0     H57640   6.253   1.148   1.946  3.1853  1.2260  1.4984
  418MOL0     H57641   6.253   1.264   1.808 -1.7558  1.0689  0.3370
  418MOL0     H57642   6.285   1.512   1.815  1.0633 -0.2568 -0.8935
  418MOL0     H57643   6.518   1.761   1.786  2.9863  0.3279 -0.7037
  418MOL0     H57644   6.404   1.655   1.701  0.1492  2.7457 -1.9691
  418MOL0     H57645   6.576   1.619   1.683 -0.3192  0.5590  1.2427
  418MOL0     H57646   6.812   1.971   2.053  2.3510  0.1904  0.0148
  418MOL0     H57647   6.999   2.104   1.996  1.3885  0.2601 -1.2577
  418MOL0     H57648   7.120   2.104   1.558  0.3213 -3.6531 -1.2452
  418MOL0     H57649   7.227   2.212   1.644 -1.6750  0.9074 -1.5207
  418MOL0     H57650   7.365   2.026   1.739  4.0893 -0.0691 -2.9613
  418MOL0     H57651   7.260   1.915   1.651  0.4970 -0.8405 -1.5405
  418MOL0     H57652   7.492   1.964   1.545 -0.5973  0.3129  0.5926
  418MOL0     H57653   7.452   2.137   1.539  1.0026 -0.6996 -1.6341
  418MOL0     H57654   7.250   2.077   1.383 -0.4741 -0.6961 -1.7697
  418MOL0     H57655   7.322   1.909   1.389  2.3894 -0.1292  0.2338
  418MOL0     H57656   7.377   2.054   1.176 -0.6554  0.5620 -0.0050
  418MOL0     H57657   7.475   2.153   1.283  3.2352 -0.8219 -0.3679
  418MOL0     H57658   7.623   2.006   1.338 -1.2607  0.2361  2.8375
  418MOL0     H57659   7.608   2.013   1.160 -4.4162  0.8927 -0.3791
  418MOL0     H57660   7.438   1.819   1.161  0.0629 -0.9472 -1.2523
  418MOL0     H57661   7.490   1.786   1.323  3.1339 -3.1288 -0.1423
  418MOL0     H57662   7.597   1.639   1.165 -3.8934  2.1097 -2.2346
  418MOL0     H57663   7.712   1.732   1.267  2.5502 -1.1844 -2.0580
  418MOL0     H57664   7.025   1.913   1.613  1.2639 -2.4623  0.5158
  418MOL0     H57665   6.859   1.743   1.684 -2.1413  0.6392 -0.4214
  418MOL0     H57666   6.654   1.435   2.128  0.9916 -0.9923 -1.8114
  418MOL0     H57667   6.420   1.332   2.162 -0.1840  1.9434  2.5540
  418MOL0     H57668   4.703   1.411   2.137 -1.2136 -0.4982  0.6322
  418MOL0     H57669   4.503   1.328   2.199 -0.0768  0.5717 -3.7853
  418MOL0     H57670   4.213   0.998   2.180  2.7956 -4.4973  0.3665
  418MOL0     H57671   3.963   1.010   2.232  1.1957  3.2398 -0.5476
  418MOL0     H57672   3.746   1.088   2.567  1.5077 -2.4288  1.7554
  418MOL0     H57673   3.920   1.143   2.550  1.7206  1.4221 -3.7807
  418MOL0     H57674   3.875   1.239   2.345 -0.5639  0.1705  0.3735
  418MOL0     H57675   3.760   1.302   2.463  1.0929  1.4493 -0.5198
  418MOL0     H57676   3.736   1.102   2.236 -2.8635 -0.9418 -1.2940
  418MOL0     H57677   3.596   1.120   2.344  0.3406 -0.0427 -0.6285
  418MOL0     H57678   3.712   1.306   2.135  0.8601  1.6791  1.6423
  418MOL0     H57679   3.680   1.396   2.280 -1.6298  0.9528  1.2919
  418MOL0     H57680   3.290   1.402   2.180 -0.6304 -1.9181  2.8067
  418MOL0     H57681   4.052   0.896   2.631 -0.7742  0.7442 -0.5250
  418MOL0     H57682   4.272   0.797   2.671  4.4358  0.5243  2.1856
  418MOL0     H57683   4.413   0.831   2.575  1.4519  0.8813  2.2262
  418MOL0     H57684   4.335   0.950   2.686  0.6776 -0.8389  1.8427
  419MOL0     O57685   4.684   9.701   2.539 -0.2109  0.5529  0.9372
  419MOL0     C57686   4.695   9.587   2.510  0.4157  0.3491  0.3440
  419MOL0     O57687   4.785   9.538   2.421  0.0476 -0.3058  0.4737
  419MOL0     C57688   4.808   9.614   2.304  0.3489 -0.2344  0.1346
  419MOL0     C57689   4.930   9.587   2.244  0.1986  0.0739 -0.5159
  419MOL0     C57690   4.956   9.640   2.114 -0.0878  0.2593 -0.7306
  419MOL0     C57691   4.877   9.738   2.058 -0.6616 -0.5918 -0.7074
  419MOL0     O57692   4.920   9.805   1.943 -0.0568  0.2568 -0.3557
  419MOL0     C57693   4.853   9.920   1.898  0.3202 -0.2353 -0.4866
  419MOL0     C57694   4.959  10.001   1.833 -1.2297  0.5598  0.7862
  419MOL0     C57695   4.904  10.107   1.734  0.2387  0.1462  0.6870
  419MOL0     C57696   5.015  10.136   1.638  0.8596 -0.5973  1.4596
  419MOL0     C57697   4.983  10.250   1.536  0.0232  0.1856 -1.1493
  419MOL0     C57698   4.907  10.375   1.596 -0.7907 -0.8491 -0.0223
  419MOL0     C57699   4.910  10.499   1.511 -0.1374  0.4750  0.3755
  419MOL0     C57700   5.048  10.568   1.520  0.5675  0.5805  0.2367
  419MOL0     N57701   5.054  10.652   1.633  0.1996 -0.6462  0.1240
  419MOL0     C57702   5.041  10.631   1.765  0.2400 -0.5934 -0.1746
  419MOL0     C57703   5.039  10.753   1.825 -0.2733 -0.4453 -0.3074
  419MOL0     C57704   5.055  10.799   1.966 -0.3292 -0.4082  0.3436
  419MOL0     C57705   5.046  10.699   2.086 -0.0963  0.9046  0.2166
  419MOL0     C57706   5.044  10.756   2.221  0.4373 -0.3075 -0.7194
  419MOL0     C57707   5.052  10.652   2.319 -0.2521  0.2346  0.0550
  419MOL0     O57708   4.926  10.590   2.352 -0.0128  0.1199  0.1560
  419MOL0     C57709   4.926  10.497   2.462 -0.5728 -0.0696 -0.7030
  419MOL0     C57710   5.032  10.406   2.496  0.6205 -0.6800  0.2581
  419MOL0     C57711   5.018  10.294   2.580 -1.1166 -1.0354 -0.7118
  419MOL0     C57712   5.156  10.226   2.609 -0.4731  0.7215  0.0854
  419MOL0     C57713   4.897  10.281   2.651  0.2715 -0.0207  0.5533
  419MOL0     C57714   4.876  10.167   2.746  0.9812  0.0879  0.5075
  419MOL0     O57715   4.774  10.186   2.840  0.3165 -0.7413  0.0533
  419MOL0     C57716   4.707  10.078   2.906 -0.3385 -0.0808  0.2189
  419MOL0     C57717   4.735   9.942   2.884  1.0768 -0.3858  1.0116
  419MOL0     C57718   4.668   9.854   2.971  0.1420 -0.3744  0.1973
  419MOL0     C57719   4.587   9.891   3.079 -0.6554 -0.1983  1.0900
  419MOL0     O57720   4.525   9.801   3.160 -0.4054  0.9536 -0.1187
  419MOL0     C57721   4.581   9.801   3.291 -0.1412  0.3106 -0.4731
  419MOL0     C57722   4.716   9.729   3.292 -0.4387 -0.5294  0.0630
  419MOL0     C57723   4.774   9.733   3.429 -1.4393  0.3992 -0.6325
  419MOL0     C57724   4.907   9.652   3.420  0.6460 -0.4844  0.1230
  419MOL0     C57725   4.987   9.667   3.551  0.1210  1.2958 -1.3674
  419MOL0     C57726   5.120   9.583   3.533  0.7323 -1.0231  0.1746
  419MOL0     C57727   5.196   9.615   3.653 -0.3530 -0.5264  0.2046
  419MOL0     C57728   5.318   9.526   3.666 -0.1056 -0.4597 -0.8396
  419MOL0    Cl57729   5.415   9.521   3.522 -0.0378 -0.6691  0.0825
  419MOL0     C57730   4.580  10.026   3.100  0.7139  1.0425 -0.1845
  419MOL0     C57731   4.634  10.121   3.014 -0.1804  0.2359 -0.4053
  419MOL0     O57732   4.952  10.068   2.735  1.4845  0.0524  0.1720
  419MOL0     C57733   4.785  10.371   2.620 -0.3737 -0.1997 -0.0220
  419MOL0     C57734   4.805  10.480   2.529 -0.0548  0.6265  0.7123
  419MOL0     N57735   5.048  10.846   1.730 -0.3409 -0.8932  0.3616
  419MOL0     N57736   5.057  10.787   1.618  0.3961 -0.3451 -0.6519
  419MOL0     C57737   4.761   9.774   2.121 -0.6208  0.7019 -0.1397
  419MOL0     C57738   4.712   9.700   2.236 -0.3024 -0.1614  0.1955
  419MOL0     C57739   4.612   9.484   2.578 -0.2001 -0.3264  1.0879
  419MOL0     C57740   4.631   9.343   2.549 -1.1550  0.1816  0.3896
  419MOL0     C57741   4.545   9.244   2.588  0.6007  0.4189 -0.0304
  419MOL0     C57742   4.430   9.276   2.660 -0.4548 -0.8776  0.1146
  419MOL0     O57743   4.347   9.181   2.711 -0.4027  1.4893 -0.4034
  419MOL0     C57744   4.349   9.046   2.658  0.9098  0.5685 -0.7617
  419MOL0     C57745   4.247   8.975   2.738  0.6063  0.6139 -0.1707
  419MOL0     C57746   4.101   9.002   2.696  1.2846 -0.0187 -0.2404
  419MOL0     C57747   4.025   9.112   2.775  0.9432 -0.3229  0.1013
  419MOL0     C57748   3.887   9.136   2.727 -0.0456  0.2824 -0.4790
  419MOL0     C57749   3.768   9.143   2.688 -0.9594 -0.0572 -0.6457
  419MOL0     C57750   4.422   9.409   2.706  0.5034  0.2727  0.0715
  419MOL0     C57751   4.508   9.518   2.660  0.2597 -0.2302  0.5784
  419MOL0     C57752   4.482   9.659   2.713 -0.0235  0.1395  0.0601
  419MOL0     H57753   5.014   9.530   2.283  0.5249  0.3117 -0.8597
  419MOL0     H57754   5.045   9.627   2.054  1.3296  1.2791  1.0479
  419MOL0     H57755   4.820   9.982   1.982  0.0453 -2.5082  1.1592
  419MOL0     H57756   4.776   9.893   1.825 -0.7978 -1.3767  1.0667
  419MOL0     H57757   5.015  10.038   1.919 -3.3615  0.5730  2.2536
  419MOL0     H57758   5.009   9.918   1.782 -0.9038  0.8267  0.6697
  419MOL0     H57759   4.812  10.073   1.684  0.8700  0.5443 -0.7911
  419MOL0     H57760   4.870  10.195   1.789 -0.1278  0.2251  0.3430
  419MOL0     H57761   5.108  10.168   1.687 -0.5480  1.9688  2.6795
  419MOL0     H57762   5.044  10.043   1.589  0.7289 -0.3527  0.9086
  419MOL0     H57763   4.915  10.203   1.464 -1.4536 -0.2099  0.4276
  419MOL0     H57764   5.075  10.281   1.486  1.1519 -0.1691  0.6046
  419MOL0     H57765   4.802  10.343   1.603 -1.6509  1.1909 -2.0591
  419MOL0     H57766   4.951  10.390   1.695  2.7286 -1.0074 -1.4084
  419MOL0     H57767   4.832  10.574   1.526 -0.7503  0.4652 -2.3538
  419MOL0     H57768   4.897  10.460   1.410  1.1591 -1.5524  0.9274
  419MOL0     H57769   5.135  10.503   1.518 -0.1422 -0.3659 -0.6706
  419MOL0     H57770   5.051  10.629   1.429  1.4112  0.7375  0.3572
  419MOL0     H57771   5.035  10.536   1.817  0.7191 -1.5638 -1.8502
  419MOL0     H57772   4.974  10.872   1.978  0.4064  0.4839 -0.0374
  419MOL0     H57773   5.151  10.849   1.978 -2.0144  2.4819  3.5451
  419MOL0     H57774   4.956  10.637   2.077  1.8477 -1.9765 -0.8435
  419MOL0     H57775   5.131  10.630   2.079 -1.8422 -1.4063  0.4465
  419MOL0     H57776   5.133  10.815   2.246 -0.6984  0.6858  1.2194
  419MOL0     H57777   4.958  10.821   2.240  0.6428 -0.2039 -0.1129
  419MOL0     H57778   5.125  10.577   2.288 -1.6227  0.1341 -3.3460
  419MOL0     H57779   5.090  10.680   2.418  0.3913 -2.9216  0.7861
  419MOL0     H57780   5.114  10.400   2.425  1.0275 -0.5087  0.6996
  419MOL0     H57781   5.145  10.124   2.569  0.7850  0.5272  0.2199
  419MOL0     H57782   5.177  10.215   2.716  0.0507 -2.6402 -0.2340
  419MOL0     H57783   5.242  10.266   2.555 -1.5503  1.7769 -0.8983
  419MOL0     H57784   4.798   9.901   2.806  0.6875 -1.1434  1.0899
  419MOL0     H57785   4.683   9.749   2.949  1.3626 -0.1883  0.0195
  419MOL0     H57786   4.590   9.899   3.339 -0.1243 -0.7730  1.8374
  419MOL0     H57787   4.500   9.754   3.347  1.4047 -0.3039  1.3569
  419MOL0     H57788   4.701   9.622   3.271 -0.2659 -0.6895  0.7315
  419MOL0     H57789   4.783   9.773   3.218 -0.3143  0.3241  0.6740
  419MOL0     H57790   4.713   9.677   3.500  0.5094 -0.4503  0.4289
  419MOL0     H57791   4.789   9.839   3.453 -2.3759  1.4996 -4.1680
  419MOL0     H57792   4.966   9.689   3.335  0.8037 -1.4062 -0.1822
  419MOL0     H57793   4.889   9.546   3.400 -2.0646  0.4507 -3.2710
  419MOL0     H57794   5.010   9.773   3.561  2.1324  1.0011 -2.3504
  419MOL0     H57795   4.933   9.626   3.637 -0.2597  4.2045 -0.1147
  419MOL0     H57796   5.172   9.624   3.446 -0.5545  3.1922  1.1691
  419MOL0     H57797   5.103   9.475   3.519  1.8338 -0.8617 -3.1315
  419MOL0     H57798   5.136   9.589   3.741 -1.8905  0.5293 -0.4964
  419MOL0     H57799   5.223   9.720   3.666 -0.1380 -0.7382  1.6651
  419MOL0     H57800   5.297   9.422   3.693 -1.8221  0.3694  1.3206
  419MOL0     H57801   5.378   9.584   3.736  0.0097  1.6795 -2.5949
  419MOL0     H57802   4.521  10.053   3.187  1.9187 -0.0191  0.9994
  419MOL0     H57803   4.610  10.224   3.036 -1.4905  1.2603 -5.3123
  419MOL0     H57804   4.694  10.368   2.679 -0.7287 -2.9364 -0.6195
  419MOL0     H57805   4.722  10.546   2.506 -0.5969 -0.4574 -0.5317
  419MOL0     H57806   4.689   9.843   2.079 -0.9018 -1.4411 -3.6098
  419MOL0     H57807   4.617   9.722   2.284  0.2545 -0.3951  1.4652
  419MOL0     H57808   4.711   9.304   2.487  1.0243  1.1666  2.3936
  419MOL0     H57809   4.561   9.142   2.556  0.8593  0.0053  1.3629
  419MOL0     H57810   4.326   9.052   2.551 -0.3522  0.7861 -0.4914
  419MOL0     H57811   4.445   8.997   2.676 -0.8310 -1.9304  2.8440
  419MOL0     H57812   4.257   8.992   2.846 -0.3371  2.5885 -0.3600
  419MOL0     H57813   4.272   8.869   2.729 -0.2974  0.3680  0.1383
  419MOL0     H57814   4.083   9.028   2.591  0.1843  1.2152  0.2224
  419MOL0     H57815   4.041   8.911   2.709  1.0663 -0.4425 -3.4223
  419MOL0     H57816   4.073   9.208   2.756 -0.7569  0.5050 -0.2148
  419MOL0     H57817   4.033   9.102   2.884  0.1864 -1.5836  0.0601
  419MOL0     H57818   3.664   9.141   2.663 -1.3939  2.9109  0.4796
  419MOL0     H57819   4.345   9.423   2.781 -0.5103 -1.0714 -0.6687
  419MOL0     H57820   4.442   9.724   2.634 -0.5868 -1.6337 -1.1808
  419MOL0     H57821   4.415   9.669   2.799 -4.6955  2.4678 -3.4071
  419MOL0     H57822   4.574   9.709   2.744 -1.2590  1.5346  1.6918
  420MOL0     O57823   6.995   9.926   9.126 -0.1432 -0.1347 -0.3608
  420MOL0     C57824   6.983   9.935   9.249  0.3717  0.5708 -0.1387
  420MOL0     O57825   7.050   9.854   9.333 -0.4182  0.0554 -0.1306
  420MOL0     C57826   7.160   9.783   9.298 -0.1671 -0.1037  0.1360
  420MOL0     C57827   7.259   9.835   9.208  0.5467  0.5301 -0.3917
  420MOL0     C57828   7.378   9.764   9.199  0.7445  1.6712  0.4541
  420MOL0     C57829   7.402   9.641   9.268  0.4409 -0.4679  0.0161
  420MOL0     O57830   7.522   9.578   9.252 -0.6055 -0.9975  0.0181
  420MOL0     C57831   7.639   9.625   9.318 -0.3986  0.4206 -0.1079
  420MOL0     C57832   7.651   9.543   9.452 -0.5723  0.5457  0.1058
  420MOL0     C57833   7.739   9.620   9.545 -0.4867  0.3743  0.0119
  420MOL0     C57834   7.817   9.530   9.655  0.2611 -0.0829  0.1573
  420MOL0     C57835   7.919   9.620   9.729  0.7996 -0.4161 -0.6970
  420MOL0     C57836   7.988   9.537   9.846 -1.0830  0.7281  0.0295
  420MOL0     C57837   8.109   9.613   9.921  0.3245  0.0657  0.7349
  420MOL0     C57838   8.158   9.512  10.030  0.0087  0.2951 -0.0239
  420MOL0     N57839   8.285   9.545  10.086 -0.2965  0.0982 -0.5448
  420MOL0     C57840   8.407   9.533  10.023 -0.3221  0.3400  0.5741
  420MOL0     C57841   8.503   9.579  10.102  0.8692  0.5690 -0.1646
  420MOL0     C57842   8.654   9.567  10.088 -0.2230  0.6056 -0.1500
  420MOL0     C57843   8.699   9.459  10.189  0.5695 -0.3950  0.3760
  420MOL0     C57844   8.847   9.482  10.217  0.6822 -0.4988 -0.5383
  420MOL0     C57845   8.883   9.594  10.312 -1.0705 -0.2489 -0.8361
  420MOL0     O57846   8.879   9.722  10.243 -0.0235 -1.1110  0.3288
  420MOL0     C57847   8.947   9.832  10.296 -0.3694 -1.0814 -0.6911
  420MOL0     C57848   9.016   9.819  10.420 -0.1486 -0.4096  0.1941
  420MOL0     C57849   9.083   9.929  10.483  0.0775 -0.5970  0.2817
  420MOL0     C57850   9.138   9.891  10.611  0.7694  0.1799  0.5998
  420MOL0     C57851   9.088  10.053  10.421 -0.1661 -0.8055  0.0425
  420MOL0     C57852   9.168  10.171  10.484  0.0643  0.1769  0.4437
  420MOL0     O57853   9.180  10.279  10.404 -0.5522  0.3896 -0.3363
  420MOL0     C57854   9.243  10.397  10.436  0.2065 -0.0210  1.0902
  420MOL0     C57855   9.282  10.480  10.326 -0.7574 -0.7122  0.3241
  420MOL0     C57856   9.352  10.599  10.346  0.3455 -0.1037  0.9164
  420MOL0     C57857   9.406  10.637  10.465 -0.3754 -0.0810  0.1406
  420MOL0     O57858   9.478  10.758  10.475 -0.1465  0.5537  0.1558
  420MOL0     C57859   9.530  10.816  10.591 -0.2471 -0.3150  0.4068
  420MOL0     C57860   9.587  10.957  10.557  0.2088 -0.1275 -0.7664
  420MOL0     C57861   9.680  10.945  10.431 -0.6718 -0.7360  0.3066
  420MOL0     C57862   9.735  11.081  10.387 -0.4232 -0.1116  0.0708
  420MOL0     C57863   9.860  11.071  10.291  1.3577 -0.4247  0.0733
  420MOL0     C57864   9.945  11.188  10.308  0.3203  0.0806 -0.2581
  420MOL0     C57865  10.048  11.206  10.197  0.0353 -0.2533  0.5182
  420MOL0     C57866  10.161  11.112  10.217  0.0124 -0.4453  0.5219
  420MOL0    Cl57867  10.288  11.152  10.108  0.5180  0.5539  0.1115
  420MOL0     C57868   9.375  10.552  10.570  0.7944 -0.1314 -0.6837
  420MOL0     C57869   9.292  10.438  10.565 -0.5520  0.9572  0.7214
  420MOL0     O57870   9.229  10.153  10.591  0.5693 -0.1225  0.7243
  420MOL0     C57871   9.003  10.066  10.303  0.5557  0.2343 -0.4719
  420MOL0     C57872   8.929   9.960  10.254 -0.1918  0.1023  0.0658
  420MOL0     N57873   8.435   9.617  10.216  0.2137  0.6343  0.0317
  420MOL0     N57874   8.307   9.600  10.207 -0.7406 -0.6630 -0.4545
  420MOL0     C57875   7.305   9.589   9.348 -0.0952  0.2996  0.6651
  420MOL0     C57876   7.185   9.662   9.364 -0.3786 -0.5046 -0.1155
  420MOL0     C57877   6.909  10.056   9.316  0.9189  0.1065  1.0615
  420MOL0     C57878   6.946  10.098   9.438  0.6616 -0.2134  0.3267
  420MOL0     C57879   6.880  10.202   9.505  0.4914 -0.4118  0.8592
  420MOL0     C57880   6.778  10.268   9.442  0.3542 -0.0440 -0.6715
  420MOL0     O57881   6.719  10.361   9.533  0.0230  1.0281  0.0146
  420MOL0     C57882   6.610  10.438   9.490 -0.0271  0.0098 -0.6668
  420MOL0     C57883   6.486  10.356   9.490  0.4768 -0.4340 -0.3376
  420MOL0     C57884   6.443  10.293   9.623 -0.3788  0.0439  0.7259
  420MOL0     C57885   6.293  10.268   9.635 -0.2472  0.8385 -0.2143
  420MOL0     C57886   6.243  10.178   9.533  0.3488 -0.0769  0.5093
  420MOL0     C57887   6.191  10.111   9.448  1.1425  0.2823 -1.0021
  420MOL0     C57888   6.741  10.231   9.316 -0.2826  0.1964 -0.0470
  420MOL0     C57889   6.793  10.119   9.258  0.0705  0.0035 -0.0441
  420MOL0     C57890   6.728  10.087   9.130 -0.1758  0.9473  0.5090
  420MOL0     H57891   7.233   9.909   9.133 -2.0046  1.6287  1.4158
  420MOL0     H57892   7.463   9.798   9.140 -1.2706  0.1678 -3.6628
  420MOL0     H57893   7.644   9.734   9.323  0.9325  0.5204 -2.1553
  420MOL0     H57894   7.727   9.600   9.258  0.6959  4.5492 -0.5391
  420MOL0     H57895   7.556   9.515   9.497  0.1637 -3.7222 -0.5433
  420MOL0     H57896   7.696   9.444   9.443 -2.5092 -0.6435  2.5599
  420MOL0     H57897   7.814   9.668   9.482 -2.0886  0.9443 -1.5582
  420MOL0     H57898   7.680   9.698   9.596 -1.8175 -1.1813  0.9479
  420MOL0     H57899   7.754   9.493   9.736  1.2493 -3.6394 -0.5072
  420MOL0     H57900   7.868   9.441   9.617  1.6663  0.5167  0.5580
  420MOL0     H57901   7.868   9.706   9.773 -1.7956 -1.9017 -0.6063
  420MOL0     H57902   7.996   9.652   9.658  1.7085 -2.5203 -0.7557
  420MOL0     H57903   7.913   9.495   9.914 -1.0648 -2.2572 -1.6046
  420MOL0     H57904   8.034   9.452   9.795 -0.9421  0.6265  0.3208
  420MOL0     H57905   8.074   9.706   9.966  3.7928  1.9245 -0.0563
  420MOL0     H57906   8.192   9.633   9.852 -0.8399 -0.5544 -0.9159
  420MOL0     H57907   8.086   9.513  10.113 -0.8375  0.5614 -0.7493
  420MOL0     H57908   8.168   9.417   9.978 -1.8356  0.6533 -1.1565
  420MOL0     H57909   8.430   9.491   9.926 -0.2635  1.4488  0.0880
  420MOL0     H57910   8.681   9.673  10.096 -3.4909  1.5357  0.4251
  420MOL0     H57911   8.675   9.532   9.987 -1.4467 -1.0015  0.1129
  420MOL0     H57912   8.649   9.451  10.286  0.2328  0.1012  0.2466
  420MOL0     H57913   8.673   9.363  10.142  0.9579 -0.4408  0.2556
  420MOL0     H57914   8.890   9.386  10.246 -4.1264 -2.7233  0.2685
  420MOL0     H57915   8.897   9.492  10.120 -0.3069  0.6876 -0.9535
  420MOL0     H57916   8.832   9.603  10.409  1.4384 -0.8896  0.6380
  420MOL0     H57917   8.986   9.567  10.335 -0.2022  1.2845 -2.7025
  420MOL0     H57918   9.034   9.721  10.464  0.9875 -1.2678 -2.0386
  420MOL0     H57919   9.149   9.782  10.610 -4.8256 -0.6650  0.5855
  420MOL0     H57920   9.074   9.908  10.698 -1.1775 -3.7529  0.1865
  420MOL0     H57921   9.237   9.934  10.627  1.4234 -0.0621 -2.2590
  420MOL0     H57922   9.253  10.450  10.225  0.7842 -1.1117 -0.0342
  420MOL0     H57923   9.375  10.659  10.258  1.4232  0.3823  1.5139
  420MOL0     H57924   9.448  10.835  10.661  0.3229  0.9258  0.7687
  420MOL0     H57925   9.604  10.754  10.643  0.1779  0.2790  0.5297
  420MOL0     H57926   9.511  11.034  10.538 -1.2070 -1.4472 -0.6693
  420MOL0     H57927   9.638  11.002  10.642  0.1843 -0.5968 -0.5006
  420MOL0     H57928   9.630  10.899  10.345 -3.5855  1.3372  0.7381
  420MOL0     H57929   9.765  10.885  10.464  2.4891  2.7658 -0.6417
  420MOL0     H57930   9.762  11.146  10.471  0.9819  0.8667 -1.0794
  420MOL0     H57931   9.646  11.124  10.339 -0.4058  0.8775  0.8934
  420MOL0     H57932   9.909  10.979  10.325  0.5870 -0.1328  2.1329
  420MOL0     H57933   9.824  11.053  10.189 -0.4570  2.3928  0.1025
  420MOL0     H57934   9.991  11.192  10.407 -0.9682  0.7756  0.3508
  420MOL0     H57935   9.880  11.276  10.298  1.1653  0.6234 -1.1285
  420MOL0     H57936  10.092  11.306  10.202  1.8073 -1.0118  5.5042
  420MOL0     H57937  10.008  11.191  10.096 -1.5233 -2.5760  1.4099
  420MOL0     H57938  10.131  11.009  10.198  0.1636 -0.3188 -0.4551
  420MOL0     H57939  10.183  11.125  10.323  1.5622  1.6060  0.0153
  420MOL0     H57940   9.423  10.577  10.665  0.1144 -1.4368  0.0264
  420MOL0     H57941   9.263  10.385  10.655 -2.7682  0.3406 -0.2991
  420MOL0     H57942   8.999  10.162  10.254  0.9453  0.9073  0.7622
  420MOL0     H57943   8.861   9.982  10.172 -1.5091 -0.5880  0.9422
  420MOL0     H57944   7.335   9.499   9.400 -0.3260 -1.8741 -2.6392
  420MOL0     H57945   7.116   9.631   9.441 -1.0824 -1.0309 -0.9430
  420MOL0     H57946   7.022  10.044   9.493  1.1833 -0.9813 -1.0939
  420MOL0     H57947   6.904  10.230   9.607 -1.4716  0.4836  1.1349
  420MOL0     H57948   6.605  10.521   9.562  2.2069 -0.1652 -0.2465
  420MOL0     H57949   6.638  10.482   9.394  1.2890 -3.2038 -1.8931
  420MOL0     H57950   6.489  10.274   9.418  1.9234 -2.5943  2.0272
  420MOL0     H57951   6.410  10.429   9.460 -1.8309 -1.5278  2.3602
  420MOL0     H57952   6.490  10.195   9.637 -1.1530 -0.4256  0.0726
  420MOL0     H57953   6.480  10.362   9.699 -0.3234  1.6625 -0.7093
  420MOL0     H57954   6.239  10.363   9.637 -0.1466  1.0854 -3.6008
  420MOL0     H57955   6.279  10.211   9.728 -0.3503 -2.4828 -2.0949
  420MOL0     H57956   6.127  10.062   9.377 -3.5045  0.1868  2.7472
  420MOL0     H57957   6.658  10.275   9.261 -0.6593 -0.9842 -0.4616
  420MOL0     H57958   6.804  10.072   9.052 -0.5948 -3.5527  0.6967
  420MOL0     H57959   6.677   9.990   9.136  1.1086  0.0703 -1.5147
  420MOL0     H57960   6.661  10.154   9.076 -0.5202  0.3905  0.2340
  421MOL0     O57961  11.444   0.875   9.526 -0.1939  0.7025  0.2784
  421MOL0     C57962  11.414   0.979   9.475  0.6888  0.3464  0.7466
  421MOL0     O57963  11.460   1.108   9.508 -0.2474  0.7450 -0.4759
  421MOL0     C57964  11.567   1.132   9.587  0.3522  0.5385  1.5573
  421MOL0     C57965  11.662   1.041   9.636 -0.3484 -0.0366  0.5766
  421MOL0     C57966  11.785   1.092   9.689  0.2945  0.1253 -0.2514
  421MOL0     C57967  11.825   1.228   9.677  0.3785 -1.1455  0.0840
  421MOL0     O57968  11.959   1.255   9.700 -1.0270  0.4940 -0.0856
  421MOL0     C57969  12.019   1.370   9.653  0.0008 -0.5163  0.3665
  421MOL0     C57970  12.097   1.339   9.530 -0.4353 -0.2919  0.8538
  421MOL0     C57971  12.144   1.462   9.463 -0.0260 -0.1639 -0.5934
  421MOL0     C57972  12.186   1.443   9.317  0.7031 -0.0793  0.1898
  421MOL0     C57973  12.277   1.555   9.275  1.0588 -0.1224  0.3015
  421MOL0     C57974  12.273   1.568   9.117  0.0936  0.5601  0.2794
  421MOL0     C57975  12.366   1.679   9.074  0.4117  0.0883 -0.0973
  421MOL0     C57976  12.353   1.739   8.934 -0.2997 -0.0762  0.7443
  421MOL0     N57977  12.391   1.882   8.923  0.3960  0.1165 -0.7083
  421MOL0     C57978  12.524   1.927   8.931 -0.4637 -0.6008 -0.0503
  421MOL0     C57979  12.514   2.059   8.935 -0.1671 -0.9852  0.1912
  421MOL0     C57980  12.625   2.161   8.919 -0.4104  0.2001  0.8047
  421MOL0     C57981  12.754   2.105   8.858 -0.7595  0.2974 -0.0206
  421MOL0     C57982  12.870   2.204   8.849  0.6169 -0.4515  0.3465
  421MOL0     C57983  12.857   2.318   8.760  1.0953  0.4307 -0.1777
  421MOL0     O57984  12.979   2.396   8.745  0.0594  1.1255 -0.3409
  421MOL0     C57985  13.007   2.462   8.630 -0.0205  0.3256 -0.2181
  421MOL0     C57986  12.916   2.524   8.542  0.0901  0.3114  0.3409
  421MOL0     C57987  12.958   2.599   8.434 -0.5807 -1.3059  0.3954
  421MOL0     C57988  12.851   2.646   8.347  1.2481 -0.8236  0.1851
  421MOL0     C57989  13.092   2.612   8.399 -0.1690 -0.1566 -0.9087
  421MOL0     C57990  13.156   2.691   8.287 -0.9978 -0.2936 -0.1253
  421MOL0     O57991  13.291   2.669   8.272 -0.5980 -0.5153 -0.5861
  421MOL0     C57992  13.347   2.710   8.158 -0.7180 -0.9721 -1.2901
  421MOL0     C57993  13.406   2.619   8.071  0.5031  0.5194 -0.5622
  421MOL0     C57994  13.456   2.662   7.948 -0.6889 -0.0057  0.3599
  421MOL0     C57995  13.448   2.797   7.915  0.0723 -0.4861  0.3755
  421MOL0     O57996  13.479   2.850   7.791  0.4481  0.4014 -0.4074
  421MOL0     C57997  13.437   2.784   7.668  0.3102  0.6318 -0.6302
  421MOL0     C57998  13.432   2.902   7.573  0.0419 -0.3073  0.1313
  421MOL0     C57999  13.569   2.957   7.532 -0.0326 -0.1663 -0.0701
  421MOL0     C58000  13.562   3.109   7.537  0.2737 -0.4493 -0.1021
  421MOL0     C58001  13.700   3.168   7.508  0.5399  0.1383 -0.2179
  421MOL0     C58002  13.687   3.313   7.506 -0.6014 -0.8318 -0.4907
  421MOL0     C58003  13.801   3.393   7.443  0.1163  0.0496  0.0102
  421MOL0     C58004  13.918   3.392   7.543 -0.3116 -0.8117 -0.3585
  421MOL0    Cl58005  14.047   3.459   7.441  0.4103  0.2251 -0.1370
  421MOL0     C58006  13.396   2.892   8.003 -0.1367 -0.6085 -0.2830
  421MOL0     C58007  13.350   2.844   8.124  0.3288  0.3969  0.1668
  421MOL0     O58008  13.088   2.765   8.216  0.0315  0.3332  1.1203
  421MOL0     C58009  13.185   2.550   8.489  0.2463 -0.4241  0.0257
  421MOL0     C58010  13.139   2.481   8.605 -0.4453  0.8583  0.9368
  421MOL0     N58011  12.376   2.094   8.928 -0.6880  0.1570  0.3870
  421MOL0     N58012  12.306   1.988   8.915  0.9816 -0.6091  1.1933
  421MOL0     C58013  11.727   1.316   9.633  0.6316  0.5069 -0.0853
  421MOL0     C58014  11.598   1.264   9.594 -0.4104  0.4120  0.3403
  421MOL0     C58015  11.303   0.973   9.375  1.1050 -0.4351  0.3810
  421MOL0     C58016  11.255   1.093   9.310 -0.3168  0.7713 -0.6148
  421MOL0     C58017  11.155   1.096   9.215  0.3044  0.3126 -0.3484
  421MOL0     C58018  11.094   0.973   9.183 -0.6350  0.2693  0.6194
  421MOL0     O58019  11.002   0.974   9.082  0.0595  0.4500  0.4118
  421MOL0     C58020  11.064   1.014   8.958 -0.2081  0.2349  0.5081
  421MOL0     C58021  11.019   0.941   8.830 -0.5684  0.9252 -0.4068
  421MOL0     C58022  11.127   0.945   8.715 -0.5229 -0.5641 -0.2448
  421MOL0     C58023  11.161   1.088   8.664  0.0505  0.1817 -0.1752
  421MOL0     C58024  11.238   1.093   8.536 -0.3623  0.6930 -0.2812
  421MOL0     C58025  11.312   1.085   8.445  0.6035  0.0029  0.2956
  421MOL0     C58026  11.135   0.851   9.243  0.3883  1.5335  0.8428
  421MOL0     C58027  11.236   0.848   9.341  0.6055 -1.2523 -0.0297
  421MOL0     C58028  11.263   0.715   9.400 -0.4214  0.4500  0.0553
  421MOL0     H58029  11.654   0.933   9.626 -0.9627 -0.0696  1.3989
  421MOL0     H58030  11.857   1.019   9.725 -0.4171 -1.6730 -2.2629
  421MOL0     H58031  12.082   1.413   9.732 -1.1148 -1.2929  1.7144
  421MOL0     H58032  11.950   1.452   9.629 -0.9830 -1.6563 -0.7962
  421MOL0     H58033  12.182   1.273   9.549  1.5932  2.4346  1.8802
  421MOL0     H58034  12.019   1.294   9.468  0.3064 -1.4127  0.6804
  421MOL0     H58035  12.073   1.545   9.467 -0.1620 -0.3215  0.9424
  421MOL0     H58036  12.230   1.494   9.523 -0.2280  0.4003 -0.6010
  421MOL0     H58037  12.232   1.348   9.292 -0.0195 -0.4127  0.0960
  421MOL0     H58038  12.091   1.453   9.264 -0.0641  0.9748  1.6761
  421MOL0     H58039  12.375   1.540   9.321  0.8737 -2.0436  0.1670
  421MOL0     H58040  12.248   1.642   9.334  0.7454 -1.7206  2.6362
  421MOL0     H58041  12.307   1.475   9.070 -0.8590  1.7231 -2.9665
  421MOL0     H58042  12.175   1.598   9.081 -0.2271 -2.7110 -2.0683
  421MOL0     H58043  12.468   1.644   9.094  0.7524  1.6011  0.9664
  421MOL0     H58044  12.348   1.768   9.134 -0.6117 -0.8324  1.0022
  421MOL0     H58045  12.414   1.682   8.863 -1.8448 -1.8084  0.7285
  421MOL0     H58046  12.249   1.747   8.901  0.2238  0.2384 -0.9538
  421MOL0     H58047  12.615   1.867   8.926  0.7087  0.7047  3.2957
  421MOL0     H58048  12.651   2.206   9.015  2.1993 -3.0800  1.8524
  421MOL0     H58049  12.592   2.242   8.853  0.6282 -0.4438 -0.5595
  421MOL0     H58050  12.773   2.012   8.912 -0.8385 -3.0508 -5.0367
  421MOL0     H58051  12.727   2.063   8.761 -3.2503 -0.5573  0.9594
  421MOL0     H58052  12.871   2.228   8.956 -1.1580 -2.6509  0.9592
  421MOL0     H58053  12.967   2.161   8.822  1.4691  1.3418  0.4637
  421MOL0     H58054  12.812   2.273   8.671  0.5256 -1.7667  1.1272
  421MOL0     H58055  12.775   2.379   8.800 -1.9301 -4.4884  2.2067
  421MOL0     H58056  12.812   2.509   8.568  0.0301  0.0890 -0.0164
  421MOL0     H58057  12.763   2.631   8.411 -0.5150  2.4470 -1.2418
  421MOL0     H58058  12.831   2.572   8.269 -0.8775  1.6677 -1.8009
  421MOL0     H58059  12.847   2.748   8.308  1.1796 -1.2786 -1.0257
  421MOL0     H58060  13.421   2.514   8.094  1.8034  0.2960 -2.2462
  421MOL0     H58061  13.492   2.595   7.871 -1.2118 -0.6867  0.7043
  421MOL0     H58062  13.498   2.698   7.641 -0.5981 -0.6881  1.3293
  421MOL0     H58063  13.337   2.740   7.673  1.4674 -2.1005  3.5290
  421MOL0     H58064  13.381   2.871   7.481  0.7322 -3.3870  0.6978
  421MOL0     H58065  13.373   2.987   7.609  0.4094  0.3608 -0.7932
  421MOL0     H58066  13.590   2.920   7.431 -2.4814  0.7729 -0.9925
  421MOL0     H58067  13.654   2.929   7.595  0.3582  1.9545  0.4318
  421MOL0     H58068  13.533   3.137   7.639  0.0526  0.1367 -0.3219
  421MOL0     H58069  13.491   3.159   7.470  0.5866 -1.5638 -1.3126
  421MOL0     H58070  13.774   3.123   7.575  2.4459  1.0489 -1.6002
  421MOL0     H58071  13.731   3.127   7.411  0.8089  0.2172 -0.1673
  421MOL0     H58072  13.663   3.358   7.603 -3.8170  2.0635 -2.3825
  421MOL0     H58073  13.599   3.343   7.448  1.0101  1.3306 -1.9625
  421MOL0     H58074  13.763   3.492   7.415 -2.5365 -0.7944  0.3307
  421MOL0     H58075  13.832   3.334   7.356 -2.3418 -2.0839  0.4199
  421MOL0     H58076  13.946   3.292   7.580  1.6312  0.1446  0.9147
  421MOL0     H58077  13.890   3.443   7.635 -0.3626 -1.8739  0.2340
  421MOL0     H58078  13.387   2.997   7.977 -1.2718 -0.1008  1.9391
  421MOL0     H58079  13.310   2.906   8.203  0.2487  2.9764 -1.7624
  421MOL0     H58080  13.293   2.560   8.476  0.3265  0.1862  1.0045
  421MOL0     H58081  13.204   2.440   8.682 -1.8018 -0.0920  1.6082
  421MOL0     H58082  11.725   1.423   9.615  2.2366  1.0765  2.6607
  421MOL0     H58083  11.523   1.333   9.557  0.7515  0.9329 -1.1467
  421MOL0     H58084  11.300   1.187   9.340 -0.9055 -0.5999  5.8844
  421MOL0     H58085  11.134   1.188   9.162 -1.5599  0.1282  0.0169
  421MOL0     H58086  11.036   1.120   8.957 -1.0101  0.0282  0.6116
  421MOL0     H58087  11.173   1.012   8.967 -0.0712 -1.0183 -1.0397
  421MOL0     H58088  10.923   0.986   8.804  0.0648  0.7799 -3.2356
  421MOL0     H58089  11.003   0.837   8.862 -3.0023  2.3294  3.6265
  421MOL0     H58090  11.217   0.898   8.756 -1.6347  1.5701  5.6638
  421MOL0     H58091  11.083   0.895   8.628  0.4700 -0.2244 -0.9553
  421MOL0     H58092  11.220   1.130   8.746 -0.7827 -0.7690  0.9536
  421MOL0     H58093  11.069   1.144   8.646 -0.3866 -0.3334  0.3970
  421MOL0     H58094  11.383   1.086   8.364 -0.6931  2.0334 -0.9074
  421MOL0     H58095  11.091   0.753   9.232  1.3873  1.1810 -0.2082
  421MOL0     H58096  11.196   0.637   9.362 -3.1836  1.5839  2.2870
  421MOL0     H58097  11.372   0.702   9.393 -0.2414  1.9006 -0.1264
  421MOL0     H58098  11.241   0.722   9.506 -0.9504  1.9299 -0.1306
  422MOL0     O58099   5.987   4.636   5.442 -0.4563  0.1945  0.4516
  422MOL0     C58100   6.026   4.654   5.328 -0.8788  0.7574  0.3888
  422MOL0     O58101   5.965   4.727   5.232 -0.2813 -0.8093  0.1808
  422MOL0     C58102   5.863   4.803   5.278 -0.2628  0.2842 -0.5474
  422MOL0     C58103   5.897   4.920   5.338 -0.1398 -0.5133 -0.4126
  422MOL0     C58104   5.798   5.009   5.386 -0.0616  0.0712  0.9098
  422MOL0     C58105   5.663   4.966   5.366 -0.4555 -0.2941 -0.0501
  422MOL0     O58106   5.553   5.034   5.426 -0.0052  0.5007 -0.8836
  422MOL0     C58107   5.523   5.020   5.569  0.2470  0.1217 -0.1858
  422MOL0     C58108   5.376   5.040   5.602 -0.2230  0.3868 -0.8096
  422MOL0     C58109   5.337   5.013   5.747  0.2241 -0.1269 -0.5571
  422MOL0     C58110   5.282   4.863   5.756 -0.5161 -0.0406 -0.7401
  422MOL0     C58111   5.259   4.825   5.907 -0.4380  1.2289 -1.5003
  422MOL0     C58112   5.242   4.674   5.919  0.4263  0.0719 -0.3146
  422MOL0     C58113   5.144   4.637   6.035  0.3353  1.3768 -0.3966
  422MOL0     C58114   5.168   4.480   6.061 -0.3524 -0.1108 -0.4587
  422MOL0     N58115   5.281   4.451   6.152 -0.1974 -1.0285 -0.2522
  422MOL0     C58116   5.308   4.528   6.255 -0.1360 -0.2099  0.4776
  422MOL0     C58117   5.428   4.499   6.291 -0.0031 -0.2760  0.4581
  422MOL0     C58118   5.489   4.565   6.414  0.0514  0.4934  0.6982
  422MOL0     C58119   5.552   4.470   6.502  0.1702  0.6212 -0.6432
  422MOL0     C58120   5.701   4.442   6.464  0.1701 -0.4142 -0.9540
  422MOL0     C58121   5.775   4.338   6.544 -0.2563  0.2610  0.2173
  422MOL0     O58122   5.760   4.339   6.684  0.6909 -0.1340 -0.1516
  422MOL0     C58123   5.784   4.216   6.744 -0.1219 -0.8364 -0.4902
  422MOL0     C58124   5.900   4.200   6.821 -0.7701  1.0841  0.4265
  422MOL0     C58125   5.933   4.064   6.871  0.7392 -0.0386  0.3963
  422MOL0     C58126   6.070   4.041   6.954 -0.4015 -0.2233 -0.2398
  422MOL0     C58127   5.844   3.955   6.838 -0.0766  0.3405 -0.5028
  422MOL0     C58128   5.875   3.803   6.858 -0.6059  0.5734  0.0797
  422MOL0     O58129   5.779   3.707   6.825 -1.2552  0.4344  0.6321
  422MOL0     C58130   5.804   3.577   6.863  0.1427  0.7757  0.1897
  422MOL0     C58131   5.912   3.506   6.815 -0.1419  0.2412  0.3111
  422MOL0     C58132   5.934   3.370   6.857 -0.3449 -0.6087  1.0936
  422MOL0     C58133   5.835   3.312   6.950  0.1066  0.9703 -0.2007
  422MOL0     O58134   5.858   3.192   7.013  0.2820 -1.2380  0.1193
  422MOL0     C58135   5.931   3.094   6.944  0.7526  0.3744  1.0536
  422MOL0     C58136   5.961   2.964   7.025 -0.5338  0.5113  1.3066
  422MOL0     C58137   5.978   2.994   7.170  0.1550  0.0489 -1.0380
  422MOL0     C58138   6.090   3.093   7.189  0.0131 -0.2337  0.3004
  422MOL0     C58139   6.152   3.088   7.326  1.7055 -0.1721 -1.2828
  422MOL0     C58140   6.040   3.115   7.429  0.6018  0.3258 -0.5075
  422MOL0     C58141   6.092   3.115   7.573 -0.8009 -0.7411 -0.2592
  422MOL0     C58142   6.150   2.986   7.629 -0.3844  0.3023  0.4945
  422MOL0    Cl58143   6.231   2.999   7.789  0.1950 -0.0549 -0.0165
  422MOL0     C58144   5.725   3.391   6.988 -0.1117  0.5407 -0.0086
  422MOL0     C58145   5.710   3.524   6.946  0.5619 -0.0300  0.0654
  422MOL0     O58146   5.988   3.774   6.911  0.5770  0.2594 -0.2380
  422MOL0     C58147   5.730   3.976   6.764  0.3647 -0.2964  0.0296
  422MOL0     C58148   5.697   4.106   6.726 -0.4759  0.0256 -0.9650
  422MOL0     N58149   5.480   4.409   6.200 -0.1312 -0.2331  0.3916
  422MOL0     N58150   5.391   4.385   6.112 -0.5247 -0.5243  0.1659
  422MOL0     C58151   5.630   4.854   5.294 -0.1873 -0.3058 -0.3529
  422MOL0     C58152   5.733   4.773   5.246  0.0355  0.4697 -0.5677
  422MOL0     C58153   6.168   4.614   5.281 -0.6143  0.4138  0.0987
  422MOL0     C58154   6.278   4.668   5.343  0.7102  0.2776 -0.3922
  422MOL0     C58155   6.415   4.628   5.315 -0.5992  0.0369  0.4389
  422MOL0     C58156   6.441   4.534   5.224  1.3340  1.0795 -0.5462
  422MOL0     O58157   6.578   4.526   5.192 -0.4223  0.0840  0.2541
  422MOL0     C58158   6.627   4.436   5.093  0.3850  0.1945 -0.3037
  422MOL0     C58159   6.629   4.293   5.158 -0.0720 -0.3703 -0.6322
  422MOL0     C58160   6.679   4.185   5.062 -0.5330 -0.4730 -0.0470
  422MOL0     C58161   6.693   4.056   5.123 -0.5181  0.7256 -1.6205
  422MOL0     C58162   6.750   3.961   5.023  1.1167 -0.9893 -0.1977
  422MOL0     C58163   6.791   3.886   4.939 -0.3530  0.0941 -0.0081
  422MOL0     C58164   6.331   4.486   5.148  0.1237  0.5991 -0.3087
  422MOL0     C58165   6.196   4.515   5.176 -0.0616 -0.2564 -0.9316
  422MOL0     C58166   6.089   4.452   5.091  0.7156 -0.9505  0.0671
  422MOL0     H58167   6.000   4.941   5.366 -0.4334 -0.7799  0.9385
  422MOL0     H58168   5.811   5.098   5.447 -2.0503  1.7239 -0.8551
  422MOL0     H58169   5.576   5.101   5.621 -1.5108  0.3294  1.3731
  422MOL0     H58170   5.557   4.921   5.600  0.8786  0.4505  0.2083
  422MOL0     H58171   5.348   5.143   5.576  0.0486  0.8624  0.6878
  422MOL0     H58172   5.310   4.979   5.540  2.2876 -0.9130 -2.3061
  422MOL0     H58173   5.430   5.026   5.803  0.9904  1.0392 -2.0244
  422MOL0     H58174   5.268   5.090   5.784  1.3687  0.6084  0.1016
  422MOL0     H58175   5.189   4.848   5.701 -0.6823 -2.0680  0.0085
  422MOL0     H58176   5.353   4.788   5.722  0.2291  0.1979  0.2312
  422MOL0     H58177   5.162   4.863   5.941  0.1984 -0.5614  3.1048
  422MOL0     H58178   5.343   4.862   5.966 -0.9046  0.1708 -0.0974
  422MOL0     H58179   5.195   4.638   5.827 -1.4376  2.6526 -0.4730
  422MOL0     H58180   5.341   4.626   5.919  1.2966  1.7640 -1.8946
  422MOL0     H58181   5.046   4.662   5.993  0.2510 -1.2765 -2.0800
  422MOL0     H58182   5.163   4.697   6.124 -2.0172  1.1474  0.3419
  422MOL0     H58183   5.077   4.437   6.103 -0.0660  0.9132  1.3189
  422MOL0     H58184   5.202   4.439   5.965 -0.2167 -1.2955  0.0741
  422MOL0     H58185   5.243   4.604   6.295  0.0879  0.6059 -0.6453
  422MOL0     H58186   5.402   4.612   6.461 -0.9047 -2.0617  1.6502
  422MOL0     H58187   5.558   4.644   6.381 -1.0162  0.5234 -1.6133
  422MOL0     H58188   5.549   4.519   6.599 -0.2675 -0.9577  0.1773
  422MOL0     H58189   5.506   4.372   6.520 -1.3442  1.6388  1.3403
  422MOL0     H58190   5.695   4.413   6.358  0.1321  1.4078 -1.4795
  422MOL0     H58191   5.767   4.528   6.456  1.4736 -1.4937 -2.6341
  422MOL0     H58192   5.728   4.246   6.507 -2.2167 -0.2423  3.5437
  422MOL0     H58193   5.881   4.325   6.521  0.4984  2.1031  2.2965
  422MOL0     H58194   5.975   4.276   6.838  0.0185  0.0062  2.0277
  422MOL0     H58195   6.045   4.008   7.056 -2.1754  2.9636  0.4887
  422MOL0     H58196   6.140   4.125   6.959  2.0886 -2.1618 -0.1446
  422MOL0     H58197   6.128   3.958   6.912  2.5602  0.9141  1.3378
  422MOL0     H58198   5.984   3.553   6.749  2.8110  1.2891  3.9326
  422MOL0     H58199   6.019   3.316   6.818  0.5377  1.0486  0.6458
  422MOL0     H58200   5.868   3.052   6.866  0.3507 -1.2110  2.1911
  422MOL0     H58201   6.029   3.130   6.911  1.5214 -0.7361  2.0626
  422MOL0     H58202   5.875   2.898   7.017  0.7292 -1.2440  1.5444
  422MOL0     H58203   6.044   2.907   6.982 -1.6551  0.2487 -0.5901
  422MOL0     H58204   6.008   2.903   7.222  2.2806  0.9631 -0.5566
  422MOL0     H58205   5.889   3.036   7.218  1.5135  2.8723 -0.7730
  422MOL0     H58206   6.045   3.192   7.173  3.6487  1.4210 -0.7130
  422MOL0     H58207   6.167   3.074   7.114 -1.0378  0.0431 -0.8755
  422MOL0     H58208   6.199   2.991   7.343  0.4445 -0.6544 -0.4485
  422MOL0     H58209   6.237   3.157   7.333  1.1028  0.4511  0.3722
  422MOL0     H58210   5.966   3.034   7.418  1.7474 -0.6717 -1.1592
  422MOL0     H58211   5.993   3.211   7.409 -0.4301  0.1644  0.9983
  422MOL0     H58212   6.010   3.144   7.639  0.7557 -0.0336  1.4763
  422MOL0     H58213   6.167   3.195   7.575  0.6761 -2.0408  2.5286
  422MOL0     H58214   6.222   2.936   7.564 -1.2053 -1.3332  0.7931
  422MOL0     H58215   6.069   2.913   7.634  0.6829 -1.4699 -3.8806
  422MOL0     H58216   5.650   3.341   7.048 -1.8064  2.0457 -0.7966
  422MOL0     H58217   5.623   3.580   6.978 -0.3501 -0.9542 -0.7079
  422MOL0     H58218   5.650   3.906   6.739  1.8421 -2.9369  2.1908
  422MOL0     H58219   5.610   4.108   6.661 -1.5673 -5.5179 -0.1942
  422MOL0     H58220   5.526   4.837   5.268 -0.7070 -2.7878  2.7825
  422MOL0     H58221   5.716   4.679   5.195  1.6389 -0.4441  0.4973
  422MOL0     H58222   6.258   4.745   5.417 -1.8037  1.6192 -2.3007
  422MOL0     H58223   6.496   4.663   5.378 -1.2540 -1.0410  1.9276
  422MOL0     H58224   6.567   4.439   5.002 -1.0161  1.6575  0.6161
  422MOL0     H58225   6.729   4.465   5.068  0.0445  0.1736 -1.7948
  422MOL0     H58226   6.524   4.274   5.181  0.3369 -2.3948 -0.2685
  422MOL0     H58227   6.696   4.285   5.244  4.3792 -1.9985 -3.8684
  422MOL0     H58228   6.609   4.184   4.978 -0.9971 -0.8608  0.3395
  422MOL0     H58229   6.781   4.200   5.024  0.6825 -6.2566  0.0177
  422MOL0     H58230   6.595   4.020   5.157  0.1226 -1.2528 -1.7746
  422MOL0     H58231   6.762   4.074   5.205  0.2151  2.4411 -2.5539
  422MOL0     H58232   6.834   3.809   4.877 -2.5554 -0.3097 -1.1314
  422MOL0     H58233   6.363   4.427   5.063  0.8384  0.7661 -0.1633
  422MOL0     H58234   6.090   4.343   5.079 -1.1352 -0.9848 -0.0842
  422MOL0     H58235   5.988   4.466   5.130  1.6796 -1.0321  2.8149
  422MOL0     H58236   6.100   4.511   5.000  0.4044 -2.4054 -0.9528
  423MOL0     O58237   2.561   3.489  10.231  0.5558 -0.1792 -0.3096
  423MOL0     C58238   2.492   3.393  10.263  0.1540 -0.5392  0.6183
  423MOL0     O58239   2.377   3.398  10.322  0.3279 -0.4951 -0.8419
  423MOL0     C58240   2.294   3.509  10.320 -0.5705  0.2582 -0.3256
  423MOL0     C58241   2.185   3.510  10.229 -0.2168 -0.4360 -0.5836
  423MOL0     C58242   2.099   3.615  10.217  0.5961 -0.1899 -0.2181
  423MOL0     C58243   2.122   3.731  10.292  1.0161  0.0131  0.4571
  423MOL0     O58244   2.056   3.850  10.277  0.1888  0.1428 -0.5572
  423MOL0     C58245   2.041   3.884  10.140  0.8881  0.3312  0.3511
  423MOL0     C58246   2.043   4.037  10.146  0.7901 -1.1532  1.3679
  423MOL0     C58247   1.995   4.103  10.008  0.0055  0.0165  0.1343
  423MOL0     C58248   2.018   4.257  10.010  0.6247  0.2308 -0.2986
  423MOL0     C58249   1.998   4.302   9.868  0.1206 -0.4447 -0.0759
  423MOL0     C58250   2.082   4.425   9.829 -0.2118 -0.3790 -0.6460
  423MOL0     C58251   2.043   4.461   9.682 -0.1532  0.7471  0.4204
  423MOL0     C58252   2.100   4.594   9.625 -0.1373  0.2937  0.5465
  423MOL0     N58253   2.023   4.658   9.518  0.2452  0.0088 -0.1067
  423MOL0     C58254   1.937   4.763   9.534  0.7439  0.3119  0.3232
  423MOL0     C58255   1.922   4.834   9.424  0.9606  0.2104  0.9999
  423MOL0     C58256   1.819   4.951   9.405 -0.1426 -0.0578 -0.0930
  423MOL0     C58257   1.824   5.058   9.512  0.5370  0.0543 -0.3240
  423MOL0     C58258   1.937   5.170   9.480  0.2684  0.1782  1.2576
  423MOL0     C58259   2.072   5.124   9.508 -0.3306 -0.1649 -0.0327
  423MOL0     O58260   2.089   5.117   9.655 -0.4582  0.0196  0.5688
  423MOL0     C58261   2.117   5.228   9.726 -0.3871  0.6389 -0.1186
  423MOL0     C58262   2.072   5.229   9.859  1.0313  0.2332  0.6269
  423MOL0     C58263   2.096   5.332   9.956  0.5445  0.2276 -0.2550
  423MOL0     C58264   2.041   5.329  10.099  0.1633  0.1515 -0.0597
  423MOL0     C58265   2.170   5.441   9.907  0.3503 -0.3643 -0.1835
  423MOL0     C58266   2.212   5.538   9.997  0.2941 -0.1738 -0.6104
  423MOL0     O58267   2.153   5.660  10.000 -0.1288 -0.4298 -0.4458
  423MOL0     C58268   2.222   5.760  10.080 -0.0762 -0.8380 -0.3446
  423MOL0     C58269   2.358   5.799  10.059  0.6703 -0.3986 -0.0304
  423MOL0     C58270   2.416   5.897  10.139 -0.0889 -0.3542  0.3059
  423MOL0     C58271   2.352   5.973  10.239 -0.7958  0.3237 -0.6305
  423MOL0     O58272   2.394   6.081  10.311  0.2232  0.8372  0.1087
  423MOL0     C58273   2.533   6.116  10.311  0.3884 -0.1332  0.3431
  423MOL0     C58274   2.563   6.187  10.441 -0.9498 -0.4742  1.0737
  423MOL0     C58275   2.576   6.084  10.557  0.0692  0.3957  0.1128
  423MOL0     C58276   2.632   6.165  10.683 -0.2465  0.5477 -0.6208
  423MOL0     C58277   2.624   6.075  10.806 -0.3613 -0.1497 -0.0675
  423MOL0     C58278   2.678   6.136  10.935  0.3790 -0.7356 -0.0601
  423MOL0     C58279   2.713   6.029  11.048  0.0060  0.6054 -0.3036
  423MOL0     C58280   2.591   5.963  11.112 -0.3280  0.2103 -0.2233
  423MOL0    Cl58281   2.435   6.047  11.091 -0.1794  0.1689  0.1995
  423MOL0     C58282   2.219   5.933  10.261  0.1564 -0.4880  0.2243
  423MOL0     C58283   2.163   5.831  10.187  1.1922  0.9187 -0.8106
  423MOL0     O58284   2.295   5.495  10.071 -0.0387  0.4243  0.3457
  423MOL0     C58285   2.216   5.435   9.773  0.3098 -0.5829 -0.0016
  423MOL0     C58286   2.188   5.335   9.683  0.0020  0.1802 -0.0963
  423MOL0     N58287   1.994   4.769   9.332  0.5993  1.0430 -0.5092
  423MOL0     N58288   2.053   4.668   9.385 -0.2885  0.1370  0.3096
  423MOL0     C58289   2.226   3.740  10.374  0.0208  0.0132  0.2370
  423MOL0     C58290   2.312   3.629  10.395  0.3504  0.0070  0.5808
  423MOL0     C58291   2.553   3.254  10.242 -0.0754 -0.2836 -0.7166
  423MOL0     C58292   2.516   3.143  10.316  0.7039 -1.6252 -0.4038
  423MOL0     C58293   2.553   3.008  10.298 -0.1712 -0.0921 -0.3001
  423MOL0     C58294   2.653   2.978  10.209 -0.1795  0.6602  0.6247
  423MOL0     O58295   2.693   2.845  10.210  0.1683 -0.0763  0.1480
  423MOL0     C58296   2.809   2.804  10.137  0.0124  0.0888 -0.2812
  423MOL0     C58297   2.828   2.656  10.148  0.2486 -0.0388  0.4495
  423MOL0     C58298   2.710   2.567  10.099 -0.8872  0.2419  0.2496
  423MOL0     C58299   2.713   2.432  10.176 -0.0155  0.3097  0.2701
  423MOL0     C58300   2.832   2.339  10.145 -0.1772  0.2644 -0.4874
  423MOL0     C58301   2.925   2.259  10.129 -0.8468 -0.1755  0.6818
  423MOL0     C58302   2.705   3.086  10.128 -0.2944 -0.6212  0.1539
  423MOL0     C58303   2.656   3.220  10.142 -1.8223 -0.7041  0.2374
  423MOL0     C58304   2.709   3.323  10.042  0.1475 -0.6065 -0.6403
  423MOL0     H58305   2.188   3.426  10.161  3.3603 -0.6768 -0.3431
  423MOL0     H58306   2.015   3.628  10.149 -1.3477 -0.0565  2.0460
  423MOL0     H58307   1.956   3.834  10.093  2.0344 -2.3993  0.9378
  423MOL0     H58308   2.121   3.851  10.072 -1.2534 -1.8002 -1.3479
  423MOL0     H58309   1.977   4.086  10.219  1.4293  2.1208 -0.0514
  423MOL0     H58310   2.149   4.059  10.156  0.8270 -1.2386  1.1688
  423MOL0     H58311   2.049   4.056   9.925 -2.6028 -1.0884 -1.0525
  423MOL0     H58312   1.889   4.087   9.988 -0.0771  1.6783 -1.0365
  423MOL0     H58313   1.946   4.304  10.078 -0.5076 -0.9404 -0.6526
  423MOL0     H58314   2.113   4.282  10.057  0.2256 -0.1208  0.7296
  423MOL0     H58315   1.893   4.325   9.849  0.2414  0.4240  0.2830
  423MOL0     H58316   2.014   4.224   9.793  2.4890  0.4499 -0.5998
  423MOL0     H58317   2.067   4.508   9.899 -0.1296 -0.7880 -0.1421
  423MOL0     H58318   2.189   4.402   9.834 -0.2370 -0.4778 -0.5598
  423MOL0     H58319   1.935   4.470   9.672  0.0511  1.3204 -1.6467
  423MOL0     H58320   2.094   4.391   9.616 -0.1264  0.7106  0.4802
  423MOL0     H58321   2.107   4.648   9.720 -2.9514 -2.3382  2.4625
  423MOL0     H58322   2.198   4.572   9.582 -1.6207  0.1454 -3.0907
  423MOL0     H58323   1.881   4.784   9.624  1.3084  1.5040  0.4051
  423MOL0     H58324   1.721   4.903   9.406  1.0532 -2.7011 -1.0818
  423MOL0     H58325   1.845   5.001   9.311  2.3040 -0.8048  0.1113
  423MOL0     H58326   1.729   5.111   9.526  1.3269  1.6893 -0.8373
  423MOL0     H58327   1.849   5.015   9.609  0.2504 -0.7762 -0.6080
  423MOL0     H58328   1.932   5.183   9.371  2.7537 -0.2880  1.0420
  423MOL0     H58329   1.906   5.264   9.527 -3.1896  0.6044 -1.4537
  423MOL0     H58330   2.090   5.028   9.458  1.6530  0.6312 -0.9700
  423MOL0     H58331   2.154   5.182   9.465  1.7002 -1.9949  1.1197
  423MOL0     H58332   2.018   5.137   9.873  0.6683  0.2323 -0.6503
  423MOL0     H58333   2.127   5.295  10.157  2.9815 -1.2457 -4.5566
  423MOL0     H58334   1.963   5.252  10.109  1.7688 -1.3950  1.3356
  423MOL0     H58335   1.999   5.428  10.116  2.6454  0.8611  2.9703
  423MOL0     H58336   2.414   5.749   9.981 -1.6753  1.6966 -3.3101
  423MOL0     H58337   2.523   5.912  10.123 -0.0729  0.5113  1.1284
  423MOL0     H58338   2.595   6.026  10.305 -0.5905 -0.9258  1.7124
  423MOL0     H58339   2.553   6.182  10.226  0.3230 -0.9364 -0.3105
  423MOL0     H58340   2.665   6.221  10.420 -0.9236 -1.5434 -0.6578
  423MOL0     H58341   2.507   6.279  10.462  2.8819  2.4228  0.0038
  423MOL0     H58342   2.646   6.001  10.544  1.8442  1.9169 -0.5161
  423MOL0     H58343   2.485   6.031  10.584 -0.8988  0.4971 -2.6262
  423MOL0     H58344   2.579   6.261  10.693 -1.0251  0.4031 -2.9299
  423MOL0     H58345   2.739   6.187  10.676 -0.4304  2.3976  1.2390
  423MOL0     H58346   2.520   6.048  10.830 -0.7095  0.9689 -0.2817
  423MOL0     H58347   2.681   5.984  10.785  0.4735  0.2405  0.4905
  423MOL0     H58348   2.604   6.210  10.969  0.2004  0.5869 -2.9627
  423MOL0     H58349   2.770   6.185  10.903 -1.2035  0.9384 -2.4389
  423MOL0     H58350   2.771   6.086  11.121 -1.5970  0.1748  1.3675
  423MOL0     H58351   2.769   5.944  11.006 -0.5337  0.2855 -0.3896
  423MOL0     H58352   2.615   5.959  11.219 -1.1705  0.5977 -0.0126
  423MOL0     H58353   2.583   5.861  11.071  2.2396  0.5157 -1.6913
  423MOL0     H58354   2.173   5.997  10.336  0.8158  2.1556 -1.4594
  423MOL0     H58355   2.059   5.824  10.217  0.7391  0.3257 -2.4346
  423MOL0     H58356   2.289   5.510   9.743 -0.3130 -0.8762 -2.4311
  423MOL0     H58357   2.222   5.343   9.581 -1.2629  1.1740 -0.4672
  423MOL0     H58358   2.231   3.837  10.423  0.3140  0.0644  0.1093
  423MOL0     H58359   2.393   3.628  10.467  1.7046  1.0760 -0.8600
  423MOL0     H58360   2.460   3.159  10.407  2.8075  0.3179  0.6417
  423MOL0     H58361   2.514   2.922  10.352  1.0303 -0.6572 -0.2917
  423MOL0     H58362   2.798   2.846  10.036 -0.2715 -0.0355 -0.3040
  423MOL0     H58363   2.903   2.849  10.169  0.5721 -0.1467 -1.5112
  423MOL0     H58364   2.870   2.639  10.248 -0.5356  1.8380  1.1438
  423MOL0     H58365   2.908   2.637  10.077 -0.5863 -4.9343  0.4599
  423MOL0     H58366   2.613   2.615  10.117  0.7581  3.3746  1.6047
  423MOL0     H58367   2.723   2.540   9.994 -1.3474 -0.7452  0.4358
  423MOL0     H58368   2.634   2.366  10.139 -1.1850  0.8877  1.6336
  423MOL0     H58369   2.702   2.442  10.285 -1.0560 -1.5914  0.3729
  423MOL0     H58370   3.009   2.198  10.101 -1.0708 -1.6383  2.9563
  423MOL0     H58371   2.771   3.082  10.042 -1.8323 -0.3537 -1.0971
  423MOL0     H58372   2.768   3.268   9.969  1.3262  0.9957 -0.9513
  423MOL0     H58373   2.621   3.378  10.007 -0.1026  3.8306  5.4372
  423MOL0     H58374   2.763   3.400  10.098 -2.1711  0.1520  0.7037
  424MOL0     O58375   0.751   7.480   9.406 -0.0265 -0.0038  0.2086
  424MOL0     C58376   0.669   7.551   9.342 -0.3150  0.5107  0.3620
  424MOL0     O58377   0.621   7.504   9.223 -0.3894  0.2354 -0.1267
  424MOL0     C58378   0.672   7.376   9.179 -0.8387  0.0985  0.0269
  424MOL0     C58379   0.579   7.269   9.173  0.4429 -0.0243 -0.4136
  424MOL0     C58380   0.613   7.145   9.133 -1.8827  1.5023 -0.3793
  424MOL0     C58381   0.754   7.116   9.090 -0.7718  0.1928  0.1603
  424MOL0     O58382   0.785   6.991   9.049  0.1126  0.2287 -0.1579
  424MOL0     C58383   0.859   6.923   9.156  0.0324 -0.5829  0.2610
  424MOL0     C58384   0.846   6.778   9.144  0.5586 -0.8405  0.9468
  424MOL0     C58385   0.925   6.725   9.033 -0.1960  1.0172  0.4554
  424MOL0     C58386   0.959   6.577   9.043  0.4544 -0.0933 -0.1287
  424MOL0     C58387   1.036   6.533   8.911 -0.0917  0.4071 -1.0125
  424MOL0     C58388   1.184   6.587   8.889 -1.0724 -0.3244  0.1898
  424MOL0     C58389   1.267   6.599   9.020 -0.5025  0.8521 -1.0274
  424MOL0     C58390   1.303   6.455   9.056 -1.2529  0.2624 -0.3960
  424MOL0     N58391   1.416   6.402   8.985 -0.7244  0.0606  0.1695
  424MOL0     C58392   1.416   6.331   8.862 -0.5481 -0.0465 -0.0223
  424MOL0     C58393   1.543   6.324   8.826 -0.5036  0.0729 -0.3404
  424MOL0     C58394   1.567   6.284   8.681  0.5865  0.7511 -0.2496
  424MOL0     C58395   1.598   6.397   8.576  0.0839  0.1448  0.6202
  424MOL0     C58396   1.621   6.318   8.441 -0.4488 -0.2730  0.0949
  424MOL0     C58397   1.611   6.402   8.313 -0.4612 -0.1361  0.6695
  424MOL0     O58398   1.471   6.409   8.285  0.1267 -0.2217 -0.2146
  424MOL0     C58399   1.437   6.502   8.192 -0.5658 -0.1647  1.5946
  424MOL0     C58400   1.343   6.460   8.096  0.4768  0.0568 -0.0405
  424MOL0     C58401   1.299   6.528   7.983  0.3089 -0.1427  0.5409
  424MOL0     C58402   1.228   6.432   7.878 -0.0331  0.0728 -0.5151
  424MOL0     C58403   1.354   6.657   7.962 -0.1263  0.8229 -0.4138
  424MOL0     C58404   1.322   6.735   7.841  0.3267  0.2537  0.2221
  424MOL0     O58405   1.410   6.826   7.802  0.1935  0.1049 -0.0735
  424MOL0     C58406   1.398   6.904   7.694 -0.3210 -1.3819 -0.2955
  424MOL0     C58407   1.411   7.048   7.718 -1.0562 -0.7026  0.0125
  424MOL0     C58408   1.410   7.132   7.613  0.7799 -0.6571  1.0430
  424MOL0     C58409   1.397   7.087   7.480 -0.2525  0.4950  0.0629
  424MOL0     O58410   1.389   7.188   7.386  0.7929 -0.2363  0.5901
  424MOL0     C58411   1.452   7.168   7.260  0.0627  0.2609  0.5423
  424MOL0     C58412   1.364   7.137   7.140  0.4095 -0.7655  0.7755
  424MOL0     C58413   1.425   7.138   7.004  0.7662  0.4655 -0.0858
  424MOL0     C58414   1.452   7.277   6.948 -0.3355  0.4476 -0.1153
  424MOL0     C58415   1.525   7.247   6.812 -0.6021  0.2925  0.3373
  424MOL0     C58416   1.583   7.366   6.751 -0.3480 -0.6632  0.6320
  424MOL0     C58417   1.641   7.352   6.612 -0.3212  0.0310 -0.0676
  424MOL0     C58418   1.726   7.482   6.570  0.4087  0.0662 -0.2604
  424MOL0    Cl58419   1.606   7.608   6.540  0.0446  0.2298  0.1696
  424MOL0     C58420   1.385   6.945   7.458 -0.0497  0.0855 -1.0761
  424MOL0     C58421   1.383   6.855   7.565 -1.1149 -0.6020 -0.1375
  424MOL0     O58422   1.211   6.723   7.795  0.9549 -0.0046 -0.2509
  424MOL0     C58423   1.432   6.716   8.069  0.2958  0.6593  0.8349
  424MOL0     C58424   1.489   6.638   8.171  0.0419  0.0237  0.1642
  424MOL0     N58425   1.620   6.359   8.939  0.2901  0.7589 -0.6788
  424MOL0     N58426   1.545   6.406   9.028  0.3610 -0.7700  0.7457
  424MOL0     C58427   0.846   7.224   9.082  0.5306 -1.1921 -0.7998
  424MOL0     C58428   0.803   7.349   9.133 -1.0432 -0.3140  0.6414
  424MOL0     C58429   0.606   7.676   9.398 -0.3184  0.2165 -0.2416
  424MOL0     C58430   0.482   7.722   9.349 -0.5469 -0.4036  0.6292
  424MOL0     C58431   0.429   7.831   9.422 -0.1135 -0.0860  0.3452
  424MOL0     C58432   0.487   7.891   9.530 -0.4043 -0.4517 -0.5360
  424MOL0     O58433   0.423   8.002   9.576  0.1739  0.0809  0.9613
  424MOL0     C58434   0.484   8.103   9.653 -0.3246  0.1902 -0.0985
  424MOL0     C58435   0.390   8.217   9.670  0.5007 -0.6510 -0.2404
  424MOL0     C58436   0.440   8.328   9.764  0.4196 -0.2231 -0.1934
  424MOL0     C58437   0.581   8.366   9.728 -0.6029  0.3932 -0.2487
  424MOL0     C58438   0.633   8.462   9.820 -0.1178  0.6488  0.1292
  424MOL0     C58439   0.704   8.544   9.881  0.0635  0.1909 -0.1062
  424MOL0     C58440   0.612   7.843   9.574  0.3093 -0.1262 -0.0005
  424MOL0     C58441   0.668   7.734   9.509  0.4083 -0.2129 -1.5108
  424MOL0     C58442   0.811   7.695   9.554  0.8288 -0.0057  0.3480
  424MOL0     H58443   0.474   7.284   9.198  0.8517  3.0526 -0.1074
  424MOL0     H58444   0.539   7.066   9.126 -1.0294  0.7400 -1.1515
  424MOL0     H58445   0.808   6.947   9.250 -3.0954  0.2910 -1.5049
  424MOL0     H58446   0.963   6.954   9.167 -1.1036  3.4904  1.3463
  424MOL0     H58447   0.879   6.724   9.233  1.0232 -1.4451  0.4221
  424MOL0     H58448   0.740   6.756   9.128 -0.0958  1.9380  0.9500
  424MOL0     H58449   0.875   6.743   8.938  1.9312 -0.0866 -0.9500
  424MOL0     H58450   1.018   6.778   9.016 -0.3537  0.5312 -2.4407
  424MOL0     H58451   1.012   6.543   9.132 -1.3511 -1.8125  0.3586
  424MOL0     H58452   0.867   6.519   9.043  0.9360 -0.9908  2.5993
  424MOL0     H58453   0.970   6.565   8.830 -2.9729 -1.0418  0.5646
  424MOL0     H58454   1.037   6.424   8.900  1.3000  0.1698  0.9227
  424MOL0     H58455   1.232   6.528   8.811 -0.5215  0.6525 -0.2215
  424MOL0     H58456   1.167   6.684   8.842  2.6845  0.7566  0.7235
  424MOL0     H58457   1.206   6.639   9.102  0.1783  0.5313 -0.3483
  424MOL0     H58458   1.358   6.661   9.017  0.0964  0.1660  1.2925
  424MOL0     H58459   1.339   6.467   9.158  1.4549 -2.7556 -0.8365
  424MOL0     H58460   1.221   6.383   9.062  0.3421 -1.4958  3.2897
  424MOL0     H58461   1.334   6.296   8.801 -0.9778 -1.8417  1.4879
  424MOL0     H58462   1.490   6.215   8.646  0.9031 -1.3296  2.8145
  424MOL0     H58463   1.656   6.221   8.686  0.2674 -0.0667 -3.0344
  424MOL0     H58464   1.514   6.466   8.565 -0.6754 -1.0043 -1.3839
  424MOL0     H58465   1.694   6.446   8.594 -0.9755  2.6769 -0.2067
  424MOL0     H58466   1.720   6.273   8.445  0.5861  1.7374 -1.2898
  424MOL0     H58467   1.543   6.242   8.427 -1.9835  1.7255 -3.7034
  424MOL0     H58468   1.647   6.503   8.334  1.5893 -0.4029 -1.2086
  424MOL0     H58469   1.666   6.354   8.232  3.4284 -0.3387  3.1472
  424MOL0     H58470   1.313   6.355   8.101 -1.0055  0.3600 -1.5903
  424MOL0     H58471   1.264   6.329   7.885 -1.1951 -0.3175  0.2062
  424MOL0     H58472   1.265   6.462   7.780  2.5726  2.4988  1.0585
  424MOL0     H58473   1.118   6.427   7.882 -0.0214 -2.4212 -1.3898
  424MOL0     H58474   1.427   7.085   7.819  0.6018 -1.3045  0.0079
  424MOL0     H58475   1.441   7.235   7.630  2.3405 -1.0073  0.4905
  424MOL0     H58476   1.511   7.258   7.243  4.3349 -2.0114  1.7631
  424MOL0     H58477   1.522   7.084   7.261 -0.1619  0.0074 -1.3564
  424MOL0     H58478   1.321   7.039   7.161  0.3434 -0.7725  0.6078
  424MOL0     H58479   1.276   7.203   7.145  0.2747 -0.8387 -0.3706
  424MOL0     H58480   1.352   7.093   6.937 -1.6270  0.0651  2.6220
  424MOL0     H58481   1.510   7.069   6.999 -1.6253 -2.6526 -0.6747
  424MOL0     H58482   1.514   7.343   7.010  0.6256  0.8994 -1.4985
  424MOL0     H58483   1.361   7.329   6.918 -1.1561 -1.8156 -1.8216
  424MOL0     H58484   1.613   7.185   6.830 -0.3477  1.4363  3.6528
  424MOL0     H58485   1.465   7.201   6.733  1.5932  1.1394 -1.9754
  424MOL0     H58486   1.670   7.386   6.813 -0.1874  0.8924 -0.0630
  424MOL0     H58487   1.526   7.459   6.748  1.2576  0.3320 -0.4179
  424MOL0     H58488   1.566   7.310   6.544 -0.0242 -0.0390 -0.3492
  424MOL0     H58489   1.722   7.278   6.612 -2.5670 -2.6129  0.9468
  424MOL0     H58490   1.791   7.470   6.483 -0.8698  1.1296 -1.3993
  424MOL0     H58491   1.789   7.521   6.651 -0.0947  3.5578 -1.3932
  424MOL0     H58492   1.380   6.904   7.358  0.0511 -1.8309 -0.3373
  424MOL0     H58493   1.384   6.750   7.540  4.1495 -0.3717 -2.2583
  424MOL0     H58494   1.450   6.822   8.056  3.6297  0.0605 -0.6804
  424MOL0     H58495   1.560   6.676   8.243  0.7479 -2.1890  0.7380
  424MOL0     H58496   0.946   7.203   9.044  1.7673  3.0730 -0.3976
  424MOL0     H58497   0.872   7.432   9.119 -1.3964 -0.2673 -1.0863
  424MOL0     H58498   0.425   7.684   9.264  0.8299  1.5451 -1.2758
  424MOL0     H58499   0.340   7.878   9.380  1.1912  0.1044 -2.4355
  424MOL0     H58500   0.506   8.071   9.755  0.1944 -3.0553 -1.1098
  424MOL0     H58501   0.575   8.128   9.597 -1.5067 -1.8907 -3.1990
  424MOL0     H58502   0.299   8.172   9.711  0.3382  1.0623  1.3796
  424MOL0     H58503   0.368   8.267   9.576 -2.3484 -0.1414  0.5879
  424MOL0     H58504   0.363   8.405   9.751 -3.2439 -3.2156  1.6029
  424MOL0     H58505   0.436   8.295   9.868  0.9644 -1.3167 -0.5024
  424MOL0     H58506   0.596   8.398   9.625  0.7050  0.0791 -0.1743
  424MOL0     H58507   0.636   8.273   9.742 -4.4432 -1.7251  3.2094
  424MOL0     H58508   0.762   8.616   9.935  1.7253 -1.4489  0.3956
  424MOL0     H58509   0.655   7.889   9.662 -1.3128 -1.5387  1.5885
  424MOL0     H58510   0.823   7.597   9.602  2.0051  1.3865  3.2063
  424MOL0     H58511   0.888   7.704   9.477 -0.0159 -0.7416 -0.6069
  424MOL0     H58512   0.848   7.772   9.624  2.2484 -1.8892  1.7804
  425MOL0     O58513   3.809  10.581   2.538 -0.0806  0.4107 -0.2227
  425MOL0     C58514   3.892  10.629   2.613 -0.7462 -0.9204 -0.3831
  425MOL0     O58515   3.959  10.566   2.710  0.0025 -0.1697  0.5639
  425MOL0     C58516   3.914  10.443   2.732 -0.0263  0.2677 -0.2277
  425MOL0     C58517   3.784  10.415   2.790  1.3614 -0.5802  0.2125
  425MOL0     C58518   3.750  10.288   2.818  0.2230  0.5622  0.7860
  425MOL0     C58519   3.837  10.183   2.779  0.0658 -0.6038  0.3743
  425MOL0     O58520   3.810  10.059   2.815 -0.5813  0.4988 -0.2412
  425MOL0     C58521   3.738   9.983   2.702 -0.8486 -0.0407 -0.0302
  425MOL0     C58522   3.601   9.947   2.739 -0.1326  0.5777 -0.6658
  425MOL0     C58523   3.510   9.856   2.629 -0.3831 -0.6860  1.0113
  425MOL0     C58524   3.360   9.872   2.645  0.5869  0.0800  0.1411
  425MOL0     C58525   3.281   9.765   2.577 -0.4033 -0.7844 -0.0321
  425MOL0     C58526   3.288   9.752   2.430  0.3013 -0.3042  0.7595
  425MOL0     C58527   3.259   9.888   2.358 -0.3181 -0.0791  1.0202
  425MOL0     C58528   3.272   9.896   2.212  0.5854 -1.0316 -0.6457
  425MOL0     N58529   3.416   9.871   2.181  0.2694 -0.5194 -0.5589
  425MOL0     C58530   3.464   9.761   2.115  0.6879  0.3134 -0.1451
  425MOL0     C58531   3.585   9.795   2.073 -1.2637 -0.1359 -0.0797
  425MOL0     C58532   3.681   9.697   2.003  0.1139  0.0098 -0.4010
  425MOL0     C58533   3.685   9.716   1.850 -0.2360  0.6569  0.0235
  425MOL0     C58534   3.610   9.840   1.786 -0.9602 -0.0221 -0.6661
  425MOL0     C58535   3.630   9.837   1.634 -0.3072 -0.4148 -0.2431
  425MOL0     O58536   3.756   9.797   1.590 -0.3008 -0.6358  0.1490
  425MOL0     C58537   3.851   9.887   1.535 -0.8390  0.1626 -0.6909
  425MOL0     C58538   3.986   9.866   1.561  0.5967 -0.2815 -0.7636
  425MOL0     C58539   4.091   9.947   1.518  0.2664 -0.4147 -0.3290
  425MOL0     C58540   4.222   9.900   1.562  0.4937 -0.2398  0.1249
  425MOL0     C58541   4.062  10.052   1.427 -0.7390  0.3934  0.8848
  425MOL0     C58542   4.169  10.140   1.377  0.3707  1.1284  0.9428
  425MOL0     O58543   4.293  10.140   1.441 -0.0034  0.0660 -0.4323
  425MOL0     C58544   4.380  10.241   1.400 -0.0952 -0.2986 -1.2814
  425MOL0     C58545   4.379  10.368   1.459  0.4554  0.6778  1.1836
  425MOL0     C58546   4.460  10.472   1.410 -0.4379 -0.2910 -0.1624
  425MOL0     C58547   4.535  10.459   1.290 -0.4129 -1.5581 -0.6266
  425MOL0     O58548   4.624  10.555   1.245  1.8022  0.5080 -0.0924
  425MOL0     C58549   4.621  10.689   1.295 -0.3496  0.0748 -0.2086
  425MOL0     C58550   4.694  10.791   1.204  0.1281 -0.5101  0.5826
  425MOL0     C58551   4.682  10.935   1.266  0.0363 -0.0150  0.3751
  425MOL0     C58552   4.738  11.041   1.167  0.6169  0.1098 -0.1047
  425MOL0     C58553   4.709  11.178   1.218  0.7780  0.0200  0.2021
  425MOL0     C58554   4.759  11.297   1.129 -1.0262 -0.8762 -0.3896
  425MOL0     C58555   4.667  11.342   1.005  0.0255 -0.1316 -0.3169
  425MOL0     C58556   4.747  11.415   0.893  0.5312  0.0027  0.1062
  425MOL0    Cl58557   4.636  11.494   0.782  0.1763 -0.1327 -0.3667
  425MOL0     C58558   4.533  10.334   1.239 -1.3188  0.1103  0.9153
  425MOL0     C58559   4.466  10.224   1.292  0.6787 -0.7477  0.8636
  425MOL0     O58560   4.136  10.220   1.286 -0.1003 -0.5708  0.1736
  425MOL0     C58561   3.929  10.065   1.379 -0.7454 -1.0185  1.0972
  425MOL0     C58562   3.831   9.989   1.438  0.8929 -0.3582  0.7113
  425MOL0     N58563   3.620   9.912   2.124  0.2356 -0.3124  0.4889
  425MOL0     N58564   3.516   9.956   2.196  0.7709 -0.8505 -0.3708
  425MOL0     C58565   3.961  10.211   2.726 -0.0001 -0.0907  1.0627
  425MOL0     C58566   4.003  10.340   2.701  0.5060  0.6890  0.1563
  425MOL0     C58567   3.951  10.772   2.582 -1.0427  0.8659  0.0340
  425MOL0     C58568   4.071  10.815   2.652  1.0344 -0.3504  0.4041
  425MOL0     C58569   4.119  10.941   2.636  0.7663 -0.7056 -0.1741
  425MOL0     C58570   4.056  11.034   2.550 -0.9056 -0.3409 -0.1537
  425MOL0     O58571   4.108  11.153   2.535  0.1994 -0.0876  0.0730
  425MOL0     C58572   4.189  11.209   2.635  0.7456  0.5727  0.0951
  425MOL0     C58573   4.194  11.357   2.616  0.0117 -0.5529 -0.3124
  425MOL0     C58574   4.055  11.424   2.603 -0.0410  0.3359  0.3084
  425MOL0     C58575   3.986  11.437   2.740 -1.4359 -0.6557 -0.4193
  425MOL0     C58576   4.055  11.548   2.807 -0.1570  0.5945  0.0117
  425MOL0     C58577   4.098  11.645   2.860  0.0849 -0.8146  0.4350
  425MOL0     C58578   3.940  11.001   2.487  0.2578  0.1883 -0.9945
  425MOL0     C58579   3.891  10.867   2.502  1.1886 -0.2589  0.2789
  425MOL0     C58580   3.764  10.839   2.431  0.0058 -0.5158 -0.6451
  425MOL0     H58581   3.719  10.495   2.824  1.4551 -2.0668  4.4396
  425MOL0     H58582   3.655  10.265   2.864  0.7030 -1.9307  0.6789
  425MOL0     H58583   3.792   9.890   2.682  1.2828  0.2659  3.4781
  425MOL0     H58584   3.735  10.036   2.607 -0.4408  0.7426  0.3888
  425MOL0     H58585   3.613   9.895   2.834 -0.3089 -0.9575 -1.4523
  425MOL0     H58586   3.544  10.038   2.760 -1.3976  0.1011 -1.8726
  425MOL0     H58587   3.538   9.894   2.530 -0.8035  1.0894  1.5343
  425MOL0     H58588   3.547   9.755   2.644  1.7809 -0.3992 -1.6075
  425MOL0     H58589   3.348   9.867   2.754  2.4215 -0.1732  0.3494
  425MOL0     H58590   3.317   9.969   2.618 -0.4901 -0.7578 -1.3382
  425MOL0     H58591   3.178   9.780   2.609  0.3239  4.0538  0.7729
  425MOL0     H58592   3.330   9.677   2.621  1.7749  1.2557  1.8605
  425MOL0     H58593   3.379   9.700   2.396 -1.2304 -2.4257 -0.3487
  425MOL0     H58594   3.212   9.679   2.401  0.2457 -0.2371  0.7370
  425MOL0     H58595   3.309   9.978   2.396 -1.1643  1.7186 -1.8203
  425MOL0     H58596   3.156   9.904   2.391 -0.4629 -0.3942  0.7283
  425MOL0     H58597   3.200   9.819   2.182  1.3409 -2.6020  1.3214
  425MOL0     H58598   3.249   9.996   2.173 -2.6380 -0.8627  1.3137
  425MOL0     H58599   3.413   9.669   2.089  3.3010 -1.8752  1.8151
  425MOL0     H58600   3.628   9.610   2.042  0.0694 -0.2324 -0.9918
  425MOL0     H58601   3.784   9.705   2.040 -0.0370 -0.5988  0.1663
  425MOL0     H58602   3.794   9.722   1.839 -0.0784 -0.4863  0.7670
  425MOL0     H58603   3.650   9.627   1.797  2.7202 -0.5959 -0.0206
  425MOL0     H58604   3.503   9.847   1.810 -1.0852  1.4950 -1.5246
  425MOL0     H58605   3.666   9.932   1.806  0.0580 -0.1087 -2.8331
  425MOL0     H58606   3.546   9.775   1.600  1.2795 -0.9410 -3.6618
  425MOL0     H58607   3.604   9.934   1.591  0.4507 -0.9053 -1.9006
  425MOL0     H58608   3.997   9.792   1.640 -5.4525 -1.6043 -0.6848
  425MOL0     H58609   4.267   9.980   1.622  0.0758  0.1160 -0.0331
  425MOL0     H58610   4.282   9.872   1.474 -1.0903  0.8807 -1.3724
  425MOL0     H58611   4.217   9.808   1.622  0.6100 -1.5995 -1.8338
  425MOL0     H58612   4.320  10.403   1.543  2.0479  0.6461  2.3770
  425MOL0     H58613   4.456  10.571   1.453 -0.2666 -0.6324  0.6629
  425MOL0     H58614   4.518  10.725   1.293  0.1658  1.7093  0.6214
  425MOL0     H58615   4.664  10.683   1.396 -0.3248  1.9450 -0.0656
  425MOL0     H58616   4.801  10.767   1.196  0.3102 -0.2251  1.8749
  425MOL0     H58617   4.643  10.794   1.107 -2.9358  1.3037  2.0986
  425MOL0     H58618   4.739  10.928   1.360 -1.8151 -0.5957  1.5281
  425MOL0     H58619   4.578  10.951   1.298  0.6899  2.2993  1.5181
  425MOL0     H58620   4.682  11.030   1.073 -0.0288 -0.5832  0.3550
  425MOL0     H58621   4.844  11.030   1.145  0.7594  2.4830 -0.8677
  425MOL0     H58622   4.601  11.180   1.234  0.7975  2.0237  0.3007
  425MOL0     H58623   4.757  11.189   1.316  1.5065 -1.9957  0.1256
  425MOL0     H58624   4.856  11.269   1.088  1.2980  2.2497  2.4946
  425MOL0     H58625   4.770  11.376   1.204  0.0443 -1.2919 -0.0900
  425MOL0     H58626   4.589  11.407   1.047 -0.1027  0.5012 -1.4741
  425MOL0     H58627   4.613  11.256   0.967 -0.0976  0.4618 -1.5259
  425MOL0     H58628   4.809  11.339   0.845 -0.2458 -3.1836  3.6190
  425MOL0     H58629   4.805  11.490   0.946 -1.9078  1.5510  0.7723
  425MOL0     H58630   4.586  10.324   1.145  0.6622 -0.5358  2.0486
  425MOL0     H58631   4.465  10.126   1.245  2.3324  0.3856 -1.8142
  425MOL0     H58632   3.911  10.132   1.296 -0.8879 -1.5224  0.7134
  425MOL0     H58633   3.728   9.990   1.403  1.5193 -3.7052 -1.7613
  425MOL0     H58634   4.025  10.125   2.708  0.3740 -0.0692  2.2437
  425MOL0     H58635   4.101  10.359   2.659 -0.0540 -0.9649 -2.0337
  425MOL0     H58636   4.116  10.751   2.728 -1.2316  0.7894  2.8551
  425MOL0     H58637   4.204  10.976   2.693  0.8984 -0.3022 -0.6142
  425MOL0     H58638   4.128  11.185   2.723 -0.9029  2.2219 -0.5269
  425MOL0     H58639   4.289  11.167   2.655 -1.0045 -2.8120  2.7518
  425MOL0     H58640   4.244  11.383   2.523 -0.7338  0.3531 -0.4696
  425MOL0     H58641   4.250  11.398   2.700  2.0063 -2.4281 -0.6449
  425MOL0     H58642   4.060  11.516   2.543  1.4394 -0.5914 -1.0926
  425MOL0     H58643   3.982  11.363   2.548 -1.2583 -0.5662  2.7783
  425MOL0     H58644   3.995  11.342   2.794 -2.0083 -0.3412  0.2503
  425MOL0     H58645   3.879  11.458   2.727 -1.1761 -0.2327 -2.0292
  425MOL0     H58646   4.151  11.725   2.907  0.8031 -1.1430  0.2017
  425MOL0     H58647   3.891  11.074   2.424 -2.0474 -1.8141 -1.6446
  425MOL0     H58648   3.776  10.769   2.348 -0.3555 -1.5430  0.1384
  425MOL0     H58649   3.691  10.793   2.498  0.0544 -1.4753 -1.2302
  425MOL0     H58650   3.717  10.932   2.399  2.5890  0.5125 -1.6472
  426MOL0     O58651   3.716   8.988   9.215 -0.9202 -0.0177  0.8826
  426MOL0     C58652   3.839   8.981   9.237  0.5550  0.4176  0.2271
  426MOL0     O58653   3.919   8.871   9.215  0.3379 -0.2805  0.2496
  426MOL0     C58654   3.859   8.751   9.180 -0.8732  0.1798  0.3338
  426MOL0     C58655   3.892   8.625   9.245  0.4020 -0.4009  0.0413
  426MOL0     C58656   3.818   8.513   9.203  0.2342  0.7717 -0.5007
  426MOL0     C58657   3.731   8.504   9.097  0.3572  0.3845 -0.5352
  426MOL0     O58658   3.669   8.389   9.049  0.1949 -0.0849  0.4719
  426MOL0     C58659   3.752   8.277   9.050 -0.5661 -0.6726 -0.5742
  426MOL0     C58660   3.721   8.184   8.939  0.4260  0.9793  0.3851
  426MOL0     C58661   3.786   8.224   8.809  0.2675 -0.0788  0.6362
  426MOL0     C58662   3.710   8.339   8.738  0.2453  0.1989  0.1914
  426MOL0     C58663   3.736   8.335   8.589  0.3095 -0.0236  0.5316
  426MOL0     C58664   3.710   8.465   8.519  0.2657 -0.0923 -0.1536
  426MOL0     C58665   3.793   8.466   8.387 -0.5712 -0.3083 -0.3811
  426MOL0     C58666   3.753   8.589   8.306  0.7401 -0.5840  0.1384
  426MOL0     N58667   3.852   8.631   8.210  0.0995  0.8837  0.7847
  426MOL0     C58668   3.903   8.751   8.184 -0.0179 -0.1137  0.1285
  426MOL0     C58669   3.997   8.741   8.086 -0.2251 -0.1907  0.3125
  426MOL0     C58670   4.096   8.840   8.035  0.1247  0.0692  0.3979
  426MOL0     C58671   4.033   8.935   7.931 -0.3235  0.4854  0.2326
  426MOL0     C58672   4.002   8.856   7.799 -0.2974  0.3387 -0.2816
  426MOL0     C58673   3.914   8.934   7.705 -0.3643 -0.6647 -0.0260
  426MOL0     O58674   3.974   9.059   7.683 -0.4278 -0.5575  0.4226
  426MOL0     C58675   4.081   9.061   7.587 -0.6909 -1.1050 -0.1974
  426MOL0     C58676   4.077   8.994   7.469  0.0049 -0.0337  0.3399
  426MOL0     C58677   4.182   9.008   7.375  0.2461  0.2405 -0.0657
  426MOL0     C58678   4.154   8.948   7.236 -0.8494  1.4530 -0.2521
  426MOL0     C58679   4.301   9.076   7.403  0.3615 -0.7846 -0.1503
  426MOL0     C58680   4.411   9.090   7.307 -0.2806  0.4654 -0.4562
  426MOL0     O58681   4.478   9.206   7.318  0.2849  0.9663  0.0961
  426MOL0     C58682   4.600   9.229   7.250  0.4911  0.5063  0.3147
  426MOL0     C58683   4.711   9.143   7.230  0.5054  0.1929 -0.6215
  426MOL0     C58684   4.832   9.182   7.169  0.4361 -0.5781 -0.1797
  426MOL0     C58685   4.845   9.309   7.113  0.5571  0.8061  0.0796
  426MOL0     O58686   4.943   9.358   7.043  0.7985 -0.1690  1.1636
  426MOL0     C58687   4.979   9.270   6.937 -0.4947  0.1992  0.6925
  426MOL0     C58688   5.107   9.310   6.872  0.7052  0.3536 -0.7336
  426MOL0     C58689   5.105   9.448   6.809  0.3085 -0.2721 -0.2388
  426MOL0     C58690   5.182   9.541   6.895 -0.1487 -0.0814  0.4128
  426MOL0     C58691   5.338   9.527   6.877  0.4484 -0.9774 -0.1898
  426MOL0     C58692   5.411   9.624   6.976  0.5829 -0.0115 -0.1019
  426MOL0     C58693   5.554   9.622   6.916 -1.3498 -0.3537 -0.1570
  426MOL0     C58694   5.647   9.735   6.962 -0.6398  0.3007  0.6862
  426MOL0    Cl58695   5.767   9.681   7.084 -0.0679 -0.1068  0.4370
  426MOL0     C58696   4.742   9.401   7.144  0.2089 -0.4250  0.6018
  426MOL0     C58697   4.621   9.358   7.209 -0.4981  0.4157 -0.3609
  426MOL0     O58698   4.451   8.989   7.245  0.2793  0.0993 -0.3449
  426MOL0     C58699   4.301   9.145   7.526 -1.1194 -0.1659  0.2553
  426MOL0     C58700   4.192   9.143   7.612  0.6510  0.5087 -0.1557
  426MOL0     N58701   4.004   8.606   8.051  0.0880 -0.6186  0.5795
  426MOL0     N58702   3.917   8.546   8.120  0.4685  0.1310  0.1694
  426MOL0     C58703   3.719   8.619   9.026 -0.0115  0.5038  0.0230
  426MOL0     C58704   3.782   8.737   9.070 -0.0090 -0.0656  0.6194
  426MOL0     C58705   3.905   9.102   9.293 -0.0525 -0.5572 -0.2968
  426MOL0     C58706   3.824   9.223   9.290 -1.0599 -0.2743 -0.5074
  426MOL0     C58707   3.883   9.351   9.314  0.0579 -0.1398  0.1687
  426MOL0     C58708   4.020   9.358   9.345  0.5790  0.1913  0.2252
  426MOL0     O58709   4.092   9.469   9.356  0.0831 -0.3429  0.4126
  426MOL0     C58710   4.027   9.592   9.329  0.8701  0.1995  0.7758
  426MOL0     C58711   4.127   9.707   9.357  0.4047 -0.0786  0.7695
  426MOL0     C58712   4.054   9.845   9.345 -0.7775  0.4108 -0.0074
  426MOL0     C58713   4.125   9.941   9.247 -0.3778  0.4322  0.4937
  426MOL0     C58714   4.246   9.994   9.296 -0.4004  0.2199  0.0408
  426MOL0     C58715   4.356  10.045   9.304 -0.2174 -0.5747 -0.4720
  426MOL0     C58716   4.093   9.242   9.376  0.4725 -0.1268 -0.0167
  426MOL0     C58717   4.038   9.110   9.354  0.2568 -0.1999 -0.8227
  426MOL0     C58718   4.125   9.001   9.404 -0.5318 -0.1406  1.0806
  426MOL0     H58719   3.963   8.617   9.327  1.7121 -0.6200 -1.0738
  426MOL0     H58720   3.840   8.414   9.240 -1.7770  0.2852 -0.5002
  426MOL0     H58721   3.735   8.234   9.149 -0.3628  1.6927  0.5670
  426MOL0     H58722   3.858   8.296   9.034 -0.1108 -2.7845 -0.3182
  426MOL0     H58723   3.759   8.083   8.954 -0.6438 -0.0750 -3.0889
  426MOL0     H58724   3.614   8.162   8.932  0.6871 -0.2778  0.1655
  426MOL0     H58725   3.887   8.258   8.832  0.0608  0.4829  0.7295
  426MOL0     H58726   3.788   8.140   8.738  0.5841  1.6168 -1.4681
  426MOL0     H58727   3.602   8.325   8.748  0.4191 -0.6953  0.9133
  426MOL0     H58728   3.748   8.426   8.793 -2.1128  3.1103 -2.4139
  426MOL0     H58729   3.681   8.252   8.542 -1.9999 -0.2539  3.3974
  426MOL0     H58730   3.843   8.314   8.577  0.6670  1.9395 -0.1175
  426MOL0     H58731   3.605   8.485   8.496  0.4834  1.9813  0.4718
  426MOL0     H58732   3.759   8.538   8.584  2.3288  1.4188 -3.1886
  426MOL0     H58733   3.769   8.373   8.334 -0.6740 -0.8240  0.5406
  426MOL0     H58734   3.897   8.468   8.419 -1.5107 -1.6901  3.2917
  426MOL0     H58735   3.657   8.578   8.254  0.2832  2.2596  0.1773
  426MOL0     H58736   3.740   8.669   8.379  0.9547  1.2906 -1.7662
  426MOL0     H58737   3.873   8.842   8.234 -1.5907  0.4479 -1.6877
  426MOL0     H58738   4.194   8.800   8.006 -0.6376  0.1012 -2.4667
  426MOL0     H58739   4.135   8.905   8.114  1.5195  3.2510 -2.6263
  426MOL0     H58740   3.940   8.977   7.970 -2.3832 -2.5740 -1.0078
  426MOL0     H58741   4.100   9.019   7.909 -0.8627  0.4921 -1.4877
  426MOL0     H58742   4.093   8.823   7.749  0.0185 -1.4020  1.3530
  426MOL0     H58743   3.945   8.767   7.826  2.9651 -1.0548  2.8165
  426MOL0     H58744   3.884   8.890   7.609 -1.0521  0.0363 -0.1437
  426MOL0     H58745   3.820   8.952   7.758 -0.8416 -2.8091 -0.0287
  426MOL0     H58746   3.985   8.944   7.441 -2.0520  1.9480  3.0133
  426MOL0     H58747   4.211   8.856   7.218 -1.0089  1.3715 -0.3418
  426MOL0     H58748   4.172   9.020   7.156 -0.2008  1.1396 -0.3969
  426MOL0     H58749   4.051   8.912   7.229 -0.2260 -0.3987 -0.5782
  426MOL0     H58750   4.702   9.040   7.264 -3.4311  0.3723 -0.6578
  426MOL0     H58751   4.916   9.112   7.166  0.9511 -0.0233  0.8243
  426MOL0     H58752   4.997   9.173   6.984  2.0744  1.6876  3.0484
  426MOL0     H58753   4.895   9.269   6.867  0.5882 -1.1369 -0.6356
  426MOL0     H58754   5.182   9.300   6.951  0.1115  2.7844  0.1984
  426MOL0     H58755   5.122   9.239   6.790 -0.0032  2.4230 -2.7505
  426MOL0     H58756   5.002   9.485   6.805 -0.5923 -2.4530  1.0066
  426MOL0     H58757   5.155   9.443   6.712  4.0705 -1.8017  1.5854
  426MOL0     H58758   5.148   9.536   6.999 -1.7644  4.8214  0.4036
  426MOL0     H58759   5.152   9.642   6.864 -2.8455 -1.1596 -0.8166
  426MOL0     H58760   5.369   9.426   6.903 -1.6399 -1.1882  1.7881
  426MOL0     H58761   5.358   9.551   6.772 -1.1967  1.1563 -0.0829
  426MOL0     H58762   5.414   9.604   7.084 -1.1913 -0.8938 -0.1654
  426MOL0     H58763   5.350   9.714   6.967 -0.0261 -0.3829  0.1822
  426MOL0     H58764   5.550   9.638   6.807 -1.1371 -0.9794 -0.2629
  426MOL0     H58765   5.611   9.532   6.937  0.6450  0.3196 -2.2431
  426MOL0     H58766   5.592   9.818   7.007  0.0878 -0.1477  2.4553
  426MOL0     H58767   5.701   9.773   6.874  0.1791 -3.8005 -0.8028
  426MOL0     H58768   4.742   9.502   7.105 -3.4642 -0.1215  1.0357
  426MOL0     H58769   4.542   9.431   7.225 -1.4984 -0.4443 -1.2112
  426MOL0     H58770   4.386   9.210   7.543 -0.4300  0.4438 -4.3080
  426MOL0     H58771   4.182   9.213   7.695  0.2776 -0.0516  0.2850
  426MOL0     H58772   3.683   8.621   8.924 -1.2829 -3.6025  0.2233
  426MOL0     H58773   3.772   8.827   9.010 -2.9932  0.7254  2.0969
  426MOL0     H58774   3.721   9.208   9.259 -0.3195 -1.3102 -2.6865
  426MOL0     H58775   3.829   9.442   9.290  0.2147  0.2410  1.2054
  426MOL0     H58776   4.001   9.589   9.222  0.3168 -1.6292  0.9253
  426MOL0     H58777   3.940   9.600   9.395 -0.2499 -2.6788 -0.1654
  426MOL0     H58778   4.209   9.705   9.284  0.8005  0.4503  1.1855
  426MOL0     H58779   4.179   9.710   9.453  0.0918  3.0310  0.9491
  426MOL0     H58780   3.958   9.835   9.294  0.0993 -1.0735 -1.4568
  426MOL0     H58781   4.040   9.879   9.448 -1.5104  1.0198 -0.2969
  426MOL0     H58782   4.052  10.017   9.218 -2.1338 -1.6058 -0.6754
  426MOL0     H58783   4.141   9.900   9.147 -2.0627 -0.6179  0.6167
  426MOL0     H58784   4.450  10.087   9.334  0.4846 -2.1892 -0.3061
  426MOL0     H58785   4.194   9.249   9.416  1.4705 -1.7615 -2.0424
  426MOL0     H58786   4.198   9.040   9.475 -1.2004 -1.7225  2.7147
  426MOL0     H58787   4.070   8.926   9.462 -0.3866 -0.5846  0.6605
  426MOL0     H58788   4.170   8.948   9.318  2.6949 -0.4123  2.7735
  427MOL0     O58789   8.112  11.105   7.135  0.2141 -0.5923  0.1341
  427MOL0     C58790   7.995  11.100   7.163  0.3106  0.7883 -0.1688
  427MOL0     O58791   7.943  11.023   7.258  0.5378  0.1456  0.3239
  427MOL0     C58792   8.000  10.904   7.294 -0.1464  0.7568 -0.3421
  427MOL0     C58793   8.117  10.909   7.365 -0.3603 -0.0989  0.3312
  427MOL0     C58794   8.186  10.790   7.410  0.8387 -0.3018  0.3290
  427MOL0     C58795   8.135  10.664   7.371  0.1146 -0.1353  0.2403
  427MOL0     O58796   8.205  10.548   7.361  0.4048 -0.6928 -0.0101
  427MOL0     C58797   8.353  10.547   7.378  0.5643 -0.9601 -0.2004
  427MOL0     C58798   8.424  10.613   7.254  0.0882 -0.1632 -0.3535
  427MOL0     C58799   8.558  10.671   7.286 -0.1549 -0.1234  0.3325
  427MOL0     C58800   8.658  10.559   7.322  0.0801 -0.3032  0.7474
  427MOL0     C58801   8.804  10.609   7.289 -0.1778 -0.1475 -0.1473
  427MOL0     C58802   8.823  10.751   7.352 -0.5893  0.5290 -0.4630
  427MOL0     C58803   8.972  10.779   7.368  0.6558 -0.1069 -0.0535
  427MOL0     C58804   8.976  10.924   7.400 -0.3221 -0.8824  0.5542
  427MOL0     N58805   8.950  10.962   7.534 -0.7712  0.1993 -0.6768
  427MOL0     C58806   8.984  10.898   7.651  0.1212  0.1465  0.1012
  427MOL0     C58807   8.982  10.992   7.751 -0.5354 -0.9760  0.3048
  427MOL0     C58808   9.000  10.972   7.888 -0.4155  0.2907  0.0407
  427MOL0     C58809   8.864  11.018   7.948 -0.1100  0.3584 -0.1970
  427MOL0     C58810   8.857  10.992   8.101 -0.1878  0.3862 -0.2611
  427MOL0     C58811   8.719  11.015   8.151  0.7556 -0.0673  0.3673
  427MOL0     O58812   8.688  11.154   8.149  0.7558  0.5922 -0.3133
  427MOL0     C58813   8.560  11.194   8.165 -0.3637 -0.4541  0.1672
  427MOL0     C58814   8.535  11.329   8.136  0.3109  0.2424  0.6709
  427MOL0     C58815   8.400  11.381   8.153 -0.6853  0.1460 -0.0317
  427MOL0     C58816   8.385  11.530   8.142 -0.4633  0.2376 -0.3158
  427MOL0     C58817   8.294  11.300   8.192  0.4167 -0.4309 -0.1599
  427MOL0     C58818   8.159  11.334   8.229 -0.4399  0.7075  0.1111
  427MOL0     O58819   8.077  11.237   8.275 -0.4254 -0.1557  1.2638
  427MOL0     C58820   7.952  11.264   8.293 -0.6064  0.2457 -1.0819
  427MOL0     C58821   7.854  11.202   8.223 -0.1656 -0.2438 -0.3819
  427MOL0     C58822   7.724  11.221   8.267 -0.1408  0.9569 -0.2369
  427MOL0     C58823   7.688  11.317   8.358  0.1077  0.0927  0.0170
  427MOL0     O58824   7.559  11.342   8.407 -0.0006  0.5693 -0.1487
  427MOL0     C58825   7.445  11.299   8.338  0.0101 -0.0268 -0.6009
  427MOL0     C58826   7.309  11.371   8.387  0.6804  0.4223 -0.5637
  427MOL0     C58827   7.296  11.520   8.373 -0.5083  0.4946 -0.1660
  427MOL0     C58828   7.360  11.591   8.251  0.5537  0.4797 -0.5622
  427MOL0     C58829   7.310  11.736   8.245 -0.3854  0.2097 -0.1648
  427MOL0     C58830   7.357  11.792   8.114 -0.0158  0.1845  0.4575
  427MOL0     C58831   7.371  11.947   8.119  0.7429  0.7134  0.2819
  427MOL0     C58832   7.380  11.996   7.974 -0.2638  0.4639  0.4934
  427MOL0    Cl58833   7.555  11.960   7.926 -0.2885 -0.5799 -0.1839
  427MOL0     C58834   7.782  11.386   8.419 -1.1860  0.4685 -0.1367
  427MOL0     C58835   7.920  11.350   8.397 -1.3048 -0.0967  0.1828
  427MOL0     O58836   8.123  11.446   8.199 -0.1307 -0.2978 -0.1263
  427MOL0     C58837   8.321  11.164   8.215  0.6015  0.0530  0.2812
  427MOL0     C58838   8.448  11.117   8.202  0.4779  0.5782 -0.7591
  427MOL0     N58839   8.951  11.115   7.690 -0.0685 -0.4117  0.7382
  427MOL0     N58840   8.955  11.098   7.562  0.9508 -0.7988  0.0004
  427MOL0     C58841   8.009  10.657   7.306 -1.4885 -0.5151  0.2729
  427MOL0     C58842   7.940  10.780   7.276 -0.2807  0.3084 -0.1443
  427MOL0     C58843   7.905  11.201   7.106  0.5203 -0.4767 -0.3509
  427MOL0     C58844   7.935  11.249   6.977 -0.1526  1.3665 -0.5231
  427MOL0     C58845   7.851  11.340   6.917  0.8345  0.2505  0.0083
  427MOL0     C58846   7.737  11.384   6.985  0.3408 -0.1462  0.6147
  427MOL0     O58847   7.658  11.468   6.914 -0.7203  0.5770 -0.5190
  427MOL0     C58848   7.644  11.598   6.976 -0.3780 -0.2325  0.7658
  427MOL0     C58849   7.604  11.687   6.853 -0.0381 -0.3826 -0.2339
  427MOL0     C58850   7.545  11.829   6.892  1.2176  1.2665 -0.1841
  427MOL0     C58851   7.515  11.934   6.786 -0.0499  1.0553  0.2371
  427MOL0     C58852   7.632  11.938   6.710 -0.7829 -0.3079  1.2555
  427MOL0     C58853   7.743  11.941   6.659 -0.0957 -0.3202 -1.4061
  427MOL0     C58854   7.715  11.346   7.121 -0.1995 -0.3810  0.2785
  427MOL0     C58855   7.798  11.253   7.182  0.4132  0.7171 -0.1754
  427MOL0     C58856   7.754  11.220   7.321 -0.8967 -0.5292  0.0759
  427MOL0     H58857   8.155  11.006   7.394 -0.3096 -0.1161  0.3192
  427MOL0     H58858   8.278  10.802   7.466 -0.2872  3.4143  1.6877
  427MOL0     H58859   8.391  10.448   7.405  0.1810 -0.1418  3.9330
  427MOL0     H58860   8.373  10.589   7.477  0.3534 -0.2233 -0.4695
  427MOL0     H58861   8.436  10.540   7.174  0.6504  0.8211 -1.1867
  427MOL0     H58862   8.355  10.689   7.216  2.3087  1.3295 -1.6326
  427MOL0     H58863   8.594  10.717   7.194 -0.7002 -2.1104 -0.9165
  427MOL0     H58864   8.545  10.759   7.351  1.5617  3.4764 -3.7021
  427MOL0     H58865   8.662  10.532   7.428  0.5092 -0.5603  0.6683
  427MOL0     H58866   8.638  10.473   7.257 -0.6974 -0.3563  1.0476
  427MOL0     H58867   8.813  10.616   7.180 -5.8161  2.0503 -0.8441
  427MOL0     H58868   8.879  10.543   7.333  1.1697  1.2342 -0.2715
  427MOL0     H58869   8.775  10.828   7.291  0.2559  0.6504 -0.9890
  427MOL0     H58870   8.779  10.743   7.452 -2.7255 -1.5655 -1.4579
  427MOL0     H58871   9.015  10.748   7.273 -0.3041 -1.2958 -0.1278
  427MOL0     H58872   9.019  10.722   7.448 -0.8753 -0.3432  0.7233
  427MOL0     H58873   9.080  10.955   7.383 -0.9292  0.2829 -1.2248
  427MOL0     H58874   8.914  10.981   7.331  1.0227 -0.9269 -0.7422
  427MOL0     H58875   9.018  10.796   7.664  0.1043  0.2103  0.7007
  427MOL0     H58876   9.087  11.022   7.932  0.2635 -1.1584  0.4240
  427MOL0     H58877   9.004  10.864   7.908 -0.6908 -0.1539 -2.0550
  427MOL0     H58878   8.840  11.122   7.926 -2.3516 -0.6165 -2.9428
  427MOL0     H58879   8.783  10.963   7.898 -0.0758  2.1408 -2.3341
  427MOL0     H58880   8.881  10.888   8.120 -1.3250  0.2217  0.3408
  427MOL0     H58881   8.932  11.060   8.143 -0.2307  1.9384 -2.5063
  427MOL0     H58882   8.646  10.954   8.096  1.4752  1.1579 -2.1020
  427MOL0     H58883   8.715  10.987   8.257  2.2683  2.2551  1.0973
  427MOL0     H58884   8.625  11.380   8.104 -0.0259  0.1946 -0.3964
  427MOL0     H58885   8.340  11.539   8.042 -0.1202 -1.1482 -0.6158
  427MOL0     H58886   8.483  11.578   8.145 -0.2693 -0.2052  2.0325
  427MOL0     H58887   8.337  11.570   8.232  2.2692  1.5261  0.6717
  427MOL0     H58888   7.888  11.122   8.158  2.8939 -0.2339  0.9763
  427MOL0     H58889   7.645  11.153   8.235 -0.8959  1.9452 -0.5077
  427MOL0     H58890   7.459  11.302   8.230 -2.2351 -0.0981 -0.9446
  427MOL0     H58891   7.432  11.195   8.367 -0.8060  0.3632  0.5369
  427MOL0     H58892   7.224  11.324   8.338  0.4876  0.4862 -0.2927
  427MOL0     H58893   7.289  11.349   8.492  0.1878 -0.0702 -0.7593
  427MOL0     H58894   7.338  11.564   8.464  1.7324  2.2414 -1.9499
  427MOL0     H58895   7.190  11.547   8.377 -0.2242  1.5327  0.8635
  427MOL0     H58896   7.309  11.542   8.167 -1.9393  0.4242  0.8791
  427MOL0     H58897   7.469  11.594   8.254  0.5871 -0.7935  1.6250
  427MOL0     H58898   7.201  11.733   8.251 -0.4307 -1.0720 -1.1437
  427MOL0     H58899   7.356  11.793   8.326  1.5778  1.6062 -2.1442
  427MOL0     H58900   7.293  11.758   8.033  2.0260  4.0234 -3.1753
  427MOL0     H58901   7.462  11.765   8.097  1.5656  4.6881  1.6320
  427MOL0     H58902   7.464  11.977   8.169  0.0322  0.9714  1.4776
  427MOL0     H58903   7.278  11.986   8.161  0.0169 -0.0630 -0.5710
  427MOL0     H58904   7.341  12.098   7.966 -4.2152 -0.7109  2.5751
  427MOL0     H58905   7.310  11.942   7.909 -2.9305  1.7961  2.0900
  427MOL0     H58906   7.749  11.459   8.492 -0.5340  0.5936  0.0381
  427MOL0     H58907   7.994  11.402   8.457  0.1744 -2.7836  0.8180
  427MOL0     H58908   8.256  11.081   8.239  0.8127 -0.8532 -1.9572
  427MOL0     H58909   8.478  11.015   8.224  1.1586  1.1510  1.1783
  427MOL0     H58910   7.969  10.563   7.270  2.4775 -2.2648 -0.1004
  427MOL0     H58911   7.839  10.781   7.235  0.0811 -1.8303 -1.1938
  427MOL0     H58912   8.024  11.225   6.920  0.0116  0.0416  0.2427
  427MOL0     H58913   7.877  11.372   6.817 -0.0706  0.5094 -0.1527
  427MOL0     H58914   7.576  11.601   7.062 -0.5078 -4.2750  0.9621
  427MOL0     H58915   7.744  11.623   7.012  0.4760 -2.3728  0.0311
  427MOL0     H58916   7.529  11.638   6.790 -0.0165  0.5059 -0.9705
  427MOL0     H58917   7.701  11.703   6.805  1.4492 -0.1657  2.6187
  427MOL0     H58918   7.456  11.807   6.951  0.3961 -1.0615 -2.1467
  427MOL0     H58919   7.622  11.868   6.959 -0.4963  1.6727  1.6464
  427MOL0     H58920   7.499  12.036   6.823 -0.6794  1.3598 -0.8357
  427MOL0     H58921   7.427  11.907   6.728  0.7401 -1.9976  0.3049
  427MOL0     H58922   7.843  11.928   6.624 -0.1349  2.4881 -2.8320
  427MOL0     H58923   7.623  11.377   7.171 -0.5591 -1.2543  0.1731
  427MOL0     H58924   7.691  11.296   7.368  0.3491  0.6579 -0.0878
  427MOL0     H58925   7.707  11.122   7.317 -4.4370  1.0189 -3.3213
  427MOL0     H58926   7.843  11.217   7.383  0.8035 -4.5161 -2.2046
  428MOL0     O58927   7.888   7.723   2.397 -0.3541 -0.0442  0.7345
  428MOL0     C58928   8.011   7.732   2.419  0.1870  0.5329  0.2232
  428MOL0     O58929   8.099   7.637   2.363 -0.3091 -0.0962  0.5558
  428MOL0     C58930   8.064   7.521   2.292  0.4625  0.0063  0.3687
  428MOL0     C58931   8.183   7.448   2.235  0.7052  0.1861  0.2001
  428MOL0     C58932   8.169   7.357   2.126 -0.2198 -0.1761 -0.2579
  428MOL0     C58933   8.048   7.317   2.090 -0.5212  0.0629  0.8642
  428MOL0     O58934   8.005   7.246   1.979  0.6143 -0.0951  0.6728
  428MOL0     C58935   8.113   7.192   1.905 -1.0068  0.3891 -0.0248
  428MOL0     C58936   8.052   7.107   1.810  0.4485  0.4655 -0.5638
  428MOL0     C58937   8.162   7.040   1.722 -0.1365 -0.0986  0.4244
  428MOL0     C58938   8.091   6.956   1.618  0.2600 -0.0734  0.3974
  428MOL0     C58939   8.185   6.906   1.509  0.1315  0.4151  0.2203
  428MOL0     C58940   8.230   6.761   1.513  0.4271 -0.2343  0.1473
  428MOL0     C58941   8.347   6.729   1.422 -0.9335 -0.9967  0.9886
  428MOL0     C58942   8.409   6.589   1.446  0.4699 -0.6840 -0.6073
  428MOL0     N58943   8.536   6.564   1.373  0.6553  0.6367  0.1231
  428MOL0     C58944   8.578   6.438   1.345 -0.8318  0.1745 -0.4931
  428MOL0     C58945   8.712   6.448   1.331 -0.3893 -0.4557 -0.4688
  428MOL0     C58946   8.809   6.325   1.302  0.2524 -0.2978 -0.3306
  428MOL0     C58947   8.824   6.257   1.434 -0.0259  0.7729  0.6707
  428MOL0     C58948   8.953   6.177   1.437  0.0266 -0.4517  0.4285
  428MOL0     C58949   8.913   6.050   1.351  0.3935  0.7390  0.0463
  428MOL0     O58950   9.020   5.956   1.347  0.3408 -0.3413  0.1265
  428MOL0     C58951   9.117   5.979   1.248  0.2746 -0.2509  0.2803
  428MOL0     C58952   9.114   6.077   1.139 -0.1973 -0.4181 -0.9669
  428MOL0     C58953   9.219   6.081   1.048  0.5767 -0.0158 -1.5716
  428MOL0     C58954   9.222   6.196   0.955  0.0997 -0.5487  0.7268
  428MOL0     C58955   9.326   5.976   1.052  0.2553 -0.3878 -0.7634
  428MOL0     C58956   9.452   5.969   0.973 -1.5976 -0.8706 -0.1549
  428MOL0     O58957   9.478   6.069   0.881 -1.0029 -0.3212 -0.1572
  428MOL0     C58958   9.595   6.077   0.806  0.2929 -0.4191  0.5760
  428MOL0     C58959   9.637   5.970   0.712  0.1389  0.5220 -0.5798
  428MOL0     C58960   9.734   6.004   0.614 -0.2732  0.2267  0.0909
  428MOL0     C58961   9.801   6.125   0.622 -0.0462 -0.1010  1.4293
  428MOL0     O58962   9.901   6.138   0.529  0.0421 -0.4857 -0.4801
  428MOL0     C58963  10.009   6.226   0.574  0.9051  1.2120 -0.0578
  428MOL0     C58964  10.129   6.198   0.480 -0.1796 -0.2613 -0.0898
  428MOL0     C58965  10.180   6.051   0.473 -0.0924 -0.5724  0.1224
  428MOL0     C58966  10.277   6.056   0.352  0.2534 -0.2438 -0.7018
  428MOL0     C58967  10.335   5.919   0.323  0.6407 -0.4615  0.5758
  428MOL0     C58968  10.443   5.876   0.427 -0.2217  0.7746 -0.6052
  428MOL0     C58969  10.561   5.973   0.449 -0.2483 -0.6893  0.0092
  428MOL0     C58970  10.656   5.986   0.330 -0.7627  0.1395 -1.0215
  428MOL0    Cl58971  10.816   5.963   0.394  0.0545 -0.3665  0.1696
  428MOL0     C58972   9.763   6.224   0.717  0.0577  0.0605  0.1783
  428MOL0     C58973   9.657   6.199   0.794  0.2782  0.7199 -0.0904
  428MOL0     O58974   9.542   5.881   1.008 -0.3302  0.4598 -0.5574
  428MOL0     C58975   9.325   5.888   1.163  0.9764  0.2052  0.3510
  428MOL0     C58976   9.218   5.884   1.254 -0.4559  0.0437 -0.3744
  428MOL0     N58977   8.751   6.574   1.361 -0.2927 -0.1149  1.0670
  428MOL0     N58978   8.645   6.650   1.374 -1.1637  0.2680 -0.2821
  428MOL0     C58979   7.931   7.372   2.158  1.0528  0.2391 -0.1544
  428MOL0     C58980   7.943   7.482   2.248  0.3329  0.8532  0.1849
  428MOL0     C58981   8.075   7.849   2.490 -0.2492  0.6245  0.3820
  428MOL0     C58982   8.213   7.868   2.491 -0.0900  1.0532 -0.3827
  428MOL0     C58983   8.280   7.965   2.565 -0.1322  0.1150 -0.4560
  428MOL0     C58984   8.211   8.044   2.654 -0.5369  0.1868 -0.1929
  428MOL0     O58985   8.287   8.130   2.731  0.9993 -0.7364  0.8392
  428MOL0     C58986   8.212   8.237   2.782  0.8287  0.1569 -0.5964
  428MOL0     C58987   8.312   8.348   2.829  0.2791  0.3344 -0.8560
  428MOL0     C58988   8.401   8.409   2.713  0.5840  0.6204 -0.7279
  428MOL0     C58989   8.511   8.484   2.779 -0.7607 -0.4436 -0.2123
  428MOL0     C58990   8.573   8.563   2.677 -0.5628  0.0847 -0.4680
  428MOL0     C58991   8.623   8.614   2.583 -0.6025 -0.0962  0.5821
  428MOL0     C58992   8.075   8.031   2.666 -0.1722  0.0171  0.1983
  428MOL0     C58993   8.006   7.940   2.585  0.6637 -0.4935  0.6193
  428MOL0     C58994   7.859   7.926   2.606 -0.1790 -0.4260  0.1824
  428MOL0     H58995   8.280   7.470   2.277 -0.2542  1.4735  1.8403
  428MOL0     H58996   8.255   7.315   2.074 -0.8940  2.0266 -3.4888
  428MOL0     H58997   8.185   7.135   1.963 -0.5659 -1.8134 -2.5584
  428MOL0     H58998   8.163   7.269   1.846  1.1744  0.8362  2.2574
  428MOL0     H58999   7.989   7.027   1.850 -0.0117 -0.8238 -3.5992
  428MOL0     H59000   7.993   7.170   1.743 -2.1497 -1.2756 -0.0983
  428MOL0     H59001   8.235   7.108   1.678 -0.0965 -0.6488 -0.3778
  428MOL0     H59002   8.214   6.961   1.779 -1.9410 -1.0870  0.7782
  428MOL0     H59003   8.043   6.870   1.665 -1.1166 -0.2116 -1.1348
  428MOL0     H59004   8.009   7.017   1.578 -1.1270 -1.6776  0.6511
  428MOL0     H59005   8.271   6.972   1.497 -0.0582  0.4776 -0.9526
  428MOL0     H59006   8.129   6.904   1.415  1.8630 -4.2401 -0.9630
  428MOL0     H59007   8.257   6.732   1.615  1.7401 -1.0580 -0.4110
  428MOL0     H59008   8.146   6.696   1.485  1.6860 -1.2096 -1.5259
  428MOL0     H59009   8.427   6.802   1.428 -1.8837  0.8073 -3.7829
  428MOL0     H59010   8.307   6.737   1.321  0.1843 -1.1026  0.5278
  428MOL0     H59011   8.422   6.588   1.555  0.2757 -2.3793 -0.5782
  428MOL0     H59012   8.340   6.508   1.422 -1.1629  0.1098  1.1548
  428MOL0     H59013   8.539   6.337   1.342  2.1855 -1.0663 -1.7414
  428MOL0     H59014   8.903   6.369   1.269  1.0479 -1.2844  0.5421
  428MOL0     H59015   8.764   6.271   1.218  0.7638  0.2031 -0.9341
  428MOL0     H59016   8.856   6.337   1.502  2.9453 -0.1303  0.5081
  428MOL0     H59017   8.734   6.204   1.464 -1.2106  3.1053  1.4420
  428MOL0     H59018   9.038   6.223   1.384  2.7222 -2.4093  2.7657
  428MOL0     H59019   8.989   6.161   1.539  1.1242  2.0886  0.5202
  428MOL0     H59020   8.825   6.000   1.392  0.9638  1.5152  2.3755
  428MOL0     H59021   8.883   6.093   1.255 -1.9730 -0.2528  0.2668
  428MOL0     H59022   9.044   6.160   1.140 -1.1365 -1.1906  0.3115
  428MOL0     H59023   9.313   6.253   0.971  0.9232 -1.5964 -0.0580
  428MOL0     H59024   9.127   6.250   0.953 -0.0902 -0.8567 -1.9014
  428MOL0     H59025   9.230   6.161   0.852 -0.1198  0.0955  0.4852
  428MOL0     H59026   9.576   5.883   0.696  1.0417 -0.1058 -0.6875
  428MOL0     H59027   9.740   5.929   0.536 -3.0546 -0.2462  0.2263
  428MOL0     H59028   9.979   6.331   0.566  1.2854  1.4005  0.8514
  428MOL0     H59029  10.034   6.210   0.679 -1.2073  2.4494  0.6797
  428MOL0     H59030  10.097   6.233   0.382 -1.8198  0.4949  0.6804
  428MOL0     H59031  10.218   6.258   0.503 -0.4119  1.2052 -2.5932
  428MOL0     H59032  10.101   5.981   0.446  0.3215 -1.4126  1.0332
  428MOL0     H59033  10.219   6.021   0.570 -0.0027 -0.3800  0.1463
  428MOL0     H59034  10.351   6.136   0.367  1.1527 -0.5840 -3.0136
  428MOL0     H59035  10.223   6.081   0.260 -0.9751  2.0260  0.5387
  428MOL0     H59036  10.263   5.836   0.318  0.4278 -0.4588  2.6410
  428MOL0     H59037  10.388   5.925   0.227  0.0282  1.7503  0.3244
  428MOL0     H59038  10.491   5.783   0.394 -3.1551 -0.5615 -1.4849
  428MOL0     H59039  10.384   5.849   0.515 -0.2474 -2.0200 -1.3616
  428MOL0     H59040  10.616   5.922   0.529 -1.2849 -2.1536 -0.1644
  428MOL0     H59041  10.513   6.067   0.477 -0.3325 -1.2740  1.9805
  428MOL0     H59042  10.641   6.083   0.282  0.4304  1.6961  1.5325
  428MOL0     H59043  10.637   5.907   0.257 -0.8577 -1.8589  1.0619
  428MOL0     H59044   9.816   6.319   0.710  2.2533 -1.1753 -0.9654
  428MOL0     H59045   9.621   6.274   0.864  1.8769 -0.2651  1.8741
  428MOL0     H59046   9.398   5.811   1.190 -1.2044 -1.0422  3.1024
  428MOL0     H59047   9.210   5.812   1.335 -0.3147  1.0693  0.5715
  428MOL0     H59048   7.832   7.336   2.132  0.9363 -2.2612  3.0934
  428MOL0     H59049   7.850   7.529   2.279 -0.2756 -0.2783  0.1150
  428MOL0     H59050   8.266   7.801   2.425  1.3629 -2.0014  3.4867
  428MOL0     H59051   8.388   7.977   2.562 -0.3946  2.9018 -3.2405
  428MOL0     H59052   8.129   8.266   2.718 -0.0974 -2.1036 -0.5352
  428MOL0     H59053   8.145   8.207   2.863  0.0941 -1.4919 -1.7804
  428MOL0     H59054   8.375   8.289   2.897 -3.2874 -0.6761  1.8725
  428MOL0     H59055   8.258   8.424   2.886 -1.9074 -0.9169 -1.1717
  428MOL0     H59056   8.440   8.328   2.652  2.9360  0.1245  1.2829
  428MOL0     H59057   8.348   8.489   2.660 -0.9409 -0.6556 -1.2202
  428MOL0     H59058   8.588   8.421   2.824 -1.0296  2.0063  4.1532
  428MOL0     H59059   8.468   8.546   2.858 -0.5725 -2.2567  1.3866
  428MOL0     H59060   8.663   8.665   2.497 -1.9082  1.8455  1.0515
  428MOL0     H59061   8.002   8.084   2.726 -2.2056 -1.2172 -1.0573
  428MOL0     H59062   7.828   8.007   2.673 -0.2716 -0.6228  0.3774
  428MOL0     H59063   7.806   7.946   2.513  0.8370  0.8985 -0.1420
  428MOL0     H59064   7.827   7.838   2.663  1.4138 -2.1315 -1.4382
  429MOL0     O59065  10.663   1.274  10.467 -0.5046 -0.0252  0.1777
  429MOL0     C59066  10.590   1.209  10.540  0.3052 -0.9830  0.1773
  429MOL0     O59067  10.622   1.163  10.661  0.0269 -0.0044  0.3330
  429MOL0     C59068  10.719   1.214  10.738 -0.1521  0.4971 -0.1609
  429MOL0     C59069  10.758   1.347  10.738 -0.3721 -0.4074  0.7971
  429MOL0     C59070  10.863   1.394  10.826  0.3329  0.1356  1.1382
  429MOL0     C59071  10.934   1.304  10.907 -0.2851 -0.2868 -0.1682
  429MOL0     O59072  11.041   1.332  10.991  0.9622 -0.0021  0.3926
  429MOL0     C59073  11.049   1.472  11.034  0.2314 -0.3638 -0.5386
  429MOL0     C59074  11.157   1.492  11.140 -0.0439 -0.1528 -0.7419
  429MOL0     C59075  11.298   1.517  11.080 -0.1683  0.4763 -0.4783
  429MOL0     C59076  11.313   1.636  10.981 -0.2362  0.1865 -0.4704
  429MOL0     C59077  11.458   1.688  10.964  0.7535 -0.6445 -0.2614
  429MOL0     C59078  11.548   1.599  10.878  0.5085 -0.2258 -0.3706
  429MOL0     C59079  11.682   1.681  10.855  0.9504  0.2840  0.3902
  429MOL0     C59080  11.778   1.592  10.765 -1.0455 -0.8809 -0.2201
  429MOL0     N59081  11.865   1.512  10.854  0.1907 -0.1849  0.9656
  429MOL0     C59082  11.995   1.546  10.899  0.0237 -0.0644  0.2158
  429MOL0     C59083  12.020   1.465  11.008  0.5707  0.6960 -0.3913
  429MOL0     C59084  12.121   1.491  11.115  0.4415 -0.4028 -0.1734
  429MOL0     C59085  12.122   1.639  11.166  0.1538  0.1329 -0.2556
  429MOL0     C59086  12.003   1.655  11.265  0.2450 -0.1520 -1.2619
  429MOL0     C59087  11.862   1.657  11.202  0.1346 -1.1490  0.1291
  429MOL0     O59088  11.759   1.671  11.305 -0.0025 -0.5852  0.4708
  429MOL0     C59089  11.662   1.567  11.307  0.4732 -0.0547  0.9009
  429MOL0     C59090  11.552   1.591  11.391  1.1997  0.3340  0.1458
  429MOL0     C59091  11.452   1.490  11.417 -0.0459  0.2268  0.4027
  429MOL0     C59092  11.341   1.525  11.515 -0.7595 -0.3841 -0.1233
  429MOL0     C59093  11.459   1.357  11.345  0.4614  0.0925 -0.0989
  429MOL0     C59094  11.344   1.257  11.358  0.1978 -0.7874  0.0685
  429MOL0     O59095  11.376   1.121  11.319  0.3353 -0.1711  0.2713
  429MOL0     C59096  11.267   1.035  11.320 -0.5718 -0.3762 -0.5130
  429MOL0     C59097  11.278   0.936  11.413 -0.2890 -0.1259 -0.0407
  429MOL0     C59098  11.170   0.840  11.439 -0.0555 -0.0297 -0.1613
  429MOL0     C59099  11.058   0.848  11.362  0.0574  0.4106  0.3074
  429MOL0     O59100  10.953   0.761  11.384 -0.0352  0.3700  0.2689
  429MOL0     C59101  10.964   0.644  11.314  0.1981  0.0131 -0.2501
  429MOL0     C59102  10.904   0.537  11.399 -0.5346 -0.0986  0.6132
  429MOL0     C59103  10.898   0.411  11.316  0.6232  0.6202 -0.3784
  429MOL0     C59104  11.026   0.333  11.309 -0.0682  0.7651  0.6049
  429MOL0     C59105  11.044   0.253  11.179  0.2212  0.5111  0.2652
  429MOL0     C59106  11.197   0.188  11.176 -0.0945 -0.4262 -0.2621
  429MOL0     C59107  11.192   0.061  11.082  0.3825  0.6207 -0.8047
  429MOL0     C59108  11.285  -0.058  11.124 -0.5254 -1.4052 -1.1722
  429MOL0    Cl59109  11.454   0.004  11.160 -0.1174  0.1507 -0.2475
  429MOL0     C59110  11.050   0.943  11.255 -0.3442 -0.0818 -0.0838
  429MOL0     C59111  11.156   1.034  11.234  0.2948 -0.3494 -0.2722
  429MOL0     O59112  11.233   1.293  11.402  0.5309 -0.5227  0.2453
  429MOL0     C59113  11.581   1.337  11.291 -0.8501  0.3269  0.3449
  429MOL0     C59114  11.677   1.432  11.263 -1.0083  0.2265 -0.3073
  429MOL0     N59115  11.916   1.370  11.006  1.0110 -0.4994  0.4060
  429MOL0     N59116  11.832   1.393  10.911  0.2279 -0.4163 -0.3447
  429MOL0     C59117  10.889   1.172  10.902 -0.4201  0.4221 -0.0733
  429MOL0     C59118  10.784   1.130  10.834  0.1694 -0.3111 -0.2481
  429MOL0     C59119  10.458   1.173  10.482 -0.9960 -0.6022 -0.2754
  429MOL0     C59120  10.386   1.082  10.565 -0.6444 -0.9134 -0.1931
  429MOL0     C59121  10.267   1.045  10.529  1.3215  0.8095  0.8796
  429MOL0     C59122  10.205   1.092  10.415  0.1251 -0.1793  1.0072
  429MOL0     O59123  10.074   1.048  10.397 -0.3799  0.4117 -0.4122
  429MOL0     C59124   9.979   1.151  10.420  0.3998 -0.3328  0.0275
  429MOL0     C59125   9.882   1.151  10.308 -0.1011  0.2297  0.4204
  429MOL0     C59126   9.738   1.199  10.344 -0.1916  0.6304 -0.2162
  429MOL0     C59127   9.634   1.160  10.239 -0.6506 -0.2353 -0.0960
  429MOL0     C59128   9.659   1.220  10.102  0.0415  0.4983  0.3960
  429MOL0     C59129   9.676   1.277   9.994 -1.6421 -0.2412 -1.2940
  429MOL0     C59130  10.275   1.179  10.330 -0.2320 -0.6710  0.4575
  429MOL0     C59131  10.404   1.220  10.359  0.3557 -0.1950 -1.4446
  429MOL0     C59132  10.461   1.324  10.274  0.0554 -0.3228  0.4544
  429MOL0     H59133  10.712   1.416  10.669  2.4671 -0.8258 -1.7105
  429MOL0     H59134  10.888   1.500  10.826  0.6299  0.0657  1.2570
  429MOL0     H59135  10.955   1.486  11.088  2.1466  1.2436  2.7069
  429MOL0     H59136  11.069   1.546  10.957  2.0105 -1.7471 -1.4794
  429MOL0     H59137  11.132   1.574  11.209 -0.3973 -0.0150 -1.0336
  429MOL0     H59138  11.158   1.405  11.206  0.7947 -0.1601 -0.7561
  429MOL0     H59139  11.370   1.523  11.162  3.6486 -3.0033 -3.1245
  429MOL0     H59140  11.327   1.422  11.034 -1.3334 -0.6312  0.9779
  429MOL0     H59141  11.265   1.623  10.884  1.0533  3.8151 -1.7701
  429MOL0     H59142  11.254   1.721  11.016 -0.3901  0.1407 -0.6212
  429MOL0     H59143  11.506   1.707  11.061  2.7178 -0.6978 -1.1645
  429MOL0     H59144  11.437   1.784  10.916 -0.5627 -0.3574  0.8068
  429MOL0     H59145  11.581   1.515  10.940 -2.0695 -0.9525  0.1135
  429MOL0     H59146  11.511   1.559  10.784  0.6595  1.7039 -1.3000
  429MOL0     H59147  11.730   1.706  10.950  2.6984  1.0720 -0.6482
  429MOL0     H59148  11.652   1.765  10.792 -0.4215 -1.1604 -0.9689
  429MOL0     H59149  11.731   1.522  10.696 -4.7075  0.7484  0.3963
  429MOL0     H59150  11.841   1.658  10.705  1.0895 -0.1565  2.5550
  429MOL0     H59151  12.051   1.632  10.863 -1.1129  1.5850  2.1501
  429MOL0     H59152  12.222   1.474  11.076  1.5688  3.8369  0.4086
  429MOL0     H59153  12.098   1.412  11.187  2.1344 -0.2467  0.6021
  429MOL0     H59154  12.219   1.654  11.214  0.6064  4.6114 -2.0946
  429MOL0     H59155  12.106   1.717  11.091 -2.4765  0.5678  0.6360
  429MOL0     H59156  11.994   1.583  11.347  0.0671  1.0612 -0.1688
  429MOL0     H59157  12.018   1.755  11.308  1.2452 -0.1408 -1.6247
  429MOL0     H59158  11.869   1.750  11.145 -0.9054 -0.9821  0.2641
  429MOL0     H59159  11.847   1.574  11.134 -3.1549 -2.8598  2.6416
  429MOL0     H59160  11.544   1.688  11.438  1.1084 -0.6686  2.2991
  429MOL0     H59161  11.307   1.453  11.591 -2.8084  1.6448  1.0029
  429MOL0     H59162  11.252   1.535  11.452  1.0503  0.9347 -2.6086
  429MOL0     H59163  11.373   1.611  11.574 -1.4017 -0.6918  0.6987
  429MOL0     H59164  11.371   0.936  11.469 -1.7381 -1.3906  2.5979
  429MOL0     H59165  11.164   0.770  11.521 -0.1804  0.4404  0.2361
  429MOL0     H59166  10.904   0.657  11.224 -0.0347 -1.2915 -0.3105
  429MOL0     H59167  11.068   0.631  11.286  0.0516  2.2724 -2.1326
  429MOL0     H59168  10.968   0.528  11.487  0.8976 -1.6724 -0.5061
  429MOL0     H59169  10.804   0.566  11.433  0.0760 -0.2013  2.5990
  429MOL0     H59170  10.858   0.448  11.221 -1.0825 -0.4784 -0.1158
  429MOL0     H59171  10.818   0.345  11.350 -0.6249  1.9750 -0.5959
  429MOL0     H59172  11.037   0.259  11.389  3.3184 -3.3337 -3.1228
  429MOL0     H59173  11.115   0.396  11.318  2.4178 -2.7473  3.8897
  429MOL0     H59174  10.972   0.171  11.168 -1.2958  2.0578 -2.3836
  429MOL0     H59175  11.038   0.315  11.088  0.8488 -1.9780 -1.5847
  429MOL0     H59176  11.217   0.148  11.276 -0.8691 -3.2877 -1.1362
  429MOL0     H59177  11.268   0.264  11.143  0.1156  0.9100  2.9554
  429MOL0     H59178  11.213   0.098  10.981  1.5720  0.2932 -0.6949
  429MOL0     H59179  11.090   0.024  11.069  0.1696  1.2086 -0.8295
  429MOL0     H59180  11.290  -0.138  11.050 -1.3383 -3.3747  0.8104
  429MOL0     H59181  11.243  -0.105  11.213  1.7143  0.8544  1.2451
  429MOL0     H59182  10.973   0.934  11.178  1.0997 -0.0530 -1.5819
  429MOL0     H59183  11.144   1.112  11.161  0.3343 -1.1843 -1.1883
  429MOL0     H59184  11.601   1.242  11.244 -0.7462  1.0421 -1.1283
  429MOL0     H59185  11.770   1.408  11.214  0.0845  0.6803  1.4464
  429MOL0     H59186  10.941   1.100  10.965 -1.5291 -0.7583 -0.4584
  429MOL0     H59187  10.752   1.029  10.856  0.1858  0.0845  1.7819
  429MOL0     H59188  10.430   1.039  10.655  1.8522 -0.0140 -0.9051
  429MOL0     H59189  10.227   0.964  10.589  1.7612  1.8829  2.7003
  429MOL0     H59190   9.935   1.131  10.518  0.8956 -2.9155 -0.2124
  429MOL0     H59191  10.031   1.247  10.432  0.5247 -0.4356  0.3021
  429MOL0     H59192   9.870   1.054  10.261 -0.0152  1.8765 -3.3758
  429MOL0     H59193   9.930   1.220  10.238  0.7217 -2.5547 -1.9022
  429MOL0     H59194   9.705   1.147  10.434 -0.4913 -1.0531 -1.2603
  429MOL0     H59195   9.732   1.305  10.373 -2.2883  0.7987 -1.0684
  429MOL0     H59196   9.538   1.204  10.266 -0.2666  0.9734 -0.5858
  429MOL0     H59197   9.622   1.054  10.216 -0.9899  0.0740 -1.4091
  429MOL0     H59198   9.677   1.327   9.899 -2.4109 -0.6552 -1.5262
  429MOL0     H59199  10.220   1.208  10.241  3.0047 -1.3390 -1.9926
  429MOL0     H59200  10.545   1.277  10.222 -1.1029 -0.2604 -1.5907
  429MOL0     H59201  10.394   1.361  10.196  0.5627  0.3465  0.3287
  429MOL0     H59202  10.488   1.414  10.330  1.3395  0.7711 -1.8083
  430MOL0     O59203   5.788   9.113   8.196 -0.0942 -0.1589 -0.8199
  430MOL0     C59204   5.777   8.989   8.194 -1.0184 -0.4009 -0.5377
  430MOL0     O59205   5.737   8.900   8.292 -0.1969  0.7087  0.4848
  430MOL0     C59206   5.686   8.968   8.400 -0.5649  0.8642 -0.4712
  430MOL0     C59207   5.577   9.050   8.382  0.3531 -0.5400 -0.2557
  430MOL0     C59208   5.529   9.129   8.477 -0.2892 -0.3354 -0.7076
  430MOL0     C59209   5.598   9.128   8.607  0.0482 -0.2297  0.0916
  430MOL0     O59210   5.563   9.193   8.718  0.4974  0.5421  0.1138
  430MOL0     C59211   5.423   9.194   8.739  0.8027  0.2781 -0.2240
  430MOL0     C59212   5.407   9.255   8.882  0.6420 -0.3028  0.6994
  430MOL0     C59213   5.272   9.242   8.955 -0.1179  1.0922  0.4301
  430MOL0     C59214   5.280   9.321   9.090  0.0640  0.4197  0.0346
  430MOL0     C59215   5.170   9.292   9.192  0.8604 -0.4105 -0.0304
  430MOL0     C59216   5.200   9.356   9.330  0.0880  0.1194 -0.2336
  430MOL0     C59217   5.210   9.508   9.334 -0.1544 -0.1404  1.1719
  430MOL0     C59218   5.090   9.587   9.280  0.3607 -0.3945  0.5402
  430MOL0     N59219   4.972   9.590   9.372 -0.1997  0.8542  0.3989
  430MOL0     C59220   4.976   9.587   9.508 -0.1348 -0.4258 -0.2236
  430MOL0     C59221   4.854   9.607   9.557  0.2340 -0.4199  0.0411
  430MOL0     C59222   4.824   9.608   9.705  0.3791 -1.0960 -0.5180
  430MOL0     C59223   4.774   9.470   9.754  0.6166  0.2469 -0.1770
  430MOL0     C59224   4.896   9.374   9.762  1.0987 -0.8095 -0.4265
  430MOL0     C59225   4.871   9.235   9.822  0.9175 -0.3804  0.0275
  430MOL0     O59226   5.001   9.189   9.825 -0.3088 -0.6221  0.0050
  430MOL0     C59227   5.037   9.143   9.950  0.9892 -0.5444 -0.5267
  430MOL0     C59228   4.948   9.070  10.037  0.8796 -0.6365  0.1545
  430MOL0     C59229   4.992   9.004  10.150  0.7819  0.0961  0.1848
  430MOL0     C59230   4.894   8.921  10.229  0.9547  0.4137  0.5069
  430MOL0     C59231   5.123   9.014  10.194 -0.3167  0.0812 -0.2043
  430MOL0     C59232   5.174   8.955  10.311  0.1768 -0.8878  0.1030
  430MOL0     O59233   5.253   9.038  10.383 -0.0965  0.0481 -0.1816
  430MOL0     C59234   5.331   9.001  10.490 -0.5192 -1.0091  0.1599
  430MOL0     C59235   5.279   8.968  10.612  0.6135  0.3965 -0.0633
  430MOL0     C59236   5.350   8.941  10.727 -0.2612 -0.6294 -0.3939
  430MOL0     C59237   5.490   8.957  10.727  0.8069 -0.4017 -1.0281
  430MOL0     O59238   5.572   8.916  10.830 -0.4730  0.2920  0.3492
  430MOL0     C59239   5.527   8.838  10.938 -0.4678 -0.2982  0.2508
  430MOL0     C59240   5.594   8.713  10.921  0.4557  0.4926 -0.0851
  430MOL0     C59241   5.540   8.604  11.012 -0.6413  0.3059 -0.2543
  430MOL0     C59242   5.563   8.464  10.955  0.7900  0.2273  0.4328
  430MOL0     C59243   5.502   8.348  11.039 -0.9617  0.2004  0.5569
  430MOL0     C59244   5.592   8.299  11.149  0.3006 -0.7588  0.0746
  430MOL0     C59245   5.532   8.166  11.202  1.0802  1.2980 -0.0553
  430MOL0     C59246   5.395   8.176  11.283 -0.3313  0.0136  0.6492
  430MOL0    Cl59247   5.372   8.016  11.373  0.1285 -0.1512  0.0738
  430MOL0     C59248   5.548   8.999  10.607  0.0962 -0.7820  0.0189
  430MOL0     C59249   5.473   9.025  10.492  0.2540  0.5163 -0.3837
  430MOL0     O59250   5.142   8.843  10.345  0.2438 -0.0935 -0.0661
  430MOL0     C59251   5.207   9.096  10.120 -0.6485 -0.1816  0.0115
  430MOL0     C59252   5.168   9.154  10.000  0.6972 -0.4362  0.6073
  430MOL0     N59253   4.772   9.622   9.446  0.6875  1.1897 -0.4421
  430MOL0     N59254   4.845   9.614   9.333  0.8866  0.0908 -0.2926
  430MOL0     C59255   5.708   9.049   8.627  0.4555 -0.0701  0.0043
  430MOL0     C59256   5.757   8.966   8.520 -1.0310 -0.5711  0.0387
  430MOL0     C59257   5.852   8.932   8.075  0.3252 -0.5545 -0.3664
  430MOL0     C59258   5.895   8.794   8.088  0.1301  0.0582  0.2852
  430MOL0     C59259   5.961   8.728   7.984 -0.6464 -0.5737  0.6888
  430MOL0     C59260   5.978   8.797   7.861  0.2746 -0.3067  0.1577
  430MOL0     O59261   6.041   8.746   7.747 -0.0406 -0.2199  0.0635
  430MOL0     C59262   6.136   8.641   7.754 -0.3779  0.8731 -0.2162
  430MOL0     C59263   6.212   8.631   7.623  1.0858  0.3377 -0.0382
  430MOL0     C59264   6.318   8.514   7.610 -0.0989  0.4107 -0.1589
  430MOL0     C59265   6.337   8.459   7.467 -0.2475 -0.1906  0.2685
  430MOL0     C59266   6.361   8.560   7.363 -0.1463 -0.3552  0.8530
  430MOL0     C59267   6.394   8.629   7.274 -0.1271 -0.2326  0.2021
  430MOL0     C59268   5.924   8.924   7.841 -0.3720  0.0562  0.1237
  430MOL0     C59269   5.861   8.999   7.950  0.2789 -0.1635  0.3447
  430MOL0     C59270   5.814   9.143   7.917 -0.0095 -0.4295 -0.7126
  430MOL0     H59271   5.518   9.059   8.292 -0.5106  1.5443  0.4580
  430MOL0     H59272   5.441   9.191   8.461 -0.1798 -0.3043 -1.2016
  430MOL0     H59273   5.386   9.091   8.741 -2.1685  1.2561  0.9092
  430MOL0     H59274   5.371   9.258   8.668  0.0082  1.4993  1.4010
  430MOL0     H59275   5.484   9.217   8.951  1.0242  2.0941  1.7221
  430MOL0     H59276   5.429   9.362   8.870  1.6541 -0.8287 -3.9239
  430MOL0     H59277   5.195   9.278   8.886  2.6958  1.9244 -2.5245
  430MOL0     H59278   5.250   9.136   8.973 -0.9186  1.3198  0.8272
  430MOL0     H59279   5.376   9.301   9.138  1.0170 -1.4033 -2.4126
  430MOL0     H59280   5.276   9.424   9.052 -0.6062  0.7442  0.9265
  430MOL0     H59281   5.164   9.183   9.206 -1.3532 -0.3067  0.1766
  430MOL0     H59282   5.075   9.325   9.148  0.8540  1.2853  1.1875
  430MOL0     H59283   5.129   9.317   9.403 -0.3724  0.0318 -0.7187
  430MOL0     H59284   5.286   9.298   9.365 -0.4831 -1.0515 -0.7029
  430MOL0     H59285   5.287   9.548   9.267 -3.9601  1.7390 -2.5836
  430MOL0     H59286   5.234   9.537   9.437 -1.0762 -0.3402  1.4546
  430MOL0     H59287   5.129   9.687   9.258 -0.7790 -0.2676 -1.1441
  430MOL0     H59288   5.065   9.545   9.182  0.2062  1.4186 -0.2545
  430MOL0     H59289   5.061   9.568   9.572  0.3841  1.3941 -0.2979
  430MOL0     H59290   4.745   9.682   9.722  3.0252  1.5303  1.5272
  430MOL0     H59291   4.911   9.639   9.763 -1.4602  2.2242  0.7755
  430MOL0     H59292   4.729   9.489   9.852 -0.5290 -1.3870 -0.3581
  430MOL0     H59293   4.696   9.432   9.688  2.5654  1.1177 -3.1753
  430MOL0     H59294   4.934   9.372   9.660 -1.9524 -0.8081 -1.6677
  430MOL0     H59295   4.969   9.425   9.826  1.2163 -1.6308  0.1032
  430MOL0     H59296   4.807   9.236   9.910 -1.9028  1.5022 -1.8581
  430MOL0     H59297   4.809   9.175   9.755 -0.2190  1.3265 -0.4923
  430MOL0     H59298   4.845   9.052  10.010  1.5004  0.3218 -3.4262
  430MOL0     H59299   4.920   8.816  10.218 -0.5010  0.2342 -2.0931
  430MOL0     H59300   4.793   8.929  10.187  1.4228  0.9846 -0.5592
  430MOL0     H59301   4.891   8.947  10.335  0.3526 -2.1426  1.1793
  430MOL0     H59302   5.170   8.971  10.608  0.5984 -0.8806 -1.6876
  430MOL0     H59303   5.293   8.897  10.808 -2.8577 -1.6280 -2.6219
  430MOL0     H59304   5.556   8.887  11.032  2.9235  1.5320 -1.5772
  430MOL0     H59305   5.421   8.811  10.939 -0.6520  0.3776 -0.7542
  430MOL0     H59306   5.587   8.689  10.814 -0.3974 -0.0681  0.0881
  430MOL0     H59307   5.699   8.734  10.943  0.5525  0.8679 -0.8642
  430MOL0     H59308   5.433   8.616  11.029 -0.2797  0.0090  3.0928
  430MOL0     H59309   5.575   8.601  11.116 -0.6960 -3.8869 -0.1821
  430MOL0     H59310   5.669   8.456  10.931 -0.0336 -1.1957 -3.4836
  430MOL0     H59311   5.503   8.458  10.864 -1.9281  0.7009  2.0730
  430MOL0     H59312   5.413   8.380  11.094 -0.6578 -1.4361  2.1119
  430MOL0     H59313   5.461   8.268  10.977 -2.7886  1.4322  0.0943
  430MOL0     H59314   5.595   8.376  11.227  1.6210 -1.1233  0.3993
  430MOL0     H59315   5.694   8.269  11.123  0.1029 -4.5749  2.8311
  430MOL0     H59316   5.609   8.138  11.274  0.2201  3.5238  1.8773
  430MOL0     H59317   5.524   8.096  11.118  1.2982  0.9935  0.1770
  430MOL0     H59318   5.315   8.192  11.210  3.0783 -1.4146 -3.8485
  430MOL0     H59319   5.385   8.252  11.362  0.5506 -0.1779  0.9538
  430MOL0     H59320   5.654   9.019  10.595 -0.2883  0.6314 -1.4238
  430MOL0     H59321   5.519   9.045  10.396 -0.0716  2.3865 -0.1916
  430MOL0     H59322   5.310   9.111  10.151 -0.5060 -1.4610  0.1909
  430MOL0     H59323   5.238   9.212   9.941 -1.1958 -0.3396 -1.6686
  430MOL0     H59324   5.762   9.042   8.721  0.9672 -2.3496 -0.4063
  430MOL0     H59325   5.848   8.909   8.526 -1.1715 -0.6904  1.3026
  430MOL0     H59326   5.880   8.741   8.181 -3.3025 -0.1249 -0.2468
  430MOL0     H59327   6.012   8.636   8.011  3.6370  1.6899  1.1659
  430MOL0     H59328   6.216   8.669   7.824  0.8206  0.6191 -1.4370
  430MOL0     H59329   6.096   8.545   7.788 -1.5431  1.9227  1.5691
  430MOL0     H59330   6.267   8.725   7.612  1.3554  0.2752  0.7342
  430MOL0     H59331   6.137   8.609   7.547 -1.2391  2.3583  1.5336
  430MOL0     H59332   6.420   8.548   7.631 -0.1404  0.6129 -0.2784
  430MOL0     H59333   6.290   8.436   7.681  0.7087 -0.4699 -0.7863
  430MOL0     H59334   6.263   8.383   7.438  1.6521 -1.3490 -1.8679
  430MOL0     H59335   6.420   8.388   7.476 -1.4996 -2.1366 -2.2467
  430MOL0     H59336   6.408   8.691   7.188 -0.7651 -0.4190 -0.0377
  430MOL0     H59337   5.947   8.982   7.752  4.2871  0.0513  1.0549
  430MOL0     H59338   5.801   9.179   7.814 -1.2610  2.9829  0.5161
  430MOL0     H59339   5.721   9.172   7.967 -1.2699  0.9554 -3.5797
  430MOL0     H59340   5.899   9.202   7.953  1.3314 -3.8666  2.3896
  431MOL0     O59341  10.523   5.376   5.523 -0.0018 -0.2915 -0.5406
  431MOL0     C59342  10.575   5.462   5.446 -0.0050  0.4606  0.9464
  431MOL0     O59343  10.664   5.560   5.478 -0.4543 -0.7752 -0.6496
  431MOL0     C59344  10.729   5.555   5.605 -0.9800  0.3295 -0.1497
  431MOL0     C59345  10.662   5.589   5.725 -0.2406 -0.4873  0.2055
  431MOL0     C59346  10.725   5.593   5.850 -0.3590  0.0081 -0.2910
  431MOL0     C59347  10.864   5.587   5.845  0.4661 -0.3200 -0.0141
  431MOL0     O59348  10.919   5.636   5.958  0.2015  0.0284  0.4001
  431MOL0     C59349  11.065   5.626   5.960 -0.6592  0.4888 -1.4596
  431MOL0     C59350  11.119   5.626   6.106 -0.3196  0.1381 -0.7004
  431MOL0     C59351  11.273   5.622   6.112  0.1934  1.0754  0.1114
  431MOL0     C59352  11.331   5.487   6.081 -0.2884 -0.1958  0.1179
  431MOL0     C59353  11.464   5.456   6.148 -0.1593  0.1358 -0.5171
  431MOL0     C59354  11.534   5.330   6.100 -0.6282  0.1020  0.7071
  431MOL0     C59355  11.666   5.310   6.188  1.1129  0.3212  0.0769
  431MOL0     C59356  11.728   5.171   6.182  0.1579 -0.2355 -0.6382
  431MOL0     N59357  11.854   5.172   6.264  0.0678  0.8925 -0.3498
  431MOL0     C59358  11.977   5.179   6.202  0.0151  0.0234 -0.1109
  431MOL0     C59359  12.069   5.151   6.300 -0.1346  0.5481  0.2696
  431MOL0     C59360  12.217   5.149   6.281 -0.0048 -0.6388 -1.2814
  431MOL0     C59361  12.298   5.233   6.376  0.6994 -0.4876  0.3617
  431MOL0     C59362  12.361   5.161   6.490 -0.6351 -0.4602 -0.1172
  431MOL0     C59363  12.264   5.120   6.609  0.4282  0.0285  0.4243
  431MOL0     O59364  12.334   5.026   6.691 -0.2645 -0.0591 -0.3838
  431MOL0     C59365  12.273   4.953   6.787  0.4119  0.4638 -0.8884
  431MOL0     C59366  12.135   4.973   6.817 -0.2454 -0.3309  0.1312
  431MOL0     C59367  12.068   4.895   6.911  0.0880 -0.1426  0.1212
  431MOL0     C59368  11.920   4.904   6.927  0.3832 -0.1506 -1.2016
  431MOL0     C59369  12.131   4.787   6.979  0.1409  0.0003 -1.3392
  431MOL0     C59370  12.074   4.694   7.083  0.6149 -0.2055 -0.1762
  431MOL0     O59371  12.162   4.644   7.163 -0.0688 -0.2278  0.1663
  431MOL0     C59372  12.130   4.558   7.260  0.2759 -0.2841  0.4832
  431MOL0     C59373  12.056   4.443   7.244 -0.2908 -0.2665  1.2097
  431MOL0     C59374  12.032   4.362   7.357  0.1780 -0.3396  0.3214
  431MOL0     C59375  12.081   4.403   7.482  0.3527 -0.1897  0.0945
  431MOL0     O59376  12.061   4.315   7.581 -0.1155  0.2333 -0.4936
  431MOL0     C59377  12.113   4.184   7.571  0.5070  0.0302 -0.0605
  431MOL0     C59378  12.058   4.100   7.682 -0.3241  0.0937  0.1456
  431MOL0     C59379  12.091   4.146   7.826 -0.2747  0.2122 -0.2686
  431MOL0     C59380  12.039   4.042   7.930  0.4057  1.0021 -0.6169
  431MOL0     C59381  12.059   4.090   8.074 -0.8171  0.3299 -0.4994
  431MOL0     C59382  12.013   3.995   8.180  0.4145  0.6458 -0.6129
  431MOL0     C59383  12.014   4.058   8.321  0.1961  0.2040 -0.9187
  431MOL0     C59384  12.055   3.964   8.433  0.6504 -1.0627 -0.8220
  431MOL0    Cl59385  11.941   3.827   8.462 -0.0685  0.0485  0.0213
  431MOL0     C59386  12.154   4.525   7.503 -0.2908  0.5805 -0.2431
  431MOL0     C59387  12.177   4.606   7.388  0.7440  0.4487 -0.8039
  431MOL0     O59388  11.953   4.665   7.074 -0.6969  0.2478 -0.3288
  431MOL0     C59389  12.265   4.759   6.956 -0.4038 -0.2267 -0.5376
  431MOL0     C59390  12.334   4.842   6.861 -0.9519 -0.8352  0.5362
  431MOL0     N59391  12.001   5.127   6.415  0.3918  0.7027  0.0853
  431MOL0     N59392  11.871   5.138   6.397 -0.7958 -0.3436 -0.1608
  431MOL0     C59393  10.931   5.562   5.734 -0.4598  0.7126 -0.0269
  431MOL0     C59394  10.866   5.532   5.618  0.0272  0.9440 -0.0564
  431MOL0     C59395  10.560   5.438   5.297  0.4877 -0.7261 -0.0916
  431MOL0     C59396  10.635   5.527   5.208  0.7504  0.3404  0.4249
  431MOL0     C59397  10.631   5.509   5.071 -0.5199  0.1316 -0.3806
  431MOL0     C59398  10.571   5.397   5.014  0.0690 -0.1920 -0.0857
  431MOL0     O59399  10.592   5.378   4.879  0.3886  0.5392  0.1777
  431MOL0     C59400  10.528   5.269   4.815  0.0712  0.3012  0.1437
  431MOL0     C59401  10.583   5.250   4.675  0.7912 -0.0513 -0.1134
  431MOL0     C59402  10.723   5.182   4.654  0.7560  0.2553 -0.4809
  431MOL0     C59403  10.751   5.149   4.507  1.0600 -0.2688  0.6149
  431MOL0     C59404  10.886   5.085   4.487 -0.1429  0.1884 -0.1943
  431MOL0     C59405  10.982   5.011   4.475 -0.7047 -0.5367  0.6293
  431MOL0     C59406  10.492   5.317   5.096  0.2605  0.0227 -0.5600
  431MOL0     C59407  10.483   5.341   5.237  0.3228 -0.4175  0.2221
  431MOL0     C59408  10.394   5.243   5.308 -0.3097 -0.3390  0.0040
  431MOL0     H59409  10.556   5.609   5.736  0.1307  2.6011 -0.7013
  431MOL0     H59410  10.666   5.629   5.934 -1.1147 -0.2339 -0.7048
  431MOL0     H59411  11.115   5.707   5.906  3.4918  1.0550  2.5491
  431MOL0     H59412  11.092   5.526   5.925  0.7306 -0.4056  1.7349
  431MOL0     H59413  11.079   5.713   6.159 -0.1397 -0.5687  0.6475
  431MOL0     H59414  11.070   5.541   6.155 -0.7188  0.6498 -0.2021
  431MOL0     H59415  11.323   5.701   6.055 -0.3752  0.9521 -0.5691
  431MOL0     H59416  11.297   5.637   6.218  0.9064 -0.4932  0.2062
  431MOL0     H59417  11.262   5.417   6.130  1.2281 -2.2943 -0.5705
  431MOL0     H59418  11.338   5.460   5.975  0.0862  2.2351 -0.5247
  431MOL0     H59419  11.448   5.454   6.256  0.8560 -2.4386 -0.3405
  431MOL0     H59420  11.529   5.543   6.130  1.6923 -0.9112  0.7535
  431MOL0     H59421  11.475   5.239   6.104  0.3419 -1.0408 -4.3725
  431MOL0     H59422  11.557   5.341   5.994 -3.1303 -4.1344 -0.4895
  431MOL0     H59423  11.642   5.322   6.294 -1.6876 -4.3256  0.2368
  431MOL0     H59424  11.738   5.390   6.167  0.9167  0.5925  0.4433
  431MOL0     H59425  11.654   5.102   6.225  1.7067 -0.3544  2.0792
  431MOL0     H59426  11.747   5.132   6.081 -0.1469 -1.0267 -0.3994
  431MOL0     H59427  11.993   5.224   6.104  0.0118 -0.7604 -0.4829
  431MOL0     H59428  12.234   5.166   6.174  0.7372  0.1588 -1.0503
  431MOL0     H59429  12.246   5.045   6.298 -1.3767 -1.1015 -1.6780
  431MOL0     H59430  12.381   5.289   6.331  0.5800 -1.4280 -1.0598
  431MOL0     H59431  12.222   5.305   6.409  0.7154 -0.7268  0.9249
  431MOL0     H59432  12.427   5.083   6.452  1.7538  0.0642  2.5114
  431MOL0     H59433  12.423   5.231   6.549 -1.1016 -0.7930  0.7921
  431MOL0     H59434  12.234   5.205   6.671  0.2103 -0.3765  0.8822
  431MOL0     H59435  12.176   5.065   6.574 -0.3919  1.9595 -0.7351
  431MOL0     H59436  12.088   5.047   6.753  2.3276  0.1734 -1.3166
  431MOL0     H59437  11.888   4.999   6.885 -1.4498 -0.3731 -0.3976
  431MOL0     H59438  11.870   4.904   7.025  2.1524  1.8978 -0.2161
  431MOL0     H59439  11.867   4.821   6.878 -1.3166 -1.2283  2.1042
  431MOL0     H59440  12.006   4.423   7.150  0.2621 -1.0890  1.0786
  431MOL0     H59441  11.962   4.283   7.333 -1.2506  1.5437 -2.1909
  431MOL0     H59442  12.070   4.136   7.482  3.4198 -1.1058 -0.9746
  431MOL0     H59443  12.222   4.191   7.572  0.4200  1.8505 -0.5566
  431MOL0     H59444  11.950   4.095   7.673 -0.4772  1.4730  0.9946
  431MOL0     H59445  12.098   3.998   7.670 -0.1332 -0.1590  2.4029
  431MOL0     H59446  12.055   4.248   7.842 -0.2203  0.2528 -0.4012
  431MOL0     H59447  12.200   4.145   7.827 -0.1815 -1.1400 -2.7240
  431MOL0     H59448  12.088   3.946   7.909 -1.1055  0.2980 -1.0614
  431MOL0     H59449  11.933   4.021   7.915  1.0431 -0.7055 -3.4083
  431MOL0     H59450  12.167   4.106   8.079 -0.9039  0.9769 -0.6336
  431MOL0     H59451  12.008   4.187   8.080  1.1112  1.3899 -0.7325
  431MOL0     H59452  12.079   3.908   8.181  2.5661  2.0636  3.6146
  431MOL0     H59453  11.911   3.963   8.155  0.5946 -0.3549 -0.1204
  431MOL0     H59454  11.914   4.090   8.352 -0.0443 -2.6706  1.7421
  431MOL0     H59455  12.068   4.153   8.322  1.7156 -0.5830  1.6122
  431MOL0     H59456  12.065   4.022   8.525 -0.6956 -0.3883 -1.0827
  431MOL0     H59457  12.159   3.932   8.425  0.6580 -0.6443 -2.8649
  431MOL0     H59458  12.193   4.568   7.594 -1.3327  2.4476 -0.6271
  431MOL0     H59459  12.237   4.696   7.384 -1.4996  1.9956 -1.8699
  431MOL0     H59460  12.328   4.684   7.004  0.2205  0.9199  0.4771
  431MOL0     H59461  12.438   4.824   6.836 -1.4029 -0.3251 -2.0023
  431MOL0     H59462  11.038   5.580   5.724 -0.7106  1.6658 -1.2150
  431MOL0     H59463  10.932   5.521   5.533 -0.3889  0.6253 -0.3473
  431MOL0     H59464  10.692   5.611   5.245  0.9581  0.4913 -0.2178
  431MOL0     H59465  10.691   5.576   5.010 -1.2110 -0.2632 -1.5163
  431MOL0     H59466  10.544   5.169   4.856  2.3974  0.3472 -0.4898
  431MOL0     H59467  10.422   5.290   4.797  0.6948  4.5357  0.4140
  431MOL0     H59468  10.576   5.348   4.626 -0.7503 -0.4138 -0.7009
  431MOL0     H59469  10.510   5.189   4.621 -0.9351  1.5127  0.3365
  431MOL0     H59470  10.794   5.244   4.708 -3.3318  3.0578  2.2249
  431MOL0     H59471  10.721   5.090   4.713  1.7883  0.5081 -0.0280
  431MOL0     H59472  10.744   5.237   4.443 -2.7358 -2.0345 -1.7500
  431MOL0     H59473  10.676   5.078   4.472  0.8104 -0.6898  1.9210
  431MOL0     H59474  11.057   4.935   4.462  0.5026  0.3286  2.2720
  431MOL0     H59475  10.437   5.237   5.048 -1.5024  0.7172  0.2075
  431MOL0     H59476  10.313   5.219   5.238  0.2821  0.2044 -0.8946
  431MOL0     H59477  10.441   5.156   5.356 -0.1771  0.6603  1.7801
  431MOL0     H59478  10.345   5.301   5.386  0.2393  0.3479 -0.1562
  432MOL0     O59479   5.813   0.023   2.466 -0.2887  0.2535 -0.2272
  432MOL0     C59480   5.896   0.017   2.376  0.8421 -0.0956  0.4368
  432MOL0     O59481   5.891  -0.074   2.273 -0.0680  0.0392 -0.2806
  432MOL0     C59482   5.814  -0.188   2.287 -1.0918 -0.3628  0.5695
  432MOL0     C59483   5.698  -0.207   2.206 -0.0779  0.0990  0.7868
  432MOL0     C59484   5.621  -0.323   2.224 -0.4898 -0.3291 -0.0222
  432MOL0     C59485   5.642  -0.421   2.315  0.5173  0.9860  0.4402
  432MOL0     O59486   5.548  -0.524   2.329 -0.3399  0.2679  0.0150
  432MOL0     C59487   5.574  -0.624   2.427 -0.2676 -0.1084  0.5715
  432MOL0     C59488   5.488  -0.745   2.410 -0.4516 -0.2250  0.9926
  432MOL0     C59489   5.507  -0.824   2.278 -0.5936  0.1999  0.3387
  432MOL0     C59490   5.426  -0.761   2.157 -0.5334 -0.9796  0.1105
  432MOL0     C59491   5.502  -0.782   2.025  0.1462  0.8455 -0.5944
  432MOL0     C59492   5.416  -0.764   1.899  0.4398  0.1424 -0.9279
  432MOL0     C59493   5.494  -0.748   1.758 -0.9746 -0.4282 -0.1321
  432MOL0     C59494   5.587  -0.623   1.751  0.1708 -0.4800 -0.1638
  432MOL0     N59495   5.525  -0.490   1.761  0.3859  0.3735  0.4329
  432MOL0     C59496   5.472  -0.416   1.658 -0.6535  0.0626 -0.9310
  432MOL0     C59497   5.457  -0.293   1.710 -0.1902 -0.0091  0.1664
  432MOL0     C59498   5.414  -0.161   1.642 -1.0435 -0.6732  0.1898
  432MOL0     C59499   5.529  -0.110   1.552  0.0916  0.4080 -0.2124
  432MOL0     C59500   5.655  -0.096   1.630 -0.5772 -0.9392  0.4896
  432MOL0     C59501   5.765  -0.022   1.552  1.0913  0.2520 -0.7273
  432MOL0     O59502   5.891  -0.051   1.609 -0.1291  0.2205 -0.7802
  432MOL0     C59503   5.996   0.025   1.579 -0.3986 -0.3987  0.3393
  432MOL0     C59504   5.996   0.150   1.516 -0.0521  0.0528 -0.8403
  432MOL0     C59505   6.109   0.212   1.477  0.9469 -0.6138  0.6222
  432MOL0     C59506   6.100   0.350   1.414 -0.0996  0.3335 -0.1071
  432MOL0     C59507   6.238   0.159   1.506 -0.8067  0.7787 -0.0974
  432MOL0     C59508   6.365   0.223   1.480 -0.2917 -0.0156  0.1002
  432MOL0     O59509   6.378   0.356   1.469 -0.0309  0.2865  0.2542
  432MOL0     C59510   6.504   0.418   1.456 -0.4491 -0.8970 -0.2671
  432MOL0     C59511   6.631   0.365   1.487  0.6249 -0.1265 -0.3683
  432MOL0     C59512   6.747   0.435   1.459  0.0782 -0.0244  0.5574
  432MOL0     C59513   6.730   0.572   1.403 -0.1412  0.8254  0.4794
  432MOL0     O59514   6.840   0.647   1.368  0.0371 -0.5057  0.5294
  432MOL0     C59515   6.969   0.606   1.424  0.7917 -0.1639 -0.1420
  432MOL0     C59516   7.050   0.730   1.457 -0.9635  0.3001 -0.9442
  432MOL0     C59517   7.176   0.688   1.547  0.5739  0.0382 -0.0335
  432MOL0     C59518   7.269   0.798   1.562  0.3844  0.1886  0.2394
  432MOL0     C59519   7.355   0.766   1.690 -0.3337  0.1206  0.7917
  432MOL0     C59520   7.467   0.657   1.682 -0.0496 -0.0264 -0.2368
  432MOL0     C59521   7.558   0.652   1.811  0.3028 -0.1976  0.3695
  432MOL0     C59522   7.696   0.725   1.799  1.0794 -0.3547  0.1606
  432MOL0    Cl59523   7.802   0.627   1.701 -0.3948  0.2210 -0.6565
  432MOL0     C59524   6.603   0.628   1.386  0.3977  0.0066 -0.7295
  432MOL0     C59525   6.488   0.549   1.402  0.3983 -0.1793 -1.1251
  432MOL0     O59526   6.463   0.144   1.485  0.3020  0.8759 -0.5163
  432MOL0     C59527   6.235   0.028   1.563 -0.2972  0.3119  0.7003
  432MOL0     C59528   6.116  -0.040   1.602 -0.6167  0.4639  0.0211
  432MOL0     N59529   5.495  -0.288   1.838 -0.2690  0.4640 -0.5229
  432MOL0     N59530   5.530  -0.408   1.869 -0.3758 -0.2439 -0.3883
  432MOL0     C59531   5.749  -0.399   2.398 -0.4338 -0.0798 -0.3785
  432MOL0     C59532   5.834  -0.286   2.378 -0.4135  0.7154 -0.2555
  432MOL0     C59533   5.988   0.129   2.357  0.5640 -1.5442 -0.1479
  432MOL0     C59534   5.935   0.254   2.310  0.2647  0.1339 -0.8816
  432MOL0     C59535   6.013   0.366   2.289 -0.1095  0.3071  0.0968
  432MOL0     C59536   6.144   0.351   2.303  0.3308 -0.9976  0.1433
  432MOL0     O59537   6.226   0.462   2.304 -0.1469  0.0564  0.6459
  432MOL0     C59538   6.301   0.481   2.181  0.1854  0.2072  0.0297
  432MOL0     C59539   6.444   0.421   2.173  0.2048 -0.4282  0.5689
  432MOL0     C59540   6.505   0.462   2.032 -0.7013  0.1451 -0.5327
  432MOL0     C59541   6.637   0.536   2.032 -0.2136  0.6888  0.3766
  432MOL0     C59542   6.679   0.569   1.895 -1.2601  0.5018  0.2182
  432MOL0     C59543   6.700   0.590   1.785  0.6985  0.5683 -0.0786
  432MOL0     C59544   6.202   0.228   2.343  0.1264  0.1987  0.9633
  432MOL0     C59545   6.123   0.113   2.379 -0.0896  0.0544 -0.1491
  432MOL0     C59546   6.182  -0.012   2.421 -0.3901  0.3231 -1.2150
  432MOL0     H59547   5.663  -0.133   2.135 -2.3118 -2.7624 -1.3105
  432MOL0     H59548   5.539  -0.338   2.156 -1.0928  1.8606  0.1299
  432MOL0     H59549   5.549  -0.587   2.527  0.9676  0.5250  0.6579
  432MOL0     H59550   5.678  -0.659   2.433 -0.2723 -0.0269  1.1872
  432MOL0     H59551   5.516  -0.820   2.485  0.9886  0.3068  1.0103
  432MOL0     H59552   5.384  -0.719   2.431 -0.6024 -1.5810  2.1077
  432MOL0     H59553   5.611  -0.828   2.244 -0.9916 -0.5619 -0.8838
  432MOL0     H59554   5.469  -0.926   2.290  0.2613 -0.1603  0.0778
  432MOL0     H59555   5.324  -0.801   2.156 -2.4575  3.3005  1.9514
  432MOL0     H59556   5.422  -0.654   2.180 -1.4515 -1.2347  1.2308
  432MOL0     H59557   5.537  -0.884   2.011  1.4986  1.1510  0.2367
  432MOL0     H59558   5.586  -0.711   2.029  3.3205 -2.5322 -1.7276
  432MOL0     H59559   5.341  -0.845   1.893  1.3779 -0.9490  1.0908
  432MOL0     H59560   5.360  -0.670   1.897 -0.0524 -0.1345 -0.4455
  432MOL0     H59561   5.409  -0.731   1.690 -0.1941  1.5268 -0.6978
  432MOL0     H59562   5.549  -0.837   1.727 -3.2373 -1.0924 -2.7459
  432MOL0     H59563   5.655  -0.624   1.837 -0.4115 -1.3142  0.3041
  432MOL0     H59564   5.646  -0.639   1.661 -0.0647  0.8149 -0.5719
  432MOL0     H59565   5.442  -0.451   1.559  2.1046 -0.6644 -1.6127
  432MOL0     H59566   5.382  -0.082   1.711 -2.4880 -0.8435 -0.2411
  432MOL0     H59567   5.326  -0.184   1.580 -1.0722 -2.1894  0.7564
  432MOL0     H59568   5.548  -0.175   1.467 -0.6149 -1.5657  1.0699
  432MOL0     H59569   5.502  -0.012   1.513  2.4561  1.8969  1.5456
  432MOL0     H59570   5.637  -0.030   1.715  0.3538 -0.3839  0.2702
  432MOL0     H59571   5.687  -0.198   1.655  0.2734 -0.9653 -0.6237
  432MOL0     H59572   5.766  -0.043   1.445 -0.1040  0.4520 -0.7865
  432MOL0     H59573   5.740   0.084   1.559  4.2036  1.1763 -1.8713
  432MOL0     H59574   5.895   0.185   1.501 -0.5677 -1.4503 -1.0845
  432MOL0     H59575   6.110   0.431   1.487  1.8678  1.2193 -1.2603
  432MOL0     H59576   5.997   0.371   1.387 -0.7936 -0.2476  1.8859
  432MOL0     H59577   6.172   0.370   1.334 -2.0117  2.3631 -1.4521
  432MOL0     H59578   6.651   0.262   1.512  3.3363  0.2821 -0.5566
  432MOL0     H59579   6.844   0.386   1.463  0.6963  1.1720  0.5572
  432MOL0     H59580   6.965   0.570   1.528 -0.2774  0.2839 -0.0063
  432MOL0     H59581   7.022   0.535   1.360 -3.0373 -3.8440  0.3321
  432MOL0     H59582   7.075   0.782   1.364  0.9992 -3.1982 -2.5491
  432MOL0     H59583   6.991   0.803   1.513 -1.2431 -0.9515  0.4564
  432MOL0     H59584   7.228   0.608   1.493  0.0598 -0.4610  0.2032
  432MOL0     H59585   7.140   0.657   1.646  1.5469  0.3801  0.4331
  432MOL0     H59586   7.209   0.889   1.570 -1.7188 -1.1092  0.0892
  432MOL0     H59587   7.322   0.805   1.467 -1.8309 -1.1864 -1.1849
  432MOL0     H59588   7.400   0.857   1.731 -0.9961 -0.5780  3.2276
  432MOL0     H59589   7.299   0.724   1.774 -1.6140 -1.3973 -0.7385
  432MOL0     H59590   7.527   0.669   1.591 -0.0618 -0.8489 -0.3644
  432MOL0     H59591   7.416   0.567   1.647 -1.5409  1.1130 -1.1110
  432MOL0     H59592   7.581   0.548   1.836  1.0340  0.2749  1.7830
  432MOL0     H59593   7.503   0.693   1.897  1.5880  1.3703  0.4928
  432MOL0     H59594   7.730   0.742   1.901 -2.4675  2.6888  1.0683
  432MOL0     H59595   7.688   0.824   1.752 -1.8247  0.3249  1.8793
  432MOL0     H59596   6.589   0.730   1.353 -1.5201 -0.2178 -0.6784
  432MOL0     H59597   6.392   0.590   1.371  0.4150 -0.7801 -2.0075
  432MOL0     H59598   6.326  -0.029   1.579 -0.5267  0.4514  2.6858
  432MOL0     H59599   6.108  -0.134   1.655  0.7657 -1.7072 -3.2594
  432MOL0     H59600   5.783  -0.475   2.467  1.4074  0.6769 -0.3755
  432MOL0     H59601   5.921  -0.271   2.441 -1.2898 -0.5136  1.3459
  432MOL0     H59602   5.827   0.255   2.298 -0.0983 -0.3849  1.6503
  432MOL0     H59603   5.978   0.460   2.246 -1.8125 -0.3523 -0.0188
  432MOL0     H59604   6.242   0.435   2.102  0.8402 -2.0904  0.8136
  432MOL0     H59605   6.301   0.589   2.164  0.5427  0.2157  0.0836
  432MOL0     H59606   6.435   0.312   2.176  2.5511 -0.9799 -3.9235
  432MOL0     H59607   6.506   0.462   2.254 -0.6161  3.1443 -0.4552
  432MOL0     H59608   6.531   0.369   1.982  2.3250  0.3773  0.3765
  432MOL0     H59609   6.431   0.515   1.971 -0.8367  0.9981  0.3469
  432MOL0     H59610   6.716   0.489   2.090  0.6384  1.6759  0.0513
  432MOL0     H59611   6.616   0.626   2.091 -0.1530 -1.1201  3.3115
  432MOL0     H59612   6.724   0.617   1.685  2.8367 -0.9736 -0.0406
  432MOL0     H59613   6.309   0.236   2.359  0.8625 -1.4732 -2.2882
  432MOL0     H59614   6.120  -0.078   2.481 -0.4269  1.1433 -0.3259
  432MOL0     H59615   6.231  -0.068   2.340  0.2913 -1.3244  0.2640
  432MOL0     H59616   6.253   0.012   2.501 -0.4192 -1.4743 -0.6136
  433MOL0     O59617   9.931   1.629   7.165 -0.5517 -0.6162  0.2447
  433MOL0     C59618   9.878   1.663   7.058 -0.3029  0.3766  0.3182
  433MOL0     O59619   9.935   1.651   6.935  0.5484 -0.2417 -0.1296
  433MOL0     C59620  10.062   1.591   6.927 -0.2942 -0.1524 -0.3854
  433MOL0     C59621  10.082   1.452   6.936  0.6719  0.5958  0.7446
  433MOL0     C59622  10.199   1.387   6.903  0.2735 -0.1370 -0.2075
  433MOL0     C59623  10.318   1.466   6.863  0.0046  0.5543 -0.3110
  433MOL0     O59624  10.434   1.400   6.832  0.3172 -0.2588 -0.0443
  433MOL0     C59625  10.501   1.453   6.707 -0.7354 -0.4978 -0.9336
  433MOL0     C59626  10.538   1.337   6.613 -0.8291  1.5547 -0.1411
  433MOL0     C59627  10.417   1.254   6.564 -0.1887 -0.3689  0.4556
  433MOL0     C59628  10.334   1.340   6.468  0.5475  0.6795 -0.2419
  433MOL0     C59629  10.236   1.246   6.392 -0.0722  0.2625 -0.8401
  433MOL0     C59630  10.180   1.295   6.263  0.4738  0.5134 -0.4658
  433MOL0     C59631  10.086   1.416   6.282  0.0322  0.0289  0.9633
  433MOL0     C59632   9.989   1.436   6.167 -0.6876  0.3726  0.4939
  433MOL0     N59633   9.876   1.350   6.183 -0.3461 -0.0578  0.9898
  433MOL0     C59634   9.759   1.361   6.255  0.4725 -0.7515  0.0532
  433MOL0     C59635   9.678   1.254   6.224 -0.1492  0.4678 -0.2988
  433MOL0     C59636   9.547   1.223   6.290  0.6496  1.1449  0.6238
  433MOL0     C59637   9.443   1.135   6.199  0.7766 -0.3341  0.1312
  433MOL0     C59638   9.361   1.030   6.279 -0.0841  0.1865  0.4250
  433MOL0     C59639   9.259   1.088   6.379 -1.2879  0.3025 -0.3873
  433MOL0     O59640   9.327   1.126   6.501  0.0074 -0.2320  0.5888
  433MOL0     C59641   9.235   1.150   6.604  0.6939  1.3283 -0.3128
  433MOL0     C59642   9.280   1.159   6.739  0.1214 -0.2590  0.2184
  433MOL0     C59643   9.198   1.193   6.847  0.0243  0.7237 -0.4948
  433MOL0     C59644   9.251   1.185   6.991 -0.3719 -0.1611 -0.2978
  433MOL0     C59645   9.066   1.214   6.831  0.8333  0.1188 -0.2035
  433MOL0     C59646   8.968   1.251   6.944 -0.0743  0.1839  0.6589
  433MOL0     O59647   8.884   1.360   6.923  0.4505 -0.1931  0.2084
  433MOL0     C59648   8.781   1.388   7.010  0.5252 -0.2045  0.2387
  433MOL0     C59649   8.801   1.419   7.147  0.4028 -0.8706 -0.0597
  433MOL0     C59650   8.682   1.457   7.220 -0.9598  0.3714  0.1810
  433MOL0     C59651   8.558   1.437   7.164  0.8099 -0.5481  0.7316
  433MOL0     O59652   8.446   1.463   7.243 -0.4102 -0.4061  0.2382
  433MOL0     C59653   8.324   1.500   7.185  0.0211 -1.0200 -0.4704
  433MOL0     C59654   8.218   1.561   7.272 -0.2313 -0.4287 -1.4206
  433MOL0     C59655   8.272   1.682   7.355 -0.2207  0.5592  0.4627
  433MOL0     C59656   8.150   1.740   7.434  0.7423  0.9753 -0.3613
  433MOL0     C59657   8.146   1.887   7.472 -1.4055 -0.8735  0.7216
  433MOL0     C59658   8.251   1.971   7.402 -1.7589 -0.1404  0.6807
  433MOL0     C59659   8.241   2.119   7.435 -0.7379 -0.5759  0.4991
  433MOL0     C59660   8.091   2.169   7.401  0.3902 -0.6718 -0.2991
  433MOL0    Cl59661   8.086   2.339   7.371 -0.1415 -0.1382  0.2394
  433MOL0     C59662   8.537   1.400   7.031  1.0788 -0.1846  0.1507
  433MOL0     C59663   8.651   1.377   6.957  0.2541  0.0110 -0.3386
  433MOL0     O59664   8.943   1.162   7.021 -0.1544 -0.6912 -0.2565
  433MOL0     C59665   9.009   1.198   6.699  0.0324 -0.4727  0.1339
  433MOL0     C59666   9.090   1.175   6.587 -0.4004  0.9865 -0.2318
  433MOL0     N59667   9.750   1.177   6.132  0.7628 -0.3156 -0.5356
  433MOL0     N59668   9.864   1.237   6.105  0.7181 -0.9006  0.1363
  433MOL0     C59669  10.299   1.610   6.868 -0.3128 -0.0203 -0.2884
  433MOL0     C59670  10.174   1.666   6.888  0.3223  0.2002  0.0642
  433MOL0     C59671   9.754   1.745   7.063 -0.1832 -0.1289 -1.1118
  433MOL0     C59672   9.715   1.821   6.947  0.1680 -0.1156  0.0360
  433MOL0     C59673   9.608   1.905   6.960 -0.6419 -0.3099 -0.4835
  433MOL0     C59674   9.532   1.925   7.071  0.3969  0.0248 -0.0728
  433MOL0     O59675   9.423   2.009   7.059 -0.0627 -0.7683 -1.2769
  433MOL0     C59676   9.322   2.004   7.164 -0.5924  0.1818 -0.6568
  433MOL0     C59677   9.214   2.086   7.112 -0.5008  0.3294  1.3247
  433MOL0     C59678   9.227   2.241   7.123 -0.3007  0.1553  0.1526
  433MOL0     C59679   9.105   2.301   7.040  0.4751  0.9621  0.4269
  433MOL0     C59680   8.975   2.263   7.103  0.7336  0.4901  0.5531
  433MOL0     C59681   8.868   2.239   7.157 -0.4384  0.5676 -0.4502
  433MOL0     C59682   9.562   1.835   7.176 -0.7739  0.6449  0.5774
  433MOL0     C59683   9.675   1.749   7.179 -0.1199 -0.3103  0.5242
  433MOL0     C59684   9.696   1.681   7.308 -0.5969  0.7736 -0.4479
  433MOL0     H59685  10.000   1.385   6.962  0.3483 -0.8372 -3.3152
  433MOL0     H59686  10.194   1.279   6.890  0.0392 -0.1202 -0.2621
  433MOL0     H59687  10.596   1.493   6.743 -0.8659  0.4490 -1.5906
  433MOL0     H59688  10.432   1.521   6.656  0.8661 -0.1273 -2.6990
  433MOL0     H59689  10.597   1.368   6.526 -2.5394  2.9763 -0.8421
  433MOL0     H59690  10.597   1.268   6.675 -1.2368  1.0001 -0.3572
  433MOL0     H59691  10.437   1.155   6.522 -0.6783 -1.3725  2.4674
  433MOL0     H59692  10.363   1.226   6.654  0.1250 -1.2596  0.3776
  433MOL0     H59693  10.274   1.410   6.527  0.6157 -1.2980  2.3719
  433MOL0     H59694  10.411   1.390   6.410  2.7946 -0.3331  1.7034
  433MOL0     H59695  10.150   1.221   6.455 -0.0210  0.4503 -0.6932
  433MOL0     H59696  10.274   1.145   6.374 -2.4672 -0.7190 -0.7170
  433MOL0     H59697  10.274   1.324   6.214  0.0841 -1.8833 -2.9254
  433MOL0     H59698  10.129   1.220   6.202 -0.3604  1.0271 -0.4111
  433MOL0     H59699  10.138   1.512   6.286 -1.5376  1.2388 -2.9712
  433MOL0     H59700  10.030   1.397   6.374  1.0662 -1.8231  1.2683
  433MOL0     H59701   9.961   1.541   6.160  0.2308  0.7271  1.7339
  433MOL0     H59702  10.042   1.419   6.073 -1.9758  3.7671 -1.0151
  433MOL0     H59703   9.727   1.443   6.319  2.0576  1.1089 -1.3881
  433MOL0     H59704   9.498   1.320   6.306  2.7244  2.5636 -0.9673
  433MOL0     H59705   9.564   1.167   6.382  1.0710 -1.7067 -1.0876
  433MOL0     H59706   9.373   1.204   6.152  1.1036  1.0504  1.5769
  433MOL0     H59707   9.500   1.076   6.126 -0.7408 -0.7583 -0.7479
  433MOL0     H59708   9.310   0.967   6.205  0.4190 -0.4261  0.5924
  433MOL0     H59709   9.427   0.964   6.336 -0.0529 -1.1556 -1.0678
  433MOL0     H59710   9.222   1.182   6.337  1.5774  2.1701  0.9391
  433MOL0     H59711   9.183   1.014   6.404  0.4540 -1.4114  0.1576
  433MOL0     H59712   9.386   1.144   6.756  0.2378  0.7915  0.4953
  433MOL0     H59713   9.213   1.268   7.052  0.5072 -0.3259  0.4956
  433MOL0     H59714   9.360   1.182   6.992 -0.1847  2.9173 -1.7501
  433MOL0     H59715   9.228   1.091   7.042  1.0977  1.7828  4.6450
  433MOL0     H59716   8.902   1.426   7.187 -0.7645 -0.3838  3.1429
  433MOL0     H59717   8.692   1.480   7.326  3.7952 -0.0364  0.0518
  433MOL0     H59718   8.332   1.571   7.101 -1.4125 -1.1494 -0.7470
  433MOL0     H59719   8.259   1.416   7.155 -2.1918  0.9333 -1.5355
  433MOL0     H59720   8.128   1.580   7.213 -0.4287 -0.1458 -1.0332
  433MOL0     H59721   8.194   1.487   7.349  2.0897 -0.6049 -0.7663
  433MOL0     H59722   8.304   1.758   7.282 -2.4844  1.4419  0.3257
  433MOL0     H59723   8.346   1.637   7.423 -1.4854  3.8919  4.4347
  433MOL0     H59724   8.129   1.678   7.521  2.0715 -0.5798 -1.0755
  433MOL0     H59725   8.056   1.729   7.379 -0.1033 -0.1518  1.2268
  433MOL0     H59726   8.046   1.922   7.442 -1.0143 -1.7533 -1.8519
  433MOL0     H59727   8.169   1.906   7.577  2.1353 -1.1410  0.1120
  433MOL0     H59728   8.238   1.962   7.293  0.1000  1.4528  0.2728
  433MOL0     H59729   8.354   1.940   7.417 -1.3221 -1.6115 -3.6803
  433MOL0     H59730   8.308   2.173   7.368  0.6014  0.3195  2.4807
  433MOL0     H59731   8.269   2.132   7.540 -1.4588 -0.4239  0.6804
  433MOL0     H59732   8.030   2.143   7.489  0.1525 -2.0990 -0.8479
  433MOL0     H59733   8.037   2.122   7.318 -3.8356  0.0613  1.7487
  433MOL0     H59734   8.437   1.389   6.989  0.9276  0.5143  0.3152
  433MOL0     H59735   8.660   1.356   6.851 -1.9809  0.2836 -0.6348
  433MOL0     H59736   8.904   1.222   6.689 -0.5552 -2.5508  0.8148
  433MOL0     H59737   9.038   1.185   6.492  0.6414  2.5805 -0.6669
  433MOL0     H59738  10.386   1.673   6.880 -0.1795 -0.2941  0.1703
  433MOL0     H59739  10.169   1.774   6.880  1.4238  0.3142  0.5951
  433MOL0     H59740   9.769   1.818   6.853  0.0734 -0.7726 -0.0025
  433MOL0     H59741   9.599   1.973   6.876  3.9380 -1.0407 -1.8327
  433MOL0     H59742   9.287   1.900   7.162 -2.2840  0.6183  2.0900
  433MOL0     H59743   9.358   2.018   7.266 -1.6257 -0.1412 -0.2403
  433MOL0     H59744   9.132   2.054   7.178  1.2542 -0.0668  3.4390
  433MOL0     H59745   9.199   2.041   7.014  0.8798 -0.8328  1.6330
  433MOL0     H59746   9.206   2.275   7.225 -1.5067  0.5607 -0.2135
  433MOL0     H59747   9.319   2.286   7.084 -0.5439  0.4271 -0.1139
  433MOL0     H59748   9.103   2.267   6.936  3.1332 -2.4635  1.2971
  433MOL0     H59749   9.124   2.408   7.040  2.0412  0.7379 -1.4516
  433MOL0     H59750   8.791   2.243   7.231  0.7267 -1.9707  1.0607
  433MOL0     H59751   9.478   1.813   7.242 -0.4045 -2.9177  0.0577
  433MOL0     H59752   9.699   1.572   7.307  4.7654  0.6422 -0.1658
  433MOL0     H59753   9.784   1.725   7.356 -2.9439  3.4146  1.8222
  433MOL0     H59754   9.613   1.703   7.375 -1.3395  0.0459 -1.1155
  434MOL0     O59755   6.079   6.798   7.020 -0.3672  0.1269  0.6238
  434MOL0     C59756   6.074   6.716   7.107 -0.5703 -0.2341 -0.4633
  434MOL0     O59757   5.980   6.619   7.116  0.8275 -0.8933  0.0113
  434MOL0     C59758   5.859   6.636   7.037 -0.2569 -0.8279 -0.0462
  434MOL0     C59759   5.797   6.749   6.992 -0.2274 -0.0254 -1.3551
  434MOL0     C59760   5.679   6.744   6.926  1.3641 -0.1102  0.2912
  434MOL0     C59761   5.610   6.616   6.920  0.1810  0.9541 -0.3629
  434MOL0     O59762   5.481   6.590   6.873 -0.1178  0.2245  0.8789
  434MOL0     C59763   5.416   6.684   6.790  0.1502  0.1790  0.4314
  434MOL0     C59764   5.273   6.636   6.802 -1.0769  0.0517  0.0462
  434MOL0     C59765   5.184   6.714   6.708 -0.3481  0.6435 -0.1150
  434MOL0     C59766   5.088   6.610   6.638 -0.2986 -0.3995  0.6389
  434MOL0     C59767   4.969   6.677   6.566 -0.1011 -0.0722  0.1996
  434MOL0     C59768   5.010   6.776   6.457  0.1045 -0.6766 -0.5010
  434MOL0     C59769   4.882   6.845   6.400  0.1942  0.9497 -0.6019
  434MOL0     C59770   4.909   6.919   6.263  0.2445 -0.2139  0.1708
  434MOL0     N59771   4.996   7.037   6.292 -0.2841 -0.3129  0.3464
  434MOL0     C59772   5.139   7.029   6.310 -0.2695 -0.5185  0.4801
  434MOL0     C59773   5.170   7.163   6.341  0.5866 -0.1932 -0.8603
  434MOL0     C59774   5.305   7.226   6.339 -0.4048  0.3706 -0.3175
  434MOL0     C59775   5.420   7.115   6.314 -0.5883 -0.5574 -0.8178
  434MOL0     C59776   5.551   7.188   6.327  0.3546 -0.7759 -0.3545
  434MOL0     C59777   5.678   7.095   6.298  0.3928 -1.2004  0.1239
  434MOL0     O59778   5.737   7.040   6.414 -0.2681 -0.2213  0.0377
  434MOL0     C59779   5.799   7.124   6.496  0.4451 -0.7154  0.8889
  434MOL0     C59780   5.839   7.071   6.622  1.0893  0.0113 -0.0877
  434MOL0     C59781   5.898   7.157   6.722 -0.2516  0.8014  0.4621
  434MOL0     C59782   5.965   7.089   6.835 -0.5075  0.4024 -0.0537
  434MOL0     C59783   5.906   7.292   6.697 -0.5238 -0.1360  0.5952
  434MOL0     C59784   5.972   7.380   6.797  0.5176  0.3536  0.0253
  434MOL0     O59785   6.104   7.395   6.792 -0.4345  0.0958  0.3492
  434MOL0     C59786   6.154   7.458   6.904  0.5110 -0.2413 -0.1560
  434MOL0     C59787   6.228   7.371   6.983 -0.4728  0.2685  0.0422
  434MOL0     C59788   6.300   7.428   7.085 -0.0628 -0.0070 -1.2995
  434MOL0     C59789   6.312   7.565   7.103 -0.1932  0.1105  0.0367
  434MOL0     O59790   6.384   7.637   7.200 -0.4798  0.3932 -0.4484
  434MOL0     C59791   6.455   7.554   7.299  0.2006  0.0460 -1.2237
  434MOL0     C59792   6.585   7.487   7.240  0.5789  1.0506 -0.6304
  434MOL0     C59793   6.616   7.349   7.309  0.1367  0.8256  0.6737
  434MOL0     C59794   6.667   7.345   7.452  0.1827 -0.3815 -0.2777
  434MOL0     C59795   6.705   7.197   7.473  0.0605  0.3362 -0.0301
  434MOL0     C59796   6.762   7.171   7.616  0.1231  0.6740  0.1393
  434MOL0     C59797   6.716   7.033   7.664 -0.1493 -0.2121  0.3473
  434MOL0     C59798   6.734   6.903   7.569  0.4489  0.1572 -0.0966
  434MOL0    Cl59799   6.905   6.907   7.521  0.6048 -0.1848 -0.1595
  434MOL0     C59800   6.243   7.645   7.015  0.5017 -0.5403 -1.3159
  434MOL0     C59801   6.169   7.594   6.912 -0.6103  1.7514 -0.0951
  434MOL0     O59802   5.895   7.460   6.853 -0.0544  0.0225  0.0948
  434MOL0     C59803   5.869   7.342   6.575  0.2505 -0.0551  0.0650
  434MOL0     C59804   5.816   7.258   6.478  0.6668 -0.5194 -0.5913
  434MOL0     N59805   5.058   7.235   6.367  1.3229  0.1098  0.4437
  434MOL0     N59806   4.956   7.156   6.334 -0.0720 -0.8065  0.2821
  434MOL0     C59807   5.662   6.506   6.992  0.5443  0.6075  0.6086
  434MOL0     C59808   5.792   6.519   7.038  0.7743 -0.6154  0.4112
  434MOL0     C59809   6.189   6.704   7.206 -0.4966 -0.0615 -0.3092
  434MOL0     C59810   6.202   6.580   7.275 -0.3421 -0.8064  0.1680
  434MOL0     C59811   6.322   6.559   7.361 -0.4226 -0.6796 -0.0255
  434MOL0     C59812   6.415   6.663   7.388  0.8641 -0.4308  0.1405
  434MOL0     O59813   6.525   6.650   7.462 -0.1243  1.0334 -0.3443
  434MOL0     C59814   6.540   6.538   7.552  0.0425 -0.0400  0.9838
  434MOL0     C59815   6.644   6.432   7.495  0.7984 -1.2066  0.0003
  434MOL0     C59816   6.782   6.488   7.446  0.3654  0.2289  0.0160
  434MOL0     C59817   6.877   6.386   7.365  0.5454  0.1364 -0.7068
  434MOL0     C59818   6.893   6.266   7.448 -0.4930  0.4469 -0.2251
  434MOL0     C59819   6.906   6.184   7.542 -0.4711  0.1750 -0.1099
  434MOL0     C59820   6.385   6.789   7.337 -0.3362 -0.8828 -0.3490
  434MOL0     C59821   6.283   6.804   7.241 -0.3680 -0.2033 -0.8435
  434MOL0     C59822   6.287   6.937   7.162 -0.3500 -0.8078 -0.0834
  434MOL0     H59823   5.846   6.845   7.004 -2.5923  1.2178 -0.9494
  434MOL0     H59824   5.629   6.833   6.888  0.6656 -0.9950 -0.9455
  434MOL0     H59825   5.453   6.687   6.687 -1.0355 -0.9433 -0.0589
  434MOL0     H59826   5.425   6.776   6.849  0.6498 -0.1220  0.8384
  434MOL0     H59827   5.280   6.528   6.789 -0.3998  0.2432 -1.3484
  434MOL0     H59828   5.237   6.660   6.903 -1.6372 -1.4423  0.2313
  434MOL0     H59829   5.118   6.783   6.761 -0.8987  0.9860 -1.2005
  434MOL0     H59830   5.242   6.766   6.632  1.7513 -1.4175 -0.0186
  434MOL0     H59831   5.153   6.549   6.574 -0.6155  1.1664 -1.2725
  434MOL0     H59832   5.044   6.545   6.714 -0.7811 -2.5233 -1.3230
  434MOL0     H59833   4.904   6.734   6.633 -4.2706 -2.5457 -1.3427
  434MOL0     H59834   4.902   6.600   6.527  0.0682  0.0258 -0.3016
  434MOL0     H59835   5.074   6.852   6.503 -0.0854 -0.2934 -0.8588
  434MOL0     H59836   5.059   6.729   6.371  0.0990 -1.7666  0.0746
  434MOL0     H59837   4.838   6.911   6.476  0.4150 -0.9248  1.2325
  434MOL0     H59838   4.816   6.764   6.367  1.1724 -0.6089  1.1132
  434MOL0     H59839   4.956   6.848   6.195  0.9034  0.4077 -0.0389
  434MOL0     H59840   4.815   6.954   6.219 -0.0050 -1.4176 -0.2784
  434MOL0     H59841   5.203   6.947   6.281 -0.7471 -1.3770  1.7402
  434MOL0     H59842   5.332   7.284   6.428  1.5054 -2.4034  1.1008
  434MOL0     H59843   5.308   7.287   6.249 -1.0222 -1.1545 -1.4238
  434MOL0     H59844   5.408   7.042   6.394 -0.8365 -0.9476 -1.2044
  434MOL0     H59845   5.414   7.060   6.220  0.5138 -1.1417 -0.5604
  434MOL0     H59846   5.557   7.269   6.253 -1.9172  1.1302  1.3926
  434MOL0     H59847   5.554   7.235   6.425 -1.2293  0.0375 -0.6689
  434MOL0     H59848   5.653   7.020   6.222  1.0830 -1.2769 -0.0278
  434MOL0     H59849   5.754   7.161   6.255 -1.5703  0.4357 -1.0977
  434MOL0     H59850   5.825   6.964   6.626 -0.5480  0.0881 -2.0080
  434MOL0     H59851   6.073   7.106   6.835 -0.4468  0.0177 -0.5963
  434MOL0     H59852   5.948   6.981   6.828 -0.0896  0.4689 -3.7791
  434MOL0     H59853   5.927   7.119   6.934 -1.4012  0.3827 -0.3805
  434MOL0     H59854   6.211   7.264   6.983  0.4777  0.0848  1.3574
  434MOL0     H59855   6.357   7.368   7.154 -1.9345  2.0143  2.3119
  434MOL0     H59856   6.477   7.625   7.379 -1.7080  0.3125 -0.8777
  434MOL0     H59857   6.396   7.485   7.361  0.8590 -0.2521 -0.9140
  434MOL0     H59858   6.575   7.473   7.132  0.6471  0.0461 -0.5129
  434MOL0     H59859   6.660   7.566   7.251 -0.2830  1.7563  0.3677
  434MOL0     H59860   6.679   7.292   7.240 -2.4085 -0.7629 -0.5112
  434MOL0     H59861   6.522   7.294   7.302 -1.0138  2.7206  0.4818
  434MOL0     H59862   6.592   7.378   7.524 -0.1029 -1.3172 -0.1310
  434MOL0     H59863   6.752   7.411   7.474 -0.0223 -0.2584  0.1616
  434MOL0     H59864   6.624   7.128   7.449  1.8905 -3.2977  3.1104
  434MOL0     H59865   6.789   7.163   7.412  2.1865 -0.9109  3.2769
  434MOL0     H59866   6.726   7.256   7.675  0.0188 -0.1823  1.3417
  434MOL0     H59867   6.870   7.163   7.626 -0.1373 -1.8089  1.5966
  434MOL0     H59868   6.609   7.034   7.688 -0.1230 -3.2945  0.9990
  434MOL0     H59869   6.771   7.021   7.758 -2.5726  1.2325  2.0559
  434MOL0     H59870   6.674   6.904   7.478  2.6693  3.2881 -1.7307
  434MOL0     H59871   6.718   6.814   7.631 -0.6340  0.5868  0.2610
  434MOL0     H59872   6.251   7.751   7.040  0.2132 -1.4973  4.1308
  434MOL0     H59873   6.132   7.664   6.837  0.0303  2.9235  0.6533
  434MOL0     H59874   5.863   7.449   6.556 -5.3884 -0.5611 -2.9037
  434MOL0     H59875   5.790   7.312   6.388 -1.8020  1.4833  1.1503
  434MOL0     H59876   5.611   6.410   6.996  1.1381  0.2231 -0.5326
  434MOL0     H59877   5.834   6.436   7.092 -3.0406 -2.0052  1.5573
  434MOL0     H59878   6.134   6.496   7.260  2.8547 -4.0533  2.0938
  434MOL0     H59879   6.309   6.464   7.413 -1.8458 -0.2050  0.5306
  434MOL0     H59880   6.580   6.578   7.645 -0.7343  0.0463  1.2892
  434MOL0     H59881   6.449   6.486   7.583  0.6752 -2.5267 -0.9929
  434MOL0     H59882   6.594   6.388   7.408  0.0171 -0.8539  0.2515
  434MOL0     H59883   6.659   6.344   7.558 -0.0768 -0.0841  1.8584
  434MOL0     H59884   6.768   6.581   7.390  0.5670 -1.4226 -2.9540
  434MOL0     H59885   6.821   6.514   7.545  0.3827  3.7040 -0.7605
  434MOL0     H59886   6.976   6.431   7.359  0.8011 -0.1226  1.0903
  434MOL0     H59887   6.846   6.363   7.263  0.8564 -0.8057 -0.6055
  434MOL0     H59888   6.923   6.130   7.633 -1.9533 -0.5506 -0.2378
  434MOL0     H59889   6.459   6.868   7.338  0.6952 -1.8345 -0.1702
  434MOL0     H59890   6.274   6.924   7.055 -3.9458  0.0675  0.1200
  434MOL0     H59891   6.195   6.991   7.187 -2.0081 -3.5752  0.1438
  434MOL0     H59892   6.369   7.005   7.190  0.8530 -3.5101  3.8514
  435MOL0     O59893  10.218   4.963   6.009  0.3684 -0.6347  0.7722
  435MOL0     C59894  10.267   5.050   5.934  0.4459  0.0229 -0.6622
  435MOL0     O59895  10.209   5.168   5.906  0.7750 -0.1120 -0.2406
  435MOL0     C59896  10.087   5.204   5.976 -1.3164  0.3493 -0.5895
  435MOL0     C59897   9.975   5.222   5.896 -0.3835 -0.5351 -0.7743
  435MOL0     C59898   9.852   5.278   5.951 -0.6999  0.5904 -0.0144
  435MOL0     C59899   9.853   5.310   6.084  0.2642 -0.0695 -0.0462
  435MOL0     O59900   9.748   5.378   6.130 -0.2842  0.0949  1.0044
  435MOL0     C59901   9.619   5.310   6.114  0.0575 -1.2936  1.0844
  435MOL0     C59902   9.542   5.334   6.243  0.5306 -0.9149  0.1456
  435MOL0     C59903   9.553   5.214   6.336 -0.8643 -0.2342  0.4023
  435MOL0     C59904   9.690   5.210   6.411 -0.0423 -0.3049 -0.4067
  435MOL0     C59905   9.698   5.108   6.524  0.4467 -1.2383  0.5864
  435MOL0     C59906   9.833   5.089   6.588 -0.5650 -0.6142  0.4663
  435MOL0     C59907   9.829   4.985   6.692  0.0648  0.2647 -0.2537
  435MOL0     C59908   9.962   4.979   6.764 -0.4348 -0.8006  0.1293
  435MOL0     N59909   9.963   4.875   6.869 -1.0985 -0.4012 -0.7412
  435MOL0     C59910   9.880   4.879   6.984 -0.0381 -0.2695  0.5896
  435MOL0     C59911   9.906   4.755   7.031 -0.3589 -0.7021 -1.1976
  435MOL0     C59912   9.866   4.704   7.169 -0.5116 -0.4332 -0.5164
  435MOL0     C59913   9.735   4.622   7.166  0.4859  0.6068 -0.0881
  435MOL0     C59914   9.680   4.557   7.299 -0.1383  0.3249 -0.0316
  435MOL0     C59915   9.755   4.436   7.356 -0.8661  0.7318 -0.4236
  435MOL0     O59916   9.684   4.351   7.446 -0.6000  0.2328  0.3135
  435MOL0     C59917   9.571   4.284   7.401  0.4566 -0.5716 -0.3752
  435MOL0     C59918   9.444   4.344   7.421  0.5681  0.5946 -0.2522
  435MOL0     C59919   9.327   4.287   7.383  0.1042 -0.3623  0.0548
  435MOL0     C59920   9.200   4.366   7.417 -1.0711  0.2221  0.9641
  435MOL0     C59921   9.329   4.169   7.302  0.3283 -0.5141 -0.7200
  435MOL0     C59922   9.205   4.101   7.250  0.8797  0.3128  0.0798
  435MOL0     O59923   9.231   4.007   7.153 -0.1163 -0.3657  0.4403
  435MOL0     C59924   9.145   3.902   7.128  0.1075 -0.6742 -0.4505
  435MOL0     C59925   9.123   3.801   7.228 -0.8017 -0.7085  0.5649
  435MOL0     C59926   9.064   3.686   7.188  0.3793  0.1389  0.6332
  435MOL0     C59927   9.013   3.670   7.054 -0.4196 -0.0149  0.4954
  435MOL0     O59928   8.966   3.548   7.009  0.0422 -0.5349  0.8741
  435MOL0     C59929   8.934   3.447   7.101 -0.6262 -0.2336  0.7225
  435MOL0     C59930   8.863   3.329   7.031 -0.2378  0.4555  0.2447
  435MOL0     C59931   8.945   3.256   6.930  0.9880  0.5736  0.4381
  435MOL0     C59932   8.865   3.140   6.861  0.1369 -0.3747 -0.9893
  435MOL0     C59933   8.959   3.073   6.759  0.7616 -0.3236 -0.2949
  435MOL0     C59934   8.971   3.141   6.622  0.2299  0.1926 -0.1960
  435MOL0     C59935   8.848   3.157   6.535 -0.5036  0.0254  0.5302
  435MOL0     C59936   8.877   3.194   6.390  0.8007 -0.7518  0.5645
  435MOL0    Cl59937   8.725   3.231   6.300 -0.2371  0.3944  0.1348
  435MOL0     C59938   9.023   3.776   6.965 -0.3150  0.2055  0.4184
  435MOL0     C59939   9.094   3.892   6.995 -0.1712  0.3308  0.1270
  435MOL0     O59940   9.094   4.124   7.300 -0.3082 -0.5722 -0.4107
  435MOL0     C59941   9.462   4.112   7.273  0.9874 -0.5899  0.5638
  435MOL0     C59942   9.577   4.174   7.318 -1.1410  0.3648  0.2726
  435MOL0     N59943   9.991   4.684   6.949 -0.5470  0.1551  0.2953
  435MOL0     N59944  10.033   4.762   6.857 -0.2873  0.4525 -0.1890
  435MOL0     C59945   9.967   5.279   6.169  0.4920  0.0059  0.7844
  435MOL0     C59946  10.083   5.231   6.110  0.2978 -0.8715  0.4561
  435MOL0     C59947  10.400   5.006   5.888  0.6050  0.6663 -0.5620
  435MOL0     C59948  10.473   4.915   5.965 -0.6417  0.4109 -0.6216
  435MOL0     C59949  10.584   4.847   5.918  0.6751  0.3392 -0.8648
  435MOL0     C59950  10.649   4.875   5.800  0.1694 -0.5948  0.3365
  435MOL0     O59951  10.758   4.802   5.758 -0.5987  0.3304 -1.2111
  435MOL0     C59952  10.836   4.832   5.642 -0.7420  0.0455  0.4092
  435MOL0     C59953  10.784   4.771   5.515  1.1112  0.1187  0.1893
  435MOL0     C59954  10.869   4.802   5.394 -0.8823 -0.0585  0.2845
  435MOL0     C59955  10.800   4.914   5.312 -0.9401  0.9026 -0.1170
  435MOL0     C59956  10.779   5.043   5.381  0.2036 -0.5949  0.0976
  435MOL0     C59957  10.759   5.146   5.442  0.1692  0.0404 -0.0626
  435MOL0     C59958  10.581   4.978   5.720  0.3159 -0.0253 -0.5547
  435MOL0     C59959  10.453   5.035   5.767 -1.3039 -0.4703 -0.1413
  435MOL0     C59960  10.383   5.125   5.671 -0.0005  0.0986 -0.1634
  435MOL0     H59961   9.981   5.216   5.787 -0.0663 -2.4944 -0.6804
  435MOL0     H59962   9.771   5.318   5.890 -0.5131  1.3063  0.1938
  435MOL0     H59963   9.621   5.205   6.082 -2.4683 -0.6539 -1.6346
  435MOL0     H59964   9.567   5.358   6.031  2.3778  0.8033  0.7299
  435MOL0     H59965   9.580   5.416   6.304 -0.1937 -1.0715  0.8129
  435MOL0     H59966   9.437   5.359   6.229  0.5042  0.0216  1.7812
  435MOL0     H59967   9.474   5.242   6.406  1.6381  3.9395  1.9778
  435MOL0     H59968   9.529   5.120   6.286  1.5163  0.2342 -1.8185
  435MOL0     H59969   9.762   5.191   6.331  1.8226 -1.0475  1.3721
  435MOL0     H59970   9.708   5.303   6.466  0.8852 -1.9902  2.3012
  435MOL0     H59971   9.659   5.015   6.481  0.1729 -0.6181 -0.5298
  435MOL0     H59972   9.622   5.140   6.596  1.0135 -0.9139  1.0397
  435MOL0     H59973   9.916   5.083   6.517  1.3794  4.7178  1.7951
  435MOL0     H59974   9.860   5.185   6.634  2.2978 -1.3078  0.3998
  435MOL0     H59975   9.795   4.892   6.644 -2.8117  1.8306 -1.5102
  435MOL0     H59976   9.758   5.012   6.771  1.1002 -0.6362  1.0246
  435MOL0     H59977  10.043   4.955   6.694 -0.4304  0.1041 -0.1864
  435MOL0     H59978   9.980   5.076   6.811  0.7306 -0.2534 -1.3779
  435MOL0     H59979   9.829   4.965   7.026  1.0629  0.0288  1.3590
  435MOL0     H59980   9.857   4.783   7.245 -1.0544 -0.2364 -0.7770
  435MOL0     H59981   9.946   4.637   7.202  0.7069  0.2355 -1.9706
  435MOL0     H59982   9.653   4.684   7.128 -0.7684 -2.2248 -2.3872
  435MOL0     H59983   9.728   4.544   7.090  0.9911 -0.2167  0.6955
  435MOL0     H59984   9.677   4.638   7.372 -2.1594  0.1624  0.1337
  435MOL0     H59985   9.579   4.517   7.287  1.1076 -3.9935  1.9037
  435MOL0     H59986   9.794   4.363   7.285  0.2673 -0.9584  1.7980
  435MOL0     H59987   9.842   4.476   7.410 -1.7908  3.8531 -1.0317
  435MOL0     H59988   9.438   4.444   7.462 -1.7753  0.6035 -0.4577
  435MOL0     H59989   9.141   4.391   7.329  1.8917  0.1192 -1.2220
  435MOL0     H59990   9.231   4.462   7.460 -0.9356  0.5069  0.2525
  435MOL0     H59991   9.129   4.307   7.475 -0.3851 -0.6166  0.9730
  435MOL0     H59992   9.144   3.830   7.330 -2.4442 -1.6065  1.2056
  435MOL0     H59993   9.057   3.600   7.254  4.7454  1.6093  3.4626
  435MOL0     H59994   9.025   3.413   7.151  1.4329  1.6095 -1.5609
  435MOL0     H59995   8.868   3.490   7.178 -2.2725  1.2148 -1.3740
  435MOL0     H59996   8.841   3.241   7.093  2.6377  0.3066  1.2086
  435MOL0     H59997   8.767   3.360   6.988 -0.3588 -1.4718 -0.9735
  435MOL0     H59998   9.038   3.212   6.969  1.4011  0.4848 -0.6063
  435MOL0     H59999   8.974   3.314   6.842  0.3399 -1.8527 -1.4813
  435MOL0     H60000   8.775   3.178   6.812 -0.4505  0.9075  0.9565
  435MOL0     H60001   8.828   3.079   6.945  2.7187  2.0641  2.1853
  435MOL0     H60002   9.058   3.051   6.800  0.5234  0.9107  1.0121
  435MOL0     H60003   8.923   2.974   6.729  1.5684 -0.6611 -0.1740
  435MOL0     H60004   9.040   3.081   6.562  0.9235 -0.9597  1.6696
  435MOL0     H60005   9.018   3.240   6.618 -0.7310  0.6535 -0.2510
  435MOL0     H60006   8.787   3.236   6.581 -0.3015  0.5996 -0.1823
  435MOL0     H60007   8.795   3.062   6.545  2.1617 -1.6465 -0.3586
  435MOL0     H60008   8.926   3.114   6.333  2.2984 -0.0615  0.8428
  435MOL0     H60009   8.930   3.288   6.381 -1.6726  0.6837  0.0284
  435MOL0     H60010   9.010   3.748   6.861 -0.1245 -0.7471  0.6366
  435MOL0     H60011   9.124   3.956   6.913  0.4423 -3.1723 -2.6006
  435MOL0     H60012   9.463   4.038   7.193 -5.1388 -1.5035  0.8496
  435MOL0     H60013   9.681   4.145   7.307  0.3678  2.7666  5.2863
  435MOL0     H60014   9.963   5.311   6.272 -0.6984  0.5935  0.5744
  435MOL0     H60015  10.171   5.210   6.170  0.6432  1.4381  0.8727
  435MOL0     H60016  10.430   4.900   6.064  1.9841  2.0361  0.8736
  435MOL0     H60017  10.619   4.765   5.979  3.3070  2.4692  0.7102
  435MOL0     H60018  10.842   4.940   5.629 -0.9604 -0.0175 -0.2424
  435MOL0     H60019  10.935   4.794   5.669 -0.2682  2.1182  1.7754
  435MOL0     H60020  10.684   4.812   5.502  1.3320  1.6672  2.7013
  435MOL0     H60021  10.777   4.662   5.523  3.4669 -0.0675  0.6000
  435MOL0     H60022  10.973   4.827   5.419  0.5720 -6.3138  2.3680
  435MOL0     H60023  10.870   4.708   5.339  1.3108  1.0288 -1.6875
  435MOL0     H60024  10.698   4.881   5.290 -0.1762 -1.6497 -0.0787
  435MOL0     H60025  10.866   4.936   5.227  0.9709  2.0140  1.5482
  435MOL0     H60026  10.741   5.243   5.482  0.3992  1.2965 -2.8135
  435MOL0     H60027  10.607   4.997   5.616 -2.0970 -1.5636 -1.5235
  435MOL0     H60028  10.280   5.089   5.668 -0.7666  1.5535  3.1635
  435MOL0     H60029  10.393   5.229   5.706 -0.3927  0.1083 -0.0768
  435MOL0     H60030  10.426   5.108   5.572 -1.6339 -0.8996 -0.7352
  436MOL0     O60031   3.295   1.272   6.060 -1.2184 -0.3964  0.7362
  436MOL0     C60032   3.241   1.162   6.095  0.3813 -0.6982 -0.5378
  436MOL0     O60033   3.239   1.048   6.014  0.3259 -0.4985  0.1982
  436MOL0     C60034   3.303   1.050   5.887 -0.1825  0.8277 -0.2428
  436MOL0     C60035   3.425   1.105   5.851 -0.1167 -0.8152 -0.4126
  436MOL0     C60036   3.474   1.083   5.723 -0.3719 -0.8429 -0.1061
  436MOL0     C60037   3.406   1.011   5.625 -0.3262 -0.0283 -0.4810
  436MOL0     O60038   3.467   0.992   5.499  0.3876  0.5581  0.0166
  436MOL0     C60039   3.387   0.924   5.394  0.3985  1.4988  0.4931
  436MOL0     C60040   3.479   0.934   5.262  0.4560  0.6635 -0.5155
  436MOL0     C60041   3.412   0.907   5.131  0.0785 -0.1368 -0.2129
  436MOL0     C60042   3.493   0.934   5.010  0.2803  0.4656  0.2007
  436MOL0     C60043   3.407   0.920   4.897  0.8833 -1.2026  0.0530
  436MOL0     C60044   3.478   0.951   4.764 -0.1374  0.1844 -0.2027
  436MOL0     C60045   3.412   0.847   4.666 -1.4269  0.3123 -0.2427
  436MOL0     C60046   3.263   0.870   4.626 -0.5124  0.4021 -0.5169
  436MOL0     N60047   3.241   1.013   4.587 -0.7079  0.3987 -0.2199
  436MOL0     C60048   3.285   1.059   4.464 -0.3142 -0.3608  0.2805
  436MOL0     C60049   3.272   1.194   4.475 -0.9099  0.4698 -0.1276
  436MOL0     C60050   3.332   1.294   4.384 -0.2309  0.0075  0.5043
  436MOL0     C60051   3.483   1.255   4.364  1.9469  0.0477  0.2939
  436MOL0     C60052   3.574   1.260   4.489 -0.4136  0.5238  0.4603
  436MOL0     C60053   3.716   1.283   4.456 -0.2176  0.0653  0.2398
  436MOL0     O60054   3.734   1.424   4.442  0.0902 -0.0710 -0.8910
  436MOL0     C60055   3.860   1.485   4.438  0.3058  0.7176  0.9336
  436MOL0     C60056   3.976   1.435   4.498 -0.9087 -0.5400 -0.0068
  436MOL0     C60057   4.099   1.501   4.502 -0.5663 -1.5978 -0.1591
  436MOL0     C60058   4.205   1.428   4.568  1.1079  0.8710 -0.6883
  436MOL0     C60059   4.111   1.629   4.431  0.9563 -0.5212 -0.4307
  436MOL0     C60060   4.230   1.710   4.434 -0.2516 -0.3317 -0.2609
  436MOL0     O60061   4.247   1.812   4.342 -0.0960 -0.2786  0.5756
  436MOL0     C60062   4.358   1.885   4.358  0.2152  0.1548  0.4325
  436MOL0     C60063   4.493   1.845   4.384  0.7027  0.2631 -0.5913
  436MOL0     C60064   4.589   1.941   4.415  0.2852  0.1363 -1.1811
  436MOL0     C60065   4.551   2.079   4.416 -0.5809 -0.1422  0.1171
  436MOL0     O60066   4.629   2.177   4.445  0.6082 -0.1201 -0.5122
  436MOL0     C60067   4.643   2.193   4.588  0.9784 -0.5179 -0.3839
  436MOL0     C60068   4.771   2.282   4.612  0.7237 -0.3596 -0.2528
  436MOL0     C60069   4.748   2.440   4.597 -1.1553 -0.3314  0.5335
  436MOL0     C60070   4.871   2.513   4.642  0.4963  0.3507 -0.0813
  436MOL0     C60071   4.844   2.661   4.614  0.6011 -0.3055  0.5138
  436MOL0     C60072   4.949   2.743   4.682 -0.2047 -0.4851 -0.6000
  436MOL0     C60073   5.101   2.704   4.666  0.1060 -0.8753 -0.5710
  436MOL0     C60074   5.191   2.791   4.754 -0.0210  0.3241  0.6190
  436MOL0    Cl60075   5.339   2.825   4.672 -0.3450  0.0643  0.0949
  436MOL0     C60076   4.423   2.119   4.385  0.2490  1.1755  0.2948
  436MOL0     C60077   4.327   2.024   4.357  0.2337  0.1722 -0.3617
  436MOL0     O60078   4.302   1.684   4.530  0.4193  0.5832  0.4957
  436MOL0     C60079   3.995   1.680   4.360 -2.2242 -0.4387 -0.2981
  436MOL0     C60080   3.878   1.604   4.362  0.7214  0.0317 -0.1915
  436MOL0     N60081   3.202   1.227   4.594  0.4359  0.8841 -1.1272
  436MOL0     N60082   3.197   1.110   4.661 -0.6481  0.8576  0.1511
  436MOL0     C60083   3.281   0.967   5.662  0.9509  0.0260  0.4818
  436MOL0     C60084   3.225   0.978   5.791 -0.3455  0.1614  0.0095
  436MOL0     C60085   3.170   1.159   6.229 -0.3285  0.2576  0.2789
  436MOL0     C60086   3.132   1.033   6.274 -0.1808  0.5750  0.2871
  436MOL0     C60087   3.061   1.017   6.399  0.2541  0.0706 -0.1273
  436MOL0     C60088   3.020   1.125   6.467  0.4978  0.4681 -0.8200
  436MOL0     O60089   2.922   1.136   6.561 -0.5623  0.9024  0.0548
  436MOL0     C60090   2.861   1.011   6.608  0.3252 -0.0876  0.1995
  436MOL0     C60091   2.733   1.043   6.701  1.2345 -0.4431 -0.9675
  436MOL0     C60092   2.621   1.110   6.622 -0.0275  0.4637 -0.0279
  436MOL0     C60093   2.555   1.003   6.535 -0.7944 -0.0549  0.3179
  436MOL0     C60094   2.460   1.080   6.451 -0.1841 -0.9605  0.0958
  436MOL0     C60095   2.385   1.145   6.379  0.1201 -0.1484 -0.3482
  436MOL0     C60096   3.042   1.252   6.415 -0.7872  0.4837 -0.5630
  436MOL0     C60097   3.129   1.271   6.300  0.3581 -0.1997 -0.3228
  436MOL0     C60098   3.153   1.411   6.262  0.3026  0.1797 -0.2122
  436MOL0     H60099   3.466   1.177   5.921  0.4700 -0.4266 -1.1439
  436MOL0     H60100   3.572   1.122   5.701 -0.1548 -0.4535  1.4971
  436MOL0     H60101   3.296   0.984   5.381  0.2948  1.3886  0.7086
  436MOL0     H60102   3.361   0.819   5.410  2.7470  0.4862 -1.6487
  436MOL0     H60103   3.517   1.036   5.267  0.5588  0.5761  2.0220
  436MOL0     H60104   3.559   0.859   5.273 -1.2767 -0.8893  4.1862
  436MOL0     H60105   3.375   0.805   5.122 -0.4118 -0.0583  0.6813
  436MOL0     H60106   3.322   0.970   5.136  0.6145  0.5880  0.7382
  436MOL0     H60107   3.540   1.033   5.015 -1.9477  1.5985  0.1882
  436MOL0     H60108   3.577   0.864   5.012 -0.2323 -0.1951  2.7248
  436MOL0     H60109   3.314   0.976   4.907  2.0597  0.5784  1.8561
  436MOL0     H60110   3.379   0.815   4.908 -1.8202 -0.8110 -2.0622
  436MOL0     H60111   3.460   1.052   4.727  1.2657  0.1173 -1.1263
  436MOL0     H60112   3.584   0.926   4.764 -0.4759 -1.5666 -2.3132
  436MOL0     H60113   3.427   0.746   4.706 -0.0400  0.7955  0.5449
  436MOL0     H60114   3.472   0.852   4.575 -0.6605 -1.8518  0.0629
  436MOL0     H60115   3.244   0.802   4.543 -5.0071  0.5014  0.1461
  436MOL0     H60116   3.199   0.845   4.712  1.8800 -1.2672  0.8935
  436MOL0     H60117   3.330   1.000   4.385 -1.1095 -1.1332  0.3923
  436MOL0     H60118   3.327   1.398   4.418  1.9399 -0.1674  1.5206
  436MOL0     H60119   3.282   1.294   4.287  0.5547  3.5765 -0.0368
  436MOL0     H60120   3.489   1.156   4.318  1.4758 -0.2949  0.9500
  436MOL0     H60121   3.516   1.319   4.282 -2.5283  2.0662 -0.2178
  436MOL0     H60122   3.541   1.332   4.564 -0.8307  1.6641 -0.7779
  436MOL0     H60123   3.572   1.157   4.528  0.6230 -0.0679 -0.9498
  436MOL0     H60124   3.780   1.248   4.538  1.6868  2.2561 -0.2064
  436MOL0     H60125   3.754   1.239   4.364  2.0737 -0.2904  1.2792
  436MOL0     H60126   3.979   1.346   4.561  2.0438  0.8415  2.0248
  436MOL0     H60127   4.172   1.324   4.564  1.4530  0.7863 -1.6302
  436MOL0     H60128   4.240   1.462   4.666 -0.1602 -1.9476  0.8815
  436MOL0     H60129   4.300   1.435   4.513  0.6415  0.2625 -1.6051
  436MOL0     H60130   4.517   1.740   4.399  0.4479  0.5540  2.5568
  436MOL0     H60131   4.693   1.916   4.435 -0.0981  0.0355  0.8709
  436MOL0     H60132   4.548   2.235   4.622  1.4117  0.2016 -0.0348
  436MOL0     H60133   4.646   2.101   4.648 -2.8720  1.4083  3.3470
  436MOL0     H60134   4.791   2.273   4.719  1.4679 -0.2291 -0.3776
  436MOL0     H60135   4.854   2.250   4.548  1.0016 -1.1860  0.5035
  436MOL0     H60136   4.658   2.477   4.645 -0.4283  2.0938  0.1589
  436MOL0     H60137   4.751   2.458   4.489 -1.0336  0.9995  0.7381
  436MOL0     H60138   4.966   2.488   4.595  1.0222  0.1438  1.0720
  436MOL0     H60139   4.878   2.505   4.751 -0.5743  0.1780 -0.0066
  436MOL0     H60140   4.851   2.688   4.508  0.6074 -0.8311  0.3739
  436MOL0     H60141   4.740   2.686   4.637 -1.4419 -6.0299 -0.7879
  436MOL0     H60142   4.934   2.726   4.789  0.0971  2.1512 -0.0602
  436MOL0     H60143   4.943   2.852   4.668 -0.8410 -0.6495 -1.7762
  436MOL0     H60144   5.126   2.728   4.562 -0.9131  2.0303 -0.2496
  436MOL0     H60145   5.115   2.598   4.685 -0.0824 -1.1866 -2.0493
  436MOL0     H60146   5.209   2.742   4.850  1.0573  2.0069  1.3369
  436MOL0     H60147   5.147   2.891   4.761 -0.0327  0.2531  1.7874
  436MOL0     H60148   4.398   2.225   4.381  1.0525  1.4036  0.9976
  436MOL0     H60149   4.231   2.074   4.351 -1.0793 -1.5555  3.1885
  436MOL0     H60150   4.001   1.781   4.320  0.0724  0.4501  2.0196
  436MOL0     H60151   3.786   1.646   4.321  0.4781  2.8797  2.8544
  436MOL0     H60152   3.222   0.904   5.597  0.6786 -0.6205  1.3401
  436MOL0     H60153   3.130   0.936   5.822 -2.1155  2.9558 -1.1621
  436MOL0     H60154   3.149   0.937   6.225 -1.6536  0.3760  0.1349
  436MOL0     H60155   3.021   0.925   6.439 -1.6625  0.0754 -1.8661
  436MOL0     H60156   2.829   0.951   6.522  0.1141  0.8136 -0.3653
  436MOL0     H60157   2.936   0.943   6.651  0.3502 -1.8207 -2.3587
  436MOL0     H60158   2.767   1.105   6.785  1.4737 -3.8837  1.7110
  436MOL0     H60159   2.698   0.949   6.746  1.1528  0.4775  0.9948
  436MOL0     H60160   2.549   1.148   6.695 -0.9202 -2.9160  1.0784
  436MOL0     H60161   2.662   1.192   6.563  1.0470 -2.5363 -3.9037
  436MOL0     H60162   2.510   0.921   6.592 -0.7310 -1.6940 -1.8569
  436MOL0     H60163   2.632   0.968   6.466 -0.5136  1.2326 -0.0595
  436MOL0     H60164   2.319   1.218   6.336  1.3222  1.3848  0.2877
  436MOL0     H60165   3.011   1.335   6.478  0.3545  0.5513 -0.0485
  436MOL0     H60166   3.130   1.476   6.347  2.0351 -1.0654  1.3018
  436MOL0     H60167   3.262   1.424   6.260  0.1274  2.2459  0.7026
  436MOL0     H60168   3.108   1.446   6.169  0.1909  0.6069 -0.0009
  437MOL0     O60169   5.580   8.619   3.804 -0.4544  0.5357 -0.0256
  437MOL0     C60170   5.563   8.519   3.870  0.3297 -0.2138  0.2192
  437MOL0     O60171   5.499   8.403   3.826 -0.8356  0.1388  0.4119
  437MOL0     C60172   5.394   8.420   3.735  0.3644 -0.4375  0.0114
  437MOL0     C60173   5.369   8.310   3.642 -0.0244  0.2024 -0.6689
  437MOL0     C60174   5.274   8.313   3.540  0.6692 -0.4876 -0.0687
  437MOL0     C60175   5.196   8.423   3.514 -0.2182 -0.1633 -0.0129
  437MOL0     O60176   5.088   8.419   3.427 -0.3924  0.3922  0.4246
  437MOL0     C60177   5.123   8.391   3.292  0.1260  0.2407 -0.1301
  437MOL0     C60178   5.074   8.519   3.220  0.1673 -0.0767  0.2597
  437MOL0     C60179   4.918   8.538   3.229 -0.3300  0.7215 -0.5625
  437MOL0     C60180   4.880   8.651   3.147  0.0985  0.0183  0.7787
  437MOL0     C60181   4.731   8.691   3.167  0.9372 -0.1058  0.1943
  437MOL0     C60182   4.640   8.610   3.072 -0.0527 -0.6944  0.1122
  437MOL0     C60183   4.491   8.613   3.097 -0.0974  0.2172 -0.5889
  437MOL0     C60184   4.410   8.700   2.994  0.3216  0.1709  0.5199
  437MOL0     N60185   4.411   8.839   3.032 -0.1002 -0.2159 -0.1246
  437MOL0     C60186   4.506   8.938   3.018  0.2400  1.2667  0.3993
  437MOL0     C60187   4.456   9.050   3.070  0.2777  0.0267 -0.5562
  437MOL0     C60188   4.511   9.182   3.030  0.5042 -0.2032 -0.2649
  437MOL0     C60189   4.666   9.185   3.021 -0.6218 -0.4774  0.2643
  437MOL0     C60190   4.720   9.334   3.007 -0.7158  0.7439 -0.1105
  437MOL0     C60191   4.806   9.350   2.883 -0.5675 -0.7383 -0.4019
  437MOL0     O60192   4.910   9.445   2.894 -0.6798 -0.4129 -0.1638
  437MOL0     C60193   4.982   9.474   2.784 -0.5176  0.2053 -0.9677
  437MOL0     C60194   5.020   9.604   2.761  0.2631  0.3413 -0.6872
  437MOL0     C60195   5.098   9.637   2.651 -0.2312  0.4901  0.5681
  437MOL0     C60196   5.121   9.781   2.652  0.5457 -0.2099  0.2568
  437MOL0     C60197   5.148   9.544   2.562  0.0472  1.7781  0.0785
  437MOL0     C60198   5.250   9.566   2.450 -1.4739  0.2596 -1.3869
  437MOL0     O60199   5.322   9.685   2.448  0.4608 -0.2528 -0.0938
  437MOL0     C60200   5.349   9.748   2.328  0.1320  0.0302  0.1546
  437MOL0     C60201   5.474   9.731   2.265  0.1408 -0.4215  0.6718
  437MOL0     C60202   5.498   9.788   2.144 -1.1180 -0.3066 -0.4289
  437MOL0     C60203   5.401   9.854   2.073  0.4175 -0.7880 -0.4527
  437MOL0     O60204   5.420   9.914   1.957  0.0940 -0.1462 -0.6647
  437MOL0     C60205   5.553   9.938   1.903  0.7575 -0.9400 -0.1725
  437MOL0     C60206   5.538  10.033   1.779 -0.0121 -0.1281  0.2857
  437MOL0     C60207   5.509  10.176   1.812  0.0929 -0.1530 -0.9449
  437MOL0     C60208   5.533  10.277   1.694  0.8155  0.1098  0.3533
  437MOL0     C60209   5.432  10.252   1.583 -0.3227  0.0476  0.6710
  437MOL0     C60210   5.474  10.335   1.455  0.8138 -0.0823  0.1515
  437MOL0     C60211   5.509  10.492   1.488  0.1222 -1.1054  0.6501
  437MOL0     C60212   5.539  10.568   1.364  0.0753 -0.1036  0.4350
  437MOL0    Cl60213   5.599  10.731   1.414  0.2576  0.2519  0.1183
  437MOL0     C60214   5.278   9.879   2.132  0.3346  0.2307  0.3187
  437MOL0     C60215   5.248   9.819   2.254 -1.3030 -0.0574  0.1927
  437MOL0     O60216   5.272   9.473   2.368 -0.3513 -0.5624  0.1728
  437MOL0     C60217   5.100   9.411   2.569 -0.1998  0.2709  1.1593
  437MOL0     C60218   5.012   9.384   2.680  0.6712 -0.3654  0.1974
  437MOL0     N60219   4.332   9.018   3.134  0.0652 -0.3140  0.3145
  437MOL0     N60220   4.311   8.891   3.117 -0.6284 -0.7059 -0.6065
  437MOL0     C60221   5.209   8.530   3.607 -0.8204 -0.1201 -0.3480
  437MOL0     C60222   5.311   8.528   3.706  0.8401 -0.5877 -0.3375
  437MOL0     C60223   5.605   8.511   4.004 -0.4376 -0.0346 -0.0126
  437MOL0     C60224   5.560   8.402   4.081 -0.6325  0.2359 -0.6986
  437MOL0     C60225   5.596   8.388   4.217  0.6010  0.8168 -0.0643
  437MOL0     C60226   5.687   8.478   4.266  0.7507  0.5243  0.0868
  437MOL0     O60227   5.721   8.460   4.403 -0.0816 -0.2603  0.6878
  437MOL0     C60228   5.815   8.556   4.452 -0.7201 -0.1283  0.4849
  437MOL0     C60229   5.842   8.536   4.601  0.1633 -0.0806  0.0033
  437MOL0     C60230   5.743   8.620   4.680  0.1969  0.5078 -0.0047
  437MOL0     C60231   5.748   8.591   4.832  0.3968 -0.4061 -1.1409
  437MOL0     C60232   5.626   8.520   4.879  1.0200  0.0357 -0.7748
  437MOL0     C60233   5.532   8.452   4.915 -0.2605  0.3833 -0.4801
  437MOL0     C60234   5.745   8.583   4.188 -0.5632 -0.0952 -0.7594
  437MOL0     C60235   5.696   8.597   4.065 -0.9862 -0.4856  0.0763
  437MOL0     C60236   5.763   8.719   3.996  0.2964 -0.3356 -0.0081
  437MOL0     H60237   5.438   8.226   3.652  0.0577  0.2980 -0.4093
  437MOL0     H60238   5.260   8.234   3.467  0.5572  0.1705 -0.7720
  437MOL0     H60239   5.065   8.309   3.249  3.1946 -0.4184 -3.4766
  437MOL0     H60240   5.229   8.370   3.273  0.1521 -0.0051  0.2703
  437MOL0     H60241   5.139   8.606   3.237  2.3000 -1.9856  2.6522
  437MOL0     H60242   5.093   8.500   3.114  0.1776 -3.0875  0.7240
  437MOL0     H60243   4.874   8.455   3.173  0.2445 -0.7311  1.0502
  437MOL0     H60244   4.881   8.537   3.331 -0.8947  3.2428 -0.6900
  437MOL0     H60245   4.936   8.737   3.187 -1.9559  0.7488  2.2550
  437MOL0     H60246   4.905   8.637   3.041 -0.7316 -3.1904  0.9119
  437MOL0     H60247   4.711   8.797   3.148 -2.0579 -0.6620 -0.2631
  437MOL0     H60248   4.707   8.664   3.270  3.7854 -1.6912  0.5373
  437MOL0     H60249   4.663   8.644   2.970 -0.7151 -1.7459 -0.4007
  437MOL0     H60250   4.671   8.506   3.084  2.7936  0.3299  2.8718
  437MOL0     H60251   4.449   8.629   3.197 -1.6318 -1.1457 -0.9807
  437MOL0     H60252   4.471   8.506   3.082  0.5239  0.1691 -1.1367
  437MOL0     H60253   4.432   8.687   2.887  1.8244 -0.0424  0.8330
  437MOL0     H60254   4.304   8.674   3.002 -0.1530  2.0341  0.7363
  437MOL0     H60255   4.603   8.926   2.970 -0.1288 -1.5984  0.1987
  437MOL0     H60256   4.470   9.256   3.099 -2.7889 -1.2736 -0.8959
  437MOL0     H60257   4.482   9.215   2.930 -0.7150  2.5668  0.8980
  437MOL0     H60258   4.708   9.134   3.108 -3.1123 -0.3235  1.6559
  437MOL0     H60259   4.697   9.120   2.939 -1.0998 -0.6846  0.2434
  437MOL0     H60260   4.631   9.397   3.008 -2.0619 -0.8124  4.2842
  437MOL0     H60261   4.784   9.357   3.093 -1.8225  1.7647  0.4667
  437MOL0     H60262   4.846   9.251   2.857 -1.0809 -1.2571  0.7024
  437MOL0     H60263   4.746   9.387   2.799  0.3666 -0.3589 -0.9197
  437MOL0     H60264   4.985   9.684   2.826 -1.3718 -0.2127 -0.8573
  437MOL0     H60265   5.053   9.835   2.719  1.8257 -1.5530  2.7787
  437MOL0     H60266   5.111   9.817   2.549  1.1416  0.4720  0.4251
  437MOL0     H60267   5.227   9.784   2.680  0.6401  1.0406 -0.1774
  437MOL0     H60268   5.551   9.667   2.306 -3.3284 -3.2397  3.4621
  437MOL0     H60269   5.590   9.760   2.093 -0.8491 -1.9996  0.9047
  437MOL0     H60270   5.628   9.972   1.976  1.6427 -1.7674 -0.6645
  437MOL0     H60271   5.583   9.838   1.870  0.1167 -1.0846 -0.3306
  437MOL0     H60272   5.633  10.013   1.728  1.2408  2.3737  1.4092
  437MOL0     H60273   5.452   9.997   1.723 -0.9111  1.3598  0.6484
  437MOL0     H60274   5.575  10.207   1.893 -0.3014  0.6720 -0.9255
  437MOL0     H60275   5.405  10.175   1.847  1.0000 -0.3162  1.9850
  437MOL0     H60276   5.630  10.257   1.645  1.1900 -0.8448  1.4491
  437MOL0     H60277   5.538  10.377   1.737 -0.0659  0.1112  0.4522
  437MOL0     H60278   5.428  10.146   1.556  0.4610 -0.1554  1.3042
  437MOL0     H60279   5.334  10.281   1.622 -0.0872 -0.4631  1.6855
  437MOL0     H60280   5.387  10.319   1.391  1.3294 -0.7317 -0.4018
  437MOL0     H60281   5.565  10.284   1.422  1.4108  1.2695 -0.3385
  437MOL0     H60282   5.598  10.494   1.552  0.8306 -2.0889 -0.2662
  437MOL0     H60283   5.427  10.554   1.525 -0.0906  1.1594 -3.1167
  437MOL0     H60284   5.461  10.577   1.287  1.1774  2.1371 -0.5171
  437MOL0     H60285   5.618  10.505   1.321 -1.8707 -3.2047  1.0699
  437MOL0     H60286   5.197   9.931   2.083  0.1211  1.9633  2.3624
  437MOL0     H60287   5.153   9.820   2.305 -0.9595 -3.9563  1.2095
  437MOL0     H60288   5.129   9.334   2.498  1.4665  1.3681  0.6084
  437MOL0     H60289   4.974   9.282   2.687 -0.3356 -0.1521 -1.6165
  437MOL0     H60290   5.138   8.612   3.596  0.7549  1.0556 -2.7451
  437MOL0     H60291   5.329   8.616   3.768  0.4737 -1.4453  1.0314
  437MOL0     H60292   5.492   8.326   4.045 -0.8989 -0.3759  1.0154
  437MOL0     H60293   5.546   8.305   4.266  0.9202 -1.9090 -3.8800
  437MOL0     H60294   5.908   8.544   4.396 -1.2015 -2.6150  0.1180
  437MOL0     H60295   5.766   8.654   4.449 -4.0452 -1.6445 -0.0107
  437MOL0     H60296   5.939   8.579   4.627 -1.3975  4.3916 -0.7758
  437MOL0     H60297   5.837   8.429   4.625  4.5059 -0.7641 -1.3359
  437MOL0     H60298   5.768   8.725   4.664  1.2185  0.3214  0.2433
  437MOL0     H60299   5.641   8.601   4.646  0.5009  0.0741 -0.6910
  437MOL0     H60300   5.756   8.686   4.887 -2.7528 -1.6810  1.9264
  437MOL0     H60301   5.831   8.523   4.853  0.1489  0.1491  2.3774
  437MOL0     H60302   5.453   8.386   4.944 -0.7325  0.9885 -0.3551
  437MOL0     H60303   5.816   8.655   4.229  0.2798 -1.2785 -0.0755
  437MOL0     H60304   5.780   8.711   3.888 -1.1952 -0.1990 -0.2753
  437MOL0     H60305   5.696   8.805   4.007 -2.6023 -2.6219  1.4688
  437MOL0     H60306   5.859   8.745   4.042  1.4551 -0.9052 -1.9834
  438MOL0     O60307   9.303   0.459   8.633 -0.2298  0.2256 -0.6253
  438MOL0     C60308   9.337   0.345   8.611 -0.2683 -0.4583 -0.0815
  438MOL0     O60309   9.314   0.269   8.499  0.4914  0.6558 -0.4859
  438MOL0     C60310   9.228   0.325   8.411 -0.5286  1.0199  0.0782
  438MOL0     C60311   9.092   0.320   8.433  0.5500 -0.4926 -0.3543
  438MOL0     C60312   9.012   0.381   8.337 -0.5760 -0.2142 -0.1263
  438MOL0     C60313   9.058   0.436   8.214 -0.1142  0.2612 -0.1376
  438MOL0     O60314   8.977   0.505   8.132 -0.2545  0.1827  0.5610
  438MOL0     C60315   9.034   0.573   8.011  0.1477 -0.4876  0.6797
  438MOL0     C60316   9.080   0.480   7.897  0.3241 -0.4370  0.2067
  438MOL0     C60317   8.960   0.431   7.812  0.3070  0.0303 -0.0519
  438MOL0     C60318   8.993   0.322   7.721  0.1559  0.2342  0.6352
  438MOL0     C60319   8.908   0.327   7.596 -0.0268 -1.0375 -0.0263
  438MOL0     C60320   8.988   0.302   7.467 -1.0158 -0.4613 -1.3625
  438MOL0     C60321   8.890   0.274   7.349  0.2618  0.1187  0.8168
  438MOL0     C60322   8.973   0.275   7.217 -0.7228  0.5827  0.0842
  438MOL0     N60323   9.038   0.407   7.182 -0.2265  1.0522 -0.2552
  438MOL0     C60324   8.982   0.523   7.177  1.3268  0.5200  0.1846
  438MOL0     C60325   9.069   0.618   7.133 -0.1502  0.9805  0.1728
  438MOL0     C60326   9.038   0.762   7.098 -0.0067 -0.5285  0.0606
  438MOL0     C60327   8.992   0.768   6.951  0.1477  0.7307  0.2451
  438MOL0     C60328   9.090   0.731   6.835  0.7084 -0.1484 -0.0900
  438MOL0     C60329   9.066   0.831   6.723 -0.0008 -1.1603  0.0189
  438MOL0     O60330   9.107   0.759   6.611 -0.0497 -0.0986 -0.1778
  438MOL0     C60331   9.240   0.743   6.577  0.1562 -0.4593  0.2269
  438MOL0     C60332   9.272   0.641   6.489 -0.7051 -1.0245  0.9215
  438MOL0     C60333   9.397   0.630   6.440 -1.3313  0.0207  1.1220
  438MOL0     C60334   9.426   0.510   6.360 -0.3676 -0.1301  0.7962
  438MOL0     C60335   9.502   0.723   6.474 -0.4435  0.1121  0.7134
  438MOL0     C60336   9.643   0.729   6.410 -0.8440 -0.2001 -0.7516
  438MOL0     O60337   9.743   0.804   6.477  0.5851  0.3698 -0.9923
  438MOL0     C60338   9.873   0.820   6.432  0.0616  0.5588  0.6958
  438MOL0     C60339   9.909   0.911   6.331 -0.1775 -0.5321  1.1448
  438MOL0     C60340  10.043   0.942   6.305 -0.7008 -0.4592  0.4969
  438MOL0     C60341  10.145   0.864   6.368 -0.4400 -0.1537 -0.2298
  438MOL0     O60342  10.274   0.896   6.344 -0.0749  0.2432  0.2250
  438MOL0     C60343  10.373   0.802   6.377 -0.9032  0.1417  0.2568
  438MOL0     C60344  10.515   0.824   6.320  1.0030 -0.5789  0.1588
  438MOL0     C60345  10.619   0.724   6.381  0.5208 -0.2054  0.2561
  438MOL0     C60346  10.750   0.745   6.296 -0.2791 -0.3107  0.3728
  438MOL0     C60347  10.860   0.633   6.328 -0.1805 -0.6207 -0.3624
  438MOL0     C60348  10.986   0.673   6.255 -0.8289  0.8450  1.1499
  438MOL0     C60349  11.096   0.565   6.272  0.9399 -0.5420  1.4274
  438MOL0     C60350  11.104   0.469   6.157 -0.3380  0.4549  0.3709
  438MOL0    Cl60351  11.241   0.351   6.194  0.4636  0.1652  0.1256
  438MOL0     C60352  10.102   0.785   6.476  0.5911  0.7707 -0.8212
  438MOL0     C60353   9.965   0.753   6.510 -0.1854 -0.6441 -0.8295
  438MOL0     O60354   9.658   0.670   6.301 -0.1444 -0.3977  0.2591
  438MOL0     C60355   9.470   0.809   6.587  0.6789  0.4179  0.2603
  438MOL0     C60356   9.341   0.820   6.637 -0.6509 -0.5224 -1.7514
  438MOL0     N60357   9.187   0.538   7.109  0.4398 -0.2172  0.4847
  438MOL0     N60358   9.166   0.413   7.130 -0.5367 -0.3487 -0.6276
  438MOL0     C60359   9.196   0.427   8.189  0.3795  0.7330 -0.0365
  438MOL0     C60360   9.276   0.364   8.280  1.2513 -0.5254 -0.3684
  438MOL0     C60361   9.436   0.278   8.682 -0.6599  0.5416 -1.0364
  438MOL0     C60362   9.569   0.335   8.685  0.4381  0.0470 -0.0420
  438MOL0     C60363   9.681   0.273   8.753  0.7695  0.0845 -0.2801
  438MOL0     C60364   9.666   0.156   8.826 -0.0446 -0.5093 -0.3665
  438MOL0     O60365   9.786   0.097   8.879  0.5385  0.7223 -0.9047
  438MOL0     C60366   9.794  -0.030   8.936  0.0051 -0.4434  0.4064
  438MOL0     C60367   9.942  -0.039   8.988 -0.5500  0.0941 -0.6471
  438MOL0     C60368  10.039  -0.056   8.876 -0.2446  0.3495  0.6975
  438MOL0     C60369  10.161  -0.119   8.934  1.2203  0.2945 -0.2120
  438MOL0     C60370  10.266  -0.108   8.838 -0.3980 -0.5219  0.1571
  438MOL0     C60371  10.360  -0.123   8.762 -0.5793 -0.0207 -0.9156
  438MOL0     C60372   9.535   0.108   8.843  0.5746  0.6689  0.8178
  438MOL0     C60373   9.426   0.161   8.769 -0.1325 -1.4634  0.1331
  438MOL0     C60374   9.288   0.096   8.798  0.0037 -1.0880  0.2726
  438MOL0     H60375   9.042   0.280   8.521 -1.8723  0.8937 -1.0172
  438MOL0     H60376   8.910   0.384   8.375  0.7567  1.3699  3.7359
  438MOL0     H60377   9.116   0.638   8.042 -0.6526  1.0254 -0.2438
  438MOL0     H60378   8.956   0.641   7.976 -2.1357 -2.0750  2.4481
  438MOL0     H60379   9.155   0.538   7.843  1.9590 -1.7641  0.9529
  438MOL0     H60380   9.129   0.389   7.934  2.2332  1.2563  2.1062
  438MOL0     H60381   8.888   0.396   7.887  2.1393 -1.6000  1.0684
  438MOL0     H60382   8.933   0.526   7.766  2.3909  0.9530  0.4940
  438MOL0     H60383   9.098   0.330   7.695 -0.4276 -0.5459 -2.2969
  438MOL0     H60384   8.978   0.223   7.766  0.7087  0.1907  0.7241
  438MOL0     H60385   8.850   0.420   7.598 -3.7621 -3.1718  1.0494
  438MOL0     H60386   8.824   0.256   7.592 -4.2655  3.3480  1.0657
  438MOL0     H60387   9.057   0.381   7.438  3.2356 -3.5945 -0.7712
  438MOL0     H60388   9.055   0.217   7.483  2.0424  1.7998 -1.4705
  438MOL0     H60389   8.816   0.353   7.366  1.4644  0.8349  3.1712
  438MOL0     H60390   8.840   0.178   7.363  2.5661 -1.1802  0.6930
  438MOL0     H60391   9.057   0.208   7.236 -0.8315 -0.6531 -3.0862
  438MOL0     H60392   8.919   0.242   7.127  2.4158  2.6550 -2.8247
  438MOL0     H60393   8.878   0.537   7.201  1.4807 -1.3334  2.2811
  438MOL0     H60394   9.119   0.832   7.120 -1.7161  0.4446  4.1946
  438MOL0     H60395   8.951   0.792   7.156  1.0550  0.4695  1.1910
  438MOL0     H60396   8.898   0.713   6.943  2.2307 -2.8769 -2.3166
  438MOL0     H60397   8.968   0.870   6.920 -1.7795 -0.0714 -1.1102
  438MOL0     H60398   9.193   0.748   6.868 -0.1414 -1.1293  3.5389
  438MOL0     H60399   9.085   0.627   6.801 -1.1693 -0.4030  0.8557
  438MOL0     H60400   8.960   0.853   6.705  0.3248  0.0373 -0.4776
  438MOL0     H60401   9.125   0.919   6.745  0.8382 -1.6754 -0.1225
  438MOL0     H60402   9.195   0.567   6.467  0.9570 -2.7955  0.7786
  438MOL0     H60403   9.414   0.538   6.255  0.4821  0.8139  0.9272
  438MOL0     H60404   9.362   0.424   6.378 -0.9098 -0.0879 -0.7822
  438MOL0     H60405   9.526   0.469   6.378 -0.6150 -0.3375  1.7185
  438MOL0     H60406   9.827   0.963   6.283 -0.1522 -1.7348 -0.2808
  438MOL0     H60407  10.043   1.015   6.225 -3.0986 -0.4955  0.3900
  438MOL0     H60408  10.393   0.797   6.484  1.5435  2.5572  0.0000
  438MOL0     H60409  10.348   0.703   6.336  1.6267 -0.2897 -0.3870
  438MOL0     H60410  10.514   0.813   6.211  4.2543  2.1516 -0.3128
  438MOL0     H60411  10.540   0.929   6.339 -1.0469 -0.2811  1.6131
  438MOL0     H60412  10.581   0.622   6.379 -0.5250  0.1878 -0.7324
  438MOL0     H60413  10.642   0.752   6.485  0.0295 -0.9516  0.5749
  438MOL0     H60414  10.802   0.840   6.311  1.1880 -1.2598  1.4950
  438MOL0     H60415  10.724   0.741   6.190 -0.0410  3.4084  0.0463
  438MOL0     H60416  10.869   0.627   6.437 -0.8757 -0.7133 -0.3053
  438MOL0     H60417  10.816   0.536   6.305 -1.1156 -0.0967 -0.8314
  438MOL0     H60418  11.017   0.771   6.291 -2.0436  1.5247  0.4004
  438MOL0     H60419  10.962   0.680   6.148  3.2369 -0.9295 -0.0910
  438MOL0     H60420  11.077   0.508   6.364  1.8251  0.4567  2.2591
  438MOL0     H60421  11.186   0.622   6.297 -1.0384  2.7309  1.5699
  438MOL0     H60422  11.136   0.518   6.065 -0.1350  0.1680  0.2850
  438MOL0     H60423  11.021   0.403   6.132 -1.2921  0.3739  3.2860
  438MOL0     H60424  10.163   0.740   6.554 -1.3266  0.5263  0.6123
  438MOL0     H60425   9.932   0.702   6.600  1.0411  1.0069  0.6254
  438MOL0     H60426   9.560   0.865   6.611  1.8641 -2.0363  1.9432
  438MOL0     H60427   9.329   0.891   6.718  0.1451 -0.7853 -1.3916
  438MOL0     H60428   9.244   0.474   8.103  1.8736 -1.2977 -0.3841
  438MOL0     H60429   9.383   0.357   8.263  1.5261  2.3439 -0.2684
  438MOL0     H60430   9.584   0.428   8.631  2.5842  0.9380  1.9000
  438MOL0     H60431   9.780   0.317   8.745  0.9245  1.0074  4.0238
  438MOL0     H60432   9.718  -0.041   9.014 -1.4140 -0.7923 -0.9659
  438MOL0     H60433   9.772  -0.107   8.861 -1.5031  0.5973 -0.2548
  438MOL0     H60434   9.944  -0.125   9.056 -0.8855 -1.3278 -2.3512
  438MOL0     H60435   9.958   0.060   9.032 -0.9082  0.7038 -1.8392
  438MOL0     H60436   9.990  -0.135   8.818 -2.6670  0.7171  2.1063
  438MOL0     H60437  10.051   0.037   8.820  1.7661 -0.3030 -0.0311
  438MOL0     H60438  10.151  -0.227   8.953  1.6534 -0.2817 -2.8388
  438MOL0     H60439  10.178  -0.062   9.025 -3.7763  1.9054  0.0463
  438MOL0     H60440  10.433  -0.142   8.687 -0.0517  0.7643 -0.6152
  438MOL0     H60441   9.511   0.016   8.895 -3.0295  0.4897 -0.8740
  438MOL0     H60442   9.269   0.021   8.721 -0.1355 -0.5479 -0.2233
  438MOL0     H60443   9.287   0.042   8.893 -2.7789  2.1360  2.2905
  438MOL0     H60444   9.207   0.170   8.802 -0.0478 -1.1931  2.9986
  439MOL0     O60445   0.683   7.126   4.667  0.1929  0.3846  0.0761
  439MOL0     C60446   0.723   7.011   4.663  0.4442 -0.6359  0.3205
  439MOL0     O60447   0.755   6.936   4.768 -0.8617 -0.3368  0.0197
  439MOL0     C60448   0.772   6.986   4.896  0.0679  0.3127  1.0548
  439MOL0     C60449   0.722   6.920   5.011 -0.4338  0.3237 -0.2424
  439MOL0     C60450   0.739   6.976   5.140  0.4590 -0.0489  0.0976
  439MOL0     C60451   0.815   7.091   5.156  0.3880  0.7714  0.0329
  439MOL0     O60452   0.848   7.146   5.272  0.2234 -0.6951  0.6296
  439MOL0     C60453   0.896   7.055   5.363 -0.2455 -0.5150 -0.3497
  439MOL0     C60454   0.992   7.132   5.457  0.2306 -0.4975 -1.0271
  439MOL0     C60455   0.959   7.113   5.600 -0.2153 -0.5377 -0.9777
  439MOL0     C60456   0.904   7.248   5.653 -0.1736  0.5572  0.0890
  439MOL0     C60457   0.896   7.250   5.804  0.7373 -0.2242 -0.4793
  439MOL0     C60458   1.022   7.283   5.883  0.4707  0.2878 -0.1149
  439MOL0     C60459   1.001   7.246   6.026 -0.0241  1.2640 -0.6657
  439MOL0     C60460   0.935   7.355   6.109 -0.1717 -1.1899  0.3518
  439MOL0     N60461   1.020   7.467   6.148  0.4312  0.2450  0.4731
  439MOL0     C60462   1.074   7.477   6.272  0.1435 -0.0379  0.6435
  439MOL0     C60463   1.134   7.601   6.272 -0.9687 -0.3243 -0.4838
  439MOL0     C60464   1.236   7.650   6.377  0.4063  0.2512 -1.2618
  439MOL0     C60465   1.203   7.601   6.521 -0.1607  0.0422 -0.5825
  439MOL0     C60466   1.083   7.677   6.575 -0.8477  0.4376  0.7382
  439MOL0     C60467   1.093   7.839   6.586  0.4309 -0.7580  0.2429
  439MOL0     O60468   1.220   7.883   6.646  0.2466 -0.0054 -0.1633
  439MOL0     C60469   1.244   7.838   6.774 -0.0596  0.8692 -0.2388
  439MOL0     C60470   1.376   7.787   6.810  0.6094  0.4858 -0.4212
  439MOL0     C60471   1.398   7.716   6.931 -0.0993 -0.8800  0.1532
  439MOL0     C60472   1.522   7.647   6.950 -0.0803 -0.9183 -0.3121
  439MOL0     C60473   1.295   7.721   7.032 -0.1482 -0.1596  0.2315
  439MOL0     C60474   1.324   7.683   7.174 -0.3081 -0.1718  0.4111
  439MOL0     O60475   1.230   7.717   7.268  0.3811  0.9244 -1.1743
  439MOL0     C60476   1.267   7.684   7.395  0.7382  0.7558 -0.7036
  439MOL0     C60477   1.182   7.589   7.453 -0.2736 -0.0967  0.8439
  439MOL0     C60478   1.214   7.538   7.584 -0.8891  0.3457  0.7987
  439MOL0     C60479   1.320   7.589   7.662  0.8695 -0.0123  0.0452
  439MOL0     O60480   1.355   7.547   7.790 -0.2707  0.5839 -0.4364
  439MOL0     C60481   1.241   7.521   7.874 -0.6127 -0.0788 -0.8960
  439MOL0     C60482   1.137   7.628   7.868  0.4869 -0.6129  0.2922
  439MOL0     C60483   1.019   7.604   7.963  0.0421 -0.3420 -0.0790
  439MOL0     C60484   0.904   7.713   7.974 -0.4969 -0.0596 -0.6750
  439MOL0     C60485   0.851   7.728   8.114 -0.0910  0.0460  0.4580
  439MOL0     C60486   0.730   7.633   8.142 -0.1826 -0.2793  0.1517
  439MOL0     C60487   0.656   7.657   8.275  0.0843 -1.1461 -0.1983
  439MOL0     C60488   0.507   7.629   8.267  0.1900 -0.1269 -0.2629
  439MOL0    Cl60489   0.437   7.758   8.172 -0.4894  0.2394  0.1361
  439MOL0     C60490   1.380   7.695   7.609  0.9834 -0.4765 -0.8926
  439MOL0     C60491   1.363   7.735   7.479  0.2918 -0.2035  0.6872
  439MOL0     O60492   1.435   7.634   7.203  0.3000  0.0774 -0.4724
  439MOL0     C60493   1.171   7.770   7.000 -0.6692 -0.3043 -0.2200
  439MOL0     C60494   1.142   7.832   6.879 -0.8087  0.0790 -0.2562
  439MOL0     N60495   1.104   7.660   6.155  0.3167 -0.0969 -0.0022
  439MOL0     N60496   1.042   7.580   6.080 -0.2495  0.4275  0.0017
  439MOL0     C60497   0.869   7.157   5.043 -0.5054 -0.7555 -0.7129
  439MOL0     C60498   0.845   7.104   4.914 -1.0206 -0.1037 -0.5768
  439MOL0     C60499   0.756   6.941   4.531 -0.0370 -0.1180  0.2294
  439MOL0     C60500   0.879   6.881   4.516 -0.0602 -0.2870  0.6554
  439MOL0     C60501   0.918   6.811   4.398  0.4378 -0.4012 -0.1953
  439MOL0     C60502   0.821   6.805   4.290 -0.2315  0.0927  0.4546
  439MOL0     O60503   0.833   6.742   4.167  0.4568 -0.0578 -0.5041
  439MOL0     C60504   0.956   6.672   4.142  0.1243 -0.5306 -0.0850
  439MOL0     C60505   0.931   6.578   4.023  0.0036  0.0038  0.2214
  439MOL0     C60506   0.957   6.643   3.888  1.0770  1.1216 -0.4206
  439MOL0     C60507   0.857   6.604   3.785  0.5276 -0.5124 -0.2936
  439MOL0     C60508   0.835   6.462   3.767 -0.1782  0.6923 -0.6142
  439MOL0     C60509   0.843   6.336   3.749  0.4394 -0.4302  1.3303
  439MOL0     C60510   0.695   6.874   4.306 -0.2948 -0.0863  0.4859
  439MOL0     C60511   0.657   6.926   4.428 -0.5985 -0.3710  0.7636
  439MOL0     C60512   0.527   6.996   4.442  0.8076 -0.0738 -0.0048
  439MOL0     H60513   0.668   6.826   5.010  0.4764 -0.2179 -0.0321
  439MOL0     H60514   0.676   6.935   5.218 -2.9518  1.1319 -1.8562
  439MOL0     H60515   0.946   6.969   5.317 -0.6341 -1.2861  0.6191
  439MOL0     H60516   0.809   7.016   5.417 -1.7183 -0.4703 -2.5508
  439MOL0     H60517   1.097   7.099   5.450  1.2868  1.3847  2.8802
  439MOL0     H60518   0.994   7.238   5.428  2.0362  0.3524  1.7867
  439MOL0     H60519   0.900   7.023   5.623  1.4814 -1.5277 -0.3063
  439MOL0     H60520   1.051   7.101   5.658 -1.0527  0.3575  0.5931
  439MOL0     H60521   0.969   7.325   5.610 -0.3550  0.5127 -0.2685
  439MOL0     H60522   0.806   7.257   5.607  0.1815  2.9582 -0.3004
  439MOL0     H60523   0.860   7.151   5.835 -1.8056  0.7219 -0.1886
  439MOL0     H60524   0.826   7.332   5.819  0.9677 -0.0006 -0.6131
  439MOL0     H60525   1.103   7.215   5.853 -1.2157 -2.6900  1.5648
  439MOL0     H60526   1.059   7.384   5.866  0.0337  0.6619  1.1029
  439MOL0     H60527   1.106   7.230   6.053  0.3494  2.9202 -1.0446
  439MOL0     H60528   0.953   7.149   6.042  0.9164  1.1052  1.6329
  439MOL0     H60529   0.853   7.388   6.044  0.0079 -0.7700  0.3355
  439MOL0     H60530   0.883   7.324   6.200  1.6917  1.9121  2.6613
  439MOL0     H60531   1.065   7.400   6.348 -1.5825 -0.7573 -0.2514
  439MOL0     H60532   1.245   7.759   6.373  3.6609  0.2911  1.8466
  439MOL0     H60533   1.335   7.612   6.351  0.4861 -2.1598  1.9161
  439MOL0     H60534   1.189   7.493   6.509  4.2958 -0.4445 -5.0489
  439MOL0     H60535   1.288   7.610   6.589 -0.8850 -3.3385  0.9503
  439MOL0     H60536   0.990   7.667   6.519  0.6818  0.9065 -2.0545
  439MOL0     H60537   1.065   7.648   6.679 -1.3182 -0.1895  0.4830
  439MOL0     H60538   1.086   7.875   6.483  2.2980 -1.1934 -0.0755
  439MOL0     H60539   1.006   7.867   6.645  0.3853  1.3060 -0.7004
  439MOL0     H60540   1.435   7.781   6.719 -2.0639  1.2405 -2.3436
  439MOL0     H60541   1.498   7.546   6.985  0.6060 -1.2036 -0.6632
  439MOL0     H60542   1.575   7.693   7.034 -0.4019  2.0284 -1.5772
  439MOL0     H60543   1.595   7.652   6.869  0.8708 -0.9520  0.5347
  439MOL0     H60544   1.102   7.552   7.390  1.0161  1.9124 -2.2199
  439MOL0     H60545   1.164   7.453   7.628 -1.2159  1.0310  1.7899
  439MOL0     H60546   1.188   7.427   7.857 -4.3965  1.1473  2.4569
  439MOL0     H60547   1.293   7.514   7.970  1.4656 -4.0401 -2.0591
  439MOL0     H60548   1.187   7.722   7.893  1.5053 -0.8201 -0.8831
  439MOL0     H60549   1.113   7.641   7.762  2.9008  1.8042 -0.0744
  439MOL0     H60550   1.054   7.588   8.065  1.5559  0.8720 -0.3838
  439MOL0     H60551   0.969   7.516   7.920 -1.2252  0.8845 -1.2386
  439MOL0     H60552   0.820   7.687   7.910 -1.2661  1.2961 -0.2518
  439MOL0     H60553   0.940   7.806   7.930  0.4797 -0.1776 -0.1560
  439MOL0     H60554   0.938   7.713   8.178  1.1389  1.5837 -0.7636
  439MOL0     H60555   0.807   7.824   8.139  1.5367  0.5249  1.6315
  439MOL0     H60556   0.772   7.532   8.135  0.3275 -0.0505 -0.1464
  439MOL0     H60557   0.654   7.636   8.063 -0.0621 -1.3932 -0.0196
  439MOL0     H60558   0.666   7.762   8.304  2.0227 -1.6386  1.1552
  439MOL0     H60559   0.710   7.593   8.346  0.5498 -2.2634 -1.5150
  439MOL0     H60560   0.452   7.632   8.362 -2.5807 -2.2212 -1.6672
  439MOL0     H60561   0.483   7.528   8.235 -0.7825 -0.7913  2.3177
  439MOL0     H60562   1.463   7.737   7.664 -1.4792  0.7951  2.1600
  439MOL0     H60563   1.428   7.809   7.433  0.1607 -1.3114 -1.4208
  439MOL0     H60564   1.094   7.767   7.075  0.0478  0.0047  0.5461
  439MOL0     H60565   1.049   7.881   6.851  0.8822  1.8780 -3.1572
  439MOL0     H60566   0.923   7.247   5.071 -2.2537  0.1662 -0.1012
  439MOL0     H60567   0.904   7.155   4.839  2.7781 -1.5934  1.1421
  439MOL0     H60568   0.948   6.890   4.599 -1.5405 -2.4286  2.2597
  439MOL0     H60569   1.009   6.754   4.383 -0.1970 -1.1622 -1.3510
  439MOL0     H60570   1.036   6.739   4.108 -0.8039 -0.0781 -1.4853
  439MOL0     H60571   0.987   6.620   4.233  1.7523 -3.1483 -2.0418
  439MOL0     H60572   0.828   6.541   4.026 -0.0977  0.2232 -0.4916
  439MOL0     H60573   1.006   6.499   4.023  1.7920  1.5981 -1.1495
  439MOL0     H60574   0.946   6.752   3.891  2.8417  1.3203  0.3820
  439MOL0     H60575   1.055   6.614   3.850  0.7276 -0.4421 -0.1956
  439MOL0     H60576   0.885   6.638   3.685 -2.7036  1.4892 -0.6568
  439MOL0     H60577   0.767   6.659   3.813  3.4670  5.8567 -1.6064
  439MOL0     H60578   0.864   6.231   3.749  1.8157 -0.2155 -0.5289
  439MOL0     H60579   0.627   6.884   4.223 -1.4745  2.4408  1.6458
  439MOL0     H60580   0.446   6.947   4.387  1.6823 -1.6632  0.0519
  439MOL0     H60581   0.492   7.003   4.546 -3.8034 -0.8771 -1.2963
  439MOL0     H60582   0.542   7.095   4.399  0.4634 -1.0063 -2.4267
  440MOL0     O60583   9.581   2.677  11.245  0.5976 -0.7168  0.5041
  440MOL0     C60584   9.659   2.770  11.222  0.5347 -0.6945  0.3421
  440MOL0     O60585   9.795   2.771  11.250  0.1214 -0.0562  0.2730
  440MOL0     C60586   9.833   2.735  11.372  1.2491  0.4618 -0.7768
  440MOL0     C60587   9.756   2.697  11.484  0.1782  0.8619  0.4705
  440MOL0     C60588   9.816   2.676  11.609 -0.5396  0.3904 -0.7006
  440MOL0     C60589   9.956   2.667  11.615 -0.0677  0.9885 -0.2164
  440MOL0     O60590  10.007   2.639  11.739 -0.3966  0.2202 -0.1686
  440MOL0     C60591  10.134   2.588  11.748 -0.5493  0.9520 -1.3196
  440MOL0     C60592  10.201   2.557  11.889  0.3992 -0.1487  0.2774
  440MOL0     C60593  10.296   2.436  11.867  0.3127  0.2833  0.2063
  440MOL0     C60594  10.432   2.480  11.812  0.6885  0.0923 -0.3781
  440MOL0     C60595  10.521   2.368  11.762  0.1340 -0.2235  0.4660
  440MOL0     C60596  10.648   2.415  11.669 -0.4383  0.2023 -0.4632
  440MOL0     C60597  10.734   2.297  11.623 -0.1360  0.0258  0.4348
  440MOL0     C60598  10.803   2.300  11.481 -0.3356  0.9434 -0.7040
  440MOL0     N60599  10.882   2.425  11.483  0.5953  0.8411  0.4090
  440MOL0     C60600  10.836   2.538  11.419  0.4706 -0.3230 -0.5711
  440MOL0     C60601  10.941   2.626  11.450 -0.9227  0.8261  0.0189
  440MOL0     C60602  10.935   2.760  11.399  0.2836  0.4830 -0.0809
  440MOL0     C60603  10.862   2.860  11.490  0.0894 -0.4093 -0.6485
  440MOL0     C60604  10.712   2.838  11.502 -0.6423  0.3103 -0.4179
  440MOL0     C60605  10.631   2.962  11.538  0.3873 -0.5660  0.1842
  440MOL0     O60606  10.490   2.951  11.516 -0.5278  0.1834 -0.9449
  440MOL0     C60607  10.431   2.977  11.400 -0.3728 -0.2639  0.0844
  440MOL0     C60608  10.483   3.005  11.276  0.5362 -0.0689  1.3594
  440MOL0     C60609  10.399   3.042  11.174 -0.4872  0.2377  1.0658
  440MOL0     C60610  10.455   3.076  11.036  0.1711 -0.1350  0.4537
  440MOL0     C60611  10.263   3.051  11.186  0.5801 -0.7493 -0.0985
  440MOL0     C60612  10.160   3.112  11.085 -0.5676  0.4937 -0.4467
  440MOL0     O60613  10.194   3.212  10.996 -1.2753  0.6319 -0.3308
  440MOL0     C60614  10.103   3.275  10.917 -0.3720 -0.6707  0.3210
  440MOL0     C60615  10.137   3.405  10.888 -0.2959 -0.6923  0.4059
  440MOL0     C60616  10.071   3.480  10.785 -0.1672  0.2199  0.0913
  440MOL0     C60617   9.965   3.425  10.714  0.0937 -0.4806 -0.1752
  440MOL0     O60618   9.898   3.484  10.613  0.3891  0.5572 -0.7116
  440MOL0     C60619   9.948   3.609  10.559 -0.0146  0.5142  0.0760
  440MOL0     C60620   9.882   3.644  10.427 -0.4081 -0.2868  1.0157
  440MOL0     C60621   9.731   3.681  10.437  0.2841 -0.3136 -0.3222
  440MOL0     C60622   9.670   3.693  10.295  0.3312 -0.8628  0.1560
  440MOL0     C60623   9.524   3.725  10.320  0.0530  0.3146  0.0096
  440MOL0     C60624   9.422   3.693  10.212 -0.7694 -0.5074  0.3435
  440MOL0     C60625   9.277   3.713  10.258 -0.0155 -0.0088 -0.3683
  440MOL0     C60626   9.171   3.674  10.159  0.5978  0.7448 -0.2108
  440MOL0    Cl60627   9.024   3.706  10.250  0.1001  0.0445 -0.4539
  440MOL0     C60628   9.926   3.296  10.763  0.8663 -0.3691 -0.4058
  440MOL0     C60629   9.991   3.226  10.859  0.1017 -0.1816 -0.3174
  440MOL0     O60630  10.047   3.064  11.103  0.0150 -0.1071  0.2680
  440MOL0     C60631  10.220   3.017  11.313  0.1644  0.6447  0.4482
  440MOL0     C60632  10.296   2.971  11.418  0.1829 -0.1557  0.5151
  440MOL0     N60633  11.029   2.571  11.531 -0.0434 -0.1476  0.2952
  440MOL0     N60634  10.995   2.449  11.547 -0.4888  0.6659  0.1221
  440MOL0     C60635  10.038   2.701  11.508  0.0976  0.0244  0.0408
  440MOL0     C60636   9.976   2.737  11.391  0.5865  0.4881  0.5722
  440MOL0     C60637   9.603   2.897  11.157 -0.6418  0.5894 -0.0229
  440MOL0     C60638   9.699   2.992  11.103  0.1045 -0.6009  0.3428
  440MOL0     C60639   9.651   3.115  11.043 -0.2263  0.5783  0.7771
  440MOL0     C60640   9.515   3.136  11.045 -0.1871 -0.0663 -0.7595
  440MOL0     O60641   9.449   3.242  10.988 -0.0502 -0.7116  0.0879
  440MOL0     C60642   9.521   3.334  10.905  0.1706 -0.4272 -0.2964
  440MOL0     C60643   9.424   3.431  10.832 -0.7241  0.7043 -0.9628
  440MOL0     C60644   9.323   3.364  10.745 -0.2085  0.1128  0.0792
  440MOL0     C60645   9.241   3.450  10.659 -1.2149  0.7058  0.4714
  440MOL0     C60646   9.150   3.537  10.723  0.0626  0.4088 -0.7145
  440MOL0     C60647   9.057   3.614  10.740 -0.3429 -0.5252  0.0238
  440MOL0     C60648   9.422   3.040  11.096 -0.4431 -0.1282  0.8333
  440MOL0     C60649   9.471   2.923  11.151  0.9502  0.4912  0.7555
  440MOL0     C60650   9.358   2.820  11.167  0.6407 -0.0362  0.3373
  440MOL0     H60651   9.648   2.688  11.486  0.1049  1.1345  4.0423
  440MOL0     H60652   9.765   2.658  11.703 -0.5020  0.3788 -0.6822
  440MOL0     H60653  10.206   2.663  11.714  2.8148 -2.2413 -1.8536
  440MOL0     H60654  10.131   2.498  11.686  0.5525 -1.6301  2.0592
  440MOL0     H60655  10.256   2.646  11.923 -2.1878  1.9244 -0.6272
  440MOL0     H60656  10.122   2.532  11.961  0.4533 -0.6013  0.1795
  440MOL0     H60657  10.305   2.382  11.961 -1.5691  0.1562  0.3462
  440MOL0     H60658  10.253   2.363  11.797  0.6041 -0.6075  0.9365
  440MOL0     H60659  10.415   2.539  11.721 -2.1709 -0.4888 -0.2957
  440MOL0     H60660  10.482   2.542  11.886  0.9049  0.2633 -0.6640
  440MOL0     H60661  10.456   2.296  11.710 -0.3140  1.4055 -1.3373
  440MOL0     H60662  10.555   2.309  11.848 -4.0012 -1.0841  1.7194
  440MOL0     H60663  10.614   2.456  11.574  1.2372 -1.5474 -1.8826
  440MOL0     H60664  10.714   2.483  11.725  0.9158 -2.6495  1.6601
  440MOL0     H60665  10.675   2.205  11.627 -0.1090 -0.1218 -1.6641
  440MOL0     H60666  10.819   2.286  11.691  1.6888  1.2514 -1.5185
  440MOL0     H60667  10.872   2.215  11.488 -3.3043 -1.4990  1.3844
  440MOL0     H60668  10.736   2.282  11.396 -1.7601 -2.6761  0.9500
  440MOL0     H60669  10.737   2.560  11.379  0.7622 -1.9166 -2.3390
  440MOL0     H60670  10.884   2.756  11.302  0.1911  1.7466 -0.1004
  440MOL0     H60671  11.037   2.795  11.377  0.9587 -0.9086  0.6913
  440MOL0     H60672  10.912   2.854  11.587  3.0031 -0.2481 -2.0207
  440MOL0     H60673  10.889   2.962  11.458  0.9975 -0.6459 -0.6582
  440MOL0     H60674  10.665   2.808  11.408 -1.3400 -1.2566  0.3802
  440MOL0     H60675  10.684   2.759  11.573  1.0458 -0.7452 -0.8488
  440MOL0     H60676  10.636   2.992  11.643 -2.5365  1.1560 -0.0559
  440MOL0     H60677  10.664   3.042  11.471  0.4871 -0.5872  0.2094
  440MOL0     H60678  10.587   3.004  11.244  0.3757  0.3147  0.8096
  440MOL0     H60679  10.422   3.010  10.955 -1.9132  0.2036  0.9806
  440MOL0     H60680  10.564   3.078  11.034  0.1511  0.4492 -1.2694
  440MOL0     H60681  10.434   3.180  11.010 -2.5146 -0.7126  0.0560
  440MOL0     H60682  10.222   3.459  10.928 -0.2575 -1.0663  0.8383
  440MOL0     H60683  10.092   3.585  10.765 -0.7699 -0.0792 -2.4373
  440MOL0     H60684   9.922   3.684  10.635  1.2505  1.4907 -0.4174
  440MOL0     H60685  10.057   3.602  10.551 -0.0927  0.7941 -1.3576
  440MOL0     H60686   9.937   3.718  10.369  0.1691 -0.3421  1.4826
  440MOL0     H60687   9.877   3.553  10.366  0.5541  1.0951 -1.2604
  440MOL0     H60688   9.734   3.776  10.490  1.4441 -1.2894  1.4800
  440MOL0     H60689   9.681   3.600  10.490  1.6370  0.5213  2.4251
  440MOL0     H60690   9.669   3.596  10.243 -0.4602 -1.3908  1.1134
  440MOL0     H60691   9.714   3.771  10.233 -0.6961 -0.1185  0.3448
  440MOL0     H60692   9.495   3.659  10.402  2.0918  0.5973  1.0157
  440MOL0     H60693   9.510   3.829  10.351  1.3419  0.6985 -0.6085
  440MOL0     H60694   9.423   3.588  10.184 -3.2802 -0.5513  0.2049
  440MOL0     H60695   9.452   3.755  10.126  2.8547  1.4252  2.7161
  440MOL0     H60696   9.244   3.816  10.276 -4.0286 -0.8597 -1.6827
  440MOL0     H60697   9.275   3.651  10.348  1.3144 -1.3365 -1.2061
  440MOL0     H60698   9.192   3.571  10.129  0.3269  0.9417 -1.1246
  440MOL0     H60699   9.166   3.736  10.069 -3.5103  0.2602 -0.4920
  440MOL0     H60700   9.837   3.261  10.712 -0.8825  2.5936  0.3973
  440MOL0     H60701   9.962   3.122  10.867  4.0615 -1.8031 -3.6753
  440MOL0     H60702  10.113   3.022  11.333 -0.7428  0.9452 -3.5140
  440MOL0     H60703  10.263   2.938  11.516  1.1667 -1.9805  0.2864
  440MOL0     H60704  10.144   2.721  11.519  0.2042 -1.3871  1.8760
  440MOL0     H60705  10.049   2.761  11.315  1.3470 -1.7227  0.5425
  440MOL0     H60706   9.806   2.978  11.108  0.9577  3.3695 -2.3461
  440MOL0     H60707   9.720   3.185  10.997 -1.4082 -0.8256 -3.5523
  440MOL0     H60708   9.584   3.399  10.966 -2.3622  2.9788 -1.0126
  440MOL0     H60709   9.581   3.281  10.830  0.8845 -0.6928  0.4501
  440MOL0     H60710   9.481   3.504  10.775  2.7406  0.6507  2.0695
  440MOL0     H60711   9.363   3.478  10.909 -0.9166 -2.1779  0.7922
  440MOL0     H60712   9.374   3.292  10.681 -0.9936 -0.5404  0.1762
  440MOL0     H60713   9.256   3.306  10.809  1.6173 -0.3720  1.6454
  440MOL0     H60714   9.179   3.391  10.591 -3.5937  2.5664  0.8880
  440MOL0     H60715   9.320   3.493  10.597  1.5815 -5.5542 -1.0946
  440MOL0     H60716   8.984   3.692  10.751  0.6402  1.0030 -3.0064
  440MOL0     H60717   9.317   3.064  11.082 -0.8391 -0.9984  2.1270
  440MOL0     H60718   9.356   2.780  11.269  0.1565 -3.0783 -0.7445
  440MOL0     H60719   9.261   2.860  11.137  0.6710 -0.6480 -0.6289
  440MOL0     H60720   9.397   2.744  11.099  2.8042  0.9173  0.4548
  441MOL0     O60721  11.323   1.381   4.823 -0.0342  0.6574 -0.5233
  441MOL0     C60722  11.245   1.353   4.732 -0.2478 -0.3598 -0.1969
  441MOL0     O60723  11.270   1.367   4.595 -0.5003  1.2003 -0.6988
  441MOL0     C60724  11.388   1.415   4.544  0.1496 -1.6376 -0.8482
  441MOL0     C60725  11.415   1.378   4.415 -1.7802  0.0407  0.9062
  441MOL0     C60726  11.536   1.410   4.355 -0.0719 -0.7263 -0.3561
  441MOL0     C60727  11.621   1.490   4.416  0.9462 -0.3211  0.2506
  441MOL0     O60728  11.741   1.525   4.357  0.2664  0.7362 -0.0715
  441MOL0     C60729  11.773   1.472   4.229 -0.3770  0.2791 -0.9400
  441MOL0     C60730  11.908   1.533   4.175  0.6427 -0.3490 -0.0987
  441MOL0     C60731  12.025   1.546   4.274 -0.5725 -0.6955  0.4084
  441MOL0     C60732  12.039   1.692   4.327  0.2586 -0.2746 -0.1748
  441MOL0     C60733  12.164   1.716   4.418  0.7501 -0.3799 -0.7179
  441MOL0     C60734  12.167   1.856   4.477  0.3135 -0.4604  0.5588
  441MOL0     C60735  12.049   1.872   4.568 -0.4207  0.0911  0.1363
  441MOL0     C60736  12.028   1.760   4.669  0.5952 -0.1207 -0.2203
  441MOL0     N60737  11.935   1.819   4.764  0.5161 -0.1918  0.5392
  441MOL0     C60738  11.794   1.804   4.780 -0.6202  0.6441 -1.4415
  441MOL0     C60739  11.781   1.878   4.893 -0.1882  0.0560  0.1435
  441MOL0     C60740  11.665   1.899   4.973  0.5434  0.3675  1.3027
  441MOL0     C60741  11.673   1.830   5.097  0.1229 -0.0311 -0.3445
  441MOL0     C60742  11.669   1.677   5.088 -0.2800 -0.6967 -0.0642
  441MOL0     C60743  11.643   1.619   5.227 -0.2927  0.8562 -0.9622
  441MOL0     O60744  11.759   1.636   5.309  0.7211  0.2825 -0.6768
  441MOL0     C60745  11.752   1.604   5.443  0.5169 -0.0517  0.4210
  441MOL0     C60746  11.647   1.531   5.500  0.2933  0.6415  0.0220
  441MOL0     C60747  11.637   1.502   5.640  0.6999  0.1212 -0.0726
  441MOL0     C60748  11.532   1.412   5.692  0.3383  0.0276 -0.5966
  441MOL0     C60749  11.738   1.540   5.724 -0.1473 -0.4305  0.4956
  441MOL0     C60750  11.749   1.505   5.867  0.2234  0.5428  0.5963
  441MOL0     O60751  11.799   1.604   5.950 -1.0355  0.3640  0.3764
  441MOL0     C60752  11.868   1.556   6.057 -0.6889 -0.5278  0.6185
  441MOL0     C60753  12.003   1.551   6.036  0.8235 -0.8013 -0.6350
  441MOL0     C60754  12.089   1.522   6.147  0.4413  0.6574  0.4260
  441MOL0     C60755  12.043   1.509   6.276 -0.3632  0.3456  0.4868
  441MOL0     O60756  12.133   1.476   6.380 -0.1259 -0.2976  0.4015
  441MOL0     C60757  12.089   1.476   6.515 -0.0542 -0.0366  0.6980
  441MOL0     C60758  12.202   1.413   6.593 -0.6371 -0.0456 -0.8495
  441MOL0     C60759  12.172   1.399   6.750 -0.4204  0.2308  0.4376
  441MOL0     C60760  12.253   1.485   6.842 -0.5508 -0.9733 -0.3312
  441MOL0     C60761  12.176   1.617   6.870  0.8170 -0.4293  0.8953
  441MOL0     C60762  12.047   1.596   6.954 -0.3956 -0.1884  0.3673
  441MOL0     C60763  11.972   1.732   6.975  0.4993  0.2953  0.2771
  441MOL0     C60764  11.902   1.784   6.844 -0.5199 -0.2879  0.6785
  441MOL0    Cl60765  11.805   1.657   6.758  0.2695  0.0789 -0.0600
  441MOL0     C60766  11.909   1.538   6.293 -0.1161  0.6702  0.4520
  441MOL0     C60767  11.818   1.565   6.189 -0.3192  0.0335 -0.7047
  441MOL0     O60768  11.726   1.392   5.905 -0.2589 -0.4819  0.0118
  441MOL0     C60769  11.841   1.620   5.664  0.0272 -0.0029  0.5606
  441MOL0     C60770  11.841   1.649   5.528 -0.3011 -0.4440  0.5892
  441MOL0     N60771  11.893   1.943   4.939  1.7885 -0.0443  0.6894
  441MOL0     N60772  11.985   1.905   4.862 -0.1874 -0.2577  0.1082
  441MOL0     C60773  11.606   1.532   4.545 -0.0488 -0.4752  0.0988
  441MOL0     C60774  11.484   1.498   4.610  0.4960 -0.1795  0.6537
  441MOL0     C60775  11.111   1.308   4.775 -0.1017  0.1701  0.0869
  441MOL0     C60776  11.065   1.342   4.903 -0.4658  0.2464 -0.0392
  441MOL0     C60777  10.934   1.317   4.943 -0.4724 -0.5470 -0.7290
  441MOL0     C60778  10.849   1.249   4.867 -0.3856  0.1813 -0.1736
  441MOL0     O60779  10.730   1.200   4.921 -0.0354 -0.3763 -0.9451
  441MOL0     C60780  10.651   1.315   4.970 -0.4245  1.6072 -0.8761
  441MOL0     C60781  10.557   1.256   5.073  0.1622 -0.5348 -0.0103
  441MOL0     C60782  10.442   1.167   5.021  0.2741  0.5736 -0.4608
  441MOL0     C60783  10.316   1.254   4.988  0.2426 -0.1487  0.8778
  441MOL0     C60784  10.205   1.163   4.950 -0.0624 -0.0445  0.2210
  441MOL0     C60785  10.103   1.101   4.925 -0.3756  0.5114 -1.0750
  441MOL0     C60786  10.895   1.197   4.744  0.0984 -0.2923  0.3636
  441MOL0     C60787  11.021   1.230   4.692  0.6294  0.3324  0.2116
  441MOL0     C60788  11.056   1.171   4.557  0.1001 -0.0174  0.3802
  441MOL0     H60789  11.341   1.317   4.364 -1.1685 -1.0247  1.2663
  441MOL0     H60790  11.542   1.374   4.252 -1.9165 -1.0967 -0.3679
  441MOL0     H60791  11.700   1.508   4.157 -1.5311 -0.5798 -0.2282
  441MOL0     H60792  11.784   1.363   4.233 -0.7496  0.2557 -0.5340
  441MOL0     H60793  11.938   1.474   4.088  0.7779  2.2038 -1.9069
  441MOL0     H60794  11.895   1.634   4.135 -0.7080 -0.5475 -0.2026
  441MOL0     H60795  12.006   1.471   4.352  1.4242 -3.3539 -1.5154
  441MOL0     H60796  12.118   1.517   4.225  1.3450 -0.3275  3.5357
  441MOL0     H60797  12.052   1.769   4.250  1.7158 -0.7807 -0.4723
  441MOL0     H60798  11.951   1.714   4.387  0.2254 -2.1718  0.5308
  441MOL0     H60799  12.251   1.716   4.351  0.9890  2.6268 -0.5832
  441MOL0     H60800  12.172   1.635   4.490 -4.4273 -0.6692 -0.0695
  441MOL0     H60801  12.255   1.888   4.533  0.4538  0.1961 -0.0258
  441MOL0     H60802  12.157   1.918   4.387 -1.2377 -2.1273 -0.4997
  441MOL0     H60803  11.963   1.889   4.503  0.7845  1.4426 -1.1692
  441MOL0     H60804  12.064   1.962   4.629 -5.1718  1.6955 -0.6320
  441MOL0     H60805  11.991   1.664   4.632 -0.1446 -1.0521  2.6715
  441MOL0     H60806  12.125   1.737   4.715  0.5306  0.8498  0.4371
  441MOL0     H60807  11.727   1.735   4.727 -0.7300  1.3130 -2.1935
  441MOL0     H60808  11.581   1.864   4.912  1.0618  3.8725 -1.8258
  441MOL0     H60809  11.642   2.005   4.989 -2.1077  0.4219 -1.6863
  441MOL0     H60810  11.764   1.858   5.150  2.3069 -1.0705 -3.2732
  441MOL0     H60811  11.581   1.857   5.149 -0.1734  1.7431 -1.7013
  441MOL0     H60812  11.581   1.654   5.028  0.2975  2.1813 -2.2590
  441MOL0     H60813  11.755   1.629   5.042  3.7946  3.1187  2.7141
  441MOL0     H60814  11.561   1.676   5.272  0.8463  0.3668  1.9430
  441MOL0     H60815  11.620   1.514   5.213 -1.4970  0.8916  0.4938
  441MOL0     H60816  11.558   1.504   5.444  0.2643 -0.7274  0.6750
  441MOL0     H60817  11.562   1.307   5.686 -1.0669 -0.3459 -1.5810
  441MOL0     H60818  11.436   1.423   5.641  0.7131  2.9230 -0.8684
  441MOL0     H60819  11.506   1.423   5.798 -2.4340 -1.1886 -1.0633
  441MOL0     H60820  12.034   1.559   5.932 -3.3781 -1.6378 -2.1403
  441MOL0     H60821  12.194   1.509   6.122  0.7183  1.0011  1.3978
  441MOL0     H60822  12.077   1.576   6.559 -3.2738 -0.5752  1.3191
  441MOL0     H60823  11.994   1.429   6.540 -0.3641  0.4183  0.3773
  441MOL0     H60824  12.216   1.311   6.555 -2.4664 -1.3824  1.7281
  441MOL0     H60825  12.301   1.458   6.587 -0.6937  0.0190 -1.3646
  441MOL0     H60826  12.201   1.298   6.780  0.7877  0.4959  0.2272
  441MOL0     H60827  12.064   1.416   6.753 -0.2254  2.7544 -2.1815
  441MOL0     H60828  12.355   1.507   6.809  0.2442 -1.3035  1.7806
  441MOL0     H60829  12.264   1.436   6.939 -0.2600  5.5702  3.5583
  441MOL0     H60830  12.245   1.688   6.914  2.9103  1.3384 -4.4344
  441MOL0     H60831  12.148   1.650   6.769 -2.0756 -1.9176  1.0871
  441MOL0     H60832  12.082   1.568   7.054 -0.9905  0.2483  0.7028
  441MOL0     H60833  11.974   1.523   6.916 -0.5475  0.4102 -0.5108
  441MOL0     H60834  12.042   1.803   7.019 -0.0587  2.4515 -2.0622
  441MOL0     H60835  11.895   1.719   7.052  1.6582  1.4232  1.6797
  441MOL0     H60836  11.980   1.818   6.775 -1.6437  0.4025 -0.2836
  441MOL0     H60837  11.831   1.865   6.866 -0.4989  0.0613 -0.5054
  441MOL0     H60838  11.855   1.541   6.387 -1.5828  0.7743 -0.3679
  441MOL0     H60839  11.722   1.600   6.224 -0.6576  0.7084 -2.2367
  441MOL0     H60840  11.924   1.666   5.716  2.0524 -2.3804 -0.3783
  441MOL0     H60841  11.916   1.716   5.488  1.2400  0.1215  4.0559
  441MOL0     H60842  11.687   1.585   4.593  1.8569 -1.8103 -1.5095
  441MOL0     H60843  11.471   1.531   4.712 -2.7200 -1.0394  0.6249
  441MOL0     H60844  11.138   1.390   4.968 -1.3491 -0.2129  1.3401
  441MOL0     H60845  10.910   1.357   5.041  1.7150 -2.3328  0.6342
  441MOL0     H60846  10.719   1.391   5.009  3.3994 -1.1498 -1.6593
  441MOL0     H60847  10.583   1.357   4.895 -2.4067  0.7438  0.3531
  441MOL0     H60848  10.502   1.338   5.120 -0.7648 -0.2806 -1.4700
  441MOL0     H60849  10.619   1.200   5.144 -2.4043 -0.9192  2.0509
  441MOL0     H60850  10.472   1.114   4.929 -0.7821 -3.2285  1.1786
  441MOL0     H60851  10.431   1.081   5.088 -0.4097 -0.4316 -1.8096
  441MOL0     H60852  10.333   1.317   4.900 -1.0922 -0.5929  0.2714
  441MOL0     H60853  10.281   1.321   5.066 -0.0806 -0.1665  0.7502
  441MOL0     H60854  10.011   1.051   4.899 -1.4044  1.3622  0.7228
  441MOL0     H60855  10.826   1.134   4.689  0.3251  0.2709 -0.6036
  441MOL0     H60856  11.145   1.107   4.559 -1.3616 -2.1738 -0.3855
  441MOL0     H60857  10.973   1.118   4.511 -0.5685  0.6052  0.8507
  441MOL0     H60858  11.075   1.260   4.496  1.8868 -1.7879 -1.8339
  442MOL0     O60859   7.435   4.742   6.089  0.5832 -0.5123 -0.2733
  442MOL0     C60860   7.409   4.644   6.021  0.6039  0.1922 -0.1951
  442MOL0     O60861   7.500   4.553   5.979  0.2388 -0.0241  0.0372
  442MOL0     C60862   7.640   4.575   5.981  0.6755 -0.1598 -0.1007
  442MOL0     C60863   7.713   4.693   6.003 -0.6501  0.5930 -1.1541
  442MOL0     C60864   7.854   4.685   6.014  0.5256  0.4254 -0.6754
  442MOL0     C60865   7.917   4.562   6.007  0.6515  0.8074 -0.2098
  442MOL0     O60866   8.051   4.545   5.992 -0.2340 -0.4192  0.1331
  442MOL0     C60867   8.129   4.633   6.075 -0.3714 -0.4999 -0.5031
  442MOL0     C60868   8.257   4.557   6.125 -0.1327  0.2530 -0.9452
  442MOL0     C60869   8.233   4.408   6.182 -0.2757 -0.5566  1.0114
  442MOL0     C60870   8.190   4.425   6.330 -0.1544  1.0439  1.0412
  442MOL0     C60871   8.139   4.281   6.366  0.2804  0.3091 -0.3761
  442MOL0     C60872   8.162   4.276   6.521  0.4021 -0.4121 -0.3666
  442MOL0     C60873   8.118   4.138   6.577  0.0144  0.1765  0.0122
  442MOL0     C60874   8.219   4.032   6.531 -0.1497 -0.2389  0.1843
  442MOL0     N60875   8.345   4.070   6.582 -0.7253  0.8961  0.1096
  442MOL0     C60876   8.447   4.086   6.491  0.4922 -0.1586 -0.0061
  442MOL0     C60877   8.563   4.048   6.547  1.1536  1.1807 -0.0495
  442MOL0     C60878   8.696   4.043   6.485 -0.5527 -0.2908 -0.4847
  442MOL0     C60879   8.786   4.154   6.551 -0.4439 -0.1187 -0.1622
  442MOL0     C60880   8.823   4.116   6.694  0.3245  0.4633 -0.1470
  442MOL0     C60881   8.957   4.179   6.741  0.6540  0.3753  0.2803
  442MOL0     O60882   9.069   4.132   6.678  0.0489  0.3138  0.2897
  442MOL0     C60883   9.172   4.216   6.683  0.4514 -0.1628 -0.4564
  442MOL0     C60884   9.236   4.245   6.803 -0.0809 -0.1812 -0.2738
  442MOL0     C60885   9.353   4.313   6.800 -1.0196 -0.8943  0.6254
  442MOL0     C60886   9.425   4.354   6.922  0.0804 -0.6279 -0.1606
  442MOL0     C60887   9.403   4.357   6.669 -0.3524 -0.5725 -0.2119
  442MOL0     C60888   9.530   4.417   6.654  0.4181  0.8885 -0.0727
  442MOL0     O60889   9.615   4.359   6.575  0.4497 -0.5769  0.6217
  442MOL0     C60890   9.744   4.402   6.558 -0.3746  0.2206 -0.2493
  442MOL0     C60891   9.826   4.483   6.640  0.4105 -0.6466 -0.2327
  442MOL0     C60892   9.955   4.520   6.606  0.5846  0.4549 -0.2533
  442MOL0     C60893  10.012   4.473   6.490  0.0503 -0.3691  0.3477
  442MOL0     O60894  10.143   4.485   6.451 -0.3756 -0.5634  0.0969
  442MOL0     C60895  10.243   4.568   6.520 -0.4670  0.2196  0.6816
  442MOL0     C60896  10.376   4.562   6.439 -0.2894 -0.0569 -0.3989
  442MOL0     C60897  10.489   4.554   6.542 -1.1052 -0.4884 -0.5934
  442MOL0     C60898  10.624   4.543   6.470  0.2401  0.1202  0.1850
  442MOL0     C60899  10.736   4.567   6.561 -1.0515  0.8528 -0.5454
  442MOL0     C60900  10.861   4.496   6.494 -1.1428 -0.0543 -1.0601
  442MOL0     C60901  10.973   4.494   6.606 -0.3213 -0.6858  0.2907
  442MOL0     C60902  11.116   4.471   6.564 -0.4997  0.3051  0.3712
  442MOL0    Cl60903  11.135   4.293   6.511  0.5451 -0.2902 -0.0249
  442MOL0     C60904   9.939   4.395   6.412  0.0619 -0.3396 -0.0031
  442MOL0     C60905   9.804   4.357   6.442 -0.1704  0.1788  0.3852
  442MOL0     O60906   9.546   4.524   6.713  0.0715  1.7301  0.2266
  442MOL0     C60907   9.350   4.315   6.551  0.9550 -0.1641  0.2082
  442MOL0     C60908   9.226   4.247   6.564 -0.7138  0.0463 -0.1332
  442MOL0     N60909   8.523   4.017   6.683  0.0143 -0.0945  0.0923
  442MOL0     N60910   8.398   4.029   6.705  0.4129  0.6697 -0.3153
  442MOL0     C60911   7.844   4.444   5.988  0.1943 -0.8307  0.1678
  442MOL0     C60912   7.703   4.455   5.986  0.3592 -0.1348 -0.3000
  442MOL0     C60913   7.264   4.609   5.989 -0.9805  0.7691  0.0463
  442MOL0     C60914   7.166   4.677   6.068 -0.9095  0.4025  1.3073
  442MOL0     C60915   7.037   4.632   6.067  0.5939 -0.2489 -0.3166
  442MOL0     C60916   6.991   4.546   5.972  0.2809  0.3122  0.7893
  442MOL0     O60917   6.863   4.503   5.950  0.2799  0.1640 -0.1322
  442MOL0     C60918   6.847   4.359   5.961  0.7126 -0.1753 -0.1412
  442MOL0     C60919   6.741   4.313   6.068 -0.8298  0.2599 -0.8497
  442MOL0     C60920   6.691   4.172   6.027  1.3293 -0.1236 -0.3219
  442MOL0     C60921   6.785   4.058   6.019 -1.3796  0.0824  0.6416
  442MOL0     C60922   6.870   4.056   6.137 -0.3503  0.1598  0.1191
  442MOL0     C60923   6.942   4.055   6.239 -0.0489 -0.5805 -0.4268
  442MOL0     C60924   7.083   4.495   5.880 -0.5234 -0.0527  0.2949
  442MOL0     C60925   7.219   4.522   5.888  0.2696  0.3015 -0.0370
  442MOL0     C60926   7.315   4.455   5.785 -0.8406 -0.1139 -0.0440
  442MOL0     H60927   7.665   4.790   6.019  0.6527  1.0986 -0.1941
  442MOL0     H60928   7.902   4.782   6.024 -2.8675  2.3541 -1.2670
  442MOL0     H60929   8.072   4.659   6.164 -0.1138 -1.2520 -0.1088
  442MOL0     H60930   8.153   4.717   6.010  0.6563 -0.4729 -0.1145
  442MOL0     H60931   8.328   4.546   6.043 -0.2016  0.3224 -1.0141
  442MOL0     H60932   8.300   4.612   6.209 -0.2035  1.4038 -1.6516
  442MOL0     H60933   8.168   4.343   6.123 -0.4379 -0.3513  0.9636
  442MOL0     H60934   8.328   4.353   6.178  0.4732  0.5832  2.1060
  442MOL0     H60935   8.279   4.458   6.384  0.7411 -1.0084  0.9203
  442MOL0     H60936   8.109   4.499   6.336 -1.0122  0.4868 -1.9567
  442MOL0     H60937   8.211   4.213   6.321 -0.5245  0.1481 -1.4596
  442MOL0     H60938   8.042   4.263   6.320  0.8589  1.6103 -2.2242
  442MOL0     H60939   8.267   4.298   6.543 -0.4696  2.9543  1.0683
  442MOL0     H60940   8.111   4.358   6.573 -1.1666 -1.1922 -0.6191
  442MOL0     H60941   8.015   4.113   6.550 -0.0042 -0.4427  0.6122
  442MOL0     H60942   8.125   4.147   6.686 -0.4890  0.2524  0.0399
  442MOL0     H60943   8.187   3.933   6.566 -0.3558 -0.0633  0.5015
  442MOL0     H60944   8.226   4.019   6.423 -0.0306 -1.9354  0.3742
  442MOL0     H60945   8.426   4.108   6.387 -2.6457 -3.4438 -0.2547
  442MOL0     H60946   8.694   4.057   6.377  1.8280  1.5391 -0.3600
  442MOL0     H60947   8.733   3.941   6.499  1.6672  0.8887  4.1972
  442MOL0     H60948   8.875   4.172   6.489  0.0678  1.1896  0.8923
  442MOL0     H60949   8.745   4.255   6.548  0.6168  0.4730  2.5245
  442MOL0     H60950   8.746   4.137   6.769 -1.6731 -2.8606 -1.0915
  442MOL0     H60951   8.837   4.008   6.690  1.4964  0.6230 -1.0938
  442MOL0     H60952   8.952   4.286   6.717  0.5042 -0.2743 -3.1250
  442MOL0     H60953   8.973   4.161   6.848  1.6417  1.3036  0.3120
  442MOL0     H60954   9.196   4.209   6.897  0.7825  1.1713  0.6516
  442MOL0     H60955   9.527   4.318   6.910 -0.1589 -1.0176 -1.1126
  442MOL0     H60956   9.396   4.305   7.016  1.0104 -1.8737 -0.5025
  442MOL0     H60957   9.422   4.463   6.936  4.3443 -0.4600  0.7935
  442MOL0     H60958   9.784   4.514   6.735  1.8750 -1.9303  0.8727
  442MOL0     H60959  10.011   4.588   6.670 -0.4956  1.5387 -0.4274
  442MOL0     H60960  10.225   4.675   6.536  2.6178  0.9463 -0.1479
  442MOL0     H60961  10.257   4.518   6.616 -0.2463 -2.4211 -0.6157
  442MOL0     H60962  10.382   4.460   6.401  2.7739 -1.4411  3.1807
  442MOL0     H60963  10.393   4.639   6.363 -2.1905 -0.8813 -1.7608
  442MOL0     H60964  10.473   4.461   6.597 -3.5945  0.7933  1.0877
  442MOL0     H60965  10.484   4.640   6.611  0.2388 -1.4227  0.7194
  442MOL0     H60966  10.627   4.610   6.384  0.9461  1.3331  1.1259
  442MOL0     H60967  10.644   4.448   6.419 -0.6151 -0.6763  1.2936
  442MOL0     H60968  10.745   4.675   6.571  2.6946  0.5081  1.5899
  442MOL0     H60969  10.724   4.527   6.662  1.8685  0.9247 -0.0758
  442MOL0     H60970  10.891   4.560   6.410  1.4576  0.3327  0.0745
  442MOL0     H60971  10.856   4.397   6.448 -0.2063 -0.2562 -0.7427
  442MOL0     H60972  10.935   4.410   6.665 -1.2213 -1.2669 -1.0713
  442MOL0     H60973  10.963   4.588   6.661 -2.7072 -0.9576  0.4088
  442MOL0     H60974  11.170   4.485   6.658  0.8081 -2.5129  0.1340
  442MOL0     H60975  11.157   4.526   6.480 -1.6839 -0.1228 -0.5162
  442MOL0     H60976   9.992   4.345   6.333  2.2719 -0.1492  1.2649
  442MOL0     H60977   9.748   4.288   6.380  0.2050  1.7248 -1.8007
  442MOL0     H60978   9.391   4.331   6.452  0.7038  3.2872  0.5158
  442MOL0     H60979   9.182   4.212   6.471 -1.7402 -2.2129  1.1248
  442MOL0     H60980   7.904   4.354   5.981  2.0659  0.0912  2.6651
  442MOL0     H60981   7.648   4.363   5.971 -0.4084 -0.0950  1.8690
  442MOL0     H60982   7.193   4.753   6.140 -0.5716  1.5920 -0.0272
  442MOL0     H60983   6.955   4.680   6.120  0.5392 -0.5995 -0.0758
  442MOL0     H60984   6.814   4.316   5.866 -1.2524 -1.1460  0.9265
  442MOL0     H60985   6.939   4.303   5.979  1.8127  0.7323 -2.5129
  442MOL0     H60986   6.656   4.382   6.071 -1.5796 -0.6808 -0.1698
  442MOL0     H60987   6.798   4.314   6.161  3.2179 -0.7277 -3.0862
  442MOL0     H60988   6.628   4.141   6.111  1.9816  0.0058  0.2322
  442MOL0     H60989   6.623   4.185   5.943  4.1845  3.0548 -2.3988
  442MOL0     H60990   6.847   4.076   5.931 -1.7786 -0.7786  0.1720
  442MOL0     H60991   6.747   3.956   6.010  0.0105 -0.4658  0.7158
  442MOL0     H60992   6.998   4.044   6.330  1.1219 -1.4145 -1.2277
  442MOL0     H60993   7.057   4.418   5.808  1.4587 -0.2077 -0.3033
  442MOL0     H60994   7.379   4.528   5.735 -0.2395 -2.0348 -2.2075
  442MOL0     H60995   7.389   4.386   5.826  0.1866  0.6711 -0.5398
  442MOL0     H60996   7.252   4.395   5.719 -1.5979 -0.9285  1.3714
  443MOL0     O60997   0.787  10.087   0.704 -0.5288 -0.4249  0.4307
  443MOL0     C60998   0.668  10.087   0.685 -0.5657 -0.3039 -0.9728
  443MOL0     O60999   0.577  10.102   0.783 -0.2549  0.2309  0.2293
  443MOL0     C61000   0.614  10.137   0.914 -0.3420  0.3156  0.4660
  443MOL0     C61001   0.611  10.042   1.016  1.1395 -0.5610  0.0810
  443MOL0     C61002   0.657  10.068   1.147  0.6446  0.3776 -0.4918
  443MOL0     C61003   0.690  10.202   1.177 -0.2069 -0.9058 -0.3923
  443MOL0     O61004   0.733  10.252   1.298  0.3070  0.2002  0.4645
  443MOL0     C61005   0.741  10.171   1.415 -0.1599 -0.1911  0.3058
  443MOL0     C61006   0.782  10.262   1.518  0.4069  0.2935 -0.2018
  443MOL0     C61007   0.784  10.190   1.654  0.4214 -1.0090  0.3591
  443MOL0     C61008   0.835  10.285   1.767 -0.3582 -0.3504  1.2169
  443MOL0     C61009   0.843  10.236   1.914  0.1746  0.1686  0.0486
  443MOL0     C61010   0.906  10.322   2.026  0.4360  0.1842 -0.3896
  443MOL0     C61011   0.822  10.437   2.074 -0.1957 -0.5958  0.5141
  443MOL0     C61012   0.681  10.399   2.127 -0.0219 -0.5530 -0.2567
  443MOL0     N61013   0.605  10.519   2.177 -0.1033 -0.6336  0.3167
  443MOL0     C61014   0.653  10.590   2.282 -0.9843  0.8668  0.1836
  443MOL0     C61015   0.556  10.684   2.295 -0.0586  0.1278  0.3133
  443MOL0     C61016   0.541  10.773   2.414  0.3888 -0.0440 -0.4566
  443MOL0     C61017   0.409  10.767   2.498 -0.4800 -0.0483 -0.0768
  443MOL0     C61018   0.409  10.816   2.645 -0.7329  0.3582 -0.3943
  443MOL0     C61019   0.450  10.963   2.667 -0.4583 -0.4214  0.1664
  443MOL0     O61020   0.462  10.993   2.811 -0.7110 -0.5132 -0.5505
  443MOL0     C61021   0.572  10.949   2.876 -0.0955  0.4623 -0.1325
  443MOL0     C61022   0.682  10.863   2.835  0.2808  0.0885  1.0037
  443MOL0     C61023   0.771  10.816   2.935 -0.3799 -0.2515  0.2115
  443MOL0     C61024   0.885  10.738   2.876 -0.1166 -0.0569  0.4732
  443MOL0     C61025   0.765  10.856   3.071  0.3482 -0.3452  0.7247
  443MOL0     C61026   0.845  10.796   3.181  0.6688  0.9634  1.3687
  443MOL0     O61027   0.968  10.743   3.147  0.3629 -0.1672 -0.3939
  443MOL0     C61028   1.036  10.663   3.230 -0.6662  1.3023 -0.6289
  443MOL0     C61029   1.111  10.562   3.184  0.0278  0.5970  0.0358
  443MOL0     C61030   1.186  10.480   3.265 -0.3863 -0.1216 -0.0003
  443MOL0     C61031   1.186  10.504   3.405  0.3983 -0.3268 -0.2513
  443MOL0     O61032   1.248  10.436   3.509 -0.0003  0.2593  0.4418
  443MOL0     C61033   1.325  10.315   3.500  0.3843  0.4116  0.0679
  443MOL0     C61034   1.350  10.264   3.645 -0.0910  0.0606  0.7043
  443MOL0     C61035   1.242  10.302   3.745  1.0393  0.9167 -0.7506
  443MOL0     C61036   1.246  10.226   3.879  0.4255  0.9340 -0.4447
  443MOL0     C61037   1.211  10.303   4.005 -0.0669 -0.3970  0.2354
  443MOL0     C61038   1.329  10.387   4.064  0.2666  0.9195 -0.0438
  443MOL0     C61039   1.455  10.329   4.128 -0.0745 -0.3540  0.3755
  443MOL0     C61040   1.433  10.241   4.246 -0.2380  0.1810  0.8129
  443MOL0    Cl61041   1.583  10.225   4.337  0.1288  0.3457  1.0373
  443MOL0     C61042   1.101  10.602   3.461  0.6443 -0.3633  0.1056
  443MOL0     C61043   1.041  10.693   3.367  0.0832 -0.1123 -0.1157
  443MOL0     O61044   0.797  10.797   3.296  0.7940 -0.5436 -0.0234
  443MOL0     C61045   0.668  10.960   3.097  0.0006  0.0765 -0.4911
  443MOL0     C61046   0.569  10.996   3.011 -0.7178 -0.1600  0.2904
  443MOL0     N61047   0.461  10.674   2.192  0.1258 -0.5795 -0.7217
  443MOL0     N61048   0.489  10.563   2.129  0.2456  0.5226 -0.1863
  443MOL0     C61049   0.695  10.291   1.072  0.5213 -1.1839 -0.2458
  443MOL0     C61050   0.658  10.269   0.942 -0.3859  0.9878 -0.9779
  443MOL0     C61051   0.616  10.078   0.547  0.5962 -2.0528  0.0064
  443MOL0     C61052   0.480  10.109   0.535 -0.0926 -0.6497 -0.1775
  443MOL0     C61053   0.414  10.101   0.414  0.0450 -0.5452  1.1475
  443MOL0     C61054   0.488  10.070   0.299  1.0807 -0.7588  0.0446
  443MOL0     O61055   0.434  10.063   0.174  0.4609  0.0072  0.8159
  443MOL0     C61056   0.330   9.962   0.161 -0.6454  0.1193  0.8239
  443MOL0     C61057   0.379   9.824   0.199 -1.0127 -0.5266  0.3417
  443MOL0     C61058   0.256   9.735   0.187 -0.1085  0.2697  0.6543
  443MOL0     C61059   0.265   9.613   0.281 -0.4627  0.2892  0.1183
  443MOL0     C61060   0.358   9.512   0.220  0.7301  0.8691 -0.4735
  443MOL0     C61061   0.438   9.446   0.168 -0.9656 -0.1842  0.5009
  443MOL0     C61062   0.626  10.073   0.307 -0.2690  0.2621  0.1838
  443MOL0     C61063   0.690  10.059   0.432 -0.2396 -0.0412  0.0529
  443MOL0     C61064   0.841  10.047   0.432  0.0165  0.6333 -0.0575
  443MOL0     H61065   0.584   9.943   0.979  1.6498 -0.3302 -0.9594
  443MOL0     H61066   0.663   9.983   1.213 -0.6114  0.6138 -0.0468
  443MOL0     H61067   0.813  10.089   1.407 -1.5661 -1.4444  0.1788
  443MOL0     H61068   0.640  10.131   1.421  0.5225 -2.5503 -2.2288
  443MOL0     H61069   0.879  10.306   1.493  0.3324 -0.5787 -2.1970
  443MOL0     H61070   0.715  10.348   1.510  1.6490  1.1478 -2.6783
  443MOL0     H61071   0.682  10.158   1.676  0.7011 -1.5776  0.8445
  443MOL0     H61072   0.841  10.097   1.651  3.1862  0.5860 -0.2301
  443MOL0     H61073   0.928  10.331   1.731 -1.5797  0.2252 -1.4642
  443MOL0     H61074   0.768  10.372   1.765 -2.9295 -2.2307  0.7053
  443MOL0     H61075   0.906  10.149   1.894  0.4116  0.6305 -1.2988
  443MOL0     H61076   0.746  10.200   1.949  1.8412 -2.1067  2.8022
  443MOL0     H61077   0.931  10.279   2.124 -1.6066  2.7609  1.4321
  443MOL0     H61078   0.994  10.364   1.976  0.5798  0.4841  0.1043
  443MOL0     H61079   0.811  10.505   1.989 -0.2949 -1.8158 -0.4757
  443MOL0     H61080   0.866  10.500   2.152  1.0106  2.9041 -2.6886
  443MOL0     H61081   0.621  10.365   2.042 -2.4553  2.0095  0.2749
  443MOL0     H61082   0.679  10.315   2.197 -3.8457 -0.4651 -0.0788
  443MOL0     H61083   0.741  10.567   2.342 -1.2780 -2.1314 -0.3904
  443MOL0     H61084   0.553  10.872   2.370 -0.6839  0.2089 -0.2201
  443MOL0     H61085   0.622  10.748   2.483  0.7128 -1.6078 -1.3684
  443MOL0     H61086   0.337  10.830   2.445  0.3125 -0.7035 -2.0632
  443MOL0     H61087   0.368  10.666   2.501 -1.6666  0.4324  0.1998
  443MOL0     H61088   0.306  10.808   2.680 -0.4646 -1.6654  0.0676
  443MOL0     H61089   0.471  10.753   2.708  0.6341  0.9218 -1.1356
  443MOL0     H61090   0.538  10.997   2.610  0.4060 -0.3233  1.5204
  443MOL0     H61091   0.370  11.023   2.622 -0.8410 -2.2991 -1.8316
  443MOL0     H61092   0.690  10.829   2.732 -1.9553  1.4711  0.2901
  443MOL0     H61093   0.881  10.640   2.924 -3.2324  0.5065  1.6140
  443MOL0     H61094   0.982  10.786   2.892 -1.3837  2.8669  0.0832
  443MOL0     H61095   0.871  10.712   2.771 -0.9924  0.1287  0.5365
  443MOL0     H61096   1.129  10.533   3.081 -3.6816 -1.2861 -0.2595
  443MOL0     H61097   1.258  10.406   3.231 -0.6242 -0.1206 -0.5262
  443MOL0     H61098   1.253  10.255   3.443  1.9493 -1.4123 -0.0961
  443MOL0     H61099   1.422  10.314   3.451 -1.0315 -2.3531 -3.1176
  443MOL0     H61100   1.365  10.155   3.646  1.9821  0.2391 -1.8535
  443MOL0     H61101   1.442  10.307   3.684  1.4492 -2.3389 -0.0732
  443MOL0     H61102   1.146  10.294   3.694  1.4525  3.1769 -1.9997
  443MOL0     H61103   1.255  10.408   3.769  2.8653  0.7650 -0.9099
  443MOL0     H61104   1.345  10.181   3.891 -0.0328  0.2191  0.9211
  443MOL0     H61105   1.173  10.145   3.871  0.1973  1.2630 -1.9292
  443MOL0     H61106   1.125  10.370   3.990 -0.2426  0.1817  3.1831
  443MOL0     H61107   1.187  10.230   4.082  0.4512  0.0489  0.8320
  443MOL0     H61108   1.289  10.443   4.149  2.6249  0.9824  1.0935
  443MOL0     H61109   1.353  10.459   3.985  1.6943 -0.2589 -0.7357
  443MOL0     H61110   1.515  10.414   4.162 -3.4133  2.7613 -0.9803
  443MOL0     H61111   1.507  10.267   4.054  0.0435  1.0643 -0.7696
  443MOL0     H61112   1.404  10.140   4.217 -2.7815  1.2907 -0.8369
  443MOL0     H61113   1.358  10.287   4.311  1.0620 -2.2285  4.3049
  443MOL0     H61114   1.106  10.606   3.570 -0.1120 -3.1320  0.3149
  443MOL0     H61115   0.993  10.785   3.400 -0.3969  0.3433 -1.9916
  443MOL0     H61116   0.657  11.010   3.193  2.4815  0.2874 -0.2430
  443MOL0     H61117   0.489  11.063   3.042 -0.2838  0.7555 -0.5114
  443MOL0     H61118   0.715  10.394   1.097 -1.5820 -1.3501  2.5612
  443MOL0     H61119   0.674  10.348   0.869  3.9331  1.1887 -0.0697
  443MOL0     H61120   0.420  10.140   0.620 -1.9067  0.9652 -1.9494
  443MOL0     H61121   0.307  10.113   0.405  0.1753 -0.5929 -0.8571
  443MOL0     H61122   0.236   9.980   0.213 -1.2655  0.7860 -0.4750
  443MOL0     H61123   0.301   9.974   0.056  1.4508  2.9700  0.4634
  443MOL0     H61124   0.417   9.825   0.301 -0.8498  0.7348  0.2750
  443MOL0     H61125   0.463   9.796   0.136 -2.7811  1.9900 -3.5124
  443MOL0     H61126   0.162   9.784   0.214 -0.1405  1.2464 -1.0947
  443MOL0     H61127   0.248   9.707   0.082  1.1853  0.8195  0.3831
  443MOL0     H61128   0.170   9.561   0.297  0.1840 -1.1673 -0.5521
  443MOL0     H61129   0.292   9.649   0.381  0.3385  2.2343 -0.7533
  443MOL0     H61130   0.520   9.384   0.138  1.1631  2.9818 -0.7531
  443MOL0     H61131   0.688  10.067   0.218  0.9428  1.6185  0.9003
  443MOL0     H61132   0.888  10.145   0.426 -0.8178  0.9579 -3.3441
  443MOL0     H61133   0.876   9.981   0.513 -2.8788 -0.7636  0.1900
  443MOL0     H61134   0.872   9.992   0.342  1.6023  0.1071  0.7711
  444MOL0     O61135   3.382   6.503   9.699  0.8340 -1.2305  0.0604
  444MOL0     C61136   3.377   6.628   9.667 -0.6149  0.6889 -0.7964
  444MOL0     O61137   3.387   6.724   9.761  0.2628 -0.4639  0.7631
  444MOL0     C61138   3.400   6.693   9.889  0.3091  0.3767 -0.7166
  444MOL0     C61139   3.517   6.704   9.956 -0.2192 -0.1621  0.6309
  444MOL0     C61140   3.529   6.674  10.092 -0.6628 -0.0340 -0.0028
  444MOL0     C61141   3.416   6.651  10.172 -0.5489 -0.6905  0.2926
  444MOL0     O61142   3.425   6.640  10.315  0.0019  0.8721 -0.3275
  444MOL0     C61143   3.531   6.552  10.361 -0.3757  0.3733 -0.6663
  444MOL0     C61144   3.533   6.537  10.512 -0.2820  0.9659  0.3527
  444MOL0     C61145   3.514   6.676  10.588 -0.5455  0.6957 -0.2232
  444MOL0     C61146   3.629   6.684  10.687  0.3416  0.9169 -0.4506
  444MOL0     C61147   3.660   6.832  10.716  1.0756 -0.1434 -0.3152
  444MOL0     C61148   3.736   6.879  10.840  0.4583  0.6686  0.6810
  444MOL0     C61149   3.873   6.810  10.850  1.2315 -0.5253  0.1783
  444MOL0     C61150   3.950   6.852  10.973  0.5217  0.5081  0.6018
  444MOL0     N61151   4.075   6.772  10.979  0.8400 -0.0449 -0.0234
  444MOL0     C61152   4.183   6.792  10.894  0.4887  0.8073 -0.1486
  444MOL0     C61153   4.276   6.700  10.930  0.0304 -0.3115  0.2743
  444MOL0     C61154   4.395   6.678  10.842  0.3341 -1.3246  0.0312
  444MOL0     C61155   4.382   6.540  10.775 -0.7810 -0.1049  0.0528
  444MOL0     C61156   4.325   6.543  10.638 -0.1985  0.2394  0.1670
  444MOL0     C61157   4.380   6.646  10.542 -0.9655  0.1329 -0.1671
  444MOL0     O61158   4.356   6.599  10.416  0.4643 -0.5714 -0.0815
  444MOL0     C61159   4.414   6.665  10.312  0.2051  1.6071  0.0580
  444MOL0     C61160   4.407   6.602  10.184  0.2795  0.3080 -0.8278
  444MOL0     C61161   4.461   6.667  10.068 -0.3865  0.1404  1.1629
  444MOL0     C61162   4.436   6.616   9.933  0.2207 -0.3258  1.0930
  444MOL0     C61163   4.533   6.788  10.083 -0.3511 -0.4145 -0.3450
  444MOL0     C61164   4.582   6.864   9.973  0.3752 -0.0624  0.7661
  444MOL0     O61165   4.683   6.810   9.904 -0.1328  0.9270 -0.2149
  444MOL0     C61166   4.722   6.870   9.783  1.0633  0.1695 -0.2005
  444MOL0     C61167   4.716   6.792   9.667  0.3995 -0.3339 -0.3561
  444MOL0     C61168   4.759   6.846   9.555  0.3515  0.0299 -0.2093
  444MOL0     C61169   4.810   6.976   9.541 -0.2069  0.1000  0.6168
  444MOL0     O61170   4.864   7.039   9.430  0.2309 -0.5796  0.1625
  444MOL0     C61171   4.985   6.989   9.383 -0.3021  0.5043  0.0788
  444MOL0     C61172   5.048   7.089   9.295  0.0726 -0.2973 -0.0702
  444MOL0     C61173   5.100   7.212   9.358  0.2262  1.3276 -0.3354
  444MOL0     C61174   5.150   7.316   9.255 -0.0192  0.4012 -0.6662
  444MOL0     C61175   5.165   7.453   9.321  0.1247 -0.0627  0.6199
  444MOL0     C61176   5.132   7.566   9.227  0.7289 -0.0238  0.6076
  444MOL0     C61177   5.234   7.581   9.121  0.0444  1.4416  0.5861
  444MOL0     C61178   5.194   7.679   9.004  0.1074 -0.2780 -0.1850
  444MOL0    Cl61179   5.326   7.685   8.882  0.0515 -0.0666 -0.2511
  444MOL0     C61180   4.804   7.060   9.645 -0.5727  1.1609  0.4976
  444MOL0     C61181   4.759   7.006   9.771 -0.0796 -0.9982  0.3377
  444MOL0     O61182   4.525   6.970   9.948 -0.1710 -0.0571 -0.3084
  444MOL0     C61183   4.540   6.845  10.209 -0.5343  0.2754  0.3399
  444MOL0     C61184   4.490   6.782  10.321 -0.4128 -0.9117 -0.1317
  444MOL0     N61185   4.234   6.642  11.050 -0.5308 -0.6576 -0.6664
  444MOL0     N61186   4.115   6.681  11.075  0.3527 -1.0366 -0.2552
  444MOL0     C61187   3.292   6.633  10.099  0.1292  0.2619 -0.6379
  444MOL0     C61188   3.282   6.652   9.963  0.1844 -0.6964  0.3558
  444MOL0     C61189   3.356   6.653   9.525 -0.4415 -1.4751  0.5531
  444MOL0     C61190   3.307   6.555   9.436 -0.1372 -0.1927 -0.1241
  444MOL0     C61191   3.259   6.593   9.307  1.3164  0.1248 -0.3656
  444MOL0     C61192   3.262   6.723   9.260 -0.0468  0.8282 -0.1274
  444MOL0     O61193   3.211   6.743   9.136  0.3510 -0.8176  0.3924
  444MOL0     C61194   3.147   6.873   9.110  0.5743  1.2520 -0.3529
  444MOL0     C61195   2.997   6.868   9.058 -0.7337 -0.3509 -0.3425
  444MOL0     C61196   3.000   6.743   8.963  0.5565  0.4153  0.8064
  444MOL0     C61197   2.961   6.608   9.016 -0.3262 -0.5091 -0.5262
  444MOL0     C61198   2.830   6.623   9.079  0.4853  0.0713  0.1413
  444MOL0     C61199   2.714   6.649   9.111  0.3088  0.0697  0.2733
  444MOL0     C61200   3.331   6.818   9.347 -0.6104  0.2916  0.8788
  444MOL0     C61201   3.384   6.783   9.477  0.3528  0.0893  0.0503
  444MOL0     C61202   3.467   6.884   9.541 -0.5789 -0.6904  0.0188
  444MOL0     H61203   3.605   6.728   9.897  1.6464 -0.9795  2.9280
  444MOL0     H61204   3.625   6.691  10.141  0.2687 -1.0982 -1.3725
  444MOL0     H61205   3.623   6.594  10.320  0.4338 -1.7852 -1.1986
  444MOL0     H61206   3.509   6.452  10.324 -3.2547  0.5382  0.2990
  444MOL0     H61207   3.451   6.475  10.550  0.0007 -0.4944 -1.3060
  444MOL0     H61208   3.624   6.489  10.549  0.6852  4.2341  2.6846
  444MOL0     H61209   3.533   6.766  10.528 -0.3022  2.4848  2.3545
  444MOL0     H61210   3.421   6.668  10.645  1.0827 -3.6478  2.2955
  444MOL0     H61211   3.607   6.636  10.783  0.7704  1.1126 -0.2477
  444MOL0     H61212   3.727   6.652  10.648  0.2068  0.8322 -0.7216
  444MOL0     H61213   3.560   6.872  10.737  0.6924 -0.7332 -0.9851
  444MOL0     H61214   3.703   6.884  10.630 -2.0060 -0.8658 -2.4998
  444MOL0     H61215   3.747   6.987  10.822  2.1162  0.2308 -1.3408
  444MOL0     H61216   3.674   6.862  10.928  1.7746 -2.0683  1.1780
  444MOL0     H61217   3.935   6.842  10.766  0.6618 -2.7338 -1.1610
  444MOL0     H61218   3.856   6.702  10.847 -3.7685 -0.0599  1.9424
  444MOL0     H61219   3.963   6.961  10.975  3.0157  0.3317 -1.1467
  444MOL0     H61220   3.895   6.818  11.062  0.8945 -3.6673 -0.5426
  444MOL0     H61221   4.203   6.850  10.804  3.6747 -3.8356 -2.8412
  444MOL0     H61222   4.485   6.678  10.904 -0.2662  1.0333  1.0134
  444MOL0     H61223   4.406   6.762  10.773  0.0683 -1.3082  0.0062
  444MOL0     H61224   4.485   6.508  10.759 -1.1549 -0.0402 -2.9958
  444MOL0     H61225   4.326   6.477  10.845  0.8744 -1.0845  0.5331
  444MOL0     H61226   4.350   6.448  10.590  0.1642  0.4359 -0.0362
  444MOL0     H61227   4.215   6.544  10.644 -0.3307 -1.6415 -1.1452
  444MOL0     H61228   4.337   6.746  10.546 -2.0513 -0.1923 -2.3588
  444MOL0     H61229   4.489   6.651  10.550 -0.7893  0.2517 -2.2450
  444MOL0     H61230   4.355   6.507  10.182 -0.1792  0.2129  3.8840
  444MOL0     H61231   4.351   6.549   9.912 -0.6595  1.2446 -0.7703
  444MOL0     H61232   4.531   6.583   9.891 -0.7012  0.5979 -2.0270
  444MOL0     H61233   4.415   6.706   9.875  2.4678  0.7973  1.9146
  444MOL0     H61234   4.688   6.687   9.659 -2.0901  0.4052 -2.9705
  444MOL0     H61235   4.772   6.778   9.471 -3.6226 -1.2959  0.0248
  444MOL0     H61236   5.048   6.987   9.473  0.8948 -0.6347 -0.7605
  444MOL0     H61237   4.963   6.893   9.337  1.3809  0.8337 -1.5351
  444MOL0     H61238   5.126   7.034   9.242  0.6583  0.5886 -0.1394
  444MOL0     H61239   4.975   7.124   9.221 -0.8694 -1.4628  0.2680
  444MOL0     H61240   5.163   7.188   9.444  1.1670  1.8862 -0.8555
  444MOL0     H61241   5.010   7.255   9.404 -0.7830 -0.9836  0.0343
  444MOL0     H61242   5.075   7.328   9.177 -1.4818 -3.3303 -0.0433
  444MOL0     H61243   5.242   7.271   9.214  0.4613 -0.8766  1.6608
  444MOL0     H61244   5.103   7.466   9.409 -0.6847 -0.0976  0.0641
  444MOL0     H61245   5.269   7.470   9.352  0.3538 -0.9602  0.3987
  444MOL0     H61246   5.145   7.657   9.286 -0.0429  0.6626 -0.2408
  444MOL0     H61247   5.030   7.557   9.187  0.8639 -1.0777  0.4661
  444MOL0     H61248   5.263   7.485   9.077  0.3549  0.3391  3.0335
  444MOL0     H61249   5.322   7.621   9.172 -0.2163 -0.1095  2.3437
  444MOL0     H61250   5.196   7.779   9.049  1.5777 -1.0635  1.6142
  444MOL0     H61251   5.103   7.661   8.946  1.2039  2.7121 -3.2387
  444MOL0     H61252   4.845   7.160   9.636 -1.8138  1.9655  2.8159
  444MOL0     H61253   4.759   7.066   9.861 -1.0940 -0.0079 -0.2867
  444MOL0     H61254   4.585   6.944  10.216 -2.6996  1.2936  0.4960
  444MOL0     H61255   4.509   6.834  10.415 -0.8554  2.4869 -1.7642
  444MOL0     H61256   3.193   6.620  10.143 -0.8271  4.5032 -1.1631
  444MOL0     H61257   3.194   6.631   9.902  2.4608 -3.5953 -2.2946
  444MOL0     H61258   3.295   6.450   9.461  1.9880 -0.5739 -0.5094
  444MOL0     H61259   3.217   6.512   9.248 -1.8893 -1.2314  3.3632
  444MOL0     H61260   3.149   6.934   9.200 -0.6159  0.0466  0.5254
  444MOL0     H61261   3.214   6.917   9.036 -1.1016  3.9922 -0.3609
  444MOL0     H61262   2.970   6.955   8.998 -1.1455 -0.3537 -0.1705
  444MOL0     H61263   2.917   6.870   9.133  0.5181 -1.5488  1.0812
  444MOL0     H61264   2.926   6.758   8.883 -0.3426 -2.1108  1.0893
  444MOL0     H61265   3.097   6.729   8.915 -0.0160 -1.4296  0.1175
  444MOL0     H61266   3.039   6.572   9.083 -0.3165  0.2851 -0.0954
  444MOL0     H61267   2.936   6.540   8.934 -1.4965 -0.8086  0.0587
  444MOL0     H61268   2.618   6.662   9.156  0.7861  1.8431  0.8518
  444MOL0     H61269   3.357   6.917   9.310  0.1391  0.0695  0.8057
  444MOL0     H61270   3.424   6.911   9.638 -2.0614 -6.5910  1.4353
  444MOL0     H61271   3.568   6.844   9.555 -0.7474 -1.5262 -0.9721
  444MOL0     H61272   3.480   6.981   9.492  1.3043 -1.1681 -0.5144
  445MOL0     O61273   6.806   3.171   4.955  0.4017 -0.3391  0.2098
  445MOL0     C61274   6.801   3.049   4.937 -0.0591 -0.5705  0.4926
  445MOL0     O61275   6.907   2.962   4.951 -0.7636  1.0575 -0.2687
  445MOL0     C61276   7.009   3.001   5.034 -0.3939  0.1591  0.9827
  445MOL0     C61277   6.999   3.075   5.152  0.3932  1.0675  0.0939
  445MOL0     C61278   7.113   3.096   5.232  0.4854 -0.2876 -0.9605
  445MOL0     C61279   7.231   3.035   5.209 -0.5840 -0.1977 -0.5915
  445MOL0     O61280   7.328   3.051   5.301 -0.0779  0.7310  0.4425
  445MOL0     C61281   7.464   3.043   5.246 -1.0501 -0.1182 -0.8160
  445MOL0     C61282   7.564   3.074   5.360  0.4151  0.0229  0.7710
  445MOL0     C61283   7.531   2.973   5.479  1.0864  0.4551  0.5503
  445MOL0     C61284   7.650   2.943   5.579 -0.1732  0.0253  0.0227
  445MOL0     C61285   7.638   2.861   5.713 -0.0623 -0.4110 -0.8345
  445MOL0     C61286   7.529   2.915   5.805  0.6516 -1.0357 -0.6985
  445MOL0     C61287   7.522   2.832   5.936 -0.5896 -1.3181 -0.0506
  445MOL0     C61288   7.412   2.878   6.034 -0.1203 -0.0055  0.2856
  445MOL0     N61289   7.443   3.003   6.096 -0.5394 -0.5407 -0.4341
  445MOL0     C61290   7.344   3.093   6.108 -0.5658  0.6403  0.0128
  445MOL0     C61291   7.419   3.207   6.130  0.6059 -0.6937  0.5085
  445MOL0     C61292   7.364   3.343   6.167 -0.3074 -0.1151 -0.9515
  445MOL0     C61293   7.371   3.443   6.057  0.3003 -1.0126  1.0316
  445MOL0     C61294   7.508   3.448   5.971 -0.5421 -0.7658  0.7115
  445MOL0     C61295   7.641   3.469   6.050 -0.5238  0.5084 -0.5768
  445MOL0     O61296   7.730   3.558   5.971  0.5696  0.3523  0.3570
  445MOL0     C61297   7.819   3.512   5.878 -0.4437 -0.4169 -0.5773
  445MOL0     C61298   7.841   3.379   5.844  0.5982  0.1309  0.0190
  445MOL0     C61299   7.959   3.341   5.769  0.7936  0.8900  0.2586
  445MOL0     C61300   7.992   3.197   5.758  0.3490 -1.3031 -0.2132
  445MOL0     C61301   8.040   3.445   5.712  0.9146  0.2993 -0.1266
  445MOL0     C61302   8.155   3.417   5.627 -0.4025  0.0669  0.5678
  445MOL0     O61303   8.176   3.291   5.574 -0.5910  0.1689 -0.1975
  445MOL0     C61304   8.276   3.270   5.478  0.8102 -0.2836 -1.3048
  445MOL0     C61305   8.331   3.361   5.398  0.0587  0.7380  0.0014
  445MOL0     C61306   8.424   3.327   5.301  0.4849  0.2109 -0.4202
  445MOL0     C61307   8.472   3.194   5.289  0.6826 -0.8413 -0.3156
  445MOL0     O61308   8.543   3.173   5.180  0.2897  0.2673 -0.0781
  445MOL0     C61309   8.583   3.034   5.158 -0.0893 -0.0601  0.3115
  445MOL0     C61310   8.671   3.030   5.032  0.3235  1.0556 -0.0339
  445MOL0     C61311   8.717   2.884   5.013  0.6567 -0.0951  0.4980
  445MOL0     C61312   8.801   2.875   4.891  0.1721  0.5485 -1.0433
  445MOL0     C61313   8.720   2.869   4.756  0.8281  0.0870 -0.2782
  445MOL0     C61314   8.816   2.859   4.630 -0.2604  0.0610  0.8721
  445MOL0     C61315   8.725   2.885   4.501 -0.0949 -0.2267  0.0207
  445MOL0     C61316   8.806   2.842   4.384  0.1058 -0.4966  0.1211
  445MOL0    Cl61317   8.921   2.980   4.358  0.3048  0.2717  0.1390
  445MOL0     C61318   8.421   3.105   5.373 -0.3081  0.8616 -0.8230
  445MOL0     C61319   8.333   3.141   5.468  0.1335 -0.9686  0.0636
  445MOL0     O61320   8.244   3.510   5.619  0.2302 -0.1552 -0.2485
  445MOL0     C61321   8.005   3.580   5.732 -0.2482  0.1088 -0.3616
  445MOL0     C61322   7.898   3.612   5.815 -0.0284 -0.1846  0.1553
  445MOL0     N61323   7.547   3.179   6.145  0.4440 -0.6550 -0.9180
  445MOL0     N61324   7.565   3.057   6.127  0.1353  0.5697 -0.3761
  445MOL0     C61325   7.246   2.947   5.097  0.6029  0.2887  0.4547
  445MOL0     C61326   7.133   2.938   5.003 -0.3764  0.0988  0.0919
  445MOL0     C61327   6.671   2.981   4.882 -1.4239  0.1127 -0.8615
  445MOL0     C61328   6.683   2.852   4.823  1.0373  0.2482  0.2061
  445MOL0     C61329   6.572   2.779   4.771 -0.1699  1.2027 -0.2329
  445MOL0     C61330   6.449   2.845   4.759 -0.6554 -0.1717 -0.2865
  445MOL0     O61331   6.345   2.784   4.700  0.1943 -0.3855 -0.3722
  445MOL0     C61332   6.285   2.847   4.583 -0.3074  0.2844 -0.0608
  445MOL0     C61333   6.211   2.758   4.482  0.2379  0.7371  0.1746
  445MOL0     C61334   6.125   2.836   4.382  0.1810 -0.5646 -0.3920
  445MOL0     C61335   5.984   2.761   4.352  0.5415  0.0151  0.7548
  445MOL0     C61336   5.932   2.815   4.232 -0.3870  0.2297  0.9582
  445MOL0     C61337   5.887   2.861   4.127  0.3996 -0.3074  0.2958
  445MOL0     C61338   6.439   2.970   4.812  0.7957 -0.5460  0.9047
  445MOL0     C61339   6.540   3.041   4.876  0.6986  0.4284 -0.7966
  445MOL0     C61340   6.510   3.176   4.943 -0.5238  0.2692  0.2816
  445MOL0     H61341   6.911   3.122   5.194  1.1907 -0.4561  3.8395
  445MOL0     H61342   7.098   3.159   5.319  1.7974 -0.9399 -0.2373
  445MOL0     H61343   7.468   3.123   5.171 -3.1757  2.2638  1.4305
  445MOL0     H61344   7.495   2.951   5.196  1.9514  1.8250 -2.8956
  445MOL0     H61345   7.665   3.060   5.320  0.1895  3.0863 -1.1373
  445MOL0     H61346   7.553   3.179   5.388 -0.3347  0.4409 -0.9583
  445MOL0     H61347   7.455   3.016   5.545  2.4528 -1.2338  3.4057
  445MOL0     H61348   7.504   2.881   5.428 -1.0180  1.3573 -0.0769
  445MOL0     H61349   7.732   2.893   5.527  0.8548 -0.2928  1.8580
  445MOL0     H61350   7.691   3.039   5.611  1.3069 -0.4823 -0.3003
  445MOL0     H61351   7.728   2.854   5.775 -0.5818  1.6063  0.2623
  445MOL0     H61352   7.615   2.758   5.684 -1.2775  0.1944 -2.1669
  445MOL0     H61353   7.555   3.017   5.836  0.1805 -0.7735 -1.1475
  445MOL0     H61354   7.428   2.911   5.764  0.2066 -3.7727  0.4712
  445MOL0     H61355   7.616   2.849   5.990 -1.3285  0.9024  0.6475
  445MOL0     H61356   7.516   2.727   5.906 -3.0349 -1.1122 -0.4723
  445MOL0     H61357   7.320   2.873   5.976  1.7644 -3.0676 -2.7887
  445MOL0     H61358   7.408   2.807   6.117  1.2197  3.1935  3.3521
  445MOL0     H61359   7.239   3.068   6.114 -0.1465 -1.6564 -1.0024
  445MOL0     H61360   7.421   3.386   6.250 -2.9409  1.7611  0.0191
  445MOL0     H61361   7.263   3.332   6.207 -0.6681  0.0459 -1.7975
  445MOL0     H61362   7.292   3.415   5.987 -0.1841  4.2363 -1.0146
  445MOL0     H61363   7.354   3.545   6.094  0.8632 -1.3291  2.2144
  445MOL0     H61364   7.509   3.356   5.912  0.1265 -1.1494  1.3026
  445MOL0     H61365   7.513   3.541   5.914  1.6591  0.1142  2.2290
  445MOL0     H61366   7.620   3.527   6.141  0.6590 -0.2152  0.1812
  445MOL0     H61367   7.694   3.378   6.079 -0.1891  0.1732 -2.1428
  445MOL0     H61368   7.781   3.297   5.883  1.6388 -0.5922  0.1503
  445MOL0     H61369   8.098   3.189   5.784  0.0657 -0.2436  1.3959
  445MOL0     H61370   7.971   3.152   5.660 -1.3443 -0.3709 -0.3187
  445MOL0     H61371   7.927   3.150   5.833  1.1915  0.6171  1.8266
  445MOL0     H61372   8.310   3.468   5.403 -0.3394  0.7560 -1.6617
  445MOL0     H61373   8.463   3.405   5.236 -2.0773  0.5504 -1.6748
  445MOL0     H61374   8.638   2.989   5.241  1.4448  0.0520 -0.6051
  445MOL0     H61375   8.491   2.979   5.134  1.2954 -1.9314 -0.9843
  445MOL0     H61376   8.613   3.069   4.947 -3.2110 -1.0936  1.1738
  445MOL0     H61377   8.753   3.099   5.053  0.6013  0.9500 -0.7433
  445MOL0     H61378   8.643   2.803   5.007  0.8221 -0.3038  1.1813
  445MOL0     H61379   8.778   2.845   5.094  0.7451 -1.6171 -0.2584
  445MOL0     H61380   8.850   2.777   4.888 -0.6480  0.1416 -1.3307
  445MOL0     H61381   8.879   2.950   4.873 -0.0945  0.8335 -1.0110
  445MOL0     H61382   8.651   2.785   4.759  0.3283  0.5196  0.9757
  445MOL0     H61383   8.658   2.958   4.739 -1.3273 -1.6234 -1.9454
  445MOL0     H61384   8.861   2.760   4.645  0.0609 -0.1259 -1.1227
  445MOL0     H61385   8.896   2.933   4.638  0.9165 -1.3109  2.4673
  445MOL0     H61386   8.691   2.988   4.495 -1.1689 -0.6522 -2.0561
  445MOL0     H61387   8.634   2.824   4.509  0.6266 -1.0529  3.2595
  445MOL0     H61388   8.747   2.829   4.292 -0.4685  0.5125  0.3264
  445MOL0     H61389   8.854   2.746   4.404 -0.5262 -0.6362  0.9994
  445MOL0     H61390   8.432   2.998   5.355  3.8973  1.1131 -0.6929
  445MOL0     H61391   8.310   3.066   5.542  0.0981  0.4960  1.5853
  445MOL0     H61392   8.062   3.659   5.685 -0.4433  0.3730 -0.1558
  445MOL0     H61393   7.899   3.715   5.850  0.6989 -0.5281  1.1847
  445MOL0     H61394   7.341   2.901   5.070  1.7375  2.8280 -0.2490
  445MOL0     H61395   7.145   2.887   4.908 -1.2002  4.7848 -2.8421
  445MOL0     H61396   6.778   2.799   4.820  0.7510 -0.4466  2.0042
  445MOL0     H61397   6.576   2.675   4.741  1.8909  0.1242  3.1982
  445MOL0     H61398   6.214   2.923   4.616  0.2806  0.8209 -0.0214
  445MOL0     H61399   6.361   2.906   4.530 -0.7572  1.8061  0.9342
  445MOL0     H61400   6.156   2.691   4.549  1.3140  0.3315  0.6674
  445MOL0     H61401   6.263   2.683   4.422 -4.3984 -1.4926 -1.5765
  445MOL0     H61402   6.101   2.938   4.414 -2.5791 -1.4345  0.5546
  445MOL0     H61403   6.189   2.842   4.293  0.9907  2.3421  0.2750
  445MOL0     H61404   5.906   2.773   4.428 -1.5286 -0.3626 -1.1955
  445MOL0     H61405   6.009   2.656   4.335 -2.7843 -0.7990  0.1529
  445MOL0     H61406   5.852   2.905   4.036  0.4802 -0.0854  0.3710
  445MOL0     H61407   6.348   3.026   4.792  1.7312  1.3937  1.8427
  445MOL0     H61408   6.564   3.189   5.037  2.3660  0.1783 -1.2273
  445MOL0     H61409   6.541   3.248   4.866  0.1963 -0.8315 -0.4943
  445MOL0     H61410   6.405   3.195   4.964 -0.5697  0.7762 -0.3690
  446MOL0     O61411   2.395   3.422  10.798  0.8007 -0.1979 -0.0705
  446MOL0     C61412   2.380   3.315  10.737  0.5077  0.5934  0.1749
  446MOL0     O61413   2.265   3.258  10.681  0.0765  0.3559 -0.2836
  446MOL0     C61414   2.146   3.315  10.715  0.5495  1.0042 -0.2619
  446MOL0     C61415   2.096   3.327  10.849  0.1944  0.0086  1.2551
  446MOL0     C61416   1.971   3.388  10.875 -0.1445  0.1480  1.3373
  446MOL0     C61417   1.900   3.440  10.770  0.0317  0.1288 -0.1173
  446MOL0     O61418   1.780   3.491  10.816 -0.2629 -0.5307  0.2456
  446MOL0     C61419   1.678   3.517  10.724  0.7791  0.1007  0.1129
  446MOL0     C61420   1.551   3.542  10.808 -0.5486 -0.3699  0.0955
  446MOL0     C61421   1.459   3.418  10.785 -0.0262 -0.5504  1.1144
  446MOL0     C61422   1.370   3.443  10.658 -0.7867 -0.5530  0.1209
  446MOL0     C61423   1.297   3.311  10.629 -0.2755 -0.2920 -0.8384
  446MOL0     C61424   1.177   3.323  10.525 -0.2412 -0.9060 -0.6535
  446MOL0     C61425   1.108   3.194  10.481 -0.0006  0.0351 -1.1323
  446MOL0     C61426   1.035   3.128  10.595 -0.1054 -0.0828 -0.1327
  446MOL0     N61427   0.932   3.039  10.528 -0.7209 -0.5591  0.3216
  446MOL0     C61428   0.958   2.910  10.499  0.3585  0.7614 -0.0485
  446MOL0     C61429   0.839   2.866  10.459 -0.2027 -0.0448 -0.0532
  446MOL0     C61430   0.809   2.722  10.414  0.5882 -0.5352  0.2026
  446MOL0     C61431   0.805   2.732  10.269  1.0617 -0.1627  0.0905
  446MOL0     C61432   0.741   2.606  10.208  0.0513  0.5836  0.6256
  446MOL0     C61433   0.850   2.529  10.132  0.4940 -0.2033  1.1954
  446MOL0     O61434   0.767   2.416  10.086  0.3236  0.3940  0.2598
  446MOL0     C61435   0.828   2.309  10.018 -1.1836 -0.7260  0.8540
  446MOL0     C61436   0.969   2.312   9.982  0.5951 -0.5215 -0.0807
  446MOL0     C61437   1.025   2.232   9.882 -1.9236  1.0926 -0.2393
  446MOL0     C61438   1.177   2.241   9.873  0.6778  0.0665 -0.3497
  446MOL0     C61439   0.937   2.137   9.825 -0.3440 -0.0454 -0.0466
  446MOL0     C61440   0.993   2.033   9.732 -0.0339  0.1156 -1.0153
  446MOL0     O61441   0.902   1.942   9.681 -0.7374 -0.1127 -0.2731
  446MOL0     C61442   0.957   1.853   9.601  0.4066  0.9620  0.6291
  446MOL0     C61443   0.989   1.722   9.643 -0.2411 -0.3150 -0.4207
  446MOL0     C61444   1.067   1.641   9.559 -0.0688  0.0118  0.5298
  446MOL0     C61445   1.100   1.675   9.425  1.0916 -0.3840 -0.4874
  446MOL0     O61446   1.171   1.593   9.349 -0.4566  0.7430 -0.1802
  446MOL0     C61447   1.315   1.580   9.382 -0.2206  0.1971  0.0773
  446MOL0     C61448   1.381   1.539   9.251  0.3776  0.8241  0.2164
  446MOL0     C61449   1.526   1.487   9.257 -0.6963  0.2801 -0.0392
  446MOL0     C61450   1.574   1.451   9.113 -0.1189 -0.5157  0.0430
  446MOL0     C61451   1.709   1.372   9.120 -0.1581  0.1409 -0.8330
  446MOL0     C61452   1.695   1.222   9.131  0.2578 -0.2842  0.2852
  446MOL0     C61453   1.832   1.160   9.147 -0.4663 -0.0204  0.4156
  446MOL0     C61454   1.832   1.014   9.188 -0.6306  0.7317 -0.2889
  446MOL0    Cl61455   2.004   0.962   9.235  0.0134  0.4110 -0.0670
  446MOL0     C61456   1.039   1.786   9.370 -0.3661  0.2169 -0.2244
  446MOL0     C61457   0.977   1.874   9.468  0.2441 -0.0284  0.8133
  446MOL0     O61458   1.109   2.043   9.694 -0.2920 -0.3083  0.0470
  446MOL0     C61459   0.803   2.131   9.866 -1.2771 -0.2206 -0.0657
  446MOL0     C61460   0.748   2.226   9.947 -0.3176  0.4743 -0.4286
  446MOL0     N61461   0.739   2.973  10.470 -0.9870 -0.2014  0.3987
  446MOL0     N61462   0.805   3.075  10.501  1.3088 -0.0608 -0.1057
  446MOL0     C61463   1.947   3.435  10.635 -0.1557  0.0440 -0.3834
  446MOL0     C61464   2.071   3.369  10.608 -0.0601  0.4227  0.2429
  446MOL0     C61465   2.507   3.237  10.706  0.6125 -0.6218  0.4215
  446MOL0     C61466   2.510   3.102  10.744  1.2403 -0.4231 -0.1179
  446MOL0     C61467   2.619   3.024  10.701 -0.2560  0.1972 -0.2085
  446MOL0     C61468   2.715   3.069  10.606  0.6612  0.8602 -0.1051
  446MOL0     O61469   2.799   2.974  10.564 -0.0061  0.1751 -0.2626
  446MOL0     C61470   2.903   2.995  10.469  0.3036  0.4385  0.2083
  446MOL0     C61471   3.014   3.081  10.528  0.5350  0.2323  0.0402
  446MOL0     C61472   3.070   3.020  10.659 -0.4210 -0.4672 -1.0421
  446MOL0     C61473   3.187   3.099  10.711  0.3096  0.2588  0.5987
  446MOL0     C61474   3.220   3.071  10.847  0.8641 -0.6795  0.7197
  446MOL0     C61475   3.253   3.046  10.958  0.1234  0.3656  0.9102
  446MOL0     C61476   2.702   3.198  10.565  0.4946 -0.3771 -0.2334
  446MOL0     C61477   2.611   3.291  10.622 -0.0583 -0.4377 -0.3268
  446MOL0     C61478   2.618   3.443  10.580 -0.8094 -0.1638  0.0765
  446MOL0     H61479   2.155   3.286  10.931 -1.4612 -0.3119  2.3341
  446MOL0     H61480   1.941   3.402  10.978  2.0183  1.1315  1.9149
  446MOL0     H61481   1.664   3.435  10.653 -1.5312  2.6024 -2.6128
  446MOL0     H61482   1.704   3.598  10.655 -1.7429  0.7297 -0.2367
  446MOL0     H61483   1.584   3.557  10.911  2.2179 -0.2196 -0.7119
  446MOL0     H61484   1.500   3.633  10.773 -1.9632 -0.7702  1.0500
  446MOL0     H61485   1.517   3.326  10.773  0.5641 -0.4510  2.8393
  446MOL0     H61486   1.393   3.410  10.872  0.0841  0.9624  1.3755
  446MOL0     H61487   1.287   3.513  10.671 -1.6487 -2.0149  3.4007
  446MOL0     H61488   1.438   3.472  10.577 -0.5810  0.4312  0.6319
  446MOL0     H61489   1.261   3.263  10.721  1.5871  1.2517  0.7885
  446MOL0     H61490   1.366   3.235  10.592 -0.6973 -0.3680 -1.4774
  446MOL0     H61491   1.093   3.382  10.562  0.8866 -0.3820  1.2015
  446MOL0     H61492   1.223   3.367  10.435  1.8687 -1.5528  0.0356
  446MOL0     H61493   1.175   3.120  10.437  1.5466  0.4925  0.3317
  446MOL0     H61494   1.035   3.219  10.403  0.0999  1.4189 -0.8138
  446MOL0     H61495   1.100   3.070  10.661  2.5916 -0.3418 -2.8059
  446MOL0     H61496   0.981   3.198  10.659 -0.5930  0.8040 -1.4820
  446MOL0     H61497   1.054   2.861  10.508 -0.7387 -1.1081  2.8431
  446MOL0     H61498   0.711   2.697  10.456 -0.3051 -2.7725 -2.8355
  446MOL0     H61499   0.883   2.651  10.452 -1.8636 -2.5830  1.4442
  446MOL0     H61500   0.750   2.821  10.235  0.1306 -0.1294  1.5893
  446MOL0     H61501   0.900   2.748  10.216  0.6193 -1.2243 -1.0700
  446MOL0     H61502   0.697   2.545  10.287 -0.7156  2.6674  1.9105
  446MOL0     H61503   0.667   2.629  10.130  0.7173 -0.0070 -0.1957
  446MOL0     H61504   0.875   2.593  10.047 -2.9562  0.4647  0.5302
  446MOL0     H61505   0.931   2.490  10.195  1.3170  1.6343  1.3462
  446MOL0     H61506   1.038   2.384  10.027 -1.9681  1.1514  1.4288
  446MOL0     H61507   1.207   2.246   9.768  1.1933 -2.5141 -0.3833
  446MOL0     H61508   1.227   2.156   9.920  3.7910  2.5440  1.2248
  446MOL0     H61509   1.228   2.328   9.915  1.5287  0.6385 -2.4426
  446MOL0     H61510   0.955   1.699   9.743  3.0460  0.5327  1.0378
  446MOL0     H61511   1.112   1.545   9.583  0.7270 -0.5528 -2.6685
  446MOL0     H61512   1.362   1.678   9.400  4.0117 -1.5968 -0.0574
  446MOL0     H61513   1.327   1.526   9.476 -3.1824  1.6733  1.4477
  446MOL0     H61514   1.333   1.443   9.227 -0.0001  1.1495 -0.3506
  446MOL0     H61515   1.369   1.615   9.174  4.4415 -1.1319 -2.7266
  446MOL0     H61516   1.528   1.397   9.320  0.3122  0.6416  0.4637
  446MOL0     H61517   1.582   1.566   9.308 -2.0216  0.4338  1.2793
  446MOL0     H61518   1.592   1.542   9.054 -2.1619 -1.0458 -1.4895
  446MOL0     H61519   1.493   1.397   9.062 -1.6890 -0.5778  2.4390
  446MOL0     H61520   1.757   1.383   9.023 -2.9743  0.3519 -2.2846
  446MOL0     H61521   1.764   1.417   9.204 -0.5960  0.3979 -0.6824
  446MOL0     H61522   1.634   1.193   9.045 -0.8159 -1.9976  1.5546
  446MOL0     H61523   1.640   1.197   9.222  2.0899 -1.2048  1.2085
  446MOL0     H61524   1.886   1.225   9.217 -3.1056  3.0510 -0.1266
  446MOL0     H61525   1.888   1.165   9.053 -0.3297  1.5514  0.5602
  446MOL0     H61526   1.811   0.959   9.096 -1.0783 -0.6461  0.5910
  446MOL0     H61527   1.770   0.995   9.277  0.2042 -0.4044  0.0664
  446MOL0     H61528   1.064   1.803   9.266  2.3049 -0.1981  0.2776
  446MOL0     H61529   0.935   1.966   9.429 -1.2821 -0.7911  0.5953
  446MOL0     H61530   0.749   2.045   9.825 -1.1146  0.2360 -1.2880
  446MOL0     H61531   0.644   2.241   9.973 -0.6749  0.4387 -1.7981
  446MOL0     H61532   1.889   3.484  10.558 -3.5690 -0.8335  1.4170
  446MOL0     H61533   2.108   3.365  10.506  0.2464 -0.5282  0.3837
  446MOL0     H61534   2.434   3.060  10.809  0.9599 -0.3943 -0.4266
  446MOL0     H61535   2.622   2.929  10.753 -1.2029  1.0717  1.5343
  446MOL0     H61536   2.956   2.902  10.447  0.6962  0.3632  1.3754
  446MOL0     H61537   2.856   3.038  10.381 -1.4921  0.1036  0.9482
  446MOL0     H61538   2.990   3.187  10.540 -1.1735 -0.1721  0.5356
  446MOL0     H61539   3.101   3.073  10.464  1.0704  2.5562  0.3889
  446MOL0     H61540   2.991   3.015  10.734 -1.1150  0.0473 -1.7264
  446MOL0     H61541   3.110   2.918  10.657 -1.6736 -1.4369  5.0558
  446MOL0     H61542   3.160   3.205  10.698  3.5074  1.0391 -0.6102
  446MOL0     H61543   3.274   3.072  10.652  0.1277  0.7282  0.1087
  446MOL0     H61544   3.273   3.019  11.060 -0.4981 -0.1702  0.8918
  446MOL0     H61545   2.764   3.249  10.492 -2.7796  2.8531 -1.0981
  446MOL0     H61546   2.517   3.482  10.561 -0.7171  0.3741  0.6563
  446MOL0     H61547   2.665   3.507  10.655 -0.2809  0.0383 -0.4251
  446MOL0     H61548   2.680   3.440  10.490 -2.7632 -2.8145 -1.3491
  447MOL0     O61549   4.534   2.060   4.868 -0.1358  0.0348  0.4757
  447MOL0     C61550   4.424   2.100   4.899  0.2683  0.0856  0.0924
  447MOL0     O61551   4.312   2.019   4.928  0.2813  0.1537  0.3519
  447MOL0     C61552   4.335   1.884   4.937 -0.1921  1.1351 -0.5065
  447MOL0     C61553   4.404   1.815   4.835  0.0211  0.7494  0.2342
  447MOL0     C61554   4.440   1.673   4.854 -0.1378 -0.3525  0.9011
  447MOL0     C61555   4.383   1.601   4.967  0.4323 -0.4085  0.1805
  447MOL0     O61556   4.403   1.472   4.994 -0.2412 -0.3900  0.4897
  447MOL0     C61557   4.467   1.387   4.890 -0.0217 -0.1357 -0.6173
  447MOL0     C61558   4.474   1.247   4.956  0.3531  0.0770  0.4346
  447MOL0     C61559   4.525   1.146   4.853 -1.2436 -0.1226  0.8404
  447MOL0     C61560   4.535   1.003   4.901 -0.5538 -0.0325 -0.8221
  447MOL0     C61561   4.666   0.984   4.981 -0.4569 -0.3427 -0.0338
  447MOL0     C61562   4.679   0.844   5.038 -0.4447  0.2048  0.4696
  447MOL0     C61563   4.556   0.817   5.125  0.3404  0.7572 -0.9913
  447MOL0     C61564   4.585   0.697   5.217 -0.8468  0.6678  1.0122
  447MOL0     N61565   4.462   0.655   5.277 -0.1531 -0.0524 -0.4019
  447MOL0     C61566   4.435   0.674   5.409  0.5199  0.2198  0.0390
  447MOL0     C61567   4.314   0.618   5.435  0.3488  0.3225  0.1180
  447MOL0     C61568   4.228   0.613   5.564  0.0463 -0.4207  0.1249
  447MOL0     C61569   4.270   0.517   5.664  0.0425 -0.4865 -0.0029
  447MOL0     C61570   4.283   0.365   5.610 -0.8546  0.3258 -0.8181
  447MOL0     C61571   4.166   0.287   5.559 -0.5537 -0.3254 -0.6556
  447MOL0     O61572   4.088   0.262   5.676 -0.3974 -0.3561 -0.2426
  447MOL0     C61573   3.954   0.263   5.652 -0.0528 -0.7411  0.6547
  447MOL0     C61574   3.871   0.154   5.630 -0.1732 -0.2785  0.4451
  447MOL0     C61575   3.729   0.163   5.638  0.4606 -0.4355 -0.0779
  447MOL0     C61576   3.659   0.031   5.615 -0.5786 -0.8896 -0.8890
  447MOL0     C61577   3.670   0.295   5.663 -0.1363  0.3022 -0.1247
  447MOL0     C61578   3.520   0.326   5.670 -0.3988  0.1359  0.0874
  447MOL0     O61579   3.479   0.451   5.682 -0.5982 -0.0609 -0.7822
  447MOL0     C61580   3.355   0.488   5.638 -0.3330 -0.3110  1.7370
  447MOL0     C61581   3.334   0.545   5.511  0.6001  0.2349 -0.6373
  447MOL0     C61582   3.206   0.575   5.458 -0.8311  0.7744  0.0342
  447MOL0     C61583   3.092   0.548   5.537 -0.1541  0.9941 -0.4696
  447MOL0     O61584   2.961   0.577   5.506 -0.2165 -0.3736  0.5593
  447MOL0     C61585   2.927   0.608   5.371  0.3338 -0.2277 -0.4051
  447MOL0     C61586   2.893   0.755   5.345 -0.3314  0.5788 -0.6504
  447MOL0     C61587   3.011   0.842   5.289 -0.2565  0.4279 -0.1968
  447MOL0     C61588   2.957   0.987   5.259  0.1906  0.6483 -0.2522
  447MOL0     C61589   3.054   1.065   5.178  0.6952  0.1777  0.0506
  447MOL0     C61590   2.979   1.198   5.133 -0.5640 -0.3028 -0.6840
  447MOL0     C61591   2.949   1.284   5.246 -0.2839  0.5714  0.9141
  447MOL0     C61592   2.892   1.417   5.207  0.2836 -0.5122  0.7356
  447MOL0    Cl61593   3.014   1.515   5.110 -0.3110  0.1006 -0.0841
  447MOL0     C61594   3.114   0.487   5.661  0.7188  0.0216  0.5116
  447MOL0     C61595   3.242   0.449   5.702 -0.5746  0.2887 -0.4841
  447MOL0     O61596   3.451   0.238   5.613  0.0641  0.1357 -0.5055
  447MOL0     C61597   3.757   0.407   5.659  0.3502 -0.1340  0.2592
  447MOL0     C61598   3.896   0.391   5.653 -0.5610 -0.0972 -0.3883
  447MOL0     N61599   4.277   0.561   5.316  0.1288 -0.4458  0.5286
  447MOL0     N61600   4.362   0.582   5.222 -0.0920 -0.8468 -0.1963
  447MOL0     C61601   4.305   1.667   5.064  0.6802 -0.8411  0.0938
  447MOL0     C61602   4.284   1.805   5.038 -0.3385 -1.1276 -0.9339
  447MOL0     C61603   4.404   2.242   4.900 -0.4878 -0.8465 -0.2152
  447MOL0     C61604   4.275   2.287   4.856 -0.2997  0.4763  0.2393
  447MOL0     C61605   4.253   2.419   4.838  0.4345 -0.5885  0.0745
  447MOL0     C61606   4.345   2.519   4.861 -0.5262  0.5417 -1.1100
  447MOL0     O61607   4.325   2.660   4.849 -0.0482  0.4083 -0.3994
  447MOL0     C61608   4.205   2.705   4.789  0.4721 -0.0664  0.1401
  447MOL0     C61609   4.196   2.853   4.809 -0.3129 -0.3368  0.1483
  447MOL0     C61610   4.069   2.910   4.743  0.4242 -0.0283  0.1571
  447MOL0     C61611   4.016   3.027   4.831  0.8261  0.0698  0.6808
  447MOL0     C61612   3.921   3.104   4.751  0.0156  0.0946  0.8429
  447MOL0     C61613   3.840   3.157   4.681 -0.0126 -0.0034  0.4819
  447MOL0     C61614   4.476   2.480   4.898 -0.1805  0.7418 -1.1457
  447MOL0     C61615   4.502   2.339   4.921  0.5832 -0.1882 -0.3197
  447MOL0     C61616   4.636   2.314   4.985  1.1176  0.8558 -0.0659
  447MOL0     H61617   4.438   1.867   4.746 -2.7314  3.7837  0.7842
  447MOL0     H61618   4.494   1.619   4.777  0.9437  0.5594  1.0064
  447MOL0     H61619   4.567   1.421   4.861 -0.3146 -0.1947 -1.7469
  447MOL0     H61620   4.397   1.385   4.805 -0.3102 -0.6661 -0.3688
  447MOL0     H61621   4.543   1.246   5.040  0.3822 -0.3233  0.4064
  447MOL0     H61622   4.374   1.217   4.990  0.1178 -0.6485 -0.8186
  447MOL0     H61623   4.450   1.131   4.775  0.4665 -0.0749 -0.8877
  447MOL0     H61624   4.608   1.199   4.807 -4.0087  1.6818 -2.5468
  447MOL0     H61625   4.445   0.983   4.959 -0.6476 -0.2074 -1.0239
  447MOL0     H61626   4.533   0.938   4.813  0.4192 -2.1182  0.6179
  447MOL0     H61627   4.668   1.059   5.061  0.0055 -1.0602  0.6493
  447MOL0     H61628   4.755   0.999   4.919 -1.1917  0.8505 -0.8304
  447MOL0     H61629   4.673   0.775   4.954 -2.6404 -0.9647  1.4992
  447MOL0     H61630   4.776   0.829   5.087 -0.3001  1.0081  0.4510
  447MOL0     H61631   4.467   0.792   5.066 -2.3800  3.9049  1.3805
  447MOL0     H61632   4.544   0.907   5.185 -0.8131 -2.5223  4.3649
  447MOL0     H61633   4.622   0.616   5.153 -2.0384  3.3175 -3.4269
  447MOL0     H61634   4.657   0.723   5.296  0.6757 -0.3596  0.0307
  447MOL0     H61635   4.495   0.721   5.486 -0.1633 -0.8218  1.2556
  447MOL0     H61636   4.127   0.591   5.529 -0.1026  0.4028  0.0157
  447MOL0     H61637   4.230   0.714   5.606  1.4156  0.1618 -1.2437
  447MOL0     H61638   4.367   0.550   5.700  0.5089 -0.4297 -1.2481
  447MOL0     H61639   4.207   0.518   5.753 -2.4989 -1.3464 -1.6625
  447MOL0     H61640   4.349   0.356   5.523 -2.9215  1.4353 -2.5892
  447MOL0     H61641   4.334   0.317   5.694 -1.9471  0.1885 -0.2158
  447MOL0     H61642   4.118   0.329   5.470  0.9671  1.2111 -0.7948
  447MOL0     H61643   4.201   0.187   5.531 -1.0946 -1.0236  0.9985
  447MOL0     H61644   3.911   0.055   5.608  0.4659 -0.8932  3.8814
  447MOL0     H61645   3.574   0.019   5.683  2.8037 -2.7188  3.4153
  447MOL0     H61646   3.727  -0.052   5.638 -0.0991 -0.4666 -0.7721
  447MOL0     H61647   3.635   0.027   5.508  0.2615 -2.0720 -1.0537
  447MOL0     H61648   3.424   0.566   5.453  2.3777 -1.5056  1.3372
  447MOL0     H61649   3.201   0.609   5.355 -2.9676  1.6362  0.3565
  447MOL0     H61650   2.999   0.575   5.295  0.6439  0.9484 -0.6549
  447MOL0     H61651   2.839   0.553   5.337 -0.0227 -0.2626  0.5701
  447MOL0     H61652   2.812   0.759   5.272  1.1039  1.8749 -2.2440
  447MOL0     H61653   2.854   0.785   5.443 -1.3358 -1.5543 -0.3277
  447MOL0     H61654   3.047   0.789   5.200 -0.3337 -0.3787  0.2517
  447MOL0     H61655   3.091   0.859   5.362 -2.3920 -0.3373  2.4584
  447MOL0     H61656   2.941   1.038   5.355 -0.6402  1.6388 -0.9009
  447MOL0     H61657   2.863   0.976   5.204 -1.6979  0.6684  2.7533
  447MOL0     H61658   3.145   1.087   5.235  0.0437 -1.1077  1.6961
  447MOL0     H61659   3.078   1.007   5.089  4.1010  2.1051 -0.4677
  447MOL0     H61660   2.887   1.177   5.078 -1.5716 -4.6761  2.1800
  447MOL0     H61661   3.055   1.252   5.076  1.4863 -2.6743 -0.3835
  447MOL0     H61662   3.049   1.289   5.290  1.9703 -2.3190 -3.2531
  447MOL0     H61663   2.883   1.245   5.324 -0.9055  0.8477  0.5340
  447MOL0     H61664   2.885   1.472   5.300 -0.2298 -2.1873  1.7386
  447MOL0     H61665   2.795   1.408   5.156 -0.3947 -1.3869  2.1213
  447MOL0     H61666   3.034   0.460   5.729 -0.1088 -0.6164 -0.6671
  447MOL0     H61667   3.251   0.388   5.792  0.7374  0.9635 -0.1388
  447MOL0     H61668   3.712   0.506   5.665 -0.2782 -0.3204 -0.9752
  447MOL0     H61669   3.955   0.481   5.660 -0.1705 -0.4640  1.5821
  447MOL0     H61670   4.280   1.634   5.165  2.4342  2.7978  1.9430
  447MOL0     H61671   4.218   1.852   5.110  1.3186  2.4132 -1.5225
  447MOL0     H61672   4.199   2.211   4.841  0.6586 -0.4353 -0.2082
  447MOL0     H61673   4.152   2.447   4.808 -0.1777 -2.6932  0.0126
  447MOL0     H61674   4.199   2.675   4.684  2.9598  0.8333 -0.3307
  447MOL0     H61675   4.112   2.673   4.837 -0.1428 -2.9897 -2.6269
  447MOL0     H61676   4.279   2.902   4.757  0.0829  1.6490  2.4679
  447MOL0     H61677   4.203   2.889   4.913 -0.4167  0.6242 -0.1647
  447MOL0     H61678   4.076   2.962   4.647 -1.9947  0.4382  0.1700
  447MOL0     H61679   3.984   2.842   4.728 -2.5212  3.4277 -0.1571
  447MOL0     H61680   4.103   3.084   4.865  2.2526 -0.9266 -1.1190
  447MOL0     H61681   3.977   2.991   4.926  0.7961  0.3953  0.7953
  447MOL0     H61682   3.770   3.211   4.620 -1.9685 -2.2677  0.5806
  447MOL0     H61683   4.546   2.561   4.915  2.3720 -1.5160 -0.0388
  447MOL0     H61684   4.715   2.352   4.919  2.0530 -1.5096 -0.3917
  447MOL0     H61685   4.648   2.356   5.085  0.2087  0.2583  0.3104
  447MOL0     H61686   4.642   2.208   5.011  5.4008  1.2137  1.1908
  448MOL0     O61687   4.298   2.390   0.120 -0.2962  0.5639  0.1779
  448MOL0     C61688   4.228   2.475   0.171  0.7606  0.0291  0.1672
  448MOL0     O61689   4.188   2.476   0.305  0.1830 -0.0742 -0.2703
  448MOL0     C61690   4.273   2.436   0.407  0.8089  0.7689  0.5897
  448MOL0     C61691   4.219   2.435   0.536  0.5425 -0.5328 -0.1948
  448MOL0     C61692   4.292   2.383   0.646 -0.2157 -0.0082 -0.1947
  448MOL0     C61693   4.426   2.352   0.633 -1.3881  0.1983  0.5294
  448MOL0     O61694   4.501   2.300   0.733 -0.2822 -0.2902 -0.4720
  448MOL0     C61695   4.438   2.219   0.832  0.1349 -0.0394 -0.0472
  448MOL0     C61696   4.536   2.173   0.941  0.4256  0.7531  0.5366
  448MOL0     C61697   4.608   2.294   1.002 -0.0728 -0.4346 -0.4128
  448MOL0     C61698   4.710   2.252   1.115  0.0403 -0.2927  0.5829
  448MOL0     C61699   4.840   2.207   1.062  0.3998 -0.3390  0.0586
  448MOL0     C61700   4.929   2.148   1.169  0.3501  0.0209  0.6054
  448MOL0     C61701   4.974   2.246   1.282 -0.0488 -0.3309 -0.7083
  448MOL0     C61702   5.040   2.177   1.407  0.8879 -0.6781 -0.9402
  448MOL0     N61703   4.946   2.085   1.469  0.1249  0.4425  0.3576
  448MOL0     C61704   4.838   2.109   1.552  0.1436 -0.0847  0.1967
  448MOL0     C61705   4.782   1.983   1.573 -0.3307 -0.3693  0.0207
  448MOL0     C61706   4.660   1.945   1.661  0.3452 -0.7130  0.6033
  448MOL0     C61707   4.698   1.909   1.813 -0.9700  0.1369  1.0014
  448MOL0     C61708   4.583   1.837   1.880 -0.5556 -0.3411  0.3753
  448MOL0     C61709   4.609   1.807   2.024 -0.8455  0.9598  0.5018
  448MOL0     O61710   4.651   1.664   2.037  0.4225  0.5211 -0.2745
  448MOL0     C61711   4.773   1.646   1.985 -1.0088  0.0201 -0.2792
  448MOL0     C61712   4.787   1.576   1.872  1.0761  0.4269 -0.1275
  448MOL0     C61713   4.910   1.560   1.809 -0.5480  0.1239 -0.7222
  448MOL0     C61714   4.919   1.481   1.673 -0.3152  0.2618 -0.6248
  448MOL0     C61715   5.027   1.623   1.868 -0.3477 -0.9758  0.1458
  448MOL0     C61716   5.161   1.616   1.814 -0.8209 -0.7205  0.5721
  448MOL0     O61717   5.253   1.715   1.842  0.0184 -0.2145  0.7603
  448MOL0     C61718   5.371   1.739   1.782  0.0238 -0.7338  0.9120
  448MOL0     C61719   5.393   1.698   1.649 -0.8418  0.8171  0.1904
  448MOL0     C61720   5.517   1.720   1.583  0.0630 -1.3371 -0.7609
  448MOL0     C61721   5.619   1.786   1.649  0.4268 -0.5322  0.3005
  448MOL0     O61722   5.737   1.818   1.584  0.3203 -0.7332 -0.2592
  448MOL0     C61723   5.747   1.817   1.439 -0.6557  0.6463  0.1832
  448MOL0     C61724   5.880   1.890   1.399  0.0235  1.0986  0.0758
  448MOL0     C61725   5.914   2.028   1.462 -1.0566 -0.8108 -0.3524
  448MOL0     C61726   5.922   2.140   1.357  0.0801  0.3557 -0.3028
  448MOL0     C61727   5.908   2.283   1.411 -0.4483 -0.9751  0.5042
  448MOL0     C61728   6.042   2.334   1.462 -0.1991  1.4237  0.3589
  448MOL0     C61729   6.030   2.491   1.457 -0.0741 -0.0679  0.3702
  448MOL0     C61730   6.151   2.547   1.519  1.2869 -0.1556 -0.1182
  448MOL0    Cl61731   6.156   2.711   1.472  0.0265 -0.4864  0.0808
  448MOL0     C61732   5.597   1.833   1.775  0.1186 -0.0383 -0.7776
  448MOL0     C61733   5.477   1.807   1.843  0.2155 -0.1529 -0.0800
  448MOL0     O61734   5.190   1.510   1.759 -0.6476 -0.2152 -0.4130
  448MOL0     C61735   5.010   1.694   1.988 -0.1500 -0.7261 -0.0893
  448MOL0     C61736   4.881   1.706   2.051  0.1248  0.3616  0.2449
  448MOL0     N61737   4.852   1.881   1.508 -0.8179 -0.3671 -0.1981
  448MOL0     N61738   4.954   1.947   1.445 -0.5747 -0.0177 -0.2489
  448MOL0     C61739   4.488   2.374   0.512 -0.2384  0.5885  0.1662
  448MOL0     C61740   4.412   2.413   0.403 -0.0938 -0.7895 -0.7988
  448MOL0     C61741   4.143   2.568   0.088 -0.4841 -0.4294  1.1951
  448MOL0     C61742   4.118   2.687   0.152 -0.7020 -0.7680  0.0682
  448MOL0     C61743   4.064   2.789   0.076  0.1690 -0.3020  0.0652
  448MOL0     C61744   4.027   2.773  -0.062 -0.4676 -0.1478 -1.5441
  448MOL0     O61745   3.979   2.881  -0.129 -0.9414  0.7022  1.2582
  448MOL0     C61746   3.956   3.012  -0.079  0.1510  0.1383 -0.7532
  448MOL0     C61747   3.889   3.105  -0.173 -0.8822  1.1602  0.3103
  448MOL0     C61748   3.743   3.050  -0.205 -0.0500  0.6828  0.0995
  448MOL0     C61749   3.707   3.055  -0.357  0.2852  0.8682 -0.8253
  448MOL0     C61750   3.751   2.923  -0.417 -0.5379 -0.5191 -0.7251
  448MOL0     C61751   3.814   2.836  -0.477  0.5723 -0.1609  0.9764
  448MOL0     C61752   4.037   2.650  -0.109 -0.2999 -0.6841  0.2351
  448MOL0     C61753   4.096   2.547  -0.040  0.7535 -0.1672 -0.2096
  448MOL0     C61754   4.125   2.423  -0.122 -0.3273  0.0886 -0.3997
  448MOL0     H61755   4.114   2.462   0.546  1.1025  2.3376 -1.2039
  448MOL0     H61756   4.242   2.386   0.743 -0.1258 -1.0953 -0.1058
  448MOL0     H61757   4.387   2.134   0.786  0.8905 -2.2531  2.8858
  448MOL0     H61758   4.370   2.287   0.883  1.2774 -0.1404  1.6735
  448MOL0     H61759   4.476   2.126   1.019 -1.7542  2.3402 -0.0869
  448MOL0     H61760   4.613   2.107   0.900  0.9091  2.2417 -1.0876
  448MOL0     H61761   4.666   2.330   0.916  0.5872  0.1848  0.2816
  448MOL0     H61762   4.529   2.358   1.041  0.1955 -0.1265 -0.3660
  448MOL0     H61763   4.722   2.333   1.187 -0.4339 -1.1711  1.6769
  448MOL0     H61764   4.664   2.170   1.170 -1.1225  1.3848  2.2465
  448MOL0     H61765   4.892   2.275   0.993  2.8955 -1.6207  0.5690
  448MOL0     H61766   4.826   2.124   0.993 -0.5846  0.8012 -1.1617
  448MOL0     H61767   4.869   2.070   1.214 -2.4383  0.4896 -1.9705
  448MOL0     H61768   5.014   2.113   1.109 -1.4008 -0.6684 -1.5824
  448MOL0     H61769   4.884   2.301   1.310 -0.5444 -1.1355 -0.7002
  448MOL0     H61770   5.045   2.319   1.242  1.9246 -2.4351 -1.2565
  448MOL0     H61771   5.125   2.123   1.364 -0.5852 -1.7008 -2.6906
  448MOL0     H61772   5.075   2.243   1.487 -2.6105 -1.2462  1.2649
  448MOL0     H61773   4.800   2.203   1.589  0.7908  0.4070 -0.3754
  448MOL0     H61774   4.614   1.865   1.602  0.0721  1.5532 -2.5335
  448MOL0     H61775   4.594   2.033   1.665  1.6059  0.4511 -1.7797
  448MOL0     H61776   4.790   1.850   1.816  1.5362  3.6426  0.1211
  448MOL0     H61777   4.727   2.002   1.863  0.7032  1.3824 -1.9578
  448MOL0     H61778   4.486   1.888   1.877 -1.0561 -1.0755  2.5448
  448MOL0     H61779   4.566   1.751   1.814  1.3971  1.8009 -3.3018
  448MOL0     H61780   4.669   1.887   2.068  0.9852 -0.0058 -0.1671
  448MOL0     H61781   4.511   1.807   2.073 -0.3036 -2.3081  1.8109
  448MOL0     H61782   4.699   1.535   1.823  1.0435  0.5575 -0.1793
  448MOL0     H61783   4.819   1.475   1.629  0.4558  0.9808 -2.5833
  448MOL0     H61784   4.949   1.377   1.686 -2.9909 -0.1470  4.6579
  448MOL0     H61785   4.982   1.522   1.593  0.0759 -2.9123 -2.0877
  448MOL0     H61786   5.314   1.649   1.592 -2.3241 -0.3402  3.0395
  448MOL0     H61787   5.536   1.679   1.485 -0.4352 -2.1268 -0.5419
  448MOL0     H61788   5.760   1.713   1.408  0.0044  0.6797  0.3259
  448MOL0     H61789   5.662   1.865   1.391  0.0163  0.0555 -1.7227
  448MOL0     H61790   5.954   1.815   1.428 -0.4792  1.3015  2.0667
  448MOL0     H61791   5.888   1.905   1.291  1.9908 -1.4541 -0.2175
  448MOL0     H61792   6.012   2.032   1.511 -0.4809  0.7339 -1.5481
  448MOL0     H61793   5.832   2.057   1.528 -0.7718 -0.5204 -0.1194
  448MOL0     H61794   5.832   2.132   1.295 -0.1715 -3.1626  0.2807
  448MOL0     H61795   6.005   2.137   1.286 -0.6458  2.3739 -1.3220
  448MOL0     H61796   5.879   2.344   1.325 -1.5968 -1.6187  0.4321
  448MOL0     H61797   5.837   2.298   1.493  2.8400  1.0170  3.2861
  448MOL0     H61798   6.125   2.301   1.399 -0.4224  1.7861 -0.1333
  448MOL0     H61799   6.047   2.284   1.559 -1.3132  1.3108  0.3735
  448MOL0     H61800   5.947   2.534   1.514 -1.4512  2.6068 -3.2183
  448MOL0     H61801   5.997   2.516   1.356 -1.3578 -1.8903  0.2901
  448MOL0     H61802   6.244   2.513   1.472  0.9051 -1.5375  0.0726
  448MOL0     H61803   6.158   2.541   1.628  2.5976 -3.7523 -0.2548
  448MOL0     H61804   5.687   1.873   1.821 -0.3804 -0.8640  1.0112
  448MOL0     H61805   5.472   1.812   1.952  1.9030 -2.5374  0.1894
  448MOL0     H61806   5.090   1.762   2.018 -0.9494 -0.0117  0.4783
  448MOL0     H61807   4.867   1.765   2.141 -0.1881  1.4026 -0.4633
  448MOL0     H61808   4.593   2.352   0.498  0.1722  0.7039  2.5686
  448MOL0     H61809   4.476   2.423   0.315  0.5168  0.4492 -0.2414
  448MOL0     H61810   4.158   2.710   0.251 -1.8037  0.2597  0.2963
  448MOL0     H61811   4.038   2.883   0.123 -0.6413 -0.8953  0.8333
  448MOL0     H61812   3.888   3.000   0.007 -0.7954 -2.9584 -1.8142
  448MOL0     H61813   4.042   3.064  -0.034 -1.1925  0.5621  1.5178
  448MOL0     H61814   3.944   3.096  -0.267  1.6284 -1.7033  1.8560
  448MOL0     H61815   3.890   3.205  -0.128 -3.6579  0.6864  1.6409
  448MOL0     H61816   3.720   2.948  -0.170  0.1380 -0.2748 -2.3650
  448MOL0     H61817   3.668   3.112  -0.156 -0.7113 -0.6127  0.7943
  448MOL0     H61818   3.757   3.129  -0.420 -0.2121  2.3554  0.4832
  448MOL0     H61819   3.600   3.071  -0.374  0.0396 -0.8045 -1.0673
  448MOL0     H61820   3.878   2.778  -0.540 -0.1412 -1.2650  1.2471
  448MOL0     H61821   3.983   2.631  -0.202 -0.6469  0.6475  0.1382
  448MOL0     H61822   4.210   2.361  -0.092 -1.6982 -0.3714  2.9633
  448MOL0     H61823   4.037   2.364  -0.098 -0.2249  0.3816  0.7360
  448MOL0     H61824   4.133   2.438  -0.230  1.5327  0.1882 -0.2781
  449MOL0     O61825   3.965   2.128   1.308  0.2580  0.4311  0.1389
  449MOL0     C61826   4.078   2.075   1.283 -0.4529 -0.6635 -1.0747
  449MOL0     O61827   4.159   2.097   1.178 -0.7190  0.5273  0.5510
  449MOL0     C61828   4.110   2.183   1.077 -0.4708  0.6437 -0.2562
  449MOL0     C61829   4.051   2.130   0.965  0.0770 -0.3111 -0.4649
  449MOL0     C61830   3.995   2.215   0.873 -0.4850 -0.5829  0.0976
  449MOL0     C61831   4.014   2.356   0.881  0.3534  0.4659  0.6332
  449MOL0     O61832   3.977   2.440   0.784 -0.0975 -0.3424 -0.5010
  449MOL0     C61833   3.873   2.405   0.696 -0.0903 -0.1614 -0.4141
  449MOL0     C61834   3.732   2.373   0.770 -0.6087 -0.1215 -0.3802
  449MOL0     C61835   3.610   2.371   0.679 -0.0153  0.0138 -0.1416
  449MOL0     C61836   3.475   2.353   0.757 -0.8435  0.5253 -0.2726
  449MOL0     C61837   3.359   2.374   0.659 -0.4126 -0.9937 -0.0488
  449MOL0     C61838   3.225   2.360   0.734 -0.6042  0.5236  0.5434
  449MOL0     C61839   3.216   2.412   0.878 -0.0627 -0.7728 -0.2540
  449MOL0     C61840   3.078   2.447   0.932  0.1842  0.0458  0.5883
  449MOL0     N61841   3.076   2.488   1.072  0.4951 -0.4489  0.5100
  449MOL0     C61842   3.145   2.585   1.132  1.4289 -0.6775 -0.0281
  449MOL0     C61843   3.085   2.617   1.250  1.1469 -0.7872 -0.2519
  449MOL0     C61844   3.132   2.727   1.333 -0.1399 -0.2805  0.1622
  449MOL0     C61845   3.255   2.699   1.414 -0.0146  0.7302 -0.0494
  449MOL0     C61846   3.228   2.587   1.515 -0.9748  0.4545 -0.3286
  449MOL0     C61847   3.117   2.601   1.616  0.3673 -0.6852  0.0027
  449MOL0     O61848   3.105   2.492   1.706  0.5568  0.2835 -0.3884
  449MOL0     C61849   2.986   2.470   1.776 -0.8193 -0.1690  0.0210
  449MOL0     C61850   2.900   2.562   1.825  0.2344 -1.0697 -0.1431
  449MOL0     C61851   2.793   2.533   1.905  0.0425 -0.3674  0.2390
  449MOL0     C61852   2.698   2.645   1.940  0.1773 -0.5777  0.6346
  449MOL0     C61853   2.774   2.397   1.945 -0.4865  0.3446 -0.0141
  449MOL0     C61854   2.653   2.342   2.029  0.0204 -1.0452  0.3435
  449MOL0     O61855   2.652   2.208   2.067 -0.5158  0.1123 -0.6887
  449MOL0     C61856   2.538   2.177   2.135  0.2065  0.5322  0.1168
  449MOL0     C61857   2.553   2.138   2.264  0.0448  0.6636  0.2546
  449MOL0     C61858   2.442   2.082   2.334 -0.2871 -0.6341  0.8268
  449MOL0     C61859   2.318   2.066   2.276  0.0473 -1.9469  1.0418
  449MOL0     O61860   2.219   2.001   2.335 -0.0931 -0.2846  0.0791
  449MOL0     C61861   2.216   1.990   2.481  0.1815  0.6877 -0.2910
  449MOL0     C61862   2.165   2.108   2.558  0.4731 -0.2572 -0.0893
  449MOL0     C61863   2.016   2.129   2.535  0.1461  0.2273 -0.2262
  449MOL0     C61864   1.945   2.220   2.651 -0.8235  1.1820  0.2146
  449MOL0     C61865   1.803   2.254   2.609  0.0559  0.1123 -0.9432
  449MOL0     C61866   1.706   2.237   2.733  0.2742  0.3259  0.7685
  449MOL0     C61867   1.564   2.232   2.678 -0.6735  0.2213 -0.3716
  449MOL0     C61868   1.516   2.355   2.589 -0.1906  0.4923  1.1518
  449MOL0    Cl61869   1.554   2.504   2.691 -0.0074  0.4593  0.3100
  449MOL0     C61870   2.311   2.110   2.145  0.2449 -0.5945  0.5378
  449MOL0     C61871   2.413   2.167   2.074  0.2530 -0.2643  0.1789
  449MOL0     O61872   2.563   2.421   2.044 -0.9409  0.6895  0.8340
  449MOL0     C61873   2.861   2.304   1.900  0.1560 -0.7740 -0.5347
  449MOL0     C61874   2.967   2.337   1.820  0.5714  0.9981  0.4243
  449MOL0     N61875   2.968   2.546   1.263 -1.2873  0.7478  0.5266
  449MOL0     N61876   2.971   2.463   1.165  0.4456  0.2730  0.2573
  449MOL0     C61877   4.085   2.409   0.988 -0.4094 -0.2329  0.3920
  449MOL0     C61878   4.126   2.319   1.085 -1.2030  0.1720 -0.3318
  449MOL0     C61879   4.122   1.987   1.392  0.2984 -0.8277  0.7074
  449MOL0     C61880   4.028   1.904   1.457  0.2376  0.4006  0.3037
  449MOL0     C61881   4.070   1.814   1.559  0.3155 -0.8260 -1.4694
  449MOL0     C61882   4.193   1.830   1.610  0.3114 -0.5458  0.4426
  449MOL0     O61883   4.238   1.759   1.715 -0.2387  0.2966 -1.0693
  449MOL0     C61884   4.151   1.680   1.798 -0.3544  0.7219 -0.1386
  449MOL0     C61885   4.239   1.611   1.904 -0.1185 -0.3121 -0.5320
  449MOL0     C61886   4.347   1.533   1.838  0.7135  0.8962  0.2595
  449MOL0     C61887   4.400   1.414   1.928  0.3121 -0.7608 -0.2984
  449MOL0     C61888   4.315   1.298   1.908  0.2137 -0.2694 -0.0825
  449MOL0     C61889   4.263   1.191   1.883  0.0247 -0.2824  0.6895
  449MOL0     C61890   4.285   1.917   1.547 -0.9094  0.2737  0.0875
  449MOL0     C61891   4.252   1.989   1.439 -0.1851 -0.2564  0.5996
  449MOL0     C61892   4.356   2.091   1.396 -0.9621  0.0482 -0.0221
  449MOL0     H61893   4.034   2.023   0.956 -3.5242  0.1136 -0.0304
  449MOL0     H61894   3.956   2.170   0.782  0.1434 -2.6809  0.8145
  449MOL0     H61895   3.914   2.328   0.630  2.3725  1.9331 -1.5084
  449MOL0     H61896   3.866   2.491   0.629 -2.3862 -0.7810 -1.0628
  449MOL0     H61897   3.732   2.278   0.824  1.7143 -1.2292 -2.1442
  449MOL0     H61898   3.708   2.446   0.849 -5.1036  0.2800 -1.8138
  449MOL0     H61899   3.611   2.463   0.619 -1.0322  1.8328  2.4668
  449MOL0     H61900   3.616   2.287   0.609  2.3331 -0.1371  0.1660
  449MOL0     H61901   3.475   2.250   0.793 -0.5796  0.4702 -0.4311
  449MOL0     H61902   3.478   2.427   0.838  3.8014 -0.5197  0.8411
  449MOL0     H61903   3.363   2.308   0.571  0.5312  0.0896 -0.8489
  449MOL0     H61904   3.365   2.479   0.628 -0.4653 -0.1995  2.4069
  449MOL0     H61905   3.154   2.422   0.679  0.5569 -0.0699 -1.7785
  449MOL0     H61906   3.193   2.256   0.724  0.4448  0.3012 -1.0032
  449MOL0     H61907   3.270   2.507   0.882  1.9493 -1.8191  3.6970
  449MOL0     H61908   3.265   2.347   0.952 -0.4759 -1.0969 -0.2654
  449MOL0     H61909   3.036   2.531   0.874 -3.3405 -1.1449  1.1672
  449MOL0     H61910   3.010   2.367   0.902  0.9185 -0.3406 -0.0751
  449MOL0     H61911   3.235   2.634   1.095  1.3218 -0.0617  0.5162
  449MOL0     H61912   3.058   2.771   1.400  0.1825  2.8562 -1.3909
  449MOL0     H61913   3.158   2.805   1.262  1.0839 -0.9853 -0.1986
  449MOL0     H61914   3.332   2.669   1.342 -0.6741 -1.3908  0.0365
  449MOL0     H61915   3.281   2.794   1.459 -1.7309 -0.0343  2.8000
  449MOL0     H61916   3.216   2.493   1.461  2.3430  1.2609 -2.7970
  449MOL0     H61917   3.325   2.576   1.565 -0.8429  2.4824 -0.0533
  449MOL0     H61918   3.135   2.692   1.673  1.4017 -0.4176 -0.7266
  449MOL0     H61919   3.028   2.613   1.553  1.7935 -0.1193 -2.0145
  449MOL0     H61920   2.911   2.663   1.787 -1.3971 -0.8375 -0.0899
  449MOL0     H61921   2.717   2.739   1.888 -1.6221  0.1301  1.1711
  449MOL0     H61922   2.714   2.686   2.040  0.5507 -0.3598  0.4857
  449MOL0     H61923   2.595   2.622   1.910 -1.1298  3.5957  1.3036
  449MOL0     H61924   2.648   2.148   2.316 -2.3130  2.9561  4.7177
  449MOL0     H61925   2.450   2.053   2.438 -2.7751 -2.6630  0.5287
  449MOL0     H61926   2.155   1.902   2.502 -0.9189  1.4074 -0.3993
  449MOL0     H61927   2.307   1.956   2.531 -0.5866 -2.3143 -0.7566
  449MOL0     H61928   2.186   2.107   2.665 -3.0664 -1.9647  0.7294
  449MOL0     H61929   2.216   2.202   2.533  1.2140 -0.2991  1.1985
  449MOL0     H61930   1.970   2.030   2.528  2.1924 -0.7161 -1.5496
  449MOL0     H61931   1.990   2.167   2.436 -2.8252  1.5059  0.9269
  449MOL0     H61932   1.990   2.319   2.664  1.1776  0.7635 -2.4265
  449MOL0     H61933   1.952   2.177   2.751 -2.5610  3.5463  1.4369
  449MOL0     H61934   1.803   2.360   2.582  3.8025  0.2609 -0.7959
  449MOL0     H61935   1.766   2.185   2.533 -2.4466  1.6238 -1.2378
  449MOL0     H61936   1.715   2.319   2.805  0.3014  0.3749  0.7096
  449MOL0     H61937   1.736   2.138   2.769  0.8034  0.2663  0.1947
  449MOL0     H61938   1.488   2.226   2.757 -2.4766 -0.5652 -2.0809
  449MOL0     H61939   1.549   2.140   2.621  1.1215  0.6228 -1.5708
  449MOL0     H61940   1.409   2.345   2.565 -0.6385  0.2249  3.0748
  449MOL0     H61941   1.582   2.344   2.502  1.2793  0.0073  2.2857
  449MOL0     H61942   2.207   2.110   2.113  0.9465  1.0246 -1.9761
  449MOL0     H61943   2.395   2.211   1.977  1.0405  0.3196  0.2852
  449MOL0     H61944   2.844   2.198   1.920  0.2790 -0.3400  2.3208
  449MOL0     H61945   3.043   2.261   1.800  3.2080  3.3479  0.9565
  449MOL0     H61946   4.107   2.515   0.992 -0.9757 -0.1588  2.6607
  449MOL0     H61947   4.178   2.354   1.174 -0.1831 -0.6396 -0.5906
  449MOL0     H61948   3.926   1.912   1.422  1.3409  1.5603 -3.0119
  449MOL0     H61949   3.991   1.749   1.594 -4.1235  3.0616 -3.1007
  449MOL0     H61950   4.074   1.747   1.839 -0.4878  1.8599 -2.1032
  449MOL0     H61951   4.093   1.612   1.735  0.0024  0.9386 -0.7072
  449MOL0     H61952   4.175   1.538   1.953 -0.6358  1.2021  1.1510
  449MOL0     H61953   4.280   1.688   1.971  1.2295 -1.6040  0.1836
  449MOL0     H61954   4.309   1.483   1.748 -1.4771  1.4671  0.7890
  449MOL0     H61955   4.440   1.587   1.818  1.1413 -0.2387 -0.8963
  449MOL0     H61956   4.370   1.435   2.031 -1.8460 -2.1871 -0.5659
  449MOL0     H61957   4.505   1.396   1.901  2.2075  2.0062  4.1361
  449MOL0     H61958   4.198   1.110   1.856  1.6633 -1.3514 -0.2752
  449MOL0     H61959   4.389   1.919   1.579 -1.1386  0.8188  0.8144
  449MOL0     H61960   4.435   2.114   1.468 -1.5110  1.9965  0.0387
  449MOL0     H61961   4.409   2.061   1.305  0.8375  0.1839  0.9176
  449MOL0     H61962   4.314   2.182   1.352  0.0461 -0.0778 -1.3461
  450MOL0     O61963  10.519  11.134   7.981  0.1875 -0.1932 -0.0051
  450MOL0     C61964  10.507  11.037   8.052 -0.8273  0.1421 -0.1172
  450MOL0     O61965  10.507  11.044   8.190 -0.1122 -0.0451 -0.0056
  450MOL0     C61966  10.503  11.160   8.254  0.2530 -0.9254 -0.3559
  450MOL0     C61967  10.383  11.218   8.297 -0.3315  0.6923 -0.5253
  450MOL0     C61968  10.376  11.336   8.365 -1.2296 -0.7919  0.0982
  450MOL0     C61969  10.500  11.402   8.398  0.8127  1.1699 -0.0106
  450MOL0     O61970  10.477  11.517   8.465 -0.6235  0.5550 -0.2611
  450MOL0     C61971  10.538  11.633   8.398 -0.8554 -0.9410  0.2491
  450MOL0     C61972  10.576  11.713   8.521  0.6356 -0.4417  0.3616
  450MOL0     C61973  10.707  11.676   8.584  1.6105 -0.1590  0.7463
  450MOL0     C61974  10.744  11.771   8.698  0.0159 -0.7619 -0.3504
  450MOL0     C61975  10.895  11.763   8.717  0.0949  0.7046 -0.1157
  450MOL0     C61976  10.968  11.880   8.776  0.7287 -0.3828  0.7955
  450MOL0     C61977  10.985  12.001   8.685  0.8558  1.3235 -0.2443
  450MOL0     C61978  11.086  11.972   8.578 -0.5993  0.0715 -0.1200
  450MOL0     N61979  11.113  12.085   8.489  0.3140  0.2004  0.2999
  450MOL0     C61980  11.019  12.174   8.442 -0.1176 -0.2824 -0.5212
  450MOL0     C61981  11.089  12.258   8.362 -0.8060  0.0441 -0.2455
  450MOL0     C61982  11.041  12.371   8.281  0.3064 -0.0994 -0.2322
  450MOL0     C61983  11.149  12.441   8.209  0.3044 -0.2159  0.6465
  450MOL0     C61984  11.116  12.568   8.146  0.6047  0.7094 -0.1731
  450MOL0     C61985  11.246  12.602   8.069 -0.0371  0.7759 -0.1193
  450MOL0     O61986  11.215  12.727   7.999 -0.4036 -0.3111 -0.9531
  450MOL0     C61987  11.327  12.786   7.947 -0.5530 -0.6963 -0.4267
  450MOL0     C61988  11.446  12.715   7.903  0.8830 -0.0450 -0.1881
  450MOL0     C61989  11.551  12.786   7.851 -0.5286  0.0332 -0.6725
  450MOL0     C61990  11.670  12.709   7.804  0.3011  1.2244  0.1017
  450MOL0     C61991  11.538  12.922   7.823  0.5755  0.5163 -0.3053
  450MOL0     C61992  11.656  13.002   7.773 -0.3640  0.4248 -0.4537
  450MOL0     O61993  11.657  13.134   7.812 -0.2893 -0.5353 -0.5745
  450MOL0     C61994  11.751  13.218   7.760  0.0429 -0.3173  0.2426
  450MOL0     C61995  11.777  13.332   7.843  0.4951 -0.3412 -0.3173
  450MOL0     C61996  11.870  13.427   7.808 -0.1316  0.2986 -0.0056
  450MOL0     C61997  11.928  13.424   7.689 -0.1732  0.8347  0.6415
  450MOL0     O61998  12.023  13.525   7.658 -0.0998  0.0015  0.0722
  450MOL0     C61999  12.114  13.558   7.767 -0.2948 -0.4457 -0.1015
  450MOL0     C62000  12.221  13.646   7.706  0.3057  0.4300  0.3553
  450MOL0     C62001  12.161  13.779   7.657 -0.2893 -0.4681 -0.2347
  450MOL0     C62002  12.255  13.851   7.559  0.4651  0.3760 -0.2564
  450MOL0     C62003  12.271  13.781   7.421  0.1268  0.4101  0.6472
  450MOL0     C62004  12.388  13.842   7.344 -0.9434 -0.2000 -0.1147
  450MOL0     C62005  12.362  13.989   7.321  0.4128  0.0409  0.3091
  450MOL0     C62006  12.424  14.052   7.193  0.2918  0.5729 -0.0963
  450MOL0    Cl62007  12.356  13.976   7.048 -0.4378  0.0728 -0.1493
  450MOL0     C62008  11.906  13.323   7.597  0.0841 -0.4390 -0.1642
  450MOL0     C62009  11.814  13.219   7.633 -0.3736  1.0039  0.0207
  450MOL0     O62010  11.755  12.954   7.706  0.0413  0.2528  0.4690
  450MOL0     C62011  11.420  12.993   7.865 -0.4768 -0.4076  0.6094
  450MOL0     C62012  11.319  12.916   7.929 -0.0322  0.2720 -0.4944
  450MOL0     N62013  11.215  12.215   8.358 -0.6817 -0.0680 -0.8698
  450MOL0     N62014  11.237  12.122   8.445  0.3141  1.0644  1.3009
  450MOL0     C62015  10.624  11.345   8.364  0.4647  0.2315  0.7675
  450MOL0     C62016  10.623  11.230   8.277 -0.6999  0.8425 -0.6062
  450MOL0     C62017  10.530  10.904   7.983  0.9662  1.1590 -0.3873
  450MOL0     C62018  10.617  10.899   7.877  0.4504 -0.2036  0.2584
  450MOL0     C62019  10.633  10.771   7.814 -0.0032 -0.0369  0.7531
  450MOL0     C62020  10.564  10.653   7.853 -0.2360  0.0178 -0.7201
  450MOL0     O62021  10.582  10.529   7.795  0.2587  0.8085 -0.2629
  450MOL0     C62022  10.694  10.501   7.706 -0.8733 -0.8383 -0.8000
  450MOL0     C62023  10.826  10.476   7.776  0.0701 -0.4379  0.4676
  450MOL0     C62024  10.836  10.357   7.879  0.6402  0.1831  1.1521
  450MOL0     C62025  10.735  10.343   7.991  0.0163 -0.1192  0.4182
  450MOL0     C62026  10.792  10.236   8.077  1.1009  0.4519  1.0224
  450MOL0     C62027  10.833  10.150   8.155  0.4504 -1.3442  0.8540
  450MOL0     C62028  10.480  10.673   7.955 -0.7627 -1.1375 -1.6214
  450MOL0     C62029  10.464  10.790   8.022  0.2978  0.9003  0.3133
  450MOL0     C62030  10.367  10.780   8.140 -1.2130 -0.2869 -0.0526
  450MOL0     H62031  10.297  11.153   8.290  1.5631 -2.0632 -0.1042
  450MOL0     H62032  10.277  11.372   8.392 -1.9745 -2.0403 -0.9058
  450MOL0     H62033  10.462  11.687   8.341 -0.8330 -1.9541 -0.7739
  450MOL0     H62034  10.617  11.607   8.328  1.1227 -1.4607  2.5504
  450MOL0     H62035  10.591  11.816   8.487  1.8686 -0.6081  0.3587
  450MOL0     H62036  10.497  11.721   8.597 -0.9144 -3.3276 -0.8034
  450MOL0     H62037  10.693  11.578   8.630 -1.1665  0.3433  1.1329
  450MOL0     H62038  10.783  11.667   8.505 -2.8783  0.0825 -4.1546
  450MOL0     H62039  10.724  11.875   8.668  0.4964 -0.5043  0.1858
  450MOL0     H62040  10.690  11.750   8.790  1.5333  0.9336  1.0068
  450MOL0     H62041  10.940  11.720   8.627  1.7522  1.4099  0.3467
  450MOL0     H62042  10.908  11.695   8.801 -1.1198  3.0458  2.1108
  450MOL0     H62043  10.925  11.931   8.863  0.7308  3.3989 -1.1999
  450MOL0     H62044  11.066  11.844   8.807  0.6620  0.2413  1.7593
  450MOL0     H62045  11.017  12.085   8.748  2.2313  0.7605 -0.1715
  450MOL0     H62046  10.886  12.022   8.644  0.8277  0.4759 -0.6296
  450MOL0     H62047  11.182  11.953   8.627 -1.2962  0.4603  1.4770
  450MOL0     H62048  11.064  11.880   8.524  2.8863 -1.9941  1.5887
  450MOL0     H62049  10.911  12.178   8.452 -0.0350 -0.7039  0.7124
  450MOL0     H62050  10.983  12.437   8.347  1.5790 -2.0148  3.0846
  450MOL0     H62051  10.977  12.334   8.200 -4.2145 -0.1882  2.9880
  450MOL0     H62052  11.237  12.452   8.273  1.7404  0.9660 -1.4280
  450MOL0     H62053  11.172  12.379   8.122  0.9282  1.5201 -0.4788
  450MOL0     H62054  11.034  12.553   8.074 -0.3770 -0.8241  1.1985
  450MOL0     H62055  11.088  12.635   8.228 -2.2248 -1.7393  1.0354
  450MOL0     H62056  11.337  12.600   8.129  0.3435  1.0022 -0.6854
  450MOL0     H62057  11.257  12.520   7.998 -0.8245  2.3876 -2.2048
  450MOL0     H62058  11.467  12.610   7.920  3.8478  0.4255 -0.4088
  450MOL0     H62059  11.765  12.758   7.826 -0.9277  2.6303  2.7796
  450MOL0     H62060  11.656  12.690   7.697 -1.6248  4.6485 -0.3966
  450MOL0     H62061  11.682  12.617   7.862  3.3981  2.1763  1.1380
  450MOL0     H62062  11.739  13.346   7.944 -0.7505 -2.0400 -0.5086
  450MOL0     H62063  11.891  13.510   7.874  0.2972 -0.8248  1.3253
  450MOL0     H62064  12.061  13.624   7.837 -3.5390 -1.2269 -1.6078
  450MOL0     H62065  12.163  13.475   7.818  1.0646  0.8654  0.7771
  450MOL0     H62066  12.299  13.662   7.781 -1.6744 -0.6367  2.8062
  450MOL0     H62067  12.270  13.586   7.629 -0.1038 -3.4538  2.8390
  450MOL0     H62068  12.146  13.849   7.740  1.4122  2.5452 -2.2481
  450MOL0     H62069  12.075  13.758   7.594  0.2757 -0.0923 -1.1505
  450MOL0     H62070  12.350  13.873   7.608 -0.1874 -2.5265  2.5927
  450MOL0     H62071  12.207  13.947   7.535 -0.7203 -0.8752 -3.4830
  450MOL0     H62072  12.299  13.677   7.441  0.0149  0.3400  0.4409
  450MOL0     H62073  12.186  13.771   7.354  2.2571  1.3086 -2.4162
  450MOL0     H62074  12.395  13.795   7.246 -1.1542 -1.1216  0.3061
  450MOL0     H62075  12.488  13.831   7.387 -1.4215 -0.2871  1.0084
  450MOL0     H62076  12.385  14.053   7.407 -1.8770  2.8567 -1.0177
  450MOL0     H62077  12.255  14.011   7.320  0.4112  0.1246 -1.8829
  450MOL0     H62078  12.533  14.041   7.185  0.8791  3.6876  1.7521
  450MOL0     H62079  12.409  14.161   7.188 -1.5117  0.2743 -3.0154
  450MOL0     H62080  11.949  13.318   7.497 -0.8714  3.1255 -0.8729
  450MOL0     H62081  11.782  13.150   7.555  0.1675  0.6233  0.1316
  450MOL0     H62082  11.408  13.100   7.851 -1.4926 -0.6949 -0.9941
  450MOL0     H62083  11.223  12.962   7.951 -1.7380 -1.2775 -3.9178
  450MOL0     H62084  10.714  11.395   8.398 -0.0111  0.7899  1.2145
  450MOL0     H62085  10.717  11.193   8.237 -0.2166  0.3816  0.9169
  450MOL0     H62086  10.688  10.978   7.853 -2.0423  1.6056 -1.6958
  450MOL0     H62087  10.699  10.770   7.728 -1.1706  0.9594 -0.1997
  450MOL0     H62088  10.667  10.409   7.652  1.3404 -0.8864 -1.9416
  450MOL0     H62089  10.707  10.585   7.638 -1.2912  2.5630  2.9755
  450MOL0     H62090  10.865  10.561   7.833  2.1437 -1.0399  0.0399
  450MOL0     H62091  10.895  10.472   7.692  0.4866  1.3627  0.6941
  450MOL0     H62092  10.845  10.266   7.819  0.0798  0.3809  0.7573
  450MOL0     H62093  10.932  10.358   7.930  1.3186 -1.6620  0.0390
  450MOL0     H62094  10.637  10.311   7.957 -0.7863  1.9496  0.6243
  450MOL0     H62095  10.727  10.427   8.062 -0.4320 -0.4961  0.8200
  450MOL0     H62096  10.866  10.073   8.221 -3.0597 -2.1539  1.8760
  450MOL0     H62097  10.418  10.595   7.997  1.5509 -1.3244  1.8364
  450MOL0     H62098  10.348  10.879   8.181 -3.3043 -0.6143 -0.0814
  450MOL0     H62099  10.271  10.739   8.106 -0.5303 -1.5708 -0.5006
  450MOL0     H62100  10.399  10.713   8.220 -1.5317 -0.0872  0.2445
  451MOL0     O62101   5.132  10.489   3.988  0.0686 -0.2154 -0.0431
  451MOL0     C62102   5.234  10.420   4.007  0.7623  0.2516  0.1081
  451MOL0     O62103   5.312  10.363   3.912 -0.2715 -0.1099 -0.3235
  451MOL0     C62104   5.294  10.383   3.779  0.4611 -0.3416 -0.5595
  451MOL0     C62105   5.304  10.515   3.716 -0.5134  0.2572 -0.5209
  451MOL0     C62106   5.293  10.525   3.580 -0.3994  0.2404 -0.7980
  451MOL0     C62107   5.287  10.419   3.499 -0.1483  0.2527  0.2438
  451MOL0     O62108   5.284  10.437   3.362 -0.6159  0.6472  0.4965
  451MOL0     C62109   5.206  10.336   3.288 -0.2662  0.3098  0.9432
  451MOL0     C62110   5.182  10.373   3.143 -0.3911 -0.1970 -0.2064
  451MOL0     C62111   5.083  10.492   3.115 -0.6457 -0.3467 -0.1141
  451MOL0     C62112   5.033  10.504   2.975 -0.0393 -0.9569 -0.5247
  451MOL0     C62113   4.974  10.645   2.965  0.2795 -0.0899  0.1557
  451MOL0     C62114   4.894  10.659   2.838 -0.1452  0.0491  0.1689
  451MOL0     C62115   4.841  10.808   2.821 -0.1189 -0.1494  0.2134
  451MOL0     C62116   4.777  10.816   2.683  1.5523 -0.3993  1.1399
  451MOL0     N62117   4.720  10.950   2.663  0.4086  0.6390 -0.0140
  451MOL0     C62118   4.742  11.027   2.559  0.6614 -0.1891  0.5345
  451MOL0     C62119   4.661  11.131   2.575 -0.3169  0.0266 -0.2301
  451MOL0     C62120   4.648  11.256   2.493 -0.7322 -0.7839 -0.5443
  451MOL0     C62121   4.539  11.240   2.392 -0.7405  0.5258  0.2695
  451MOL0     C62122   4.575  11.167   2.252  0.6248 -0.4913  0.4894
  451MOL0     C62123   4.714  11.199   2.182  0.6157 -0.3752 -1.0688
  451MOL0     O62124   4.710  11.145   2.046  0.0147  0.2714 -0.4331
  451MOL0     C62125   4.716  11.016   2.011  0.5697  0.3282 -0.3404
  451MOL0     C62126   4.697  10.974   1.880  0.2606  0.8471 -0.5616
  451MOL0     C62127   4.689  10.842   1.849 -0.5270 -0.3040  0.6658
  451MOL0     C62128   4.660  10.800   1.707  0.3192  0.7186  0.1080
  451MOL0     C62129   4.704  10.741   1.946  0.5718 -0.5859 -0.5457
  451MOL0     C62130   4.691  10.598   1.924  0.4353  0.5554  0.3901
  451MOL0     O62131   4.628  10.528   2.017  0.0618  1.0317  0.3434
  451MOL0     C62132   4.561  10.410   1.992 -0.4363  0.3463 -0.0310
  451MOL0     C62133   4.559  10.325   1.872 -0.2099 -0.0789 -1.0172
  451MOL0     C62134   4.488  10.204   1.865 -0.0711  0.4922 -0.4792
  451MOL0     C62135   4.420  10.155   1.974  0.5796  0.4458  0.0922
  451MOL0     O62136   4.343  10.044   1.956  0.5005 -0.1259  0.7980
  451MOL0     C62137   4.249   9.993   2.045 -0.6207  0.3051  0.4180
  451MOL0     C62138   4.193   9.864   1.991 -1.0820  0.1013 -0.3379
  451MOL0     C62139   4.304   9.766   1.961  0.1881 -0.2021  0.2634
  451MOL0     C62140   4.235   9.623   1.950  0.1748 -0.0424 -0.3123
  451MOL0     C62141   4.331   9.503   1.921 -0.6558  0.9111 -0.6448
  451MOL0     C62142   4.417   9.479   2.048  0.0083  0.6143  0.3876
  451MOL0     C62143   4.340   9.409   2.155  0.3280  0.0839  0.3475
  451MOL0     C62144   4.423   9.373   2.278 -0.7553  0.5732 -0.0199
  451MOL0    Cl62145   4.505   9.215   2.253  0.3256  0.1135 -0.0101
  451MOL0     C62146   4.429  10.228   2.091 -0.6550 -0.3372 -0.2996
  451MOL0     C62147   4.500  10.343   2.109  0.1360  0.4000  0.2073
  451MOL0     O62148   4.752  10.545   1.828 -0.8361  0.6872 -0.1960
  451MOL0     C62149   4.715  10.783   2.084  0.3766  0.1211  0.0901
  451MOL0     C62150   4.728  10.914   2.108  0.2672 -0.1635  0.2153
  451MOL0     N62151   4.584  11.114   2.686  0.5625 -0.4182 -0.0882
  451MOL0     N62152   4.621  10.999   2.736 -0.5291  0.0837  0.4049
  451MOL0     C62153   5.284  10.286   3.559 -0.5104 -0.3687  0.7140
  451MOL0     C62154   5.274  10.273   3.700 -1.1448 -0.6046  0.2894
  451MOL0     C62155   5.256  10.385   4.155  0.2620 -0.2081  0.3230
  451MOL0     C62156   5.146  10.358   4.239  0.5148  0.3837  1.4972
  451MOL0     C62157   5.160  10.341   4.376  0.3063 -0.5718 -0.4963
  451MOL0     C62158   5.284  10.352   4.438  0.0990  0.4421  0.4251
  451MOL0     O62159   5.277  10.327   4.567  0.6445 -0.1782 -0.2437
  451MOL0     C62160   5.384  10.369   4.654  0.1287  1.2403  0.3030
  451MOL0     C62161   5.506  10.275   4.663 -0.1688  0.0472  0.4605
  451MOL0     C62162   5.630  10.340   4.735 -0.0225 -0.2782 -0.3063
  451MOL0     C62163   5.755  10.246   4.724  0.1497  0.0183  0.5863
  451MOL0     C62164   5.724  10.106   4.772  0.2945 -0.6814  0.1224
  451MOL0     C62165   5.695   9.990   4.810  0.6113 -0.6969 -0.2952
  451MOL0     C62166   5.390  10.378   4.358  0.1170  0.3398  0.3294
  451MOL0     C62167   5.384  10.398   4.214  0.3547  0.6036 -0.4412
  451MOL0     C62168   5.510  10.431   4.143 -0.2267 -0.3839  0.1558
  451MOL0     H62169   5.322  10.601   3.780 -1.3639  0.1451 -0.1151
  451MOL0     H62170   5.291  10.619   3.524 -3.4282  0.0053 -1.2636
  451MOL0     H62171   5.108  10.327   3.338  0.3063 -0.2571  2.0052
  451MOL0     H62172   5.252  10.237   3.284 -1.0091  0.0119 -0.7644
  451MOL0     H62173   5.280  10.405   3.108 -2.0585  1.0061 -4.4958
  451MOL0     H62174   5.158  10.284   3.083 -0.5920 -0.0267 -0.3826
  451MOL0     H62175   5.006  10.483   3.192  0.2132 -0.8126  0.7130
  451MOL0     H62176   5.137  10.582   3.146 -0.0626 -0.5856 -0.4195
  451MOL0     H62177   5.127  10.498   2.920  3.0731  1.2840  3.9257
  451MOL0     H62178   4.966  10.422   2.946 -1.5488 -0.1973  0.6709
  451MOL0     H62179   5.059  10.713   2.971  1.6666 -1.4311 -2.5325
  451MOL0     H62180   4.899  10.675   3.039 -1.8471 -1.3738 -1.3546
  451MOL0     H62181   4.972  10.650   2.762  0.6792  2.2098  0.6792
  451MOL0     H62182   4.817  10.582   2.828 -1.1850  1.2325 -1.4444
  451MOL0     H62183   4.916  10.888   2.824 -1.7161  1.4153 -0.0368
  451MOL0     H62184   4.758  10.826   2.890  1.4181 -0.0276  2.1558
  451MOL0     H62185   4.848  10.801   2.601  0.7025  1.3366  0.0212
  451MOL0     H62186   4.693  10.749   2.664  1.0985  0.1913  1.0392
  451MOL0     H62187   4.810  11.003   2.477  1.2734  0.3974  0.8618
  451MOL0     H62188   4.744  11.283   2.447 -0.5075 -2.1188 -0.9014
  451MOL0     H62189   4.624  11.337   2.562 -0.3023  0.5746 -1.9309
  451MOL0     H62190   4.458  11.184   2.440  0.2209 -0.0294  1.2796
  451MOL0     H62191   4.496  11.339   2.380  0.6661  1.2354  0.8193
  451MOL0     H62192   4.571  11.058   2.263 -3.6421 -0.4295  1.4334
  451MOL0     H62193   4.493  11.181   2.180  0.1536  2.5119  1.4612
  451MOL0     H62194   4.715  11.309   2.180 -0.3845 -0.2678  1.0357
  451MOL0     H62195   4.801  11.162   2.236  0.3438 -0.6261 -0.7987
  451MOL0     H62196   4.679  11.055   1.810 -0.6163  0.5840 -0.6584
  451MOL0     H62197   4.749  10.784   1.645 -0.9645  0.9191 -1.8511
  451MOL0     H62198   4.598  10.875   1.659 -0.4659 -1.2780 -2.2410
  451MOL0     H62199   4.615  10.700   1.704  0.7777  0.5288 -1.1597
  451MOL0     H62200   4.610  10.360   1.783 -0.4502  2.2631 -0.3237
  451MOL0     H62201   4.473  10.146   1.774 -0.4408  1.5421 -1.1109
  451MOL0     H62202   4.290   9.975   2.145 -1.9480  3.1513  1.6146
  451MOL0     H62203   4.165  10.063   2.039 -2.1999 -1.5751 -1.1115
  451MOL0     H62204   4.125   9.831   2.070  0.8086 -2.8286  0.2399
  451MOL0     H62205   4.152   9.873   1.891  0.5583  2.6741 -0.8816
  451MOL0     H62206   4.383   9.777   2.036 -0.1448  1.0169  0.4588
  451MOL0     H62207   4.346   9.797   1.865 -0.6756  0.0007 -0.0568
  451MOL0     H62208   4.167   9.631   1.865 -1.9361 -0.2859  1.2722
  451MOL0     H62209   4.168   9.603   2.034 -0.2198  0.7665 -0.4336
  451MOL0     H62210   4.286   9.405   1.903  5.0818 -2.6129  1.6241
  451MOL0     H62211   4.393   9.532   1.836 -0.1850  1.0294 -0.2642
  451MOL0     H62212   4.460   9.574   2.081 -1.5234  0.9230  1.5771
  451MOL0     H62213   4.499   9.412   2.021  1.7410  1.1943  3.7068
  451MOL0     H62214   4.291   9.320   2.116  2.8582 -0.5073 -1.7327
  451MOL0     H62215   4.252   9.463   2.192  0.8723 -0.6258  2.8921
  451MOL0     H62216   4.360   9.376   2.367  2.7676 -1.3961  2.7977
  451MOL0     H62217   4.495   9.454   2.295 -3.0161  2.2119  2.5067
  451MOL0     H62218   4.379  10.191   2.180 -1.4085  0.5000 -0.3594
  451MOL0     H62219   4.503  10.397   2.203 -2.8199 -0.1781  0.7221
  451MOL0     H62220   4.706  10.713   2.166  0.1762  1.9677  1.6942
  451MOL0     H62221   4.735  10.946   2.211  0.6207 -2.8861  1.1271
  451MOL0     H62222   5.288  10.195   3.500  1.8309  0.3474 -0.3336
  451MOL0     H62223   5.276  10.178   3.752 -1.8704 -1.1262 -0.6083
  451MOL0     H62224   5.044  10.357   4.200  0.2845 -0.1911  2.1012
  451MOL0     H62225   5.075  10.310   4.435  1.0171 -2.2154 -0.2727
  451MOL0     H62226   5.426  10.469   4.639  1.5268  0.7632  0.8307
  451MOL0     H62227   5.332  10.371   4.750 -2.8893 -0.6128 -1.1611
  451MOL0     H62228   5.540  10.240   4.566  0.4050  3.4634 -0.6988
  451MOL0     H62229   5.470  10.187   4.718 -2.1816  1.1727  1.0512
  451MOL0     H62230   5.638  10.438   4.687 -0.8908 -0.4709 -0.8820
  451MOL0     H62231   5.611  10.350   4.842 -2.0431 -1.1950 -0.5237
  451MOL0     H62232   5.845  10.293   4.765  0.2956  2.7885 -2.5207
  451MOL0     H62233   5.766  10.237   4.616 -3.8053 -0.6059  0.0830
  451MOL0     H62234   5.684   9.886   4.836  4.4134 -0.9861  0.7397
  451MOL0     H62235   5.487  10.387   4.405 -1.0670  2.8051  2.5519
  451MOL0     H62236   5.532  10.538   4.134  1.7858 -0.9224 -2.9200
  451MOL0     H62237   5.598  10.387   4.190 -0.9271  0.4331  2.3857
  451MOL0     H62238   5.497  10.394   4.041  3.2975 -1.0148 -0.1988
  452MOL0     O62239   7.013   1.179   8.981 -0.1166 -0.1988 -0.7868
  452MOL0     C62240   7.084   1.255   8.922 -0.1583 -0.4780  0.4354
  452MOL0     O62241   7.157   1.226   8.809 -0.6723 -0.5167  0.0461
  452MOL0     C62242   7.161   1.098   8.771 -0.2621  0.2846 -0.3487
  452MOL0     C62243   7.221   0.988   8.838  0.0862 -2.1019  0.1096
  452MOL0     C62244   7.243   0.868   8.789 -0.2311  0.3801  1.2669
  452MOL0     C62245   7.208   0.849   8.654 -0.3240  0.5857 -0.6861
  452MOL0     O62246   7.222   0.732   8.598 -0.2178 -0.1604  0.1022
  452MOL0     C62247   7.299   0.715   8.481 -0.2794 -0.5756  0.6585
  452MOL0     C62248   7.334   0.567   8.478  0.2333 -0.1742 -1.0236
  452MOL0     C62249   7.401   0.520   8.606 -0.5326 -0.4043 -0.5347
  452MOL0     C62250   7.428   0.372   8.592  0.8936  1.1939 -0.3175
  452MOL0     C62251   7.489   0.302   8.723  0.2383 -0.7012  0.0515
  452MOL0     C62252   7.480   0.155   8.710 -0.1795 -1.3277  0.6426
  452MOL0     C62253   7.577   0.077   8.786 -0.6932  1.1156 -0.2001
  452MOL0     C62254   7.531  -0.072   8.796  0.4611 -0.4653  0.1723
  452MOL0     N62255   7.600  -0.151   8.894  0.1029  0.7458 -0.1507
  452MOL0     C62256   7.736  -0.193   8.895 -0.7066  0.3606  0.7245
  452MOL0     C62257   7.749  -0.264   9.012  0.2256  0.4271  0.5691
  452MOL0     C62258   7.881  -0.329   9.058  0.0816  0.2992  0.5232
  452MOL0     C62259   7.874  -0.408   9.190 -1.2761 -0.0613 -0.4676
  452MOL0     C62260   7.873  -0.561   9.171 -0.4611 -0.4831 -0.9178
  452MOL0     C62261   7.873  -0.634   9.303 -0.6923 -0.2208  0.4030
  452MOL0     O62262   7.909  -0.775   9.281 -0.4455 -0.1491  1.0277
  452MOL0     C62263   7.949  -0.839   9.397 -0.7610  1.0875  0.3770
  452MOL0     C62264   7.932  -0.797   9.532  0.5827 -0.5604  0.0809
  452MOL0     C62265   7.991  -0.863   9.645 -0.6809  0.3301  0.4666
  452MOL0     C62266   7.966  -0.809   9.778 -0.4166 -0.1138 -1.1204
  452MOL0     C62267   8.052  -0.991   9.620  0.2593  0.8694  1.2420
  452MOL0     C62268   8.095  -1.080   9.728 -0.3403 -0.8358  0.4180
  452MOL0     O62269   8.042  -1.210   9.725 -0.1425 -0.6779 -0.4035
  452MOL0     C62270   8.091  -1.297   9.821 -0.4369  0.3226 -0.7917
  452MOL0     C62271   8.151  -1.419   9.773 -0.6265 -0.2397  0.6697
  452MOL0     C62272   8.181  -1.524   9.863  0.2342 -0.7860 -0.6157
  452MOL0     C62273   8.149  -1.515   9.997 -0.5313  0.4318  0.4864
  452MOL0     O62274   8.173  -1.626  10.069 -0.0464  0.5414 -0.3703
  452MOL0     C62275   8.225  -1.611  10.203  0.8693  0.3268  0.5492
  452MOL0     C62276   8.372  -1.552  10.194  0.1531 -0.3825 -0.4003
  452MOL0     C62277   8.426  -1.552  10.341  0.3428 -1.1695  0.3024
  452MOL0     C62278   8.582  -1.529  10.358  0.0544  0.4455  0.1987
  452MOL0     C62279   8.626  -1.548  10.499  0.5084 -0.1405 -0.9174
  452MOL0     C62280   8.618  -1.698  10.542 -0.7702  0.6128 -1.3719
  452MOL0     C62281   8.723  -1.737  10.646 -0.0028  0.6587  0.0469
  452MOL0     C62282   8.684  -1.669  10.774 -0.4545 -0.4519  0.3436
  452MOL0    Cl62283   8.783  -1.758  10.909 -0.0327 -0.6048  0.3223
  452MOL0     C62284   8.089  -1.393  10.048  0.5883 -0.8862  1.2526
  452MOL0     C62285   8.057  -1.289   9.956 -0.5009 -0.3977 -0.0652
  452MOL0     O62286   8.169  -1.031   9.810  0.1089 -0.0341 -0.4858
  452MOL0     C62287   8.064  -1.045   9.485 -0.0265 -0.2417 -0.6584
  452MOL0     C62288   8.020  -0.962   9.382 -0.1031  0.2248  0.2572
  452MOL0     N62289   7.626  -0.272   9.066  0.6914  0.1486  0.0042
  452MOL0     N62290   7.535  -0.212   9.000  0.3664  0.3900 -0.1737
  452MOL0     C62291   7.157   0.946   8.578  0.3241 -0.4962  0.3884
  452MOL0     C62292   7.138   1.071   8.632 -0.5062 -1.0022  0.0914
  452MOL0     C62293   7.095   1.395   8.970 -0.0555  0.3220 -0.6392
  452MOL0     C62294   7.157   1.488   8.893 -0.1621 -0.2222 -0.0885
  452MOL0     C62295   7.166   1.614   8.932  0.3555 -0.9865 -0.6841
  452MOL0     C62296   7.103   1.661   9.048 -1.0310 -0.4333 -0.4880
  452MOL0     O62297   7.093   1.797   9.074  0.1568 -0.1462  0.6815
  452MOL0     C62298   7.178   1.834   9.181 -0.6155  0.0499 -0.1007
  452MOL0     C62299   7.144   1.972   9.234  0.1092 -0.7085  0.3967
  452MOL0     C62300   7.003   1.958   9.309 -0.2423 -0.4660  0.5150
  452MOL0     C62301   6.933   2.080   9.368  0.1526  0.6649 -0.0145
  452MOL0     C62302   6.905   2.174   9.264 -0.1145  0.4223 -0.0560
  452MOL0     C62303   6.869   2.241   9.168 -0.3919 -0.6133  0.1777
  452MOL0     C62304   7.038   1.578   9.131  0.1159  0.7334 -0.1282
  452MOL0     C62305   7.025   1.440   9.093 -0.9180  0.7385  0.2798
  452MOL0     C62306   6.969   1.345   9.197 -0.0617 -0.0592  0.2482
  452MOL0     H62307   7.250   1.005   8.941  2.6400 -2.5734 -0.4675
  452MOL0     H62308   7.274   0.782   8.848 -3.0124 -2.8504 -1.5073
  452MOL0     H62309   7.385   0.783   8.482  2.5002 -3.6872 -1.6787
  452MOL0     H62310   7.249   0.745   8.388 -0.3458  1.8710  1.4034
  452MOL0     H62311   7.232   0.528   8.470  0.3377 -0.5849 -0.3755
  452MOL0     H62312   7.382   0.529   8.387 -1.6171 -0.4563 -1.9254
  452MOL0     H62313   7.495   0.574   8.620 -1.5311  1.7552 -1.6517
  452MOL0     H62314   7.347   0.540   8.699 -3.3729 -0.2455 -2.0976
  452MOL0     H62315   7.334   0.330   8.556  0.3735  3.6893 -2.1344
  452MOL0     H62316   7.490   0.348   8.505  0.5271  0.0984 -0.2936
  452MOL0     H62317   7.436   0.339   8.812  0.4940 -0.3271  0.0535
  452MOL0     H62318   7.591   0.336   8.740 -0.7258  1.9134  1.2623
  452MOL0     H62319   7.381   0.121   8.742  0.3800 -3.6896  0.1112
  452MOL0     H62320   7.500   0.124   8.607 -2.3688 -1.0659  0.0911
  452MOL0     H62321   7.572   0.118   8.887  0.0859  2.8575 -0.8340
  452MOL0     H62322   7.680   0.092   8.752 -0.3073 -3.1384 -1.4233
  452MOL0     H62323   7.424  -0.069   8.816  0.0701  3.1142 -1.6667
  452MOL0     H62324   7.534  -0.124   8.701  0.0821  0.4090 -0.3328
  452MOL0     H62325   7.816  -0.166   8.827 -0.0098 -0.2042  1.3112
  452MOL0     H62326   7.951  -0.245   9.064 -0.4832  0.8646 -0.6373
  452MOL0     H62327   7.919  -0.393   8.978 -0.9474  1.2373 -0.7604
  452MOL0     H62328   7.953  -0.385   9.261 -1.0601  1.5506 -1.1964
  452MOL0     H62329   7.783  -0.371   9.239  0.0467  0.0477  2.0818
  452MOL0     H62330   7.782  -0.581   9.113 -1.9994 -1.2385  1.5913
  452MOL0     H62331   7.965  -0.579   9.115 -0.1545  1.5320 -1.1390
  452MOL0     H62332   7.947  -0.579   9.363  0.2481 -1.4234  0.3976
  452MOL0     H62333   7.773  -0.616   9.344 -1.6188  0.9205 -2.1935
  452MOL0     H62334   7.856  -0.720   9.542  1.1243  0.4487 -2.7197
  452MOL0     H62335   7.914  -0.713   9.782 -0.7721 -0.3316  0.4267
  452MOL0     H62336   8.063  -0.785   9.823 -2.2059  0.8406  2.7268
  452MOL0     H62337   7.917  -0.876   9.849 -0.2312  1.3037  0.4143
  452MOL0     H62338   8.162  -1.424   9.665  0.8047 -1.6794  0.8408
  452MOL0     H62339   8.235  -1.613   9.830 -0.3798 -1.4536  0.1376
  452MOL0     H62340   8.157  -1.548  10.260 -0.6257 -0.2652 -0.5275
  452MOL0     H62341   8.228  -1.707  10.255 -0.1090  0.2112  0.4066
  452MOL0     H62342   8.421  -1.616  10.121 -1.8146 -2.8215  0.2842
  452MOL0     H62343   8.364  -1.449  10.157 -2.6568 -0.5660 -0.5446
  452MOL0     H62344   8.414  -1.651  10.387  0.5160 -0.7638  1.2499
  452MOL0     H62345   8.369  -1.478  10.398 -1.5353  0.4282 -3.3270
  452MOL0     H62346   8.611  -1.430  10.321 -1.1125  0.3790 -0.9907
  452MOL0     H62347   8.646  -1.602  10.307  1.4379  0.5972  1.6602
  452MOL0     H62348   8.728  -1.513  10.517 -0.4316  2.4126 -0.1333
  452MOL0     H62349   8.556  -1.485  10.554  0.1736 -0.1214 -1.3579
  452MOL0     H62350   8.634  -1.763  10.455  1.0408  0.9864 -1.3673
  452MOL0     H62351   8.525  -1.724  10.593  0.0630  1.2877  0.5620
  452MOL0     H62352   8.824  -1.710  10.615 -0.2585  0.2369 -1.2398
  452MOL0     H62353   8.721  -1.846  10.652  1.1706  0.2478 -4.1288
  452MOL0     H62354   8.582  -1.687  10.808 -0.1038 -0.4100  1.4473
  452MOL0     H62355   8.714  -1.563  10.769  0.4434 -0.7180 -0.1339
  452MOL0     H62356   8.049  -1.404  10.149  0.9999 -0.5898  1.4532
  452MOL0     H62357   7.982  -1.216   9.986  1.4205  0.9275  1.8287
  452MOL0     H62358   8.113  -1.137   9.457  4.6098  1.2167  1.6897
  452MOL0     H62359   8.027  -0.999   9.280 -0.8523 -0.5095  0.4617
  452MOL0     H62360   7.123   0.919   8.479 -0.6123  0.4557  0.4339
  452MOL0     H62361   7.091   1.153   8.578  3.3794  2.1038  0.9225
  452MOL0     H62362   7.204   1.460   8.799  0.7424 -1.5872  0.7294
  452MOL0     H62363   7.215   1.693   8.877  1.9049 -0.9987  0.5818
  452MOL0     H62364   7.186   1.764   9.265  1.0606  0.2566 -0.0688
  452MOL0     H62365   7.277   1.839   9.136  0.0575  1.2498  1.4640
  452MOL0     H62366   7.132   2.043   9.151 -1.6317 -2.1966 -0.7178
  452MOL0     H62367   7.218   2.013   9.304 -1.2313  1.4219  0.6691
  452MOL0     H62368   6.934   1.909   9.241 -0.5385  1.0731 -0.3463
  452MOL0     H62369   7.012   1.881   9.386  1.2032  1.4110  2.3469
  452MOL0     H62370   6.990   2.133   9.445 -1.1092 -1.7420  2.7645
  452MOL0     H62371   6.837   2.052   9.410  0.4714  1.6904  1.4778
  452MOL0     H62372   6.841   2.290   9.077 -0.6476 -0.6571  0.2315
  452MOL0     H62373   7.003   1.614   9.228  3.1921 -4.4193  3.4229
  452MOL0     H62374   6.897   1.273   9.156 -0.1260  1.0046 -1.5902
  452MOL0     H62375   7.043   1.295   9.260 -0.8165 -1.3671  0.1409
  452MOL0     H62376   6.916   1.407   9.269  0.5444  0.0972  0.5620
  453MOL0     O62377   0.972   8.920   9.191 -0.0065 -0.3173  0.0990
  453MOL0     C62378   0.929   8.804   9.209 -0.2316  0.3511  0.1988
  453MOL0     O62379   0.906   8.753   9.333  1.3170 -0.0268 -0.1018
  453MOL0     C62380   0.926   8.836   9.444 -0.7054  0.2716  0.2905
  453MOL0     C62381   1.054   8.855   9.486 -0.1938  0.8522  0.2576
  453MOL0     C62382   1.080   8.923   9.604  0.4537  0.2590 -0.6692
  453MOL0     C62383   0.978   8.989   9.671 -0.3239 -0.1719 -0.2877
  453MOL0     O62384   1.015   9.084   9.761 -0.4762 -0.0454 -0.1640
  453MOL0     C62385   1.123   9.050   9.842 -1.0012  0.5559  0.7820
  453MOL0     C62386   1.105   9.133   9.969 -0.0089  0.8101  0.2439
  453MOL0     C62387   1.097   9.286   9.963  0.4432  0.4011  0.7109
  453MOL0     C62388   1.115   9.346  10.108 -0.2192 -0.6485  0.4826
  453MOL0     C62389   1.131   9.500  10.095 -0.5730  0.0044  0.4126
  453MOL0     C62390   1.206   9.554  10.215  0.0656 -0.4798  0.4293
  453MOL0     C62391   1.264   9.698  10.191 -0.1607  0.3684  0.7865
  453MOL0     C62392   1.154   9.805  10.173  0.4143 -0.3050 -0.7200
  453MOL0     N62393   1.082   9.820  10.304 -0.8295  0.1522  0.3450
  453MOL0     C62394   0.960   9.783  10.331  0.2770  0.7568  0.0976
  453MOL0     C62395   0.945   9.782  10.466 -0.4257  0.1114  0.8914
  453MOL0     C62396   0.823   9.741  10.535  0.1640  0.0088  0.1385
  453MOL0     C62397   0.818   9.591  10.569 -0.9218  0.5698 -0.0337
  453MOL0     C62398   0.841   9.482  10.458 -1.1621 -0.5590 -0.1292
  453MOL0     C62399   0.741   9.489  10.356  0.3036  0.0581  0.8589
  453MOL0     O62400   0.779   9.390  10.258  0.3605 -0.2262 -0.2835
  453MOL0     C62401   0.727   9.257  10.276 -1.1197  0.0697  0.0677
  453MOL0     C62402   0.746   9.179  10.162  0.7443 -0.1525  0.5609
  453MOL0     C62403   0.701   9.046  10.148  0.5540 -0.4759  0.0702
  453MOL0     C62404   0.751   8.977  10.025  0.1122 -0.4642  1.1871
  453MOL0     C62405   0.617   8.998  10.250 -0.0548  0.4558 -0.1635
  453MOL0     C62406   0.550   8.866  10.237  0.1910  0.4047 -0.5316
  453MOL0     O62407   0.543   8.811  10.114 -0.0721 -0.0388 -0.9703
  453MOL0     C62408   0.448   8.707  10.107 -0.1778 -0.1708 -0.0242
  453MOL0     C62409   0.475   8.583  10.171  0.2421 -0.6573 -0.7899
  453MOL0     C62410   0.389   8.478  10.161 -0.4381  1.4287  0.3732
  453MOL0     C62411   0.267   8.490  10.079  0.1780  0.5848  0.0831
  453MOL0     O62412   0.172   8.391  10.044 -0.2505 -0.2480 -0.2745
  453MOL0     C62413   0.196   8.261  10.097  0.4252 -0.8246  0.0782
  453MOL0     C62414   0.079   8.178  10.058  0.9977  0.1585  0.9860
  453MOL0     C62415  -0.064   8.217  10.093  0.1792  0.5776 -0.2375
  453MOL0     C62416  -0.166   8.110  10.049 -0.0271 -0.7236  0.0889
  453MOL0     C62417  -0.200   8.109   9.908  0.3223 -0.0627  1.1487
  453MOL0     C62418  -0.322   8.018   9.883  0.2110 -0.7716 -0.6349
  453MOL0     C62419  -0.391   8.038   9.751 -0.1416  0.3033 -0.8094
  453MOL0     C62420  -0.473   7.918   9.717  0.7228  0.3991 -0.1230
  453MOL0    Cl62421  -0.605   7.918   9.842  0.1237 -0.3692 -0.2660
  453MOL0     C62422   0.248   8.604  10.012 -0.9442  0.2412 -0.5679
  453MOL0     C62423   0.333   8.715  10.032  0.2436 -0.6359  0.2977
  453MOL0     O62424   0.485   8.824  10.335  0.6028  0.2850 -0.4523
  453MOL0     C62425   0.604   9.074  10.362  0.5126 -0.4189 -0.8180
  453MOL0     C62426   0.660   9.199  10.378  0.9556 -0.9710 -0.6410
  453MOL0     N62427   1.064   9.835  10.517 -0.4428  0.0004 -0.3297
  453MOL0     N62428   1.150   9.866  10.418 -0.3241 -0.5805  0.0836
  453MOL0     C62429   0.846   8.967   9.622  0.6120 -0.0165  0.9051
  453MOL0     C62430   0.822   8.892   9.506  0.6384 -0.0639 -0.0856
  453MOL0     C62431   0.910   8.700   9.106 -0.0858 -0.4731  0.0708
  453MOL0     C62432   0.923   8.562   9.139 -0.5182 -0.1897 -0.1259
  453MOL0     C62433   0.887   8.469   9.044 -0.5950 -0.4830  1.1262
  453MOL0     C62434   0.862   8.499   8.905  0.8671 -0.3835 -1.1016
  453MOL0     O62435   0.809   8.408   8.814 -0.4415  0.4099  0.3382
  453MOL0     C62436   0.856   8.272   8.816  0.0386  0.2879  0.4923
  453MOL0     C62437   0.837   8.201   8.676 -0.4794 -0.8763  0.0671
  453MOL0     C62438   0.928   8.249   8.565  0.3996 -0.0872 -0.3630
  453MOL0     C62439   0.890   8.189   8.431  1.0266  0.3843  0.0173
  453MOL0     C62440   0.894   8.046   8.444 -0.4633 -0.5911 -0.1277
  453MOL0     C62441   0.904   7.931   8.448  0.7151 -0.4612  0.0140
  453MOL0     C62442   0.851   8.640   8.877 -0.0832  0.1192 -0.2869
  453MOL0     C62443   0.870   8.738   8.971 -1.1167 -0.5491  0.2351
  453MOL0     C62444   0.849   8.883   8.933  0.4036 -0.4979 -0.9927
  453MOL0     H62445   1.128   8.792   9.438 -0.4745  0.6906  0.0264
  453MOL0     H62446   1.186   8.929   9.629  0.5255  1.8370 -1.2884
  453MOL0     H62447   1.220   9.076   9.799 -1.1352  0.5107  0.4450
  453MOL0     H62448   1.121   8.943   9.866 -1.3667 -0.2090 -2.2424
  453MOL0     H62449   1.017   9.093  10.019 -1.1739  1.6407 -1.0841
  453MOL0     H62450   1.198   9.119  10.027  2.1002 -0.4553 -3.1445
  453MOL0     H62451   1.169   9.322   9.889 -0.6375 -2.2720 -1.8329
  453MOL0     H62452   0.999   9.315   9.925 -1.0034 -3.2790  1.2109
  453MOL0     H62453   1.035   9.313  10.174 -2.0999 -0.1324 -1.4217
  453MOL0     H62454   1.203   9.298  10.151 -1.3046 -2.5631  0.6327
  453MOL0     H62455   1.031   9.543  10.085 -1.0559 -0.7856  1.6553
  453MOL0     H62456   1.190   9.517  10.004 -0.9506 -1.5035 -0.1339
  453MOL0     H62457   1.132   9.549  10.295  0.8808  1.3273  1.3623
  453MOL0     H62458   1.302   9.502  10.230  0.1048 -0.0897  1.6582
  453MOL0     H62459   1.322   9.686  10.099  0.3794 -1.1574  1.2933
  453MOL0     H62460   1.333   9.728  10.271 -0.7312 -0.1625  1.4913
  453MOL0     H62461   1.195   9.890  10.118 -1.0452 -1.6852 -4.2682
  453MOL0     H62462   1.078   9.774  10.101  0.1000  0.0545 -0.5457
  453MOL0     H62463   0.884   9.758  10.259  2.2418  1.3752 -2.3289
  453MOL0     H62464   0.741   9.758  10.465  1.1448 -1.1043 -1.3603
  453MOL0     H62465   0.799   9.791  10.629  0.6482 -1.2078  0.9357
  453MOL0     H62466   0.907   9.579  10.631  0.5588  0.4077 -2.0818
  453MOL0     H62467   0.722   9.567  10.616 -2.4479 -0.3878 -3.3272
  453MOL0     H62468   0.942   9.500  10.421 -0.3428  2.0918  2.9739
  453MOL0     H62469   0.834   9.382  10.502 -1.8004 -0.3823  0.1714
  453MOL0     H62470   0.642   9.465  10.396 -0.3455  0.7285 -0.2897
  453MOL0     H62471   0.737   9.591  10.315 -1.5947  0.3307  1.5907
  453MOL0     H62472   0.802   9.211  10.074  0.4526 -2.6333 -0.6209
  453MOL0     H62473   0.666   8.961   9.958  0.6771 -0.3574  0.4362
  453MOL0     H62474   0.796   8.882  10.053 -1.1669 -2.4900 -2.8894
  453MOL0     H62475   0.833   9.027   9.973 -1.0658  0.2152 -0.1002
  453MOL0     H62476   0.563   8.581  10.234  1.6565  0.1398 -2.6291
  453MOL0     H62477   0.416   8.389  10.216  2.6084  1.6663 -0.5141
  453MOL0     H62478   0.298   8.226  10.082  1.2878 -0.3663  3.7874
  453MOL0     H62479   0.184   8.280  10.204  2.3147  1.7510 -0.0953
  453MOL0     H62480   0.078   8.164   9.949  1.3568  0.8348  0.8930
  453MOL0     H62481   0.092   8.076  10.096  0.1619  0.7294  2.8881
  453MOL0     H62482  -0.093   8.317  10.060 -1.4935 -0.2766 -1.5343
  453MOL0     H62483  -0.073   8.227  10.201 -2.7895 -0.1525 -0.3386
  453MOL0     H62484  -0.259   8.112  10.105 -1.0964 -1.0663 -1.6063
  453MOL0     H62485  -0.118   8.012  10.061 -0.8440 -1.4305 -1.9333
  453MOL0     H62486  -0.214   8.210   9.869  3.2586 -0.2189 -0.5333
  453MOL0     H62487  -0.110   8.071   9.859  0.6515  0.9936  0.9069
  453MOL0     H62488  -0.395   8.054   9.955  1.3593  1.3864 -0.4836
  453MOL0     H62489  -0.283   7.916   9.891 -3.1639 -1.9989  4.0830
  453MOL0     H62490  -0.326   8.074   9.671  1.1364  1.0023  0.4902
  453MOL0     H62491  -0.459   8.124   9.757  2.7041  2.6263  3.9852
  453MOL0     H62492  -0.415   7.825   9.722  1.2427  0.6303 -1.4836
  453MOL0     H62493  -0.516   7.929   9.617 -1.6765  0.1195  0.8258
  453MOL0     H62494   0.162   8.617   9.946 -2.0227  0.1667  0.7683
  453MOL0     H62495   0.304   8.810   9.987  1.7943  0.4614  1.4964
  453MOL0     H62496   0.551   9.030  10.446 -0.6093  1.9159 -0.2145
  453MOL0     H62497   0.655   9.248  10.475 -0.6267 -1.1617 -0.5972
  453MOL0     H62498   0.761   9.001   9.679  0.0984  0.0490  0.1081
  453MOL0     H62499   0.725   8.873   9.462  1.6804 -0.7005 -2.2639
  453MOL0     H62500   0.946   8.545   9.244  1.2386  0.8806 -0.2896
  453MOL0     H62501   0.870   8.368   9.079 -3.6776  0.9730  4.4278
  453MOL0     H62502   0.964   8.267   8.832 -0.1264 -0.5280  1.4600
  453MOL0     H62503   0.810   8.210   8.893  2.0487 -3.0111 -0.7854
  453MOL0     H62504   0.735   8.227   8.647 -0.7537  1.3605  2.6112
  453MOL0     H62505   0.847   8.094   8.695 -0.9082 -0.8560  0.4270
  453MOL0     H62506   0.920   8.358   8.566 -0.0374 -0.1173  0.7822
  453MOL0     H62507   1.030   8.216   8.588  0.5570  1.0215  0.6529
  453MOL0     H62508   0.960   8.225   8.355  1.4058  3.4656  1.6770
  453MOL0     H62509   0.799   8.234   8.392 -0.0294 -2.4741 -1.0302
  453MOL0     H62510   0.905   7.824   8.457 -1.1761 -0.4394  0.8919
  453MOL0     H62511   0.821   8.659   8.775  0.4771  1.1422 -0.2727
  453MOL0     H62512   0.945   8.935   8.934 -0.8095  1.9072 -0.6336
  453MOL0     H62513   0.822   8.894   8.827  2.4340 -2.5963 -1.7980
  453MOL0     H62514   0.774   8.938   8.992 -1.9073 -3.2796 -1.1191
  454MOL0     O62515   7.045   9.212   8.254  0.0997  0.0752  0.4438
  454MOL0     C62516   6.966   9.304   8.280  0.7219 -1.1270  0.5115
  454MOL0     O62517   6.952   9.417   8.203  0.1356 -0.3152 -0.5054
  454MOL0     C62518   7.025   9.414   8.085  0.4786  0.7769  0.0412
  454MOL0     C62519   6.974   9.346   7.971  0.1487 -0.2569  0.7974
  454MOL0     C62520   7.046   9.338   7.856 -0.2046  0.4706  0.3008
  454MOL0     C62521   7.175   9.403   7.857  0.3903  0.8536  0.5952
  454MOL0     O62522   7.240   9.389   7.738 -0.0544  0.4873 -0.4006
  454MOL0     C62523   7.264   9.502   7.671  0.5035  0.2486  0.7789
  454MOL0     C62524   7.329   9.448   7.539  0.6224  0.1768 -0.4625
  454MOL0     C62525   7.385   9.574   7.463  0.6843  0.5801  0.7798
  454MOL0     C62526   7.524   9.618   7.521 -0.3644  0.3577 -0.1300
  454MOL0     C62527   7.566   9.752   7.455  1.4386  0.2519  0.1081
  454MOL0     C62528   7.522   9.880   7.515  0.0090  0.9331  1.0439
  454MOL0     C62529   7.558   9.883   7.665 -0.2388 -0.4197 -1.5830
  454MOL0     C62530   7.579  10.028   7.705 -0.2448 -1.7125 -0.3256
  454MOL0     N62531   7.567  10.048   7.847 -0.5902  0.9564  0.5574
  454MOL0     C62532   7.672  10.079   7.930  0.4696 -0.9407 -0.4473
  454MOL0     C62533   7.609  10.124   8.047 -0.1540 -0.2415 -0.2223
  454MOL0     C62534   7.683  10.168   8.173  0.3898 -1.0758  0.1590
  454MOL0     C62535   7.639  10.313   8.213 -1.0146  0.3727 -0.7292
  454MOL0     C62536   7.655  10.435   8.121 -1.6969 -0.9355  0.2568
  454MOL0     C62537   7.798  10.465   8.090 -0.1166  0.3393 -0.0651
  454MOL0     O62538   7.859  10.501   8.211  1.5226 -1.2600 -0.0782
  454MOL0     C62539   7.998  10.498   8.225  1.0447  0.2266 -0.3719
  454MOL0     C62540   8.059  10.518   8.349 -0.9322 -0.6456 -0.5899
  454MOL0     C62541   8.200  10.541   8.356  0.3652 -0.3079 -1.5801
  454MOL0     C62542   8.251  10.571   8.497 -0.0388 -0.2147 -0.0024
  454MOL0     C62543   8.278  10.511   8.252  0.3548 -0.1669 -0.1343
  454MOL0     C62544   8.422  10.497   8.268  0.0390  0.0108  0.5575
  454MOL0     O62545   8.497  10.607   8.298  0.5166 -0.1777 -0.1355
  454MOL0     C62546   8.632  10.619   8.288 -0.2120 -0.4514 -0.2218
  454MOL0     C62547   8.714  10.536   8.219  0.6227  0.4364 -0.7167
  454MOL0     C62548   8.850  10.560   8.201  0.5473 -0.2012  0.2948
  454MOL0     C62549   8.916  10.657   8.276  0.4417  0.3774  0.3797
  454MOL0     O62550   9.048  10.678   8.247 -0.5887 -0.3313 -0.0254
  454MOL0     C62551   9.119  10.776   8.335 -0.1419  0.6762 -0.4505
  454MOL0     C62552   9.122  10.724   8.489 -0.8227 -0.4268  0.4958
  454MOL0     C62553   9.233  10.633   8.529 -0.1798  0.3017 -0.5953
  454MOL0     C62554   9.389  10.686   8.530  0.9263 -0.2476  1.0700
  454MOL0     C62555   9.494  10.589   8.574  0.6785 -0.1078  0.3352
  454MOL0     C62556   9.473  10.536   8.718  0.5123 -0.2948  0.3264
  454MOL0     C62557   9.569  10.419   8.752 -0.1681  1.0927  0.4088
  454MOL0     C62558   9.612  10.427   8.892  0.6634 -0.1403  0.4282
  454MOL0    Cl62559   9.717  10.565   8.914 -0.5840 -0.4919 -0.2810
  454MOL0     C62560   8.829  10.743   8.344  1.1816  0.1607  0.8793
  454MOL0     C62561   8.692  10.734   8.339 -0.0510 -0.0692  0.6080
  454MOL0     O62562   8.470  10.387   8.241  0.7264 -0.0239 -0.2802
  454MOL0     C62563   8.217  10.482   8.131  0.5561  1.3986 -0.1898
  454MOL0     C62564   8.076  10.483   8.116  0.2484  0.1703  0.0960
  454MOL0     N62565   7.467  10.120   8.019 -0.9935  0.6155  0.0148
  454MOL0     N62566   7.445  10.075   7.903  0.0710  0.6133  0.8335
  454MOL0     C62567   7.217   9.484   7.958 -0.3894 -0.3628 -0.2846
  454MOL0     C62568   7.147   9.479   8.076 -0.7260 -0.2695 -0.0675
  454MOL0     C62569   6.883   9.297   8.393  0.0822 -1.1810  0.7609
  454MOL0     C62570   6.757   9.228   8.380 -0.5450 -0.1025  0.1876
  454MOL0     C62571   6.673   9.204   8.487  0.0838 -0.8173 -0.3708
  454MOL0     C62572   6.709   9.257   8.615  0.1011  0.4125  0.1846
  454MOL0     O62573   6.634   9.243   8.732  1.0321  0.0742 -0.1883
  454MOL0     C62574   6.565   9.117   8.757  0.1124  0.7779 -0.2723
  454MOL0     C62575   6.660   8.997   8.755 -0.4463  0.3515 -0.4781
  454MOL0     C62576   6.764   8.983   8.873  0.1024 -0.2770  0.6496
  454MOL0     C62577   6.719   8.892   8.992 -0.1576 -0.0358 -0.2090
  454MOL0     C62578   6.630   8.970   9.089  0.1180  0.2208 -0.0050
  454MOL0     C62579   6.557   9.031   9.163 -1.1887 -0.3154 -0.5946
  454MOL0     C62580   6.827   9.325   8.628  0.2058  0.4844  0.0506
  454MOL0     C62581   6.914   9.346   8.518  0.4173 -0.1908 -0.4186
  454MOL0     C62582   7.044   9.427   8.544  0.1560  0.0059  0.4759
  454MOL0     H62583   6.880   9.293   7.980  0.3755 -0.5560  1.5166
  454MOL0     H62584   7.015   9.289   7.764  2.9730 -3.4056  1.0067
  454MOL0     H62585   7.331   9.566   7.728  0.6532  0.1534  0.7093
  454MOL0     H62586   7.171   9.556   7.651  0.9209  0.8232  0.3755
  454MOL0     H62587   7.410   9.382   7.568 -0.5664 -0.8434  0.6829
  454MOL0     H62588   7.264   9.394   7.470  1.4296  0.7259 -1.6823
  454MOL0     H62589   7.392   9.538   7.360 -0.5702 -0.2222  0.9404
  454MOL0     H62590   7.313   9.656   7.467  1.1267  0.9540  4.1161
  454MOL0     H62591   7.528   9.629   7.629 -3.9597  3.3388 -0.1285
  454MOL0     H62592   7.594   9.538   7.492 -1.0322  0.2914 -1.6575
  454MOL0     H62593   7.528   9.743   7.352 -0.4047 -1.0180  0.8343
  454MOL0     H62594   7.675   9.752   7.447  1.4039  1.4383 -0.6327
  454MOL0     H62595   7.560   9.966   7.459 -1.0729  0.5381 -0.3460
  454MOL0     H62596   7.414   9.894   7.501  0.0458  1.2040  1.0086
  454MOL0     H62597   7.654   9.839   7.692 -1.3789 -0.6251  2.9965
  454MOL0     H62598   7.487   9.833   7.731  1.9732 -1.4861  0.0876
  454MOL0     H62599   7.677  10.065   7.672 -0.8452 -0.8630 -1.1982
  454MOL0     H62600   7.505  10.095   7.660  0.1911 -0.3521  0.9124
  454MOL0     H62601   7.776  10.073   7.899  1.2481  1.1628  1.4700
  454MOL0     H62602   7.792  10.160   8.164  0.1691 -2.3924 -1.6948
  454MOL0     H62603   7.648  10.110   8.259 -0.7088  0.2356  0.6400
  454MOL0     H62604   7.531  10.305   8.227 -0.8359  1.4198  1.7577
  454MOL0     H62605   7.691  10.330   8.308  1.3908 -1.1298 -1.6930
  454MOL0     H62606   7.608  10.435   8.022 -0.5174 -2.0537 -0.3316
  454MOL0     H62607   7.620  10.520   8.180 -1.3371 -0.9367  0.4749
  454MOL0     H62608   7.849  10.384   8.037  0.6338  0.4410  0.4753
  454MOL0     H62609   7.787  10.545   8.016  1.3789 -2.2374 -3.3289
  454MOL0     H62610   8.002  10.518   8.441 -1.1789 -1.1691 -0.7419
  454MOL0     H62611   8.265  10.474   8.544 -0.4756  0.1735  0.9662
  454MOL0     H62612   8.168  10.613   8.555 -1.9996 -2.8928 -0.6640
  454MOL0     H62613   8.347  10.623   8.494  0.8406 -1.8283 -1.7975
  454MOL0     H62614   8.673  10.447   8.173 -0.9623 -0.4710  2.2138
  454MOL0     H62615   8.913  10.497   8.139 -0.6673 -0.7987 -0.3625
  454MOL0     H62616   9.215  10.808   8.294  1.6197 -1.6214  1.5645
  454MOL0     H62617   9.063  10.870   8.334  1.1691  1.4871 -0.3557
  454MOL0     H62618   9.137  10.817   8.543 -2.3925  1.7171 -2.4683
  454MOL0     H62619   9.032  10.671   8.522  1.0773 -2.5532  2.6993
  454MOL0     H62620   9.211  10.541   8.473 -0.6622 -1.7683  2.7343
  454MOL0     H62621   9.221  10.603   8.633  3.4179 -4.1448 -1.1186
  454MOL0     H62622   9.402  10.783   8.580 -1.7079  0.2900  0.8631
  454MOL0     H62623   9.407  10.700   8.423 -1.6748 -0.1826  0.5748
  454MOL0     H62624   9.501  10.501   8.508 -3.0634 -0.3834  0.1242
  454MOL0     H62625   9.589  10.642   8.559  0.0601  0.7819 -0.5041
  454MOL0     H62626   9.374  10.492   8.728  0.0616  0.0221 -2.1982
  454MOL0     H62627   9.492  10.612   8.795  1.9939 -2.5701  2.3473
  454MOL0     H62628   9.652  10.418   8.681 -0.2792 -4.0325  0.0418
  454MOL0     H62629   9.517  10.325   8.735  0.0938  0.9588  0.3475
  454MOL0     H62630   9.659  10.334   8.924  0.8419 -0.4116 -0.5819
  454MOL0     H62631   9.529  10.453   8.959  1.5401  1.5816  0.9030
  454MOL0     H62632   8.867  10.827   8.402 -0.8552  0.3604  2.0047
  454MOL0     H62633   8.646  10.816   8.394  2.6271  1.8637  0.1291
  454MOL0     H62634   8.274  10.457   8.041  0.0893  1.1664 -0.4226
  454MOL0     H62635   8.035  10.475   8.016 -3.4711 -1.0789  1.5569
  454MOL0     H62636   7.309   9.539   7.973 -0.8706  0.4178 -0.1285
  454MOL0     H62637   7.175   9.531   8.168  1.9403 -0.9816 -0.3923
  454MOL0     H62638   6.736   9.196   8.279  0.2931  1.0965 -0.3965
  454MOL0     H62639   6.577   9.164   8.458  0.4329  0.0065 -2.9649
  454MOL0     H62640   6.532   9.130   8.860 -1.3417 -3.0613 -0.0873
  454MOL0     H62641   6.485   9.106   8.683 -0.8671 -1.4424  1.0399
  454MOL0     H62642   6.712   9.008   8.659 -0.8004  1.4805 -0.5557
  454MOL0     H62643   6.613   8.901   8.730  0.5702  0.0633 -1.4033
  454MOL0     H62644   6.849   8.929   8.830 -1.7399 -1.7776 -1.3525
  454MOL0     H62645   6.785   9.085   8.906 -0.0139 -0.4474  1.2566
  454MOL0     H62646   6.809   8.852   9.041  1.5313  0.9908 -2.2729
  454MOL0     H62647   6.670   8.802   8.957  1.1735 -1.3493  1.1215
  454MOL0     H62648   6.495   9.082   9.235  0.6089  0.2945  0.5981
  454MOL0     H62649   6.835   9.364   8.728 -1.3021 -1.3954  0.9707
  454MOL0     H62650   7.132   9.378   8.500  1.0111  2.0766 -0.2343
  454MOL0     H62651   7.046   9.522   8.491 -0.3663 -0.1649  0.1480
  454MOL0     H62652   7.058   9.436   8.653  1.6066 -0.5957  0.3607
  455MOL0     O62653   7.053   4.067   6.559 -0.0360 -0.5688  0.0084
  455MOL0     C62654   7.166   4.028   6.529  0.8811 -0.4108 -1.0966
  455MOL0     O62655   7.270   4.105   6.502  0.0755 -0.3646  0.9827
  455MOL0     C62656   7.243   4.238   6.488  0.7378 -0.0762 -0.0913
  455MOL0     C62657   7.284   4.328   6.581  0.4182  0.1696 -0.8412
  455MOL0     C62658   7.265   4.466   6.563  0.4758 -0.2364 -0.0488
  455MOL0     C62659   7.228   4.520   6.430 -1.0166  0.9270 -0.6661
  455MOL0     O62660   7.218   4.649   6.393 -0.2974  0.2323 -0.5859
  455MOL0     C62661   7.279   4.761   6.466  0.1217  0.2113  0.0133
  455MOL0     C62662   7.200   4.888   6.432 -0.0207  0.1769  0.8490
  455MOL0     C62663   7.282   5.006   6.487 -0.1208  0.6434  0.1878
  455MOL0     C62664   7.217   5.139   6.467  0.1976  0.4679  1.5104
  455MOL0     C62665   7.241   5.186   6.319 -0.6262 -0.3042 -0.0665
  455MOL0     C62666   7.167   5.314   6.285 -0.6135  0.1103  0.4095
  455MOL0     C62667   7.226   5.431   6.356  0.5609 -0.5388 -0.0246
  455MOL0     C62668   7.171   5.567   6.302  0.8832  0.4082  0.0199
  455MOL0     N62669   7.205   5.584   6.157 -0.0718 -0.4947  0.0694
  455MOL0     C62670   7.322   5.636   6.104  0.2792  0.6033 -0.0118
  455MOL0     C62671   7.303   5.635   5.975 -0.2886  0.8172 -0.1819
  455MOL0     C62672   7.412   5.680   5.875  0.3018 -0.9974  0.1464
  455MOL0     C62673   7.377   5.806   5.784  0.5927  0.0626  0.1282
  455MOL0     C62674   7.506   5.880   5.716 -0.2278  1.1032 -0.1192
  455MOL0     C62675   7.594   5.953   5.814  0.3904  0.2242  0.9192
  455MOL0     O62676   7.531   6.043   5.906 -0.5503 -0.0195  0.0993
  455MOL0     C62677   7.607   6.107   6.002 -0.0666 -0.6232  0.2470
  455MOL0     C62678   7.550   6.200   6.094 -0.0564  0.3363  1.0512
  455MOL0     C62679   7.630   6.262   6.194 -0.7364 -0.0078  0.3413
  455MOL0     C62680   7.552   6.338   6.301 -0.2183 -0.6563 -0.1425
  455MOL0     C62681   7.773   6.244   6.197 -0.5512  0.1910  0.6610
  455MOL0     C62682   7.865   6.306   6.290 -0.7958 -0.3180 -0.4809
  455MOL0     O62683   7.992   6.331   6.260 -0.5864  0.2528  0.0891
  455MOL0     C62684   8.077   6.373   6.356  0.5674  0.5091 -1.2027
  455MOL0     C62685   8.164   6.278   6.416 -0.3634  0.2097  0.7161
  455MOL0     C62686   8.258   6.316   6.512  0.1908 -0.4242 -0.6180
  455MOL0     C62687   8.252   6.451   6.563 -0.9608  0.7087 -0.2489
  455MOL0     O62688   8.333   6.499   6.657 -0.3259 -0.1185  0.1363
  455MOL0     C62689   8.460   6.437   6.687 -0.0689 -0.1337 -0.9284
  455MOL0     C62690   8.508   6.501   6.827 -0.0518 -0.0354 -0.4170
  455MOL0     C62691   8.663   6.510   6.825 -0.1728  0.3422  0.3986
  455MOL0     C62692   8.731   6.390   6.888 -0.2593  0.6852  0.3144
  455MOL0     C62693   8.873   6.414   6.933  0.6999  0.4839  0.9611
  455MOL0     C62694   8.958   6.293   6.982  0.4244  0.3041  0.9484
  455MOL0     C62695   8.981   6.187   6.881 -0.0565  0.6884  0.4739
  455MOL0     C62696   9.079   6.224   6.773  0.1587  0.2898 -0.0240
  455MOL0    Cl62697   9.257   6.223   6.826  0.3503  0.0975 -0.0161
  455MOL0     C62698   8.161   6.542   6.510 -0.6958 -0.0195 -0.1080
  455MOL0     C62699   8.067   6.502   6.411  0.2617 -0.7028 -0.5712
  455MOL0     O62700   7.829   6.327   6.406 -0.0311  0.0809 -0.5763
  455MOL0     C62701   7.824   6.170   6.091  0.6502 -0.3091  0.8719
  455MOL0     C62702   7.745   6.099   6.001 -0.1028 -0.7347 -0.1723
  455MOL0     N62703   7.181   5.589   5.945  0.1851 -0.4392  0.0599
  455MOL0     N62704   7.128   5.556   6.055  0.6859  0.0429  0.0204
  455MOL0     C62705   7.188   4.425   6.341 -0.6784 -0.0820  0.3216
  455MOL0     C62706   7.198   4.288   6.367 -0.1205  0.6351 -0.6327
  455MOL0     C62707   7.180   3.880   6.508  0.6997  0.4909  0.2056
  455MOL0     C62708   7.088   3.788   6.572  0.2043  0.4790  0.0356
  455MOL0     C62709   7.084   3.648   6.569 -0.1096  0.6141 -0.3246
  455MOL0     C62710   7.190   3.586   6.491  0.9072 -0.5421 -0.1138
  455MOL0     O62711   7.216   3.454   6.481 -0.1875  0.1221  0.5022
  455MOL0     C62712   7.212   3.384   6.602  0.3824  0.2928 -0.2726
  455MOL0     C62713   7.305   3.262   6.611 -0.9393 -0.2115  0.3475
  455MOL0     C62714   7.259   3.149   6.516 -0.7262  0.0728  0.1723
  455MOL0     C62715   7.180   3.034   6.589 -0.1155  0.3370 -0.4237
  455MOL0     C62716   7.049   3.069   6.641 -0.5394  0.0021  0.2509
  455MOL0     C62717   6.931   3.083   6.669 -0.3525 -0.4177  0.1484
  455MOL0     C62718   7.285   3.668   6.428 -0.6974 -1.0838  0.3785
  455MOL0     C62719   7.284   3.811   6.436 -0.1802 -0.2015 -0.4258
  455MOL0     C62720   7.405   3.882   6.387  0.1701  0.3118  0.6848
  455MOL0     H62721   7.321   4.303   6.680  1.1164  3.5666 -0.1321
  455MOL0     H62722   7.281   4.542   6.638 -0.0649  0.1016 -0.2669
  455MOL0     H62723   7.380   4.768   6.426 -1.4515  1.2063 -4.2488
  455MOL0     H62724   7.293   4.750   6.574 -1.6510  0.8341  0.3521
  455MOL0     H62725   7.211   4.914   6.326 -0.1290  2.6774  1.4007
  455MOL0     H62726   7.093   4.899   6.454 -0.6907  4.0809 -2.9646
  455MOL0     H62727   7.278   4.986   6.595  2.8857  0.7174  0.4063
  455MOL0     H62728   7.386   5.002   6.455  0.5515 -0.3150  2.2869
  455MOL0     H62729   7.110   5.151   6.484 -0.5561 -2.6831 -0.2206
  455MOL0     H62730   7.278   5.213   6.519  4.5196 -1.3638 -0.4460
  455MOL0     H62731   7.192   5.117   6.250  1.3219 -1.3269 -0.5325
  455MOL0     H62732   7.343   5.191   6.278 -0.8015 -1.7591 -0.7468
  455MOL0     H62733   7.184   5.315   6.177 -1.6138  2.2182  0.2192
  455MOL0     H62734   7.059   5.315   6.305 -0.9531 -3.2338 -0.6788
  455MOL0     H62735   7.334   5.428   6.344  0.4506 -1.7059 -0.7752
  455MOL0     H62736   7.203   5.418   6.463  1.1553  0.9738  0.3151
  455MOL0     H62737   7.061   5.563   6.306  0.8994  0.2974  0.3501
  455MOL0     H62738   7.209   5.651   6.359  0.1986  0.6518  0.1287
  455MOL0     H62739   7.408   5.673   6.160  1.3307 -1.0393 -0.4868
  455MOL0     H62740   7.438   5.590   5.818 -2.7843 -0.8567 -1.6837
  455MOL0     H62741   7.503   5.716   5.925  0.8078 -2.4327  0.3344
  455MOL0     H62742   7.304   5.766   5.712 -2.5461 -0.9228  3.5561
  455MOL0     H62743   7.330   5.887   5.840 -3.5231  0.4945 -3.3990
  455MOL0     H62744   7.565   5.806   5.661  0.3510  1.8424 -0.5191
  455MOL0     H62745   7.465   5.947   5.640 -0.4492  1.5378  0.3783
  455MOL0     H62746   7.650   5.868   5.855  1.2348 -0.2858 -1.1481
  455MOL0     H62747   7.655   6.012   5.746  0.4666 -1.9820 -1.0839
  455MOL0     H62748   7.442   6.210   6.086 -0.0039 -0.3335 -1.0880
  455MOL0     H62749   7.449   6.364   6.275  1.0943  3.2932 -2.2229
  455MOL0     H62750   7.608   6.429   6.325 -0.1679 -1.4574  3.2620
  455MOL0     H62751   7.544   6.285   6.396 -0.8302  1.1406  0.8639
  455MOL0     H62752   8.157   6.175   6.380 -2.9792  0.7745 -0.5996
  455MOL0     H62753   8.338   6.252   6.547  1.2684 -0.2097 -2.5729
  455MOL0     H62754   8.456   6.329   6.704 -1.4361 -0.0906 -0.8873
  455MOL0     H62755   8.520   6.462   6.599 -0.7780  3.1088 -0.6213
  455MOL0     H62756   8.456   6.597   6.840 -0.4246 -0.3803  0.8427
  455MOL0     H62757   8.472   6.449   6.917 -1.2375 -1.9668 -1.9455
  455MOL0     H62758   8.691   6.597   6.885  1.9475  0.6513 -0.9297
  455MOL0     H62759   8.714   6.534   6.731  1.1221  3.6327  1.8020
  455MOL0     H62760   8.728   6.316   6.807 -0.7079  1.3041 -0.2387
  455MOL0     H62761   8.678   6.342   6.971 -0.8450 -1.6810 -1.2888
  455MOL0     H62762   8.929   6.467   6.855 -0.4927  0.4148  0.0311
  455MOL0     H62763   8.853   6.474   7.022  1.3289 -0.4727  1.7674
  455MOL0     H62764   8.897   6.253   7.064  0.2952 -0.3915  0.5143
  455MOL0     H62765   9.056   6.315   7.024  0.5252  1.6727  0.0761
  455MOL0     H62766   8.886   6.162   6.834 -0.9388  1.2625  1.8626
  455MOL0     H62767   9.010   6.093   6.929  0.3077 -0.5638 -2.0718
  455MOL0     H62768   9.049   6.321   6.731 -0.8764 -0.9414 -2.3290
  455MOL0     H62769   9.078   6.155   6.689  0.3143  1.4345 -0.9940
  455MOL0     H62770   8.170   6.638   6.559 -1.3250 -0.4199  0.8194
  455MOL0     H62771   8.002   6.577   6.366 -0.9519 -1.2839  0.1874
  455MOL0     H62772   7.932   6.161   6.104  0.7182 -1.2873 -0.2476
  455MOL0     H62773   7.806   6.038   5.935  1.8615 -4.6200  4.5530
  455MOL0     H62774   7.135   4.472   6.259  2.5851  1.8887 -0.8146
  455MOL0     H62775   7.165   4.220   6.289  1.8548  0.2113 -1.1477
  455MOL0     H62776   7.015   3.829   6.642  3.5138  2.9985  2.3555
  455MOL0     H62777   7.010   3.589   6.621  1.1997  0.4688  1.4932
  455MOL0     H62778   7.242   3.452   6.682 -0.5713  0.6343 -0.1888
  455MOL0     H62779   7.114   3.344   6.630  2.0624 -1.8974  3.0573
  455MOL0     H62780   7.311   3.220   6.712  0.6735 -0.7992  0.0288
  455MOL0     H62781   7.408   3.287   6.587 -0.0111 -1.1698  2.8842
  455MOL0     H62782   7.201   3.201   6.439 -1.2533  0.0632  0.5564
  455MOL0     H62783   7.346   3.102   6.470  0.3812 -1.0139  3.1798
  455MOL0     H62784   7.236   2.997   6.676 -0.2831  2.1454  0.5054
  455MOL0     H62785   7.162   2.949   6.523 -0.4124 -0.3820  0.5604
  455MOL0     H62786   6.825   3.093   6.678 -0.2174  1.7939 -0.1735
  455MOL0     H62787   7.373   3.636   6.374 -0.1060  3.2148 -1.6530
  455MOL0     H62788   7.384   3.985   6.354 -1.1157  0.1891  1.0814
  455MOL0     H62789   7.489   3.900   6.454  2.1930  1.4695 -1.9627
  455MOL0     H62790   7.447   3.826   6.303 -2.4609  0.5976 -0.9227
  456MOL0     O62791   6.492   3.747   1.328 -0.4548  0.6507 -0.4324
  456MOL0     C62792   6.424   3.663   1.381  0.4521 -0.0161  0.5396
  456MOL0     O62793   6.293   3.635   1.338 -0.4848 -0.5511 -0.3829
  456MOL0     C62794   6.248   3.699   1.228 -0.5546 -0.2697 -0.0406
  456MOL0     C62795   6.210   3.836   1.226 -0.2764 -1.1507  1.0905
  456MOL0     C62796   6.160   3.889   1.109 -0.6889  0.2502 -0.4822
  456MOL0     C62797   6.159   3.817   0.990  0.6205 -0.9268 -0.3408
  456MOL0     O62798   6.105   3.876   0.882  0.3668 -0.4513  0.2062
  456MOL0     C62799   6.078   3.797   0.766 -0.1595 -0.4806  0.0407
  456MOL0     C62800   6.025   3.901   0.659  0.0619  0.0379  0.6815
  456MOL0     C62801   6.137   3.992   0.598 -0.0561 -0.2090 -0.4818
  456MOL0     C62802   6.081   4.109   0.515 -0.3980  0.7085 -0.1207
  456MOL0     C62803   5.978   4.068   0.404 -0.3220  0.0120 -1.0504
  456MOL0     C62804   6.038   4.005   0.286  1.0573  0.1946  0.4059
  456MOL0     C62805   5.928   3.943   0.196 -0.1229  0.1488 -0.4431
  456MOL0     C62806   5.882   3.805   0.243  0.1394 -0.1553 -0.1647
  456MOL0     N62807   5.797   3.755   0.133 -0.4429 -0.0637 -0.0329
  456MOL0     C62808   5.841   3.691   0.022  0.2454 -0.4133 -0.5511
  456MOL0     C62809   5.731   3.670  -0.054 -0.6390 -1.0620  0.0135
  456MOL0     C62810   5.725   3.613  -0.190  0.1548  0.9677 -0.3231
  456MOL0     C62811   5.779   3.469  -0.183  0.0930 -0.2927  0.5806
  456MOL0     C62812   5.786   3.428  -0.334 -0.3507  0.4275  0.2039
  456MOL0     C62813   5.916   3.467  -0.403  0.4228 -0.2472  0.3571
  456MOL0     O62814   5.898   3.470  -0.549  0.7877 -0.6813 -0.2099
  456MOL0     C62815   5.845   3.361  -0.619 -0.0514  0.5530 -0.6101
  456MOL0     C62816   5.778   3.391  -0.735  0.3805 -0.0738 -1.0002
  456MOL0     C62817   5.724   3.287  -0.808 -0.6334 -0.8686  0.1901
  456MOL0     C62818   5.662   3.328  -0.942 -0.6938 -0.0431  0.2308
  456MOL0     C62819   5.728   3.148  -0.773  0.0249 -0.2874 -0.1444
  456MOL0     C62820   5.661   3.031  -0.839  0.3007  0.1512  0.0130
  456MOL0     O62821   5.633   2.921  -0.767  0.4607 -0.5708  0.2960
  456MOL0     C62822   5.553   2.820  -0.822  0.5827  0.1440  0.4220
  456MOL0     C62823   5.435   2.846  -0.896  0.1460  0.0295 -0.2632
  456MOL0     C62824   5.351   2.745  -0.925  1.0145  0.8115  0.5166
  456MOL0     C62825   5.380   2.609  -0.889 -0.6742  0.0248  0.5580
  456MOL0     O62826   5.283   2.516  -0.899 -0.5793 -0.3744 -0.3974
  456MOL0     C62827   5.253   2.487  -1.041 -0.2157  1.7297  0.2556
  456MOL0     C62828   5.304   2.344  -1.082  0.2681  0.3114 -0.1165
  456MOL0     C62829   5.459   2.329  -1.062  0.4026 -0.5152 -0.8509
  456MOL0     C62830   5.556   2.410  -1.153 -0.3377  0.6528 -0.8849
  456MOL0     C62831   5.702   2.382  -1.153  0.1514 -1.1839 -0.8041
  456MOL0     C62832   5.779   2.396  -1.284  0.1430 -1.3938 -0.4232
  456MOL0     C62833   5.933   2.426  -1.257  0.7678  0.4086  0.5330
  456MOL0     C62834   5.959   2.553  -1.195  0.7521 -0.7974  0.6111
  456MOL0    Cl62835   6.138   2.574  -1.168 -0.6306 -0.2171 -0.1015
  456MOL0     C62836   5.497   2.585  -0.821 -0.7729  1.5504  1.1458
  456MOL0     C62837   5.590   2.687  -0.792  0.0716  0.7818 -0.4614
  456MOL0     O62838   5.620   3.050  -0.953 -0.6025  0.4097 -0.4149
  456MOL0     C62839   5.791   3.122  -0.653 -0.6862 -0.5702 -0.7473
  456MOL0     C62840   5.855   3.221  -0.574  0.9714 -0.6880 -0.3924
  456MOL0     N62841   5.628   3.717   0.021  0.4259  0.0819  0.0498
  456MOL0     N62842   5.665   3.778   0.132 -0.3348  0.7751  0.2918
  456MOL0     C62843   6.197   3.686   0.991 -0.9594  0.0060 -1.0714
  456MOL0     C62844   6.246   3.634   1.108 -1.0568 -0.7083  1.0757
  456MOL0     C62845   6.479   3.591   1.505  1.1910  0.4652  1.1482
  456MOL0     C62846   6.393   3.504   1.570 -0.9227 -0.2477  0.2865
  456MOL0     C62847   6.424   3.435   1.689  0.6127 -0.2478  1.4789
  456MOL0     C62848   6.540   3.457   1.753  0.0109 -1.2580  0.2709
  456MOL0     O62849   6.579   3.366   1.849 -0.2090  0.5025  0.1055
  456MOL0     C62850   6.634   3.427   1.968 -0.4157 -0.3792  0.6311
  456MOL0     C62851   6.790   3.405   1.976  1.0164  0.5101 -0.5014
  456MOL0     C62852   6.867   3.512   2.069  0.3536 -0.0034 -1.2275
  456MOL0     C62853   7.012   3.470   2.113 -0.1834  0.2884 -0.1347
  456MOL0     C62854   7.014   3.378   2.225  0.2509  0.0194  0.3288
  456MOL0     C62855   7.020   3.294   2.312 -0.3578  0.9051 -0.5956
  456MOL0     C62856   6.627   3.548   1.701 -0.7305  1.4281  1.0330
  456MOL0     C62857   6.602   3.607   1.572 -0.3653  0.0923  0.3567
  456MOL0     C62858   6.717   3.702   1.512 -0.1589  0.0841 -0.1727
  456MOL0     H62859   6.213   3.893   1.318 -0.2713 -0.8447  0.9006
  456MOL0     H62860   6.116   3.988   1.113  0.0796  0.6500 -1.5723
  456MOL0     H62861   6.003   3.721   0.790  2.4174 -2.6293  2.0482
  456MOL0     H62862   6.161   3.739   0.723 -0.0779 -3.5996  3.8073
  456MOL0     H62863   5.973   3.848   0.579 -0.8296 -1.7595  2.3631
  456MOL0     H62864   5.954   3.969   0.706 -0.8674 -0.0110 -0.6004
  456MOL0     H62865   6.193   4.046   0.675 -0.7574  2.8083 -1.9594
  456MOL0     H62866   6.208   3.936   0.536  2.3812  3.0062 -0.8803
  456MOL0     H62867   6.022   4.174   0.581 -0.5112 -0.5300  1.0585
  456MOL0     H62868   6.165   4.166   0.475 -1.2018  0.6596 -1.9632
  456MOL0     H62869   5.948   4.166   0.366  2.6842  1.2711 -0.4544
  456MOL0     H62870   5.896   4.005   0.438  1.0205 -2.9613 -2.9115
  456MOL0     H62871   6.085   4.084   0.228 -2.2397  3.0863  1.3591
  456MOL0     H62872   6.107   3.927   0.320  1.0546 -0.6720 -1.4484
  456MOL0     H62873   5.984   3.927   0.103  1.8934  1.2888  0.5323
  456MOL0     H62874   5.848   4.015   0.177  1.3271  1.1784 -3.2691
  456MOL0     H62875   5.971   3.743   0.261  0.6583 -0.8244 -4.1055
  456MOL0     H62876   5.825   3.817   0.335  0.3094 -1.8508  0.1913
  456MOL0     H62877   5.947   3.682  -0.000  1.1316  1.4070  2.3115
  456MOL0     H62878   5.775   3.667  -0.271 -1.5019  3.8019  0.4183
  456MOL0     H62879   5.618   3.598  -0.209 -0.1653  3.0388 -0.3178
  456MOL0     H62880   5.874   3.453  -0.131  1.9198  0.1131 -2.3609
  456MOL0     H62881   5.710   3.409  -0.124  1.7408 -1.1586  1.6853
  456MOL0     H62882   5.780   3.318  -0.331 -1.0760  0.4658  0.4562
  456MOL0     H62883   5.696   3.451  -0.392 -1.4948 -1.9574  0.8643
  456MOL0     H62884   5.958   3.561  -0.368 -1.8798  0.4467  1.4793
  456MOL0     H62885   5.986   3.383  -0.392 -1.6777 -1.9259  1.7437
  456MOL0     H62886   5.770   3.495  -0.766 -0.1090 -0.0274 -0.7333
  456MOL0     H62887   5.681   3.435  -0.950  0.3694 -0.3412 -1.6289
  456MOL0     H62888   5.553   3.330  -0.931 -0.8477  5.6079  0.7596
  456MOL0     H62889   5.705   3.280  -1.030  2.0740  2.2887  0.1928
  456MOL0     H62890   5.406   2.946  -0.927 -0.3196 -0.2981 -0.9136
  456MOL0     H62891   5.259   2.770  -0.975  1.1309  0.4908  0.1381
  456MOL0     H62892   5.146   2.502  -1.060 -0.1682  2.5219  0.5803
  456MOL0     H62893   5.302   2.548  -1.118 -0.8550 -1.4988 -2.9886
  456MOL0     H62894   5.250   2.263  -1.032  0.8457 -0.3064 -0.4683
  456MOL0     H62895   5.274   2.327  -1.186 -2.0410  1.8801  0.2075
  456MOL0     H62896   5.480   2.222  -1.071 -2.3618 -0.9796 -3.9067
  456MOL0     H62897   5.487   2.355  -0.960  0.8850 -4.0652  0.0289
  456MOL0     H62898   5.546   2.518  -1.140  2.7475  0.9637 -0.3034
  456MOL0     H62899   5.539   2.372  -1.254 -2.1534  1.0773 -0.7647
  456MOL0     H62900   5.744   2.439  -1.069  0.2892 -2.8535  0.3125
  456MOL0     H62901   5.714   2.276  -1.128  0.0472 -0.5719  2.2441
  456MOL0     H62902   5.740   2.488  -1.329  4.0422  0.2861 -0.7193
  456MOL0     H62903   5.749   2.316  -1.352 -0.7884 -0.9278 -0.5822
  456MOL0     H62904   5.986   2.431  -1.353  0.3938 -1.1256  0.2165
  456MOL0     H62905   5.968   2.345  -1.193  0.6324  0.6701  0.9386
  456MOL0     H62906   5.893   2.566  -1.108 -1.9974 -1.9283 -1.1556
  456MOL0     H62907   5.921   2.635  -1.257  0.2550  0.4051  2.3996
  456MOL0     H62908   5.501   2.480  -0.793 -3.3055  1.5132  1.6546
  456MOL0     H62909   5.687   2.671  -0.746 -1.2238 -2.3829  1.5491
  456MOL0     H62910   5.818   3.025  -0.611  0.5427  0.8184  1.9761
  456MOL0     H62911   5.900   3.181  -0.484  0.6069 -0.1261  0.0491
  456MOL0     H62912   6.211   3.626   0.901 -1.2421 -0.6896 -0.6593
  456MOL0     H62913   6.285   3.532   1.108 -0.6338 -0.6768 -2.5078
  456MOL0     H62914   6.291   3.485   1.539 -0.6545 -2.0286  0.3786
  456MOL0     H62915   6.354   3.355   1.711 -0.2841  0.5494  1.5906
  456MOL0     H62916   6.613   3.534   1.958 -2.2805 -0.7791 -0.0314
  456MOL0     H62917   6.596   3.385   2.062 -0.6767  3.3935  2.4149
  456MOL0     H62918   6.823   3.421   1.873 -0.0507  0.3154 -0.8873
  456MOL0     H62919   6.814   3.304   2.010  2.2747  1.4008  1.3780
  456MOL0     H62920   6.862   3.604   2.012 -1.8785  1.7981  1.6247
  456MOL0     H62921   6.811   3.536   2.159  1.3732  0.7937 -0.7840
  456MOL0     H62922   7.061   3.558   2.155  0.5562 -0.1824  0.0186
  456MOL0     H62923   7.066   3.423   2.030 -0.8947 -2.2815  0.7610
  456MOL0     H62924   7.027   3.219   2.388 -1.0219 -1.2917 -2.5663
  456MOL0     H62925   6.725   3.570   1.741  0.3174 -0.2988 -0.4301
  456MOL0     H62926   6.685   3.806   1.524  0.4003 -0.0433  5.4944
  456MOL0     H62927   6.816   3.696   1.558 -0.5779  0.7316  0.8555
  456MOL0     H62928   6.732   3.693   1.404  2.4880  1.3448  0.0155
  457MOL0     O62929  10.760   2.501   0.863 -0.3408 -1.4291 -0.1203
  457MOL0     C62930  10.694   2.542   0.767  0.2308 -0.5419  0.3296
  457MOL0     O62931  10.731   2.531   0.629  0.8144  0.8786 -0.8851
  457MOL0     C62932  10.861   2.550   0.584 -0.3181 -0.3678 -0.5028
  457MOL0     C62933  10.876   2.561   0.445  0.4819 -0.6917  0.1587
  457MOL0     C62934  10.996   2.580   0.384 -0.1817 -0.5998 -0.5143
  457MOL0     C62935  11.112   2.587   0.459  0.2654  0.4635  0.4255
  457MOL0     O62936  11.234   2.618   0.402 -0.1363 -0.6477 -0.0459
  457MOL0     C62937  11.259   2.658   0.263 -0.0953 -0.2310 -1.0725
  457MOL0     C62938  11.208   2.797   0.241 -0.2407  0.0205 -0.4298
  457MOL0     C62939  11.223   2.856   0.107  0.0683 -0.3820  1.1311
  457MOL0     C62940  11.367   2.879   0.073 -0.3632  0.3542  0.5018
  457MOL0     C62941  11.380   2.976  -0.046  0.3594 -0.1482  0.2866
  457MOL0     C62942  11.528   2.971  -0.095 -0.4235  0.5161 -0.0544
  457MOL0     C62943  11.562   3.063  -0.220 -0.0171  0.3110 -1.0870
  457MOL0     C62944  11.444   3.069  -0.324  1.6610 -0.2762 -0.4644
  457MOL0     N62945  11.389   2.934  -0.364  0.1917  0.0408  0.0568
  457MOL0     C62946  11.455   2.813  -0.365 -0.5773 -0.2951 -0.6724
  457MOL0     C62947  11.405   2.748  -0.467 -0.1088 -0.4564  0.3949
  457MOL0     C62948  11.446   2.616  -0.518  0.0063 -0.0793  0.0887
  457MOL0     C62949  11.573   2.601  -0.603 -0.3928  0.3735  0.1820
  457MOL0     C62950  11.551   2.628  -0.756 -0.4488 -0.4491 -0.7927
  457MOL0     C62951  11.452   2.530  -0.830  0.4714 -0.1487 -0.6612
  457MOL0     O62952  11.449   2.566  -0.964  0.3416  0.4694  0.5259
  457MOL0     C62953  11.355   2.649  -1.011  0.0868 -1.3273 -0.4528
  457MOL0     C62954  11.217   2.638  -1.001 -0.2575 -0.9123 -1.4401
  457MOL0     C62955  11.134   2.725  -1.070 -0.4097  0.1408  0.5505
  457MOL0     C62956  10.992   2.726  -1.038  0.5794 -0.0404 -0.2434
  457MOL0     C62957  11.187   2.837  -1.142  0.6831 -0.3561 -0.0590
  457MOL0     C62958  11.099   2.930  -1.201  0.0376  1.5188 -0.3187
  457MOL0     O62959  11.013   3.002  -1.110 -0.2902 -0.1070  0.0451
  457MOL0     C62960  10.936   3.090  -1.163  1.2240  0.1067 -0.2016
  457MOL0     C62961  10.801   3.084  -1.156  0.7465  0.6619  0.6072
  457MOL0     C62962  10.713   3.183  -1.197  0.3440 -0.1064  1.3606
  457MOL0     C62963  10.765   3.299  -1.253 -0.1703 -0.1930  1.3390
  457MOL0     O62964  10.687   3.404  -1.304 -0.1566  0.5737  0.2240
  457MOL0     C62965  10.741   3.522  -1.366 -0.6320  0.3038 -0.0782
  457MOL0     C62966  10.793   3.505  -1.509  0.1595 -0.5833  0.3352
  457MOL0     C62967  10.702   3.412  -1.583  0.4035  0.0879  0.5959
  457MOL0     C62968  10.724   3.410  -1.736 -0.6204  0.1173 -0.6866
  457MOL0     C62969  10.649   3.306  -1.800 -0.0816  1.0755  0.1243
  457MOL0     C62970  10.660   3.298  -1.954  0.0830  0.1450  0.0037
  457MOL0     C62971  10.801   3.265  -1.994  0.8895 -0.7862  0.5704
  457MOL0     C62972  10.817   3.286  -2.145 -0.0084  1.3097  0.6605
  457MOL0    Cl62973  10.830   3.453  -2.208  0.1287 -0.3275  0.0967
  457MOL0     C62974  10.910   3.303  -1.266  0.6102  0.2976 -0.1180
  457MOL0     C62975  10.994   3.203  -1.216 -0.9635  0.6138 -0.2456
  457MOL0     O62976  11.120   2.950  -1.322  0.4809  0.1791  0.5434
  457MOL0     C62977  11.330   2.839  -1.159 -0.2138 -0.3326  0.0452
  457MOL0     C62978  11.407   2.755  -1.083 -0.4148  0.6044 -0.0816
  457MOL0     N62979  11.308   2.831  -0.531 -0.1595 -0.0591 -0.4862
  457MOL0     N62980  11.290   2.934  -0.454 -0.1042 -0.9210 -0.1972
  457MOL0     C62981  11.106   2.570   0.594 -0.1746 -0.7071 -0.1943
  457MOL0     C62982  10.981   2.543   0.664  0.0201 -0.6182  0.6314
  457MOL0     C62983  10.547   2.569   0.794  0.3164  0.5541 -1.2068
  457MOL0     C62984  10.456   2.549   0.683  0.5753 -0.7675  0.6336
  457MOL0     C62985  10.324   2.573   0.705  0.4332 -0.1913 -0.1228
  457MOL0     C62986  10.268   2.595   0.831 -0.2458  0.4994  0.0274
  457MOL0     O62987  10.136   2.603   0.858  0.0894  0.1279  0.1913
  457MOL0     C62988  10.048   2.655   0.766 -0.1374  1.2194 -0.5066
  457MOL0     C62989   9.902   2.668   0.822 -0.2136  0.8541  0.5691
  457MOL0     C62990   9.882   2.777   0.930  1.0366  0.0607 -0.8402
  457MOL0     C62991   9.910   2.729   1.076 -0.2428  0.1628 -0.4394
  457MOL0     C62992   9.813   2.639   1.126  0.3510 -0.2573 -0.2980
  457MOL0     C62993   9.731   2.561   1.187 -0.9505 -0.3186  0.0643
  457MOL0     C62994  10.357   2.612   0.936 -0.5611  0.4329 -0.5146
  457MOL0     C62995  10.493   2.603   0.924 -0.0291 -0.0993  0.2764
  457MOL0     C62996  10.573   2.614   1.045  1.1625 -0.5208 -0.7415
  457MOL0     H62997  10.788   2.563   0.382  1.3414 -1.5832 -1.1206
  457MOL0     H62998  10.995   2.599   0.277 -0.8896  3.9206  0.1061
  457MOL0     H62999  11.215   2.588   0.191  2.1521 -2.5301 -0.3483
  457MOL0     H63000  11.364   2.651   0.235  0.0410  0.2859 -0.7011
  457MOL0     H63001  11.102   2.789   0.269  0.0071 -2.0556  0.0747
  457MOL0     H63002  11.239   2.867   0.319 -1.7453  3.2219 -2.5002
  457MOL0     H63003  11.178   2.793   0.029 -2.2471  0.1169  1.9849
  457MOL0     H63004  11.167   2.950   0.104  0.6201 -0.0767 -0.8747
  457MOL0     H63005  11.416   2.908   0.166  0.7949 -4.2264  1.5307
  457MOL0     H63006  11.397   2.776   0.052 -0.5260  0.7196 -1.7268
  457MOL0     H63007  11.356   3.082  -0.031  2.1155  0.5565 -1.4791
  457MOL0     H63008  11.311   2.939  -0.122 -0.0749  0.5412  0.3344
  457MOL0     H63009  11.597   2.990  -0.013 -0.6083 -0.3941  0.3251
  457MOL0     H63010  11.535   2.863  -0.114 -1.7938  0.6114 -1.3262
  457MOL0     H63011  11.657   3.029  -0.262 -0.0581  0.0473 -0.9656
  457MOL0     H63012  11.568   3.165  -0.180 -1.4157 -1.2400  3.7161
  457MOL0     H63013  11.363   3.131  -0.285  1.2571 -0.5591 -0.8370
  457MOL0     H63014  11.486   3.114  -0.414  1.4721 -1.7875 -1.3393
  457MOL0     H63015  11.544   2.778  -0.313  0.2435  2.5866  0.0436
  457MOL0     H63016  11.361   2.587  -0.581  1.2915 -0.0708 -1.7307
  457MOL0     H63017  11.448   2.536  -0.443  0.0912  1.0255  1.2902
  457MOL0     H63018  11.645   2.673  -0.563  1.4607 -1.8146  1.0100
  457MOL0     H63019  11.619   2.502  -0.594 -1.0610 -0.0861 -1.1743
  457MOL0     H63020  11.495   2.721  -0.767 -0.5800 -0.0518  2.2133
  457MOL0     H63021  11.642   2.642  -0.815 -0.1660 -0.4433 -0.3571
  457MOL0     H63022  11.479   2.426  -0.811 -1.2978 -0.7768 -1.4273
  457MOL0     H63023  11.348   2.532  -0.797  0.2062  0.4898 -1.4985
  457MOL0     H63024  11.178   2.564  -0.932  1.0800 -0.2713  0.0547
  457MOL0     H63025  10.973   2.794  -0.954 -0.9717 -0.8718  0.1051
  457MOL0     H63026  10.963   2.630  -0.995  0.4588  1.5960  3.7669
  457MOL0     H63027  10.928   2.752  -1.123 -0.8898 -2.1349  0.1366
  457MOL0     H63028  10.765   2.991  -1.113  1.1782  0.8519  1.3948
  457MOL0     H63029  10.605   3.188  -1.186  0.1156  2.7441 -0.8103
  457MOL0     H63030  10.663   3.599  -1.364 -0.9890 -0.0200  2.5266
  457MOL0     H63031  10.825   3.563  -1.308  0.0347  0.4199 -1.1023
  457MOL0     H63032  10.794   3.600  -1.564 -3.6044 -0.5221  0.1576
  457MOL0     H63033  10.898   3.472  -1.502  0.4149 -0.0481 -0.7411
  457MOL0     H63034  10.598   3.436  -1.561 -0.6385 -1.9578 -1.6486
  457MOL0     H63035  10.717   3.312  -1.543 -0.8260  0.4452  2.0175
  457MOL0     H63036  10.829   3.388  -1.757 -0.1181  4.1825 -3.4301
  457MOL0     H63037  10.699   3.507  -1.779 -1.2334 -0.7730 -2.4106
  457MOL0     H63038  10.664   3.205  -1.761 -1.6878  1.1908  1.1357
  457MOL0     H63039  10.545   3.328  -1.771 -0.7852 -1.8936  0.2029
  457MOL0     H63040  10.630   3.387  -2.010 -1.9332  0.1916  1.0552
  457MOL0     H63041  10.602   3.215  -1.995  2.0572 -0.9817 -0.6773
  457MOL0     H63042  10.823   3.162  -1.965 -0.6935 -1.7059 -1.2010
  457MOL0     H63043  10.876   3.335  -1.956  3.8287 -2.2755 -2.0229
  457MOL0     H63044  10.744   3.234  -2.207 -0.6195  0.0348  2.3557
  457MOL0     H63045  10.908   3.227  -2.159 -2.3047 -2.3219 -0.3902
  457MOL0     H63046  10.967   3.386  -1.307 -0.6255  0.9690 -0.5032
  457MOL0     H63047  11.102   3.213  -1.219 -0.8591  1.1186  2.2706
  457MOL0     H63048  11.379   2.902  -1.233 -2.2286  0.6872 -0.4940
  457MOL0     H63049  11.514   2.766  -1.094 -0.5081  0.2251 -1.7035
  457MOL0     H63050  11.193   2.576   0.658 -1.0984 -1.0005  1.1283
  457MOL0     H63051  10.989   2.540   0.772 -1.7167 -0.9705  0.7718
  457MOL0     H63052  10.485   2.512   0.585 -1.0292 -1.8315  0.5218
  457MOL0     H63053  10.254   2.561   0.623  0.5016 -3.2575  0.1198
  457MOL0     H63054  10.082   2.752   0.729  0.2628  0.8849 -1.0253
  457MOL0     H63055  10.051   2.589   0.679  2.0868  0.4094  0.1219
  457MOL0     H63056   9.874   2.569   0.860 -0.5218  1.4542  1.9627
  457MOL0     H63057   9.841   2.685   0.734 -0.6912 -0.7246  0.5626
  457MOL0     H63058   9.953   2.860   0.914 -0.5398  1.4882 -0.7289
  457MOL0     H63059   9.782   2.821   0.927  0.9095 -0.1382  0.1112
  457MOL0     H63060   9.912   2.816   1.142 -0.4556 -0.0642 -0.1339
  457MOL0     H63061  10.010   2.686   1.085  0.2633  1.7736  3.4318
  457MOL0     H63062   9.671   2.483   1.229 -1.4398 -0.1917 -0.3901
  457MOL0     H63063  10.313   2.620   1.036 -3.9325  2.0669 -1.9529
  457MOL0     H63064  10.660   2.682   1.045 -0.0018  1.0367 -1.1627
  457MOL0     H63065  10.506   2.660   1.118  1.8817  0.5507 -0.7233
  457MOL0     H63066  10.612   2.520   1.084  1.3260 -1.1028 -2.2559
  458MOL0     O63067   1.418  11.305   6.456 -0.4355  0.8534 -0.1595
  458MOL0     C63068   1.372  11.278   6.342  1.0451  0.9506 -1.1601
  458MOL0     O63069   1.296  11.170   6.304 -0.0240 -0.8830  0.1811
  458MOL0     C63070   1.278  11.064   6.389  1.3652 -0.1047  0.4125
  458MOL0     C63071   1.280  11.064   6.528 -0.3007 -0.2243 -0.5563
  458MOL0     C63072   1.277  10.946   6.594 -0.0598 -0.9174  0.0461
  458MOL0     C63073   1.291  10.820   6.535  0.5280  0.5829  0.1243
  458MOL0     O63074   1.303  10.704   6.610 -0.6087  0.3862  0.1603
  458MOL0     C63075   1.282  10.575   6.558  0.1973  0.4097 -0.6987
  458MOL0     C63076   1.340  10.462   6.642 -0.1779 -0.4175 -0.5386
  458MOL0     C63077   1.268  10.442   6.772  0.1389  1.0469 -0.6223
  458MOL0     C63078   1.329  10.343   6.861 -0.0393  0.1605  0.2669
  458MOL0     C63079   1.238  10.312   6.984  0.3379 -0.7431 -0.7926
  458MOL0     C63080   1.259  10.421   7.098 -0.8720 -0.1270 -0.7349
  458MOL0     C63081   1.363  10.394   7.209  1.0591  0.5515 -0.0346
  458MOL0     C63082   1.359  10.490   7.313  0.3275 -0.8804 -0.5993
  458MOL0     N63083   1.257  10.458   7.422 -0.3107 -1.0568  0.6027
  458MOL0     C63084   1.281  10.382   7.537  0.8106 -0.4336 -0.0355
  458MOL0     C63085   1.159  10.398   7.602 -0.9163 -0.3306 -0.6475
  458MOL0     C63086   1.121  10.337   7.739 -0.1612  0.2082  0.9364
  458MOL0     C63087   1.238  10.298   7.823  1.0330  0.8286  0.3495
  458MOL0     C63088   1.189  10.261   7.964 -0.5008  0.7928  0.4741
  458MOL0     C63089   1.308  10.230   8.047  0.1320 -0.3550 -0.4389
  458MOL0     O63090   1.263  10.191   8.176  0.5577  0.1207 -0.3364
  458MOL0     C63091   1.263  10.281   8.279  0.5450 -0.0384  0.6890
  458MOL0     C63092   1.278  10.239   8.407 -0.1483  0.4117 -0.3539
  458MOL0     C63093   1.273  10.318   8.522 -0.0552  0.0882  0.0479
  458MOL0     C63094   1.293  10.257   8.655  0.0317  0.5206  0.6117
  458MOL0     C63095   1.251  10.456   8.500  0.2241  0.7746 -0.5939
  458MOL0     C63096   1.236  10.555   8.608 -0.2111  0.1285 -0.0572
  458MOL0     O63097   1.205  10.506   8.731  0.1646  0.0086  0.3091
  458MOL0     C63098   1.188  10.583   8.843  1.1284 -0.3813  0.2842
  458MOL0     C63099   1.253  10.706   8.877 -0.3347 -0.3065  0.3906
  458MOL0     C63100   1.232  10.769   8.999  0.8167  0.6590  0.2488
  458MOL0     C63101   1.144  10.710   9.094  0.7631 -0.8138 -0.0485
  458MOL0     O63102   1.146  10.773   9.223  0.0001 -0.1266  0.4285
  458MOL0     C63103   1.048  10.727   9.317 -0.7061  0.3475 -0.0761
  458MOL0     C63104   1.063  10.820   9.429  0.6169  0.1681 -0.7802
  458MOL0     C63105   0.947  10.798   9.530  0.8164 -0.3876 -0.0705
  458MOL0     C63106   0.983  10.672   9.608 -0.3715 -0.8034 -0.3534
  458MOL0     C63107   0.880  10.635   9.719  0.0153 -0.1098  0.3564
  458MOL0     C63108   0.889  10.490   9.792 -0.6447 -0.7394 -0.2516
  458MOL0     C63109   0.782  10.478   9.906 -0.4710  0.1976  0.5806
  458MOL0     C63110   0.641  10.490   9.866  0.3540  0.0324 -0.5976
  458MOL0    Cl63111   0.541  10.420  10.004  0.3796  0.4203 -0.2524
  458MOL0     C63112   1.072  10.599   9.063  0.0106 -0.3549 -0.6267
  458MOL0     C63113   1.097  10.527   8.945 -0.5413  0.3027  0.9019
  458MOL0     O63114   1.249  10.677   8.583 -0.4792 -0.5267  0.0139
  458MOL0     C63115   1.226  10.496   8.371  1.3834  1.0779  0.0672
  458MOL0     C63116   1.235  10.414   8.262  0.9442  0.0749 -0.2993
  458MOL0     N63117   1.072  10.485   7.525  0.4406 -0.0874 -0.4086
  458MOL0     N63118   1.130  10.512   7.414 -1.1673 -0.5967 -0.1315
  458MOL0     C63119   1.290  10.823   6.392  0.3978  0.5161  0.2209
  458MOL0     C63120   1.289  10.949   6.323  0.7948  0.0203 -0.5726
  458MOL0     C63121   1.373  11.381   6.233 -0.2675  0.8874 -1.1277
  458MOL0     C63122   1.252  11.409   6.160 -0.3123  0.3237 -0.3202
  458MOL0     C63123   1.249  11.502   6.056 -0.0995 -0.5522 -0.1115
  458MOL0     C63124   1.357  11.587   6.037  0.1292 -0.5371 -0.0740
  458MOL0     O63125   1.342  11.683   5.944  0.3176 -1.3865 -0.4730
  458MOL0     C63126   1.459  11.750   5.886 -0.3150  0.1745  1.1285
  458MOL0     C63127   1.509  11.874   5.966  0.8749  0.2760  0.1548
  458MOL0     C63128   1.629  11.935   5.886  0.5605 -1.0584  0.1826
  458MOL0     C63129   1.598  12.029   5.767  0.2961 -1.0408 -0.2573
  458MOL0     C63130   1.644  11.960   5.653  0.2753  0.5111 -0.3144
  458MOL0     C63131   1.710  11.905   5.568 -0.1954 -0.1011 -0.2763
  458MOL0     C63132   1.477  11.562   6.107  0.0575 -0.0941  0.6566
  458MOL0     C63133   1.484  11.460   6.209  0.4383 -0.2969  0.7843
  458MOL0     C63134   1.615  11.437   6.282  0.0601 -0.3590 -0.6446
  458MOL0     H63135   1.274  11.149   6.594 -1.4192 -1.1761  0.6143
  458MOL0     H63136   1.282  10.948   6.702  0.4213 -0.4960  0.0164
  458MOL0     H63137   1.326  10.571   6.458  1.7290 -0.6492 -0.0190
  458MOL0     H63138   1.173  10.562   6.556 -0.0855  2.0535  1.3301
  458MOL0     H63139   1.343  10.366   6.589 -0.1540 -1.2489  0.9256
  458MOL0     H63140   1.446  10.479   6.662  0.2438 -1.9786 -1.2039
  458MOL0     H63141   1.277  10.533   6.833 -1.9280 -1.2078  3.4746
  458MOL0     H63142   1.162  10.420   6.754  0.4142 -2.1057  1.0667
  458MOL0     H63143   1.331  10.252   6.800 -2.8790 -0.3155  0.7663
  458MOL0     H63144   1.431  10.371   6.892  0.7556 -1.1527 -1.0156
  458MOL0     H63145   1.260  10.215   7.029  2.5322  0.0012 -0.1118
  458MOL0     H63146   1.132  10.302   6.959 -0.0759 -0.8745  0.8922
  458MOL0     H63147   1.266  10.525   7.064 -0.3617  0.5061  1.1528
  458MOL0     H63148   1.162  10.430   7.148 -0.3079  2.1310  0.0761
  458MOL0     H63149   1.461  10.383   7.160  1.7696  0.8830  1.2564
  458MOL0     H63150   1.327  10.300   7.253 -1.1762  1.8877  1.1663
  458MOL0     H63151   1.451  10.513   7.367  0.2094  0.2611 -0.8570
  458MOL0     H63152   1.316  10.579   7.266 -2.1941 -1.2926  0.7208
  458MOL0     H63153   1.375  10.336   7.565  0.6719 -1.7911 -1.6701
  458MOL0     H63154   1.057  10.250   7.727 -1.6131  1.4123 -0.6433
  458MOL0     H63155   1.065  10.406   7.802 -2.2236 -0.8448  0.3502
  458MOL0     H63156   1.276  10.208   7.774 -1.0562 -0.2522  0.6355
  458MOL0     H63157   1.318  10.373   7.821 -0.5681  2.6951  2.3464
  458MOL0     H63158   1.134  10.347   8.003 -0.4469 -0.1232  2.7406
  458MOL0     H63159   1.125  10.173   7.960  1.3009 -0.5290 -0.6584
  458MOL0     H63160   1.360  10.142   8.007 -1.3234 -2.0151  1.1201
  458MOL0     H63161   1.380  10.312   8.045 -2.3253  1.9354 -0.6581
  458MOL0     H63162   1.314  10.137   8.421 -1.0698 -0.1462 -1.9009
  458MOL0     H63163   1.335  10.158   8.639  1.3170  1.0982  0.2851
  458MOL0     H63164   1.198  10.249   8.709  0.4259 -0.0641  1.2299
  458MOL0     H63165   1.371  10.310   8.710 -0.2286  3.1828 -1.3612
  458MOL0     H63166   1.328  10.750   8.813  0.3187 -2.0316 -0.0882
  458MOL0     H63167   1.310  10.843   9.017  2.2386 -0.0469 -2.4719
  458MOL0     H63168   0.952  10.733   9.266 -0.6101 -1.6022 -0.5768
  458MOL0     H63169   1.067  10.621   9.336 -1.0719  0.1837 -0.6042
  458MOL0     H63170   1.158  10.801   9.480 -0.0292  0.2578  0.5200
  458MOL0     H63171   1.043  10.917   9.383 -3.9269 -0.7679 -1.2892
  458MOL0     H63172   0.847  10.792   9.485  0.6229  2.0707 -0.0946
  458MOL0     H63173   0.929  10.887   9.591  0.7847  0.5539 -1.3994
  458MOL0     H63174   1.073  10.689   9.668  0.3322 -0.2060 -1.5407
  458MOL0     H63175   1.010  10.585   9.548  1.7248  1.3634 -2.8117
  458MOL0     H63176   0.899  10.703   9.803  0.7644 -1.0536  0.9717
  458MOL0     H63177   0.774  10.657   9.699 -0.5011 -0.0931  2.7400
  458MOL0     H63178   0.990  10.482   9.834 -1.7211  0.5178  2.8301
  458MOL0     H63179   0.881  10.403   9.725 -0.7007  0.9635 -2.5857
  458MOL0     H63180   0.812  10.540   9.991 -1.7202  0.7015  0.6649
  458MOL0     H63181   0.795  10.379   9.952 -3.4200 -0.3915  0.3288
  458MOL0     H63182   0.627  10.425   9.779 -1.6367  0.0704 -0.3473
  458MOL0     H63183   0.608  10.589   9.836  0.5298 -0.2969 -1.9346
  458MOL0     H63184   1.005  10.555   9.137  0.5509  0.3113  0.2785
  458MOL0     H63185   1.047  10.432   8.928 -1.4040  0.5860  1.7804
  458MOL0     H63186   1.187  10.593   8.341 -1.1906 -0.1059 -0.7444
  458MOL0     H63187   1.212  10.455   8.164 -3.6134 -1.3259 -0.0211
  458MOL0     H63188   1.298  10.731   6.336 -0.7153  0.5105  0.0492
  458MOL0     H63189   1.295  10.946   6.214  0.3043 -1.8286 -0.5886
  458MOL0     H63190   1.156  11.359   6.172  0.1777 -0.1680  2.1390
  458MOL0     H63191   1.146  11.515   6.025 -0.2660  2.0255  1.2249
  458MOL0     H63192   1.538  11.675   5.875  0.8779  1.2513  2.0858
  458MOL0     H63193   1.434  11.782   5.784 -0.7193 -1.3349  0.7339
  458MOL0     H63194   1.559  11.845   6.059 -0.7655 -1.6683  0.4824
  458MOL0     H63195   1.428  11.945   5.981 -2.0146 -1.7686 -3.9116
  458MOL0     H63196   1.696  11.986   5.955  2.0519 -0.0453 -1.9229
  458MOL0     H63197   1.677  11.845   5.847 -0.3876 -2.2275  1.5621
  458MOL0     H63198   1.639  12.130   5.779 -0.8049 -0.7989  2.1500
  458MOL0     H63199   1.489  12.042   5.760  0.5129  0.9068 -0.5742
  458MOL0     H63200   1.760  11.840   5.499 -1.4245  1.2526 -2.6105
  458MOL0     H63201   1.574  11.610   6.104 -0.6540  1.5173  1.9106
  458MOL0     H63202   1.700  11.498   6.250 -2.6672  2.1000 -4.0219
  458MOL0     H63203   1.595  11.460   6.387  1.4038  0.2793 -0.5032
  458MOL0     H63204   1.643  11.332   6.275  1.1096  0.0009 -2.9316
  459MOL0     O63205  10.200   9.804   8.702 -0.0840 -0.5850 -0.4776
  459MOL0     C63206  10.123   9.885   8.660 -0.0204  0.4299  0.5851
  459MOL0     O63207  10.054   9.875   8.546  0.1316  0.0103 -0.7945
  459MOL0     C63208  10.104   9.792   8.457 -0.6389 -1.1448  0.5813
  459MOL0     C63209  10.196   9.845   8.367  0.5041  0.4514  0.5663
  459MOL0     C63210  10.253   9.758   8.268  1.3520 -0.6215  0.2224
  459MOL0     C63211  10.215   9.621   8.265 -0.1376  0.0516 -0.2801
  459MOL0     O63212  10.273   9.539   8.168  0.1474  0.3946  0.3451
  459MOL0     C63213  10.410   9.549   8.147  0.1065 -0.5600 -1.0238
  459MOL0     C63214  10.480   9.433   8.217 -0.6904 -0.6809 -0.3638
  459MOL0     C63215  10.491   9.307   8.131  0.1814 -0.5419 -0.1725
  459MOL0     C63216  10.623   9.236   8.139 -0.1370 -1.1164 -0.3449
  459MOL0     C63217  10.627   9.110   8.060 -0.1659  0.7616 -0.4216
  459MOL0     C63218  10.577   9.106   7.920 -0.5756 -1.4777  0.8153
  459MOL0     C63219  10.649   9.215   7.838 -0.4173 -0.6723 -1.4266
  459MOL0     C63220  10.795   9.185   7.809  0.0302  0.2685 -0.3833
  459MOL0     N63221  10.815   9.048   7.753 -0.1967  0.3075  0.6841
  459MOL0     C63222  10.773   8.987   7.636  0.2482  0.6115 -0.5265
  459MOL0     C63223  10.788   8.857   7.666 -0.7651  0.3652  0.1551
  459MOL0     C63224  10.776   8.742   7.568  0.1440  0.3641 -0.2093
  459MOL0     C63225  10.624   8.720   7.535  0.2950 -0.4901 -0.8259
  459MOL0     C63226  10.541   8.817   7.451 -0.4168  0.1185 -0.5464
  459MOL0     C63227  10.432   8.736   7.374 -0.1898 -0.1074 -0.2326
  459MOL0     O63228  10.344   8.669   7.467 -0.0907  0.3149 -0.8871
  459MOL0     C63229  10.214   8.676   7.437  1.0661  0.1602 -0.3851
  459MOL0     C63230  10.127   8.787   7.468 -0.3542  0.2783 -0.1332
  459MOL0     C63231   9.998   8.786   7.443 -0.0163 -0.8230  0.1559
  459MOL0     C63232   9.911   8.893   7.501 -0.1603  0.5566 -0.1644
  459MOL0     C63233   9.941   8.686   7.368  0.2344  0.7977 -0.2804
  459MOL0     C63234   9.797   8.685   7.326  0.6286 -0.1685  1.3929
  459MOL0     O63235   9.751   8.556   7.309 -0.1646 -0.0532  0.3981
  459MOL0     C63236   9.624   8.558   7.253 -0.0216  0.1431  0.2760
  459MOL0     C63237   9.619   8.578   7.111 -0.5842 -0.3514 -0.2212
  459MOL0     C63238   9.501   8.565   7.043 -0.2289  0.2573  0.1998
  459MOL0     C63239   9.385   8.533   7.113 -0.2852  0.1114 -0.4997
  459MOL0     O63240   9.276   8.512   7.038  0.9599 -0.1751 -0.2520
  459MOL0     C63241   9.188   8.395   7.058 -0.5614 -0.3619 -0.1325
  459MOL0     C63242   9.258   8.255   7.056  0.0803 -0.6798  0.4232
  459MOL0     C63243   9.179   8.139   7.118 -0.3960  0.0515  0.7693
  459MOL0     C63244   9.086   8.081   7.009  0.5425 -0.8268  0.1188
  459MOL0     C63245   9.012   7.956   7.050 -0.5886  0.3748  0.3500
  459MOL0     C63246   9.111   7.838   7.046  0.0348 -0.5098 -0.2672
  459MOL0     C63247   9.037   7.703   7.041  0.8427 -1.3763 -0.5633
  459MOL0     C63248   8.967   7.672   6.917  0.3112 -0.8356  0.4150
  459MOL0    Cl63249   9.084   7.678   6.776 -0.5678  0.3510 -0.0180
  459MOL0     C63250   9.391   8.515   7.248 -0.0596 -0.1644 -0.6750
  459MOL0     C63251   9.506   8.530   7.321  0.7778  0.4812 -0.3040
  459MOL0     O63252   9.734   8.790   7.317  0.1467  0.1117 -0.5626
  459MOL0     C63253  10.021   8.580   7.323 -0.8245 -0.4505  0.7195
  459MOL0     C63254  10.166   8.583   7.353  0.8964  0.3386 -0.4897
  459MOL0     N63255  10.847   8.833   7.789  0.2000 -0.2575 -0.5244
  459MOL0     N63256  10.883   8.951   7.828  1.3138  0.4088  0.1783
  459MOL0     C63257  10.124   9.567   8.349  0.7261  0.4089  0.1804
  459MOL0     C63258  10.067   9.659   8.444  0.7593 -0.4559 -0.4161
  459MOL0     C63259  10.065   9.985   8.755 -0.1160 -0.2609 -0.2606
  459MOL0     C63260   9.932  10.028   8.740 -0.2094  0.0023 -1.1022
  459MOL0     C63261   9.883  10.132   8.819  0.3733  0.4534 -0.1553
  459MOL0     C63262   9.966  10.193   8.911  1.1562  0.2289  1.3626
  459MOL0     O63263   9.908  10.290   8.982 -0.4798  0.0631 -0.2145
  459MOL0     C63264   9.970  10.378   9.065 -0.7461 -0.8186  0.2682
  459MOL0     C63265  10.064  10.470   8.973  0.1437 -0.6291  0.3831
  459MOL0     C63266  10.100  10.598   9.051  0.3648 -0.8011  0.2727
  459MOL0     C63267  10.144  10.577   9.194  0.0270  0.1877 -0.2049
  459MOL0     C63268  10.236  10.682   9.248 -0.0013  0.0962  0.5242
  459MOL0     C63269  10.305  10.765   9.307 -0.7922 -0.0487 -0.0205
  459MOL0     C63270  10.095  10.144   8.927 -0.2810 -0.5277 -0.5790
  459MOL0     C63271  10.146  10.038   8.855  0.2250 -1.1604  0.2777
  459MOL0     C63272  10.292  10.013   8.872 -0.2027  0.4658 -0.2414
  459MOL0     H63273  10.241   9.942   8.386  2.6199 -0.2257 -0.6821
  459MOL0     H63274  10.325   9.805   8.202  0.3600 -3.1421 -2.9274
  459MOL0     H63275  10.462   9.639   8.182 -1.7815  0.5909 -1.0867
  459MOL0     H63276  10.420   9.550   8.038 -1.8473 -0.4806 -1.2362
  459MOL0     H63277  10.578   9.474   8.243  1.1303 -5.9926  2.5914
  459MOL0     H63278  10.443   9.398   8.313  3.5085 -1.5941  1.1068
  459MOL0     H63279  10.409   9.242   8.162  1.5369 -2.2625 -0.0820
  459MOL0     H63280  10.480   9.330   8.024 -1.0740 -0.6687 -0.0835
  459MOL0     H63281  10.701   9.306   8.107  1.3245 -1.2120  2.6981
  459MOL0     H63282  10.634   9.226   8.247 -1.4405  0.0895 -0.0744
  459MOL0     H63283  10.584   9.032   8.124  2.5401 -0.0043  0.5999
  459MOL0     H63284  10.727   9.067   8.047 -1.8920 -4.1262  0.4245
  459MOL0     H63285  10.588   9.012   7.866  1.1131  0.2153 -2.0994
  459MOL0     H63286  10.471   9.133   7.930 -0.4072 -1.2702  2.1992
  459MOL0     H63287  10.647   9.316   7.880  1.3008 -1.3028  0.3510
  459MOL0     H63288  10.593   9.229   7.745  0.0276  0.6041 -1.5216
  459MOL0     H63289  10.835   9.270   7.753 -0.7287  0.2369 -0.9925
  459MOL0     H63290  10.846   9.168   7.905 -0.2413  0.8333 -0.1362
  459MOL0     H63291  10.719   9.023   7.549  0.0533  0.2553 -0.5552
  459MOL0     H63292  10.823   8.661   7.625 -0.4678  0.3063  0.2259
  459MOL0     H63293  10.829   8.760   7.474  0.2041 -0.4423 -0.3343
  459MOL0     H63294  10.617   8.618   7.499 -1.2132 -0.4283 -0.7722
  459MOL0     H63295  10.574   8.720   7.632  2.8234  5.8235  0.9943
  459MOL0     H63296  10.476   8.886   7.507 -1.2904 -1.7617  0.8542
  459MOL0     H63297  10.606   8.881   7.391 -0.7444  2.3378  1.2973
  459MOL0     H63298  10.370   8.806   7.318 -0.3264 -0.7908 -0.9574
  459MOL0     H63299  10.476   8.670   7.299  1.2967  0.4570  0.1055
  459MOL0     H63300  10.170   8.879   7.507 -3.0312  1.3162  0.5474
  459MOL0     H63301   9.829   8.844   7.555  1.1608  1.6954  3.1576
  459MOL0     H63302   9.877   8.962   7.423  1.3965 -0.2335 -1.6081
  459MOL0     H63303   9.962   8.962   7.569  1.3344  0.7897 -1.4635
  459MOL0     H63304   9.716   8.584   7.064 -0.8595 -1.3298 -0.9458
  459MOL0     H63305   9.503   8.569   6.935  0.1352 -0.6451  0.1601
  459MOL0     H63306   9.129   8.410   7.149 -0.4645  1.7767 -0.3652
  459MOL0     H63307   9.112   8.403   6.979 -0.9844 -0.2662  0.2797
  459MOL0     H63308   9.285   8.237   6.952 -2.0819  3.7130 -1.1550
  459MOL0     H63309   9.353   8.273   7.107  0.8999  3.1226 -2.0186
  459MOL0     H63310   9.118   8.170   7.204 -2.3255  2.1545 -1.2300
  459MOL0     H63311   9.248   8.064   7.158 -1.8580 -1.6198  0.3115
  459MOL0     H63312   9.142   8.063   6.917 -0.2044 -1.6717 -0.1799
  459MOL0     H63313   9.013   8.162   6.995  2.7439  1.2239 -0.2386
  459MOL0     H63314   8.975   7.965   7.152  1.4703 -0.7335  1.2466
  459MOL0     H63315   8.930   7.957   6.978  0.4383  2.8395 -0.9373
  459MOL0     H63316   9.176   7.842   7.134 -0.1724  1.8104 -0.1398
  459MOL0     H63317   9.192   7.846   6.972  1.9279  1.1815  1.8591
  459MOL0     H63318   8.969   7.689   7.125 -0.5728 -0.3492 -1.5050
  459MOL0     H63319   9.118   7.630   7.055 -0.2612 -2.7633 -1.1451
  459MOL0     H63320   8.884   7.740   6.894  0.2882 -1.6512 -2.3128
  459MOL0     H63321   8.916   7.576   6.925 -3.0445  0.8519  1.1158
  459MOL0     H63322   9.299   8.515   7.305  1.1030 -3.3457  1.4951
  459MOL0     H63323   9.506   8.524   7.430 -0.7803  0.9723 -0.2493
  459MOL0     H63324   9.990   8.507   7.249  2.3090 -1.2592  0.0795
  459MOL0     H63325  10.232   8.503   7.319  0.6235 -0.6328  1.1844
  459MOL0     H63326  10.092   9.465   8.334  0.9186  0.5021 -0.9784
  459MOL0     H63327  10.009   9.612   8.523  0.0914  1.5827  0.3681
  459MOL0     H63328   9.867   9.981   8.667 -0.0011 -0.3320 -1.0754
  459MOL0     H63329   9.780  10.163   8.803 -0.3130 -0.4471  2.1049
  459MOL0     H63330   9.889  10.433   9.113 -0.2859 -1.0955  1.3933
  459MOL0     H63331  10.019  10.323   9.145  0.1545 -0.8687 -0.2996
  459MOL0     H63332  10.013  10.503   8.882  1.1296 -0.7861 -0.2476
  459MOL0     H63333  10.154  10.418   8.938  1.3708  1.1037  0.8323
  459MOL0     H63334  10.182  10.648   8.998  0.5881 -2.6652 -1.2285
  459MOL0     H63335  10.017  10.669   9.059  3.5886  3.2004  2.0906
  459MOL0     H63336  10.199  10.483   9.207 -3.0161 -1.4868  1.8481
  459MOL0     H63337  10.062  10.571   9.266  1.8502  1.6805  2.1890
  459MOL0     H63338  10.362  10.840   9.358  0.5145  0.1624 -1.7055
  459MOL0     H63339  10.154  10.196   9.002  0.1810 -1.1761 -0.4820
  459MOL0     H63340  10.343  10.035   8.778  3.9077 -2.1973  1.1017
  459MOL0     H63341  10.346  10.080   8.940  0.2930  2.4136 -2.4247
  459MOL0     H63342  10.309   9.910   8.903 -3.9253 -0.0745  0.4396
  460MOL0     O63343   3.004   2.880   3.141 -0.1490 -0.0271  0.1029
  460MOL0     C63344   3.043   2.861   3.026 -0.5801  0.3487  0.0299
  460MOL0     O63345   3.033   2.739   2.955  0.2450  0.4654  0.4961
  460MOL0     C63346   2.973   2.633   3.016  0.3935 -0.2260  0.2215
  460MOL0     C63347   3.023   2.566   3.132 -0.9162 -0.8183  0.0880
  460MOL0     C63348   2.958   2.451   3.182  0.8802  0.8114 -0.3708
  460MOL0     C63349   2.845   2.400   3.122 -0.6683  0.0139  0.3848
  460MOL0     O63350   2.785   2.294   3.176  0.1317 -0.1664 -0.4270
  460MOL0     C63351   2.755   2.181   3.089  0.4079 -0.7327 -0.0236
  460MOL0     C63352   2.749   2.057   3.167 -0.4268  1.0058 -0.4618
  460MOL0     C63353   2.605   2.039   3.227  0.3398 -0.0398 -0.4197
  460MOL0     C63354   2.568   2.125   3.344  0.1849  0.1587  0.1434
  460MOL0     C63355   2.424   2.116   3.387  1.0135  0.4384  1.3208
  460MOL0     C63356   2.397   2.222   3.496  0.6932 -0.4284 -0.5188
  460MOL0     C63357   2.251   2.234   3.524 -0.0830  0.1884 -0.0324
  460MOL0     C63358   2.208   2.327   3.644  0.2839  0.3836  0.0316
  460MOL0     N63359   2.259   2.290   3.778  0.7739 -0.1451 -0.2218
  460MOL0     C63360   2.311   2.168   3.819  0.2651  0.1059  0.7282
  460MOL0     C63361   2.329   2.183   3.949  0.0749  0.0871 -0.2241
  460MOL0     C63362   2.394   2.090   4.048 -0.5083  0.7176 -0.4909
  460MOL0     C63363   2.525   2.148   4.101  0.1217 -0.0735  0.2097
  460MOL0     C63364   2.623   2.198   3.998  0.4754  0.1275 -0.9177
  460MOL0     C63365   2.693   2.083   3.922 -0.4504  0.3137  0.5878
  460MOL0     O63366   2.728   2.129   3.793 -1.0186  0.1890 -0.1029
  460MOL0     C63367   2.837   2.212   3.771  0.0515 -1.2123 -0.2600
  460MOL0     C63368   2.941   2.229   3.856 -0.7821  0.0911  0.8373
  460MOL0     C63369   3.055   2.305   3.818 -1.3594 -0.0215 -0.1231
  460MOL0     C63370   3.159   2.347   3.925  0.0896 -0.4436  1.0161
  460MOL0     C63371   3.070   2.355   3.686 -0.2298  0.8896 -0.0604
  460MOL0     C63372   3.193   2.417   3.638  0.0078  0.2295  0.2669
  460MOL0     O63373   3.162   2.499   3.543 -0.8281 -0.4649 -0.1025
  460MOL0     C63374   3.251   2.564   3.472 -0.2982  0.4021 -0.1713
  460MOL0     C63375   3.217   2.689   3.437 -1.1357 -0.5055 -0.4990
  460MOL0     C63376   3.291   2.776   3.347 -0.3184 -0.4526 -0.0720
  460MOL0     C63377   3.407   2.711   3.285  0.1638 -0.5908  0.2670
  460MOL0     O63378   3.486   2.768   3.193 -0.2733  0.1651  0.4973
  460MOL0     C63379   3.441   2.882   3.125  0.1692 -0.0032  0.1095
  460MOL0     C63380   3.478   3.010   3.206  0.2870 -0.2985  0.9694
  460MOL0     C63381   3.501   3.140   3.122 -0.5350  0.0535 -0.4330
  460MOL0     C63382   3.504   3.262   3.231 -0.2080  0.6383 -0.2461
  460MOL0     C63383   3.530   3.397   3.166  0.0215  0.0166  0.3454
  460MOL0     C63384   3.409   3.481   3.150  0.5090  0.1290  0.3580
  460MOL0     C63385   3.445   3.618   3.107  0.1964  0.0377 -0.0498
  460MOL0     C63386   3.535   3.620   2.982 -0.5451 -0.9472  0.4324
  460MOL0    Cl63387   3.515   3.777   2.900  0.0133 -0.3169  0.5315
  460MOL0     C63388   3.448   2.582   3.324  0.0009 -0.1321 -0.4622
  460MOL0     C63389   3.373   2.511   3.418 -0.0451  0.9403  0.5616
  460MOL0     O63390   3.306   2.392   3.678 -0.3765 -0.5734 -0.4183
  460MOL0     C63391   2.967   2.328   3.597 -0.3309  0.6969  0.5836
  460MOL0     C63392   2.849   2.259   3.640  0.2062 -0.0968 -0.2204
  460MOL0     N63393   2.291   2.317   3.990 -0.4112  0.1234  0.4995
  460MOL0     N63394   2.248   2.374   3.885  0.8742 -0.0730  0.3890
  460MOL0     C63395   2.796   2.465   3.005 -0.1756 -0.0255  0.5345
  460MOL0     C63396   2.855   2.581   2.955  0.1622 -1.3723  0.5221
  460MOL0     C63397   3.093   2.973   2.946  0.1204  0.5605 -0.6893
  460MOL0     C63398   3.141   2.961   2.813  0.3419  0.7210 -0.0704
  460MOL0     C63399   3.174   3.072   2.733  0.2675 -0.3189 -1.2529
  460MOL0     C63400   3.177   3.207   2.784  0.6626  1.3856 -0.0081
  460MOL0     O63401   3.226   3.320   2.721 -0.8387 -0.3303  1.0248
  460MOL0     C63402   3.201   3.346   2.582  0.7908  0.5367 -0.1848
  460MOL0     C63403   3.276   3.465   2.527  0.4401  0.3275 -0.1681
  460MOL0     C63404   3.204   3.520   2.404 -0.2164  0.2237  0.0669
  460MOL0     C63405   3.278   3.650   2.357 -0.0458  0.2911 -0.2554
  460MOL0     C63406   3.221   3.687   2.232 -1.5217  1.0443 -0.0680
  460MOL0     C63407   3.163   3.709   2.134 -0.7947  0.2861  1.2540
  460MOL0     C63408   3.129   3.218   2.917 -0.4546 -0.5850 -0.7861
  460MOL0     C63409   3.092   3.108   3.001 -0.2769 -0.0356 -1.5041
  460MOL0     C63410   3.067   3.141   3.153 -0.1569 -0.5379  0.6124
  460MOL0     H63411   3.111   2.600   3.186 -0.1565 -0.1151 -1.4972
  460MOL0     H63412   3.012   2.411   3.267 -0.2592 -1.3602 -0.6186
  460MOL0     H63413   2.835   2.165   3.016 -0.7635  1.6220 -1.9722
  460MOL0     H63414   2.667   2.202   3.027  2.7658  0.7047 -3.1650
  460MOL0     H63415   2.762   1.967   3.106  0.0869  1.1007 -0.4926
  460MOL0     H63416   2.827   2.069   3.242 -0.5991  3.8301 -0.6401
  460MOL0     H63417   2.522   2.047   3.156 -0.6179 -1.7884  0.4218
  460MOL0     H63418   2.603   1.933   3.256  0.9779  0.6595  2.4627
  460MOL0     H63419   2.630   2.110   3.433  1.6495  0.4765 -0.7941
  460MOL0     H63420   2.581   2.229   3.313 -1.5193  0.5478  0.6148
  460MOL0     H63421   2.406   2.014   3.421  2.8943 -1.0101 -1.6794
  460MOL0     H63422   2.349   2.134   3.310  0.3049  0.2366  1.9459
  460MOL0     H63423   2.450   2.189   3.586 -1.0808 -0.9467  0.3746
  460MOL0     H63424   2.435   2.322   3.471 -2.7516  1.6526  1.8140
  460MOL0     H63425   2.208   2.134   3.539  0.3827  0.3886  3.3279
  460MOL0     H63426   2.200   2.272   3.435 -2.0083  2.5415  1.9114
  460MOL0     H63427   2.234   2.429   3.617  1.2884  0.0968 -0.1331
  460MOL0     H63428   2.099   2.337   3.654  0.1719 -0.5463 -0.0897
  460MOL0     H63429   2.316   2.074   3.766  1.2242  1.5800 -1.9839
  460MOL0     H63430   2.407   1.992   4.001  0.5331 -0.2511  1.7313
  460MOL0     H63431   2.326   2.080   4.133 -0.9959  0.3965 -0.9151
  460MOL0     H63432   2.504   2.225   4.176  1.2425  2.3908 -1.8545
  460MOL0     H63433   2.573   2.066   4.155  0.5732  0.5297  0.7273
  460MOL0     H63434   2.572   2.266   3.929 -0.8305 -0.0829 -0.1857
  460MOL0     H63435   2.697   2.266   4.040 -1.3493  1.3893  0.3741
  460MOL0     H63436   2.781   2.048   3.976 -0.2294 -3.3387 -1.7375
  460MOL0     H63437   2.631   1.995   3.903 -0.8411  0.7785 -0.3811
  460MOL0     H63438   2.936   2.199   3.960 -1.2497  3.1157  1.8002
  460MOL0     H63439   3.237   2.272   3.939  1.2436  0.2588 -1.0736
  460MOL0     H63440   3.111   2.362   4.022 -0.1922  1.1217  0.6652
  460MOL0     H63441   3.208   2.442   3.903 -1.4280 -0.4494 -3.5037
  460MOL0     H63442   3.125   2.714   3.489  0.3359  0.4275  1.8175
  460MOL0     H63443   3.269   2.881   3.333 -2.4333 -0.6507  1.3395
  460MOL0     H63444   3.501   2.900   3.035  2.2223 -0.5464  1.3066
  460MOL0     H63445   3.334   2.879   3.102 -0.3645 -2.3524  2.4649
  460MOL0     H63446   3.402   3.031   3.282  1.7290  0.6642  2.1985
  460MOL0     H63447   3.574   2.995   3.256  3.2098  1.3839 -3.5582
  460MOL0     H63448   3.417   3.161   3.056 -0.8850  4.5357  1.0518
  460MOL0     H63449   3.591   3.131   3.060 -0.1700 -0.9665  0.2195
  460MOL0     H63450   3.580   3.243   3.307 -0.7112 -0.0994  0.0863
  460MOL0     H63451   3.407   3.263   3.283 -0.6956  1.1173 -1.1346
  460MOL0     H63452   3.608   3.447   3.225 -0.1092  0.3965  0.1980
  460MOL0     H63453   3.587   3.380   3.074  0.7125  0.2033  0.7294
  460MOL0     H63454   3.354   3.472   3.244  1.1700  1.2651  0.8746
  460MOL0     H63455   3.339   3.437   3.078 -0.2495  1.1049  0.4726
  460MOL0     H63456   3.485   3.671   3.194 -1.9049  0.6923  0.5897
  460MOL0     H63457   3.354   3.674   3.082  0.9971  2.1994  1.5760
  460MOL0     H63458   3.496   3.540   2.919 -0.1238 -1.4700  0.8270
  460MOL0     H63459   3.640   3.603   3.007 -0.8396  1.4911  4.4373
  460MOL0     H63460   3.528   2.532   3.272  0.2954 -0.6366  0.4448
  460MOL0     H63461   3.400   2.408   3.440 -1.3755 -0.8300 -4.5696
  460MOL0     H63462   2.996   2.365   3.499  1.5449 -2.0738 -0.0333
  460MOL0     H63463   2.765   2.241   3.573 -0.4137  1.2016  0.1727
  460MOL0     H63464   2.706   2.418   2.968  0.0663 -0.9532  1.0701
  460MOL0     H63465   2.819   2.638   2.870  0.2564 -2.4455 -0.2649
  460MOL0     H63466   3.139   2.859   2.777  0.4268  0.2512  1.2064
  460MOL0     H63467   3.199   3.044   2.631 -3.6646 -1.4698 -2.0603
  460MOL0     H63468   3.220   3.251   2.532 -0.7950 -1.6742  3.0769
  460MOL0     H63469   3.093   3.359   2.573 -0.0103 -1.0873  4.4774
  460MOL0     H63470   3.376   3.434   2.493  0.8599  1.8647 -0.4083
  460MOL0     H63471   3.271   3.539   2.607 -1.7379 -2.9236  3.0039
  460MOL0     H63472   3.198   3.451   2.319 -1.8113 -1.2160  1.2836
  460MOL0     H63473   3.101   3.547   2.427  0.0124  1.5376 -0.3196
  460MOL0     H63474   3.383   3.635   2.331  0.6110  1.3080  1.6453
  460MOL0     H63475   3.275   3.737   2.423  2.2482  2.4658 -2.7928
  460MOL0     H63476   3.101   3.730   2.050  0.4671 -0.1257  0.1827
  460MOL0     H63477   3.116   3.314   2.964 -2.5366 -1.8912  1.5542
  460MOL0     H63478   3.083   3.247   3.177  3.6614 -1.3583  2.4366
  460MOL0     H63479   2.979   3.095   3.200 -0.1700 -0.8769  0.2603
  460MOL0     H63480   3.151   3.096   3.206 -1.0710 -1.5877  1.2131
  461MOL0     O63481   0.680   9.308   5.753  0.3246  0.0746  0.1383
  461MOL0     C63482   0.626   9.201   5.787  0.9728  0.6063 -0.7456
  461MOL0     O63483   0.682   9.085   5.809  0.0807 -0.2120 -0.1412
  461MOL0     C63484   0.815   9.069   5.788 -0.1865 -0.2718  0.0241
  461MOL0     C63485   0.870   9.092   5.656 -0.2656 -0.4929  0.2582
  461MOL0     C63486   1.007   9.078   5.628  0.5402 -0.0583 -0.3270
  461MOL0     C63487   1.100   9.050   5.732 -0.3068 -0.2520 -0.3445
  461MOL0     O63488   1.234   9.034   5.724  1.0052 -0.1692  0.0464
  461MOL0     C63489   1.298   9.001   5.603 -0.6355 -0.3469  0.2489
  461MOL0     C63490   1.444   9.055   5.600 -0.0525 -0.1898  0.3406
  461MOL0     C63491   1.530   8.960   5.686 -0.4388 -0.4067  0.3836
  461MOL0     C63492   1.684   8.976   5.647  1.1427  0.2105 -0.0519
  461MOL0     C63493   1.769   8.929   5.764 -0.9155 -0.3975  0.2119
  461MOL0     C63494   1.917   8.947   5.742 -0.2678 -0.1574  0.4587
  461MOL0     C63495   1.971   8.833   5.663 -0.6727 -0.7704  0.6934
  461MOL0     C63496   2.119   8.878   5.613  0.6432  0.2051  0.0863
  461MOL0     N63497   2.174   8.790   5.506  0.6275  0.2923  0.2935
  461MOL0     C63498   2.242   8.670   5.520  0.1599  0.7383 -0.1712
  461MOL0     C63499   2.265   8.624   5.389  0.0225  0.4499 -0.5133
  461MOL0     C63500   2.340   8.498   5.358 -0.3020  0.5571  0.5086
  461MOL0     C63501   2.222   8.393   5.338 -0.2895  0.0695  0.1749
  461MOL0     C63502   2.187   8.341   5.201  0.1172  0.1104 -0.1127
  461MOL0     C63503   2.077   8.244   5.216 -1.4730  0.6413  0.6249
  461MOL0     O63504   2.111   8.134   5.298  0.1478 -0.7507 -0.0411
  461MOL0     C63505   2.027   8.027   5.309 -0.5702  0.7611 -0.1431
  461MOL0     C63506   2.055   7.925   5.405 -0.1846  0.2425 -0.2434
  461MOL0     C63507   1.972   7.817   5.419 -0.4572 -0.6160  0.6298
  461MOL0     C63508   2.006   7.713   5.520 -0.2119  0.9492  0.3395
  461MOL0     C63509   1.855   7.808   5.339  0.2731  0.1772  0.2126
  461MOL0     C63510   1.750   7.703   5.331 -0.2453 -0.0331 -0.4177
  461MOL0     O63511   1.629   7.744   5.278  0.0054  0.3601  0.4574
  461MOL0     C63512   1.518   7.743   5.362  0.0857  0.5047  0.0272
  461MOL0     C63513   1.475   7.620   5.430 -0.5172  0.5812  0.3605
  461MOL0     C63514   1.373   7.632   5.513  0.1632  0.8255 -0.1091
  461MOL0     C63515   1.294   7.743   5.522 -0.0789 -0.0170  1.2049
  461MOL0     O63516   1.178   7.753   5.580  0.3999  0.8275 -0.8509
  461MOL0     C63517   1.096   7.643   5.588 -0.1406  0.7894  0.7197
  461MOL0     C63518   0.948   7.690   5.609 -0.2405 -0.3911 -0.3278
  461MOL0     C63519   0.928   7.767   5.741 -0.3112 -0.3051  1.6189
  461MOL0     C63520   0.779   7.769   5.790  0.0045  0.2385  0.2981
  461MOL0     C63521   0.774   7.885   5.892 -0.1299 -0.1884 -0.1953
  461MOL0     C63522   0.827   7.847   6.033 -0.0307  0.4143  0.1870
  461MOL0     C63523   0.814   7.968   6.135  0.1770 -0.4764  0.5352
  461MOL0     C63524   0.911   7.956   6.249  0.2908  0.3621 -0.2481
  461MOL0    Cl63525   0.829   7.843   6.362  0.2447 -0.0268 -0.0554
  461MOL0     C63526   1.345   7.865   5.471  0.5153  0.5589 -0.4426
  461MOL0     C63527   1.446   7.858   5.375 -0.3111  0.6928  0.2440
  461MOL0     O63528   1.779   7.586   5.358 -0.1027 -0.6295  0.5396
  461MOL0     C63529   1.833   7.911   5.245 -0.2229  0.0884  0.2784
  461MOL0     C63530   1.914   8.014   5.225 -0.7022  0.6415  0.7195
  461MOL0     N63531   2.211   8.727   5.314 -0.4057  0.0989 -0.4064
  461MOL0     N63532   2.162   8.816   5.384 -0.0469  0.0831  0.6757
  461MOL0     C63533   1.050   9.047   5.859  0.0764  0.3801 -1.0327
  461MOL0     C63534   0.916   9.051   5.887 -0.4842 -0.1160 -0.0437
  461MOL0     C63535   0.479   9.190   5.777  0.5889  0.1612  0.0185
  461MOL0     C63536   0.425   9.202   5.648 -0.7740  0.8502  0.3106
  461MOL0     C63537   0.287   9.211   5.631  0.6112 -0.2667  0.2888
  461MOL0     C63538   0.194   9.196   5.738  0.4762 -0.7197 -0.7902
  461MOL0     O63539   0.053   9.205   5.710 -0.5757  0.8083  0.6170
  461MOL0     C63540  -0.027   9.217   5.824  1.1132 -0.2903  0.5830
  461MOL0     C63541  -0.177   9.239   5.779  0.1827 -0.3915  0.5101
  461MOL0     C63542  -0.238   9.124   5.695  0.0292  0.2172  0.5279
  461MOL0     C63543  -0.370   9.166   5.621 -0.2084  0.9520  0.0810
  461MOL0     C63544  -0.350   9.265   5.512  1.0612 -0.4587 -0.1078
  461MOL0     C63545  -0.326   9.349   5.430  0.4909 -0.0886  0.2497
  461MOL0     C63546   0.246   9.168   5.865 -0.0623  0.4626  0.1859
  461MOL0     C63547   0.391   9.182   5.889  0.4648  0.2303 -0.4492
  461MOL0     C63548   0.445   9.153   6.035 -0.0536 -0.5422  0.4855
  461MOL0     H63549   0.799   9.121   5.579  2.2950  2.4104 -1.2436
  461MOL0     H63550   1.048   9.082   5.528  0.7269 -1.3892 -0.3266
  461MOL0     H63551   1.250   9.044   5.514  1.8491  0.2558 -0.8799
  461MOL0     H63552   1.302   8.894   5.581  0.8348 -0.1237 -0.7359
  461MOL0     H63553   1.484   9.058   5.498  1.9280 -0.2565  1.0573
  461MOL0     H63554   1.450   9.155   5.644  2.1802 -1.2517  2.7755
  461MOL0     H63555   1.511   8.977   5.793 -3.0170 -2.0246  0.2691
  461MOL0     H63556   1.495   8.857   5.671  0.0872 -0.5599  0.1680
  461MOL0     H63557   1.703   8.929   5.551  0.5999  1.2381 -0.6772
  461MOL0     H63558   1.704   9.083   5.633 -0.7841  0.8119  1.2591
  461MOL0     H63559   1.739   8.828   5.792 -1.8361  0.4103  2.3929
  461MOL0     H63560   1.757   8.994   5.851  0.2354  1.0865 -0.6834
  461MOL0     H63561   1.935   9.045   5.698 -5.4646  0.6334 -0.4683
  461MOL0     H63562   1.971   8.935   5.837  1.2250  0.9923 -0.2013
  461MOL0     H63563   1.911   8.803   5.576  1.6144  2.0035 -2.1252
  461MOL0     H63564   1.971   8.747   5.730 -0.2522 -0.0185  1.6758
  461MOL0     H63565   2.123   8.977   5.567 -3.8304 -0.2438 -1.8252
  461MOL0     H63566   2.189   8.862   5.695  2.1492  3.1497 -0.5224
  461MOL0     H63567   2.260   8.615   5.612 -3.4648 -1.1892 -0.4455
  461MOL0     H63568   2.402   8.465   5.442  1.4541 -0.2589 -1.0335
  461MOL0     H63569   2.411   8.510   5.275  0.8687 -0.0060  1.3904
  461MOL0     H63570   2.257   8.305   5.393 -1.7069 -0.4179  0.3253
  461MOL0     H63571   2.126   8.415   5.386 -1.0423 -1.2769 -0.6495
  461MOL0     H63572   2.166   8.429   5.139  2.3649 -1.3116 -3.1477
  461MOL0     H63573   2.277   8.288   5.166 -1.2962 -1.6744 -1.1932
  461MOL0     H63574   1.992   8.285   5.272 -1.9877 -0.6474  0.8364
  461MOL0     H63575   2.044   8.214   5.116 -1.8988  1.1672  0.6004
  461MOL0     H63576   2.149   7.926   5.459 -1.0531 -2.2778  1.4771
  461MOL0     H63577   1.991   7.613   5.477  0.8184  1.2594 -0.8169
  461MOL0     H63578   1.929   7.711   5.597 -1.5901  2.0139 -0.9413
  461MOL0     H63579   2.109   7.710   5.556  0.4670 -2.7642 -1.3861
  461MOL0     H63580   1.533   7.530   5.415  0.0646  1.2739 -2.0090
  461MOL0     H63581   1.331   7.541   5.556  0.4413  0.8785  0.2848
  461MOL0     H63582   1.095   7.582   5.496 -1.6483 -1.5602  2.1847
  461MOL0     H63583   1.128   7.572   5.665  0.1345  1.9239  1.6773
  461MOL0     H63584   0.920   7.759   5.529  2.4312  1.8549  0.4923
  461MOL0     H63585   0.886   7.601   5.603  0.2114 -0.8219  0.9390
  461MOL0     H63586   0.960   7.868   5.717  0.6190 -1.6340 -4.1790
  461MOL0     H63587   1.000   7.723   5.811 -0.8975 -0.3056  2.2253
  461MOL0     H63588   0.749   7.672   5.830  1.2369 -0.1618  0.2903
  461MOL0     H63589   0.719   7.777   5.699  0.7470 -1.5419 -0.3989
  461MOL0     H63590   0.825   7.978   5.870  0.5259  0.4196  3.3209
  461MOL0     H63591   0.668   7.912   5.897  0.5168  2.3399  2.4767
  461MOL0     H63592   0.931   7.814   6.022 -0.1428 -0.0917  0.6212
  461MOL0     H63593   0.769   7.765   6.076 -2.2591 -1.0835 -4.9182
  461MOL0     H63594   0.713   7.966   6.176  0.7635  1.2259  2.2028
  461MOL0     H63595   0.817   8.067   6.090 -1.2281 -0.0952  1.2303
  461MOL0     H63596   0.916   8.051   6.305 -1.2380 -1.2138  2.7984
  461MOL0     H63597   1.005   7.909   6.219  0.0225  1.2037 -2.6026
  461MOL0     H63598   1.297   7.963   5.477  2.7454  1.7160 -0.1858
  461MOL0     H63599   1.493   7.938   5.318 -0.6144  0.0817 -0.9094
  461MOL0     H63600   1.752   7.905   5.174  0.4051 -2.2055 -0.3095
  461MOL0     H63601   1.905   8.071   5.133 -0.5923  2.1810  1.6318
  461MOL0     H63602   1.122   9.041   5.940 -2.6103 -1.3407  1.4469
  461MOL0     H63603   0.871   9.044   5.985 -0.2863 -2.3237 -0.0650
  461MOL0     H63604   0.489   9.222   5.563 -0.3291  2.1969  0.9500
  461MOL0     H63605   0.250   9.216   5.529  0.8857 -0.0066  0.2035
  461MOL0     H63606  -0.017   9.128   5.888 -0.9646 -0.9832  0.0050
  461MOL0     H63607  -0.004   9.314   5.869 -1.1573  0.5459  0.0613
  461MOL0     H63608  -0.183   9.331   5.719  0.6271 -0.0312  1.0129
  461MOL0     H63609  -0.230   9.259   5.872  3.5241 -0.4968  2.6078
  461MOL0     H63610  -0.177   9.081   5.616 -2.3198 -2.3924 -0.0120
  461MOL0     H63611  -0.258   9.046   5.769 -1.1717 -2.3331 -2.2570
  461MOL0     H63612  -0.446   9.196   5.694 -0.4982  1.9658 -0.6108
  461MOL0     H63613  -0.409   9.077   5.570  2.4901 -0.3264  0.0426
  461MOL0     H63614  -0.316   9.418   5.349  1.5273 -2.5730 -1.9075
  461MOL0     H63615   0.190   9.147   5.955 -0.4522 -0.4885 -0.2690
  461MOL0     H63616   0.554   9.159   6.040 -0.1318  0.5686  1.7515
  461MOL0     H63617   0.401   9.235   6.094 -2.6129  0.8406 -3.0344
  461MOL0     H63618   0.421   9.053   6.073  2.7741 -1.1530  0.8455
  462MOL0     O63619   6.108   6.287   0.253 -0.7787 -0.1643 -0.5033
  462MOL0     C63620   6.212   6.221   0.253 -1.3729  0.3376 -0.6325
  462MOL0     O63621   6.342   6.279   0.276 -0.0976 -0.2591 -0.2235
  462MOL0     C63622   6.372   6.413   0.268  0.1526 -0.8081  0.6145
  462MOL0     C63623   6.488   6.449   0.333 -0.3309 -0.3998  0.1356
  462MOL0     C63624   6.548   6.570   0.327 -0.3059 -0.2222 -1.1767
  462MOL0     C63625   6.484   6.683   0.261 -0.0828  0.0602 -0.3480
  462MOL0     O63626   6.519   6.810   0.242 -0.3667  0.2691  0.0227
  462MOL0     C63627   6.613   6.875   0.318  0.8777  0.6692  0.1927
  462MOL0     C63628   6.571   6.877   0.464 -0.1590 -0.5352 -0.0960
  462MOL0     C63629   6.700   6.928   0.536  0.3412  0.3750  0.1593
  462MOL0     C63630   6.687   6.945   0.691 -0.0654 -0.4112 -0.5258
  462MOL0     C63631   6.792   7.036   0.752  0.4378  0.1777 -0.5053
  462MOL0     C63632   6.748   7.191   0.763  0.1626  0.2583  1.0232
  462MOL0     C63633   6.853   7.276   0.835  0.3795  0.3481 -0.3410
  462MOL0     C63634   6.814   7.422   0.859 -0.4468  0.1909 -0.5803
  462MOL0     N63635   6.873   7.476   0.984 -0.0193 -0.1313  0.7698
  462MOL0     C63636   6.808   7.499   1.099 -0.1235 -0.8281  0.7653
  462MOL0     C63637   6.901   7.565   1.172  0.8892  1.1142  0.1584
  462MOL0     C63638   6.884   7.593   1.322 -0.4690  0.6501  0.0741
  462MOL0     C63639   7.001   7.558   1.405 -0.8665 -0.4535  0.4800
  462MOL0     C63640   6.969   7.524   1.548  0.2291  1.4104 -0.6100
  462MOL0     C63641   6.880   7.404   1.564  0.8866 -0.5037 -0.1100
  462MOL0     O63642   6.881   7.365   1.703 -0.6176 -0.6128  0.3355
  462MOL0     C63643   6.835   7.247   1.743 -0.3699 -0.3608 -0.4842
  462MOL0     C63644   6.776   7.147   1.656  0.1208  0.6019  0.1745
  462MOL0     C63645   6.724   7.023   1.712 -0.0889 -0.5338  0.0113
  462MOL0     C63646   6.641   6.945   1.616  0.2480  0.2657  1.4225
  462MOL0     C63647   6.755   6.990   1.845 -0.6278  0.1250  0.8782
  462MOL0     C63648   6.723   6.859   1.908  0.9678 -0.1544  0.1986
  462MOL0     O63649   6.793   6.839   2.026 -0.0963 -0.7903  0.0250
  462MOL0     C63650   6.735   6.743   2.106 -0.0203 -0.4827  0.5434
  462MOL0     C63651   6.824   6.641   2.153  0.4840  1.0686  0.8333
  462MOL0     C63652   6.773   6.533   2.228  0.6310 -0.1251  0.4291
  462MOL0     C63653   6.638   6.545   2.278 -0.3214 -0.2766 -0.3197
  462MOL0     O63654   6.597   6.459   2.365  0.3145 -0.5500 -0.5267
  462MOL0     C63655   6.653   6.323   2.367 -0.1586 -0.2235 -0.3724
  462MOL0     C63656   6.747   6.286   2.475  0.0246 -0.0772 -0.7754
  462MOL0     C63657   6.699   6.326   2.624  0.1337  0.8143  0.4632
  462MOL0     C63658   6.561   6.282   2.662  0.2142 -0.2268  0.3111
  462MOL0     C63659   6.544   6.216   2.804  0.2083  0.2987 -0.4281
  462MOL0     C63660   6.404   6.153   2.808 -0.7089  0.4488  0.0083
  462MOL0     C63661   6.283   6.259   2.809  0.4257 -0.6322 -0.7711
  462MOL0     C63662   6.151   6.177   2.821  0.8586  0.0088 -1.4237
  462MOL0    Cl63663   6.145   6.066   2.682 -0.1118 -0.2555  0.2743
  462MOL0     C63664   6.551   6.648   2.236  0.4560  0.0938 -1.0621
  462MOL0     C63665   6.598   6.742   2.144 -0.6041 -0.1886 -0.0513
  462MOL0     O63666   6.654   6.775   1.854  0.2398  0.2224 -0.7026
  462MOL0     C63667   6.803   7.090   1.927  0.0994 -0.2041  0.0998
  462MOL0     C63668   6.846   7.215   1.877 -0.3595  1.2719 -0.4767
  462MOL0     N63669   7.010   7.579   1.094  0.0776 -0.9012 -0.0245
  462MOL0     N63670   6.993   7.535   0.981 -0.2031 -0.9151  0.6541
  462MOL0     C63671   6.365   6.638   0.190  0.4157 -0.1083 -0.8913
  462MOL0     C63672   6.315   6.505   0.188  0.3300 -0.3976 -0.0176
  462MOL0     C63673   6.198   6.075   0.228  0.0346  0.4030 -0.2874
  462MOL0     C63674   6.280   6.011   0.128  0.3438  0.9245  0.2283
  462MOL0     C63675   6.248   5.875   0.096  1.4869  0.1696 -0.4983
  462MOL0     C63676   6.143   5.794   0.154 -0.5672 -0.6938  0.2789
  462MOL0     O63677   6.121   5.671   0.102 -0.2665  0.2162 -0.1829
  462MOL0     C63678   6.091   5.563   0.193 -0.0532  0.1411 -0.1287
  462MOL0     C63679   5.941   5.530   0.200 -0.4024 -1.0113  0.0848
  462MOL0     C63680   5.900   5.450   0.078 -0.3288  0.5399  0.4979
  462MOL0     C63681   5.884   5.295   0.109 -0.4388 -0.2194 -0.8896
  462MOL0     C63682   5.827   5.233  -0.009  0.9091  0.5597  0.0200
  462MOL0     C63683   5.786   5.160  -0.098 -0.8035 -0.9047  0.3312
  462MOL0     C63684   6.069   5.860   0.255  0.2817 -0.2999  0.3175
  462MOL0     C63685   6.085   5.999   0.280 -0.4889  0.1480 -1.6177
  462MOL0     C63686   5.999   6.056   0.398 -0.5360  0.1641  0.6263
  462MOL0     H63687   6.543   6.373   0.389 -0.0610 -1.5758 -1.6468
  462MOL0     H63688   6.638   6.599   0.380  0.8176  1.9275 -3.9876
  462MOL0     H63689   6.615   6.976   0.276 -1.3099  0.2255 -1.1321
  462MOL0     H63690   6.704   6.816   0.308 -0.6754 -1.8615  0.0069
  462MOL0     H63691   6.492   6.953   0.467  0.6221  0.3114 -0.2742
  462MOL0     H63692   6.532   6.782   0.501  0.6737 -0.1765  1.8216
  462MOL0     H63693   6.785   6.866   0.508  1.3836  2.2191 -0.9324
  462MOL0     H63694   6.721   7.032   0.512 -0.1386  1.0438  2.4114
  462MOL0     H63695   6.585   6.975   0.720 -0.4433  0.7438 -2.8354
  462MOL0     H63696   6.706   6.850   0.742  0.8233  0.8299  1.5974
  462MOL0     H63697   6.886   7.042   0.698  0.1868  1.1979 -0.8578
  462MOL0     H63698   6.828   6.983   0.840 -0.8088  0.1533  0.0202
  462MOL0     H63699   6.728   7.225   0.661 -0.9131 -0.5496  0.9320
  462MOL0     H63700   6.649   7.193   0.810 -0.2587 -0.2947  0.1898
  462MOL0     H63701   6.949   7.273   0.781  0.0386  0.1126 -0.9386
  462MOL0     H63702   6.861   7.218   0.927 -0.6070 -0.1544 -0.5666
  462MOL0     H63703   6.843   7.491   0.779  0.5053  3.5246  2.3912
  462MOL0     H63704   6.705   7.423   0.870 -0.3359 -1.5353  1.2893
  462MOL0     H63705   6.710   7.466   1.135 -1.7775  3.3004  0.5750
  462MOL0     H63706   6.792   7.545   1.355  0.2404 -0.6054  0.3012
  462MOL0     H63707   6.858   7.699   1.324 -3.0727  0.1742 -2.4429
  462MOL0     H63708   7.049   7.468   1.366 -1.9650 -0.4848 -0.8697
  462MOL0     H63709   7.073   7.640   1.408  1.1803 -2.1873  0.6000
  462MOL0     H63710   7.065   7.500   1.595  0.0851  0.0402 -0.9692
  462MOL0     H63711   6.920   7.608   1.598 -0.0911  1.1284 -0.4456
  462MOL0     H63712   6.779   7.427   1.531  1.5026  1.0617 -1.0155
  462MOL0     H63713   6.916   7.323   1.500  0.5810 -0.1454 -0.7486
  462MOL0     H63714   6.779   7.167   1.550  1.9949 -1.3900 -0.2078
  462MOL0     H63715   6.625   7.012   1.531  1.6616  1.0678  1.7724
  462MOL0     H63716   6.538   6.925   1.649  0.4381 -4.0303 -0.0308
  462MOL0     H63717   6.683   6.848   1.590  3.3756  2.6545 -4.1143
  462MOL0     H63718   6.927   6.638   2.120  0.7046  1.1109  1.5014
  462MOL0     H63719   6.834   6.445   2.245  0.2221 -0.2543  1.2795
  462MOL0     H63720   6.571   6.252   2.384  1.1414 -1.5407  0.6445
  462MOL0     H63721   6.688   6.311   2.264  2.0672  0.0174  0.3063
  462MOL0     H63722   6.752   6.177   2.466  1.5080 -0.0531 -0.5683
  462MOL0     H63723   6.847   6.321   2.445  0.6598  0.1838  1.4712
  462MOL0     H63724   6.702   6.435   2.619  0.3612  0.7800 -0.4178
  462MOL0     H63725   6.779   6.293   2.691 -0.6915 -0.8574  0.6698
  462MOL0     H63726   6.538   6.200   2.594  3.4165 -2.6682  1.8964
  462MOL0     H63727   6.487   6.362   2.648 -0.8593 -1.4820 -1.7147
  462MOL0     H63728   6.625   6.143   2.814  1.4853  1.3992 -2.0672
  462MOL0     H63729   6.549   6.301   2.873 -0.5603  0.3743 -0.4618
  462MOL0     H63730   6.390   6.097   2.901 -2.4303 -0.6342 -0.8619
  462MOL0     H63731   6.395   6.087   2.721  4.0884  1.8234 -1.8886
  462MOL0     H63732   6.289   6.311   2.713  2.8201  2.3263  0.8050
  462MOL0     H63733   6.289   6.339   2.884  0.3047 -1.0852 -0.2664
  462MOL0     H63734   6.065   6.243   2.808  0.1932 -0.9383 -1.9946
  462MOL0     H63735   6.125   6.128   2.916 -1.9640  1.6037 -1.2409
  462MOL0     H63736   6.446   6.635   2.260  0.2297  0.5736 -1.7769
  462MOL0     H63737   6.539   6.828   2.112 -0.7963 -1.4064 -3.4239
  462MOL0     H63738   6.810   7.069   2.033 -0.8912  1.4857  0.5409
  462MOL0     H63739   6.884   7.291   1.944  0.4500  2.3079 -2.0698
  462MOL0     H63740   6.312   6.710   0.128  0.4054  2.2928  1.7323
  462MOL0     H63741   6.227   6.492   0.125 -0.4215 -2.6134  1.3533
  462MOL0     H63742   6.365   6.053   0.076 -0.8173 -0.7405 -3.3313
  462MOL0     H63743   6.312   5.813   0.034  1.5349  0.0519 -0.3336
  462MOL0     H63744   6.143   5.471   0.166 -2.1021 -0.4965 -2.2005
  462MOL0     H63745   6.126   5.595   0.292 -0.4727 -0.8444  0.3492
  462MOL0     H63746   5.880   5.621   0.206 -1.1499 -1.4774 -0.4287
  462MOL0     H63747   5.910   5.479   0.292  0.6388 -2.4190 -0.3259
  462MOL0     H63748   5.803   5.492   0.048  0.1821  1.3765 -0.0213
  462MOL0     H63749   5.975   5.458  -0.001 -0.9174  0.8073 -0.0351
  462MOL0     H63750   5.811   5.276   0.188  0.8791 -0.4677  0.3000
  462MOL0     H63751   5.982   5.256   0.136 -0.1985 -0.4825 -2.0755
  462MOL0     H63752   5.748   5.115  -0.187 -0.9724  1.8145 -1.0854
  462MOL0     H63753   5.985   5.817   0.309 -1.6860  0.2496 -2.1248
  462MOL0     H63754   6.049   6.128   0.462 -1.6186  0.5292  1.0794
  462MOL0     H63755   5.914   6.112   0.358  1.0026  0.4237 -2.6955
  462MOL0     H63756   5.964   5.973   0.461 -4.5861  2.0100  1.1198
  463MOL0     O63757  11.230   9.436  10.318 -0.7450 -0.0808 -0.1996
  463MOL0     C63758  11.315   9.433  10.236 -0.0989 -0.3972  0.2946
  463MOL0     O63759  11.442   9.484  10.264 -0.1090  0.0868 -0.7837
  463MOL0     C63760  11.462   9.531  10.392  0.5010 -0.5723  0.0978
  463MOL0     C63761  11.452   9.442  10.504  0.7025 -0.8635  0.1775
  463MOL0     C63762  11.491   9.484  10.635  0.0081  0.3619  0.6524
  463MOL0     C63763  11.540   9.614  10.658 -0.0207  0.0803 -0.0195
  463MOL0     O63764  11.574   9.639  10.789 -0.3589 -0.5304  0.1834
  463MOL0     C63765  11.571   9.779  10.826  0.6488  0.0479 -0.2002
  463MOL0     C63766  11.577   9.788  10.974 -0.4656 -0.1146 -0.5692
  463MOL0     C63767  11.598   9.929  11.015 -0.2499  0.3322 -0.9009
  463MOL0     C63768  11.594   9.937  11.166  0.1467  0.0912  1.3734
  463MOL0     C63769  11.602  10.078  11.201 -1.5183 -0.5886 -0.2359
  463MOL0     C63770  11.726  10.168  11.158 -0.5985 -0.0091 -1.0915
  463MOL0     C63771  11.854  10.109  11.209 -0.3751 -0.5762 -0.1369
  463MOL0     C63772  11.867  10.087  11.355 -1.3729 -0.3353  0.1856
  463MOL0     N63773  11.911  10.205  11.423 -0.3404 -0.7873  0.0579
  463MOL0     C63774  11.837  10.274  11.518 -0.2189 -0.1081 -0.4676
  463MOL0     C63775  11.910  10.379  11.560 -0.8305 -0.0430 -0.3429
  463MOL0     C63776  11.873  10.482  11.664  0.1798 -0.3010  0.1190
  463MOL0     C63777  11.803  10.424  11.789 -0.0445 -0.7046 -0.4940
  463MOL0     C63778  11.803  10.531  11.896 -0.0171  0.5146 -0.8570
  463MOL0     C63779  11.764  10.470  12.033 -0.4972 -1.0380 -0.3128
  463MOL0     O63780  11.620  10.439  12.050 -0.9521  0.1231 -0.0173
  463MOL0     C63781  11.566  10.452  12.175  0.1601 -0.3356 -1.0105
  463MOL0     C63782  11.443  10.522  12.187  0.3915 -0.2322  0.4544
  463MOL0     C63783  11.381  10.543  12.310 -0.0373 -0.2699 -0.9430
  463MOL0     C63784  11.251  10.618  12.303 -0.1026 -0.4809 -0.8814
  463MOL0     C63785  11.435  10.483  12.428  0.0765  0.3225  0.1593
  463MOL0     C63786  11.377  10.479  12.577 -0.7831 -0.7267  0.9358
  463MOL0     O63787  11.453  10.409  12.668  1.2591 -0.0605  0.3698
  463MOL0     C63788  11.427  10.391  12.802 -0.6328  0.6039 -0.2019
  463MOL0     C63789  11.534  10.377  12.892 -0.3243 -0.1374 -0.0231
  463MOL0     C63790  11.505  10.369  13.037 -0.4085 -0.7093  1.4522
  463MOL0     C63791  11.371  10.371  13.077  0.4859  0.5791 -0.6506
  463MOL0     O63792  11.332  10.341  13.211 -0.6652  0.2272  0.3856
  463MOL0     C63793  11.432  10.389  13.308 -0.6294  1.1476  0.7575
  463MOL0     C63794  11.354  10.378  13.436  0.1466 -0.6449 -0.1288
  463MOL0     C63795  11.463  10.386  13.539  1.2693 -0.0214 -0.0227
  463MOL0     C63796  11.417  10.404  13.680  0.5957 -0.3717 -0.7772
  463MOL0     C63797  11.379  10.258  13.733 -0.2030 -1.0780 -0.3088
  463MOL0     C63798  11.327  10.261  13.881 -0.3693  0.4304 -0.1505
  463MOL0     C63799  11.435  10.285  13.996  0.3626  0.0366 -0.1396
  463MOL0     C63800  11.386  10.264  14.137 -0.3388 -0.4644 -0.1619
  463MOL0    Cl63801  11.349  10.087  14.173  0.7183 -0.3349  0.0795
  463MOL0     C63802  11.272  10.375  12.988  0.5160 -1.0890  0.6114
  463MOL0     C63803  11.294  10.392  12.848  0.0459 -0.4287 -0.6322
  463MOL0     O63804  11.271  10.537  12.593 -0.2732 -0.6547  0.1954
  463MOL0     C63805  11.557  10.424  12.413 -0.0091 -0.2407  0.6033
  463MOL0     C63806  11.629  10.414  12.293 -0.0410 -0.1502 -0.2971
  463MOL0     N63807  12.034  10.374  11.496  0.9532  0.5976 -0.0130
  463MOL0     N63808  12.037  10.262  11.418  0.3297 -0.4677 -0.8812
  463MOL0     C63809  11.563   9.697  10.545  0.3899 -0.3185 -0.8654
  463MOL0     C63810  11.528   9.655  10.416  1.1202 -0.0877 -0.4253
  463MOL0     C63811  11.304   9.365  10.107 -0.3224 -1.3814  0.7474
  463MOL0     C63812  11.422   9.337  10.033 -0.6705 -1.0520  0.5366
  463MOL0     C63813  11.408   9.282   9.904 -0.2391 -0.6519  0.1532
  463MOL0     C63814  11.287   9.234   9.848  0.3582  0.1597 -1.0115
  463MOL0     O63815  11.281   9.172   9.726 -0.3159 -0.2405  0.9191
  463MOL0     C63816  11.212   9.049   9.723  0.9884 -0.3896 -0.1382
  463MOL0     C63817  11.258   8.977   9.596 -0.4970  1.1893 -0.5238
  463MOL0     C63818  11.195   8.841   9.575  0.4086 -0.3938  0.2856
  463MOL0     C63819  11.182   8.809   9.426  0.3947  0.2737  0.3812
  463MOL0     C63820  11.115   8.682   9.407 -0.8058  0.0475 -0.4067
  463MOL0     C63821  11.045   8.587   9.403  0.4705 -0.0784  0.7965
  463MOL0     C63822  11.174   9.261   9.925 -0.4960  0.1481  0.4821
  463MOL0     C63823  11.181   9.333  10.050  0.5774 -0.1624  0.4445
  463MOL0     C63824  11.043   9.367  10.118  0.2135 -0.7357  0.2281
  463MOL0     H63825  11.422   9.341  10.477 -3.5376 -0.0511  0.9957
  463MOL0     H63826  11.476   9.405  10.708  0.0024 -2.2920 -2.0705
  463MOL0     H63827  11.480   9.824  10.787 -0.0519 -1.4786 -0.4021
  463MOL0     H63828  11.662   9.832  10.795  0.6143  0.0588 -0.2857
  463MOL0     H63829  11.487   9.747  11.021 -0.0676  0.7568  1.0186
  463MOL0     H63830  11.659   9.724  11.010  1.4893  2.1366 -0.7591
  463MOL0     H63831  11.690   9.976  10.978 -1.0095  0.5838 -2.5651
  463MOL0     H63832  11.521   9.992  10.970  0.7801  1.9440 -0.5035
  463MOL0     H63833  11.496   9.901  11.200 -0.0275  0.0523  0.8262
  463MOL0     H63834  11.674   9.875  11.208 -0.6563 -3.6681 -1.9877
  463MOL0     H63835  11.574  10.087  11.306  0.8280  2.7300  0.2509
  463MOL0     H63836  11.517  10.122  11.150 -1.7899  0.0721  0.7665
  463MOL0     H63837  11.729  10.176  11.049  1.5691 -1.2247 -1.1938
  463MOL0     H63838  11.714  10.273  11.187  0.3786 -0.1173 -0.2173
  463MOL0     H63839  11.926  10.189  11.186 -0.1367 -0.6278  0.4053
  463MOL0     H63840  11.885  10.017  11.158 -0.1815 -1.0638  0.8360
  463MOL0     H63841  11.779  10.048  11.408 -0.9981 -1.6377 -0.1184
  463MOL0     H63842  11.949  10.015  11.358 -1.3121 -0.3145 -0.7642
  463MOL0     H63843  11.734  10.256  11.550 -0.0047  2.6300  2.1343
  463MOL0     H63844  11.805  10.555  11.619  0.8212  0.6347  0.6516
  463MOL0     H63845  11.960  10.545  11.681  0.5962 -0.6724 -0.5889
  463MOL0     H63846  11.698  10.405  11.763 -0.4374  0.7659 -0.0518
  463MOL0     H63847  11.849  10.330  11.820 -1.2722 -1.7489 -1.6471
  463MOL0     H63848  11.901  10.577  11.884  0.3794 -0.5482 -1.8645
  463MOL0     H63849  11.725  10.606  11.878 -1.1110 -0.2933  0.2605
  463MOL0     H63850  11.815  10.377  12.058 -2.5985 -2.5727 -1.3744
  463MOL0     H63851  11.785  10.540  12.114 -1.4410  2.0925 -2.5892
  463MOL0     H63852  11.404  10.559  12.093  2.6833  1.5184  0.0944
  463MOL0     H63853  11.243  10.688  12.220 -2.2702  2.0012  1.2668
  463MOL0     H63854  11.239  10.681  12.391  1.6803 -0.1626 -0.8176
  463MOL0     H63855  11.163  10.553  12.310 -1.2876  1.0756 -0.8215
  463MOL0     H63856  11.641  10.384  12.872 -0.0034  0.7772  1.8290
  463MOL0     H63857  11.595  10.350  13.094 -0.1190  0.4368  1.3960
  463MOL0     H63858  11.524  10.331  13.319 -0.0457  2.0670  0.8368
  463MOL0     H63859  11.476  10.489  13.298 -0.9112  1.7608  4.1944
  463MOL0     H63860  11.276  10.454  13.445 -0.9363 -1.9014  1.8401
  463MOL0     H63861  11.309  10.278  13.442  0.7454 -0.9992 -1.3521
  463MOL0     H63862  11.521  10.475  13.512 -0.4295  2.4198  3.4723
  463MOL0     H63863  11.529  10.299  13.528  2.0221  0.7172 -1.8462
  463MOL0     H63864  11.329  10.467  13.694  2.6728  2.4669  0.7309
  463MOL0     H63865  11.492  10.454  13.742 -0.7489  0.7455  0.0003
  463MOL0     H63866  11.307  10.222  13.660 -1.8297 -1.3606  1.3672
  463MOL0     H63867  11.471  10.199  13.737  1.0575  0.8471  0.6249
  463MOL0     H63868  11.284  10.161  13.890 -0.1042  0.4740  2.3343
  463MOL0     H63869  11.247  10.334  13.895  0.1310  1.0462 -0.4196
  463MOL0     H63870  11.475  10.385  13.979  3.4931 -1.0769 -0.0382
  463MOL0     H63871  11.515  10.214  13.972  0.2467  0.3144 -1.4606
  463MOL0     H63872  11.296  10.326  14.138  1.2252  1.9709 -0.5709
  463MOL0     H63873  11.467  10.293  14.204 -1.9868  0.6734  1.4514
  463MOL0     H63874  11.167  10.365  13.014 -0.2835  0.0186 -1.9830
  463MOL0     H63875  11.206  10.415  12.788  0.2611  3.1947  0.2115
  463MOL0     H63876  11.593  10.376  12.504  1.1008 -1.3175 -0.3780
  463MOL0     H63877  11.727  10.369  12.285  1.4987  2.7640  0.5968
  463MOL0     H63878  11.603   9.798  10.539 -0.4722 -0.0161 -1.7713
  463MOL0     H63879  11.525   9.723  10.332 -0.4353  2.3399  1.4413
  463MOL0     H63880  11.523   9.345  10.072 -1.4723  2.5376  2.2990
  463MOL0     H63881  11.496   9.253   9.849  2.1302 -1.5308  4.0360
  463MOL0     H63882  11.243   8.988   9.809  2.2307  2.1036  1.3167
  463MOL0     H63883  11.106   9.073   9.727  1.1169  0.4405 -1.3742
  463MOL0     H63884  11.364   8.955   9.611 -0.6190  1.1659  0.3744
  463MOL0     H63885  11.239   9.027   9.501 -1.7223 -0.9652 -1.4960
  463MOL0     H63886  11.255   8.767   9.629 -0.2099  0.0725  1.6540
  463MOL0     H63887  11.093   8.848   9.615  0.0186  3.2907 -1.0198
  463MOL0     H63888  11.271   8.826   9.365  0.5199  1.8207  0.9335
  463MOL0     H63889  11.107   8.874   9.380  0.4180 -1.3332 -2.1300
  463MOL0     H63890  10.983   8.503   9.377  2.0729 -0.1449 -3.8531
  463MOL0     H63891  11.074   9.238   9.891 -0.2115 -0.0675 -0.2250
  463MOL0     H63892  10.960   9.316  10.068 -0.1865  0.8506 -0.8212
  463MOL0     H63893  11.022   9.337  10.221 -2.3402 -2.9568 -0.8329
  463MOL0     H63894  11.034   9.475  10.102  1.5799 -0.9076 -2.3859
  464MOL0     O63895  10.412   5.048   2.020 -1.4192  0.9844  1.3521
  464MOL0     C63896  10.526   5.069   2.065  0.8339  0.0386 -0.4221
  464MOL0     O63897  10.558   5.118   2.185 -0.6010 -0.3018  0.0093
  464MOL0     C63898  10.493   5.197   2.274 -0.3494  0.8562  0.5178
  464MOL0     C63899  10.557   5.205   2.402  0.1609 -0.2681  0.1141
  464MOL0     C63900  10.508   5.291   2.499 -0.0335  0.3144 -0.1228
  464MOL0     C63901  10.403   5.375   2.463 -0.4475  0.0198  0.3612
  464MOL0     O63902  10.349   5.471   2.552 -0.1636  0.7842  0.4088
  464MOL0     C63903  10.445   5.557   2.609  0.2779  0.1193  0.7868
  464MOL0     C63904  10.471   5.536   2.758  0.3250  0.0806 -0.0286
  464MOL0     C63905  10.347   5.567   2.840 -0.4721  0.0338 -0.8641
  464MOL0     C63906  10.225   5.484   2.804  0.0617 -0.3226 -0.8606
  464MOL0     C63907  10.134   5.465   2.933  0.1638  0.6429  0.3766
  464MOL0     C63908  10.068   5.323   2.951  0.0072 -0.8310  0.2660
  464MOL0     C63909   9.963   5.301   2.837 -0.1078  1.2031  0.2538
  464MOL0     C63910   9.869   5.417   2.824 -0.0624 -0.2945  0.1508
  464MOL0     N63911   9.782   5.439   2.936  0.3557  0.2825  0.5813
  464MOL0     C63912   9.727   5.342   3.015 -0.5750 -0.2850  0.1495
  464MOL0     C63913   9.653   5.410   3.100 -0.0361  0.6900  0.4830
  464MOL0     C63914   9.556   5.358   3.203  0.3239  0.3307 -1.1554
  464MOL0     C63915   9.530   5.210   3.196  0.8266  0.5583 -0.8295
  464MOL0     C63916   9.424   5.162   3.302  0.1241 -0.4155  0.7072
  464MOL0     C63917   9.471   5.080   3.427 -0.3123 -1.0767 -0.3416
  464MOL0     O63918   9.522   5.174   3.529  0.7128 -0.5469  0.1293
  464MOL0     C63919   9.567   5.122   3.651 -0.5859 -0.7774  0.2009
  464MOL0     C63920   9.586   4.986   3.664 -0.4218  0.5166 -0.6655
  464MOL0     C63921   9.652   4.929   3.776  0.0684 -1.0729 -0.4560
  464MOL0     C63922   9.659   4.777   3.770 -0.0292 -0.5240 -0.6582
  464MOL0     C63923   9.690   5.017   3.882  0.6102 -0.3710 -0.3211
  464MOL0     C63924   9.741   4.970   4.017 -0.3763 -0.2072 -0.5215
  464MOL0     O63925   9.814   5.060   4.088 -0.3734 -0.3363  0.1701
  464MOL0     C63926   9.832   5.034   4.222 -0.2679  0.4205  0.5628
  464MOL0     C63927   9.774   5.114   4.320  0.5785  0.2620 -0.3375
  464MOL0     C63928   9.806   5.082   4.446 -0.6012  0.0024 -1.6421
  464MOL0     C63929   9.879   4.964   4.488 -0.1425  0.9559  0.0746
  464MOL0     O63930   9.931   4.932   4.614  0.2228 -1.6289  0.3020
  464MOL0     C63931   9.849   4.985   4.726 -0.2259 -0.9298  0.1653
  464MOL0     C63932   9.898   4.917   4.859 -0.5267 -0.2497 -0.1561
  464MOL0     C63933   9.887   4.763   4.837  0.1406 -0.4114  0.4509
  464MOL0     C63934   9.875   4.693   4.971  0.5458  0.5129  0.2778
  464MOL0     C63935   9.884   4.543   4.968  0.2958  0.2513  0.1732
  464MOL0     C63936   9.912   4.490   5.110 -0.3716  0.9262  0.3336
  464MOL0     C63937   9.924   4.333   5.119  0.7012  0.1969  0.4459
  464MOL0     C63938   9.926   4.274   5.262  0.2187 -0.2450 -0.6484
  464MOL0    Cl63939   9.745   4.287   5.336 -0.2702 -0.6128  0.4575
  464MOL0     C63940   9.932   4.884   4.384  0.0360 -0.5695  0.3139
  464MOL0     C63941   9.925   4.926   4.251  0.5377 -0.1478  0.4114
  464MOL0     O63942   9.710   4.860   4.055 -0.6359  0.2707 -0.4151
  464MOL0     C63943   9.661   5.154   3.871 -0.5712 -0.0957 -0.1092
  464MOL0     C63944   9.601   5.210   3.754  0.7749 -0.3050  0.7139
  464MOL0     N63945   9.654   5.540   3.072 -0.3761 -0.1279 -0.0025
  464MOL0     N63946   9.729   5.561   2.978 -0.2361 -0.3573  0.3751
  464MOL0     C63947  10.344   5.364   2.336  0.1364 -0.5556  0.3701
  464MOL0     C63948  10.388   5.275   2.240 -0.2434 -0.3327 -1.1707
  464MOL0     C63949  10.632   5.015   1.976  0.0127 -0.2185 -0.5814
  464MOL0     C63950  10.608   4.894   1.917  0.6933 -0.2006 -0.4367
  464MOL0     C63951  10.701   4.824   1.846 -0.6574 -0.3949  0.2646
  464MOL0     C63952  10.830   4.873   1.826 -0.9411 -0.4317 -0.1463
  464MOL0     O63953  10.938   4.825   1.756  0.0913  0.5826  0.4255
  464MOL0     C63954  10.894   4.774   1.626  0.4076 -0.1596  0.4157
  464MOL0     C63955  11.009   4.698   1.559 -0.8364 -0.3177  0.6678
  464MOL0     C63956  11.124   4.782   1.489 -0.0890 -0.2664 -0.1436
  464MOL0     C63957  11.069   4.884   1.390 -0.2306  0.0204  0.7643
  464MOL0     C63958  11.132   4.872   1.252 -0.5822  0.0451 -0.1925
  464MOL0     C63959  11.184   4.852   1.138  0.1685  0.1971  0.2139
  464MOL0     C63960  10.861   4.991   1.900 -0.9355 -0.3640 -0.0595
  464MOL0     C63961  10.770   5.059   1.975 -1.3493 -0.1389  0.2765
  464MOL0     C63962  10.818   5.186   2.042 -0.2538 -0.6039 -0.1418
  464MOL0     H63963  10.636   5.141   2.441 -2.0544 -2.2323  1.6437
  464MOL0     H63964  10.552   5.296   2.598 -2.2428  2.0602  0.8702
  464MOL0     H63965  10.403   5.658   2.599  1.5591  0.4585 -2.9925
  464MOL0     H63966  10.542   5.558   2.558 -0.6551 -0.7619 -1.1447
  464MOL0     H63967  10.513   5.438   2.785 -3.3596 -1.0762  2.1028
  464MOL0     H63968  10.558   5.599   2.778  1.3332 -1.4324  0.5362
  464MOL0     H63969  10.386   5.554   2.941  1.2732 -0.1113 -1.5158
  464MOL0     H63970  10.319   5.672   2.828  2.1644  0.9981  0.5918
  464MOL0     H63971  10.177   5.536   2.721 -0.4061  0.1177 -0.3224
  464MOL0     H63972  10.257   5.385   2.770 -1.5487 -1.4452  0.7276
  464MOL0     H63973  10.057   5.542   2.938 -0.4064  0.0915  0.2931
  464MOL0     H63974  10.203   5.479   3.016 -0.0358 -0.1339  0.6826
  464MOL0     H63975  10.140   5.240   2.950  2.2202  0.8769  3.0024
  464MOL0     H63976  10.029   5.334   3.052  1.9866  1.4274  0.8873
  464MOL0     H63977   9.909   5.206   2.846 -1.0882  1.7022 -0.1452
  464MOL0     H63978  10.019   5.288   2.744 -0.1943 -0.7216  0.4427
  464MOL0     H63979   9.916   5.511   2.795  2.0063 -1.3384 -0.0473
  464MOL0     H63980   9.803   5.381   2.745 -2.4661 -0.1942  1.9964
  464MOL0     H63981   9.730   5.236   2.991  0.0581 -0.3014  0.2985
  464MOL0     H63982   9.453   5.396   3.201 -1.8264 -4.5800  0.6746
  464MOL0     H63983   9.611   5.372   3.297  0.0864  0.3351 -1.0180
  464MOL0     H63984   9.494   5.186   3.095 -0.2496 -0.6450 -0.1862
  464MOL0     H63985   9.617   5.149   3.220 -1.6893 -2.3588  1.7116
  464MOL0     H63986   9.357   5.239   3.343  0.5735 -1.1732  3.0607
  464MOL0     H63987   9.360   5.094   3.245 -0.1732  1.6429 -1.5660
  464MOL0     H63988   9.390   5.018   3.468 -0.9803 -0.3638 -0.5548
  464MOL0     H63989   9.551   5.016   3.390  0.2744 -1.6347  1.7417
  464MOL0     H63990   9.551   4.913   3.592  1.4837 -0.5088 -0.6174
  464MOL0     H63991   9.664   4.742   3.667  1.4846 -0.0028 -0.7822
  464MOL0     H63992   9.558   4.740   3.791 -0.0112 -0.1314  0.1754
  464MOL0     H63993   9.731   4.731   3.839 -2.3060 -1.6450  1.1038
  464MOL0     H63994   9.718   5.205   4.301 -2.0388 -1.7133 -2.7891
  464MOL0     H63995   9.762   5.146   4.521  0.8298 -1.7008  0.8095
  464MOL0     H63996   9.862   5.093   4.731  1.1409 -1.0811  0.0587
  464MOL0     H63997   9.740   4.980   4.713 -0.2553  1.4235 -1.0300
  464MOL0     H63998  10.000   4.952   4.878 -0.3769 -0.6399 -0.2322
  464MOL0     H63999   9.827   4.943   4.938  2.4413  0.6079  2.4714
  464MOL0     H64000   9.978   4.731   4.785 -0.4669 -1.0324 -0.2683
  464MOL0     H64001   9.793   4.742   4.785 -0.1090 -1.8863  1.4318
  464MOL0     H64002   9.779   4.732   5.008 -2.2613 -0.8396 -4.6038
  464MOL0     H64003   9.956   4.730   5.035  1.9495  0.0815 -1.1909
  464MOL0     H64004   9.799   4.492   4.922 -1.4711  0.3919  3.0023
  464MOL0     H64005   9.974   4.520   4.910  1.3953  0.5213  1.7116
  464MOL0     H64006   9.832   4.525   5.176  0.8736  3.4946  0.5797
  464MOL0     H64007  10.003   4.541   5.142  0.5799 -0.4843 -0.0303
  464MOL0     H64008  10.013   4.298   5.066 -0.2621 -2.2337  0.2853
  464MOL0     H64009   9.847   4.279   5.063  0.8759 -0.1747  0.5618
  464MOL0     H64010   9.998   4.314   5.334 -0.2076 -2.9707  1.4293
  464MOL0     H64011   9.954   4.169   5.259 -0.2315 -0.3492 -1.8131
  464MOL0     H64012   9.986   4.794   4.413  0.4731 -0.2113  0.6228
  464MOL0     H64013   9.969   4.868   4.170  2.2033  1.6552 -0.0610
  464MOL0     H64014   9.690   5.217   3.954  0.0675 -0.3546 -0.1303
  464MOL0     H64015   9.595   5.318   3.741 -1.2159 -0.5694 -1.0626
  464MOL0     H64016  10.267   5.439   2.319  0.4893 -0.1279  0.6273
  464MOL0     H64017  10.339   5.267   2.143 -0.9302 -1.3997 -0.7521
  464MOL0     H64018  10.518   4.846   1.955 -1.0577  3.3393  0.3049
  464MOL0     H64019  10.676   4.727   1.804  0.0711 -0.0173 -1.0979
  464MOL0     H64020  10.802   4.715   1.638  1.3270 -1.6211  0.5359
  464MOL0     H64021  10.867   4.862   1.566 -1.1743 -2.3561 -2.3363
  464MOL0     H64022  10.958   4.641   1.480 -3.2047  0.9374  1.1866
  464MOL0     H64023  11.051   4.620   1.622  0.7256 -0.9054 -1.0327
  464MOL0     H64024  11.183   4.834   1.566 -1.6773  0.9305  0.3154
  464MOL0     H64025  11.183   4.703   1.441  0.3096  1.4835 -2.6878
  464MOL0     H64026  11.079   4.983   1.434 -1.9405  0.5829 -0.0153
  464MOL0     H64027  10.960   4.883   1.380 -0.1979 -0.1751  0.4068
  464MOL0     H64028  11.218   4.812   1.045 -0.8461 -3.2926  1.2031
  464MOL0     H64029  10.957   5.040   1.892 -2.8717  3.9348 -0.1106
  464MOL0     H64030  10.867   5.170   2.139 -1.2195  1.6125  0.7720
  464MOL0     H64031  10.895   5.234   1.982 -0.1492 -0.1819  0.3241
  464MOL0     H64032  10.739   5.261   2.048  0.6507  0.2759  1.5539
  465MOL0     O64033   9.851   4.826   1.254 -0.1300 -0.0491  0.2755
  465MOL0     C64034   9.743   4.879   1.235  0.1856  0.6333 -0.7517
  465MOL0     O64035   9.664   4.868   1.127  0.0643 -0.3509 -0.0667
  465MOL0     C64036   9.697   4.773   1.031  0.6993 -0.4094  0.0999
  465MOL0     C64037   9.672   4.809   0.898 -0.2441 -0.4580 -0.5991
  465MOL0     C64038   9.698   4.725   0.795  0.0045 -0.0631  0.3313
  465MOL0     C64039   9.761   4.605   0.823 -0.2378  0.9579  0.6876
  465MOL0     O64040   9.787   4.507   0.728  0.5568  0.5660 -0.3021
  465MOL0     C64041   9.773   4.367   0.768 -0.6794 -0.6473 -0.4304
  465MOL0     C64042   9.721   4.289   0.646 -0.9750 -0.4971 -1.1449
  465MOL0     C64043   9.810   4.300   0.521 -0.3064  0.1865 -0.5426
  465MOL0     C64044   9.741   4.238   0.395 -0.1667  0.6708  0.3308
  465MOL0     C64045   9.851   4.192   0.303 -0.2221  0.2932  0.4667
  465MOL0     C64046   9.813   4.114   0.166  0.2399 -0.2740 -0.3752
  465MOL0     C64047   9.925   4.118   0.057  0.2715  0.2115 -0.0287
  465MOL0     C64048   9.890   4.017  -0.063  0.4294 -0.5346 -0.3716
  465MOL0     N64049   9.777   4.058  -0.132  0.4512 -0.3007  0.0540
  465MOL0     C64050   9.772   4.176  -0.208  0.3401  0.7461 -1.0796
  465MOL0     C64051   9.640   4.183  -0.241  0.0841  0.4384 -0.0056
  465MOL0     C64052   9.589   4.273  -0.347 -0.6173 -0.2438  0.7559
  465MOL0     C64053   9.591   4.421  -0.292 -0.4718  0.3508  0.1139
  465MOL0     C64054   9.490   4.440  -0.175 -0.1232  1.0106  0.0008
  465MOL0     C64055   9.487   4.584  -0.136  0.7475  0.2103 -0.7099
  465MOL0     O64056   9.560   4.601  -0.014 -0.0616  0.5595  1.0082
  465MOL0     C64057   9.497   4.558   0.103 -0.9520 -0.1100 -0.6728
  465MOL0     C64058   9.366   4.508   0.111 -0.2468 -0.1561  0.0711
  465MOL0     C64059   9.304   4.478   0.238  0.5234 -0.6395  0.5392
  465MOL0     C64060   9.155   4.430   0.241  0.1412  1.4118 -0.0359
  465MOL0     C64061   9.378   4.509   0.362  0.8389  0.0941  1.0945
  465MOL0     C64062   9.319   4.497   0.492 -0.1326  0.6015  0.1988
  465MOL0     O64063   9.389   4.421   0.590 -0.3914 -0.1347 -0.2745
  465MOL0     C64064   9.334   4.453   0.717  0.7673 -0.3460  0.6581
  465MOL0     C64065   9.219   4.388   0.768  0.5131  0.1188  0.4108
  465MOL0     C64066   9.180   4.411   0.902  0.1033  0.7406 -0.0372
  465MOL0     C64067   9.246   4.513   0.981 -0.9723  0.2298  0.1237
  465MOL0     O64068   9.217   4.553   1.103  0.7749 -0.2930 -0.0620
  465MOL0     C64069   9.121   4.477   1.188 -0.2454  0.6484 -0.6176
  465MOL0     C64070   9.096   4.564   1.314 -0.5975 -0.6059  0.1721
  465MOL0     C64071   9.225   4.590   1.400 -0.1631 -0.0330 -0.4874
  465MOL0     C64072   9.256   4.470   1.508 -0.6390  0.2573 -0.0247
  465MOL0     C64073   9.395   4.483   1.558  0.0308  0.1909  0.4131
  465MOL0     C64074   9.443   4.350   1.615 -0.0122  0.2206 -0.2411
  465MOL0     C64075   9.578   4.353   1.686  0.0074  0.9986 -0.1603
  465MOL0     C64076   9.567   4.404   1.826  0.1905  0.0706 -1.4240
  465MOL0    Cl64077   9.715   4.387   1.907 -0.0986 -0.2302 -0.2065
  465MOL0     C64078   9.352   4.577   0.925 -0.1470 -0.6577 -0.3921
  465MOL0     C64079   9.395   4.539   0.795  0.0724 -0.4511 -0.2402
  465MOL0     O64080   9.220   4.562   0.505 -0.3937  0.3041 -0.1424
  465MOL0     C64081   9.511   4.555   0.348  0.6409 -0.2884  0.8495
  465MOL0     C64082   9.566   4.579   0.217 -0.2620  0.1890 -0.1406
  465MOL0     N64083   9.577   4.071  -0.189 -0.0813 -0.2965 -0.3544
  465MOL0     N64084   9.650   3.997  -0.122 -0.4634 -0.2913 -0.3399
  465MOL0     C64085   9.784   4.567   0.954 -0.3188 -0.0646 -0.7049
  465MOL0     C64086   9.754   4.650   1.061  1.3002  0.9607  0.5888
  465MOL0     C64087   9.694   4.967   1.351  0.5230 -0.3501 -0.0975
  465MOL0     C64088   9.557   5.005   1.349 -0.2552  0.7142 -0.2096
  465MOL0     C64089   9.493   5.068   1.450 -0.1141  0.5619 -0.4435
  465MOL0     C64090   9.564   5.104   1.569 -0.0681 -0.0366  0.3536
  465MOL0     O64091   9.507   5.172   1.671  0.2936  0.6286 -0.2679
  465MOL0     C64092   9.579   5.204   1.788  0.4917 -0.2696 -0.1668
  465MOL0     C64093   9.470   5.271   1.868  0.4544 -0.1121 -0.1428
  465MOL0     C64094   9.432   5.412   1.806  0.0999  0.2256  0.7913
  465MOL0     C64095   9.557   5.515   1.787 -0.4019  0.9581  0.3001
  465MOL0     C64096   9.623   5.544   1.910 -0.0758  0.5637 -0.3345
  465MOL0     C64097   9.686   5.566   2.013 -0.1750 -0.9557 -1.1665
  465MOL0     C64098   9.704   5.084   1.570 -0.2045  0.5355  0.5277
  465MOL0     C64099   9.766   5.011   1.459 -0.0383 -1.1248  0.5907
  465MOL0     C64100   9.913   4.994   1.469  0.1493 -0.3170  0.7210
  465MOL0     H64101   9.635   4.907   0.869 -0.9204 -0.6545 -0.4242
  465MOL0     H64102   9.685   4.765   0.695  2.4353  1.3218  0.4908
  465MOL0     H64103   9.699   4.345   0.845  0.7876  0.4273  1.3625
  465MOL0     H64104   9.867   4.320   0.798 -1.3118 -0.0349  2.8259
  465MOL0     H64105   9.726   4.181   0.662  3.5189 -0.5493 -1.6086
  465MOL0     H64106   9.622   4.327   0.618 -1.5123 -0.7093  0.3641
  465MOL0     H64107   9.819   4.408   0.504  0.0602  0.4687  1.2517
  465MOL0     H64108   9.911   4.262   0.537 -0.4452 -0.0557 -0.2135
  465MOL0     H64109   9.680   4.155   0.433 -0.6996  0.6626 -0.5067
  465MOL0     H64110   9.670   4.311   0.355  0.1519  0.5296 -0.5361
  465MOL0     H64111   9.919   4.124   0.355 -0.4259  2.2178  3.4923
  465MOL0     H64112   9.913   4.279   0.278 -2.3222  2.0524  1.1489
  465MOL0     H64113   9.793   4.007   0.179  3.2447 -0.9804 -0.7946
  465MOL0     H64114   9.719   4.153   0.127 -0.4846 -0.2993  1.2691
  465MOL0     H64115  10.014   4.081   0.109  0.7233 -0.1074 -1.0138
  465MOL0     H64116   9.945   4.220   0.026  0.6449  0.7543  1.8702
  465MOL0     H64117   9.973   4.013  -0.135 -0.8037 -1.9577 -1.7829
  465MOL0     H64118   9.861   3.917  -0.029 -3.7192  0.7698  0.5328
  465MOL0     H64119   9.853   4.236  -0.249  1.0271  0.6735  0.0914
  465MOL0     H64120   9.490   4.251  -0.387 -0.3258  0.4885 -0.4212
  465MOL0     H64121   9.665   4.265  -0.425 -0.2760 -2.4553  1.2492
  465MOL0     H64122   9.686   4.464  -0.261 -0.9764  0.9443  0.8732
  465MOL0     H64123   9.557   4.479  -0.378  0.8724 -0.3956 -0.9619
  465MOL0     H64124   9.389   4.412  -0.207  0.0683  1.2133 -0.7980
  465MOL0     H64125   9.511   4.375  -0.089  0.1526  2.4546  1.0683
  465MOL0     H64126   9.539   4.647  -0.208  0.9433 -1.7347 -2.3559
  465MOL0     H64127   9.383   4.615  -0.117  0.9089  0.1506  0.3372
  465MOL0     H64128   9.306   4.493   0.022  0.2367  3.2763 -0.9853
  465MOL0     H64129   9.111   4.449   0.339  1.2131 -2.1918  1.2943
  465MOL0     H64130   9.150   4.321   0.238 -0.7396  1.3290  2.5107
  465MOL0     H64131   9.087   4.476   0.169  0.7219  1.0770 -0.8159
  465MOL0     H64132   9.183   4.300   0.715 -1.8720  0.2223  1.7239
  465MOL0     H64133   9.106   4.341   0.939 -2.8600  1.4743 -3.8939
  465MOL0     H64134   9.028   4.434   1.148  0.6188 -0.4128 -1.5382
  465MOL0     H64135   9.172   4.384   1.212 -0.1134  0.8560 -0.0785
  465MOL0     H64136   9.063   4.662   1.279 -0.1358  0.0018  1.3798
  465MOL0     H64137   9.015   4.529   1.378 -2.1197  2.7704  0.3341
  465MOL0     H64138   9.198   4.677   1.461 -5.6375 -1.8343  0.3133
  465MOL0     H64139   9.309   4.607   1.333 -0.8320  1.6346 -0.9514
  465MOL0     H64140   9.259   4.380   1.445 -1.3790  0.9729 -1.1138
  465MOL0     H64141   9.179   4.447   1.582 -2.3555  1.3994 -1.3991
  465MOL0     H64142   9.461   4.519   1.479  0.4999 -2.0805 -0.2937
  465MOL0     H64143   9.412   4.546   1.646  2.2745 -1.9310  1.6126
  465MOL0     H64144   9.454   4.288   1.526 -4.4482  0.5592 -1.2519
  465MOL0     H64145   9.376   4.293   1.679 -1.9089  0.9971 -1.4514
  465MOL0     H64146   9.652   4.408   1.627 -0.5259  1.7981 -0.0977
  465MOL0     H64147   9.607   4.248   1.699 -2.2695  0.5495  2.1195
  465MOL0     H64148   9.491   4.355   1.888  2.1011 -0.6508  0.4395
  465MOL0     H64149   9.544   4.512   1.825 -1.5322 -0.2634 -1.7404
  465MOL0     H64150   9.402   4.654   0.981  1.4290 -0.6059 -1.7874
  465MOL0     H64151   9.486   4.584   0.758  0.1215 -1.9248 -2.0499
  465MOL0     H64152   9.571   4.588   0.432  1.6997  0.4513 -0.1664
  465MOL0     H64153   9.662   4.630   0.219 -1.0721  1.8534  2.8576
  465MOL0     H64154   9.815   4.468   0.987 -0.9241  0.2925  1.0936
  465MOL0     H64155   9.784   4.618   1.161  1.2573  0.9963  0.6131
  465MOL0     H64156   9.495   4.990   1.261  0.5390 -0.9572 -0.5143
  465MOL0     H64157   9.390   5.099   1.434  0.5958  2.2387 -2.0929
  465MOL0     H64158   9.605   5.116   1.847  4.3995 -0.1846 -1.4434
  465MOL0     H64159   9.669   5.264   1.772  0.3134 -0.4356 -2.0936
  465MOL0     H64160   9.500   5.291   1.971 -1.4329 -1.6692  0.7781
  465MOL0     H64161   9.370   5.226   1.873  0.6920 -0.9331 -1.8792
  465MOL0     H64162   9.391   5.386   1.708  2.2768 -2.2839  0.4525
  465MOL0     H64163   9.344   5.455   1.856 -0.8399 -1.7239  0.9177
  465MOL0     H64164   9.507   5.605   1.748 -0.0224 -0.4928 -4.1662
  465MOL0     H64165   9.622   5.481   1.706 -2.8473  0.6529 -1.6528
  465MOL0     H64166   9.743   5.583   2.102 -3.5124 -0.4537  1.0603
  465MOL0     H64167   9.774   5.125   1.642 -0.6056 -1.3753  2.1007
  465MOL0     H64168   9.963   4.902   1.436  1.9942  0.5558  0.9513
  465MOL0     H64169   9.959   5.070   1.405 -0.3876 -2.5083 -2.5155
  465MOL0     H64170   9.941   5.006   1.574 -1.4308 -4.9147  1.8901
  466MOL0     O64171   9.782   3.300   0.353 -0.0622 -0.2380  0.0477
  466MOL0     C64172   9.818   3.214   0.428  0.0857 -0.4973  0.7951
  466MOL0     O64173   9.921   3.230   0.509 -0.6758  0.0168 -0.0085
  466MOL0     C64174   9.991   3.352   0.521  0.1267 -0.1816  0.0618
  466MOL0     C64175  10.126   3.348   0.496 -0.9654 -0.6609  0.3625
  466MOL0     C64176  10.213   3.451   0.547 -0.3545 -0.0924 -0.6641
  466MOL0     C64177  10.167   3.553   0.627  1.2632 -0.5746  0.8090
  466MOL0     O64178  10.261   3.651   0.655  0.3277  0.2658  0.1304
  466MOL0     C64179  10.229   3.736   0.769  1.0989  0.9689  0.4889
  466MOL0     C64180  10.211   3.661   0.891 -0.2499 -1.3335  0.4237
  466MOL0     C64181  10.335   3.589   0.934  0.0717 -0.7515  0.4987
  466MOL0     C64182  10.347   3.565   1.086 -0.3676  0.4788  0.9706
  466MOL0     C64183  10.478   3.499   1.124  0.3536 -0.7467 -0.4993
  466MOL0     C64184  10.461   3.465   1.271  0.8433 -0.9250 -0.2841
  466MOL0     C64185  10.583   3.399   1.330  0.5372  0.6256 -0.8519
  466MOL0     C64186  10.579   3.404   1.487  0.6918 -0.1272 -1.3313
  466MOL0     N64187  10.701   3.334   1.545 -0.4668  0.6919  0.1459
  466MOL0     C64188  10.735   3.200   1.531 -0.6732 -0.4359  0.9322
  466MOL0     C64189  10.858   3.184   1.584 -0.2018 -1.0683  0.6021
  466MOL0     C64190  10.934   3.058   1.598  0.1991 -0.5050 -0.5041
  466MOL0     C64191  11.075   3.074   1.538  1.1574  0.1603 -0.2337
  466MOL0     C64192  11.069   3.086   1.384 -0.5936  0.1320  0.6693
  466MOL0     C64193  11.206   3.089   1.306  1.0986  0.6624 -0.0679
  466MOL0     O64194  11.203   3.157   1.175 -0.0408  0.4511  0.1912
  466MOL0     C64195  11.081   3.144   1.101  0.1890 -0.5104 -0.6888
  466MOL0     C64196  10.998   3.253   1.074 -0.0455 -0.0663 -1.3183
  466MOL0     C64197  10.881   3.241   0.995  0.0289 -0.0402  0.2708
  466MOL0     C64198  10.791   3.364   0.990  0.2119 -0.5102  0.3974
  466MOL0     C64199  10.852   3.122   0.937  0.6640 -0.2236  0.3720
  466MOL0     C64200  10.741   3.099   0.831 -0.0171 -1.1665 -0.7178
  466MOL0     O64201  10.721   2.970   0.799 -0.7971 -0.3735 -0.0867
  466MOL0     C64202  10.634   2.939   0.693  1.2632  0.5987 -0.2385
  466MOL0     C64203  10.685   2.884   0.575 -0.3253 -1.1782 -0.0127
  466MOL0     C64204  10.605   2.866   0.463 -0.3676  0.0798  0.0486
  466MOL0     C64205  10.465   2.899   0.476  0.5037  0.5282 -0.0539
  466MOL0     O64206  10.383   2.874   0.372  0.2924 -0.2923  0.0927
  466MOL0     C64207  10.314   2.985   0.328  0.4745 -0.5307  0.3000
  466MOL0     C64208  10.180   2.949   0.254  0.0502  0.1914  0.7412
  466MOL0     C64209  10.124   3.074   0.174  0.5581  0.2504 -0.1254
  466MOL0     C64210   9.987   3.040   0.125  0.0617 -0.0908  0.1062
  466MOL0     C64211   9.943   3.155   0.028  0.2018  0.5010  0.0675
  466MOL0     C64212   9.785   3.151   0.002  0.5547  0.4430 -0.6332
  466MOL0     C64213   9.716   3.196  -0.125 -1.0898 -0.0450 -0.2870
  466MOL0     C64214   9.566   3.212  -0.113  0.5327 -0.1344 -1.2264
  466MOL0    Cl64215   9.494   3.058  -0.031 -0.1138 -0.4912 -0.0569
  466MOL0     C64216  10.421   2.942   0.604  0.2750 -0.8900 -0.0935
  466MOL0     C64217  10.496   2.960   0.713 -0.3707  0.5276  0.9477
  466MOL0     O64218  10.676   3.197   0.787 -0.2088 -0.1908  0.1556
  466MOL0     C64219  10.931   3.008   0.961 -1.1418  0.0495 -0.1163
  466MOL0     C64220  11.050   3.021   1.041 -0.5894  0.0760 -0.3322
  466MOL0     N64221  10.904   3.307   1.620  0.7083 -0.3384 -0.1320
  466MOL0     N64222  10.810   3.395   1.597 -0.0702  0.1492  0.1675
  466MOL0     C64223  10.023   3.557   0.645 -0.0671  0.4300  0.9051
  466MOL0     C64224   9.939   3.462   0.591  0.3906  0.6810 -0.5373
  466MOL0     C64225   9.754   3.081   0.406 -0.0849  0.8046  0.0278
  466MOL0     C64226   9.624   3.074   0.351 -0.6990  0.7451 -0.2187
  466MOL0     C64227   9.563   2.948   0.324 -0.3398 -0.3901  0.4170
  466MOL0     C64228   9.603   2.833   0.382 -0.5924  1.0434  0.2347
  466MOL0     O64229   9.530   2.717   0.353  1.0665  0.5603 -0.7486
  466MOL0     C64230   9.567   2.590   0.391 -0.3923  0.9776 -1.0038
  466MOL0     C64231   9.574   2.563   0.547 -0.1919  0.5021 -0.3491
  466MOL0     C64232   9.546   2.418   0.574 -0.2811 -0.1726 -1.4093
  466MOL0     C64233   9.633   2.358   0.692  0.0532  1.2427 -0.8593
  466MOL0     C64234   9.771   2.347   0.640 -1.0103 -0.3032  0.2182
  466MOL0     C64235   9.887   2.348   0.598  0.7566 -0.2372 -0.0206
  466MOL0     C64236   9.728   2.839   0.446 -1.5054 -0.0752 -1.1763
  466MOL0     C64237   9.802   2.960   0.461 -0.3827  0.7964 -0.0371
  466MOL0     C64238   9.933   2.949   0.531 -0.9542  0.2524 -0.1493
  466MOL0     H64239  10.168   3.257   0.453 -0.3984 -1.8592  3.2073
  466MOL0     H64240  10.320   3.448   0.528 -0.5554 -1.4222 -1.7170
  466MOL0     H64241  10.131   3.779   0.745  0.5421 -1.6973 -2.7823
  466MOL0     H64242  10.298   3.819   0.786  1.2185  0.5530  2.2035
  466MOL0     H64243  10.174   3.732   0.965 -0.4885 -1.2214  0.1967
  466MOL0     H64244  10.130   3.590   0.872 -0.8676 -0.0656 -2.0001
  466MOL0     H64245  10.352   3.499   0.874  0.3919 -1.1130  1.1172
  466MOL0     H64246  10.420   3.656   0.917  0.0238 -0.9067 -0.3852
  466MOL0     H64247  10.337   3.660   1.140 -0.9466 -0.4575  2.5569
  466MOL0     H64248  10.264   3.506   1.124  1.9568 -1.7684  2.9439
  466MOL0     H64249  10.566   3.560   1.102 -0.3598 -0.9644 -4.8637
  466MOL0     H64250  10.488   3.404   1.070  1.8562 -0.3072 -1.0187
  466MOL0     H64251  10.444   3.551   1.337  1.5815 -1.4451  0.6159
  466MOL0     H64252  10.377   3.397   1.287  0.7430 -1.3019 -2.2380
  466MOL0     H64253  10.679   3.431   1.288 -0.0630  0.5782 -2.3069
  466MOL0     H64254  10.574   3.294   1.300  1.6536  0.1578  0.3448
  466MOL0     H64255  10.590   3.511   1.504  2.2317 -0.3642 -0.7282
  466MOL0     H64256  10.489   3.358   1.528 -0.3333  0.9399 -2.3102
  466MOL0     H64257  10.664   3.126   1.496  0.0118 -0.6717  0.0011
  466MOL0     H64258  10.882   2.969   1.562  0.8400 -1.1833  0.2229
  466MOL0     H64259  10.958   3.046   1.704 -0.3372  2.8825  0.1343
  466MOL0     H64260  11.107   3.172   1.575 -1.0719  1.5579 -1.7778
  466MOL0     H64261  11.142   2.991   1.562 -0.9260 -0.7242  3.3918
  466MOL0     H64262  11.015   3.006   1.332 -0.6452  1.4386 -1.3554
  466MOL0     H64263  11.006   3.171   1.355  0.5432  0.3433 -1.3113
  466MOL0     H64264  11.287   3.139   1.359  1.9761  0.7367 -1.4245
  466MOL0     H64265  11.242   2.986   1.291 -0.5537  0.0349  0.0537
  466MOL0     H64266  11.020   3.350   1.117 -1.0621 -0.1371 -0.5824
  466MOL0     H64267  10.822   3.446   1.056 -2.1517 -1.2991  2.6612
  466MOL0     H64268  10.686   3.355   1.020  0.3264  2.1107  1.9189
  466MOL0     H64269  10.804   3.410   0.892  0.8498 -1.0702  0.2156
  466MOL0     H64270  10.793   2.874   0.565 -0.3295 -1.7963  0.4563
  466MOL0     H64271  10.648   2.820   0.375  2.3172  2.5293 -0.0696
  466MOL0     H64272  10.280   3.047   0.411  0.0610  0.6749 -0.7499
  466MOL0     H64273  10.370   3.040   0.252 -2.5721  1.9094 -0.3631
  466MOL0     H64274  10.208   2.868   0.187 -2.3628 -0.8578  0.9188
  466MOL0     H64275  10.109   2.904   0.325 -0.5776 -3.1805 -1.7824
  466MOL0     H64276  10.190   3.099   0.090 -2.2983 -0.3720 -2.7303
  466MOL0     H64277  10.114   3.162   0.237 -0.1994 -0.6181  1.0189
  466MOL0     H64278   9.912   3.039   0.205  0.5387 -0.3765  0.5504
  466MOL0     H64279   9.978   2.940   0.080 -1.1353 -1.0105  2.2371
  466MOL0     H64280   9.960   3.251   0.077 -0.3022  2.0839 -2.6290
  466MOL0     H64281  10.003   3.155  -0.064 -0.0985  0.4250 -0.1262
  466MOL0     H64282   9.739   3.195   0.091  1.7292 -1.0194  0.7716
  466MOL0     H64283   9.783   3.042   0.010  0.4486  0.4994  0.1332
  466MOL0     H64284   9.737   3.128  -0.208  0.1454 -1.4723  1.1252
  466MOL0     H64285   9.763   3.294  -0.139 -0.7078  0.6723  4.4501
  466MOL0     H64286   9.517   3.229  -0.209  2.9289  0.9659 -2.3445
  466MOL0     H64287   9.543   3.297  -0.048 -1.5860 -0.5450 -1.3672
  466MOL0     H64288  10.313   2.955   0.596  0.3000 -1.6244 -3.0649
  466MOL0     H64289  10.443   3.001   0.798 -0.6791  1.0604  0.5027
  466MOL0     H64290  10.905   2.915   0.912 -1.7943  0.5244 -0.6881
  466MOL0     H64291  11.113   2.935   1.061 -0.6421  0.3863  1.3026
  466MOL0     H64292   9.970   3.635   0.699 -1.0660 -1.2519  2.4870
  466MOL0     H64293   9.834   3.456   0.617  0.1424  0.1463 -1.6288
  466MOL0     H64294   9.576   3.158   0.302  0.0223  0.6208 -1.1541
  466MOL0     H64295   9.469   2.938   0.271  0.7453  1.6094 -2.0731
  466MOL0     H64296   9.493   2.515   0.361 -0.4345  0.4545  0.3034
  466MOL0     H64297   9.665   2.564   0.351  0.0145  1.6694 -0.4858
  466MOL0     H64298   9.501   2.630   0.594  0.9577  1.0349  0.7279
  466MOL0     H64299   9.671   2.594   0.587 -1.7836  3.1507  1.7906
  466MOL0     H64300   9.443   2.408   0.610 -0.8194  2.2049 -2.1077
  466MOL0     H64301   9.554   2.355   0.485 -0.0464 -0.4645 -1.1822
  466MOL0     H64302   9.603   2.254   0.707 -4.9064  2.5516  0.1239
  466MOL0     H64303   9.636   2.422   0.780  0.1993  0.5577 -0.3635
  466MOL0     H64304   9.990   2.342   0.570  0.9489 -0.5290  0.7118
  466MOL0     H64305   9.771   2.741   0.465 -1.0315  0.5058  1.0677
  466MOL0     H64306   9.931   2.948   0.640  1.6873  2.4749  0.0120
  466MOL0     H64307   9.987   2.856   0.510  0.4716  1.1787 -0.7350
  466MOL0     H64308  10.000   3.029   0.497 -2.0073  0.2302 -2.4963
  467MOL0     O64309   3.939   0.803   4.494  0.3210 -0.6447 -0.3031
  467MOL0     C64310   3.848   0.770   4.419 -0.0990  0.4168 -0.4872
  467MOL0     O64311   3.796   0.638   4.419  0.4033 -0.1061 -0.4314
  467MOL0     C64312   3.852   0.542   4.494 -0.6455  0.3506  0.3045
  467MOL0     C64313   3.991   0.501   4.492  1.0808 -0.0364  0.0107
  467MOL0     C64314   4.030   0.403   4.573  0.2109  0.5470 -0.8812
  467MOL0     C64315   3.936   0.323   4.643  0.2176 -0.0168 -0.3087
  467MOL0     O64316   3.983   0.212   4.703 -0.1630 -0.1142 -0.6441
  467MOL0     C64317   3.954   0.213   4.854 -0.4793  0.8828 -0.2698
  467MOL0     C64318   4.019   0.098   4.920  0.1546  0.3007  0.0630
  467MOL0     C64319   4.018   0.109   5.071 -0.4492 -0.4341 -0.2599
  467MOL0     C64320   4.094  -0.017   5.115  0.6030 -0.2536  0.0923
  467MOL0     C64321   4.090  -0.029   5.270 -1.2789 -0.3912 -0.3697
  467MOL0     C64322   3.970  -0.100   5.313 -0.1994 -0.8736  0.8244
  467MOL0     C64323   3.988  -0.177   5.441 -0.1349 -0.6238  0.2249
  467MOL0     C64324   3.872  -0.272   5.459 -0.2833  0.6814  0.1506
  467MOL0     N64325   3.872  -0.342   5.591  0.0677 -0.3859  0.8114
  467MOL0     C64326   3.788  -0.443   5.627  0.9672  0.8757 -0.0656
  467MOL0     C64327   3.832  -0.487   5.744 -0.0785 -0.0225 -0.0845
  467MOL0     C64328   3.773  -0.590   5.835 -0.0277  0.4050  0.0435
  467MOL0     C64329   3.818  -0.718   5.779  0.0669  0.7464 -0.4319
  467MOL0     C64330   3.734  -0.842   5.826  0.7354 -0.4782  0.0325
  467MOL0     C64331   3.782  -0.975   5.764  0.1838 -0.0723  0.6833
  467MOL0     O64332   3.803  -0.950   5.624 -0.1183 -0.4056  0.0802
  467MOL0     C64333   3.874  -1.041   5.550 -0.0370 -0.1355  0.0604
  467MOL0     C64334   3.916  -0.991   5.429  1.3541  0.2070 -0.6688
  467MOL0     C64335   3.991  -1.074   5.342 -0.4401 -1.1223  0.6775
  467MOL0     C64336   4.004  -1.013   5.204 -0.2962 -1.1653  0.9602
  467MOL0     C64337   4.049  -1.190   5.386 -0.1791  0.1893  0.8889
  467MOL0     C64338   4.154  -1.289   5.305  0.6300 -0.3641 -0.9014
  467MOL0     O64339   4.208  -1.232   5.194 -0.0412 -0.9399  0.2341
  467MOL0     C64340   4.284  -1.299   5.098 -0.0541  0.5501 -1.4010
  467MOL0     C64341   4.309  -1.445   5.098 -0.6929 -1.1916 -0.4113
  467MOL0     C64342   4.403  -1.494   5.005 -0.5078  0.6986  0.3323
  467MOL0     C64343   4.456  -1.411   4.906 -0.1229  0.6044  0.1896
  467MOL0     O64344   4.547  -1.460   4.818  0.9797 -0.2136 -0.0421
  467MOL0     C64345   4.640  -1.562   4.838  0.0852 -0.1224 -0.3400
  467MOL0     C64346   4.778  -1.544   4.771 -0.4347  1.5153  0.6713
  467MOL0     C64347   4.814  -1.404   4.739 -0.8264  0.6488  0.3905
  467MOL0     C64348   4.900  -1.343   4.850 -0.1778  0.2869  0.1678
  467MOL0     C64349   5.053  -1.369   4.841  0.5821 -0.2360 -0.5886
  467MOL0     C64350   5.125  -1.296   4.950  0.0354 -0.0742 -1.4241
  467MOL0     C64351   5.263  -1.360   4.973 -0.2013  0.7728  0.1960
  467MOL0     C64352   5.354  -1.277   5.065  1.1123 -0.3539  0.2653
  467MOL0    Cl64353   5.527  -1.310   5.039  0.0151  0.2015  0.7737
  467MOL0     C64354   4.429  -1.271   4.906 -0.7516  0.2452  0.3242
  467MOL0     C64355   4.346  -1.223   4.998  0.2137  0.1248  0.2361
  467MOL0     O64356   4.181  -1.401   5.353  0.4735 -0.1335  0.4467
  467MOL0     C64357   4.008  -1.240   5.507  0.7695  1.1744 -1.0002
  467MOL0     C64358   3.921  -1.169   5.594  0.2486 -0.2517  0.1822
  467MOL0     N64359   3.939  -0.411   5.773  0.1861 -0.1294  0.5700
  467MOL0     N64360   3.974  -0.328   5.678  1.5890  1.1339  0.6101
  467MOL0     C64361   3.796   0.354   4.644 -0.8271  0.1383 -0.3130
  467MOL0     C64362   3.764   0.468   4.575 -0.0397  0.7543  0.0541
  467MOL0     C64363   3.800   0.861   4.320 -0.0850 -0.3195  0.0825
  467MOL0     C64364   3.675   0.839   4.251  0.1687  0.3639 -1.0190
  467MOL0     C64365   3.644   0.924   4.152 -0.0753 -0.8221 -0.1743
  467MOL0     C64366   3.721   1.030   4.103 -0.7256  0.3883  0.0802
  467MOL0     O64367   3.666   1.103   4.002 -0.1912 -0.2729  1.2059
  467MOL0     C64368   3.687   1.244   4.009 -0.4978  0.1248  0.2306
  467MOL0     C64369   3.588   1.314   3.917  0.4929 -0.2323  0.3385
  467MOL0     C64370   3.452   1.336   3.971 -0.4116  0.2150  0.6791
  467MOL0     C64371   3.358   1.402   3.871  0.2616 -0.2294  0.5541
  467MOL0     C64372   3.397   1.546   3.856 -0.2245 -0.0288 -0.0233
  467MOL0     C64373   3.413   1.669   3.846  0.3761 -0.0941 -0.2637
  467MOL0     C64374   3.834   1.062   4.172 -0.8736 -0.2812 -1.0100
  467MOL0     C64375   3.868   0.986   4.291  0.3209  0.5797  0.4567
  467MOL0     C64376   4.013   1.017   4.340  0.6932  0.4975 -0.6461
  467MOL0     H64377   4.065   0.570   4.452  0.6624  0.0522 -0.6327
  467MOL0     H64378   4.135   0.375   4.582 -0.1362 -1.2415 -1.9480
  467MOL0     H64379   3.848   0.212   4.879 -0.7511 -1.5236 -1.3340
  467MOL0     H64380   3.999   0.303   4.898 -0.2494  1.9813 -2.6074
  467MOL0     H64381   3.974   0.004   4.886  2.2704 -1.3747  1.6289
  467MOL0     H64382   4.121   0.092   4.882 -0.4212  1.9636 -1.9147
  467MOL0     H64383   4.059   0.206   5.101 -2.7593  0.7939 -0.9133
  467MOL0     H64384   3.913   0.103   5.101 -1.4937 -1.3878 -3.6921
  467MOL0     H64385   4.065  -0.113   5.073 -1.0318  0.0211  0.5356
  467MOL0     H64386   4.200  -0.008   5.091  0.5189 -0.9855 -0.5774
  467MOL0     H64387   4.078   0.068   5.320 -1.1369  1.0168 -2.8782
  467MOL0     H64388   4.185  -0.072   5.303 -0.4670  1.5684 -0.0045
  467MOL0     H64389   3.890  -0.027   5.333  1.0234  0.1950  2.0387
  467MOL0     H64390   3.943  -0.174   5.237 -1.9970  0.0445  0.5012
  467MOL0     H64391   3.994  -0.113   5.529 -0.3322 -1.6615  1.0055
  467MOL0     H64392   4.087  -0.225   5.436  0.8832  1.4636 -1.3346
  467MOL0     H64393   3.768  -0.240   5.447 -0.6938 -0.5117  0.3758
  467MOL0     H64394   3.894  -0.349   5.385  2.0304  0.8405  0.5924
  467MOL0     H64395   3.696  -0.478   5.582 -0.5575 -0.0468  3.4466
  467MOL0     H64396   3.664  -0.580   5.831  0.0423  0.6884 -2.3397
  467MOL0     H64397   3.800  -0.574   5.940  0.6281  2.1792 -0.3559
  467MOL0     H64398   3.812  -0.716   5.670 -0.7231 -0.1469 -0.4159
  467MOL0     H64399   3.921  -0.749   5.799 -1.0477 -4.1266 -0.9659
  467MOL0     H64400   3.735  -0.847   5.935  5.0253 -4.1749  0.0910
  467MOL0     H64401   3.632  -0.833   5.786  0.2420  1.4815  1.5600
  467MOL0     H64402   3.875  -1.009   5.810  1.0290  0.9352 -0.2400
  467MOL0     H64403   3.697  -1.045   5.768 -1.5441  1.8716 -0.0339
  467MOL0     H64404   3.893  -0.894   5.387  2.1765  2.8284  4.1308
  467MOL0     H64405   4.003  -1.098   5.135  0.2332 -1.8991  1.8191
  467MOL0     H64406   4.096  -0.953   5.204 -0.3962 -1.0069  0.3612
  467MOL0     H64407   3.915  -0.955   5.179 -0.9615 -2.2286  0.7862
  467MOL0     H64408   4.267  -1.514   5.171 -0.8181  3.1062  4.2170
  467MOL0     H64409   4.436  -1.598   5.006  0.5978  0.9945 -1.2741
  467MOL0     H64410   4.651  -1.587   4.943 -1.9392 -0.4817 -0.1620
  467MOL0     H64411   4.597  -1.658   4.807  2.0224 -1.0605 -0.2374
  467MOL0     H64412   4.864  -1.599   4.811 -0.8307  0.0420 -0.4380
  467MOL0     H64413   4.751  -1.590   4.676 -4.2931  1.4750  1.6300
  467MOL0     H64414   4.732  -1.341   4.703  1.0693  1.2515 -3.3621
  467MOL0     H64415   4.885  -1.416   4.657 -1.5220 -3.4881  0.1835
  467MOL0     H64416   4.863  -1.369   4.950  1.5110  1.8748  1.2883
  467MOL0     H64417   4.893  -1.235   4.838  1.6200  0.4326  0.1248
  467MOL0     H64418   5.061  -1.478   4.850 -0.4745 -0.2309  0.6402
  467MOL0     H64419   5.100  -1.338   4.747  0.7657  1.6104  0.0692
  467MOL0     H64420   5.068  -1.300   5.043 -0.6412  0.7848 -1.7893
  467MOL0     H64421   5.123  -1.190   4.924 -0.6233  1.0187  2.4173
  467MOL0     H64422   5.322  -1.378   4.883 -0.3135 -0.7204  0.3864
  467MOL0     H64423   5.251  -1.465   5.003  0.3844 -0.5430 -3.6184
  467MOL0     H64424   5.324  -1.274   5.170  1.5425  1.1796  0.3611
  467MOL0     H64425   5.337  -1.173   5.036 -0.2271 -1.2779 -2.6588
  467MOL0     H64426   4.479  -1.220   4.824 -0.6184 -0.9562 -0.3760
  467MOL0     H64427   4.325  -1.117   5.006 -0.4601  0.4498 -3.9287
  467MOL0     H64428   4.041  -1.336   5.546  0.9737  1.7595  0.3154
  467MOL0     H64429   3.909  -1.222   5.687  1.8567 -1.6762 -0.3760
  467MOL0     H64430   3.717   0.298   4.693 -0.2028  0.5039  1.1568
  467MOL0     H64431   3.663   0.491   4.606  0.3826 -1.3919  3.5736
  467MOL0     H64432   3.608   0.754   4.247 -2.7742  2.4910 -0.6012
  467MOL0     H64433   3.552   0.912   4.095 -0.6986  3.0066 -0.2285
  467MOL0     H64434   3.683   1.284   4.110 -0.9633  1.8855 -0.4453
  467MOL0     H64435   3.786   1.256   3.963  0.3722  0.1254  2.0209
  467MOL0     H64436   3.582   1.257   3.824 -1.0682  2.3924 -1.3092
  467MOL0     H64437   3.618   1.415   3.885 -0.3775 -0.4093 -1.1302
  467MOL0     H64438   3.407   1.239   3.994  1.7693 -0.6187  1.8031
  467MOL0     H64439   3.453   1.393   4.065  1.4536  0.0497  0.8035
  467MOL0     H64440   3.254   1.384   3.899 -0.2885 -1.1450 -1.8097
  467MOL0     H64441   3.373   1.348   3.777 -2.9646  0.5017 -0.5113
  467MOL0     H64442   3.426   1.775   3.841  3.3020 -0.4126 -2.1403
  467MOL0     H64443   3.897   1.144   4.139 -2.3993  0.0905 -3.1597
  467MOL0     H64444   4.081   0.932   4.332 -0.1962 -0.4126  1.0115
  467MOL0     H64445   4.059   1.085   4.267  0.0119 -0.3089 -1.8626
  467MOL0     H64446   4.007   1.045   4.445  0.5956  0.8044 -0.7324
  468MOL0     O64447   3.998   9.509   9.786 -0.4754 -0.6824 -0.0003
  468MOL0     C64448   4.081   9.424   9.750  0.1927  0.5595 -0.6954
  468MOL0     O64449   4.196   9.455   9.692  0.5798  0.7597  0.7504
  468MOL0     C64450   4.259   9.576   9.698  0.2387 -0.0468 -0.4945
  468MOL0     C64451   4.223   9.695   9.769  0.3893  0.2417  0.3076
  468MOL0     C64452   4.297   9.809   9.773  0.8198 -0.4531 -0.2373
  468MOL0     C64453   4.412   9.825   9.692 -0.3579  0.8361 -0.8387
  468MOL0     O64454   4.488   9.943   9.713 -0.2854  0.4422  0.5234
  468MOL0     C64455   4.585   9.985   9.606  0.8714 -0.9979  0.1892
  468MOL0     C64456   4.713  10.060   9.658  0.0597  0.3134  0.5331
  468MOL0     C64457   4.807  10.103   9.541  0.6837  0.4993 -0.3254
  468MOL0     C64458   4.892   9.973   9.497 -0.1501 -1.0187  0.2415
  468MOL0     C64459   4.980   9.995   9.365 -0.3934  0.6909  0.7049
  468MOL0     C64460   4.908  10.015   9.237 -0.6371  0.1570  0.2631
  468MOL0     C64461   4.817   9.887   9.197 -0.0644  0.0448  0.0007
  468MOL0     C64462   4.697   9.939   9.114 -0.2386 -0.3443  0.5308
  468MOL0     N64463   4.617   9.819   9.076 -0.7263  0.4832  0.0457
  468MOL0     C64464   4.552   9.733   9.163 -0.5417 -0.3972 -0.3660
  468MOL0     C64465   4.497   9.638   9.087 -0.3034 -0.7030  0.5867
  468MOL0     C64466   4.416   9.520   9.146  0.4516  0.3633 -0.1208
  468MOL0     C64467   4.491   9.397   9.155  0.6665  0.3100  0.3103
  468MOL0     C64468   4.613   9.416   9.249  0.6285  0.9788  0.1108
  468MOL0     C64469   4.625   9.290   9.338  0.0193 -0.4529  0.7172
  468MOL0     O64470   4.539   9.304   9.455 -0.3113  0.3995  0.2470
  468MOL0     C64471   4.523   9.201   9.540  0.5501 -0.5583  0.6710
  468MOL0     C64472   4.520   9.067   9.502  0.5587 -0.4565  0.3574
  468MOL0     C64473   4.513   8.963   9.601  0.1671  0.2644  0.0308
  468MOL0     C64474   4.544   8.828   9.539 -0.0846 -0.2142 -0.3850
  468MOL0     C64475   4.505   8.997   9.740  0.1241  1.7950 -0.2917
  468MOL0     C64476   4.482   8.897   9.842  0.4024 -0.9083 -0.0058
  468MOL0     O64477   4.469   8.938   9.974  0.1526 -0.0997  0.3961
  468MOL0     C64478   4.444   8.844  10.074 -0.5323  0.1256  0.6252
  468MOL0     C64479   4.315   8.815  10.138 -1.0258 -1.0253 -0.3940
  468MOL0     C64480   4.306   8.716  10.233  0.1826 -0.4633  0.5077
  468MOL0     C64481   4.420   8.654  10.276 -0.0996 -0.3432 -1.2116
  468MOL0     O64482   4.394   8.567  10.381 -0.6190  0.3952  0.0131
  468MOL0     C64483   4.481   8.456  10.371 -0.0504  0.4151 -0.5487
  468MOL0     C64484   4.399   8.338  10.343  0.0943  0.1280  0.0991
  468MOL0     C64485   4.474   8.214  10.291  0.3240 -0.5446 -0.0532
  468MOL0     C64486   4.391   8.084  10.322 -0.1162  0.0783 -0.6662
  468MOL0     C64487   4.451   7.950  10.276 -0.9407 -0.1284 -0.3283
  468MOL0     C64488   4.348   7.839  10.284  0.1227  0.1107 -0.1078
  468MOL0     C64489   4.397   7.725  10.197 -1.0060 -0.0541 -0.6187
  468MOL0     C64490   4.300   7.607  10.204  0.3637 -0.3210  0.7766
  468MOL0    Cl64491   4.350   7.467  10.109  0.1705 -0.3971  0.3811
  468MOL0     C64492   4.540   8.686  10.223  0.3519 -0.7162 -0.0969
  468MOL0     C64493   4.556   8.778  10.118  0.2402  0.2060 -0.2650
  468MOL0     O64494   4.489   8.782   9.808  0.3794  0.2421  0.3053
  468MOL0     C64495   4.525   9.131   9.774  0.2886  0.4428  0.4972
  468MOL0     C64496   4.523   9.230   9.676 -0.5982 -0.0774 -0.2794
  468MOL0     N64497   4.526   9.658   8.955  0.0250 -0.6923  1.0263
  468MOL0     N64498   4.608   9.764   8.951  0.4866  0.7340 -0.1441
  468MOL0     C64499   4.443   9.714   9.609  0.0403 -0.2603 -0.4831
  468MOL0     C64500   4.372   9.591   9.619  0.4651 -0.7021  0.0464
  468MOL0     C64501   4.055   9.271   9.755  1.1818  0.0886 -0.4593
  468MOL0     C64502   4.160   9.186   9.737 -0.7011  0.0281 -1.1471
  468MOL0     C64503   4.150   9.047   9.759  0.7038 -0.1049 -0.2255
  468MOL0     C64504   4.019   8.997   9.785 -0.8090  0.0998  0.2461
  468MOL0     O64505   4.020   8.854   9.803  0.3683 -0.3457  1.3022
  468MOL0     C64506   3.905   8.771   9.788  0.4141 -0.0202 -0.3232
  468MOL0     C64507   3.890   8.693   9.924  0.3119  0.2294 -0.4779
  468MOL0     C64508   3.757   8.598   9.919  0.2237 -0.8402  0.5361
  468MOL0     C64509   3.718   8.546  10.057  0.8866  0.6545  0.5478
  468MOL0     C64510   3.820   8.461  10.122  0.7614  0.7769 -0.1575
  468MOL0     C64511   3.905   8.400  10.185 -0.6137  0.9928  0.6279
  468MOL0     C64512   3.904   9.076   9.780  0.9205 -0.7235 -0.4407
  468MOL0     C64513   3.920   9.220   9.770  1.1682 -0.5665  0.3894
  468MOL0     C64514   3.787   9.299   9.751  0.2216 -0.3675 -0.0599
  468MOL0     H64515   4.138   9.695   9.837  1.0306 -1.2275  1.1690
  468MOL0     H64516   4.271   9.899   9.829  4.5175 -1.0006  2.7427
  468MOL0     H64517   4.535  10.050   9.534  2.0369  0.2618  0.4738
  468MOL0     H64518   4.627   9.894   9.562  1.3920 -0.1106 -1.1931
  468MOL0     H64519   4.679  10.141   9.724 -0.7017 -3.6291  5.5749
  468MOL0     H64520   4.770  10.001   9.731  4.7384  1.9644 -1.4076
  468MOL0     H64521   4.745  10.143   9.461  0.5236 -0.8570 -0.9062
  468MOL0     H64522   4.875  10.184   9.567  1.1133 -0.1905  0.8361
  468MOL0     H64523   4.954   9.945   9.583  0.0426 -0.9540  0.1227
  468MOL0     H64524   4.832   9.882   9.490 -0.1541 -1.0797  0.9841
  468MOL0     H64525   5.026   9.896   9.357  0.2406  0.9403  1.1419
  468MOL0     H64526   5.051  10.076   9.381  0.7831 -0.0693 -0.4822
  468MOL0     H64527   4.852  10.108   9.253 -1.3608 -0.3328  0.5861
  468MOL0     H64528   4.982  10.024   9.157  0.2901 -1.3973  0.8944
  468MOL0     H64529   4.795   9.838   9.292  1.7846  1.3110  1.1626
  468MOL0     H64530   4.880   9.814   9.146 -0.0492 -0.6913  1.0295
  468MOL0     H64531   4.639  10.014   9.170  0.3890  3.2912 -3.2193
  468MOL0     H64532   4.749  10.000   9.040  1.7041 -1.3070  1.0276
  468MOL0     H64533   4.543   9.750   9.270  0.5336  0.7731 -0.4349
  468MOL0     H64534   4.328   9.492   9.087  1.0039 -1.0598 -0.2914
  468MOL0     H64535   4.387   9.542   9.249 -0.1565  0.7192 -0.3601
  468MOL0     H64536   4.431   9.319   9.203  0.1965 -0.2049 -1.0778
  468MOL0     H64537   4.524   9.348   9.063  1.0047 -0.5158  0.8575
  468MOL0     H64538   4.702   9.421   9.185  0.0175 -1.4251 -1.0198
  468MOL0     H64539   4.618   9.506   9.312  0.1506  0.7234  0.5171
  468MOL0     H64540   4.610   9.197   9.282 -1.1620  0.2000 -0.0853
  468MOL0     H64541   4.730   9.285   9.367 -0.0897  0.7504  1.3624
  468MOL0     H64542   4.538   9.058   9.396  1.0854 -1.3786  0.5142
  468MOL0     H64543   4.598   8.830   9.444  1.9516  3.3835  0.6549
  468MOL0     H64544   4.458   8.763   9.518  1.1632 -0.8560 -4.4784
  468MOL0     H64545   4.611   8.776   9.609  0.7951  1.6985  0.2700
  468MOL0     H64546   4.226   8.875  10.122 -0.6602 -0.0843  0.9086
  468MOL0     H64547   4.214   8.696  10.288  0.0629 -3.5598 -0.5973
  468MOL0     H64548   4.564   8.440  10.301 -0.1156 -3.6018  0.0771
  468MOL0     H64549   4.530   8.438  10.467  1.5647 -2.1083 -1.7379
  468MOL0     H64550   4.329   8.319  10.426  1.3819  0.5570  1.3296
  468MOL0     H64551   4.343   8.373  10.256  1.5962  2.3870 -0.0386
  468MOL0     H64552   4.573   8.201  10.335  0.7924  0.5757 -0.7526
  468MOL0     H64553   4.500   8.224  10.186  2.3108  0.7110  0.5040
  468MOL0     H64554   4.296   8.090  10.268 -2.1245 -1.1697  2.4381
  468MOL0     H64555   4.373   8.083  10.430 -0.7353  0.7261 -0.7501
  468MOL0     H64556   4.481   7.970  10.173 -0.3833  0.1397 -0.1211
  468MOL0     H64557   4.544   7.935  10.333  0.0836  2.4331 -1.1527
  468MOL0     H64558   4.259   7.883  10.239  0.0041  0.2013  0.2178
  468MOL0     H64559   4.335   7.813  10.389  4.5535  3.0981  1.4736
  468MOL0     H64560   4.493   7.680  10.222 -0.8614  0.6782  0.1726
  468MOL0     H64561   4.400   7.767  10.096 -0.2326 -0.4258 -0.7506
  468MOL0     H64562   4.202   7.636  10.163  0.8232  0.5128  0.2406
  468MOL0     H64563   4.282   7.577  10.307  1.1725 -0.3764  0.9048
  468MOL0     H64564   4.635   8.660  10.269 -1.0283 -2.8340  1.7789
  468MOL0     H64565   4.651   8.795  10.070  0.3423 -1.5821 -0.7678
  468MOL0     H64566   4.529   9.177   9.872 -1.0576  2.5618 -0.3723
  468MOL0     H64567   4.524   9.333   9.713 -0.8410  0.5073 -1.8275
  468MOL0     H64568   4.526   9.716   9.540  0.7576 -3.9356  0.0691
  468MOL0     H64569   4.405   9.499   9.573 -0.2450 -1.2803  0.6726
  468MOL0     H64570   4.247   9.240   9.701 -0.6535 -0.6270 -2.0671
  468MOL0     H64571   4.227   8.971   9.752  0.0998 -0.6797 -0.6763
  468MOL0     H64572   3.818   8.828   9.755  0.8557  1.5100  0.9944
  468MOL0     H64573   3.935   8.709   9.703  2.8374 -1.9896  1.8086
  468MOL0     H64574   3.883   8.764  10.007  2.0290  0.4384 -0.4889
  468MOL0     H64575   3.980   8.640   9.957  0.5722  1.2491  0.5174
  468MOL0     H64576   3.673   8.650   9.872  0.9119 -0.2845 -0.1023
  468MOL0     H64577   3.777   8.513   9.853 -1.0163 -1.7825  1.3227
  468MOL0     H64578   3.623   8.491  10.055 -0.0942  2.0439  3.5065
  468MOL0     H64579   3.705   8.634  10.120  4.0989  0.6042  1.4574
  468MOL0     H64580   3.984   8.352  10.240  1.6698  0.8522 -2.4798
  468MOL0     H64581   3.802   9.041   9.797 -0.0321  1.9834  0.0078
  468MOL0     H64582   3.803   9.404   9.779  2.1051 -0.7365  0.4275
  468MOL0     H64583   3.742   9.288   9.652 -1.6360 -0.2404  0.7425
  468MOL0     H64584   3.715   9.278   9.830  0.9245  0.0184  0.7069
  469MOL0     O64585   1.712  10.631   1.949 -0.1853  0.9552 -0.0082
  469MOL0     C64586   1.727  10.673   1.841  0.3045 -0.1096  0.4001
  469MOL0     O64587   1.781  10.603   1.738 -1.0184  0.2382  0.4070
  469MOL0     C64588   1.765  10.474   1.718  0.2078  1.5423 -0.0723
  469MOL0     C64589   1.679  10.390   1.792 -1.4336 -0.2871  0.2989
  469MOL0     C64590   1.664  10.257   1.744 -0.5847 -0.7710 -0.4891
  469MOL0     C64591   1.745  10.205   1.644  0.1421 -0.8645  0.6725
  469MOL0     O64592   1.730  10.076   1.608 -0.2857  1.0749  0.4099
  469MOL0     C64593   1.799   9.966   1.663 -0.0706  0.6177 -0.0967
  469MOL0     C64594   1.757   9.924   1.800 -0.3645  0.5858 -0.9994
  469MOL0     C64595   1.823  10.007   1.916  0.0377  0.1579 -0.0758
  469MOL0     C64596   1.974  10.004   1.927 -0.5994  0.5095 -0.2968
  469MOL0     C64597   2.010  10.038   2.071  0.3285 -0.4137 -1.0351
  469MOL0     C64598   1.960  10.177   2.130  0.2212  0.1726 -0.4282
  469MOL0     C64599   2.004  10.213   2.279  0.4350 -0.5276 -0.2841
  469MOL0     C64600   1.939  10.114   2.367  0.5707  0.6167 -0.3857
  469MOL0     N64601   1.929  10.158   2.506  0.8444  0.2682 -0.0754
  469MOL0     C64602   1.848  10.084   2.607 -0.7466 -0.2415 -0.1077
  469MOL0     C64603   1.917  10.123   2.725  0.2464 -0.5251  0.0495
  469MOL0     C64604   1.857  10.105   2.865 -0.9493  0.3491  0.3777
  469MOL0     C64605   1.763   9.982   2.875  0.1347  0.3763 -0.1083
  469MOL0     C64606   1.740   9.967   3.027  0.3677  0.9477 -0.2743
  469MOL0     C64607   1.869   9.916   3.097  0.8376 -0.6583  0.4454
  469MOL0     O64608   1.860   9.870   3.226  1.2043  0.6423 -0.1115
  469MOL0     C64609   1.826   9.736   3.237  0.0004  0.3790  0.2834
  469MOL0     C64610   1.687   9.703   3.249 -0.2986  0.4623 -0.4214
  469MOL0     C64611   1.647   9.573   3.222 -0.9595  0.5456  0.5635
  469MOL0     C64612   1.498   9.535   3.221 -0.5517  0.9222  0.4224
  469MOL0     C64613   1.739   9.475   3.192 -1.2099  0.7186 -0.7111
  469MOL0     C64614   1.698   9.342   3.191 -0.2681  0.1565  0.1868
  469MOL0     O64615   1.720   9.272   3.077 -0.3309  0.8580  0.2024
  469MOL0     C64616   1.664   9.148   3.065 -0.3632 -0.7487  0.3943
  469MOL0     C64617   1.540   9.142   3.000  0.2949  1.2437  0.6871
  469MOL0     C64618   1.472   9.021   2.989  0.6219 -0.4228  0.0429
  469MOL0     C64619   1.535   8.902   3.015 -0.1404 -0.4782 -0.1746
  469MOL0     O64620   1.479   8.781   3.005 -0.3961 -0.3359  0.0414
  469MOL0     C64621   1.454   8.743   2.872  0.1889 -0.1872 -0.4196
  469MOL0     C64622   1.390   8.605   2.884 -0.1778  0.5887  0.4301
  469MOL0     C64623   1.259   8.616   2.961  0.2735 -0.7308 -0.3442
  469MOL0     C64624   1.177   8.502   2.908 -0.1695  0.2923  1.1279
  469MOL0     C64625   1.055   8.491   3.005  0.1589 -0.7389  0.7624
  469MOL0     C64626   0.964   8.372   2.955 -0.0163 -0.9971 -0.3078
  469MOL0     C64627   0.808   8.395   2.974  0.2903 -0.4669  0.0944
  469MOL0     C64628   0.753   8.258   2.925  0.0426  0.4350  0.2901
  469MOL0    Cl64629   0.564   8.259   2.912  0.2269  0.1078 -0.6170
  469MOL0     C64630   1.651   8.915   3.097 -0.4745  0.1156  0.3582
  469MOL0     C64631   1.721   9.033   3.112 -0.4690  0.1191  0.1061
  469MOL0     O64632   1.671   9.289   3.298  0.1451  0.2397  0.4465
  469MOL0     C64633   1.872   9.503   3.175  0.5785 -0.8939 -0.2568
  469MOL0     C64634   1.917   9.633   3.204  0.1506  0.5971 -0.2617
  469MOL0     N64635   2.029  10.199   2.698 -0.5120  0.0404 -0.4050
  469MOL0     N64636   2.028  10.217   2.572  0.5581 -0.2122  0.7731
  469MOL0     C64637   1.841  10.284   1.584  0.1062  0.3217 -0.6705
  469MOL0     C64638   1.849  10.427   1.616 -0.0955  0.0147 -0.9552
  469MOL0     C64639   1.704  10.816   1.819  0.5935  0.1290  0.4748
  469MOL0     C64640   1.750  10.871   1.691  0.4712 -0.4972  0.3354
  469MOL0     C64641   1.733  11.007   1.650  0.1840  0.4692 -1.4385
  469MOL0     C64642   1.671  11.095   1.745 -1.0936 -0.6385 -0.3023
  469MOL0     O64643   1.654  11.227   1.725 -0.0151  0.4193  0.1526
  469MOL0     C64644   1.676  11.278   1.587  0.1442 -0.2769 -0.2268
  469MOL0     C64645   1.631  11.427   1.566  0.0482 -0.7408  0.2380
  469MOL0     C64646   1.484  11.433   1.567 -0.1625 -0.0265  0.1824
  469MOL0     C64647   1.417  11.557   1.501  0.0303 -0.7970  0.4173
  469MOL0     C64648   1.453  11.555   1.357 -0.0553  0.4313 -0.6209
  469MOL0     C64649   1.492  11.567   1.242  0.3999  0.4601  0.6856
  469MOL0     C64650   1.636  11.046   1.870  0.7056  0.5610 -0.5282
  469MOL0     C64651   1.656  10.912   1.913  0.5891  0.5887  0.4887
  469MOL0     C64652   1.634  10.889   2.053 -0.2161  0.7166 -0.5420
  469MOL0     H64653   1.613  10.431   1.868 -0.6094  1.0675  0.3249
  469MOL0     H64654   1.587  10.190   1.781  0.7085 -1.6408  0.7122
  469MOL0     H64655   1.904   9.994   1.664  0.3053 -0.4250 -2.7150
  469MOL0     H64656   1.792   9.877   1.599  0.3722  0.4058  0.1457
  469MOL0     H64657   1.649   9.932   1.820 -0.6093 -3.3586  0.0921
  469MOL0     H64658   1.784   9.819   1.813  0.5705  0.9267 -0.0388
  469MOL0     H64659   1.801  10.113   1.897  2.7098  0.4780 -1.9049
  469MOL0     H64660   1.777   9.980   2.012 -0.3547 -0.7174 -0.4938
  469MOL0     H64661   2.019   9.906   1.910 -0.3616  0.0740  2.4278
  469MOL0     H64662   2.033  10.073   1.866  1.0836 -1.8037 -1.4587
  469MOL0     H64663   2.116  10.027   2.095  0.0145  0.3930  0.9177
  469MOL0     H64664   1.982   9.952   2.132  3.2033 -1.3646 -0.8807
  469MOL0     H64665   1.990  10.264   2.071  3.4065 -0.6080 -0.1414
  469MOL0     H64666   1.850  10.184   2.127  0.2787  1.0445 -2.6608
  469MOL0     H64667   1.977  10.316   2.305 -3.9457 -0.8625 -2.5243
  469MOL0     H64668   2.112  10.207   2.265  0.4073  0.0949 -0.8237
  469MOL0     H64669   1.837  10.092   2.334 -0.0489 -0.4927  2.0646
  469MOL0     H64670   1.978  10.012   2.379  0.3449  0.7763  2.1023
  469MOL0     H64671   1.755  10.029   2.613  0.0894 -1.6529  0.2591
  469MOL0     H64672   1.802  10.194   2.895  0.2667  0.3885  2.7393
  469MOL0     H64673   1.942  10.095   2.934 -0.9458 -1.2592  0.1824
  469MOL0     H64674   1.668  10.009   2.830  0.3037 -2.4285 -2.4704
  469MOL0     H64675   1.789   9.883   2.836 -3.8415 -0.2552 -1.5556
  469MOL0     H64676   1.707  10.063   3.067  1.5935  0.9308  0.8444
  469MOL0     H64677   1.655   9.900   3.044  1.4367 -0.7417 -1.2697
  469MOL0     H64678   1.910   9.835   3.037 -0.3872 -2.3669  1.8355
  469MOL0     H64679   1.948   9.991   3.109  0.7639 -0.6577  0.9600
  469MOL0     H64680   1.614   9.777   3.280  0.0799  0.7149 -0.1080
  469MOL0     H64681   1.445   9.631   3.220 -2.5108 -0.0950 -1.1571
  469MOL0     H64682   1.460   9.494   3.315 -1.4172  0.3545 -0.1654
  469MOL0     H64683   1.473   9.467   3.139  2.3374  0.5301 -0.2521
  469MOL0     H64684   1.490   9.226   2.954 -1.5071 -0.8197 -1.3923
  469MOL0     H64685   1.379   9.023   2.933  0.6992 -3.0266 -0.3122
  469MOL0     H64686   1.390   8.820   2.827 -1.1365 -0.1096  1.4590
  469MOL0     H64687   1.542   8.734   2.808  0.2933 -0.4780 -0.2397
  469MOL0     H64688   1.367   8.563   2.785 -1.8574  4.8974 -1.2581
  469MOL0     H64689   1.463   8.544   2.938  0.9427  1.2870 -0.2630
  469MOL0     H64690   1.203   8.710   2.950  1.8352 -0.0320 -3.2232
  469MOL0     H64691   1.269   8.586   3.066 -0.6709  1.5960  0.4882
  469MOL0     H64692   1.217   8.401   2.893 -2.0474 -0.1405 -1.8730
  469MOL0     H64693   1.136   8.528   2.810  0.6200  1.6380  1.1267
  469MOL0     H64694   1.109   8.452   3.092  3.8586 -1.5570 -1.6846
  469MOL0     H64695   1.001   8.586   3.003 -0.2900 -0.9174 -2.8086
  469MOL0     H64696   1.000   8.287   3.015  3.3837 -0.1208 -0.8940
  469MOL0     H64697   0.978   8.337   2.852 -3.4387 -1.0263 -0.8872
  469MOL0     H64698   0.775   8.476   2.908  1.1039 -1.4940 -1.6596
  469MOL0     H64699   0.780   8.406   3.079 -1.1341  1.0351 -0.4028
  469MOL0     H64700   0.784   8.177   2.992 -0.6221 -0.5049 -0.5153
  469MOL0     H64701   0.798   8.235   2.828  1.4552  3.3233  0.1746
  469MOL0     H64702   1.695   8.824   3.138 -0.8155 -0.6535 -0.9149
  469MOL0     H64703   1.822   9.032   3.151 -0.7118 -1.0331  0.7527
  469MOL0     H64704   1.947   9.433   3.143  0.6815 -1.0889  0.3880
  469MOL0     H64705   2.022   9.655   3.185  0.5165 -1.2284 -0.5628
  469MOL0     H64706   1.901  10.241   1.505  2.2871  1.8659  0.0372
  469MOL0     H64707   1.900  10.508   1.565 -1.6983  0.8596 -1.2684
  469MOL0     H64708   1.795  10.800   1.622  0.1992 -0.3472  0.0007
  469MOL0     H64709   1.756  11.036   1.548 -2.9120  1.2785 -2.0342
  469MOL0     H64710   1.782  11.268   1.565  0.7660  3.2846  0.5018
  469MOL0     H64711   1.625  11.208   1.520  0.5741 -1.5456  0.7175
  469MOL0     H64712   1.671  11.451   1.468 -1.5224  0.6112 -0.1215
  469MOL0     H64713   1.681  11.494   1.637 -2.8797  1.9655 -0.0029
  469MOL0     H64714   1.438  11.352   1.511  0.3193  0.4336 -0.9008
  469MOL0     H64715   1.456  11.426   1.673 -0.5596 -0.5480  0.0456
  469MOL0     H64716   1.439  11.648   1.557 -0.8034 -0.5506  0.3612
  469MOL0     H64717   1.307  11.553   1.504 -0.0443  0.3368 -0.1363
  469MOL0     H64718   1.540  11.585   1.148 -0.6357  3.3090  0.6134
  469MOL0     H64719   1.586  11.124   1.927 -0.4991 -0.1587 -0.5722
  469MOL0     H64720   1.549  10.953   2.077 -1.4933 -0.1052 -2.6116
  469MOL0     H64721   1.598  10.788   2.074  3.6848 -1.1712 -1.9543
  469MOL0     H64722   1.722  10.903   2.116  0.1933 -0.1549 -0.8971
  470MOL0     O64723   3.371   9.863   1.311 -0.6377 -0.1831 -0.2785
  470MOL0     C64724   3.346   9.977   1.358  0.0375  0.1259 -0.0686
  470MOL0     O64725   3.339  10.098   1.279 -0.0870  0.0492 -0.7010
  470MOL0     C64726   3.345  10.070   1.144 -0.0961  0.8209 -0.7902
  470MOL0     C64727   3.231  10.064   1.065  0.1395  0.7928 -0.2960
  470MOL0     C64728   3.243  10.018   0.930 -0.3559  0.7213 -0.1643
  470MOL0     C64729   3.362  10.002   0.861 -0.3195  0.2443 -0.1306
  470MOL0     O64730   3.357   9.962   0.726  0.2596 -0.5394 -0.0576
  470MOL0     C64731   3.481   9.935   0.661  0.5344 -0.3735 -0.5039
  470MOL0     C64732   3.466   9.860   0.536 -0.1541  0.0073 -0.1288
  470MOL0     C64733   3.594   9.843   0.454  0.0385 -1.1630  0.3422
  470MOL0     C64734   3.699   9.739   0.514 -1.1209 -0.3172  0.7166
  470MOL0     C64735   3.814   9.708   0.419 -0.0432 -0.0664 -0.6108
  470MOL0     C64736   3.926   9.612   0.477  0.3779 -0.7370  0.0878
  470MOL0     C64737   3.994   9.639   0.617 -0.4268  0.6561  0.5173
  470MOL0     C64738   4.039   9.777   0.650  0.2915 -0.3430  1.1186
  470MOL0     N64739   4.148   9.834   0.563 -0.2732  0.2916  0.3843
  470MOL0     C64740   4.153   9.958   0.505  0.2596 -0.4109 -0.0403
  470MOL0     C64741   4.274   9.966   0.449 -0.0191 -0.3342  0.4889
  470MOL0     C64742   4.313  10.066   0.356  0.1777 -0.9028 -0.6139
  470MOL0     C64743   4.381  10.192   0.416  0.2864 -0.0539  0.3443
  470MOL0     C64744   4.276  10.292   0.461 -0.3709 -1.0294 -0.6475
  470MOL0     C64745   4.323  10.429   0.507  0.5537 -0.0990  0.1109
  470MOL0     O64746   4.213  10.513   0.533 -0.0405  0.0493  0.1136
  470MOL0     C64747   4.154  10.520   0.657 -0.5633  0.2059  0.0681
  470MOL0     C64748   4.038  10.591   0.651 -0.2011 -0.7253 -0.8700
  470MOL0     C64749   3.985  10.646   0.768  0.9963 -0.3930  0.4899
  470MOL0     C64750   3.862  10.734   0.761 -0.5639 -0.0335  0.0418
  470MOL0     C64751   4.057  10.634   0.884 -0.5031  1.5365  0.4799
  470MOL0     C64752   4.018  10.691   1.016  0.1846  0.0616  0.2987
  470MOL0     O64753   4.113  10.724   1.101 -0.4416  0.3892 -0.9186
  470MOL0     C64754   4.074  10.730   1.236 -0.1778  0.7864  0.4817
  470MOL0     C64755   4.079  10.611   1.312 -0.5626 -0.6500 -0.1855
  470MOL0     C64756   4.024  10.625   1.438 -0.2536  0.4645  0.6882
  470MOL0     C64757   3.949  10.739   1.484  0.0334  0.0964 -0.0150
  470MOL0     O64758   3.889  10.737   1.609  0.4346 -0.0704  0.9055
  470MOL0     C64759   3.907  10.858   1.693  0.0470 -0.8164  0.7436
  470MOL0     C64760   3.835  10.836   1.830 -0.3118  0.2316  0.2609
  470MOL0     C64761   3.901  10.713   1.898  0.5568 -0.0439 -0.0356
  470MOL0     C64762   3.850  10.703   2.039 -0.8749 -0.2798  0.3603
  470MOL0     C64763   3.888  10.572   2.091 -0.0749 -0.0895  0.2205
  470MOL0     C64764   4.004  10.581   2.198 -0.1323 -0.1257 -1.3227
  470MOL0     C64765   4.058  10.443   2.233  0.1010 -0.2356  0.9270
  470MOL0     C64766   3.967  10.376   2.332  0.0678 -0.2591  0.2136
  470MOL0    Cl64767   4.012  10.205   2.317 -0.0964 -0.5990 -0.2414
  470MOL0     C64768   3.957  10.854   1.402  0.3030  0.9929 -0.8206
  470MOL0     C64769   4.020  10.845   1.272  0.1830 -1.2423  0.2566
  470MOL0     O64770   3.895  10.691   1.042  0.0681 -0.0655 -0.5903
  470MOL0     C64771   4.173  10.555   0.887 -0.3471 -1.0182 -1.4989
  470MOL0     C64772   4.226  10.502   0.776  0.6282 -0.3447 -0.4415
  470MOL0     N64773   4.345   9.852   0.480  0.6089  0.1720  0.6943
  470MOL0     N64774   4.263   9.765   0.529 -0.6664 -0.1161  0.0143
  470MOL0     C64775   3.480  10.019   0.944 -0.3844  0.0902 -0.4084
  470MOL0     C64776   3.469  10.041   1.084  0.3879  0.3499  0.4818
  470MOL0     C64777   3.337   9.987   1.508 -0.7484 -0.9950  0.6700
  470MOL0     C64778   3.379  10.123   1.557 -0.9018  1.3427 -0.4640
  470MOL0     C64779   3.382  10.152   1.697  0.3971  0.2407 -0.3734
  470MOL0     C64780   3.318  10.061   1.778 -0.7545  0.3983 -0.3441
  470MOL0     O64781   3.282  10.092   1.906  0.4067 -0.2132 -0.5035
  470MOL0     C64782   3.255  10.225   1.943  0.7666  0.3680 -0.1331
  470MOL0     C64783   3.132  10.293   1.866 -0.4009  0.7873 -0.5902
  470MOL0     C64784   3.001  10.209   1.863  0.9378  0.7585  0.5733
  470MOL0     C64785   2.949  10.151   1.989 -0.1974 -0.4660 -0.7522
  470MOL0     C64786   2.854  10.232   2.065  1.1732  0.7119  0.4436
  470MOL0     C64787   2.783  10.322   2.090  0.6683 -0.7803 -0.0346
  470MOL0     C64788   3.269   9.932   1.726 -0.2319  0.7222  0.5154
  470MOL0     C64789   3.277   9.899   1.593  0.3271 -0.2192  0.0490
  470MOL0     C64790   3.237   9.755   1.557 -0.0559  0.3101  0.1786
  470MOL0     H64791   3.137  10.069   1.118  0.6517  2.6341  0.5484
  470MOL0     H64792   3.160   9.983   0.870  0.8385 -1.8576 -0.4458
  470MOL0     H64793   3.559   9.889   0.722  2.3559  2.3978 -0.5407
  470MOL0     H64794   3.519  10.030   0.623 -0.1871 -0.6259 -1.9352
  470MOL0     H64795   3.432   9.762   0.568  0.6502  0.2347  1.5148
  470MOL0     H64796   3.385   9.902   0.475 -0.4050  1.6256  1.2306
  470MOL0     H64797   3.560   9.821   0.353  3.0939 -0.9413 -0.8176
  470MOL0     H64798   3.643   9.938   0.432 -0.1269 -1.7205 -2.8895
  470MOL0     H64799   3.750   9.786   0.599  0.9864  2.9181 -2.0597
  470MOL0     H64800   3.652   9.644   0.540 -1.2678 -0.5909 -0.4978
  470MOL0     H64801   3.865   9.797   0.380  2.7785 -1.7684 -1.0427
  470MOL0     H64802   3.780   9.669   0.323  1.9496  1.8582 -2.2168
  470MOL0     H64803   3.888   9.510   0.473  3.0637 -1.9278  2.0533
  470MOL0     H64804   3.999   9.621   0.397  1.7835 -1.3821  1.2543
  470MOL0     H64805   4.078   9.569   0.627 -1.5800 -1.1873 -1.6497
  470MOL0     H64806   3.926   9.622   0.701 -1.4359  0.0595 -0.4008
  470MOL0     H64807   3.958   9.846   0.672 -0.8341 -2.0428  2.6497
  470MOL0     H64808   4.087   9.761   0.747  1.0982  1.3863  1.0294
  470MOL0     H64809   4.071  10.028   0.494  3.5374  3.4541 -4.3241
  470MOL0     H64810   4.223  10.080   0.295 -1.0746 -3.6728  0.4223
  470MOL0     H64811   4.389  10.030   0.286  0.2806 -1.8919 -0.0188
  470MOL0     H64812   4.452  10.154   0.490 -0.6400 -1.2237  0.6607
  470MOL0     H64813   4.439  10.233   0.333  0.9771 -2.1868 -0.2781
  470MOL0     H64814   4.218  10.316   0.371  3.1861  1.7423 -2.4603
  470MOL0     H64815   4.227  10.254   0.551  0.7205  0.2135  0.5229
  470MOL0     H64816   4.399  10.426   0.586  1.8713 -1.8728 -1.1446
  470MOL0     H64817   4.378  10.464   0.419 -1.1579 -0.6416 -1.2226
  470MOL0     H64818   3.990  10.622   0.559 -0.2322 -0.4882 -0.7739
  470MOL0     H64819   3.785  10.683   0.820 -0.1292 -1.0969 -0.2991
  470MOL0     H64820   3.826  10.758   0.661 -1.6425  0.7788  0.6011
  470MOL0     H64821   3.887  10.832   0.802  0.3883 -0.6270  0.9329
  470MOL0     H64822   4.128  10.517   1.291 -1.0856 -0.7807 -0.8550
  470MOL0     H64823   4.021  10.544   1.511  0.4102 -0.1351  0.0634
  470MOL0     H64824   4.014  10.878   1.692 -0.0405  0.2807 -3.0939
  470MOL0     H64825   3.849  10.938   1.645  0.2964 -1.1923 -0.2093
  470MOL0     H64826   3.839  10.927   1.891 -2.4426  1.1777 -0.8874
  470MOL0     H64827   3.733  10.815   1.799 -0.1556  1.2478 -1.0568
  470MOL0     H64828   4.007  10.737   1.911  0.3410  0.4417  0.9438
  470MOL0     H64829   3.873  10.622   1.844 -1.1162  0.1396  0.4622
  470MOL0     H64830   3.741  10.707   2.033 -0.7975  2.7157 -0.8423
  470MOL0     H64831   3.877  10.787   2.104  2.8612  0.7874 -2.2754
  470MOL0     H64832   3.805  10.542   2.156 -0.7989  4.9140  2.0799
  470MOL0     H64833   3.910  10.506   2.007 -0.8614  2.3943 -2.0661
  470MOL0     H64834   3.973  10.638   2.286  1.3206  1.1471 -1.6021
  470MOL0     H64835   4.091  10.635   2.160  1.3218 -0.7749  0.9081
  470MOL0     H64836   4.160  10.447   2.270  0.8128 -0.8093 -0.8577
  470MOL0     H64837   4.072  10.383   2.142 -2.9370  1.3433 -0.7617
  470MOL0     H64838   3.859  10.389   2.315  0.3659 -0.9911 -2.8837
  470MOL0     H64839   4.000  10.424   2.424 -0.3293  4.9034 -1.9990
  470MOL0     H64840   3.899  10.944   1.419 -1.8264 -0.6556  1.3657
  470MOL0     H64841   4.011  10.928   1.203 -3.2460 -1.8190 -0.1696
  470MOL0     H64842   4.229  10.557   0.980 -0.3976  0.9972 -1.4598
  470MOL0     H64843   4.323  10.453   0.778  0.8688  0.1463  0.4117
  470MOL0     H64844   3.586  10.007   0.922  0.5447  0.8152  3.1148
  470MOL0     H64845   3.559  10.049   1.144  0.4776 -2.5873  0.9140
  470MOL0     H64846   3.432  10.190   1.490  1.0980  2.0399  1.6757
  470MOL0     H64847   3.405  10.252   1.733  1.8724 -0.9719  2.3820
  470MOL0     H64848   3.236  10.218   2.051  1.2695 -0.4711 -0.0859
  470MOL0     H64849   3.344  10.289   1.939  0.7327  0.4023 -0.3476
  470MOL0     H64850   3.162  10.302   1.761 -1.7157  0.1483 -1.0365
  470MOL0     H64851   3.111  10.394   1.902 -1.7946  0.1934  0.3147
  470MOL0     H64852   2.917  10.261   1.816  1.5826  0.8421 -0.5461
  470MOL0     H64853   3.026  10.126   1.796  2.6311  2.1583 -0.6332
  470MOL0     H64854   3.022  10.121   2.064 -1.1153 -0.2360  0.2645
  470MOL0     H64855   2.890  10.064   1.957  0.1532 -1.2572  0.6819
  470MOL0     H64856   2.720  10.405   2.112  1.5405 -0.5413  1.7179
  470MOL0     H64857   3.231   9.870   1.807  0.0183 -0.5980 -0.3532
  470MOL0     H64858   3.145   9.761   1.498  1.0372  1.0895 -1.5449
  470MOL0     H64859   3.318   9.710   1.499  0.6187  2.2005 -0.4399
  470MOL0     H64860   3.231   9.696   1.649  7.1630  1.5952  2.1589
  471MOL0     O64861   3.894  10.522   6.374  0.7781  0.3653  0.9426
  471MOL0     C64862   3.980  10.527   6.289 -0.4089  0.5085  0.0854
  471MOL0     O64863   3.993  10.451   6.176  0.5812 -0.5915  1.1508
  471MOL0     C64864   3.875  10.405   6.109 -0.3671  0.6268  0.0547
  471MOL0     C64865   3.861  10.273   6.062  0.5260  0.8347 -0.6510
  471MOL0     C64866   3.749  10.227   5.991  0.1317  0.2508  0.1157
  471MOL0     C64867   3.639  10.305   5.985  0.0387 -1.1106  0.2521
  471MOL0     O64868   3.523  10.271   5.921  0.4638 -0.5662 -0.7579
  471MOL0     C64869   3.475  10.136   5.911 -0.0242  0.7764  1.0598
  471MOL0     C64870   3.493  10.054   6.049 -0.2284  0.1595  0.2851
  471MOL0     C64871   3.380   9.957   6.079 -0.2989  0.7889  0.3631
  471MOL0     C64872   3.383   9.845   5.967  0.6600 -0.3461 -0.0369
  471MOL0     C64873   3.308   9.724   6.021  0.1027  0.3563  0.0826
  471MOL0     C64874   3.322   9.607   5.931 -0.2002 -0.1275 -0.1063
  471MOL0     C64875   3.233   9.497   5.977  0.2431 -0.3725 -0.3476
  471MOL0     C64876   3.297   9.368   5.922 -0.1427 -0.5620 -0.0807
  471MOL0     N64877   3.343   9.285   6.036  0.3873 -0.3701 -0.7330
  471MOL0     C64878   3.415   9.335   6.143  0.8712 -0.1249  0.7529
  471MOL0     C64879   3.446   9.236   6.226  1.1327 -0.8222  0.1501
  471MOL0     C64880   3.539   9.255   6.350  0.4723 -0.5983  0.6536
  471MOL0     C64881   3.491   9.371   6.444 -0.0944  0.4303 -0.4489
  471MOL0     C64882   3.588   9.397   6.566  0.8276  0.0530  0.9754
  471MOL0     C64883   3.595   9.275   6.667  0.4567 -0.0944  0.3699
  471MOL0     O64884   3.696   9.297   6.769 -0.5224  0.1574  0.0137
  471MOL0     C64885   3.684   9.230   6.887 -0.0015 -0.4660  0.5489
  471MOL0     C64886   3.610   9.113   6.890  0.2574 -0.2777  0.2228
  471MOL0     C64887   3.604   9.037   7.007  0.6058 -0.3403  0.1761
  471MOL0     C64888   3.517   8.913   7.002 -0.9056 -0.4124 -0.0080
  471MOL0     C64889   3.679   9.078   7.122 -0.7305 -0.2768 -0.1701
  471MOL0     C64890   3.679   8.998   7.251  0.2436 -0.4610  0.5430
  471MOL0     O64891   3.577   8.907   7.280 -0.0813  0.3213 -0.5337
  471MOL0     C64892   3.598   8.827   7.390 -0.4555 -0.1143 -0.3277
  471MOL0     C64893   3.674   8.718   7.377  0.4736 -0.5670  1.5816
  471MOL0     C64894   3.696   8.633   7.479  0.8589 -0.1567 -0.5652
  471MOL0     C64895   3.649   8.676   7.607 -0.0783  1.0615 -0.3966
  471MOL0     O64896   3.678   8.589   7.712 -0.2517  0.2183 -0.7660
  471MOL0     C64897   3.660   8.616   7.855 -0.3953  0.0300 -0.0916
  471MOL0     C64898   3.578   8.517   7.923  0.4466  0.0486  0.1326
  471MOL0     C64899   3.666   8.386   7.954  0.7496 -0.3195 -0.2112
  471MOL0     C64900   3.576   8.302   8.028  0.7296  0.3644 -1.4259
  471MOL0     C64901   3.658   8.190   8.098  0.6194  0.0078  0.6736
  471MOL0     C64902   3.555   8.090   8.146  0.7729 -0.3353  0.0447
  471MOL0     C64903   3.602   7.955   8.183  0.0050  1.1759 -0.9816
  471MOL0     C64904   3.685   7.958   8.308  0.2455 -0.1388 -0.0530
  471MOL0    Cl64905   3.584   8.002   8.447 -0.3672 -0.2067 -0.1868
  471MOL0     C64906   3.589   8.803   7.629  0.4159  0.0308  0.2710
  471MOL0     C64907   3.548   8.869   7.514  0.2061  0.3525  0.0748
  471MOL0     O64908   3.768   9.030   7.325 -0.3462  0.2667  0.2516
  471MOL0     C64909   3.758   9.189   7.108  1.3200 -0.2766 -0.4624
  471MOL0     C64910   3.758   9.273   6.990 -0.1122  0.1196 -0.5520
  471MOL0     N64911   3.392   9.122   6.175 -0.4393 -0.2260  0.8836
  471MOL0     N64912   3.331   9.150   6.051 -0.3184 -0.2186 -1.0618
  471MOL0     C64913   3.651  10.432   6.041  0.5866  0.1953 -0.1442
  471MOL0     C64914   3.763  10.487   6.098 -0.1954  0.3221  0.5037
  471MOL0     C64915   4.098  10.606   6.336  0.3934  0.2928  0.2152
  471MOL0     C64916   4.172  10.554   6.435 -0.0005 -0.0569 -0.6289
  471MOL0     C64917   4.282  10.618   6.488  0.2213 -0.1805 -0.1176
  471MOL0     C64918   4.320  10.739   6.438  0.1422  0.6742 -0.3083
  471MOL0     O64919   4.425  10.797   6.503  0.2543 -0.5801  0.2988
  471MOL0     C64920   4.523  10.851   6.416  0.6460 -0.1722 -0.5545
  471MOL0     C64921   4.636  10.898   6.516  0.0978  0.2150  0.2281
  471MOL0     C64922   4.699  10.787   6.605 -0.5248 -0.0990 -0.6347
  471MOL0     C64923   4.811  10.711   6.536 -0.3330  0.1155  0.1641
  471MOL0     C64924   4.944  10.772   6.543 -0.8205 -0.2092 -0.1867
  471MOL0     C64925   5.056  10.809   6.575 -0.8148 -0.5871  0.8752
  471MOL0     C64926   4.254  10.782   6.325  0.4965 -0.6416  1.0896
  471MOL0     C64927   4.140  10.729   6.271 -0.0088  0.4394  0.2024
  471MOL0     C64928   4.067  10.792   6.161 -0.0509  0.0012  0.0278
  471MOL0     H64929   3.946  10.205   6.054 -0.6578 -0.6146 -1.4682
  471MOL0     H64930   3.760  10.129   5.947 -1.3802  0.3801 -0.6284
  471MOL0     H64931   3.531  10.081   5.835 -0.5504  0.9024  0.5740
  471MOL0     H64932   3.369  10.136   5.882  0.3093  4.9205 -0.9251
  471MOL0     H64933   3.592  10.008   6.047 -1.2568 -2.1758 -0.5527
  471MOL0     H64934   3.505  10.128   6.128  3.0621  0.3915 -0.3256
  471MOL0     H64935   3.401   9.921   6.180  1.5243 -1.4389 -0.7218
  471MOL0     H64936   3.274   9.985   6.084 -0.9244 -1.1736 -0.6700
  471MOL0     H64937   3.334   9.886   5.877  2.1391 -2.1119 -1.7391
  471MOL0     H64938   3.484   9.810   5.944  1.7942  1.6621  1.5771
  471MOL0     H64939   3.203   9.755   6.027 -0.2324 -0.3698 -1.5714
  471MOL0     H64940   3.327   9.699   6.126  2.3151 -1.4396 -0.6768
  471MOL0     H64941   3.292   9.628   5.828 -0.6726  0.4244  0.1441
  471MOL0     H64942   3.420   9.561   5.951  1.4171  3.2440  0.3295
  471MOL0     H64943   3.132   9.509   5.936 -0.7917 -1.5186  1.6968
  471MOL0     H64944   3.222   9.480   6.085 -0.8673 -2.9842 -0.8009
  471MOL0     H64945   3.223   9.308   5.868  0.0151 -1.9937  1.2499
  471MOL0     H64946   3.385   9.383   5.858  1.3302 -1.3445  1.6829
  471MOL0     H64947   3.434   9.441   6.152 -3.3121  1.2232 -2.7812
  471MOL0     H64948   3.633   9.286   6.305  0.1449 -1.0074 -0.3312
  471MOL0     H64949   3.546   9.157   6.399  2.6535  0.5402  2.8114
  471MOL0     H64950   3.481   9.463   6.385 -2.2700 -1.6715 -3.6895
  471MOL0     H64951   3.390   9.358   6.482  0.7782 -1.1586  1.4993
  471MOL0     H64952   3.687   9.427   6.531  2.0453 -2.6428  1.8453
  471MOL0     H64953   3.539   9.479   6.619 -1.0556 -1.9308  2.4814
  471MOL0     H64954   3.496   9.260   6.711  0.8564 -3.1047  0.4706
  471MOL0     H64955   3.619   9.187   6.607 -3.4195 -0.2468 -1.2444
  471MOL0     H64956   3.554   9.081   6.803 -0.6324  1.1611  0.2330
  471MOL0     H64957   3.496   8.887   6.898  1.1416  0.9305 -0.8225
  471MOL0     H64958   3.426   8.919   7.062 -0.1256  1.0229  1.0924
  471MOL0     H64959   3.583   8.835   7.041  4.2634  2.8607 -1.1101
  471MOL0     H64960   3.703   8.698   7.275 -0.8089  1.1976  0.8232
  471MOL0     H64961   3.741   8.535   7.467  4.4974  1.4139 -0.8135
  471MOL0     H64962   3.753   8.605   7.910  0.2931 -1.0503 -1.4238
  471MOL0     H64963   3.619   8.717   7.866  1.9138  0.8883  1.2718
  471MOL0     H64964   3.549   8.568   8.015  0.7348  3.4190 -1.4984
  471MOL0     H64965   3.481   8.493   7.879 -0.4272  0.1987  1.8749
  471MOL0     H64966   3.751   8.405   8.020  1.9640 -1.1134 -1.4928
  471MOL0     H64967   3.697   8.335   7.862  4.4414 -0.5001  0.9462
  471MOL0     H64968   3.506   8.263   7.954 -4.0272  3.1655  1.1169
  471MOL0     H64969   3.537   8.364   8.109  0.6780  0.4027 -1.4801
  471MOL0     H64970   3.718   8.137   8.024 -1.1777 -3.7568  1.6667
  471MOL0     H64971   3.718   8.224   8.183 -0.4803  0.2565  1.3739
  471MOL0     H64972   3.494   8.072   8.058 -0.4713 -1.8182  1.1507
  471MOL0     H64973   3.491   8.135   8.222  1.9867  1.1447  0.2439
  471MOL0     H64974   3.665   7.934   8.096  1.4756  2.4987 -0.2862
  471MOL0     H64975   3.531   7.873   8.193  0.5537  0.5685 -1.8865
  471MOL0     H64976   3.765   8.032   8.298 -0.0568  0.0210 -1.7290
  471MOL0     H64977   3.730   7.866   8.344  3.1888  0.8545 -0.8922
  471MOL0     H64978   3.562   8.836   7.729  0.7303 -0.7459  0.6156
  471MOL0     H64979   3.477   8.950   7.521  1.3643  1.6907 -2.3422
  471MOL0     H64980   3.820   9.223   7.191 -1.0520  1.5705  0.6546
  471MOL0     H64981   3.827   9.355   7.005 -0.2901 -0.1000  1.8243
  471MOL0     H64982   3.559  10.490   6.046 -0.0520 -0.7444 -0.5221
  471MOL0     H64983   3.767  10.589   6.134 -0.3670  0.2629  0.6971
  471MOL0     H64984   4.146  10.455   6.470  1.4966 -1.1062 -2.3395
  471MOL0     H64985   4.339  10.561   6.561  3.7853  1.4747 -1.3807
  471MOL0     H64986   4.554  10.777   6.343 -2.4019 -0.5613 -1.5899
  471MOL0     H64987   4.483  10.940   6.365  3.4211  1.5175 -0.0337
  471MOL0     H64988   4.592  10.967   6.588  1.4426  0.0581  1.2312
  471MOL0     H64989   4.715  10.948   6.460 -1.3734  2.1657 -0.2225
  471MOL0     H64990   4.750  10.831   6.690 -2.3870  0.1726  0.3920
  471MOL0     H64991   4.624  10.712   6.634  0.4635 -0.9486 -0.2124
  471MOL0     H64992   4.783  10.688   6.433 -1.2854  2.6314 -0.2000
  471MOL0     H64993   4.818  10.615   6.588 -2.1024  0.7534  1.6734
  471MOL0     H64994   5.154  10.828   6.613 -0.7158 -0.2178  0.4480
  471MOL0     H64995   4.283  10.872   6.272  0.4877 -1.6827 -0.7662
  471MOL0     H64996   4.084  10.900   6.161  1.0979 -0.1102 -2.7647
  471MOL0     H64997   4.094  10.751   6.063 -3.0015 -0.2402 -0.7913
  471MOL0     H64998   3.960  10.771   6.172 -0.0418  0.3442  0.8026
  472MOL0     O64999   1.634   0.171   7.995 -0.0162  0.7996  0.3912
  472MOL0     C65000   1.720   0.221   8.066 -0.1155 -0.7143 -0.1045
  472MOL0     O65001   1.855   0.229   8.044  0.6530  0.3926  0.3727
  472MOL0     C65002   1.908   0.108   7.991  0.1700 -0.0645 -1.1042
  472MOL0     C65003   2.047   0.111   7.958  0.7025 -0.4694 -0.4727
  472MOL0     C65004   2.118  -0.002   7.935  0.3339  1.1322  0.7913
  472MOL0     C65005   2.061  -0.127   7.936 -0.2264  0.4183 -1.0444
  472MOL0     O65006   2.155  -0.223   7.946 -0.7921 -0.2107 -0.1090
  472MOL0     C65007   2.136  -0.354   7.998 -0.6524 -0.2356  0.1894
  472MOL0     C65008   2.259  -0.430   7.950  0.2000  0.9791 -0.8779
  472MOL0     C65009   2.260  -0.580   7.968  0.6560  0.9163 -0.1208
  472MOL0     C65010   2.263  -0.610   8.121 -0.4174  0.6778  0.7936
  472MOL0     C65011   2.298  -0.754   8.161  0.1911  0.9161  0.3984
  472MOL0     C65012   2.438  -0.768   8.221  0.2473  0.2057 -0.4194
  472MOL0     C65013   2.444  -0.704   8.364  0.0082 -0.7135  0.3500
  472MOL0     C65014   2.590  -0.698   8.419 -0.0216  0.5415 -0.3936
  472MOL0     N65015   2.585  -0.643   8.556 -0.4777 -0.4646  0.2698
  472MOL0     C65016   2.507  -0.688   8.659  0.2327  0.1166  0.2169
  472MOL0     C65017   2.491  -0.578   8.736  0.0233  0.3946 -1.9109
  472MOL0     C65018   2.413  -0.569   8.862 -0.0804  0.2455 -0.2708
  472MOL0     C65019   2.272  -0.506   8.843  0.1172  0.8641  0.3815
  472MOL0     C65020   2.172  -0.608   8.785 -0.0693 -0.1084  0.8710
  472MOL0     C65021   2.073  -0.550   8.700  0.1869 -0.4278  0.6221
  472MOL0     O65022   2.053  -0.635   8.590 -0.5358  0.1214 -0.2098
  472MOL0     C65023   1.977  -0.587   8.482 -0.1315  0.2602 -0.6984
  472MOL0     C65024   1.983  -0.670   8.377 -0.5183 -0.1397  0.7368
  472MOL0     C65025   1.910  -0.645   8.258  0.1439  0.6501  0.6391
  472MOL0     C65026   1.920  -0.756   8.149  0.0696  0.4092  0.0207
  472MOL0     C65027   1.847  -0.511   8.241  0.5314  1.1013  0.5299
  472MOL0     C65028   1.786  -0.463   8.109  0.4903 -1.6322 -0.5422
  472MOL0     O65029   1.674  -0.383   8.112  0.8790  0.8817  1.2201
  472MOL0     C65030   1.575  -0.385   8.009 -1.4833 -0.2108  0.6826
  472MOL0     C65031   1.535  -0.479   7.915 -0.2889 -0.4641 -0.9866
  472MOL0     C65032   1.411  -0.464   7.839  0.1164 -0.0139  0.6516
  472MOL0     C65033   1.334  -0.349   7.859 -0.2529 -0.1635  0.1135
  472MOL0     O65034   1.223  -0.332   7.782 -0.0715  0.4224 -0.4232
  472MOL0     C65035   1.123  -0.252   7.845 -0.1371  0.3039 -0.7747
  472MOL0     C65036   0.992  -0.292   7.784  0.0096 -0.9675 -0.3600
  472MOL0     C65037   0.937  -0.410   7.862  0.0121 -0.5494  0.4556
  472MOL0     C65038   0.808  -0.465   7.787 -0.3161 -0.1946  0.1167
  472MOL0     C65039   0.677  -0.380   7.773 -0.5231 -0.7207  0.0484
  472MOL0     C65040   0.629  -0.331   7.914  0.5814  0.4141  0.6288
  472MOL0     C65041   0.544  -0.208   7.910 -0.1971 -0.8562  0.0638
  472MOL0     C65042   0.518  -0.154   8.049 -0.1998 -0.2649  0.3403
  472MOL0    Cl65043   0.419  -0.252   8.146 -0.4690  0.2922  0.2996
  472MOL0     C65044   1.376  -0.256   7.959 -1.1024  0.3659  0.2405
  472MOL0     C65045   1.505  -0.269   8.025  0.3133 -0.1868  0.2098
  472MOL0     O65046   1.847  -0.505   8.007  0.2100 -0.1801  0.0145
  472MOL0     C65047   1.839  -0.430   8.356  1.1099 -0.8870 -0.2056
  472MOL0     C65048   1.901  -0.473   8.479  0.2027  0.6797  1.2878
  472MOL0     N65049   2.570  -0.472   8.693 -0.1967  1.1988 -0.7706
  472MOL0     N65050   2.623  -0.504   8.583  0.2052  0.5364 -0.3229
  472MOL0     C65051   1.923  -0.143   7.967  0.0791 -0.4478  1.5315
  472MOL0     C65052   1.851  -0.022   7.982 -0.3457  0.4326 -0.2768
  472MOL0     C65053   1.672   0.276   8.201 -0.8066 -0.1398  0.0239
  472MOL0     C65054   1.761   0.269   8.308  0.1398 -1.0572  0.4690
  472MOL0     C65055   1.719   0.305   8.438  0.9968  0.0246  0.2862
  472MOL0     C65056   1.590   0.355   8.454 -0.1381  0.0447 -0.3390
  472MOL0     O65057   1.556   0.415   8.570 -0.0199 -0.0173 -0.4710
  472MOL0     C65058   1.526   0.316   8.678 -0.0281  0.9537  0.1595
  472MOL0     C65059   1.420   0.367   8.770 -0.8145 -0.0839  0.5577
  472MOL0     C65060   1.296   0.420   8.696  0.1210 -0.0587  0.3705
  472MOL0     C65061   1.186   0.482   8.791  0.1280  0.2592 -0.8400
  472MOL0     C65062   1.055   0.472   8.728  0.4075 -1.0732  0.0228
  472MOL0     C65063   0.945   0.484   8.679  0.6889 -0.0175  0.4739
  472MOL0     C65064   1.501   0.371   8.346  0.4582  0.0554 -0.8292
  472MOL0     C65065   1.539   0.325   8.220  0.2504 -0.6130  0.0838
  472MOL0     C65066   1.432   0.347   8.111 -0.1786 -0.9203 -0.9751
  472MOL0     H65067   2.113   0.197   7.955  0.5985 -0.4160 -2.1038
  472MOL0     H65068   2.225  -0.003   7.917  0.8738 -1.5964  3.3396
  472MOL0     H65069   2.048  -0.399   7.950 -0.6157  1.8747 -2.0544
  472MOL0     H65070   2.141  -0.355   8.107  0.9304 -3.3821  0.2014
  472MOL0     H65071   2.262  -0.400   7.845 -0.0346 -0.3578 -1.2918
  472MOL0     H65072   2.347  -0.387   8.000  0.1322  1.8161 -1.4644
  472MOL0     H65073   2.160  -0.613   7.942  1.0325 -1.5362  1.1964
  472MOL0     H65074   2.339  -0.633   7.913 -1.0522 -0.2917 -1.4985
  472MOL0     H65075   2.334  -0.541   8.166  1.3126 -0.7880  0.4079
  472MOL0     H65076   2.169  -0.576   8.165 -0.0486  1.6883  0.8107
  472MOL0     H65077   2.280  -0.829   8.084  4.3281 -0.2237  0.2939
  472MOL0     H65078   2.234  -0.784   8.244 -1.2690 -1.1232 -1.3497
  472MOL0     H65079   2.457  -0.875   8.232 -0.9539  0.0426  0.2172
  472MOL0     H65080   2.513  -0.727   8.153  0.0974  0.9801 -0.1284
  472MOL0     H65081   2.372  -0.758   8.426  0.1139 -1.4518 -0.1473
  472MOL0     H65082   2.412  -0.600   8.365 -1.6120 -1.1885  1.4879
  472MOL0     H65083   2.622  -0.802   8.428 -2.0067 -0.4198 -3.1206
  472MOL0     H65084   2.651  -0.631   8.358  2.3673 -2.2780 -1.3544
  472MOL0     H65085   2.469  -0.789   8.663  0.7075 -0.0977 -0.4869
  472MOL0     H65086   2.466  -0.498   8.925 -1.8650  1.9268 -0.5735
  472MOL0     H65087   2.409  -0.663   8.918  0.2099 -0.7170 -1.7786
  472MOL0     H65088   2.248  -0.472   8.945  1.5735  1.5811  0.5068
  472MOL0     H65089   2.280  -0.421   8.775  2.1020  1.2637  1.0602
  472MOL0     H65090   2.233  -0.683   8.734 -2.5047 -0.7323 -1.3808
  472MOL0     H65091   2.118  -0.667   8.859  1.0616 -2.2295  0.0848
  472MOL0     H65092   1.978  -0.549   8.756 -0.1308 -0.2309  0.0795
  472MOL0     H65093   2.095  -0.448   8.670 -1.1328  0.8844  3.7031
  472MOL0     H65094   2.045  -0.759   8.381  2.4818  1.8511  3.1628
  472MOL0     H65095   1.821  -0.796   8.124  0.5442 -1.0102  0.3206
  472MOL0     H65096   1.978  -0.843   8.181 -0.7790 -0.8170 -1.5975
  472MOL0     H65097   1.963  -0.720   8.055 -1.5296  0.2136 -0.8197
  472MOL0     H65098   1.603  -0.560   7.892  1.0650  0.1015  0.8104
  472MOL0     H65099   1.392  -0.536   7.760  1.9616  0.2018 -0.0498
  472MOL0     H65100   1.122  -0.275   7.952  2.2995 -1.8516 -1.1262
  472MOL0     H65101   1.159  -0.149   7.832  1.4909 -0.4116 -2.5053
  472MOL0     H65102   0.917  -0.213   7.792 -1.9560 -2.8813  1.6121
  472MOL0     H65103   0.997  -0.308   7.676 -0.4158 -1.9386 -0.2464
  472MOL0     H65104   0.922  -0.373   7.964  0.5214  1.9669 -0.3158
  472MOL0     H65105   1.020  -0.481   7.860  0.8857  0.4618 -0.6800
  472MOL0     H65106   0.769  -0.556   7.833 -1.3593 -0.5187 -1.3651
  472MOL0     H65107   0.834  -0.492   7.685  0.6768 -0.3850  0.4153
  472MOL0     H65108   0.711  -0.287   7.726 -0.0550  1.1371  3.6281
  472MOL0     H65109   0.601  -0.432   7.716  1.0648 -0.8245 -2.0884
  472MOL0     H65110   0.715  -0.309   7.977  0.0780  0.4851  1.3054
  472MOL0     H65111   0.575  -0.411   7.965  3.2458 -0.9465  1.4732
  472MOL0     H65112   0.444  -0.211   7.865 -1.1154  3.5806  1.3086
  472MOL0     H65113   0.592  -0.135   7.844 -1.4938 -0.1339 -0.1207
  472MOL0     H65114   0.465  -0.060   8.035  1.0973  0.4333 -0.0134
  472MOL0     H65115   0.611  -0.125   8.100  0.0339 -0.1134 -0.1694
  472MOL0     H65116   1.313  -0.170   7.980 -5.0615 -2.5508  1.4133
  472MOL0     H65117   1.549  -0.191   8.087  0.0825 -1.6178  2.2509
  472MOL0     H65118   1.788  -0.335   8.359 -2.1075 -2.4509  3.0047
  472MOL0     H65119   1.874  -0.399   8.553 -1.6276  1.7599 -0.3525
  472MOL0     H65120   1.873  -0.239   7.961  2.2852 -1.5908 -0.9340
  472MOL0     H65121   1.747  -0.038   8.007 -0.0675  2.0725  2.2115
  472MOL0     H65122   1.866   0.244   8.296  0.2763  0.1718 -1.2225
  472MOL0     H65123   1.793   0.298   8.517  0.1504 -2.4446  0.9688
  472MOL0     H65124   1.505   0.218   8.633 -1.1931  1.2426  0.0348
  472MOL0     H65125   1.613   0.304   8.743 -2.2531  0.4221  3.2106
  472MOL0     H65126   1.463   0.458   8.815  1.8394  0.4808 -2.7209
  472MOL0     H65127   1.387   0.300   8.850 -5.6757  2.1803  0.8274
  472MOL0     H65128   1.321   0.492   8.618  2.0723 -0.3501  0.6802
  472MOL0     H65129   1.247   0.336   8.647  2.1869 -1.3928  0.5017
  472MOL0     H65130   1.202   0.590   8.806  1.6374  0.1486 -1.4700
  472MOL0     H65131   1.203   0.442   8.891 -0.1219  1.4622 -0.3007
  472MOL0     H65132   0.852   0.501   8.629  0.5089  2.9618  1.6317
  472MOL0     H65133   1.405   0.421   8.358  0.8255  0.4717  0.5385
  472MOL0     H65134   1.476   0.368   8.013 -0.0222  2.9698 -0.2344
  472MOL0     H65135   1.375   0.254   8.098 -3.5256  0.4634  2.2373
  472MOL0     H65136   1.360   0.428   8.127  0.2773 -0.3610 -1.6917
  473MOL0     O65137   0.080   0.558   1.914 -0.6973 -0.1393  0.2443
  473MOL0     C65138   0.187   0.512   1.869  1.0181  0.5336  0.6205
  473MOL0     O65139   0.215   0.512   1.737 -0.1314 -0.2415  0.2018
  473MOL0     C65140   0.122   0.548   1.645  1.1765 -0.4212  0.9823
  473MOL0     C65141  -0.014   0.543   1.654  0.7610 -0.1089 -0.0735
  473MOL0     C65142  -0.104   0.569   1.552 -0.8777 -0.6858 -0.5886
  473MOL0     C65143  -0.053   0.645   1.439  0.0378  0.7070 -0.2147
  473MOL0     O65144  -0.135   0.693   1.336 -0.4316 -0.2556 -0.8302
  473MOL0     C65145  -0.277   0.681   1.334 -0.0526 -0.4333 -0.5390
  473MOL0     C65146  -0.347   0.694   1.201 -0.0301  0.0612 -0.0516
  473MOL0     C65147  -0.336   0.839   1.161 -0.0986  0.2552 -0.0865
  473MOL0     C65148  -0.383   0.868   1.016 -0.2646  0.0782  0.6484
  473MOL0     C65149  -0.390   1.024   0.990  0.4237  0.0035 -0.4508
  473MOL0     C65150  -0.450   1.061   0.850 -0.6494  0.7220  0.1374
  473MOL0     C65151  -0.426   1.219   0.832  0.0109  0.2670 -0.4415
  473MOL0     C65152  -0.526   1.272   0.725 -0.5250  0.3115  0.2364
  473MOL0     N65153  -0.475   1.410   0.687 -0.3931  0.4209 -0.6508
  473MOL0     C65154  -0.421   1.440   0.568 -0.0273 -0.5526 -0.0881
  473MOL0     C65155  -0.419   1.572   0.569 -0.1500 -0.2280  0.4533
  473MOL0     C65156  -0.367   1.668   0.458 -0.5620 -0.2178 -0.3681
  473MOL0     C65157  -0.225   1.698   0.490  0.2797  0.4987  0.5668
  473MOL0     C65158  -0.193   1.775   0.608  0.2121 -0.1225  0.1890
  473MOL0     C65159  -0.213   1.928   0.590  0.6903  0.4432 -0.3066
  473MOL0     O65160  -0.159   1.985   0.475  0.0999 -0.0853  0.4182
  473MOL0     C65161  -0.024   2.038   0.491 -0.4983  0.4552  0.9882
  473MOL0     C65162   0.010   2.168   0.525  1.8857  0.9833  0.0892
  473MOL0     C65163   0.137   2.219   0.516  0.4815 -0.7909  0.3812
  473MOL0     C65164   0.157   2.367   0.546 -0.5343  0.1527  0.3990
  473MOL0     C65165   0.241   2.124   0.500 -0.2708  0.5032  0.6408
  473MOL0     C65166   0.381   2.171   0.483 -0.9127  0.4185  0.4571
  473MOL0     O65167   0.473   2.093   0.541 -0.7699  0.2112 -0.1810
  473MOL0     C65168   0.609   2.112   0.552 -0.1267 -0.4078 -0.1654
  473MOL0     C65169   0.677   2.023   0.637 -0.2995  0.2991 -0.2148
  473MOL0     C65170   0.813   2.028   0.646 -0.2867 -0.7280  0.1021
  473MOL0     C65171   0.888   2.125   0.594  0.1588 -0.5045  0.5667
  473MOL0     O65172   1.019   2.146   0.622  0.8466 -0.0234 -0.0167
  473MOL0     C65173   1.104   2.033   0.631 -0.8962 -0.5642  0.3847
  473MOL0     C65174   1.257   2.053   0.626 -0.5438  0.1927 -0.6808
  473MOL0     C65175   1.308   2.110   0.492 -0.1872 -0.0364  0.3315
  473MOL0     C65176   1.320   2.262   0.510  0.5456  0.2440  0.0422
  473MOL0     C65177   1.371   2.334   0.383  0.6272 -0.9606 -0.6934
  473MOL0     C65178   1.436   2.457   0.426 -0.1429 -0.1621  0.8077
  473MOL0     C65179   1.433   2.565   0.319  0.0048 -0.0328  0.1192
  473MOL0     C65180   1.485   2.699   0.367  0.0681  0.6038  0.9583
  473MOL0    Cl65181   1.546   2.787   0.223 -0.3202 -0.0203 -0.2753
  473MOL0     C65182   0.825   2.220   0.514 -0.7727  0.1489 -0.5069
  473MOL0     C65183   0.685   2.218   0.491 -0.4469 -0.2492 -0.6019
  473MOL0     O65184   0.408   2.262   0.410  0.2071 -0.4259  1.0869
  473MOL0     C65185   0.214   1.992   0.466  0.6232  0.6375  0.4732
  473MOL0     C65186   0.078   1.946   0.463 -0.0396 -0.4124  0.1664
  473MOL0     N65187  -0.495   1.616   0.683  0.5041  0.1112 -0.1673
  473MOL0     N65188  -0.524   1.515   0.763  0.5356 -0.2652  1.2299
  473MOL0     C65189   0.087   0.658   1.428  0.2468 -0.1940 -0.3185
  473MOL0     C65190   0.172   0.606   1.526  0.0844  0.2660  0.1232
  473MOL0     C65191   0.286   0.469   1.975 -0.3926 -1.0852  0.2181
  473MOL0     C65192   0.419   0.464   1.944 -0.7319  0.4025 -0.0320
  473MOL0     C65193   0.519   0.428   2.020  0.1117  0.2727 -0.3110
  473MOL0     C65194   0.496   0.422   2.156 -0.8341  0.6197 -0.0494
  473MOL0     O65195   0.607   0.409   2.233 -0.1746  0.4783 -0.1157
  473MOL0     C65196   0.610   0.439   2.375 -0.7047  0.4585  0.2241
  473MOL0     C65197   0.596   0.304   2.443 -0.4993 -1.0110  0.2455
  473MOL0     C65198   0.575   0.320   2.596 -0.4327 -0.6078 -0.1276
  473MOL0     C65199   0.429   0.313   2.629  0.6611  0.0850 -0.1710
  473MOL0     C65200   0.359   0.442   2.608  0.6819 -0.1394 -0.1947
  473MOL0     C65201   0.298   0.548   2.594 -0.2708  0.3565 -0.2058
  473MOL0     C65202   0.367   0.413   2.198 -0.1716  0.1229  0.9053
  473MOL0     C65203   0.258   0.444   2.111  0.1836 -0.5802  0.5771
  473MOL0     C65204   0.114   0.450   2.160  0.6412  0.6433 -0.0461
  473MOL0     H65205  -0.052   0.506   1.749 -0.8600  0.9783 -0.2622
  473MOL0     H65206  -0.211   0.550   1.558 -0.9625 -0.3431 -0.9727
  473MOL0     H65207  -0.310   0.755   1.407 -1.4015 -0.9603 -0.5741
  473MOL0     H65208  -0.306   0.582   1.371 -1.1929 -0.0295 -0.3013
  473MOL0     H65209  -0.291   0.643   1.122  2.5341 -2.1453  2.9207
  473MOL0     H65210  -0.450   0.657   1.206  0.1845 -0.3905  1.5471
  473MOL0     H65211  -0.404   0.896   1.226 -0.9961  0.4047 -1.1289
  473MOL0     H65212  -0.231   0.865   1.176  0.5016 -2.3117  0.7210
  473MOL0     H65213  -0.315   0.818   0.948 -1.6043 -2.0157  0.7402
  473MOL0     H65214  -0.484   0.826   1.013 -0.4459  0.5454  0.1955
  473MOL0     H65215  -0.291   1.068   1.000  0.1082  0.2852  2.3694
  473MOL0     H65216  -0.458   1.077   1.058 -0.7914 -0.6845 -1.0934
  473MOL0     H65217  -0.392   1.014   0.770  1.2535  0.6221  1.5120
  473MOL0     H65218  -0.556   1.038   0.836 -0.2875  0.8227 -3.7294
  473MOL0     H65219  -0.323   1.250   0.809 -0.6748  0.8406 -3.0935
  473MOL0     H65220  -0.460   1.263   0.926  0.9652 -3.5400  1.9113
  473MOL0     H65221  -0.523   1.214   0.633  0.4169 -1.7685  1.4893
  473MOL0     H65222  -0.632   1.280   0.750 -1.0848  0.3893 -1.9624
  473MOL0     H65223  -0.408   1.363   0.492 -0.0991 -0.2745 -0.3838
  473MOL0     H65224  -0.428   1.758   0.463  0.7933  0.7223 -0.2622
  473MOL0     H65225  -0.377   1.639   0.353 -3.2218  2.4602 -0.9897
  473MOL0     H65226  -0.180   1.599   0.495 -0.5762  0.1206  1.0290
  473MOL0     H65227  -0.173   1.744   0.405  2.0973 -0.3883  1.1468
  473MOL0     H65228  -0.249   1.735   0.693  1.1813 -0.4319  0.6938
  473MOL0     H65229  -0.085   1.763   0.623  0.7280 -0.6912 -3.1413
  473MOL0     H65230  -0.320   1.947   0.600  0.7875  0.4030  0.8818
  473MOL0     H65231  -0.163   1.977   0.674  1.1471  1.0326 -0.9133
  473MOL0     H65232  -0.073   2.236   0.541  1.5860  0.1251  2.4779
  473MOL0     H65233   0.247   2.368   0.608 -0.0113 -2.0837 -0.2179
  473MOL0     H65234   0.075   2.413   0.602  2.0832  4.1344  1.4532
  473MOL0     H65235   0.166   2.429   0.455 -0.3247  0.4950  0.6504
  473MOL0     H65236   0.628   1.932   0.672  2.1492 -1.0691 -0.1590
  473MOL0     H65237   0.857   1.938   0.689 -0.9877 -0.1981  2.0445
  473MOL0     H65238   1.085   1.998   0.733 -0.8080  0.5498  0.8014
  473MOL0     H65239   1.056   1.964   0.561 -4.2644  0.8218  1.1387
  473MOL0     H65240   1.302   2.105   0.711 -2.6735 -2.0279  2.0579
  473MOL0     H65241   1.302   1.953   0.626 -1.6400 -0.4061 -3.5260
  473MOL0     H65242   1.246   2.095   0.403 -0.7445 -0.4304  0.7806
  473MOL0     H65243   1.406   2.069   0.467 -0.7232  0.0391 -2.1111
  473MOL0     H65244   1.405   2.283   0.575  2.2216  0.6803 -2.1538
  473MOL0     H65245   1.237   2.306   0.567  1.2928 -0.4764  1.7563
  473MOL0     H65246   1.452   2.275   0.340 -0.3090 -1.5323 -1.7259
  473MOL0     H65247   1.290   2.356   0.313 -0.6722 -0.4570  0.9065
  473MOL0     H65248   1.541   2.443   0.454 -0.8931 -3.8522  2.3316
  473MOL0     H65249   1.388   2.504   0.513 -0.4264  0.8822  0.1085
  473MOL0     H65250   1.330   2.579   0.284 -0.3360  2.4596  1.8716
  473MOL0     H65251   1.483   2.529   0.228 -1.5949 -1.4257 -0.2679
  473MOL0     H65252   1.567   2.696   0.440  0.7255  2.2999  0.3223
  473MOL0     H65253   1.403   2.752   0.416 -1.2276  1.3271 -1.7897
  473MOL0     H65254   0.888   2.292   0.463 -0.8268  0.8942  0.4422
  473MOL0     H65255   0.639   2.297   0.433  0.2168  2.4041  2.2118
  473MOL0     H65256   0.282   1.912   0.438 -3.3683 -2.8941 -0.1806
  473MOL0     H65257   0.061   1.842   0.438 -0.1436 -0.5186  0.6690
  473MOL0     H65258   0.123   0.717   1.343  1.6280  0.1433  0.4740
  473MOL0     H65259   0.275   0.629   1.499  0.1893  0.9087  1.0237
  473MOL0     H65260   0.439   0.497   1.843  0.4213 -3.5187 -1.2869
  473MOL0     H65261   0.619   0.433   1.980  0.7269 -2.0779  0.7930
  473MOL0     H65262   0.708   0.482   2.398  0.0388 -2.2106  2.6099
  473MOL0     H65263   0.527   0.503   2.406 -2.4480 -1.1691 -0.8976
  473MOL0     H65264   0.684   0.239   2.434 -1.2119 -1.8745 -0.6799
  473MOL0     H65265   0.516   0.241   2.402 -0.5955  0.3496 -1.8537
  473MOL0     H65266   0.629   0.243   2.652  2.3557 -2.2323 -4.5597
  473MOL0     H65267   0.623   0.410   2.634  3.5495 -1.8005 -1.8752
  473MOL0     H65268   0.422   0.279   2.733 -2.0331  1.8259  0.3109
  473MOL0     H65269   0.374   0.247   2.561 -0.6037  0.5174  0.4034
  473MOL0     H65270   0.258   0.647   2.606 -1.5887 -0.4195  2.8696
  473MOL0     H65271   0.345   0.380   2.299 -1.3583 -2.1465 -0.0373
  473MOL0     H65272   0.106   0.426   2.266 -1.3479 -0.8859 -0.4867
  473MOL0     H65273   0.063   0.547   2.156 -2.4792 -0.6229  3.2446
  473MOL0     H65274   0.052   0.390   2.093  1.3808  3.0231 -3.1225
  474MOL0     O65275  10.556  10.947   1.143  0.2134  0.2639 -0.3691
  474MOL0     C65276  10.439  10.915   1.129  0.0732  0.0780  0.2092
  474MOL0     O65277  10.363  10.928   1.019  0.3529  0.2122 -0.2797
  474MOL0     C65278  10.420  10.981   0.902  0.5054 -0.0576 -0.4738
  474MOL0     C65279  10.329  10.977   0.793  0.2922 -0.2025  0.2966
  474MOL0     C65280  10.362  11.035   0.665  0.3533  0.7128  0.2547
  474MOL0     C65281  10.495  11.072   0.641  0.2989  0.1216 -0.0713
  474MOL0     O65282  10.534  11.129   0.524 -0.1129 -0.5167 -0.3758
  474MOL0     C65283  10.497  11.065   0.404 -0.1179 -0.1470  0.6041
  474MOL0     C65284  10.535  11.165   0.298 -0.0678 -0.3081 -0.3019
  474MOL0     C65285  10.682  11.199   0.291 -0.0352  0.3297 -0.1117
  474MOL0     C65286  10.685  11.337   0.230 -0.7989 -0.3117 -0.6047
  474MOL0     C65287  10.829  11.377   0.191  0.1697  1.0806 -1.4507
  474MOL0     C65288  10.839  11.505   0.117 -0.6697 -0.3349 -0.1754
  474MOL0     C65289  10.828  11.644   0.185  1.1046  0.1612  0.2917
  474MOL0     C65290  10.842  11.759   0.080  0.3584  0.1792 -0.0597
  474MOL0     N65291  10.868  11.884   0.144 -0.2413 -0.6534 -1.2113
  474MOL0     C65292  10.774  11.990   0.171 -0.8342  0.1611 -0.0100
  474MOL0     C65293  10.834  12.074   0.261  0.1994  0.5684  0.0370
  474MOL0     C65294  10.773  12.209   0.294 -0.3014 -0.0088  0.6409
  474MOL0     C65295  10.852  12.316   0.220 -0.4614 -1.1777  0.0637
  474MOL0     C65296  10.801  12.452   0.249 -0.2127  0.1669  0.4386
  474MOL0     C65297  10.667  12.489   0.173  0.1164  0.5792 -0.4836
  474MOL0     O65298  10.630  12.625   0.163  0.5992 -0.3323 -0.2111
  474MOL0     C65299  10.623  12.691   0.282 -0.0501 -0.7384  0.6936
  474MOL0     C65300  10.704  12.801   0.304  0.0220 -0.1057 -0.1176
  474MOL0     C65301  10.696  12.874   0.427 -0.3644  0.2343  1.5422
  474MOL0     C65302  10.779  13.000   0.436 -0.8240 -0.2029 -1.2738
  474MOL0     C65303  10.611  12.828   0.528 -0.5993  0.1726  0.5547
  474MOL0     C65304  10.600  12.901   0.654 -1.1878 -0.2064 -0.6044
  474MOL0     O65305  10.538  13.018   0.643  0.0241 -0.3104 -0.1381
  474MOL0     C65306  10.587  13.122   0.716 -0.2951 -0.1156 -0.2158
  474MOL0     C65307  10.490  13.217   0.739  0.6668 -0.6518 -1.4667
  474MOL0     C65308  10.508  13.338   0.809  0.3921 -0.1533  0.8657
  474MOL0     C65309  10.630  13.352   0.874 -0.1438 -0.4063  0.1881
  474MOL0     O65310  10.675  13.461   0.948  0.8479 -0.3481  0.7879
  474MOL0     C65311  10.580  13.520   1.035 -0.2587 -0.1247  0.8889
  474MOL0     C65312  10.651  13.555   1.163 -0.1207 -0.2642 -0.3131
  474MOL0     C65313  10.782  13.640   1.151 -0.2571 -0.9948 -0.1323
  474MOL0     C65314  10.849  13.670   1.290  0.5758 -0.1564 -0.6057
  474MOL0     C65315  10.978  13.746   1.262  0.5546  1.1748 -0.2697
  474MOL0     C65316  10.957  13.900   1.219 -0.9054 -0.2946  0.2137
  474MOL0     C65317  11.078  13.989   1.196 -0.1704 -0.1700  0.4889
  474MOL0     C65318  11.109  14.019   1.050  0.4892  0.5413 -1.0053
  474MOL0    Cl65319  11.235  14.149   1.036 -0.0701 -0.2429  0.3837
  474MOL0     C65320  10.727  13.258   0.857  0.2465  0.5807  0.0666
  474MOL0     C65321  10.710  13.149   0.774  0.2767 -0.0233  0.3839
  474MOL0     O65322  10.651  12.854   0.757 -0.6061  0.8167 -0.6556
  474MOL0     C65323  10.537  12.713   0.507  0.2086  0.2799  0.1867
  474MOL0     C65324  10.548  12.636   0.392  0.6754 -0.2746  0.4554
  474MOL0     N65325  10.962  12.032   0.281 -0.3067  0.0445  0.1581
  474MOL0     N65326  10.981  11.926   0.218  0.1816 -0.2026  1.3162
  474MOL0     C65327  10.588  11.062   0.743  0.7638  0.5352 -0.1389
  474MOL0     C65328  10.551  11.027   0.868  0.0056  0.0845 -0.2848
  474MOL0     C65329  10.367  10.870   1.253 -1.0641  0.0822 -0.3309
  474MOL0     C65330  10.288  10.757   1.236 -0.1984  0.0738 -0.3566
  474MOL0     C65331  10.224  10.704   1.353 -0.2097  1.4263  0.1545
  474MOL0     C65332  10.243  10.750   1.479 -0.5530  0.1837  1.2367
  474MOL0     O65333  10.181  10.689   1.582 -0.2620  1.0066 -0.2773
  474MOL0     C65334  10.117  10.782   1.681  0.0208 -0.5972 -0.4726
  474MOL0     C65335  10.039  10.905   1.630 -0.1898  0.4862  1.0998
  474MOL0     C65336   9.925  10.873   1.531  0.6299 -0.3887 -0.5346
  474MOL0     C65337   9.897  10.984   1.419 -0.0203 -0.0893  0.2766
  474MOL0     C65338  10.001  10.992   1.314  1.0584 -0.1620  0.2177
  474MOL0     C65339  10.065  11.008   1.214  0.1482 -0.5329  0.3452
  474MOL0     C65340  10.340  10.853   1.496 -0.4209 -0.9005  0.0784
  474MOL0     C65341  10.404  10.915   1.394  0.0877 -0.2775  0.6461
  474MOL0     C65342  10.506  11.021   1.427  0.1522 -0.1930 -0.8284
  474MOL0     H65343  10.225  10.951   0.811 -0.1832  0.2650 -1.6082
  474MOL0     H65344  10.286  11.052   0.590 -0.8416 -1.5540  0.8736
  474MOL0     H65345  10.390  11.045   0.403  0.1316 -1.6615  0.8920
  474MOL0     H65346  10.548  10.969   0.390 -0.4381 -0.0150 -1.7882
  474MOL0     H65347  10.491  11.132   0.203  0.8376 -2.4942 -0.0122
  474MOL0     H65348  10.487  11.261   0.321  0.1434  0.0060 -1.1189
  474MOL0     H65349  10.734  11.194   0.388 -0.1876 -0.2047 -0.0576
  474MOL0     H65350  10.732  11.126   0.227 -1.6993 -1.8077  0.9124
  474MOL0     H65351  10.617  11.339   0.144 -2.6535 -1.4523  0.7772
  474MOL0     H65352  10.650  11.411   0.302 -4.4794 -0.6221 -1.8666
  474MOL0     H65353  10.859  11.304   0.115  0.1548 -1.6413  0.9696
  474MOL0     H65354  10.908  11.359   0.265  2.9211 -0.3204 -4.4450
  474MOL0     H65355  10.944  11.496   0.085  0.1880  1.3802  1.8973
  474MOL0     H65356  10.782  11.498   0.024  0.7720  2.0137 -1.3282
  474MOL0     H65357  10.915  11.648   0.251  1.9796 -4.1693 -0.2985
  474MOL0     H65358  10.736  11.640   0.244  1.4922 -0.7279  0.8622
  474MOL0     H65359  10.931  11.733   0.021  0.1966  0.1420 -0.2913
  474MOL0     H65360  10.759  11.764   0.009  0.3259  0.1388 -0.0241
  474MOL0     H65361  10.671  11.992   0.138  0.5279  1.3633 -4.9844
  474MOL0     H65362  10.786  12.240   0.398 -3.2092  1.8517  0.5648
  474MOL0     H65363  10.667  12.206   0.264  0.6174 -1.0038 -3.0110
  474MOL0     H65364  10.958  12.300   0.245  0.5012 -0.6154 -3.1952
  474MOL0     H65365  10.847  12.298   0.112 -1.9373 -0.0238 -0.0875
  474MOL0     H65366  10.797  12.481   0.354 -3.1874  0.7172  0.2796
  474MOL0     H65367  10.870  12.519   0.197 -3.2692  4.1129  0.9836
  474MOL0     H65368  10.687  12.460   0.069 -0.8739 -0.8889 -0.2957
  474MOL0     H65369  10.584  12.428   0.210  0.2289  0.3207 -0.6542
  474MOL0     H65370  10.780  12.836   0.235  0.9531 -1.7134  0.0508
  474MOL0     H65371  10.799  13.025   0.540 -2.5256 -0.7932 -0.7541
  474MOL0     H65372  10.732  13.091   0.398  0.4925  1.4989  0.9414
  474MOL0     H65373  10.881  12.995   0.397  1.2182  2.1431  3.0542
  474MOL0     H65374  10.390  13.200   0.703  0.9692 -1.9669 -1.7199
  474MOL0     H65375  10.422  13.404   0.805  0.0650 -0.5813  0.8534
  474MOL0     H65376  10.556  13.598   0.963 -0.3301 -1.0830 -0.1493
  474MOL0     H65377  10.505  13.443   1.057  0.7780 -1.6419 -0.5729
  474MOL0     H65378  10.584  13.613   1.228 -0.9537 -2.2601  0.6976
  474MOL0     H65379  10.674  13.458   1.209  0.7313 -0.4179 -1.0303
  474MOL0     H65380  10.738  13.734   1.118 -0.0311 -0.7857  0.1585
  474MOL0     H65381  10.857  13.612   1.076  1.1044  2.4416 -0.2491
  474MOL0     H65382  10.888  13.576   1.328  4.6098  1.3347 -0.5526
  474MOL0     H65383  10.789  13.728   1.361  1.3688  1.2776 -1.0443
  474MOL0     H65384  11.029  13.748   1.358 -2.2806  0.0834  1.3947
  474MOL0     H65385  11.042  13.695   1.190  0.6969  0.0649  0.6063
  474MOL0     H65386  10.897  13.948   1.297  0.7569  2.2297  0.0512
  474MOL0     H65387  10.896  13.886   1.129 -1.2161 -0.9368  0.5201
  474MOL0     H65388  11.168  13.953   1.248 -0.5441 -0.4901  0.9269
  474MOL0     H65389  11.048  14.085   1.239 -1.8787 -0.2685 -0.4263
  474MOL0     H65390  11.015  14.049   1.004  1.2292 -1.0592 -3.7833
  474MOL0     H65391  11.144  13.931   0.995 -2.0086 -0.7039 -0.7420
  474MOL0     H65392  10.825  13.258   0.905  0.0081 -0.9422  0.6197
  474MOL0     H65393  10.771  13.060   0.770 -0.1746 -0.4544  2.1453
  474MOL0     H65394  10.464  12.674   0.578 -1.4694 -2.0041 -2.5836
  474MOL0     H65395  10.477  12.555   0.384 -2.9048  2.3029  2.8457
  474MOL0     H65396  10.689  11.097   0.724  2.3062 -2.1207  2.4360
  474MOL0     H65397  10.636  11.041   0.934  0.7703  4.6284 -1.8850
  474MOL0     H65398  10.262  10.714   1.140  1.0441  1.1354 -1.2087
  474MOL0     H65399  10.148  10.628   1.341  1.1873  0.0262 -0.0185
  474MOL0     H65400  10.046  10.725   1.742 -1.0344  0.5626 -0.5672
  474MOL0     H65401  10.195  10.822   1.745 -0.6570 -2.0506  1.3575
  474MOL0     H65402  10.106  10.975   1.579  0.4397  0.4047  1.8033
  474MOL0     H65403   9.995  10.968   1.707 -5.0226 -0.2308 -0.6979
  474MOL0     H65404   9.943  10.781   1.475 -1.4617  0.1611 -2.2852
  474MOL0     H65405   9.835  10.863   1.593  1.1098  2.3309  0.7749
  474MOL0     H65406   9.893  11.086   1.458 -0.9236  0.8740 -2.1512
  474MOL0     H65407   9.808  10.962   1.359  0.4500  2.6992 -1.6341
  474MOL0     H65408  10.114  11.013   1.119 -0.2750 -1.8445  0.0370
  474MOL0     H65409  10.355  10.889   1.598  3.4504  3.3771 -1.6127
  474MOL0     H65410  10.602  11.024   1.375  0.0683  4.9425 -1.1681
  474MOL0     H65411  10.458  11.118   1.411 -1.3939 -0.7408  0.1741
  474MOL0     H65412  10.531  11.020   1.534  3.6382  0.2435 -1.5425
  475MOL0     O65413   4.617   1.763   6.948 -0.0900 -0.4638  0.8474
  475MOL0     C65414   4.633   1.639   6.973  1.0423 -0.9720  0.4002
  475MOL0     O65415   4.708   1.558   6.902  0.5283 -0.1835  0.1117
  475MOL0     C65416   4.816   1.606   6.835 -0.0896 -0.0044 -0.7994
  475MOL0     C65417   4.821   1.717   6.746  0.9989  0.0628 -0.3445
  475MOL0     C65418   4.941   1.747   6.670 -0.3164  0.4015 -0.6133
  475MOL0     C65419   5.050   1.657   6.676  0.3379 -0.3076  0.0348
  475MOL0     O65420   5.177   1.678   6.628  0.7725 -0.5677  0.1548
  475MOL0     C65421   5.208   1.813   6.597 -0.2216 -0.1381  0.7729
  475MOL0     C65422   5.357   1.814   6.549  0.4902  0.2018 -0.1276
  475MOL0     C65423   5.464   1.787   6.659  1.0081 -0.0451 -1.2268
  475MOL0     C65424   5.590   1.741   6.583  0.2674  0.6251  0.1019
  475MOL0     C65425   5.693   1.676   6.680  0.1892  0.1784 -0.3502
  475MOL0     C65426   5.742   1.767   6.792  0.3102  0.8002 -0.1187
  475MOL0     C65427   5.825   1.884   6.727 -0.3659 -0.2261 -0.1401
  475MOL0     C65428   5.861   1.994   6.829  0.6173  0.1822 -0.8691
  475MOL0     N65429   5.739   2.073   6.873  0.3441 -0.4176 -0.7156
  475MOL0     C65430   5.649   2.143   6.797  0.2254  0.4846 -0.2947
  475MOL0     C65431   5.553   2.178   6.890 -0.0893  0.4980 -0.1250
  475MOL0     C65432   5.431   2.257   6.842  0.1843 -0.4028  0.0466
  475MOL0     C65433   5.299   2.235   6.933 -0.4374 -0.7363  0.7629
  475MOL0     C65434   5.182   2.279   6.844  0.9190  1.2017 -0.4755
  475MOL0     C65435   5.143   2.153   6.762 -0.6480 -0.5597 -0.5752
  475MOL0     O65436   5.072   2.202   6.651  0.3281  0.4366  0.6736
  475MOL0     C65437   4.952   2.146   6.612 -0.3427 -0.3217  0.8642
  475MOL0     C65438   4.838   2.163   6.689 -1.2855  0.0288 -0.0507
  475MOL0     C65439   4.711   2.111   6.654  0.2578 -0.3406  0.2538
  475MOL0     C65440   4.598   2.147   6.749 -0.1857  0.1911 -0.3317
  475MOL0     C65441   4.698   2.052   6.525 -0.0912  0.0217 -0.3521
  475MOL0     C65442   4.568   1.998   6.469 -0.7616  0.1340 -1.1424
  475MOL0     O65443   4.553   2.003   6.338  0.6795 -0.3689 -0.4265
  475MOL0     C65444   4.459   1.923   6.276 -0.0708  0.0980  0.2705
  475MOL0     C65445   4.319   1.916   6.312  0.1012 -1.0199 -0.6020
  475MOL0     C65446   4.220   1.838   6.239 -0.4337  0.4635  0.5072
  475MOL0     C65447   4.258   1.770   6.123  0.1501  0.7693 -0.5471
  475MOL0     O65448   4.168   1.700   6.048  0.3472 -1.0122 -0.1101
  475MOL0     C65449   4.032   1.750   6.037 -0.0143 -0.6118  0.1356
  475MOL0     C65450   3.991   1.740   5.888 -0.3704  0.0853 -0.1847
  475MOL0     C65451   3.980   1.589   5.842  0.4767 -0.6976 -0.5866
  475MOL0     C65452   3.942   1.571   5.694  1.3631 -0.1589  0.2762
  475MOL0     C65453   3.901   1.424   5.682  0.3140 -0.0557 -0.4481
  475MOL0     C65454   3.854   1.397   5.541  0.7413  0.4762 -0.1971
  475MOL0     C65455   3.817   1.251   5.536 -0.0100  0.3429 -0.1963
  475MOL0     C65456   3.727   1.200   5.414 -0.6428 -0.2869  0.1215
  475MOL0    Cl65457   3.837   1.185   5.280 -0.2359 -0.0064  0.6702
  475MOL0     C65458   4.392   1.777   6.084 -0.1033 -0.1730  0.0200
  475MOL0     C65459   4.484   1.854   6.162 -0.6490 -0.0900 -0.5090
  475MOL0     O65460   4.490   1.954   6.551  0.9558 -0.5597  0.2260
  475MOL0     C65461   4.816   2.036   6.443 -0.1104  0.1573 -0.6493
  475MOL0     C65462   4.940   2.082   6.483  0.5567  1.1633  0.9473
  475MOL0     N65463   5.584   2.134   7.020  0.1910 -0.5295  0.8022
  475MOL0     N65464   5.690   2.067   7.003 -0.2520  0.5209 -1.1364
  475MOL0     C65465   5.035   1.541   6.755  0.5026 -0.7161 -0.0920
  475MOL0     C65466   4.923   1.518   6.832 -0.0062 -0.5108 -0.1914
  475MOL0     C65467   4.585   1.583   7.101  0.9487 -0.4224  0.4818
  475MOL0     C65468   4.630   1.454   7.134 -0.2965 -0.3296  0.7457
  475MOL0     C65469   4.586   1.401   7.253 -0.5318  0.0416 -0.4773
  475MOL0     C65470   4.495   1.462   7.331  0.1874 -0.7816  0.5147
  475MOL0     O65471   4.431   1.402   7.445 -0.6684 -0.7644  0.4042
  475MOL0     C65472   4.511   1.297   7.512  0.1426 -0.0322  0.0100
  475MOL0     C65473   4.455   1.264   7.652 -0.2810  0.6559  0.6504
  475MOL0     C65474   4.312   1.210   7.641  0.1992 -0.4154  1.4738
  475MOL0     C65475   4.280   1.140   7.778 -0.5309 -0.6650  0.3773
  475MOL0     C65476   4.267   1.219   7.898  0.0510 -0.8637  0.2322
  475MOL0     C65477   4.257   1.298   7.984  0.5774  0.3367 -0.4934
  475MOL0     C65478   4.440   1.583   7.302 -0.0492  0.0710  0.2371
  475MOL0     C65479   4.488   1.644   7.187  0.1002  0.7137 -0.1991
  475MOL0     C65480   4.421   1.776   7.152  0.0583  0.0117  0.3494
  475MOL0     H65481   4.739   1.785   6.724  1.9379  0.4935 -2.8481
  475MOL0     H65482   4.959   1.846   6.628  1.2248  3.4947  5.9687
  475MOL0     H65483   5.184   1.885   6.675  0.0463 -1.4252  2.0926
  475MOL0     H65484   5.135   1.847   6.523  1.3694  0.6904 -0.4840
  475MOL0     H65485   5.371   1.751   6.461  1.5551  2.0972 -1.3795
  475MOL0     H65486   5.367   1.918   6.517 -1.7511  1.3237  2.3755
  475MOL0     H65487   5.490   1.875   6.719  1.0365  0.8560 -2.5024
  475MOL0     H65488   5.426   1.710   6.727  4.3896 -1.2186 -0.5049
  475MOL0     H65489   5.560   1.672   6.503 -0.4571  1.4904 -0.3926
  475MOL0     H65490   5.627   1.829   6.531 -0.7238  1.0510  0.0884
  475MOL0     H65491   5.779   1.640   6.623  0.4500 -2.1886  1.3881
  475MOL0     H65492   5.638   1.591   6.721 -5.3089  1.9143 -3.1535
  475MOL0     H65493   5.658   1.806   6.849 -3.2402 -0.7044 -3.8694
  475MOL0     H65494   5.798   1.713   6.870 -1.8853  0.3527  1.2270
  475MOL0     H65495   5.772   1.934   6.646 -1.3887 -1.0354  0.0090
  475MOL0     H65496   5.915   1.851   6.674 -1.3386  1.4991 -3.1227
  475MOL0     H65497   5.891   1.935   6.916 -3.5093 -1.7852 -0.5406
  475MOL0     H65498   5.935   2.063   6.788  0.7821  0.0698 -0.7617
  475MOL0     H65499   5.665   2.181   6.697  0.0850 -1.3258 -1.0425
  475MOL0     H65500   5.420   2.247   6.734  0.7306  2.0439 -0.3108
  475MOL0     H65501   5.472   2.358   6.856  1.2126 -0.7454 -0.3928
  475MOL0     H65502   5.281   2.130   6.962  1.0047 -1.4955 -0.9452
  475MOL0     H65503   5.300   2.303   7.019 -1.3034  0.0502  0.1727
  475MOL0     H65504   5.097   2.323   6.897  0.7180  1.4298 -0.9836
  475MOL0     H65505   5.215   2.347   6.765  1.4504 -0.0035 -1.3283
  475MOL0     H65506   5.229   2.101   6.718  0.2701  0.3041  0.1507
  475MOL0     H65507   5.074   2.088   6.817  2.9944 -1.0499  4.0120
  475MOL0     H65508   4.854   2.216   6.782  1.1503  0.4083 -0.6170
  475MOL0     H65509   4.506   2.088   6.753 -0.4034  0.4690  3.8351
  475MOL0     H65510   4.557   2.248   6.744  1.0679  0.6521 -3.1615
  475MOL0     H65511   4.642   2.131   6.848 -0.6412  0.1750 -0.1280
  475MOL0     H65512   4.298   1.986   6.393 -0.4037 -0.5142 -1.1587
  475MOL0     H65513   4.123   1.818   6.282  0.2507 -0.4513  1.6710
  475MOL0     H65514   3.963   1.689   6.096  0.8970 -2.0674 -0.2555
  475MOL0     H65515   4.006   1.852   6.066 -3.4911 -1.0273 -1.0472
  475MOL0     H65516   3.897   1.791   5.864  1.4262  1.5051 -5.5368
  475MOL0     H65517   4.072   1.798   5.842 -1.8096  2.9721  0.6770
  475MOL0     H65518   3.900   1.544   5.901  1.6778 -0.7658  1.0473
  475MOL0     H65519   4.070   1.529   5.859  0.1741 -0.4386  2.3600
  475MOL0     H65520   4.016   1.605   5.621  1.1656  0.1161  0.2014
  475MOL0     H65521   3.863   1.646   5.683  1.9380  0.3795 -0.2760
  475MOL0     H65522   3.976   1.349   5.709  2.2502  1.4301 -1.4407
  475MOL0     H65523   3.821   1.398   5.752 -1.2964 -0.7800 -2.4522
  475MOL0     H65524   3.935   1.399   5.468 -0.0783  0.1197 -1.1359
  475MOL0     H65525   3.762   1.448   5.511 -0.5153 -1.2605  0.4797
  475MOL0     H65526   3.752   1.236   5.623 -2.0255  0.6926 -1.5772
  475MOL0     H65527   3.910   1.195   5.541 -1.0503 -1.7523 -2.3807
  475MOL0     H65528   3.643   1.269   5.394 -1.7559 -1.4368  0.7043
  475MOL0     H65529   3.682   1.103   5.436  0.4083 -0.7285  0.3499
  475MOL0     H65530   4.435   1.722   6.001  0.0102 -0.5488  0.3286
  475MOL0     H65531   4.590   1.854   6.138 -0.3366  0.6165  0.7722
  475MOL0     H65532   4.792   1.979   6.353 -0.2107  0.1131 -0.5944
  475MOL0     H65533   5.020   2.071   6.410 -0.0492 -2.2621  0.6436
  475MOL0     H65534   5.117   1.471   6.744  0.4830 -0.6322 -0.8751
  475MOL0     H65535   4.910   1.432   6.896 -0.6407  0.9181  1.6980
  475MOL0     H65536   4.692   1.401   7.063 -0.9706 -0.9152  0.5802
  475MOL0     H65537   4.610   1.298   7.279 -2.1785  0.0061  1.0715
  475MOL0     H65538   4.513   1.204   7.454  0.5862  0.5572 -0.9315
  475MOL0     H65539   4.615   1.328   7.519  0.7217 -2.0705  1.2907
  475MOL0     H65540   4.461   1.355   7.713  0.3983 -0.2378  1.9632
  475MOL0     H65541   4.520   1.198   7.711 -1.5064 -0.1629  1.1350
  475MOL0     H65542   4.250   1.300   7.641  0.3341 -0.3043  0.1453
  475MOL0     H65543   4.294   1.141   7.558  2.4397 -1.3407  1.6826
  475MOL0     H65544   4.357   1.065   7.798 -1.1766 -1.5673 -0.4044
  475MOL0     H65545   4.186   1.083   7.775 -1.2209  0.4208  0.7780
  475MOL0     H65546   4.258   1.373   8.060 -3.1508 -1.3293  1.4680
  475MOL0     H65547   4.354   1.619   7.359 -0.2055  1.0459 -0.5852
  475MOL0     H65548   4.338   1.799   7.219 -0.4257  0.7402 -0.4913
  475MOL0     H65549   4.484   1.865   7.156 -0.1478  0.1922 -0.3753
  475MOL0     H65550   4.383   1.758   7.051  0.0141 -0.4759  0.4511
  476MOL0     O65551   3.993   7.605   9.928  0.3970 -0.3218 -0.2076
  476MOL0     C65552   3.881   7.648   9.912 -0.1361  0.8199  1.0241
  476MOL0     O65553   3.850   7.776   9.927  0.3051 -0.5524  0.1581
  476MOL0     C65554   3.940   7.882   9.924  0.0308 -0.0311 -0.3516
  476MOL0     C65555   3.902   8.007   9.889  0.5406  0.9313 -0.1856
  476MOL0     C65556   3.989   8.112   9.893  0.5671 -0.6660  0.2755
  476MOL0     C65557   4.120   8.096   9.936  0.1798 -0.4305 -0.7981
  476MOL0     O65558   4.208   8.204   9.956 -0.1471 -0.4835 -0.3783
  476MOL0     C65559   4.191   8.313   9.864 -0.0859 -0.1948  0.6321
  476MOL0     C65560   4.317   8.398   9.873  0.9805  0.2597 -0.3987
  476MOL0     C65561   4.435   8.344   9.788 -0.4871 -0.1050 -0.6658
  476MOL0     C65562   4.557   8.432   9.754  0.1231 -1.1470  0.0668
  476MOL0     C65563   4.673   8.351   9.700 -0.5137 -0.0363 -0.4494
  476MOL0     C65564   4.660   8.319   9.551  0.4557  0.5505 -0.2233
  476MOL0     C65565   4.795   8.274   9.489 -0.4740 -0.1042 -0.3187
  476MOL0     C65566   4.866   8.161   9.573  0.6051  0.2830  0.9029
  476MOL0     N65567   4.784   8.043   9.551  0.0329  0.7512 -0.4104
  476MOL0     C65568   4.735   7.963   9.660  0.4723 -0.0435  0.6619
  476MOL0     C65569   4.705   7.839   9.597  1.0102  0.5210  0.0571
  476MOL0     C65570   4.650   7.718   9.653 -0.4387 -0.5312 -0.8882
  476MOL0     C65571   4.496   7.706   9.636 -0.3611  1.0309 -0.0744
  476MOL0     C65572   4.421   7.832   9.680 -0.3747  0.0131 -0.6105
  476MOL0     C65573   4.275   7.827   9.630  0.3628  0.2914  0.4431
  476MOL0     O65574   4.273   7.878   9.492 -0.1031 -0.6060 -0.4024
  476MOL0     C65575   4.261   7.791   9.381  0.5407 -0.5293 -0.5416
  476MOL0     C65576   4.334   7.809   9.261  0.2665  0.2373 -0.3803
  476MOL0     C65577   4.341   7.714   9.155 -1.3432  0.5149 -0.7428
  476MOL0     C65578   4.426   7.750   9.035 -0.4566 -0.1636 -0.0015
  476MOL0     C65579   4.253   7.601   9.167  0.2111  0.3416 -0.8323
  476MOL0     C65580   4.228   7.501   9.062 -0.1319 -0.2546 -0.3910
  476MOL0     O65581   4.287   7.521   8.944  0.0821  0.4168  0.1047
  476MOL0     C65582   4.267   7.416   8.844  0.1276 -0.4134  0.0023
  476MOL0     C65583   4.214   7.456   8.724  0.7378  0.4688 -0.2131
  476MOL0     C65584   4.204   7.356   8.626 -0.9398 -0.1418  0.4535
  476MOL0     C65585   4.223   7.221   8.646 -0.3874 -0.0333  0.1634
  476MOL0     O65586   4.205   7.125   8.548  0.2790  0.0005 -0.1940
  476MOL0     C65587   4.068   7.135   8.496 -0.2016  1.2807 -0.0505
  476MOL0     C65588   4.063   7.083   8.348 -0.7645 -0.0734 -0.2044
  476MOL0     C65589   4.173   7.138   8.263 -0.4383 -0.4938  0.3632
  476MOL0     C65590   4.164   7.099   8.118  0.8564 -0.2231 -1.0485
  476MOL0     C65591   4.301   7.116   8.056  0.1304  0.6327 -0.1710
  476MOL0     C65592   4.308   7.084   7.910  0.4166  0.0514  0.6993
  476MOL0     C65593   4.428   7.150   7.842  1.1310 -0.3556  0.5919
  476MOL0     C65594   4.467   7.113   7.697 -0.3718  1.0422 -0.4290
  476MOL0    Cl65595   4.431   6.946   7.660  0.3239  0.1896  0.3117
  476MOL0     C65596   4.288   7.184   8.761  0.1159 -0.0051  0.6408
  476MOL0     C65597   4.305   7.282   8.860 -1.5362 -0.2599 -0.3334
  476MOL0     O65598   4.143   7.408   9.081  0.1121  0.1427  0.5041
  476MOL0     C65599   4.179   7.589   9.285  0.1227  0.0424 -0.4797
  476MOL0     C65600   4.194   7.669   9.390  0.3567 -0.8017 -0.1588
  476MOL0     N65601   4.726   7.857   9.463 -1.0417  0.6207  0.9246
  476MOL0     N65602   4.759   7.973   9.436 -0.9157 -0.3103 -0.2156
  476MOL0     C65603   4.153   7.971   9.987 -0.5434  0.2371  0.1724
  476MOL0     C65604   4.067   7.869   9.975  0.6038  0.2617 -0.3193
  476MOL0     C65605   3.766   7.551   9.886 -0.5276  0.2301  0.2926
  476MOL0     C65606   3.670   7.589   9.789 -0.0862  0.2700  0.1449
  476MOL0     C65607   3.574   7.505   9.755 -0.3340 -0.4039  0.3634
  476MOL0     C65608   3.550   7.375   9.817  1.2747 -0.6427 -0.4480
  476MOL0     O65609   3.440   7.294   9.788  0.0132  0.2936  0.0500
  476MOL0     C65610   3.359   7.329   9.675  0.5026 -0.1010  0.8269
  476MOL0     C65611   3.228   7.255   9.666 -0.0234  0.9630 -0.2636
  476MOL0     C65612   3.130   7.305   9.778 -0.4789 -0.5288  1.0622
  476MOL0     C65613   3.017   7.212   9.808 -0.0208 -0.0275 -0.0682
  476MOL0     C65614   2.914   7.272   9.905 -0.2371 -0.0796  0.0072
  476MOL0     C65615   2.837   7.325   9.986 -0.1336 -0.4667 -0.0819
  476MOL0     C65616   3.636   7.349   9.935 -0.6265 -0.3020 -0.5876
  476MOL0     C65617   3.750   7.433   9.960  0.3360  0.4284  0.2429
  476MOL0     C65618   3.849   7.379  10.067  0.1736 -0.1249  0.5071
  476MOL0     H65619   3.801   8.020   9.853  0.1494 -2.2421 -0.4943
  476MOL0     H65620   3.942   8.206   9.864 -1.9253 -1.2619  2.0184
  476MOL0     H65621   4.103   8.369   9.899  1.0366  0.7088  2.1265
  476MOL0     H65622   4.177   8.286   9.759  2.3413  1.8397 -0.3316
  476MOL0     H65623   4.287   8.492   9.825  2.5298  1.1627  0.3022
  476MOL0     H65624   4.350   8.424   9.974  0.0230  1.8277 -0.4457
  476MOL0     H65625   4.484   8.261   9.840  1.7143  3.1756  3.1799
  476MOL0     H65626   4.391   8.314   9.693  2.8997 -1.5677 -1.9177
  476MOL0     H65627   4.528   8.520   9.696  4.7170  2.1235  2.1507
  476MOL0     H65628   4.583   8.474   9.852 -0.8385  0.6867 -0.4088
  476MOL0     H65629   4.687   8.262   9.762 -4.4482 -0.8886 -0.5316
  476MOL0     H65630   4.770   8.398   9.715  0.0696 -1.0563 -0.8847
  476MOL0     H65631   4.587   8.238   9.548  1.5276 -0.7259  3.3133
  476MOL0     H65632   4.629   8.412   9.503 -0.6777  0.7660  0.8666
  476MOL0     H65633   4.856   8.364   9.475 -3.1509  1.6029 -2.0998
  476MOL0     H65634   4.777   8.240   9.387  1.8235  1.4262 -1.3198
  476MOL0     H65635   4.966   8.128   9.544 -0.2944 -1.3963 -0.4961
  476MOL0     H65636   4.881   8.186   9.678  1.1037 -0.5561  1.0353
  476MOL0     H65637   4.722   7.996   9.762  2.2801  0.4329  0.7672
  476MOL0     H65638   4.679   7.715   9.759 -1.3902  1.0144 -0.5445
  476MOL0     H65639   4.702   7.629   9.618 -0.7830 -1.4679  0.8540
  476MOL0     H65640   4.475   7.689   9.530  0.4251  3.0842 -0.6013
  476MOL0     H65641   4.470   7.620   9.698  2.9262  0.8576  1.2672
  476MOL0     H65642   4.428   7.845   9.788  1.2886 -3.6397 -0.1267
  476MOL0     H65643   4.464   7.921   9.634  0.3044 -0.5363 -1.0811
  476MOL0     H65644   4.230   7.730   9.652  4.1642 -1.5731  0.6984
  476MOL0     H65645   4.222   7.893   9.700  0.5519  1.2530 -0.2950
  476MOL0     H65646   4.388   7.903   9.251 -0.7356  1.0446  1.3404
  476MOL0     H65647   4.450   7.671   8.962  1.2145 -0.8205  1.1891
  476MOL0     H65648   4.520   7.794   9.069 -0.7030 -0.7307  1.4943
  476MOL0     H65649   4.376   7.837   8.993 -2.5323 -0.9703  0.6992
  476MOL0     H65650   4.181   7.554   8.691 -2.6560 -0.6333 -0.5128
  476MOL0     H65651   4.164   7.377   8.527  1.3922 -1.3422 -0.8404
  476MOL0     H65652   4.005   7.070   8.557  1.8593 -1.2668 -0.4608
  476MOL0     H65653   4.017   7.231   8.507  1.0063  1.8772  0.5779
  476MOL0     H65654   4.083   6.975   8.357  3.4902  0.3651 -1.7301
  476MOL0     H65655   3.970   7.110   8.299 -1.1835  1.8031  1.5088
  476MOL0     H65656   4.267   7.096   8.298  0.4108  1.1020  0.0740
  476MOL0     H65657   4.178   7.246   8.272  3.1116 -0.2055 -2.7041
  476MOL0     H65658   4.084   7.165   8.085  0.9457  0.6608  0.4096
  476MOL0     H65659   4.132   6.996   8.099 -0.2982  0.6428 -4.4285
  476MOL0     H65660   4.345   7.214   8.077  0.9585 -0.0303  1.3899
  476MOL0     H65661   4.360   7.039   8.107 -1.7827  1.0307  2.9582
  476MOL0     H65662   4.211   7.103   7.864 -0.3259  0.3272  2.3172
  476MOL0     H65663   4.321   6.976   7.898 -1.2855 -0.0648 -0.5150
  476MOL0     H65664   4.520   7.148   7.902  1.0675 -0.8521  0.6758
  476MOL0     H65665   4.408   7.257   7.838  0.1043 -0.5542  0.3245
  476MOL0     H65666   4.570   7.145   7.677 -0.0175  1.0349  1.1710
  476MOL0     H65667   4.400   7.170   7.632  2.5574  2.2181 -2.6191
  476MOL0     H65668   4.330   7.085   8.768  0.4484 -0.1053 -1.9674
  476MOL0     H65669   4.363   7.256   8.948 -2.7614 -2.2954 -0.0860
  476MOL0     H65670   4.101   7.514   9.295  0.2613 -0.3424 -2.0895
  476MOL0     H65671   4.133   7.638   9.475 -1.1913 -1.4313 -1.4313
  476MOL0     H65672   4.248   7.961  10.038  0.7548  1.9142 -1.7313
  476MOL0     H65673   4.098   7.780  10.029  0.6963  0.3075 -0.2974
  476MOL0     H65674   3.685   7.677   9.727 -1.0734 -1.6267 -2.9865
  476MOL0     H65675   3.515   7.551   9.677  0.0634  1.1940  0.9583
  476MOL0     H65676   3.329   7.434   9.668 -0.5764 -0.4054  0.8038
  476MOL0     H65677   3.418   7.313   9.585  2.6057  2.8850  1.5021
  476MOL0     H65678   3.242   7.147   9.677 -1.3385  0.8373  0.2794
  476MOL0     H65679   3.171   7.261   9.572  1.1291 -1.4979 -1.2080
  476MOL0     H65680   3.185   7.323   9.870  0.4325 -3.1289  1.1072
  476MOL0     H65681   3.085   7.398   9.741 -0.5962 -0.8021  0.5122
  476MOL0     H65682   3.061   7.117   9.840 -1.5884 -0.1955  1.7518
  476MOL0     H65683   2.974   7.193   9.709  0.1700  1.2813 -0.4239
  476MOL0     H65684   2.769   7.376  10.052 -1.4348  0.3776 -1.9850
  476MOL0     H65685   3.612   7.264   9.999 -0.5350  0.6868  0.7986
  476MOL0     H65686   3.808   7.296  10.126 -2.0813  0.3809 -0.2429
  476MOL0     H65687   3.944   7.354  10.020  2.5652  1.2636  4.1390
  476MOL0     H65688   3.877   7.467  10.127  2.6215  0.1351 -0.8871
  477MOL0     O65689   1.180  11.145   9.632 -0.0742  0.1354  0.2656
  477MOL0     C65690   1.096  11.123   9.714 -0.2227 -0.2371 -0.1202
  477MOL0     O65691   1.124  11.087   9.842  0.3894  0.1554  0.3454
  477MOL0     C65692   1.250  11.042   9.869  0.4662  0.6903  0.4438
  477MOL0     C65693   1.261  10.911   9.917 -1.3046 -0.5321  0.4112
  477MOL0     C65694   1.387  10.874   9.961 -0.1168  0.2377 -0.8471
  477MOL0     C65695   1.496  10.951   9.954  0.1518 -0.1574 -0.1705
  477MOL0     O65696   1.621  10.911   9.985  0.4072  0.4296  0.7476
  477MOL0     C65697   1.655  10.773   9.970  0.7180  0.0105 -0.3124
  477MOL0     C65698   1.794  10.742  10.025  0.6843 -0.1625 -0.0767
  477MOL0     C65699   1.902  10.856  10.030  0.2671  0.7062  0.7519
  477MOL0     C65700   1.927  10.938   9.900 -0.1600  0.6993 -0.4618
  477MOL0     C65701   1.965  10.855   9.776 -0.2058 -0.2240  0.0231
  477MOL0     C65702   1.956  10.947   9.644 -0.7248 -0.8806 -0.5159
  477MOL0     C65703   1.961  10.867   9.521  0.4383  0.2362 -0.0011
  477MOL0     C65704   1.881  10.953   9.417  0.2353  1.0204 -0.4513
  477MOL0     N65705   1.900  10.899   9.280 -0.1714  0.2119  0.1216
  477MOL0     C65706   1.836  10.797   9.215  0.0984  1.1060 -0.3072
  477MOL0     C65707   1.872  10.807   9.086 -0.0969 -0.1757  0.6822
  477MOL0     C65708   1.835  10.731   8.964  0.2646  0.1301  0.3271
  477MOL0     C65709   1.706  10.784   8.890 -0.0789 -0.8993 -0.1611
  477MOL0     C65710   1.727  10.768   8.733  0.1555  0.5427 -0.2271
  477MOL0     C65711   1.606  10.777   8.643 -0.5916 -0.5126 -0.0417
  477MOL0     O65712   1.647  10.746   8.513 -0.0748 -0.6758  0.0672
  477MOL0     C65713   1.641  10.616   8.481 -0.3335  0.1353  0.6246
  477MOL0     C65714   1.659  10.579   8.341 -0.0354  0.4713 -0.0150
  477MOL0     C65715   1.663  10.439   8.302  0.0202  0.6070 -0.4688
  477MOL0     C65716   1.686  10.423   8.155 -0.2808 -0.3370  0.4155
  477MOL0     C65717   1.649  10.335   8.393 -0.2894 -0.0848  0.6337
  477MOL0     C65718   1.637  10.195   8.351  0.4462 -0.0847  0.4564
  477MOL0     O65719   1.584  10.167   8.231  0.0790  0.9699 -0.0418
  477MOL0     C65720   1.593  10.033   8.185  0.8710 -0.1730 -0.3606
  477MOL0     C65721   1.686   9.982   8.094  0.4916  0.5965 -1.0360
  477MOL0     C65722   1.682   9.845   8.047 -0.6672 -0.1569 -1.2119
  477MOL0     C65723   1.578   9.769   8.088 -0.3288  0.9143  0.9783
  477MOL0     O65724   1.546   9.640   8.038 -0.1973 -0.1540  0.7041
  477MOL0     C65725   1.644   9.577   7.955 -0.5133 -0.8432  0.3340
  477MOL0     C65726   1.613   9.434   7.905 -0.4740  0.9973  0.2831
  477MOL0     C65727   1.749   9.361   7.880 -0.0105  0.3094  0.8706
  477MOL0     C65728   1.832   9.313   8.001 -0.0025 -0.2913 -0.3831
  477MOL0     C65729   1.802   9.162   8.033  0.3269 -0.4277  0.3082
  477MOL0     C65730   1.883   9.114   8.144 -1.1370 -0.3341 -0.5889
  477MOL0     C65731   1.831   9.163   8.279  0.4809  0.0901  0.3547
  477MOL0     C65732   1.839   9.051   8.385 -0.5006  0.6757  0.2631
  477MOL0    Cl65733   2.006   9.006   8.423 -0.1976  0.3045 -0.2145
  477MOL0     C65734   1.502   9.821   8.185 -0.8023  0.8393  0.0546
  477MOL0     C65735   1.497   9.945   8.236 -0.8202 -0.1267 -0.3716
  477MOL0     O65736   1.681  10.104   8.429 -0.3127 -0.3242  0.5924
  477MOL0     C65737   1.633  10.375   8.528  1.4719 -1.0981 -0.3303
  477MOL0     C65738   1.622  10.510   8.570 -0.4919  0.6852 -0.7338
  477MOL0     N65739   1.938  10.918   9.066  0.7679  0.1085 -0.4390
  477MOL0     N65740   1.957  10.975   9.179  0.0777 -0.5331  0.0639
  477MOL0     C65741   1.478  11.083   9.911  0.0193  0.4597  0.6238
  477MOL0     C65742   1.354  11.126   9.862  0.2940  1.5469 -0.0532
  477MOL0     C65743   0.952  11.145   9.682  0.2854 -0.5084 -0.2905
  477MOL0     C65744   0.866  11.065   9.763  0.8679  0.2321 -0.3410
  477MOL0     C65745   0.730  11.064   9.738 -0.7294 -0.0468 -0.5762
  477MOL0     C65746   0.681  11.160   9.655  0.3767  0.6615  0.0553
  477MOL0     O65747   0.544  11.182   9.654  0.0304  0.2063  0.4983
  477MOL0     C65748   0.497  11.318   9.692  0.0518  0.1426 -0.1898
  477MOL0     C65749   0.569  11.365   9.822  0.1890  0.7768  0.2785
  477MOL0     C65750   0.509  11.280   9.940 -0.1117 -0.9073  0.2093
  477MOL0     C65751   0.503  11.350  10.072 -0.0091 -0.0319  0.2506
  477MOL0     C65752   0.405  11.467  10.078 -0.2543  0.1034 -0.4404
  477MOL0     C65753   0.328  11.565  10.096 -0.3712  0.4629  0.6362
  477MOL0     C65754   0.761  11.239   9.571 -0.7266 -0.2856  0.3357
  477MOL0     C65755   0.900  11.227   9.577  0.3494 -0.0722  0.5332
  477MOL0     C65756   0.976  11.310   9.488  0.0066  0.0027  0.8496
  477MOL0     H65757   1.185  10.833   9.905 -0.1441 -1.2517 -5.5788
  477MOL0     H65758   1.379  10.772   9.997 -0.4974 -0.0745 -1.7625
  477MOL0     H65759   1.665  10.764   9.862 -1.0665 -1.7007 -0.3924
  477MOL0     H65760   1.581  10.705  10.014  1.0212  0.5309  1.0547
  477MOL0     H65761   1.779  10.706  10.127 -0.7696 -0.9183 -0.5230
  477MOL0     H65762   1.833  10.661   9.962  5.4724  1.4223  0.4516
  477MOL0     H65763   1.891  10.918  10.121 -3.3649 -3.0521  3.2559
  477MOL0     H65764   1.995  10.800  10.037  0.4945  0.5718 -2.1549
  477MOL0     H65765   1.835  10.991   9.876 -0.3841  0.8776  0.7634
  477MOL0     H65766   1.998  11.020   9.912  0.1501 -0.0162  4.5374
  477MOL0     H65767   1.898  10.772   9.751  0.0200  0.4547 -3.3327
  477MOL0     H65768   2.059  10.802   9.794 -1.9853 -3.1200  1.6243
  477MOL0     H65769   1.859  10.992   9.667 -0.4141 -0.8830  0.8932
  477MOL0     H65770   2.037  11.020   9.640 -0.3118 -1.1858  1.4489
  477MOL0     H65771   1.917  10.770   9.542  0.0522  0.0311 -1.5796
  477MOL0     H65772   2.062  10.864   9.480 -0.6331 -0.7121 -2.8516
  477MOL0     H65773   1.773  10.950   9.434  0.2519  1.2590 -0.3047
  477MOL0     H65774   1.908  11.059   9.419  0.9929  0.8157  0.6257
  477MOL0     H65775   1.769  10.716   9.244  2.6502 -0.0445  3.0227
  477MOL0     H65776   1.806  10.629   8.992 -5.3977  1.1329 -0.7103
  477MOL0     H65777   1.923  10.721   8.900  1.2481 -0.1073  1.6539
  477MOL0     H65778   1.629  10.721   8.935 -1.7661  1.2346  0.0711
  477MOL0     H65779   1.688  10.889   8.914  2.5373 -0.5363  0.5007
  477MOL0     H65780   1.790  10.853   8.707  0.8687  0.4724  1.1659
  477MOL0     H65781   1.783  10.677   8.712 -0.9245  0.2198 -1.9375
  477MOL0     H65782   1.530  10.711   8.684  1.4721 -2.1091  1.4359
  477MOL0     H65783   1.572  10.881   8.636  2.0740  0.3750 -1.8876
  477MOL0     H65784   1.669  10.670   8.281 -0.3810  0.7763  0.3863
  477MOL0     H65785   1.590  10.396   8.110 -1.5040 -0.5686  2.9588
  477MOL0     H65786   1.770  10.355   8.139 -0.9211 -1.6063  2.1654
  477MOL0     H65787   1.716  10.522   8.117  0.2189 -0.9646 -0.8630
  477MOL0     H65788   1.764  10.045   8.054  0.4285  1.4799  0.1808
  477MOL0     H65789   1.754   9.819   7.970 -1.2198  1.2248 -2.2414
  477MOL0     H65790   1.648   9.639   7.865  0.5555 -0.1123  0.8796
  477MOL0     H65791   1.739   9.579   8.008  0.7231 -0.1578 -1.7890
  477MOL0     H65792   1.575   9.376   7.989 -1.0132 -0.5460 -0.9612
  477MOL0     H65793   1.538   9.444   7.826 -0.5712  2.1584  0.5108
  477MOL0     H65794   1.806   9.439   7.830  1.3271 -0.3205  1.3785
  477MOL0     H65795   1.720   9.282   7.810  1.0384  1.0349 -0.4361
  477MOL0     H65796   1.798   9.373   8.085 -0.6267 -2.4828  1.0222
  477MOL0     H65797   1.939   9.329   7.986  0.8932 -1.2859  3.8133
  477MOL0     H65798   1.698   9.151   8.066  0.4801  0.9975  1.3723
  477MOL0     H65799   1.819   9.103   7.943  1.7857 -2.8141  2.0329
  477MOL0     H65800   1.980   9.162   8.129 -2.0944  1.2802 -1.9258
  477MOL0     H65801   1.902   9.007   8.134  0.6849 -0.1656  0.5254
  477MOL0     H65802   1.723   9.183   8.277  0.4761  0.4290  2.4528
  477MOL0     H65803   1.887   9.249   8.316  2.8109 -1.3812  0.4325
  477MOL0     H65804   1.791   8.960   8.348 -2.5931  1.0839  1.8131
  477MOL0     H65805   1.787   9.073   8.478 -3.0240 -0.8557 -0.6890
  477MOL0     H65806   1.427   9.757   8.231  2.4848 -2.3018  1.5015
  477MOL0     H65807   1.442   9.987   8.320 -1.0430 -0.7175 -0.2142
  477MOL0     H65808   1.627  10.289   8.595  3.5184 -0.3135  0.9832
  477MOL0     H65809   1.615  10.513   8.679 -3.2895 -0.6393 -0.7722
  477MOL0     H65810   1.560  11.153   9.919  0.8054  0.0230 -2.3927
  477MOL0     H65811   1.341  11.226   9.822 -0.1237  1.8598  0.8436
  477MOL0     H65812   0.894  10.997   9.843 -2.5357 -3.3533 -1.8288
  477MOL0     H65813   0.672  10.990   9.793  2.2881 -1.8708  0.4167
  477MOL0     H65814   0.506  11.387   9.607 -2.0972  1.9790  0.9725
  477MOL0     H65815   0.389  11.313   9.709 -0.3367  1.6772 -1.8882
  477MOL0     H65816   0.553  11.471   9.843  2.1953  0.9890  0.8550
  477MOL0     H65817   0.677  11.358   9.811  0.1728  0.4023  0.3177
  477MOL0     H65818   0.419  11.221   9.922  1.1461 -3.7459  2.4712
  477MOL0     H65819   0.585  11.205   9.962  2.6857  2.4921  3.4672
  477MOL0     H65820   0.598  11.404  10.075  0.5418 -1.0147  1.0103
  477MOL0     H65821   0.483  11.276  10.150  0.7525  0.5183  0.9737
  477MOL0     H65822   0.255  11.644  10.103  0.7674  1.4760  1.3962
  477MOL0     H65823   0.716  11.301   9.494 -1.5965 -2.1533 -0.7127
  477MOL0     H65824   1.041  11.239   9.436 -3.0066 -2.0977 -0.3356
  477MOL0     H65825   0.911  11.372   9.426 -0.7704  1.3701  2.9169
  477MOL0     H65826   1.034  11.382   9.546  2.3842 -0.1022 -1.2124
  478MOL0     O65827   9.836   5.470   8.214  0.8085  0.6166 -0.5786
  478MOL0     C65828   9.911   5.547   8.265 -0.3576 -0.2012 -0.5724
  478MOL0     O65829  10.034   5.596   8.216 -0.0600 -0.3506 -0.6630
  478MOL0     C65830  10.080   5.556   8.086 -0.7919  0.3265  0.1825
  478MOL0     C65831  10.007   5.502   7.979  0.0352  0.3180 -0.9440
  478MOL0     C65832  10.070   5.452   7.858  0.1912  0.0790  0.3729
  478MOL0     C65833  10.208   5.465   7.848 -0.3187 -0.9963  0.0501
  478MOL0     O65834  10.261   5.405   7.735 -1.2566 -0.2136 -0.2992
  478MOL0     C65835  10.386   5.448   7.668  0.3118  0.2437 -0.1637
  478MOL0     C65836  10.409   5.368   7.544 -0.3269 -0.4488 -0.3988
  478MOL0     C65837  10.562   5.342   7.522  0.5975  0.2859 -0.7294
  478MOL0     C65838  10.627   5.482   7.481  0.2585  0.4162  0.2457
  478MOL0     C65839  10.783   5.481   7.506 -0.2151 -0.6698 -0.8631
  478MOL0     C65840  10.834   5.633   7.492 -0.3149  0.2772  0.5193
  478MOL0     C65841  10.981   5.644   7.492 -0.6741 -0.3263 -0.1810
  478MOL0     C65842  11.068   5.596   7.617  0.0036 -0.6065  0.1188
  478MOL0     N65843  11.206   5.628   7.606 -0.1298  0.1698 -0.1003
  478MOL0     C65844  11.265   5.746   7.621 -0.3010 -0.7169  0.1927
  478MOL0     C65845  11.398   5.722   7.628 -0.2011 -0.1480 -1.3546
  478MOL0     C65846  11.515   5.806   7.659 -0.3187 -0.4435  0.1686
  478MOL0     C65847  11.591   5.748   7.774 -0.8972  0.0799  0.6016
  478MOL0     C65848  11.521   5.749   7.905  0.5196 -0.5436 -0.2698
  478MOL0     C65849  11.497   5.881   7.976  0.4691  0.3201  0.0107
  478MOL0     O65850  11.403   5.852   8.087  0.0165 -0.3022 -0.8416
  478MOL0     C65851  11.279   5.801   8.064 -0.5968 -0.4877  0.8714
  478MOL0     C65852  11.207   5.855   7.959 -0.0317  0.3633  0.0390
  478MOL0     C65853  11.077   5.807   7.932  0.0920 -0.7752 -0.0390
  478MOL0     C65854  10.999   5.902   7.834 -0.0049  0.0434  0.3008
  478MOL0     C65855  11.031   5.694   8.001  0.5646 -0.0434  0.2449
  478MOL0     C65856  10.901   5.630   7.970 -0.1130 -0.5512  1.0922
  478MOL0     O65857  10.869   5.519   8.047 -0.6738 -0.2248  0.4640
  478MOL0     C65858  10.794   5.421   7.996  0.1617 -0.2464  0.0549
  478MOL0     C65859  10.653   5.424   8.010  0.7989  0.8630  0.5116
  478MOL0     C65860  10.573   5.306   7.994 -0.3798 -0.5515  0.5659
  478MOL0     C65861  10.630   5.194   7.928 -0.0413 -0.5188  0.2861
  478MOL0     O65862  10.564   5.079   7.882 -0.1307 -0.5143 -0.4088
  478MOL0     C65863  10.428   5.073   7.904  0.4268 -0.2984  0.1822
  478MOL0     C65864  10.370   4.947   7.840 -0.3056  0.2612  0.0034
  478MOL0     C65865  10.296   4.979   7.711  0.9504 -0.2218 -0.4706
  478MOL0     C65866  10.145   5.044   7.726 -0.2445 -0.5034 -0.5447
  478MOL0     C65867  10.067   4.998   7.604  0.0578  0.6286 -0.9066
  478MOL0     C65868   9.931   5.068   7.593  0.2558 -0.0592 -0.0675
  478MOL0     C65869   9.838   5.014   7.485 -0.2031  0.4604 -0.5405
  478MOL0     C65870   9.861   5.077   7.355  0.4103 -0.7990  0.3670
  478MOL0    Cl65871   9.718   5.028   7.261  0.3087 -0.4246 -0.3756
  478MOL0     C65872  10.764   5.205   7.896  0.0403  1.0681 -0.6135
  478MOL0     C65873  10.850   5.309   7.934  0.3824  0.3550  0.0844
  478MOL0     O65874  10.827   5.673   7.879 -0.2957  0.2061 -0.0764
  478MOL0     C65875  11.108   5.639   8.104 -0.1771 -0.2996  0.8533
  478MOL0     C65876  11.226   5.703   8.141  0.5970 -0.3899 -0.2978
  478MOL0     N65877  11.420   5.588   7.613 -0.1605  0.4662  0.1632
  478MOL0     N65878  11.303   5.536   7.600 -0.2186 -0.3940  0.5273
  478MOL0     C65879  10.286   5.523   7.950  0.1319  0.5226  0.3840
  478MOL0     C65880  10.220   5.566   8.069  0.8081  0.7920 -0.6041
  478MOL0     C65881   9.881   5.576   8.410  0.1391  1.6037 -0.7248
  478MOL0     C65882   9.989   5.613   8.495 -0.1141  0.3685  0.1778
  478MOL0     C65883   9.961   5.650   8.626 -0.0740 -0.1647  0.6919
  478MOL0     C65884   9.833   5.644   8.679 -0.1169  1.1167 -0.0387
  478MOL0     O65885   9.808   5.675   8.812 -0.4804 -0.2262 -0.0236
  478MOL0     C65886   9.910   5.721   8.902  0.3592  0.0628  0.5050
  478MOL0     C65887   9.850   5.723   9.041  0.1189  0.0420  0.4119
  478MOL0     C65888   9.714   5.791   9.057  0.7259 -0.3448 -0.6315
  478MOL0     C65889   9.635   5.756   9.185  0.4604 -0.0967 -0.6353
  478MOL0     C65890   9.692   5.838   9.294 -0.2836 -0.3912  0.5342
  478MOL0     C65891   9.756   5.905   9.381 -0.4337  0.1325  0.1385
  478MOL0     C65892   9.726   5.618   8.596 -0.2895  0.0989 -1.2271
  478MOL0     C65893   9.746   5.592   8.463 -1.0016  0.1328 -0.6303
  478MOL0     C65894   9.617   5.574   8.379 -0.2222  0.3522  0.4998
  478MOL0     H65895   9.899   5.505   7.989  0.1844  2.3186  0.7744
  478MOL0     H65896  10.023   5.396   7.779  2.8231  0.9867 -2.0044
  478MOL0     H65897  10.468   5.433   7.739  0.4075  1.4732  0.0089
  478MOL0     H65898  10.361   5.551   7.640 -0.3522  0.8111  2.2982
  478MOL0     H65899  10.359   5.271   7.541 -2.8149  0.7819 -1.6931
  478MOL0     H65900  10.375   5.430   7.461  0.1445  2.0004  1.1340
  478MOL0     H65901  10.612   5.293   7.606 -0.4737 -0.7671 -0.6750
  478MOL0     H65902  10.563   5.267   7.442  2.0182 -1.4356  0.8090
  478MOL0     H65903  10.609   5.502   7.375  1.7028 -1.4822 -0.4101
  478MOL0     H65904  10.579   5.551   7.551  0.2530 -2.0998  2.9256
  478MOL0     H65905  10.837   5.417   7.436  2.6352  1.6162 -0.9654
  478MOL0     H65906  10.798   5.458   7.611  0.8334  0.3559 -0.7653
  478MOL0     H65907  10.805   5.664   7.391  0.4894 -1.8808 -0.4544
  478MOL0     H65908  10.796   5.706   7.563 -0.8610  0.3588  0.1502
  478MOL0     H65909  11.009   5.748   7.473  1.2621 -1.3215 -3.7131
  478MOL0     H65910  11.020   5.598   7.400  0.5408 -4.9530  2.3084
  478MOL0     H65911  11.038   5.650   7.707  0.2578 -0.7010  0.2592
  478MOL0     H65912  11.054   5.489   7.633 -0.9782 -0.4011  0.7331
  478MOL0     H65913  11.218   5.843   7.634  0.3810 -0.2018 -0.9917
  478MOL0     H65914  11.500   5.911   7.686  0.0011 -0.3957  0.1620
  478MOL0     H65915  11.589   5.809   7.580 -2.7717 -1.7995 -2.3573
  478MOL0     H65916  11.632   5.652   7.741  2.7050  2.1754 -1.6662
  478MOL0     H65917  11.685   5.803   7.784  0.9405 -3.0374  2.1578
  478MOL0     H65918  11.433   5.683   7.904 -0.8737  1.1580  1.4634
  478MOL0     H65919  11.583   5.689   7.972  2.1531  1.6362  0.2838
  478MOL0     H65920  11.593   5.906   8.023  0.4329  0.1465  0.1744
  478MOL0     H65921  11.466   5.956   7.902 -2.4995 -2.8273 -2.1937
  478MOL0     H65922  11.244   5.939   7.900  0.2670 -1.4870 -2.5566
  478MOL0     H65923  11.015   5.877   7.729 -0.7457  1.4792 -0.1740
  478MOL0     H65924  11.024   6.008   7.846 -0.1386 -0.1081  2.3438
  478MOL0     H65925  10.892   5.895   7.852 -0.2652  1.1854 -0.7262
  478MOL0     H65926  10.595   5.503   8.058 -0.3052 -0.5559  1.6164
  478MOL0     H65927  10.466   5.307   8.014  0.1511  0.0815  3.9502
  478MOL0     H65928  10.406   5.061   8.011 -3.7583 -0.2474 -0.5093
  478MOL0     H65929  10.377   5.162   7.868  1.0584 -0.5996 -1.5358
  478MOL0     H65930  10.452   4.878   7.817 -0.6830 -1.4280  3.1517
  478MOL0     H65931  10.303   4.894   7.909 -0.9258  0.0003 -0.7779
  478MOL0     H65932  10.288   4.881   7.663  1.0988 -0.6518  0.3724
  478MOL0     H65933  10.351   5.047   7.645 -2.6130  2.7293 -0.7603
  478MOL0     H65934  10.149   5.153   7.728 -0.5019 -0.4087 -2.7250
  478MOL0     H65935  10.083   5.014   7.811 -2.1275  0.7425 -1.4096
  478MOL0     H65936  10.119   5.013   7.509  1.3437 -4.9647 -1.3816
  478MOL0     H65937  10.054   4.890   7.607 -0.3016  0.4327 -4.8663
  478MOL0     H65938   9.946   5.176   7.579 -1.8052  0.3979  0.8753
  478MOL0     H65939   9.877   5.048   7.686 -1.5469 -1.5488 -1.3615
  478MOL0     H65940   9.734   5.022   7.517  0.5485 -0.8438  2.5747
  478MOL0     H65941   9.869   4.910   7.473  1.5922  0.9986 -0.9017
  478MOL0     H65942   9.962   5.059   7.317  0.2978  1.5938 -1.3051
  478MOL0     H65943   9.850   5.186   7.364 -2.7856 -1.0776  0.9315
  478MOL0     H65944  10.823   5.125   7.852  0.6396  0.6808  0.8182
  478MOL0     H65945  10.956   5.294   7.918  0.3190  1.3057 -1.3969
  478MOL0     H65946  11.066   5.560   8.166 -4.6078  0.4406 -0.7764
  478MOL0     H65947  11.291   5.683   8.225 -0.1270  2.0527  0.9104
  478MOL0     H65948  10.393   5.532   7.935  0.1062  2.1243  0.9843
  478MOL0     H65949  10.277   5.613   8.148 -0.0843 -0.7946  1.0566
  478MOL0     H65950  10.087   5.618   8.449  0.2547 -0.3531  0.8538
  478MOL0     H65951  10.045   5.670   8.691  1.9319  4.0485 -2.6527
  478MOL0     H65952   9.999   5.657   8.899 -0.5346 -1.1887 -0.6016
  478MOL0     H65953   9.932   5.824   8.873 -0.1077 -0.0326 -0.2216
  478MOL0     H65954   9.926   5.767   9.107  0.8940 -2.4476  1.3364
  478MOL0     H65955   9.833   5.618   9.069 -2.1574  0.2911  0.1135
  478MOL0     H65956   9.734   5.898   9.061 -3.4010  0.5346  0.5939
  478MOL0     H65957   9.642   5.778   8.976 -0.3280  0.7562  0.1050
  478MOL0     H65958   9.642   5.648   9.201  1.3198  0.2859  2.0301
  478MOL0     H65959   9.533   5.794   9.173  0.5218  1.2927  2.2367
  478MOL0     H65960   9.815   5.966   9.446  1.2680 -2.3618  1.0742
  478MOL0     H65961   9.625   5.613   8.635 -0.6705 -1.7468 -2.3182
  478MOL0     H65962   9.526   5.595   8.434 -0.7462  1.6340 -0.7701
  478MOL0     H65963   9.616   5.649   8.299  1.2521  1.0446  1.0918
  478MOL0     H65964   9.607   5.473   8.339  0.0078  0.8472 -0.8908
  479MOL0     O65965   5.949   0.464   1.806 -0.2231  0.9246  0.8639
  479MOL0     C65966   5.953   0.378   1.892  0.5585 -0.6156  0.0830
  479MOL0     O65967   5.860   0.377   1.999  0.1812 -0.3225  0.0757
  479MOL0     C65968   5.759   0.469   2.001 -0.7127 -0.3571 -0.3259
  479MOL0     C65969   5.623   0.427   2.008 -0.2332  0.1761  1.0695
  479MOL0     C65970   5.516   0.518   2.024  0.6344 -0.0627  0.2871
  479MOL0     C65971   5.543   0.653   2.028 -0.3326  0.1074 -0.2246
  479MOL0     O65972   5.434   0.738   2.039 -1.3368 -0.5454  0.2083
  479MOL0     C65973   5.416   0.839   1.940  0.0135  0.2249  0.2584
  479MOL0     C65974   5.403   0.783   1.793 -0.0943  0.3926 -0.3928
  479MOL0     C65975   5.406   0.901   1.702 -0.1495 -0.0279  0.0948
  479MOL0     C65976   5.288   0.999   1.720 -0.1169 -0.7032 -0.2123
  479MOL0     C65977   5.300   1.101   1.607  0.2694 -0.2006 -0.0920
  479MOL0     C65978   5.430   1.192   1.593 -0.2139  0.6415  0.2968
  479MOL0     C65979   5.482   1.276   1.708  0.4652  0.1993 -0.8267
  479MOL0     C65980   5.614   1.357   1.681 -0.5024 -0.5438 -0.0003
  479MOL0     N65981   5.650   1.422   1.805 -0.8346 -0.8767 -0.1366
  479MOL0     C65982   5.743   1.530   1.803  0.2622  0.8187  0.2710
  479MOL0     C65983   5.767   1.550   1.937 -0.3280 -1.7082  0.4317
  479MOL0     C65984   5.869   1.653   1.981  0.8351  0.7132  0.6207
  479MOL0     C65985   5.985   1.584   2.055 -0.6988  0.7482 -0.2125
  479MOL0     C65986   6.061   1.685   2.145  0.3408  0.5274 -0.0380
  479MOL0     C65987   6.174   1.621   2.235  0.7123  0.8173 -0.3566
  479MOL0     O65988   6.246   1.720   2.312  0.0560  0.2205 -0.2078
  479MOL0     C65989   6.354   1.672   2.388  0.0684  0.0788 -0.2699
  479MOL0     C65990   6.390   1.539   2.407  0.2395 -0.0550  0.4375
  479MOL0     C65991   6.504   1.504   2.477  0.2877 -1.0821 -1.0356
  479MOL0     C65992   6.527   1.354   2.483 -0.6264 -0.7624 -0.1253
  479MOL0     C65993   6.590   1.608   2.532  0.8438  0.1191  0.4325
  479MOL0     C65994   6.706   1.580   2.623  1.0732  0.6200  0.1120
  479MOL0     O65995   6.811   1.665   2.599  0.3840 -0.1509  0.0111
  479MOL0     C65996   6.939   1.619   2.627 -0.3041 -0.2428 -0.4560
  479MOL0     C65997   6.999   1.534   2.539  0.3188  0.2559 -0.2917
  479MOL0     C65998   7.113   1.458   2.569  0.3343  0.9853  0.3287
  479MOL0     C65999   7.177   1.468   2.696  0.5050 -0.9423 -0.2303
  479MOL0     O66000   7.295   1.405   2.724 -0.2902  0.2907 -0.0317
  479MOL0     C66001   7.331   1.288   2.657  0.1634  0.1932 -0.4050
  479MOL0     C66002   7.466   1.228   2.714  0.7256 -0.9039  0.3174
  479MOL0     C66003   7.513   1.099   2.637  0.3758 -0.1595  0.2315
  479MOL0     C66004   7.446   0.960   2.681 -0.2947 -0.6349  0.3881
  479MOL0     C66005   7.477   0.839   2.577  0.1597  0.3164  0.0892
  479MOL0     C66006   7.425   0.856   2.432  0.0927  0.1146 -1.3350
  479MOL0     C66007   7.405   0.718   2.370  0.1871  0.6324 -0.4696
  479MOL0     C66008   7.422   0.709   2.217  0.7527 -0.8531  0.5475
  479MOL0    Cl66009   7.291   0.803   2.127 -0.5060  0.3491  0.0073
  479MOL0     C66010   7.114   1.555   2.788  0.3947  0.6459 -0.0122
  479MOL0     C66011   7.002   1.624   2.755 -0.4907  0.1101 -0.7453
  479MOL0     O66012   6.689   1.491   2.708 -0.0433 -0.5298 -0.6451
  479MOL0     C66013   6.547   1.738   2.506  0.7991 -0.2774 -0.2392
  479MOL0     C66014   6.434   1.772   2.439  0.4323 -0.3733 -0.2321
  479MOL0     N66015   5.683   1.467   2.009  0.1617  0.0858  0.1673
  479MOL0     N66016   5.608   1.393   1.930  0.5345 -0.1225  0.1149
  479MOL0     C66017   5.676   0.694   2.023 -0.7217 -0.2165  0.7737
  479MOL0     C66018   5.786   0.606   2.006 -0.6979  1.4281 -0.3563
  479MOL0     C66019   6.067   0.286   1.913  0.0048  0.1562 -0.0576
  479MOL0     C66020   6.053   0.180   2.000 -0.4413  1.2410 -0.2244
  479MOL0     C66021   6.153   0.086   2.011 -0.5373  0.0783 -0.1048
  479MOL0     C66022   6.276   0.106   1.954 -0.6514  0.3729  0.0301
  479MOL0     O66023   6.390   0.041   1.977  0.0694  0.2079  0.6368
  479MOL0     C66024   6.378  -0.074   2.059 -0.4638  0.5967  0.5755
  479MOL0     C66025   6.511  -0.145   2.086  0.4103 -0.4492 -0.3987
  479MOL0     C66026   6.619  -0.040   2.120  0.0883  0.2700 -0.3304
  479MOL0     C66027   6.755  -0.091   2.133 -0.5619  0.8076  0.3976
  479MOL0     C66028   6.827  -0.013   2.223 -0.4489  0.8185 -0.2715
  479MOL0     C66029   6.904   0.035   2.304  0.2075 -0.6932 -0.6592
  479MOL0     C66030   6.302   0.218   1.883  0.3485  0.0454  0.1791
  479MOL0     C66031   6.196   0.302   1.856  0.1924 -0.4408  0.0878
  479MOL0     C66032   6.227   0.419   1.762 -0.3642  0.2633  0.6756
  479MOL0     H66033   5.602   0.321   2.006 -1.2886  0.3737 -0.3822
  479MOL0     H66034   5.417   0.474   2.033 -0.4139  1.0991 -3.7694
  479MOL0     H66035   5.499   0.909   1.944  0.8145 -0.7055  0.3762
  479MOL0     H66036   5.328   0.899   1.962  0.5542  0.8416  0.7620
  479MOL0     H66037   5.490   0.719   1.773 -1.9192 -2.6916  0.7465
  479MOL0     H66038   5.305   0.735   1.793 -0.4341  0.9150  2.4099
  479MOL0     H66039   5.499   0.951   1.728 -0.2076  1.1570 -1.7820
  479MOL0     H66040   5.409   0.874   1.596 -0.9926 -1.1568  0.3341
  479MOL0     H66041   5.194   0.947   1.700  0.9166 -2.5451 -0.5003
  479MOL0     H66042   5.290   1.052   1.815 -3.3399 -0.6346 -0.1001
  479MOL0     H66043   5.216   1.171   1.613  0.0528 -0.5946  2.5624
  479MOL0     H66044   5.305   1.037   1.519  1.7828 -1.5063  0.8881
  479MOL0     H66045   5.519   1.134   1.564 -0.7337 -1.0009  1.7623
  479MOL0     H66046   5.388   1.257   1.517 -2.6211  0.5537  1.4729
  479MOL0     H66047   5.514   1.215   1.793  2.6750  2.6199  0.2061
  479MOL0     H66048   5.396   1.337   1.737  0.0062 -0.5676 -0.5413
  479MOL0     H66049   5.691   1.289   1.643 -0.1434 -1.5477  2.3404
  479MOL0     H66050   5.602   1.433   1.603 -1.2472  0.1572  0.7796
  479MOL0     H66051   5.789   1.575   1.716 -1.3669  0.2139 -0.9598
  479MOL0     H66052   5.817   1.735   2.030 -1.6530  1.0130 -2.2372
  479MOL0     H66053   5.917   1.712   1.902 -1.1965  2.0325  0.2923
  479MOL0     H66054   5.936   1.508   2.116  1.6765 -1.3626 -0.8023
  479MOL0     H66055   6.067   1.541   1.997  0.2875  0.7084  1.1323
  479MOL0     H66056   6.107   1.750   2.070  0.6616 -1.0295 -1.2462
  479MOL0     H66057   5.994   1.741   2.212 -2.7629 -1.2539 -1.4571
  479MOL0     H66058   6.144   1.535   2.294  2.4959 -1.0328 -1.9702
  479MOL0     H66059   6.237   1.576   2.158  1.4701 -1.4476  1.4715
  479MOL0     H66060   6.327   1.456   2.377 -1.6836  0.7724  1.9787
  479MOL0     H66061   6.622   1.323   2.526 -1.2644 -0.1210  1.8822
  479MOL0     H66062   6.533   1.317   2.380 -0.4094  0.4167 -0.5490
  479MOL0     H66063   6.447   1.305   2.540  2.2969  0.1073  5.4089
  479MOL0     H66064   6.946   1.515   2.446  1.6968 -1.6203 -0.7748
  479MOL0     H66065   7.143   1.384   2.495 -0.1965  0.7750  0.3171
  479MOL0     H66066   7.262   1.204   2.651  2.9738 -2.1421 -2.9392
  479MOL0     H66067   7.344   1.316   2.552  0.4093  1.3075 -0.0954
  479MOL0     H66068   7.547   1.301   2.712  1.1535 -1.3838 -0.6602
  479MOL0     H66069   7.451   1.199   2.819  2.6961 -4.3872 -0.1892
  479MOL0     H66070   7.622   1.090   2.646  0.1467 -0.9552  3.4151
  479MOL0     H66071   7.486   1.103   2.531  0.4697 -0.0447  0.2121
  479MOL0     H66072   7.338   0.978   2.677 -0.3287 -0.4092  1.8147
  479MOL0     H66073   7.487   0.926   2.776  0.3466 -2.2728 -0.4357
  479MOL0     H66074   7.583   0.815   2.565  0.2827  1.2300 -0.8083
  479MOL0     H66075   7.430   0.751   2.620 -2.0420  0.8255 -1.1343
  479MOL0     H66076   7.499   0.905   2.368 -0.5704  1.4608 -1.1207
  479MOL0     H66077   7.332   0.913   2.444  1.5733  2.9966 -2.4405
  479MOL0     H66078   7.304   0.686   2.397  0.6105 -0.6360 -0.3163
  479MOL0     H66079   7.477   0.648   2.412 -0.2827  2.0615  3.0198
  479MOL0     H66080   7.422   0.605   2.184  0.4830 -0.0011 -2.4182
  479MOL0     H66081   7.521   0.747   2.190 -0.0281  1.2039  0.3615
  479MOL0     H66082   7.161   1.578   2.883 -0.7073  1.4665  0.3486
  479MOL0     H66083   6.947   1.686   2.825 -0.0816 -2.0810  1.6726
  479MOL0     H66084   6.609   1.825   2.526  3.2413 -1.8818 -0.4099
  479MOL0     H66085   6.392   1.870   2.421  0.1855 -0.7902 -2.1757
  479MOL0     H66086   5.697   0.800   2.031 -0.3164 -0.1375 -0.9364
  479MOL0     H66087   5.882   0.655   1.996 -0.2591  0.5548 -0.5210
  479MOL0     H66088   5.974   0.160   2.071  0.2516 -0.2189  0.1659
  479MOL0     H66089   6.136   0.002   2.078 -0.9868  0.8153  0.7454
  479MOL0     H66090   6.322  -0.061   2.152  0.6419 -2.5498  1.8137
  479MOL0     H66091   6.314  -0.147   2.009 -0.6051  0.5202  0.8631
  479MOL0     H66092   6.543  -0.205   2.001  1.9425  1.4870 -1.2850
  479MOL0     H66093   6.498  -0.216   2.168  2.9225 -1.6458 -0.9312
  479MOL0     H66094   6.625   0.020   2.029  0.5129 -0.8092 -1.0279
  479MOL0     H66095   6.595   0.026   2.204 -2.4993  0.0341 -0.7908
  479MOL0     H66096   6.802  -0.085   2.035 -0.5637  2.0616  0.4553
  479MOL0     H66097   6.754  -0.193   2.172 -1.8100 -0.0898 -1.7831
  479MOL0     H66098   6.968   0.077   2.379 -1.8584  1.7391 -0.1220
  479MOL0     H66099   6.400   0.241   1.840 -0.4869  1.1484 -1.2373
  479MOL0     H66100   6.160   0.436   1.677 -0.7746 -0.6278  0.8117
  479MOL0     H66101   6.219   0.514   1.817 -4.6516  0.1214  0.6033
  479MOL0     H66102   6.331   0.419   1.730 -0.1615  2.6506  1.1282
  480MOL0     O66103   4.286  10.671   7.321  0.5173  0.1450 -0.1793
  480MOL0     C66104   4.383  10.682   7.393 -0.3264  0.4682 -0.1368
  480MOL0     O66105   4.396  10.628   7.524  0.8707 -0.1266  0.1522
  480MOL0     C66106   4.279  10.607   7.596  0.0204  0.3665  0.2554
  480MOL0     C66107   4.179  10.707   7.604  0.2330 -0.0990  0.9480
  480MOL0     C66108   4.071  10.689   7.698  0.0468 -0.1577 -0.3863
  480MOL0     C66109   4.062  10.575   7.774  0.9391  0.4443 -0.0906
  480MOL0     O66110   3.939  10.567   7.846 -0.3447 -0.1812 -0.6841
  480MOL0     C66111   3.906  10.446   7.918 -0.2515 -1.0389  0.1774
  480MOL0     C66112   3.769  10.457   7.987 -0.0121  0.6016  0.2224
  480MOL0     C66113   3.655  10.459   7.891 -0.0626  0.8940 -0.1197
  480MOL0     C66114   3.527  10.427   7.958 -0.5059  0.7364  0.8151
  480MOL0     C66115   3.407  10.450   7.859 -0.0761  0.0853  0.1118
  480MOL0     C66116   3.280  10.430   7.940  0.4504  0.8214 -0.1987
  480MOL0     C66117   3.163  10.470   7.856 -0.2842 -0.6030 -0.3130
  480MOL0     C66118   3.155  10.401   7.718  0.1818 -0.2938  0.3192
  480MOL0     N66119   3.021  10.389   7.669  0.3689 -0.8089 -0.2224
  480MOL0     C66120   2.936  10.495   7.650 -0.2806 -0.7034 -0.1521
  480MOL0     C66121   2.825  10.430   7.613  0.6560  0.2055  0.2011
  480MOL0     C66122   2.696  10.472   7.535  0.3852 -0.0643 -0.5086
  480MOL0     C66123   2.679  10.620   7.552  0.1870 -0.8910 -0.7308
  480MOL0     C66124   2.546  10.653   7.487  0.3791 -0.0593  0.5983
  480MOL0     C66125   2.532  10.804   7.433  0.4187  0.8570 -0.5898
  480MOL0     O66126   2.591  10.897   7.530 -0.1586 -0.0461  0.2621
  480MOL0     C66127   2.531  11.027   7.534 -0.5841 -0.2831  0.0919
  480MOL0     C66128   2.606  11.145   7.517  0.8955  0.2035  0.0657
  480MOL0     C66129   2.549  11.278   7.538 -0.1154 -0.2294  0.9697
  480MOL0     C66130   2.642  11.398   7.537  0.6073  0.2828 -0.0625
  480MOL0     C66131   2.404  11.278   7.539 -0.2163 -0.2365  0.3821
  480MOL0     C66132   2.324  11.402   7.542 -0.1381 -0.7538  0.0691
  480MOL0     O66133   2.215  11.407   7.468 -0.6028  0.3188 -0.2180
  480MOL0     C66134   2.137  11.517   7.475 -0.5134  0.3365  0.9152
  480MOL0     C66135   2.036  11.524   7.569  0.0734 -0.1520 -0.9050
  480MOL0     C66136   1.956  11.638   7.598  0.1163  0.1428 -0.5399
  480MOL0     C66137   1.986  11.761   7.531  0.8556  0.3047 -1.2617
  480MOL0     O66138   1.913  11.877   7.545  0.0068 -0.0060  0.8139
  480MOL0     C66139   1.792  11.856   7.628 -0.2667  0.7800 -0.7569
  480MOL0     C66140   1.718  11.988   7.631 -0.3046 -0.0948  0.3567
  480MOL0     C66141   1.580  11.981   7.696  0.0088  0.0203 -0.4009
  480MOL0     C66142   1.510  12.122   7.734  0.6414  0.1210 -0.7360
  480MOL0     C66143   1.431  12.159   7.608 -1.0462 -0.0957 -0.5664
  480MOL0     C66144   1.362  12.288   7.617 -1.0173 -0.3302  0.5742
  480MOL0     C66145   1.307  12.316   7.477  0.1426  0.1148  1.2920
  480MOL0     C66146   1.261  12.459   7.445 -0.6202  0.3888  0.4915
  480MOL0    Cl66147   1.386  12.573   7.459  0.3636  0.0783  0.0175
  480MOL0     C66148   2.096  11.759   7.442 -0.2164  1.1739  0.6134
  480MOL0     C66149   2.170  11.644   7.422  1.0480 -0.0101  0.9957
  480MOL0     O66150   2.366  11.496   7.614  0.4991  0.5077  0.4513
  480MOL0     C66151   2.343  11.158   7.570 -0.0141  0.6707  0.0716
  480MOL0     C66152   2.401  11.031   7.579 -0.0080 -0.1363 -0.3978
  480MOL0     N66153   2.839  10.298   7.613 -0.0984 -0.9392 -0.6501
  480MOL0     N66154   2.961  10.279   7.653  0.6769 -0.1156 -0.7153
  480MOL0     C66155   4.167  10.482   7.759 -0.2393 -0.1285  0.0330
  480MOL0     C66156   4.266  10.492   7.671 -0.2435 -0.0436  0.2431
  480MOL0     C66157   4.508  10.746   7.333  0.1193  0.3939  0.2327
  480MOL0     C66158   4.639  10.694   7.365  0.4553  0.8532 -0.6138
  480MOL0     C66159   4.750  10.735   7.293  0.5514 -0.1828 -0.7771
  480MOL0     C66160   4.742  10.828   7.196  1.0673  0.8935 -0.0215
  480MOL0     O66161   4.853  10.862   7.130 -0.5499  0.4792  0.8582
  480MOL0     C66162   4.851  10.920   6.995  0.1424  0.4542  0.5063
  480MOL0     C66163   4.864  11.073   7.003  0.5909 -0.6629  0.4558
  480MOL0     C66164   5.010  11.116   7.009 -0.2425 -0.3622 -0.7412
  480MOL0     C66165   5.065  11.073   7.146  0.2301 -1.0810 -0.4540
  480MOL0     C66166   5.188  11.150   7.181  0.7009 -0.3085  0.2518
  480MOL0     C66167   5.291  11.210   7.192  0.3969 -0.4209  0.0763
  480MOL0     C66168   4.617  10.895   7.173 -0.1761 -0.1951 -0.4787
  480MOL0     C66169   4.500  10.855   7.243 -0.4662 -0.1442 -0.5710
  480MOL0     C66170   4.380  10.943   7.231 -0.4890  0.1258  0.3136
  480MOL0     H66171   4.187  10.798   7.546 -1.1785 -2.3663 -3.2146
  480MOL0     H66172   3.991  10.762   7.713 -2.5250 -2.3817 -2.3415
  480MOL0     H66173   3.986  10.440   7.992  0.3558 -3.4878 -0.5908
  480MOL0     H66174   3.917  10.361   7.849 -0.8943 -0.3008 -0.8730
  480MOL0     H66175   3.757  10.368   8.049 -0.0305  0.0904 -0.4923
  480MOL0     H66176   3.763  10.540   8.058 -3.3650  0.3582  0.4181
  480MOL0     H66177   3.652  10.556   7.840  1.9814  0.9426 -0.2254
  480MOL0     H66178   3.673  10.378   7.820  0.2853  1.7906 -1.0887
  480MOL0     H66179   3.541  10.321   7.980  0.4904  0.4212 -1.1095
  480MOL0     H66180   3.522  10.495   8.043 -0.4360  3.1884 -1.0126
  480MOL0     H66181   3.412  10.390   7.767  0.4721  1.9701 -1.1472
  480MOL0     H66182   3.419  10.549   7.816  0.2144 -1.8376 -4.9500
  480MOL0     H66183   3.266  10.324   7.964 -2.3681  0.2028 -3.6711
  480MOL0     H66184   3.267  10.478   8.037  0.2898 -0.4220  0.4111
  480MOL0     H66185   3.156  10.579   7.849 -1.8083 -0.7651 -2.0191
  480MOL0     H66186   3.068  10.457   7.909 -0.2105  1.8807  0.5644
  480MOL0     H66187   3.226  10.449   7.649 -0.7308  0.0438 -0.4087
  480MOL0     H66188   3.203  10.303   7.732  2.1667  0.8044  1.6742
  480MOL0     H66189   2.943  10.603   7.656 -4.0767 -0.3251 -0.4057
  480MOL0     H66190   2.606  10.426   7.575  0.4651  2.3320  2.8175
  480MOL0     H66191   2.706  10.435   7.432  0.6001 -2.6465  0.3546
  480MOL0     H66192   2.687  10.664   7.651 -1.4944  1.1389 -1.4203
  480MOL0     H66193   2.759  10.677   7.503  2.5847 -1.4852  2.1870
  480MOL0     H66194   2.522  10.583   7.407  0.5683 -0.1645  0.6322
  480MOL0     H66195   2.472  10.640   7.566  0.8581  0.4480  1.1433
  480MOL0     H66196   2.596  10.813   7.344  0.5249  1.5927 -0.4388
  480MOL0     H66197   2.433  10.835   7.398  1.5707  2.7994 -2.3772
  480MOL0     H66198   2.714  11.151   7.512  0.8381  3.1133  0.2806
  480MOL0     H66199   2.590  11.491   7.512 -1.1359 -0.7011 -0.2728
  480MOL0     H66200   2.716  11.391   7.457 -1.8633  2.2032 -2.7610
  480MOL0     H66201   2.685  11.401   7.637 -1.7757  0.5505  1.0135
  480MOL0     H66202   2.027  11.438   7.636  1.7972  1.7324  1.9644
  480MOL0     H66203   1.881  11.623   7.675  0.6098  2.0993  0.3806
  480MOL0     H66204   1.726  11.778   7.591  0.2179  0.2377 -0.4950
  480MOL0     H66205   1.822  11.838   7.732  0.6715  2.4041 -0.7082
  480MOL0     H66206   1.786  12.055   7.683  0.6436 -1.3484  0.7795
  480MOL0     H66207   1.708  12.041   7.536 -1.1548 -0.4564  0.2317
  480MOL0     H66208   1.601  11.907   7.775  2.7418 -1.5831 -2.4451
  480MOL0     H66209   1.517  11.925   7.627  0.2492 -3.2507  1.8004
  480MOL0     H66210   1.576  12.206   7.759  0.3802  0.4620 -1.1767
  480MOL0     H66211   1.445  12.110   7.821  0.1190 -2.2612 -1.3985
  480MOL0     H66212   1.502  12.150   7.526  0.3358 -1.3802  0.7070
  480MOL0     H66213   1.366  12.071   7.591  0.1150 -1.2493  0.7029
  480MOL0     H66214   1.432  12.367   7.647  0.9834 -0.8802 -2.2623
  480MOL0     H66215   1.289  12.278   7.697 -0.6094 -0.9231  0.8780
  480MOL0     H66216   1.225  12.243   7.481  2.0527 -2.1169  1.8617
  480MOL0     H66217   1.369  12.280   7.394 -0.5759  2.0754 -0.1731
  480MOL0     H66218   1.192  12.507   7.516 -1.4408  0.4219 -0.3145
  480MOL0     H66219   1.207  12.452   7.351  0.0257 -0.4942  0.1792
  480MOL0     H66220   2.125  11.860   7.414 -2.6352  1.2635 -1.9757
  480MOL0     H66221   2.245  11.657   7.344  0.4690 -3.0569 -0.2011
  480MOL0     H66222   2.237  11.178   7.580  0.5429  3.4298  1.7184
  480MOL0     H66223   2.351  10.937   7.599  2.1595 -0.6714  3.4109
  480MOL0     H66224   4.187  10.410   7.838  1.0145  0.1805  0.0151
  480MOL0     H66225   4.349  10.422   7.665 -0.1107  0.0861  0.5268
  480MOL0     H66226   4.640  10.615   7.439 -2.8760 -0.3105 -1.6277
  480MOL0     H66227   4.841  10.678   7.309 -0.0158 -0.3559  2.3860
  480MOL0     H66228   4.939  10.890   6.937 -0.4189  0.4860 -0.3842
  480MOL0     H66229   4.770  10.886   6.930  0.6912  1.3755 -0.6940
  480MOL0     H66230   4.798  11.110   7.082 -0.6875 -0.6510 -0.5731
  480MOL0     H66231   4.810  11.103   6.913  1.9292  1.3092  0.2541
  480MOL0     H66232   5.061  11.072   6.923 -0.5358  0.0821 -1.1462
  480MOL0     H66233   5.024  11.223   6.997 -1.1200 -0.3557 -1.9094
  480MOL0     H66234   5.075  10.964   7.141  1.2540 -1.1508  1.6647
  480MOL0     H66235   4.993  11.091   7.226 -1.2251 -4.7623 -0.7196
  480MOL0     H66236   5.385  11.260   7.203 -0.1642  0.2120  2.4789
  480MOL0     H66237   4.611  10.981   7.107  2.7125 -1.8683 -3.2561
  480MOL0     H66238   4.354  10.971   7.333 -1.3713 -0.9214  0.3965
  480MOL0     H66239   4.402  11.039   7.183 -0.3325  0.0441  0.2194
  480MOL0     H66240   4.296  10.889   7.184 -0.7924  1.7473 -1.1142
  481MOL0     O66241   4.164   8.580   7.243  0.6630  0.0142 -0.5705
  481MOL0     C66242   4.230   8.487   7.282  0.3452 -0.2670  0.4591
  481MOL0     O66243   4.331   8.419   7.208 -0.1982  0.3650  0.4322
  481MOL0     C66244   4.383   8.470   7.090 -0.4549 -0.1862 -0.5102
  481MOL0     C66245   4.338   8.589   7.022  0.0710  0.9287  0.3822
  481MOL0     C66246   4.386   8.624   6.894 -0.4474  0.3479 -0.3817
  481MOL0     C66247   4.491   8.553   6.842 -0.6479 -0.7291 -0.3599
  481MOL0     O66248   4.567   8.587   6.735  0.4942  0.4013  0.0543
  481MOL0     C66249   4.499   8.676   6.642 -0.2432  0.4053 -0.1817
  481MOL0     C66250   4.589   8.696   6.518  0.3419  0.0877 -0.2856
  481MOL0     C66251   4.508   8.772   6.414  0.2362  0.0531  0.0996
  481MOL0     C66252   4.606   8.809   6.302  0.7822 -1.0843 -0.6111
  481MOL0     C66253   4.598   8.955   6.267 -0.9503  0.7235 -0.4146
  481MOL0     C66254   4.696   8.995   6.149  0.0272  0.9874  0.1010
  481MOL0     C66255   4.645   8.955   6.003  0.2160  0.6079 -0.4252
  481MOL0     C66256   4.575   9.069   5.922  1.1692  0.6557 -0.0795
  481MOL0     N66257   4.448   9.100   5.987  0.8982  0.8988  0.5045
  481MOL0     C66258   4.341   9.010   6.000  0.5319 -0.3208  0.1163
  481MOL0     C66259   4.228   9.087   5.986  0.3295 -0.9233 -0.1778
  481MOL0     C66260   4.084   9.029   5.963 -0.9116 -0.4073  0.1226
  481MOL0     C66261   3.971   9.100   6.040 -0.8653  0.3373  0.5424
  481MOL0     C66262   3.834   9.044   6.009  0.7750 -0.8905 -1.1325
  481MOL0     C66263   3.719   9.148   6.050  0.4292 -0.1768  0.8320
  481MOL0     O66264   3.737   9.282   5.990  0.5583 -0.3141 -1.2299
  481MOL0     C66265   3.749   9.401   6.059  0.3082  0.7428 -1.1644
  481MOL0     C66266   3.826   9.409   6.182 -0.0881 -0.6516  0.9604
  481MOL0     C66267   3.837   9.532   6.257 -0.9466  0.6916  0.2769
  481MOL0     C66268   3.936   9.536   6.378  0.1889 -0.5615 -0.3999
  481MOL0     C66269   3.777   9.645   6.196 -0.0959 -0.2134 -0.5683
  481MOL0     C66270   3.780   9.773   6.268  0.2856 -0.3282 -0.0443
  481MOL0     O66271   3.658   9.822   6.305  0.1786 -0.3461 -0.0124
  481MOL0     C66272   3.657   9.932   6.391 -0.5702 -0.5089  0.7625
  481MOL0     C66273   3.654   9.900   6.522  0.1681  0.6633 -0.7789
  481MOL0     C66274   3.675   9.997   6.618  0.0949  0.7477  0.1351
  481MOL0     C66275   3.702  10.129   6.578 -1.6858 -0.3860 -0.4332
  481MOL0     O66276   3.729  10.220   6.676 -0.4462  0.0345 -0.4844
  481MOL0     C66277   3.813  10.338   6.651  0.8544 -0.3027  0.4754
  481MOL0     C66278   3.806  10.421   6.774 -1.1217  0.7005  0.6937
  481MOL0     C66279   3.937  10.498   6.802  0.2356 -0.8560 -0.0156
  481MOL0     C66280   3.923  10.598   6.913  0.6571  0.2616 -0.9438
  481MOL0     C66281   4.041  10.698   6.912 -1.2702  0.0964 -0.4240
  481MOL0     C66282   4.180  10.636   6.936 -0.2001  0.0593 -0.2112
  481MOL0     C66283   4.292  10.742   6.940  0.1673  0.6685 -0.2706
  481MOL0     C66284   4.429  10.681   6.964 -0.0801 -0.6387 -0.3736
  481MOL0    Cl66285   4.498  10.574   6.833  0.4243  0.1290 -0.0682
  481MOL0     C66286   3.709  10.159   6.444  1.2784 -0.0955  0.0369
  481MOL0     C66287   3.684  10.061   6.355  0.3425 -0.4104  1.2663
  481MOL0     O66288   3.892   9.820   6.295  0.3755  1.0425  0.0045
  481MOL0     C66289   3.708   9.637   6.070 -0.2668  0.2143  0.0315
  481MOL0     C66290   3.694   9.518   6.002  0.2738  0.1313 -0.1050
  481MOL0     N66291   4.269   9.218   5.992 -0.8743 -0.0888  0.3667
  481MOL0     N66292   4.396   9.222   5.984 -0.3372 -0.9710  0.1701
  481MOL0     C66293   4.530   8.428   6.905  0.5503  0.0002  0.4172
  481MOL0     C66294   4.485   8.381   7.032 -0.2352  0.2966  0.0113
  481MOL0     C66295   4.222   8.445   7.421  0.4708  0.3388  0.4458
  481MOL0     C66296   4.294   8.331   7.462  0.1737  1.3367  0.8917
  481MOL0     C66297   4.282   8.276   7.586  1.2342  0.6841 -0.1899
  481MOL0     C66298   4.204   8.340   7.680 -0.3794 -0.2988 -0.1863
  481MOL0     O66299   4.210   8.280   7.807 -0.2235  0.8354  0.9443
  481MOL0     C66300   4.107   8.305   7.903  0.5382  0.5747 -0.1294
  481MOL0     C66301   4.127   8.183   7.999 -0.4895 -0.0714  0.1399
  481MOL0     C66302   4.033   8.215   8.121  0.6902 -0.0988  1.1596
  481MOL0     C66303   4.063   8.128   8.241  0.5928 -0.2872 -1.1887
  481MOL0     C66304   4.065   7.987   8.210 -0.5050  0.7483  0.3429
  481MOL0     C66305   4.079   7.868   8.191 -0.6247  0.3625 -0.4327
  481MOL0     C66306   4.136   8.461   7.646  0.0317 -0.2919 -0.8431
  481MOL0     C66307   4.141   8.515   7.521  0.1120  0.2695  1.2634
  481MOL0     C66308   4.055   8.643   7.494  0.7983 -0.9300 -0.1409
  481MOL0     H66309   4.270   8.664   7.061 -0.0904  0.9752  0.0142
  481MOL0     H66310   4.356   8.724   6.862  5.0985  2.0502 -1.2207
  481MOL0     H66311   4.462   8.769   6.687  1.3398  1.7174 -1.4403
  481MOL0     H66312   4.407   8.632   6.603 -1.6856  3.0103  0.0064
  481MOL0     H66313   4.686   8.736   6.549  1.0451 -0.2830 -1.8587
  481MOL0     H66314   4.618   8.604   6.466 -3.1118 -0.1232 -2.1330
  481MOL0     H66315   4.422   8.726   6.365 -0.0614  1.0454 -0.3348
  481MOL0     H66316   4.460   8.862   6.454 -5.2316 -0.4181 -4.1990
  481MOL0     H66317   4.707   8.795   6.341  1.6285  3.8968 -0.2986
  481MOL0     H66318   4.580   8.750   6.214  3.1734  0.1175 -2.2396
  481MOL0     H66319   4.638   9.009   6.354 -1.8308  0.1361  0.3757
  481MOL0     H66320   4.497   8.985   6.239 -0.7447  0.5267 -1.3871
  481MOL0     H66321   4.714   9.103   6.147  1.3701  0.7705 -0.8420
  481MOL0     H66322   4.792   8.945   6.165 -1.6552 -2.6200  0.0246
  481MOL0     H66323   4.578   8.868   6.010  2.4627 -1.1072  1.7326
  481MOL0     H66324   4.730   8.922   5.943 -1.6563 -1.5232 -2.0939
  481MOL0     H66325   4.637   9.159   5.920  2.6369 -0.2776  1.2986
  481MOL0     H66326   4.566   9.038   5.817 -0.6180 -0.5925  0.3965
  481MOL0     H66327   4.328   8.902   6.000 -0.0018 -0.3025 -2.1239
  481MOL0     H66328   4.077   8.928   6.003  0.1442  0.1774  1.9171
  481MOL0     H66329   4.069   9.024   5.855  1.9041 -1.0959 -0.3341
  481MOL0     H66330   3.988   9.105   6.148 -0.5488  1.2403  0.4556
  481MOL0     H66331   3.969   9.202   6.000 -1.5254  0.2130  0.2305
  481MOL0     H66332   3.813   9.004   5.909 -0.1211 -3.9029  0.1365
  481MOL0     H66333   3.825   8.953   6.069 -1.2627  0.7959  1.2833
  481MOL0     H66334   3.627   9.106   6.008  1.3939 -0.5588 -1.0374
  481MOL0     H66335   3.718   9.156   6.159 -2.3156 -0.9689  0.9292
  481MOL0     H66336   3.882   9.319   6.205  2.1790  0.2416 -0.7103
  481MOL0     H66337   4.024   9.597   6.359 -1.8059  3.0505  0.9812
  481MOL0     H66338   3.967   9.435   6.407  0.0671 -0.8268 -1.1681
  481MOL0     H66339   3.891   9.587   6.463 -0.6917 -2.3576  0.2821
  481MOL0     H66340   3.649   9.795   6.548  1.6920  0.3401 -1.7107
  481MOL0     H66341   3.672   9.984   6.726  0.9562  0.1650  0.1016
  481MOL0     H66342   3.913  10.313   6.615  1.4787 -1.7777  3.0178
  481MOL0     H66343   3.765  10.399   6.574 -0.3287 -1.2580  0.4237
  481MOL0     H66344   3.725  10.493   6.760  1.3144  3.4695 -0.2663
  481MOL0     H66345   3.795  10.356   6.861  2.2457 -0.6381  0.2658
  481MOL0     H66346   3.956  10.567   6.719  0.0814 -0.5822  0.1770
  481MOL0     H66347   4.017  10.426   6.821  4.6069  3.0610 -1.7630
  481MOL0     H66348   3.898  10.546   7.006 -0.4203  2.3990  0.0328
  481MOL0     H66349   3.833  10.658   6.897 -2.0871 -2.1986  3.2611
  481MOL0     H66350   4.054  10.755   6.819 -1.1141 -0.3169 -0.6547
  481MOL0     H66351   4.029  10.768   6.995 -2.9417 -1.9520  1.1367
  481MOL0     H66352   4.205  10.554   6.868 -3.9479 -1.4071 -0.0609
  481MOL0     H66353   4.169  10.584   7.031 -0.5613 -0.9455 -0.7915
  481MOL0     H66354   4.264  10.814   7.017 -1.4392 -1.1866  0.9957
  481MOL0     H66355   4.304  10.793   6.844  2.3212 -1.3171 -1.1610
  481MOL0     H66356   4.438  10.632   7.062 -1.4746  4.0065  2.4226
  481MOL0     H66357   4.503  10.761   6.976  1.8085 -1.9052 -2.7451
  481MOL0     H66358   3.712  10.261   6.408 -0.7695  0.3717  1.0320
  481MOL0     H66359   3.687  10.073   6.247 -0.9755  0.0348  1.2590
  481MOL0     H66360   3.658   9.723   6.027 -1.2650  1.0693  2.6626
  481MOL0     H66361   3.643   9.523   5.906 -0.4288 -1.0665  0.1835
  481MOL0     H66362   4.600   8.363   6.852  1.6621  0.6852  0.9944
  481MOL0     H66363   4.514   8.288   7.079  2.1160  1.0137  0.1376
  481MOL0     H66364   4.355   8.275   7.392 -2.7560 -1.9362  0.7211
  481MOL0     H66365   4.340   8.185   7.604 -0.2065 -0.1760  0.3103
  481MOL0     H66366   4.128   8.400   7.954  1.8972  1.1328 -1.6223
  481MOL0     H66367   4.006   8.298   7.861  0.7916 -0.8610 -0.5769
  481MOL0     H66368   4.231   8.195   8.030  0.2176  1.4550 -2.4463
  481MOL0     H66369   4.113   8.086   7.950  3.8699 -0.7623 -0.1767
  481MOL0     H66370   4.034   8.321   8.149  0.2186 -0.5928  3.2029
  481MOL0     H66371   3.927   8.193   8.109 -0.0210  1.7315  3.3570
  481MOL0     H66372   3.979   8.149   8.308  1.9342  2.4555 -0.2410
  481MOL0     H66373   4.161   8.155   8.280 -0.6398  0.5974  1.5721
  481MOL0     H66374   4.081   7.765   8.160  1.8636  0.0820  0.4683
  481MOL0     H66375   4.069   8.497   7.723  0.1982  1.3812 -1.4410
  481MOL0     H66376   4.108   8.734   7.464  0.0094  0.1632  1.5777
  481MOL0     H66377   3.994   8.627   7.405 -0.3207 -1.2263  0.6507
  481MOL0     H66378   3.982   8.669   7.572 -0.4388  1.9463 -2.0903
  482MOL0     O66379   0.503   1.062   6.565  0.4755 -0.6343 -0.1632
  482MOL0     C66380   0.407   1.050   6.637  0.1102 -0.4295 -0.3454
  482MOL0     O66381   0.389   0.949   6.727  0.3196 -0.3054  0.3653
  482MOL0     C66382   0.497   0.883   6.783 -0.0365 -0.2921 -0.0199
  482MOL0     C66383   0.599   0.827   6.703 -0.1084  0.7699 -0.1429
  482MOL0     C66384   0.718   0.772   6.754 -0.3841 -0.1811  0.0054
  482MOL0     C66385   0.723   0.757   6.892 -0.3503  0.2600  0.0072
  482MOL0     O66386   0.838   0.692   6.936 -0.5286 -0.7132 -0.2066
  482MOL0     C66387   0.855   0.683   7.080 -0.3793 -0.5287 -0.3762
  482MOL0     C66388   0.997   0.625   7.097  0.0567  0.2344  0.5858
  482MOL0     C66389   1.035   0.626   7.245  0.5634  0.7103 -0.5690
  482MOL0     C66390   0.934   0.534   7.323  0.1902  0.2593  0.2864
  482MOL0     C66391   1.005   0.514   7.453  0.8566 -0.3510 -0.4330
  482MOL0     C66392   0.906   0.444   7.541  0.0946 -0.1170  1.2137
  482MOL0     C66393   0.797   0.539   7.606 -0.5053  0.2766 -0.3518
  482MOL0     C66394   0.807   0.551   7.765 -0.1546 -0.2183  0.0937
  482MOL0     N66395   0.775   0.414   7.830 -0.0715  0.7280 -0.7903
  482MOL0     C66396   0.848   0.299   7.835  0.2091  0.5247  0.5220
  482MOL0     C66397   0.782   0.226   7.929 -0.3790 -0.9903 -0.0271
  482MOL0     C66398   0.834   0.096   7.980 -0.3482 -0.4925 -0.5763
  482MOL0     C66399   0.882   0.091   8.127  0.4634  0.2235  0.7955
  482MOL0     C66400   0.970   0.208   8.171  0.3060  0.1124  0.2270
  482MOL0     C66401   1.038   0.191   8.309  0.2120  0.2670  0.0313
  482MOL0     O66402   1.152   0.116   8.274  0.3932 -0.3732 -0.2923
  482MOL0     C66403   1.246   0.080   8.366  0.1875 -0.4277 -0.2898
  482MOL0     C66404   1.367   0.042   8.314 -0.5216  0.0481  0.2868
  482MOL0     C66405   1.473  -0.020   8.395  0.5808 -0.2129  0.4468
  482MOL0     C66406   1.597  -0.065   8.332 -0.0454 -0.2354 -0.2811
  482MOL0     C66407   1.440  -0.030   8.534 -0.4756 -0.4258  0.6296
  482MOL0     C66408   1.540  -0.092   8.629  0.2813 -0.3599  0.2323
  482MOL0     O66409   1.613  -0.194   8.584  0.7924 -0.2587  0.5879
  482MOL0     C66410   1.738  -0.190   8.649  0.3146  0.4983 -0.2964
  482MOL0     C66411   1.757  -0.286   8.760 -0.5039 -0.0730 -0.0259
  482MOL0     C66412   1.873  -0.289   8.817 -0.5154  0.9663 -0.4195
  482MOL0     C66413   1.984  -0.208   8.788 -0.2702  0.1127  0.1094
  482MOL0     O66414   2.103  -0.233   8.851 -0.0755  0.0437 -0.0098
  482MOL0     C66415   2.186  -0.119   8.877  1.2572  0.2321 -1.0514
  482MOL0     C66416   2.285  -0.151   8.980  0.0657 -0.8656  0.4593
  482MOL0     C66417   2.212  -0.177   9.117 -0.4807 -0.1622  0.0009
  482MOL0     C66418   2.292  -0.107   9.227 -0.0186  0.3427  0.2802
  482MOL0     C66419   2.253  -0.155   9.365  0.2586 -0.2687  0.1421
  482MOL0     C66420   2.102  -0.138   9.393 -0.1476 -0.0397 -0.4405
  482MOL0     C66421   2.087  -0.139   9.542  0.5978  0.8172 -0.1918
  482MOL0     C66422   1.946  -0.112   9.591 -0.1146 -0.5897 -0.0024
  482MOL0    Cl66423   1.941  -0.141   9.764 -0.3403  0.2395  0.0078
  482MOL0     C66424   1.966  -0.111   8.688 -0.2026 -0.9850 -0.7162
  482MOL0     C66425   1.843  -0.097   8.620 -0.4573  0.7669 -0.8680
  482MOL0     O66426   1.541  -0.041   8.744 -0.1021  0.1512  0.0777
  482MOL0     C66427   1.318   0.015   8.593 -0.1285  0.1293 -0.2721
  482MOL0     C66428   1.222   0.074   8.505  0.6466  0.6938 -1.1978
  482MOL0     N66429   0.678   0.297   7.979 -0.6331  0.6807  0.1785
  482MOL0     N66430   0.672   0.417   7.920 -0.2189 -0.1253  0.4105
  482MOL0     C66431   0.622   0.804   6.974 -0.1444  0.2863 -0.0090
  482MOL0     C66432   0.512   0.871   6.921 -0.3516  0.1443  0.7862
  482MOL0     C66433   0.292   1.143   6.619  0.0702 -1.3260  0.1711
  482MOL0     C66434   0.268   1.191   6.486  0.6171 -0.5400  0.1173
  482MOL0     C66435   0.166   1.282   6.454  0.4908  0.3451  1.1353
  482MOL0     C66436   0.080   1.337   6.547 -0.6376  0.6448 -0.6665
  482MOL0     O66437  -0.027   1.419   6.527 -0.2759 -0.5803 -0.4831
  482MOL0     C66438  -0.064   1.426   6.391  1.5222  0.7752 -0.4061
  482MOL0     C66439  -0.191   1.513   6.381 -0.2435 -0.1137 -0.1374
  482MOL0     C66440  -0.319   1.460   6.460  0.5581 -0.6313 -1.6106
  482MOL0     C66441  -0.429   1.566   6.451 -0.0849 -0.3056 -0.5923
  482MOL0     C66442  -0.535   1.534   6.550  0.9858  0.0378  1.3622
  482MOL0     C66443  -0.618   1.500   6.632  0.1379  0.8446 -0.0717
  482MOL0     C66444   0.092   1.279   6.678  0.0793  0.9130 -1.1406
  482MOL0     C66445   0.190   1.191   6.715 -0.1476 -0.1237 -0.4455
  482MOL0     C66446   0.192   1.142   6.860 -0.3114 -0.4168  0.9803
  482MOL0     H66447   0.583   0.847   6.598 -0.1988 -1.3857 -0.5797
  482MOL0     H66448   0.793   0.734   6.685 -3.1274 -0.2032 -3.2326
  482MOL0     H66449   0.781   0.621   7.131 -0.8892 -0.9662 -1.5949
  482MOL0     H66450   0.857   0.782   7.127  1.7439 -0.6952 -0.0057
  482MOL0     H66451   0.990   0.526   7.051 -1.9753  0.6801 -0.1668
  482MOL0     H66452   1.066   0.690   7.043 -1.0179  1.6677  0.8727
  482MOL0     H66453   1.140   0.601   7.263  1.2247  2.3059 -1.9695
  482MOL0     H66454   1.019   0.730   7.272 -4.2088  0.0666  0.0403
  482MOL0     H66455   0.840   0.591   7.327  1.3856  2.3662  0.1840
  482MOL0     H66456   0.917   0.441   7.269  2.1369  1.1803 -2.1043
  482MOL0     H66457   1.027   0.607   7.507 -2.9760  0.3598  0.2141
  482MOL0     H66458   1.094   0.454   7.430  1.6260  1.5755 -2.8410
  482MOL0     H66459   0.869   0.354   7.492 -0.3193  0.5163  0.3453
  482MOL0     H66460   0.965   0.404   7.624 -2.1628 -0.1420  2.8935
  482MOL0     H66461   0.699   0.495   7.584 -1.4937 -0.0399  3.8871
  482MOL0     H66462   0.806   0.641   7.569  2.0798  0.5533  0.7943
  482MOL0     H66463   0.911   0.582   7.778 -0.0164 -0.3366 -0.6663
  482MOL0     H66464   0.735   0.625   7.802 -1.2642 -2.0444  1.7472
  482MOL0     H66465   0.929   0.275   7.767  2.4695  0.0816  3.2159
  482MOL0     H66466   0.922   0.064   7.922 -0.2199 -1.4693  0.1360
  482MOL0     H66467   0.756   0.019   7.972 -2.2724  1.1933  0.9354
  482MOL0     H66468   0.789   0.074   8.184  1.5531 -2.3428  1.9643
  482MOL0     H66469   0.935  -0.002   8.148 -2.6540 -2.3073 -1.6506
  482MOL0     H66470   1.039   0.230   8.088 -0.2258  2.2990  0.2887
  482MOL0     H66471   0.903   0.295   8.170  0.5508  0.2998 -0.1237
  482MOL0     H66472   1.066   0.288   8.352 -1.6550  1.3626 -1.0653
  482MOL0     H66473   0.968   0.149   8.381  2.1030  2.6191  3.5396
  482MOL0     H66474   1.368   0.051   8.206 -0.0679  0.4231  0.3185
  482MOL0     H66475   1.683  -0.017   8.381  0.4117 -0.8308 -0.4831
  482MOL0     H66476   1.617  -0.026   8.232 -0.1179  2.9165  0.8256
  482MOL0     H66477   1.606  -0.173   8.350 -0.6837 -0.0538  1.3408
  482MOL0     H66478   1.692  -0.362   8.802  1.5559 -1.1621  1.3255
  482MOL0     H66479   1.882  -0.351   8.906 -2.5182  2.2491  0.7541
  482MOL0     H66480   2.241  -0.095   8.785 -1.4650  0.3518 -2.7854
  482MOL0     H66481   2.130  -0.033   8.915 -0.2441  0.1931 -2.9969
  482MOL0     H66482   2.344  -0.239   8.953  3.9784  1.6542  0.0526
  482MOL0     H66483   2.356  -0.069   8.983  0.5767 -1.3178  1.1464
  482MOL0     H66484   2.210  -0.284   9.139  0.5709  0.0156  1.0510
  482MOL0     H66485   2.114  -0.128   9.112 -0.5306 -0.3068 -3.4984
  482MOL0     H66486   2.273   0.001   9.222  1.2200  0.5363 -2.1523
  482MOL0     H66487   2.400  -0.111   9.206  0.8029  1.8480  3.5856
  482MOL0     H66488   2.276  -0.260   9.384  0.2949 -0.0785  1.1900
  482MOL0     H66489   2.312  -0.095   9.435  0.2461  0.5023 -0.4961
  482MOL0     H66490   2.045  -0.208   9.332 -3.5937  2.4661 -0.3981
  482MOL0     H66491   2.081  -0.033   9.370 -1.8338  0.6974  3.5972
  482MOL0     H66492   2.152  -0.058   9.579  0.3827  1.9544 -2.1771
  482MOL0     H66493   2.114  -0.237   9.583 -3.0815 -0.9166 -1.5322
  482MOL0     H66494   1.877  -0.179   9.539  3.6550 -3.0591 -2.3354
  482MOL0     H66495   1.927  -0.007   9.570  3.0550 -0.1607 -1.2372
  482MOL0     H66496   2.055  -0.058   8.656 -0.1660 -0.6260 -0.0461
  482MOL0     H66497   1.826  -0.013   8.554 -0.3073  0.8960 -0.7436
  482MOL0     H66498   1.311   0.012   8.701 -1.0693  0.6410 -0.3102
  482MOL0     H66499   1.127   0.095   8.553  1.5955 -0.7704  1.5472
  482MOL0     H66500   0.609   0.787   7.081 -4.1092 -1.8814 -0.6269
  482MOL0     H66501   0.431   0.897   6.989 -2.1344 -1.6227 -0.5527
  482MOL0     H66502   0.324   1.149   6.403 -0.3817  0.7988 -1.2878
  482MOL0     H66503   0.151   1.294   6.347 -0.3044 -0.5155  1.1345
  482MOL0     H66504   0.023   1.470   6.341  0.8189  1.3828 -1.1219
  482MOL0     H66505  -0.089   1.326   6.356  0.5895  0.6960  0.4267
  482MOL0     H66506  -0.217   1.508   6.275  4.6298  0.3156 -1.5950
  482MOL0     H66507  -0.166   1.619   6.393 -1.2704  0.4191 -2.2529
  482MOL0     H66508  -0.351   1.362   6.424 -0.8095 -1.8418  2.4162
  482MOL0     H66509  -0.285   1.447   6.563  0.5143 -0.5142 -1.5802
  482MOL0     H66510  -0.471   1.560   6.350  2.1595 -2.7821 -1.5156
  482MOL0     H66511  -0.389   1.667   6.464  2.4337 -0.8771 -3.0080
  482MOL0     H66512  -0.699   1.479   6.699 -0.7270 -0.3289 -1.4183
  482MOL0     H66513   0.008   1.296   6.744  1.8869  1.9272  1.0554
  482MOL0     H66514   0.209   1.228   6.925  2.1403 -0.1082  0.0469
  482MOL0     H66515   0.096   1.096   6.885  0.0288 -1.4171  0.5320
  482MOL0     H66516   0.286   1.092   6.886  0.9178  0.9000 -0.7421
  483MOL0     O66517   1.801   8.713   1.641 -0.2932 -0.6449  0.0470
  483MOL0     C66518   1.760   8.791   1.729  0.4296  0.1687 -0.3756
  483MOL0     O66519   1.654   8.767   1.816  0.7618  0.3909  0.0443
  483MOL0     C66520   1.574   8.658   1.803  0.4462 -0.4655 -0.4920
  483MOL0     C66521   1.465   8.669   1.712 -1.1292  0.2483 -0.1441
  483MOL0     C66522   1.376   8.561   1.687 -0.1620 -0.5123  0.2834
  483MOL0     C66523   1.391   8.444   1.771 -0.3719 -0.7953  0.0473
  483MOL0     O66524   1.294   8.347   1.752  0.0046 -0.0203  0.2497
  483MOL0     C66525   1.306   8.217   1.818  0.0987  0.6310 -0.6011
  483MOL0     C66526   1.392   8.133   1.724  0.6258  0.1438 -0.2365
  483MOL0     C66527   1.311   8.101   1.593 -0.5284 -0.1830  0.1101
  483MOL0     C66528   1.407   8.087   1.473 -0.6273 -0.2211  0.6973
  483MOL0     C66529   1.386   8.196   1.368  0.5776 -1.0990  0.2239
  483MOL0     C66530   1.431   8.331   1.417  0.2559  0.1521  0.5580
  483MOL0     C66531   1.408   8.448   1.314  0.4837  1.0607  0.4460
  483MOL0     C66532   1.461   8.432   1.165  0.2010 -0.2004 -0.1743
  483MOL0     N66533   1.402   8.549   1.102 -0.4051 -0.0147  0.8827
  483MOL0     C66534   1.285   8.568   1.036  0.0249 -0.2282  0.6239
  483MOL0     C66535   1.288   8.695   0.995 -0.3130 -0.1042 -0.2402
  483MOL0     C66536   1.195   8.781   0.910  0.1441 -0.3401 -0.0545
  483MOL0     C66537   1.102   8.857   0.993  0.3817  0.1796 -0.3097
  483MOL0     C66538   1.165   8.949   1.100  0.4557 -1.0546  0.6731
  483MOL0     C66539   1.062   9.072   1.117 -0.3244 -0.2641 -0.2146
  483MOL0     O66540   1.091   9.131   1.237  1.0840  0.1864 -0.5448
  483MOL0     C66541   1.096   9.264   1.245 -0.4528  0.0910  0.5903
  483MOL0     C66542   1.089   9.318   1.373 -0.0826  0.4705 -0.3155
  483MOL0     C66543   1.117   9.455   1.406  0.2693 -0.4527  0.4606
  483MOL0     C66544   1.120   9.504   1.552  0.5621 -1.1203  0.1548
  483MOL0     C66545   1.143   9.542   1.299 -0.1294  1.0154  0.2125
  483MOL0     C66546   1.172   9.678   1.316 -0.0690 -0.3229 -0.2890
  483MOL0     O66547   1.071   9.756   1.367  0.1455 -0.3558 -0.3737
  483MOL0     C66548   1.068   9.887   1.346 -0.3411  0.3093  0.0660
  483MOL0     C66549   1.144   9.974   1.424 -0.0035 -0.3312 -0.4119
  483MOL0     C66550   1.148  10.113   1.398  0.1786  0.3651 -0.1414
  483MOL0     C66551   1.094  10.163   1.281 -0.2135  0.0064 -0.0039
  483MOL0     O66552   1.108  10.293   1.231 -0.5741  0.3544  0.3063
  483MOL0     C66553   1.166  10.398   1.312  0.3106  0.2343  1.1484
  483MOL0     C66554   1.173  10.515   1.217  0.7172  0.5868 -0.1997
  483MOL0     C66555   1.158  10.644   1.283 -0.5368 -0.4075 -0.4459
  483MOL0     C66556   1.225  10.760   1.212  0.2842  0.2751  0.4140
  483MOL0     C66557   1.207  10.895   1.284 -0.4977  0.2415  1.0769
  483MOL0     C66558   1.277  10.900   1.414 -1.1154  0.9806  0.2622
  483MOL0     C66559   1.240  11.016   1.509  0.1306  0.2759  0.3921
  483MOL0     C66560   1.350  11.029   1.621 -0.1860  1.0629 -0.1563
  483MOL0    Cl66561   1.293  11.137   1.750 -0.0558 -0.0092 -0.6871
  483MOL0     C66562   1.019  10.078   1.195  0.1381  0.2865  0.3102
  483MOL0     C66563   1.003   9.944   1.236  0.2742  1.0289 -0.1887
  483MOL0     O66564   1.283   9.717   1.279  0.3184  0.5805 -0.3544
  483MOL0     C66565   1.147   9.482   1.162 -0.7267 -0.4851  0.2160
  483MOL0     C66566   1.129   9.351   1.138  0.4041  0.0911 -0.2163
  483MOL0     N66567   1.400   8.755   1.049 -0.1825 -0.6377  0.0888
  483MOL0     N66568   1.463   8.669   1.114 -0.8379 -0.3359 -0.9044
  483MOL0     C66569   1.495   8.444   1.867 -0.4348 -0.4361 -0.3252
  483MOL0     C66570   1.585   8.544   1.886  0.0012  0.8769 -0.5104
  483MOL0     C66571   1.826   8.917   1.750  0.1440 -0.1905 -0.7165
  483MOL0     C66572   1.742   9.012   1.817 -0.1104 -0.2433  0.0255
  483MOL0     C66573   1.796   9.136   1.855  0.5702  0.1952 -0.6762
  483MOL0     C66574   1.930   9.163   1.838 -0.3162  0.5587  0.2156
  483MOL0     O66575   1.997   9.261   1.909 -0.6962 -0.6928  0.7780
  483MOL0     C66576   1.935   9.327   2.016 -0.6682  0.2810  0.1737
  483MOL0     C66577   1.856   9.450   1.962 -0.4951  0.8587 -0.0610
  483MOL0     C66578   1.940   9.550   1.884 -0.5367 -0.0071 -0.0987
  483MOL0     C66579   1.945   9.518   1.737 -0.4592  0.3363 -0.1787
  483MOL0     C66580   2.000   9.628   1.661 -0.1922 -0.3736 -0.3778
  483MOL0     C66581   2.048   9.739   1.627 -0.0656 -0.1853  0.5346
  483MOL0     C66582   2.001   9.076   1.754  0.3438 -0.2409 -0.2546
  483MOL0     C66583   1.959   8.953   1.708 -0.2854  0.4910 -0.8487
  483MOL0     C66584   2.042   8.869   1.628  0.0596 -0.5292  0.3810
  483MOL0     H66585   1.450   8.760   1.654  0.0672 -0.7875 -2.1789
  483MOL0     H66586   1.283   8.563   1.632  1.2415 -2.0718 -2.3855
  483MOL0     H66587   1.212   8.165   1.836  1.4398 -1.8416 -0.3274
  483MOL0     H66588   1.356   8.220   1.915 -0.6167  0.3515 -0.2198
  483MOL0     H66589   1.476   8.195   1.693  0.3034  0.6876 -0.0294
  483MOL0     H66590   1.411   8.040   1.779 -1.1930  1.0928  2.1847
  483MOL0     H66591   1.263   8.006   1.620  2.8315 -2.1053 -0.1444
  483MOL0     H66592   1.226   8.167   1.573  0.5719  1.1939 -0.1651
  483MOL0     H66593   1.509   8.105   1.509 -0.5278 -0.1986  0.4088
  483MOL0     H66594   1.405   7.988   1.426 -4.2473  0.2516 -0.3787
  483MOL0     H66595   1.278   8.200   1.355  0.2049 -3.0320  2.1433
  483MOL0     H66596   1.438   8.178   1.273  3.6275  2.1165  1.0534
  483MOL0     H66597   1.371   8.361   1.503 -2.7620 -1.2797 -0.9213
  483MOL0     H66598   1.536   8.334   1.447  0.3046  1.6399  0.3373
  483MOL0     H66599   1.465   8.527   1.365  0.9133  2.3759 -1.9148
  483MOL0     H66600   1.301   8.471   1.309  0.9857  3.7719  0.6518
  483MOL0     H66601   1.571   8.430   1.167  0.2952 -1.2340  4.6058
  483MOL0     H66602   1.425   8.335   1.128 -0.9290  0.3344 -0.4942
  483MOL0     H66603   1.208   8.492   1.022  0.3741 -0.8017  1.7375
  483MOL0     H66604   1.139   8.717   0.841  1.0978 -0.9830 -0.2561
  483MOL0     H66605   1.259   8.853   0.857 -1.3615 -0.0648 -1.5904
  483MOL0     H66606   1.025   8.901   0.929 -2.9650 -2.3698  1.6191
  483MOL0     H66607   1.032   8.788   1.041 -0.5322 -0.7140 -2.8079
  483MOL0     H66608   1.180   8.888   1.190  4.2512 -0.4764  0.5913
  483MOL0     H66609   1.260   8.992   1.067 -0.4562  1.4253  1.0436
  483MOL0     H66610   1.036   9.137   1.033 -3.8017 -0.3308  0.6339
  483MOL0     H66611   0.964   9.029   1.140 -0.2948  0.6830  1.8034
  483MOL0     H66612   1.063   9.241   1.445 -0.2842 -4.0244 -4.5595
  483MOL0     H66613   1.019   9.530   1.586  1.3147  1.0205  0.9624
  483MOL0     H66614   1.179   9.596   1.559 -2.6440  1.2790 -1.4137
  483MOL0     H66615   1.153   9.419   1.612  2.5112  0.2763  1.1813
  483MOL0     H66616   1.186   9.932   1.515  1.7985 -0.2479 -1.1688
  483MOL0     H66617   1.202  10.167   1.476 -0.6122 -0.7709  1.2475
  483MOL0     H66618   1.107  10.412   1.403 -1.9324 -4.3175  0.6793
  483MOL0     H66619   1.266  10.371   1.348  0.6096 -2.5436 -1.3539
  483MOL0     H66620   1.266  10.496   1.163  0.3819 -3.7442  0.3539
  483MOL0     H66621   1.094  10.515   1.141  0.1082  3.3117  0.3327
  483MOL0     H66622   1.206  10.633   1.381  1.6267 -0.2981 -1.4219
  483MOL0     H66623   1.052  10.664   1.295 -0.3445  1.1318 -1.0624
  483MOL0     H66624   1.179  10.770   1.113 -3.3164  1.3667  2.0466
  483MOL0     H66625   1.330  10.730   1.207 -0.1900 -1.3480 -0.9441
  483MOL0     H66626   1.253  10.971   1.221 -0.2128  0.6049  1.7124
  483MOL0     H66627   1.099  10.916   1.289 -0.5925  1.3830 -2.8592
  483MOL0     H66628   1.385  10.902   1.400 -1.1507  2.5897  0.1389
  483MOL0     H66629   1.259  10.812   1.477  3.6091  0.3824  1.0907
  483MOL0     H66630   1.150  10.985   1.563 -1.3948  0.9792 -1.6152
  483MOL0     H66631   1.210  11.112   1.466 -0.3373  1.4748  3.1658
  483MOL0     H66632   1.446  11.061   1.578  2.8551 -4.0399  1.8168
  483MOL0     H66633   1.369  10.926   1.654  1.7924  0.6270 -2.3381
  483MOL0     H66634   0.971  10.118   1.107  0.1409 -2.2457 -0.9218
  483MOL0     H66635   0.941   9.875   1.182  1.9560 -1.8734  1.3370
  483MOL0     H66636   1.165   9.562   1.091 -1.5877  2.3913  2.9897
  483MOL0     H66637   1.131   9.326   1.033 -1.4079 -0.9372 -0.0458
  483MOL0     H66638   1.516   8.354   1.924  0.2690 -2.2890 -3.2984
  483MOL0     H66639   1.664   8.522   1.956 -0.2103 -3.0264 -1.2546
  483MOL0     H66640   1.639   8.995   1.846 -0.0181  0.5972  0.8962
  483MOL0     H66641   1.729   9.196   1.916  1.1184 -1.4003  1.5913
  483MOL0     H66642   1.872   9.257   2.072  1.1375 -2.7985 -1.3973
  483MOL0     H66643   2.017   9.366   2.078 -0.1723  0.8417 -0.8084
  483MOL0     H66644   1.806   9.493   2.049 -0.2921 -0.7969  0.9115
  483MOL0     H66645   1.774   9.421   1.896  0.6485 -1.3944 -0.5794
  483MOL0     H66646   1.908   9.653   1.898  0.0711  0.5706 -2.5120
  483MOL0     H66647   2.036   9.537   1.936  1.1739  1.0054 -2.8208
  483MOL0     H66648   1.846   9.490   1.701  0.4075 -1.9226 -1.0162
  483MOL0     H66649   2.013   9.434   1.717  1.0072  1.2876  0.5749
  483MOL0     H66650   2.104   9.826   1.600 -1.2910  0.9087  1.3730
  483MOL0     H66651   2.105   9.104   1.745  0.5341  0.0266  2.1005
  483MOL0     H66652   2.058   8.777   1.686 -1.2672 -1.5803 -0.8662
  483MOL0     H66653   1.999   8.850   1.530  1.7196 -1.2195 -0.2643
  483MOL0     H66654   2.129   8.925   1.592 -1.3333  1.7720  0.4564
  484MOL0     O66655   0.105   0.297   5.814 -0.1060 -0.7399  0.5631
  484MOL0     C66656   0.087   0.306   5.931  0.3820 -0.4441  1.4903
  484MOL0     O66657  -0.020   0.382   5.975 -0.0994 -0.6754  0.2502
  484MOL0     C66658  -0.090   0.458   5.887  0.9686 -0.2955  0.7173
  484MOL0     C66659  -0.218   0.418   5.857  0.5157  0.3614  0.4568
  484MOL0     C66660  -0.297   0.500   5.776 -0.2683 -0.0964 -0.2616
  484MOL0     C66661  -0.252   0.621   5.721 -0.0422  0.0996 -0.0520
  484MOL0     O66662  -0.328   0.686   5.632 -0.4085  0.9208  1.1682
  484MOL0     C66663  -0.292   0.805   5.566  0.5404 -0.5247  0.2064
  484MOL0     C66664  -0.400   0.827   5.459 -0.8963 -1.0495 -0.3511
  484MOL0     C66665  -0.404   0.733   5.333 -1.6070 -0.8140  0.0459
  484MOL0     C66666  -0.414   0.589   5.353  1.0166  0.4914  0.2371
  484MOL0     C66667  -0.568   0.556   5.373  0.1751  0.4527  0.2458
  484MOL0     C66668  -0.582   0.441   5.472 -0.0650  0.3479  0.4986
  484MOL0     C66669  -0.721   0.408   5.521 -0.0458  0.5536 -0.2276
  484MOL0     C66670  -0.803   0.346   5.404 -0.3854 -0.4145 -0.1229
  484MOL0     N66671  -0.929   0.274   5.444 -0.4657  0.1080  0.4992
  484MOL0     C66672  -0.968   0.149   5.396 -0.6778  0.7451  1.0352
  484MOL0     C66673  -1.072   0.115   5.476 -0.0811 -0.0485 -0.2658
  484MOL0     C66674  -1.161   0.003   5.446 -0.5001  0.5238 -0.5190
  484MOL0     C66675  -1.149  -0.081   5.574  0.0040  0.3614 -0.3866
  484MOL0     C66676  -1.232  -0.197   5.537  0.9347  0.9257 -0.4256
  484MOL0     C66677  -1.256  -0.281   5.670 -0.1103 -0.5056  0.2446
  484MOL0     O66678  -1.312  -0.411   5.636 -0.0527 -0.1943 -0.0834
  484MOL0     C66679  -1.349  -0.500   5.733  0.0609 -0.1891 -0.1849
  484MOL0     C66680  -1.474  -0.499   5.793 -0.4196 -0.1633 -0.5653
  484MOL0     C66681  -1.496  -0.590   5.899 -0.2022  1.1240 -0.4970
  484MOL0     C66682  -1.633  -0.589   5.961  0.1445 -0.3870 -0.1046
  484MOL0     C66683  -1.404  -0.695   5.943  0.3575  0.3623 -0.5038
  484MOL0     C66684  -1.431  -0.806   6.037 -0.0485 -0.7486  0.7081
  484MOL0     O66685  -1.483  -0.789   6.149  0.3834 -0.0607 -0.2261
  484MOL0     C66686  -1.498  -0.902   6.230 -0.7446  0.7949  0.9442
  484MOL0     C66687  -1.381  -0.942   6.306  0.3577 -0.8794  0.2301
  484MOL0     C66688  -1.397  -1.068   6.379  0.7767 -0.2509  0.5680
  484MOL0     C66689  -1.519  -1.135   6.388  0.3569  0.6478  0.1590
  484MOL0     O66690  -1.523  -1.259   6.458 -0.0036 -0.6054  0.4933
  484MOL0     C66691  -1.470  -1.366   6.378 -0.4037 -1.5571 -0.2949
  484MOL0     C66692  -1.384  -1.451   6.459  0.8495 -0.5778 -1.4630
  484MOL0     C66693  -1.313  -1.562   6.379  0.1659 -0.5022 -0.6052
  484MOL0     C66694  -1.210  -1.630   6.467 -0.5926 -0.3703 -0.0203
  484MOL0     C66695  -1.160  -1.762   6.393  0.4395 -0.5899 -0.1829
  484MOL0     C66696  -1.278  -1.859   6.371 -0.3436 -0.3249  0.5208
  484MOL0     C66697  -1.236  -2.008   6.366 -0.0919  0.1159  0.4234
  484MOL0     C66698  -1.291  -2.066   6.238 -0.1844  0.3524 -0.1437
  484MOL0    Cl66699  -1.264  -2.235   6.237 -0.3261 -0.3955  0.3068
  484MOL0     C66700  -1.625  -1.088   6.306  0.8321 -0.3984 -0.1844
  484MOL0     C66701  -1.622  -0.969   6.229  0.5117 -0.5977 -0.5815
  484MOL0     O66702  -1.396  -0.919   5.997  0.4468  0.6550 -0.0232
  484MOL0     C66703  -1.279  -0.697   5.884 -0.5643  0.6375 -0.0471
  484MOL0     C66704  -1.251  -0.590   5.785 -0.0486 -1.5170  1.1172
  484MOL0     N66705  -1.100   0.209   5.563 -1.2095 -0.2426 -0.6480
  484MOL0     N66706  -1.013   0.310   5.539 -0.9706 -0.0193 -1.1472
  484MOL0     C66707  -0.125   0.664   5.762 -0.0497 -0.4646  0.7502
  484MOL0     C66708  -0.044   0.585   5.844  0.2226 -0.0653  0.5837
  484MOL0     C66709   0.154   0.217   6.035 -0.8710 -0.0176  0.4511
  484MOL0     C66710   0.092   0.198   6.164  1.0279  0.6759 -0.1221
  484MOL0     C66711   0.139   0.123   6.270  0.4228  1.0250  1.0182
  484MOL0     C66712   0.259   0.063   6.248  0.5360  1.1426  1.1043
  484MOL0     O66713   0.316  -0.021   6.334 -0.3191  0.4815 -0.4786
  484MOL0     C66714   0.233  -0.118   6.410  0.1729 -0.1330  0.6359
  484MOL0     C66715   0.302  -0.252   6.401  0.3868  0.4533 -0.9700
  484MOL0     C66716   0.274  -0.295   6.249 -0.6297 -1.0468 -0.0121
  484MOL0     C66717   0.351  -0.408   6.195  1.4653  0.0489 -0.1645
  484MOL0     C66718   0.387  -0.513   6.296  1.2714  0.7011 -0.3885
  484MOL0     C66719   0.455  -0.589   6.363 -0.0560  0.1544  0.1928
  484MOL0     C66720   0.328   0.075   6.128  0.8516  0.0361 -0.5968
  484MOL0     C66721   0.282   0.150   6.024 -0.2068  0.9587  0.7256
  484MOL0     C66722   0.354   0.157   5.898 -0.3260  0.1132  0.2195
  484MOL0     H66723  -0.260   0.323   5.886 -2.5434  1.5576  0.2491
  484MOL0     H66724  -0.393   0.458   5.749 -0.4876 -0.4924  1.0857
  484MOL0     H66725  -0.190   0.791   5.529  0.2619  2.5334 -2.1189
  484MOL0     H66726  -0.299   0.879   5.646  2.4056  0.7615 -0.7467
  484MOL0     H66727  -0.491   0.834   5.519 -0.5364  5.3840  0.1113
  484MOL0     H66728  -0.393   0.923   5.408  2.6859  0.1607  2.0866
  484MOL0     H66729  -0.492   0.761   5.274 -0.3940  0.0855 -1.3891
  484MOL0     H66730  -0.318   0.747   5.268 -0.2861 -4.5540  0.7058
  484MOL0     H66731  -0.376   0.544   5.261  0.4339  2.3233 -0.9749
  484MOL0     H66732  -0.353   0.557   5.437 -0.1513 -1.8961  0.2488
  484MOL0     H66733  -0.617   0.536   5.277 -1.2214 -1.5090  1.3017
  484MOL0     H66734  -0.619   0.647   5.407  1.6590  0.9872  1.1297
  484MOL0     H66735  -0.541   0.359   5.411 -1.9805  1.8137 -3.0366
  484MOL0     H66736  -0.507   0.441   5.551 -0.6412 -1.3591  1.1011
  484MOL0     H66737  -0.774   0.494   5.561  1.3657  1.7367 -0.8015
  484MOL0     H66738  -0.701   0.338   5.603  2.2730  2.6101  1.1023
  484MOL0     H66739  -0.829   0.431   5.340 -0.3949 -0.2783  0.0621
  484MOL0     H66740  -0.748   0.271   5.347  1.2499  1.2326 -0.8077
  484MOL0     H66741  -0.944   0.096   5.304 -1.0079 -1.3189  2.0785
  484MOL0     H66742  -1.113  -0.057   5.367  0.4564  1.9240 -1.0458
  484MOL0     H66743  -1.269   0.018   5.432 -1.0513 -0.9962  1.6071
  484MOL0     H66744  -1.051  -0.121   5.602  0.3437  1.3469 -0.1485
  484MOL0     H66745  -1.181  -0.028   5.663  0.2646  1.7073 -1.0685
  484MOL0     H66746  -1.332  -0.180   5.496  1.0943 -0.9618 -1.7264
  484MOL0     H66747  -1.187  -0.274   5.473 -3.1885 -5.0873  2.8651
  484MOL0     H66748  -1.155  -0.299   5.709  0.3615 -1.1893 -1.2450
  484MOL0     H66749  -1.321  -0.223   5.737 -1.5507 -2.0015  0.1938
  484MOL0     H66750  -1.544  -0.427   5.751  1.8477  1.3191 -2.0653
  484MOL0     H66751  -1.656  -0.691   5.996  2.9292  0.0998  3.7914
  484MOL0     H66752  -1.707  -0.550   5.891 -1.6343  2.4142  3.0278
  484MOL0     H66753  -1.640  -0.516   6.042 -0.9041  1.4319 -1.7546
  484MOL0     H66754  -1.294  -0.879   6.303  0.6333 -1.2587  0.1459
  484MOL0     H66755  -1.306  -1.106   6.425 -0.7538 -0.2967  3.8569
  484MOL0     H66756  -1.554  -1.423   6.337 -1.3442  0.2511 -1.0295
  484MOL0     H66757  -1.420  -1.321   6.292 -1.4874  2.8184  1.0906
  484MOL0     H66758  -1.316  -1.393   6.521 -1.8168 -1.2214  2.4490
  484MOL0     H66759  -1.464  -1.485   6.526  1.3699  3.3813  1.5846
  484MOL0     H66760  -1.254  -1.515   6.301 -1.9344  4.9260  0.6361
  484MOL0     H66761  -1.392  -1.624   6.336  0.0409  0.7152 -2.2154
  484MOL0     H66762  -1.236  -1.652   6.571  0.5442  1.5018  0.7308
  484MOL0     H66763  -1.120  -1.567   6.473 -1.6864  1.2358  0.0318
  484MOL0     H66764  -1.114  -1.751   6.294  0.1957 -0.8269 -0.3251
  484MOL0     H66765  -1.078  -1.812   6.445 -0.6701 -1.0648  1.1726
  484MOL0     H66766  -1.346  -1.830   6.291  1.1651  2.1676  0.0285
  484MOL0     H66767  -1.349  -1.857   6.454 -1.5521 -3.4861 -0.2985
  484MOL0     H66768  -1.286  -2.053   6.452 -1.5218  3.5768  1.5927
  484MOL0     H66769  -1.127  -2.010   6.378  0.1108  3.9665  0.2903
  484MOL0     H66770  -1.238  -2.020   6.154  0.1982  0.4550  0.1548
  484MOL0     H66771  -1.400  -2.059   6.233 -0.1858  2.1472  1.3745
  484MOL0     H66772  -1.718  -1.140   6.322  2.2844 -2.7394  1.3372
  484MOL0     H66773  -1.716  -0.936   6.186 -1.1216  0.0268  3.0232
  484MOL0     H66774  -1.211  -0.778   5.905 -0.9722  0.1820 -0.4603
  484MOL0     H66775  -1.163  -0.576   5.723 -1.7071 -1.0680 -1.2838
  484MOL0     H66776  -0.085   0.762   5.735 -1.1298  0.3134  1.8594
  484MOL0     H66777   0.059   0.614   5.861  0.7520 -1.3743 -0.2962
  484MOL0     H66778   0.005   0.260   6.184  0.7470  0.1925  0.1663
  484MOL0     H66779   0.087   0.093   6.360  1.8491  1.1544  1.9185
  484MOL0     H66780   0.230  -0.089   6.515 -1.5484 -1.4098  1.0013
  484MOL0     H66781   0.131  -0.117   6.370  1.0371 -0.4663 -1.7367
  484MOL0     H66782   0.259  -0.331   6.462 -1.4331 -0.1527 -2.9112
  484MOL0     H66783   0.406  -0.231   6.427  0.3651  1.6043 -1.7379
  484MOL0     H66784   0.166  -0.310   6.242 -1.0139  1.8801 -2.3481
  484MOL0     H66785   0.316  -0.217   6.184 -0.1072 -2.9866 -2.1576
  484MOL0     H66786   0.443  -0.364   6.155  1.2510  0.8807  0.2562
  484MOL0     H66787   0.291  -0.450   6.114  1.5216 -1.6439  0.6215
  484MOL0     H66788   0.510  -0.654   6.427  0.4442  1.1853  0.8394
  484MOL0     H66789   0.430   0.039   6.126  0.0937 -2.3810  0.1671
  484MOL0     H66790   0.461   0.142   5.917 -0.2675  0.0925 -0.1079
  484MOL0     H66791   0.312   0.078   5.836  0.4785  0.8880 -1.3854
  484MOL0     H66792   0.346   0.259   5.857  1.6056 -0.0215 -0.6392
  485MOL0     O66793   1.606   1.369   5.281  0.4665 -0.1635 -0.0733
  485MOL0     C66794   1.492   1.416   5.299 -0.1623  0.0944  0.3213
  485MOL0     O66795   1.413   1.387   5.414  0.2694 -0.4857  0.5550
  485MOL0     C66796   1.482   1.301   5.505 -0.0256 -0.8960 -0.5269
  485MOL0     C66797   1.525   1.346   5.633 -0.4386 -0.1430  0.8681
  485MOL0     C66798   1.590   1.254   5.720  0.2246 -1.0908 -0.4788
  485MOL0     C66799   1.597   1.122   5.687 -0.5349 -1.0147  0.6198
  485MOL0     O66800   1.685   1.043   5.750  0.9995 -0.7192  0.0996
  485MOL0     C66801   1.744   0.937   5.673  0.3482  1.4619 -0.3791
  485MOL0     C66802   1.861   0.895   5.767 -0.0013  0.0056 -0.3870
  485MOL0     C66803   1.799   0.820   5.896 -0.3237 -0.2858  0.3443
  485MOL0     C66804   1.914   0.762   5.980 -0.0541  0.9745  0.7097
  485MOL0     C66805   1.870   0.660   6.087 -0.2575 -1.2047 -0.3241
  485MOL0     C66806   1.949   0.647   6.219  0.5383  0.3658  0.3414
  485MOL0     C66807   2.084   0.574   6.179 -0.1990 -0.5944 -0.4725
  485MOL0     C66808   2.190   0.588   6.292  0.2196  0.1214 -0.7194
  485MOL0     N66809   2.308   0.493   6.285  0.0808 -0.1568  0.2610
  485MOL0     C66810   2.391   0.471   6.173 -0.2824 -0.6343 -0.1397
  485MOL0     C66811   2.472   0.370   6.213 -0.3417  0.7523  0.5172
  485MOL0     C66812   2.554   0.281   6.101 -0.0065  0.1517 -0.0642
  485MOL0     C66813   2.695   0.282   6.141  0.4426  0.3600  1.0841
  485MOL0     C66814   2.785   0.213   6.036  0.6542 -0.4782  0.4027
  485MOL0     C66815   2.927   0.243   6.063 -0.3760  0.4653  0.5302
  485MOL0     O66816   2.952   0.380   6.038 -0.1244 -0.1308 -1.0847
  485MOL0     C66817   3.092   0.405   6.048  0.4127  0.2656 -0.0237
  485MOL0     C66818   3.119   0.542   6.047 -0.2115  0.5620 -0.1365
  485MOL0     C66819   3.251   0.600   6.056 -0.0132  0.5409  0.2838
  485MOL0     C66820   3.273   0.751   6.027 -0.2693  0.1515  0.6608
  485MOL0     C66821   3.361   0.511   6.059 -0.4143  0.8792  0.3596
  485MOL0     C66822   3.508   0.552   6.062 -0.4614 -0.1949 -0.2427
  485MOL0     O66823   3.595   0.438   6.036  0.1616 -0.3555  0.5847
  485MOL0     C66824   3.738   0.456   6.039  0.2144 -0.6485  0.0259
  485MOL0     C66825   3.803   0.334   6.021 -0.4287 -0.0392 -0.5994
  485MOL0     C66826   3.943   0.327   6.001 -1.4420 -0.2118  0.2194
  485MOL0     C66827   4.019   0.448   6.005  0.3000  0.0195 -1.1978
  485MOL0     O66828   4.155   0.452   5.994 -0.2506 -0.2170 -0.0927
  485MOL0     C66829   4.240   0.339   6.007 -0.6957  0.3171 -0.2843
  485MOL0     C66830   4.384   0.383   5.987 -0.5302 -0.6440  0.5085
  485MOL0     C66831   4.469   0.262   5.984  0.0079 -1.1087 -0.4543
  485MOL0     C66832   4.616   0.302   6.011  0.0342  0.7442 -0.1666
  485MOL0     C66833   4.716   0.183   6.021 -0.1812  0.0134  0.2377
  485MOL0     C66834   4.781   0.159   5.887 -0.3903 -0.1827  0.0573
  485MOL0     C66835   4.687   0.099   5.791 -0.0904  0.2322  0.2569
  485MOL0     C66836   4.767   0.021   5.681  0.3062  0.8867  0.0214
  485MOL0    Cl66837   4.795  -0.145   5.752  0.1692  0.1408  0.0997
  485MOL0     C66838   3.956   0.567   6.029 -0.5737  0.0584  1.5969
  485MOL0     C66839   3.816   0.578   6.035 -0.1239 -0.0287 -1.3195
  485MOL0     O66840   3.542   0.664   6.097  0.5063 -0.0730 -0.1430
  485MOL0     C66841   3.335   0.368   6.049 -0.1525 -0.0501 -0.0035
  485MOL0     C66842   3.204   0.313   6.051  0.0970 -0.4767 -0.3255
  485MOL0     N66843   2.440   0.327   6.343 -0.1891  0.5350 -0.7300
  485MOL0     N66844   2.338   0.395   6.379 -0.1380  0.0091  0.2569
  485MOL0     C66845   1.544   1.076   5.564 -0.4451 -0.2210  0.0349
  485MOL0     C66846   1.493   1.166   5.471  0.4075 -0.3103 -0.3811
  485MOL0     C66847   1.451   1.520   5.199  0.4954  0.3578  0.1064
  485MOL0     C66848   1.340   1.598   5.227  0.1159 -0.1395 -0.4062
  485MOL0     C66849   1.297   1.702   5.143 -0.0478  0.9493 -0.3316
  485MOL0     C66850   1.365   1.732   5.023 -0.2826  0.6758  0.3650
  485MOL0     O66851   1.319   1.820   4.929  0.4706  0.0880 -0.0174
  485MOL0     C66852   1.415   1.918   4.897  0.3487 -0.4719  0.3351
  485MOL0     C66853   1.379   1.978   4.753 -0.2749  0.2016  0.4549
  485MOL0     C66854   1.398   1.884   4.637 -0.0090 -0.3665  0.2944
  485MOL0     C66855   1.355   1.942   4.498 -0.6937 -0.3171 -0.8400
  485MOL0     C66856   1.470   1.934   4.413 -0.8009  0.1024  1.6136
  485MOL0     C66857   1.565   1.935   4.336 -0.5185  0.4644 -0.0715
  485MOL0     C66858   1.482   1.653   4.997 -0.2002 -0.3933  1.3645
  485MOL0     C66859   1.516   1.543   5.074 -0.0171  0.6360 -0.9518
  485MOL0     C66860   1.637   1.467   5.026  0.4309  0.6682  0.1548
  485MOL0     H66861   1.510   1.447   5.668 -0.2118 -0.3453  1.5620
  485MOL0     H66862   1.624   1.288   5.817 -3.9366  1.2323  0.3770
  485MOL0     H66863   1.782   0.979   5.579 -1.0959  0.7041 -1.3436
  485MOL0     H66864   1.686   0.846   5.659 -0.2422  1.6442  0.7919
  485MOL0     H66865   1.930   0.829   5.715  1.9718  0.9872  0.8839
  485MOL0     H66866   1.923   0.982   5.793  0.8530 -0.0523 -2.1391
  485MOL0     H66867   1.733   0.888   5.951 -0.4302  0.1108 -0.2662
  485MOL0     H66868   1.740   0.732   5.869 -1.0262  0.0909  0.6313
  485MOL0     H66869   1.977   0.702   5.915 -2.1020 -0.3030 -0.1972
  485MOL0     H66870   1.972   0.844   6.023  0.9325  0.3364  0.6134
  485MOL0     H66871   1.852   0.562   6.042 -1.6674 -1.2477  0.2879
  485MOL0     H66872   1.771   0.698   6.114  0.8752  1.0904  0.8729
  485MOL0     H66873   1.966   0.745   6.263 -1.4653  0.8737  0.0805
  485MOL0     H66874   1.886   0.588   6.286  1.2527 -2.8281 -1.5610
  485MOL0     H66875   2.130   0.608   6.086 -0.3698 -3.6113 -1.7742
  485MOL0     H66876   2.075   0.466   6.169 -1.5947 -0.5717  0.2159
  485MOL0     H66877   2.227   0.690   6.283  0.3775  0.0864 -0.4724
  485MOL0     H66878   2.150   0.555   6.388 -1.0846  0.3247 -1.1739
  485MOL0     H66879   2.391   0.509   6.071  1.1297 -1.1782 -0.3621
  485MOL0     H66880   2.540   0.325   6.002  0.9122 -2.3474 -1.3565
  485MOL0     H66881   2.516   0.179   6.102 -1.7746  0.7617 -0.2319
  485MOL0     H66882   2.728   0.385   6.159  0.7510  0.7707 -1.5082
  485MOL0     H66883   2.704   0.212   6.225  1.3772 -0.9223 -0.0341
  485MOL0     H66884   2.765   0.107   6.055 -1.7858  0.4576  4.1585
  485MOL0     H66885   2.744   0.243   5.939 -2.4175 -0.3397  1.6141
  485MOL0     H66886   2.959   0.209   6.162 -1.2615 -2.7546 -0.1620
  485MOL0     H66887   2.981   0.184   5.988  0.1095  2.7122 -0.9945
  485MOL0     H66888   3.036   0.611   6.038  0.0347  0.9601  0.5383
  485MOL0     H66889   3.307   0.799   6.119 -3.0310 -0.7822  2.2946
  485MOL0     H66890   3.185   0.796   5.979  1.1669  2.5476  0.1173
  485MOL0     H66891   3.343   0.758   5.943 -2.5563  0.1286 -1.3858
  485MOL0     H66892   3.739   0.249   6.044  2.7998 -2.5577 -0.2464
  485MOL0     H66893   3.987   0.228   6.002  1.1444  0.8472  0.2783
  485MOL0     H66894   4.225   0.282   6.100  1.8131 -0.3291 -0.1980
  485MOL0     H66895   4.231   0.267   5.925 -0.2958  0.3044 -0.3200
  485MOL0     H66896   4.398   0.444   5.898 -0.6514 -0.0226  0.9059
  485MOL0     H66897   4.417   0.454   6.063 -3.9979 -0.0359  1.6494
  485MOL0     H66898   4.441   0.207   5.894 -2.5106  0.6606 -0.8675
  485MOL0     H66899   4.428   0.208   6.069 -0.0178 -0.8150 -0.2782
  485MOL0     H66900   4.595   0.339   6.112  1.8800  1.1720  0.0905
  485MOL0     H66901   4.646   0.389   5.952 -2.3854  2.0989  0.4424
  485MOL0     H66902   4.799   0.211   6.086 -0.1008 -0.1715  0.2163
  485MOL0     H66903   4.665   0.095   6.061  1.1869 -0.7796  0.3123
  485MOL0     H66904   4.865   0.093   5.906 -0.3550  0.1840  1.2166
  485MOL0     H66905   4.823   0.253   5.849 -0.3596 -0.8381 -1.6118
  485MOL0     H66906   4.643   0.189   5.747  0.3031  0.3727  0.1437
  485MOL0     H66907   4.616   0.040   5.849  0.8226 -0.3388  0.8185
  485MOL0     H66908   4.857   0.077   5.654  0.2804  0.0840 -1.9052
  485MOL0     H66909   4.702   0.017   5.592  0.5340 -1.0837 -0.1176
  485MOL0     H66910   4.010   0.657   6.056 -3.3225  1.2363  3.6221
  485MOL0     H66911   3.766   0.674   6.041 -0.3422 -0.1482 -1.1977
  485MOL0     H66912   3.412   0.293   6.064  0.4140  0.1733 -1.5749
  485MOL0     H66913   3.189   0.206   6.050  1.8366 -0.7853  1.6045
  485MOL0     H66914   1.546   0.971   5.535 -3.2645  0.5760 -3.8061
  485MOL0     H66915   1.458   1.123   5.378 -0.4395 -2.5102  0.8792
  485MOL0     H66916   1.284   1.572   5.317 -0.9724 -1.9047 -1.5233
  485MOL0     H66917   1.204   1.756   5.162 -0.7320  0.1866 -1.3755
  485MOL0     H66918   1.391   1.996   4.970  1.8325  2.7359 -2.3606
  485MOL0     H66919   1.517   1.887   4.921 -0.0989 -1.8632  0.5664
  485MOL0     H66920   1.452   2.057   4.728  2.3875 -2.5938 -1.3430
  485MOL0     H66921   1.275   2.010   4.757 -0.5914 -0.9455  1.6270
  485MOL0     H66922   1.501   1.848   4.628 -0.3260 -1.5163  1.0345
  485MOL0     H66923   1.337   1.794   4.650  2.0395 -1.5848  2.4516
  485MOL0     H66924   1.328   2.047   4.510 -0.9536 -0.6313  2.0427
  485MOL0     H66925   1.271   1.884   4.459 -3.9416  2.5405  1.2845
  485MOL0     H66926   1.650   1.927   4.272  1.3673 -1.7500  2.4552
  485MOL0     H66927   1.547   1.676   4.913 -3.9626  3.4432 -0.8810
  485MOL0     H66928   1.654   1.478   4.919  1.1423 -1.7320 -0.0259
  485MOL0     H66929   1.730   1.496   5.075  0.5915  1.1081 -0.4050
  485MOL0     H66930   1.620   1.363   5.055 -1.3712  0.6666 -0.7411
  486MOL0     O66931   4.790   8.157   2.036  0.4016 -0.4705  0.2529
  486MOL0     C66932   4.708   8.179   2.127  1.2273  0.0178 -0.3909
  486MOL0     O66933   4.718   8.283   2.215 -0.9481  0.1035  0.3899
  486MOL0     C66934   4.794   8.390   2.183 -0.2799  0.3277 -0.1842
  486MOL0     C66935   4.801   8.455   2.061 -0.4644 -1.0729  0.4980
  486MOL0     C66936   4.889   8.564   2.046  0.2740  0.1879  0.7429
  486MOL0     C66937   4.960   8.623   2.152  0.4296  0.7825  1.0692
  486MOL0     O66938   5.018   8.742   2.155 -0.0426  0.3592  0.7608
  486MOL0     C66939   4.998   8.845   2.067 -0.1256 -0.4573 -0.2411
  486MOL0     C66940   4.958   8.973   2.145 -0.4385 -0.2251 -0.3860
  486MOL0     C66941   4.929   9.107   2.056 -0.4578 -0.8711  0.2344
  486MOL0     C66942   4.779   9.095   2.017  0.8418 -0.2096 -0.0960
  486MOL0     C66943   4.722   9.190   1.903  0.1662 -0.3352  0.2100
  486MOL0     C66944   4.775   9.337   1.917 -0.6685 -0.3094 -0.1589
  486MOL0     C66945   4.726   9.424   1.795  1.0902  0.9865 -0.5548
  486MOL0     C66946   4.738   9.576   1.825  0.4351  0.5043 -0.1993
  486MOL0     N66947   4.669   9.664   1.722 -0.1348  0.2035 -0.8796
  486MOL0     C66948   4.728   9.711   1.606  0.3234 -0.5304 -0.3496
  486MOL0     C66949   4.641   9.806   1.552 -0.4571 -0.0320 -0.5421
  486MOL0     C66950   4.686   9.883   1.436  0.6746 -0.6760  0.3653
  486MOL0     C66951   4.645   9.796   1.312 -0.2295 -0.9035 -0.4054
  486MOL0     C66952   4.494   9.804   1.289  1.6977  0.3679  0.3791
  486MOL0     C66953   4.441   9.735   1.162  0.6816 -0.1271  0.5038
  486MOL0     O66954   4.494   9.600   1.161 -0.2402 -0.2505  0.0488
  486MOL0     C66955   4.578   9.572   1.053 -0.2863  0.6162 -0.7508
  486MOL0     C66956   4.532   9.589   0.919 -0.8707 -0.1819 -1.1142
  486MOL0     C66957   4.620   9.567   0.815  0.1185  0.5578 -0.0869
  486MOL0     C66958   4.554   9.581   0.681  0.4469  0.6375  0.4910
  486MOL0     C66959   4.760   9.530   0.833  0.9386 -0.4381 -0.2581
  486MOL0     C66960   4.855   9.538   0.722 -0.0467 -0.7126  0.0203
  486MOL0     O66961   4.850   9.652   0.649 -0.0467  1.1129 -0.1029
  486MOL0     C66962   4.957   9.704   0.572  0.2830  0.3043 -0.3707
  486MOL0     C66963   4.992   9.836   0.600 -0.0430 -0.8097 -0.6893
  486MOL0     C66964   5.087   9.901   0.531  0.4839  0.0883 -0.5711
  486MOL0     C66965   5.141   9.841   0.413 -0.7921  0.6714 -0.3672
  486MOL0     O66966   5.228   9.933   0.350  1.3456  0.9074  0.2973
  486MOL0     C66967   5.307   9.887   0.236  0.0204  1.1017 -1.8833
  486MOL0     C66968   5.454   9.860   0.274  0.1778 -0.6848  0.6519
  486MOL0     C66969   5.468   9.762   0.393  0.4524  0.6487  0.2049
  486MOL0     C66970   5.611   9.745   0.426  0.6248  0.4371  0.1615
  486MOL0     C66971   5.643   9.618   0.518  1.2461  0.1382  0.4403
  486MOL0     C66972   5.789   9.631   0.567 -0.1721 -0.4295 -0.3827
  486MOL0     C66973   5.822   9.515   0.660  0.6981  0.3626 -0.5263
  486MOL0     C66974   5.823   9.377   0.580 -0.3082 -0.6542  0.0667
  486MOL0    Cl66975   5.942   9.354   0.456 -0.2824  0.1626  0.1452
  486MOL0     C66976   5.096   9.712   0.373 -0.5481 -0.2924 -0.7974
  486MOL0     C66977   5.011   9.645   0.460 -0.0618 -0.4189  0.1905
  486MOL0     O66978   4.946   9.452   0.717 -0.3128 -0.0637  0.3649
  486MOL0     C66979   4.799   9.503   0.966 -0.2216  0.7244  0.9916
  486MOL0     C66980   4.710   9.516   1.081  0.2442  0.9459  0.7039
  486MOL0     N66981   4.533   9.810   1.647 -0.8940 -0.3254  0.2584
  486MOL0     N66982   4.553   9.721   1.740 -0.5696 -0.0075  0.6452
  486MOL0     C66983   4.959   8.559   2.269 -0.6814  0.0324  0.0174
  486MOL0     C66984   4.884   8.443   2.283  0.0896  0.8130 -0.4442
  486MOL0     C66985   4.600   8.082   2.167  0.0946  0.5358 -1.0181
  486MOL0     C66986   4.587   8.046   2.305 -0.0460  0.0442 -0.0252
  486MOL0     C66987   4.501   7.946   2.346 -0.3846 -0.5125 -0.0885
  486MOL0     C66988   4.404   7.889   2.262  0.5761 -0.9799  0.6516
  486MOL0     O66989   4.301   7.806   2.301 -0.3620  0.5460 -0.7623
  486MOL0     C66990   4.295   7.768   2.436 -0.5702 -0.4844 -0.5462
  486MOL0     C66991   4.153   7.721   2.461  0.6514  0.2119 -0.3234
  486MOL0     C66992   4.146   7.651   2.602 -0.1893  0.6432  0.2928
  486MOL0     C66993   4.027   7.552   2.623  0.0707 -0.1467 -0.0965
  486MOL0     C66994   3.898   7.609   2.609 -0.1493 -1.5368 -0.4164
  486MOL0     C66995   3.784   7.646   2.612  0.0729 -0.3540  0.7487
  486MOL0     C66996   4.420   7.925   2.126  0.0479 -0.5850 -0.5239
  486MOL0     C66997   4.507   8.025   2.077 -0.1692  0.6490 -0.7293
  486MOL0     C66998   4.519   8.047   1.929  0.8581 -0.2730  0.3711
  486MOL0     H66999   4.736   8.410   1.986  0.8486 -2.7525  0.2972
  486MOL0     H67000   4.879   8.621   1.954  1.2828  2.0454  1.7145
  486MOL0     H67001   4.915   8.814   2.003 -0.5384 -0.9296  0.5091
  486MOL0     H67002   5.077   8.865   1.994 -0.5502  1.6061 -0.1948
  486MOL0     H67003   4.874   8.953   2.212  1.8035 -1.1519  2.3681
  486MOL0     H67004   5.031   9.005   2.219 -1.4381 -2.2630  1.6053
  486MOL0     H67005   4.951   9.197   2.115  1.5624 -0.1339 -1.5369
  486MOL0     H67006   4.993   9.116   1.968 -1.1246  0.1596 -0.1534
  486MOL0     H67007   4.758   8.996   1.977 -0.7493 -0.1111  0.4213
  486MOL0     H67008   4.731   9.105   2.115 -0.8788 -0.3103 -0.9061
  486MOL0     H67009   4.612   9.188   1.906 -0.0198  3.4510  2.6656
  486MOL0     H67010   4.764   9.153   1.809 -1.3881  1.0254 -1.0795
  486MOL0     H67011   4.744   9.382   2.012  0.4257 -1.4256  0.7540
  486MOL0     H67012   4.884   9.338   1.912 -0.4825  1.2336  2.1946
  486MOL0     H67013   4.620   9.403   1.783  1.5178 -3.5883  1.6409
  486MOL0     H67014   4.773   9.395   1.700  0.6329  1.9963 -1.1100
  486MOL0     H67015   4.681   9.594   1.916 -1.9620  1.4536 -1.7727
  486MOL0     H67016   4.843   9.605   1.832 -0.0099  1.8989  1.2527
  486MOL0     H67017   4.824   9.677   1.569 -0.4378 -2.7995 -0.3491
  486MOL0     H67018   4.793   9.898   1.450  0.8177 -1.2027 -0.1550
  486MOL0     H67019   4.628   9.976   1.435 -1.5691 -2.0045  0.1403
  486MOL0     H67020   4.696   9.846   1.229 -0.7157 -2.4592 -1.6841
  486MOL0     H67021   4.689   9.696   1.309 -0.2191 -0.9133 -3.7858
  486MOL0     H67022   4.441   9.768   1.378  1.0594  0.7089  0.1500
  486MOL0     H67023   4.463   9.908   1.275 -0.7374 -0.4998 -1.5703
  486MOL0     H67024   4.332   9.732   1.163  0.5330  2.4393  1.8138
  486MOL0     H67025   4.472   9.794   1.075  2.0764 -1.4222  0.0717
  486MOL0     H67026   4.430   9.623   0.909 -0.9239  1.0228  2.1955
  486MOL0     H67027   4.612   9.546   0.595  0.5994  0.8040  0.5242
  486MOL0     H67028   4.538   9.689   0.668 -0.7981  0.3477 -0.7482
  486MOL0     H67029   4.457   9.530   0.673 -1.0077  3.0195  1.6830
  486MOL0     H67030   4.955   9.894   0.685 -2.2591  0.8937 -2.6542
  486MOL0     H67031   5.124   9.995   0.570  0.5179  0.6404 -1.8751
  486MOL0     H67032   5.272   9.793   0.192 -0.0676  0.2572 -0.0961
  486MOL0     H67033   5.285   9.967   0.165 -2.3712  1.9561 -0.3433
  486MOL0     H67034   5.499   9.831   0.179 -1.6666  0.9141 -0.8079
  486MOL0     H67035   5.498   9.958   0.295  0.9594 -0.3839 -2.1015
  486MOL0     H67036   5.418   9.667   0.370 -1.8046  1.7545  0.3060
  486MOL0     H67037   5.421   9.797   0.485  1.5505  1.3599  0.5147
  486MOL0     H67038   5.636   9.838   0.477  1.4189  0.8221 -0.8904
  486MOL0     H67039   5.675   9.732   0.338  0.4474 -2.2346  0.3405
  486MOL0     H67040   5.580   9.626   0.607  2.5927  1.6067  1.3196
  486MOL0     H67041   5.607   9.534   0.458 -1.7540  0.7716  1.1766
  486MOL0     H67042   5.778   9.723   0.625 -1.0633  0.0099 -1.2215
  486MOL0     H67043   5.862   9.642   0.487 -0.1987  2.5197 -0.0966
  486MOL0     H67044   5.759   9.495   0.746  1.8522 -0.3114  0.1890
  486MOL0     H67045   5.917   9.530   0.711 -0.1100  0.5935  0.9553
  486MOL0     H67046   5.723   9.353   0.545  0.1454 -1.3639 -0.7689
  486MOL0     H67047   5.854   9.296   0.646  0.7615 -0.5774 -0.3083
  486MOL0     H67048   5.128   9.668   0.280 -0.1440  0.8435 -1.2202
  486MOL0     H67049   4.973   9.550   0.424 -1.8006  0.3592 -0.1257
  486MOL0     H67050   4.898   9.460   0.978 -0.8264 -1.2613 -0.6067
  486MOL0     H67051   4.732   9.498   1.186 -2.0131  2.8116  1.5850
  486MOL0     H67052   5.024   8.596   2.347  1.9779 -2.0480 -1.0602
  486MOL0     H67053   4.874   8.397   2.380 -0.3245  1.2559 -0.2713
  486MOL0     H67054   4.652   8.071   2.389 -0.0440 -4.5696  1.6403
  486MOL0     H67055   4.506   7.927   2.452  0.7749  0.3602  0.0233
  486MOL0     H67056   4.372   7.695   2.462 -1.0740 -0.1246  2.2054
  486MOL0     H67057   4.315   7.851   2.504  0.0456 -2.6114  1.9999
  486MOL0     H67058   4.119   7.653   2.382  0.6210  0.4408 -0.5083
  486MOL0     H67059   4.087   7.808   2.454  2.7412  1.9608  0.5037
  486MOL0     H67060   4.228   7.580   2.618 -1.8978 -1.3168  0.8081
  486MOL0     H67061   4.158   7.726   2.681 -0.6007  0.3001  0.6885
  486MOL0     H67062   4.038   7.490   2.713  0.2271  0.2270  0.1458
  486MOL0     H67063   4.036   7.483   2.539  1.9270 -1.1198  0.8446
  486MOL0     H67064   3.688   7.694   2.605 -0.2702 -1.2297 -0.8028
  486MOL0     H67065   4.346   7.886   2.057 -2.2264  1.3929  0.6453
  486MOL0     H67066   4.522   8.154   1.908  2.9229  0.2581  2.8237
  486MOL0     H67067   4.616   8.009   1.896  1.0348 -1.3172  1.9653
  486MOL0     H67068   4.434   8.001   1.879 -2.3165  1.5986  3.5912
  487MOL0     O67069   3.357   6.952   8.792  0.3079 -1.2936 -0.7923
  487MOL0     C67070   3.452   7.016   8.740  0.2123 -1.3694 -0.1148
  487MOL0     O67071   3.471   7.149   8.742  0.6103  0.4795 -0.4336
  487MOL0     C67072   3.378   7.223   8.818 -0.0312 -0.0076 -0.5741
  487MOL0     C67073   3.322   7.345   8.762 -0.6771  0.2879 -0.8393
  487MOL0     C67074   3.261   7.436   8.847 -0.2707  0.1924 -0.5154
  487MOL0     C67075   3.247   7.408   8.986 -1.6247 -0.3010  1.0576
  487MOL0     O67076   3.207   7.492   9.088 -1.0692  0.2585 -0.8536
  487MOL0     C67077   3.140   7.609   9.044 -0.2034  0.0500 -0.1181
  487MOL0     C67078   2.997   7.570   8.988  0.5321 -0.0234 -0.4311
  487MOL0     C67079   2.966   7.657   8.866  1.1678  0.8439  0.2761
  487MOL0     C67080   2.826   7.664   8.806  0.8604  0.2017  0.4840
  487MOL0     C67081   2.827   7.740   8.671 -1.1199 -0.2669  0.9091
  487MOL0     C67082   2.690   7.782   8.615  0.3367 -0.2636 -0.0832
  487MOL0     C67083   2.580   7.677   8.647  0.2174  0.0689 -0.8434
  487MOL0     C67084   2.492   7.731   8.769 -0.8935  0.3342 -0.8508
  487MOL0     N67085   2.366   7.649   8.768  0.8513 -0.3088 -0.1469
  487MOL0     C67086   2.368   7.513   8.776  0.1719 -0.6596 -0.4459
  487MOL0     C67087   2.242   7.481   8.753  0.0559  0.0321  0.4011
  487MOL0     C67088   2.194   7.337   8.743  1.0763 -0.2275 -0.2181
  487MOL0     C67089   2.144   7.313   8.604  0.9511 -0.0543 -0.4271
  487MOL0     C67090   2.119   7.154   8.592 -0.1800  1.0979 -0.2467
  487MOL0     C67091   2.195   7.097   8.473  0.1662 -1.0363  0.5934
  487MOL0     O67092   2.336   7.090   8.489  0.6340  0.1279  0.7378
  487MOL0     C67093   2.414   7.037   8.392  0.6457  0.2391 -0.3357
  487MOL0     C67094   2.371   6.957   8.285  0.8458 -0.2433 -0.3252
  487MOL0     C67095   2.458   6.900   8.189  0.5100 -1.0282  0.0913
  487MOL0     C67096   2.402   6.830   8.068  0.3539 -0.6217  0.0945
  487MOL0     C67097   2.596   6.923   8.208 -0.6738 -0.6282 -0.5024
  487MOL0     C67098   2.704   6.886   8.114  0.1401  0.8532  0.5585
  487MOL0     O67099   2.684   6.852   7.985  0.5208  0.1208  0.6167
  487MOL0     C67100   2.768   6.919   7.911  0.2422  1.3374  0.2429
  487MOL0     C67101   2.738   7.053   7.876 -1.0036  0.7153 -0.6279
  487MOL0     C67102   2.829   7.135   7.809 -0.1889 -1.0379  0.4335
  487MOL0     C67103   2.946   7.079   7.756  0.3849  0.5087 -0.9489
  487MOL0     O67104   3.043   7.141   7.689 -0.7730 -0.0603  0.1616
  487MOL0     C67105   3.048   7.282   7.704  0.3096  1.1464 -0.4691
  487MOL0     C67106   3.165   7.353   7.630  0.3632  0.3572  0.1109
  487MOL0     C67107   3.153   7.509   7.632  0.7423  1.0509 -0.0064
  487MOL0     C67108   3.170   7.558   7.485 -0.0636 -0.4792 -0.1391
  487MOL0     C67109   3.194   7.710   7.472 -0.4453 -0.3121  0.2147
  487MOL0     C67110   3.305   7.767   7.570  0.4882  0.7344  1.0210
  487MOL0     C67111   3.343   7.919   7.526 -0.5777  0.9771  0.4370
  487MOL0     C67112   3.457   7.988   7.611  0.1494 -1.3697 -0.2818
  487MOL0    Cl67113   3.430   7.955   7.790 -0.3495 -0.1628  0.0611
  487MOL0     C67114   2.971   6.950   7.783  0.7809  1.0034 -0.1718
  487MOL0     C67115   2.883   6.867   7.850 -0.1023  0.9308  1.4151
  487MOL0     O67116   2.817   6.895   8.160 -0.3784  0.0716 -0.7601
  487MOL0     C67117   2.638   7.002   8.318 -0.1845 -0.3645  0.1856
  487MOL0     C67118   2.551   7.044   8.415 -0.3343  0.2279  0.3042
  487MOL0     N67119   2.166   7.599   8.754  0.5747 -0.2849 -0.0536
  487MOL0     N67120   2.241   7.695   8.756  0.3075 -0.3341  0.3284
  487MOL0     C67121   3.299   7.286   9.034 -0.2959 -1.3122 -0.5692
  487MOL0     C67122   3.372   7.201   8.951 -0.3738  0.4185  0.2287
  487MOL0     C67123   3.553   6.945   8.669  0.4372 -0.9477  0.1476
  487MOL0     C67124   3.639   7.020   8.580 -0.0811  0.2835 -0.4217
  487MOL0     C67125   3.741   6.957   8.511  0.0988 -0.0258  0.8566
  487MOL0     C67126   3.765   6.819   8.524  0.1531  0.0859 -1.0270
  487MOL0     O67127   3.858   6.764   8.447 -0.5810 -0.1850 -0.4564
  487MOL0     C67128   3.856   6.623   8.430  0.6486 -0.5799 -0.8047
  487MOL0     C67129   3.924   6.584   8.296  0.4269  0.3103  0.4510
  487MOL0     C67130   4.069   6.625   8.272 -0.3144  0.2339 -0.0999
  487MOL0     C67131   4.099   6.625   8.124  0.1549 -0.5465 -0.0617
  487MOL0     C67132   4.248   6.641   8.114 -0.6983 -0.1883  0.0805
  487MOL0     C67133   4.365   6.680   8.124 -0.2477  0.5184 -0.5783
  487MOL0     C67134   3.686   6.743   8.623 -0.5745  0.6380 -0.2695
  487MOL0     C67135   3.581   6.807   8.688  0.6416  0.2381  0.2892
  487MOL0     C67136   3.516   6.726   8.805  0.1910  0.1381  0.3790
  487MOL0     H67137   3.332   7.361   8.656  3.6936  0.6949 -0.5249
  487MOL0     H67138   3.236   7.535   8.809  0.3726 -0.1687 -1.9499
  487MOL0     H67139   3.201   7.654   8.966  1.3648 -3.0670 -0.8261
  487MOL0     H67140   3.139   7.682   9.126  0.3387  0.6904 -0.6720
  487MOL0     H67141   2.966   7.471   8.955 -2.6693  0.7030  0.0375
  487MOL0     H67142   2.915   7.588   9.058  0.9822  0.4004 -0.0031
  487MOL0     H67143   3.000   7.758   8.887  1.8583  0.8869 -0.9554
  487MOL0     H67144   3.031   7.613   8.789 -1.6521 -1.0548 -1.1850
  487MOL0     H67145   2.786   7.563   8.792  0.0114  0.7184 -1.1026
  487MOL0     H67146   2.770   7.726   8.877 -1.1082 -0.8834 -0.0294
  487MOL0     H67147   2.879   7.677   8.598 -1.0027  2.7995 -1.8693
  487MOL0     H67148   2.884   7.832   8.685  0.5845 -0.7294 -2.0949
  487MOL0     H67149   2.666   7.875   8.667  0.1268 -1.1659  1.4892
  487MOL0     H67150   2.682   7.788   8.506 -1.4274 -2.3650 -0.1392
  487MOL0     H67151   2.618   7.576   8.666 -0.7882 -0.2101 -0.2161
  487MOL0     H67152   2.505   7.668   8.567  0.4340  0.9827 -1.1606
  487MOL0     H67153   2.540   7.733   8.867  0.2598  2.4803 -1.3957
  487MOL0     H67154   2.457   7.832   8.745 -2.6276 -0.3015 -1.1356
  487MOL0     H67155   2.444   7.438   8.795  2.0213  1.0694 -0.5511
  487MOL0     H67156   2.118   7.309   8.817  1.0340  0.3720 -0.0225
  487MOL0     H67157   2.283   7.276   8.760  0.1380 -1.9937 -1.3459
  487MOL0     H67158   2.040   7.345   8.600  1.1174  1.3080  2.7566
  487MOL0     H67159   2.212   7.337   8.522  1.3764 -1.5995 -0.5677
  487MOL0     H67160   2.155   7.107   8.684 -1.0495  0.7251 -0.0915
  487MOL0     H67161   2.012   7.132   8.584 -0.0277  0.2327  0.0171
  487MOL0     H67162   2.153   7.000   8.444 -1.2397  0.3633 -2.4845
  487MOL0     H67163   2.182   7.162   8.386 -1.6634 -1.0097  0.8528
  487MOL0     H67164   2.264   6.946   8.269  0.4353  1.7647  0.7543
  487MOL0     H67165   2.449   6.862   7.974 -0.3699 -3.7293 -1.4246
  487MOL0     H67166   2.297   6.855   8.054  0.1059 -2.4362 -1.7374
  487MOL0     H67167   2.406   6.721   8.076 -1.9578 -0.6496  1.4989
  487MOL0     H67168   2.644   7.089   7.917 -0.1827 -1.1818  3.3806
  487MOL0     H67169   2.790   7.234   7.786  1.9991 -0.0794  0.5282
  487MOL0     H67170   2.954   7.319   7.664 -0.4888  0.4948  0.7373
  487MOL0     H67171   3.051   7.310   7.810 -2.3389  1.2044 -0.3475
  487MOL0     H67172   3.256   7.312   7.674 -1.0120 -0.8216  2.0398
  487MOL0     H67173   3.168   7.315   7.528 -0.0306  2.8209 -0.8889
  487MOL0     H67174   3.229   7.551   7.699  1.3260  2.0469 -1.2540
  487MOL0     H67175   3.051   7.536   7.660  0.3572 -1.5511  1.4402
  487MOL0     H67176   3.087   7.525   7.421 -1.3105 -3.0717  2.6078
  487MOL0     H67177   3.254   7.505   7.438 -2.4563 -2.7936 -2.1299
  487MOL0     H67178   3.215   7.729   7.367 -2.5869  1.7506  0.0637
  487MOL0     H67179   3.113   7.777   7.502 -0.6967 -1.8154  3.2618
  487MOL0     H67180   3.392   7.701   7.568  0.0483  0.1714  0.5483
  487MOL0     H67181   3.268   7.768   7.673  1.9895 -2.1939  1.7046
  487MOL0     H67182   3.250   7.971   7.549 -1.2983  0.3893 -1.0315
  487MOL0     H67183   3.369   7.925   7.420 -1.3320  0.0094  0.1903
  487MOL0     H67184   3.449   8.097   7.607  0.3550 -1.1242  3.1959
  487MOL0     H67185   3.559   7.958   7.585 -0.5385 -5.2140  0.8246
  487MOL0     H67186   3.063   6.907   7.745  0.0025 -0.1046 -0.8735
  487MOL0     H67187   2.904   6.760   7.849 -2.4605  0.4267  0.5271
  487MOL0     H67188   2.743   7.028   8.331 -0.2901 -0.6978  2.0196
  487MOL0     H67189   2.598   7.090   8.502  1.1424 -1.6788  0.5870
  487MOL0     H67190   3.285   7.254   9.137 -0.3492 -0.1523 -0.2059
  487MOL0     H67191   3.416   7.106   8.981  1.1321  0.6321 -1.1439
  487MOL0     H67192   3.624   7.126   8.559 -2.4053  0.3207  1.0829
  487MOL0     H67193   3.804   7.000   8.434 -0.3231 -0.7268  0.1009
  487MOL0     H67194   3.910   6.581   8.516 -2.7407 -1.7897  0.8960
  487MOL0     H67195   3.758   6.578   8.443 -0.2897  1.7827  1.0514
  487MOL0     H67196   3.869   6.642   8.221 -1.6018 -0.2991  1.4046
  487MOL0     H67197   3.906   6.476   8.289  0.6527 -0.0670  3.8815
  487MOL0     H67198   4.078   6.723   8.319 -1.3359 -0.0355  0.6913
  487MOL0     H67199   4.135   6.549   8.316  1.5233 -0.7895 -4.1644
  487MOL0     H67200   4.038   6.704   8.080  1.3527 -1.5412 -3.9291
  487MOL0     H67201   4.061   6.531   8.083 -2.0483  1.1179 -2.1087
  487MOL0     H67202   4.469   6.704   8.129 -0.8276  3.3197 -0.0892
  487MOL0     H67203   3.720   6.644   8.653 -0.2010  0.4189 -1.3768
  487MOL0     H67204   3.507   6.788   8.895  0.0410  1.8479 -0.7686
  487MOL0     H67205   3.411   6.706   8.782  0.6592 -0.8732 -1.0268
  487MOL0     H67206   3.577   6.638   8.830 -2.9025 -2.5402 -0.7474
  488MOL0     O67207   1.941   0.468   9.445  0.2724  0.8524 -0.3277
  488MOL0     C67208   1.976   0.564   9.513  0.7689  0.6609 -0.6610
  488MOL0     O67209   1.914   0.610   9.628 -0.1326 -0.2491 -0.7391
  488MOL0     C67210   1.828   0.538   9.709  0.2708  0.1967 -0.0593
  488MOL0     C67211   1.879   0.421   9.775  0.3920  0.8089 -0.3568
  488MOL0     C67212   1.787   0.349   9.861 -0.4400  0.9093 -0.2305
  488MOL0     C67213   1.653   0.386   9.866  0.7937  0.8549 -0.2217
  488MOL0     O67214   1.553   0.311   9.925  0.0641 -0.3293 -0.2012
  488MOL0     C67215   1.575   0.173   9.968 -0.6896  0.4114  0.2053
  488MOL0     C67216   1.480   0.129  10.078  0.1762 -0.3656 -0.2501
  488MOL0     C67217   1.479  -0.022  10.098 -0.0442 -0.2881 -0.1568
  488MOL0     C67218   1.364  -0.071  10.176  0.7874 -0.4473  0.0738
  488MOL0     C67219   1.373  -0.221  10.185 -0.7591 -0.1686  0.4940
  488MOL0     C67220   1.238  -0.284  10.188 -0.3302 -1.0178 -1.2638
  488MOL0     C67221   1.245  -0.424  10.230 -0.0626  0.9338 -0.3899
  488MOL0     C67222   1.110  -0.493  10.237  0.0134 -0.0828 -0.4074
  488MOL0     N67223   1.099  -0.642  10.249  0.4347  0.4798 -0.0127
  488MOL0     C67224   1.150  -0.722  10.353 -0.2859 -0.5825 -0.3241
  488MOL0     C67225   1.127  -0.846  10.309  0.0922 -0.2369  0.4450
  488MOL0     C67226   1.175  -0.964  10.388 -1.0369  0.9297  0.5019
  488MOL0     C67227   1.193  -1.099  10.306  0.8034 -0.5049  0.0955
  488MOL0     C67228   1.337  -1.099  10.246 -0.1233 -0.0625 -0.7499
  488MOL0     C67229   1.343  -1.207  10.133 -0.4062 -0.2949  1.1167
  488MOL0     O67230   1.466  -1.193  10.057  0.5401 -0.0981  0.2298
  488MOL0     C67231   1.466  -1.124   9.943 -0.7769  0.3250  0.2486
  488MOL0     C67232   1.581  -1.148   9.868  0.6432 -1.0882  0.2912
  488MOL0     C67233   1.599  -1.080   9.744 -0.7426  0.2384 -0.5700
  488MOL0     C67234   1.701  -1.140   9.650  0.6923  0.6864 -0.1147
  488MOL0     C67235   1.518  -0.972   9.712  0.0002  0.6039  0.3557
  488MOL0     C67236   1.538  -0.879   9.600  0.0407  0.2849  0.0090
  488MOL0     O67237   1.440  -0.888   9.511  0.0084 -0.0003 -0.2429
  488MOL0     C67238   1.439  -0.779   9.432 -0.0113  0.6904 -0.5555
  488MOL0     C67239   1.412  -0.658   9.495  0.0429 -0.5555 -0.2877
  488MOL0     C67240   1.430  -0.550   9.420  0.1900  0.3463  0.5076
  488MOL0     C67241   1.461  -0.563   9.283  0.3622 -0.7082  0.5348
  488MOL0     O67242   1.469  -0.452   9.211 -0.0358  0.7170 -0.1426
  488MOL0     C67243   1.367  -0.352   9.200 -1.4157 -0.3160 -0.4720
  488MOL0     C67244   1.403  -0.284   9.064  0.4019  0.9335  0.3833
  488MOL0     C67245   1.326  -0.150   9.043 -0.1769 -0.2529 -0.1032
  488MOL0     C67246   1.182  -0.174   9.008  0.1957 -0.5492  0.2540
  488MOL0     C67247   1.100  -0.033   9.019 -0.7420  0.6492 -0.3389
  488MOL0     C67248   0.944  -0.058   9.026 -0.8323 -0.4679  0.6415
  488MOL0     C67249   0.870   0.074   9.051  0.7421 -1.7306 -0.2146
  488MOL0     C67250   0.914   0.191   8.960  0.1780  0.7550  0.6710
  488MOL0    Cl67251   0.854   0.146   8.793 -0.1020  0.0704  0.7390
  488MOL0     C67252   1.488  -0.682   9.225  0.0467  0.1545  0.7398
  488MOL0     C67253   1.478  -0.801   9.299  0.7541 -0.1430  0.5572
  488MOL0     O67254   1.635  -0.802   9.603 -0.1759 -0.4999 -0.5535
  488MOL0     C67255   1.400  -0.951   9.785  0.7207  0.3750  0.0254
  488MOL0     C67256   1.373  -1.037   9.889  0.4327  0.3592 -0.2778
  488MOL0     N67257   1.050  -0.845  10.192 -0.7913 -0.4766 -0.8260
  488MOL0     N67258   1.046  -0.723  10.153 -0.0616  0.2799 -0.0155
  488MOL0     C67259   1.602   0.484   9.782  0.0505 -0.1012  0.2270
  488MOL0     C67260   1.696   0.574   9.717  0.2078 -0.5989  0.2025
  488MOL0     C67261   2.092   0.630   9.471 -0.0956  0.1712  0.9515
  488MOL0     C67262   2.107   0.650   9.331  0.1898 -0.7039 -0.3593
  488MOL0     C67263   2.208   0.735   9.281 -0.2264  0.1947 -0.2825
  488MOL0     C67264   2.301   0.784   9.360 -0.0235 -0.7795 -0.8173
  488MOL0     O67265   2.389   0.864   9.294 -0.4204 -0.1019 -0.2916
  488MOL0     C67266   2.357   1.006   9.281 -0.1052 -0.0101  0.3472
  488MOL0     C67267   2.393   1.066   9.147  0.7261  0.1178  0.5909
  488MOL0     C67268   2.284   1.048   9.035  0.4753  0.2124 -0.2094
  488MOL0     C67269   2.301   1.147   8.920 -0.3217  0.8098  0.2581
  488MOL0     C67270   2.182   1.133   8.825  0.6027  0.2313 -0.2291
  488MOL0     C67271   2.082   1.126   8.758  0.0905  0.3232 -0.1774
  488MOL0     C67272   2.292   0.763   9.499 -0.4980 -0.6734  0.2931
  488MOL0     C67273   2.187   0.690   9.554  0.4862  0.1314 -0.3145
  488MOL0     C67274   2.168   0.689   9.705  0.3839 -0.0496  1.1587
  488MOL0     H67275   1.982   0.392   9.757 -0.6761 -4.0600 -0.0959
  488MOL0     H67276   1.825   0.264   9.917 -1.6855  1.3976  1.4212
  488MOL0     H67277   1.672   0.155  10.015  0.2461  0.5992 -1.5538
  488MOL0     H67278   1.563   0.094   9.892  0.9729  2.4161 -2.3310
  488MOL0     H67279   1.521   0.192  10.159  1.4646 -0.5741 -0.7097
  488MOL0     H67280   1.376   0.151  10.054  0.7627  2.9117 -0.3230
  488MOL0     H67281   1.495  -0.077  10.005 -0.5817 -2.9721  1.2425
  488MOL0     H67282   1.568  -0.042  10.158  0.1033 -1.8382 -0.8507
  488MOL0     H67283   1.367  -0.030  10.278  0.5193  0.8623 -0.4178
  488MOL0     H67284   1.274  -0.050  10.118  2.1438 -1.7041 -2.6727
  488MOL0     H67285   1.418  -0.260  10.277  1.5187 -3.7568 -1.8410
  488MOL0     H67286   1.438  -0.274  10.115 -1.2659 -0.2815  0.1057
  488MOL0     H67287   1.184  -0.242  10.273  0.2119  0.6872 -1.7104
  488MOL0     H67288   1.210  -0.276  10.083  0.2809  2.4115 -1.2780
  488MOL0     H67289   1.294  -0.444  10.325 -0.7072  1.8065  0.1384
  488MOL0     H67290   1.313  -0.479  10.164  0.8818 -0.4839  1.6780
  488MOL0     H67291   1.050  -0.445  10.314  1.4043  2.8496 -1.0267
  488MOL0     H67292   1.057  -0.465  10.146  0.8966  1.1568 -0.5656
  488MOL0     H67293   1.206  -0.689  10.440 -0.1545  4.9174 -2.0996
  488MOL0     H67294   1.104  -0.978  10.470  2.5041  0.4140  3.7483
  488MOL0     H67295   1.267  -0.931  10.437 -0.7732  0.3831  0.3818
  488MOL0     H67296   1.182  -1.166  10.392  1.2997  3.3012  3.4165
  488MOL0     H67297   1.114  -1.120  10.233 -0.3626  3.3989 -0.0055
  488MOL0     H67298   1.364  -1.004  10.200 -1.6502 -0.6515 -3.0230
  488MOL0     H67299   1.415  -1.111  10.321  0.0448  2.1497 -0.5087
  488MOL0     H67300   1.353  -1.306  10.179 -1.9435 -0.4711  1.0955
  488MOL0     H67301   1.257  -1.194  10.068 -2.2693  1.2039  3.6735
  488MOL0     H67302   1.645  -1.223   9.912 -0.0283 -0.0870  3.2443
  488MOL0     H67303   1.777  -1.067   9.620  3.4810 -2.4736 -1.4697
  488MOL0     H67304   1.651  -1.192   9.567  2.1424 -4.7744  1.9903
  488MOL0     H67305   1.762  -1.221   9.692  0.3113 -0.7653 -2.1653
  488MOL0     H67306   1.392  -0.644   9.601 -1.8027  3.0384 -0.9666
  488MOL0     H67307   1.430  -0.447   9.453 -1.3443  0.5500 -0.0398
  488MOL0     H67308   1.262  -0.379   9.208 -2.2652  2.0962 -2.2093
  488MOL0     H67309   1.382  -0.271   9.273 -1.6725 -0.8957  0.2304
  488MOL0     H67310   1.508  -0.254   9.054 -0.1134  2.5121 -0.8743
  488MOL0     H67311   1.384  -0.352   8.981  3.6399 -0.9961  1.0394
  488MOL0     H67312   1.367  -0.083   8.967 -0.7260 -1.5351 -1.5635
  488MOL0     H67313   1.323  -0.080   9.128 -0.7659  0.9345 -1.0744
  488MOL0     H67314   1.140  -0.235   9.089  2.3916 -0.6635  1.4010
  488MOL0     H67315   1.152  -0.214   8.911  0.0020 -0.6863  0.3693
  488MOL0     H67316   1.135   0.021   9.107  2.5965 -0.7401 -0.6654
  488MOL0     H67317   1.129   0.020   8.927  2.8672 -1.7868 -0.8477
  488MOL0     H67318   0.931  -0.114   9.119  0.4058  4.1550  3.9850
  488MOL0     H67319   0.893  -0.102   8.940 -1.9332 -0.9245  1.4954
  488MOL0     H67320   0.898   0.114   9.150  0.4990  2.2942 -1.5834
  488MOL0     H67321   0.761   0.069   9.057  0.5999  0.1209 -0.4394
  488MOL0     H67322   1.018   0.220   8.975  1.2964 -2.5322  0.0770
  488MOL0     H67323   0.849   0.274   8.990 -0.1666 -0.4512  3.6507
  488MOL0     H67324   1.514  -0.683   9.120  2.5590 -1.6421  1.2765
  488MOL0     H67325   1.514  -0.902   9.280 -1.1648 -0.2659 -3.5179
  488MOL0     H67326   1.335  -0.867   9.762  0.6466  0.4555  0.5189
  488MOL0     H67327   1.282  -1.013   9.944 -0.3298 -2.9195  0.1022
  488MOL0     H67328   1.494   0.483   9.768  0.2159 -1.5718 -1.2110
  488MOL0     H67329   1.652   0.653   9.658 -0.2623 -1.4102 -0.5589
  488MOL0     H67330   2.026   0.625   9.263  0.9838 -2.1480 -0.8211
  488MOL0     H67331   2.211   0.748   9.173 -1.7823 -1.0373 -0.5070
  488MOL0     H67332   2.254   1.025   9.314 -0.3494 -2.6530  1.3676
  488MOL0     H67333   2.430   1.065   9.336 -1.4750  4.2193 -1.9765
  488MOL0     H67334   2.484   1.015   9.113  0.8497  1.0258 -0.5031
  488MOL0     H67335   2.418   1.172   9.155 -0.5450  0.5193 -0.3781
  488MOL0     H67336   2.265   0.945   9.004 -1.0939  1.2013 -2.8485
  488MOL0     H67337   2.182   1.075   9.066  0.9230  2.4817 -0.5532
  488MOL0     H67338   2.387   1.135   8.854 -2.3246  2.4737 -2.9158
  488MOL0     H67339   2.298   1.250   8.956  0.5528  1.7954 -2.2776
  488MOL0     H67340   1.994   1.092   8.707  0.5903 -1.5174  0.1058
  488MOL0     H67341   2.379   0.807   9.547  0.5843 -2.9821  0.5721
  488MOL0     H67342   2.267   0.705   9.749  1.8270 -0.5235 -1.6821
  488MOL0     H67343   2.093   0.761   9.739 -0.1063 -0.3054  0.6407
  488MOL0     H67344   2.139   0.587   9.731 -1.8025 -0.2287 -1.4476
  489MOL0     O67345   5.926   8.968   9.563  0.0773  0.4060 -0.5901
  489MOL0     C67346   6.042   8.923   9.576  0.0872  0.8711  0.2370
  489MOL0     O67347   6.144   8.957   9.490 -0.5502  1.1418  0.4984
  489MOL0     C67348   6.145   9.073   9.417  0.3650  0.2437  0.4773
  489MOL0     C67349   6.217   9.075   9.299 -0.5469 -0.5394 -0.6078
  489MOL0     C67350   6.223   9.180   9.209 -1.0026  0.4017 -0.1269
  489MOL0     C67351   6.165   9.301   9.246 -0.4784 -0.3567  0.0131
  489MOL0     O67352   6.203   9.408   9.170 -0.6971  0.3133 -0.0827
  489MOL0     C67353   6.189   9.528   9.244 -0.3257  0.0698 -0.2444
  489MOL0     C67354   6.261   9.630   9.163 -0.3271 -0.2888  0.6883
  489MOL0     C67355   6.384   9.690   9.232  0.4807  0.6598 -0.7256
  489MOL0     C67356   6.337   9.803   9.324  0.9320  0.7579  0.0853
  489MOL0     C67357   6.462   9.852   9.397 -0.9449 -0.7088 -0.4709
  489MOL0     C67358   6.516   9.766   9.518  0.3279 -0.5404 -0.0632
  489MOL0     C67359   6.646   9.840   9.567  1.1329  0.7609 -0.8814
  489MOL0     C67360   6.770   9.782   9.517  0.3552 -0.8222  0.5933
  489MOL0     N67361   6.776   9.642   9.504  0.0166  1.2998  0.0047
  489MOL0     C67362   6.758   9.570   9.387 -0.7002  0.0416 -0.5390
  489MOL0     C67363   6.758   9.443   9.425  0.4363 -0.3237 -0.6102
  489MOL0     C67364   6.717   9.327   9.335 -0.9064 -0.1213  0.8408
  489MOL0     C67365   6.827   9.297   9.223 -0.0128  0.2489 -0.5133
  489MOL0     C67366   6.976   9.297   9.267 -0.0087  0.1384  0.1441
  489MOL0     C67367   6.997   9.231   9.414 -0.4060  0.4730 -0.4937
  489MOL0     O67368   7.131   9.180   9.413  0.0536 -0.9462  1.2377
  489MOL0     C67369   7.222   9.199   9.514  0.0980 -0.3028 -0.4306
  489MOL0     C67370   7.181   9.188   9.647 -0.0751 -0.0172  1.0577
  489MOL0     C67371   7.271   9.192   9.749 -0.2904  0.0821 -0.3553
  489MOL0     C67372   7.218   9.172   9.888 -0.2557  0.4341  0.4756
  489MOL0     C67373   7.412   9.206   9.726  0.1485 -1.3403 -0.3623
  489MOL0     C67374   7.508   9.179   9.825  0.6588 -0.4736 -0.8994
  489MOL0     O67375   7.627   9.242   9.807  0.1087  0.4086  1.0281
  489MOL0     C67376   7.718   9.214   9.908 -0.1569 -0.4137 -0.0441
  489MOL0     C67377   7.851   9.197   9.878  0.5294  0.3384 -0.3097
  489MOL0     C67378   7.948   9.189   9.977 -0.3878 -1.0422  0.2122
  489MOL0     C67379   7.916   9.212  10.112  0.2122  0.3433  0.2913
  489MOL0     O67380   8.004   9.236  10.210 -1.0150 -0.8864  0.1415
  489MOL0     C67381   8.073   9.124  10.267  0.2868  0.8154 -0.5073
  489MOL0     C67382   8.178   9.147  10.379 -0.2903  1.0663 -0.1824
  489MOL0     C67383   8.272   9.263  10.343  0.2587  0.5885 -0.4480
  489MOL0     C67384   8.380   9.290  10.451 -0.0393 -0.0288 -0.9701
  489MOL0     C67385   8.456   9.170  10.499  0.0030  0.2572 -0.7206
  489MOL0     C67386   8.594   9.223  10.570 -0.2770 -0.2216  0.0386
  489MOL0     C67387   8.578   9.333  10.678  0.5063 -0.1634 -0.1798
  489MOL0     C67388   8.710   9.355  10.753 -0.7574 -0.0237  1.1132
  489MOL0    Cl67389   8.825   9.453  10.652  0.0941  0.1880  0.4265
  489MOL0     C67390   7.779   9.239  10.145 -0.3314  0.4926  0.4637
  489MOL0     C67391   7.680   9.234  10.046  0.9155 -0.9494  0.1063
  489MOL0     O67392   7.484   9.087   9.899 -0.6566  0.6175  0.2679
  489MOL0     C67393   7.453   9.238   9.599 -0.6318 -0.5682  1.6119
  489MOL0     C67394   7.361   9.231   9.496 -0.0515  0.5080 -0.0176
  489MOL0     N67395   6.784   9.448   9.560  0.1863 -0.1738 -0.7430
  489MOL0     N67396   6.794   9.564   9.613  0.2043  0.2884 -0.5722
  489MOL0     C67397   6.081   9.297   9.362  0.6613  0.1335 -0.4877
  489MOL0     C67398   6.071   9.185   9.446  0.1156  0.6445 -0.5170
  489MOL0     C67399   6.067   8.802   9.662  0.0962 -0.0197  1.3300
  489MOL0     C67400   5.954   8.725   9.687 -0.2691 -0.1428  0.1781
  489MOL0     C67401   5.965   8.611   9.767  0.0739 -1.1237 -0.2902
  489MOL0     C67402   6.094   8.565   9.806  0.1678 -0.4296 -0.2144
  489MOL0     O67403   6.094   8.440   9.864 -0.2395  0.5619 -0.1402
  489MOL0     C67404   6.085   8.322   9.779  0.0118 -0.0919 -0.2650
  489MOL0     C67405   6.221   8.266   9.730  0.2069  0.1134  0.9494
  489MOL0     C67406   6.292   8.188   9.844 -0.4770  0.0580  0.7789
  489MOL0     C67407   6.409   8.111   9.794  0.0977  0.0611 -0.3404
  489MOL0     C67408   6.390   7.972   9.838  0.8706 -0.8776 -0.1704
  489MOL0     C67409   6.381   7.856   9.872 -0.0443  0.9238  0.1191
  489MOL0     C67410   6.202   8.637   9.778 -0.2553 -0.6049 -0.4833
  489MOL0     C67411   6.199   8.762   9.715  0.4390  0.2090 -0.6761
  489MOL0     C67412   6.332   8.830   9.685 -0.4720  0.6101  0.5379
  489MOL0     H67413   6.271   8.986   9.268  0.6038 -0.0078 -0.2015
  489MOL0     H67414   6.270   9.184   9.111 -0.9367  3.5108 -0.0715
  489MOL0     H67415   6.223   9.523   9.348 -2.9914  2.3553  0.8696
  489MOL0     H67416   6.080   9.541   9.243 -0.7140 -2.5454 -0.1455
  489MOL0     H67417   6.291   9.586   9.067  2.1053  2.7514 -0.1311
  489MOL0     H67418   6.198   9.711   9.125  0.5026  0.2202  0.3485
  489MOL0     H67419   6.441   9.611   9.281 -1.5171  0.1239  0.8469
  489MOL0     H67420   6.464   9.728   9.167  1.2467  1.6074  0.7097
  489MOL0     H67421   6.294   9.884   9.266 -0.6510 -0.9590 -1.2667
  489MOL0     H67422   6.263   9.770   9.397 -0.0910  1.2823 -0.6895
  489MOL0     H67423   6.433   9.949   9.438  1.1657  0.9900 -2.6304
  489MOL0     H67424   6.551   9.862   9.334  0.9135  1.2655  2.2305
  489MOL0     H67425   6.433   9.776   9.589 -1.4072 -3.3798 -1.5054
  489MOL0     H67426   6.521   9.660   9.492 -2.4210 -0.5700 -0.7981
  489MOL0     H67427   6.641   9.828   9.676 -0.5928  0.3749 -0.9715
  489MOL0     H67428   6.652   9.948   9.550 -1.4877  1.8238  3.4133
  489MOL0     H67429   6.778   9.826   9.417  1.1776 -1.9293  0.1592
  489MOL0     H67430   6.850   9.821   9.581 -0.3427  2.4995 -0.3647
  489MOL0     H67431   6.742   9.619   9.291  1.3057  1.1118 -0.3602
  489MOL0     H67432   6.619   9.352   9.292  0.3532  1.5460 -1.2816
  489MOL0     H67433   6.712   9.242   9.403 -1.2084 -1.1521 -0.4188
  489MOL0     H67434   6.806   9.192   9.198 -1.3773  0.1788  0.7552
  489MOL0     H67435   6.817   9.372   9.143  0.9309  2.6859  1.5248
  489MOL0     H67436   7.023   9.233   9.191 -1.2669 -0.2255 -0.3568
  489MOL0     H67437   7.015   9.399   9.259 -2.5636  1.1266 -0.6394
  489MOL0     H67438   6.983   9.310   9.489  0.1884  1.8513 -1.7810
  489MOL0     H67439   6.928   9.149   9.435  0.0793  0.1232 -0.2382
  489MOL0     H67440   7.076   9.164   9.660  0.2243 -0.7444  2.3452
  489MOL0     H67441   7.112   9.197   9.898 -0.7359 -1.3376  0.1134
  489MOL0     H67442   7.274   9.236   9.957  0.0471  0.0945  0.5513
  489MOL0     H67443   7.236   9.070   9.923  0.7841  0.3075 -0.3718
  489MOL0     H67444   7.881   9.199   9.774 -0.2186 -0.0291 -0.5438
  489MOL0     H67445   8.053   9.181   9.953 -0.4624  2.2452 -1.8452
  489MOL0     H67446   7.989   9.072  10.314  0.5908 -0.0031 -0.8568
  489MOL0     H67447   8.111   9.049  10.197  0.7626 -0.3806  0.9770
  489MOL0     H67448   8.124   9.167  10.473 -1.2714 -0.0618 -0.4809
  489MOL0     H67449   8.235   9.055  10.391 -1.1897  0.6331  1.0522
  489MOL0     H67450   8.216   9.356  10.333  2.4847  1.9637 -0.6519
  489MOL0     H67451   8.322   9.236  10.250  0.5964 -0.0885 -0.0760
  489MOL0     H67452   8.328   9.335  10.537  1.3006  0.6266 -0.4785
  489MOL0     H67453   8.450   9.363  10.409 -1.4511  0.8347 -1.9012
  489MOL0     H67454   8.399   9.131  10.583 -0.1047  1.2117 -0.3460
  489MOL0     H67455   8.478   9.094  10.423 -0.2203 -2.5435  1.8278
  489MOL0     H67456   8.654   9.264  10.488 -3.0592  0.7808 -1.6522
  489MOL0     H67457   8.647   9.137  10.612 -0.6959 -1.2599 -1.4517
  489MOL0     H67458   8.511   9.296  10.756 -0.8366  1.9447 -0.2279
  489MOL0     H67459   8.535   9.424  10.633 -0.4196  0.3710  1.6646
  489MOL0     H67460   8.758   9.258  10.766 -0.0623  0.5192  2.8429
  489MOL0     H67461   8.694   9.403  10.850 -0.4448  0.7007  0.8222
  489MOL0     H67462   7.747   9.284  10.238 -1.8783  0.9971 -0.2841
  489MOL0     H67463   7.576   9.248  10.073  0.8199  0.1789 -0.7757
  489MOL0     H67464   7.559   9.255   9.581 -1.0249 -0.3981 -0.8374
  489MOL0     H67465   7.389   9.236   9.391  1.2376 -0.6745  0.2405
  489MOL0     H67466   6.025   9.388   9.385 -1.1157 -0.7380 -1.1290
  489MOL0     H67467   6.002   9.190   9.530 -1.6450 -2.1585 -1.6713
  489MOL0     H67468   5.856   8.748   9.645 -0.7646  0.5235  1.6595
  489MOL0     H67469   5.877   8.549   9.774 -0.7795  0.2334  1.9243
  489MOL0     H67470   6.032   8.237   9.824  0.6721 -1.2648 -1.6484
  489MOL0     H67471   6.021   8.350   9.694  2.9032  2.9230 -1.6851
  489MOL0     H67472   6.278   8.346   9.683 -1.7660 -0.2703 -2.4340
  489MOL0     H67473   6.196   8.201   9.646 -3.1326  0.6813  1.3574
  489MOL0     H67474   6.320   8.254   9.927  0.6843  0.7803 -0.1537
  489MOL0     H67475   6.222   8.120   9.892 -0.9273  1.2436  1.8820
  489MOL0     H67476   6.494   8.138   9.857 -0.6759  1.8119  0.0239
  489MOL0     H67477   6.431   8.106   9.687  1.6291  0.0068 -0.0417
  489MOL0     H67478   6.382   7.754   9.907 -2.3487  2.1118  4.3244
  489MOL0     H67479   6.303   8.605   9.799  1.4661  2.9040 -2.3834
  489MOL0     H67480   6.312   8.934   9.657  0.7416  1.0141  1.1069
  489MOL0     H67481   6.386   8.838   9.780 -1.5726  0.9110  1.1494
  489MOL0     H67482   6.381   8.784   9.599  0.4830  1.4128  0.6345
  490MOL0     O67483   5.473   5.626   1.703  0.1702  0.0242  0.0888
  490MOL0     C67484   5.488   5.712   1.788  0.0381 -0.7567 -0.6316
  490MOL0     O67485   5.573   5.817   1.788 -0.6148 -0.3742 -0.1991
  490MOL0     C67486   5.618   5.871   1.678 -0.1401  0.2779 -0.1931
  490MOL0     C67487   5.760   5.896   1.684  0.7016 -0.0225  0.1318
  490MOL0     C67488   5.829   5.959   1.578  0.3263 -0.0423  0.1557
  490MOL0     C67489   5.751   5.990   1.463 -0.8808 -0.3618 -0.2870
  490MOL0     O67490   5.794   6.056   1.350 -0.5425  0.4752  0.0287
  490MOL0     C67491   5.924   6.100   1.346 -0.0964  0.0297 -0.9630
  490MOL0     C67492   5.964   6.166   1.215  0.0332  0.4784 -0.6727
  490MOL0     C67493   5.927   6.070   1.091  0.0832  0.5828 -0.0631
  490MOL0     C67494   5.971   6.145   0.974  1.0008 -0.8238  1.0772
  490MOL0     C67495   5.914   6.088   0.846 -0.3464 -0.2770 -0.1101
  490MOL0     C67496   5.770   6.112   0.809 -0.4111  0.0619 -0.3410
  490MOL0     C67497   5.729   6.040   0.672  0.0129 -0.6286 -0.4025
  490MOL0     C67498   5.730   5.880   0.685 -1.2579 -0.3430 -0.0643
  490MOL0     N67499   5.713   5.807   0.564 -0.2541  0.1219 -0.6838
  490MOL0     C67500   5.600   5.809   0.506  0.8128 -0.3598  0.1360
  490MOL0     C67501   5.619   5.724   0.408 -0.0408 -0.3581  1.1103
  490MOL0     C67502   5.526   5.698   0.294  0.3288  0.0565 -0.9122
  490MOL0     C67503   5.550   5.818   0.203  0.3467 -0.0572 -0.0674
  490MOL0     C67504   5.453   5.810   0.077  0.8903 -0.4244 -0.0232
  490MOL0     C67505   5.487   5.689  -0.014  0.7937 -0.0140  0.5930
  490MOL0     O67506   5.366   5.664  -0.089 -0.2275  0.7974  0.4461
  490MOL0     C67507   5.357   5.548  -0.163 -0.1712  0.5681 -0.8882
  490MOL0     C67508   5.254   5.507  -0.228 -0.0770 -0.5871 -0.0706
  490MOL0     C67509   5.234   5.382  -0.290 -0.0283  0.4307 -0.1971
  490MOL0     C67510   5.104   5.354  -0.361 -0.4223 -0.4415  0.0055
  490MOL0     C67511   5.341   5.283  -0.289  0.2726 -0.3536 -0.4292
  490MOL0     C67512   5.350   5.154  -0.362  0.3811  0.4416 -0.5756
  490MOL0     O67513   5.418   5.053  -0.297  0.7903 -0.2758  0.7286
  490MOL0     C67514   5.415   4.926  -0.337  0.6526  0.9510  0.2557
  490MOL0     C67515   5.303   4.852  -0.384 -0.1929  0.8292 -0.0049
  490MOL0     C67516   5.323   4.719  -0.426  0.6675  0.0620  0.3050
  490MOL0     C67517   5.444   4.662  -0.438 -0.3667  0.2596 -0.5689
  490MOL0     O67518   5.440   4.533  -0.490  0.2012 -0.1632  0.5802
  490MOL0     C67519   5.557   4.460  -0.475 -0.9301  0.0052  0.3035
  490MOL0     C67520   5.563   4.318  -0.533  0.1622  0.3323  0.3726
  490MOL0     C67521   5.507   4.306  -0.678  0.0519 -0.7968 -0.3492
  490MOL0     C67522   5.465   4.168  -0.715 -0.0811  0.5229 -1.6363
  490MOL0     C67523   5.328   4.141  -0.656  0.2201  0.4320 -0.5883
  490MOL0     C67524   5.268   4.011  -0.702 -0.3616  0.8142 -1.2357
  490MOL0     C67525   5.135   3.985  -0.624  0.3139 -0.1316 -1.2725
  490MOL0     C67526   5.095   3.842  -0.667  0.3280 -0.0081 -0.8621
  490MOL0    Cl67527   4.950   3.798  -0.573  0.5976 -0.1692  0.1570
  490MOL0     C67528   5.556   4.736  -0.400  0.3693 -0.5894  0.3577
  490MOL0     C67529   5.540   4.873  -0.357 -0.8067  0.2993  0.9669
  490MOL0     O67530   5.310   5.146  -0.478 -0.1005  0.0998 -0.0791
  490MOL0     C67531   5.457   5.323  -0.216  0.1549  0.3418 -0.3666
  490MOL0     C67532   5.467   5.450  -0.154 -0.4883 -0.1738  1.5571
  490MOL0     N67533   5.750   5.675   0.403 -0.9207 -0.6662  0.1638
  490MOL0     N67534   5.806   5.730   0.500  0.1490  0.6949  0.1889
  490MOL0     C67535   5.615   5.954   1.450 -0.0705 -0.3659 -0.9021
  490MOL0     C67536   5.544   5.893   1.557  1.1830  0.7315  0.1857
  490MOL0     C67537   5.399   5.709   1.912 -0.5758 -0.6091  0.0036
  490MOL0     C67538   5.450   5.764   2.030 -0.0488 -0.0885 -0.2762
  490MOL0     C67539   5.374   5.769   2.148 -0.2582  0.7857 -0.8446
  490MOL0     C67540   5.242   5.722   2.153  0.2991  0.3213  0.3283
  490MOL0     O67541   5.164   5.722   2.269  0.0363  0.5333  0.0419
  490MOL0     C67542   5.034   5.781   2.246  0.0895  0.2657  0.4323
  490MOL0     C67543   4.932   5.695   2.321 -0.3275  0.9354  0.7773
  490MOL0     C67544   4.937   5.702   2.473  0.5981 -0.2058  0.6761
  490MOL0     C67545   5.060   5.621   2.539  1.2454 -0.0758  0.2184
  490MOL0     C67546   5.070   5.478   2.517 -0.2445 -0.1476 -0.1327
  490MOL0     C67547   5.088   5.357   2.513  0.2475  0.4061  0.2468
  490MOL0     C67548   5.205   5.651   2.042  0.9788 -0.0222 -0.7368
  490MOL0     C67549   5.270   5.649   1.922 -0.5624 -0.1704  1.0959
  490MOL0     C67550   5.193   5.600   1.799  0.3498 -0.3182 -0.4326
  490MOL0     H67551   5.812   5.861   1.773  1.3845 -1.3487 -0.7502
  490MOL0     H67552   5.938   5.964   1.575  0.2965  0.3993 -0.2452
  490MOL0     H67553   5.981   6.010   1.371  1.5623  1.4133  0.5568
  490MOL0     H67554   5.943   6.172   1.426  1.5737 -0.2911 -1.0331
  490MOL0     H67555   5.907   6.260   1.215 -1.2663 -0.2625  0.8577
  490MOL0     H67556   6.072   6.179   1.214  0.1213  0.6015  2.2308
  490MOL0     H67557   5.985   5.977   1.093 -0.7345  0.0342 -0.7999
  490MOL0     H67558   5.820   6.046   1.085  0.2961 -0.2563 -0.7409
  490MOL0     H67559   5.943   6.250   0.987  1.3239 -0.5377 -0.2915
  490MOL0     H67560   6.080   6.139   0.960  0.6659 -3.5138 -1.2380
  490MOL0     H67561   5.934   5.980   0.856  0.9588 -0.2687 -2.1237
  490MOL0     H67562   5.977   6.116   0.761  0.5797 -0.3296  0.5321
  490MOL0     H67563   5.698   6.071   0.881  0.2521  1.0533  0.9225
  490MOL0     H67564   5.752   6.219   0.799  1.2261  0.1311 -3.8136
  490MOL0     H67565   5.804   6.062   0.595  0.6835 -0.8139  0.1878
  490MOL0     H67566   5.627   6.073   0.652  1.2393  2.8271 -1.5989
  490MOL0     H67567   5.821   5.838   0.727 -1.0909 -0.7800 -0.8456
  490MOL0     H67568   5.644   5.840   0.739 -1.3049 -1.8641 -1.1973
  490MOL0     H67569   5.517   5.877   0.526  0.3164 -0.9449  0.1148
  490MOL0     H67570   5.426   5.684   0.337 -0.4926  1.3486 -2.3028
  490MOL0     H67571   5.550   5.605   0.242 -0.0209  0.2081 -1.3484
  490MOL0     H67572   5.536   5.911   0.258 -0.2765 -1.2080  1.7956
  490MOL0     H67573   5.650   5.814   0.158 -0.4407  2.2048 -2.2064
  490MOL0     H67574   5.353   5.800   0.119  0.6158  0.1591 -0.5283
  490MOL0     H67575   5.441   5.890   0.004 -1.3428 -2.5891 -2.2221
  490MOL0     H67576   5.570   5.705  -0.084  0.3859 -0.3005  0.0364
  490MOL0     H67577   5.516   5.599   0.041 -0.7101 -2.1226 -1.8103
  490MOL0     H67578   5.175   5.579  -0.244 -1.0345 -1.4987  0.4122
  490MOL0     H67579   5.104   5.370  -0.469  0.7816  0.1730  0.0809
  490MOL0     H67580   5.027   5.421  -0.321  0.9741  2.1973 -1.4340
  490MOL0     H67581   5.076   5.248  -0.354 -3.2686 -0.0262 -2.7779
  490MOL0     H67582   5.204   4.895  -0.400 -0.9461 -0.7371  0.2812
  490MOL0     H67583   5.233   4.669  -0.461 -0.5230  0.3466  2.7804
  490MOL0     H67584   5.633   4.516  -0.531 -1.5210 -0.0115 -0.5279
  490MOL0     H67585   5.597   4.461  -0.373  1.0652  0.0560 -0.4281
  490MOL0     H67586   5.661   4.271  -0.531 -1.2876 -2.9476  1.8178
  490MOL0     H67587   5.501   4.255  -0.468 -1.0822  1.7988  0.6612
  490MOL0     H67588   5.588   4.345  -0.741 -0.5088 -0.1641 -0.6812
  490MOL0     H67589   5.425   4.376  -0.694  0.3041 -1.0989 -3.6931
  490MOL0     H67590   5.545   4.106  -0.673 -0.2612  1.3056 -0.0767
  490MOL0     H67591   5.464   4.172  -0.825  0.3735  1.6873 -1.6109
  490MOL0     H67592   5.335   4.133  -0.547 -1.8140 -3.5032 -0.5677
  490MOL0     H67593   5.259   4.223  -0.677 -0.4811 -0.1295 -0.5462
  490MOL0     H67594   5.337   3.929  -0.680 -0.1613  0.5972 -2.5760
  490MOL0     H67595   5.246   4.011  -0.809 -1.8129 -0.5178 -0.9595
  490MOL0     H67596   5.048   4.050  -0.639  0.5524  0.3555 -0.5777
  490MOL0     H67597   5.154   3.987  -0.517  1.4575 -0.2461 -1.4559
  490MOL0     H67598   5.172   3.770  -0.638 -0.8062  0.0211  2.7166
  490MOL0     H67599   5.066   3.837  -0.772 -0.7205  0.7314 -0.6223
  490MOL0     H67600   5.655   4.694  -0.398  1.1356  0.7984 -2.7445
  490MOL0     H67601   5.629   4.927  -0.329 -2.2757  3.9596 -0.7733
  490MOL0     H67602   5.537   5.252  -0.196  1.2087  2.3052  3.4245
  490MOL0     H67603   5.558   5.477  -0.101  0.6365 -2.2429  0.7906
  490MOL0     H67604   5.571   5.973   1.352  1.6086  1.9567 -1.2855
  490MOL0     H67605   5.437   5.887   1.544  0.7973  1.2309  2.6911
  490MOL0     H67606   5.554   5.795   2.034 -0.3518  0.9403  3.7163
  490MOL0     H67607   5.414   5.809   2.240  1.4589 -1.6791 -0.4181
  490MOL0     H67608   5.042   5.885   2.279  0.5264  0.5777 -0.6024
  490MOL0     H67609   5.008   5.791   2.140  1.0951 -0.0489  0.1413
  490MOL0     H67610   4.931   5.590   2.292 -1.8121  0.8949  0.9120
  490MOL0     H67611   4.834   5.736   2.293  0.1755  1.8449  0.3109
  490MOL0     H67612   4.947   5.805   2.508  2.2946 -0.6431  1.5994
  490MOL0     H67613   4.837   5.665   2.494 -0.2628  1.5977 -0.0284
  490MOL0     H67614   5.059   5.634   2.648  2.4705  0.7918  0.1420
  490MOL0     H67615   5.148   5.677   2.508 -0.0329  1.4313 -0.8667
  490MOL0     H67616   5.100   5.251   2.509 -4.2595 -0.3101  0.5459
  490MOL0     H67617   5.107   5.605   2.048  1.1306 -0.2178  3.5886
  490MOL0     H67618   5.224   5.499   1.770 -0.1732 -0.9581  1.1278
  490MOL0     H67619   5.085   5.613   1.810  0.5671  0.9602  0.3454
  490MOL0     H67620   5.214   5.671   1.718  0.5945  1.7716  1.3695
  491MOL0     O67621   0.142   2.488   0.859 -0.5852  0.6877 -0.2997
  491MOL0     C67622   0.187   2.383   0.899  0.1253  0.7325 -0.4178
  491MOL0     O67623   0.313   2.344   0.890  0.3433 -0.7542 -0.5325
  491MOL0     C67624   0.411   2.440   0.868  0.4056 -0.2236  0.4332
  491MOL0     C67625   0.510   2.411   0.770  0.4349 -0.0359  0.3481
  491MOL0     C67626   0.582   2.514   0.720 -0.0768 -0.6433  1.1855
  491MOL0     C67627   0.576   2.648   0.774  0.8088 -0.1954  0.2599
  491MOL0     O67628   0.636   2.746   0.705  0.1790  0.2435 -0.1664
  491MOL0     C67629   0.669   2.870   0.774  0.0667  0.2066 -0.2486
  491MOL0     C67630   0.562   2.972   0.759  0.6384 -0.3209 -0.0475
  491MOL0     C67631   0.589   3.061   0.635 -0.5961  0.6426  0.4134
  491MOL0     C67632   0.471   3.158   0.620 -0.1935 -0.2816  1.0808
  491MOL0     C67633   0.483   3.252   0.498  0.2143  0.6641 -0.7699
  491MOL0     C67634   0.371   3.350   0.489  0.2851  0.2488  0.8998
  491MOL0     C67635   0.401   3.473   0.570  0.4397 -0.1303 -0.7463
  491MOL0     C67636   0.285   3.562   0.564  0.5550 -0.2929  0.7569
  491MOL0     N67637   0.298   3.687   0.645  1.2742  0.0957 -0.1978
  491MOL0     C67638   0.344   3.814   0.605 -0.3153  0.5391  1.2096
  491MOL0     C67639   0.302   3.889   0.714 -0.6389 -0.0467 -0.1008
  491MOL0     C67640   0.339   4.030   0.722  0.5291  0.0963  0.2461
  491MOL0     C67641   0.280   4.117   0.832 -0.0220  0.0762 -0.7151
  491MOL0     C67642   0.345   4.257   0.863 -0.1040  0.7810 -0.7569
  491MOL0     C67643   0.347   4.344   0.738  0.2075  0.1668 -0.0081
  491MOL0     O67644   0.406   4.466   0.776 -0.5009 -0.0982  0.4077
  491MOL0     C67645   0.445   4.564   0.685 -0.2720 -0.0132 -0.0599
  491MOL0     C67646   0.472   4.695   0.737 -0.9593  0.5310 -0.1782
  491MOL0     C67647   0.513   4.795   0.650  0.0387 -0.1905 -0.1144
  491MOL0     C67648   0.569   4.924   0.712  0.5548  0.0580  0.7260
  491MOL0     C67649   0.512   4.768   0.510  0.6690  1.4495  0.6733
  491MOL0     C67650   0.546   4.867   0.396 -0.4531  0.2832 -0.7344
  491MOL0     O67651   0.499   4.839   0.276  0.1853 -0.3319  0.3470
  491MOL0     C67652   0.578   4.885   0.169 -0.6529  1.1103 -0.0018
  491MOL0     C67653   0.533   4.990   0.092  0.8974  0.9915  0.6913
  491MOL0     C67654   0.611   5.040  -0.011 -0.0305  0.0436  0.1699
  491MOL0     C67655   0.733   4.977  -0.046  0.9706  0.5583  0.2327
  491MOL0     O67656   0.790   5.034  -0.153 -0.6418 -1.4111  0.3465
  491MOL0     C67657   0.782   4.971  -0.281  0.5835 -0.3931 -0.9068
  491MOL0     C67658   0.724   5.064  -0.381 -0.6683  0.0150  0.4263
  491MOL0     C67659   0.704   4.983  -0.515 -0.9948 -0.2693  0.1112
  491MOL0     C67660   0.843   4.919  -0.564 -0.9154  0.2964  0.1710
  491MOL0     C67661   0.867   4.886  -0.714 -0.1320  1.0458  0.2169
  491MOL0     C67662   0.776   4.771  -0.733  0.3570 -0.1382 -0.0521
  491MOL0     C67663   0.791   4.706  -0.870 -1.0251 -0.8147  0.5766
  491MOL0     C67664   0.670   4.633  -0.926  0.2962 -0.9204 -0.4915
  491MOL0    Cl67665   0.633   4.481  -0.854 -0.6448 -0.5178 -0.0079
  491MOL0     C67666   0.768   4.857   0.022  0.1492 -0.2324  0.9063
  491MOL0     C67667   0.691   4.813   0.128  0.5284 -0.6247  0.0137
  491MOL0     O67668   0.632   4.954   0.421 -0.3379  0.3400  0.3989
  491MOL0     C67669   0.468   4.649   0.458  0.0112  0.5088 -0.0202
  491MOL0     C67670   0.445   4.546   0.550  0.4034  0.1816  0.1048
  491MOL0     N67671   0.256   3.809   0.818 -0.3876 -0.2993  0.0763
  491MOL0     N67672   0.245   3.691   0.770 -0.1575  0.8514 -0.3417
  491MOL0     C67673   0.485   2.672   0.875  0.4023 -0.3526 -0.5242
  491MOL0     C67674   0.408   2.565   0.923  0.8843  0.2163  1.0015
  491MOL0     C67675   0.103   2.281   0.954  0.6723  0.6916  0.1582
  491MOL0     C67676   0.096   2.155   0.897  0.0781  0.6118 -0.1664
  491MOL0     C67677   0.005   2.063   0.947  0.5540 -0.7287 -0.7105
  491MOL0     C67678  -0.097   2.093   1.041  0.1139 -0.5305 -0.6044
  491MOL0     O67679  -0.185   1.996   1.084  0.0139 -0.5485 -0.3543
  491MOL0     C67680  -0.137   1.866   1.114 -0.0469  0.6092 -0.5402
  491MOL0     C67681  -0.179   1.781   0.989 -0.7174  0.5934  0.2118
  491MOL0     C67682  -0.133   1.639   1.002 -1.0242 -0.1776 -0.4142
  491MOL0     C67683  -0.223   1.543   0.929 -0.1606 -0.6792  0.3611
  491MOL0     C67684  -0.192   1.413   0.974 -0.0987  0.2241  0.5560
  491MOL0     C67685  -0.154   1.307   1.021 -0.7984 -0.0841  0.6777
  491MOL0     C67686  -0.091   2.231   1.096 -0.6386  0.3181  0.5379
  491MOL0     C67687   0.005   2.315   1.054 -0.1932  0.2174  0.6177
  491MOL0     C67688   0.009   2.441   1.133  0.2314 -0.3912 -0.0073
  491MOL0     H67689   0.521   2.316   0.719  1.5449  0.7122 -0.8784
  491MOL0     H67690   0.645   2.498   0.634  0.1513 -0.3508  1.2965
  491MOL0     H67691   0.763   2.915   0.742  0.3541  0.2902  0.6815
  491MOL0     H67692   0.685   2.850   0.881  1.1278 -1.1675 -0.6433
  491MOL0     H67693   0.462   2.929   0.751 -1.0278  3.2684 -0.6462
  491MOL0     H67694   0.557   3.036   0.848 -3.0007 -1.6331  0.8676
  491MOL0     H67695   0.671   3.134   0.638 -2.3574  2.7091  0.1684
  491MOL0     H67696   0.600   2.994   0.549  0.2945  0.7070  0.4625
  491MOL0     H67697   0.377   3.102   0.622 -0.6811  0.5260  1.4561
  491MOL0     H67698   0.463   3.222   0.708 -3.7889  0.9487  0.0183
  491MOL0     H67699   0.494   3.196   0.405 -3.5651  2.6581 -2.6546
  491MOL0     H67700   0.577   3.309   0.508 -0.4682  1.6344  0.3862
  491MOL0     H67701   0.352   3.369   0.383  0.4741 -0.7226  0.6785
  491MOL0     H67702   0.280   3.301   0.525  1.0858 -0.0227  2.6389
  491MOL0     H67703   0.488   3.524   0.526  1.1552  0.6527  1.4099
  491MOL0     H67704   0.418   3.450   0.676 -1.4734  1.2146 -0.0985
  491MOL0     H67705   0.266   3.598   0.462  0.7491 -1.0549  0.4491
  491MOL0     H67706   0.193   3.508   0.589 -1.1650  0.6927 -2.7442
  491MOL0     H67707   0.377   3.843   0.506  0.8218  1.7216  1.9102
  491MOL0     H67708   0.311   4.088   0.633 -0.2008  1.9369  1.5938
  491MOL0     H67709   0.448   4.040   0.728  0.2970  2.3485  2.8351
  491MOL0     H67710   0.172   4.128   0.817 -0.2144  1.6227  1.3692
  491MOL0     H67711   0.297   4.043   0.912 -1.2228 -0.0248 -0.5398
  491MOL0     H67712   0.281   4.308   0.935 -0.2458  0.6232 -0.7715
  491MOL0     H67713   0.445   4.233   0.900 -0.0801  1.9221 -0.0065
  491MOL0     H67714   0.397   4.295   0.654  1.2213  0.2749  0.5240
  491MOL0     H67715   0.243   4.360   0.708  0.8988  1.3117 -1.9905
  491MOL0     H67716   0.481   4.713   0.844  1.4021 -0.7431 -0.0938
  491MOL0     H67717   0.658   4.969   0.667  1.5991 -0.4908  2.1407
  491MOL0     H67718   0.596   4.913   0.818  0.5451  0.9967  0.8396
  491MOL0     H67719   0.486   4.993   0.697 -0.3795 -1.1708  0.1084
  491MOL0     H67720   0.430   5.022   0.106  1.3474  3.6628 -1.3461
  491MOL0     H67721   0.575   5.128  -0.064 -0.9091 -0.2586  0.2520
  491MOL0     H67722   0.885   4.949  -0.311  0.2630 -4.4798  0.4134
  491MOL0     H67723   0.744   4.870  -0.269  0.7417 -0.1208  3.5687
  491MOL0     H67724   0.629   5.099  -0.342 -0.5343 -0.0047  0.7715
  491MOL0     H67725   0.796   5.142  -0.408  0.8266 -0.9312  1.5063
  491MOL0     H67726   0.670   5.054  -0.592  1.2974  1.0939  0.2549
  491MOL0     H67727   0.620   4.914  -0.502  0.6265 -1.9260  2.7081
  491MOL0     H67728   0.866   4.833  -0.501 -1.4904 -1.1050 -1.4462
  491MOL0     H67729   0.920   4.995  -0.548 -0.2565 -0.8108  2.8906
  491MOL0     H67730   0.835   4.967  -0.781 -1.8509 -0.2506 -0.5844
  491MOL0     H67731   0.971   4.858  -0.736 -0.6051  1.5041 -3.1445
  491MOL0     H67732   0.670   4.798  -0.723  0.3731  0.1737 -0.6807
  491MOL0     H67733   0.799   4.695  -0.657 -0.2161  3.3287  4.0043
  491MOL0     H67734   0.871   4.632  -0.872  1.9561  2.2320 -0.0159
  491MOL0     H67735   0.819   4.786  -0.939  1.5948 -0.4698  1.9505
  491MOL0     H67736   0.680   4.628  -1.035  1.3270  2.9205 -0.6957
  491MOL0     H67737   0.580   4.694  -0.910 -0.8370 -1.6309 -3.3744
  491MOL0     H67738   0.846   4.790  -0.014  1.7020  2.1186 -0.3263
  491MOL0     H67739   0.709   4.716   0.175 -0.5034 -1.8070 -1.8863
  491MOL0     H67740   0.454   4.623   0.353  1.9128 -0.9662  0.0335
  491MOL0     H67741   0.413   4.447   0.518 -1.1336 -0.7041  3.8556
  491MOL0     H67742   0.462   2.761   0.933 -0.0046 -1.1765  0.6159
  491MOL0     H67743   0.338   2.586   1.003 -1.3156 -1.7537 -0.2584
  491MOL0     H67744   0.170   2.119   0.825 -2.2377 -1.2279 -1.8180
  491MOL0     H67745   0.022   1.966   0.901 -1.6220 -0.8794 -1.3148
  491MOL0     H67746  -0.031   1.871   1.142 -0.7344  0.5123  2.3275
  491MOL0     H67747  -0.186   1.845   1.209 -0.0784  0.4441 -0.5931
  491MOL0     H67748  -0.135   1.819   0.896 -0.4768 -3.1459 -1.3638
  491MOL0     H67749  -0.288   1.779   0.982 -1.2425 -1.9147  4.8883
  491MOL0     H67750  -0.032   1.631   0.961 -0.2282 -4.3571  1.7278
  491MOL0     H67751  -0.119   1.609   1.107  1.0136 -2.5199 -1.2469
  491MOL0     H67752  -0.205   1.546   0.821 -2.4356 -3.8606 -0.2514
  491MOL0     H67753  -0.331   1.560   0.928 -0.0879  0.5751 -3.6712
  491MOL0     H67754  -0.118   1.216   1.065  3.4173  1.3975  0.7853
  491MOL0     H67755  -0.166   2.253   1.170 -1.3259 -0.1705 -0.0037
  491MOL0     H67756  -0.003   2.527   1.066 -0.7694  0.7524  1.5736
  491MOL0     H67757  -0.071   2.437   1.207  1.6038 -4.0228  1.4970
  491MOL0     H67758   0.104   2.452   1.186 -0.3744  0.8851  0.8908
  492MOL0     O67759   6.195  10.340   0.688  0.2067  0.4863 -0.1473
  492MOL0     C67760   6.115  10.424   0.647 -0.2222  0.6795 -0.3827
  492MOL0     O67761   6.164  10.545   0.585 -0.0761  0.3590  1.2284
  492MOL0     C67762   6.291  10.557   0.555 -0.7817  0.4000 -0.8717
  492MOL0     C67763   6.346  10.520   0.431  0.3163 -0.5882  0.2233
  492MOL0     C67764   6.479  10.531   0.403 -0.4650  0.6764  2.0735
  492MOL0     C67765   6.558  10.613   0.486  0.2234 -0.0969  0.6873
  492MOL0     O67766   6.688  10.643   0.452 -0.2693  0.0592 -0.0803
  492MOL0     C67767   6.780  10.697   0.546  0.6461  0.7889 -0.1360
  492MOL0     C67768   6.898  10.752   0.472 -0.2471 -0.4858 -0.8925
  492MOL0     C67769   6.987  10.657   0.395 -0.4196 -0.2134  0.5549
  492MOL0     C67770   7.084  10.600   0.493 -0.2512 -0.5789 -0.7013
  492MOL0     C67771   7.166  10.485   0.428  0.5336 -0.0064  0.5433
  492MOL0     C67772   7.292  10.463   0.497 -0.7246  0.2626 -0.1600
  492MOL0     C67773   7.382  10.363   0.420 -0.8958 -1.1576  0.7282
  492MOL0     C67774   7.335  10.222   0.429  0.4190  0.3097  0.5084
  492MOL0     N67775   7.445  10.122   0.429 -0.5518 -0.5545 -0.6954
  492MOL0     C67776   7.504  10.059   0.322  0.0634  0.2123  0.1140
  492MOL0     C67777   7.591   9.969   0.366 -0.3978  0.2289  0.3057
  492MOL0     C67778   7.685   9.890   0.274  0.3811 -0.3500  0.4315
  492MOL0     C67779   7.832   9.956   0.266 -0.1204 -0.1677  0.4393
  492MOL0     C67780   7.914   9.874   0.166  0.2399  0.9230 -0.2257
  492MOL0     C67781   8.063   9.910   0.170  0.5568  0.3585  0.5662
  492MOL0     O67782   8.076  10.042   0.132 -0.6149 -0.3555 -0.3403
  492MOL0     C67783   8.200  10.105   0.128  0.3156 -0.6874 -0.1050
  492MOL0     C67784   8.321  10.044   0.145 -0.4790 -0.3378 -0.2511
  492MOL0     C67785   8.444  10.113   0.151  0.8506 -0.2893 -0.1682
  492MOL0     C67786   8.561  10.056   0.220 -0.0107  0.4450 -0.6670
  492MOL0     C67787   8.445  10.251   0.114  0.5188  0.3281  0.0208
  492MOL0     C67788   8.570  10.321   0.081  0.5172 -0.8059 -0.2641
  492MOL0     O67789   8.636  10.389   0.182  0.5137 -0.0480  0.1386
  492MOL0     C67790   8.733  10.482   0.156  0.3067  0.3640  0.4048
  492MOL0     C67791   8.861  10.463   0.093 -0.0848  0.0924 -0.6482
  492MOL0     C67792   8.940  10.583   0.075  0.2344 -0.1255  0.2390
  492MOL0     C67793   8.905  10.711   0.120  0.5700 -0.0397  0.0445
  492MOL0     O67794   8.983  10.819   0.106 -0.1744  1.1904 -0.3325
  492MOL0     C67795   8.924  10.941   0.068  0.4847 -0.2679 -0.0067
  492MOL0     C67796   9.033  11.044   0.049  0.2643  0.2303 -0.3643
  492MOL0     C67797   9.096  11.031  -0.091  0.3875 -0.5601 -0.0148
  492MOL0     C67798   9.214  11.125  -0.103  0.0135  0.1487 -0.6867
  492MOL0     C67799   9.291  11.104  -0.228 -0.6705 -0.7017  0.2411
  492MOL0     C67800   9.233  11.160  -0.356  0.1819 -0.5014 -0.0863
  492MOL0     C67801   9.348  11.168  -0.459  0.1829 -0.4029  0.5533
  492MOL0     C67802   9.295  11.139  -0.605 -0.2086 -0.0754 -1.2936
  492MOL0    Cl67803   9.436  11.123  -0.718 -0.3557 -0.1348  0.6638
  492MOL0     C67804   8.784  10.722   0.187  0.6080 -0.1092  0.0873
  492MOL0     C67805   8.692  10.613   0.204 -0.4878  0.4290  0.0032
  492MOL0     O67806   8.590  10.329  -0.043  0.7350  0.5310 -0.9947
  492MOL0     C67807   8.322  10.310   0.100  0.4016 -0.6617  0.2559
  492MOL0     C67808   8.202  10.241   0.115 -0.2525 -0.3997  0.0423
  492MOL0     N67809   7.598   9.976   0.502 -0.4005  0.3985 -1.7433
  492MOL0     N67810   7.519  10.069   0.536 -0.3120 -0.5056  0.0042
  492MOL0     C67811   6.505  10.662   0.602  0.3876  0.0432 -0.0967
  492MOL0     C67812   6.372  10.635   0.637 -0.6125 -1.0663 -0.3789
  492MOL0     C67813   5.969  10.411   0.638  0.1320 -0.2638  0.9822
  492MOL0     C67814   5.889  10.486   0.545 -1.2377  0.6426 -0.7002
  492MOL0     C67815   5.747  10.481   0.536 -0.2748  0.8301 -0.7103
  492MOL0     C67816   5.675  10.398   0.628 -1.7283  0.5990  0.4955
  492MOL0     O67817   5.538  10.378   0.618 -0.8183 -0.3845 -0.3268
  492MOL0     C67818   5.511  10.282   0.518 -0.2100 -0.7475 -0.2099
  492MOL0     C67819   5.503  10.145   0.581 -0.2297 -0.2319 -1.2195
  492MOL0     C67820   5.413  10.129   0.701  1.2938  0.0641 -1.0014
  492MOL0     C67821   5.384   9.975   0.742 -0.5711  0.2982  0.3260
  492MOL0     C67822   5.297   9.961   0.853  0.7681  0.7514 -0.3690
  492MOL0     C67823   5.231   9.966   0.958  0.4767  0.3837  0.4068
  492MOL0     C67824   5.751  10.333   0.722  0.5836  0.4134  0.0543
  492MOL0     C67825   5.893  10.331   0.723 -0.8052  1.1128 -0.2938
  492MOL0     C67826   5.943  10.234   0.825  0.0949  0.1496 -0.3844
  492MOL0     H67827   6.279  10.474   0.359  0.1967 -0.1844  0.0751
  492MOL0     H67828   6.527  10.494   0.313 -0.7370  0.3735  2.0505
  492MOL0     H67829   6.811  10.618   0.615 -2.4272  0.4956  1.0707
  492MOL0     H67830   6.736  10.782   0.600  0.5664  0.6824 -0.0317
  492MOL0     H67831   6.866  10.825   0.397  0.4840 -0.9787 -1.7036
  492MOL0     H67832   6.961  10.803   0.545  0.2308 -0.7993 -1.0821
  492MOL0     H67833   6.937  10.570   0.351 -1.3266  0.5171  0.1024
  492MOL0     H67834   7.040  10.718   0.322 -1.1197 -0.0289  0.2008
  492MOL0     H67835   7.158  10.674   0.523  0.4831 -1.3268 -0.6450
  492MOL0     H67836   7.032  10.560   0.581 -0.1637 -1.5943 -1.0946
  492MOL0     H67837   7.184  10.503   0.322 -4.2565  2.2710 -0.1294
  492MOL0     H67838   7.113  10.392   0.447 -3.7699  2.5965  3.0317
  492MOL0     H67839   7.349  10.555   0.508  2.0762 -1.5276  1.5622
  492MOL0     H67840   7.278  10.426   0.599 -1.6900  1.5320  0.1826
  492MOL0     H67841   7.484  10.387   0.452 -0.9467 -2.1948  1.7128
  492MOL0     H67842   7.380  10.390   0.314  0.9386  2.1411  1.3956
  492MOL0     H67843   7.290  10.201   0.527  0.2097 -3.8776 -0.3176
  492MOL0     H67844   7.259  10.205   0.353  2.0166 -1.2552 -0.8355
  492MOL0     H67845   7.455  10.060   0.225 -1.1263 -1.7304  0.6177
  492MOL0     H67846   7.639   9.879   0.176 -1.8778  1.0195  1.2455
  492MOL0     H67847   7.697   9.798   0.332 -3.3777  0.0553  2.1315
  492MOL0     H67848   7.815  10.062   0.244  1.1528 -0.1845 -0.7785
  492MOL0     H67849   7.877   9.961   0.365  1.1094  1.8075 -0.1696
  492MOL0     H67850   7.909   9.767   0.192  0.8576  0.8559 -0.3753
  492MOL0     H67851   7.868   9.885   0.067 -0.4282 -2.6230 -0.4645
  492MOL0     H67852   8.105   9.904   0.271  1.4528 -0.1444  0.1830
  492MOL0     H67853   8.113   9.853   0.091 -1.2471  3.1392 -2.8645
  492MOL0     H67854   8.315   9.937   0.161  0.2711 -0.5540 -1.2712
  492MOL0     H67855   8.531   9.961   0.266 -0.7408  0.2728 -1.4579
  492MOL0     H67856   8.596  10.121   0.300  1.0238 -0.1770 -0.5972
  492MOL0     H67857   8.646  10.045   0.152  0.3066 -0.9028 -0.0965
  492MOL0     H67858   8.884  10.363   0.057 -1.7604 -0.0370 -1.4802
  492MOL0     H67859   9.042  10.568   0.039  0.5867 -0.0876  1.1888
  492MOL0     H67860   8.857  10.919  -0.015 -0.9711 -0.8073  1.2678
  492MOL0     H67861   8.855  10.977   0.146 -0.0707 -1.6376  0.1522
  492MOL0     H67862   8.988  11.143   0.055  2.6560  1.3304  0.7278
  492MOL0     H67863   9.104  11.028   0.132 -2.1421 -3.0253  1.2935
  492MOL0     H67864   9.023  11.076  -0.159 -0.7372 -1.0748  0.8047
  492MOL0     H67865   9.122  10.928  -0.116 -2.3994 -0.9379 -1.8766
  492MOL0     H67866   9.285  11.107  -0.022  0.8691  0.2050 -1.3994
  492MOL0     H67867   9.177  11.227  -0.098 -3.0099 -0.9094  0.3578
  492MOL0     H67868   9.383  11.161  -0.212  0.9099 -2.7390 -1.0601
  492MOL0     H67869   9.307  10.996  -0.242 -2.8347 -0.9446 -0.7376
  492MOL0     H67870   9.201  11.263  -0.337 -1.8360 -1.4179  1.9388
  492MOL0     H67871   9.159  11.087  -0.391  0.3925 -0.6475 -0.2347
  492MOL0     H67872   9.418  11.090  -0.428  1.1607  0.3660  0.3577
  492MOL0     H67873   9.398  11.266  -0.453  0.7316 -0.6255 -0.1213
  492MOL0     H67874   9.222  11.215  -0.633  0.7681  1.3977 -0.0273
  492MOL0     H67875   9.247  11.041  -0.612 -3.2980  1.1725  0.4162
  492MOL0     H67876   8.751  10.813   0.236 -1.3049  0.3876 -2.0015
  492MOL0     H67877   8.607  10.627   0.271 -0.9201  2.3450 -0.8636
  492MOL0     H67878   8.329  10.418   0.087  1.8029 -0.8422 -0.5571
  492MOL0     H67879   8.106  10.289   0.099  0.8674  1.5418 -1.1403
  492MOL0     H67880   6.553  10.735   0.667 -0.4041  0.6605 -0.1891
  492MOL0     H67881   6.319  10.683   0.718 -1.1358 -0.2133 -1.2044
  492MOL0     H67882   5.937  10.545   0.467 -0.0723 -0.9036 -1.1987
  492MOL0     H67883   5.680  10.537   0.471 -1.9187 -0.8211 -0.5328
  492MOL0     H67884   5.415  10.300   0.467 -0.6170  0.4960  0.9289
  492MOL0     H67885   5.582  10.286   0.435 -1.1087  3.4893 -1.0384
  492MOL0     H67886   5.601  10.104   0.609 -1.4086 -1.8039  0.8360
  492MOL0     H67887   5.465  10.074   0.508  0.4288 -1.4058 -0.4555
  492MOL0     H67888   5.439  10.178   0.796 -2.2131 -0.6563  0.4634
  492MOL0     H67889   5.318  10.171   0.667  0.9652  0.7641  0.6989
  492MOL0     H67890   5.473   9.916   0.767 -1.0744  0.3900  2.5340
  492MOL0     H67891   5.336   9.930   0.655  0.8559  0.2275 -0.4699
  492MOL0     H67892   5.162   9.965   1.041 -1.2422  2.5719 -0.8650
  492MOL0     H67893   5.683  10.284   0.790  0.4592 -1.7550 -1.5359
  492MOL0     H67894   5.962  10.137   0.780 -4.3195 -0.9146 -0.4195
  492MOL0     H67895   6.025  10.274   0.885  0.0162  0.2572 -0.3473
  492MOL0     H67896   5.865  10.212   0.898  0.6848  0.4585  0.3621
  493MOL0     O67897   7.165   5.746   2.871 -0.4681 -0.4342 -0.2049
  493MOL0     C67898   7.155   5.804   2.984 -0.3335  0.6935  0.2517
  493MOL0     O67899   7.240   5.794   3.088 -0.1192 -0.2175  0.3556
  493MOL0     C67900   7.353   5.742   3.061 -0.7765  0.5758  0.0456
  493MOL0     C67901   7.364   5.609   3.018 -0.9085  0.6286  0.3388
  493MOL0     C67902   7.491   5.541   3.034 -0.5945 -0.1468  0.8471
  493MOL0     C67903   7.604   5.607   3.087 -1.3713  0.2038  0.0269
  493MOL0     O67904   7.727   5.557   3.121 -0.2475 -0.4790 -0.2241
  493MOL0     C67905   7.758   5.422   3.090  0.8670 -0.2514  0.0162
  493MOL0     C67906   7.739   5.343   3.211  0.2139  0.9321  0.1575
  493MOL0     C67907   7.831   5.211   3.206 -0.2921  0.1157  0.7955
  493MOL0     C67908   7.970   5.235   3.266 -0.0864 -1.1346 -0.7771
  493MOL0     C67909   8.062   5.112   3.283 -0.3976  0.6320 -0.2578
  493MOL0     C67910   8.106   5.040   3.153 -0.3458 -0.1978 -0.2515
  493MOL0     C67911   8.228   4.947   3.164 -0.2700  0.9056  0.4777
  493MOL0     C67912   8.192   4.810   3.105  0.1542  0.0267 -0.4848
  493MOL0     N67913   8.302   4.713   3.128 -0.7076  0.0049 -0.9901
  493MOL0     C67914   8.410   4.709   3.050 -0.2713 -0.0419  0.5521
  493MOL0     C67915   8.494   4.614   3.098  1.0090 -0.3207 -0.1172
  493MOL0     C67916   8.631   4.580   3.052  0.3610 -0.2597 -0.7161
  493MOL0     C67917   8.652   4.440   3.006  0.1790 -0.1151 -0.0467
  493MOL0     C67918   8.798   4.402   2.988  0.3589 -0.7576 -0.2324
  493MOL0     C67919   8.872   4.501   2.890  0.1441 -0.2818 -0.4418
  493MOL0     O67920   9.007   4.466   2.866 -0.2935  0.1454  0.6806
  493MOL0     C67921   9.107   4.521   2.938 -0.3729  0.0554  0.9543
  493MOL0     C67922   9.235   4.475   2.922 -0.5096 -0.0703 -0.7417
  493MOL0     C67923   9.346   4.540   2.985  1.4441  0.2960  0.3393
  493MOL0     C67924   9.474   4.468   2.965  0.5043  0.0369  0.3952
  493MOL0     C67925   9.331   4.644   3.076  0.1131 -0.4113  0.0754
  493MOL0     C67926   9.443   4.709   3.140  1.1142 -1.2348 -0.0550
  493MOL0     O67927   9.558   4.718   3.078 -1.1877  0.5107 -0.5381
  493MOL0     C67928   9.662   4.787   3.141 -0.4036 -0.2840  0.4427
  493MOL0     C67929   9.704   4.771   3.267  0.7376  0.1161 -0.8664
  493MOL0     C67930   9.800   4.854   3.324 -0.6215 -0.9740 -0.1306
  493MOL0     C67931   9.862   4.953   3.241 -0.1213 -0.8007  0.0469
  493MOL0     O67932   9.963   5.027   3.285 -0.0576  0.5144  0.7124
  493MOL0     C67933   9.959   5.064   3.423  0.1305 -0.1264 -0.0191
  493MOL0     C67934  10.041   5.191   3.448 -0.3418  0.2595 -0.2066
  493MOL0     C67935  10.021   5.296   3.343 -0.5364  0.0140 -1.0753
  493MOL0     C67936  10.036   5.441   3.396  0.0648 -0.1096 -0.2783
  493MOL0     C67937   9.966   5.545   3.294  0.6538 -0.0616 -0.4745
  493MOL0     C67938  10.030   5.689   3.295  0.3711 -0.2622  0.0178
  493MOL0     C67939   9.932   5.796   3.234  0.3393 -0.3614 -0.1464
  493MOL0     C67940   9.957   5.938   3.282  0.4114 -0.0028 -1.1771
  493MOL0    Cl67941   9.922   5.947   3.454 -0.0203  0.0202  0.2530
  493MOL0     C67942   9.835   4.957   3.101  0.1138 -0.3791 -0.0032
  493MOL0     C67943   9.729   4.884   3.059 -0.4872 -0.9560  0.0937
  493MOL0     O67944   9.412   4.765   3.249 -0.2327  0.8421 -0.3157
  493MOL0     C67945   9.194   4.677   3.102 -0.5857 -0.0684  0.1298
  493MOL0     C67946   9.084   4.617   3.041 -1.0112  0.1482 -0.0822
  493MOL0     N67947   8.426   4.551   3.199  0.3736 -0.2985 -0.5250
  493MOL0     N67948   8.314   4.610   3.220 -0.5632  0.3312  0.3394
  493MOL0     C67949   7.596   5.745   3.116  0.0225  0.3780  0.2916
  493MOL0     C67950   7.473   5.805   3.107  0.7786  0.3350 -1.0895
  493MOL0     C67951   7.038   5.884   2.999 -0.7536 -0.2136 -0.9402
  493MOL0     C67952   6.931   5.809   3.063  0.1143 -0.2431  0.9709
  493MOL0     C67953   6.816   5.879   3.106 -0.3788  0.9054  0.5954
  493MOL0     C67954   6.806   6.013   3.065  1.3222  0.8119 -0.2605
  493MOL0     O67955   6.687   6.089   3.083 -0.2213 -0.1374 -0.6303
  493MOL0     C67956   6.652   6.119   3.214 -1.4507  0.8066 -0.2260
  493MOL0     C67957   6.504   6.144   3.210  0.2004 -0.1553 -0.1396
  493MOL0     C67958   6.463   6.225   3.334 -0.0838 -0.4434  0.5188
  493MOL0     C67959   6.468   6.131   3.463 -0.9652 -0.5275 -0.1511
  493MOL0     C67960   6.435   6.198   3.587  0.2078 -0.5896  0.5460
  493MOL0     C67961   6.418   6.259   3.686  0.8413 -0.0957 -0.5271
  493MOL0     C67962   6.901   6.077   2.993 -0.1204 -0.2542 -0.3857
  493MOL0     C67963   7.022   6.016   2.966  0.2636 -0.3239 -0.6438
  493MOL0     C67964   7.123   6.100   2.878  0.2151  1.2234 -0.3350
  493MOL0     H67965   7.272   5.560   2.987  0.5725 -1.7530 -0.6231
  493MOL0     H67966   7.492   5.434   3.018 -1.3929 -0.1193  0.5253
  493MOL0     H67967   7.860   5.406   3.054  1.2686  0.7775  0.6380
  493MOL0     H67968   7.699   5.391   3.004  0.7136 -1.2620  0.4727
  493MOL0     H67969   7.766   5.405   3.296 -1.0166  0.8817  0.6019
  493MOL0     H67970   7.633   5.316   3.218  0.0764  1.5460  0.4997
  493MOL0     H67971   7.786   5.137   3.272  0.3881 -0.3383  0.7510
  493MOL0     H67972   7.839   5.158   3.111  0.5584 -2.4582  2.2267
  493MOL0     H67973   8.026   5.294   3.194  0.1305 -1.5216 -0.9279
  493MOL0     H67974   7.968   5.291   3.360  1.0790 -3.7457  0.9349
  493MOL0     H67975   8.020   5.046   3.360 -2.8829  2.5899  0.1583
  493MOL0     H67976   8.159   5.153   3.313  0.0206  0.4223 -1.2645
  493MOL0     H67977   8.015   4.991   3.119 -2.1151  1.3044  2.0791
  493MOL0     H67978   8.130   5.116   3.077  0.7568 -0.3534 -0.0863
  493MOL0     H67979   8.252   4.936   3.270 -0.9669 -0.4429  0.5184
  493MOL0     H67980   8.313   4.991   3.112  0.8876 -0.6267  1.0064
  493MOL0     H67981   8.106   4.766   3.156 -2.6852  1.1678 -3.8966
  493MOL0     H67982   8.165   4.819   2.999 -3.6899  0.8087  0.4106
  493MOL0     H67983   8.431   4.770   2.963  1.0207 -1.1610  0.0570
  493MOL0     H67984   8.696   4.604   3.137  1.0209 -2.9313 -0.3909
  493MOL0     H67985   8.649   4.641   2.963  1.7244  0.3151 -0.0666
  493MOL0     H67986   8.600   4.371   3.074  2.1194 -0.6889  0.9117
  493MOL0     H67987   8.597   4.431   2.911  2.9007  0.1472 -1.7492
  493MOL0     H67988   8.849   4.404   3.085 -0.2959  3.1028  0.1872
  493MOL0     H67989   8.803   4.298   2.952 -2.5022 -1.3110  0.6939
  493MOL0     H67990   8.821   4.496   2.793 -1.4318  0.5918  0.2970
  493MOL0     H67991   8.877   4.610   2.905  0.4665  0.1571 -3.2781
  493MOL0     H67992   9.250   4.389   2.858  0.0907  2.0345 -3.5956
  493MOL0     H67993   9.542   4.473   3.051 -2.2127 -0.2118  2.6760
  493MOL0     H67994   9.528   4.506   2.878  0.6990 -0.4249  0.3077
  493MOL0     H67995   9.457   4.361   2.953  0.8453 -0.0121  0.3302
  493MOL0     H67996   9.648   4.699   3.325  1.5966  0.0266 -0.1462
  493MOL0     H67997   9.842   4.840   3.424  1.0761 -0.2298 -0.6936
  493MOL0     H67998   9.857   5.085   3.455 -0.6070  1.3340 -2.9964
  493MOL0     H67999  10.004   4.980   3.478 -0.9659 -0.8441 -0.1974
  493MOL0     H68000  10.020   5.232   3.547 -0.3786  0.7433 -0.4106
  493MOL0     H68001  10.148   5.167   3.446 -0.6532 -1.2709  0.4893
  493MOL0     H68002   9.924   5.291   3.293 -1.8199 -0.4204  1.2836
  493MOL0     H68003  10.097   5.291   3.265  1.8909  2.6930  0.8962
  493MOL0     H68004  10.142   5.455   3.422  0.1895 -0.9171 -0.3403
  493MOL0     H68005   9.985   5.458   3.491  1.3856  0.6919  0.3244
  493MOL0     H68006   9.975   5.500   3.195 -0.8718  0.8775 -1.0625
  493MOL0     H68007   9.862   5.551   3.329  1.5779  0.6277  2.4879
  493MOL0     H68008  10.125   5.689   3.241  0.4785  0.1926  0.2035
  493MOL0     H68009  10.059   5.713   3.397 -1.0185 -1.2729  0.6908
  493MOL0     H68010   9.828   5.771   3.258  0.9017 -1.3977  1.4064
  493MOL0     H68011   9.953   5.788   3.127  0.0433 -1.3097 -0.1420
  493MOL0     H68012   9.903   6.014   3.226 -2.6634  1.0584  2.7730
  493MOL0     H68013  10.065   5.957   3.282  0.4569 -0.1670 -0.0046
  493MOL0     H68014   9.891   5.032   3.047 -0.9890  0.7892  0.4498
  493MOL0     H68015   9.697   4.895   2.956  1.0710 -3.0076 -0.6657
  493MOL0     H68016   9.177   4.753   3.177 -0.0597 -0.5199  0.7209
  493MOL0     H68017   8.992   4.667   3.069 -0.7017  0.7447 -0.1129
  493MOL0     H68018   7.672   5.808   3.161  1.6995  0.5101 -2.5031
  493MOL0     H68019   7.469   5.910   3.135 -0.0583  0.6539 -2.3244
  493MOL0     H68020   6.949   5.703   3.076 -0.0694 -0.1707  1.8633
  493MOL0     H68021   6.732   5.832   3.157 -1.1154  4.0021  2.5121
  493MOL0     H68022   6.685   6.038   3.279 -3.4988 -0.8490 -1.1422
  493MOL0     H68023   6.710   6.204   3.253  2.1548 -1.9685  1.0238
  493MOL0     H68024   6.444   6.053   3.212  1.0733 -0.7597 -0.4948
  493MOL0     H68025   6.481   6.202   3.121 -1.0098 -1.0149 -0.4127
  493MOL0     H68026   6.527   6.313   3.345  1.7577 -1.8224  1.5852
  493MOL0     H68027   6.366   6.271   3.313  0.4523 -0.0028 -1.1646
  493MOL0     H68028   6.568   6.086   3.468 -0.5958 -0.2116 -3.0955
  493MOL0     H68029   6.400   6.046   3.451 -1.6475 -0.1770  1.0411
  493MOL0     H68030   6.415   6.307   3.782  2.1239 -1.3900  0.2092
  493MOL0     H68031   6.875   6.178   2.961  2.4295  0.0307 -1.8675
  493MOL0     H68032   7.223   6.055   2.877 -0.1970  0.2754 -1.6988
  493MOL0     H68033   7.096   6.122   2.774  1.1487  0.1300 -0.8378
  493MOL0     H68034   7.137   6.200   2.920  0.2387  0.6008  1.1903
  494MOL0     O68035  10.648   1.149   4.460  0.1735  0.2818  0.0712
  494MOL0     C68036  10.577   1.228   4.521 -0.8468  0.6881  0.5621
  494MOL0     O68037  10.626   1.332   4.595  0.0095 -0.1434  0.2792
  494MOL0     C68038  10.722   1.409   4.540 -0.5477  0.4769 -0.5036
  494MOL0     C68039  10.772   1.508   4.627  0.4297 -0.1497 -0.9184
  494MOL0     C68040  10.874   1.594   4.593  0.5881 -1.0010  0.4921
  494MOL0     C68041  10.939   1.579   4.472 -0.0337  0.1961  0.6599
  494MOL0     O68042  11.026   1.661   4.416  0.2105  0.4483 -0.1847
  494MOL0     C68043  10.978   1.795   4.406 -0.2721  0.1220 -0.1731
  494MOL0     C68044  11.067   1.888   4.323  0.4554  0.1863 -0.5794
  494MOL0     C68045  11.019   2.036   4.334 -0.7832  0.6999  0.6563
  494MOL0     C68046  11.146   2.115   4.279 -0.2477  0.0507 -0.8763
  494MOL0     C68047  11.150   2.259   4.324 -0.5279  0.5349 -0.0556
  494MOL0     C68048  11.255   2.341   4.250  0.2936 -0.1835 -0.1341
  494MOL0     C68049  11.391   2.271   4.249  0.5869 -0.1036  0.8253
  494MOL0     C68050  11.513   2.363   4.264  0.6348  0.0378 -0.0612
  494MOL0     N68051  11.542   2.395   4.401  0.0653  0.0345  1.0724
  494MOL0     C68052  11.664   2.421   4.453  0.1678  0.1012 -0.1866
  494MOL0     C68053  11.631   2.462   4.577 -0.4426  0.2370 -0.6247
  494MOL0     C68054  11.753   2.501   4.665  0.1624 -0.4531  0.1041
  494MOL0     C68055  11.721   2.633   4.749 -0.3069 -0.6304  0.6642
  494MOL0     C68056  11.781   2.609   4.892 -0.0115  0.7928 -0.3006
  494MOL0     C68057  11.807   2.737   4.967  0.3683 -1.6696  1.0530
  494MOL0     O68058  11.683   2.811   4.986  0.9932 -0.1003  0.3194
  494MOL0     C68059  11.673   2.949   5.002 -1.1901  0.6299 -0.1139
  494MOL0     C68060  11.739   3.041   4.930 -0.4839  0.2643  0.1546
  494MOL0     C68061  11.741   3.180   4.936 -1.1327 -0.4112 -0.2771
  494MOL0     C68062  11.812   3.261   4.831  0.5295  0.6560  0.6188
  494MOL0     C68063  11.672   3.234   5.047  0.1225  0.0087  1.0613
  494MOL0     C68064  11.646   3.374   5.059 -1.0417 -0.3348 -0.1227
  494MOL0     O68065  11.539   3.410   5.131 -0.0661  0.5957 -0.2268
  494MOL0     C68066  11.545   3.488   5.247 -0.6070 -0.0919  0.5303
  494MOL0     C68067  11.664   3.510   5.309 -1.3087  1.0926  0.3146
  494MOL0     C68068  11.676   3.586   5.420  0.4233 -0.2046 -0.4721
  494MOL0     C68069  11.562   3.629   5.491  0.8741 -0.1004  0.9364
  494MOL0     O68070  11.569   3.703   5.607 -0.5064 -0.1832 -0.2832
  494MOL0     C68071  11.689   3.780   5.637 -0.0923  0.1099  0.1246
  494MOL0     C68072  11.699   3.899   5.544  0.7621  0.9798  0.6133
  494MOL0     C68073  11.777   4.015   5.603 -0.2480 -0.6047  0.0891
  494MOL0     C68074  11.754   4.130   5.522 -0.6697 -0.1751  0.1437
  494MOL0     C68075  11.863   4.230   5.561  0.3176 -0.3005  0.8934
  494MOL0     C68076  11.873   4.275   5.712 -0.1154  1.3343 -0.4640
  494MOL0     C68077  11.748   4.361   5.745  0.3440  0.4200 -0.9197
  494MOL0     C68078  11.768   4.431   5.885 -0.4588 -0.6895  0.5997
  494MOL0    Cl68079  11.764   4.305   6.011 -0.5754  0.0699  0.0569
  494MOL0     C68080  11.438   3.591   5.438 -0.1052 -0.1951 -0.0598
  494MOL0     C68081  11.435   3.522   5.319  0.2019 -0.7747  0.1620
  494MOL0     O68082  11.725   3.462   5.004 -0.1071 -0.0461 -0.6114
  494MOL0     C68083  11.602   3.142   5.137 -0.3179 -0.9009  0.0335
  494MOL0     C68084  11.612   2.998   5.112  0.1547  0.0412 -0.3698
  494MOL0     N68085  11.502   2.442   4.608 -0.5004 -0.2614 -0.1460
  494MOL0     N68086  11.445   2.413   4.499 -0.2246  1.3367  0.4445
  494MOL0     C68087  10.904   1.468   4.398 -0.9375  0.2788 -0.6820
  494MOL0     C68088  10.809   1.377   4.438  0.2942 -0.7742  0.5644
  494MOL0     C68089  10.431   1.201   4.536 -0.0004 -0.0804 -0.0993
  494MOL0     C68090  10.361   1.288   4.615  0.7250  0.1200 -0.1317
  494MOL0     C68091  10.227   1.278   4.638 -0.0637  0.1082 -0.6256
  494MOL0     C68092  10.145   1.177   4.581  0.1049  1.6588 -0.2886
  494MOL0     O68093  10.009   1.162   4.603 -0.1666 -0.0696 -0.2304
  494MOL0     C68094   9.939   1.281   4.635  0.2683  0.5968  0.1152
  494MOL0     C68095   9.785   1.262   4.642  1.0441 -0.0186 -0.2374
  494MOL0     C68096   9.731   1.201   4.509 -0.0588  0.0966 -0.7931
  494MOL0     C68097   9.582   1.184   4.509  0.2373  0.7214  0.2961
  494MOL0     C68098   9.501   1.304   4.483 -0.4088  0.0110  0.0271
  494MOL0     C68099   9.431   1.399   4.455 -1.2392 -0.1292  0.5549
  494MOL0     C68100  10.218   1.077   4.505 -0.1575  0.1584  0.4968
  494MOL0     C68101  10.357   1.097   4.474 -0.1101  0.3488 -0.1057
  494MOL0     C68102  10.405   0.997   4.370 -0.3512  0.0706 -0.6818
  494MOL0     H68103  10.714   1.518   4.718  3.1110 -1.5650  1.1003
  494MOL0     H68104  10.903   1.668   4.667 -3.2747 -0.8114  2.0786
  494MOL0     H68105  10.988   1.839   4.506  1.8869 -0.3580 -0.1340
  494MOL0     H68106  10.875   1.792   4.368 -1.0990 -1.3174  1.9803
  494MOL0     H68107  11.169   1.874   4.358  0.1600 -2.6543 -0.5846
  494MOL0     H68108  11.061   1.854   4.219  1.3104 -0.9338 -0.2812
  494MOL0     H68109  10.928   2.059   4.276 -2.4996 -2.1017  2.0406
  494MOL0     H68110  11.007   2.059   4.440  0.5781  0.1524  0.9484
  494MOL0     H68111  11.236   2.058   4.304 -0.6732 -1.8408 -3.2402
  494MOL0     H68112  11.146   2.110   4.169  2.1787 -2.0776 -0.8675
  494MOL0     H68113  11.179   2.261   4.430  0.4386 -5.3759  0.1393
  494MOL0     H68114  11.056   2.312   4.307  0.2644  2.2672  0.7434
  494MOL0     H68115  11.228   2.370   4.148  3.7358  3.2574 -0.2966
  494MOL0     H68116  11.263   2.436   4.303 -1.0186 -0.8481  1.3394
  494MOL0     H68117  11.401   2.222   4.151  3.0836  2.8405 -0.5599
  494MOL0     H68118  11.393   2.184   4.315  2.0909 -2.1463 -1.7330
  494MOL0     H68119  11.590   2.303   4.215  0.0026 -1.1041  0.3163
  494MOL0     H68120  11.493   2.453   4.205 -0.3012 -1.0016 -1.3971
  494MOL0     H68121  11.759   2.404   4.402  0.7353  1.8743  0.1990
  494MOL0     H68122  11.842   2.500   4.601 -0.6734 -1.4126 -1.0999
  494MOL0     H68123  11.771   2.415   4.729  4.3668 -1.3210 -1.9344
  494MOL0     H68124  11.753   2.728   4.705 -0.6395 -0.4178  0.8702
  494MOL0     H68125  11.612   2.640   4.758 -0.4468 -0.0915 -1.0553
  494MOL0     H68126  11.724   2.531   4.944 -0.9502  1.9529  0.4413
  494MOL0     H68127  11.884   2.573   4.891  0.7410  2.0405  4.9915
  494MOL0     H68128  11.846   2.709   5.066  2.5174  0.7963  1.0128
  494MOL0     H68129  11.873   2.815   4.929 -0.8121 -0.4568  1.3799
  494MOL0     H68130  11.798   3.005   4.846 -0.6288  0.2998  0.0371
  494MOL0     H68131  11.855   3.197   4.754 -2.2753  0.6354 -1.0508
  494MOL0     H68132  11.896   3.323   4.864  3.4334 -0.3924 -3.9698
  494MOL0     H68133  11.737   3.318   4.777 -0.4880 -2.2144 -1.2233
  494MOL0     H68134  11.760   3.478   5.270 -2.5698 -2.8995 -0.0195
  494MOL0     H68135  11.776   3.601   5.460 -0.4157  2.4233  0.9143
  494MOL0     H68136  11.673   3.812   5.741 -1.6302  1.1732 -0.4005
  494MOL0     H68137  11.784   3.726   5.630  1.3085  2.5407 -0.5257
  494MOL0     H68138  11.737   3.865   5.447 -1.5621  0.0451 -0.0379
  494MOL0     H68139  11.596   3.929   5.525 -0.2970 -2.3332  0.3569
  494MOL0     H68140  11.880   3.978   5.594  0.5486  1.9550 -3.0014
  494MOL0     H68141  11.741   4.035   5.705  0.8437  0.2229  0.3245
  494MOL0     H68142  11.653   4.165   5.545 -0.0136  0.6101  2.0335
  494MOL0     H68143  11.760   4.099   5.418 -0.3450 -3.1429  0.9576
  494MOL0     H68144  11.960   4.181   5.544 -0.2095 -2.3089  3.1654
  494MOL0     H68145  11.857   4.317   5.496  0.4136 -0.5825  0.5022
  494MOL0     H68146  11.972   4.320   5.724  0.6115 -0.3366  0.0166
  494MOL0     H68147  11.873   4.188   5.777 -0.4177  1.3260 -0.4739
  494MOL0     H68148  11.661   4.297   5.759 -0.8855  2.6322  3.2601
  494MOL0     H68149  11.728   4.426   5.659  3.8340  0.2164 -2.0354
  494MOL0     H68150  11.701   4.517   5.898  1.4999  1.1599 -0.9705
  494MOL0     H68151  11.868   4.473   5.878 -1.0693  0.6752 -0.4129
  494MOL0     H68152  11.345   3.618   5.487 -0.8064 -0.7327 -1.0581
  494MOL0     H68153  11.343   3.477   5.282 -0.6211  1.8054 -1.1979
  494MOL0     H68154  11.531   3.176   5.212  1.3671 -2.0124  2.2427
  494MOL0     H68155  11.549   2.932   5.170 -0.8238  0.7877 -0.5529
  494MOL0     H68156  10.958   1.443   4.307 -0.9810  0.6889 -0.8237
  494MOL0     H68157  10.791   1.296   4.368  1.3480 -0.8423  0.3567
  494MOL0     H68158  10.409   1.368   4.671  2.2140 -1.3905  0.8221
  494MOL0     H68159  10.182   1.349   4.707 -1.0245 -1.3099  0.2571
  494MOL0     H68160   9.977   1.305   4.735  1.3025  0.1288 -0.1523
  494MOL0     H68161   9.974   1.357   4.565  2.7695 -0.6852 -0.1517
  494MOL0     H68162   9.728   1.352   4.669 -0.3613 -0.0103 -2.9384
  494MOL0     H68163   9.778   1.184   4.718  2.2418 -1.5377 -1.6234
  494MOL0     H68164   9.765   1.248   4.416 -1.9089  1.3589 -0.8845
  494MOL0     H68165   9.773   1.100   4.502  0.9542  0.2362  2.0965
  494MOL0     H68166   9.532   1.142   4.598 -0.9955  0.9824 -0.2553
  494MOL0     H68167   9.558   1.122   4.422  2.1284  2.3358 -1.4643
  494MOL0     H68168   9.375   1.482   4.419 -0.5506  0.4988  0.9207
  494MOL0     H68169  10.173   0.989   4.462 -1.0084 -0.1098  1.9052
  494MOL0     H68170  10.428   0.902   4.418 -0.2850 -0.3515 -1.5302
  494MOL0     H68171  10.323   0.976   4.301  0.5020 -0.2978 -1.6072
  494MOL0     H68172  10.484   1.048   4.314  0.7069 -1.8526 -1.0311
  495MOL0     O68173   7.740   9.336   6.546  0.1441  0.0851 -1.1686
  495MOL0     C68174   7.618   9.341   6.539 -0.8017 -0.4042  0.7580
  495MOL0     O68175   7.547   9.282   6.434 -0.1740 -0.2361 -0.2579
  495MOL0     C68176   7.599   9.163   6.378 -0.0611  0.1817  0.4405
  495MOL0     C68177   7.720   9.168   6.311  0.2255 -0.8669  0.1512
  495MOL0     C68178   7.780   9.060   6.246 -0.4238  0.4952  0.1629
  495MOL0     C68179   7.690   8.954   6.215  0.0086 -0.3713 -0.5336
  495MOL0     O68180   7.711   8.855   6.123  0.2571 -0.2438 -0.3508
  495MOL0     C68181   7.836   8.850   6.056 -0.0978 -0.7532  0.7055
  495MOL0     C68182   7.825   8.713   5.989 -0.4900 -0.4897 -0.1265
  495MOL0     C68183   7.967   8.681   5.936 -0.1073  0.0715 -0.1351
  495MOL0     C68184   7.994   8.529   5.943 -0.3997 -0.1146  0.2382
  495MOL0     C68185   7.914   8.443   5.851 -1.2776 -0.4626 -0.6183
  495MOL0     C68186   7.960   8.439   5.707  0.1919 -0.1139 -0.3381
  495MOL0     C68187   7.875   8.339   5.630  0.2915  0.6199  0.3100
  495MOL0     C68188   7.864   8.371   5.479  0.3482  0.5203  0.1918
  495MOL0     N68189   7.799   8.267   5.410 -0.2130 -0.1544 -0.8524
  495MOL0     C68190   7.671   8.274   5.358  0.2559  0.5516 -0.3894
  495MOL0     C68191   7.644   8.146   5.329  0.0855 -0.2420  0.4728
  495MOL0     C68192   7.524   8.096   5.255 -0.0280  0.6838  1.2298
  495MOL0     C68193   7.563   8.084   5.108  0.3194 -0.7193 -0.5319
  495MOL0     C68194   7.448   8.024   5.035  0.8875  0.5018  0.2901
  495MOL0     C68195   7.494   8.012   4.884  0.9026  0.4185  0.0845
  495MOL0     O68196   7.412   7.908   4.820  0.3232 -0.2333  0.0227
  495MOL0     C68197   7.380   7.933   4.683  0.0975  0.5688 -1.2666
  495MOL0     C68198   7.433   7.853   4.581  0.7850 -0.9975  0.4327
  495MOL0     C68199   7.396   7.872   4.443 -0.0709  0.6834 -0.2038
  495MOL0     C68200   7.444   7.757   4.352  0.9739  0.0087 -0.3718
  495MOL0     C68201   7.304   7.972   4.414  0.1859  0.0597 -0.9927
  495MOL0     C68202   7.283   8.015   4.279 -0.7739 -0.1452  0.1947
  495MOL0     O68203   7.387   8.004   4.183 -0.1419 -0.9643  0.2958
  495MOL0     C68204   7.392   8.106   4.084  0.9443 -0.5622  0.0430
  495MOL0     C68205   7.397   8.239   4.128  0.0540 -0.3889  0.5453
  495MOL0     C68206   7.399   8.340   4.031 -0.6195  0.4858 -0.4561
  495MOL0     C68207   7.403   8.317   3.894 -0.1641  0.1085 -0.5274
  495MOL0     O68208   7.404   8.416   3.795 -0.4323  0.6137 -0.0821
  495MOL0     C68209   7.447   8.540   3.840  0.6940 -0.7692 -0.8023
  495MOL0     C68210   7.596   8.571   3.821 -0.6891  0.3242  0.3437
  495MOL0     C68211   7.617   8.712   3.768 -0.5525  0.2782  0.4508
  495MOL0     C68212   7.755   8.724   3.708  0.4720 -0.2834 -0.7326
  495MOL0     C68213   7.759   8.861   3.653 -0.0177 -0.7530  0.5413
  495MOL0     C68214   7.900   8.905   3.621 -0.6064 -0.9872  0.4889
  495MOL0     C68215   7.909   9.058   3.607 -0.1143 -0.0474  0.3477
  495MOL0     C68216   8.051   9.114   3.605 -0.3929  0.9594  0.3982
  495MOL0    Cl68217   8.043   9.283   3.575 -0.1113  0.0771  0.0381
  495MOL0     C68218   7.382   8.186   3.851  0.0301  0.8246  0.1797
  495MOL0     C68219   7.375   8.078   3.946 -0.9140  0.6039 -0.3609
  495MOL0     O68220   7.171   8.061   4.254 -0.5733  0.6389 -0.4215
  495MOL0     C68221   7.255   8.049   4.518  0.6749 -0.7989  0.0360
  495MOL0     C68222   7.287   8.028   4.650 -0.2430  0.3488 -0.1988
  495MOL0     N68223   7.744   8.061   5.365 -0.5420  0.4513 -0.8895
  495MOL0     N68224   7.836   8.136   5.414 -0.5993  0.3555  0.3596
  495MOL0     C68225   7.559   8.951   6.277  0.1600  0.0544 -0.3491
  495MOL0     C68226   7.512   9.055   6.353  0.6776  1.0844 -0.4118
  495MOL0     C68227   7.543   9.397   6.650  0.4232 -0.0226 -0.5706
  495MOL0     C68228   7.413   9.342   6.670 -0.3668 -0.3919 -0.2570
  495MOL0     C68229   7.350   9.393   6.772  0.3396  1.0291  0.7355
  495MOL0     C68230   7.383   9.498   6.853  0.1913 -0.3863 -0.0707
  495MOL0     O68231   7.292   9.524   6.954  0.3511  0.1145  0.2911
  495MOL0     C68232   7.320   9.648   7.023  0.5752 -0.1745 -0.0139
  495MOL0     C68233   7.244   9.770   6.965  0.4833  0.0520 -0.0183
  495MOL0     C68234   7.329   9.838   6.854 -0.1271 -0.3945 -0.0391
  495MOL0     C68235   7.414   9.958   6.907  0.1559  0.2394 -0.0832
  495MOL0     C68236   7.513   9.918   7.012  0.7453  0.6313  1.5588
  495MOL0     C68237   7.611   9.888   7.084  0.1710  0.8044  0.4301
  495MOL0     C68238   7.514   9.544   6.835 -0.2318  0.0365  0.0400
  495MOL0     C68239   7.598   9.499   6.733  0.6424 -0.1518  0.0929
  495MOL0     C68240   7.735   9.572   6.712  0.4507  1.2533  0.1684
  495MOL0     H68241   7.777   9.260   6.317  2.3755 -2.2040  1.8860
  495MOL0     H68242   7.882   9.062   6.208 -0.0987 -2.7665  0.5969
  495MOL0     H68243   7.918   8.834   6.127 -1.1051 -2.5282  1.5326
  495MOL0     H68244   7.856   8.927   5.981 -1.0348 -0.9028  0.2913
  495MOL0     H68245   7.813   8.641   6.071  2.7424 -0.9705  0.0504
  495MOL0     H68246   7.747   8.705   5.912  0.4714  0.9945 -1.3111
  495MOL0     H68247   7.964   8.715   5.832  3.0310  3.0126  0.5478
  495MOL0     H68248   8.045   8.724   5.999 -1.1034  0.0520  1.1547
  495MOL0     H68249   8.098   8.507   5.917 -0.6583 -1.1296  0.0103
  495MOL0     H68250   7.986   8.488   6.045 -0.4059  1.2567  0.8127
  495MOL0     H68251   7.806   8.461   5.854 -1.1461  0.4580 -1.1744
  495MOL0     H68252   7.925   8.346   5.901 -0.1237  1.6130  3.5628
  495MOL0     H68253   7.958   8.541   5.668 -0.5333 -0.0951 -0.2793
  495MOL0     H68254   8.059   8.395   5.692 -0.8321 -1.9101 -2.3911
  495MOL0     H68255   7.777   8.326   5.677  0.3589 -1.4325 -0.0313
  495MOL0     H68256   7.923   8.241   5.637  2.1697  1.4075 -0.9769
  495MOL0     H68257   7.808   8.460   5.448  0.2245  0.8775  1.3871
  495MOL0     H68258   7.964   8.371   5.435  1.0890 -4.2879  1.2778
  495MOL0     H68259   7.607   8.360   5.342  0.8269  1.1380  0.4085
  495MOL0     H68260   7.448   8.173   5.266 -3.0828 -0.9110 -4.6821
  495MOL0     H68261   7.485   7.999   5.288  0.1115 -0.1755 -1.0040
  495MOL0     H68262   7.589   8.186   5.076  1.2002 -0.3063  1.3552
  495MOL0     H68263   7.639   8.007   5.096 -0.4300 -1.6883  0.6623
  495MOL0     H68264   7.432   7.924   5.075  0.9437 -0.4675 -1.9678
  495MOL0     H68265   7.356   8.081   5.049  0.6622  0.6796 -1.5615
  495MOL0     H68266   7.488   8.115   4.846  2.1737 -0.6061 -3.2354
  495MOL0     H68267   7.601   7.990   4.883  0.8965  0.3011 -1.7606
  495MOL0     H68268   7.502   7.771   4.600  2.4787 -0.1878 -1.7833
  495MOL0     H68269   7.346   7.736   4.308 -0.4276  3.8485  0.5074
  495MOL0     H68270   7.487   7.684   4.421 -1.9276 -0.0925  1.4512
  495MOL0     H68271   7.522   7.794   4.283  2.8867 -2.0684  0.5558
  495MOL0     H68272   7.400   8.268   4.232  0.9587  3.2380 -0.3643
  495MOL0     H68273   7.411   8.435   4.082  6.1896 -1.4401  2.6782
  495MOL0     H68274   7.387   8.610   3.780  4.4405  2.5797 -1.0253
  495MOL0     H68275   7.417   8.573   3.940 -0.6091  0.2843 -1.5007
  495MOL0     H68276   7.663   8.555   3.906  1.8345  2.4793 -1.0945
  495MOL0     H68277   7.632   8.503   3.744  2.8252  1.6478  0.6276
  495MOL0     H68278   7.588   8.782   3.848 -1.4384 -0.5105  0.8399
  495MOL0     H68279   7.555   8.724   3.679  1.8315  0.2572 -1.3083
  495MOL0     H68280   7.774   8.644   3.635 -0.9919 -2.5624  1.2268
  495MOL0     H68281   7.823   8.710   3.793 -0.8711 -0.3568  0.3676
  495MOL0     H68282   7.699   8.855   3.562 -2.5782  1.8167  1.8846
  495MOL0     H68283   7.709   8.931   3.720  0.3109  1.0824 -1.0520
  495MOL0     H68284   7.953   8.857   3.538  1.5818  2.9218 -0.6117
  495MOL0     H68285   7.961   8.883   3.709 -1.1056 -0.9839  0.8395
  495MOL0     H68286   7.880   9.112   3.698  1.8373  2.0853 -0.1801
  495MOL0     H68287   7.844   9.094   3.526  0.4047 -2.9712 -1.5082
  495MOL0     H68288   8.105   9.065   3.524 -2.4058  1.0789 -1.1075
  495MOL0     H68289   8.103   9.098   3.699 -0.5750  1.1967  0.5415
  495MOL0     H68290   7.364   8.175   3.745 -0.2560 -0.3215  0.3397
  495MOL0     H68291   7.356   7.976   3.912 -5.6876  1.2387 -0.3440
  495MOL0     H68292   7.189   8.133   4.499 -0.8442 -1.4489  2.0443
  495MOL0     H68293   7.251   8.084   4.735 -0.0351 -0.0149  0.1322
  495MOL0     H68294   7.493   8.871   6.244  0.4836  0.0395 -0.9837
  495MOL0     H68295   7.414   9.053   6.398  2.1258 -1.2361  3.0053
  495MOL0     H68296   7.371   9.258   6.615 -0.9969  0.3743 -0.9790
  495MOL0     H68297   7.255   9.345   6.794 -0.1187  1.1167 -0.9535
  495MOL0     H68298   7.281   9.629   7.124  1.7638 -2.6962  0.0469
  495MOL0     H68299   7.424   9.673   7.048 -0.6819  2.7194  3.3459
  495MOL0     H68300   7.210   9.837   7.044 -0.3657 -0.6775  0.2569
  495MOL0     H68301   7.155   9.721   6.923  1.0193 -1.2022  0.2701
  495MOL0     H68302   7.381   9.765   6.792  1.9309  2.3102 -1.7206
  495MOL0     H68303   7.260   9.897   6.792 -0.1708 -0.1721  0.2200
  495MOL0     H68304   7.345  10.017   6.968 -0.2059 -0.3896  0.1312
  495MOL0     H68305   7.462  10.013   6.827  1.2763 -0.3772  0.1357
  495MOL0     H68306   7.692   9.856   7.147 -0.6679 -0.6663  0.8333
  495MOL0     H68307   7.568   9.611   6.902  0.3684 -0.7729  0.3844
  495MOL0     H68308   7.814   9.502   6.741 -1.4987 -1.7865 -1.3263
  495MOL0     H68309   7.754   9.601   6.608  1.1574  0.5111  0.0744
  495MOL0     H68310   7.751   9.652   6.784  0.9929 -0.9264  2.6094
  496MOL0     O68311   7.975   2.772   5.090  0.0650  0.0037  0.7446
  496MOL0     C68312   7.896   2.865   5.084  0.9789 -0.5130  0.3651
  496MOL0     O68313   7.771   2.863   5.132  0.2382 -0.7889  0.4298
  496MOL0     C68314   7.727   2.749   5.198 -0.9282 -0.0052  0.2844
  496MOL0     C68315   7.781   2.726   5.323  0.5420 -0.0419  0.0989
  496MOL0     C68316   7.732   2.622   5.408 -0.0371  0.3244 -0.0569
  496MOL0     C68317   7.627   2.537   5.365 -0.6607 -0.4477 -1.0010
  496MOL0     O68318   7.568   2.444   5.446  1.0694  0.5117 -0.4304
  496MOL0     C68319   7.629   2.399   5.570  0.6594  0.2261  0.0400
  496MOL0     C68320   7.522   2.302   5.643 -1.0673 -0.1561 -0.3951
  496MOL0     C68321   7.503   2.166   5.566 -0.2275 -0.0843 -0.0003
  496MOL0     C68322   7.602   2.056   5.609 -0.4039 -0.3668 -0.2459
  496MOL0     C68323   7.597   1.948   5.509 -0.4407  0.1772  0.2111
  496MOL0     C68324   7.460   1.879   5.494  0.3019  0.5928  0.3116
  496MOL0     C68325   7.470   1.780   5.371  0.5901 -0.9961 -1.1625
  496MOL0     C68326   7.336   1.706   5.360 -0.3711  0.5279 -1.0089
  496MOL0     N68327   7.346   1.614   5.251  0.1321 -0.1534  0.1621
  496MOL0     C68328   7.334   1.631   5.117  0.5989 -0.2395 -0.5861
  496MOL0     C68329   7.326   1.506   5.066  0.3442 -0.2906 -0.2701
  496MOL0     C68330   7.308   1.480   4.921  0.7418 -0.4353  0.2266
  496MOL0     C68331   7.158   1.466   4.886 -0.1341 -0.7142  0.4789
  496MOL0     C68332   7.140   1.359   4.771  0.8149 -0.2815  0.2785
  496MOL0     C68333   6.989   1.353   4.736 -0.0461 -0.8358 -0.8723
  496MOL0     O68334   6.909   1.312   4.851 -0.1903  0.3216 -0.1284
  496MOL0     C68335   6.787   1.380   4.868  0.2708 -0.5995  0.4980
  496MOL0     C68336   6.732   1.487   4.781 -0.0863 -0.1617  0.3781
  496MOL0     C68337   6.621   1.561   4.826 -0.0936  1.4726  0.7704
  496MOL0     C68338   6.584   1.669   4.729 -0.1452 -0.4660  0.5519
  496MOL0     C68339   6.553   1.525   4.945 -0.4329  0.1085  0.7416
  496MOL0     C68340   6.435   1.599   4.999  0.4975  0.1485 -0.1353
  496MOL0     O68341   6.383   1.562   5.118  0.3137 -0.2910  0.4502
  496MOL0     C68342   6.264   1.621   5.158 -0.7218  0.1211  0.7636
  496MOL0     C68343   6.262   1.754   5.205 -0.2976 -0.0230  0.9531
  496MOL0     C68344   6.140   1.812   5.240 -0.0610 -0.8807 -0.0284
  496MOL0     C68345   6.021   1.742   5.235 -0.0539  0.8397 -0.0341
  496MOL0     O68346   5.895   1.787   5.267 -0.4051 -0.4774  0.2210
  496MOL0     C68347   5.890   1.925   5.297  0.0376 -0.7365  0.2705
  496MOL0     C68348   5.736   1.955   5.295 -0.4834 -0.3220  0.5976
  496MOL0     C68349   5.653   1.842   5.362 -0.7003  0.3706 -0.3508
  496MOL0     C68350   5.504   1.902   5.388 -1.1507 -0.1932  0.4531
  496MOL0     C68351   5.430   1.939   5.253  1.0762 -0.3383 -0.3026
  496MOL0     C68352   5.281   1.990   5.286 -0.1169 -0.4934 -0.1298
  496MOL0     C68353   5.179   1.888   5.341 -0.0704 -0.1637 -0.8329
  496MOL0     C68354   5.119   1.813   5.217 -0.5327  0.1052  0.6307
  496MOL0    Cl68355   4.982   1.910   5.156 -0.2140 -0.2739  0.0405
  496MOL0     C68356   6.027   1.604   5.212  0.0603  0.3019  0.7360
  496MOL0     C68357   6.148   1.544   5.167  0.0746 -0.0899 -0.4816
  496MOL0     O68358   6.378   1.689   4.932 -0.4169 -0.8475 -0.3831
  496MOL0     C68359   6.600   1.412   5.016  0.1258 -0.3668 -0.3012
  496MOL0     C68360   6.715   1.339   4.983  0.3265  0.1275 -0.1922
  496MOL0     N68361   7.340   1.413   5.167  0.5578  0.5085 -0.2340
  496MOL0     N68362   7.359   1.477   5.274 -0.8882  0.3533  0.9913
  496MOL0     C68363   7.570   2.570   5.240 -0.1042  0.6803 -1.2963
  496MOL0     C68364   7.621   2.673   5.155 -0.2697 -0.2508  0.1223
  496MOL0     C68365   7.955   2.996   5.060  0.1039  0.4052  0.5197
  496MOL0     C68366   7.889   3.092   4.980 -0.2007 -0.7596  0.7325
  496MOL0     C68367   7.944   3.221   4.950  0.4661 -0.7363  0.4849
  496MOL0     C68368   8.066   3.257   5.003  0.0992  0.0077  0.4805
  496MOL0     O68369   8.139   3.369   4.964  0.0972  0.6569  0.1192
  496MOL0     C68370   8.105   3.431   4.839 -0.6539  0.0888 -0.2356
  496MOL0     C68371   7.994   3.526   4.861 -0.0942  0.0976  0.0971
  496MOL0     C68372   8.057   3.671   4.830 -0.2788 -1.2042 -0.5233
  496MOL0     C68373   7.956   3.784   4.815  0.3120 -0.0820  0.3407
  496MOL0     C68374   7.853   3.760   4.716 -0.9544  0.8755  0.1721
  496MOL0     C68375   7.767   3.711   4.647  0.3912 -0.3134  0.5770
  496MOL0     C68376   8.132   3.163   5.087  0.0581 -0.4297 -0.2067
  496MOL0     C68377   8.075   3.043   5.118  1.2347  0.2808 -0.2532
  496MOL0     C68378   8.146   2.961   5.229  0.9131  0.3064 -0.5910
  496MOL0     H68379   7.861   2.787   5.364  2.0113 -2.4325  1.0113
  496MOL0     H68380   7.762   2.610   5.511 -0.9882  0.9737  0.3086
  496MOL0     H68381   7.639   2.485   5.637 -2.4791 -1.3793  2.8751
  496MOL0     H68382   7.728   2.352   5.572  0.0460 -1.0937  0.7704
  496MOL0     H68383   7.552   2.289   5.748 -0.1710  0.5481 -0.5538
  496MOL0     H68384   7.430   2.360   5.647  0.2974  2.5078 -3.2797
  496MOL0     H68385   7.400   2.136   5.586 -0.9037  0.6698 -2.0314
  496MOL0     H68386   7.505   2.189   5.459  0.2752  2.6571  0.5215
  496MOL0     H68387   7.706   2.091   5.610  0.3889 -2.5773  1.6068
  496MOL0     H68388   7.579   2.010   5.706 -2.2908 -0.3094 -0.6206
  496MOL0     H68389   7.675   1.872   5.522  2.1888  3.0214  2.5612
  496MOL0     H68390   7.605   2.000   5.413 -0.7918  1.0084  0.6206
  496MOL0     H68391   7.447   1.819   5.584  1.0531  0.8347  0.5847
  496MOL0     H68392   7.374   1.945   5.477  0.9058  1.2537 -0.2453
  496MOL0     H68393   7.555   1.712   5.373  0.9205 -0.9098 -5.1442
  496MOL0     H68394   7.484   1.831   5.275 -1.3204 -0.4860 -1.2199
  496MOL0     H68395   7.323   1.649   5.452  1.9513 -0.6595 -1.3290
  496MOL0     H68396   7.254   1.778   5.351 -2.7965 -2.1277 -1.3364
  496MOL0     H68397   7.327   1.727   5.067  2.7199 -0.1291 -0.7730
  496MOL0     H68398   7.349   1.380   4.904  1.6594  0.2357 -1.8251
  496MOL0     H68399   7.371   1.548   4.863  2.2144  0.3872  2.6416
  496MOL0     H68400   7.107   1.433   4.978 -0.1022 -0.5409  0.5592
  496MOL0     H68401   7.131   1.571   4.870  1.1952 -0.7907 -2.9827
  496MOL0     H68402   7.207   1.389   4.690  1.5671  1.2554  1.4376
  496MOL0     H68403   7.176   1.264   4.810 -0.1965 -0.2098  1.4464
  496MOL0     H68404   6.960   1.448   4.689 -1.8781 -0.9947 -0.1556
  496MOL0     H68405   6.989   1.271   4.664 -0.4767 -0.4855 -1.2769
  496MOL0     H68406   6.775   1.515   4.685 -0.4756 -0.0516  0.2352
  496MOL0     H68407   6.496   1.646   4.669 -1.0552  1.7521  0.9425
  496MOL0     H68408   6.656   1.692   4.650 -5.0912  0.5487 -4.2759
  496MOL0     H68409   6.554   1.756   4.789  0.5251  0.4971 -0.4780
  496MOL0     H68410   6.356   1.808   5.217 -0.1729 -0.7507  4.4769
  496MOL0     H68411   6.144   1.917   5.265 -0.5458  0.0027 -3.2264
  496MOL0     H68412   5.933   1.965   5.389 -3.4849  0.0367  1.7465
  496MOL0     H68413   5.943   1.984   5.222  0.8079  1.1724  2.2173
  496MOL0     H68414   5.729   2.054   5.341 -0.6794 -1.5513  3.4712
  496MOL0     H68415   5.707   1.956   5.190 -0.8306 -1.4640  0.6572
  496MOL0     H68416   5.696   1.818   5.460 -0.2006  0.1365 -0.6261
  496MOL0     H68417   5.650   1.754   5.298  0.0380 -0.3468  0.5816
  496MOL0     H68418   5.509   1.991   5.452  0.2276  1.8719 -2.3432
  496MOL0     H68419   5.443   1.837   5.452 -0.1192 -1.8856 -0.1852
  496MOL0     H68420   5.471   2.024   5.198  0.7853 -0.0216 -0.0333
  496MOL0     H68421   5.427   1.843   5.200 -2.0535 -1.4757  1.6997
  496MOL0     H68422   5.236   2.043   5.201  1.7184 -0.8856 -1.3991
  496MOL0     H68423   5.293   2.060   5.369  2.1466 -0.8992 -0.0539
  496MOL0     H68424   5.101   1.947   5.390  0.8534 -0.7127  1.4381
  496MOL0     H68425   5.219   1.825   5.421 -3.9300 -1.0847  0.5818
  496MOL0     H68426   5.081   1.718   5.257 -0.0485 -0.1735  0.4385
  496MOL0     H68427   5.190   1.793   5.136  0.0278 -2.0180  1.5466
  496MOL0     H68428   5.934   1.547   5.207  0.4404 -0.3355  0.7588
  496MOL0     H68429   6.160   1.436   5.163  0.7462 -0.0385 -0.0380
  496MOL0     H68430   6.548   1.384   5.107  1.4397  0.4768  0.7419
  496MOL0     H68431   6.753   1.258   5.044 -0.8642  0.1211  0.5730
  496MOL0     H68432   7.490   2.510   5.201  1.4062 -1.5856 -1.0701
  496MOL0     H68433   7.578   2.690   5.057  2.6910  0.3931 -1.1637
  496MOL0     H68434   7.787   3.071   4.949 -0.4520 -1.2362  1.8404
  496MOL0     H68435   7.880   3.287   4.893  1.0868  0.4040  1.0681
  496MOL0     H68436   8.200   3.473   4.804 -0.8987  1.0883  0.2504
  496MOL0     H68437   8.071   3.355   4.768 -2.3814 -0.2525  0.9081
  496MOL0     H68438   7.961   3.528   4.965  0.5559 -2.9621  0.4658
  496MOL0     H68439   7.912   3.496   4.796 -2.1777  1.3252  2.0316
  496MOL0     H68440   8.133   3.699   4.903 -1.8566  0.5338  0.5475
  496MOL0     H68441   8.104   3.661   4.732  1.5114 -0.3133  0.1963
  496MOL0     H68442   7.994   3.885   4.800 -2.5101  0.8319 -1.3482
  496MOL0     H68443   7.905   3.780   4.912 -0.0684  1.6851  0.2339
  496MOL0     H68444   7.679   3.676   4.597  0.0429  0.1868  0.8240
  496MOL0     H68445   8.223   3.182   5.144 -1.3294 -1.1147  2.3898
  496MOL0     H68446   8.081   2.879   5.260 -0.0213  1.4278  0.5204
  496MOL0     H68447   8.249   2.936   5.205  1.9961  1.9226  1.9192
  496MOL0     H68448   8.158   3.019   5.321  2.9458 -3.1152  1.5549
  497MOL0     O68449   5.291   7.447   6.011 -0.1901  0.4803  0.4731
  497MOL0     C68450   5.180   7.410   6.049 -0.7657  0.4531 -0.6717
  497MOL0     O68451   5.095   7.480   6.130  0.0543  0.7991 -0.0841
  497MOL0     C68452   5.139   7.587   6.199 -0.2812  1.2001 -0.1258
  497MOL0     C68453   5.119   7.596   6.337  0.3882  0.2259  0.7497
  497MOL0     C68454   5.156   7.710   6.408  0.1485  0.6982 -0.6717
  497MOL0     C68455   5.229   7.811   6.344  0.4819  0.4788 -1.2325
  497MOL0     O68456   5.292   7.913   6.416 -0.3127 -0.3296  0.5101
  497MOL0     C68457   5.232   7.976   6.524  0.2130  0.5240 -0.3591
  497MOL0     C68458   5.325   8.080   6.578  0.3278  0.4175 -0.1583
  497MOL0     C68459   5.377   8.185   6.490  1.1072  0.3927  1.2495
  497MOL0     C68460   5.465   8.276   6.575  0.1261  1.0916 -0.0075
  497MOL0     C68461   5.505   8.405   6.507 -0.6539 -0.5080  0.0577
  497MOL0     C68462   5.498   8.509   6.621  0.1189 -0.4342  0.3203
  497MOL0     C68463   5.635   8.486   6.699  0.6064 -1.5551  0.4022
  497MOL0     C68464   5.657   8.600   6.811 -0.2064 -0.0564  0.3326
  497MOL0     N68465   5.557   8.616   6.917 -0.9499  0.1489  0.1398
  497MOL0     C68466   5.457   8.527   6.949 -0.0756 -0.2294  0.8559
  497MOL0     C68467   5.367   8.597   7.031 -1.1616  0.2475 -0.3128
  497MOL0     C68468   5.237   8.546   7.070 -0.5504 -0.1878 -0.1516
  497MOL0     C68469   5.164   8.639   7.185 -0.0275 -0.0907 -0.2223
  497MOL0     C68470   5.221   8.630   7.325 -0.8650 -0.6316 -0.5572
  497MOL0     C68471   5.262   8.495   7.365  0.4478 -0.2838 -0.9280
  497MOL0     O68472   5.296   8.491   7.505  0.3970 -0.3638 -0.5745
  497MOL0     C68473   5.313   8.379   7.580 -0.7225  0.1843 -0.5124
  497MOL0     C68474   5.352   8.260   7.523 -0.6909 -0.4026 -0.4923
  497MOL0     C68475   5.394   8.155   7.598 -0.5124  0.3060 -1.2581
  497MOL0     C68476   5.418   8.016   7.527  0.0143 -0.1404 -0.5110
  497MOL0     C68477   5.410   8.172   7.745  0.1080  0.0077 -0.3406
  497MOL0     C68478   5.446   8.056   7.835 -0.9841  0.2380 -0.1787
  497MOL0     O68479   5.481   8.091   7.962  0.4631 -0.1821  0.3722
  497MOL0     C68480   5.489   8.004   8.066  0.5988 -0.0613  0.1534
  497MOL0     C68481   5.453   8.058   8.192 -0.2086  0.3607  0.1603
  497MOL0     C68482   5.440   7.977   8.303  0.0016 -0.0166  0.3814
  497MOL0     C68483   5.485   7.842   8.296  0.6777 -0.3132 -0.0867
  497MOL0     O68484   5.478   7.742   8.395 -0.0805 -0.3341 -0.9533
  497MOL0     C68485   5.467   7.773   8.541  0.0155 -1.0089  0.7096
  497MOL0     C68486   5.601   7.831   8.592 -0.1460  0.3527  0.4117
  497MOL0     C68487   5.704   7.728   8.629 -0.2855  0.7465  0.3957
  497MOL0     C68488   5.834   7.787   8.688 -0.5681  0.0804 -1.1422
  497MOL0     C68489   5.931   7.672   8.720 -0.7382 -0.1064 -0.5835
  497MOL0     C68490   6.035   7.737   8.815 -0.4686 -0.5049  0.1984
  497MOL0     C68491   6.131   7.616   8.851 -0.3067  0.1510 -0.5684
  497MOL0     C68492   6.253   7.665   8.929 -0.0977  0.8250 -0.0368
  497MOL0    Cl68493   6.322   7.525   9.033  0.0449 -0.2532 -0.1458
  497MOL0     C68494   5.515   7.791   8.171 -0.9021  0.0188 -0.4427
  497MOL0     C68495   5.521   7.872   8.059  0.2280 -0.0124  0.1916
  497MOL0     O68496   5.420   7.944   7.787  0.1966  0.4825  0.0324
  497MOL0     C68497   5.378   8.301   7.801  0.4055 -0.3367  0.0114
  497MOL0     C68498   5.326   8.410   7.720  0.3222  0.4264 -0.3923
  497MOL0     N68499   5.425   8.717   7.063 -0.0649 -0.4571  0.0281
  497MOL0     N68500   5.541   8.726   7.000 -0.0654 -0.1542 -0.0082
  497MOL0     C68501   5.234   7.801   6.205 -0.0473  0.5238  0.5021
  497MOL0     C68502   5.184   7.696   6.130 -0.9066  0.5195  0.2795
  497MOL0     C68503   5.128   7.287   5.989  0.1594  0.3154 -0.2679
  497MOL0     C68504   4.987   7.272   6.011 -0.0281  0.3311  0.3624
  497MOL0     C68505   4.918   7.162   5.954  0.2971  0.2828  0.2515
  497MOL0     C68506   4.986   7.077   5.866 -0.0191 -0.8032  0.9840
  497MOL0     O68507   4.923   6.979   5.786 -0.3247 -0.6720 -0.1396
  497MOL0     C68508   4.772   6.964   5.783 -0.3815  0.6675 -0.3337
  497MOL0     C68509   4.708   7.051   5.667  0.7657  1.0428  0.1717
  497MOL0     C68510   4.681   6.968   5.535 -0.4039 -0.4012  0.0125
  497MOL0     C68511   4.580   7.042   5.441 -0.7337 -0.4235  0.4473
  497MOL0     C68512   4.628   7.160   5.379 -0.1333 -0.3697 -0.5398
  497MOL0     C68513   4.686   7.255   5.333 -0.4173  0.2075  0.9016
  497MOL0     C68514   5.130   7.087   5.848 -0.0194  0.8257 -0.6746
  497MOL0     C68515   5.198   7.197   5.906  0.2913  0.2709  0.6130
  497MOL0     C68516   5.351   7.174   5.931 -0.6060 -0.2085  0.2501
  497MOL0     H68517   5.065   7.519   6.391  1.1425 -1.3590 -0.6559
  497MOL0     H68518   5.127   7.708   6.512 -0.9349  1.6752 -0.9456
  497MOL0     H68519   5.211   7.899   6.599  0.7444  2.4194  1.8462
  497MOL0     H68520   5.140   8.021   6.484 -0.9887 -3.1616 -2.2703
  497MOL0     H68521   5.277   8.111   6.671  2.1303  1.2567  0.5431
  497MOL0     H68522   5.424   8.037   6.600  1.4351  1.2907 -2.9408
  497MOL0     H68523   5.429   8.137   6.407  2.4409  0.6208  1.9355
  497MOL0     H68524   5.295   8.251   6.458  1.3992 -0.2334 -0.9786
  497MOL0     H68525   5.417   8.297   6.671 -0.3584 -2.5663  0.6764
  497MOL0     H68526   5.556   8.225   6.606 -2.0984 -2.2589  1.6497
  497MOL0     H68527   5.434   8.448   6.435  1.3300  0.0462 -1.6555
  497MOL0     H68528   5.602   8.392   6.458 -0.3380 -0.6227  0.7146
  497MOL0     H68529   5.499   8.607   6.572  0.3352 -0.1806  0.8273
  497MOL0     H68530   5.404   8.506   6.676  0.3802 -0.0426  0.7981
  497MOL0     H68531   5.718   8.486   6.628  1.8410  4.4419  1.3417
  497MOL0     H68532   5.625   8.389   6.747  0.8692 -1.5411  0.4859
  497MOL0     H68533   5.750   8.571   6.861  0.6976  0.7808 -0.8161
  497MOL0     H68534   5.670   8.698   6.766 -4.8993  1.0949  0.9679
  497MOL0     H68535   5.431   8.434   6.899 -1.3390  1.1607 -1.2201
  497MOL0     H68536   5.239   8.440   7.095 -1.8268  0.5234  3.5330
  497MOL0     H68537   5.178   8.560   6.979 -0.2823 -0.5741 -0.3878
  497MOL0     H68538   5.177   8.737   7.138 -4.2341  1.5798  1.5599
  497MOL0     H68539   5.058   8.612   7.191  0.0408 -0.6975 -1.3832
  497MOL0     H68540   5.304   8.701   7.330 -2.6078  1.4097  1.6711
  497MOL0     H68541   5.154   8.674   7.399  0.1312  1.4678 -0.8357
  497MOL0     H68542   5.182   8.421   7.357  1.1973 -1.1154 -0.9424
  497MOL0     H68543   5.345   8.465   7.301  2.0727 -0.0074  0.9466
  497MOL0     H68544   5.360   8.264   7.415 -0.2755  1.1543 -0.4286
  497MOL0     H68545   5.323   7.962   7.538  0.7256 -1.2759  0.2933
  497MOL0     H68546   5.506   7.959   7.558  0.5166 -0.2310 -2.0234
  497MOL0     H68547   5.440   8.020   7.420  4.3767 -0.8593  0.1856
  497MOL0     H68548   5.422   8.161   8.207  4.2138  1.8256  0.4809
  497MOL0     H68549   5.402   8.019   8.396 -0.4727 -1.6536  0.9672
  497MOL0     H68550   5.382   7.842   8.540  0.0135 -0.9562  2.0713
  497MOL0     H68551   5.432   7.691   8.603 -2.0304  0.5486  1.7447
  497MOL0     H68552   5.645   7.907   8.527 -2.4678  1.5102  0.0937
  497MOL0     H68553   5.565   7.879   8.683 -1.0857 -0.0169  0.2431
  497MOL0     H68554   5.727   7.676   8.535  0.9484  0.3663  0.8934
  497MOL0     H68555   5.658   7.660   8.702  0.6485  0.7290  0.9801
  497MOL0     H68556   5.808   7.842   8.779 -1.0922 -0.2395 -1.0969
  497MOL0     H68557   5.882   7.864   8.628  3.4170 -1.1004  0.1895
  497MOL0     H68558   5.876   7.589   8.767 -1.9789  0.8892 -0.2172
  497MOL0     H68559   5.973   7.644   8.623 -1.1093  0.3380 -0.8776
  497MOL0     H68560   5.989   7.777   8.906 -0.3190  0.1304  0.0019
  497MOL0     H68561   6.092   7.817   8.766 -1.2499  1.1300  1.8459
  497MOL0     H68562   6.173   7.565   8.764  2.6569 -2.3652  2.0426
  497MOL0     H68563   6.074   7.548   8.915  0.5578 -1.0308 -1.0110
  497MOL0     H68564   6.227   7.755   8.986  0.6877  0.4879  0.8822
  497MOL0     H68565   6.328   7.692   8.854  4.3254 -1.1522  3.2063
  497MOL0     H68566   5.549   7.688   8.167  2.4808  0.9303  0.8036
  497MOL0     H68567   5.560   7.840   7.963  0.1633  0.6673 -0.0693
  497MOL0     H68568   5.390   8.306   7.909  0.6567  0.5145 -0.0505
  497MOL0     H68569   5.293   8.508   7.753 -1.3601  0.3456 -1.7166
  497MOL0     H68570   5.291   7.864   6.138  1.7123 -2.7733 -1.3937
  497MOL0     H68571   5.211   7.676   6.027  0.8002 -0.9243  0.9506
  497MOL0     H68572   4.917   7.332   6.067 -1.2182  0.3812 -1.1079
  497MOL0     H68573   4.809   7.168   5.962  0.4268  2.2830  1.0707
  497MOL0     H68574   4.742   6.860   5.766 -3.2345  1.0596  1.5289
  497MOL0     H68575   4.714   6.970   5.876 -2.3091 -1.7380 -1.2704
  497MOL0     H68576   4.779   7.132   5.646  1.6806 -0.7219 -4.7943
  497MOL0     H68577   4.622   7.103   5.710  1.6852  0.5200  2.8954
  497MOL0     H68578   4.777   6.939   5.491  0.1086 -2.7472  2.3811
  497MOL0     H68579   4.635   6.878   5.577 -0.2406 -0.5324 -0.0887
  497MOL0     H68580   4.491   7.066   5.500 -1.5417 -0.6646 -0.6501
  497MOL0     H68581   4.545   6.978   5.360 -0.5459 -0.4562  0.3900
  497MOL0     H68582   4.735   7.335   5.283 -1.4096 -1.2597 -2.7325
  497MOL0     H68583   5.177   7.022   5.776  2.5085  1.2568  0.4799
  497MOL0     H68584   5.394   7.089   5.878 -0.4364  0.2873 -0.4095
  497MOL0     H68585   5.411   7.260   5.900  1.8894 -1.5630  1.0379
  497MOL0     H68586   5.377   7.161   6.037  1.8893  0.9941 -0.1250
  498MOL0     O68587   4.015   9.189   5.413 -0.9061  0.4836 -0.2492
  498MOL0     C68588   4.062   9.201   5.524 -0.2909 -0.4321 -0.3238
  498MOL0     O68589   4.003   9.163   5.638  1.5237  0.3631  0.2746
  498MOL0     C68590   3.875   9.104   5.624 -0.2442  0.6461  0.4373
  498MOL0     C68591   3.859   8.968   5.604 -0.4613 -0.9596  1.0954
  498MOL0     C68592   3.731   8.908   5.585 -0.5591 -0.0379  1.5835
  498MOL0     C68593   3.620   8.988   5.597 -0.0693 -0.6239 -0.5165
  498MOL0     O68594   3.501   8.926   5.573 -0.1775 -0.1147 -0.1799
  498MOL0     C68595   3.397   8.942   5.675 -0.1615  0.0559 -1.3456
  498MOL0     C68596   3.285   8.824   5.668 -0.5983  0.1458 -0.3827
  498MOL0     C68597   3.185   8.847   5.550  0.0969  0.6880  0.2369
  498MOL0     C68598   3.053   8.773   5.577  0.6703  0.1002 -0.4201
  498MOL0     C68599   2.940   8.845   5.664  0.0124 -0.5162 -0.2532
  498MOL0     C68600   3.005   8.942   5.776  0.6424  0.5853  0.2678
  498MOL0     C68601   2.907   9.022   5.857  0.8285 -0.8883 -0.2515
  498MOL0     C68602   2.950   9.101   5.978  0.0903 -0.2245  0.4932
  498MOL0     N68603   2.884   9.228   6.000  0.1241 -0.3083  0.0420
  498MOL0     C68604   2.747   9.235   6.024 -1.4521 -0.2513 -0.4670
  498MOL0     C68605   2.727   9.367   6.009 -0.2262  0.0704 -0.5509
  498MOL0     C68606   2.602   9.430   6.044 -0.6869  0.2900  0.1848
  498MOL0     C68607   2.528   9.447   5.910  0.3508  0.3572  0.8274
  498MOL0     C68608   2.560   9.582   5.857  0.5719  0.1976 -0.5683
  498MOL0     C68609   2.526   9.611   5.713 -0.5225  0.2301  0.4627
  498MOL0     O68610   2.647   9.586   5.633 -0.1641  0.3515  0.0377
  498MOL0     C68611   2.742   9.687   5.627  0.6430 -0.2090  0.4190
  498MOL0     C68612   2.837   9.662   5.531 -0.6328 -0.6236  0.7102
  498MOL0     C68613   2.944   9.751   5.500  0.3425  0.3805  0.1910
  498MOL0     C68614   3.037   9.718   5.389  0.4476  0.0542  0.3163
  498MOL0     C68615   2.949   9.869   5.571  0.3043 -1.2847  0.2160
  498MOL0     C68616   3.041   9.985   5.538 -0.7046  0.5344 -0.0146
  498MOL0     O68617   2.994  10.114   5.577  0.3657 -0.0986  0.2381
  498MOL0     C68618   3.082  10.219   5.560  0.0912  0.3929 -0.5799
  498MOL0     C68619   3.111  10.275   5.435  0.2168  0.1185 -0.6411
  498MOL0     C68620   3.196  10.387   5.418  1.0449  0.0207  0.0899
  498MOL0     C68621   3.240  10.444   5.522  0.2001  0.7665  0.1801
  498MOL0     O68622   3.330  10.545   5.495 -0.0952  0.8482 -0.0959
  498MOL0     C68623   3.455  10.520   5.555 -0.4748 -0.5686 -0.2974
  498MOL0     C68624   3.541  10.426   5.471 -0.3561  0.6546 -0.9223
  498MOL0     C68625   3.590  10.496   5.348  0.4583 -0.2667  0.2619
  498MOL0     C68626   3.489  10.504   5.233 -0.8611  1.1922 -0.3889
  498MOL0     C68627   3.572  10.574   5.110  0.3229  0.4864  0.0427
  498MOL0     C68628   3.469  10.634   5.013  0.0599  0.2644 -0.5627
  498MOL0     C68629   3.539  10.678   4.890  0.3712 -0.3378 -0.2318
  498MOL0     C68630   3.663  10.778   4.915  1.1659 -0.5519 -0.1429
  498MOL0    Cl68631   3.733  10.810   4.758 -0.0638 -0.0071 -0.0352
  498MOL0     C68632   3.209  10.398   5.654  0.3627 -0.1882 -0.2451
  498MOL0     C68633   3.120  10.287   5.672  0.5706 -0.1465  0.4908
  498MOL0     O68634   3.148   9.963   5.483  0.9053 -0.8163 -0.4827
  498MOL0     C68635   2.854   9.896   5.674  0.1671  0.2017  0.7882
  498MOL0     C68636   2.749   9.811   5.702 -0.4684  0.1591 -0.6641
  498MOL0     N68637   2.844   9.437   5.997 -0.5009  0.0966  0.1287
  498MOL0     N68638   2.941   9.349   5.982  0.1216 -0.3574  0.2501
  498MOL0     C68639   3.625   9.119   5.631  0.1720 -0.3655 -0.8344
  498MOL0     C68640   3.754   9.180   5.641 -0.8175  0.5040 -0.3379
  498MOL0     C68641   4.189   9.273   5.541 -0.5863 -0.0391  0.3067
  498MOL0     C68642   4.203   9.405   5.494  0.9794 -0.3179  0.8515
  498MOL0     C68643   4.330   9.475   5.510  0.9582 -0.5096  0.3265
  498MOL0     C68644   4.433   9.406   5.565  0.5786 -0.8105 -0.6860
  498MOL0     O68645   4.556   9.457   5.604 -0.1028 -1.0549  1.0027
  498MOL0     C68646   4.554   9.564   5.701  0.3543 -0.1606  0.2616
  498MOL0     C68647   4.671   9.660   5.697 -0.4623  0.2958  0.0202
  498MOL0     C68648   4.667   9.784   5.788  0.0058  0.1448 -0.2802
  498MOL0     C68649   4.804   9.813   5.855  0.0983  0.5753  0.3692
  498MOL0     C68650   4.927   9.787   5.775  0.1672 -0.8588 -0.5841
  498MOL0     C68651   5.016   9.762   5.702 -0.4099 -1.1927 -0.4046
  498MOL0     C68652   4.416   9.269   5.598 -0.1176  0.3202 -0.8294
  498MOL0     C68653   4.297   9.198   5.580 -0.4380  0.1679 -0.2933
  498MOL0     C68654   4.286   9.057   5.620  0.1522  0.8344 -0.2308
  498MOL0     H68655   3.945   8.902   5.597 -2.2393 -3.1525 -3.0778
  498MOL0     H68656   3.730   8.800   5.574  2.0555  0.1317 -1.8157
  498MOL0     H68657   3.352   9.041   5.668 -0.5889 -0.0812 -0.5421
  498MOL0     H68658   3.450   8.941   5.770  2.8069 -0.4955 -2.8764
  498MOL0     H68659   3.331   8.725   5.675 -0.3897  0.3599  2.3119
  498MOL0     H68660   3.237   8.841   5.765  2.4781 -2.5346  1.8214
  498MOL0     H68661   3.162   8.952   5.529  0.6353  0.5108 -1.3717
  498MOL0     H68662   3.240   8.810   5.463 -0.6217  2.5771 -1.0876
  498MOL0     H68663   3.002   8.745   5.485  0.5981 -2.2178  0.2704
  498MOL0     H68664   3.088   8.683   5.627 -1.6177 -0.3520  0.4871
  498MOL0     H68665   2.872   8.783   5.723 -0.3696  0.6845  0.5993
  498MOL0     H68666   2.886   8.912   5.595  2.4492 -0.6472 -2.4642
  498MOL0     H68667   3.054   8.874   5.845 -0.5037 -1.8639 -1.2113
  498MOL0     H68668   3.080   9.011   5.736 -0.5611  0.9640 -1.4494
  498MOL0     H68669   2.826   8.954   5.887  2.4522 -3.1337 -0.6565
  498MOL0     H68670   2.860   9.099   5.795 -0.5309 -0.7228  0.9329
  498MOL0     H68671   2.930   9.044   6.069 -3.4333  0.3109  0.1945
  498MOL0     H68672   3.058   9.114   5.968  0.2580 -2.3183 -1.0637
  498MOL0     H68673   2.671   9.160   6.045 -0.5950 -0.2781  3.1158
  498MOL0     H68674   2.622   9.531   6.080 -1.2491  0.9542 -1.2671
  498MOL0     H68675   2.531   9.380   6.111 -2.7160  0.8527 -1.4283
  498MOL0     H68676   2.545   9.365   5.839 -0.9249  1.7357 -1.1819
  498MOL0     H68677   2.419   9.452   5.924  0.2421 -2.3139  1.5147
  498MOL0     H68678   2.507   9.659   5.915  2.3091  1.8222 -1.0360
  498MOL0     H68679   2.665   9.604   5.879  1.2018 -3.1164  0.1805
  498MOL0     H68680   2.454   9.543   5.669 -0.8678  0.9747 -0.1529
  498MOL0     H68681   2.482   9.711   5.702  1.0718  1.0767  1.3432
  498MOL0     H68682   2.832   9.568   5.476  0.1588  0.0136 -0.4836
  498MOL0     H68683   3.003   9.634   5.327 -0.7989  0.8242 -0.0772
  498MOL0     H68684   3.137   9.697   5.427  0.4154 -0.4442  0.1388
  498MOL0     H68685   3.053   9.799   5.317  0.8339 -0.6567 -0.4125
  498MOL0     H68686   3.076  10.225   5.346 -0.1268  0.1020 -0.4988
  498MOL0     H68687   3.222  10.427   5.321  1.4944  2.9559  1.3048
  498MOL0     H68688   3.499  10.620   5.564 -1.6813 -0.1464  1.3908
  498MOL0     H68689   3.445  10.469   5.652 -1.3988 -0.2086 -0.1925
  498MOL0     H68690   3.631  10.397   5.525 -1.4496  0.9773  1.1743
  498MOL0     H68691   3.487  10.336   5.441 -2.3129  1.0771  1.0740
  498MOL0     H68692   3.683  10.450   5.317 -0.0573 -1.4828  0.4585
  498MOL0     H68693   3.601  10.602   5.375  2.0299 -0.2690 -0.2924
  498MOL0     H68694   3.400  10.561   5.259 -2.0781 -1.1941  1.0446
  498MOL0     H68695   3.458  10.402   5.209  4.6715 -0.5386 -1.6019
  498MOL0     H68696   3.635  10.651   5.155 -0.7206  0.6446  1.2852
  498MOL0     H68697   3.643  10.506   5.061  1.5296  2.0291 -0.4488
  498MOL0     H68698   3.414  10.717   5.057 -0.1393  1.4682 -2.9132
  498MOL0     H68699   3.391  10.561   4.986  2.1145 -1.0220 -3.5385
  498MOL0     H68700   3.461  10.727   4.831 -2.2516 -3.2631  0.5742
  498MOL0     H68701   3.565  10.583   4.842 -0.2715 -0.2421 -0.7844
  498MOL0     H68702   3.742  10.737   4.978  1.4369 -0.9297 -0.7189
  498MOL0     H68703   3.611  10.866   4.953  0.0024 -0.9691 -0.7048
  498MOL0     H68704   3.236  10.448   5.746  1.1042 -0.5236 -0.2784
  498MOL0     H68705   3.103  10.254   5.774  0.1382  0.0288  0.4794
  498MOL0     H68706   2.857   9.980   5.743 -0.2473 -1.8265  3.4657
  498MOL0     H68707   2.684   9.827   5.788  0.0272 -2.9601  0.4173
  498MOL0     H68708   3.533   9.175   5.649 -0.5413 -0.9422 -2.4500
  498MOL0     H68709   3.747   9.287   5.657 -1.3845  0.4498 -0.2001
  498MOL0     H68710   4.125   9.469   5.456  1.4859 -0.0049  0.3309
  498MOL0     H68711   4.336   9.580   5.483 -1.8789 -0.0724  1.0808
  498MOL0     H68712   4.458   9.617   5.700 -0.3759 -1.3846  1.7538
  498MOL0     H68713   4.556   9.518   5.801  2.7761 -0.9232 -0.0848
  498MOL0     H68714   4.677   9.695   5.594  0.9422  0.9396  0.3018
  498MOL0     H68715   4.757   9.593   5.700  0.1445  0.9456 -1.6993
  498MOL0     H68716   4.665   9.876   5.729  1.8635  0.0738 -0.5233
  498MOL0     H68717   4.591   9.775   5.866  0.2614  1.4212  0.1394
  498MOL0     H68718   4.807   9.761   5.951  1.2852  2.2205  1.2799
  498MOL0     H68719   4.815   9.919   5.879 -1.0459  0.0713  3.6834
  498MOL0     H68720   5.090   9.747   5.626 -0.7147 -2.6977 -0.4322
  498MOL0     H68721   4.495   9.212   5.646 -1.0192 -3.5797 -3.4580
  498MOL0     H68722   4.219   9.041   5.706 -0.3862  2.5766 -0.2822
  498MOL0     H68723   4.240   8.998   5.540 -1.2572 -0.6797  1.5621
  498MOL0     H68724   4.385   9.023   5.652  0.2604  3.1102  2.2529
  499MOL0     O68725   2.014   7.027   8.240 -0.2118 -0.1775  0.2686
  499MOL0     C68726   1.964   7.006   8.133  0.7322  0.5544 -0.6845
  499MOL0     O68727   1.971   6.883   8.067 -0.0555 -0.4517  0.4669
  499MOL0     C68728   1.958   6.766   8.135  0.5492  0.2109 -0.4842
  499MOL0     C68729   1.872   6.749   8.247 -0.3001  0.0395  0.4499
  499MOL0     C68730   1.877   6.638   8.325  0.5587  0.0699 -0.1548
  499MOL0     C68731   1.956   6.524   8.283  0.5865 -0.4592 -1.2310
  499MOL0     O68732   1.955   6.412   8.355  0.0445  0.2421  0.2288
  499MOL0     C68733   1.966   6.289   8.283  0.3543  0.1421 -0.2257
  499MOL0     C68734   2.099   6.222   8.314  0.6307  0.3527  0.2280
  499MOL0     C68735   2.094   6.088   8.225 -0.0528 -0.0634 -0.3277
  499MOL0     C68736   2.132   5.971   8.310 -0.1943 -0.2399 -0.3879
  499MOL0     C68737   2.197   5.866   8.225 -0.7109 -0.5237 -0.1101
  499MOL0     C68738   2.101   5.810   8.124  0.1931 -0.0377 -0.0333
  499MOL0     C68739   2.158   5.699   8.038  0.0225  0.0397 -0.5239
  499MOL0     C68740   2.055   5.643   7.948 -0.1303  0.8229  0.3867
  499MOL0     N68741   2.113   5.533   7.872  0.0055 -0.7709  0.1796
  499MOL0     C68742   2.163   5.552   7.746 -0.0783 -0.1923  0.7207
  499MOL0     C68743   2.199   5.428   7.708 -0.8123 -0.0139 -0.0596
  499MOL0     C68744   2.264   5.385   7.584 -0.3981  0.2778 -0.1931
  499MOL0     C68745   2.412   5.421   7.593 -0.4422 -0.6430 -0.5427
  499MOL0     C68746   2.507   5.372   7.478  0.5693 -0.1314  0.2483
  499MOL0     C68747   2.521   5.471   7.368  0.2982  0.6515  1.0903
  499MOL0     O68748   2.386   5.465   7.300 -0.7890 -0.6999  0.0245
  499MOL0     C68749   2.376   5.536   7.183  0.6571 -0.2947 -0.3423
  499MOL0     C68750   2.249   5.526   7.125  0.3819 -0.0042 -0.1208
  499MOL0     C68751   2.219   5.575   6.996 -0.3588  0.2372 -0.2454
  499MOL0     C68752   2.078   5.545   6.943  0.5191  0.1274  0.7757
  499MOL0     C68753   2.313   5.657   6.934 -0.0454  0.3709 -0.1100
  499MOL0     C68754   2.288   5.719   6.800 -0.5534  0.2604 -0.1343
  499MOL0     O68755   2.165   5.750   6.767 -0.2832  0.1323  0.2839
  499MOL0     C68756   2.135   5.823   6.661  0.3632 -0.5430  0.3696
  499MOL0     C68757   2.149   5.766   6.536 -0.2043  0.0625 -0.5392
  499MOL0     C68758   2.135   5.855   6.425  0.1630 -0.3191  0.1594
  499MOL0     C68759   2.076   5.986   6.443 -0.6674  0.2077 -0.3881
  499MOL0     O68760   2.043   6.063   6.335  0.1937 -0.2493  0.0461
  499MOL0     C68761   2.165   6.112   6.272 -0.4780 -0.2302  0.0788
  499MOL0     C68762   2.158   6.097   6.114  0.0531 -0.1428  0.1333
  499MOL0     C68763   2.291   6.120   6.039  0.3991 -0.7713 -0.3541
  499MOL0     C68764   2.270   6.161   5.895  0.0574  0.7765  0.2530
  499MOL0     C68765   2.156   6.063   5.831 -0.3877 -0.9380  0.3369
  499MOL0     C68766   2.211   5.915   5.810 -0.9571 -0.1617  0.0081
  499MOL0     C68767   2.121   5.849   5.706  0.8209  0.1408 -0.4563
  499MOL0     C68768   2.174   5.708   5.676 -0.8598  0.0343 -0.4083
  499MOL0    Cl68769   2.063   5.604   5.584 -0.2598 -0.1904 -0.1740
  499MOL0     C68770   2.043   6.024   6.577 -0.5830 -0.5698  0.3943
  499MOL0     C68771   2.082   5.944   6.682  0.1541 -0.3762  0.1643
  499MOL0     O68772   2.384   5.743   6.729  0.4005 -0.3630 -0.0267
  499MOL0     C68773   2.437   5.673   6.991  0.1326 -0.3367 -0.4403
  499MOL0     C68774   2.469   5.614   7.116  0.2111 -0.1009 -0.7279
  499MOL0     N68775   2.193   5.337   7.814 -0.3464 -0.3239 -0.0600
  499MOL0     N68776   2.132   5.402   7.911 -0.4029 -0.2146  1.0412
  499MOL0     C68777   2.031   6.536   8.174 -0.4935  0.1023  0.0235
  499MOL0     C68778   2.038   6.657   8.098  0.7502 -0.0632  0.0630
  499MOL0     C68779   1.873   7.111   8.076  0.5432  0.8966 -0.7380
  499MOL0     C68780   1.832   7.092   7.938 -0.3572  0.0868 -0.8161
  499MOL0     C68781   1.743   7.186   7.885  0.2057  0.6650  1.0929
  499MOL0     C68782   1.704   7.307   7.946  0.0260 -0.2312 -0.5482
  499MOL0     O68783   1.631   7.407   7.895 -0.1813 -0.2986 -0.6208
  499MOL0     C68784   1.699   7.471   7.784 -0.2630 -0.5305 -0.5019
  499MOL0     C68785   1.785   7.578   7.842 -0.2008 -0.4404  0.0675
  499MOL0     C68786   1.711   7.690   7.918 -0.6438 -0.0288 -0.7251
  499MOL0     C68787   1.813   7.796   7.962  0.1866  0.8070 -0.6187
  499MOL0     C68788   1.737   7.920   8.015  0.3392  0.5752 -0.4965
  499MOL0     C68789   1.680   8.007   8.071  0.0622 -0.1170 -0.9340
  499MOL0     C68790   1.734   7.313   8.080  0.2291  0.0593  0.4945
  499MOL0     C68791   1.818   7.224   8.148  0.0308  0.1806  0.0267
  499MOL0     C68792   1.833   7.243   8.296 -0.6424 -0.5778  0.1158
  499MOL0     H68793   1.803   6.820   8.293 -0.1138  0.3392  0.2710
  499MOL0     H68794   1.825   6.616   8.418  1.1953 -5.9028 -0.7872
  499MOL0     H68795   1.930   6.287   8.180 -2.1089 -1.3973  0.5674
  499MOL0     H68796   1.895   6.218   8.326 -2.0995  1.9382 -1.0499
  499MOL0     H68797   2.184   6.282   8.279  1.8396 -2.2352 -1.6081
  499MOL0     H68798   2.110   6.201   8.421  2.0732 -1.0357 -0.1531
  499MOL0     H68799   1.996   6.058   8.186  0.6106 -2.3707 -0.4043
  499MOL0     H68800   2.168   6.100   8.146  0.2038 -1.7521 -0.3844
  499MOL0     H68801   2.211   6.000   8.380  0.4721  1.6970 -1.8462
  499MOL0     H68802   2.045   5.926   8.359  0.4753 -5.5924 -3.3153
  499MOL0     H68803   2.242   5.787   8.287 -1.7778 -1.0354  0.0363
  499MOL0     H68804   2.276   5.918   8.170  0.5565 -3.0473 -0.8407
  499MOL0     H68805   2.009   5.770   8.167 -0.3425  0.7874 -0.3977
  499MOL0     H68806   2.059   5.887   8.059 -2.2912 -0.4202  1.0091
  499MOL0     H68807   2.198   5.623   8.105  3.5851 -1.2328 -3.7964
  499MOL0     H68808   2.239   5.727   7.970  1.8443 -2.1965  0.5892
  499MOL0     H68809   1.961   5.612   7.994  0.5353  0.1832  1.3585
  499MOL0     H68810   2.029   5.728   7.884 -0.3939  0.6192  0.2220
  499MOL0     H68811   2.162   5.635   7.676 -2.5324 -0.9607 -0.2426
  499MOL0     H68812   2.209   5.431   7.501  0.4209 -1.0778 -1.5416
  499MOL0     H68813   2.257   5.276   7.576 -0.2335  0.3788 -3.1279
  499MOL0     H68814   2.413   5.530   7.599  1.3180 -0.6011 -1.1615
  499MOL0     H68815   2.455   5.386   7.687 -2.2321 -1.0555  0.1639
  499MOL0     H68816   2.608   5.347   7.512  0.6176 -1.9204 -1.0311
  499MOL0     H68817   2.465   5.275   7.448  1.5930 -0.5505  0.0961
  499MOL0     H68818   2.542   5.575   7.394 -2.8460  1.6389  0.1533
  499MOL0     H68819   2.595   5.444   7.292 -1.4393 -3.9111  0.7177
  499MOL0     H68820   2.173   5.466   7.174  0.8249  1.4833  2.6020
  499MOL0     H68821   2.004   5.625   6.948  2.1152  1.9005 -1.7114
  499MOL0     H68822   2.050   5.445   6.978  0.2245 -0.5607 -1.2901
  499MOL0     H68823   2.102   5.523   6.838 -0.4288 -1.7707  0.9037
  499MOL0     H68824   2.196   5.669   6.525 -0.5416  0.0353 -1.8619
  499MOL0     H68825   2.153   5.821   6.324 -0.4323 -0.8884  0.2381
  499MOL0     H68826   2.177   6.216   6.302 -1.4840 -0.0511 -0.0809
  499MOL0     H68827   2.247   6.047   6.305 -2.0956 -2.7679 -0.5332
  499MOL0     H68828   2.139   5.993   6.085  1.6859 -0.3773 -0.2370
  499MOL0     H68829   2.083   6.165   6.073  0.1073 -0.0622  0.1672
  499MOL0     H68830   2.352   6.031   6.052  1.3443 -0.1860 -0.6812
  499MOL0     H68831   2.338   6.203   6.092  3.6011 -2.1259 -0.8661
  499MOL0     H68832   2.359   6.153   5.833  0.8363 -0.3362  1.4507
  499MOL0     H68833   2.235   6.263   5.876  1.3483  0.4722 -5.2544
  499MOL0     H68834   2.064   6.066   5.890  0.2184  2.3662  1.2941
  499MOL0     H68835   2.121   6.095   5.733 -0.5562  1.7093  1.2015
  499MOL0     H68836   2.207   5.863   5.906 -1.2595 -2.9376 -1.4122
  499MOL0     H68837   2.316   5.906   5.782 -1.2383  1.1540 -1.6657
  499MOL0     H68838   2.114   5.905   5.613 -1.9296  0.2698 -0.2445
  499MOL0     H68839   2.018   5.845   5.741  1.2663  1.6192  1.1675
  499MOL0     H68840   2.214   5.665   5.769  0.4423 -1.5883 -1.6601
  499MOL0     H68841   2.263   5.712   5.613 -1.5603 -2.7530 -1.6926
  499MOL0     H68842   1.978   6.109   6.595 -3.0309 -2.2152 -0.1219
  499MOL0     H68843   2.088   5.983   6.783  5.5669  0.3199 -0.0942
  499MOL0     H68844   2.508   5.734   6.936 -1.1052  2.1569  0.5777
  499MOL0     H68845   2.564   5.640   7.162 -1.1926 -0.0539  2.3752
  499MOL0     H68846   2.101   6.459   8.144 -0.1077  0.2525  0.5422
  499MOL0     H68847   2.107   6.670   8.016 -0.3718 -0.3990 -0.9715
  499MOL0     H68848   1.854   6.997   7.891  2.4479 -0.7838  1.9009
  499MOL0     H68849   1.705   7.167   7.785 -0.4941  2.5318  0.9686
  499MOL0     H68850   1.762   7.398   7.734 -0.6267 -1.2679  0.0974
  499MOL0     H68851   1.628   7.517   7.715 -0.9215  0.8021  0.9825
  499MOL0     H68852   1.850   7.622   7.766 -0.8878 -1.2238 -0.9951
  499MOL0     H68853   1.850   7.523   7.911  0.1232 -1.3549 -0.9471
  499MOL0     H68854   1.624   7.739   7.873 -0.1362  1.0896 -0.5485
  499MOL0     H68855   1.668   7.640   8.005 -2.8653 -1.3941 -2.4854
  499MOL0     H68856   1.885   7.814   7.882 -0.5166 -1.4926 -1.8676
  499MOL0     H68857   1.855   7.747   8.051 -4.3743  0.5629  1.7258
  499MOL0     H68858   1.630   8.090   8.117  1.6973 -0.1958  1.1521
  499MOL0     H68859   1.683   7.393   8.132 -0.9904  0.5293 -1.3136
  499MOL0     H68860   1.766   7.322   8.332  0.5762  1.3976 -1.7678
  499MOL0     H68861   1.810   7.148   8.345 -0.6643  0.1210  1.5084
  499MOL0     H68862   1.935   7.272   8.320 -1.7881  1.4528  3.2013
  500MOL0     O68863   6.325   6.610   4.850  0.8830 -0.4623  0.4104
  500MOL0     C68864   6.427   6.641   4.786 -0.2310  0.1031 -0.0472
  500MOL0     O68865   6.489   6.571   4.684  0.7073 -0.0745  0.5302
  500MOL0     C68866   6.443   6.452   4.629  0.2442 -0.3494 -0.5445
  500MOL0     C68867   6.310   6.411   4.626  0.5079  1.0006  0.0200
  500MOL0     C68868   6.279   6.287   4.576 -0.1383  0.2604 -0.9586
  500MOL0     C68869   6.382   6.200   4.532 -0.3387 -0.5419 -0.5372
  500MOL0     O68870   6.351   6.080   4.487  0.1820  0.4030  0.7785
  500MOL0     C68871   6.417   5.969   4.563 -0.8060  0.7706 -0.5198
  500MOL0     C68872   6.402   5.841   4.478  0.7299 -0.5719 -0.1811
  500MOL0     C68873   6.484   5.731   4.536  0.5845 -0.1787 -0.1762
  500MOL0     C68874   6.424   5.600   4.477 -0.0786  0.8780 -0.3324
  500MOL0     C68875   6.488   5.471   4.536 -0.0672  0.7138  0.0545
  500MOL0     C68876   6.446   5.347   4.449  0.4494 -0.9053  0.0859
  500MOL0     C68877   6.515   5.229   4.517 -0.5766 -0.1150  0.2412
  500MOL0     C68878   6.425   5.147   4.603  0.5248  0.4244 -0.7591
  500MOL0     N68879   6.402   5.206   4.739  0.0616  0.3292  0.6414
  500MOL0     C68880   6.492   5.213   4.844 -0.0564  0.1814 -0.7600
  500MOL0     C68881   6.413   5.219   4.960 -0.1480  0.5552 -0.6542
  500MOL0     C68882   6.455   5.214   5.101 -0.1566 -0.9678 -0.7123
  500MOL0     C68883   6.447   5.335   5.200  0.3178  0.3433  0.5133
  500MOL0     C68884   6.508   5.467   5.158  0.5467 -1.0544  0.9878
  500MOL0     C68885   6.422   5.530   5.048  0.3772  0.0860  0.8281
  500MOL0     O68886   6.309   5.592   5.112  0.0968  0.1835 -0.1621
  500MOL0     C68887   6.251   5.688   5.038  1.1778  0.1000 -0.9293
  500MOL0     C68888   6.242   5.831   5.075  0.2663  1.3848  0.0571
  500MOL0     C68889   6.181   5.923   4.992  0.4450  0.0786 -0.4513
  500MOL0     C68890   6.164   6.063   5.053  0.0932  0.0557  0.7945
  500MOL0     C68891   6.114   5.881   4.880  0.2401 -0.1514  0.6522
  500MOL0     C68892   6.026   5.967   4.785 -0.2808 -0.3019 -0.4454
  500MOL0     O68893   5.990   5.907   4.673 -0.1395 -0.0292  0.2424
  500MOL0     C68894   5.937   5.990   4.580 -0.5076  0.4346 -0.0665
  500MOL0     C68895   6.009   6.030   4.463  0.7124  0.7588  0.1191
  500MOL0     C68896   5.939   6.114   4.368  0.2940  1.0150 -0.2531
  500MOL0     C68897   5.809   6.145   4.382  0.6109  0.7371 -0.5176
  500MOL0     O68898   5.750   6.232   4.294 -0.5899 -0.3894 -0.2591
  500MOL0     C68899   5.646   6.323   4.341 -0.8416 -0.0203  0.9945
  500MOL0     C68900   5.648   6.446   4.252  1.0800  1.3006 -0.0864
  500MOL0     C68901   5.707   6.426   4.110  0.0211  0.0828 -0.1339
  500MOL0     C68902   5.697   6.559   4.033 -0.4102 -0.0212 -0.0881
  500MOL0     C68903   5.750   6.530   3.893 -0.0564  0.6396  1.2544
  500MOL0     C68904   5.901   6.525   3.892 -0.0853 -0.0781  0.9077
  500MOL0     C68905   5.961   6.538   3.750 -0.8221 -0.3843  0.1516
  500MOL0     C68906   5.947   6.685   3.679  0.5025  0.2173  0.0694
  500MOL0    Cl68907   6.084   6.799   3.716  0.1556  0.1440 -0.3180
  500MOL0     C68908   5.737   6.088   4.488 -0.1078 -0.0801 -0.0696
  500MOL0     C68909   5.801   6.017   4.588  0.4392  0.3575  0.5240
  500MOL0     O68910   5.976   6.070   4.829  0.6573 -1.1266  0.0351
  500MOL0     C68911   6.135   5.749   4.836 -0.4619 -1.1118 -0.2890
  500MOL0     C68912   6.183   5.656   4.922 -0.0956  1.1354  0.3950
  500MOL0     N68913   6.276   5.225   4.912  0.2602 -0.5679 -0.4058
  500MOL0     N68914   6.277   5.210   4.783  0.5180  0.6740 -0.0488
  500MOL0     C68915   6.513   6.246   4.535 -1.0369 -0.6040  0.2599
  500MOL0     C68916   6.544   6.369   4.588 -0.5029  0.5318 -0.5028
  500MOL0     C68917   6.491   6.761   4.834 -0.1148 -0.4730 -0.0105
  500MOL0     C68918   6.463   6.882   4.768 -0.3154 -0.1671  0.6399
  500MOL0     C68919   6.522   6.998   4.822  0.5329  0.2827  0.1278
  500MOL0     C68920   6.597   7.006   4.933 -0.5706  0.3533  0.4319
  500MOL0     O68921   6.657   7.122   4.955 -0.4367  0.1346 -0.1436
  500MOL0     C68922   6.594   7.210   5.051  0.4690  1.0025  2.2921
  500MOL0     C68923   6.654   7.191   5.185 -0.7603 -0.6290  0.3290
  500MOL0     C68924   6.800   7.249   5.186  0.1348 -0.3206  1.1367
  500MOL0     C68925   6.864   7.236   5.322 -0.2352  0.0732  0.0295
  500MOL0     C68926   6.779   7.285   5.430  0.8262  0.6445  0.6878
  500MOL0     C68927   6.702   7.334   5.509 -0.0434  0.8059  0.0331
  500MOL0     C68928   6.629   6.896   5.004  0.1830  0.3076  0.5083
  500MOL0     C68929   6.565   6.771   4.960 -0.1438 -0.9404  0.0759
  500MOL0     C68930   6.595   6.649   5.036  0.1153  0.0787 -0.2691
  500MOL0     H68931   6.228   6.481   4.638 -1.2146 -0.6525 -1.5531
  500MOL0     H68932   6.176   6.253   4.574  0.6767 -2.5221 -3.3121
  500MOL0     H68933   6.362   5.954   4.656  0.3475 -1.7888 -0.1762
  500MOL0     H68934   6.521   5.991   4.587  0.7961 -4.0636 -1.9556
  500MOL0     H68935   6.295   5.821   4.475  0.4692  0.7755 -0.7640
  500MOL0     H68936   6.436   5.853   4.374 -0.1047 -0.3755 -0.4419
  500MOL0     H68937   6.591   5.743   4.515  0.4529 -0.8968 -1.3442
  500MOL0     H68938   6.478   5.729   4.646  2.0804  0.0778 -0.0702
  500MOL0     H68939   6.319   5.591   4.507 -0.4711  1.9939 -1.2890
  500MOL0     H68940   6.426   5.604   4.368  1.0883 -0.2539 -0.3748
  500MOL0     H68941   6.464   5.465   4.643 -0.7590  2.0523 -0.0017
  500MOL0     H68942   6.597   5.479   4.539 -0.0274  1.5616  4.6439
  500MOL0     H68943   6.339   5.332   4.441  0.2366 -0.0653  1.0289
  500MOL0     H68944   6.488   5.367   4.350  0.4199 -1.6802 -0.0837
  500MOL0     H68945   6.603   5.254   4.577 -0.1087 -2.0118  0.3941
  500MOL0     H68946   6.548   5.157   4.442  3.3450  0.4310  1.2139
  500MOL0     H68947   6.328   5.127   4.556 -0.4679 -1.1284  1.7303
  500MOL0     H68948   6.474   5.050   4.614 -1.0537 -0.2036  1.6943
  500MOL0     H68949   6.596   5.182   4.845 -0.5940 -1.7265  0.0166
  500MOL0     H68950   6.556   5.173   5.105 -0.3869 -2.4890  8.1001
  500MOL0     H68951   6.395   5.148   5.164  1.3441  1.3505  3.5357
  500MOL0     H68952   6.341   5.356   5.218  0.1729  0.2814 -0.2436
  500MOL0     H68953   6.494   5.313   5.296  1.5767  1.2929  0.1456
  500MOL0     H68954   6.500   5.537   5.241 -0.1526  1.0203 -0.7453
  500MOL0     H68955   6.612   5.467   5.125  0.2191  2.7343 -0.5908
  500MOL0     H68956   6.483   5.604   4.994 -0.2173  0.1106  0.1836
  500MOL0     H68957   6.388   5.465   4.967 -1.9920  3.1252 -0.8174
  500MOL0     H68958   6.286   5.841   5.174 -0.1872  0.0262  0.4272
  500MOL0     H68959   6.057   6.081   5.068  0.1665  0.5295  0.7799
  500MOL0     H68960   6.196   6.131   4.973 -1.7657 -0.9820 -0.9268
  500MOL0     H68961   6.208   6.082   5.151 -2.1968 -0.3161  1.9544
  500MOL0     H68962   6.111   5.999   4.443  0.3831 -0.4830  0.3057
  500MOL0     H68963   5.984   6.154   4.277 -2.1036 -0.1391 -2.0437
  500MOL0     H68964   5.552   6.269   4.331  0.2899 -1.7723 -0.9533
  500MOL0     H68965   5.650   6.366   4.441 -0.8981  2.6661 -0.0467
  500MOL0     H68966   5.544   6.481   4.257  0.3795 -0.8664  1.8677
  500MOL0     H68967   5.702   6.521   4.312  0.1626  0.0920  2.3566
  500MOL0     H68968   5.679   6.339   4.049  2.9233 -1.4895  0.5667
  500MOL0     H68969   5.813   6.408   4.130  0.0141  0.0145 -0.1588
  500MOL0     H68970   5.760   6.636   4.078  0.9300 -0.5777 -0.9079
  500MOL0     H68971   5.592   6.588   4.032 -0.4841 -0.1768  1.5054
  500MOL0     H68972   5.713   6.433   3.857  2.1147 -0.2404  1.2302
  500MOL0     H68973   5.712   6.601   3.819 -1.6784 -2.7693 -1.4787
  500MOL0     H68974   5.934   6.429   3.934 -0.0713 -0.2906  0.4120
  500MOL0     H68975   5.934   6.612   3.950 -3.3107  2.5428 -0.8870
  500MOL0     H68976   5.918   6.469   3.676 -2.3355  0.3665  0.2925
  500MOL0     H68977   6.066   6.519   3.771 -0.6500  1.0482  0.6482
  500MOL0     H68978   5.849   6.735   3.683 -0.2567 -1.2508  0.6072
  500MOL0     H68979   5.959   6.671   3.571 -1.6332  3.3643 -0.7299
  500MOL0     H68980   5.632   6.105   4.509  0.1737 -0.8025  2.1724
  500MOL0     H68981   5.750   5.984   4.678  1.6486 -1.1929  0.6821
  500MOL0     H68982   6.096   5.717   4.741 -4.1645  0.4679  0.5340
  500MOL0     H68983   6.159   5.555   4.889  1.7917  1.3317 -1.7484
  500MOL0     H68984   6.602   6.192   4.505  0.5056  1.5397  0.6961
  500MOL0     H68985   6.644   6.411   4.591 -1.1071  1.9652  1.4929
  500MOL0     H68986   6.398   6.900   4.683  0.4650 -0.1358  0.0274
  500MOL0     H68987   6.487   7.092   4.781 -1.0319  1.1300  3.0992
  500MOL0     H68988   6.607   7.315   5.021  2.1313  0.0630 -0.5687
  500MOL0     H68989   6.485   7.201   5.046  0.5608  0.0490 -2.3866
  500MOL0     H68990   6.670   7.086   5.212  2.0142 -0.2334  0.5307
  500MOL0     H68991   6.607   7.252   5.263 -0.3618  0.7180 -0.4541
  500MOL0     H68992   6.859   7.199   5.109  1.2690  0.7026  1.3199
  500MOL0     H68993   6.802   7.352   5.148  0.6949 -1.2432 -1.5285
  500MOL0     H68994   6.953   7.299   5.312 -0.4694  0.3696 -0.2087
  500MOL0     H68995   6.886   7.131   5.345 -0.2340 -1.0479 -4.2164
  500MOL0     H68996   6.640   7.380   5.582 -2.0901 -0.7011 -0.6595
  500MOL0     H68997   6.702   6.906   5.084  2.3408  0.7513 -1.4238
  500MOL0     H68998   6.704   6.648   5.053  0.1698 -0.8615 -0.6221
  500MOL0     H68999   6.543   6.646   5.133  1.1108 -2.0867  0.2661
  500MOL0     H69000   6.587   6.555   4.981  0.7765 -0.9824  1.3500
  501MOL0     O69001   0.352   5.388   5.927  0.4054  0.1221  0.3564
  501MOL0     C69002   0.369   5.443   5.816 -0.5492 -0.0489  0.6848
  501MOL0     O69003   0.497   5.457   5.753  0.4156  0.5628  0.1622
  501MOL0     C69004   0.604   5.402   5.820  1.3483 -0.1190  0.3289
  501MOL0     C69005   0.676   5.475   5.912  0.1394  0.7987 -1.2056
  501MOL0     C69006   0.798   5.438   5.962 -0.2204 -0.3769  1.2252
  501MOL0     C69007   0.856   5.307   5.935  0.3290  0.4622  0.4084
  501MOL0     O69008   0.970   5.246   5.985 -0.1287  0.6006 -0.1202
  501MOL0     C69009   1.055   5.320   6.073 -0.4261 -0.4133  0.8943
  501MOL0     C69010   1.168   5.236   6.133 -0.7044 -0.5477 -0.0044
  501MOL0     C69011   1.268   5.207   6.019  0.0554  0.6010  0.6283
  501MOL0     C69012   1.383   5.124   6.071 -0.3843 -0.5761  0.1451
  501MOL0     C69013   1.479   5.067   5.964 -0.2117  0.1217  0.4061
  501MOL0     C69014   1.567   4.943   6.017  0.1998 -0.5706  0.5726
  501MOL0     C69015   1.662   4.892   5.904 -0.0876  0.8831 -0.6837
  501MOL0     C69016   1.778   4.797   5.954 -0.1112  0.2499 -1.3979
  501MOL0     N69017   1.859   4.725   5.857  0.1568  0.7453  0.8716
  501MOL0     C69018   1.960   4.638   5.887 -0.8659  0.4772 -0.4117
  501MOL0     C69019   1.994   4.584   5.770 -0.8719 -0.5561  0.2170
  501MOL0     C69020   2.097   4.475   5.767 -1.2416 -0.2094  1.2324
  501MOL0     C69021   2.033   4.354   5.716  0.5595  0.3454  0.3117
  501MOL0     C69022   2.127   4.236   5.711  0.4238 -1.0383  0.2839
  501MOL0     C69023   2.068   4.113   5.656 -0.1373 -0.4783  0.1533
  501MOL0     O69024   2.173   4.017   5.664 -0.2607  2.0482 -0.6440
  501MOL0     C69025   2.154   3.885   5.696  0.2625  0.8055 -0.0907
  501MOL0     C69026   2.235   3.806   5.785 -0.4726  0.1023 -0.0521
  501MOL0     C69027   2.211   3.666   5.805 -1.0130  0.4227 -0.2313
  501MOL0     C69028   2.319   3.590   5.891  0.4789  0.1143  0.3489
  501MOL0     C69029   2.107   3.604   5.733  0.2463  0.1947  0.4695
  501MOL0     C69030   2.059   3.475   5.757  0.1431  0.5367 -0.1017
  501MOL0     O69031   2.026   3.457   5.888 -0.1170 -0.2196  0.2885
  501MOL0     C69032   1.964   3.340   5.922 -0.5927  0.3690  1.0120
  501MOL0     C69033   1.832   3.334   5.961 -0.1452 -0.2815  0.2830
  501MOL0     C69034   1.781   3.216   6.016 -0.2980  0.0101 -0.4189
  501MOL0     C69035   1.860   3.106   6.039  0.2955 -0.5674  0.2112
  501MOL0     O69036   1.807   2.993   6.096 -0.3863  0.0498 -0.5282
  501MOL0     C69037   1.896   2.890   6.161  0.3421 -0.2276 -0.3165
  501MOL0     C69038   1.824   2.818   6.277  0.0736 -0.0043  0.1249
  501MOL0     C69039   1.681   2.760   6.249  0.0895  1.4924  0.9146
  501MOL0     C69040   1.657   2.635   6.339  0.0404 -0.6952 -0.3094
  501MOL0     C69041   1.514   2.591   6.338  0.2277 -1.0734 -0.0359
  501MOL0     C69042   1.468   2.525   6.200  0.3171  0.0845 -0.0504
  501MOL0     C69043   1.316   2.496   6.211 -0.3760  0.1866  0.1854
  501MOL0     C69044   1.244   2.449   6.086 -0.2083 -0.0407  1.0550
  501MOL0    Cl69045   1.080   2.398   6.122  0.0830  0.7817 -0.1018
  501MOL0     C69046   1.997   3.112   5.996  0.0292  0.1746 -0.1894
  501MOL0     C69047   2.045   3.233   5.938  0.2319  0.2148 -0.0627
  501MOL0     O69048   2.030   3.396   5.666 -0.2964 -0.8918 -0.4413
  501MOL0     C69049   2.025   3.683   5.651 -0.1653  0.2269 -0.2259
  501MOL0     C69050   2.044   3.820   5.645 -0.5300 -0.1177 -0.8382
  501MOL0     N69051   1.930   4.645   5.668 -0.3053  0.7759 -0.9416
  501MOL0     N69052   1.855   4.733   5.720 -0.6252 -0.5584 -0.2184
  501MOL0     C69053   0.778   5.224   5.847 -0.2951 -1.0428 -0.7517
  501MOL0     C69054   0.658   5.276   5.793  0.5681 -0.0975  0.8002
  501MOL0     C69055   0.248   5.504   5.751  0.9149  0.1122  1.2117
  501MOL0     C69056   0.146   5.560   5.838 -0.8249 -0.0761  0.9971
  501MOL0     C69057   0.023   5.589   5.770  0.4017  0.0764 -0.6874
  501MOL0     C69058  -0.006   5.569   5.632 -0.0352  0.3142 -0.8927
  501MOL0     O69059  -0.143   5.580   5.593  0.1030 -0.1314 -0.2650
  501MOL0     C69060  -0.167   5.574   5.449  0.1544 -0.2251  1.0446
  501MOL0     C69061  -0.319   5.588   5.428  0.1393 -0.4724 -0.8502
  501MOL0     C69062  -0.355   5.618   5.289  0.0398 -0.3398 -0.3623
  501MOL0     C69063  -0.507   5.606   5.280  0.6241  0.9921 -0.0829
  501MOL0     C69064  -0.554   5.469   5.266  0.5944 -0.4996  0.7873
  501MOL0     C69065  -0.630   5.377   5.243 -0.8329  0.1416  1.0869
  501MOL0     C69066   0.102   5.521   5.557  0.6759 -0.2691  0.1960
  501MOL0     C69067   0.232   5.489   5.610 -0.1271  0.4962  1.0039
  501MOL0     C69068   0.334   5.425   5.516 -0.6145  0.0405  0.4706
  501MOL0     H69069   0.631   5.573   5.921 -2.5166 -0.2795 -1.6844
  501MOL0     H69070   0.850   5.507   6.027 -1.2686  1.0726  0.5602
  501MOL0     H69071   0.994   5.346   6.160  1.3266 -2.8292  3.0076
  501MOL0     H69072   1.094   5.407   6.018 -0.6254 -0.7840  0.1542
  501MOL0     H69073   1.217   5.288   6.216  1.0866 -1.9405 -0.1068
  501MOL0     H69074   1.124   5.144   6.173  0.7129  0.0133  3.1549
  501MOL0     H69075   1.211   5.156   5.940  0.6420  1.4035 -0.3324
  501MOL0     H69076   1.300   5.308   5.993 -2.4319  1.7637  1.6632
  501MOL0     H69077   1.445   5.190   6.132 -0.9679 -2.4040  2.8588
  501MOL0     H69078   1.345   5.040   6.130 -0.8507  0.6450  1.6398
  501MOL0     H69079   1.543   5.152   5.938 -2.2894  1.6661  0.0796
  501MOL0     H69080   1.413   5.025   5.887 -0.7607  1.2346  0.2506
  501MOL0     H69081   1.618   4.996   6.097 -2.5404  0.4938  1.7487
  501MOL0     H69082   1.510   4.855   6.049  3.4021 -1.9117  3.0589
  501MOL0     H69083   1.708   4.982   5.863 -2.3676  3.0508  1.1919
  501MOL0     H69084   1.607   4.849   5.819 -0.6530 -0.2200  0.2173
  501MOL0     H69085   1.843   4.860   6.015  1.0033 -0.8771 -1.3764
  501MOL0     H69086   1.730   4.723   6.019 -0.2324 -0.8253 -2.6723
  501MOL0     H69087   2.003   4.621   5.985  1.3402  0.2311 -1.3676
  501MOL0     H69088   2.145   4.457   5.863 -0.9901  0.6228  1.2626
  501MOL0     H69089   2.172   4.501   5.691 -1.2234  0.5461  1.5037
  501MOL0     H69090   1.938   4.340   5.768 -1.1490 -0.6173 -2.8295
  501MOL0     H69091   1.998   4.377   5.615  0.4699  0.6990  0.4214
  501MOL0     H69092   2.213   4.260   5.648 -2.4289  1.3967 -3.0373
  501MOL0     H69093   2.167   4.207   5.809 -2.9186 -1.4382  1.6723
  501MOL0     H69094   1.979   4.091   5.717  0.2042  0.7117  1.1176
  501MOL0     H69095   2.021   4.112   5.557 -1.3917 -1.4233  0.7276
  501MOL0     H69096   2.317   3.852   5.840 -0.4955 -1.4798  1.3834
  501MOL0     H69097   2.401   3.661   5.902 -1.5645  3.8723 -4.7597
  501MOL0     H69098   2.381   3.524   5.829  0.1486  1.0199 -0.9757
  501MOL0     H69099   2.289   3.545   5.987  1.3319 -0.3634  0.4040
  501MOL0     H69100   1.772   3.425   5.964 -2.0739 -1.4428 -1.3250
  501MOL0     H69101   1.674   3.218   6.034 -0.2201 -0.0599  0.0562
  501MOL0     H69102   1.934   2.814   6.092  0.7923 -0.0321 -0.2876
  501MOL0     H69103   1.979   2.943   6.207 -0.5127  0.7975  0.0953
  501MOL0     H69104   1.892   2.734   6.294  0.9977  0.4627 -1.0878
  501MOL0     H69105   1.823   2.890   6.360 -1.1346 -1.8481  1.7800
  501MOL0     H69106   1.686   2.739   6.142  1.4416 -1.1315  1.3858
  501MOL0     H69107   1.607   2.837   6.272 -1.1664  0.3206  0.9326
  501MOL0     H69108   1.683   2.669   6.440  0.0381  0.3805 -0.6523
  501MOL0     H69109   1.719   2.552   6.304 -0.2676 -0.5105 -1.2978
  501MOL0     H69110   1.507   2.518   6.419  2.9418 -0.8348  0.5097
  501MOL0     H69111   1.450   2.678   6.354  0.2824 -0.7527 -1.4152
  501MOL0     H69112   1.533   2.444   6.168 -0.5299 -1.1599  1.2959
  501MOL0     H69113   1.475   2.605   6.125  0.5766 -0.3435 -0.4903
  501MOL0     H69114   1.259   2.583   6.246 -0.3510 -0.0069  0.7239
  501MOL0     H69115   1.309   2.415   6.283 -1.0884  1.4323  1.5799
  501MOL0     H69116   1.300   2.364   6.046  1.7281  1.0364  1.3377
  501MOL0     H69117   1.226   2.516   6.001 -2.3775 -0.2866  1.2529
  501MOL0     H69118   2.071   3.035   6.015 -1.3556 -0.6883  2.1314
  501MOL0     H69119   2.149   3.231   5.904  0.1860 -2.9152 -0.2830
  501MOL0     H69120   1.936   3.640   5.607  0.6268 -0.6223 -1.0500
  501MOL0     H69121   1.969   3.872   5.586 -1.4115 -0.2162  0.1672
  501MOL0     H69122   0.825   5.129   5.826  0.5062 -1.9978  4.1758
  501MOL0     H69123   0.614   5.217   5.713 -1.2409  0.0400  1.6405
  501MOL0     H69124   0.155   5.578   5.944  0.4850  0.8350  0.7545
  501MOL0     H69125  -0.065   5.633   5.816  0.3927 -0.0910 -0.5406
  501MOL0     H69126  -0.104   5.643   5.392 -1.0334 -0.2323 -0.3232
  501MOL0     H69127  -0.141   5.474   5.414 -1.5268 -0.6095  0.7914
  501MOL0     H69128  -0.361   5.656   5.503  1.9522 -1.7341  1.4877
  501MOL0     H69129  -0.358   5.490   5.458 -1.0489  0.7216  1.8185
  501MOL0     H69130  -0.316   5.717   5.262 -0.6077 -0.1152 -0.4933
  501MOL0     H69131  -0.312   5.538   5.228 -0.1116 -2.0920  1.7004
  501MOL0     H69132  -0.536   5.651   5.184 -0.1566  0.2330 -0.2113
  501MOL0     H69133  -0.554   5.665   5.358  1.0982  2.7745 -1.0904
  501MOL0     H69134  -0.709   5.305   5.233 -0.2762 -0.7316  2.6027
  501MOL0     H69135   0.096   5.489   5.453  0.7421 -0.0846  0.1342
  501MOL0     H69136   0.275   5.415   5.424 -0.3959  1.0176  0.2132
  501MOL0     H69137   0.412   5.499   5.494 -1.8264  1.1119 -0.3725
  501MOL0     H69138   0.378   5.329   5.543 -0.3173 -0.8240 -2.6685
  502MOL0     O69139   6.625   7.679   8.882  0.2222  0.1524  0.2509
  502MOL0     C69140   6.637   7.719   8.767 -0.0278  0.5456  0.5189
  502MOL0     O69141   6.757   7.724   8.704 -0.5614 -0.3182 -0.4085
  502MOL0     C69142   6.873   7.675   8.756  0.0901  0.3303  0.0340
  502MOL0     C69143   6.935   7.589   8.674  0.0506  0.0315 -0.4100
  502MOL0     C69144   7.058   7.537   8.698  0.3204 -0.2832  0.1523
  502MOL0     C69145   7.137   7.582   8.805  0.4755 -0.3085  0.2624
  502MOL0     O69146   7.262   7.532   8.805 -0.0818 -0.2833  0.1415
  502MOL0     C69147   7.335   7.594   8.699 -0.2199  0.9026 -0.6120
  502MOL0     C69148   7.482   7.562   8.724 -0.8235  0.0427 -0.3196
  502MOL0     C69149   7.514   7.414   8.693 -0.4724 -0.2115  0.2944
  502MOL0     C69150   7.643   7.380   8.772  0.7961 -0.4334  0.0074
  502MOL0     C69151   7.648   7.232   8.795  0.4033  0.4027  0.6308
  502MOL0     C69152   7.765   7.189   8.878 -1.0248  0.1010 -0.2567
  502MOL0     C69153   7.765   7.035   8.919  0.6891 -0.0180  0.0509
  502MOL0     C69154   7.871   7.000   9.012  0.5535  0.0748  0.0645
  502MOL0     N69155   7.853   6.858   9.043 -0.5526  0.3129  0.0097
  502MOL0     C69156   7.849   6.751   8.957 -0.1756  0.8052  0.4336
  502MOL0     C69157   7.883   6.637   9.028  0.9530 -0.5633  0.4521
  502MOL0     C69158   7.924   6.499   8.982  0.3468  0.1892 -0.0783
  502MOL0     C69159   8.074   6.494   8.928 -0.2608  0.1942  0.0658
  502MOL0     C69160   8.177   6.518   9.039  0.0897 -0.0005  0.3400
  502MOL0     C69161   8.320   6.529   9.007  0.4204 -0.5923  0.8163
  502MOL0     O69162   8.346   6.641   8.918  0.0200 -0.0282 -0.6132
  502MOL0     C69163   8.314   6.766   8.962 -0.1435  0.5056  0.3692
  502MOL0     C69164   8.274   6.863   8.865  1.4020  0.4937 -0.0954
  502MOL0     C69165   8.247   6.995   8.892  0.3189  0.2068  0.3032
  502MOL0     C69166   8.195   7.074   8.772 -0.1964  0.0697  0.8722
  502MOL0     C69167   8.276   7.043   9.020 -0.3149 -1.0329 -0.1533
  502MOL0     C69168   8.250   7.180   9.081  0.7344  0.2843 -0.3811
  502MOL0     O69169   8.169   7.266   9.007  0.2204  0.1112  1.0000
  502MOL0     C69170   8.161   7.389   9.072  0.8116 -0.1354  0.5667
  502MOL0     C69171   8.272   7.478   9.068  0.0778 -0.4688  0.1181
  502MOL0     C69172   8.265   7.611   9.106 -0.2142  0.8160  0.8957
  502MOL0     C69173   8.131   7.654   9.135  0.0913  0.0508 -0.0596
  502MOL0     O69174   8.121   7.777   9.193  0.7757  0.0260  0.2034
  502MOL0     C69175   8.057   7.875   9.115 -0.2913  0.1394  0.2873
  502MOL0     C69176   8.146   7.907   8.987  0.0999 -0.3113 -0.3237
  502MOL0     C69177   8.087   8.014   8.891 -0.8190  0.3934 -0.1706
  502MOL0     C69178   8.005   8.131   8.951 -0.0958 -0.0504 -0.3739
  502MOL0     C69179   7.960   8.225   8.841  0.3012 -0.2967 -0.1330
  502MOL0     C69180   7.833   8.171   8.771 -0.6062 -0.3884  0.2685
  502MOL0     C69181   7.759   8.276   8.689  0.0923  0.2794 -0.2164
  502MOL0     C69182   7.670   8.374   8.769  0.0478 -0.0210 -0.8046
  502MOL0    Cl69183   7.596   8.482   8.660  0.3455 -0.2897 -0.0404
  502MOL0     C69184   8.021   7.563   9.144  0.2597 -0.4437  0.5174
  502MOL0     C69185   8.038   7.429   9.115  0.6375  0.2617  0.5529
  502MOL0     O69186   8.315   7.210   9.184  0.3044  0.0459 -0.3413
  502MOL0     C69187   8.340   6.949   9.112  1.4846  0.4249 -0.6517
  502MOL0     C69188   8.356   6.816   9.082 -0.0223 -0.6012  0.0299
  502MOL0     N69189   7.906   6.682   9.152 -0.6060 -0.5278 -0.6732
  502MOL0     N69190   7.912   6.816   9.157  0.7385  0.3315 -0.3793
  502MOL0     C69191   7.077   7.666   8.900  1.4639  0.3798  1.8149
  502MOL0     C69192   6.941   7.713   8.871 -0.5107  0.0371 -0.0453
  502MOL0     C69193   6.513   7.775   8.704  0.1405  0.5390  0.0393
  502MOL0     C69194   6.482   7.903   8.732 -0.2878 -0.4035 -0.5700
  502MOL0     C69195   6.367   7.966   8.670 -0.2880 -0.5195  0.6192
  502MOL0     C69196   6.285   7.882   8.588 -0.7166 -1.2155 -0.5332
  502MOL0     O69197   6.168   7.950   8.558 -0.3245 -0.0492  0.1277
  502MOL0     C69198   6.123   7.948   8.417 -0.1369  0.6915  0.2637
  502MOL0     C69199   6.193   8.061   8.344 -1.0362  0.2637 -1.1473
  502MOL0     C69200   6.124   8.119   8.221  0.6956 -0.2717  0.6754
  502MOL0     C69201   6.215   8.218   8.145  0.4093  0.4864  1.2419
  502MOL0     C69202   6.158   8.244   8.015  0.1415  0.2894 -0.6092
  502MOL0     C69203   6.124   8.271   7.909  0.0984  0.0929  0.6723
  502MOL0     C69204   6.311   7.749   8.569 -0.4260  0.2618  0.1922
  502MOL0     C69205   6.429   7.692   8.627 -0.9206  0.4208 -0.3244
  502MOL0     C69206   6.444   7.543   8.636 -0.6135 -0.8321  0.0488
  502MOL0     H69207   6.875   7.551   8.592 -3.8325 -0.4194  2.3275
  502MOL0     H69208   7.102   7.477   8.620  0.0530 -1.7273  1.0738
  502MOL0     H69209   7.319   7.702   8.708 -0.6358  0.6823  2.5807
  502MOL0     H69210   7.316   7.559   8.597  0.1434  0.9243 -0.6888
  502MOL0     H69211   7.549   7.620   8.660  1.2321  1.0692  2.5479
  502MOL0     H69212   7.507   7.585   8.828 -2.2463  0.6280 -0.0895
  502MOL0     H69213   7.426   7.352   8.714  0.2026 -2.3418 -2.5237
  502MOL0     H69214   7.544   7.409   8.588 -2.4747  2.7547 -0.5433
  502MOL0     H69215   7.730   7.417   8.716  0.6426  1.8480  1.1985
  502MOL0     H69216   7.650   7.426   8.871 -2.6612  0.8896 -0.2393
  502MOL0     H69217   7.658   7.178   8.701 -3.8973 -0.5017  0.5321
  502MOL0     H69218   7.557   7.207   8.850 -0.0696 -1.1401 -0.8133
  502MOL0     H69219   7.852   7.218   8.818 -0.2970  0.0912  0.7681
  502MOL0     H69220   7.786   7.258   8.960 -1.3315  1.1624 -1.0519
  502MOL0     H69221   7.780   6.979   8.826 -0.9288  0.4836 -0.5446
  502MOL0     H69222   7.675   7.007   8.975  2.0404 -1.0933  1.7725
  502MOL0     H69223   7.970   7.019   8.969  0.5482  1.1818  0.5211
  502MOL0     H69224   7.861   7.065   9.100  0.4183  3.0348 -1.9846
  502MOL0     H69225   7.841   6.759   8.849  1.8355 -2.3419 -0.0700
  502MOL0     H69226   7.847   6.479   8.907 -0.1910  2.3800 -0.1753
  502MOL0     H69227   7.912   6.428   9.065  0.1355 -1.5392 -1.5184
  502MOL0     H69228   8.096   6.390   8.902 -2.0864 -0.2987  0.3233
  502MOL0     H69229   8.092   6.555   8.839  2.4568  0.4026  0.6975
  502MOL0     H69230   8.145   6.606   9.097 -2.7917 -1.2288  0.7995
  502MOL0     H69231   8.172   6.443   9.118  4.2772 -1.4278 -0.5227
  502MOL0     H69232   8.370   6.542   9.103  1.7387 -3.0675  0.5420
  502MOL0     H69233   8.358   6.434   8.967 -2.4372 -1.6636  0.3947
  502MOL0     H69234   8.247   6.817   8.770  1.3411  0.4852 -0.0742
  502MOL0     H69235   8.215   7.180   8.793  2.5295  0.0826 -1.2931
  502MOL0     H69236   8.088   7.060   8.756 -0.0071  0.0016 -0.4107
  502MOL0     H69237   8.254   7.041   8.686  0.0951  1.1172  0.6588
  502MOL0     H69238   8.367   7.444   9.027  1.2923 -0.1585  2.5182
  502MOL0     H69239   8.354   7.673   9.109 -0.4651  1.6870 -3.3658
  502MOL0     H69240   7.957   7.839   9.088 -1.1390  0.1404  3.0385
  502MOL0     H69241   8.044   7.969   9.171  0.0923 -0.3818  1.2889
  502MOL0     H69242   8.245   7.942   9.017  0.2506 -2.7068  2.3074
  502MOL0     H69243   8.158   7.807   8.944 -4.6095 -1.4442  0.4339
  502MOL0     H69244   8.025   7.956   8.823  1.2534  0.3129 -2.1038
  502MOL0     H69245   8.170   8.057   8.835  0.0890  0.9512  1.5142
  502MOL0     H69246   8.072   8.181   9.022 -0.9603 -2.2993  2.2032
  502MOL0     H69247   7.924   8.089   9.012  0.5617 -1.1381 -0.2186
  502MOL0     H69248   7.941   8.327   8.874  1.5821  1.5418 -4.3496
  502MOL0     H69249   8.029   8.224   8.756 -1.4710 -0.5359 -1.6312
  502MOL0     H69250   7.760   8.150   8.851  1.0956 -2.9606  1.2855
  502MOL0     H69251   7.849   8.072   8.727 -2.3278 -0.6863  0.2502
  502MOL0     H69252   7.709   8.234   8.602 -1.2800  0.9645  0.2217
  502MOL0     H69253   7.840   8.334   8.644  1.2468 -1.1227 -0.0314
  502MOL0     H69254   7.732   8.437   8.834  2.0773  1.7616 -4.1744
  502MOL0     H69255   7.595   8.326   8.833  2.1262  1.0120  2.6904
  502MOL0     H69256   7.927   7.615   9.159  1.4132  2.1822 -0.8179
  502MOL0     H69257   7.950   7.365   9.111  0.0383  0.8119  3.2689
  502MOL0     H69258   8.358   6.971   9.217 -1.5528 -1.5632  0.4315
  502MOL0     H69259   8.383   6.741   9.156  0.5041  0.7457  1.2617
  502MOL0     H69260   7.149   7.691   8.977  3.9554 -0.4877 -0.1191
  502MOL0     H69261   6.901   7.787   8.940  0.8949 -2.3369  3.5994
  502MOL0     H69262   6.538   7.967   8.799  2.1926  0.4255 -3.1802
  502MOL0     H69263   6.322   8.063   8.692 -0.4544 -0.8139  1.6192
  502MOL0     H69264   6.153   7.852   8.373 -2.3890  0.3369 -0.6504
  502MOL0     H69265   6.016   7.962   8.399 -0.3853  0.5334  1.5653
  502MOL0     H69266   6.295   8.033   8.313 -0.5515  0.4914  0.1687
  502MOL0     H69267   6.187   8.143   8.416 -2.4056 -1.2601  0.5639
  502MOL0     H69268   6.089   8.029   8.170  2.5059 -0.5421 -0.1609
  502MOL0     H69269   6.035   8.179   8.241 -1.0950 -1.9449 -1.6381
  502MOL0     H69270   6.317   8.181   8.136 -0.0062 -0.1205 -1.9149
  502MOL0     H69271   6.229   8.311   8.201  0.3326  0.1871  1.7690
  502MOL0     H69272   6.083   8.284   7.811  2.3303  0.9887 -0.2094
  502MOL0     H69273   6.244   7.685   8.513 -0.9362 -1.2299  2.3553
  502MOL0     H69274   6.356   7.494   8.594 -2.8750  1.5698  1.6296
  502MOL0     H69275   6.535   7.521   8.580  0.1192  3.2900 -0.7655
  502MOL0     H69276   6.463   7.507   8.738  1.9846 -1.4169 -0.5663
  503MOL0     O69277   6.018   8.045   2.576 -0.3587  0.0526 -0.9861
  503MOL0     C69278   6.020   8.131   2.487 -0.1882 -0.9571 -0.1297
  503MOL0     O69279   5.936   8.245   2.483  0.0001 -0.0250 -0.2087
  503MOL0     C69280   5.919   8.312   2.608 -1.0590 -0.3299 -0.6126
  503MOL0     C69281   5.905   8.448   2.612  0.5869 -1.1116 -0.4845
  503MOL0     C69282   5.870   8.530   2.723  0.5067 -0.1570  0.0598
  503MOL0     C69283   5.842   8.464   2.842  0.3987 -0.2260  0.3100
  503MOL0     O69284   5.799   8.527   2.955  0.3559 -0.0445  0.1802
  503MOL0     C69285   5.661   8.491   2.975 -0.1852  0.4033  0.7090
  503MOL0     C69286   5.575   8.604   3.026 -0.2729  0.4540  0.7197
  503MOL0     C69287   5.620   8.655   3.165  0.2027  1.0094 -0.3855
  503MOL0     C69288   5.520   8.760   3.217 -0.1800  0.5794  1.1678
  503MOL0     C69289   5.563   8.792   3.355  0.5319 -0.0414  1.1210
  503MOL0     C69290   5.509   8.922   3.417  0.0302 -1.1601 -0.3996
  503MOL0     C69291   5.557   8.957   3.560 -1.0249  1.0975  0.6253
  503MOL0     C69292   5.707   8.980   3.565 -0.2751  0.7121 -0.3127
  503MOL0     N69293   5.767   9.070   3.468 -0.1789 -0.5128  0.9379
  503MOL0     C69294   5.725   9.201   3.444  0.1131 -0.4951  0.4828
  503MOL0     C69295   5.782   9.235   3.323 -0.1693 -0.1435 -0.4501
  503MOL0     C69296   5.772   9.375   3.274  0.2927 -0.3805 -0.6559
  503MOL0     C69297   5.882   9.459   3.350 -0.3308  0.6568  0.8503
  503MOL0     C69298   6.034   9.426   3.316 -0.2507 -0.1999 -0.0951
  503MOL0     C69299   6.136   9.499   3.392  0.4590  0.0792  0.0188
  503MOL0     O69300   6.262   9.504   3.318  0.8559 -0.0281  0.2654
  503MOL0     C69301   6.357   9.592   3.357  0.1644 -0.8951 -0.6454
  503MOL0     C69302   6.341   9.702   3.434 -0.4596 -0.5761 -0.4328
  503MOL0     C69303   6.450   9.776   3.478  0.6865 -0.2352 -0.3910
  503MOL0     C69304   6.421   9.905   3.548  0.3258 -0.3152 -0.2007
  503MOL0     C69305   6.580   9.722   3.462 -0.4102 -0.2221  0.1943
  503MOL0     C69306   6.708   9.789   3.508 -0.0557  0.1505  0.2489
  503MOL0     O69307   6.698   9.923   3.557  0.1901 -0.5971  0.2471
  503MOL0     C69308   6.802   9.971   3.637  0.7311 -0.1213 -0.1724
  503MOL0     C69309   6.888   9.889   3.713 -0.0264 -1.0120  0.1499
  503MOL0     C69310   7.001   9.947   3.777 -0.3565  0.4066  0.0783
  503MOL0     C69311   7.025  10.084   3.778  0.3572  1.0605  0.0905
  503MOL0     O69312   7.143  10.121   3.844 -0.3923 -0.3126  0.0361
  503MOL0     C69313   7.169  10.259   3.883  0.4157 -0.1236 -0.4671
  503MOL0     C69314   7.324  10.274   3.898 -0.6227 -0.2230 -0.2637
  503MOL0     C69315   7.363  10.415   3.947 -0.8490  0.5574 -0.0581
  503MOL0     C69316   7.510  10.441   3.969 -0.3865 -0.0957 -0.1487
  503MOL0     C69317   7.508  10.590   4.001 -0.3480  0.0343 -0.2914
  503MOL0     C69318   7.647  10.639   4.044 -0.2811  0.2870  0.3920
  503MOL0     C69319   7.761  10.629   3.940  0.2529  0.0484  0.2264
  503MOL0     C69320   7.747  10.747   3.837 -0.2401  0.3650 -0.1824
  503MOL0    Cl69321   7.903  10.780   3.751  0.4496  0.0932 -0.2707
  503MOL0     C69322   6.947  10.161   3.701  0.5158  0.8976 -0.9413
  503MOL0     C69323   6.831  10.104   3.637 -0.1484  0.1226 -0.3984
  503MOL0     O69324   6.815   9.737   3.475 -0.2023 -0.7558 -0.3404
  503MOL0     C69325   6.598   9.599   3.396  0.5458  0.2788  0.6347
  503MOL0     C69326   6.488   9.544   3.333  0.0734 -0.5797 -0.4445
  503MOL0     N69327   5.857   9.124   3.275  0.4826 -0.2285  0.1140
  503MOL0     N69328   5.829   9.023   3.354 -0.1093  0.2110  0.0430
  503MOL0     C69329   5.839   8.325   2.846  0.0230 -0.4847  0.7448
  503MOL0     C69330   5.878   8.251   2.734  0.4281  0.2051  0.6114
  503MOL0     C69331   6.125   8.120   2.380 -0.9767  0.7262  0.2395
  503MOL0     C69332   6.159   8.231   2.307  0.0106 -0.1351  0.3941
  503MOL0     C69333   6.240   8.221   2.198  0.1633 -0.7303 -0.4251
  503MOL0     C69334   6.309   8.108   2.158 -0.3918 -0.0300  0.1044
  503MOL0     O69335   6.403   8.110   2.054 -0.3606  0.2701 -0.0988
  503MOL0     C69336   6.515   8.022   2.057  0.2759 -0.0241  0.8549
  503MOL0     C69337   6.531   7.951   1.911  0.7615 -0.7085 -0.0539
  503MOL0     C69338   6.408   7.858   1.887 -0.2511 -0.1114  0.0581
  503MOL0     C69339   6.389   7.811   1.748 -0.2326 -0.4885 -0.3382
  503MOL0     C69340   6.514   7.776   1.689  0.6732  0.0358  0.1795
  503MOL0     C69341   6.612   7.740   1.636  0.1282  0.5591  0.2545
  503MOL0     C69342   6.283   7.986   2.229 -0.0084 -1.4182 -0.8263
  503MOL0     C69343   6.194   7.994   2.348  1.2222  1.0563 -0.2625
  503MOL0     C69344   6.168   7.859   2.427 -0.1568 -0.2192  0.7906
  503MOL0     H69345   5.924   8.515   2.529  0.4184  0.3449  0.6154
  503MOL0     H69346   5.891   8.636   2.718 -2.2108  0.5487  1.6373
  503MOL0     H69347   5.659   8.413   3.052  0.0884  1.7528  2.1526
  503MOL0     H69348   5.619   8.459   2.880  2.9017 -1.6024 -0.1196
  503MOL0     H69349   5.569   8.689   2.957 -0.2166  0.8117  1.1466
  503MOL0     H69350   5.470   8.572   3.033 -0.3354  1.0300  3.7948
  503MOL0     H69351   5.628   8.566   3.229 -3.1391 -0.0536 -1.2109
  503MOL0     H69352   5.721   8.695   3.156 -0.0192  1.0327 -4.1184
  503MOL0     H69353   5.527   8.853   3.160 -1.1387 -1.6868 -3.0528
  503MOL0     H69354   5.419   8.722   3.205  0.7573 -1.7598  0.0241
  503MOL0     H69355   5.672   8.801   3.363  0.6000  0.3382 -0.0252
  503MOL0     H69356   5.545   8.705   3.419  0.5750 -1.0982 -0.2742
  503MOL0     H69357   5.526   9.006   3.349  0.5215 -2.7211 -2.3114
  503MOL0     H69358   5.402   8.913   3.433  0.3251 -1.6152  1.5225
  503MOL0     H69359   5.527   8.870   3.619  0.2191 -0.1358 -0.4968
  503MOL0     H69360   5.504   9.039   3.610  0.8660  1.2325  2.5739
  503MOL0     H69361   5.724   9.013   3.668 -0.5396  0.8708 -0.3185
  503MOL0     H69362   5.758   8.885   3.546 -2.2723 -0.0523 -2.1939
  503MOL0     H69363   5.662   9.265   3.506  0.4405  1.8869 -1.4761
  503MOL0     H69364   5.670   9.412   3.292 -0.1388 -1.9245  0.3054
  503MOL0     H69365   5.790   9.382   3.167  0.8590 -1.7466 -0.6772
  503MOL0     H69366   5.852   9.564   3.342  0.0475  0.8352  1.6407
  503MOL0     H69367   5.872   9.434   3.456  2.5073 -0.9624  0.8494
  503MOL0     H69368   6.053   9.319   3.326  2.9215  0.3596  0.9701
  503MOL0     H69369   6.054   9.447   3.211  0.2534  3.9180  0.6454
  503MOL0     H69370   6.110   9.604   3.408 -0.7164  0.2962 -2.7828
  503MOL0     H69371   6.148   9.438   3.482  1.7647  0.6869  0.2821
  503MOL0     H69372   6.245   9.747   3.456 -0.0105  0.6533 -0.9416
  503MOL0     H69373   6.466   9.991   3.497 -0.8241 -0.4906 -1.5634
  503MOL0     H69374   6.467   9.901   3.647 -0.3973  1.6187  0.2702
  503MOL0     H69375   6.315   9.926   3.562 -0.0716 -3.0005  1.3412
  503MOL0     H69376   6.879   9.781   3.722  0.8485 -1.1119 -0.0773
  503MOL0     H69377   7.069   9.882   3.829  0.6213  0.8246 -0.6353
  503MOL0     H69378   7.142  10.324   3.799 -0.5659 -1.2538 -1.0605
  503MOL0     H69379   7.120  10.290   3.975  0.4547  0.6968 -0.7164
  503MOL0     H69380   7.371  10.203   3.966  1.1379 -0.0099 -1.2156
  503MOL0     H69381   7.369  10.252   3.801  0.4257 -2.1891  0.6161
  503MOL0     H69382   7.320  10.432   4.046  0.4882  0.7383  0.5212
  503MOL0     H69383   7.328  10.486   3.872 -0.6481  2.2995  1.4459
  503MOL0     H69384   7.554  10.426   3.870 -0.0357  0.3572 -0.0627
  503MOL0     H69385   7.546  10.376   4.050  0.5062 -2.8458 -2.5813
  503MOL0     H69386   7.487  10.655   3.916  2.7346 -0.6980 -1.7400
  503MOL0     H69387   7.442  10.606   4.087  1.8284 -1.7942  1.8706
  503MOL0     H69388   7.668  10.589   4.139 -1.9412 -2.2079 -0.4418
  503MOL0     H69389   7.635  10.743   4.074 -1.8301 -0.0838  1.1749
  503MOL0     H69390   7.753  10.535   3.885 -0.5721  0.3121 -0.1281
  503MOL0     H69391   7.859  10.645   3.986  0.5066  0.9427 -0.5902
  503MOL0     H69392   7.717  10.842   3.884  0.3521  0.0849  0.7893
  503MOL0     H69393   7.680  10.716   3.757 -1.5647  1.3130  0.5068
  503MOL0     H69394   6.946  10.269   3.700  0.3755  0.9052 -0.3466
  503MOL0     H69395   6.768  10.175   3.584 -1.5527 -1.1227 -0.4691
  503MOL0     H69396   6.693   9.548   3.399  1.1484  1.0611 -2.3501
  503MOL0     H69397   6.499   9.443   3.296 -0.7448 -2.3171  3.4813
  503MOL0     H69398   5.830   8.271   2.940 -1.5082  0.1798  1.0162
  503MOL0     H69399   5.879   8.142   2.740  0.9008  0.2694  1.9863
  503MOL0     H69400   6.111   8.324   2.333  0.0759 -0.0298  0.1469
  503MOL0     H69401   6.265   8.306   2.134 -0.6145  0.2410  0.5300
  503MOL0     H69402   6.610   8.074   2.064  0.3628  0.5816 -2.7872
  503MOL0     H69403   6.526   7.950   2.139  1.0222 -1.3075 -0.3145
  503MOL0     H69404   6.629   7.901   1.911  0.9160 -0.4138  0.3850
  503MOL0     H69405   6.547   8.028   1.836  1.7241 -0.1053  0.7388
  503MOL0     H69406   6.416   7.776   1.959  3.7531  0.7907  0.9081
  503MOL0     H69407   6.323   7.920   1.916 -0.5948  0.2608 -1.6448
  503MOL0     H69408   6.355   7.896   1.687  0.0305 -1.1075 -1.3712
  503MOL0     H69409   6.318   7.728   1.746 -2.6045  1.3726  0.9467
  503MOL0     H69410   6.703   7.706   1.591 -1.5092  0.0840 -3.0249
  503MOL0     H69411   6.322   7.893   2.188 -2.9201 -3.3720  0.5168
  503MOL0     H69412   6.062   7.836   2.434 -0.4941  0.7890 -0.5140
  503MOL0     H69413   6.216   7.774   2.377 -0.8794 -0.5517  0.6501
  503MOL0     H69414   6.234   7.861   2.514  3.0381 -1.4384 -1.4085
  504MOL0     O69415   8.160   5.265   8.666 -0.1904 -0.7081 -0.9134
  504MOL0     C69416   8.274   5.229   8.657 -0.4815 -0.5909 -0.2044
  504MOL0     O69417   8.365   5.269   8.743 -0.7842 -0.4017  0.4171
  504MOL0     C69418   8.392   5.194   8.856 -0.3901 -0.7407 -0.9036
  504MOL0     C69419   8.486   5.242   8.946 -0.1955 -0.6629  0.3524
  504MOL0     C69420   8.505   5.181   9.074  1.6063  0.7875  0.5729
  504MOL0     C69421   8.445   5.055   9.097  0.1531 -0.4524  0.1418
  504MOL0     O69422   8.483   4.991   9.206  1.0233 -0.0073  0.0229
  504MOL0     C69423   8.391   4.916   9.290  0.9939 -0.6817 -0.3361
  504MOL0     C69424   8.474   4.833   9.396  0.5395 -0.4196  0.0402
  504MOL0     C69425   8.381   4.727   9.454  0.1352  0.9706 -0.3422
  504MOL0     C69426   8.447   4.650   9.576  0.3928  0.2083  0.6565
  504MOL0     C69427   8.339   4.607   9.675 -0.5306  0.1331 -0.5969
  504MOL0     C69428   8.405   4.542   9.802  0.1562  0.6480  0.3148
  504MOL0     C69429   8.314   4.456   9.891 -0.5658 -0.5190 -0.5113
  504MOL0     C69430   8.180   4.529   9.926  0.0667  0.2501 -0.6136
  504MOL0     N69431   8.106   4.473  10.038 -0.0246 -0.0951  0.9894
  504MOL0     C69432   8.096   4.337  10.064 -0.3387  0.6043  0.6796
  504MOL0     C69433   8.020   4.321  10.171 -0.1303  0.1586  1.4668
  504MOL0     C69434   7.995   4.198  10.246 -0.0706  0.6837  0.2910
  504MOL0     C69435   7.859   4.201  10.316  0.6797 -0.0286 -0.6074
  504MOL0     C69436   7.802   4.070  10.356 -0.7471  0.4970  0.6567
  504MOL0     C69437   7.789   3.958  10.259 -1.1061 -0.6433  0.4002
  504MOL0     O69438   7.714   4.005  10.144 -0.1639  0.1626 -0.1485
  504MOL0     C69439   7.729   3.924  10.034 -0.1435  0.7202  0.5785
  504MOL0     C69440   7.779   3.793  10.025 -1.3036 -0.2220  0.1943
  504MOL0     C69441   7.797   3.724   9.908 -0.9366 -0.5221  0.9768
  504MOL0     C69442   7.852   3.586   9.912  1.1803 -0.5416  0.1232
  504MOL0     C69443   7.758   3.799   9.780 -0.9661 -0.4207 -1.3592
  504MOL0     C69444   7.780   3.742   9.646  0.9634 -1.0360 -0.1713
  504MOL0     O69445   7.747   3.826   9.541 -0.7343 -0.0439  0.4146
  504MOL0     C69446   7.732   3.767   9.415 -0.0337  0.4555  0.0464
  504MOL0     C69447   7.841   3.732   9.326 -0.7500  0.7924  0.3608
  504MOL0     C69448   7.826   3.664   9.202  0.2443 -0.2014 -0.0996
  504MOL0     C69449   7.697   3.623   9.158  0.3151 -0.6463 -0.1265
  504MOL0     O69450   7.687   3.562   9.033 -0.5101 -0.3231 -0.1359
  504MOL0     C69451   7.591   3.456   9.018  0.1748 -0.1467 -0.0090
  504MOL0     C69452   7.574   3.407   8.876 -0.4503 -0.0176  0.0507
  504MOL0     C69453   7.515   3.499   8.770  0.0427  0.8770  0.0828
  504MOL0     C69454   7.495   3.417   8.644  0.3757  0.1715 -0.2326
  504MOL0     C69455   7.404   3.496   8.542  0.1331 -0.3795  0.4648
  504MOL0     C69456   7.345   3.410   8.416  0.1036  0.3461  0.3006
  504MOL0     C69457   7.458   3.360   8.332 -0.5526  0.5829 -1.1879
  504MOL0     C69458   7.396   3.282   8.221  0.0950 -0.9395 -0.0315
  504MOL0    Cl69459   7.330   3.123   8.281  0.1242 -0.1667  0.0869
  504MOL0     C69460   7.589   3.644   9.249  0.3382 -0.2007 -1.1081
  504MOL0     C69461   7.609   3.718   9.372 -0.2576 -0.6766  0.5467
  504MOL0     O69462   7.816   3.629   9.646 -0.4592  0.1093 -0.6243
  504MOL0     C69463   7.709   3.932   9.791  0.3071  0.2970  0.1132
  504MOL0     C69464   7.687   3.995   9.920 -0.8385  0.5904  0.1183
  504MOL0     N69465   7.980   4.450  10.212  1.1894  0.1742 -0.6568
  504MOL0     N69466   8.014   4.538  10.117 -0.6747  0.1869 -0.8280
  504MOL0     C69467   8.349   5.000   9.010  0.8275 -0.2333  0.2814
  504MOL0     C69468   8.324   5.066   8.883  0.2557  0.0177  0.3685
  504MOL0     C69469   8.315   5.123   8.553 -0.3538  0.3641  1.1599
  504MOL0     C69470   8.452   5.105   8.531 -0.3568 -0.4328  0.5596
  504MOL0     C69471   8.499   5.035   8.422  0.6399  0.3075  0.2139
  504MOL0     C69472   8.409   4.966   8.345 -0.9475 -0.2957  0.0446
  504MOL0     O69473   8.470   4.901   8.237 -0.0378 -0.5729 -1.0844
  504MOL0     C69474   8.465   4.974   8.111  0.7199 -0.4574 -0.5451
  504MOL0     C69475   8.328   4.990   8.050 -0.2205 -0.3563 -0.0704
  504MOL0     C69476   8.241   4.867   8.031 -0.4856  0.6406  0.4965
  504MOL0     C69477   8.105   4.894   7.953  0.6512 -0.7378  0.9731
  504MOL0     C69478   8.044   4.769   7.902 -0.9800 -0.4750  0.8718
  504MOL0     C69479   8.003   4.668   7.840 -0.3354 -1.4476  0.1102
  504MOL0     C69480   8.270   4.970   8.370  0.1753  0.9912  0.3001
  504MOL0     C69481   8.223   5.043   8.478  0.1029 -0.3570  0.0343
  504MOL0     C69482   8.084   5.025   8.530  0.3645 -0.5676 -1.5061
  504MOL0     H69483   8.548   5.325   8.915 -0.9295 -0.7538 -1.4823
  504MOL0     H69484   8.578   5.231   9.137 -0.1747  0.8197  2.7420
  504MOL0     H69485   8.332   4.848   9.228  0.5118 -2.0476  1.5185
  504MOL0     H69486   8.324   4.979   9.348 -1.6850 -4.0211  0.5009
  504MOL0     H69487   8.553   4.787   9.335  2.4241  2.1747  0.3684
  504MOL0     H69488   8.514   4.887   9.482  2.9860 -3.5894  1.0755
  504MOL0     H69489   8.288   4.771   9.492 -0.5919 -0.4751 -0.4078
  504MOL0     H69490   8.334   4.658   9.383 -0.8195 -0.5058  1.6484
  504MOL0     H69491   8.503   4.563   9.542 -1.1037 -0.6271  0.2029
  504MOL0     H69492   8.523   4.717   9.617 -1.3681  2.5656  0.3252
  504MOL0     H69493   8.271   4.531   9.635  0.2316 -1.8313  1.6371
  504MOL0     H69494   8.279   4.694   9.704  2.0873  2.0049 -0.4479
  504MOL0     H69495   8.489   4.473   9.787  0.2465  0.7474  0.3566
  504MOL0     H69496   8.434   4.629   9.863 -1.6418  0.9839  0.7348
  504MOL0     H69497   8.372   4.421   9.976 -2.4454 -0.3545  0.9155
  504MOL0     H69498   8.292   4.361   9.842  1.0208 -0.3793 -1.5728
  504MOL0     H69499   8.199   4.636   9.935 -2.5038  0.7544 -0.4657
  504MOL0     H69500   8.121   4.518   9.834  1.9386 -0.7857 -1.7593
  504MOL0     H69501   8.143   4.260  10.004 -1.0493  2.5304 -2.5888
  504MOL0     H69502   8.076   4.171  10.314  0.2393 -1.0906 -0.7093
  504MOL0     H69503   7.990   4.122  10.168 -0.0875  2.8098 -1.9026
  504MOL0     H69504   7.845   4.258  10.408  0.9984 -0.9236  0.0042
  504MOL0     H69505   7.781   4.241  10.250 -1.6638  0.8107  2.4436
  504MOL0     H69506   7.863   4.018  10.431  1.7182  0.1987 -1.4157
  504MOL0     H69507   7.698   4.081  10.389 -2.2832  1.1101 -3.7292
  504MOL0     H69508   7.890   3.932  10.225 -1.5895 -1.8166 -0.1899
  504MOL0     H69509   7.740   3.868  10.297 -0.7947 -0.6352  0.8331
  504MOL0     H69510   7.808   3.738  10.115  1.0334  0.3682 -0.1344
  504MOL0     H69511   7.882   3.551  10.012  0.0146 -1.4661  0.1644
  504MOL0     H69512   7.950   3.592   9.864  1.1496 -0.6262  0.0499
  504MOL0     H69513   7.779   3.521   9.864  1.0217 -2.1885  2.3988
  504MOL0     H69514   7.943   3.762   9.346 -0.3134 -0.1037 -0.4033
  504MOL0     H69515   7.915   3.642   9.145 -1.9864 -4.0004 -2.5841
  504MOL0     H69516   7.613   3.363   9.071  0.1271  1.2475  2.6582
  504MOL0     H69517   7.491   3.498   9.036  0.0829  1.4186 -3.3722
  504MOL0     H69518   7.676   3.397   8.839 -0.5762  3.0096 -1.3498
  504MOL0     H69519   7.531   3.307   8.886 -0.2171 -0.4433 -2.5421
  504MOL0     H69520   7.575   3.588   8.751 -0.7858  1.7711  1.4992
  504MOL0     H69521   7.416   3.512   8.814 -1.4277 -3.8059 -1.2964
  504MOL0     H69522   7.450   3.321   8.671 -0.3623  0.5219 -0.1773
  504MOL0     H69523   7.590   3.393   8.596 -1.0650  1.3782 -4.0663
  504MOL0     H69524   7.325   3.556   8.588 -0.9841  0.6013 -2.4931
  504MOL0     H69525   7.461   3.582   8.506 -1.4720  1.2485  1.6484
  504MOL0     H69526   7.292   3.478   8.349  3.3347  2.7837 -0.0259
  504MOL0     H69527   7.275   3.335   8.453 -0.1517 -0.4310 -1.6827
  504MOL0     H69528   7.527   3.294   8.385  2.2587  2.0861 -2.7383
  504MOL0     H69529   7.519   3.446   8.301  3.0151  0.8285  4.9383
  504MOL0     H69530   7.473   3.263   8.146 -0.5768  2.1771 -1.6755
  504MOL0     H69531   7.316   3.334   8.168 -1.3424 -4.4988 -1.7222
  504MOL0     H69532   7.485   3.617   9.231 -0.4924  0.5605  1.9146
  504MOL0     H69533   7.531   3.742   9.443 -2.0772  1.4549 -1.9821
  504MOL0     H69534   7.699   3.991   9.701  0.0131  2.1541  1.3076
  504MOL0     H69535   7.658   4.099   9.931 -0.7521  0.8553 -1.7758
  504MOL0     H69536   8.316   4.900   9.035  1.2641 -1.4965 -3.5120
  504MOL0     H69537   8.244   5.027   8.821  0.1465  3.8489 -2.2518
  504MOL0     H69538   8.527   5.152   8.593  1.4069  2.3914 -3.2754
  504MOL0     H69539   8.606   5.021   8.407  0.1702 -2.1635 -1.3931
  504MOL0     H69540   8.507   5.073   8.131 -1.5859  0.5389 -0.3036
  504MOL0     H69541   8.526   4.930   8.031 -0.8422 -1.7566 -1.0737
  504MOL0     H69542   8.343   5.034   7.952  1.8349  1.0425  0.8211
  504MOL0     H69543   8.273   5.061   8.113 -0.0182  0.8982 -1.2626
  504MOL0     H69544   8.310   4.796   7.984  0.8734  1.0653  1.7886
  504MOL0     H69545   8.208   4.820   8.124 -2.0678  1.6526  0.4696
  504MOL0     H69546   8.120   4.962   7.868  1.3405  1.3843  2.7043
  504MOL0     H69547   8.029   4.926   8.024  0.3865 -1.7602  1.1710
  504MOL0     H69548   7.955   4.585   7.794 -2.9005 -0.6155  1.1349
  504MOL0     H69549   8.198   4.900   8.327 -0.7534  2.6470 -0.9661
  504MOL0     H69550   8.085   5.017   8.639  0.2897  3.6621 -1.0448
  504MOL0     H69551   8.024   5.111   8.501  2.7784  2.1186  0.8597
  504MOL0     H69552   8.044   4.931   8.489  1.7432 -0.4730 -3.1579
  505MOL0     O69553  10.019   6.285  10.832 -0.6903 -0.3729  0.5364
  505MOL0     C69554   9.944   6.330  10.751  0.4936 -0.5098 -0.6200
  505MOL0     O69555   9.962   6.313  10.612 -0.6187  0.3189 -0.0229
  505MOL0     C69556  10.039   6.210  10.573  0.9169  0.6685 -0.3213
  505MOL0     C69557   9.973   6.099  10.515  0.4156  0.5497  0.5619
  505MOL0     C69558  10.037   5.983  10.477  0.6447  0.3491 -0.2826
  505MOL0     C69559  10.176   5.972  10.497  0.0923  0.0185 -0.0080
  505MOL0     O69560  10.228   5.847  10.469  0.0247 -0.3263  0.0071
  505MOL0     C69561  10.337   5.836  10.374  0.6594 -0.0596 -0.3973
  505MOL0     C69562  10.293   5.893  10.244 -0.0546  0.5584 -0.1304
  505MOL0     C69563  10.406   5.863  10.148 -0.3605 -0.2466 -0.2225
  505MOL0     C69564  10.356   5.887  10.009  0.7395 -0.7533  0.9252
  505MOL0     C69565  10.462   5.913   9.902  0.4820 -0.0871 -0.0387
  505MOL0     C69566  10.560   5.794   9.875 -0.1156 -0.3893 -0.3803
  505MOL0     C69567  10.681   5.843   9.781  0.4786 -0.5387 -0.0767
  505MOL0     C69568  10.763   5.944   9.860 -0.5463 -0.1997  0.4307
  505MOL0     N69569  10.904   5.952   9.820  0.3679 -0.4984 -0.0638
  505MOL0     C69570  10.959   6.040   9.727 -0.3446 -0.1308 -1.2890
  505MOL0     C69571  11.095   6.031   9.733  1.2302 -0.3927 -0.0113
  505MOL0     C69572  11.208   6.105   9.651  0.8089 -0.1206  0.3195
  505MOL0     C69573  11.212   6.046   9.503  0.1523 -0.1875 -1.1596
  505MOL0     C69574  11.093   6.097   9.426 -0.8773  0.6310  0.9414
  505MOL0     C69575  11.082   6.040   9.283  0.7754  0.2822  0.0784
  505MOL0     O69576  11.118   5.903   9.269 -0.5918 -0.4755 -0.2881
  505MOL0     C69577  11.037   5.797   9.292 -0.3034 -0.2338  0.0581
  505MOL0     C69578  11.084   5.669   9.244  0.1526 -0.2155 -0.0667
  505MOL0     C69579  11.007   5.554   9.285  0.2146 -0.3124  0.2937
  505MOL0     C69580  11.060   5.419   9.223 -0.8202  0.4579  0.2609
  505MOL0     C69581  10.890   5.568   9.359  0.7498 -0.0701 -0.4392
  505MOL0     C69582  10.810   5.440   9.406 -0.0543  0.3067  0.7723
  505MOL0     O69583  10.828   5.322   9.331 -0.0330  0.1470 -0.1627
  505MOL0     C69584  10.729   5.231   9.327 -0.3393 -0.4492 -0.6406
  505MOL0     C69585  10.706   5.129   9.419 -0.3217  0.3787 -0.5453
  505MOL0     C69586  10.596   5.047   9.414  1.2660 -0.2207 -0.1130
  505MOL0     C69587  10.501   5.055   9.303 -1.4870 -0.3945 -1.1073
  505MOL0     O69588  10.396   4.971   9.305 -1.2038 -0.6604 -0.1565
  505MOL0     C69589  10.325   4.940   9.193 -0.2606  1.1036  1.3104
  505MOL0     C69590  10.182   4.881   9.220 -0.4362 -0.5404 -0.5010
  505MOL0     C69591  10.097   4.810   9.110 -1.2953 -0.5983 -0.4913
  505MOL0     C69592  10.085   4.890   8.981 -0.0141  0.8913 -0.9281
  505MOL0     C69593  10.005   5.027   8.983  1.0117  0.1670 -0.6370
  505MOL0     C69594  10.032   5.113   8.865  0.0181 -0.2697  0.0316
  505MOL0     C69595   9.982   5.260   8.893 -0.6349  0.4759 -1.3190
  505MOL0     C69596  10.010   5.358   8.786 -0.3281 -0.4761  0.1608
  505MOL0    Cl69597   9.963   5.295   8.612 -0.3715  0.9307  0.7213
  505MOL0     C69598  10.536   5.152   9.208 -0.1841  0.2149  0.0275
  505MOL0     C69599  10.640   5.245   9.216  0.2142  0.3263 -0.0908
  505MOL0     O69600  10.728   5.461   9.493 -0.8549  0.4838 -0.9392
  505MOL0     C69601  10.847   5.699   9.400 -0.3489 -0.2380  0.7521
  505MOL0     C69602  10.917   5.814   9.368 -0.3328 -0.2145  0.6531
  505MOL0     N69603  11.122   5.936   9.831  0.6777  0.4622  0.6232
  505MOL0     N69604  11.009   5.883   9.878 -0.1634 -0.7444  0.3345
  505MOL0     C69605  10.252   6.083  10.540 -0.9881 -0.4192  0.1070
  505MOL0     C69606  10.177   6.201  10.579 -0.5820  0.7733 -0.4114
  505MOL0     C69607   9.816   6.396  10.798 -0.2310  0.6076  0.2842
  505MOL0     C69608   9.816   6.435  10.939 -0.5597  0.6076  1.3642
  505MOL0     C69609   9.703   6.490  11.000  1.5538  1.0179  0.8959
  505MOL0     C69610   9.582   6.507  10.925 -0.2466 -0.2843  0.8643
  505MOL0     O69611   9.486   6.575  10.994 -0.2662 -0.4984  0.4425
  505MOL0     C69612   9.377   6.631  10.919  0.4116 -0.1755  0.2770
  505MOL0     C69613   9.271   6.692  11.016 -0.7833  0.4090 -1.4279
  505MOL0     C69614   9.333   6.800  11.106  0.2097 -0.2438 -0.7281
  505MOL0     C69615   9.253   6.839  11.223 -0.1862 -0.6101 -0.3400
  505MOL0     C69616   9.342   6.919  11.291 -0.5580  0.3769  0.4418
  505MOL0     C69617   9.410   7.009  11.337  0.5855  0.1179 -0.7433
  505MOL0     C69618   9.583   6.463  10.792  0.5354  0.4142  0.7325
  505MOL0     C69619   9.696   6.404  10.729 -0.6410 -0.1577 -0.2939
  505MOL0     C69620   9.698   6.364  10.592 -0.3643 -0.4062  0.0026
  505MOL0     H69621   9.870   6.101  10.483 -0.2391 -2.2133  2.1861
  505MOL0     H69622   9.978   5.902  10.435  3.0506 -1.6349 -0.0680
  505MOL0     H69623  10.346   5.728  10.357 -1.6250 -0.2399 -0.7164
  505MOL0     H69624  10.431   5.873  10.414  1.7159 -0.6598 -2.2019
  505MOL0     H69625  10.199   5.844  10.218  0.7397 -0.4727 -1.1492
  505MOL0     H69626  10.278   6.000  10.258 -1.6635  0.1081  2.1299
  505MOL0     H69627  10.504   5.908  10.164 -0.7737  0.1745  1.2741
  505MOL0     H69628  10.435   5.758  10.144  1.0632  0.1755 -2.1424
  505MOL0     H69629  10.295   5.805   9.971 -0.6652 -0.2953  2.0892
  505MOL0     H69630  10.291   5.975  10.007 -0.4241 -1.6068 -0.7101
  505MOL0     H69631  10.508   6.006   9.936 -0.4420 -0.0336  1.1498
  505MOL0     H69632  10.412   5.942   9.809  1.2802  3.8324  0.5749
  505MOL0     H69633  10.603   5.757   9.969  0.6184 -2.0538 -1.3276
  505MOL0     H69634  10.507   5.719   9.816 -0.1736  0.5373 -1.5396
  505MOL0     H69635  10.638   5.900   9.698  1.0596  0.0130 -0.0093
  505MOL0     H69636  10.736   5.761   9.734  0.1160  1.0580 -3.6792
  505MOL0     H69637  10.719   6.042   9.836  0.1446 -0.5706 -2.8864
  505MOL0     H69638  10.748   5.904   9.961 -2.4941 -0.4700  0.0845
  505MOL0     H69639  10.912   6.117   9.666 -0.1049  0.3681 -0.8512
  505MOL0     H69640  11.308   6.114   9.693  1.8500  1.0008 -2.1900
  505MOL0     H69641  11.171   6.207   9.639  1.0168 -0.3502 -3.0965
  505MOL0     H69642  11.303   6.082   9.456  2.0604 -1.4111  1.3495
  505MOL0     H69643  11.200   5.938   9.520  1.7420 -0.2350 -0.1004
  505MOL0     H69644  11.002   6.064   9.476  0.0779 -2.3663  0.9601
  505MOL0     H69645  11.086   6.205   9.418 -1.3295  0.5359  0.0547
  505MOL0     H69646  10.983   6.052   9.238  0.8831 -0.2652 -0.3112
  505MOL0     H69647  11.153   6.093   9.219 -0.7111  1.4327 -0.6947
  505MOL0     H69648  11.183   5.654   9.202 -0.7387 -5.0333 -1.0703
  505MOL0     H69649  10.986   5.387   9.148 -1.3169 -0.6623  1.1987
  505MOL0     H69650  11.070   5.346   9.304 -2.0278  0.2969  0.2781
  505MOL0     H69651  11.159   5.431   9.177 -1.4882 -0.8063 -1.6469
  505MOL0     H69652  10.772   5.117   9.504 -0.2233 -4.8731 -1.0323
  505MOL0     H69653  10.575   4.971   9.489 -1.1065  0.1886 -0.3040
  505MOL0     H69654  10.300   5.026   9.130 -1.5131 -0.3079 -0.2215
  505MOL0     H69655  10.393   4.873   9.138  1.6250  2.3120  2.0774
  505MOL0     H69656  10.195   4.808   9.300 -2.6414 -0.6096 -0.1522
  505MOL0     H69657  10.123   4.967   9.253 -2.4011 -1.0829 -2.3605
  505MOL0     H69658  10.001   4.799   9.163 -0.3893 -0.5022  1.2518
  505MOL0     H69659  10.138   4.713   9.080 -2.5672 -0.3450 -3.3569
  505MOL0     H69660  10.054   4.817   8.905 -1.3358 -2.3142  2.4218
  505MOL0     H69661  10.186   4.919   8.951  0.9623  0.2206  1.5111
  505MOL0     H69662   9.898   5.014   9.002  1.2246  0.9992  1.3716
  505MOL0     H69663  10.039   5.074   9.076  3.8130 -2.5412 -0.1344
  505MOL0     H69664   9.974   5.079   8.779 -2.9967  1.5281  1.2135
  505MOL0     H69665  10.140   5.127   8.856  0.2152  2.3482  3.8869
  505MOL0     H69666  10.018   5.287   8.993 -1.2300 -0.0615 -0.9486
  505MOL0     H69667   9.876   5.245   8.916  0.1251 -2.1199  1.0007
  505MOL0     H69668  10.111   5.401   8.792 -0.7703  0.3398  3.5526
  505MOL0     H69669   9.939   5.439   8.805 -0.0812 -0.2187 -0.0198
  505MOL0     H69670  10.469   5.156   9.122 -0.3183 -0.9796  0.0487
  505MOL0     H69671  10.648   5.322   9.140 -1.1814 -0.3947 -1.0191
  505MOL0     H69672  10.748   5.697   9.447 -0.7641  4.2748  0.4632
  505MOL0     H69673  10.876   5.911   9.397 -0.7275 -0.5309  1.1627
  505MOL0     H69674  10.360   6.079  10.547 -0.8930  0.0463 -0.8676
  505MOL0     H69675  10.233   6.281  10.626 -0.5304  0.3458  0.2627
  505MOL0     H69676   9.906   6.416  10.997  0.8717  0.1172 -0.9151
  505MOL0     H69677   9.696   6.516  11.105  2.0562 -1.1469  1.5312
  505MOL0     H69678   9.413   6.694  10.837  1.1786 -1.1178 -0.1307
  505MOL0     H69679   9.325   6.549  10.868  1.6408  0.8287 -2.7947
  505MOL0     H69680   9.222   6.611  11.070 -0.6545  2.4816  2.1136
  505MOL0     H69681   9.194   6.741  10.955 -0.7408  0.3170 -1.5563
  505MOL0     H69682   9.440   6.778  11.119  0.1828 -0.7064 -1.2280
  505MOL0     H69683   9.341   6.886  11.039  2.4505 -0.2431 -0.5545
  505MOL0     H69684   9.232   6.748  11.281 -2.3673  0.0912  0.0452
  505MOL0     H69685   9.163   6.898  11.206 -0.0363 -0.5711 -1.0292
  505MOL0     H69686   9.469   7.086  11.382  1.6454 -0.6292 -0.8328
  505MOL0     H69687   9.499   6.473  10.724  0.1194 -2.9018  0.5735
  505MOL0     H69688   9.762   6.419  10.523  1.7634 -0.4154  1.8565
  505MOL0     H69689   9.712   6.258  10.567  1.6642  0.1458 -1.4659
  505MOL0     H69690   9.595   6.364  10.554 -0.7958 -3.8840  0.8104
  506MOL0     O69691   6.667   1.457   0.836 -0.3436 -0.8115 -0.4396
  506MOL0     C69692   6.750   1.554   0.837 -0.3553 -0.4146  0.3686
  506MOL0     O69693   6.719   1.679   0.791 -0.3753  0.2038 -1.2768
  506MOL0     C69694   6.591   1.697   0.732 -0.4545  0.5038 -0.5261
  506MOL0     C69695   6.482   1.750   0.814 -0.1094 -0.8374 -1.0066
  506MOL0     C69696   6.349   1.731   0.769 -0.2973 -0.3978 -0.0622
  506MOL0     C69697   6.320   1.681   0.637  0.1832 -0.2283  0.2659
  506MOL0     O69698   6.194   1.646   0.581 -0.0589  0.0019 -0.6642
  506MOL0     C69699   6.077   1.643   0.665  0.2732 -0.0555 -0.7668
  506MOL0     C69700   5.958   1.582   0.579 -0.1802 -0.3891 -0.0811
  506MOL0     C69701   5.825   1.605   0.650 -0.5125 -0.8091 -0.3779
  506MOL0     C69702   5.716   1.513   0.593 -0.4578 -0.1970  1.0505
  506MOL0     C69703   5.692   1.372   0.624 -0.2093 -0.4653 -0.6621
  506MOL0     C69704   5.729   1.346   0.770  0.4024 -0.6411  0.0551
  506MOL0     C69705   5.634   1.430   0.867 -0.6229  0.5833  0.0482
  506MOL0     C69706   5.643   1.379   1.013  0.0362  0.3374 -0.3103
  506MOL0     N69707   5.577   1.482   1.104  0.9912 -0.6890 -0.4034
  506MOL0     C69708   5.459   1.448   1.162 -0.2909  0.3299 -0.1701
  506MOL0     C69709   5.414   1.562   1.221 -0.6951  1.4310  0.5179
  506MOL0     C69710   5.275   1.591   1.283  0.3600 -0.4377  0.1125
  506MOL0     C69711   5.162   1.633   1.179  0.1300  0.3519 -0.5914
  506MOL0     C69712   5.064   1.728   1.254  0.2066 -0.0940 -0.6146
  506MOL0     C69713   4.971   1.802   1.150 -0.3333  0.4540 -0.2670
  506MOL0     O69714   4.912   1.698   1.062 -1.2780  0.1414 -0.7423
  506MOL0     C69715   4.840   1.736   0.958  0.4432  0.7429 -0.1021
  506MOL0     C69716   4.764   1.630   0.915  0.6580  0.6536 -1.1668
  506MOL0     C69717   4.668   1.643   0.817  0.7365  1.1944 -1.4586
  506MOL0     C69718   4.602   1.509   0.776  0.2504 -0.4759 -0.7358
  506MOL0     C69719   4.637   1.768   0.760 -0.5608 -0.5956 -0.7674
  506MOL0     C69720   4.537   1.806   0.672 -0.4694  0.0385 -0.6968
  506MOL0     O69721   4.534   1.937   0.627  0.4181 -0.3747  0.7031
  506MOL0     C69722   4.418   1.971   0.556 -0.0859  0.3606 -0.7419
  506MOL0     C69723   4.430   2.024   0.429 -0.5329 -0.0827  0.0233
  506MOL0     C69724   4.313   2.065   0.365 -0.3815  0.1937  0.4663
  506MOL0     C69725   4.181   2.046   0.407 -0.7911 -0.1435 -0.6722
  506MOL0     O69726   4.070   2.087   0.337  0.8248 -0.5380 -0.2049
  506MOL0     C69727   3.940   2.093   0.408 -0.1221 -0.1621 -0.4161
  506MOL0     C69728   3.835   2.153   0.319 -0.6182 -0.4356  0.2616
  506MOL0     C69729   3.848   2.309   0.313  0.3060 -0.8125  0.0836
  506MOL0     C69730   3.715   2.361   0.256 -1.2465 -0.5766  0.1769
  506MOL0     C69731   3.719   2.516   0.261  0.5482  0.0863  0.0074
  506MOL0     C69732   3.589   2.564   0.198  0.2282 -0.1560 -0.0907
  506MOL0     C69733   3.564   2.720   0.215  0.6033 -0.6637  0.6828
  506MOL0     C69734   3.454   2.764   0.116 -0.0702  0.0173 -0.9476
  506MOL0    Cl69735   3.404   2.930   0.125  0.5018  0.0839  0.0502
  506MOL0     C69736   4.175   1.963   0.527 -0.0346  0.0110  0.1019
  506MOL0     C69737   4.288   1.929   0.601 -0.5902  0.9203  0.3129
  506MOL0     O69738   4.465   1.716   0.639  0.2195 -0.0833 -0.1347
  506MOL0     C69739   4.727   1.873   0.806 -0.7488  0.1869  0.4392
  506MOL0     C69740   4.834   1.856   0.894 -0.4729 -0.1397 -0.2518
  506MOL0     N69741   5.504   1.667   1.182  0.9648  0.4053 -0.9881
  506MOL0     N69742   5.598   1.619   1.110  0.2581  0.7461 -0.5148
  506MOL0     C69743   6.435   1.641   0.563  1.0414  0.6175 -0.2484
  506MOL0     C69744   6.568   1.651   0.602  0.5961  0.4370 -0.1914
  506MOL0     C69745   6.888   1.561   0.901 -0.9472  0.2440  0.4775
  506MOL0     C69746   6.952   1.692   0.908 -0.8044 -0.1532  0.0757
  506MOL0     C69747   7.062   1.705   0.991  0.1861  0.1860  0.8207
  506MOL0     C69748   7.107   1.599   1.068  0.3454  0.5489  0.1542
  506MOL0     O69749   7.211   1.627   1.150 -0.3850 -0.0069  0.7475
  506MOL0     C69750   7.269   1.511   1.228 -0.2874 -0.6159  0.0750
  506MOL0     C69751   7.201   1.464   1.344  0.2723  0.3095 -0.5447
  506MOL0     C69752   7.180   1.556   1.459  0.5791  0.5715  0.2232
  506MOL0     C69753   7.099   1.497   1.579 -0.2982 -0.8243 -1.6137
  506MOL0     C69754   7.117   1.580   1.701 -0.6859 -0.4130  0.4776
  506MOL0     C69755   7.130   1.635   1.804 -0.2805 -0.3119  0.4500
  506MOL0     C69756   7.054   1.472   1.049  1.1358  0.1018 -0.0990
  506MOL0     C69757   6.938   1.455   0.967 -0.4579  0.0981 -0.0244
  506MOL0     C69758   6.882   1.314   0.969  0.0273  0.4425  0.7547
  506MOL0     H69759   6.503   1.788   0.913 -0.0168  1.4457 -1.8316
  506MOL0     H69760   6.269   1.761   0.836  0.0874 -0.3584  0.3800
  506MOL0     H69761   6.046   1.745   0.689  0.2957 -0.6648  2.1673
  506MOL0     H69762   6.088   1.579   0.753 -1.1620  2.2249  1.1738
  506MOL0     H69763   5.954   1.629   0.481  2.9781 -2.5790 -1.4251
  506MOL0     H69764   5.971   1.475   0.559 -0.5578 -0.5577  0.5578
  506MOL0     H69765   5.840   1.589   0.757  1.6512  1.9768 -0.1303
  506MOL0     H69766   5.780   1.703   0.635 -2.2083 -1.3610  0.8465
  506MOL0     H69767   5.628   1.556   0.642 -0.8846 -2.1062  2.0779
  506MOL0     H69768   5.700   1.530   0.486 -3.4244  0.8706  1.5905
  506MOL0     H69769   5.753   1.297   0.573  0.9159 -0.3737  0.4811
  506MOL0     H69770   5.591   1.351   0.587  0.4045 -3.2180 -1.0225
  506MOL0     H69771   5.703   1.242   0.795  2.0009 -1.1312 -0.1792
  506MOL0     H69772   5.835   1.359   0.795 -0.0098 -0.0239  1.6167
  506MOL0     H69773   5.529   1.434   0.836 -0.9681 -1.2754  0.8171
  506MOL0     H69774   5.678   1.530   0.875  1.8595 -0.3564 -0.8932
  506MOL0     H69775   5.594   1.282   1.020 -0.6640  0.7590  0.9595
  506MOL0     H69776   5.749   1.358   1.033 -0.8571 -1.3957  3.3706
  506MOL0     H69777   5.403   1.355   1.160 -2.3053  1.4034  1.5314
  506MOL0     H69778   5.294   1.676   1.350  2.4776 -0.4554 -0.3807
  506MOL0     H69779   5.244   1.507   1.346  0.5806 -1.1978 -0.7687
  506MOL0     H69780   5.206   1.688   1.095 -1.2893  2.2861 -0.1268
  506MOL0     H69781   5.112   1.540   1.149  3.0738 -2.4907  2.4263
  506MOL0     H69782   5.005   1.665   1.320  1.0450  0.3408  0.5796
  506MOL0     H69783   5.114   1.802   1.317  1.1392 -0.0862 -1.3430
  506MOL0     H69784   4.895   1.857   1.206  0.2135  1.2201 -0.2615
  506MOL0     H69785   5.024   1.875   1.089  2.2343 -2.6109 -2.0395
  506MOL0     H69786   4.793   1.533   0.954 -1.8648  1.0529  2.1751
  506MOL0     H69787   4.648   1.425   0.828  1.0092  0.3248 -0.0796
  506MOL0     H69788   4.609   1.501   0.667  2.6275  1.0943 -0.7820
  506MOL0     H69789   4.497   1.505   0.805  1.3040 -1.6871  3.6464
  506MOL0     H69790   4.524   2.044   0.379 -1.1080 -0.6341 -1.3364
  506MOL0     H69791   4.328   2.110   0.268  0.6708 -2.1053 -0.5279
  506MOL0     H69792   3.902   1.998   0.445  3.2595 -2.2189 -1.7418
  506MOL0     H69793   3.951   2.150   0.500  0.6418 -0.5844 -0.2309
  506MOL0     H69794   3.839   2.111   0.218 -2.6522 -0.9441  0.3616
  506MOL0     H69795   3.739   2.129   0.365 -0.2522 -2.0304  0.2666
  506MOL0     H69796   3.941   2.336   0.261  0.2135 -2.4014 -0.9545
  506MOL0     H69797   3.840   2.343   0.417 -4.1282  0.8079 -0.6070
  506MOL0     H69798   3.630   2.322   0.313 -3.0627  4.1665  1.2145
  506MOL0     H69799   3.715   2.335   0.149  6.3219 -0.3643 -0.3702
  506MOL0     H69800   3.724   2.562   0.360  0.5319  2.8468 -1.1923
  506MOL0     H69801   3.811   2.554   0.216  0.6442 -0.2418 -0.0761
  506MOL0     H69802   3.500   2.515   0.240 -1.3876  0.4788 -2.5317
  506MOL0     H69803   3.587   2.535   0.093 -0.0102 -3.5180  0.7075
  506MOL0     H69804   3.657   2.776   0.205 -1.4492  2.9524  0.3081
  506MOL0     H69805   3.543   2.746   0.319  3.1174 -1.4801  1.4515
  506MOL0     H69806   3.366   2.703   0.137 -0.0747 -0.4655 -2.3054
  506MOL0     H69807   3.469   2.744   0.010  1.0621 -0.3038 -0.7402
  506MOL0     H69808   4.079   1.922   0.555  0.8893 -3.4145 -1.1492
  506MOL0     H69809   4.289   1.884   0.700 -1.1361  1.3294  0.5155
  506MOL0     H69810   4.725   1.976   0.772 -2.7704  0.8912  2.4598
  506MOL0     H69811   4.896   1.933   0.939  0.4262  0.0783 -1.7795
  506MOL0     H69812   6.420   1.598   0.464  2.0375 -1.2420  0.3563
  506MOL0     H69813   6.652   1.618   0.542 -2.3191  0.2850 -4.6161
  506MOL0     H69814   6.930   1.767   0.833  1.2380  0.3619 -0.0687
  506MOL0     H69815   7.114   1.801   0.994  1.3474 -0.2969  5.6315
  506MOL0     H69816   7.282   1.432   1.153 -0.8151  1.0120 -1.8304
  506MOL0     H69817   7.372   1.527   1.262 -0.2709 -1.2714  0.3459
  506MOL0     H69818   7.256   1.376   1.379 -0.7638 -0.3690 -0.5551
  506MOL0     H69819   7.101   1.429   1.316  0.7036 -0.3292 -1.3254
  506MOL0     H69820   7.282   1.591   1.477  0.4308  0.7598  0.7141
  506MOL0     H69821   7.119   1.637   1.418 -3.9033 -3.7164 -2.5379
  506MOL0     H69822   7.140   1.397   1.598  1.2619 -0.3581 -2.3607
  506MOL0     H69823   6.992   1.492   1.558 -0.9512 -0.4303  1.2133
  506MOL0     H69824   7.130   1.723   1.864  0.7729  1.4984 -2.0326
  506MOL0     H69825   7.083   1.383   1.105 -1.8462 -0.8551  0.1237
  506MOL0     H69826   6.882   1.257   0.876 -2.6901 -0.9422  1.4933
  506MOL0     H69827   6.934   1.248   1.039  1.8987  0.7649 -0.2729
  506MOL0     H69828   6.777   1.324   1.000 -0.4044 -3.1544  0.8497
  507MOL0     O69829   4.742   9.254   8.025  0.6241 -0.5258 -0.4145
  507MOL0     C69830   4.715   9.291   7.909  0.6825  0.2607 -0.6202
  507MOL0     O69831   4.597   9.304   7.860 -0.0345  0.3700 -0.5570
  507MOL0     C69832   4.493   9.349   7.945 -0.1386  1.1438  1.0704
  507MOL0     C69833   4.504   9.474   8.012 -0.4423 -0.6953  1.3827
  507MOL0     C69834   4.398   9.515   8.100 -0.0710 -0.5802 -0.1663
  507MOL0     C69835   4.290   9.431   8.114  0.4436  0.5373  0.1963
  507MOL0     O69836   4.189   9.459   8.206  0.1854  0.6834  0.2323
  507MOL0     C69837   4.152   9.350   8.290  0.8586  0.0137  0.0569
  507MOL0     C69838   4.084   9.388   8.415  0.3767 -0.2309 -1.2232
  507MOL0     C69839   3.931   9.415   8.412  0.1926  0.2207  0.5248
  507MOL0     C69840   3.872   9.452   8.550  0.3278  1.1449 -0.3940
  507MOL0     C69841   3.721   9.433   8.543  0.3210  0.7128  0.1052
  507MOL0     C69842   3.652   9.513   8.428 -0.2903 -0.4354  0.6319
  507MOL0     C69843   3.683   9.667   8.429  0.3322  0.2775  0.2145
  507MOL0     C69844   3.585   9.762   8.353 -0.0719 -0.7222 -0.8570
  507MOL0     N69845   3.542   9.704   8.225  0.6362  0.5586 -0.4313
  507MOL0     C69846   3.430   9.632   8.206  0.8232 -0.9703  0.1057
  507MOL0     C69847   3.440   9.609   8.065 -0.3543 -0.0790 -0.2439
  507MOL0     C69848   3.343   9.518   7.992  0.1442  0.3085 -0.6848
  507MOL0     C69849   3.250   9.605   7.909  0.6570  0.0498  0.0690
  507MOL0     C69850   3.132   9.528   7.861 -0.1456  1.9632  0.9428
  507MOL0     C69851   3.160   9.423   7.752  0.2395 -0.0031 -0.5103
  507MOL0     O69852   3.153   9.481   7.617  0.0040  0.8656  0.4887
  507MOL0     C69853   3.079   9.419   7.517  0.1901 -1.1023  0.2192
  507MOL0     C69854   3.067   9.506   7.409 -0.2059  0.4084  0.1049
  507MOL0     C69855   2.998   9.464   7.287  0.3358 -0.0548 -1.1424
  507MOL0     C69856   2.985   9.556   7.170 -0.4284 -0.6758  0.3348
  507MOL0     C69857   2.940   9.330   7.279 -0.9586 -0.7355  0.1812
  507MOL0     C69858   2.856   9.272   7.175  0.3033  0.8965  0.8330
  507MOL0     O69859   2.843   9.131   7.184 -0.2334  0.1877 -0.0169
  507MOL0     C69860   2.811   9.050   7.076  0.8526 -0.9869 -0.3772
  507MOL0     C69861   2.752   8.927   7.091  0.4999 -0.4386  0.6234
  507MOL0     C69862   2.728   8.835   6.982  0.8299 -0.3068  0.2752
  507MOL0     C69863   2.744   8.879   6.850 -0.1474  0.3635  0.1754
  507MOL0     O69864   2.722   8.818   6.731  1.0894 -0.2269 -0.1273
  507MOL0     C69865   2.638   8.699   6.733 -0.1751 -0.1696 -0.0394
  507MOL0     C69866   2.645   8.640   6.601 -0.2363  0.2545  0.3738
  507MOL0     C69867   2.796   8.587   6.585  0.1354 -0.2759 -0.6429
  507MOL0     C69868   2.817   8.449   6.518  0.5978  0.3792  0.2780
  507MOL0     C69869   2.947   8.383   6.556  0.1060 -0.1819  0.0414
  507MOL0     C69870   2.938   8.327   6.703  1.3406  0.1500  0.1000
  507MOL0     C69871   3.074   8.254   6.738  0.8002 -0.5695  0.8921
  507MOL0     C69872   3.044   8.135   6.832  0.3009 -0.9464 -0.2671
  507MOL0    Cl69873   3.184   8.037   6.867  0.2863 -0.3372  0.2882
  507MOL0     C69874   2.810   8.998   6.838  0.6591 -0.1049  0.4173
  507MOL0     C69875   2.838   9.087   6.944  0.1006  0.0044  0.2362
  507MOL0     O69876   2.793   9.338   7.089 -0.0685 -0.0552  0.2499
  507MOL0     C69877   2.980   9.246   7.390  0.7645  0.5558 -1.1210
  507MOL0     C69878   3.049   9.286   7.509  0.0115  0.1523 -0.3040
  507MOL0     N69879   3.556   9.654   8.013  0.5920 -0.0959  0.0473
  507MOL0     N69880   3.619   9.709   8.111  0.6350  0.9736  0.0294
  507MOL0     C69881   4.289   9.304   8.049 -0.3260  0.1031  0.5302
  507MOL0     C69882   4.396   9.258   7.972 -0.2808  0.3051 -0.6879
  507MOL0     C69883   4.824   9.316   7.809  0.3012 -0.7415  0.9109
  507MOL0     C69884   4.795   9.363   7.675  0.1696  0.2794 -0.1219
  507MOL0     C69885   4.894   9.400   7.588  0.5946  0.1192 -0.3024
  507MOL0     C69886   5.026   9.383   7.619  0.1531  0.0079 -0.0678
  507MOL0     O69887   5.132   9.413   7.535 -0.1417  0.6985 -0.2591
  507MOL0     C69888   5.106   9.404   7.388  0.6258 -0.4008 -0.7037
  507MOL0     C69889   5.120   9.543   7.322 -0.2709  0.2686 -0.1499
  507MOL0     C69890   5.047   9.658   7.384 -0.2803  0.5645  0.1864
  507MOL0     C69891   5.087   9.801   7.336 -0.3274  0.8841 -0.2287
  507MOL0     C69892   5.026   9.821   7.204 -0.2362 -0.7803 -0.5841
  507MOL0     C69893   4.982   9.836   7.095 -0.2226 -0.3517  0.1772
  507MOL0     C69894   5.063   9.344   7.749  0.0610 -0.7856  0.2728
  507MOL0     C69895   4.966   9.312   7.841  0.9672  0.7527  0.4710
  507MOL0     C69896   5.027   9.257   7.973  0.4745 -0.7261 -0.3007
  507MOL0     H69897   4.593   9.534   7.994 -0.4201 -1.3057 -0.7118
  507MOL0     H69898   4.401   9.610   8.152  3.5534  0.0671 -1.3020
  507MOL0     H69899   4.237   9.288   8.320 -0.8827 -2.2739  0.5838
  507MOL0     H69900   4.086   9.280   8.239 -1.0881  1.5048  0.3766
  507MOL0     H69901   4.100   9.304   8.483 -0.2869 -0.5411 -1.4410
  507MOL0     H69902   4.145   9.474   8.443  3.1322 -2.0377 -1.3702
  507MOL0     H69903   3.907   9.504   8.352 -0.7651 -0.3246  0.0773
  507MOL0     H69904   3.888   9.324   8.368  0.7202  0.5193 -0.6591
  507MOL0     H69905   3.922   9.391   8.625 -1.2625 -1.3772 -1.2646
  507MOL0     H69906   3.906   9.555   8.564  1.0039  0.8934 -0.1378
  507MOL0     H69907   3.671   9.471   8.633 -1.0487 -0.0041 -0.3244
  507MOL0     H69908   3.708   9.325   8.534 -0.1887  0.8190 -0.5158
  507MOL0     H69909   3.667   9.468   8.330  1.8055  1.8597 -0.2097
  507MOL0     H69910   3.544   9.496   8.431 -0.8242  2.3290  0.1546
  507MOL0     H69911   3.781   9.684   8.385  0.0572  0.3926 -0.3619
  507MOL0     H69912   3.676   9.717   8.526 -0.5990 -1.1289  0.8987
  507MOL0     H69913   3.505   9.787   8.423  2.3736 -0.2853  1.9439
  507MOL0     H69914   3.642   9.851   8.324 -0.6304 -0.8302 -2.3856
  507MOL0     H69915   3.347   9.615   8.273 -1.8069  1.7854 -2.1324
  507MOL0     H69916   3.284   9.463   8.066 -0.8654 -0.6848 -2.1640
  507MOL0     H69917   3.390   9.436   7.936  0.9783 -1.8894  2.9005
  507MOL0     H69918   3.214   9.679   7.981 -1.7888  0.6978 -1.6885
  507MOL0     H69919   3.302   9.668   7.836 -2.7792  1.5271 -1.3526
  507MOL0     H69920   3.090   9.470   7.944  1.7895 -0.5220  0.2925
  507MOL0     H69921   3.051   9.597   7.836 -0.6499  0.7793 -0.8949
  507MOL0     H69922   3.262   9.388   7.772 -0.5727 -0.7781  2.7666
  507MOL0     H69923   3.095   9.336   7.762 -1.2672  0.7012 -3.1716
  507MOL0     H69924   3.112   9.604   7.421  3.0520 -0.9806  0.2796
  507MOL0     H69925   2.881   9.583   7.149 -1.1607 -4.5458 -1.9938
  507MOL0     H69926   3.038   9.514   7.084  1.3701  0.9466  0.5590
  507MOL0     H69927   3.046   9.643   7.197  0.4333 -0.2384 -2.6464
  507MOL0     H69928   2.726   8.893   7.191  0.9862 -1.3000  0.4666
  507MOL0     H69929   2.697   8.733   7.004  0.5742 -0.3917 -0.4621
  507MOL0     H69930   2.680   8.626   6.803 -2.8919 -2.9538 -1.0930
  507MOL0     H69931   2.532   8.712   6.757  0.2573  2.0465  0.9352
  507MOL0     H69932   2.571   8.560   6.602  3.0184 -3.0241  0.2940
  507MOL0     H69933   2.629   8.708   6.518  0.0323 -0.3640 -0.1891
  507MOL0     H69934   2.843   8.578   6.683 -4.3691  0.8274  1.9156
  507MOL0     H69935   2.857   8.658   6.529  2.1017  0.3189  2.0330
  507MOL0     H69936   2.825   8.456   6.410  0.5955 -1.9986  0.0876
  507MOL0     H69937   2.733   8.386   6.547  0.9456  0.2866  1.1253
  507MOL0     H69938   2.958   8.304   6.481 -1.6243  0.2941 -0.7670
  507MOL0     H69939   3.028   8.455   6.549  0.0839 -0.2719 -1.7778
  507MOL0     H69940   2.856   8.255   6.710  0.9296  0.3543 -1.9743
  507MOL0     H69941   2.918   8.403   6.779 -0.1214 -0.4661  0.3587
  507MOL0     H69942   3.138   8.322   6.795 -0.3370  0.4655  0.9878
  507MOL0     H69943   3.127   8.220   6.649 -0.3579 -0.5908  0.1897
  507MOL0     H69944   2.967   8.064   6.801 -0.5466  0.3261 -1.1944
  507MOL0     H69945   3.003   8.189   6.919  1.4632  1.2768 -1.0167
  507MOL0     H69946   2.835   9.036   6.740 -0.0754 -0.1130  0.2170
  507MOL0     H69947   2.876   9.184   6.914  0.3285 -0.1946 -0.1165
  507MOL0     H69948   2.958   9.140   7.382 -0.3338  0.8731 -2.8082
  507MOL0     H69949   3.072   9.215   7.588 -3.3838  0.2921  0.9635
  507MOL0     H69950   4.210   9.234   8.072 -0.1111 -0.6079 -0.8551
  507MOL0     H69951   4.399   9.156   7.935  0.4909  0.8159 -2.1482
  507MOL0     H69952   4.698   9.391   7.634  0.6508  0.8413 -0.8935
  507MOL0     H69953   4.861   9.438   7.492 -0.8369  1.5804  0.7090
  507MOL0     H69954   5.196   9.362   7.343  1.7193  0.7800  0.2776
  507MOL0     H69955   5.021   9.351   7.347  1.4321 -0.1919 -2.7501
  507MOL0     H69956   5.083   9.529   7.220 -0.2091  2.8154 -0.5725
  507MOL0     H69957   5.224   9.574   7.325 -0.8729  2.5014 -0.5528
  507MOL0     H69958   4.938   9.649   7.385 -0.1557 -1.5415 -0.4959
  507MOL0     H69959   5.076   9.658   7.489  2.3585 -2.4365 -0.3922
  507MOL0     H69960   5.193   9.823   7.320  0.0703  2.2906  3.3201
  507MOL0     H69961   5.045   9.869   7.411 -0.5195 -0.9508  1.4192
  507MOL0     H69962   4.963   9.833   6.989 -3.3865 -1.0529  0.6598
  507MOL0     H69963   5.163   9.343   7.789 -0.8378  0.4863  2.7212
  507MOL0     H69964   5.127   9.298   7.987 -0.8429  2.4060  0.7331
  507MOL0     H69965   4.964   9.293   8.054  0.7364 -1.0373  0.0458
  507MOL0     H69966   5.036   9.148   7.972  1.2064 -0.6713 -0.0212
  508MOL0     O69967   9.099   6.571   4.999  0.3102  0.7753  0.9657
  508MOL0     C69968   9.204   6.618   4.958  0.1837  0.2363  0.5455
  508MOL0     O69969   9.297   6.671   5.032  0.1525  0.1588  0.2209
  508MOL0     C69970   9.287   6.670   5.166 -1.3147  0.1514 -0.6196
  508MOL0     C69971   9.330   6.783   5.236  0.8331  0.5284 -0.3338
  508MOL0     C69972   9.355   6.776   5.374 -0.7292  1.0707 -0.3814
  508MOL0     C69973   9.334   6.651   5.442 -0.4459 -0.5029 -0.3253
  508MOL0     O69974   9.360   6.633   5.571  0.1210  0.2391 -0.7729
  508MOL0     C69975   9.396   6.742   5.651 -0.1565 -0.1988 -0.6410
  508MOL0     C69976   9.472   6.700   5.775 -0.3738  0.1308 -1.0031
  508MOL0     C69977   9.624   6.677   5.735  0.1481 -0.1523  0.6188
  508MOL0     C69978   9.710   6.666   5.870 -0.4053 -0.1881 -0.1480
  508MOL0     C69979   9.738   6.797   5.945 -0.8639  0.3407 -0.0970
  508MOL0     C69980   9.823   6.782   6.076 -0.2672  0.0578  0.4306
  508MOL0     C69981   9.860   6.917   6.140  0.0559 -0.6507 -0.3049
  508MOL0     C69982   9.979   6.990   6.062 -0.8272  0.4596 -0.0973
  508MOL0     N69983   9.948   7.133   6.046  0.0367 -0.4245  0.8284
  508MOL0     C69984  10.018   7.238   6.106  0.0833  0.6874 -0.3408
  508MOL0     C69985  10.018   7.339   6.021 -0.0952  0.3452 -0.6115
  508MOL0     C69986  10.105   7.461   6.043 -0.9785  0.3662  0.3620
  508MOL0     C69987  10.012   7.589   6.059  0.3986  0.0473 -0.7182
  508MOL0     C69988  10.087   7.724   6.041  0.3976 -0.5338 -1.4268
  508MOL0     C69989  10.147   7.794   6.167  0.0983  0.0560 -0.1654
  508MOL0     O69990  10.058   7.811   6.273 -0.1981  0.0366 -0.2400
  508MOL0     C69991  10.113   7.873   6.392 -0.4220 -0.5629  0.4751
  508MOL0     C69992  10.241   7.931   6.408 -0.6545 -0.8726  0.2225
  508MOL0     C69993  10.292   7.970   6.532  0.1595 -0.0726 -0.2491
  508MOL0     C69994  10.439   8.010   6.541  0.2377 -0.3373 -0.7884
  508MOL0     C69995  10.198   7.974   6.637 -0.6015 -0.7409 -0.3175
  508MOL0     C69996  10.232   8.032   6.770  0.5630  0.2616  0.0053
  508MOL0     O69997  10.345   7.973   6.833  0.9548  0.3918 -0.0922
  508MOL0     C69998  10.368   8.009   6.960 -0.5387 -0.4038 -0.2298
  508MOL0     C69999  10.427   8.135   6.981 -0.9283  0.6663 -0.7496
  508MOL0     C70000  10.431   8.182   7.114  0.2490 -0.6105 -0.2030
  508MOL0     C70001  10.392   8.105   7.221 -0.2898 -1.4783  0.1822
  508MOL0     O70002  10.406   8.153   7.347  0.1010 -0.0682  0.8790
  508MOL0     C70003  10.328   8.093   7.449 -0.3895 -0.1825  0.5450
  508MOL0     C70004  10.340   8.193   7.574  0.4682 -0.0289 -0.2645
  508MOL0     C70005  10.474   8.184   7.657  0.6622 -0.0707  0.0001
  508MOL0     C70006  10.495   8.318   7.738 -0.5143  0.0251 -0.4406
  508MOL0     C70007  10.631   8.323   7.811  0.3792  0.4327 -0.4130
  508MOL0     C70008  10.762   8.330   7.734  0.1044  1.0148  0.8185
  508MOL0     C70009  10.885   8.342   7.829  0.0967  0.7765 -0.2770
  508MOL0     C70010  10.969   8.211   7.828  0.4352 -0.1749  0.7240
  508MOL0    Cl70011  11.043   8.177   7.676 -0.5131 -0.2904  0.1188
  508MOL0     C70012  10.332   7.976   7.192  0.6638 -0.9545  0.8044
  508MOL0     C70013  10.325   7.934   7.065 -0.8234  0.1249 -0.1474
  508MOL0     O70014  10.161   8.118   6.820 -0.6659  0.5805  0.6113
  508MOL0     C70015  10.067   7.925   6.622 -0.8787  0.2331  1.1123
  508MOL0     C70016  10.028   7.874   6.498  0.7431 -0.0700 -1.2933
  508MOL0     N70017   9.958   7.291   5.902  0.3383 -0.3420  0.3036
  508MOL0     N70018   9.906   7.171   5.920 -0.0611 -0.6452  0.1751
  508MOL0     C70019   9.277   6.549   5.377  0.4171  0.9579  0.4498
  508MOL0     C70020   9.260   6.547   5.237  0.4808  0.3548 -0.1918
  508MOL0     C70021   9.228   6.608   4.812 -0.0533 -1.0588  0.4107
  508MOL0     C70022   9.194   6.490   4.745 -0.4586  0.8502  0.1286
  508MOL0     C70023   9.211   6.477   4.599 -0.0072 -0.0880  0.2691
  508MOL0     C70024   9.254   6.586   4.528 -0.3586  0.0843 -0.1184
  508MOL0     O70025   9.270   6.578   4.389 -0.0820  0.3087 -0.3829
  508MOL0     C70026   9.243   6.455   4.312 -0.1933 -0.1822 -0.5153
  508MOL0     C70027   9.299   6.463   4.176  0.3835 -0.5436  0.0907
  508MOL0     C70028   9.229   6.375   4.065 -0.4991  0.2960  0.3764
  508MOL0     C70029   9.315   6.371   3.944  0.6322  0.7652 -1.3800
  508MOL0     C70030   9.332   6.495   3.871  0.3775 -0.4446  0.0476
  508MOL0     C70031   9.341   6.600   3.812 -0.1310 -0.2960  1.1175
  508MOL0     C70032   9.287   6.700   4.595  0.1900 -0.5969 -0.5727
  508MOL0     C70033   9.284   6.707   4.731  0.4054  0.8441  0.0701
  508MOL0     C70034   9.327   6.840   4.795  0.8405 -0.4171  0.2978
  508MOL0     H70035   9.361   6.874   5.186 -0.1053  0.9353 -0.1895
  508MOL0     H70036   9.397   6.860   5.428  2.8353 -0.8465  0.1907
  508MOL0     H70037   9.306   6.795   5.682  1.1469  2.2863 -0.8091
  508MOL0     H70038   9.471   6.809   5.607  4.3107 -3.1198  1.7180
  508MOL0     H70039   9.475   6.779   5.850  0.7284 -0.4864 -0.3575
  508MOL0     H70040   9.431   6.609   5.819  2.9009  0.5718  3.6599
  508MOL0     H70041   9.627   6.583   5.679 -0.9455  0.0973  0.1157
  508MOL0     H70042   9.667   6.754   5.669  0.6893 -1.4001 -0.5385
  508MOL0     H70043   9.663   6.599   5.942 -0.1459  1.1802  1.3242
  508MOL0     H70044   9.802   6.615   5.839  0.1081 -0.5329  1.8218
  508MOL0     H70045   9.637   6.831   5.967 -1.9705 -1.6187 -1.8211
  508MOL0     H70046   9.778   6.880   5.886 -1.3524  1.2493  0.8283
  508MOL0     H70047   9.759   6.729   6.147 -5.4506  2.8048 -1.6556
  508MOL0     H70048   9.907   6.714   6.059  0.2137  0.8344 -0.3646
  508MOL0     H70049   9.894   6.907   6.244 -0.1735  3.7684  0.3685
  508MOL0     H70050   9.776   6.986   6.150  0.4687 -0.0989 -0.6090
  508MOL0     H70051  10.075   6.985   6.113 -1.1000  1.5922  0.5787
  508MOL0     H70052   9.995   6.940   5.966 -0.6465 -1.3115  0.8143
  508MOL0     H70053  10.080   7.230   6.195  0.4062  1.1943 -0.5077
  508MOL0     H70054  10.168   7.472   5.954  0.2321 -2.9632  0.6588
  508MOL0     H70055  10.169   7.450   6.131  1.7908 -3.4650 -1.7862
  508MOL0     H70056   9.937   7.595   5.980  0.1781  1.1249 -0.4462
  508MOL0     H70057   9.971   7.578   6.160  0.4300  1.3816 -0.5423
  508MOL0     H70058  10.159   7.710   5.961  0.7346  0.5386 -1.3311
  508MOL0     H70059  10.018   7.798   5.999  1.2785  1.0879 -0.1306
  508MOL0     H70060  10.228   7.730   6.201  0.5828  1.2902  1.1177
  508MOL0     H70061  10.197   7.887   6.137  1.1427 -0.8591 -1.3565
  508MOL0     H70062  10.300   7.931   6.317 -1.7758 -0.3912 -0.5243
  508MOL0     H70063  10.488   7.937   6.605 -0.4680 -0.1807 -0.0498
  508MOL0     H70064  10.450   8.110   6.584  4.4181 -2.2698  3.5547
  508MOL0     H70065  10.498   8.006   6.449  1.7182 -1.2124  0.1622
  508MOL0     H70066  10.464   8.189   6.895  0.1087  0.8932 -0.1653
  508MOL0     H70067  10.471   8.280   7.134  0.7247 -0.8513  0.0230
  508MOL0     H70068  10.223   8.085   7.419 -0.6632  1.5040  0.9201
  508MOL0     H70069  10.355   8.003   7.504 -0.8595  0.5079  1.9703
  508MOL0     H70070  10.329   8.294   7.533  2.1294  1.0608  1.7773
  508MOL0     H70071  10.257   8.171   7.640  1.7591 -0.7963  1.1652
  508MOL0     H70072  10.556   8.195   7.585 -0.6182  0.1288 -1.4773
  508MOL0     H70073  10.500   8.097   7.718 -0.0672 -1.5224 -1.6854
  508MOL0     H70074  10.418   8.323   7.816 -1.1067  2.1134 -1.0830
  508MOL0     H70075  10.484   8.411   7.680 -0.3676 -0.8153 -1.8431
  508MOL0     H70076  10.620   8.415   7.869 -4.1210  0.3013 -0.7074
  508MOL0     H70077  10.632   8.243   7.885  1.5983 -0.3426 -1.2215
  508MOL0     H70078  10.754   8.412   7.662 -1.0579  0.2857  0.0868
  508MOL0     H70079  10.781   8.233   7.686  1.2518  2.7642 -2.6434
  508MOL0     H70080  10.859   8.363   7.933  2.5554 -2.9427  1.2799
  508MOL0     H70081  10.944   8.431   7.805 -2.4489  3.0253  1.1546
  508MOL0     H70082  10.910   8.123   7.855  0.7852 -0.7336 -0.3067
  508MOL0     H70083  11.050   8.223   7.901 -0.3707 -2.0543  2.0182
  508MOL0     H70084  10.275   7.916   7.262 -3.4732  0.5969 -0.9149
  508MOL0     H70085  10.281   7.838   7.043 -0.3761 -0.0844 -0.1451
  508MOL0     H70086  10.001   7.910   6.707 -2.5358  2.4250  0.3225
  508MOL0     H70087   9.920   7.863   6.492  0.7206 -3.7684  1.9184
  508MOL0     H70088   9.236   6.464   5.432 -0.1430 -0.6925 -2.3367
  508MOL0     H70089   9.206   6.469   5.185 -0.9294  1.2842 -0.1834
  508MOL0     H70090   9.141   6.410   4.796  0.2321  1.4031  1.7866
  508MOL0     H70091   9.190   6.389   4.539  3.2963 -0.3769 -0.6434
  508MOL0     H70092   9.293   6.371   4.362 -0.5416 -0.6634 -0.9574
  508MOL0     H70093   9.136   6.433   4.317 -0.3193  0.5899  2.0936
  508MOL0     H70094   9.407   6.447   4.167  0.8297  2.4973 -1.1528
  508MOL0     H70095   9.281   6.568   4.150 -2.5489 -0.9664  0.1266
  508MOL0     H70096   9.217   6.269   4.088 -5.2471  0.4252 -0.4729
  508MOL0     H70097   9.126   6.408   4.047 -1.1685 -2.8485 -2.4958
  508MOL0     H70098   9.268   6.295   3.880  2.8067 -1.5919 -0.3648
  508MOL0     H70099   9.413   6.334   3.974  0.3566  0.1347 -1.2309
  508MOL0     H70100   9.366   6.683   3.750  1.2109  1.0518  3.3362
  508MOL0     H70101   9.329   6.776   4.529  1.1380  0.6783  1.4143
  508MOL0     H70102   9.398   6.809   4.873 -0.7133  0.0935  1.9941
  508MOL0     H70103   9.361   6.920   4.728  1.0647  1.9419  2.9834
  508MOL0     H70104   9.247   6.880   4.858  1.3017  1.3469 -0.1682
  509MOL0     O70105   8.389   7.827   1.690  0.4198 -0.1985  0.1621
  509MOL0     C70106   8.317   7.931   1.721 -0.0379 -0.0061  0.0994
  509MOL0     O70107   8.348   8.059   1.695 -0.3458  0.0582 -0.1470
  509MOL0     C70108   8.457   8.084   1.607 -0.9669  0.9059 -0.3699
  509MOL0     C70109   8.585   8.077   1.665 -0.4024 -0.3464  1.6072
  509MOL0     C70110   8.695   8.115   1.586  1.0394  0.8712 -0.6900
  509MOL0     C70111   8.677   8.163   1.460 -0.2098 -0.1449  0.5254
  509MOL0     O70112   8.790   8.202   1.396  0.1130 -1.0224 -0.3271
  509MOL0     C70113   8.886   8.301   1.444  0.5342  0.7508  0.4026
  509MOL0     C70114   8.918   8.408   1.339 -0.7048 -0.3645  0.8424
  509MOL0     C70115   8.904   8.373   1.191 -0.6813  0.3631 -0.5601
  509MOL0     C70116   8.929   8.489   1.096 -0.4717  0.8041  0.7982
  509MOL0     C70117   9.083   8.519   1.082 -0.9141  0.1988 -0.2810
  509MOL0     C70118   9.128   8.653   1.026 -0.7436  0.4867  0.3293
  509MOL0     C70119   9.249   8.701   1.105 -0.3424 -1.1013 -0.0793
  509MOL0     C70120   9.306   8.839   1.047  0.4978  0.5043 -0.3259
  509MOL0     N70121   9.384   8.826   0.914 -0.1526  0.8310 -0.3679
  509MOL0     C70122   9.430   8.939   0.865 -0.9254  0.4821  0.0484
  509MOL0     C70123   9.478   8.901   0.746  0.1440 -0.1794  0.1267
  509MOL0     C70124   9.566   8.985   0.649  0.3869 -0.1334 -0.2401
  509MOL0     C70125   9.486   9.091   0.564 -0.3729 -0.4043 -0.5190
  509MOL0     C70126   9.356   9.043   0.506  0.2810  0.2913 -0.1257
  509MOL0     C70127   9.324   9.152   0.399 -0.4788 -0.0294  0.1179
  509MOL0     O70128   9.400   9.130   0.275  0.7385 -0.3988 -0.1851
  509MOL0     C70129   9.379   9.221   0.175 -1.3801  0.2978  0.1721
  509MOL0     C70130   9.435   9.199   0.048 -0.0467 -0.0050  0.2434
  509MOL0     C70131   9.396   9.273  -0.064  0.6502 -0.8656  0.5839
  509MOL0     C70132   9.456   9.235  -0.194 -0.2184  0.6738 -0.6508
  509MOL0     C70133   9.302   9.377  -0.055  0.0735  1.0434 -0.2328
  509MOL0     C70134   9.264   9.473  -0.159  0.3950 -0.3417 -0.0207
  509MOL0     O70135   9.164   9.560  -0.125 -0.2501 -0.3017  0.3124
  509MOL0     C70136   9.157   9.661  -0.227 -0.0598  0.0242 -0.5638
  509MOL0     C70137   9.255   9.763  -0.228  0.4594  0.9753  0.6303
  509MOL0     C70138   9.236   9.875  -0.301 -0.3434 -0.0300  0.1617
  509MOL0     C70139   9.133   9.881  -0.390  0.7809 -0.3788 -0.5024
  509MOL0     O70140   9.113   9.983  -0.477  0.2974  0.3569 -0.8280
  509MOL0     C70141   9.174  10.112  -0.463  1.2957  1.1857  0.3560
  509MOL0     C70142   9.123  10.191  -0.579  0.7128  0.1208  0.9831
  509MOL0     C70143   8.992  10.258  -0.544 -0.0426  0.1751 -0.8050
  509MOL0     C70144   8.961  10.370  -0.651  0.0861  1.1337  0.5343
  509MOL0     C70145   8.933  10.291  -0.785 -0.4255  0.2704  0.0442
  509MOL0     C70146   8.878  10.384  -0.895  0.8169  0.1465  0.2601
  509MOL0     C70147   8.761  10.317  -0.978  0.1583 -0.3129 -0.1035
  509MOL0     C70148   8.709  10.408  -1.086 -0.0171  0.0655 -0.7309
  509MOL0    Cl70149   8.832  10.419  -1.206  0.2775  0.2407  0.1142
  509MOL0     C70150   9.038   9.781  -0.391 -0.3900 -0.5774  0.6768
  509MOL0     C70151   9.049   9.665  -0.309  0.2531  0.1607  0.5275
  509MOL0     O70152   9.325   9.468  -0.268  0.0460 -0.3061  0.1111
  509MOL0     C70153   9.250   9.400   0.072 -0.5027 -0.5474  0.2086
  509MOL0     C70154   9.287   9.327   0.179  0.1660 -0.0529  0.3290
  509MOL0     N70155   9.449   8.768   0.716  0.1865 -0.0908  0.2559
  509MOL0     N70156   9.379   8.724   0.821  1.3671  0.4935  0.0704
  509MOL0     C70157   8.550   8.164   1.401  0.2940 -0.7739  0.4750
  509MOL0     C70158   8.437   8.130   1.473 -0.7577  0.9851  0.4052
  509MOL0     C70159   8.188   7.920   1.779 -0.9267 -1.1615  0.6258
  509MOL0     C70160   8.164   7.809   1.839  0.1040  0.2944 -0.6335
  509MOL0     C70161   8.047   7.782   1.917 -0.0353 -0.2052 -0.1586
  509MOL0     C70162   7.935   7.870   1.909  2.0342 -0.2159 -0.4158
  509MOL0     O70163   7.815   7.863   1.974 -0.8993  0.5339  0.2701
  509MOL0     C70164   7.802   7.743   2.057 -0.0771  0.3281  0.0929
  509MOL0     C70165   7.656   7.732   2.123  0.4502 -0.2000  0.6645
  509MOL0     C70166   7.603   7.868   2.193 -0.9447 -0.0786  0.1901
  509MOL0     C70167   7.454   7.868   2.226 -0.0548  0.2572 -0.2638
  509MOL0     C70168   7.443   7.952   2.352  0.4362  0.6134  0.7889
  509MOL0     C70169   7.435   8.022   2.449  0.0645 -0.1783 -0.0463
  509MOL0     C70170   7.952   7.988   1.833 -0.2356  1.1228  0.0200
  509MOL0     C70171   8.076   8.016   1.759  0.6079  0.5300 -0.7125
  509MOL0     C70172   8.073   8.148   1.682 -0.6277 -0.4220 -0.0210
  509MOL0     H70173   8.600   8.033   1.763 -2.2256 -2.8819  0.8435
  509MOL0     H70174   8.797   8.106   1.623  1.0246  4.3822  0.5895
  509MOL0     H70175   8.974   8.249   1.484  0.4824  0.0783 -0.3252
  509MOL0     H70176   8.838   8.350   1.528 -3.1769  1.1401 -1.7198
  509MOL0     H70177   8.846   8.488   1.362 -0.2686  1.3685 -2.9479
  509MOL0     H70178   9.021   8.439   1.358 -0.9511 -1.1118  3.7585
  509MOL0     H70179   8.960   8.284   1.162 -1.8148  0.0359 -1.8599
  509MOL0     H70180   8.797   8.351   1.179 -2.1624  2.2564  5.5314
  509MOL0     H70181   8.895   8.472   0.993  1.1740  3.5143 -0.2979
  509MOL0     H70182   8.879   8.575   1.140  2.0536  3.0105 -0.3371
  509MOL0     H70183   9.125   8.435   1.026  2.5446  0.6934  1.3407
  509MOL0     H70184   9.119   8.515   1.185  0.9123  1.8832 -0.7874
  509MOL0     H70185   9.177   8.631   0.931  1.5546 -1.4902  1.8497
  509MOL0     H70186   9.046   8.722   1.003  0.8499  1.1855 -4.3130
  509MOL0     H70187   9.332   8.630   1.109  0.2842 -0.6902 -3.1579
  509MOL0     H70188   9.220   8.710   1.210 -0.5859  0.2407 -0.2472
  509MOL0     H70189   9.222   8.909   1.039 -0.8584 -1.2385 -3.3272
  509MOL0     H70190   9.371   8.881   1.123  1.6489  0.0376 -1.0198
  509MOL0     H70191   9.440   9.039   0.907  2.9230  1.0581 -1.7711
  509MOL0     H70192   9.611   8.913   0.580 -0.4556 -0.1236 -0.8162
  509MOL0     H70193   9.639   9.041   0.708 -1.3831  1.7567  0.2608
  509MOL0     H70194   9.473   9.190   0.608  2.6974  0.2319 -0.8469
  509MOL0     H70195   9.554   9.100   0.479  0.6200  0.9334  0.3742
  509MOL0     H70196   9.346   8.939   0.472  0.8049  0.4245 -0.7046
  509MOL0     H70197   9.281   9.052   0.585 -1.6669 -0.5900 -1.7735
  509MOL0     H70198   9.217   9.142   0.378  0.0086 -2.7234 -1.5246
  509MOL0     H70199   9.339   9.253   0.438 -1.1994 -0.1395  0.7061
  509MOL0     H70200   9.510   9.121   0.035 -2.1683 -1.7063 -3.4998
  509MOL0     H70201   9.531   9.156  -0.185  3.4261  3.6938 -1.9039
  509MOL0     H70202   9.517   9.305  -0.251  1.0837  1.0053  1.0788
  509MOL0     H70203   9.376   9.196  -0.257 -0.8185  0.9595 -0.0748
  509MOL0     H70204   9.338   9.749  -0.159 -0.5385 -0.9921  1.5116
  509MOL0     H70205   9.310   9.955  -0.298 -0.5955  0.2553  4.0805
  509MOL0     H70206   9.140  10.157  -0.369  0.1320  1.3846 -0.1410
  509MOL0     H70207   9.281  10.111  -0.481  0.7580 -1.5655 -4.1968
  509MOL0     H70208   9.201  10.264  -0.601 -0.0746  0.8598  0.6156
  509MOL0     H70209   9.107  10.125  -0.665  0.8022  0.9530  0.3173
  509MOL0     H70210   9.004  10.300  -0.444  1.2983  1.4457 -1.4661
  509MOL0     H70211   8.913  10.182  -0.540 -0.9695  0.8703 -3.6146
  509MOL0     H70212   9.047  10.437  -0.664 -1.2666  2.6951 -0.8472
  509MOL0     H70213   8.872  10.422  -0.616 -1.3121 -1.4269  1.0480
  509MOL0     H70214   9.015  10.231  -0.824 -1.2571  0.5684 -2.3349
  509MOL0     H70215   8.856  10.215  -0.767 -0.9930  0.1001 -2.5918
  509MOL0     H70216   8.961  10.409  -0.962  1.1573  3.4133  1.6764
  509MOL0     H70217   8.868  10.486  -0.857 -1.2519 -0.7105  2.2371
  509MOL0     H70218   8.681  10.280  -0.913 -0.0813 -0.0581 -0.2500
  509MOL0     H70219   8.794  10.226  -1.029  0.0509 -0.1581 -0.4541
  509MOL0     H70220   8.682  10.505  -1.042  2.1163  1.0644 -1.4959
  509MOL0     H70221   8.621  10.364  -1.134 -0.4649  1.5734 -1.3728
  509MOL0     H70222   8.954   9.794  -0.458  0.2900  1.3436  0.1051
  509MOL0     H70223   8.987   9.576  -0.308 -0.7331  0.8008  2.3861
  509MOL0     H70224   9.171   9.473   0.077  0.4173  0.8524 -2.9668
  509MOL0     H70225   9.248   9.369   0.272  2.8579  0.1125  1.4798
  509MOL0     H70226   8.532   8.191   1.298  2.4688 -1.5393 -0.1713
  509MOL0     H70227   8.334   8.133   1.439 -0.1522  1.9378 -1.5543
  509MOL0     H70228   8.242   7.734   1.847 -2.7020 -3.5256 -4.5878
  509MOL0     H70229   8.054   7.692   1.977 -1.5960  0.1379  0.5894
  509MOL0     H70230   7.824   7.653   1.999 -0.3089  1.0763 -1.2005
  509MOL0     H70231   7.867   7.764   2.142  0.7039  4.1433 -1.2423
  509MOL0     H70232   7.655   7.648   2.193 -1.9116  0.4063  1.4656
  509MOL0     H70233   7.581   7.709   2.047 -2.1147  1.1886  2.6088
  509MOL0     H70234   7.650   7.867   2.292 -0.8102 -3.3745  0.2247
  509MOL0     H70235   7.635   7.956   2.137  2.3869 -1.2777 -0.0270
  509MOL0     H70236   7.416   7.765   2.234 -0.8508  0.4770 -0.9420
  509MOL0     H70237   7.384   7.908   2.151 -1.6658  0.7891  1.4371
  509MOL0     H70238   7.434   8.083   2.537 -2.1422  2.9445 -2.0553
  509MOL0     H70239   7.875   8.065   1.839 -0.7583  0.7224 -1.3601
  509MOL0     H70240   8.096   8.137   1.575  2.1281  0.9031  0.3516
  509MOL0     H70241   7.982   8.207   1.689 -1.4726 -1.7401  0.4504
  509MOL0     H70242   8.162   8.196   1.725  1.7211 -1.6678 -3.0616
  510MOL0     O70243  11.191   8.348  10.350  0.4389  0.4855  0.1721
  510MOL0     C70244  11.094   8.330  10.428 -0.1533  0.1965 -0.2959
  510MOL0     O70245  11.013   8.215  10.424  0.3330 -0.0299 -0.0841
  510MOL0     C70246  11.042   8.111  10.344 -0.5278  0.1589  0.1357
  510MOL0     C70247  11.140   8.021  10.375  0.2032 -0.5961 -0.3198
  510MOL0     C70248  11.172   7.918  10.294  1.0310 -0.0985 -0.4188
  510MOL0     C70249  11.087   7.881  10.191 -0.2383 -1.0761  0.8290
  510MOL0     O70250  11.113   7.784  10.097  0.4977 -0.1816  0.0119
  510MOL0     C70251  11.187   7.670  10.148 -0.1743 -0.9191 -0.0201
  510MOL0     C70252  11.189   7.559  10.038 -0.3594 -1.0585 -0.0593
  510MOL0     C70253  11.293   7.562   9.939  0.7323 -0.1125  0.2647
  510MOL0     C70254  11.271   7.456   9.831  0.1366 -0.1570 -0.8487
  510MOL0     C70255  11.377   7.436   9.719  0.7825  0.0016 -0.1927
  510MOL0     C70256  11.521   7.402   9.762  0.0942  0.1662 -0.5226
  510MOL0     C70257  11.613   7.331   9.657  0.7030 -0.0906 -0.1623
  510MOL0     C70258  11.569   7.183   9.630  0.4259 -0.3799  0.4212
  510MOL0     N70259  11.672   7.134   9.539  0.2206  0.2517 -0.4291
  510MOL0     C70260  11.765   7.046   9.569 -0.1115  0.1156  0.3895
  510MOL0     C70261  11.857   7.070   9.465 -0.9425 -0.3946  0.5049
  510MOL0     C70262  11.995   7.000   9.464  0.2506 -0.4468  1.0206
  510MOL0     C70263  11.976   6.858   9.437  0.1553  0.1360  0.2541
  510MOL0     C70264  12.105   6.784   9.398  0.5161 -0.1817 -0.1935
  510MOL0     C70265  12.190   6.749   9.515 -1.0190  0.4596  0.0559
  510MOL0     O70266  12.243   6.870   9.578  0.0036  0.3288 -0.5162
  510MOL0     C70267  12.372   6.905   9.543 -0.9925  0.2097  1.5257
  510MOL0     C70268  12.470   6.809   9.534  0.5824 -0.1901 -0.1527
  510MOL0     C70269  12.597   6.841   9.482 -0.4533  0.2183  0.1611
  510MOL0     C70270  12.687   6.716   9.471  0.5334 -0.0987  0.0395
  510MOL0     C70271  12.626   6.973   9.452 -0.0818 -0.2112 -0.4965
  510MOL0     C70272  12.736   7.012   9.384 -0.0166  0.4762  0.7960
  510MOL0     O70273  12.724   7.088   9.266 -0.1639 -0.1876 -0.1857
  510MOL0     C70274  12.831   7.133   9.194 -0.2341  0.1413  0.1321
  510MOL0     C70275  12.862   7.077   9.071  0.0105  0.7683 -1.1446
  510MOL0     C70276  12.982   7.109   9.005  0.1044  0.1989 -0.2559
  510MOL0     C70277  13.048   7.225   9.027  0.6064  0.2025  0.6992
  510MOL0     O70278  13.136   7.281   8.936  0.3969  0.3849  0.2732
  510MOL0     C70279  13.266   7.224   8.918  0.2868  0.6229  0.6569
  510MOL0     C70280  13.352   7.303   8.810 -0.0666 -0.3032  0.0675
  510MOL0     C70281  13.360   7.453   8.835  0.1021  0.0113 -0.2626
  510MOL0     C70282  13.431   7.501   8.958  0.5567 -1.1275  0.2796
  510MOL0     C70283  13.422   7.651   8.990 -0.2077  0.5906  0.1031
  510MOL0     C70284  13.275   7.712   9.003  0.3192  0.2168  0.8888
  510MOL0     C70285  13.279   7.866   9.000 -0.1286 -0.1750  0.3428
  510MOL0     C70286  13.152   7.921   8.947  0.4758 -1.0729  0.2991
  510MOL0    Cl70287  13.179   7.961   8.780  0.1844  0.2538 -0.4461
  510MOL0     C70288  13.008   7.297   9.143 -0.9311  0.0982 -0.3533
  510MOL0     C70289  12.906   7.246   9.227  0.3144  0.5455  0.3161
  510MOL0     O70290  12.846   6.980   9.432 -0.0145  0.6385  0.6401
  510MOL0     C70291  12.526   7.074   9.467  0.1355 -0.6959  1.2202
  510MOL0     C70292  12.398   7.035   9.503  0.0823 -0.1046 -0.7241
  510MOL0     N70293  11.808   7.157   9.371 -0.1064  0.1592  0.6812
  510MOL0     N70294  11.699   7.197   9.421  0.4915 -0.3455 -0.2105
  510MOL0     C70295  10.984   7.969  10.164  0.5653  0.0727 -0.0229
  510MOL0     C70296  10.959   8.075  10.247 -0.4281  0.0498  1.4012
  510MOL0     C70297  11.059   8.450  10.506 -0.0325 -0.0794 -0.7436
  510MOL0     C70298  11.139   8.571  10.474  0.0604  0.9434  0.2666
  510MOL0     C70299  11.125   8.680  10.549  0.0350  0.1315 -0.0400
  510MOL0     C70300  11.030   8.688  10.654 -0.4707  0.1227  0.8204
  510MOL0     O70301  11.030   8.809  10.725  0.6945 -0.6023  0.1125
  510MOL0     C70302  10.966   8.829  10.848  1.0671  0.5144 -0.9794
  510MOL0     C70303  10.831   8.912  10.829 -0.2009  0.3410 -0.3091
  510MOL0     C70304  10.710   8.840  10.786 -0.3200  0.4003 -0.6746
  510MOL0     C70305  10.622   8.788  10.900  0.5774 -0.3436 -0.3489
  510MOL0     C70306  10.641   8.665  10.976  0.6297  0.0962  0.0888
  510MOL0     C70307  10.663   8.563  11.039 -0.6847  0.2797  0.7855
  510MOL0     C70308  10.947   8.571  10.677 -0.7734  0.5518  0.6370
  510MOL0     C70309  10.971   8.456  10.610  0.2013 -0.5341  0.1152
  510MOL0     C70310  10.872   8.348  10.640 -0.5246 -0.7118  1.0154
  510MOL0     H70311  11.187   8.037  10.471 -1.0940  0.9891  0.0883
  510MOL0     H70312  11.255   7.852  10.318  2.0248  1.0586 -0.5397
  510MOL0     H70313  11.149   7.610  10.231 -0.2911  1.0434  1.4172
  510MOL0     H70314  11.286   7.709  10.173  0.7586 -3.1310 -0.0189
  510MOL0     H70315  11.192   7.459  10.082  2.7209  0.0940  2.7883
  510MOL0     H70316  11.095   7.566   9.982 -0.2407  3.8934 -0.1235
  510MOL0     H70317  11.299   7.657   9.886 -2.6348 -0.8604 -1.8008
  510MOL0     H70318  11.384   7.528   9.988 -0.5597 -2.5490  1.1786
  510MOL0     H70319  11.244   7.365   9.886  0.0485 -0.9889 -2.2398
  510MOL0     H70320  11.173   7.480   9.789 -0.8069 -0.4240  1.0671
  510MOL0     H70321  11.371   7.536   9.675 -0.5829  0.2782  0.5585
  510MOL0     H70322  11.328   7.362   9.654 -1.5403 -2.3695  3.8592
  510MOL0     H70323  11.557   7.502   9.788 -0.6404  0.3412 -0.1651
  510MOL0     H70324  11.518   7.341   9.853 -1.4340 -1.0610 -1.3490
  510MOL0     H70325  11.716   7.334   9.693  0.9416  0.7252 -0.8843
  510MOL0     H70326  11.597   7.392   9.568 -0.9889 -0.0414  0.1434
  510MOL0     H70327  11.574   7.115   9.716  0.8251 -3.5488 -1.8995
  510MOL0     H70328  11.472   7.171   9.581  0.2613  2.2817 -0.0166
  510MOL0     H70329  11.777   6.987   9.659  0.4894 -0.4783 -0.0750
  510MOL0     H70330  12.037   7.029   9.560  2.7172  2.0301 -0.6544
  510MOL0     H70331  12.053   7.042   9.381  1.0290 -1.2743  1.1332
  510MOL0     H70332  11.933   6.801   9.520  1.5041 -0.2487  0.7223
  510MOL0     H70333  11.910   6.850   9.350  2.2300 -2.4328 -1.2274
  510MOL0     H70334  12.068   6.693   9.350 -0.4874 -0.4807  1.0746
  510MOL0     H70335  12.165   6.841   9.326 -0.6766 -0.7766 -1.7200
  510MOL0     H70336  12.122   6.698   9.584  0.4722 -0.2558  1.0566
  510MOL0     H70337  12.269   6.680   9.483 -0.3270  0.6366  1.3026
  510MOL0     H70338  12.443   6.710   9.568  0.6890  0.5714  2.3801
  510MOL0     H70339  12.715   6.686   9.573  1.4221  1.7881  0.3945
  510MOL0     H70340  12.763   6.725   9.394  1.2001 -0.2845  0.6665
  510MOL0     H70341  12.625   6.633   9.433 -0.6560  0.9267 -0.3262
  510MOL0     H70342  12.800   6.990   9.049  1.6372 -1.1290  1.2584
  510MOL0     H70343  13.016   7.042   8.926  0.5614 -1.5989  1.3669
  510MOL0     H70344  13.314   7.212   9.015  1.6990 -0.1415 -0.1073
  510MOL0     H70345  13.255   7.126   8.870 -1.6238 -0.5711  3.2842
  510MOL0     H70346  13.455   7.267   8.796  0.6142  2.2539 -2.5464
  510MOL0     H70347  13.303   7.284   8.714  1.4662  0.0346 -0.8207
  510MOL0     H70348  13.259   7.493   8.837  0.0217 -0.2197  0.7129
  510MOL0     H70349  13.406   7.505   8.750  2.5274 -1.6368 -0.0687
  510MOL0     H70350  13.536   7.471   8.967  0.7754 -0.5669 -0.3134
  510MOL0     H70351  13.385   7.448   9.042 -2.1608  0.8737  0.2037
  510MOL0     H70352  13.475   7.652   9.085 -1.8581 -1.2930  1.1309
  510MOL0     H70353  13.475   7.701   8.908 -0.9739 -2.0641 -2.1763
  510MOL0     H70354  13.223   7.672   9.091 -2.7192  3.1679  0.6217
  510MOL0     H70355  13.217   7.677   8.917  1.0302 -0.4899  0.6829
  510MOL0     H70356  13.353   7.896   8.926  0.9486 -2.1337  0.5656
  510MOL0     H70357  13.309   7.910   9.096  1.3772  1.6771 -0.9129
  510MOL0     H70358  13.122   8.013   8.997 -2.1253 -1.8632  0.3471
  510MOL0     H70359  13.073   7.845   8.956  1.1775 -1.7900  0.5752
  510MOL0     H70360  13.055   7.392   9.167 -1.7038  0.0923  1.3369
  510MOL0     H70361  12.897   7.286   9.327 -0.2357 -2.9239  1.8267
  510MOL0     H70362  12.547   7.179   9.452 -0.9147 -0.5406  0.7823
  510MOL0     H70363  12.320   7.110   9.510 -0.7266 -0.9262 -0.6783
  510MOL0     H70364  10.904   7.940  10.096  0.3317 -1.8168  0.9766
  510MOL0     H70365  10.865   8.127  10.232 -0.3586  0.0171  0.8459
  510MOL0     H70366  11.205   8.575  10.388 -0.0136 -2.5895 -0.0961
  510MOL0     H70367  11.173   8.776  10.534  1.0712 -0.0772  1.6638
  510MOL0     H70368  10.943   8.734  10.897  2.6617  1.9298  2.8602
  510MOL0     H70369  11.026   8.893  10.914 -1.5706  2.6973 -0.5220
  510MOL0     H70370  10.859   8.969  10.739  0.4620  1.4023  0.5364
  510MOL0     H70371  10.816   8.975  10.917  0.7448  0.8338 -0.4777
  510MOL0     H70372  10.647   8.910  10.732 -0.5858 -0.4479 -1.4774
  510MOL0     H70373  10.743   8.766  10.713  1.2440  1.0013 -0.6266
  510MOL0     H70374  10.526   8.776  10.849  0.6184 -0.4302 -0.4047
  510MOL0     H70375  10.614   8.870  10.973  1.1616  1.8237 -2.5918
  510MOL0     H70376  10.678   8.473  11.096 -0.7392  0.8854  1.7659
  510MOL0     H70377  10.859   8.567  10.741  0.1031  0.1840  1.8589
  510MOL0     H70378  10.922   8.270  10.698  1.5823  0.4592  0.8979
  510MOL0     H70379  10.787   8.372  10.703 -1.6341  0.7510 -0.9256
  510MOL0     H70380  10.832   8.313  10.544  0.7138  0.0069  0.1949
  511MOL0     O70381   7.958   3.284   6.419  0.7098 -0.0203 -0.9551
  511MOL0     C70382   7.983   3.360   6.324  0.8290 -0.0548  1.7400
  511MOL0     O70383   7.933   3.492   6.310  0.1805  0.2624  0.9244
  511MOL0     C70384   7.855   3.539   6.410 -0.6141  0.1771 -0.4551
  511MOL0     C70385   7.877   3.652   6.493 -0.2405 -0.9169 -0.5571
  511MOL0     C70386   7.784   3.713   6.570 -0.2804  0.2793  0.9845
  511MOL0     C70387   7.653   3.656   6.566  0.1300 -0.4625  0.3293
  511MOL0     O70388   7.549   3.721   6.629 -0.2104 -0.2543 -0.4221
  511MOL0     C70389   7.561   3.710   6.775 -1.5180 -0.2510  0.6129
  511MOL0     C70390   7.454   3.797   6.831  0.4338  0.0139  0.0086
  511MOL0     C70391   7.444   3.769   6.982 -0.4580  0.2217 -0.8000
  511MOL0     C70392   7.346   3.872   7.042 -0.2636  0.2797  0.1717
  511MOL0     C70393   7.372   3.926   7.189 -0.2203 -0.3622  0.1764
  511MOL0     C70394   7.255   4.009   7.231  0.0432  0.1957 -0.3100
  511MOL0     C70395   7.281   4.070   7.365 -0.4327 -1.0035  0.1239
  511MOL0     C70396   7.146   4.119   7.429 -0.7331  0.1497  0.0870
  511MOL0     N70397   7.143   4.065   7.573  0.0166  1.3016 -0.1366
  511MOL0     C70398   7.140   3.929   7.598 -0.4230  0.4742 -0.1582
  511MOL0     C70399   7.131   3.913   7.729  0.6448 -0.0995  0.1469
  511MOL0     C70400   7.086   3.786   7.806  0.0854 -0.3974 -0.4776
  511MOL0     C70401   7.175   3.668   7.788  0.3990  0.0201 -0.4242
  511MOL0     C70402   7.320   3.699   7.844 -0.9700 -0.0931  0.6755
  511MOL0     C70403   7.420   3.580   7.825 -0.1238 -0.2532  0.1249
  511MOL0     O70404   7.527   3.575   7.921  0.1368  0.4096  0.1614
  511MOL0     C70405   7.620   3.480   7.908 -1.3400 -0.1473  0.5789
  511MOL0     C70406   7.650   3.396   7.795  0.1538  0.0607  0.2816
  511MOL0     C70407   7.750   3.305   7.800 -0.4432  0.5200  0.4766
  511MOL0     C70408   7.765   3.220   7.684  0.0915 -0.7283  0.0340
  511MOL0     C70409   7.840   3.303   7.914  0.0879  0.7805 -0.2041
  511MOL0     C70410   7.963   3.219   7.910 -0.4109  0.4452  0.2264
  511MOL0     O70411   8.037   3.210   7.791  0.4210 -0.2223 -0.8163
  511MOL0     C70412   8.155   3.137   7.800 -0.2397  0.6628 -0.1270
  511MOL0     C70413   8.269   3.196   7.861  0.2325 -0.1952 -0.3181
  511MOL0     C70414   8.387   3.135   7.869  0.0663  0.8186 -0.5055
  511MOL0     C70415   8.397   3.010   7.832  0.2069  0.4870 -0.6019
  511MOL0     O70416   8.525   2.955   7.844  0.4835 -0.2226  0.3390
  511MOL0     C70417   8.536   2.814   7.819  0.7013 -0.2065 -0.4572
  511MOL0     C70418   8.691   2.774   7.824  1.3195 -0.1477  0.2901
  511MOL0     C70419   8.775   2.853   7.742 -0.3367  0.4007  0.2886
  511MOL0     C70420   8.711   2.873   7.607 -0.1392 -0.5127  0.5098
  511MOL0     C70421   8.802   2.959   7.510  0.5373  0.7365 -1.6887
  511MOL0     C70422   8.841   3.092   7.571 -0.3056  0.2390 -0.0545
  511MOL0     C70423   8.885   3.187   7.460  0.4068  0.0262  0.2877
  511MOL0     C70424   8.912   3.318   7.537  0.0329  0.9002  0.1556
  511MOL0    Cl70425   9.019   3.407   7.437 -0.2032  0.3884  0.1475
  511MOL0     C70426   8.285   2.940   7.774 -0.9370 -1.2601  0.3330
  511MOL0     C70427   8.161   3.005   7.760 -0.4750 -0.0179 -0.7116
  511MOL0     O70428   7.986   3.143   8.006 -0.1495 -0.1273 -0.3547
  511MOL0     C70429   7.807   3.371   8.031  0.1856  0.5703  0.5907
  511MOL0     C70430   7.697   3.465   8.029  0.4485  0.3754  0.4678
  511MOL0     N70431   7.137   4.040   7.791 -0.3689 -0.5247  0.1170
  511MOL0     N70432   7.143   4.130   7.695  0.3716  0.6629 -0.1873
  511MOL0     C70433   7.634   3.533   6.508 -0.3363  1.1891 -0.5490
  511MOL0     C70434   7.730   3.480   6.412  0.1133 -0.0706 -0.5443
  511MOL0     C70435   8.088   3.314   6.230 -0.0153  0.4745 -0.3166
  511MOL0     C70436   8.109   3.384   6.114  0.2090 -0.3971 -0.3543
  511MOL0     C70437   8.205   3.357   6.016 -0.1114  0.0933  0.1653
  511MOL0     C70438   8.294   3.244   6.038  0.1070 -0.1622 -0.3526
  511MOL0     O70439   8.383   3.186   5.959  0.1750 -0.1475 -0.5528
  511MOL0     C70440   8.439   3.259   5.852 -0.7107 -0.1230  0.4786
  511MOL0     C70441   8.566   3.189   5.797 -1.0139  0.4148  0.3040
  511MOL0     C70442   8.639   3.262   5.686  0.1243 -0.4490 -0.4542
  511MOL0     C70443   8.785   3.220   5.666 -0.0603  0.2426  0.5152
  511MOL0     C70444   8.856   3.223   5.791  0.1243  0.3883  0.4835
  511MOL0     C70445   8.914   3.208   5.901 -0.0066 -0.2931  0.6791
  511MOL0     C70446   8.274   3.173   6.152 -0.2951  0.2127  0.2647
  511MOL0     C70447   8.177   3.200   6.246  0.2902 -0.4027  0.1200
  511MOL0     C70448   8.164   3.093   6.356  0.4234 -0.4675 -0.8386
  511MOL0     H70449   7.970   3.706   6.500 -1.2429  0.6784  2.5847
  511MOL0     H70450   7.821   3.804   6.617  0.9874  0.0401  0.4825
  511MOL0     H70451   7.655   3.755   6.809 -0.0375 -1.3913 -1.6943
  511MOL0     H70452   7.562   3.601   6.785 -2.6213 -0.4929 -1.4518
  511MOL0     H70453   7.477   3.897   6.795  0.7864  0.8451  2.4023
  511MOL0     H70454   7.354   3.778   6.790  0.4400  0.9365 -0.4552
  511MOL0     H70455   7.417   3.667   7.012  0.1705  0.5124  0.8132
  511MOL0     H70456   7.542   3.796   7.020 -1.6624  2.1043  1.2039
  511MOL0     H70457   7.346   3.949   6.964 -0.9432 -0.8026 -0.9337
  511MOL0     H70458   7.243   3.835   7.053  0.2305 -0.7640  1.4777
  511MOL0     H70459   7.460   3.992   7.196 -0.2243 -0.1870 -1.2507
  511MOL0     H70460   7.383   3.841   7.257  1.0769 -2.0235 -1.9886
  511MOL0     H70461   7.232   4.084   7.156 -1.0257  0.0853 -0.1050
  511MOL0     H70462   7.166   3.946   7.242 -0.2735  0.5694 -0.7220
  511MOL0     H70463   7.366   4.140   7.366 -1.1670 -0.0102 -1.8486
  511MOL0     H70464   7.322   3.997   7.434 -0.2049  1.7168  3.0922
  511MOL0     H70465   7.145   4.228   7.424  3.4710  0.3781  0.8354
  511MOL0     H70466   7.057   4.084   7.375  0.7881 -4.3054  0.1150
  511MOL0     H70467   7.137   3.844   7.530  3.5817  0.4296 -0.5603
  511MOL0     H70468   6.982   3.764   7.778 -0.4537 -0.5213  1.4158
  511MOL0     H70469   7.084   3.810   7.913  0.8613 -0.0782 -0.5277
  511MOL0     H70470   7.138   3.586   7.851  2.2398  0.3850  1.2197
  511MOL0     H70471   7.169   3.640   7.683  2.6344  4.0722 -1.8495
  511MOL0     H70472   7.360   3.781   7.784  0.2610 -0.2887  1.2017
  511MOL0     H70473   7.320   3.730   7.949 -0.4202 -1.9197  1.2524
  511MOL0     H70474   7.375   3.482   7.806  4.4035 -2.1740 -2.1827
  511MOL0     H70475   7.468   3.600   7.728  2.3786 -2.0692  0.8734
  511MOL0     H70476   7.603   3.417   7.700  2.3118 -1.3635 -1.1800
  511MOL0     H70477   7.824   3.133   7.711  2.2652 -0.1010 -2.3474
  511MOL0     H70478   7.833   3.267   7.612  0.8885  0.0397  1.2556
  511MOL0     H70479   7.668   3.189   7.643 -1.4818  3.0317  0.4648
  511MOL0     H70480   8.255   3.302   7.879  1.0644  0.1778 -1.7572
  511MOL0     H70481   8.475   3.196   7.886  1.2013 -0.6674 -0.7904
  511MOL0     H70482   8.472   2.769   7.895 -0.1956  1.3171 -0.2671
  511MOL0     H70483   8.493   2.785   7.722  4.0734 -0.3847 -2.0375
  511MOL0     H70484   8.727   2.793   7.925 -1.5870 -2.7621  1.9888
  511MOL0     H70485   8.698   2.668   7.799  1.4057 -0.5284  1.8462
  511MOL0     H70486   8.878   2.817   7.736  1.2287  3.9597  2.4938
  511MOL0     H70487   8.779   2.951   7.792  0.2258  1.1618 -1.1737
  511MOL0     H70488   8.614   2.925   7.613 -0.2132 -0.7981  2.3370
  511MOL0     H70489   8.695   2.781   7.550  2.9701  1.4902 -4.1885
  511MOL0     H70490   8.889   2.899   7.480  1.3363  0.3913  1.0464
  511MOL0     H70491   8.738   2.976   7.424 -1.7156  0.7835 -0.0857
  511MOL0     H70492   8.911   3.093   7.655 -0.5698  1.6306  0.1810
  511MOL0     H70493   8.751   3.138   7.614  0.6987  2.3612 -0.0626
  511MOL0     H70494   8.814   3.209   7.380  2.8867  0.5192 -1.9232
  511MOL0     H70495   8.979   3.143   7.427  0.0514 -2.6192  2.3838
  511MOL0     H70496   8.964   3.310   7.633  2.7944  2.9501 -1.0162
  511MOL0     H70497   8.818   3.371   7.550 -1.0196 -0.0940 -2.6977
  511MOL0     H70498   8.285   2.834   7.751 -2.2272 -1.0887 -0.5176
  511MOL0     H70499   8.082   2.941   7.721 -0.9290  0.0497  0.0700
  511MOL0     H70500   7.876   3.372   8.115 -0.7241 -1.3001  1.4210
  511MOL0     H70501   7.661   3.519   8.115  0.5678  0.7087  0.3124
  511MOL0     H70502   7.534   3.495   6.524 -0.1005  1.5422  2.2165
  511MOL0     H70503   7.728   3.390   6.351  4.1427 -0.4502 -0.4097
  511MOL0     H70504   8.045   3.470   6.097 -0.8055 -1.1559 -0.5684
  511MOL0     H70505   8.221   3.413   5.925  3.7305 -0.2804  0.4512
  511MOL0     H70506   8.378   3.289   5.766 -2.5145  0.6020  1.9346
  511MOL0     H70507   8.464   3.349   5.910  1.5028 -0.7880  0.6613
  511MOL0     H70508   8.540   3.093   5.751 -2.4672 -1.0324  3.7541
  511MOL0     H70509   8.628   3.179   5.887  0.9356 -2.1979 -1.1899
  511MOL0     H70510   8.578   3.249   5.596  0.9331  2.5942 -1.5916
  511MOL0     H70511   8.640   3.367   5.717 -0.0789 -1.1400  2.0425
  511MOL0     H70512   8.826   3.303   5.608  0.8921 -0.8877 -0.4546
  511MOL0     H70513   8.784   3.127   5.609 -2.0673  1.4147 -1.5665
  511MOL0     H70514   8.958   3.190   5.997 -2.2411 -0.2200  1.7790
  511MOL0     H70515   8.328   3.082   6.178 -0.2604  0.1899  0.1197
  511MOL0     H70516   8.254   3.036   6.379  0.9160  0.7030  0.2655
  511MOL0     H70517   8.150   3.147   6.450  0.9385  0.3248 -1.2119
  511MOL0     H70518   8.080   3.023   6.347  2.7232 -3.4825 -0.2883
  512MOL0     O70519   0.822  10.724   0.831 -0.3339  0.1565 -0.6415
  512MOL0     C70520   0.890  10.707   0.932 -0.8177  0.4031  0.4430
  512MOL0     O70521   1.002  10.628   0.940  0.5416  0.4440  0.1527
  512MOL0     C70522   1.016  10.532   0.838 -0.7046  0.8725 -0.0766
  512MOL0     C70523   1.078  10.559   0.717  0.5350  0.1124  0.0058
  512MOL0     C70524   1.107  10.463   0.627 -0.2295  0.1502  0.9048
  512MOL0     C70525   1.070  10.328   0.658 -0.5226 -0.2428 -0.4329
  512MOL0     O70526   1.094  10.228   0.568  0.8236 -1.1820  0.2231
  512MOL0     C70527   1.150  10.107   0.607 -0.3052  0.2477  0.4444
  512MOL0     C70528   1.236  10.051   0.498  0.0141 -0.4552 -0.1953
  512MOL0     C70529   1.301   9.921   0.527 -0.2500  0.5465  0.0979
  512MOL0     C70530   1.320   9.841   0.402 -0.4741  0.7294 -0.2747
  512MOL0     C70531   1.352   9.685   0.434 -0.4952 -0.2672 -0.5648
  512MOL0     C70532   1.399   9.613   0.306  1.0246  0.8133  0.8178
  512MOL0     C70533   1.383   9.459   0.307 -0.1228 -0.1810  0.7945
  512MOL0     C70534   1.404   9.405   0.168 -1.0251  0.9321 -0.1575
  512MOL0     N70535   1.419   9.260   0.172 -0.4641 -0.3669  0.1867
  512MOL0     C70536   1.514   9.192   0.109  0.5393  0.4943 -0.1833
  512MOL0     C70537   1.489   9.064   0.131  0.9633 -0.5593  0.7573
  512MOL0     C70538   1.564   8.963   0.055 -0.4572  0.6584 -0.1963
  512MOL0     C70539   1.485   8.887  -0.055  0.8832 -0.4193  0.7019
  512MOL0     C70540   1.581   8.792  -0.129 -0.0077  0.1969  0.1640
  512MOL0     C70541   1.508   8.748  -0.253  0.0236  0.1314 -0.2181
  512MOL0     O70542   1.587   8.669  -0.342 -0.6081 -0.3343 -0.0267
  512MOL0     C70543   1.527   8.634  -0.465  0.1904 -0.1403  0.0071
  512MOL0     C70544   1.419   8.694  -0.526  0.0278  0.7540  0.1974
  512MOL0     C70545   1.392   8.665  -0.662  0.9671  0.1143  0.7175
  512MOL0     C70546   1.254   8.716  -0.719  0.3998 -0.2676  0.8298
  512MOL0     C70547   1.471   8.574  -0.735 -0.2151 -0.4482  0.7537
  512MOL0     C70548   1.469   8.540  -0.878 -0.1986 -0.0218 -0.2812
  512MOL0     O70549   1.578   8.479  -0.940  0.0390 -0.0076 -0.4961
  512MOL0     C70550   1.577   8.427  -1.064  1.0097 -0.1478  0.6881
  512MOL0     C70551   1.530   8.482  -1.184 -0.0858  0.9531  0.5752
  512MOL0     C70552   1.553   8.414  -1.301 -0.6019  0.5052  0.1545
  512MOL0     C70553   1.633   8.295  -1.300 -0.3136 -0.4447 -0.3661
  512MOL0     O70554   1.651   8.213  -1.402 -0.1469  0.5658 -0.2766
  512MOL0     C70555   1.600   8.249  -1.527  0.4117  0.5889  0.3982
  512MOL0     C70556   1.682   8.358  -1.592  0.3410 -0.3549 -0.1029
  512MOL0     C70557   1.680   8.351  -1.750 -0.1339 -0.8473  0.1027
  512MOL0     C70558   1.792   8.453  -1.820 -0.1552 -0.3312 -0.3074
  512MOL0     C70559   1.734   8.548  -1.925  0.1255  0.4334  0.0807
  512MOL0     C70560   1.823   8.668  -1.946  0.2364  0.5672  0.0382
  512MOL0     C70561   1.790   8.738  -2.081  0.0292  0.3130 -0.3467
  512MOL0     C70562   1.817   8.661  -2.214  0.4913 -0.4087 -0.0742
  512MOL0    Cl70563   2.002   8.615  -2.234 -0.0891  0.5127  0.4114
  512MOL0     C70564   1.680   8.242  -1.182  0.1512  0.1584 -0.7144
  512MOL0     C70565   1.653   8.304  -1.062  0.0920 -0.8702  0.1600
  512MOL0     O70566   1.371   8.575  -0.943  0.1078  0.4929 -0.2836
  512MOL0     C70567   1.575   8.513  -0.675 -0.0791 -0.5840  1.3316
  512MOL0     C70568   1.605   8.543  -0.541  0.4811 -0.6758  0.5388
  512MOL0     N70569   1.369   9.049   0.200  0.3664 -0.2314  0.4685
  512MOL0     N70570   1.330   9.172   0.225  0.4510 -0.4284  0.3725
  512MOL0     C70571   1.014  10.296   0.782  0.6225 -0.3731  0.2324
  512MOL0     C70572   0.993  10.400   0.874  0.2235  0.8189  1.0187
  512MOL0     C70573   0.834  10.771   1.053  0.1821  0.5738 -0.0134
  512MOL0     C70574   0.805  10.702   1.178 -0.5782 -0.6389  0.9781
  512MOL0     C70575   0.742  10.776   1.279 -1.0774  0.1948  1.2491
  512MOL0     C70576   0.722  10.912   1.277  0.1404  0.3457  0.4011
  512MOL0     O70577   0.662  10.964   1.389  0.0743  0.4159 -0.6192
  512MOL0     C70578   0.536  11.037   1.387 -0.2666 -0.8532  0.5055
  512MOL0     C70579   0.432  10.954   1.450 -0.5683 -0.3391 -0.7126
  512MOL0     C70580   0.306  11.038   1.479  1.0245  0.3435 -0.7086
  512MOL0     C70581   0.204  11.033   1.368 -0.7457 -0.4656  0.1032
  512MOL0     C70582   0.241  11.098   1.243 -0.6928 -0.8047 -0.0108
  512MOL0     C70583   0.280  11.165   1.148 -0.3024 -0.9049 -0.8018
  512MOL0     C70584   0.750  10.983   1.163  0.0046  0.0693 -0.6853
  512MOL0     C70585   0.798  10.914   1.054 -0.1319 -0.1428  0.6482
  512MOL0     C70586   0.828  10.992   0.930  0.3729 -0.2633  0.1230
  512MOL0     H70587   1.090  10.664   0.691 -0.7447  0.1179 -0.6390
  512MOL0     H70588   1.160  10.479   0.534  0.3495 -0.4162  1.1369
  512MOL0     H70589   1.065  10.044   0.634  0.2157  0.3163  2.3895
  512MOL0     H70590   1.204  10.113   0.702 -3.0683 -2.8067  2.4349
  512MOL0     H70591   1.175  10.037   0.408 -0.6660  1.7354 -0.1436
  512MOL0     H70592   1.321  10.111   0.465 -0.5897 -0.8212 -2.6613
  512MOL0     H70593   1.403   9.935   0.564  0.1509 -0.7275 -0.4642
  512MOL0     H70594   1.250   9.857   0.599 -0.5502  0.0163 -0.5707
  512MOL0     H70595   1.238   9.855   0.330 -1.5021 -1.4303  0.4066
  512MOL0     H70596   1.408   9.884   0.355  0.6212 -1.3366 -0.2203
  512MOL0     H70597   1.262   9.638   0.476  1.2368 -1.1230  2.4697
  512MOL0     H70598   1.422   9.689   0.518  0.7154 -0.2844 -1.5438
  512MOL0     H70599   1.358   9.663   0.218  2.4561 -0.5957 -0.7311
  512MOL0     H70600   1.507   9.627   0.294  0.9834  0.8969  0.5285
  512MOL0     H70601   1.279   9.432   0.327 -0.3676 -0.5821 -0.8859
  512MOL0     H70602   1.452   9.414   0.379  0.6042 -2.9394 -1.4624
  512MOL0     H70603   1.321   9.430   0.100 -0.2314  0.1760 -1.4461
  512MOL0     H70604   1.496   9.455   0.137  0.7792 -1.9859  0.1336
  512MOL0     H70605   1.586   9.246   0.048 -0.1389  0.3288 -1.1562
  512MOL0     H70606   1.599   8.881   0.119  2.1049 -0.3190 -2.6347
  512MOL0     H70607   1.656   9.002   0.011 -0.3144 -0.3944 -0.8692
  512MOL0     H70608   1.398   8.828  -0.023  0.5161 -1.1074 -1.4403
  512MOL0     H70609   1.435   8.967  -0.111  1.1428 -0.9006 -0.2321
  512MOL0     H70610   1.677   8.842  -0.142  1.1159 -2.0760 -0.8187
  512MOL0     H70611   1.601   8.699  -0.076  0.7727  1.1383  1.5790
  512MOL0     H70612   1.422   8.686  -0.226  0.5438 -1.4720 -1.9911
  512MOL0     H70613   1.471   8.830  -0.315 -0.9408 -0.2158 -0.1176
  512MOL0     H70614   1.360   8.766  -0.469  1.7823  0.0486  3.1496
  512MOL0     H70615   1.217   8.633  -0.780  2.6711 -1.4792  0.9612
  512MOL0     H70616   1.280   8.804  -0.779  0.2181 -0.4685  0.4550
  512MOL0     H70617   1.191   8.740  -0.633  1.4116 -0.4257  1.6330
  512MOL0     H70618   1.479   8.578  -1.176  0.8207  1.9001 -3.1600
  512MOL0     H70619   1.517   8.458  -1.393  4.6150  1.5442 -1.7555
  512MOL0     H70620   1.605   8.165  -1.598 -2.5098  2.5545 -2.4005
  512MOL0     H70621   1.494   8.276  -1.525  0.0378 -0.2907 -2.7578
  512MOL0     H70622   1.643   8.457  -1.567 -0.6953 -0.2561 -1.9342
  512MOL0     H70623   1.783   8.329  -1.562 -0.1625 -2.2364 -0.1069
  512MOL0     H70624   1.579   8.364  -1.791 -0.5209  2.4146  1.7107
  512MOL0     H70625   1.711   8.253  -1.788 -2.4266 -0.8798 -1.9635
  512MOL0     H70626   1.869   8.387  -1.863  1.3880  1.8698 -1.1098
  512MOL0     H70627   1.839   8.515  -1.743 -1.1990  1.5318 -1.1211
  512MOL0     H70628   1.709   8.497  -2.018 -3.3394 -1.4556  1.8251
  512MOL0     H70629   1.636   8.579  -1.886  0.0670 -1.2045  1.3580
  512MOL0     H70630   1.931   8.652  -1.951  0.7569  3.5532 -0.6883
  512MOL0     H70631   1.805   8.737  -1.863  0.9624  0.1277  0.5664
  512MOL0     H70632   1.835   8.838  -2.078  1.0304 -0.1286  0.1784
  512MOL0     H70633   1.685   8.768  -2.075 -0.3122 -0.6760 -1.0867
  512MOL0     H70634   1.784   8.727  -2.294  4.6019  0.4725 -1.2551
  512MOL0     H70635   1.749   8.576  -2.227 -1.7870  0.5886  3.5816
  512MOL0     H70636   1.733   8.148  -1.177  2.6983  1.4576 -1.8419
  512MOL0     H70637   1.704   8.278  -0.970  3.0103  2.5196 -0.3107
  512MOL0     H70638   1.638   8.439  -0.724 -0.8325 -0.4973  0.2161
  512MOL0     H70639   1.703   8.511  -0.507  1.7646  1.3236 -1.0133
  512MOL0     H70640   0.982  10.196   0.811 -2.6961 -0.0963 -1.9717
  512MOL0     H70641   0.960  10.388   0.976  2.9539  0.3036  1.9235
  512MOL0     H70642   0.824  10.597   1.200 -1.8943 -0.8063  1.4050
  512MOL0     H70643   0.716  10.729   1.373 -0.1942 -0.2926  1.2545
  512MOL0     H70644   0.544  11.124   1.453  1.0032 -0.9971  0.5679
  512MOL0     H70645   0.503  11.089   1.297 -2.3023 -0.0156  1.6690
  512MOL0     H70646   0.471  10.912   1.543  3.2026  0.5048 -1.7185
  512MOL0     H70647   0.416  10.866   1.388 -0.2012 -0.3524 -0.7897
  512MOL0     H70648   0.256  11.002   1.570  0.1650  2.0107 -0.4825
  512MOL0     H70649   0.331  11.136   1.521 -2.3453  0.4612  1.4502
  512MOL0     H70650   0.115  11.088   1.402 -0.8303  0.6196 -1.7455
  512MOL0     H70651   0.176  10.929   1.349 -1.0963  0.0239 -2.3710
  512MOL0     H70652   0.336  11.212   1.070 -1.2862 -1.9562 -2.1846
  512MOL0     H70653   0.719  11.087   1.162  0.1947  0.1253 -0.9891
  512MOL0     H70654   0.830  11.101   0.940  1.3014 -0.1772 -0.7846
  512MOL0     H70655   0.921  10.965   0.878  0.4789  4.2041 -2.4980
  512MOL0     H70656   0.745  10.975   0.861  0.0529 -2.4249  0.9565
  513MOL0     O70657   5.980   0.511   3.446 -0.5423 -0.6893  0.5293
  513MOL0     C70658   5.913   0.432   3.506 -0.2586  0.8309 -0.1650
  513MOL0     O70659   5.782   0.450   3.550 -0.3589 -0.6538 -0.0317
  513MOL0     C70660   5.738   0.577   3.565 -0.2753  1.1675 -0.6832
  513MOL0     C70661   5.729   0.659   3.455  0.1940 -0.4522  0.7129
  513MOL0     C70662   5.685   0.793   3.472  0.7787 -0.7009  1.0680
  513MOL0     C70663   5.633   0.833   3.596 -0.0956  0.4992  0.1480
  513MOL0     O70664   5.573   0.952   3.628 -0.0966  0.1890 -0.7180
  513MOL0     C70665   5.593   1.059   3.537 -0.4351 -0.2955  0.0780
  513MOL0     C70666   5.557   1.200   3.587 -0.8671 -0.7575  0.0176
  513MOL0     C70667   5.420   1.187   3.652  0.3854  0.6357 -0.0257
  513MOL0     C70668   5.371   1.328   3.687  0.3139 -0.1998 -0.0338
  513MOL0     C70669   5.421   1.368   3.821 -0.9238  0.6044  0.3169
  513MOL0     C70670   5.365   1.499   3.847  0.7489 -0.1265  0.0271
  513MOL0     C70671   5.429   1.569   3.967  0.9247  0.5169  0.0537
  513MOL0     C70672   5.369   1.708   3.995 -0.2267  0.8636  0.5626
  513MOL0     N70673   5.402   1.766   4.128  0.4746  0.0575 -0.6363
  513MOL0     C70674   5.482   1.868   4.147  0.1853 -0.1636  0.0423
  513MOL0     C70675   5.453   1.919   4.268 -0.2999  0.2820  0.0250
  513MOL0     C70676   5.537   2.015   4.345  0.2199 -0.4050 -0.4120
  513MOL0     C70677   5.675   1.961   4.351  0.3496 -0.6948 -0.5382
  513MOL0     C70678   5.773   2.048   4.438 -0.2971 -0.8822  0.8851
  513MOL0     C70679   5.919   1.992   4.443 -0.0155  0.6214  0.3747
  513MOL0     O70680   5.988   1.966   4.321 -0.2981 -0.6122 -0.9177
  513MOL0     C70681   6.070   2.060   4.259  0.6080  0.2649 -0.1611
  513MOL0     C70682   6.104   2.184   4.311  0.2710  0.1766 -0.3789
  513MOL0     C70683   6.190   2.276   4.250 -0.6414 -0.4419  0.0555
  513MOL0     C70684   6.190   2.408   4.321  0.1519  0.2195  0.0782
  513MOL0     C70685   6.248   2.246   4.120  0.2352  0.1576 -0.2767
  513MOL0     C70686   6.324   2.340   4.045  0.3835  0.3323  0.6910
  513MOL0     O70687   6.369   2.296   3.922  0.9900 -0.1503 -0.5067
  513MOL0     C70688   6.477   2.367   3.870 -0.2845 -0.4258 -0.3649
  513MOL0     C70689   6.600   2.312   3.881  0.2309 -0.2191 -0.0831
  513MOL0     C70690   6.706   2.369   3.817  0.0246 -0.0842  0.5152
  513MOL0     C70691   6.691   2.495   3.748 -0.3516  0.0598 -0.0677
  513MOL0     O70692   6.794   2.571   3.694 -0.0576 -0.0602  0.6359
  513MOL0     C70693   6.920   2.542   3.756 -1.1889 -0.7029  0.7805
  513MOL0     C70694   7.001   2.666   3.741 -0.2282  1.2967  0.6492
  513MOL0     C70695   6.993   2.770   3.857  0.7105 -0.7475  0.0800
  513MOL0     C70696   6.861   2.852   3.857 -0.4305 -0.6604 -0.8669
  513MOL0     C70697   6.835   2.919   3.996 -0.0196 -0.0235 -0.3221
  513MOL0     C70698   6.845   2.831   4.126 -0.2659 -0.3128 -0.6662
  513MOL0     C70699   6.819   2.925   4.252 -0.3458  0.0910 -0.8590
  513MOL0     C70700   6.839   2.858   4.388 -0.3724 -0.8832 -0.2904
  513MOL0    Cl70701   6.682   2.788   4.416 -0.1041 -0.2175 -0.2085
  513MOL0     C70702   6.572   2.556   3.751 -0.2486 -0.6299 -0.7834
  513MOL0     C70703   6.466   2.498   3.826 -0.1047 -0.1342 -0.5869
  513MOL0     O70704   6.351   2.447   4.098 -0.6907  0.2832  0.5053
  513MOL0     C70705   6.205   2.117   4.063  0.7608 -0.8583  0.2976
  513MOL0     C70706   6.121   2.031   4.132 -0.6441 -0.2340 -0.4749
  513MOL0     N70707   5.349   1.847   4.321  1.0521 -0.9828  0.7450
  513MOL0     N70708   5.312   1.766   4.226  0.1180  0.5340  0.2605
  513MOL0     C70709   5.643   0.753   3.711 -0.1088 -0.1314  0.1416
  513MOL0     C70710   5.693   0.620   3.691 -0.0277 -0.3845 -0.5090
  513MOL0     C70711   5.973   0.311   3.519  0.0532  0.5670  0.8709
  513MOL0     C70712   5.910   0.200   3.456  0.3348  0.6868 -0.0866
  513MOL0     C70713   5.982   0.076   3.455  0.2607 -1.3176  0.0869
  513MOL0     C70714   6.104   0.062   3.536 -0.0853  0.6842 -0.0473
  513MOL0     O70715   6.152  -0.062   3.557 -0.1619  0.5429 -0.1068
  513MOL0     C70716   6.265  -0.081   3.479 -0.6538  0.4633 -0.2194
  513MOL0     C70717   6.365  -0.192   3.523  0.8102 -0.1421  0.8023
  513MOL0     C70718   6.404  -0.165   3.669 -0.2301 -0.0548 -0.4408
  513MOL0     C70719   6.502  -0.049   3.685 -0.3273 -0.1427 -0.2077
  513MOL0     C70720   6.634  -0.083   3.627  1.3911 -0.1930  0.6645
  513MOL0     C70721   6.740  -0.119   3.578  0.5947 -0.1305 -0.5995
  513MOL0     C70722   6.151   0.174   3.602 -0.1237 -0.1554  0.2804
  513MOL0     C70723   6.098   0.296   3.582  0.4943 -0.1220  0.9338
  513MOL0     C70724   6.164   0.409   3.655 -0.1158  0.1635  0.4977
  513MOL0     H70725   5.755   0.638   3.352  0.9520  2.6455  0.1843
  513MOL0     H70726   5.683   0.864   3.391  2.0546 -0.6708  1.0319
  513MOL0     H70727   5.538   1.055   3.442 -2.2983  3.3084  0.8167
  513MOL0     H70728   5.700   1.067   3.518 -0.4350  1.8993  0.7844
  513MOL0     H70729   5.629   1.234   3.662 -2.0951 -0.9135  1.3023
  513MOL0     H70730   5.565   1.274   3.507  2.8432 -1.1845 -0.1817
  513MOL0     H70731   5.353   1.139   3.580  1.2313  0.1615 -0.5156
  513MOL0     H70732   5.428   1.135   3.747 -2.4070 -0.2553 -0.1861
  513MOL0     H70733   5.404   1.401   3.612  0.2815 -0.2855 -0.1313
  513MOL0     H70734   5.262   1.337   3.677  0.2098 -2.5167 -1.5062
  513MOL0     H70735   5.531   1.371   3.814 -1.0221  0.9968 -1.4384
  513MOL0     H70736   5.389   1.309   3.907  1.2679 -2.5082 -0.8209
  513MOL0     H70737   5.381   1.564   3.760 -0.7147  0.4588  0.1761
  513MOL0     H70738   5.257   1.492   3.858  0.4821  3.1074  0.6097
  513MOL0     H70739   5.537   1.580   3.952  1.0291 -0.3525  0.1230
  513MOL0     H70740   5.404   1.505   4.053  0.8789  1.4952  0.7930
  513MOL0     H70741   5.398   1.777   3.916  0.4414 -1.6948 -1.5633
  513MOL0     H70742   5.262   1.697   3.973  0.5808  0.3808 -3.9613
  513MOL0     H70743   5.549   1.904   4.070 -0.2872  2.5042  0.7872
  513MOL0     H70744   5.501   2.023   4.448 -0.2430  0.1562 -0.6087
  513MOL0     H70745   5.533   2.112   4.293 -0.9887 -1.5531 -2.6248
  513MOL0     H70746   5.676   1.855   4.381 -0.1333 -0.5494  0.0261
  513MOL0     H70747   5.717   1.955   4.251  2.4272 -2.9298  0.3646
  513MOL0     H70748   5.771   2.151   4.402  1.7459 -0.3615  2.0794
  513MOL0     H70749   5.724   2.050   4.536  1.0649 -0.3537  1.5845
  513MOL0     H70750   5.983   2.054   4.508  0.7889 -0.1499  0.3409
  513MOL0     H70751   5.906   1.897   4.495 -1.7180  0.2584 -0.6504
  513MOL0     H70752   6.065   2.218   4.407  0.8592  1.7414 -0.6686
  513MOL0     H70753   6.119   2.425   4.403 -0.0326 -0.1341 -0.0038
  513MOL0     H70754   6.164   2.477   4.240  0.6809 -2.4347 -2.5079
  513MOL0     H70755   6.290   2.445   4.345 -1.1966  2.8984  2.1806
  513MOL0     H70756   6.600   2.229   3.951  0.1363  0.4866  0.7678
  513MOL0     H70757   6.801   2.318   3.828  0.0277 -0.7085 -1.8322
  513MOL0     H70758   6.916   2.527   3.865  1.1902  0.5501  1.1008
  513MOL0     H70759   6.952   2.457   3.696  0.2598 -0.1754  0.7694
  513MOL0     H70760   7.107   2.644   3.730 -0.2235  1.4128  0.4529
  513MOL0     H70761   6.992   2.719   3.646  3.2198 -0.6887 -0.9657
  513MOL0     H70762   7.074   2.843   3.845 -2.3244  4.3404  5.2580
  513MOL0     H70763   7.016   2.718   3.950 -2.8981 -0.5905  1.2133
  513MOL0     H70764   6.774   2.793   3.831 -3.1219  3.2255 -1.5527
  513MOL0     H70765   6.871   2.936   3.788  2.0843  2.4616  2.8360
  513MOL0     H70766   6.906   3.001   4.002  0.9985 -0.8015 -1.2677
  513MOL0     H70767   6.735   2.963   3.986 -0.2096  0.2101  2.0771
  513MOL0     H70768   6.949   2.797   4.133  0.6567  1.4475 -3.7801
  513MOL0     H70769   6.783   2.741   4.128  2.2246 -2.1271  1.5902
  513MOL0     H70770   6.718   2.968   4.260 -0.1774  0.2220  1.2232
  513MOL0     H70771   6.895   3.002   4.240 -1.3603  1.5389  1.3502
  513MOL0     H70772   6.849   2.935   4.466 -0.8502 -1.1249  0.0111
  513MOL0     H70773   6.930   2.798   4.381 -0.3173 -0.6640 -1.8689
  513MOL0     H70774   6.562   2.654   3.707 -0.2717  0.2561  1.0992
  513MOL0     H70775   6.365   2.539   3.827 -0.3788 -0.6893  1.9625
  513MOL0     H70776   6.235   2.086   3.963  1.1867  0.5160 -0.0357
  513MOL0     H70777   6.105   1.937   4.080  0.0576 -0.1296 -0.8928
  513MOL0     H70778   5.606   0.803   3.800 -4.5933 -2.4968 -0.0999
  513MOL0     H70779   5.688   0.554   3.778  2.2659  0.8308  0.6289
  513MOL0     H70780   5.811   0.212   3.415 -0.5163  2.6873  2.2927
  513MOL0     H70781   5.943  -0.018   3.418  0.1371 -0.9886 -0.6340
  513MOL0     H70782   6.230  -0.107   3.378  0.7331  1.0008 -0.8680
  513MOL0     H70783   6.319   0.014   3.472 -1.1205  1.0251  2.7721
  513MOL0     H70784   6.453  -0.200   3.458  0.5728  2.3552  0.0735
  513MOL0     H70785   6.304  -0.282   3.506 -1.7181  0.9118  3.4943
  513MOL0     H70786   6.315  -0.156   3.732 -0.7734  1.8141 -1.4035
  513MOL0     H70787   6.458  -0.253   3.703 -2.1239 -0.4415  1.7578
  513MOL0     H70788   6.514  -0.016   3.789  2.3427  0.0605 -0.5135
  513MOL0     H70789   6.471   0.042   3.632  3.4805  2.9376  2.2707
  513MOL0     H70790   6.841  -0.133   3.545  0.5801 -1.0374 -0.2688
  513MOL0     H70791   6.232   0.153   3.670 -0.9995 -0.2788  1.3125
  513MOL0     H70792   6.186   0.376   3.757 -2.0351 -1.4362  0.4670
  513MOL0     H70793   6.251   0.454   3.607  0.6875 -1.5992  0.2122
  513MOL0     H70794   6.084   0.482   3.669 -1.1905 -1.2205  2.0766
  514MOL0     O70795   3.910   4.912   1.753 -0.0182  0.3202 -0.5675
  514MOL0     C70796   3.976   4.860   1.665 -0.4275  0.5860  0.2841
  514MOL0     O70797   4.014   4.723   1.662  0.4182  0.1558  0.0639
  514MOL0     C70798   4.000   4.647   1.777  0.0017  0.3347  0.7739
  514MOL0     C70799   3.877   4.637   1.842  0.2871 -0.2065 -0.2729
  514MOL0     C70800   3.852   4.533   1.929  0.0401 -0.2948 -0.4905
  514MOL0     C70801   3.959   4.452   1.975 -0.1713 -0.3440 -0.6656
  514MOL0     O70802   3.953   4.353   2.069  0.1487  0.2199  0.0345
  514MOL0     C70803   3.854   4.366   2.172  0.1676 -0.5329  0.1089
  514MOL0     C70804   3.885   4.269   2.298 -0.2136  0.1042  0.9867
  514MOL0     C70805   4.027   4.300   2.354  0.0645 -0.6221 -0.4019
  514MOL0     C70806   4.062   4.198   2.465  0.9991  0.3284 -0.4780
  514MOL0     C70807   4.205   4.232   2.504 -0.6376 -0.4708 -0.7978
  514MOL0     C70808   4.248   4.129   2.622  0.2855  0.1274  0.4578
  514MOL0     C70809   4.397   4.129   2.682  0.7910 -0.2195  0.7760
  514MOL0     C70810   4.417   4.025   2.792 -0.5575  0.3154  0.5816
  514MOL0     N70811   4.326   4.041   2.898  0.3134 -0.6394 -0.2616
  514MOL0     C70812   4.341   4.117   3.006  0.4970 -0.2279  0.2114
  514MOL0     C70813   4.233   4.078   3.084  0.4293 -0.0851  0.8977
  514MOL0     C70814   4.200   4.130   3.216  0.2546 -0.0111  0.2118
  514MOL0     C70815   4.297   4.220   3.292  0.2274  0.0607 -0.3195
  514MOL0     C70816   4.412   4.140   3.339  0.0924  0.1785 -0.5089
  514MOL0     C70817   4.472   4.219   3.452  0.2642 -0.0176  0.2515
  514MOL0     O70818   4.606   4.194   3.443 -0.0981 -0.0483  1.0700
  514MOL0     C70819   4.691   4.272   3.515  0.2341 -0.5080 -0.3868
  514MOL0     C70820   4.648   4.352   3.623 -0.1026  0.1462 -0.2083
  514MOL0     C70821   4.748   4.422   3.709 -0.2315  0.1810 -0.3612
  514MOL0     C70822   4.689   4.475   3.839  0.0840  0.1155 -0.8216
  514MOL0     C70823   4.888   4.415   3.672  0.7648 -0.2225 -0.2648
  514MOL0     C70824   4.986   4.503   3.739 -0.6983  0.1462 -0.5706
  514MOL0     O70825   5.118   4.465   3.721  0.0550  0.5842 -0.0872
  514MOL0     C70826   5.215   4.539   3.780 -0.3315 -0.2925  0.0647
  514MOL0     C70827   5.297   4.483   3.881 -0.3348 -0.3983  0.3027
  514MOL0     C70828   5.400   4.561   3.951 -0.7926  0.5687  0.0760
  514MOL0     C70829   5.436   4.687   3.909  0.0570  0.9962  0.0634
  514MOL0     O70830   5.529   4.746   3.993 -0.3578 -0.2260  0.2848
  514MOL0     C70831   5.538   4.889   4.003  0.3109  0.4473  0.1162
  514MOL0     C70832   5.424   4.942   4.092  0.7577  0.2401  0.6721
  514MOL0     C70833   5.395   5.089   4.056  0.4490  0.7336  0.1002
  514MOL0     C70834   5.292   5.146   4.150  0.3979 -0.4378 -0.1863
  514MOL0     C70835   5.311   5.297   4.153  0.2393  0.4234 -0.1998
  514MOL0     C70836   5.176   5.369   4.172  0.4029 -0.4540  0.2746
  514MOL0     C70837   5.104   5.329   4.305 -0.3111  0.7557  0.3575
  514MOL0     C70838   4.964   5.358   4.305 -1.0088  0.0392  0.1013
  514MOL0    Cl70839   4.877   5.233   4.210 -0.4218 -0.1649  0.2715
  514MOL0     C70840   5.368   4.739   3.799 -0.7282  0.7878  0.3283
  514MOL0     C70841   5.261   4.667   3.735  0.5474 -1.1464  0.4545
  514MOL0     O70842   4.952   4.603   3.809  0.1904 -0.5805  0.1783
  514MOL0     C70843   4.927   4.339   3.564 -0.6530 -0.0453 -0.2302
  514MOL0     C70844   4.830   4.259   3.497  0.3271  0.2537  0.3127
  514MOL0     N70845   4.152   3.989   3.023 -0.0367  0.3641  0.1842
  514MOL0     N70846   4.216   3.961   2.913  0.0398  0.4717  0.4808
  514MOL0     C70847   4.082   4.467   1.916 -0.1171  0.5608  0.1069
  514MOL0     C70848   4.099   4.555   1.809  0.5724 -0.4935  0.5211
  514MOL0     C70849   4.010   4.940   1.548  0.6121 -1.2678  0.7135
  514MOL0     C70850   4.041   4.868   1.435 -0.2737 -0.1637  0.0423
  514MOL0     C70851   4.086   4.942   1.316 -0.2339 -0.3541 -0.4126
  514MOL0     C70852   4.089   5.077   1.315 -0.4144 -0.0629  0.4019
  514MOL0     O70853   4.119   5.135   1.201 -0.0117 -0.8819  0.5851
  514MOL0     C70854   4.009   5.140   1.103 -0.0813 -0.1714 -0.0643
  514MOL0     C70855   4.061   5.215   0.968 -0.4742  0.0751 -0.2049
  514MOL0     C70856   3.958   5.262   0.863 -0.8908 -0.3504 -0.8982
  514MOL0     C70857   4.027   5.278   0.736  0.1024  0.2632 -0.6318
  514MOL0     C70858   3.940   5.338   0.631  0.1021  0.3504  0.1025
  514MOL0     C70859   3.864   5.378   0.550  0.2576  0.2292 -0.5202
  514MOL0     C70860   4.057   5.145   1.433 -0.5577 -0.4630  0.3835
  514MOL0     C70861   4.021   5.087   1.552  0.1961 -0.1856 -0.3313
  514MOL0     C70862   4.013   5.168   1.684  0.2411  0.2507  0.2610
  514MOL0     H70863   3.797   4.704   1.813 -0.4248 -2.0885 -3.0507
  514MOL0     H70864   3.757   4.523   1.981  0.6131  0.6205  0.8123
  514MOL0     H70865   3.760   4.362   2.116  0.5854  1.1034 -0.7737
  514MOL0     H70866   3.848   4.463   2.222  3.0839 -1.9497  3.6513
  514MOL0     H70867   3.811   4.278   2.378 -2.5078 -2.3160 -0.7054
  514MOL0     H70868   3.893   4.163   2.273  0.0978  0.5117 -0.7606
  514MOL0     H70869   4.100   4.301   2.272  0.8693  1.8956  0.2325
  514MOL0     H70870   4.042   4.401   2.393 -1.5454 -0.0578 -1.1656
  514MOL0     H70871   4.002   4.218   2.555  0.8408 -0.7803 -0.3229
  514MOL0     H70872   4.069   4.090   2.447  0.2933 -0.0522  1.3207
  514MOL0     H70873   4.212   4.334   2.543 -0.4292 -1.4940  2.0818
  514MOL0     H70874   4.280   4.220   2.426  0.8934 -0.7188  0.6401
  514MOL0     H70875   4.194   4.154   2.714 -0.7632  1.1589 -0.3972
  514MOL0     H70876   4.218   4.029   2.590  1.2078 -0.0306  0.0679
  514MOL0     H70877   4.408   4.229   2.725 -2.0534  2.4627 -3.8809
  514MOL0     H70878   4.466   4.098   2.603 -0.0940 -1.1660  0.3550
  514MOL0     H70879   4.419   3.920   2.762  1.7299  0.4350  0.1035
  514MOL0     H70880   4.516   4.039   2.836  0.5087 -1.4879 -1.0819
  514MOL0     H70881   4.415   4.193   3.028 -1.2984  1.5739  0.3432
  514MOL0     H70882   4.195   4.043   3.282  1.2456 -0.2744 -0.0408
  514MOL0     H70883   4.111   4.193   3.206  0.2995 -0.1713 -1.4712
  514MOL0     H70884   4.334   4.297   3.224  2.1440 -2.5301 -2.4763
  514MOL0     H70885   4.240   4.266   3.373  2.0490  4.0028 -1.0250
  514MOL0     H70886   4.389   4.038   3.372  0.1447 -0.9184 -3.5771
  514MOL0     H70887   4.487   4.137   3.260  2.7332  0.1653  1.8403
  514MOL0     H70888   4.466   4.326   3.433  2.4410  0.2507  0.8444
  514MOL0     H70889   4.429   4.189   3.548  2.7863  0.7000  1.6993
  514MOL0     H70890   4.544   4.360   3.654  0.1633 -1.9700  1.4045
  514MOL0     H70891   4.743   4.470   3.935 -1.1879  4.6276  0.3864
  514MOL0     H70892   4.597   4.419   3.851 -0.2665  0.5334 -1.5392
  514MOL0     H70893   4.665   4.580   3.820 -2.6761 -0.5287 -1.2904
  514MOL0     H70894   5.290   4.383   3.923 -0.0757  0.3495  2.2374
  514MOL0     H70895   5.452   4.509   4.030 -1.2839 -1.5443 -0.9262
  514MOL0     H70896   5.636   4.927   4.036 -0.1113  0.1669  1.8111
  514MOL0     H70897   5.520   4.931   3.904 -2.9329 -0.1956  0.3283
  514MOL0     H70898   5.341   4.872   4.084  0.9760  0.1325 -0.7946
  514MOL0     H70899   5.468   4.938   4.193  0.8477 -1.2601  0.5971
  514MOL0     H70900   5.361   5.090   3.952  0.8794  0.5683 -0.0429
  514MOL0     H70901   5.493   5.137   4.067  0.7441 -0.1217  1.4267
  514MOL0     H70902   5.319   5.119   4.252  0.5157  3.0008  0.8132
  514MOL0     H70903   5.190   5.109   4.135 -1.1520  2.2387  2.6524
  514MOL0     H70904   5.387   5.343   4.218 -1.5093  0.3124  2.0340
  514MOL0     H70905   5.329   5.327   4.050 -2.0959  0.4350 -0.6568
  514MOL0     H70906   5.116   5.345   4.084 -1.2247  3.0555  0.2275
  514MOL0     H70907   5.195   5.476   4.164 -0.7561 -0.3733 -2.7811
  514MOL0     H70908   5.148   5.379   4.392 -2.1936  0.3412  1.6078
  514MOL0     H70909   5.118   5.222   4.324 -2.3449  0.5043  0.6043
  514MOL0     H70910   4.930   5.457   4.274 -4.2254 -0.8329  0.4211
  514MOL0     H70911   4.937   5.346   4.410 -1.8650  0.5670 -0.0457
  514MOL0     H70912   5.397   4.832   3.750  1.5139 -0.3294 -0.5847
  514MOL0     H70913   5.221   4.697   3.640  0.8717 -2.5654 -0.1670
  514MOL0     H70914   5.026   4.333   3.520 -1.0230 -3.0164 -0.8642
  514MOL0     H70915   4.864   4.200   3.413  0.7742  2.7968 -1.4085
  514MOL0     H70916   4.158   4.409   1.967 -0.7426  0.0320  0.4592
  514MOL0     H70917   4.193   4.569   1.756 -0.8501  0.8168 -1.7989
  514MOL0     H70918   4.044   4.759   1.430  2.1590 -0.1476  0.1915
  514MOL0     H70919   4.126   4.884   1.234  1.6864  0.9879 -0.4858
  514MOL0     H70920   3.970   5.039   1.084  3.4918 -2.2720  2.5840
  514MOL0     H70921   3.930   5.206   1.141 -1.5873 -2.7514  1.5872
  514MOL0     H70922   4.120   5.137   0.919 -1.2698 -0.5832 -0.1238
  514MOL0     H70923   4.124   5.302   0.990  1.8922 -1.3344 -1.0775
  514MOL0     H70924   3.880   5.186   0.861 -0.0280 -1.5364  2.8880
  514MOL0     H70925   3.930   5.362   0.896  0.6607  0.1779 -1.0879
  514MOL0     H70926   4.060   5.181   0.699  1.8951 -0.2859  2.1178
  514MOL0     H70927   4.124   5.324   0.755  1.7718 -1.5143 -3.8932
  514MOL0     H70928   3.780   5.401   0.489  1.5515  1.6131 -1.8773
  514MOL0     H70929   4.063   5.253   1.440 -1.7987 -0.4343  1.4314
  514MOL0     H70930   4.067   5.263   1.676 -0.3306  0.7567  1.8585
  514MOL0     H70931   3.906   5.181   1.704  0.1728 -0.2167  0.2013
  514MOL0     H70932   4.052   5.115   1.771 -4.1339 -0.7859  1.8616
  515MOL0     O70933   5.343   2.395   4.068  0.4242 -0.4144  0.5236
  515MOL0     C70934   5.272   2.333   4.154 -0.2340  0.6433  0.6120
  515MOL0     O70935   5.201   2.219   4.116 -0.0861 -0.1851 -0.1170
  515MOL0     C70936   5.192   2.185   3.986  0.1091 -0.1574 -0.3006
  515MOL0     C70937   5.231   2.054   3.947 -0.5633 -0.7751 -0.5789
  515MOL0     C70938   5.217   2.020   3.814  0.3653 -0.5230  0.2630
  515MOL0     C70939   5.176   2.113   3.715  0.7663  1.0306  0.6380
  515MOL0     O70940   5.170   2.083   3.583  0.0658  0.1631 -0.4945
  515MOL0     C70941   5.070   1.980   3.549  0.1373 -0.1195 -0.6110
  515MOL0     C70942   5.012   2.021   3.419  0.3781 -0.1462  0.5614
  515MOL0     C70943   5.132   2.027   3.312  0.1440  1.2737 -0.3720
  515MOL0     C70944   5.096   2.061   3.168 -0.7159  0.5419 -0.1088
  515MOL0     C70945   5.235   2.103   3.112  0.4533  0.3161 -0.2160
  515MOL0     C70946   5.217   2.119   2.957  0.0632 -0.4993 -0.0919
  515MOL0     C70947   5.347   2.174   2.894  0.6401  0.3089 -0.7502
  515MOL0     C70948   5.314   2.228   2.757 -0.8646 -0.7667 -0.3603
  515MOL0     N70949   5.429   2.291   2.692 -0.6466 -0.1275  0.5174
  515MOL0     C70950   5.452   2.425   2.716 -1.5605 -0.0139 -0.5490
  515MOL0     C70951   5.570   2.450   2.661  0.2198 -0.0981 -0.3960
  515MOL0     C70952   5.658   2.579   2.678  0.7771  0.7191 -0.2947
  515MOL0     C70953   5.621   2.683   2.571 -0.2091 -0.8110 -1.7922
  515MOL0     C70954   5.688   2.824   2.590 -0.7648 -0.2662  0.0629
  515MOL0     C70955   5.833   2.825   2.533  0.3906 -0.3878 -0.5958
  515MOL0     O70956   5.830   2.834   2.392  0.1059 -0.1393 -0.0957
  515MOL0     C70957   5.914   2.753   2.318 -0.2315 -0.4263 -0.0335
  515MOL0     C70958   5.923   2.616   2.338  0.9600 -0.4194 -0.1822
  515MOL0     C70959   6.013   2.536   2.262 -0.2272  0.6417  1.2076
  515MOL0     C70960   6.031   2.382   2.282 -0.0323 -0.2654 -0.0879
  515MOL0     C70961   6.067   2.591   2.140 -0.6815 -1.1341 -0.4301
  515MOL0     C70962   6.169   2.526   2.056 -0.3900  0.6758 -1.3126
  515MOL0     O70963   6.203   2.578   1.930  0.0962  0.3443 -0.4660
  515MOL0     C70964   6.295   2.532   1.841  0.3019  0.6211 -0.1818
  515MOL0     C70965   6.361   2.620   1.765  0.1162 -0.8674 -1.0206
  515MOL0     C70966   6.463   2.582   1.668 -0.0337 -0.4625  0.8140
  515MOL0     C70967   6.480   2.448   1.646 -0.2805  0.6122  0.5608
  515MOL0     O70968   6.558   2.417   1.538 -0.7505  0.0132  0.6484
  515MOL0     C70969   6.618   2.287   1.536  0.9992 -0.0347 -0.5726
  515MOL0     C70970   6.720   2.272   1.427 -1.1802 -0.6457  0.0979
  515MOL0     C70971   6.784   2.130   1.428  0.9269  0.1370  0.2651
  515MOL0     C70972   6.738   2.027   1.322 -0.3227  0.3083  0.3184
  515MOL0     C70973   6.803   1.885   1.351 -1.0271 -0.3525  0.1434
  515MOL0     C70974   6.716   1.774   1.307  0.5531 -0.5160 -0.1486
  515MOL0     C70975   6.789   1.645   1.276  0.8412 -0.0622 -0.0304
  515MOL0     C70976   6.694   1.529   1.287 -0.2073  0.2171  1.0080
  515MOL0    Cl70977   6.643   1.510   1.459  0.0433 -0.0755 -0.0081
  515MOL0     C70978   6.429   2.352   1.735  0.0225  0.5785  0.3459
  515MOL0     C70979   6.335   2.395   1.832  0.5623  0.6256  0.0031
  515MOL0     O70980   6.224   2.428   2.102  0.0739  0.5005  0.3851
  515MOL0     C70981   6.057   2.730   2.126  0.0507 -0.2032  0.1119
  515MOL0     C70982   5.989   2.806   2.215  0.8154 -0.4400  0.6621
  515MOL0     N70983   5.608   2.335   2.596 -0.3275 -0.5150 -0.1623
  515MOL0     N70984   5.522   2.235   2.612  0.8861  0.1080  0.1748
  515MOL0     C70985   5.131   2.239   3.758  0.3804 -0.5961 -0.4206
  515MOL0     C70986   5.125   2.263   3.894  0.2590 -0.1946 -0.1775
  515MOL0     C70987   5.260   2.366   4.297 -1.0240  0.5076 -0.1928
  515MOL0     C70988   5.214   2.262   4.390 -0.3071  0.6764  0.6323
  515MOL0     C70989   5.225   2.290   4.525  0.0407  0.6128  0.2694
  515MOL0     C70990   5.273   2.413   4.579  0.8058  0.3862 -0.4122
  515MOL0     O70991   5.286   2.432   4.719 -0.1810 -0.8273 -0.2098
  515MOL0     C70992   5.423   2.433   4.757 -0.1803 -0.1249 -0.7937
  515MOL0     C70993   5.471   2.286   4.779  0.0939 -0.6151 -0.2934
  515MOL0     C70994   5.399   2.214   4.887 -0.1838  0.2159 -0.9682
  515MOL0     C70995   5.419   2.065   4.882  0.5686  0.7345  0.4757
  515MOL0     C70996   5.340   2.001   4.769  0.2185  0.2722  0.0528
  515MOL0     C70997   5.274   1.949   4.675 -0.3543 -0.8636  0.7586
  515MOL0     C70998   5.296   2.514   4.487 -0.1138 -0.0419 -0.4282
  515MOL0     C70999   5.292   2.493   4.352  0.3007  0.2524  0.0438
  515MOL0     C71000   5.326   2.609   4.266 -0.0404 -0.0213 -0.4350
  515MOL0     H71001   5.275   1.991   4.024 -6.3099  0.4156  4.4456
  515MOL0     H71002   5.238   1.917   3.784 -2.9515 -1.3894  0.5352
  515MOL0     H71003   4.987   1.988   3.620 -1.1728 -1.6232 -1.8815
  515MOL0     H71004   5.109   1.878   3.544 -0.0405 -0.1872 -0.6635
  515MOL0     H71005   4.936   1.947   3.393  0.2586  0.0682  0.2913
  515MOL0     H71006   4.975   2.124   3.412 -0.9979 -0.6302  0.2382
  515MOL0     H71007   5.210   2.097   3.342  0.7694  0.6908 -0.5978
  515MOL0     H71008   5.176   1.927   3.317 -1.1374  0.7331  0.8953
  515MOL0     H71009   5.058   1.976   3.110  0.7789  1.0532 -1.9755
  515MOL0     H71010   5.016   2.136   3.176 -2.6097 -1.4676  0.8602
  515MOL0     H71011   5.296   2.015   3.131 -0.1747  0.2792  1.8129
  515MOL0     H71012   5.279   2.185   3.170  3.8098 -2.0636  0.9238
  515MOL0     H71013   5.173   2.034   2.903 -1.6521  0.4933 -0.3323
  515MOL0     H71014   5.146   2.201   2.941 -0.9824 -1.4922 -0.6874
  515MOL0     H71015   5.413   2.088   2.886 -0.9543 -1.3728  2.2934
  515MOL0     H71016   5.403   2.246   2.954  1.3117 -0.1522 -0.8139
  515MOL0     H71017   5.300   2.139   2.694  0.1609 -1.2549  0.0802
  515MOL0     H71018   5.234   2.300   2.773  1.0091  1.1813  0.7568
  515MOL0     H71019   5.396   2.488   2.784 -0.0178  0.1139  0.6449
  515MOL0     H71020   5.763   2.553   2.665  0.9891  1.6651 -0.5260
  515MOL0     H71021   5.641   2.612   2.781  1.4375  3.3403 -0.9639
  515MOL0     H71022   5.656   2.654   2.472  3.1239 -1.1204 -0.6396
  515MOL0     H71023   5.514   2.702   2.584 -0.0369 -1.6802  2.6279
  515MOL0     H71024   5.634   2.906   2.542  0.0826 -1.2363 -2.7756
  515MOL0     H71025   5.696   2.835   2.698 -0.1096  1.3370 -0.1308
  515MOL0     H71026   5.872   2.921   2.569  0.4061 -0.7174  0.2829
  515MOL0     H71027   5.893   2.740   2.567 -1.6292 -1.3180  0.8086
  515MOL0     H71028   5.863   2.577   2.419  1.1505  0.6490  0.4932
  515MOL0     H71029   6.133   2.365   2.316  0.3179 -0.8537 -1.3963
  515MOL0     H71030   5.993   2.335   2.191  2.1575 -1.5477 -0.3868
  515MOL0     H71031   5.966   2.353   2.365  2.4190 -1.4737  1.5259
  515MOL0     H71032   6.336   2.725   1.761  1.3618 -0.5814 -1.9667
  515MOL0     H71033   6.495   2.649   1.589 -0.0238 -1.1234  0.2419
  515MOL0     H71034   6.659   2.284   1.637 -4.1155  0.7844  1.8364
  515MOL0     H71035   6.536   2.216   1.530 -0.6897  1.5278  2.0691
  515MOL0     H71036   6.686   2.302   1.327 -0.6889 -2.1563 -0.5445
  515MOL0     H71037   6.799   2.343   1.455 -1.9353  0.7328 -1.0818
  515MOL0     H71038   6.783   2.085   1.527  1.4572 -0.7528 -0.1188
  515MOL0     H71039   6.888   2.154   1.406  0.9754  0.8799  1.2224
  515MOL0     H71040   6.764   2.062   1.222  2.0679 -0.6014  0.5607
  515MOL0     H71041   6.629   2.020   1.323 -0.3961  0.8915 -1.3545
  515MOL0     H71042   6.897   1.887   1.295 -1.7078 -1.2314 -1.0924
  515MOL0     H71043   6.826   1.876   1.457  2.0659  0.6497 -0.3399
  515MOL0     H71044   6.671   1.797   1.209  0.7350  0.1946 -0.0715
  515MOL0     H71045   6.632   1.756   1.375  0.6560  0.0746  0.1400
  515MOL0     H71046   6.867   1.627   1.351  0.3171  1.7648  1.0103
  515MOL0     H71047   6.836   1.657   1.178  0.8045 -0.5120 -0.1046
  515MOL0     H71048   6.733   1.435   1.247  0.7047  1.3366 -0.8574
  515MOL0     H71049   6.606   1.540   1.224 -0.7645 -0.0251  1.7274
  515MOL0     H71050   6.458   2.247   1.736 -1.2092  0.2339  0.6931
  515MOL0     H71051   6.296   2.320   1.900  1.9176  0.7416  0.9555
  515MOL0     H71052   6.085   2.781   2.034 -1.7021  2.8178  1.1057
  515MOL0     H71053   5.972   2.911   2.191 -1.0862 -1.3266 -2.4100
  515MOL0     H71054   5.086   2.313   3.693 -1.0451  0.9091  2.1436
  515MOL0     H71055   5.084   2.360   3.921 -1.4313 -0.0318 -2.9297
  515MOL0     H71056   5.182   2.160   4.371  0.6171  0.5813 -0.4878
  515MOL0     H71057   5.200   2.210   4.594  2.8352 -2.8006 -2.3064
  515MOL0     H71058   5.492   2.494   4.698  0.9629 -1.0128 -0.4105
  515MOL0     H71059   5.432   2.472   4.859  2.1555  0.3883 -1.1533
  515MOL0     H71060   5.575   2.292   4.811  0.3717  2.2064 -1.4301
  515MOL0     H71061   5.474   2.248   4.677 -0.9068 -0.9779 -0.2010
  515MOL0     H71062   5.423   2.249   4.988  0.7154 -0.3963 -0.9602
  515MOL0     H71063   5.294   2.240   4.870 -0.2706 -0.7260 -1.9781
  515MOL0     H71064   5.409   2.022   4.982  1.4360 -3.1838 -0.9571
  515MOL0     H71065   5.521   2.040   4.852  0.9692 -0.9726  2.9680
  515MOL0     H71066   5.213   1.920   4.592 -1.8624  1.2742  1.0421
  515MOL0     H71067   5.325   2.608   4.533  2.4373 -0.6345 -0.7080
  515MOL0     H71068   5.260   2.606   4.179 -0.7041  1.5055 -0.0089
  515MOL0     H71069   5.311   2.699   4.326  1.5099 -0.2164  0.3058
  515MOL0     H71070   5.430   2.606   4.233  0.3569  0.3339  0.7186
  516MOL0     O71071   5.349   7.900   5.614  0.4025 -0.0908  0.4999
  516MOL0     C71072   5.392   7.819   5.539  0.1343 -0.5960  0.9232
  516MOL0     O71073   5.479   7.723   5.579 -0.0550 -0.2384  0.5993
  516MOL0     C71074   5.522   7.729   5.707  0.3542  0.4901 -0.9983
  516MOL0     C71075   5.469   7.659   5.816 -0.0317  0.9316 -0.2325
  516MOL0     C71076   5.506   7.686   5.948  0.3109  0.0090 -0.2822
  516MOL0     C71077   5.604   7.771   5.980  0.1090 -0.0482  0.7008
  516MOL0     O71078   5.656   7.805   6.098 -0.0929 -0.3941 -0.1629
  516MOL0     C71079   5.612   7.744   6.213  0.4992  0.0421  0.2317
  516MOL0     C71080   5.672   7.800   6.336 -0.0272 -0.3731  0.0283
  516MOL0     C71081   5.603   7.749   6.468 -0.6818  0.3253  0.3022
  516MOL0     C71082   5.668   7.822   6.589 -0.0685  0.0407 -0.7705
  516MOL0     C71083   5.609   7.762   6.720 -0.3168  0.2689  0.6027
  516MOL0     C71084   5.650   7.835   6.848  0.2240 -0.4066  0.3970
  516MOL0     C71085   5.792   7.794   6.882 -0.4760 -0.5992  0.1682
  516MOL0     C71086   5.882   7.904   6.939 -0.5569 -0.6918  0.4023
  516MOL0     N71087   5.911   8.013   6.848 -0.3873  0.0232 -0.1321
  516MOL0     C71088   5.952   8.009   6.717 -0.8415  0.4953  0.2067
  516MOL0     C71089   5.944   8.140   6.682  0.2784  0.6539  0.6658
  516MOL0     C71090   5.965   8.198   6.552 -1.0657  0.8096  0.2565
  516MOL0     C71091   5.884   8.134   6.439  0.5117  0.3146 -0.2451
  516MOL0     C71092   5.945   8.171   6.308 -1.1345 -0.1980  0.3584
  516MOL0     C71093   5.862   8.096   6.197  0.1011 -0.6993  0.6223
  516MOL0     O71094   5.726   8.140   6.189 -0.2353 -0.3109 -0.6765
  516MOL0     C71095   5.703   8.263   6.151  0.2371 -0.8057  0.3831
  516MOL0     C71096   5.781   8.347   6.072  0.8944  0.9593 -0.0370
  516MOL0     C71097   5.745   8.476   6.032 -0.1111  1.0280  0.1595
  516MOL0     C71098   5.848   8.561   5.952  0.0018 -0.4218  0.6840
  516MOL0     C71099   5.611   8.520   6.065  0.7157 -0.9271  0.7956
  516MOL0     C71100   5.548   8.649   6.024  0.3221  0.0327 -0.0812
  516MOL0     O71101   5.598   8.713   5.912  0.7769  0.9281  0.5273
  516MOL0     C71102   5.515   8.804   5.848 -0.9573  0.0418  0.3652
  516MOL0     C71103   5.451   8.782   5.728 -0.3826  0.3487  0.0066
  516MOL0     C71104   5.379   8.874   5.667 -0.3278 -0.2468  0.4459
  516MOL0     C71105   5.381   9.005   5.714  0.2234 -0.0350  0.3678
  516MOL0     O71106   5.310   9.099   5.647 -0.4816  0.9384 -0.2637
  516MOL0     C71107   5.313   9.088   5.504  0.0382 -0.1697  0.0898
  516MOL0     C71108   5.303   9.231   5.451 -0.3579 -0.0627 -0.2302
  516MOL0     C71109   5.176   9.300   5.513 -0.9222 -0.3263  0.3006
  516MOL0     C71110   5.161   9.442   5.466 -0.9468 -0.2484 -0.6656
  516MOL0     C71111   5.019   9.504   5.465  0.1392  0.0290 -0.4337
  516MOL0     C71112   4.927   9.436   5.366 -0.1183 -0.2411  0.3381
  516MOL0     C71113   4.880   9.506   5.240  0.9207  0.7143  0.1920
  516MOL0     C71114   4.741   9.446   5.201 -0.0086  0.2875 -0.7648
  516MOL0    Cl71115   4.726   9.254   5.215 -0.2314 -0.5363  0.3891
  516MOL0     C71116   5.446   9.030   5.839  0.0643 -1.0618  0.3418
  516MOL0     C71117   5.504   8.928   5.909  0.7960 -0.1132 -0.1371
  516MOL0     O71118   5.437   8.681   6.086 -0.3797 -0.0742 -0.5411
  516MOL0     C71119   5.526   8.432   6.130  0.1364 -0.5071  0.5287
  516MOL0     C71120   5.571   8.310   6.181  0.7229 -0.3837  0.4710
  516MOL0     N71121   5.887   8.214   6.780  0.0824  0.1146 -0.0319
  516MOL0     N71122   5.866   8.137   6.874 -0.0178  0.0044 -0.2126
  516MOL0     C71123   5.669   7.842   5.874 -1.7153 -0.3812  0.5785
  516MOL0     C71124   5.627   7.826   5.741  0.0782 -0.2942 -0.3712
  516MOL0     C71125   5.346   7.803   5.393 -0.2507 -0.4735 -0.7886
  516MOL0     C71126   5.428   7.737   5.297 -0.4251 -0.1051  0.4486
  516MOL0     C71127   5.386   7.728   5.162 -0.5399 -0.3855  0.0787
  516MOL0     C71128   5.256   7.781   5.133  0.0385  0.7321  0.2812
  516MOL0     O71129   5.219   7.760   4.995  0.0686  0.5274  0.2568
  516MOL0     C71130   5.102   7.830   4.945  0.5290 -0.8204 -0.4277
  516MOL0     C71131   5.102   7.789   4.794 -0.4973  0.3109  0.6920
  516MOL0     C71132   5.068   7.644   4.770  0.9848  0.7095 -0.0472
  516MOL0     C71133   5.135   7.570   4.649  0.3278 -1.0115  0.4528
  516MOL0     C71134   5.137   7.666   4.538 -0.0402  0.0143  0.8223
  516MOL0     C71135   5.160   7.748   4.451 -0.1557 -0.2504  0.7593
  516MOL0     C71136   5.175   7.839   5.232 -1.0395  0.1325 -0.5534
  516MOL0     C71137   5.221   7.856   5.358  0.1473  0.3203 -0.0929
  516MOL0     C71138   5.128   7.932   5.447  0.7376 -0.5160  0.3308
  516MOL0     H71139   5.392   7.585   5.800  1.9978 -2.3386  3.3834
  516MOL0     H71140   5.464   7.627   6.029  1.6814 -0.2583  0.2541
  516MOL0     H71141   5.638   7.638   6.208 -1.0790 -0.4462  1.5264
  516MOL0     H71142   5.504   7.751   6.225  0.7196  2.2255  1.5330
  516MOL0     H71143   5.777   7.772   6.329  0.2560  1.0630 -3.2558
  516MOL0     H71144   5.676   7.909   6.336  3.0033 -0.3740  1.3785
  516MOL0     H71145   5.496   7.764   6.456 -0.6434  1.0853  0.8688
  516MOL0     H71146   5.622   7.641   6.471 -0.3805  0.3255 -0.9448
  516MOL0     H71147   5.777   7.811   6.596 -0.2258 -0.7412  0.9309
  516MOL0     H71148   5.636   7.927   6.586  2.3192  0.8121 -1.5343
  516MOL0     H71149   5.643   7.659   6.733 -0.8356  0.1362  0.9098
  516MOL0     H71150   5.500   7.765   6.708 -0.3126  1.2019  0.7456
  516MOL0     H71151   5.635   7.943   6.835 -2.4801 -0.1605  4.0049
  516MOL0     H71152   5.581   7.802   6.927  1.5568  0.0855  1.8123
  516MOL0     H71153   5.854   7.761   6.799  3.3444  0.9745  2.1088
  516MOL0     H71154   5.788   7.711   6.953 -0.5819 -0.9086 -0.2001
  516MOL0     H71155   5.852   7.934   7.040  0.5839  1.0943  0.2700
  516MOL0     H71156   5.975   7.848   6.949 -1.5613 -2.4882  0.0385
  516MOL0     H71157   5.978   7.915   6.668  0.8734 -0.1251  2.1635
  516MOL0     H71158   6.074   8.189   6.542 -0.9533  0.5766  1.5441
  516MOL0     H71159   5.947   8.305   6.554 -2.7425  0.5888 -0.6062
  516MOL0     H71160   5.871   8.025   6.446  1.1273  0.3289  1.3181
  516MOL0     H71161   5.782   8.172   6.446  0.6956  0.7453  0.0889
  516MOL0     H71162   5.934   8.279   6.294 -3.4807 -0.6141 -1.9016
  516MOL0     H71163   6.051   8.146   6.299 -1.0385  0.1117  0.6174
  516MOL0     H71164   5.909   8.115   6.100  0.9238 -2.1659  0.7020
  516MOL0     H71165   5.864   7.990   6.224 -0.5443 -0.3168  2.2934
  516MOL0     H71166   5.880   8.320   6.038  1.5582  2.5618  0.5441
  516MOL0     H71167   5.857   8.665   5.983  2.6144 -1.0357  2.3639
  516MOL0     H71168   5.815   8.548   5.848  1.3519  0.9353  0.0379
  516MOL0     H71169   5.945   8.510   5.959 -0.7544 -1.9745  0.3579
  516MOL0     H71170   5.457   8.679   5.695 -2.1460  0.5256 -0.9750
  516MOL0     H71171   5.309   8.843   5.590  2.0916 -1.9982 -1.1979
  516MOL0     H71172   5.404   9.059   5.451 -0.9815  0.4647 -2.1715
  516MOL0     H71173   5.229   9.026   5.473  0.6919 -0.9306 -0.1803
  516MOL0     H71174   5.404   9.268   5.470  0.7376 -1.2265 -3.2345
  516MOL0     H71175   5.291   9.231   5.342  0.3102 -2.4387 -0.3579
  516MOL0     H71176   5.197   9.305   5.621  0.9499  0.7282 -0.0824
  516MOL0     H71177   5.089   9.235   5.497 -1.7513  0.7893  0.1465
  516MOL0     H71178   5.209   9.447   5.368 -1.5992  1.4166 -0.9385
  516MOL0     H71179   5.223   9.506   5.529 -0.3794 -1.6948  0.2892
  516MOL0     H71180   4.974   9.489   5.563 -1.2551  4.1269 -0.2678
  516MOL0     H71181   5.020   9.612   5.449 -0.0249 -0.0153 -0.7656
  516MOL0     H71182   4.842   9.419   5.433  0.1298 -1.3026  0.4017
  516MOL0     H71183   4.976   9.342   5.340 -2.0181 -1.6037  1.4556
  516MOL0     H71184   4.956   9.489   5.164  0.9792 -0.1355  0.4215
  516MOL0     H71185   4.879   9.612   5.265  2.0575  0.3142  2.1731
  516MOL0     H71186   4.723   9.476   5.098  1.1757  0.0376 -1.0651
  516MOL0     H71187   4.658   9.492   5.255 -0.8222 -2.0525  0.0825
  516MOL0     H71188   5.442   9.132   5.877 -2.3258  0.2518 -2.9896
  516MOL0     H71189   5.543   8.966   6.002 -0.5903  2.6778 -0.6077
  516MOL0     H71190   5.422   8.465   6.138  1.1854  3.5723 -0.4898
  516MOL0     H71191   5.515   8.238   6.240 -0.3521 -1.0287 -1.2639
  516MOL0     H71192   5.760   7.899   5.890 -0.9345 -1.4169 -0.0319
  516MOL0     H71193   5.675   7.896   5.673 -0.0697 -1.3378 -1.5922
  516MOL0     H71194   5.515   7.692   5.342 -2.2886 -1.8462  2.5562
  516MOL0     H71195   5.442   7.681   5.082 -0.2050  1.1904 -0.6512
  516MOL0     H71196   5.008   7.803   4.994 -0.0632  0.3466 -0.8644
  516MOL0     H71197   5.116   7.939   4.945 -1.1879 -0.5651  0.5414
  516MOL0     H71198   5.204   7.814   4.761 -0.8461 -1.1010 -1.6581
  516MOL0     H71199   5.036   7.851   4.733  3.4840  4.0551 -0.3017
  516MOL0     H71200   5.087   7.593   4.865 -2.0013  0.1441  0.3612
  516MOL0     H71201   4.960   7.635   4.753  1.1714 -0.0503 -0.9458
  516MOL0     H71202   5.082   7.476   4.634  1.9471 -2.0923  1.2592
  516MOL0     H71203   5.235   7.541   4.683  0.8324  1.7167  1.5437
  516MOL0     H71204   5.192   7.830   4.391  1.6464 -2.1358 -1.0006
  516MOL0     H71205   5.082   7.877   5.191 -2.8522 -2.1443  1.2045
  516MOL0     H71206   5.106   7.875   5.537 -3.7794  0.9656  0.4492
  516MOL0     H71207   5.170   8.029   5.475  1.2582 -1.1582  1.8740
  516MOL0     H71208   5.028   7.956   5.409 -0.9195 -0.8859  3.9960
  517MOL0     O71209   4.826   8.360   0.657 -0.1166 -0.0765  0.1995
  517MOL0     C71210   4.767   8.255   0.631 -0.0762  0.0501  0.4116
  517MOL0     O71211   4.653   8.250   0.572 -1.1350  0.2241 -0.5951
  517MOL0     C71212   4.600   8.354   0.500 -0.9944  0.4230  0.2473
  517MOL0     C71213   4.478   8.405   0.543 -0.4411  0.2048 -0.3953
  517MOL0     C71214   4.414   8.510   0.478  0.0723 -0.4514  0.1816
  517MOL0     C71215   4.489   8.580   0.387  0.5489 -0.0769  0.4975
  517MOL0     O71216   4.458   8.696   0.332 -0.0460 -0.7728 -0.7785
  517MOL0     C71217   4.357   8.779   0.398  0.5566 -0.0652 -0.6120
  517MOL0     C71218   4.315   8.897   0.307 -0.0792  0.2327  0.1684
  517MOL0     C71219   4.253   9.005   0.376  0.3131  0.1894 -0.1721
  517MOL0     C71220   4.197   9.101   0.275 -0.5131 -0.6118  1.0020
  517MOL0     C71221   4.101   9.208   0.330 -0.1227 -0.2744 -0.3711
  517MOL0     C71222   4.158   9.301   0.441 -0.0313  0.4312  0.5285
  517MOL0     C71223   4.305   9.360   0.427 -0.7226  0.5032  0.3075
  517MOL0     C71224   4.314   9.442   0.296  0.1404  0.2996  0.8589
  517MOL0     N71225   4.443   9.499   0.263 -0.4839 -1.0672  0.7373
  517MOL0     C71226   4.488   9.629   0.238  0.3579 -0.1404 -0.6853
  517MOL0     C71227   4.622   9.626   0.239 -0.0874 -1.3375 -0.3047
  517MOL0     C71228   4.702   9.745   0.216  0.3936 -0.5609  0.3012
  517MOL0     C71229   4.695   9.841   0.340 -0.5193  0.1520  0.6890
  517MOL0     C71230   4.777   9.973   0.324 -1.0018  0.7028 -0.2343
  517MOL0     C71231   4.743  10.060   0.199 -0.3414 -1.7942 -0.2725
  517MOL0     O71232   4.792  10.194   0.207  0.5086 -0.4265 -0.0677
  517MOL0     C71233   4.926  10.217   0.181  0.8896  0.1215  0.6964
  517MOL0     C71234   4.983  10.161   0.066 -0.3140  0.4363 -0.6807
  517MOL0     C71235   5.114  10.175   0.040  0.5520  0.8751  1.2464
  517MOL0     C71236   5.169  10.117  -0.080 -0.8039 -0.5260  1.1532
  517MOL0     C71237   5.192  10.256   0.122  0.4926 -0.5123 -0.0583
  517MOL0     C71238   5.341  10.275   0.105 -0.3791 -0.3175  0.0337
  517MOL0     O71239   5.412  10.239  -0.010 -0.5587 -0.1083 -0.3542
  517MOL0     C71240   5.550  10.263  -0.025  0.6646  0.2172 -0.8090
  517MOL0     C71241   5.640  10.269   0.076 -0.1201 -0.1286 -0.1747
  517MOL0     C71242   5.774  10.313   0.058 -0.4673  0.9142  0.6130
  517MOL0     C71243   5.816  10.339  -0.071  0.3468 -1.3799 -0.0682
  517MOL0     O71244   5.945  10.371  -0.108 -0.1314 -0.1326  0.0111
  517MOL0     C71245   6.042  10.356   0.003  0.2190  0.2736 -0.8863
  517MOL0     C71246   6.183  10.360  -0.054  0.1203  0.7063  0.4164
  517MOL0     C71247   6.242  10.508  -0.083 -0.1648 -0.1310  1.5701
  517MOL0     C71248   6.220  10.611   0.019 -0.6332  0.1953  0.7315
  517MOL0     C71249   6.309  10.740  -0.004 -0.0009  0.5368 -0.6859
  517MOL0     C71250   6.276  10.818  -0.125  0.3970 -0.2254  0.4006
  517MOL0     C71251   6.139  10.887  -0.113 -0.1884 -0.1242  0.6158
  517MOL0     C71252   6.085  10.923  -0.257  0.2051 -0.2588  0.2110
  517MOL0    Cl71253   5.987  11.078  -0.250  0.3736  0.6432  0.1740
  517MOL0     C71254   5.727  10.333  -0.178 -0.3210 -0.2838 -0.6835
  517MOL0     C71255   5.598  10.295  -0.157  0.1800 -0.6765 -0.8130
  517MOL0     O71256   5.394  10.345   0.199  0.4669 -0.1797  0.2658
  517MOL0     C71257   5.125  10.310   0.234 -0.1425  0.2070 -0.0940
  517MOL0     C71258   4.998  10.293   0.264 -0.6151  0.1617 -0.4889
  517MOL0     N71259   4.657   9.499   0.266  0.4005  0.6369 -0.5776
  517MOL0     N71260   4.553   9.417   0.268 -0.9284 -0.0451 -0.2431
  517MOL0     C71261   4.610   8.533   0.344  0.8940  0.8753 -0.2239
  517MOL0     C71262   4.666   8.411   0.392 -0.4909  0.1011 -1.2215
  517MOL0     C71263   4.833   8.132   0.677 -0.1956  0.9015  0.2647
  517MOL0     C71264   4.938   8.144   0.767 -0.4232  0.1927 -0.0285
  517MOL0     C71265   4.997   8.036   0.829 -1.1237  0.2230  0.6066
  517MOL0     C71266   4.952   7.909   0.812  0.4689 -0.6489  0.1993
  517MOL0     O71267   5.017   7.811   0.881 -0.3705  0.2071 -0.1669
  517MOL0     C71268   5.036   7.679   0.824 -0.3588 -0.2935 -0.1847
  517MOL0     C71269   5.137   7.688   0.713 -0.3701 -0.5182 -0.3850
  517MOL0     C71270   5.260   7.772   0.741  0.9856  0.6283  0.9364
  517MOL0     C71271   5.319   7.831   0.602  1.1370  0.4288 -0.3190
  517MOL0     C71272   5.445   7.884   0.634  0.4381 -0.2901  0.1286
  517MOL0     C71273   5.542   7.947   0.661 -0.4459 -0.7425  0.6050
  517MOL0     C71274   4.859   7.885   0.716  0.3698 -1.2789  0.5619
  517MOL0     C71275   4.795   7.997   0.649  0.5967 -0.1098 -0.7047
  517MOL0     C71276   4.672   7.962   0.563  0.4318  0.2274 -0.1782
  517MOL0     H71277   4.423   8.348   0.617 -0.8238 -0.8150 -1.4415
  517MOL0     H71278   4.312   8.539   0.502  0.6223  0.6773  1.2937
  517MOL0     H71279   4.397   8.828   0.487  0.4583  1.3509 -1.3208
  517MOL0     H71280   4.271   8.715   0.420  1.8906 -1.5116  0.5820
  517MOL0     H71281   4.409   8.943   0.274 -1.4966  2.7557 -0.5479
  517MOL0     H71282   4.265   8.863   0.216 -1.8606 -1.3161  1.6502
  517MOL0     H71283   4.170   8.955   0.427  0.1251 -0.9063 -1.5071
  517MOL0     H71284   4.317   9.055   0.450  4.2049 -2.2118 -1.6468
  517MOL0     H71285   4.282   9.151   0.227  0.0704 -0.6441  1.9742
  517MOL0     H71286   4.139   9.046   0.201 -0.4817 -0.8038  1.1190
  517MOL0     H71287   4.015   9.156   0.373  0.0403 -1.1978 -1.1456
  517MOL0     H71288   4.078   9.273   0.245  1.9197  0.3522 -0.4975
  517MOL0     H71289   4.082   9.379   0.448  1.3691  1.8301  0.5490
  517MOL0     H71290   4.158   9.248   0.537 -1.3347  0.2157  0.4339
  517MOL0     H71291   4.377   9.277   0.422 -0.7394  0.1478  3.6633
  517MOL0     H71292   4.343   9.421   0.509  4.6983  0.2032 -1.5559
  517MOL0     H71293   4.277   9.381   0.213 -0.1710  2.8584 -1.0044
  517MOL0     H71294   4.241   9.524   0.292 -2.0672 -1.6051 -0.7080
  517MOL0     H71295   4.428   9.719   0.243  2.4239  1.2314  1.3555
  517MOL0     H71296   4.664   9.804   0.132 -1.7033 -0.3633  1.3093
  517MOL0     H71297   4.801   9.706   0.193  0.1995 -0.0687 -1.5809
  517MOL0     H71298   4.589   9.862   0.357 -0.7067  1.8840 -1.9869
  517MOL0     H71299   4.718   9.783   0.430 -3.5623 -2.1242  0.1783
  517MOL0     H71300   4.775  10.031   0.417 -0.8978 -1.1980  1.0188
  517MOL0     H71301   4.882   9.948   0.307 -1.2473  1.1827 -2.8374
  517MOL0     H71302   4.771  10.017   0.103 -2.6575 -3.5275 -0.2751
  517MOL0     H71303   4.637  10.075   0.177  0.4550  3.1692 -1.9218
  517MOL0     H71304   4.924  10.100  -0.001  1.2804 -3.8102  1.4313
  517MOL0     H71305   5.240  10.036  -0.057 -0.3497 -0.7232 -0.7801
  517MOL0     H71306   5.205  10.190  -0.153 -0.3778 -0.6026  1.2819
  517MOL0     H71307   5.098  10.060  -0.141 -0.2583 -0.5911  0.5664
  517MOL0     H71308   5.607  10.266   0.180  1.2382  0.6104  0.2916
  517MOL0     H71309   5.840  10.337   0.140  1.1480 -2.8896  0.6074
  517MOL0     H71310   6.034  10.436   0.077 -0.3245 -0.5182 -0.0758
  517MOL0     H71311   6.026  10.265   0.060 -0.4990  0.6671 -0.4400
  517MOL0     H71312   6.248  10.310   0.019 -0.7701 -1.2347 -0.0655
  517MOL0     H71313   6.180  10.303  -0.147 -0.1955  0.9542  0.2738
  517MOL0     H71314   6.184  10.539  -0.170 -1.5621 -1.3673  2.0260
  517MOL0     H71315   6.344  10.490  -0.118 -0.7551  0.4925 -0.6035
  517MOL0     H71316   6.242  10.557   0.112  1.5907 -0.1394  0.0792
  517MOL0     H71317   6.117  10.646   0.028 -0.6452  0.5570 -0.5986
  517MOL0     H71318   6.281  10.808   0.078  0.5231  2.5724 -2.1420
  517MOL0     H71319   6.417  10.726   0.000 -0.0233 -0.1086 -1.8850
  517MOL0     H71320   6.285  10.747  -0.208  1.8561 -1.3896  1.4953
  517MOL0     H71321   6.345  10.900  -0.147  1.5079 -1.3857 -0.6353
  517MOL0     H71322   6.150  10.979  -0.056 -0.1889 -0.1158  0.6030
  517MOL0     H71323   6.061  10.829  -0.063 -0.3733  0.3658  0.9037
  517MOL0     H71324   6.025  10.842  -0.300 -0.7405  0.7031 -0.3430
  517MOL0     H71325   6.166  10.936  -0.328  1.1172 -2.3661  0.7861
  517MOL0     H71326   5.743  10.354  -0.283 -1.0518  2.2487 -0.3494
  517MOL0     H71327   5.535  10.296  -0.245  0.9104 -0.3261 -1.3399
  517MOL0     H71328   5.186  10.355   0.312 -0.2849  0.9228 -0.3850
  517MOL0     H71329   4.965  10.335   0.358  1.3325 -1.2679  0.9341
  517MOL0     H71330   4.659   8.582   0.260 -2.0241  2.8604 -0.9096
  517MOL0     H71331   4.757   8.362   0.360 -1.4419 -2.7916  0.1613
  517MOL0     H71332   4.976   8.242   0.793 -1.2060  0.3734  0.4872
  517MOL0     H71333   5.072   8.058   0.905  0.5896 -0.1706 -0.8780
  517MOL0     H71334   5.081   7.608   0.894  2.0576 -0.4753 -1.7774
  517MOL0     H71335   4.944   7.636   0.784  0.9906 -3.5146 -0.1027
  517MOL0     H71336   5.081   7.742   0.636 -2.9461 -0.5897  1.3237
  517MOL0     H71337   5.157   7.584   0.683  0.5322  0.2043 -2.5017
  517MOL0     H71338   5.233   7.855   0.806  2.5703  1.5885  0.4251
  517MOL0     H71339   5.342   7.719   0.791  2.4629 -2.8398 -4.3143
  517MOL0     H71340   5.258   7.912   0.561 -1.9157 -1.8471 -0.6673
  517MOL0     H71341   5.326   7.747   0.532 -2.7690 -2.9404  2.7376
  517MOL0     H71342   5.626   8.013   0.675 -1.1411  1.2774 -3.4223
  517MOL0     H71343   4.822   7.784   0.712 -0.7319 -0.8459 -1.2648
  517MOL0     H71344   4.677   8.003   0.461  0.1807  0.0480 -0.2634
  517MOL0     H71345   4.648   7.857   0.547  0.7178  0.5090 -3.2190
  517MOL0     H71346   4.582   8.005   0.609  0.6744 -0.2271  0.7398
  518MOL0     O71347   8.458   8.598   0.377 -0.1250 -0.2346  0.6150
  518MOL0     C71348   8.472   8.540   0.269  0.4868 -0.0105  0.1348
  518MOL0     O71349   8.423   8.587   0.160 -0.5897  1.1211 -0.2395
  518MOL0     C71350   8.339   8.690   0.153  0.1758 -0.2970 -0.2905
  518MOL0     C71351   8.198   8.674   0.174  0.9542 -0.0956 -1.3751
  518MOL0     C71352   8.101   8.770   0.141  0.2023  0.3037 -0.1239
  518MOL0     C71353   8.145   8.895   0.104  0.4445  0.4967  0.4712
  518MOL0     O71354   8.042   8.985   0.078 -0.3730 -0.1737  0.3952
  518MOL0     C71355   8.065   9.103  -0.000 -0.2215  0.6279  0.6569
  518MOL0     C71356   7.924   9.156  -0.046 -1.2480 -0.1608  1.1194
  518MOL0     C71357   7.909   9.253  -0.162 -0.1126 -0.0810 -0.6104
  518MOL0     C71358   7.890   9.188  -0.294  0.1245 -0.4338  0.0405
  518MOL0     C71359   7.859   9.272  -0.422 -0.1540 -1.1407 -0.4937
  518MOL0     C71360   7.857   9.204  -0.556 -0.5476  0.9453 -0.5063
  518MOL0     C71361   7.730   9.117  -0.568 -0.0524  0.3334  0.3813
  518MOL0     C71362   7.606   9.203  -0.567  0.4226 -0.0079  0.9932
  518MOL0     N71363   7.600   9.302  -0.681 -0.2844 -0.9433 -0.4049
  518MOL0     C71364   7.621   9.265  -0.805 -0.4879  0.2178 -0.2732
  518MOL0     C71365   7.595   9.376  -0.880 -0.9138 -0.5821  0.2286
  518MOL0     C71366   7.602   9.399  -1.025  0.1754  0.2726  0.4582
  518MOL0     C71367   7.513   9.307  -1.116 -0.9030  0.0778  0.2083
  518MOL0     C71368   7.556   9.162  -1.129  0.0629 -0.0073 -0.2031
  518MOL0     C71369   7.462   9.078  -1.214  0.1917  0.7795 -0.5742
  518MOL0     O71370   7.358   9.159  -1.265 -0.1812 -0.1811 -0.0650
  518MOL0     C71371   7.249   9.083  -1.313 -0.9990 -0.6860  0.1536
  518MOL0     C71372   7.245   8.948  -1.344  0.7266 -0.0233  0.3013
  518MOL0     C71373   7.135   8.882  -1.399  0.7271 -0.0757 -1.0235
  518MOL0     C71374   7.133   8.729  -1.401  0.2222 -0.6694 -0.3330
  518MOL0     C71375   7.018   8.958  -1.418  0.7041  0.3531  0.3397
  518MOL0     C71376   6.883   8.901  -1.451  0.0189 -0.3709  0.3109
  518MOL0     O71377   6.769   8.967  -1.392 -0.3880 -0.4577 -0.0657
  518MOL0     C71378   6.665   8.878  -1.389  0.1330 -0.3844 -0.7351
  518MOL0     C71379   6.554   8.886  -1.476 -0.2600 -0.3566  0.5524
  518MOL0     C71380   6.440   8.794  -1.472  0.2021 -0.2338 -0.6321
  518MOL0     C71381   6.445   8.687  -1.380 -0.5670 -0.6239  0.7330
  518MOL0     O71382   6.323   8.621  -1.362 -0.2333  0.6315 -0.2361
  518MOL0     C71383   6.323   8.555  -1.239 -0.2074 -0.1995  0.1138
  518MOL0     C71384   6.185   8.521  -1.201 -0.0068  0.9620  1.7210
  518MOL0     C71385   6.193   8.441  -1.073 -0.6861 -0.1723  0.0286
  518MOL0     C71386   6.057   8.403  -1.024 -1.0384  0.4464 -0.5920
  518MOL0     C71387   6.062   8.380  -0.869  0.0213 -0.3894  0.3625
  518MOL0     C71388   5.928   8.342  -0.803 -0.1806  0.3604 -0.4097
  518MOL0     C71389   5.941   8.272  -0.666  0.5744  0.5371  0.5589
  518MOL0     C71390   5.910   8.113  -0.664  0.2656  0.7335  0.1883
  518MOL0    Cl71391   6.054   8.010  -0.704 -0.6602 -0.0306 -0.2439
  518MOL0     C71392   6.561   8.674  -1.298 -0.4667 -0.0206 -0.7547
  518MOL0     C71393   6.661   8.773  -1.296  0.1214 -0.2873  1.0218
  518MOL0     O71394   6.874   8.821  -1.539  0.0823  0.0272 -0.4400
  518MOL0     C71395   7.025   9.095  -1.409  0.3917 -0.5814 -0.5258
  518MOL0     C71396   7.145   9.162  -1.363 -0.0569  0.4229  0.3285
  518MOL0     N71397   7.568   9.473  -0.788  0.8082 -0.3881 -0.3136
  518MOL0     N71398   7.559   9.430  -0.672  0.3841  0.0371 -0.4644
  518MOL0     C71399   8.285   8.915   0.085  0.7449  0.0641  0.3124
  518MOL0     C71400   8.377   8.820   0.118 -0.9063  0.9642  0.7345
  518MOL0     C71401   8.550   8.415   0.263 -0.2776 -0.6560 -0.2900
  518MOL0     C71402   8.640   8.387   0.371  0.6010 -0.5109 -0.8796
  518MOL0     C71403   8.729   8.273   0.351 -0.5587 -0.2819  0.3774
  518MOL0     C71404   8.719   8.183   0.242 -0.0945 -0.1047  0.5808
  518MOL0     O71405   8.799   8.070   0.234 -0.4258 -0.4541 -0.2294
  518MOL0     C71406   8.842   8.018   0.363 -0.0841 -0.0037  0.0669
  518MOL0     C71407   8.944   7.900   0.353  0.6249 -0.3792  0.1697
  518MOL0     C71408   9.082   7.946   0.296 -0.5015 -0.7419  0.2130
  518MOL0     C71409   9.083   7.959   0.135 -0.8901  1.2497 -0.6938
  518MOL0     C71410   9.216   7.991   0.084 -1.2305 -0.3943 -0.1882
  518MOL0     C71411   9.332   8.021   0.040  1.1363  0.1245 -0.4652
  518MOL0     C71412   8.626   8.208   0.141  0.5702  0.0350  0.3701
  518MOL0     C71413   8.538   8.320   0.151 -0.0835  0.2368 -0.3422
  518MOL0     C71414   8.423   8.332   0.046 -0.1651  0.0692 -0.0715
  518MOL0     H71415   8.168   8.580   0.220  0.9482  0.5904  0.0702
  518MOL0     H71416   7.993   8.756   0.140 -0.1025  2.3013 -2.1107
  518MOL0     H71417   8.113   9.083  -0.097 -1.1872  3.1307 -0.4394
  518MOL0     H71418   8.130   9.176   0.048  3.2976 -3.0545  2.0658
  518MOL0     H71419   7.857   9.074  -0.071  1.7956 -3.1711  2.1519
  518MOL0     H71420   7.892   9.208   0.045  0.1125  1.4842  0.7229
  518MOL0     H71421   7.829   9.322  -0.134  1.2127  1.5633 -0.6797
  518MOL0     H71422   7.996   9.320  -0.159 -0.3521  0.2163  1.7271
  518MOL0     H71423   7.985   9.137  -0.314 -0.4756 -2.4319  1.8263
  518MOL0     H71424   7.815   9.108  -0.292  0.7403 -1.0742 -1.3609
  518MOL0     H71425   7.931   9.354  -0.422 -1.2003 -0.1575  1.5112
  518MOL0     H71426   7.766   9.324  -0.395  0.0380 -1.0889  0.0605
  518MOL0     H71427   7.866   9.277  -0.637 -2.2934  0.2688 -1.3809
  518MOL0     H71428   7.934   9.128  -0.567 -2.5923 -1.4313  0.5474
  518MOL0     H71429   7.723   9.045  -0.486 -1.4611  0.3217  0.2786
  518MOL0     H71430   7.730   9.057  -0.660 -1.8564 -1.1495  1.2796
  518MOL0     H71431   7.517   9.140  -0.578 -0.9579  1.9649  0.3853
  518MOL0     H71432   7.608   9.256  -0.472  4.6057  1.0831  0.5044
  518MOL0     H71433   7.657   9.168  -0.837  0.8370  0.2224  1.1219
  518MOL0     H71434   7.707   9.396  -1.055 -0.0076  0.0102 -0.1850
  518MOL0     H71435   7.569   9.501  -1.048 -1.7700  0.2522  2.7389
  518MOL0     H71436   7.412   9.304  -1.074 -1.6375 -1.1607 -1.5347
  518MOL0     H71437   7.507   9.348  -1.217  1.6895  0.4201  0.1363
  518MOL0     H71438   7.659   9.169  -1.166 -0.4143  3.1630 -1.2749
  518MOL0     H71439   7.570   9.120  -1.029 -0.8309  0.8775  0.3149
  518MOL0     H71440   7.514   9.012  -1.284 -4.7247 -0.7288 -3.2648
  518MOL0     H71441   7.423   9.011  -1.137  0.7698 -0.1972 -1.1130
  518MOL0     H71442   7.333   8.887  -1.329  0.9613 -0.4964 -2.3830
  518MOL0     H71443   7.239   8.703  -1.412  0.9598  1.3832  1.2720
  518MOL0     H71444   7.080   8.702  -1.492 -0.0387 -0.1542 -0.3380
  518MOL0     H71445   7.076   8.674  -1.326 -0.1625  1.2817  0.8738
  518MOL0     H71446   6.569   8.978  -1.532  1.1082 -0.3404  0.9006
  518MOL0     H71447   6.357   8.819  -1.537  0.8754  0.7542 -1.1355
  518MOL0     H71448   6.382   8.464  -1.243 -0.5886 -0.7348  3.5722
  518MOL0     H71449   6.369   8.619  -1.164  0.7631  1.7747 -2.0250
  518MOL0     H71450   6.130   8.615  -1.192 -2.9687  0.7495 -6.4379
  518MOL0     H71451   6.121   8.463  -1.268  2.1054 -1.2460  1.4666
  518MOL0     H71452   6.235   8.507  -0.996  3.3102 -1.0669 -1.1188
  518MOL0     H71453   6.262   8.356  -1.071  2.2937  2.0580 -0.4106
  518MOL0     H71454   6.014   8.317  -1.077 -0.4498  0.3033 -0.8397
  518MOL0     H71455   5.993   8.490  -1.036  2.6923  3.6420  0.6662
  518MOL0     H71456   6.133   8.297  -0.864  0.6029 -0.2366 -2.9283
  518MOL0     H71457   6.106   8.467  -0.820 -0.6688  0.0451  0.2150
  518MOL0     H71458   5.876   8.288  -0.882 -1.0302  1.1485 -0.4098
  518MOL0     H71459   5.867   8.432  -0.791  0.7781  1.1938 -1.5191
  518MOL0     H71460   5.878   8.325  -0.595 -0.8089 -0.3738  0.0567
  518MOL0     H71461   6.045   8.279  -0.633  0.7422 -2.6017  0.9990
  518MOL0     H71462   5.826   8.099  -0.731 -0.7271  2.6881  0.9589
  518MOL0     H71463   5.868   8.088  -0.566  1.8978  0.5607  0.8884
  518MOL0     H71464   6.566   8.597  -1.221 -2.5579 -0.5314 -1.0653
  518MOL0     H71465   6.745   8.757  -1.229  0.2928 -2.7009  0.3270
  518MOL0     H71466   6.930   9.149  -1.412  1.6693  1.9926  1.2612
  518MOL0     H71467   7.154   9.270  -1.359 -1.9428  0.6262 -0.0452
  518MOL0     H71468   8.318   9.014   0.053 -1.3787  0.5798 -0.3977
  518MOL0     H71469   8.481   8.847   0.102 -1.1257  1.1456 -0.5076
  518MOL0     H71470   8.637   8.448   0.461 -4.2571 -0.1718 -0.9832
  518MOL0     H71471   8.799   8.267   0.433  1.0187  0.8857 -0.8250
  518MOL0     H71472   8.904   8.089   0.419  2.5521  0.3446 -2.9348
  518MOL0     H71473   8.760   7.983   0.425 -0.3678  4.2928  2.4984
  518MOL0     H71474   8.896   7.834   0.280  0.8195 -0.6087  0.2474
  518MOL0     H71475   8.957   7.840   0.443  0.2474 -0.4122  0.2031
  518MOL0     H71476   9.103   8.044   0.342  0.0436 -0.0773 -1.3961
  518MOL0     H71477   9.146   7.866   0.335  1.2786 -0.5429 -2.1204
  518MOL0     H71478   9.017   8.038   0.098  0.2897  1.1538 -3.2510
  518MOL0     H71479   9.043   7.864   0.098 -1.3145  1.0065  0.3401
  518MOL0     H71480   9.424   8.042  -0.009  1.2127 -0.6966 -0.7001
  518MOL0     H71481   8.620   8.146   0.052 -2.6311  0.1263  0.3903
  518MOL0     H71482   8.388   8.240  -0.002 -1.2873  1.7791 -2.7883
  518MOL0     H71483   8.336   8.373   0.098 -0.3762  0.4609 -0.7186
  518MOL0     H71484   8.445   8.394  -0.042 -0.7618  0.6381  0.1720
  519MOL0     O71485   4.438   3.378   3.415 -0.7337  0.0073  0.0415
  519MOL0     C71486   4.403   3.453   3.513 -0.8201 -0.1628  0.7080
  519MOL0     O71487   4.444   3.429   3.640  0.1929  0.0537  0.2359
  519MOL0     C71488   4.515   3.309   3.654  0.3954  0.2674 -0.7284
  519MOL0     C71489   4.476   3.185   3.608 -0.4128  0.2952 -0.3349
  519MOL0     C71490   4.562   3.077   3.631 -0.4907 -0.2469 -1.2515
  519MOL0     C71491   4.675   3.088   3.724 -0.3670  1.0100  0.1365
  519MOL0     O71492   4.750   2.979   3.773 -1.0323 -0.0502 -0.6322
  519MOL0     C71493   4.688   2.850   3.773 -0.2942  0.4879 -0.3127
  519MOL0     C71494   4.753   2.730   3.845  0.1420 -0.7519  0.8610
  519MOL0     C71495   4.861   2.671   3.740  0.4233 -1.1562  0.5494
  519MOL0     C71496   4.792   2.557   3.671 -0.2323 -0.3581  0.7740
  519MOL0     C71497   4.872   2.499   3.551  0.2709  0.5876  0.1930
  519MOL0     C71498   4.792   2.402   3.454 -0.5035  1.6678  0.8147
  519MOL0     C71499   4.706   2.293   3.523 -0.0722  0.4081  0.2167
  519MOL0     C71500   4.656   2.192   3.422 -0.0191  0.3357 -0.4487
  519MOL0     N71501   4.561   2.104   3.500 -0.1659 -0.7947 -0.4972
  519MOL0     C71502   4.592   1.989   3.583 -0.5476 -0.3552 -0.3002
  519MOL0     C71503   4.473   1.961   3.625 -0.0469 -0.1032 -0.6681
  519MOL0     C71504   4.444   1.831   3.702 -0.1714  0.1660 -1.0582
  519MOL0     C71505   4.500   1.834   3.855  0.8507 -0.2010  0.9824
  519MOL0     C71506   4.425   1.937   3.944  0.0344 -0.4350 -0.4165
  519MOL0     C71507   4.286   1.880   3.993 -1.1758 -0.6107 -0.5164
  519MOL0     O71508   4.191   1.990   4.035 -0.1793  0.5584 -0.6170
  519MOL0     C71509   4.064   1.947   4.063 -0.4126 -1.0311 -0.3799
  519MOL0     C71510   4.007   1.826   4.024  0.1444 -0.0723  0.6289
  519MOL0     C71511   3.875   1.773   4.050  1.2186  0.0460 -0.4770
  519MOL0     C71512   3.833   1.646   3.992 -0.1367 -0.0133  0.0218
  519MOL0     C71513   3.795   1.855   4.130  0.4709  0.4909 -1.0406
  519MOL0     C71514   3.644   1.832   4.185 -0.2394  0.3077  0.5676
  519MOL0     O71515   3.563   1.739   4.128 -0.0465 -0.3292  0.5414
  519MOL0     C71516   3.429   1.762   4.150 -0.0329 -0.2547 -0.4419
  519MOL0     C71517   3.352   1.872   4.104 -0.0738 -0.1033 -0.7500
  519MOL0     C71518   3.216   1.878   4.135 -0.3702  0.0785  0.2404
  519MOL0     C71519   3.153   1.771   4.191 -0.3079 -0.2469 -0.5147
  519MOL0     O71520   3.030   1.769   4.225  0.5494 -0.5920  0.3106
  519MOL0     C71521   2.991   1.860   4.334  0.6806 -1.0622  0.0858
  519MOL0     C71522   2.910   1.985   4.277  0.2022 -0.1842  0.7077
  519MOL0     C71523   2.890   2.098   4.382  0.4508  1.6623 -0.3187
  519MOL0     C71524   2.866   2.228   4.304  0.5456 -0.2780 -0.2094
  519MOL0     C71525   2.848   2.338   4.396  0.3456 -0.2291  0.2235
  519MOL0     C71526   2.794   2.465   4.334  0.8952  0.1608  0.1317
  519MOL0     C71527   2.764   2.576   4.439 -0.7443 -0.2746 -0.5243
  519MOL0     C71528   2.688   2.694   4.378 -0.9984  0.3942 -0.1910
  519MOL0    Cl71529   2.572   2.757   4.502  0.1651 -0.1019  0.0273
  519MOL0     C71530   3.216   1.652   4.211  0.5993 -0.0979  0.3036
  519MOL0     C71531   3.356   1.655   4.212  0.1792 -0.3279 -0.1444
  519MOL0     O71532   3.601   1.909   4.276  0.0401 -0.3402 -0.0102
  519MOL0     C71533   3.856   1.977   4.178 -1.2492 -0.1177 -0.2543
  519MOL0     C71534   3.987   2.019   4.150  0.5888 -0.1673  0.7165
  519MOL0     N71535   4.374   2.053   3.578 -0.0802 -0.2124 -0.5243
  519MOL0     N71536   4.425   2.139   3.506  0.3989 -0.3991  0.6137
  519MOL0     C71537   4.708   3.210   3.770  1.1114  0.1956  0.2815
  519MOL0     C71538   4.634   3.326   3.735 -1.4488 -0.0589  0.1355
  519MOL0     C71539   4.316   3.571   3.479  0.0595 -0.4354 -0.4538
  519MOL0     C71540   4.320   3.625   3.352  0.4119 -0.0130 -0.8702
  519MOL0     C71541   4.225   3.716   3.312  0.1899  0.0257  0.2269
  519MOL0     C71542   4.137   3.768   3.404 -0.3164  0.8963 -0.3559
  519MOL0     O71543   4.036   3.855   3.371  0.6100 -0.5257 -0.2219
  519MOL0     C71544   3.952   3.824   3.255 -0.6892 -0.2190 -0.3195
  519MOL0     C71545   3.852   3.703   3.284 -0.1059  0.6312  0.9330
  519MOL0     C71546   3.726   3.741   3.354 -0.4982  0.6996  0.0300
  519MOL0     C71547   3.735   3.755   3.501 -0.2211 -0.7198 -0.0521
  519MOL0     C71548   3.785   3.631   3.561  0.0282 -0.2623  0.0220
  519MOL0     C71549   3.831   3.547   3.633 -0.6734 -0.7591 -0.3956
  519MOL0     C71550   4.146   3.730   3.532 -0.8749  0.0399 -0.4533
  519MOL0     C71551   4.236   3.633   3.580 -0.2449 -0.0227 -0.2469
  519MOL0     C71552   4.221   3.583   3.716 -0.0992  0.1317 -0.4816
  519MOL0     H71553   4.391   3.172   3.541 -0.4100  0.4615 -0.3715
  519MOL0     H71554   4.537   2.978   3.594  0.2349 -1.2279  0.7509
  519MOL0     H71555   4.688   2.831   3.665  1.5958  0.2294 -0.3076
  519MOL0     H71556   4.587   2.849   3.812 -0.6012  1.2959 -1.0397
  519MOL0     H71557   4.812   2.750   3.934 -0.0255 -2.2261  1.3289
  519MOL0     H71558   4.683   2.648   3.859 -1.5946  0.4612 -0.3024
  519MOL0     H71559   4.891   2.740   3.661 -3.1813 -1.9885 -1.7898
  519MOL0     H71560   4.945   2.635   3.801  1.2581 -2.4185 -1.2498
  519MOL0     H71561   4.770   2.478   3.743 -2.8461 -0.3996  0.0194
  519MOL0     H71562   4.699   2.587   3.623  0.6684 -0.3201 -1.0197
  519MOL0     H71563   4.955   2.448   3.601  0.9948  2.3315  0.8570
  519MOL0     H71564   4.926   2.580   3.503  2.6118 -0.2902  1.1915
  519MOL0     H71565   4.724   2.456   3.387 -2.9247  0.9174  2.5221
  519MOL0     H71566   4.870   2.345   3.402  0.9314  3.5076  0.8585
  519MOL0     H71567   4.628   2.337   3.586 -0.3009 -0.5116  0.6002
  519MOL0     H71568   4.768   2.234   3.592  0.4441  2.7743  1.8782
  519MOL0     H71569   4.604   2.253   3.347  0.4889  1.6429  0.2492
  519MOL0     H71570   4.738   2.142   3.370 -0.0287  3.1031 -3.4589
  519MOL0     H71571   4.680   1.926   3.585 -0.7508 -0.7437 -1.9804
  519MOL0     H71572   4.478   1.746   3.642 -1.8251 -1.2375 -0.1019
  519MOL0     H71573   4.335   1.822   3.709 -0.1799  1.3277  2.5552
  519MOL0     H71574   4.487   1.736   3.900  0.0894 -0.5422  0.0615
  519MOL0     H71575   4.603   1.869   3.859  0.7012  0.2695  0.8267
  519MOL0     H71576   4.485   1.954   4.034 -1.4864  0.2565  0.4985
  519MOL0     H71577   4.392   2.023   3.885  1.4643  0.0410 -0.5641
  519MOL0     H71578   4.244   1.808   3.922 -0.6972 -0.7444 -0.6714
  519MOL0     H71579   4.299   1.827   4.088  1.7475  1.3515  0.3325
  519MOL0     H71580   4.047   1.774   3.938  1.0375 -0.1269  1.0638
  519MOL0     H71581   3.818   1.569   4.068  0.9541  1.3482  1.6941
  519MOL0     H71582   3.898   1.615   3.909 -0.1844  2.1073 -0.8751
  519MOL0     H71583   3.739   1.661   3.939 -0.1403  0.7384  0.2412
  519MOL0     H71584   3.417   1.946   4.057  2.1076 -2.5098 -1.7664
  519MOL0     H71585   3.169   1.970   4.102  0.0978  0.9384  1.8410
  519MOL0     H71586   2.928   1.802   4.402 -1.6798  0.6875 -0.4697
  519MOL0     H71587   3.077   1.904   4.385 -0.1336  0.9464 -0.1903
  519MOL0     H71588   2.964   2.036   4.196 -1.2157 -0.2213 -0.2857
  519MOL0     H71589   2.814   1.965   4.231  1.8399 -2.7709 -1.8989
  519MOL0     H71590   2.977   2.108   4.448 -0.0721 -0.8288  0.8832
  519MOL0     H71591   2.809   2.083   4.454  0.9520  3.7610  0.7693
  519MOL0     H71592   2.778   2.212   4.240 -0.6093  0.0858  1.2172
  519MOL0     H71593   2.963   2.248   4.259  1.6081  0.7330  2.3300
  519MOL0     H71594   2.781   2.310   4.478 -1.2823  0.7011 -0.7453
  519MOL0     H71595   2.945   2.361   4.441  0.2618  0.7428 -0.0767
  519MOL0     H71596   2.703   2.433   4.283  1.0093 -0.0806  0.0777
  519MOL0     H71597   2.867   2.497   4.259  0.6419 -0.2217 -0.2814
  519MOL0     H71598   2.853   2.622   4.481 -1.4370  1.1091 -0.5146
  519MOL0     H71599   2.708   2.533   4.523  4.8693 -1.4859  3.1094
  519MOL0     H71600   2.630   2.673   4.287 -0.4016  1.5076 -0.8632
  519MOL0     H71601   2.764   2.772   4.364 -1.3951  0.8524  0.1774
  519MOL0     H71602   3.147   1.574   4.239 -0.3208  0.2245 -1.0126
  519MOL0     H71603   3.424   1.574   4.238  3.2593  2.1687  0.2754
  519MOL0     H71604   3.797   2.046   4.237 -1.1332  0.7458 -1.1199
  519MOL0     H71605   4.043   2.094   4.205  0.8335 -2.2360  3.4900
  519MOL0     H71606   4.795   3.228   3.832  2.4251 -0.5711 -1.2517
  519MOL0     H71607   4.663   3.423   3.771 -1.6584  0.7897 -1.8364
  519MOL0     H71608   4.387   3.596   3.272  2.8126 -1.7347  1.5720
  519MOL0     H71609   4.237   3.746   3.208 -0.0522 -1.6058 -0.2952
  519MOL0     H71610   3.892   3.908   3.219 -2.4526 -2.0601 -1.9284
  519MOL0     H71611   4.012   3.790   3.171  0.9004  2.0869 -0.1891
  519MOL0     H71612   3.898   3.620   3.338 -1.7551 -2.0876 -1.5275
  519MOL0     H71613   3.831   3.671   3.181  0.4253  1.3050  0.6103
  519MOL0     H71614   3.686   3.833   3.310 -0.2825  0.2094 -1.2253
  519MOL0     H71615   3.647   3.669   3.328  0.8155 -1.4851  1.7596
  519MOL0     H71616   3.637   3.782   3.541 -0.3574  2.0221 -1.9214
  519MOL0     H71617   3.799   3.842   3.521  0.9743 -0.7375 -3.2156
  519MOL0     H71618   3.886   3.482   3.699  1.6469  0.1256 -1.3651
  519MOL0     H71619   4.076   3.782   3.597  0.2628  0.7696  0.2283
  519MOL0     H71620   4.200   3.476   3.725 -1.4995  0.5344  2.1707
  519MOL0     H71621   4.313   3.611   3.769  0.7501 -4.2589  0.7154
  519MOL0     H71622   4.144   3.646   3.762  1.3863  2.1800 -0.6462
  520MOL0     O71623   6.566   3.999   2.445 -0.4674  0.0110 -0.2842
  520MOL0     C71624   6.672   3.997   2.513  0.7255  0.6154 -0.3395
  520MOL0     O71625   6.729   4.105   2.570 -0.4112  0.4215  0.9040
  520MOL0     C71626   6.676   4.230   2.552  0.3161 -0.2181  0.2393
  520MOL0     C71627   6.641   4.307   2.663  0.2812 -0.3533  0.4162
  520MOL0     C71628   6.603   4.441   2.647  0.2158  0.1794  0.3122
  520MOL0     C71629   6.597   4.501   2.518 -0.0475  0.6597  0.1902
  520MOL0     O71630   6.552   4.628   2.485  0.3203  0.7443 -0.6045
  520MOL0     C71631   6.467   4.692   2.585 -0.8245 -0.1442 -0.6264
  520MOL0     C71632   6.448   4.844   2.556 -0.0435 -0.3772  0.4030
  520MOL0     C71633   6.331   4.873   2.459 -0.0968 -0.6720  0.5102
  520MOL0     C71634   6.326   4.782   2.342 -0.0910 -0.0835  0.3714
  520MOL0     C71635   6.217   4.828   2.247  0.0886  0.1627 -0.2302
  520MOL0     C71636   6.230   4.744   2.112  0.1877  0.6582  0.4542
  520MOL0     C71637   6.113   4.787   2.011  0.0595  0.2169  0.2828
  520MOL0     C71638   6.076   4.693   1.903 -0.2320 -0.2766 -0.1834
  520MOL0     N71639   6.173   4.696   1.790 -0.7062  0.9167  0.3792
  520MOL0     C71640   6.292   4.623   1.784 -1.2688  0.8861  0.2530
  520MOL0     C71641   6.348   4.652   1.669  0.9050 -0.5021 -0.5250
  520MOL0     C71642   6.483   4.627   1.632  0.5408  0.3366  0.0011
  520MOL0     C71643   6.567   4.750   1.591 -0.1503 -0.0716  0.7492
  520MOL0     C71644   6.719   4.722   1.584 -0.1766  0.0057 -0.3428
  520MOL0     C71645   6.753   4.663   1.454 -0.1953 -0.0261 -0.2929
  520MOL0     O71646   6.698   4.535   1.423 -0.6346  0.1193 -0.1332
  520MOL0     C71647   6.728   4.425   1.502  0.9158 -0.6970  0.5827
  520MOL0     C71648   6.648   4.313   1.485 -1.2635  0.2228  0.8136
  520MOL0     C71649   6.664   4.197   1.560 -0.1821  0.4854  0.3029
  520MOL0     C71650   6.583   4.073   1.524 -0.5656 -0.0383  0.3094
  520MOL0     C71651   6.778   4.183   1.647  0.2082  0.2169  1.0921
  520MOL0     C71652   6.816   4.071   1.724 -0.2208 -0.3860 -0.1573
  520MOL0     O71653   6.932   4.073   1.794  1.0375  0.1190 -0.0806
  520MOL0     C71654   7.004   3.959   1.834  0.1573  0.1947 -0.0351
  520MOL0     C71655   6.987   3.816   1.812  0.3192 -0.8204  1.2679
  520MOL0     C71656   7.071   3.722   1.858 -0.0306  0.6132 -0.5947
  520MOL0     C71657   7.189   3.759   1.930  0.1442 -0.2152  0.3644
  520MOL0     O71658   7.274   3.660   1.982 -0.7894 -0.7829 -0.1762
  520MOL0     C71659   7.397   3.702   2.035 -0.4020  0.0768 -0.0797
  520MOL0     C71660   7.465   3.586   2.088  0.0133 -0.0667  1.0342
  520MOL0     C71661   7.614   3.593   2.133  0.8650  0.6314 -0.0689
  520MOL0     C71662   7.663   3.471   2.215 -0.1735 -0.1217 -0.2917
  520MOL0     C71663   7.819   3.451   2.201  0.6644  0.0883  0.5490
  520MOL0     C71664   7.888   3.554   2.295  0.5412  1.1570  0.5082
  520MOL0     C71665   8.043   3.508   2.308  0.6129  0.2211 -0.4087
  520MOL0     C71666   8.063   3.388   2.391 -0.1170 -0.7920  1.1876
  520MOL0    Cl71667   7.981   3.426   2.554  0.4451  0.5248 -0.1138
  520MOL0     C71668   7.220   3.900   1.938  0.0170  0.3984  0.9187
  520MOL0     C71669   7.124   3.989   1.892 -0.3926  0.4300 -0.1066
  520MOL0     O71670   6.745   3.970   1.709  1.0875  0.9086  0.3747
  520MOL0     C71671   6.856   4.296   1.656 -0.9208  0.6118 -0.3250
  520MOL0     C71672   6.840   4.412   1.585  0.1357  0.8409 -0.2007
  520MOL0     N71673   6.264   4.730   1.588  0.0249 -0.0477 -0.1972
  520MOL0     N71674   6.171   4.767   1.665 -0.6016  1.3009 -0.1531
  520MOL0     C71675   6.629   4.417   2.411  0.3392 -0.3062 -1.1240
  520MOL0     C71676   6.670   4.292   2.428  1.1438  0.0335  0.6593
  520MOL0     C71677   6.729   3.867   2.534  0.8568  0.4243 -0.4656
  520MOL0     C71678   6.669   3.761   2.466  0.3825 -0.5828 -0.1434
  520MOL0     C71679   6.702   3.630   2.482  0.6675 -0.4362  0.3468
  520MOL0     C71680   6.814   3.598   2.553  0.3371 -0.0768 -0.3194
  520MOL0     O71681   6.858   3.462   2.558  0.1805  0.1176  0.0332
  520MOL0     C71682   6.804   3.388   2.666  0.3008 -0.0889  0.5030
  520MOL0     C71683   6.923   3.358   2.746 -0.3495 -0.5270  0.7641
  520MOL0     C71684   6.940   3.214   2.801 -0.2848  0.1884  0.2926
  520MOL0     C71685   7.014   3.215   2.940  0.3693  0.2022  0.6877
  520MOL0     C71686   6.995   3.082   3.002 -1.0556  0.6198  0.5128
  520MOL0     C71687   6.975   2.971   3.038  0.0773  0.5008  0.1290
  520MOL0     C71688   6.885   3.698   2.625 -0.1281  0.5448 -0.9684
  520MOL0     C71689   6.828   3.830   2.629 -1.0809 -0.4690 -1.3773
  520MOL0     C71690   6.885   3.933   2.727 -0.1501  0.0509 -0.6285
  520MOL0     H71691   6.661   4.260   2.758 -2.3453  0.4304  1.4457
  520MOL0     H71692   6.579   4.498   2.736  0.6218  0.7357  0.0744
  520MOL0     H71693   6.514   4.699   2.684 -1.0064 -0.6012 -0.5003
  520MOL0     H71694   6.369   4.645   2.595 -0.7565 -0.8266 -2.6698
  520MOL0     H71695   6.410   4.892   2.647 -3.3512 -1.3754 -0.2998
  520MOL0     H71696   6.542   4.895   2.534 -0.5457 -0.2005 -1.5430
  520MOL0     H71697   6.233   4.898   2.501 -0.5053  5.8019 -3.0262
  520MOL0     H71698   6.355   4.970   2.416  1.4671  0.2314  3.2018
  520MOL0     H71699   6.422   4.772   2.292 -0.1472  2.6991 -0.4686
  520MOL0     H71700   6.307   4.683   2.385  1.8269 -0.6984 -0.1311
  520MOL0     H71701   6.244   4.930   2.220 -1.3795  0.3285 -1.2198
  520MOL0     H71702   6.114   4.816   2.284 -0.1648 -1.7211 -1.3738
  520MOL0     H71703   6.329   4.766   2.071 -0.3278 -1.1788 -2.0227
  520MOL0     H71704   6.231   4.638   2.137  1.1447  0.5556  0.0233
  520MOL0     H71705   6.135   4.879   1.957  0.4855 -1.6796 -3.0369
  520MOL0     H71706   6.031   4.804   2.082 -0.3164  0.5865 -0.2271
  520MOL0     H71707   6.069   4.595   1.951  1.7810  0.8698  2.6951
  520MOL0     H71708   5.980   4.713   1.854  0.1322 -1.5220 -1.4890
  520MOL0     H71709   6.340   4.570   1.865 -0.2866  2.6962  0.9241
  520MOL0     H71710   6.480   4.560   1.546  0.6558  2.6675 -1.9573
  520MOL0     H71711   6.531   4.577   1.716 -1.0786 -2.3517 -0.5724
  520MOL0     H71712   6.544   4.786   1.490  2.0042  0.6573  0.4670
  520MOL0     H71713   6.544   4.834   1.658  0.2479 -1.7281  3.0676
  520MOL0     H71714   6.774   4.817   1.582  0.4292 -0.3216 -2.4570
  520MOL0     H71715   6.747   4.654   1.664  0.6288  0.7065 -0.0087
  520MOL0     H71716   6.746   4.744   1.380  0.6569  2.8913  2.5531
  520MOL0     H71717   6.863   4.661   1.450 -0.1111  0.6229  1.0272
  520MOL0     H71718   6.573   4.327   1.408  0.0495 -1.2012 -0.8308
  520MOL0     H71719   6.546   4.020   1.612  0.0270 -0.1165  0.5170
  520MOL0     H71720   6.639   4.000   1.466 -0.0220 -1.3968  2.4449
  520MOL0     H71721   6.495   4.109   1.470 -0.1897 -1.2975 -1.2328
  520MOL0     H71722   6.907   3.771   1.754  2.2027 -2.6047 -0.1040
  520MOL0     H71723   7.065   3.615   1.846  1.8428  0.1361  1.9779
  520MOL0     H71724   7.458   3.752   1.959  0.4692  1.1326  1.2722
  520MOL0     H71725   7.375   3.774   2.114 -0.2682  3.7524 -3.1304
  520MOL0     H71726   7.401   3.571   2.175 -0.9978  2.4577  0.8133
  520MOL0     H71727   7.451   3.499   2.024 -1.1251 -0.7159  2.1241
  520MOL0     H71728   7.635   3.690   2.178  2.1967  0.8267 -1.0315
  520MOL0     H71729   7.654   3.607   2.032  1.5530 -1.1769 -0.0754
  520MOL0     H71730   7.630   3.373   2.179  2.0055 -1.4573  1.1481
  520MOL0     H71731   7.636   3.476   2.321 -0.6139 -1.5075 -0.3160
  520MOL0     H71732   7.848   3.349   2.226  2.6707  0.0627 -1.5797
  520MOL0     H71733   7.855   3.471   2.100  0.7950  1.2483  0.8141
  520MOL0     H71734   7.833   3.555   2.390  1.6464 -0.8200  1.2425
  520MOL0     H71735   7.896   3.659   2.264  1.9082  1.3844  1.5121
  520MOL0     H71736   8.096   3.594   2.350 -2.9781  2.3230  0.1959
  520MOL0     H71737   8.077   3.502   2.204 -1.3051  0.9147 -1.1289
  520MOL0     H71738   8.170   3.373   2.405 -0.1743 -3.4267 -0.4106
  520MOL0     H71739   8.031   3.293   2.347 -1.4990 -0.9242  2.3977
  520MOL0     H71740   7.309   3.935   1.989  0.0048 -0.0351  1.2460
  520MOL0     H71741   7.125   4.095   1.913  1.5551  0.7200 -1.3949
  520MOL0     H71742   6.949   4.302   1.712 -0.2236  4.4791 -1.6040
  520MOL0     H71743   6.905   4.499   1.589  3.6842 -1.5374 -1.3298
  520MOL0     H71744   6.618   4.452   2.309  0.1083  1.9680 -0.3764
  520MOL0     H71745   6.693   4.239   2.337 -0.7442  1.0538 -0.4963
  520MOL0     H71746   6.590   3.773   2.392 -1.4788 -2.5883  1.3856
  520MOL0     H71747   6.648   3.544   2.443  0.0836  0.3858 -0.7096
  520MOL0     H71748   6.728   3.440   2.725  1.5466  1.7749  0.5737
  520MOL0     H71749   6.770   3.296   2.617 -3.6379  2.5954 -2.4453
  520MOL0     H71750   6.928   3.433   2.826 -1.4482  0.4592 -0.0650
  520MOL0     H71751   7.014   3.366   2.687  0.2128  2.4199  1.8493
  520MOL0     H71752   6.842   3.166   2.800 -0.2213 -0.0412  2.0252
  520MOL0     H71753   6.992   3.156   2.724  0.4527  3.3428 -1.7895
  520MOL0     H71754   6.968   3.291   3.003  0.9696  0.6978  0.5397
  520MOL0     H71755   7.119   3.245   2.943  0.4506 -0.0741  0.6704
  520MOL0     H71756   6.950   2.872   3.069 -0.8187  0.1779 -1.5277
  520MOL0     H71757   6.964   3.667   2.692 -0.2797  1.7722 -0.1837
  520MOL0     H71758   6.957   3.893   2.798  0.2072  1.8464  0.0751
  520MOL0     H71759   6.942   4.007   2.669  0.1520 -0.1679 -0.6148
  520MOL0     H71760   6.798   3.981   2.773 -1.0931 -0.5002 -1.7556
  521MOL0     O71761  10.303  11.147   2.083 -0.0991 -0.7801  0.5347
  521MOL0     C71762  10.211  11.208   2.028  0.1892 -0.3649  0.2679
  521MOL0     O71763  10.092  11.230   2.084 -0.1336 -0.3671 -0.9071
  521MOL0     C71764  10.077  11.215   2.219  0.1555 -0.3723 -0.4038
  521MOL0     C71765   9.940  11.216   2.248 -0.0582  0.7821 -0.1019
  521MOL0     C71766   9.899  11.198   2.377  0.2611  0.1608 -1.3617
  521MOL0     C71767   9.989  11.188   2.484 -0.0630  0.6033  1.1063
  521MOL0     O71768   9.958  11.177   2.619 -0.2403 -0.2720  0.2999
  521MOL0     C71769   9.827  11.130   2.656  0.0383  0.1980 -0.6047
  521MOL0     C71770   9.797  11.183   2.799 -0.0480  0.4461  0.3826
  521MOL0     C71771   9.640  11.179   2.826  0.2585  0.5880 -0.9610
  521MOL0     C71772   9.605  11.046   2.892 -0.6070  0.3651 -0.0699
  521MOL0     C71773   9.641  11.022   3.041 -0.1878 -0.2264  0.0648
  521MOL0     C71774   9.559  11.092   3.141 -0.0512  0.4004  0.1134
  521MOL0     C71775   9.572  11.033   3.274 -0.0258 -0.1042 -0.4076
  521MOL0     C71776   9.523  11.122   3.396 -0.3355 -0.6554 -1.1832
  521MOL0     N71777   9.528  11.054   3.531  0.0447  1.0549 -0.1571
  521MOL0     C71778   9.428  11.006   3.612 -0.3230 -0.0423  0.2430
  521MOL0     C71779   9.494  10.939   3.706  0.0973 -0.2207  0.4841
  521MOL0     C71780   9.425  10.860   3.818 -0.4547  0.3506  0.3889
  521MOL0     C71781   9.305  10.942   3.878  0.3844  1.2247  0.1491
  521MOL0     C71782   9.344  11.076   3.929 -0.5716 -0.3787  0.9676
  521MOL0     C71783   9.240  11.148   4.016  0.2354 -0.9525  0.5027
  521MOL0     O71784   9.113  11.171   3.946  0.0097  0.3589 -0.2084
  521MOL0     C71785   9.011  11.245   4.003  0.4064 -0.2707  0.3200
  521MOL0     C71786   8.893  11.269   3.942 -0.5524  0.0719  0.0527
  521MOL0     C71787   8.785  11.344   3.993  0.0799 -0.2845  0.5772
  521MOL0     C71788   8.661  11.335   3.904 -0.3381  0.3649 -0.4603
  521MOL0     C71789   8.800  11.395   4.125  0.2493 -0.4160 -0.6307
  521MOL0     C71790   8.697  11.474   4.201  0.2399  0.3808 -0.1343
  521MOL0     O71791   8.726  11.521   4.323  0.7884  0.0467  0.8006
  521MOL0     C71792   8.638  11.555   4.420 -0.5585  0.1399  0.3474
  521MOL0     C71793   8.688  11.636   4.522  0.3876 -0.4642 -0.3310
  521MOL0     C71794   8.598  11.682   4.615  0.3216  0.4010  0.1372
  521MOL0     C71795   8.460  11.634   4.615 -0.1602 -0.6224  0.5300
  521MOL0     O71796   8.367  11.656   4.717 -0.5581 -0.1401  0.3502
  521MOL0     C71797   8.379  11.777   4.793  0.7148 -0.0681  0.0241
  521MOL0     C71798   8.239  11.791   4.865 -0.4763 -0.0922 -0.4747
  521MOL0     C71799   8.245  11.909   4.954  1.0513  0.3901 -0.4563
  521MOL0     C71800   8.120  11.909   5.047 -0.6434 -0.8336  0.0658
  521MOL0     C71801   8.104  12.048   5.120 -0.2946 -0.4520 -0.3821
  521MOL0     C71802   7.992  12.050   5.216  0.6081  1.4783 -0.7217
  521MOL0     C71803   8.012  11.948   5.339 -0.7636 -0.5437  1.2436
  521MOL0     C71804   7.902  11.950   5.441  0.4423  0.1440  0.7834
  521MOL0    Cl71805   7.961  11.867   5.601  0.3413 -0.1139 -0.2069
  521MOL0     C71806   8.415  11.565   4.508 -0.1351 -0.2298  0.3563
  521MOL0     C71807   8.502  11.528   4.412 -0.3614 -0.5454  0.3110
  521MOL0     O71808   8.591  11.487   4.140  0.4646  0.9845 -0.4771
  521MOL0     C71809   8.920  11.376   4.189 -0.3374  0.3814 -0.3232
  521MOL0     C71810   9.027  11.296   4.132 -0.2830 -0.1071 -0.5863
  521MOL0     N71811   9.628  10.968   3.699 -0.2208  0.0334  0.8729
  521MOL0     N71812   9.640  11.022   3.588 -0.6108 -0.4811 -0.0278
  521MOL0     C71813  10.123  11.200   2.453 -0.0795  0.0328  0.1521
  521MOL0     C71814  10.167  11.211   2.327  0.3451 -0.5755  0.5009
  521MOL0     C71815  10.226  11.264   1.890  0.1212 -0.1209 -0.6302
  521MOL0     C71816  10.358  11.290   1.842  0.1068 -0.2231 -1.3425
  521MOL0     C71817  10.382  11.349   1.714  0.1413 -0.3698  0.1063
  521MOL0     C71818  10.277  11.375   1.621  0.5381  0.0425 -0.7599
  521MOL0     O71819  10.298  11.431   1.495  0.2557  0.3413  0.0377
  521MOL0     C71820  10.419  11.488   1.453 -0.0623 -1.3711  0.2214
  521MOL0     C71821  10.446  11.624   1.532  0.6888  0.2747 -0.3604
  521MOL0     C71822  10.575  11.707   1.495  0.1665 -0.3850  0.3144
  521MOL0     C71823  10.579  11.855   1.536 -0.1774  0.2054 -0.3992
  521MOL0     C71824  10.544  11.856   1.682 -0.0742 -0.4077  0.1594
  521MOL0     C71825  10.510  11.867   1.799 -0.4036 -0.0175  0.1233
  521MOL0     C71826  10.151  11.335   1.665  0.5376 -0.8157 -0.2418
  521MOL0     C71827  10.121  11.287   1.792 -0.6611 -0.6634 -0.5946
  521MOL0     C71828   9.979  11.242   1.820 -1.3769 -0.0919  0.7569
  521MOL0     H71829   9.871  11.241   2.168 -0.6283  0.8545  0.3996
  521MOL0     H71830   9.793  11.185   2.395  0.9022 -2.0517  1.4968
  521MOL0     H71831   9.822  11.021   2.658  3.3269 -0.0378 -0.1366
  521MOL0     H71832   9.754  11.185   2.595  1.5543  1.9131 -0.9693
  521MOL0     H71833   9.861  11.128   2.868 -0.8245 -1.6894 -0.5261
  521MOL0     H71834   9.822  11.289   2.811  0.3583  0.1796  2.0504
  521MOL0     H71835   9.618  11.261   2.895 -1.3116 -0.3291 -0.3365
  521MOL0     H71836   9.579  11.191   2.736 -1.0865  1.9610  0.0822
  521MOL0     H71837   9.496  11.043   2.887 -0.7827  2.0133  1.5980
  521MOL0     H71838   9.642  10.966   2.828 -0.1948  0.2246  0.3374
  521MOL0     H71839   9.746  11.040   3.065  0.4124 -1.4430 -1.4899
  521MOL0     H71840   9.624  10.915   3.057 -2.6127  0.2304  0.9301
  521MOL0     H71841   9.582  11.199   3.143 -0.0879  0.5153 -2.4305
  521MOL0     H71842   9.452  11.094   3.119  0.0109 -0.6495 -0.3292
  521MOL0     H71843   9.675  11.011   3.304 -0.4494  0.4639  1.6110
  521MOL0     H71844   9.515  10.939   3.277 -2.8228  1.4481  2.7406
  521MOL0     H71845   9.564  11.224   3.395 -1.9093  0.0389 -0.1559
  521MOL0     H71846   9.416  11.138   3.379 -1.0709 -2.5627  1.1681
  521MOL0     H71847   9.320  11.010   3.603 -0.4230  1.4346  1.6885
  521MOL0     H71848   9.500  10.837   3.894  0.4371  0.1444 -0.5308
  521MOL0     H71849   9.391  10.761   3.789  0.4013 -1.0622  3.6903
  521MOL0     H71850   9.228  10.956   3.802  2.2908  2.8905 -1.6109
  521MOL0     H71851   9.268  10.874   3.956  1.2651 -1.3322 -1.5491
  521MOL0     H71852   9.438  11.067   3.985 -1.5911 -3.1952  2.4838
  521MOL0     H71853   9.365  11.134   3.839  0.6164 -0.6032  1.0819
  521MOL0     H71854   9.217  11.100   4.112 -1.3291  0.4275  0.8629
  521MOL0     H71855   9.282  11.246   4.042 -3.6673  1.3791 -1.0609
  521MOL0     H71856   8.877  11.216   3.850 -0.9321 -2.7987  1.6612
  521MOL0     H71857   8.597  11.423   3.921 -1.0830 -0.5561  1.9788
  521MOL0     H71858   8.603  11.253   3.947  2.2238 -0.4286  1.7544
  521MOL0     H71859   8.678  11.327   3.796  0.1485 -0.6386 -0.3184
  521MOL0     H71860   8.791  11.663   4.540  0.0475  3.1247 -2.7743
  521MOL0     H71861   8.638  11.736   4.701  1.7719  0.4204 -0.5130
  521MOL0     H71862   8.458  11.776   4.869 -1.5282 -2.0396  2.5320
  521MOL0     H71863   8.411  11.859   4.728  2.1550 -0.1765  0.5555
  521MOL0     H71864   8.161  11.795   4.789 -0.3070 -3.9919 -1.0278
  521MOL0     H71865   8.224  11.700   4.923  3.2808  0.0127  0.9441
  521MOL0     H71866   8.248  12.003   4.898  1.2857 -1.3110 -3.4953
  521MOL0     H71867   8.330  11.911   5.023 -0.9798  0.2977  2.2300
  521MOL0     H71868   8.143  11.835   5.124 -1.3360  0.5518  1.6504
  521MOL0     H71869   8.021  11.886   5.006 -2.5186  2.4725  2.3306
  521MOL0     H71870   8.187  12.073   5.187  0.0953  0.0769 -1.0486
  521MOL0     H71871   8.089  12.125   5.044  1.1066  0.3950  0.1530
  521MOL0     H71872   7.901  12.027   5.161 -0.7528  0.8315  1.6685
  521MOL0     H71873   7.984  12.152   5.254  2.1976  1.2264  0.4192
  521MOL0     H71874   8.106  11.964   5.393  1.4691 -1.8790 -1.9408
  521MOL0     H71875   8.019  11.845   5.302  0.6476  0.5788 -1.9350
  521MOL0     H71876   7.817  11.896   5.398  2.1434  0.1237 -2.9154
  521MOL0     H71877   7.874  12.050   5.477 -1.1121  0.1383 -0.2943
  521MOL0     H71878   8.312  11.531   4.517  0.7431 -4.4761 -2.3574
  521MOL0     H71879   8.459  11.475   4.328 -2.8201  2.0049 -0.1814
  521MOL0     H71880   8.934  11.408   4.291  0.5658 -0.0772 -0.2937
  521MOL0     H71881   9.113  11.275   4.195 -0.2093  1.2412 -0.2050
  521MOL0     H71882  10.182  11.192   2.544 -0.0295 -0.3103  0.0909
  521MOL0     H71883  10.274  11.211   2.308  0.6213  3.0109  1.3750
  521MOL0     H71884  10.442  11.263   1.905 -1.2899  0.3719  0.8855
  521MOL0     H71885  10.481  11.371   1.678 -0.1500  0.9398  0.0764
  521MOL0     H71886  10.508  11.425   1.466  1.2745  0.8202  2.7873
  521MOL0     H71887  10.387  11.510   1.351  1.6625  1.0308  0.1039
  521MOL0     H71888  10.438  11.599   1.639 -1.3328  0.6197 -0.3854
  521MOL0     H71889  10.358  11.688   1.521  0.6627  0.4900  0.8853
  521MOL0     H71890  10.658  11.654   1.543  0.4577 -0.8792 -0.6881
  521MOL0     H71891  10.605  11.706   1.389  2.5628  1.7153  0.8653
  521MOL0     H71892  10.495  11.905   1.487 -1.9716 -1.0974  1.1601
  521MOL0     H71893  10.670  11.903   1.500 -0.2379 -0.9860 -2.2146
  521MOL0     H71894  10.492  11.878   1.904  3.4641 -1.7354  1.1748
  521MOL0     H71895  10.085  11.328   1.579  1.4741 -0.8151 -0.9820
  521MOL0     H71896   9.931  11.201   1.731  0.6115 -0.1718 -0.3526
  521MOL0     H71897   9.976  11.157   1.889 -1.2561 -0.0126  0.8589
  521MOL0     H71898   9.922  11.325   1.861  0.8386  0.0325  3.9595
  522MOL0     O71899   7.706   7.394   6.551 -0.3713  0.2592  0.1724
  522MOL0     C71900   7.778   7.301   6.596  0.1541  0.0123 -0.1935
  522MOL0     O71901   7.900   7.260   6.542 -0.1150 -0.2860 -0.2951
  522MOL0     C71902   7.926   7.311   6.419  1.2004 -1.1884  0.1220
  522MOL0     C71903   7.920   7.225   6.309  0.3124  0.1748 -0.5951
  522MOL0     C71904   7.947   7.277   6.178 -2.1516  0.4983  0.1402
  522MOL0     C71905   7.996   7.409   6.164 -0.8475 -0.5484  0.9420
  522MOL0     O71906   8.042   7.471   6.048  0.0213  0.5070 -0.2257
  522MOL0     C71907   8.118   7.388   5.960 -0.3395 -0.1842 -0.8429
  522MOL0     C71908   8.246   7.468   5.915  0.3054  0.2916 -0.2427
  522MOL0     C71909   8.331   7.397   5.808  0.5218  0.4818 -0.3972
  522MOL0     C71910   8.361   7.257   5.853  0.0201 -0.0791  1.0368
  522MOL0     C71911   8.468   7.202   5.763 -1.2349 -0.8294 -0.3594
  522MOL0     C71912   8.505   7.054   5.769  0.7253  0.7710  0.0501
  522MOL0     C71913   8.617   7.011   5.676  0.0635 -0.0308  0.2154
  522MOL0     C71914   8.596   6.867   5.624  0.3186  0.8088  0.1044
  522MOL0     N71915   8.720   6.817   5.571  0.4549 -0.3121  0.8241
  522MOL0     C71916   8.759   6.843   5.437  0.0089 -0.6658  0.2163
  522MOL0     C71917   8.872   6.766   5.429 -0.3058  0.0870  0.7406
  522MOL0     C71918   8.968   6.774   5.316 -0.5440  0.9703 -0.0191
  522MOL0     C71919   8.909   6.802   5.173  0.1868  0.8852  0.7649
  522MOL0     C71920   8.813   6.687   5.125 -0.3463 -0.3157 -0.1569
  522MOL0     C71921   8.753   6.715   4.990  0.2615 -0.1148  0.5537
  522MOL0     O71922   8.677   6.835   4.967 -0.0827 -0.5822 -0.1990
  522MOL0     C71923   8.572   6.847   5.055 -0.1837  0.3629  0.6250
  522MOL0     C71924   8.461   6.765   5.034 -0.0275 -0.4605 -0.8860
  522MOL0     C71925   8.345   6.790   5.103  0.1944  0.9820  0.5012
  522MOL0     C71926   8.229   6.705   5.062 -0.0939  1.0164  0.5072
  522MOL0     C71927   8.331   6.887   5.203  0.8936 -1.1715  0.1533
  522MOL0     C71928   8.222   6.900   5.299  0.6156 -0.4334 -0.5438
  522MOL0     O71929   8.214   7.025   5.359 -0.4765 -0.0114  0.1266
  522MOL0     C71930   8.100   7.048   5.434  0.2377  0.0875 -0.7583
  522MOL0     C71931   7.973   7.062   5.378  0.3736  0.0884  0.8470
  522MOL0     C71932   7.862   7.107   5.446  0.7345 -0.3852 -0.4866
  522MOL0     C71933   7.869   7.123   5.585  0.2134  0.6416  0.3948
  522MOL0     O71934   7.762   7.156   5.660  0.2163 -0.0464  0.1163
  522MOL0     C71935   7.633   7.115   5.611 -0.3735  0.3153  0.2009
  522MOL0     C71936   7.530   7.176   5.709 -1.1003  0.7672  0.7618
  522MOL0     C71937   7.410   7.236   5.630 -0.3427 -0.3023 -0.1798
  522MOL0     C71938   7.329   7.319   5.731  0.3170  0.1138  0.1118
  522MOL0     C71939   7.188   7.333   5.672 -0.1695  0.2757  0.9127
  522MOL0     C71940   7.105   7.428   5.755 -0.6641  0.7586  1.0409
  522MOL0     C71941   6.962   7.443   5.695  0.1645 -0.8981 -0.5967
  522MOL0     C71942   6.908   7.582   5.732  0.5737  0.2045 -0.3924
  522MOL0    Cl71943   6.855   7.565   5.908 -0.1371  0.2155 -0.5808
  522MOL0     C71944   7.995   7.119   5.643 -0.7513  0.2035 -0.5593
  522MOL0     C71945   8.104   7.081   5.571 -0.6598 -0.3293  0.2410
  522MOL0     O71946   8.150   6.804   5.328 -0.2543 -0.0028  0.1931
  522MOL0     C71947   8.446   6.967   5.219  0.5398 -0.7485 -0.9033
  522MOL0     C71948   8.562   6.947   5.151 -0.0248  0.3276 -0.2719
  522MOL0     N71949   8.887   6.699   5.541 -0.8244 -0.3298 -0.7597
  522MOL0     N71950   8.807   6.740   5.634  0.4459  0.1861  0.0021
  522MOL0     C71951   7.986   7.495   6.271 -0.7763 -0.6780 -0.3356
  522MOL0     C71952   7.954   7.450   6.396 -0.5404 -0.3656  0.4205
  522MOL0     C71953   7.716   7.221   6.707 -0.1053 -0.1717  0.0844
  522MOL0     C71954   7.613   7.290   6.779  0.1115  0.7116 -0.0466
  522MOL0     C71955   7.538   7.220   6.872  1.0917  1.2360  0.9945
  522MOL0     C71956   7.569   7.090   6.911 -0.0157 -0.0395 -0.2345
  522MOL0     O71957   7.482   7.019   6.996 -0.3732  0.7860  0.6060
  522MOL0     C71958   7.422   6.902   6.940  0.4626 -0.5139  0.5268
  522MOL0     C71959   7.281   6.885   7.012 -0.6699  0.9627 -0.0856
  522MOL0     C71960   7.224   6.741   6.980  0.9054 -0.0925  0.9119
  522MOL0     C71961   7.103   6.720   7.079 -0.1982  0.2458  0.5215
  522MOL0     C71962   7.023   6.600   7.047  0.4195 -0.0104  0.6196
  522MOL0     C71963   6.957   6.506   7.016  0.4700  0.5110  0.7300
  522MOL0     C71964   7.664   7.022   6.833  0.3085  0.6461  0.1787
  522MOL0     C71965   7.738   7.086   6.733 -0.2424 -0.5600  0.5421
  522MOL0     C71966   7.825   7.004   6.643 -0.1353 -0.1585 -0.2746
  522MOL0     H71967   7.901   7.121   6.335  2.7154 -0.0568  0.5266
  522MOL0     H71968   7.949   7.213   6.091 -0.0690  2.4570 -1.3707
  522MOL0     H71969   8.055   7.342   5.883  1.2956 -2.9669 -0.6569
  522MOL0     H71970   8.146   7.299   6.018 -3.5983  0.5628  2.2412
  522MOL0     H71971   8.206   7.562   5.876 -0.0811  0.3876  0.3682
  522MOL0     H71972   8.318   7.476   5.998  1.4880  2.1138 -1.3762
  522MOL0     H71973   8.275   7.377   5.716 -0.9246 -3.1371  1.0602
  522MOL0     H71974   8.427   7.449   5.796  0.4671  0.5576 -0.5067
  522MOL0     H71975   8.393   7.260   5.958  0.4956  5.3285  0.9973
  522MOL0     H71976   8.268   7.202   5.840  2.3100 -3.5713 -3.4605
  522MOL0     H71977   8.564   7.252   5.775 -1.9813  0.4320  0.5488
  522MOL0     H71978   8.424   7.205   5.662 -2.2151  0.4234  0.0815
  522MOL0     H71979   8.542   7.032   5.870 -0.0779  0.2027  0.2247
  522MOL0     H71980   8.408   7.005   5.762  1.7533 -1.8355  2.3624
  522MOL0     H71981   8.714   7.010   5.726  1.8646  0.6123 -3.0468
  522MOL0     H71982   8.636   7.083   5.597  1.6916  1.1489  1.6220
  522MOL0     H71983   8.569   6.806   5.711 -0.9426  1.7740  0.4061
  522MOL0     H71984   8.517   6.859   5.549 -0.4885  0.6184  0.9609
  522MOL0     H71985   8.732   6.920   5.366  1.3283 -0.8074 -0.4654
  522MOL0     H71986   9.025   6.681   5.318 -2.3453 -0.1647  2.5738
  522MOL0     H71987   9.030   6.859   5.344  0.1793  0.3196  0.3789
  522MOL0     H71988   8.853   6.897   5.172 -0.6252  0.4195  1.2407
  522MOL0     H71989   8.995   6.808   5.106  1.0258  1.2001  1.8601
  522MOL0     H71990   8.862   6.590   5.114 -0.2270 -0.1852 -0.7773
  522MOL0     H71991   8.736   6.687   5.203  0.4469  1.9330  0.7053
  522MOL0     H71992   8.831   6.701   4.914 -1.6328 -0.7579 -1.3963
  522MOL0     H71993   8.687   6.630   4.972 -0.9063  1.0820 -1.2446
  522MOL0     H71994   8.465   6.681   4.965 -3.3724 -1.5637  0.0435
  522MOL0     H71995   8.136   6.758   5.079 -0.3694  0.9392 -0.6598
  522MOL0     H71996   8.227   6.614   5.123  2.5567  1.8314  1.9721
  522MOL0     H71997   8.244   6.676   4.957  2.2482  0.2200  0.9879
  522MOL0     H71998   7.966   7.078   5.270 -0.1685  1.4901  1.0622
  522MOL0     H71999   7.776   7.138   5.387  1.2605  0.2891 -0.9103
  522MOL0     H72000   7.610   7.159   5.513  0.6476  2.1472  0.7417
  522MOL0     H72001   7.627   7.006   5.615 -0.3994  0.3476  1.8103
  522MOL0     H72002   7.495   7.093   5.772  2.6826 -0.6813  1.1981
  522MOL0     H72003   7.581   7.248   5.773  2.1697 -0.3097 -0.4180
  522MOL0     H72004   7.349   7.151   5.598  1.4760 -1.5551 -0.4176
  522MOL0     H72005   7.434   7.290   5.538 -0.3768  0.2615  0.1379
  522MOL0     H72006   7.372   7.418   5.749 -1.2970  0.8389  0.1625
  522MOL0     H72007   7.327   7.264   5.825  1.7113  0.0557  0.1263
  522MOL0     H72008   7.201   7.365   5.568  1.1695  1.7379  1.4933
  522MOL0     H72009   7.142   7.234   5.673 -0.6360  0.4723  0.0926
  522MOL0     H72010   7.152   7.526   5.759 -1.6909  1.2661  0.8480
  522MOL0     H72011   7.090   7.390   5.857 -0.8546 -4.4876 -0.6252
  522MOL0     H72012   6.911   7.353   5.731  0.4558 -0.4528  1.0011
  522MOL0     H72013   6.952   7.444   5.586  2.3314 -1.4898 -0.8535
  522MOL0     H72014   6.818   7.601   5.673  0.8604  1.3157 -0.4970
  522MOL0     H72015   6.986   7.657   5.720  1.9259 -0.8781  1.1440
  522MOL0     H72016   8.014   7.139   5.748  0.0120 -2.3002 -0.1640
  522MOL0     H72017   8.198   7.079   5.624  1.0326 -1.4018 -2.5855
  522MOL0     H72018   8.447   7.044   5.296  1.1201 -1.8623  0.2389
  522MOL0     H72019   8.647   7.002   5.189 -0.3726  0.3592  0.4845
  522MOL0     H72020   8.018   7.597   6.253  4.3723 -1.4261  2.4989
  522MOL0     H72021   7.965   7.525   6.474 -2.2199 -1.1119  1.4164
  522MOL0     H72022   7.580   7.393   6.768 -3.1961 -0.3223 -0.7814
  522MOL0     H72023   7.443   7.256   6.911 -1.6459  0.5328 -4.0608
  522MOL0     H72024   7.425   6.908   6.831  1.8122 -0.8535  0.5355
  522MOL0     H72025   7.486   6.816   6.961  0.2606 -1.1706 -1.3413
  522MOL0     H72026   7.204   6.958   6.984 -1.3292  0.3691  0.1397
  522MOL0     H72027   7.292   6.893   7.120 -3.0233 -1.6914  0.4808
  522MOL0     H72028   7.198   6.747   6.874 -0.2817  0.7815  1.2327
  522MOL0     H72029   7.307   6.672   6.995 -0.9105 -2.5409  0.4605
  522MOL0     H72030   7.038   6.807   7.063  0.7697  0.7342 -0.9871
  522MOL0     H72031   7.132   6.719   7.184 -0.0712 -0.2760  0.4844
  522MOL0     H72032   6.875   6.442   6.991  3.1988 -1.9982 -3.1092
  522MOL0     H72033   7.674   6.917   6.857  0.2367  0.8427  1.1034
  522MOL0     H72034   7.815   6.903   6.682  1.2231  0.1487  0.9874
  522MOL0     H72035   7.809   7.013   6.535  0.0322  2.2130 -0.1671
  522MOL0     H72036   7.925   7.041   6.669 -1.3366 -0.6805  7.7156
  523MOL0     O72037   6.181  10.200   3.525  0.2924 -0.4602 -0.0246
  523MOL0     C72038   6.177  10.271   3.429 -0.7055  0.1739 -0.1072
  523MOL0     O72039   6.227  10.398   3.421 -0.4905  0.8056 -1.3740
  523MOL0     C72040   6.282  10.455   3.533 -0.2064 -0.5420  0.0441
  523MOL0     C72041   6.204  10.534   3.622  0.0107  0.3856 -0.4342
  523MOL0     C72042   6.260  10.595   3.740  0.3882  0.8225  0.3130
  523MOL0     C72043   6.392  10.569   3.767 -0.1421 -0.9986 -0.1790
  523MOL0     O72044   6.420  10.629   3.887  0.0851 -1.2211 -0.1019
  523MOL0     C72045   6.561  10.639   3.914  0.5340 -0.8771  0.2934
  523MOL0     C72046   6.591  10.701   4.046 -0.2624  0.2685 -0.2313
  523MOL0     C72047   6.616  10.597   4.159  0.3137 -0.3192  0.2385
  523MOL0     C72048   6.482  10.531   4.199 -0.9574  0.0767  0.1089
  523MOL0     C72049   6.503  10.445   4.324  0.2734 -0.3297  0.3001
  523MOL0     C72050   6.366  10.451   4.380  0.1486  0.9941  0.1582
  523MOL0     C72051   6.367  10.359   4.510  0.6195 -0.3205 -0.0656
  523MOL0     C72052   6.231  10.295   4.531 -0.0711 -0.6352 -0.9100
  523MOL0     N72053   6.125  10.403   4.539  0.0544  0.1628 -0.6567
  523MOL0     C72054   6.124  10.516   4.614  0.3920  0.4828  0.7353
  523MOL0     C72055   5.993  10.570   4.606 -0.8620  0.5363 -0.4913
  523MOL0     C72056   5.945  10.701   4.672 -0.0369 -0.2109  0.4810
  523MOL0     C72057   5.803  10.681   4.714 -1.1786 -1.3763 -0.1358
  523MOL0     C72058   5.750  10.813   4.770  0.5589 -0.0110  0.4494
  523MOL0     C72059   5.631  10.779   4.861 -0.4089  1.2554  0.6394
  523MOL0     O72060   5.529  10.717   4.790 -0.1713 -0.4266 -0.5698
  523MOL0     C72061   5.413  10.688   4.859  0.2041  0.4264 -0.8727
  523MOL0     C72062   5.288  10.667   4.795 -0.6266 -0.6709 -0.7637
  523MOL0     C72063   5.166  10.623   4.857 -0.1964  0.1150 -0.2778
  523MOL0     C72064   5.044  10.604   4.771 -0.3127 -0.0156 -0.5952
  523MOL0     C72065   5.171  10.596   4.996 -0.7162  0.2033  0.0585
  523MOL0     C72066   5.056  10.544   5.074  0.3219  0.4675 -0.1625
  523MOL0     O72067   4.930  10.561   5.026 -0.4424  0.6477 -0.8616
  523MOL0     C72068   4.830  10.554   5.114 -0.1253 -1.2471 -0.3995
  523MOL0     C72069   4.824  10.641   5.221  0.0643 -1.0705 -0.6259
  523MOL0     C72070   4.735  10.616   5.329 -0.2981  1.0013 -0.0551
  523MOL0     C72071   4.638  10.517   5.325  0.6752  0.2097 -0.8521
  523MOL0     O72072   4.556  10.494   5.429 -0.4266  0.3287 -0.3240
  523MOL0     C72073   4.556  10.355   5.476 -0.5615 -0.2747 -0.0659
  523MOL0     C72074   4.497  10.387   5.612 -1.0198 -0.2924  0.5734
  523MOL0     C72075   4.356  10.449   5.613  0.4253 -0.0054 -0.7306
  523MOL0     C72076   4.313  10.466   5.762  0.6616 -0.3781 -0.6354
  523MOL0     C72077   4.320  10.349   5.864  0.4947 -0.3148 -1.0484
  523MOL0     C72078   4.221  10.239   5.841  0.5801  0.2551  0.2215
  523MOL0     C72079   4.265  10.106   5.906  0.0749 -0.0711  0.5975
  523MOL0     C72080   4.388  10.039   5.839  0.4058  0.2725 -0.0602
  523MOL0    Cl72081   4.369  10.029   5.665  0.5498  0.6438  0.0903
  523MOL0     C72082   4.629  10.442   5.204 -0.6754  0.4520 -0.1151
  523MOL0     C72083   4.728  10.457   5.105  0.0019  0.4657  0.5614
  523MOL0     O72084   5.078  10.499   5.186 -1.0053 -0.0242 -0.0218
  523MOL0     C72085   5.288  10.624   5.066 -0.9626 -0.6760  0.8428
  523MOL0     C72086   5.412  10.664   4.997  0.7323  0.2973 -0.7315
  523MOL0     N72087   5.922  10.492   4.514 -0.7735 -0.8474  0.8158
  523MOL0     N72088   6.006  10.395   4.478  0.6556 -0.2157  0.6713
  523MOL0     C72089   6.463  10.466   3.693 -0.8473  0.5599 -0.1493
  523MOL0     C72090   6.400  10.408   3.580 -0.0446 -0.6603 -0.6182
  523MOL0     C72091   6.102  10.212   3.310 -0.1716 -0.5224  0.3417
  523MOL0     C72092   6.117  10.299   3.203  0.0142 -0.3826 -0.2053
  523MOL0     C72093   6.066  10.260   3.080 -1.7445  0.7257  0.0525
  523MOL0     C72094   6.006  10.132   3.060  0.3270 -1.3856  0.2105
  523MOL0     O72095   5.981  10.092   2.924 -0.5850  0.0478 -0.3595
  523MOL0     C72096   5.879   9.992   2.906  0.7708 -0.7647  0.5716
  523MOL0     C72097   5.863   9.955   2.759 -0.8931 -0.0971 -0.7287
  523MOL0     C72098   5.753  10.034   2.678 -0.9649  0.3424 -0.2043
  523MOL0     C72099   5.708   9.957   2.558 -0.6526  0.4432  0.4470
  523MOL0     C72100   5.810   9.943   2.456 -0.1934 -0.1215  0.1502
  523MOL0     C72101   5.899   9.919   2.375  0.5586 -0.1033  0.2688
  523MOL0     C72102   5.988  10.051   3.178 -0.7128 -0.3263 -0.2239
  523MOL0     C72103   6.026  10.094   3.301  0.1886  0.0843 -0.9687
  523MOL0     C72104   5.983  10.012   3.433  0.5783  0.1297 -0.0544
  523MOL0     H72105   6.096  10.530   3.620 -0.1925  1.1350  2.9294
  523MOL0     H72106   6.205  10.659   3.807  2.3445  1.6915  1.1510
  523MOL0     H72107   6.607  10.699   3.835  0.0411 -3.9300 -2.5512
  523MOL0     H72108   6.602  10.538   3.902  1.2371 -0.5208 -0.4509
  523MOL0     H72109   6.684  10.757   4.031  0.6880 -1.0177  0.5676
  523MOL0     H72110   6.514  10.772   4.075  1.7515  3.4394 -2.0864
  523MOL0     H72111   6.695  10.528   4.129  3.9962  2.3933  2.6549
  523MOL0     H72112   6.664  10.645   4.245  0.4229  0.3101 -0.1587
  523MOL0     H72113   6.414  10.612   4.224 -2.6791 -2.1755  3.5052
  523MOL0     H72114   6.437  10.484   4.111 -3.1581  0.1676  1.1391
  523MOL0     H72115   6.575  10.493   4.390 -0.0983  1.2825 -0.4091
  523MOL0     H72116   6.543  10.345   4.303 -1.9939 -0.6426 -3.7951
  523MOL0     H72117   6.339  10.554   4.403 -1.5884  0.4594  0.6733
  523MOL0     H72118   6.302  10.411   4.301  2.1731  0.7742 -1.4701
  523MOL0     H72119   6.396  10.408   4.603  0.1530 -1.9497  0.9724
  523MOL0     H72120   6.432  10.274   4.490 -0.7921 -1.1056 -1.6691
  523MOL0     H72121   6.220  10.225   4.447 -3.9428 -0.8280 -0.4139
  523MOL0     H72122   6.241  10.232   4.620 -1.0987  1.6063  0.8784
  523MOL0     H72123   6.214  10.538   4.671  1.0608 -2.5194  0.9915
  523MOL0     H72124   5.949  10.782   4.598 -3.1482  0.6921  1.1286
  523MOL0     H72125   6.002  10.729   4.760 -4.0024  2.0436  2.6278
  523MOL0     H72126   5.740  10.644   4.633  0.2145  1.7984 -2.8992
  523MOL0     H72127   5.807  10.605   4.793 -1.5452  1.7676  3.1798
  523MOL0     H72128   5.831  10.863   4.824 -1.0909  0.6532  2.4701
  523MOL0     H72129   5.719  10.887   4.696  0.5866 -1.3305 -0.9199
  523MOL0     H72130   5.662  10.701   4.931  3.3556 -0.8889 -2.9675
  523MOL0     H72131   5.581  10.858   4.918 -0.6163 -0.3743  2.8258
  523MOL0     H72132   5.287  10.679   4.688 -0.1126  1.1131 -0.6056
  523MOL0     H72133   5.067  10.608   4.664  1.7523 -1.0921 -0.2427
  523MOL0     H72134   4.982  10.693   4.780  2.5606  2.0343  0.2184
  523MOL0     H72135   4.983  10.517   4.800  1.9134 -1.2170  0.7567
  523MOL0     H72136   4.910  10.705   5.237 -1.5522  1.4942 -1.5378
  523MOL0     H72137   4.746  10.667   5.424  0.8491  1.9341 -0.6547
  523MOL0     H72138   4.492  10.285   5.423 -0.6214  0.4514 -0.9808
  523MOL0     H72139   4.655  10.312   5.494 -0.9057 -0.4361  1.6280
  523MOL0     H72140   4.491  10.287   5.654  2.4895 -0.3259  1.2570
  523MOL0     H72141   4.555  10.456   5.673  1.1544  0.4354 -2.0927
  523MOL0     H72142   4.281  10.383   5.570 -0.8067  2.5098 -2.7138
  523MOL0     H72143   4.352  10.545   5.561 -0.2642 -0.1369 -0.9336
  523MOL0     H72144   4.211  10.505   5.773  0.7070  0.0891 -1.6665
  523MOL0     H72145   4.386  10.536   5.804 -2.9076  1.9734  2.2558
  523MOL0     H72146   4.414  10.298   5.843  0.6970 -0.3538 -0.0770
  523MOL0     H72147   4.327  10.389   5.965 -0.1223  0.2572 -1.2201
  523MOL0     H72148   4.208  10.222   5.734  1.8859  1.1662 -0.1047
  523MOL0     H72149   4.129  10.265   5.893 -1.1913 -1.0702 -2.0165
  523MOL0     H72150   4.184  10.035   5.886  1.7725 -1.4956 -1.8208
  523MOL0     H72151   4.272  10.116   6.014 -0.9028  1.4303  0.5414
  523MOL0     H72152   4.418   9.947   5.891  0.1506  0.5191  0.5272
  523MOL0     H72153   4.475  10.104   5.851 -1.4203  2.7641  0.5941
  523MOL0     H72154   4.544  10.375   5.198 -0.8706  0.0600  3.9207
  523MOL0     H72155   4.722  10.398   5.014 -0.6052  0.3397  0.6737
  523MOL0     H72156   5.306  10.596   5.170  0.9931 -3.3897 -0.1162
  523MOL0     H72157   5.499  10.674   5.060 -0.3214  2.4531  0.4873
  523MOL0     H72158   6.567  10.437   3.710 -0.5875  0.2984 -2.0186
  523MOL0     H72159   6.437  10.331   3.513 -1.3131  0.1646 -2.3541
  523MOL0     H72160   6.164  10.396   3.194  0.5097 -0.5831  0.1494
  523MOL0     H72161   6.066  10.336   3.003  0.8145  1.8711  1.0518
  523MOL0     H72162   5.910   9.902   2.960  1.6757 -0.4575  0.5812
  523MOL0     H72163   5.784  10.021   2.952  2.4242  0.2722  3.6620
  523MOL0     H72164   5.833   9.850   2.752 -2.8857  0.3924 -0.3001
  523MOL0     H72165   5.961   9.963   2.713  0.1172 -0.0947  1.3043
  523MOL0     H72166   5.662  10.048   2.737 -1.2901 -2.4586  0.1308
  523MOL0     H72167   5.791  10.133   2.654 -0.1609  0.1194  0.1115
  523MOL0     H72168   5.632  10.021   2.511  0.2481  0.6499 -0.7967
  523MOL0     H72169   5.669   9.859   2.586  1.7048 -0.3715  1.1709
  523MOL0     H72170   5.985   9.899   2.313 -0.3542  4.1071 -2.8182
  523MOL0     H72171   5.956   9.947   3.181  0.3118 -0.6563 -0.4111
  523MOL0     H72172   5.895   9.955   3.404  1.2783 -0.7681 -0.4645
  523MOL0     H72173   6.052   9.929   3.450  0.7062  0.5846  1.8082
  523MOL0     H72174   5.950  10.073   3.517 -0.3125 -0.1682 -0.1752
  524MOL0     O72175   2.694   7.322   8.971  0.0173 -0.2733  0.1125
  524MOL0     C72176   2.783   7.235   8.989  0.2888  0.0599  0.5029
  524MOL0     O72177   2.870   7.191   8.888  0.7039 -1.0868  0.0180
  524MOL0     C72178   2.861   7.236   8.757  1.1370  0.3076 -0.5739
  524MOL0     C72179   2.984   7.228   8.691 -0.3810 -1.3374 -0.1406
  524MOL0     C72180   2.999   7.282   8.562 -0.2453 -0.1755 -0.5831
  524MOL0     C72181   2.875   7.322   8.497 -0.3348 -0.5721  0.2469
  524MOL0     O72182   2.881   7.396   8.384 -0.4796 -0.2554  0.4946
  524MOL0     C72183   2.915   7.299   8.281  0.6183  0.0117 -0.3813
  524MOL0     C72184   2.831   7.349   8.168 -0.0788  0.3022 -0.8004
  524MOL0     C72185   2.693   7.278   8.179 -0.1029 -0.0352  0.6291
  524MOL0     C72186   2.583   7.354   8.097 -0.3238  0.4275  0.1558
  524MOL0     C72187   2.443   7.291   8.128 -0.9369  0.5116 -0.3635
  524MOL0     C72188   2.339   7.355   8.046 -0.0210 -0.0574  0.0874
  524MOL0     C72189   2.211   7.319   8.107  1.3078 -0.1287 -0.2834
  524MOL0     C72190   2.099   7.396   8.042  0.7827  0.8870 -0.5470
  524MOL0     N72191   2.109   7.413   7.891 -0.1265 -0.0223 -0.3185
  524MOL0     C72192   2.096   7.309   7.796 -0.8770  0.1547  0.1892
  524MOL0     C72193   2.067   7.368   7.676 -1.1069 -0.3947  0.5045
  524MOL0     C72194   2.068   7.282   7.547 -0.1973  1.2481 -0.1333
  524MOL0     C72195   1.913   7.272   7.500 -0.2239 -0.0354  0.4540
  524MOL0     C72196   1.896   7.209   7.356  0.3446 -1.0785  0.2806
  524MOL0     C72197   1.905   7.055   7.350 -0.6173 -0.1925  0.6099
  524MOL0     O72198   1.821   7.010   7.458  0.7153  0.6602 -1.3240
  524MOL0     C72199   1.828   6.874   7.496 -0.6169 -0.5905 -0.1111
  524MOL0     C72200   1.918   6.774   7.445 -0.5985 -0.7524 -0.2516
  524MOL0     C72201   1.927   6.652   7.509  0.3832  0.5406 -0.1601
  524MOL0     C72202   2.033   6.549   7.456  0.9517 -0.4947  0.6797
  524MOL0     C72203   1.839   6.625   7.619  0.1713 -0.7207  0.0543
  524MOL0     C72204   1.824   6.495   7.689 -0.0075  0.5791 -0.5217
  524MOL0     O72205   1.736   6.500   7.801  1.3300 -0.3732  0.6843
  524MOL0     C72206   1.700   6.384   7.858 -0.1842 -0.3367 -0.2955
  524MOL0     C72207   1.790   6.316   7.949  0.0360  0.5377 -0.2944
  524MOL0     C72208   1.752   6.192   8.008 -0.0936  0.1420 -0.0367
  524MOL0     C72209   1.623   6.144   7.992  0.4189  0.1830  0.1631
  524MOL0     O72210   1.580   6.020   8.042  0.6284 -1.0535 -0.8980
  524MOL0     C72211   1.650   5.972   8.160  0.2811  0.2598 -0.0486
  524MOL0     C72212   1.575   5.849   8.223 -0.5413  0.1789  0.5162
  524MOL0     C72213   1.418   5.865   8.210  0.0886 -0.3740 -0.2199
  524MOL0     C72214   1.364   5.995   8.281  0.3934 -0.4841 -1.1204
  524MOL0     C72215   1.248   6.055   8.193  0.0396  0.5203  0.2009
  524MOL0     C72216   1.157   6.152   8.273  0.2530 -0.3722  0.5608
  524MOL0     C72217   1.032   6.196   8.204 -0.6568 -0.7854  0.8224
  524MOL0     C72218   0.931   6.099   8.156  0.2304 -0.0149 -0.0314
  524MOL0    Cl72219   0.870   5.986   8.272 -0.0420  0.0800 -0.2046
  524MOL0     C72220   1.543   6.199   7.894  0.3637 -0.1425  0.9378
  524MOL0     C72221   1.585   6.318   7.827  0.0627 -0.8981  0.3930
  524MOL0     O72222   1.881   6.395   7.654  0.0767 -0.1340  0.1697
  524MOL0     C72223   1.749   6.722   7.655  0.2749  0.8890 -0.3589
  524MOL0     C72224   1.745   6.843   7.596  0.5852 -0.5066 -0.4431
  524MOL0     N72225   2.076   7.507   7.691 -0.3582 -0.0185 -0.4339
  524MOL0     N72226   2.106   7.531   7.818  0.1014  0.1734  0.0918
  524MOL0     C72227   2.759   7.325   8.564 -0.0892  0.8942  0.6686
  524MOL0     C72228   2.751   7.283   8.698  0.0660  0.4420 -0.2151
  524MOL0     C72229   2.812   7.178   9.124 -0.8411 -0.4066 -0.1936
  524MOL0     C72230   2.930   7.225   9.193  0.9995  0.6835 -0.3250
  524MOL0     C72231   2.962   7.157   9.314 -0.4606 -0.5004 -0.2238
  524MOL0     C72232   2.883   7.059   9.369  1.0982  0.6551 -0.6742
  524MOL0     O72233   2.927   6.993   9.483  0.2143  0.5103  0.2986
  524MOL0     C72234   2.871   6.851   9.503 -0.6742  0.0297 -0.6884
  524MOL0     C72235   2.956   6.776   9.610 -0.6408 -0.3458 -0.5155
  524MOL0     C72236   2.932   6.826   9.762 -0.1230  0.1705  0.4376
  524MOL0     C72237   2.788   6.816   9.825  0.2227  0.0496  0.2173
  524MOL0     C72238   2.787   6.878   9.966  0.3277 -0.6186  0.7763
  524MOL0     C72239   2.788   6.921  10.076  0.7243 -0.0447  0.0916
  524MOL0     C72240   2.773   7.020   9.296 -0.1680  0.0176  1.2907
  524MOL0     C72241   2.733   7.075   9.175  0.0491 -0.0657  0.6127
  524MOL0     C72242   2.596   7.037   9.121 -1.5198 -0.6687  0.4694
  524MOL0     H72243   3.075   7.193   8.739  1.2886  4.3901  1.8176
  524MOL0     H72244   3.092   7.267   8.509  1.3535 -2.0646  2.4753
  524MOL0     H72245   2.902   7.196   8.317  0.2140  0.3054  0.3362
  524MOL0     H72246   3.021   7.314   8.263  0.6646  0.5146  0.2905
  524MOL0     H72247   2.819   7.458   8.169 -0.1874  0.2903 -0.7793
  524MOL0     H72248   2.879   7.322   8.073 -1.5465  1.6898 -1.9989
  524MOL0     H72249   2.703   7.175   8.143  1.8882  0.1954  0.3748
  524MOL0     H72250   2.666   7.280   8.284 -0.0531  4.6326  0.7688
  524MOL0     H72251   2.605   7.458   8.121 -2.5745  1.1434 -0.6794
  524MOL0     H72252   2.602   7.344   7.990 -1.8351 -0.1187 -0.0841
  524MOL0     H72253   2.418   7.297   8.234 -1.5802  3.0892 -0.5910
  524MOL0     H72254   2.444   7.184   8.107  4.6622  0.2188 -0.1029
  524MOL0     H72255   2.352   7.463   8.038  1.5890 -0.2590 -0.4130
  524MOL0     H72256   2.344   7.318   7.943 -2.8092 -4.7964  1.3249
  524MOL0     H72257   2.207   7.351   8.211 -2.4399  1.6952 -0.8078
  524MOL0     H72258   2.187   7.212   8.107  1.2275 -0.1111 -0.3160
  524MOL0     H72259   2.004   7.344   8.056  1.3546 -0.3311 -1.0590
  524MOL0     H72260   2.095   7.500   8.077  2.5895  0.2235  1.8410
  524MOL0     H72261   2.101   7.203   7.818 -3.1078 -0.0853 -0.2625
  524MOL0     H72262   2.100   7.178   7.561  2.5166  2.0685  0.2735
  524MOL0     H72263   2.134   7.327   7.473  1.6809 -0.7386  0.2525
  524MOL0     H72264   1.865   7.208   7.575  2.1610  0.4275  2.5071
  524MOL0     H72265   1.878   7.376   7.502  1.5559  0.6777 -1.3695
  524MOL0     H72266   1.796   7.246   7.331 -0.3561 -2.9749  0.1531
  524MOL0     H72267   1.978   7.263   7.307 -1.4857  0.9539 -0.6823
  524MOL0     H72268   1.866   7.020   7.255 -0.3804  0.7115  0.1632
  524MOL0     H72269   2.011   7.027   7.353 -0.0058  1.9667  2.0773
  524MOL0     H72270   1.982   6.802   7.362  2.0511  1.5839  2.3591
  524MOL0     H72271   1.972   6.493   7.385 -1.3220  3.2650 -0.6442
  524MOL0     H72272   2.082   6.482   7.527  2.2103 -0.7802 -0.4257
  524MOL0     H72273   2.112   6.593   7.395  0.0558  0.2056 -0.0212
  524MOL0     H72274   1.891   6.352   7.969 -0.1437  0.4760  0.7282
  524MOL0     H72275   1.826   6.139   8.066  1.2513 -0.4017 -2.1353
  524MOL0     H72276   1.754   5.947   8.136  0.8298  1.6112  0.8638
  524MOL0     H72277   1.652   6.057   8.229 -1.5088 -1.8651  2.8369
  524MOL0     H72278   1.617   5.763   8.171  0.2874  2.0889 -2.2271
  524MOL0     H72279   1.605   5.839   8.327  0.5404  1.6133  0.3888
  524MOL0     H72280   1.377   5.772   8.251  0.1840  1.3512  4.2929
  524MOL0     H72281   1.391   5.878   8.104  0.6159 -2.0364 -0.5827
  524MOL0     H72282   1.442   6.072   8.279 -0.5139  0.4451 -2.5332
  524MOL0     H72283   1.349   5.966   8.386 -0.6055 -1.4793 -1.5265
  524MOL0     H72284   1.281   6.115   8.108 -1.1226  3.2294  1.5635
  524MOL0     H72285   1.181   5.972   8.167 -0.1829  1.4096 -2.2642
  524MOL0     H72286   1.219   6.240   8.292  1.8758 -1.3415 -0.1159
  524MOL0     H72287   1.129   6.115   8.371 -1.3423 -3.7799 -1.0192
  524MOL0     H72288   1.062   6.257   8.118 -0.1808  1.4606  2.4811
  524MOL0     H72289   0.978   6.264   8.270  0.3271  0.8512  0.0061
  524MOL0     H72290   0.972   6.043   8.071 -1.7138 -2.7706  0.6959
  524MOL0     H72291   0.845   6.151   8.111 -0.3059 -0.2463  0.7053
  524MOL0     H72292   1.443   6.158   7.881  1.1372 -1.3039 -2.2224
  524MOL0     H72293   1.522   6.372   7.757 -3.1218 -2.3551  1.9489
  524MOL0     H72294   1.665   6.710   7.723 -1.5356  2.2387 -2.2099
  524MOL0     H72295   1.681   6.920   7.636  1.6242 -0.5257  1.3798
  524MOL0     H72296   2.683   7.375   8.504 -0.4684  0.2602  0.6201
  524MOL0     H72297   2.657   7.279   8.752  0.8766  1.0075  1.3278
  524MOL0     H72298   2.991   7.292   9.134  2.6494  1.9563  2.6112
  524MOL0     H72299   3.061   7.189   9.344 -0.2624 -1.8654  0.6608
  524MOL0     H72300   2.769   6.864   9.542 -0.6550  1.6078 -1.1139
  524MOL0     H72301   2.875   6.800   9.407 -1.6868  0.9805 -1.2633
  524MOL0     H72302   3.061   6.790   9.583 -0.7490 -0.6571 -1.1306
  524MOL0     H72303   2.939   6.668   9.616  1.0215 -0.5631  1.5223
  524MOL0     H72304   2.988   6.769   9.837  1.7128  0.2887 -0.8003
  524MOL0     H72305   2.950   6.934   9.759 -1.5933  0.4221 -2.1211
  524MOL0     H72306   2.764   6.709   9.831  2.1596 -0.4301  0.1093
  524MOL0     H72307   2.712   6.868   9.765  0.1084  0.3476  0.6127
  524MOL0     H72308   2.785   6.947  10.180 -1.6534  0.5796 -0.0892
  524MOL0     H72309   2.700   6.952   9.340  0.1986 -2.7346 -1.9664
  524MOL0     H72310   2.613   7.002   9.018  0.1946 -0.2848  0.6046
  524MOL0     H72311   2.552   6.970   9.196 -1.2490  0.7374  1.9301
  524MOL0     H72312   2.532   7.125   9.113 -1.6992 -0.4892  3.1306
  525MOL0     O72313   0.734   0.655   4.387  0.4130 -0.2623 -0.0229
  525MOL0     C72314   0.644   0.572   4.401 -0.1993  1.1254 -0.5495
  525MOL0     O72315   0.671   0.445   4.449 -0.4043 -0.3818 -0.4741
  525MOL0     C72316   0.796   0.419   4.497  0.3948  0.8586 -0.3259
  525MOL0     C72317   0.867   0.328   4.425  0.4308  0.1591  0.2417
  525MOL0     C72318   0.994   0.289   4.467  0.0284 -0.5427 -0.9185
  525MOL0     C72319   1.053   0.341   4.586  0.4784 -0.0940 -0.3630
  525MOL0     O72320   1.177   0.299   4.628  0.4742  0.3371  0.3978
  525MOL0     C72321   1.268   0.248   4.524  0.5004 -0.0490  0.5935
  525MOL0     C72322   1.415   0.238   4.563  0.2100  0.8774  0.7994
  525MOL0     C72323   1.482   0.371   4.609  0.3116  0.1531 -1.6648
  525MOL0     C72324   1.628   0.371   4.618 -0.0434  0.0670 -0.9568
  525MOL0     C72325   1.700   0.333   4.497 -0.2870 -0.0610  0.7946
  525MOL0     C72326   1.848   0.309   4.516  0.5469  0.3285  0.5634
  525MOL0     C72327   1.933   0.428   4.562  0.9169 -0.3185  0.0240
  525MOL0     C72328   2.038   0.394   4.673 -0.2440 -0.2559 -0.1016
  525MOL0     N72329   1.969   0.341   4.783  0.6550  0.4304  0.3643
  525MOL0     C72330   1.906   0.408   4.885  0.0713 -0.4660  0.4704
  525MOL0     C72331   1.844   0.309   4.962 -0.5535 -0.9442  0.4961
  525MOL0     C72332   1.773   0.327   5.086 -0.3823  0.5385  0.2835
  525MOL0     C72333   1.690   0.453   5.108  0.3428  0.4080  0.0535
  525MOL0     C72334   1.603   0.445   5.230  0.8600 -0.1689  0.3359
  525MOL0     C72335   1.507   0.570   5.236 -0.8329  0.1863 -0.3536
  525MOL0     O72336   1.563   0.694   5.273  0.2512 -0.3262 -0.2559
  525MOL0     C72337   1.480   0.795   5.257 -0.6252  1.1819  0.0877
  525MOL0     C72338   1.517   0.890   5.160  0.0800  0.0360 -0.0501
  525MOL0     C72339   1.435   0.997   5.133 -0.1261 -1.7938 -0.5478
  525MOL0     C72340   1.483   1.088   5.021 -0.0315  0.3926 -0.2159
  525MOL0     C72341   1.303   1.010   5.195  0.7958 -0.3978 -0.2566
  525MOL0     C72342   1.202   1.116   5.175  0.1586  0.4678  0.1444
  525MOL0     O72343   1.092   1.100   5.241 -0.8475  0.1912 -0.9556
  525MOL0     C72344   0.990   1.188   5.234 -0.7617 -1.0158  0.5667
  525MOL0     C72345   0.879   1.176   5.149 -0.6090 -0.6597 -0.4738
  525MOL0     C72346   0.780   1.281   5.142  0.2970  0.4004 -0.5753
  525MOL0     C72347   0.791   1.401   5.224 -0.5882  0.1524 -0.3725
  525MOL0     O72348   0.693   1.493   5.232  0.4980  0.5226 -0.2555
  525MOL0     C72349   0.720   1.616   5.299 -0.6454  0.3383  0.5490
  525MOL0     C72350   0.622   1.718   5.260 -0.1357  0.1117 -0.2129
  525MOL0     C72351   0.609   1.847   5.354 -0.6949 -0.0706  0.0019
  525MOL0     C72352   0.500   1.945   5.309 -0.4180 -0.3238  0.8397
  525MOL0     C72353   0.550   2.065   5.231  0.1991  0.3526 -0.1388
  525MOL0     C72354   0.430   2.152   5.189 -0.1631 -0.6628  0.0367
  525MOL0     C72355   0.471   2.263   5.089  0.5023  0.9832  0.7819
  525MOL0     C72356   0.571   2.363   5.157  0.7516 -0.3615  0.6117
  525MOL0    Cl72357   0.544   2.528   5.103  0.3516  0.1869  0.1183
  525MOL0     C72358   0.900   1.404   5.314 -0.0775  0.8228  0.2429
  525MOL0     C72359   1.004   1.300   5.315 -0.4032 -0.3120  0.3165
  525MOL0     O72360   1.222   1.205   5.095  0.2861 -0.4517 -0.0356
  525MOL0     C72361   1.277   0.911   5.295 -0.0744 -0.1787 -0.5549
  525MOL0     C72362   1.358   0.799   5.327 -0.1317  0.2337 -0.6036
  525MOL0     N72363   1.872   0.186   4.914 -0.6986  0.2232 -0.2988
  525MOL0     N72364   1.960   0.209   4.813 -0.4753 -0.2966  0.3339
  525MOL0     C72365   0.979   0.439   4.657 -0.2818 -0.0354 -0.3024
  525MOL0     C72366   0.847   0.471   4.620 -0.3599 -0.5673  0.6234
  525MOL0     C72367   0.516   0.597   4.330 -0.3175 -0.4010 -0.4106
  525MOL0     C72368   0.524   0.680   4.220 -0.7029 -0.3424 -0.1443
  525MOL0     C72369   0.414   0.725   4.163  0.5512 -0.3427  0.3802
  525MOL0     C72370   0.284   0.682   4.195 -0.1974 -0.4327 -0.6605
  525MOL0     O72371   0.182   0.744   4.127  0.9185  0.2953 -0.1445
  525MOL0     C72372   0.049   0.676   4.125  0.0108  0.5827 -0.4433
  525MOL0     C72373  -0.069   0.737   4.210  0.5031 -0.2150  0.2419
  525MOL0     C72374  -0.083   0.884   4.188 -0.6904 -0.0849  1.2482
  525MOL0     C72375  -0.106   0.977   4.313  0.5020 -0.1294  0.5119
  525MOL0     C72376  -0.223   0.924   4.381  0.0524  0.1821 -0.8371
  525MOL0     C72377  -0.311   0.863   4.447 -0.7272 -0.4851 -0.3566
  525MOL0     C72378   0.273   0.588   4.303  0.1402 -0.3762  0.2862
  525MOL0     C72379   0.389   0.541   4.370  0.5197  0.5791  0.2261
  525MOL0     C72380   0.383   0.450   4.491 -0.7814  0.0808 -0.3337
  525MOL0     H72381   0.819   0.275   4.344 -2.7851  3.3909 -0.2106
  525MOL0     H72382   1.054   0.215   4.415 -0.5683 -1.1326 -0.7853
  525MOL0     H72383   1.272   0.318   4.440  0.0746  0.7793  1.2541
  525MOL0     H72384   1.233   0.147   4.503 -0.5834 -0.3579  3.4889
  525MOL0     H72385   1.412   0.158   4.637 -1.4299 -1.1869 -1.3313
  525MOL0     H72386   1.469   0.192   4.479 -0.0230  1.8827  0.0770
  525MOL0     H72387   1.463   0.445   4.531  0.2421  1.8577 -0.0933
  525MOL0     H72388   1.431   0.412   4.697  2.5336  0.1227 -0.2789
  525MOL0     H72389   1.647   0.478   4.631 -0.7757  0.0499  0.4774
  525MOL0     H72390   1.662   0.320   4.708  0.6931  0.9680 -0.7070
  525MOL0     H72391   1.684   0.403   4.414 -1.1873 -1.2328 -0.0545
  525MOL0     H72392   1.660   0.238   4.461  0.3733 -0.0906  0.1228
  525MOL0     H72393   1.852   0.219   4.578 -0.1191  0.4483  0.7836
  525MOL0     H72394   1.882   0.270   4.419 -0.0485 -0.6770  0.7482
  525MOL0     H72395   1.857   0.496   4.602 -2.4925 -2.4736 -2.1905
  525MOL0     H72396   1.987   0.479   4.482  2.9313 -0.4535  1.2328
  525MOL0     H72397   2.108   0.320   4.632 -0.4045 -0.4273 -0.0693
  525MOL0     H72398   2.099   0.481   4.698 -0.9078 -0.2387  1.5707
  525MOL0     H72399   1.906   0.512   4.915 -3.4537 -0.2628  0.1069
  525MOL0     H72400   1.838   0.322   5.173 -3.1063  2.2378  2.5957
  525MOL0     H72401   1.711   0.237   5.100 -1.4266  1.4395  1.7126
  525MOL0     H72402   1.756   0.540   5.109  0.4826  0.2980  0.5617
  525MOL0     H72403   1.620   0.457   5.024 -0.9706 -1.1474  1.0209
  525MOL0     H72404   1.553   0.348   5.224 -3.9081  2.0552 -0.2985
  525MOL0     H72405   1.668   0.457   5.317 -0.0704  2.2099  0.7702
  525MOL0     H72406   1.463   0.577   5.136 -3.5301 -2.1075  0.5756
  525MOL0     H72407   1.435   0.541   5.313  1.6715 -0.9464  1.7073
  525MOL0     H72408   1.615   0.880   5.115 -0.2426 -1.1017 -0.5622
  525MOL0     H72409   1.588   1.067   4.996 -0.6070 -0.5836 -1.9739
  525MOL0     H72410   1.466   1.193   5.044  0.3150 -0.0068  2.1767
  525MOL0     H72411   1.434   1.047   4.932 -0.9509 -0.6025  0.7263
  525MOL0     H72412   0.871   1.085   5.091  2.4327  0.0234 -2.1858
  525MOL0     H72413   0.697   1.251   5.078  1.8594 -3.5694 -1.0462
  525MOL0     H72414   0.714   1.591   5.406  0.5352 -1.0946  0.3083
  525MOL0     H72415   0.816   1.660   5.274  0.9163 -3.1256 -0.1332
  525MOL0     H72416   0.652   1.750   5.160  1.4355  0.8244  0.4492
  525MOL0     H72417   0.527   1.665   5.249  0.6029 -0.9880 -1.6069
  525MOL0     H72418   0.708   1.892   5.350  0.6381 -2.7981  0.1366
  525MOL0     H72419   0.599   1.806   5.455 -0.5618  1.9412  0.8763
  525MOL0     H72420   0.418   1.970   5.376 -2.9426 -1.8699 -1.4571
  525MOL0     H72421   0.434   1.882   5.248  0.7348 -1.1115  0.3528
  525MOL0     H72422   0.610   2.128   5.298 -0.2535  0.9823 -0.3200
  525MOL0     H72423   0.615   2.020   5.155  2.4664  1.9356  0.7373
  525MOL0     H72424   0.389   2.203   5.276  0.1035  0.4584 -0.4672
  525MOL0     H72425   0.349   2.096   5.142  0.8237 -0.0246 -2.6272
  525MOL0     H72426   0.385   2.308   5.039 -0.3299 -1.2964  0.0358
  525MOL0     H72427   0.513   2.205   5.006 -2.0758  0.5901 -0.3580
  525MOL0     H72428   0.673   2.330   5.133  1.0645  0.0124  1.3849
  525MOL0     H72429   0.552   2.358   5.264 -0.4296  0.0484  0.4384
  525MOL0     H72430   0.917   1.493   5.374  3.2211  0.5051 -0.0060
  525MOL0     H72431   1.087   1.314   5.383  0.6440  1.0623 -1.1651
  525MOL0     H72432   1.186   0.921   5.353 -0.0493  0.2671 -0.5900
  525MOL0     H72433   1.332   0.716   5.392 -1.1752 -0.3421 -1.7175
  525MOL0     H72434   1.031   0.470   4.747  1.2662 -1.5364 -0.6291
  525MOL0     H72435   0.798   0.544   4.683  0.8151 -1.8900  3.2414
  525MOL0     H72436   0.622   0.693   4.174 -0.8806  0.8565 -0.2324
  525MOL0     H72437   0.424   0.804   4.090  3.0375 -0.8773  0.0237
  525MOL0     H72438   0.025   0.667   4.018 -0.2582 -3.1342 -0.1952
  525MOL0     H72439   0.064   0.575   4.164  1.3507  1.0455  0.2888
  525MOL0     H72440  -0.045   0.712   4.314  2.3586  1.0493  0.1825
  525MOL0     H72441  -0.165   0.685   4.202  0.5068 -0.5548  1.9517
  525MOL0     H72442   0.010   0.923   4.145 -2.0669  1.7191 -0.2545
  525MOL0     H72443  -0.157   0.896   4.108 -0.0660 -0.6139  0.5663
  525MOL0     H72444  -0.134   1.075   4.271 -1.8565 -1.7843 -2.1550
  525MOL0     H72445  -0.024   0.982   4.385 -0.0495 -0.5252  1.1767
  525MOL0     H72446  -0.388   0.813   4.502 -0.8232  1.0418  0.9756
  525MOL0     H72447   0.180   0.554   4.348 -0.0242 -0.2955  0.0027
  525MOL0     H72448   0.438   0.361   4.459  0.5675  0.7239  0.1196
  525MOL0     H72449   0.430   0.503   4.574 -0.2618 -0.1855 -0.4572
  525MOL0     H72450   0.279   0.427   4.518  0.6621 -1.1899  5.4398
  526MOL0     O72451   3.485  11.132   5.297 -0.4400  0.5454  0.5968
  526MOL0     C72452   3.365  11.145   5.265 -0.3063 -0.3897  0.4036
  526MOL0     O72453   3.315  11.235   5.164  0.3003  0.0754 -0.4440
  526MOL0     C72454   3.411  11.290   5.083  1.0295  0.2786 -0.0871
  526MOL0     C72455   3.497  11.214   5.008 -0.4656  0.1518  0.3651
  526MOL0     C72456   3.591  11.276   4.918 -0.7888 -0.6655  0.9140
  526MOL0     C72457   3.597  11.420   4.901  0.1585  1.1041  0.2148
  526MOL0     O72458   3.686  11.491   4.825  0.2168 -0.0837 -0.4327
  526MOL0     C72459   3.748  11.421   4.716 -0.2807  0.1630  0.2605
  526MOL0     C72460   3.653  11.412   4.595 -0.3568 -0.4915  0.3973
  526MOL0     C72461   3.600  11.547   4.552  0.2092 -0.4506 -0.2790
  526MOL0     C72462   3.523  11.540   4.418 -0.2726 -0.6567 -0.0269
  526MOL0     C72463   3.471  11.678   4.384 -0.0475 -0.3978  0.1672
  526MOL0     C72464   3.572  11.783   4.340 -0.4689 -0.7948 -0.6928
  526MOL0     C72465   3.512  11.925   4.331  0.2770  0.1594  0.6958
  526MOL0     C72466   3.401  11.928   4.220 -0.5002  0.3887 -0.2655
  526MOL0     N72467   3.361  12.062   4.191  0.5921  1.1011  0.1944
  526MOL0     C72468   3.285  12.098   4.088 -0.6557 -0.4969  1.4590
  526MOL0     C72469   3.261  12.232   4.093 -0.3900  0.3562  0.5455
  526MOL0     C72470   3.189  12.300   3.994  0.0098 -1.3951 -0.7865
  526MOL0     C72471   3.264  12.311   3.858 -0.0474  0.0940 -0.6420
  526MOL0     C72472   3.416  12.354   3.873 -0.2861 -0.1771 -0.7471
  526MOL0     C72473   3.496  12.347   3.744 -0.3431  0.1365  1.0353
  526MOL0     O72474   3.428  12.431   3.644  0.6592 -0.8369 -0.2255
  526MOL0     C72475   3.406  12.376   3.518  1.1408 -0.5721 -0.8299
  526MOL0     C72476   3.511  12.323   3.444 -0.0308  0.1814  0.1796
  526MOL0     C72477   3.498  12.285   3.312 -0.2634 -0.7574 -1.0225
  526MOL0     C72478   3.620  12.254   3.230 -0.0279 -0.8647  0.9111
  526MOL0     C72479   3.367  12.287   3.257  0.0206  0.2587 -0.6242
  526MOL0     C72480   3.336  12.223   3.129 -0.0276 -0.6511  0.3325
  526MOL0     O72481   3.237  12.273   3.051  0.5258 -0.1705 -0.4268
  526MOL0     C72482   3.168  12.206   2.948 -0.3123 -0.8230 -0.7251
  526MOL0     C72483   3.150  12.069   2.927  0.0874  0.1362 -0.9200
  526MOL0     C72484   3.081  12.024   2.820 -0.4427  0.4283  0.0181
  526MOL0     C72485   3.038  12.119   2.726  0.1268 -0.7098 -0.9792
  526MOL0     O72486   2.970  12.063   2.622  0.5559  0.2553 -0.1694
  526MOL0     C72487   2.949  12.154   2.514 -0.1145 -0.1511 -0.3841
  526MOL0     C72488   2.912  12.066   2.396  0.8419  0.0463  0.1705
  526MOL0     C72489   2.902  12.156   2.263 -0.0851 -0.2746  0.3921
  526MOL0     C72490   2.831  12.092   2.152 -0.0554  0.6187  0.3079
  526MOL0     C72491   2.855  12.174   2.014  0.5499  0.7743 -0.9260
  526MOL0     C72492   2.786  12.108   1.900  0.3373  0.6709  0.4186
  526MOL0     C72493   2.629  12.117   1.915  0.0449 -0.9596 -0.0147
  526MOL0     C72494   2.555  12.142   1.785  0.7247 -0.3154 -0.4349
  526MOL0    Cl72495   2.366  12.127   1.809  0.1404 -0.0195 -0.2598
  526MOL0     C72496   3.039  12.258   2.754 -0.0459 -0.4191  0.6725
  526MOL0     C72497   3.109  12.304   2.861  0.4895 -0.9476  0.2960
  526MOL0     O72498   3.403  12.127   3.108  1.1303  1.1069 -0.6117
  526MOL0     C72499   3.259  12.344   3.333 -0.0129 -0.6246  0.6443
  526MOL0     C72500   3.274  12.380   3.462 -0.4137 -0.3535  0.9875
  526MOL0     N72501   3.330  12.276   4.210  0.1894  0.5027 -0.0946
  526MOL0     N72502   3.380  12.173   4.266  0.7760 -0.0340  0.0284
  526MOL0     C72503   3.510  11.489   4.981  0.0013  0.1233 -1.1689
  526MOL0     C72504   3.410  11.431   5.070  0.2410  0.8250  0.3152
  526MOL0     C72505   3.262  11.065   5.330  0.6625  0.0973  0.1167
  526MOL0     C72506   3.124  11.114   5.335 -0.3430  0.1462 -0.3746
  526MOL0     C72507   3.029  11.046   5.402 -0.0410  0.0018 -0.2883
  526MOL0     C72508   3.053  10.922   5.450  0.4891 -0.3465  0.4216
  526MOL0     O72509   2.951  10.857   5.511 -0.0615  0.1666 -0.1264
  526MOL0     C72510   2.959  10.710   5.527 -0.0085 -1.0382  0.5406
  526MOL0     C72511   2.829  10.644   5.547  0.5763  0.6292 -0.2310
  526MOL0     C72512   2.737  10.648   5.433  0.1868 -0.2737  0.0832
  526MOL0     C72513   2.790  10.555   5.325  0.1504  0.2852  0.0187
  526MOL0     C72514   2.769  10.408   5.336  0.1882 -0.0278  0.1063
  526MOL0     C72515   2.767  10.287   5.336 -0.6229  0.2358  0.3220
  526MOL0     C72516   3.182  10.867   5.442 -0.5557  0.1576 -0.6438
  526MOL0     C72517   3.294  10.945   5.405 -0.6305  0.0166  0.1669
  526MOL0     C72518   3.434  10.886   5.432  0.5081  0.1371 -0.3641
  526MOL0     H72519   3.488  11.107   5.018  1.3885  0.0697  1.5242
  526MOL0     H72520   3.654  11.208   4.863  0.3862  0.9200  0.2225
  526MOL0     H72521   3.777  11.320   4.745 -0.0191  0.9922  3.2595
  526MOL0     H72522   3.839  11.474   4.686 -0.6121 -0.1316 -1.3267
  526MOL0     H72523   3.705  11.373   4.507 -0.5416 -2.8776  1.2692
  526MOL0     H72524   3.570  11.347   4.624 -0.1568  0.1895  2.7087
  526MOL0     H72525   3.532  11.588   4.627 -1.0768 -3.4253  0.3046
  526MOL0     H72526   3.691  11.607   4.553  0.7289 -1.1642 -1.7845
  526MOL0     H72527   3.585  11.505   4.335  2.2827  0.7197  1.1726
  526MOL0     H72528   3.446  11.463   4.425  1.2488 -2.2616 -0.0086
  526MOL0     H72529   3.415  11.710   4.472 -0.2993 -1.8180  0.5464
  526MOL0     H72530   3.399  11.661   4.303  1.4470 -1.0950 -1.0741
  526MOL0     H72531   3.671  11.783   4.387 -0.0740 -1.0618 -1.5012
  526MOL0     H72532   3.594  11.753   4.237  2.2675  0.2211 -0.5035
  526MOL0     H72533   3.591  11.999   4.318  2.0804 -0.7629  4.9629
  526MOL0     H72534   3.475  11.961   4.427 -1.1765  2.6133 -0.6749
  526MOL0     H72535   3.430  11.873   4.130  3.1688  0.3679  0.7655
  526MOL0     H72536   3.316  11.872   4.260  1.5933 -0.4176  3.5227
  526MOL0     H72537   3.232  12.036   4.017 -3.3584 -0.6573  3.4773
  526MOL0     H72538   3.150  12.397   4.028  0.9966 -0.5649 -1.9327
  526MOL0     H72539   3.096  12.245   3.982 -2.4008  1.6495  2.0050
  526MOL0     H72540   3.271  12.218   3.802  0.8638  0.5912 -1.3839
  526MOL0     H72541   3.203  12.379   3.797  0.2831  2.0760  1.0857
  526MOL0     H72542   3.411  12.453   3.919 -0.8105 -1.9463  3.4040
  526MOL0     H72543   3.472  12.297   3.947  1.7480  2.6270  0.0108
  526MOL0     H72544   3.596  12.391   3.749 -0.6093  1.1812 -1.4124
  526MOL0     H72545   3.508  12.242   3.714 -0.3479  0.4663 -0.1925
  526MOL0     H72546   3.602  12.337   3.501 -0.4863  3.3665  0.3449
  526MOL0     H72547   3.707  12.288   3.286 -0.8496  0.4597  1.4247
  526MOL0     H72548   3.621  12.314   3.139  0.9601 -1.8250  0.2608
  526MOL0     H72549   3.629  12.145   3.220 -1.1552 -0.8906 -0.0349
  526MOL0     H72550   3.196  12.008   3.004 -0.0150  0.1551 -0.8421
  526MOL0     H72551   3.065  11.918   2.808  0.1429  0.1830  1.2351
  526MOL0     H72552   2.862  12.220   2.528  0.5812  0.5816  0.6423
  526MOL0     H72553   3.033  12.222   2.496  0.3211 -0.4171  0.6011
  526MOL0     H72554   2.972  11.975   2.387 -2.2929 -2.6237  3.2837
  526MOL0     H72555   2.810  12.031   2.415  0.5845  0.9406  0.4758
  526MOL0     H72556   3.003  12.190   2.242 -0.0258 -0.1547  0.8548
  526MOL0     H72557   2.844  12.241   2.300 -3.2609 -2.2897  0.4870
  526MOL0     H72558   2.722  12.095   2.162 -0.1505  3.1887 -0.7289
  526MOL0     H72559   2.841  11.984   2.137  0.6215  0.7093  0.0869
  526MOL0     H72560   2.826  12.278   2.032 -2.8412  0.1338 -1.9886
  526MOL0     H72561   2.963  12.183   1.995  1.2645 -1.6642  1.4059
  526MOL0     H72562   2.816  12.003   1.892  0.8239  0.8024  0.5427
  526MOL0     H72563   2.816  12.161   1.809 -3.2134 -1.5302 -2.3377
  526MOL0     H72564   2.593  12.189   1.990  0.4388  0.6390 -1.3053
  526MOL0     H72565   2.598  12.019   1.951  0.3689 -1.4059 -0.9358
  526MOL0     H72566   2.569  12.062   1.711  0.9675  0.3242 -1.0865
  526MOL0     H72567   2.577  12.243   1.750 -0.4496 -0.5195 -1.8787
  526MOL0     H72568   3.014  12.339   2.687  3.4749  1.1727  1.0745
  526MOL0     H72569   3.099  12.411   2.881  0.9570 -0.6359 -1.0151
  526MOL0     H72570   3.161  12.351   3.286 -0.3975  1.0927  1.6242
  526MOL0     H72571   3.186  12.414   3.514 -1.9199  0.2998 -1.8153
  526MOL0     H72572   3.522  11.595   4.961  0.0467  0.5437  0.8976
  526MOL0     H72573   3.326  11.475   5.123 -2.9409 -5.7680  1.8528
  526MOL0     H72574   3.107  11.208   5.285  3.4385  0.3815 -1.5841
  526MOL0     H72575   2.933  11.086   5.436  2.1486  3.6258  2.4560
  526MOL0     H72576   3.009  10.672   5.437  1.0921  1.8889 -0.1823
  526MOL0     H72577   3.013  10.669   5.613  1.3350 -2.6935 -0.9872
  526MOL0     H72578   2.782  10.688   5.636  0.1237 -0.2715 -0.0003
  526MOL0     H72579   2.845  10.540   5.579  0.9951  1.1547  1.3416
  526MOL0     H72580   2.634  10.618   5.455 -0.5913  2.9821  1.4425
  526MOL0     H72581   2.730  10.751   5.397  1.4979  1.3613  3.9299
  526MOL0     H72582   2.894  10.568   5.294  0.5551 -0.9691  0.7686
  526MOL0     H72583   2.735  10.571   5.232  1.9675  0.5538 -1.0396
  526MOL0     H72584   2.739  10.184   5.336 -2.1588  0.6143  1.7074
  526MOL0     H72585   3.201  10.780   5.505 -1.1443 -1.9473 -3.1811
  526MOL0     H72586   3.496  10.891   5.342  2.0146 -1.8655  0.4886
  526MOL0     H72587   3.480  10.938   5.517  0.7286  2.6077 -1.8702
  526MOL0     H72588   3.431  10.785   5.474 -0.1055  1.2498  2.5232
  527MOL0     O72589   9.368   2.805   9.228  0.5423  0.4232 -0.0413
  527MOL0     C72590   9.362   2.925   9.246 -1.2483 -0.5054 -0.7419
  527MOL0     O72591   9.253   3.001   9.231 -0.2824 -0.5644  0.5758
  527MOL0     C72592   9.124   2.952   9.195  0.8340 -0.4343 -0.3756
  527MOL0     C72593   9.091   2.852   9.100 -0.6008  0.5064 -0.1558
  527MOL0     C72594   8.955   2.830   9.055 -0.2307 -0.8436 -0.1530
  527MOL0     C72595   8.852   2.901   9.116  0.2141 -0.3084 -0.4754
  527MOL0     O72596   8.719   2.864   9.106  0.2575  0.2797  0.4509
  527MOL0     C72597   8.644   2.953   9.027  0.4306 -0.3952 -0.3679
  527MOL0     C72598   8.488   2.922   9.030 -0.8210 -0.0992  0.9953
  527MOL0     C72599   8.407   3.041   8.981  1.0176 -0.0966  0.1353
  527MOL0     C72600   8.257   3.017   8.978 -0.5806 -0.1813  0.0641
  527MOL0     C72601   8.187   3.000   9.110  0.7338  0.8357  0.6151
  527MOL0     C72602   8.035   2.968   9.093 -0.0315  0.2324 -0.0701
  527MOL0     C72603   7.955   3.010   9.223  0.5571 -0.2372  0.0296
  527MOL0     C72604   7.805   2.959   9.224 -0.3459  0.3745 -0.9159
  527MOL0     N72605   7.803   2.810   9.237  0.1382  0.4272  0.5123
  527MOL0     C72606   7.795   2.719   9.135 -0.0430 -0.4969 -0.1409
  527MOL0     C72607   7.811   2.597   9.189 -0.7702  0.0222 -0.6071
  527MOL0     C72608   7.834   2.472   9.110  0.2637  0.3573 -0.4827
  527MOL0     C72609   7.943   2.494   9.010 -0.7035 -0.7071 -0.2401
  527MOL0     C72610   7.977   2.379   8.918 -0.1622 -0.6264  0.6102
  527MOL0     C72611   8.125   2.383   8.876 -0.1325 -0.0441 -0.3435
  527MOL0     O72612   8.156   2.524   8.837  0.0640 -0.2361  0.3760
  527MOL0     C72613   8.271   2.542   8.764  0.0875 -0.0520 -0.1590
  527MOL0     C72614   8.310   2.670   8.735 -0.1086 -0.3030  0.8646
  527MOL0     C72615   8.415   2.701   8.640 -0.3065 -0.8248  0.0912
  527MOL0     C72616   8.451   2.846   8.634  0.2978  0.2228  0.5913
  527MOL0     C72617   8.482   2.593   8.572  0.6728  0.8928 -0.4479
  527MOL0     C72618   8.572   2.610   8.456 -0.1663 -0.9629  1.0913
  527MOL0     O72619   8.663   2.512   8.425  0.0030 -0.7146 -0.3979
  527MOL0     C72620   8.730   2.516   8.308 -0.0161  0.5634 -0.2244
  527MOL0     C72621   8.674   2.503   8.178 -0.5700  0.6238  0.8448
  527MOL0     C72622   8.767   2.512   8.069  0.5608  0.3547 -0.1556
  527MOL0     C72623   8.905   2.530   8.081  0.0981  1.5967  0.5588
  527MOL0     O72624   8.990   2.506   7.980  0.0224  1.0019  0.4549
  527MOL0     C72625   9.043   2.621   7.924 -0.7582 -0.6606  0.5789
  527MOL0     C72626   9.138   2.586   7.806 -0.0746 -0.2983  0.3661
  527MOL0     C72627   9.237   2.693   7.780 -0.4116  0.3559  0.8803
  527MOL0     C72628   9.187   2.830   7.748 -0.6008 -0.3318  0.8565
  527MOL0     C72629   9.309   2.924   7.743  0.7934  0.3603  1.4342
  527MOL0     C72630   9.265   3.065   7.688  0.4611 -0.4591  0.0988
  527MOL0     C72631   9.387   3.158   7.666  0.1965 -0.0991  0.2844
  527MOL0     C72632   9.345   3.297   7.592 -1.7244 -0.0202  0.1882
  527MOL0    Cl72633   9.283   3.392   7.730 -0.2903 -0.2362 -0.0878
  527MOL0     C72634   8.944   2.569   8.213  0.4719  0.1175 -0.9717
  527MOL0     C72635   8.867   2.552   8.325 -0.2024  0.5808 -0.3649
  527MOL0     O72636   8.554   2.711   8.383  0.6421  0.3661 -0.5016
  527MOL0     C72637   8.459   2.461   8.627  0.0806 -0.2066 -0.6318
  527MOL0     C72638   8.354   2.435   8.721  0.1946 -0.5791  0.1264
  527MOL0     N72639   7.809   2.607   9.324 -0.4895  0.2789  0.7182
  527MOL0     N72640   7.799   2.731   9.351  0.7463 -0.3508  0.4771
  527MOL0     C72641   8.879   2.997   9.208  0.2340 -0.6960 -0.4335
  527MOL0     C72642   9.014   3.027   9.237 -0.7881 -0.0875  0.4483
  527MOL0     C72643   9.495   2.998   9.266  0.5920  1.0309 -0.1967
  527MOL0     C72644   9.478   3.133   9.301  0.1731 -0.2532 -0.2509
  527MOL0     C72645   9.577   3.208   9.351 -0.0465 -0.1093 -0.5416
  527MOL0     C72646   9.707   3.155   9.373  0.4517  0.9874 -0.0228
  527MOL0     O72647   9.816   3.228   9.405 -0.0203  0.7467 -0.9500
  527MOL0     C72648   9.800   3.319   9.518  0.4650  0.6928 -0.1881
  527MOL0     C72649   9.920   3.314   9.613  0.1220  0.9543 -1.4076
  527MOL0     C72650  10.049   3.362   9.549 -0.5286  0.4175 -0.8762
  527MOL0     C72651  10.160   3.340   9.639  0.7292  0.4998  0.4573
  527MOL0     C72652  10.271   3.440   9.619  0.0087  0.5526  0.3914
  527MOL0     C72653  10.361   3.524   9.606  0.2968  0.1357 -0.2936
  527MOL0     C72654   9.726   3.020   9.329 -0.0653  0.3029 -0.4159
  527MOL0     C72655   9.625   2.940   9.278  0.5928 -0.4839  0.1608
  527MOL0     C72656   9.664   2.801   9.243 -0.2782  0.0352 -0.3052
  527MOL0     H72657   9.171   2.788   9.065 -1.5706 -0.6731 -0.2666
  527MOL0     H72658   8.943   2.751   8.982  1.6245 -3.2114  1.8668
  527MOL0     H72659   8.669   2.940   8.921  0.9274  2.9916 -0.7652
  527MOL0     H72660   8.653   3.056   9.064 -1.7638 -1.3419  3.3590
  527MOL0     H72661   8.463   2.838   8.965 -1.1177 -0.1058  1.1124
  527MOL0     H72662   8.452   2.893   9.130 -1.6553 -2.2792  0.1236
  527MOL0     H72663   8.421   3.136   9.033 -0.4044  2.2258 -3.3572
  527MOL0     H72664   8.441   3.060   8.879 -1.6464  0.8253 -0.6389
  527MOL0     H72665   8.205   3.096   8.922 -4.6835 -1.3551  1.8668
  527MOL0     H72666   8.231   2.932   8.914  0.4945  1.4356 -2.7261
  527MOL0     H72667   8.189   3.103   9.146  0.8771  2.2407 -3.0081
  527MOL0     H72668   8.233   2.922   9.172 -0.1145 -1.0527 -1.0170
  527MOL0     H72669   7.992   3.021   9.007 -1.1019  0.2469  0.4594
  527MOL0     H72670   8.029   2.859   9.080  1.4563  0.2527 -1.1132
  527MOL0     H72671   7.955   3.119   9.220  2.0815 -0.2097  0.0658
  527MOL0     H72672   8.011   2.981   9.312 -0.0776  1.3524  0.9704
  527MOL0     H72673   7.760   2.998   9.316 -2.1815 -2.6312 -0.4113
  527MOL0     H72674   7.750   2.985   9.133 -0.4556 -1.9461 -1.5822
  527MOL0     H72675   7.781   2.738   9.030  1.8731  0.6422 -0.2481
  527MOL0     H72676   7.738   2.446   9.064 -0.8527  1.4859  1.1014
  527MOL0     H72677   7.859   2.387   9.175  3.0875  1.6790  0.3274
  527MOL0     H72678   7.928   2.581   8.946 -2.0723 -0.2558  0.6524
  527MOL0     H72679   8.036   2.507   9.067 -1.1105  0.8080  0.1119
  527MOL0     H72680   7.956   2.290   8.978  2.2166 -1.4041  0.3851
  527MOL0     H72681   7.914   2.376   8.828  0.4060  0.8202  0.1450
  527MOL0     H72682   8.197   2.351   8.952  2.8885  5.5677 -0.2357
  527MOL0     H72683   8.141   2.323   8.786 -1.6427  1.1956 -1.4909
  527MOL0     H72684   8.251   2.745   8.787 -0.0656 -0.7764  1.6021
  527MOL0     H72685   8.433   2.892   8.536 -2.6843 -2.0477 -0.0840
  527MOL0     H72686   8.560   2.843   8.644  0.3758  1.4412  0.3149
  527MOL0     H72687   8.397   2.900   8.712 -2.0357 -1.1903  0.0728
  527MOL0     H72688   8.571   2.475   8.156 -0.5818  1.0385  0.3455
  527MOL0     H72689   8.733   2.480   7.971  0.9618 -0.4352 -0.0503
  527MOL0     H72690   8.973   2.694   7.882  0.7899  0.6584  0.2197
  527MOL0     H72691   9.100   2.668   8.004 -1.6192  0.2546  0.6727
  527MOL0     H72692   9.192   2.493   7.827  0.5819 -0.0110 -0.0128
  527MOL0     H72693   9.080   2.569   7.714 -0.2310  2.0817 -0.0297
  527MOL0     H72694   9.310   2.661   7.704 -0.6791  0.1862  0.6953
  527MOL0     H72695   9.290   2.712   7.874 -2.7096 -1.2009  2.5578
  527MOL0     H72696   9.124   2.859   7.833  0.7248  0.5982  1.5483
  527MOL0     H72697   9.130   2.842   7.655  1.1255  1.5179 -0.0215
  527MOL0     H72698   9.343   2.936   7.846  3.9288  0.2411  0.5033
  527MOL0     H72699   9.393   2.895   7.680  0.4194 -1.2784  1.6436
  527MOL0     H72700   9.208   3.112   7.768  0.1819  0.3009 -0.5368
  527MOL0     H72701   9.210   3.051   7.594  1.2344 -4.1399  0.0122
  527MOL0     H72702   9.469   3.125   7.602  1.5454  1.8483  0.9111
  527MOL0     H72703   9.435   3.179   7.762  1.8062 -0.7564 -0.3295
  527MOL0     H72704   9.273   3.284   7.511 -0.4211 -0.4529 -0.9343
  527MOL0     H72705   9.426   3.350   7.542 -3.1470 -1.6632 -4.3414
  527MOL0     H72706   9.048   2.582   8.241 -0.0076 -0.6724  1.4116
  527MOL0     H72707   8.911   2.571   8.422  1.4440  0.3432 -1.0425
  527MOL0     H72708   8.523   2.378   8.600  2.4442 -0.2960  4.1008
  527MOL0     H72709   8.340   2.333   8.756  1.5353 -0.1461  2.0964
  527MOL0     H72710   8.795   3.044   9.257 -0.5397 -1.3052 -1.1357
  527MOL0     H72711   9.036   3.111   9.302  0.0283 -0.0277  0.1099
  527MOL0     H72712   9.382   3.183   9.304 -0.6077 -1.2794 -3.5117
  527MOL0     H72713   9.562   3.315   9.364 -0.8737 -0.4066  1.2995
  527MOL0     H72714   9.771   3.416   9.479  0.0685  0.9201  0.6491
  527MOL0     H72715   9.710   3.287   9.571  0.5693 -1.7358 -1.3412
  527MOL0     H72716   9.934   3.214   9.656  2.3601  1.8712  0.2396
  527MOL0     H72717   9.902   3.375   9.702  2.2852 -2.0843  1.3630
  527MOL0     H72718  10.077   3.319   9.452  1.5347  1.2150 -0.6629
  527MOL0     H72719  10.038   3.470   9.536 -1.7275  0.9167  3.0578
  527MOL0     H72720  10.196   3.238   9.628  0.8319  0.6871 -1.1527
  527MOL0     H72721  10.128   3.344   9.744 -1.1004 -2.1195  0.0818
  527MOL0     H72722  10.430   3.604   9.591 -2.6473  2.6537 -1.5215
  527MOL0     H72723   9.824   2.980   9.351  0.9686  2.3663 -0.9647
  527MOL0     H72724   9.769   2.778   9.263 -0.3613 -0.4488 -0.4084
  527MOL0     H72725   9.600   2.747   9.314 -1.3077  2.9771  1.1884
  527MOL0     H72726   9.636   2.783   9.139  2.0119  0.8763 -1.1301
  528MOL0     O72727   9.141   7.306   8.397 -0.9982  0.0985  0.7343
  528MOL0     C72728   9.159   7.226   8.301  0.3549  0.6697 -0.5592
  528MOL0     O72729   9.271   7.133   8.298 -0.0350 -0.3540 -0.3027
  528MOL0     C72730   9.367   7.142   8.393 -1.1716 -0.1175  0.3723
  528MOL0     C72731   9.440   7.265   8.409  0.1220 -0.4770 -0.4614
  528MOL0     C72732   9.527   7.274   8.516  0.5419 -0.3049  0.1830
  528MOL0     C72733   9.549   7.166   8.601  0.0677  0.7354  0.1453
  528MOL0     O72734   9.641   7.180   8.712 -0.0650 -0.3412  0.0628
  528MOL0     C72735   9.718   7.066   8.742 -0.0457  0.1193 -0.2111
  528MOL0     C72736   9.806   7.115   8.851  0.5646  0.0410  0.2478
  528MOL0     C72737   9.747   7.085   8.988  0.2613  0.3822 -0.6171
  528MOL0     C72738   9.817   7.182   9.085 -0.3865 -0.3502  0.6749
  528MOL0     C72739   9.756   7.188   9.218  0.1210  0.3473 -0.6498
  528MOL0     C72740   9.792   7.064   9.303  0.0159  0.4728 -0.1189
  528MOL0     C72741   9.950   7.052   9.322  0.5975  0.5564  1.8959
  528MOL0     C72742  10.019   7.149   9.424 -0.2703 -0.4867  1.0806
  528MOL0     N72743  10.170   7.122   9.441  0.4812  0.5742 -0.1939
  528MOL0     C72744  10.251   7.128   9.332  0.8120  0.1647 -0.3733
  528MOL0     C72745  10.372   7.088   9.370 -0.2703 -0.6804 -0.4620
  528MOL0     C72746  10.496   7.085   9.285 -0.2478 -0.4682  0.5975
  528MOL0     C72747  10.586   6.949   9.295  0.3138  0.1920 -0.3083
  528MOL0     C72748  10.663   6.909   9.167 -0.2212 -0.2565  0.6287
  528MOL0     C72749  10.736   6.778   9.187 -0.0518 -0.2983  0.6247
  528MOL0     O72750  10.654   6.664   9.209  0.9256  0.1605  0.5782
  528MOL0     C72751  10.601   6.597   9.101 -0.1070  0.4336 -0.2226
  528MOL0     C72752  10.673   6.533   9.010 -0.0661  0.8569 -0.3050
  528MOL0     C72753  10.622   6.458   8.903 -0.2698 -0.0765  0.7083
  528MOL0     C72754  10.727   6.408   8.803 -0.7328 -0.2450  1.4356
  528MOL0     C72755  10.484   6.448   8.884 -0.6611 -0.0149 -0.0224
  528MOL0     C72756  10.417   6.383   8.776 -0.0719  0.0061  0.5814
  528MOL0     O72757  10.278   6.399   8.770  0.3375 -0.2691 -0.5380
  528MOL0     C72758  10.207   6.406   8.662  0.0672 -0.2844 -0.6384
  528MOL0     C72759  10.263   6.435   8.539  0.4890  0.2138 -1.0770
  528MOL0     C72760  10.180   6.436   8.428 -0.3513 -0.0516  0.8565
  528MOL0     C72761  10.048   6.420   8.436 -0.0386  0.2580  0.2970
  528MOL0     O72762   9.979   6.442   8.323  0.4264  0.0443  0.1175
  528MOL0     C72763   9.892   6.329   8.287 -0.7451 -0.1552  0.5265
  528MOL0     C72764   9.766   6.377   8.218  0.9164  1.1524 -0.9899
  528MOL0     C72765   9.781   6.395   8.067  1.0818 -0.1267  0.1071
  528MOL0     C72766   9.663   6.468   8.005 -0.3324  0.1813 -0.2153
  528MOL0     C72767   9.641   6.461   7.861 -1.1715 -0.3467 -0.5703
  528MOL0     C72768   9.573   6.338   7.812 -0.9572  0.9645  0.4920
  528MOL0     C72769   9.560   6.349   7.660 -0.2351  0.3013  0.1231
  528MOL0     C72770   9.470   6.234   7.606 -0.3437 -0.1133  0.5714
  528MOL0    Cl72771   9.429   6.280   7.444 -0.0608  0.1948  0.1206
  528MOL0     C72772   9.987   6.404   8.556  0.5753 -0.7975  0.1311
  528MOL0     C72773  10.064   6.397   8.672  0.9783 -0.3290  0.1634
  528MOL0     O72774  10.484   6.312   8.703 -1.2369  0.3924  0.1853
  528MOL0     C72775  10.406   6.515   8.983  1.1424  0.0536  0.2803
  528MOL0     C72776  10.464   6.582   9.091  0.6774 -0.5758 -0.4063
  528MOL0     N72777  10.362   7.059   9.511  0.4369 -0.7614  0.0037
  528MOL0     N72778  10.238   7.075   9.547 -0.4480 -0.2724  0.2581
  528MOL0     C72779   9.479   7.041   8.571  1.7154 -0.4607 -0.9874
  528MOL0     C72780   9.379   7.030   8.474 -0.8476 -0.3778 -0.6407
  528MOL0     C72781   9.053   7.210   8.199  0.2392  0.1386  0.3187
  528MOL0     C72782   9.087   7.138   8.081  0.3167 -1.2017 -0.3367
  528MOL0     C72783   9.001   7.118   7.979 -0.3356  0.5734 -0.5197
  528MOL0     C72784   8.873   7.156   7.983  0.5750  0.4606 -0.6362
  528MOL0     O72785   8.811   7.126   7.865  0.1546  0.1959  0.6444
  528MOL0     C72786   8.689   7.047   7.899 -0.4089  0.4483 -0.1458
  528MOL0     C72787   8.715   6.893   7.889 -1.0668  0.4954  0.1227
  528MOL0     C72788   8.824   6.839   7.983 -0.1766 -0.6088 -0.8703
  528MOL0     C72789   8.786   6.855   8.133 -0.7505 -0.4705 -1.0713
  528MOL0     C72790   8.899   6.850   8.236 -0.6111  0.7785 -0.2597
  528MOL0     C72791   9.001   6.860   8.306 -0.0176  0.6713 -1.0269
  528MOL0     C72792   8.828   7.234   8.096  0.5012  0.7258  0.4269
  528MOL0     C72793   8.915   7.255   8.203 -0.2678 -0.3649  0.1151
  528MOL0     C72794   8.865   7.325   8.332 -0.3879  0.0089  0.9362
  528MOL0     H72795   9.434   7.354   8.347  0.1112 -2.0049 -2.7670
  528MOL0     H72796   9.577   7.368   8.538  1.1602 -0.4668 -0.5002
  528MOL0     H72797   9.768   7.057   8.645 -1.1041  1.4192 -0.9037
  528MOL0     H72798   9.657   6.981   8.772  0.7884 -0.3912  0.0637
  528MOL0     H72799   9.906   7.072   8.836  0.5595 -0.0279  0.4058
  528MOL0     H72800   9.828   7.221   8.834 -0.8415  0.4352  0.8049
  528MOL0     H72801   9.639   7.106   8.992  0.0999 -0.6038  0.9800
  528MOL0     H72802   9.758   6.985   9.030  1.5695  1.4914  1.9106
  528MOL0     H72803   9.924   7.162   9.080  0.1239  2.0085  1.2735
  528MOL0     H72804   9.822   7.283   9.045  0.1653 -0.3016  0.8637
  528MOL0     H72805   9.647   7.200   9.208 -0.0603 -0.9403 -0.3604
  528MOL0     H72806   9.799   7.272   9.274  0.0346  0.5324 -0.8565
  528MOL0     H72807   9.746   7.075   9.402  4.4932 -1.0512  2.4363
  528MOL0     H72808   9.759   6.967   9.266  3.9131 -1.1558  0.1945
  528MOL0     H72809  10.011   7.060   9.232  1.3671  0.8035  2.4237
  528MOL0     H72810   9.966   6.946   9.347 -0.6776 -0.4942 -1.2996
  528MOL0     H72811  10.016   7.251   9.385 -1.1933 -0.6096  0.8043
  528MOL0     H72812   9.967   7.147   9.520  0.9501 -1.5785  1.7467
  528MOL0     H72813  10.228   7.147   9.228 -0.0953 -4.6732 -1.3216
  528MOL0     H72814  10.562   7.170   9.302  0.2303 -0.1540 -2.3464
  528MOL0     H72815  10.461   7.094   9.182 -1.7249  0.4432  1.1466
  528MOL0     H72816  10.657   6.975   9.374 -1.7417  0.0652  1.7015
  528MOL0     H72817  10.517   6.871   9.330  0.7396  0.2990  0.8071
  528MOL0     H72818  10.597   6.905   9.080 -1.1445 -0.2700  1.3183
  528MOL0     H72819  10.733   6.991   9.147 -1.3775  0.7763  0.7534
  528MOL0     H72820  10.806   6.774   9.103  0.1509  2.0482  0.6272
  528MOL0     H72821  10.794   6.793   9.278  6.0441  0.1229 -2.8215
  528MOL0     H72822  10.780   6.547   9.019  0.2217 -1.8374  2.0486
  528MOL0     H72823  10.823   6.460   8.811 -0.9217  0.0192  2.0282
  528MOL0     H72824  10.687   6.430   8.703  1.6307  3.8189  1.1555
  528MOL0     H72825  10.748   6.301   8.810 -4.0381 -1.1203 -0.0288
  528MOL0     H72826  10.369   6.451   8.519  1.0710 -2.4483 -0.6024
  528MOL0     H72827  10.227   6.470   8.336 -0.7392 -2.1811 -0.1859
  528MOL0     H72828   9.948   6.267   8.217 -1.8376 -1.0372  0.3982
  528MOL0     H72829   9.860   6.262   8.368 -1.1873  0.1451  0.6078
  528MOL0     H72830   9.693   6.301   8.247  1.1791  0.7943 -1.2526
  528MOL0     H72831   9.727   6.467   8.266 -0.8768 -0.4507  0.7432
  528MOL0     H72832   9.777   6.295   8.022 -1.7677  0.0023 -0.0849
  528MOL0     H72833   9.876   6.439   8.035 -1.1215  5.4701  0.1815
  528MOL0     H72834   9.666   6.572   8.037  0.0556  0.0590  0.1620
  528MOL0     H72835   9.577   6.419   8.052 -1.6334  0.7898 -1.8630
  528MOL0     H72836   9.586   6.552   7.835  0.6360  1.3094  1.0049
  528MOL0     H72837   9.738   6.465   7.809 -0.6195 -2.5187  0.1887
  528MOL0     H72838   9.472   6.328   7.853 -0.9897 -1.2470 -0.0142
  528MOL0     H72839   9.627   6.250   7.846 -0.2746  1.6044  1.1134
  528MOL0     H72840   9.662   6.346   7.619  0.4676  1.8911  1.6390
  528MOL0     H72841   9.518   6.443   7.625  0.1934  0.7617  0.8274
  528MOL0     H72842   9.379   6.227   7.667 -1.2637 -2.9925 -0.9545
  528MOL0     H72843   9.502   6.130   7.600 -1.7288 -0.4974 -1.1871
  528MOL0     H72844   9.879   6.401   8.565  0.5483  0.6347  0.5240
  528MOL0     H72845  10.012   6.387   8.767  3.5641 -2.6685  1.4788
  528MOL0     H72846  10.299   6.516   8.963  1.4793  1.9997 -1.8131
  528MOL0     H72847  10.392   6.640   9.148 -1.8825 -1.9907 -1.9502
  528MOL0     H72848   9.485   6.952   8.634  0.9162  0.6617  0.7471
  528MOL0     H72849   9.328   6.934   8.478  0.0258 -0.8174  1.9289
  528MOL0     H72850   9.188   7.104   8.057 -0.0947 -1.8518 -1.1734
  528MOL0     H72851   9.042   7.071   7.890  1.3202 -0.5273  0.7651
  528MOL0     H72852   8.650   7.076   7.997  4.6338 -4.0050  3.7647
  528MOL0     H72853   8.620   7.062   7.815  1.8000  1.4093 -1.8933
  528MOL0     H72854   8.734   6.871   7.783 -1.6578  0.4613  0.0193
  528MOL0     H72855   8.618   6.842   7.900 -1.8493  2.2817  2.1847
  528MOL0     H72856   8.844   6.733   7.966  0.2749 -0.9780  1.6123
  528MOL0     H72857   8.923   6.887   7.978  2.0621 -4.4397  1.4703
  528MOL0     H72858   8.723   6.770   8.160  0.4963 -1.3479 -0.8217
  528MOL0     H72859   8.720   6.939   8.158 -0.2162 -0.8299  1.9344
  528MOL0     H72860   9.096   6.868   8.354 -0.3460  0.1866 -0.2888
  528MOL0     H72861   8.725   7.267   8.088  1.3144  3.4329  0.3200
  528MOL0     H72862   8.905   7.427   8.332 -1.9231  0.7636 -2.5614
  528MOL0     H72863   8.758   7.344   8.326 -0.0966  1.7132  0.7255
  528MOL0     H72864   8.895   7.280   8.427 -1.4169 -3.3091 -0.1436
  529MOL0     O72865   0.621   1.156   4.241 -0.8169  0.2283  0.1163
  529MOL0     C72866   0.659   1.158   4.123 -0.4016 -0.5073 -0.2230
  529MOL0     O72867   0.580   1.198   4.013  0.0391  0.3174 -0.0932
  529MOL0     C72868   0.443   1.204   4.016  0.8492  0.2485 -0.0246
  529MOL0     C72869   0.378   1.262   3.909 -0.0639 -0.1558  0.1407
  529MOL0     C72870   0.233   1.253   3.906 -0.5193 -0.1864  0.8673
  529MOL0     C72871   0.156   1.189   4.007  0.3287 -0.0097  0.1866
  529MOL0     O72872   0.021   1.164   4.006  0.2367 -0.2720  0.8884
  529MOL0     C72873  -0.041   1.217   3.889  0.2538  0.6246  0.9214
  529MOL0     C72874  -0.189   1.180   3.903 -0.3944  0.5282  0.0670
  529MOL0     C72875  -0.234   1.057   3.825  0.0118  0.1166 -0.9226
  529MOL0     C72876  -0.365   1.011   3.881 -1.2404 -0.4466  0.5302
  529MOL0     C72877  -0.429   0.907   3.796 -0.1007  1.7172  0.9474
  529MOL0     C72878  -0.467   0.948   3.654  0.8835  0.3544  0.0018
  529MOL0     C72879  -0.583   1.046   3.652  0.3462 -0.8562 -0.2754
  529MOL0     C72880  -0.652   1.057   3.516  0.4374  1.0481  0.2394
  529MOL0     N72881  -0.772   0.976   3.500 -0.7093 -0.2074 -0.0772
  529MOL0     C72882  -0.896   1.009   3.550 -0.3013 -0.0902  0.8811
  529MOL0     C72883  -0.981   0.914   3.514 -0.8618 -0.0264 -0.6481
  529MOL0     C72884  -1.125   0.901   3.548  0.0174  0.1151 -0.2857
  529MOL0     C72885  -1.218   0.900   3.430  0.1974  0.0473 -0.0118
  529MOL0     C72886  -1.366   0.940   3.450  0.4895 -0.6055  0.5445
  529MOL0     C72887  -1.425   0.856   3.568 -0.0953  0.0355 -0.6804
  529MOL0     O72888  -1.541   0.909   3.620  0.4792 -0.3858 -0.0406
  529MOL0     C72889  -1.662   0.883   3.564 -0.8066 -0.3128  0.1563
  529MOL0     C72890  -1.778   0.930   3.617 -0.1789  0.2122 -0.1090
  529MOL0     C72891  -1.898   0.920   3.555  0.8798 -0.0559 -0.3857
  529MOL0     C72892  -2.017   1.003   3.617 -0.1613  1.0787  0.3772
  529MOL0     C72893  -1.916   0.849   3.428  0.0438  0.0016 -0.5247
  529MOL0     C72894  -2.045   0.830   3.351 -0.2238  0.0543 -0.7891
  529MOL0     O72895  -2.028   0.790   3.220 -0.2745  0.3704  0.4728
  529MOL0     C72896  -2.140   0.776   3.143  0.3742  1.0270 -0.5323
  529MOL0     C72897  -2.212   0.656   3.133 -0.4099  0.6953  0.1624
  529MOL0     C72898  -2.329   0.657   3.069 -0.1214 -0.3281 -0.4532
  529MOL0     C72899  -2.385   0.766   3.002  0.2349 -0.3497 -0.2182
  529MOL0     O72900  -2.514   0.766   2.958  0.4823 -0.1347  0.8536
  529MOL0     C72901  -2.555   0.668   2.853 -0.9011 -0.2537 -1.0279
  529MOL0     C72902  -2.447   0.657   2.741 -0.0300  0.5501 -0.1121
  529MOL0     C72903  -2.485   0.575   2.621  0.4570 -0.0236  0.0606
  529MOL0     C72904  -2.533   0.434   2.647 -0.2301  0.3513 -0.1811
  529MOL0     C72905  -2.515   0.337   2.536 -0.5158 -0.4666  0.7585
  529MOL0     C72906  -2.536   0.191   2.566  0.4738  0.2586 -0.1167
  529MOL0     C72907  -2.406   0.131   2.630  0.3345  0.6640  0.5960
  529MOL0     C72908  -2.398  -0.009   2.598 -0.3672  0.1231 -0.8941
  529MOL0    Cl72909  -2.244  -0.092   2.649 -0.0566 -0.5438 -0.2711
  529MOL0     C72910  -2.306   0.883   3.000 -0.3170  0.1994 -0.2649
  529MOL0     C72911  -2.188   0.892   3.075  0.0872 -0.8299  0.3537
  529MOL0     O72912  -2.150   0.864   3.408 -0.0247 -0.1923 -0.2889
  529MOL0     C72913  -1.801   0.785   3.381 -0.1247 -0.4222  0.0246
  529MOL0     C72914  -1.679   0.804   3.450  0.2956  0.2302  0.2747
  529MOL0     N72915  -0.908   0.816   3.456  0.5215 -0.8450  0.6002
  529MOL0     N72916  -0.783   0.848   3.445 -0.1781 -0.3587 -0.2996
  529MOL0     C72917   0.230   1.138   4.115  0.0926  0.4189 -0.1232
  529MOL0     C72918   0.370   1.142   4.119 -0.4862 -0.0798  0.6971
  529MOL0     C72919   0.796   1.113   4.090  0.0468  0.6354 -0.4654
  529MOL0     C72920   0.843   1.144   3.968  0.3171  0.4891  0.3297
  529MOL0     C72921   0.961   1.085   3.921 -0.9680  0.4185 -0.7864
  529MOL0     C72922   1.037   1.005   4.004  0.7052 -0.3659  1.1579
  529MOL0     O72923   1.166   0.970   3.970  0.1274  0.6348 -0.1566
  529MOL0     C72924   1.264   1.071   3.973  0.0258  0.9466 -0.5311
  529MOL0     C72925   1.309   1.106   4.122  0.0413  0.8774 -0.6338
  529MOL0     C72926   1.394   1.236   4.142  0.4497  0.3241 -0.6826
  529MOL0     C72927   1.499   1.254   4.038  0.1433  0.0478 -0.3562
  529MOL0     C72928   1.590   1.361   4.087 -0.5976 -0.0540 -0.0995
  529MOL0     C72929   1.669   1.448   4.124  0.0259  1.0907 -0.5219
  529MOL0     C72930   0.993   0.982   4.131 -0.9069  0.2704 -0.7015
  529MOL0     C72931   0.870   1.026   4.174  0.0258  0.0482  0.0446
  529MOL0     C72932   0.821   0.977   4.304 -0.0062  0.3039  0.4314
  529MOL0     H72933   0.439   1.288   3.823  0.5724 -1.4924  0.1695
  529MOL0     H72934   0.191   1.312   3.825  1.5574  1.5632  0.9685
  529MOL0     H72935  -0.002   1.172   3.798 -0.0802  0.5330  0.8232
  529MOL0     H72936  -0.032   1.326   3.894  1.0552  0.6028  0.1416
  529MOL0     H72937  -0.205   1.172   4.011  0.5893 -0.6886  0.1486
  529MOL0     H72938  -0.244   1.268   3.869 -0.0794  0.7331  0.0844
  529MOL0     H72939  -0.238   1.080   3.718 -2.4170  1.4084 -0.6210
  529MOL0     H72940  -0.149   0.991   3.845 -0.1224 -1.2570 -4.2132
  529MOL0     H72941  -0.342   0.966   3.978 -3.5210 -3.4313 -0.1493
  529MOL0     H72942  -0.438   1.093   3.882  0.2157  0.9775 -1.4389
  529MOL0     H72943  -0.515   0.874   3.854  0.6574  0.8164  1.5853
  529MOL0     H72944  -0.362   0.824   3.773 -1.0726  1.2929 -0.4811
  529MOL0     H72945  -0.375   0.976   3.602  0.8342 -3.2236 -2.3608
  529MOL0     H72946  -0.517   0.861   3.611 -2.2460  0.9846  2.0581
  529MOL0     H72947  -0.552   1.147   3.679 -3.5840 -0.0501  2.0405
  529MOL0     H72948  -0.653   1.017   3.731  0.4831  0.3280  0.2923
  529MOL0     H72949  -0.684   1.160   3.497 -0.1328  0.8632  0.2002
  529MOL0     H72950  -0.587   1.029   3.432  2.8323 -0.8412  2.5719
  529MOL0     H72951  -0.942   1.099   3.589  2.4244  2.5886 -1.5619
  529MOL0     H72952  -1.157   0.982   3.615 -1.9587 -1.2745  0.5452
  529MOL0     H72953  -1.136   0.802   3.594 -0.8611 -0.6490 -2.0544
  529MOL0     H72954  -1.181   0.965   3.350 -0.5633 -1.5897 -1.7919
  529MOL0     H72955  -1.207   0.798   3.390 -1.3225  0.4482 -1.5941
  529MOL0     H72956  -1.369   1.046   3.478 -1.7246 -0.7774  1.1487
  529MOL0     H72957  -1.427   0.927   3.360 -0.0538 -2.4469  1.1244
  529MOL0     H72958  -1.423   0.748   3.546 -2.2708 -0.0347 -0.7971
  529MOL0     H72959  -1.351   0.864   3.647  1.3979  0.2319 -2.0471
  529MOL0     H72960  -1.766   0.978   3.714 -0.0012 -1.8974  0.9780
  529MOL0     H72961  -2.077   0.944   3.687  0.1009 -0.3100 -0.5160
  529MOL0     H72962  -2.092   1.039   3.545 -0.4680  1.9173  1.1109
  529MOL0     H72963  -1.981   1.082   3.682  2.5486 -0.9153  1.4945
  529MOL0     H72964  -2.179   0.566   3.183 -2.4784  0.6568  1.5745
  529MOL0     H72965  -2.391   0.568   3.075 -0.9038  0.2449  0.5478
  529MOL0     H72966  -2.572   0.569   2.897 -0.7103 -0.5105 -1.5199
  529MOL0     H72967  -2.647   0.707   2.809 -0.6494  1.7744  0.0980
  529MOL0     H72968  -2.433   0.760   2.709 -2.2444  0.0358 -3.2209
  529MOL0     H72969  -2.355   0.616   2.785  0.1044 -0.4631 -1.2650
  529MOL0     H72970  -2.407   0.588   2.545  0.2786  0.7791  0.0085
  529MOL0     H72971  -2.569   0.624   2.570  1.4050  2.3063  0.6244
  529MOL0     H72972  -2.640   0.431   2.665 -0.3204 -1.2275 -0.8700
  529MOL0     H72973  -2.490   0.387   2.736 -0.0377  0.8320 -0.0141
  529MOL0     H72974  -2.572   0.386   2.456 -0.0269 -1.8782 -0.5234
  529MOL0     H72975  -2.409   0.333   2.510 -0.1747  2.2037  1.4577
  529MOL0     H72976  -2.575   0.127   2.487 -1.8412 -2.1303  2.7479
  529MOL0     H72977  -2.614   0.181   2.642  0.4130 -0.5412 -0.2749
  529MOL0     H72978  -2.410   0.159   2.736 -0.9517  0.0181  0.7378
  529MOL0     H72979  -2.319   0.178   2.582  0.6311 -0.2391  0.2336
  529MOL0     H72980  -2.410  -0.022   2.490 -1.5413 -0.8493 -0.6725
  529MOL0     H72981  -2.483  -0.054   2.649  0.6777  0.2176  1.0075
  529MOL0     H72982  -2.347   0.963   2.939 -0.7851  1.0036  1.0402
  529MOL0     H72983  -2.130   0.984   3.074  0.8070 -1.2625 -1.2351
  529MOL0     H72984  -1.803   0.730   3.288  2.1894 -2.6711  1.1752
  529MOL0     H72985  -1.585   0.765   3.412  0.2404 -1.4843  1.7815
  529MOL0     H72986   0.178   1.098   4.201  1.1826 -0.5384  0.1075
  529MOL0     H72987   0.413   1.098   4.209  3.0430  1.6070  0.0050
  529MOL0     H72988   0.804   1.220   3.901  0.6199  0.5239  0.1914
  529MOL0     H72989   1.007   1.110   3.826 -1.7726 -3.5190 -2.4070
  529MOL0     H72990   1.348   1.028   3.918  3.7441  2.8075  3.1314
  529MOL0     H72991   1.229   1.167   3.935 -0.3110  1.4565  0.9984
  529MOL0     H72992   1.352   1.014   4.162 -3.8633  1.4507  6.6072
  529MOL0     H72993   1.226   1.121   4.192  2.9565  1.0933  3.0947
  529MOL0     H72994   1.330   1.325   4.134  1.9033  1.4853  0.0940
  529MOL0     H72995   1.449   1.241   4.237 -1.1788  1.1959  0.2666
  529MOL0     H72996   1.465   1.268   3.935 -0.3894  0.5415 -0.1208
  529MOL0     H72997   1.560   1.163   4.041  0.1950  0.0629 -0.8399
  529MOL0     H72998   1.742   1.518   4.159  1.7319  0.3466 -2.3709
  529MOL0     H72999   1.060   0.925   4.195 -1.8178  0.6145  0.6167
  529MOL0     H73000   0.791   1.062   4.366  0.4061  3.0838 -2.8704
  529MOL0     H73001   0.735   0.911   4.287 -0.9032  1.9905 -2.2781
  529MOL0     H73002   0.898   0.912   4.346  0.5189  0.4615 -0.2795
  530MOL0     O73003   6.813   6.210   6.451  0.4234  0.0857 -0.0877
  530MOL0     C73004   6.876   6.298   6.406 -0.7735 -0.8935 -0.6217
  530MOL0     O73005   6.871   6.344   6.278 -0.0247 -0.2835  0.7910
  530MOL0     C73006   6.754   6.331   6.214 -0.2009  0.1755  0.4241
  530MOL0     C73007   6.743   6.216   6.131 -0.2679 -0.3326  1.0291
  530MOL0     C73008   6.622   6.168   6.074  0.3621 -0.5637 -0.4216
  530MOL0     C73009   6.504   6.247   6.086  0.2683 -1.0042  0.1194
  530MOL0     O73010   6.390   6.205   6.023 -1.1491 -0.5016 -0.2322
  530MOL0     C73011   6.259   6.267   6.041  0.3436  0.4967 -0.0762
  530MOL0     C73012   6.165   6.241   5.928  1.6568 -0.3136  0.5437
  530MOL0     C73013   6.028   6.320   5.945  0.4010  1.1524  0.0875
  530MOL0     C73014   5.932   6.263   5.839 -0.6566  0.0415  1.1557
  530MOL0     C73015   5.788   6.268   5.882 -0.0205  0.1773  0.5389
  530MOL0     C73016   5.730   6.409   5.887  0.3874 -0.7419 -0.5877
  530MOL0     C73017   5.585   6.383   5.914  0.6560 -0.0396 -0.3941
  530MOL0     C73018   5.498   6.508   5.943 -0.4619  0.0041  0.0354
  530MOL0     N73019   5.545   6.573   6.069 -0.0691  0.5312  0.7737
  530MOL0     C73020   5.553   6.516   6.196  0.4214  0.2845  0.1068
  530MOL0     C73021   5.578   6.618   6.286 -0.1225 -0.7185  0.5503
  530MOL0     C73022   5.591   6.598   6.432 -0.0232 -0.8094  0.0776
  530MOL0     C73023   5.717   6.514   6.447  0.0821  0.0622 -0.3111
  530MOL0     C73024   5.753   6.497   6.596 -0.1335 -0.0570 -0.4378
  530MOL0     C73025   5.843   6.620   6.647  0.8136  0.5690  0.1330
  530MOL0     O73026   5.954   6.637   6.551 -0.5866 -0.5437  0.0554
  530MOL0     C73027   6.054   6.735   6.569 -0.6341 -0.2954  0.2325
  530MOL0     C73028   6.090   6.801   6.450  0.9544 -0.6496 -0.0732
  530MOL0     C73029   6.180   6.908   6.457 -0.7647 -0.1900  0.5356
  530MOL0     C73030   6.222   6.986   6.326 -0.3387 -0.6774 -0.3777
  530MOL0     C73031   6.241   6.942   6.580 -0.5539  0.3091 -0.3379
  530MOL0     C73032   6.326   7.062   6.612  0.1321 -0.9150  0.2160
  530MOL0     O73033   6.394   7.078   6.740  0.1746 -0.6148 -0.0299
  530MOL0     C73034   6.463   7.191   6.778 -0.0328 -0.5524 -0.5138
  530MOL0     C73035   6.558   7.172   6.878  0.0887 -0.1644 -0.0987
  530MOL0     C73036   6.632   7.283   6.926 -0.6105 -0.4909  0.0440
  530MOL0     C73037   6.616   7.411   6.869  0.1106 -0.4681  0.1768
  530MOL0     O73038   6.697   7.515   6.916 -0.0637 -0.7083  0.4006
  530MOL0     C73039   6.739   7.598   6.808  0.6193  0.2862 -0.2898
  530MOL0     C73040   6.863   7.686   6.845 -0.8100 -0.1729  0.6805
  530MOL0     C73041   6.828   7.805   6.937 -0.0434 -0.3161 -0.7838
  530MOL0     C73042   6.851   7.785   7.089  0.1707  0.6637 -0.4620
  530MOL0     C73043   6.779   7.882   7.179  0.2630 -0.1357 -0.5725
  530MOL0     C73044   6.805   7.860   7.324  0.0902  0.6965  0.0978
  530MOL0     C73045   6.747   7.970   7.409  0.8907  0.0531 -0.0076
  530MOL0     C73046   6.818   8.110   7.387  0.3601  0.2635  0.1015
  530MOL0    Cl73047   6.704   8.213   7.286  0.2876  0.1731 -0.4825
  530MOL0     C73048   6.518   7.432   6.772  0.9070 -0.2641 -0.4590
  530MOL0     C73049   6.439   7.322   6.728  0.1964 -0.0657 -0.4071
  530MOL0     O73050   6.348   7.137   6.514 -0.0487  0.3025  0.0989
  530MOL0     C73051   6.213   6.871   6.701 -0.0908  0.5775  0.5212
  530MOL0     C73052   6.113   6.767   6.691  0.4341 -0.4331  0.4345
  530MOL0     N73053   5.596   6.734   6.211  0.5004  0.5081  0.4131
  530MOL0     N73054   5.564   6.705   6.087  0.6742 -0.7813  0.6802
  530MOL0     C73055   6.516   6.367   6.166  0.9006  0.9714 -0.2697
  530MOL0     C73056   6.639   6.411   6.227 -0.5220 -0.3441  0.5929
  530MOL0     C73057   6.985   6.343   6.497  0.0744  0.8123 -0.0269
  530MOL0     C73058   7.044   6.472   6.475 -0.1916  0.6055 -0.1908
  530MOL0     C73059   7.137   6.524   6.557 -0.5318 -1.1148 -0.2404
  530MOL0     C73060   7.192   6.454   6.666  0.1686  0.4416 -0.0857
  530MOL0     O73061   7.289   6.518   6.743 -0.9159 -0.1517  0.1401
  530MOL0     C73062   7.391   6.445   6.804  0.2822 -0.4452 -1.0699
  530MOL0     C73063   7.506   6.414   6.711  0.6589  0.4465  0.5019
  530MOL0     C73064   7.554   6.546   6.634  0.6471  0.2109  0.1813
  530MOL0     C73065   7.617   6.657   6.727  0.1055  0.4650 -0.2506
  530MOL0     C73066   7.765   6.638   6.740 -0.5517  0.9320 -0.6807
  530MOL0     C73067   7.881   6.605   6.753  0.5607  0.7166  0.9882
  530MOL0     C73068   7.140   6.324   6.688 -0.9015 -1.0904 -0.2708
  530MOL0     C73069   7.045   6.266   6.607  0.0622  1.0313 -0.1412
  530MOL0     C73070   7.020   6.116   6.632  0.0986  0.3028  0.0381
  530MOL0     H73071   6.840   6.175   6.106 -0.9544 -0.6427 -1.2805
  530MOL0     H73072   6.619   6.068   6.032  1.2383 -1.6760  1.9542
  530MOL0     H73073   6.268   6.375   6.053 -1.5111  0.4785  2.0874
  530MOL0     H73074   6.217   6.215   6.128  1.9190 -3.7633 -1.5944
  530MOL0     H73075   6.212   6.264   5.832  0.8141 -3.1439 -0.6681
  530MOL0     H73076   6.146   6.133   5.920  0.7849 -0.1236 -0.2077
  530MOL0     H73077   5.987   6.293   6.043 -0.1203 -0.4179 -0.5271
  530MOL0     H73078   6.043   6.428   5.933  1.6196  0.9697 -0.1684
  530MOL0     H73079   5.949   6.325   5.751 -0.2336  0.2639  1.3904
  530MOL0     H73080   5.958   6.160   5.814  2.7512  1.0810 -0.1436
  530MOL0     H73081   5.775   6.215   5.976  0.1499 -0.3198  0.2905
  530MOL0     H73082   5.739   6.211   5.802  1.6037  1.8861 -1.8015
  530MOL0     H73083   5.772   6.462   5.973  2.1251 -4.6494  1.2416
  530MOL0     H73084   5.746   6.451   5.787 -1.1632 -0.8084 -0.8787
  530MOL0     H73085   5.575   6.310   5.995  0.5250  0.9931  0.5480
  530MOL0     H73086   5.540   6.337   5.826  0.7341  3.3581 -2.3704
  530MOL0     H73087   5.488   6.571   5.854 -2.2686 -0.4745 -0.1371
  530MOL0     H73088   5.402   6.471   5.978  1.7037 -2.8842  3.6896
  530MOL0     H73089   5.538   6.412   6.222  1.1999 -0.2568 -1.5006
  530MOL0     H73090   5.507   6.543   6.477 -0.7657  1.6479  1.9321
  530MOL0     H73091   5.621   6.694   6.475 -2.2571  0.3572 -0.7726
  530MOL0     H73092   5.713   6.418   6.396  4.5971 -1.5072  1.7641
  530MOL0     H73093   5.807   6.558   6.403 -0.2200  0.7261 -0.2889
  530MOL0     H73094   5.666   6.486   6.662 -0.2055 -1.5200 -0.7446
  530MOL0     H73095   5.818   6.409   6.602 -0.4517 -0.4327 -1.9845
  530MOL0     H73096   5.784   6.712   6.640  2.0637  1.2697 -2.6097
  530MOL0     H73097   5.875   6.602   6.750  0.5319  1.7215  0.4391
  530MOL0     H73098   6.049   6.750   6.364  1.2543 -2.1247  0.6206
  530MOL0     H73099   6.188   7.088   6.344  0.6008  0.1404 -2.9191
  530MOL0     H73100   6.160   6.940   6.248 -2.1831  1.7955 -0.4813
  530MOL0     H73101   6.330   6.986   6.308  0.0018  0.1452  1.4830
  530MOL0     H73102   6.567   7.085   6.941  0.8162  0.1756  0.2840
  530MOL0     H73103   6.705   7.260   7.004 -1.3485 -2.8343  0.1282
  530MOL0     H73104   6.781   7.546   6.722  3.4906  1.0981  0.5239
  530MOL0     H73105   6.656   7.660   6.774 -2.5123 -2.6947  1.2087
  530MOL0     H73106   6.939   7.623   6.892 -0.3038  0.5383  0.8279
  530MOL0     H73107   6.910   7.730   6.757 -1.5466  0.2508  0.4877
  530MOL0     H73108   6.725   7.839   6.923 -0.1025  2.1153  3.6596
  530MOL0     H73109   6.891   7.891   6.913  3.2957 -2.9607 -2.3360
  530MOL0     H73110   6.958   7.797   7.109 -0.2843  1.4321  1.7379
  530MOL0     H73111   6.824   7.681   7.111  1.2009  0.5451  0.3079
  530MOL0     H73112   6.782   7.986   7.146 -1.1671  1.2378  3.1472
  530MOL0     H73113   6.674   7.857   7.163  0.5267  0.1849 -3.3790
  530MOL0     H73114   6.913   7.865   7.338  0.1037  0.2237  0.1572
  530MOL0     H73115   6.766   7.761   7.348  1.8835  0.0353  0.4051
  530MOL0     H73116   6.765   7.957   7.516 -1.9362 -2.1001  0.3359
  530MOL0     H73117   6.638   7.959   7.414  0.5435  0.5392 -3.6049
  530MOL0     H73118   6.917   8.104   7.342  1.5372  1.3737  2.3581
  530MOL0     H73119   6.830   8.152   7.488  5.8601 -0.3969  0.0316
  530MOL0     H73120   6.493   7.531   6.735 -0.1836  1.3138  3.9319
  530MOL0     H73121   6.361   7.345   6.656 -0.6624  1.3895  0.9154
  530MOL0     H73122   6.267   6.880   6.795 -0.0133 -0.6298  0.6075
  530MOL0     H73123   6.078   6.709   6.776  1.5903  0.1563  1.3340
  530MOL0     H73124   6.427   6.427   6.182  0.4493  0.5375 -1.0877
  530MOL0     H73125   6.665   6.497   6.289  4.5298 -0.1450 -1.2924
  530MOL0     H73126   7.010   6.529   6.389  1.4906  1.7803 -0.1254
  530MOL0     H73127   7.156   6.629   6.539 -2.7161 -0.1743  2.3168
  530MOL0     H73128   7.431   6.505   6.885  1.3929  2.0743 -3.3289
  530MOL0     H73129   7.342   6.356   6.845 -2.1967  0.7941 -1.1129
  530MOL0     H73130   7.474   6.340   6.637  0.5751  0.9666  0.0163
  530MOL0     H73131   7.586   6.356   6.760 -0.5281  0.2643  2.3252
  530MOL0     H73132   7.622   6.520   6.553  2.4954 -0.2412  1.8121
  530MOL0     H73133   7.475   6.593   6.575  0.3539 -2.1106 -1.4413
  530MOL0     H73134   7.563   6.661   6.822  0.8098 -1.7519  0.2842
  530MOL0     H73135   7.611   6.756   6.680  1.4182  1.6672  1.9221
  530MOL0     H73136   7.986   6.587   6.762  0.8933  2.4423  1.0714
  530MOL0     H73137   7.169   6.279   6.783 -4.3586 -1.2171  0.8643
  530MOL0     H73138   6.914   6.091   6.641 -0.4546  1.8987 -1.3760
  530MOL0     H73139   7.038   6.071   6.534 -3.9309 -0.5612 -0.4590
  530MOL0     H73140   7.095   6.077   6.702  3.2471  1.8696 -2.2012
  531MOL0     O73141  10.438   3.473  10.580 -0.2508  0.1035 -0.8626
  531MOL0     C73142  10.546   3.520  10.556 -0.1928 -0.4990  0.5044
  531MOL0     O73143  10.554   3.638  10.495 -0.0605 -0.5834 -0.1230
  531MOL0     C73144  10.434   3.712  10.480 -0.5184  0.0171  0.0015
  531MOL0     C73145  10.399   3.757  10.353  0.0467 -0.3088  0.8585
  531MOL0     C73146  10.296   3.843  10.339  0.8076  0.8126  0.8438
  531MOL0     C73147  10.217   3.880  10.447 -0.5203 -0.3986 -0.3493
  531MOL0     O73148  10.105   3.955  10.403 -0.8484  0.5935  0.0446
  531MOL0     C73149  10.010   3.978  10.509  0.7345  0.2842 -0.6849
  531MOL0     C73150   9.889   4.050  10.458 -0.3834 -0.5634 -0.1709
  531MOL0     C73151   9.794   4.114  10.573  0.3779  0.1422 -0.4160
  531MOL0     C73152   9.674   4.175  10.516  0.1380  0.2050  0.2854
  531MOL0     C73153   9.573   4.210  10.634  0.0043  0.4112 -0.1659
  531MOL0     C73154   9.607   4.328  10.729  0.3903 -0.0553 -0.5012
  531MOL0     C73155   9.488   4.366  10.821 -0.5487  0.2344  0.5092
  531MOL0     C73156   9.520   4.493  10.904  0.2764  0.3091 -0.3632
  531MOL0     N73157   9.522   4.609  10.819  0.2641  1.0105  0.0281
  531MOL0     C73158   9.416   4.658  10.749 -0.6602  0.8007  0.3378
  531MOL0     C73159   9.447   4.787  10.719  0.7899  0.1716 -0.0213
  531MOL0     C73160   9.345   4.882  10.674 -0.1779  0.3669 -0.2003
  531MOL0     C73161   9.408   5.026  10.678  1.1075  0.3600 -0.3873
  531MOL0     C73162   9.299   5.134  10.656  0.2110  0.6106 -0.9615
  531MOL0     C73163   9.241   5.132  10.519 -0.8278 -0.2695  0.1246
  531MOL0     O73164   9.123   5.212  10.532 -0.1965  0.9507  0.4247
  531MOL0     C73165   9.011   5.160  10.479 -0.7025  0.7304 -0.6168
  531MOL0     C73166   8.900   5.219  10.529 -0.2079 -0.9474 -0.1353
  531MOL0     C73167   8.773   5.208  10.457 -0.1267 -0.1188 -0.3972
  531MOL0     C73168   8.667   5.311  10.495 -0.2681  0.1638 -1.0234
  531MOL0     C73169   8.764   5.104  10.363  0.0662 -0.1797 -0.0112
  531MOL0     C73170   8.625   5.084  10.292 -0.2035  0.5208  0.2989
  531MOL0     O73171   8.616   4.964  10.228 -0.4806  0.1501  0.1212
  531MOL0     C73172   8.522   4.952  10.134  0.0154  0.4389 -0.1366
  531MOL0     C73173   8.551   4.996  10.003  0.2315  0.2909 -0.6326
  531MOL0     C73174   8.465   4.971   9.901  1.5676 -0.1749 -0.2069
  531MOL0     C73175   8.344   4.913   9.922  0.8588  0.4318  0.2824
  531MOL0     O73176   8.255   4.894   9.814  0.4769 -1.1775 -0.4888
  531MOL0     C73177   8.114   4.900   9.837  0.6725 -0.7199  0.8667
  531MOL0     C73178   8.049   4.909   9.696 -0.0886 -0.0578 -0.0547
  531MOL0     C73179   8.005   4.779   9.641 -0.0916  0.0987  0.1293
  531MOL0     C73180   7.852   4.751   9.676 -1.0903 -0.0382 -0.4448
  531MOL0     C73181   7.797   4.651   9.582  0.5957  0.8732 -0.2314
  531MOL0     C73182   7.829   4.517   9.651 -1.0465 -0.3539  0.0674
  531MOL0     C73183   7.803   4.386   9.582  0.8079 -1.1461 -0.0111
  531MOL0     C73184   7.885   4.271   9.642  0.2282 -0.1738  0.3290
  531MOL0    Cl73185   7.883   4.261   9.824  0.0818  0.0354 -0.3231
  531MOL0     C73186   8.307   4.880  10.054 -0.5361 -0.0553 -0.3550
  531MOL0     C73187   8.395   4.907  10.163  0.3185  0.2898 -0.2886
  531MOL0     O73188   8.553   5.181  10.273  0.0972  0.4783  0.2863
  531MOL0     C73189   8.881   5.027  10.323  0.4840  0.5624  0.1926
  531MOL0     C73190   9.003   5.063  10.372  0.6453 -0.2834 -0.3125
  531MOL0     N73191   9.578   4.805  10.759  0.0777 -0.2554  0.5594
  531MOL0     N73192   9.624   4.701  10.825 -0.4749 -0.0610  0.3532
  531MOL0     C73193  10.252   3.840  10.577  0.4634 -0.1522 -0.4377
  531MOL0     C73194  10.370   3.758  10.592 -0.6024 -0.2679 -1.0332
  531MOL0     C73195  10.675   3.473  10.612 -0.6367  0.0007 -0.5056
  531MOL0     C73196  10.790   3.537  10.575 -0.1047  0.3416  0.1941
  531MOL0     C73197  10.917   3.477  10.614 -0.7542 -0.2004  0.4802
  531MOL0     C73198  10.923   3.377  10.703  0.1777 -0.1447 -0.4849
  531MOL0     O73199  11.047   3.339  10.754 -0.7732  0.2687  0.2630
  531MOL0     C73200  11.098   3.231  10.673 -0.9365  1.0210 -0.2566
  531MOL0     C73201  11.206   3.153  10.760 -0.1137  0.0782 -1.4167
  531MOL0     C73202  11.265   3.029  10.683  0.1657 -0.0443  0.8746
  531MOL0     C73203  11.423   3.037  10.678  0.1169  0.2024 -0.5927
  531MOL0     C73204  11.462   3.127  10.575 -0.0815 -0.2810  0.1280
  531MOL0     C73205  11.475   3.209  10.488  0.1540 -0.0837 -0.3999
  531MOL0     C73206  10.802   3.320  10.753 -0.4779 -1.0975  0.5059
  531MOL0     C73207  10.683   3.361  10.705  0.5602  0.5504 -0.2572
  531MOL0     C73208  10.562   3.292  10.765 -0.8828  0.5497 -0.4645
  531MOL0     H73209  10.454   3.724  10.265  0.0911  3.1568 -0.5642
  531MOL0     H73210  10.269   3.886  10.243 -0.1237  1.7704  1.5160
  531MOL0     H73211  10.051   4.043  10.587  4.6472 -1.4050 -1.0688
  531MOL0     H73212   9.988   3.878  10.548  0.6289  0.5552 -0.0320
  531MOL0     H73213   9.915   4.138  10.398 -1.9929 -0.1240 -0.2854
  531MOL0     H73214   9.838   3.980  10.390  0.2621  0.2989 -1.5927
  531MOL0     H73215   9.786   4.044  10.656  1.5773  0.3415 -0.1130
  531MOL0     H73216   9.834   4.198  10.630  0.0218 -0.9338  1.4956
  531MOL0     H73217   9.690   4.254  10.441  0.3943 -2.0227 -2.1592
  531MOL0     H73218   9.628   4.101  10.451  0.4731 -0.3250  0.6493
  531MOL0     H73219   9.553   4.124  10.699  0.5638  0.5631  0.2141
  531MOL0     H73220   9.474   4.223  10.590 -1.5924 -0.4470  2.9177
  531MOL0     H73221   9.695   4.308  10.791 -0.1366 -1.1424 -0.0759
  531MOL0     H73222   9.627   4.409  10.659 -2.0090  0.9663 -0.0862
  531MOL0     H73223   9.476   4.276  10.882 -0.9760 -0.8220 -1.0545
  531MOL0     H73224   9.402   4.382  10.756  1.3437  1.1572 -1.9685
  531MOL0     H73225   9.439   4.518  10.972 -1.2123  1.9121 -2.5798
  531MOL0     H73226   9.615   4.475  10.956  0.3310  0.0064 -0.5691
  531MOL0     H73227   9.322   4.604  10.741  0.6964 -1.6188 -0.3168
  531MOL0     H73228   9.266   4.866  10.748  1.2355 -0.6430  1.1485
  531MOL0     H73229   9.323   4.854  10.571 -1.0849 -0.4193  0.1867
  531MOL0     H73230   9.437   5.043  10.782 -2.4094 -0.2443  0.8330
  531MOL0     H73231   9.492   5.038  10.609  1.0250  0.9939 -0.3894
  531MOL0     H73232   9.233   5.128  10.744  1.3643  1.2958 -0.0161
  531MOL0     H73233   9.346   5.232  10.673  0.1941  0.3786  0.5661
  531MOL0     H73234   9.312   5.182  10.453  3.3085 -0.6962  3.8717
  531MOL0     H73235   9.232   5.027  10.490  0.5146 -0.6778  1.1224
  531MOL0     H73236   8.923   5.294  10.604 -0.9402 -1.2557  0.4139
  531MOL0     H73237   8.712   5.366  10.577  0.8515 -0.2353 -1.3543
  531MOL0     H73238   8.577   5.265  10.538 -1.4955  1.7814 -1.7728
  531MOL0     H73239   8.639   5.377  10.413  2.0799 -1.1876 -3.0733
  531MOL0     H73240   8.648   5.041   9.986  1.4278 -1.6820  0.5019
  531MOL0     H73241   8.492   4.985   9.797  0.6750 -0.6302 -0.5126
  531MOL0     H73242   8.075   4.815   9.894 -1.9762 -2.4758 -3.1196
  531MOL0     H73243   8.093   4.991   9.895  0.0489  0.6407 -1.3650
  531MOL0     H73244   7.962   4.974   9.709 -3.4747 -3.4937 -3.0894
  531MOL0     H73245   8.118   4.957   9.626 -0.6702 -0.2286 -0.7603
  531MOL0     H73246   8.073   4.702   9.676 -0.0686  0.5421  1.0895
  531MOL0     H73247   8.022   4.777   9.533 -1.8354  1.6200 -0.2280
  531MOL0     H73248   7.797   4.844   9.660 -0.2103  0.1736 -2.5788
  531MOL0     H73249   7.836   4.733   9.782 -1.4589  0.4346 -0.4178
  531MOL0     H73250   7.688   4.655   9.573  0.2146 -3.5836  0.3249
  531MOL0     H73251   7.845   4.651   9.484  0.5148 -1.6061 -0.3359
  531MOL0     H73252   7.757   4.522   9.733 -1.6416 -3.0963 -0.1960
  531MOL0     H73253   7.933   4.509   9.684 -0.6890  1.6536 -0.3947
  531MOL0     H73254   7.834   4.398   9.477 -1.6266 -0.8123 -0.7519
  531MOL0     H73255   7.695   4.368   9.581 -0.1351  2.6533 -4.7050
  531MOL0     H73256   7.988   4.278   9.607  1.3165 -3.6031  2.3279
  531MOL0     H73257   7.836   4.177   9.613 -0.7288 -0.8168  3.5728
  531MOL0     H73258   8.212   4.839  10.087 -0.3904  0.8691  1.3168
  531MOL0     H73259   8.365   4.875  10.263 -1.2170  1.9254 -0.1867
  531MOL0     H73260   8.870   4.969  10.231 -0.4778 -0.7794  1.1136
  531MOL0     H73261   9.096   5.014  10.345  1.5919 -0.1490  2.3577
  531MOL0     H73262  10.205   3.878  10.668  1.7582  0.6792 -0.0798
  531MOL0     H73263  10.416   3.738  10.688  0.8607  1.2667 -1.3612
  531MOL0     H73264  10.795   3.626  10.513  1.0869  2.2615  2.8290
  531MOL0     H73265  11.007   3.524  10.575 -2.1196  2.9173  0.7404
  531MOL0     H73266  11.016   3.164  10.649 -0.2566  0.8851 -2.4351
  531MOL0     H73267  11.141   3.267  10.579  0.3433  0.3821  0.0672
  531MOL0     H73268  11.162   3.116  10.853 -0.4790  1.8994 -0.8255
  531MOL0     H73269  11.281   3.225  10.796  0.2726 -0.6503 -0.7139
  531MOL0     H73270  11.236   2.935  10.731 -0.6008 -1.2592 -1.8113
  531MOL0     H73271  11.230   3.021  10.580  1.9008  0.1620  0.2311
  531MOL0     H73272  11.461   2.939  10.646  0.6773  0.3631 -0.4216
  531MOL0     H73273  11.469   3.063  10.773  0.0806  3.2566 -1.3347
  531MOL0     H73274  11.496   3.274  10.407  0.1045 -1.5950 -1.6727
  531MOL0     H73275  10.821   3.246  10.830  2.9947  0.8408  1.7343
  531MOL0     H73276  10.553   3.213  10.689 -1.6340  0.9239 -0.7782
  531MOL0     H73277  10.598   3.252  10.860 -0.5480  1.5692 -0.1465
  531MOL0     H73278  10.464   3.338  10.778 -0.4063  1.4122  0.1518
  532MOL0     O73279   5.160   6.920   3.405  0.0027  0.1970  0.4266
  532MOL0     C73280   5.161   7.010   3.325 -0.1449  0.1081  0.4226
  532MOL0     O73281   5.261   7.108   3.320  1.0138  0.2077  0.3132
  532MOL0     C73282   5.340   7.127   3.431 -0.7918  0.5520  0.3850
  532MOL0     C73283   5.331   7.239   3.516  0.1220  1.3216  0.7090
  532MOL0     C73284   5.431   7.266   3.602  0.1209 -0.7676 -0.6567
  532MOL0     C73285   5.522   7.173   3.636  0.0066 -0.4757 -0.2700
  532MOL0     O73286   5.617   7.214   3.729 -0.1992 -1.0158  0.4607
  532MOL0     C73287   5.635   7.133   3.851 -0.2340  0.6659  0.6661
  532MOL0     C73288   5.531   7.174   3.950  0.0264 -0.9065 -0.5899
  532MOL0     C73289   5.549   7.118   4.080  1.5863 -0.3798 -0.0927
  532MOL0     C73290   5.439   7.156   4.181 -0.2854 -0.3690 -0.4078
  532MOL0     C73291   5.502   7.128   4.323  0.3467  0.4321 -0.7104
  532MOL0     C73292   5.387   7.119   4.430 -0.4050  0.4913 -0.2700
  532MOL0     C73293   5.345   7.245   4.484  0.6931  0.3009  0.0656
  532MOL0     C73294   5.236   7.306   4.410  0.4933 -0.1607  0.5921
  532MOL0     N73295   5.108   7.234   4.433 -0.4763  0.0880  0.0505
  532MOL0     C73296   5.034   7.182   4.332 -0.3596  0.3945  0.7202
  532MOL0     C73297   4.922   7.131   4.389  0.5698 -0.0415 -0.4182
  532MOL0     C73298   4.796   7.065   4.349  0.5305  0.0809 -0.0074
  532MOL0     C73299   4.824   6.924   4.288 -0.3052 -0.8478  0.2644
  532MOL0     C73300   4.876   6.940   4.139 -1.5800  0.2011 -0.1193
  532MOL0     C73301   4.922   6.793   4.088 -0.2221 -0.7953  0.5052
  532MOL0     O73302   4.802   6.713   4.057  0.4103 -0.4578  0.0970
  532MOL0     C73303   4.736   6.725   3.938  0.4860  0.6796 -1.0828
  532MOL0     C73304   4.630   6.642   3.916 -0.9404 -0.3415 -0.3680
  532MOL0     C73305   4.544   6.645   3.805  0.0200  0.3067 -0.3073
  532MOL0     C73306   4.428   6.549   3.803  0.9650  0.4649  0.6306
  532MOL0     C73307   4.551   6.755   3.718  0.2635  0.9428 -0.3954
  532MOL0     C73308   4.464   6.788   3.604  0.7128 -1.2304  0.5212
  532MOL0     O73309   4.470   6.919   3.542  0.3128  0.3118 -0.1378
  532MOL0     C73310   4.373   6.958   3.453 -0.2949  0.1104  0.1922
  532MOL0     C73311   4.258   6.890   3.415 -0.8683  0.4032 -0.0436
  532MOL0     C73312   4.153   6.952   3.348  0.0504  0.2513  0.0415
  532MOL0     C73313   4.177   7.078   3.296  0.3682 -1.1000  0.0700
  532MOL0     O73314   4.079   7.136   3.220 -0.3971 -0.4928  0.0329
  532MOL0     C73315   3.943   7.095   3.224 -0.3972  0.3555 -0.5671
  532MOL0     C73316   3.864   7.150   3.346 -0.7854 -0.8515  0.0670
  532MOL0     C73317   3.747   7.055   3.377 -0.2648 -0.0343 -0.6249
  532MOL0     C73318   3.637   7.029   3.267 -0.4954  0.1925 -0.0415
  532MOL0     C73319   3.555   7.154   3.234 -0.5181  0.3354  0.6507
  532MOL0     C73320   3.477   7.127   3.102  0.4533 -0.0590  0.1245
  532MOL0     C73321   3.364   7.027   3.116 -0.0575 -0.3565  1.0429
  532MOL0     C73322   3.286   7.010   2.984 -0.2622  0.1867  0.3854
  532MOL0    Cl73323   3.157   7.130   2.961 -0.3512  0.1779  0.1307
  532MOL0     C73324   4.295   7.140   3.319  0.0760 -1.2969  0.5999
  532MOL0     C73325   4.388   7.083   3.398 -0.1498  0.1556  0.6801
  532MOL0     O73326   4.396   6.697   3.565 -0.0231 -0.2332 -0.5243
  532MOL0     C73327   4.664   6.842   3.742  0.7505 -0.4015 -0.1924
  532MOL0     C73328   4.748   6.826   3.852 -0.0153 -0.6348  0.0247
  532MOL0     N73329   4.930   7.157   4.526 -0.8360  0.3323 -0.4330
  532MOL0     N73330   5.045   7.216   4.543  0.7374 -0.1158 -0.3104
  532MOL0     C73331   5.537   7.063   3.549 -0.4196  0.7921 -0.9545
  532MOL0     C73332   5.452   7.038   3.443 -0.7849 -0.7350 -0.9593
  532MOL0     C73333   5.069   7.019   3.212 -0.3398  1.3057  0.2839
  532MOL0     C73334   5.111   7.059   3.083  0.0595 -0.8506  0.0813
  532MOL0     C73335   5.024   7.066   2.971 -0.2904  0.3444 -0.5244
  532MOL0     C73336   4.887   7.029   2.993  0.2081  0.9726  0.2596
  532MOL0     O73337   4.791   7.028   2.890 -0.1100 -0.2142  0.0339
  532MOL0     C73338   4.828   7.003   2.750  0.0170  0.7605  0.1222
  532MOL0     C73339   4.860   7.128   2.672 -0.4014  0.1528  0.1045
  532MOL0     C73340   4.761   7.241   2.688  0.1730 -0.3399 -0.1222
  532MOL0     C73341   4.649   7.218   2.594 -0.7619  0.1459 -0.7981
  532MOL0     C73342   4.551   7.325   2.598  0.0289  0.1963  0.1529
  532MOL0     C73343   4.486   7.421   2.632  0.0785  1.0148  0.8404
  532MOL0     C73344   4.849   6.995   3.118  0.2099  0.0599  0.3442
  532MOL0     C73345   4.932   6.981   3.232 -0.2707  0.0556  0.9561
  532MOL0     C73346   4.873   6.956   3.364 -0.0104  0.3148 -0.2874
  532MOL0     H73347   5.249   7.307   3.496 -1.9132 -1.5723 -1.6772
  532MOL0     H73348   5.439   7.362   3.651  1.3872  1.4023 -4.6772
  532MOL0     H73349   5.736   7.155   3.885  0.4566  4.1146 -2.9154
  532MOL0     H73350   5.622   7.025   3.834 -0.0582  0.8329 -0.5808
  532MOL0     H73351   5.550   7.281   3.956 -1.6876 -0.6366  0.7096
  532MOL0     H73352   5.433   7.148   3.908 -0.7343  0.6081  0.1564
  532MOL0     H73353   5.547   7.011   4.061 -0.3470 -0.1143 -1.7212
  532MOL0     H73354   5.639   7.154   4.131  0.1949  3.7787 -0.1806
  532MOL0     H73355   5.433   7.265   4.175 -1.9652 -0.4346 -0.2185
  532MOL0     H73356   5.341   7.108   4.174  0.6680 -2.3157 -1.2217
  532MOL0     H73357   5.580   7.194   4.363 -0.1818 -0.5452  2.2277
  532MOL0     H73358   5.549   7.029   4.321 -2.6776 -1.0936 -0.9386
  532MOL0     H73359   5.293   7.070   4.401  0.5905 -2.2892  0.8658
  532MOL0     H73360   5.428   7.052   4.506 -0.8382 -0.2580 -0.6803
  532MOL0     H73361   5.436   7.306   4.492  1.4526 -0.6519 -1.0294
  532MOL0     H73362   5.321   7.235   4.590  0.0898 -4.3129 -0.2857
  532MOL0     H73363   5.221   7.409   4.442 -0.2044 -0.4880  1.3392
  532MOL0     H73364   5.252   7.321   4.303 -2.7927  0.0252  0.0006
  532MOL0     H73365   5.060   7.210   4.230  0.3372  3.0928  1.5675
  532MOL0     H73366   4.752   7.120   4.265  0.4696  0.4791  0.2841
  532MOL0     H73367   4.730   7.047   4.435  1.5556  0.6666  0.9216
  532MOL0     H73368   4.895   6.862   4.343  0.2925 -0.7424 -0.3716
  532MOL0     H73369   4.733   6.863   4.279 -1.9411  1.1324  2.2821
  532MOL0     H73370   4.798   6.975   4.071  0.6517  0.2249 -2.8386
  532MOL0     H73371   4.956   7.013   4.125  0.4722 -1.7666  0.6427
  532MOL0     H73372   4.984   6.811   3.999  1.6617 -0.9956  1.7377
  532MOL0     H73373   4.995   6.746   4.154 -0.6158 -0.5799  1.1020
  532MOL0     H73374   4.605   6.579   4.001 -0.7193 -0.1252 -0.1374
  532MOL0     H73375   4.454   6.466   3.869 -2.6599 -1.3026  0.0792
  532MOL0     H73376   4.434   6.505   3.703 -0.3817  4.3494 -1.3969
  532MOL0     H73377   4.332   6.592   3.832 -0.3351 -1.8820  0.0900
  532MOL0     H73378   4.233   6.789   3.447  0.4592  0.6851  2.0831
  532MOL0     H73379   4.066   6.887   3.338  1.4213 -2.1188  2.2329
  532MOL0     H73380   3.901   7.132   3.130  0.8521 -0.9880 -1.7112
  532MOL0     H73381   3.919   6.988   3.227 -3.3254  0.9357  2.2604
  532MOL0     H73382   3.923   7.142   3.438  0.1135 -1.1147 -0.5200
  532MOL0     H73383   3.848   7.258   3.339  2.6679 -0.2657 -0.3572
  532MOL0     H73384   3.702   7.088   3.471  0.0300 -1.6337  0.1009
  532MOL0     H73385   3.778   6.954   3.402  0.4866 -0.4110 -2.8366
  532MOL0     H73386   3.569   6.953   3.307  0.8588 -1.4545 -0.7325
  532MOL0     H73387   3.689   7.002   3.174 -0.2527  4.2824 -1.3053
  532MOL0     H73388   3.492   7.193   3.314  0.7975  0.6794  1.5546
  532MOL0     H73389   3.616   7.243   3.213 -0.2319 -0.1387 -0.6841
  532MOL0     H73390   3.548   7.087   3.029  0.8911  0.7436  0.0939
  532MOL0     H73391   3.439   7.219   3.058  2.2834  1.4594  1.5287
  532MOL0     H73392   3.295   7.070   3.189 -1.1673  2.4408 -1.4538
  532MOL0     H73393   3.414   6.935   3.149  1.4267 -0.9377 -2.4104
  532MOL0     H73394   3.240   6.911   2.982 -0.0821  0.1055 -0.1954
  532MOL0     H73395   3.362   7.023   2.905  0.3201  1.3942  1.1140
  532MOL0     H73396   4.309   7.242   3.284 -0.2500 -1.2257  0.6703
  532MOL0     H73397   4.476   7.143   3.420 -0.4617  1.5440 -1.5864
  532MOL0     H73398   4.676   6.925   3.675 -0.2208 -1.4342 -1.7099
  532MOL0     H73399   4.831   6.896   3.857 -1.3933  1.0739  0.0452
  532MOL0     H73400   5.616   6.989   3.554 -0.4363  0.7981 -0.4959
  532MOL0     H73401   5.475   6.952   3.380 -1.7475 -1.5081 -0.2908
  532MOL0     H73402   5.215   7.090   3.089 -0.4645  0.8507  1.3528
  532MOL0     H73403   5.059   7.108   2.878  2.1867 -0.5824 -0.0891
  532MOL0     H73404   4.916   6.938   2.749  1.3521  2.4946 -0.3159
  532MOL0     H73405   4.738   6.957   2.707  0.5710  1.1627 -1.5021
  532MOL0     H73406   4.872   7.100   2.566  1.2258  2.2478 -0.3125
  532MOL0     H73407   4.957   7.162   2.709 -0.5905 -0.6922  1.4120
  532MOL0     H73408   4.721   7.245   2.790 -2.7823  1.5753 -1.2426
  532MOL0     H73409   4.804   7.341   2.673 -2.7060  0.6718 -2.4531
  532MOL0     H73410   4.602   7.120   2.606  1.5661 -0.8779  0.6554
  532MOL0     H73411   4.688   7.226   2.492  1.5560  2.9749  0.1547
  532MOL0     H73412   4.445   7.516   2.658 -1.1047  0.6220  0.4653
  532MOL0     H73413   4.753   6.946   3.129  1.4749 -2.1352  3.0075
  532MOL0     H73414   4.765   6.974   3.363  0.2705  2.2176 -1.6433
  532MOL0     H73415   4.884   6.848   3.381 -1.1869  0.0549 -1.0528
  532MOL0     H73416   4.911   7.021   3.444 -2.5269 -0.9848  2.1841
  533MOL0     O73417   3.829   5.597   8.323 -0.7214 -0.5121 -0.1045
  533MOL0     C73418   3.808   5.548   8.440  0.4499 -0.0981 -0.3279
  533MOL0     O73419   3.684   5.547   8.499 -0.2073 -0.2013  0.8740
  533MOL0     C73420   3.573   5.578   8.414 -0.6656  0.4726 -0.2869
  533MOL0     C73421   3.496   5.474   8.368 -0.4314 -0.2264 -0.3404
  533MOL0     C73422   3.375   5.509   8.304 -0.4371  0.0274 -0.3120
  533MOL0     C73423   3.331   5.639   8.294 -0.2131  0.3452  0.2706
  533MOL0     O73424   3.208   5.658   8.238 -0.5498  0.0357 -0.2901
  533MOL0     C73425   3.161   5.796   8.209 -0.1065 -1.5628 -0.1520
  533MOL0     C73426   3.023   5.794   8.143 -0.2653  0.5092  0.0800
  533MOL0     C73427   3.037   5.763   7.990  0.0050 -0.0694 -0.0972
  533MOL0     C73428   2.903   5.745   7.917  0.0117  0.1674 -0.0599
  533MOL0     C73429   2.897   5.703   7.767 -0.2778 -0.3750 -0.4502
  533MOL0     C73430   3.021   5.745   7.687  0.2604  0.1017  1.2081
  533MOL0     C73431   3.042   5.671   7.556  0.0328  0.4873 -0.0043
  533MOL0     C73432   2.969   5.725   7.428  0.5676 -0.0896 -0.0410
  533MOL0     N73433   3.009   5.670   7.300 -0.6282 -0.2265  0.5476
  533MOL0     C73434   3.138   5.698   7.236 -0.3159  0.4049  0.0249
  533MOL0     C73435   3.132   5.639   7.118  0.1068  0.4701 -0.8167
  533MOL0     C73436   3.234   5.656   7.007 -0.1264 -0.2117 -0.8483
  533MOL0     C73437   3.386   5.643   7.047  0.6662  0.7265 -0.2380
  533MOL0     C73438   3.467   5.574   6.938  0.3588  1.1232 -0.4273
  533MOL0     C73439   3.447   5.621   6.797 -0.4732  0.2428 -0.6115
  533MOL0     O73440   3.478   5.764   6.810  0.3992  0.4762 -0.0488
  533MOL0     C73441   3.465   5.831   6.696 -0.3643  1.4341 -0.3801
  533MOL0     C73442   3.428   5.782   6.572 -0.1826 -0.2062 -0.3038
  533MOL0     C73443   3.418   5.866   6.467 -0.4517 -0.4492 -0.3142
  533MOL0     C73444   3.414   5.800   6.336  0.4778  0.0192  0.2526
  533MOL0     C73445   3.423   6.009   6.484  0.4129  0.7874  0.0834
  533MOL0     C73446   3.418   6.108   6.376 -0.4653  0.1160  0.1601
  533MOL0     O73447   3.446   6.236   6.410 -0.1240 -0.1268  1.0197
  533MOL0     C73448   3.492   6.318   6.306  0.2520  0.2181  0.1246
  533MOL0     C73449   3.432   6.432   6.258  0.8112 -0.1639 -0.3850
  533MOL0     C73450   3.485   6.508   6.153 -0.0446 -0.3368  0.7012
  533MOL0     C73451   3.598   6.466   6.091 -0.2509 -0.1680  0.2700
  533MOL0     O73452   3.665   6.524   5.985  0.5923  0.5402  0.5570
  533MOL0     C73453   3.609   6.638   5.922 -0.8402  0.6915 -0.1911
  533MOL0     C73454   3.707   6.694   5.816  0.3863 -0.2788 -0.3716
  533MOL0     C73455   3.632   6.774   5.714 -0.4086 -0.2288  0.3063
  533MOL0     C73456   3.722   6.831   5.595 -0.0931 -0.2991  0.3365
  533MOL0     C73457   3.697   6.742   5.475 -0.0507 -0.0312  0.5355
  533MOL0     C73458   3.586   6.795   5.381 -1.2741 -0.6702 -0.2983
  533MOL0     C73459   3.532   6.684   5.293 -0.0543  0.1001  0.1744
  533MOL0     C73460   3.465   6.740   5.167  0.1091  0.4029  0.3501
  533MOL0    Cl73461   3.332   6.860   5.195 -0.1724 -0.1086  0.5648
  533MOL0     C73462   3.678   6.367   6.146  0.4127 -0.5229 -0.3306
  533MOL0     C73463   3.621   6.293   6.245  0.5181 -0.1927 -0.9725
  533MOL0     O73464   3.383   6.073   6.263  0.2245 -0.3703  0.0803
  533MOL0     C73465   3.476   6.053   6.612 -0.2592  0.8406  0.3445
  533MOL0     C73466   3.500   5.966   6.713  0.7395  0.9625 -1.1681
  533MOL0     N73467   3.012   5.570   7.118  0.2902 -0.0263  1.2216
  533MOL0     N73468   2.934   5.598   7.216  0.9054  0.3590  0.3150
  533MOL0     C73469   3.415   5.737   8.338  0.0870 -0.1186 -0.1938
  533MOL0     C73470   3.533   5.706   8.396  0.8185 -0.2557 -0.6259
  533MOL0     C73471   3.908   5.480   8.526  0.2174  0.5877 -0.0816
  533MOL0     C73472   3.869   5.448   8.659  0.9461  0.1865 -0.5002
  533MOL0     C73473   3.946   5.355   8.731  0.0440  0.1750  0.0498
  533MOL0     C73474   4.074   5.316   8.689 -0.5358 -0.0037  0.8532
  533MOL0     O73475   4.133   5.225   8.769  0.2474 -0.3424 -0.0372
  533MOL0     C73476   4.267   5.192   8.750 -0.2110  0.2868 -0.1251
  533MOL0     C73477   4.274   5.082   8.643  0.2127  0.1052  0.6962
  533MOL0     C73478   4.224   4.944   8.694 -0.2892 -0.2120  0.1667
  533MOL0     C73479   4.239   4.847   8.576  0.0802  0.6250 -0.8853
  533MOL0     C73480   4.266   4.721   8.648 -0.0247  0.2658  0.1051
  533MOL0     C73481   4.303   4.629   8.718  0.4953  0.1081  0.1945
  533MOL0     C73482   4.112   5.352   8.557  0.2363  0.7303 -0.7702
  533MOL0     C73483   4.033   5.448   8.481 -0.3428  0.1358 -0.6807
  533MOL0     C73484   4.101   5.494   8.364 -1.0988 -0.5385  0.3921
  533MOL0     H73485   3.533   5.372   8.376 -0.0643  0.0147  1.4169
  533MOL0     H73486   3.311   5.426   8.275  3.4001 -3.6241  0.5970
  533MOL0     H73487   3.231   5.851   8.145 -0.1536 -1.5591 -0.2000
  533MOL0     H73488   3.148   5.852   8.302 -0.3177 -2.3845  0.3171
  533MOL0     H73489   2.958   5.715   8.181 -1.1253  1.1413 -0.0418
  533MOL0     H73490   2.978   5.893   8.153  2.2991  1.6095  1.4418
  533MOL0     H73491   3.084   5.854   7.951 -0.0005 -0.3637 -0.8026
  533MOL0     H73492   3.094   5.670   7.974  1.5295  1.0477 -1.5593
  533MOL0     H73493   2.835   5.682   7.974 -1.7737  0.1676 -2.0767
  533MOL0     H73494   2.854   5.841   7.939 -0.3177  0.4959 -1.9923
  533MOL0     H73495   2.805   5.728   7.714 -0.4473 -0.1419 -0.0503
  533MOL0     H73496   2.897   5.594   7.769  0.3741 -0.3806 -0.4622
  533MOL0     H73497   3.024   5.853   7.669 -2.1132  0.0447  0.1581
  533MOL0     H73498   3.111   5.713   7.740  1.3360  0.8171 -0.1021
  533MOL0     H73499   3.019   5.564   7.566  0.7725  0.3580  0.4090
  533MOL0     H73500   3.149   5.678   7.533 -0.2494 -1.2001 -2.2381
  533MOL0     H73501   2.862   5.700   7.429  0.3972  0.5800 -0.4513
  533MOL0     H73502   2.976   5.834   7.428  0.3497 -0.0708 -1.0679
  533MOL0     H73503   3.214   5.766   7.273 -1.0079  1.2898 -0.1618
  533MOL0     H73504   3.211   5.753   6.962  1.2053  1.3728  1.6600
  533MOL0     H73505   3.222   5.576   6.934 -1.9863  0.9920 -1.9484
  533MOL0     H73506   3.429   5.738   7.081 -1.3889  0.7768  2.6084
  533MOL0     H73507   3.384   5.582   7.138 -1.4014  1.4186  0.2434
  533MOL0     H73508   3.572   5.585   6.969  0.3265  1.3743 -0.4009
  533MOL0     H73509   3.441   5.468   6.939  0.0148  1.0937 -3.5213
  533MOL0     H73510   3.538   5.575   6.755 -0.0391 -0.0860  0.6479
  533MOL0     H73511   3.353   5.581   6.758 -1.0687  1.8033 -0.8358
  533MOL0     H73512   3.435   5.674   6.566 -1.4586 -0.2718 -1.0434
  533MOL0     H73513   3.341   5.838   6.265  0.2255  2.0086  1.4845
  533MOL0     H73514   3.395   5.693   6.345  0.1893 -0.0895 -1.3556
  533MOL0     H73515   3.518   5.820   6.307  1.3813  1.6961  4.0385
  533MOL0     H73516   3.332   6.465   6.285 -1.2958 -5.1743 -0.8779
  533MOL0     H73517   3.433   6.592   6.107  2.5810  3.5041  3.9832
  533MOL0     H73518   3.507   6.627   5.885 -0.7013 -2.1018  0.0662
  533MOL0     H73519   3.603   6.713   6.002 -1.1556  2.0523 -1.4413
  533MOL0     H73520   3.785   6.754   5.863 -2.3225  2.6467  0.8002
  533MOL0     H73521   3.741   6.616   5.747 -0.6234 -0.7588 -0.3507
  533MOL0     H73522   3.597   6.861   5.770 -1.4765 -1.7726  2.1053
  533MOL0     H73523   3.544   6.712   5.694 -1.2731  1.0148  0.1152
  533MOL0     H73524   3.829   6.829   5.615 -0.3381 -0.4908  1.7348
  533MOL0     H73525   3.701   6.936   5.572 -0.8520 -1.1021 -3.1443
  533MOL0     H73526   3.783   6.744   5.407 -0.9027 -1.8542 -0.6715
  533MOL0     H73527   3.684   6.641   5.514 -2.6500  0.4001  0.9462
  533MOL0     H73528   3.631   6.869   5.315 -1.4121 -0.3722 -0.0622
  533MOL0     H73529   3.508   6.841   5.443  0.2188 -0.2143  1.3388
  533MOL0     H73530   3.458   6.637   5.357  2.6138  0.8117  4.1453
  533MOL0     H73531   3.606   6.607   5.272 -1.1216 -0.9130  0.0377
  533MOL0     H73532   3.414   6.661   5.112 -1.2487  1.8122 -0.5006
  533MOL0     H73533   3.541   6.785   5.103  1.4781 -1.3112  0.6946
  533MOL0     H73534   3.769   6.337   6.096 -0.1715  0.0387 -1.7796
  533MOL0     H73535   3.681   6.217   6.294 -0.1293  1.3243  2.4804
  533MOL0     H73536   3.507   6.156   6.624 -1.5062  1.2402  0.2758
  533MOL0     H73537   3.545   5.991   6.809 -2.9895  0.3764  0.9303
  533MOL0     H73538   3.389   5.842   8.344  0.5442  0.0165 -0.5890
  533MOL0     H73539   3.606   5.773   8.440 -1.6474  1.2317  1.4638
  533MOL0     H73540   3.766   5.454   8.693  1.0045  0.2414 -0.3335
  533MOL0     H73541   3.919   5.306   8.824 -1.8988 -0.0224 -0.5722
  533MOL0     H73542   4.333   5.269   8.708  1.8294 -2.9659 -3.3859
  533MOL0     H73543   4.309   5.167   8.848 -2.3850  0.3095  0.8793
  533MOL0     H73544   4.373   5.079   8.597 -1.3343 -1.7223 -2.9717
  533MOL0     H73545   4.212   5.105   8.556 -1.5113  3.2357  2.5423
  533MOL0     H73546   4.277   4.916   8.785  1.2734 -0.4090 -0.7546
  533MOL0     H73547   4.116   4.939   8.707 -0.6160 -3.0108 -2.6025
  533MOL0     H73548   4.331   4.867   8.520  1.5117  1.1366  1.4860
  533MOL0     H73549   4.160   4.855   8.502 -0.4327  0.6550 -0.3384
  533MOL0     H73550   4.332   4.552   8.786  1.6253 -0.7379 -1.1812
  533MOL0     H73551   4.205   5.311   8.517  0.0867  0.6770 -1.0713
  533MOL0     H73552   4.181   5.428   8.330 -2.8496 -1.2223 -2.9488
  533MOL0     H73553   4.036   5.502   8.276  1.8066 -0.6919 -1.9341
  533MOL0     H73554   4.130   5.598   8.385 -3.2748  0.2969 -0.4312
  534MOL0     O73555   8.788   3.655   7.621 -0.5768 -0.0291 -0.5079
  534MOL0     C73556   8.809   3.733   7.529 -0.5787  0.5974 -0.7871
  534MOL0     O73557   8.894   3.844   7.541 -0.9479 -0.6213 -0.0833
  534MOL0     C73558   8.955   3.860   7.662 -0.8077  1.2413 -0.0437
  534MOL0     C73559   9.085   3.810   7.688  0.1428  0.3756  0.9037
  534MOL0     C73560   9.129   3.818   7.821 -0.7479 -1.3348  0.2064
  534MOL0     C73561   9.061   3.878   7.918 -0.4290 -0.1757 -0.4236
  534MOL0     O73562   9.118   3.874   8.039  0.6288 -0.0863 -0.4364
  534MOL0     C73563   9.054   3.947   8.144  0.7718 -0.2769  0.5863
  534MOL0     C73564   9.156   3.968   8.257 -0.6367  0.3617 -0.4152
  534MOL0     C73565   9.165   4.092   8.344 -0.2796  0.6807  0.0436
  534MOL0     C73566   9.135   4.224   8.272 -0.4821  0.6647  0.8060
  534MOL0     C73567   9.182   4.352   8.338 -0.3739 -0.4493  0.1968
  534MOL0     C73568   9.206   4.458   8.218  0.4519 -0.2667 -1.1852
  534MOL0     C73569   9.228   4.597   8.267 -0.1281  0.3333 -0.0014
  534MOL0     C73570   9.228   4.702   8.157 -0.2698 -0.0209  0.5518
  534MOL0     N73571   9.095   4.744   8.112  0.9541 -0.2899 -0.1606
  534MOL0     C73572   9.016   4.682   8.018 -0.0975  0.4960  0.4842
  534MOL0     C73573   8.899   4.741   8.036  0.2081  0.1658  0.6958
  534MOL0     C73574   8.771   4.699   7.968 -0.6039  1.4199  0.2037
  534MOL0     C73575   8.753   4.758   7.824  0.0542  0.3580 -0.8351
  534MOL0     C73576   8.748   4.910   7.830 -0.1358  0.3866 -0.2924
  534MOL0     C73577   8.696   4.969   7.705  0.0614  0.2533  0.7656
  534MOL0     O73578   8.561   4.927   7.712  0.5468  0.3863 -0.7530
  534MOL0     C73579   8.486   4.921   7.596 -0.1491 -0.7770 -0.1295
  534MOL0     C73580   8.349   4.891   7.609  0.0332 -0.0927  0.4675
  534MOL0     C73581   8.262   4.873   7.496 -0.9447  0.0999  0.4652
  534MOL0     C73582   8.117   4.858   7.520  0.3509 -0.1989  0.6846
  534MOL0     C73583   8.318   4.863   7.376 -0.2067  1.2122  0.2201
  534MOL0     C73584   8.239   4.845   7.244  0.5705  0.1450 -0.4437
  534MOL0     O73585   8.109   4.802   7.259  0.4707  0.3328 -0.2062
  534MOL0     C73586   8.021   4.791   7.149 -0.2092 -1.2458 -0.8842
  534MOL0     C73587   8.006   4.874   7.040  0.7254 -0.0523 -0.5923
  534MOL0     C73588   7.893   4.863   6.958 -0.3279  0.9381  1.2797
  534MOL0     C73589   7.801   4.754   6.978 -0.2841 -0.4417  0.0028
  534MOL0     O73590   7.703   4.747   6.882 -0.3344 -0.0328 -0.2930
  534MOL0     C73591   7.590   4.666   6.920 -0.8377 -0.5204 -0.7176
  534MOL0     C73592   7.484   4.697   6.820  0.7381 -0.6887  0.2590
  534MOL0     C73593   7.416   4.827   6.855  0.5232 -0.0484 -0.6235
  534MOL0     C73594   7.502   4.958   6.837  0.1767 -0.2297  0.4441
  534MOL0     C73595   7.423   5.095   6.854 -0.3525  0.1888  0.0040
  534MOL0     C73596   7.396   5.122   7.001 -0.7314  1.1132  0.5490
  534MOL0     C73597   7.355   5.278   7.023  1.0013  0.4589  0.2721
  534MOL0     C73598   7.287   5.290   7.163 -0.7207  0.1414  0.1262
  534MOL0    Cl73599   7.278   5.461   7.212 -0.4153 -0.4214  0.5177
  534MOL0     C73600   7.816   4.669   7.090 -0.7371  0.4274 -0.0125
  534MOL0     C73601   7.928   4.695   7.172  1.0078  0.5684 -0.8567
  534MOL0     O73602   8.286   4.885   7.136 -0.1199  0.2696 -0.8053
  534MOL0     C73603   8.454   4.888   7.357  0.3138  1.2608  0.0552
  534MOL0     C73604   8.541   4.913   7.467  0.0149  0.5221 -0.1690
  534MOL0     N73605   8.921   4.841   8.129 -0.8709  0.4718  1.2410
  534MOL0     N73606   9.034   4.841   8.177 -0.5599 -0.5945  0.0320
  534MOL0     C73607   8.933   3.936   7.889 -0.9214  0.2470  0.0004
  534MOL0     C73608   8.883   3.924   7.764 -0.2765  0.4958 -0.5428
  534MOL0     C73609   8.736   3.708   7.395 -0.3526 -1.8131 -0.5745
  534MOL0     C73610   8.794   3.781   7.291 -0.5247  0.9345  0.3570
  534MOL0     C73611   8.720   3.790   7.170  0.4113 -0.4564 -0.1281
  534MOL0     C73612   8.593   3.721   7.149  0.1218 -0.0308  1.2103
  534MOL0     O73613   8.516   3.724   7.035 -0.9704  0.0490  0.2985
  534MOL0     C73614   8.582   3.761   6.910  0.9744  0.8557 -0.4773
  534MOL0     C73615   8.655   3.636   6.854 -0.6974 -0.1510  0.2357
  534MOL0     C73616   8.709   3.667   6.721 -0.0554  0.4672  0.8397
  534MOL0     C73617   8.771   3.550   6.641 -0.2196  0.6318 -0.5165
  534MOL0     C73618   8.914   3.532   6.676 -0.3470  0.4336 -0.2534
  534MOL0     C73619   9.033   3.537   6.688  0.1703  0.0037  0.5885
  534MOL0     C73620   8.543   3.652   7.258 -0.5384  0.6183 -0.5726
  534MOL0     C73621   8.609   3.649   7.385  0.1058 -0.1322  0.0404
  534MOL0     C73622   8.549   3.561   7.495  0.5962 -0.6808  0.1120
  534MOL0     H73623   9.150   3.776   7.608  1.0423  2.9368  0.4577
  534MOL0     H73624   9.217   3.765   7.857  1.5217  3.0824  2.0153
  534MOL0     H73625   8.965   3.901   8.188 -0.3777  1.2628 -0.0450
  534MOL0     H73626   9.030   4.042   8.097  0.1041 -1.2353 -1.0969
  534MOL0     H73627   9.143   3.884   8.325 -2.0836  0.4283 -0.5847
  534MOL0     H73628   9.255   3.957   8.210 -0.4652 -1.9019  0.3677
  534MOL0     H73629   9.100   4.096   8.432  0.9321 -0.7699  1.0428
  534MOL0     H73630   9.264   4.090   8.391 -0.0572 -1.9796 -0.4137
  534MOL0     H73631   9.181   4.227   8.173  1.8588 -0.3518  1.7852
  534MOL0     H73632   9.028   4.227   8.253 -0.2357  1.1408 -0.5820
  534MOL0     H73633   9.273   4.338   8.395 -1.0351  0.7248  1.6052
  534MOL0     H73634   9.102   4.390   8.402  0.2279 -0.3412  0.8854
  534MOL0     H73635   9.288   4.444   8.147 -0.3130  2.3594 -2.7176
  534MOL0     H73636   9.112   4.465   8.164  0.8867 -1.1809 -2.0745
  534MOL0     H73637   9.325   4.617   8.314 -0.8139  1.4348  1.0024
  534MOL0     H73638   9.153   4.623   8.342 -0.0400 -1.9034  0.9383
  534MOL0     H73639   9.303   4.779   8.178  2.1871 -1.7219 -1.3458
  534MOL0     H73640   9.270   4.659   8.065  0.7148  4.0618 -1.1174
  534MOL0     H73641   9.041   4.611   7.940  0.8630 -0.4897  1.6726
  534MOL0     H73642   8.683   4.728   8.027 -1.2257  1.3536 -0.6805
  534MOL0     H73643   8.780   4.591   7.958  0.3839  1.5133 -0.0246
  534MOL0     H73644   8.833   4.730   7.755  0.1383 -0.3686 -0.4508
  534MOL0     H73645   8.657   4.718   7.789 -0.3892  1.6913 -1.1923
  534MOL0     H73646   8.692   4.966   7.905  0.5692 -0.9067  1.2666
  534MOL0     H73647   8.854   4.938   7.834  0.6612 -2.1459 -1.6043
  534MOL0     H73648   8.712   5.077   7.703  1.5183  0.0874  1.5350
  534MOL0     H73649   8.755   4.926   7.623  3.1821  0.6139  2.6301
  534MOL0     H73650   8.302   4.895   7.707 -0.0221  4.5105  0.4730
  534MOL0     H73651   8.082   4.872   7.623  0.0817 -2.3827  0.9392
  534MOL0     H73652   8.081   4.760   7.488 -1.6281  0.9334 -0.8271
  534MOL0     H73653   8.049   4.926   7.467 -3.7675 -2.8998  1.9878
  534MOL0     H73654   8.080   4.948   7.010  0.6391 -0.5911 -2.2349
  534MOL0     H73655   7.886   4.934   6.876  1.5080  1.2927  1.3962
  534MOL0     H73656   7.622   4.563   6.903 -0.3816 -0.4346 -0.3785
  534MOL0     H73657   7.551   4.676   7.022 -1.1402 -0.0552 -0.8761
  534MOL0     H73658   7.512   4.722   6.717 -0.2214 -0.1759  0.0978
  534MOL0     H73659   7.404   4.623   6.812 -0.2052  0.4384 -1.6755
  534MOL0     H73660   7.384   4.815   6.959 -1.7428  3.0986 -0.8008
  534MOL0     H73661   7.324   4.833   6.796 -0.1280 -2.6059  0.0247
  534MOL0     H73662   7.540   4.943   6.736  0.5325 -2.0106  0.8107
  534MOL0     H73663   7.592   4.952   6.899  2.1796 -1.3784 -2.4041
  534MOL0     H73664   7.480   5.179   6.814  2.0508 -0.3469  2.0767
  534MOL0     H73665   7.325   5.082   6.807  0.3030 -3.0342 -0.7723
  534MOL0     H73666   7.493   5.098   7.044 -0.5166  1.1287  0.0747
  534MOL0     H73667   7.322   5.053   7.043 -2.7487  1.4341 -2.2380
  534MOL0     H73668   7.289   5.326   6.949  1.3139 -1.4805 -1.3795
  534MOL0     H73669   7.448   5.332   7.007  2.1891 -2.1788 -2.8739
  534MOL0     H73670   7.328   5.220   7.237  1.0772 -0.1310 -1.0570
  534MOL0     H73671   7.187   5.253   7.138 -0.0900  0.2721 -3.0775
  534MOL0     H73672   7.736   4.600   7.113  0.1243 -0.4827  0.3449
  534MOL0     H73673   7.934   4.630   7.260  2.6858 -0.7920 -1.9115
  534MOL0     H73674   8.491   4.887   7.255 -1.4795  0.5805 -0.6199
  534MOL0     H73675   8.640   4.953   7.450  1.4543 -0.1969  5.0253
  534MOL0     H73676   8.870   3.963   7.973 -0.9120  0.4441 -0.0552
  534MOL0     H73677   8.784   3.961   7.738 -0.7124  1.0861  1.7175
  534MOL0     H73678   8.880   3.845   7.312  1.1326 -1.2693  0.6286
  534MOL0     H73679   8.761   3.858   7.097 -2.2056  1.4140  0.0061
  534MOL0     H73680   8.501   3.792   6.844 -1.1054  0.0272  1.5443
  534MOL0     H73681   8.627   3.859   6.929 -3.2063  2.2563  4.2514
  534MOL0     H73682   8.578   3.560   6.864 -0.2664 -0.5380  0.6859
  534MOL0     H73683   8.734   3.591   6.915 -0.7606  2.2351  2.2906
  534MOL0     H73684   8.632   3.715   6.660  2.4867  3.1985 -0.4411
  534MOL0     H73685   8.795   3.728   6.747  1.6417 -1.3957 -0.0600
  534MOL0     H73686   8.777   3.580   6.536  1.8175 -0.6458 -0.8233
  534MOL0     H73687   8.703   3.466   6.656 -0.4742  0.7134 -1.1843
  534MOL0     H73688   9.138   3.520   6.706  0.3477 -0.5309 -0.8798
  534MOL0     H73689   8.446   3.606   7.267 -2.0699  3.8839  1.5575
  534MOL0     H73690   8.514   3.611   7.585 -1.2397 -2.7371  0.6080
  534MOL0     H73691   8.462   3.508   7.456 -0.8753  2.2449 -0.8647
  534MOL0     H73692   8.624   3.490   7.532  0.1953 -2.3187 -1.9595
  535MOL0     O73693   1.899   1.756   9.487  0.1779  0.3337 -0.0545
  535MOL0     C73694   1.787   1.807   9.462  0.6431  0.3510 -0.0971
  535MOL0     O73695   1.759   1.886   9.349  0.2601 -0.1886  0.6088
  535MOL0     C73696   1.859   1.887   9.257  0.6421 -1.3476  0.2852
  535MOL0     C73697   1.879   1.767   9.177 -0.6273  0.2524 -0.5861
  535MOL0     C73698   1.979   1.770   9.086  0.7282  0.0147  0.1940
  535MOL0     C73699   2.057   1.883   9.057 -0.0125 -0.1770  0.4249
  535MOL0     O73700   2.161   1.874   8.962  0.0977 -0.1031 -0.2232
  535MOL0     C73701   2.201   1.990   8.888 -0.1772 -0.8493  0.6304
  535MOL0     C73702   2.213   1.953   8.734  0.0333  0.8317  0.3759
  535MOL0     C73703   2.321   1.832   8.712  0.9243 -0.0756  0.2023
  535MOL0     C73704   2.310   1.708   8.789 -0.3951  0.3913  0.1212
  535MOL0     C73705   2.398   1.601   8.728  0.0993 -0.4222  0.6258
  535MOL0     C73706   2.326   1.538   8.605  0.6751 -0.4169  0.6257
  535MOL0     C73707   2.410   1.427   8.539 -0.1733  0.0781  0.3900
  535MOL0     C73708   2.435   1.322   8.648 -0.1106 -0.4653 -1.1011
  535MOL0     N73709   2.488   1.194   8.604 -0.6107  0.5734 -0.2241
  535MOL0     C73710   2.619   1.158   8.592 -0.2499 -0.1725  0.3829
  535MOL0     C73711   2.626   1.026   8.572  0.0090 -0.6200  1.0681
  535MOL0     C73712   2.767   0.949   8.546 -0.0815 -0.3226  0.5213
  535MOL0     C73713   2.810   0.947   8.398  0.1680  0.3655  0.5605
  535MOL0     C73714   2.734   0.850   8.313  0.4265  0.1337 -0.3165
  535MOL0     C73715   2.808   0.805   8.185 -0.6449  0.3336  0.5409
  535MOL0     O73716   2.830   0.917   8.093  0.5609  0.2837 -0.0317
  535MOL0     C73717   2.729   0.979   8.014 -0.1672  0.0624 -0.5695
  535MOL0     C73718   2.589   0.946   8.023 -1.2819  0.2336  0.1034
  535MOL0     C73719   2.500   1.025   7.955 -0.1817  0.5468  0.4183
  535MOL0     C73720   2.363   1.020   7.998 -0.3009 -0.2344  0.5329
  535MOL0     C73721   2.538   1.123   7.855  0.0713 -0.3964  0.2511
  535MOL0     C73722   2.450   1.195   7.756  0.2097  0.7244 -1.0390
  535MOL0     O73723   2.514   1.225   7.649  0.0709 -0.2321  0.6952
  535MOL0     C73724   2.447   1.261   7.539  0.0821  0.0297 -1.1965
  535MOL0     C73725   2.389   1.390   7.534  0.5942  0.0443 -0.2509
  535MOL0     C73726   2.304   1.412   7.421  0.2649 -0.3070 -0.6803
  535MOL0     C73727   2.289   1.313   7.322 -0.1819  0.2149  0.3827
  535MOL0     O73728   2.197   1.328   7.216  0.0785  0.1444  0.3320
  535MOL0     C73729   2.088   1.251   7.233 -0.2337  0.1707 -0.5870
  535MOL0     C73730   1.954   1.331   7.214  0.0559  0.0036  0.4632
  535MOL0     C73731   1.947   1.418   7.084  1.8205 -0.0676  0.9923
  535MOL0     C73732   1.856   1.544   7.086 -0.5630  0.3515 -0.7067
  535MOL0     C73733   1.822   1.595   6.950  1.5630  0.2376 -0.0392
  535MOL0     C73734   1.702   1.695   6.961  0.0054  0.0696  1.8191
  535MOL0     C73735   1.646   1.737   6.825  0.1835 -0.3694  0.2624
  535MOL0     C73736   1.501   1.788   6.859  0.2836 -0.0872  0.3361
  535MOL0    Cl73737   1.510   1.900   6.995  0.1140 -0.0629  0.7731
  535MOL0     C73738   2.362   1.193   7.328 -0.2086 -0.3401  0.3867
  535MOL0     C73739   2.426   1.166   7.444 -0.2129 -0.3603  0.2837
  535MOL0     O73740   2.328   1.195   7.773  0.2545 -0.0986 -0.0997
  535MOL0     C73741   2.675   1.149   7.851  0.0395 -0.6088 -0.7293
  535MOL0     C73742   2.775   1.083   7.935  0.4843  0.0555  1.4888
  535MOL0     N73743   2.505   0.973   8.587 -0.4794 -0.3288 -0.2276
  535MOL0     N73744   2.429   1.069   8.618  0.2719 -0.6021  1.0252
  535MOL0     C73745   2.038   1.998   9.133 -0.0647  0.0058 -0.1679
  535MOL0     C73746   1.937   2.002   9.235 -0.1262  0.1205  0.0168
  535MOL0     C73747   1.672   1.775   9.546 -0.5086 -0.7254  0.4726
  535MOL0     C73748   1.564   1.865   9.547  0.1139  0.9363  0.1562
  535MOL0     C73749   1.445   1.847   9.622 -0.0779 -0.2499 -0.4086
  535MOL0     C73750   1.443   1.739   9.713  0.6820  0.7466  0.0332
  535MOL0     O73751   1.349   1.716   9.810  0.0142 -1.2757 -0.7988
  535MOL0     C73752   1.330   1.831   9.896 -0.1962  0.3526  0.3269
  535MOL0     C73753   1.424   1.836  10.018  0.6024  0.8213  0.1871
  535MOL0     C73754   1.392   1.952  10.113  0.5543 -0.0312  0.2570
  535MOL0     C73755   1.326   1.880  10.242 -0.4148  0.4151 -0.0288
  535MOL0     C73756   1.376   1.948  10.364  0.3539  0.2537 -0.5921
  535MOL0     C73757   1.416   2.012  10.457 -0.4186  0.3230 -0.5564
  535MOL0     C73758   1.544   1.644   9.708  0.4140 -0.2775 -0.6695
  535MOL0     C73759   1.650   1.654   9.615  0.9618  0.1682 -0.8505
  535MOL0     C73760   1.752   1.546   9.612 -0.1777 -0.7729  0.7410
  535MOL0     H73761   1.825   1.673   9.187  0.2157 -0.1374  0.4115
  535MOL0     H73762   1.973   1.687   9.017 -2.6156  0.9083 -0.7664
  535MOL0     H73763   2.297   2.026   8.925 -1.5527  2.2484  1.4507
  535MOL0     H73764   2.128   2.070   8.882  1.0407  0.3718  1.5216
  535MOL0     H73765   2.115   1.908   8.715  1.4859 -3.4100  1.7660
  535MOL0     H73766   2.246   2.036   8.671 -0.0757 -0.4828 -1.5176
  535MOL0     H73767   2.332   1.812   8.605 -3.0147 -0.2002 -0.3457
  535MOL0     H73768   2.412   1.890   8.730  0.7048 -0.0430  1.2999
  535MOL0     H73769   2.343   1.719   8.893 -0.7701  1.0627  0.1759
  535MOL0     H73770   2.206   1.673   8.791 -0.8817  1.7953  0.3113
  535MOL0     H73771   2.412   1.528   8.809 -0.8384  1.3889  2.5254
  535MOL0     H73772   2.489   1.656   8.704  0.7146 -1.6789 -0.0329
  535MOL0     H73773   2.232   1.510   8.655 -0.2926  0.7419 -0.4688
  535MOL0     H73774   2.286   1.602   8.525 -0.5578 -2.1171 -0.1984
  535MOL0     H73775   2.500   1.484   8.514 -1.1989  0.6743 -2.2517
  535MOL0     H73776   2.364   1.382   8.450  1.4489 -2.2299  0.6219
  535MOL0     H73777   2.501   1.360   8.726 -0.4372  0.3931 -1.2306
  535MOL0     H73778   2.337   1.314   8.695 -1.0772  1.6152 -2.5995
  535MOL0     H73779   2.711   1.214   8.605 -0.7660  0.9930 -0.7041
  535MOL0     H73780   2.765   0.846   8.584  2.8621 -0.3852  0.7233
  535MOL0     H73781   2.850   0.984   8.607 -0.0397 -2.1306  1.6037
  535MOL0     H73782   2.787   1.045   8.354  1.3881  0.7540  0.7645
  535MOL0     H73783   2.918   0.942   8.386  0.0014 -0.1377 -0.9125
  535MOL0     H73784   2.713   0.756   8.365 -2.9272  0.5006 -0.7869
  535MOL0     H73785   2.637   0.898   8.296  0.2943  0.2097  0.6104
  535MOL0     H73786   2.910   0.765   8.188  0.3991  2.7985  1.4414
  535MOL0     H73787   2.744   0.731   8.137  1.4931  0.0705 -2.1407
  535MOL0     H73788   2.545   0.872   8.089  0.2689 -1.2595 -0.4531
  535MOL0     H73789   2.308   0.953   7.931 -0.8343  2.0533 -1.4914
  535MOL0     H73790   2.308   1.115   7.997  0.9151  0.4907 -0.4264
  535MOL0     H73791   2.364   0.979   8.099 -0.3714 -0.1292  0.5769
  535MOL0     H73792   2.406   1.470   7.605 -3.4070  2.9342 -2.1615
  535MOL0     H73793   2.270   1.513   7.402  1.5263 -0.2831 -3.3141
  535MOL0     H73794   2.095   1.180   7.150  0.2261  1.2270 -1.4891
  535MOL0     H73795   2.095   1.197   7.328 -3.4387 -1.7045 -1.2912
  535MOL0     H73796   1.873   1.259   7.219 -1.0267  1.2328  1.4734
  535MOL0     H73797   1.930   1.401   7.295  1.5543  2.6563 -1.2384
  535MOL0     H73798   1.908   1.342   7.015  0.4739  2.5053 -1.2768
  535MOL0     H73799   2.045   1.454   7.050  2.0540 -0.8446  0.8161
  535MOL0     H73800   1.907   1.626   7.137 -3.5866  2.4011 -0.7539
  535MOL0     H73801   1.764   1.517   7.138 -1.2043 -0.2100 -2.0945
  535MOL0     H73802   1.894   1.644   6.884  1.3631 -1.7154 -1.8133
  535MOL0     H73803   1.786   1.511   6.888 -2.2311  1.1161  0.7258
  535MOL0     H73804   1.737   1.789   7.005  0.8498  2.0977 -2.5915
  535MOL0     H73805   1.621   1.643   7.013 -1.0687  0.6352  0.7795
  535MOL0     H73806   1.640   1.654   6.753  2.3385  1.1726 -1.8409
  535MOL0     H73807   1.709   1.816   6.784  0.3521 -1.4514 -1.6770
  535MOL0     H73808   1.430   1.709   6.886  0.7187 -0.4770  0.3524
  535MOL0     H73809   1.440   1.849   6.792 -1.2109 -0.8222  0.9819
  535MOL0     H73810   2.372   1.135   7.236 -3.7619  0.9529 -0.9647
  535MOL0     H73811   2.483   1.074   7.449  4.2242  1.7710 -3.5055
  535MOL0     H73812   2.711   1.228   7.786 -0.7983 -1.9773 -2.9621
  535MOL0     H73813   2.882   1.096   7.918  0.1004 -0.1052 -1.8516
  535MOL0     H73814   2.110   2.078   9.127  1.6691 -1.5055 -0.5192
  535MOL0     H73815   1.916   2.094   9.289 -2.5078 -0.7611  0.7520
  535MOL0     H73816   1.577   1.951   9.483 -2.1282 -0.6603 -2.6593
  535MOL0     H73817   1.369   1.923   9.604  0.0712 -0.3746 -1.6186
  535MOL0     H73818   1.333   1.927   9.844 -1.8253 -0.7425 -1.9852
  535MOL0     H73819   1.228   1.810   9.931 -0.3365 -0.2937 -0.4337
  535MOL0     H73820   1.531   1.847   9.997  0.2359  2.1690 -1.1362
  535MOL0     H73821   1.414   1.738  10.066  1.7759 -0.0632 -1.2846
  535MOL0     H73822   1.490   1.988  10.147  1.1774 -2.2309  0.9998
  535MOL0     H73823   1.325   2.025  10.068 -1.9540 -1.5043  1.4147
  535MOL0     H73824   1.356   1.776  10.256 -1.9037  0.1409  1.3214
  535MOL0     H73825   1.217   1.882  10.229 -0.7303  0.5230  2.2988
  535MOL0     H73826   1.470   2.075  10.525 -0.4311  2.5222 -2.4577
  535MOL0     H73827   1.537   1.570   9.787  0.0948  2.0969  1.6894
  535MOL0     H73828   1.729   1.461   9.677 -0.7062 -2.6857 -1.7794
  535MOL0     H73829   1.752   1.492   9.516  1.4839 -0.2040  0.3867
  535MOL0     H73830   1.852   1.584   9.637 -0.6791 -0.0477  1.6694
  536MOL0     O73831   6.057   5.733   3.970 -0.7381 -0.1246 -0.6314
  536MOL0     C73832   6.017   5.836   4.008 -0.1937 -0.3167 -0.0010
  536MOL0     O73833   5.958   5.856   4.126 -0.5401  0.3189  0.4296
  536MOL0     C73834   5.921   5.752   4.213  0.1375 -0.0674  1.1392
  536MOL0     C73835   5.797   5.766   4.276  0.2033 -0.5861 -0.4596
  536MOL0     C73836   5.757   5.673   4.369  0.6765 -0.2175 -0.5120
  536MOL0     C73837   5.832   5.554   4.390 -0.3506  0.7926  0.0415
  536MOL0     O73838   5.787   5.448   4.468  0.2826 -0.0995  0.5606
  536MOL0     C73839   5.812   5.472   4.605  0.2066 -0.1030  0.2772
  536MOL0     C73840   5.950   5.409   4.646 -0.8914  0.4039 -0.4392
  536MOL0     C73841   5.956   5.391   4.797  0.2093  0.0514  0.1819
  536MOL0     C73842   5.892   5.260   4.848 -0.6912 -1.4873  0.9693
  536MOL0     C73843   5.889   5.258   5.000  0.2909 -0.9371  0.8762
  536MOL0     C73844   5.756   5.218   5.072  0.8843 -0.5076 -0.1632
  536MOL0     C73845   5.695   5.088   5.018  0.4811  0.0626  1.3450
  536MOL0     C73846   5.543   5.082   5.049 -0.0787 -0.1482  0.2224
  536MOL0     N73847   5.455   5.127   4.935 -0.6813  0.0357 -0.2673
  536MOL0     C73848   5.472   5.246   4.864 -0.4760 -0.1303  0.2341
  536MOL0     C73849   5.388   5.240   4.751 -1.0127 -0.2900 -1.2689
  536MOL0     C73850   5.378   5.329   4.638 -0.5682 -0.2193  0.3608
  536MOL0     C73851   5.403   5.242   4.516 -0.0830  0.4450 -0.1126
  536MOL0     C73852   5.551   5.169   4.502 -0.4514 -0.3230  0.3154
  536MOL0     C73853   5.545   5.017   4.489 -0.7685 -0.1751 -0.6413
  536MOL0     O73854   5.657   4.960   4.422  0.3144 -0.7512 -0.3195
  536MOL0     C73855   5.635   4.831   4.380 -0.1986 -1.7521  0.3886
  536MOL0     C73856   5.708   4.768   4.281 -0.6527  0.9270 -0.3209
  536MOL0     C73857   5.689   4.633   4.243  0.0371  0.7743 -0.0284
  536MOL0     C73858   5.775   4.567   4.148  0.0978 -0.0933  0.1577
  536MOL0     C73859   5.592   4.548   4.314 -0.7576 -0.1617 -0.9327
  536MOL0     C73860   5.575   4.399   4.309 -0.2257  0.9035  0.2730
  536MOL0     O73861   5.592   4.331   4.194  0.2315 -0.1951  0.2911
  536MOL0     C73862   5.569   4.194   4.190 -0.0995  0.7648 -0.6522
  536MOL0     C73863   5.662   4.117   4.253 -1.4783  0.1234  0.1223
  536MOL0     C73864   5.665   3.978   4.245 -0.3216  0.1992  0.5625
  536MOL0     C73865   5.546   3.910   4.202 -1.0293  0.1748  0.2786
  536MOL0     O73866   5.539   3.775   4.199 -0.5658  0.1574  0.4664
  536MOL0     C73867   5.639   3.714   4.115  0.2119  0.5044 -0.2445
  536MOL0     C73868   5.593   3.569   4.084 -0.3535  1.1700 -1.2843
  536MOL0     C73869   5.490   3.560   3.978 -0.1003  0.4784  0.1104
  536MOL0     C73870   5.428   3.423   3.972  0.5023 -0.5426  0.2578
  536MOL0     C73871   5.357   3.398   3.843 -0.4554 -0.7911 -1.2404
  536MOL0     C73872   5.207   3.436   3.848 -1.3046 -0.3895 -1.4728
  536MOL0     C73873   5.138   3.400   3.724  0.1460 -1.2487 -0.3862
  536MOL0     C73874   4.985   3.441   3.723 -0.1067  0.3135 -0.0742
  536MOL0    Cl73875   4.901   3.375   3.572 -0.6993 -0.1515  0.6481
  536MOL0     C73876   5.431   3.986   4.169 -0.1538 -0.1656 -0.4648
  536MOL0     C73877   5.450   4.126   4.144  0.6231 -0.1638 -0.4946
  536MOL0     O73878   5.559   4.346   4.421  0.4837 -0.2930  0.3567
  536MOL0     C73879   5.530   4.610   4.419  1.1649 -0.1682 -0.0117
  536MOL0     C73880   5.547   4.738   4.454  0.1482 -0.0589  0.1501
  536MOL0     N73881   5.331   5.115   4.758 -0.3756  0.4001 -0.2237
  536MOL0     N73882   5.366   5.052   4.861 -0.6053 -0.2533  0.3702
  536MOL0     C73883   5.954   5.536   4.326 -0.0370 -0.2174  0.3255
  536MOL0     C73884   5.997   5.638   4.238  0.7510 -0.2201  0.2085
  536MOL0     C73885   6.031   5.949   3.908 -0.9448  0.5002 -1.4268
  536MOL0     C73886   5.941   6.052   3.924  0.2218 -1.1311  0.0305
  536MOL0     C73887   5.937   6.156   3.830 -0.3053  0.3530  0.2124
  536MOL0     C73888   6.021   6.158   3.722  0.4014 -0.2697  0.1246
  536MOL0     O73889   6.035   6.270   3.640 -0.0579  0.8198  0.0254
  536MOL0     C73890   6.049   6.254   3.496  0.2732 -0.2948  0.2050
  536MOL0     C73891   5.908   6.241   3.434 -0.3591  0.9212 -0.5260
  536MOL0     C73892   5.896   6.274   3.288  0.3424  0.1700 -0.4974
  536MOL0     C73893   5.986   6.179   3.205 -0.1422  0.0347 -0.3686
  536MOL0     C73894   5.942   6.040   3.202  0.6418  0.4720  0.9728
  536MOL0     C73895   5.910   5.922   3.172  1.1121 -0.1094  0.7920
  536MOL0     C73896   6.119   6.059   3.716 -0.8028  0.1853  0.2512
  536MOL0     C73897   6.127   5.956   3.809 -0.0082 -0.5960 -0.3554
  536MOL0     C73898   6.248   5.869   3.796 -0.2540  1.0573  0.1209
  536MOL0     H73899   5.744   5.858   4.251  2.0182  0.2673 -1.3912
  536MOL0     H73900   5.661   5.681   4.419  1.0747  1.6777  0.0176
  536MOL0     H73901   5.721   5.423   4.640 -1.8234  2.7911 -0.6292
  536MOL0     H73902   5.809   5.579   4.627  1.7207 -0.3562  1.9984
  536MOL0     H73903   5.972   5.309   4.606 -0.0169 -0.7804  2.7059
  536MOL0     H73904   6.019   5.489   4.617 -2.0488  1.2635 -0.9084
  536MOL0     H73905   6.065   5.385   4.806  0.3653 -1.8470 -2.0596
  536MOL0     H73906   5.925   5.477   4.857  0.3608 -1.9191  3.3137
  536MOL0     H73907   5.791   5.249   4.808 -1.6441  0.0650  2.7662
  536MOL0     H73908   5.947   5.179   4.801 -0.9307 -1.3062  0.3696
  536MOL0     H73909   5.927   5.356   5.032 -0.6059 -0.4737  0.5707
  536MOL0     H73910   5.965   5.180   5.012  0.8021 -0.4545  0.8355
  536MOL0     H73911   5.780   5.205   5.178  2.6093  1.7084 -0.2217
  536MOL0     H73912   5.690   5.306   5.069  2.6076  0.8097 -3.4314
  536MOL0     H73913   5.743   5.004   5.069  0.9914 -0.9895 -0.7406
  536MOL0     H73914   5.709   5.064   4.912  0.0642  0.7562  1.1291
  536MOL0     H73915   5.506   4.981   5.067  0.4513 -0.4145 -0.1550
  536MOL0     H73916   5.525   5.138   5.141  0.8836  1.0546 -0.3015
  536MOL0     H73917   5.538   5.329   4.886  0.6132 -0.9880  0.2637
  536MOL0     H73918   5.449   5.412   4.645  3.4098 -2.5703 -5.2020
  536MOL0     H73919   5.276   5.369   4.642 -0.5893 -0.3966  3.1808
  536MOL0     H73920   5.322   5.172   4.494  3.1969 -3.3253 -1.6234
  536MOL0     H73921   5.398   5.311   4.431 -2.1533 -0.0038 -0.4118
  536MOL0     H73922   5.598   5.199   4.408 -0.5820  0.2563  0.4293
  536MOL0     H73923   5.627   5.188   4.578  1.7878  1.9585 -2.2408
  536MOL0     H73924   5.525   4.972   4.587  1.4018 -0.6843 -0.3810
  536MOL0     H73925   5.455   4.991   4.430 -2.2393  0.3340  1.2857
  536MOL0     H73926   5.768   4.826   4.211  1.1501 -0.7958 -0.2822
  536MOL0     H73927   5.857   4.627   4.108  0.4891 -1.7562 -1.6760
  536MOL0     H73928   5.716   4.528   4.064 -1.1830  3.0862 -0.5771
  536MOL0     H73929   5.830   4.490   4.202 -0.3408 -0.0370  0.6968
  536MOL0     H73930   5.747   4.173   4.289  0.1534 -2.0928 -0.0726
  536MOL0     H73931   5.755   3.928   4.279  0.1518  0.4911 -0.2423
  536MOL0     H73932   5.644   3.765   4.018  0.8631  1.2446  0.1635
  536MOL0     H73933   5.736   3.718   4.166 -0.8232 -0.6396  1.8996
  536MOL0     H73934   5.679   3.504   4.066  1.0825  2.5448  0.2359
  536MOL0     H73935   5.544   3.531   4.175 -2.1977  3.3629 -1.2804
  536MOL0     H73936   5.542   3.565   3.882  0.0430 -2.1467 -0.0198
  536MOL0     H73937   5.415   3.635   4.006 -0.2849 -0.4634  2.3724
  536MOL0     H73938   5.358   3.402   4.053 -0.2598 -1.3074 -0.5671
  536MOL0     H73939   5.515   3.357   3.984 -0.7914 -2.0687  1.8451
  536MOL0     H73940   5.409   3.434   3.754  2.9393  1.9011  1.5475
  536MOL0     H73941   5.350   3.289   3.831 -2.2957 -0.8438 -0.0085
  536MOL0     H73942   5.215   3.545   3.843  1.8411 -0.5683 -2.3124
  536MOL0     H73943   5.157   3.413   3.942  2.0287  0.1920  0.6074
  536MOL0     H73944   5.139   3.291   3.726 -1.5234 -1.3486 -2.1433
  536MOL0     H73945   5.194   3.434   3.637  1.1590 -3.9842 -0.8953
  536MOL0     H73946   4.978   3.550   3.721 -1.5619  0.2299 -0.9983
  536MOL0     H73947   4.932   3.397   3.807  1.4232 -2.6914 -0.5127
  536MOL0     H73948   5.339   3.937   4.138  1.3877 -1.7439 -2.8822
  536MOL0     H73949   5.378   4.185   4.087  0.7546 -0.7065 -1.2385
  536MOL0     H73950   5.459   4.554   4.478  0.4644 -0.7116 -1.3167
  536MOL0     H73951   5.505   4.777   4.547  1.0315  1.1942  0.0373
  536MOL0     H73952   6.001   5.439   4.332 -2.0475 -1.5389 -2.8389
  536MOL0     H73953   6.089   5.618   4.183  0.4436 -0.9878 -0.0430
  536MOL0     H73954   5.880   6.054   4.014  0.7163 -1.2505  0.3736
  536MOL0     H73955   5.874   6.244   3.842  1.5671  1.9433 -0.9631
  536MOL0     H73956   6.097   6.349   3.470  0.3136 -0.6926 -1.2782
  536MOL0     H73957   6.117   6.176   3.459  3.4994  2.8177 -1.0125
  536MOL0     H73958   5.840   6.307   3.489  0.1541  3.0190 -2.2664
  536MOL0     H73959   5.880   6.137   3.454  0.7372  0.5179 -1.0467
  536MOL0     H73960   5.795   6.259   3.249 -0.3807  1.5726  0.7790
  536MOL0     H73961   5.923   6.377   3.265 -3.7471  2.0534  2.1029
  536MOL0     H73962   6.085   6.204   3.242 -0.2166 -0.9242  0.5126
  536MOL0     H73963   5.972   6.205   3.099  0.2255 -0.5482 -0.5617
  536MOL0     H73964   5.878   5.829   3.129  1.5416 -0.4200  1.1315
  536MOL0     H73965   6.188   6.055   3.633 -0.4088 -1.5418  0.6293
  536MOL0     H73966   6.226   5.799   3.715 -0.7915 -1.7424  2.5220
  536MOL0     H73967   6.331   5.936   3.770  1.7537 -0.2812  2.5722
  536MOL0     H73968   6.279   5.801   3.876  2.0792  3.0701  1.0507
  537MOL0     O73969  10.329   6.904   3.389 -0.0645  0.8100 -0.0735
  537MOL0     C73970  10.243   6.953   3.458 -0.2382 -1.2364  0.3905
  537MOL0     O73971  10.261   7.058   3.549 -0.2891 -0.1114  0.0926
  537MOL0     C73972  10.351   7.149   3.519 -0.1191  0.3959  0.4639
  537MOL0     C73973  10.308   7.243   3.422 -0.0301  0.5632  0.5490
  537MOL0     C73974  10.390   7.343   3.369  0.5203 -0.4184 -1.0664
  537MOL0     C73975  10.530   7.336   3.401 -0.0173 -0.5413  0.1901
  537MOL0     O73976  10.622   7.419   3.341 -0.3299 -0.2874  0.1045
  537MOL0     C73977  10.600   7.538   3.271  0.2737 -0.7147  0.6706
  537MOL0     C73978  10.607   7.648   3.369 -1.1201 -0.3327 -0.5931
  537MOL0     C73979  10.575   7.786   3.296  0.4214 -0.4272 -0.4064
  537MOL0     C73980  10.598   7.910   3.390  0.7074 -0.6132 -1.5190
  537MOL0     C73981  10.529   8.038   3.325 -0.4223 -0.0452  0.0628
  537MOL0     C73982  10.371   8.048   3.338 -0.7656 -0.2550  0.3994
  537MOL0     C73983  10.308   8.167   3.272 -0.0886  0.8551  0.2778
  537MOL0     C73984  10.157   8.173   3.271  0.6696 -0.0961 -0.3835
  537MOL0     N73985  10.110   8.195   3.414 -0.3315 -0.2720  0.8684
  537MOL0     C73986  10.040   8.298   3.468 -0.0119 -0.8145  0.7457
  537MOL0     C73987   9.992   8.257   3.592 -0.6847 -0.8665 -0.5156
  537MOL0     C73988   9.919   8.345   3.691 -0.4157 -0.4714  0.1423
  537MOL0     C73989   9.842   8.262   3.795 -0.6076  0.0362  0.4394
  537MOL0     C73990   9.693   8.290   3.775 -0.2480  0.8989  0.2132
  537MOL0     C73991   9.607   8.219   3.878  0.0747 -0.0508 -0.8988
  537MOL0     O73992   9.638   8.266   4.011 -0.7054 -0.3195 -0.6384
  537MOL0     C73993   9.552   8.219   4.106 -0.5635  0.2541  0.4282
  537MOL0     C73994   9.425   8.158   4.084  0.0887  0.3539 -0.0400
  537MOL0     C73995   9.341   8.122   4.190  0.7081  0.7191 -0.5803
  537MOL0     C73996   9.212   8.045   4.151 -0.1449  0.2757 -0.1664
  537MOL0     C73997   9.399   8.136   4.330  0.6290 -1.3118 -0.1714
  537MOL0     C73998   9.330   8.074   4.441 -0.0701 -0.3814 -0.4801
  537MOL0     O73999   9.394   8.077   4.560 -0.6320 -0.1292 -0.0687
  537MOL0     C74000   9.341   8.000   4.656  0.3689  0.7259  0.4845
  537MOL0     C74001   9.204   8.008   4.710 -0.0230 -1.6319  0.1989
  537MOL0     C74002   9.158   7.910   4.794  0.3221 -0.5987 -0.2419
  537MOL0     C74003   9.247   7.814   4.850  0.5599 -1.2375  0.1318
  537MOL0     O74004   9.190   7.725   4.931  0.3502  0.2531 -0.0513
  537MOL0     C74005   9.264   7.630   5.013  0.5108 -0.3858 -0.9492
  537MOL0     C74006   9.255   7.671   5.171 -0.0773  0.7442 -1.0717
  537MOL0     C74007   9.339   7.570   5.254  0.7949 -0.8805  0.3186
  537MOL0     C74008   9.335   7.607   5.406  0.5838 -0.8930 -0.8276
  537MOL0     C74009   9.200   7.583   5.470 -0.0191  0.5245  0.3851
  537MOL0     C74010   9.196   7.628   5.613 -0.7284  0.5121 -0.3908
  537MOL0     C74011   9.098   7.557   5.693  0.2254  0.7996  0.3801
  537MOL0     C74012   9.124   7.596   5.834 -0.1899 -0.0500 -0.2128
  537MOL0    Cl74013   9.258   7.477   5.896  0.3839 -0.1583 -0.5007
  537MOL0     C74014   9.379   7.822   4.815 -0.1479 -0.2918 -0.2471
  537MOL0     C74015   9.427   7.911   4.715 -0.8398  0.6116 -0.8520
  537MOL0     O74016   9.216   8.031   4.427  0.1368 -0.2247  0.2696
  537MOL0     C74017   9.522   8.194   4.348  0.4265 -0.9339  0.0959
  537MOL0     C74018   9.595   8.241   4.234  0.5189 -0.7268 -0.6557
  537MOL0     N74019  10.038   8.126   3.607 -0.1878  0.3191 -0.4281
  537MOL0     N74020  10.103   8.091   3.503 -0.0880  0.0386 -0.3600
  537MOL0     C74021  10.573   7.251   3.504 -0.7562  0.0675 -0.5559
  537MOL0     C74022  10.483   7.161   3.565 -0.7516 -0.3964 -0.3414
  537MOL0     C74023  10.108   6.870   3.458 -0.0623  0.0925 -0.2395
  537MOL0     C74024  10.070   6.815   3.342  0.1611  0.0330  1.2460
  537MOL0     C74025   9.937   6.766   3.317 -0.1745 -0.7819 -0.3189
  537MOL0     C74026   9.841   6.766   3.427  0.5656 -0.4836 -0.4768
  537MOL0     O74027   9.714   6.725   3.401 -0.3727  0.2418 -0.2325
  537MOL0     C74028   9.621   6.680   3.504 -0.1463  0.0552 -0.2524
  537MOL0     C74029   9.484   6.637   3.445 -0.9303  0.0086  0.0532
  537MOL0     C74030   9.405   6.762   3.401  0.4754  0.2182 -0.4699
  537MOL0     C74031   9.428   6.822   3.271 -0.5502 -0.3254  0.4304
  537MOL0     C74032   9.388   6.958   3.258  0.2390  0.1223  0.6335
  537MOL0     C74033   9.369   7.076   3.249 -0.3266 -0.4372 -0.2541
  537MOL0     C74034   9.888   6.814   3.551  1.0724 -0.5982  0.0769
  537MOL0     C74035  10.015   6.872   3.567 -0.3710  0.6369  1.0894
  537MOL0     C74036  10.052   6.925   3.706 -0.2580  0.3531 -0.5456
  537MOL0     H74037  10.202   7.232   3.405 -0.0321 -1.4444  1.5318
  537MOL0     H74038  10.350   7.420   3.304 -1.6549 -1.2422 -0.7833
  537MOL0     H74039  10.500   7.544   3.228 -1.0973 -0.4978  3.6133
  537MOL0     H74040  10.685   7.545   3.203  2.6201  1.0996  3.5652
  537MOL0     H74041  10.530   7.625   3.443 -1.0511 -2.8640 -1.2100
  537MOL0     H74042  10.705   7.648   3.418 -1.4564  0.1579  0.0808
  537MOL0     H74043  10.643   7.802   3.212 -0.1385  2.7462 -0.4075
  537MOL0     H74044  10.467   7.785   3.276  0.3952  0.9972 -0.4419
  537MOL0     H74045  10.558   7.883   3.488  0.7564 -2.1104 -1.8896
  537MOL0     H74046  10.704   7.936   3.393  0.7541 -0.8393  1.3025
  537MOL0     H74047  10.561   8.045   3.221  1.5769  1.2235  0.6999
  537MOL0     H74048  10.572   8.127   3.371  0.1035  1.0859 -2.4345
  537MOL0     H74049  10.311   7.958   3.321 -0.8495 -0.4934  1.8623
  537MOL0     H74050  10.363   8.070   3.445 -0.8222  1.5302  0.0654
  537MOL0     H74051  10.331   8.153   3.166 -4.9765 -1.9480 -0.7707
  537MOL0     H74052  10.349   8.262   3.307  0.4297  0.5297  0.5652
  537MOL0     H74053  10.133   8.254   3.202  1.4428 -0.3267 -0.9325
  537MOL0     H74054  10.110   8.079   3.239 -2.9523  0.9293  1.3550
  537MOL0     H74055  10.030   8.393   3.416 -1.7023 -2.5708 -2.4431
  537MOL0     H74056   9.862   8.423   3.640 -0.0627 -1.1613 -1.3618
  537MOL0     H74057  10.008   8.386   3.740 -0.4753 -0.1296 -0.0296
  537MOL0     H74058   9.872   8.158   3.807 -0.0248 -0.2069 -2.4730
  537MOL0     H74059   9.867   8.311   3.890  1.5416  0.2205 -0.1640
  537MOL0     H74060   9.672   8.397   3.782  0.7040  1.0826  0.3215
  537MOL0     H74061   9.654   8.245   3.683 -2.3976  2.7812  0.1102
  537MOL0     H74062   9.503   8.237   3.850 -0.0416 -0.7583 -0.9601
  537MOL0     H74063   9.633   8.112   3.878  1.0205  0.1420  0.9256
  537MOL0     H74064   9.384   8.132   3.987  2.4434  0.8744 -1.2561
  537MOL0     H74065   9.189   8.059   4.045 -2.2563 -1.0038  0.0679
  537MOL0     H74066   9.131   8.087   4.211  0.9777 -4.1141  5.2729
  537MOL0     H74067   9.222   7.938   4.173  2.6619  0.9601  2.4692
  537MOL0     H74068   9.121   8.065   4.669  0.5590 -0.3852  0.7098
  537MOL0     H74069   9.053   7.905   4.821  0.6776 -1.1024  1.1666
  537MOL0     H74070   9.222   7.530   4.999 -0.9227 -0.0044  0.3269
  537MOL0     H74071   9.366   7.615   4.978 -0.0260 -1.6207 -2.0840
  537MOL0     H74072   9.291   7.775   5.174  0.7372  0.4595  0.9620
  537MOL0     H74073   9.153   7.660   5.209 -0.3965  0.6028 -1.9656
  537MOL0     H74074   9.434   7.581   5.201  0.1334  0.7565 -0.6044
  537MOL0     H74075   9.297   7.470   5.238  0.3392 -0.6621  0.1136
  537MOL0     H74076   9.371   7.709   5.425 -1.5618 -0.3442  0.6918
  537MOL0     H74077   9.400   7.541   5.464 -1.8448 -3.1640 -0.5362
  537MOL0     H74078   9.110   7.626   5.425  0.2010  0.9628  0.3602
  537MOL0     H74079   9.194   7.474   5.465 -1.4438  0.6305 -2.2391
  537MOL0     H74080   9.175   7.735   5.608 -0.7483  0.4630 -1.4676
  537MOL0     H74081   9.293   7.603   5.658 -0.5807  0.1120 -0.9279
  537MOL0     H74082   9.104   7.448   5.682  0.4192  1.0382 -2.8538
  537MOL0     H74083   8.997   7.588   5.663  0.0112 -0.1316  0.1042
  537MOL0     H74084   9.032   7.590   5.893  0.2561 -1.7235  0.3808
  537MOL0     H74085   9.158   7.699   5.846  1.6660 -0.9487  4.1052
  537MOL0     H74086   9.445   7.751   4.865 -2.8993 -0.2322  4.0069
  537MOL0     H74087   9.531   7.925   4.691 -0.3344  0.8379  1.2333
  537MOL0     H74088   9.560   8.191   4.449  1.3470  0.9558 -0.1682
  537MOL0     H74089   9.687   8.295   4.254 -0.0544 -0.1438  0.5289
  537MOL0     H74090  10.677   7.266   3.530 -0.1661  0.3075 -2.8598
  537MOL0     H74091  10.532   7.098   3.638  0.7720  1.3654  0.2556
  537MOL0     H74092  10.149   6.809   3.268  3.2299 -1.6469  4.3625
  537MOL0     H74093   9.900   6.715   3.229 -2.9096  0.5408 -0.0530
  537MOL0     H74094   9.667   6.589   3.544 -0.7827  0.2311  0.9249
  537MOL0     H74095   9.615   6.759   3.580 -1.6547 -0.8558  0.6205
  537MOL0     H74096   9.419   6.597   3.523 -0.1661 -2.4588 -0.4740
  537MOL0     H74097   9.487   6.564   3.364 -3.5489  1.5880 -1.6089
  537MOL0     H74098   9.305   6.718   3.405  0.9126 -1.0136  5.1895
  537MOL0     H74099   9.411   6.839   3.479 -0.2228 -1.0324  0.8734
  537MOL0     H74100   9.376   6.769   3.190  1.6495 -0.4653 -0.9760
  537MOL0     H74101   9.534   6.808   3.246 -1.5089 -1.7974 -3.6116
  537MOL0     H74102   9.359   7.182   3.262  0.4118 -0.7261  3.7467
  537MOL0     H74103   9.822   6.828   3.636 -0.3474  3.0480 -1.4422
  537MOL0     H74104  10.021   7.029   3.699  0.6251  0.7912  1.4971
  537MOL0     H74105  10.003   6.877   3.791 -0.5759  3.0534  0.8691
  537MOL0     H74106  10.160   6.926   3.726 -0.0902 -0.1551 -1.3558
  538MOL0     O74107   6.609   8.491   2.363  0.1395 -0.2724 -0.2535
  538MOL0     C74108   6.502   8.529   2.303 -1.2909  0.4340  0.5206
  538MOL0     O74109   6.375   8.539   2.358 -0.0430  0.1282 -0.4079
  538MOL0     C74110   6.370   8.493   2.487  0.1064  0.1994 -0.3123
  538MOL0     C74111   6.397   8.356   2.527  0.2999  0.5855  1.0324
  538MOL0     C74112   6.366   8.309   2.652  0.0599 -0.4263  0.2017
  538MOL0     C74113   6.326   8.390   2.754  0.7401  0.0152  0.2835
  538MOL0     O74114   6.321   8.338   2.877  0.3620 -0.4750 -0.0841
  538MOL0     C74115   6.189   8.340   2.927 -0.3671 -1.2132 -0.7400
  538MOL0     C74116   6.151   8.198   2.971 -0.3105  0.1466 -0.4100
  538MOL0     C74117   6.090   8.194   3.113  0.9411 -0.1244 -0.6382
  538MOL0     C74118   5.986   8.297   3.147 -0.0638  0.2325 -0.0793
  538MOL0     C74119   6.020   8.360   3.281  0.5406 -1.2370  0.4625
  538MOL0     C74120   5.921   8.483   3.304 -0.6003  0.6726 -0.4988
  538MOL0     C74121   5.939   8.557   3.442 -0.5053  0.0637 -1.2500
  538MOL0     C74122   6.047   8.658   3.446 -0.8978 -0.8219  0.4009
  538MOL0     N74123   6.050   8.723   3.579  0.3721  0.0887  0.7977
  538MOL0     C74124   6.017   8.852   3.611 -0.0882 -0.5688  0.8170
  538MOL0     C74125   6.040   8.875   3.740 -0.0342 -0.2014  0.7445
  538MOL0     C74126   6.024   9.004   3.819  0.1472  0.7843  0.0839
  538MOL0     C74127   6.146   9.101   3.808 -0.1639  0.8406 -0.3369
  538MOL0     C74128   6.197   9.130   3.669  0.1841 -0.1936 -0.0782
  538MOL0     C74129   6.307   9.232   3.680 -0.4684  0.0266  1.0817
  538MOL0     O74130   6.257   9.369   3.716 -0.6048  0.0784 -0.2697
  538MOL0     C74131   6.336   9.449   3.792 -1.1015 -0.1269  0.2806
  538MOL0     C74132   6.476   9.458   3.764 -0.1005 -0.0485 -0.6469
  538MOL0     C74133   6.553   9.553   3.827  0.2421  0.3119 -0.9134
  538MOL0     C74134   6.708   9.551   3.793 -0.7203  0.4862  1.1430
  538MOL0     C74135   6.497   9.636   3.931 -0.6207 -0.1952 -0.0536
  538MOL0     C74136   6.572   9.740   4.001  0.2468 -0.0485  0.3173
  538MOL0     O74137   6.636   9.845   3.931 -0.1445  1.0561 -0.4633
  538MOL0     C74138   6.677   9.955   4.004  0.1794  1.2474  0.1181
  538MOL0     C74139   6.605  10.070   4.018  0.9435  0.7647  0.7983
  538MOL0     C74140   6.665  10.176   4.092 -0.2881 -0.4327 -0.7461
  538MOL0     C74141   6.787  10.168   4.151  0.7530 -0.6317 -0.5701
  538MOL0     O74142   6.836  10.285   4.213 -0.0044 -0.0288  0.2802
  538MOL0     C74143   6.918  10.263   4.333  0.2025 -0.5934 -0.8455
  538MOL0     C74144   6.965  10.397   4.389 -0.4491 -0.5601  0.0796
  538MOL0     C74145   7.058  10.483   4.300 -0.1466  0.6126  0.1741
  538MOL0     C74146   7.080  10.623   4.362 -0.2677 -0.1776  0.1175
  538MOL0     C74147   7.177  10.700   4.267 -0.0027 -0.4752  0.2306
  538MOL0     C74148   7.214  10.835   4.331  0.2379 -0.5632 -0.1176
  538MOL0     C74149   7.282  10.939   4.236  0.2092 -0.3190  0.5149
  538MOL0     C74150   7.198  10.981   4.129 -0.1239 -0.2962 -0.0163
  538MOL0    Cl74151   7.055  11.057   4.198 -0.2066 -0.0525 -0.1149
  538MOL0     C74152   6.858  10.046   4.140  0.0077 -0.1274 -0.1978
  538MOL0     C74153   6.800   9.938   4.071  0.3588 -0.0950  0.0967
  538MOL0     O74154   6.574   9.720   4.122 -0.7628 -0.2195 -0.1610
  538MOL0     C74155   6.358   9.623   3.961 -0.5224  0.5757 -0.1690
  538MOL0     C74156   6.279   9.532   3.897  0.4848 -0.1527 -0.0248
  538MOL0     N74157   6.094   8.758   3.785  0.6342 -0.5726 -0.1127
  538MOL0     N74158   6.099   8.673   3.693  0.4051 -0.0751 -0.4867
  538MOL0     C74159   6.305   8.522   2.731 -0.3772 -0.1695 -0.3467
  538MOL0     C74160   6.324   8.574   2.599 -0.1292  1.3246  0.2511
  538MOL0     C74161   6.529   8.578   2.161  0.5143  0.6590  0.1419
  538MOL0     C74162   6.661   8.563   2.099 -0.0883  0.4267  0.4727
  538MOL0     C74163   6.683   8.594   1.958 -0.2219  0.9644 -0.3731
  538MOL0     C74164   6.577   8.645   1.881 -0.7305 -0.5273 -0.4851
  538MOL0     O74165   6.603   8.669   1.750 -0.0504 -0.4750  0.3766
  538MOL0     C74166   6.523   8.776   1.683  0.2706  1.0601  0.2690
  538MOL0     C74167   6.555   8.785   1.535  0.5213 -0.1073 -1.0042
  538MOL0     C74168   6.678   8.857   1.491 -0.1646 -0.6511 -0.7417
  538MOL0     C74169   6.803   8.786   1.531  0.2924 -0.4503  0.2326
  538MOL0     C74170   6.927   8.861   1.508  0.1807 -0.0090  0.7561
  538MOL0     C74171   7.021   8.931   1.478 -0.1341  2.2842 -0.1792
  538MOL0     C74172   6.456   8.667   1.948  0.1851  0.0049  0.3247
  538MOL0     C74173   6.427   8.628   2.081 -0.9064 -0.5837  0.1772
  538MOL0     C74174   6.284   8.651   2.118  0.2393  0.1101 -0.8771
  538MOL0     H74175   6.439   8.297   2.446 -0.1172  0.3838  0.9597
  538MOL0     H74176   6.393   8.207   2.677  2.3892  0.4172  1.4182
  538MOL0     H74177   6.116   8.386   2.860 -0.9662 -0.6889  0.2459
  538MOL0     H74178   6.194   8.402   3.017 -1.1475 -3.2491  0.7817
  538MOL0     H74179   6.072   8.171   2.900 -0.3013 -1.8802  0.2820
  538MOL0     H74180   6.235   8.130   2.956 -0.7677 -0.6711  0.6435
  538MOL0     H74181   6.043   8.097   3.131  1.2317 -0.2801 -0.7098
  538MOL0     H74182   6.174   8.209   3.180 -0.0772  4.1535  0.0294
  538MOL0     H74183   5.988   8.372   3.068  1.6204  2.0139  1.5348
  538MOL0     H74184   5.889   8.246   3.151  1.0044 -1.8583  0.1894
  538MOL0     H74185   6.123   8.398   3.277 -0.1453  0.7067  0.3025
  538MOL0     H74186   6.018   8.290   3.365  0.7760 -0.1001  1.4348
  538MOL0     H74187   5.932   8.556   3.224 -2.6417  2.1722  0.5094
  538MOL0     H74188   5.821   8.438   3.303 -1.1702  1.4880  3.1794
  538MOL0     H74189   5.962   8.482   3.519 -1.1417 -0.5395 -1.6339
  538MOL0     H74190   5.850   8.611   3.475  1.0183  1.4401  0.8794
  538MOL0     H74191   6.146   8.638   3.403 -2.0254  0.7284 -3.2819
  538MOL0     H74192   6.018   8.737   3.376 -0.0700 -0.6613  0.2163
  538MOL0     H74193   5.983   8.932   3.547  0.3177 -2.5930 -2.1269
  538MOL0     H74194   6.023   8.969   3.923  2.1191  1.2604  0.2933
  538MOL0     H74195   5.929   9.058   3.809 -0.1302  0.3616  0.3672
  538MOL0     H74196   6.118   9.194   3.857  2.0909 -0.0120  2.9083
  538MOL0     H74197   6.223   9.068   3.878  2.6235  0.5532 -3.2844
  538MOL0     H74198   6.215   9.032   3.624 -1.9628 -1.2183  1.1527
  538MOL0     H74199   6.125   9.185   3.608  2.1997  0.7215 -1.7570
  538MOL0     H74200   6.380   9.187   3.747  1.1446  0.5870 -0.2446
  538MOL0     H74201   6.351   9.239   3.581 -0.7571 -1.3777  0.8252
  538MOL0     H74202   6.533   9.397   3.694 -0.3201 -0.8112 -0.1747
  538MOL0     H74203   6.744   9.456   3.833 -0.9075 -1.4064 -2.7223
  538MOL0     H74204   6.755   9.640   3.834 -0.9207  0.6965  0.9226
  538MOL0     H74205   6.714   9.544   3.684 -3.5539 -2.5924  1.0078
  538MOL0     H74206   6.509  10.079   3.968  0.5118  1.4362  1.6981
  538MOL0     H74207   6.625  10.275   4.110  1.4916  0.2023  0.0244
  538MOL0     H74208   6.868  10.206   4.413 -0.1909  0.0616 -0.6167
  538MOL0     H74209   7.009  10.209   4.307  1.1097  0.2799  0.3746
  538MOL0     H74210   6.881  10.458   4.425 -0.2086 -0.8006  1.1002
  538MOL0     H74211   7.020  10.374   4.481 -2.1348 -0.0533  1.2541
  538MOL0     H74212   7.012  10.490   4.201 -2.2294  1.2011  1.1296
  538MOL0     H74213   7.155  10.433   4.298 -0.2151  0.4948 -0.2871
  538MOL0     H74214   7.129  10.627   4.460 -1.8803  0.3080  0.9545
  538MOL0     H74215   6.990  10.680   4.386  1.7899  1.8503  4.0829
  538MOL0     H74216   7.266  10.636   4.257  0.2388 -0.1339  0.1879
  538MOL0     H74217   7.141  10.725   4.167  0.7512  2.6364  0.6429
  538MOL0     H74218   7.277  10.809   4.417 -3.8445  0.5333  3.5817
  538MOL0     H74219   7.127  10.884   4.375  1.9177  3.2771 -0.6793
  538MOL0     H74220   7.367  10.885   4.192  1.9203  2.4718  0.1848
  538MOL0     H74221   7.323  11.025   4.290  0.7302  0.2437 -0.7279
  538MOL0     H74222   7.163  10.889   4.080 -0.4471  0.3184 -0.9578
  538MOL0     H74223   7.252  11.055   4.070 -0.7169  2.5072  2.7210
  538MOL0     H74224   6.954  10.040   4.190 -0.8564  2.4404  2.0035
  538MOL0     H74225   6.851   9.844   4.052 -0.9070 -0.6939 -0.4466
  538MOL0     H74226   6.323   9.667   4.054  1.4069  1.8180  0.0098
  538MOL0     H74227   6.182   9.504   3.934  0.9900  0.6990  2.0533
  538MOL0     H74228   6.278   8.578   2.820  1.2140 -3.3343  2.3445
  538MOL0     H74229   6.322   8.681   2.580  0.1551  1.2097 -0.4848
  538MOL0     H74230   6.754   8.525   2.142  0.2313 -1.0009 -1.3577
  538MOL0     H74231   6.781   8.571   1.919  0.2281 -1.4124  1.8546
  538MOL0     H74232   6.417   8.752   1.688  0.9363 -2.0439  2.7219
  538MOL0     H74233   6.539   8.877   1.722  3.5731 -0.2087  2.7566
  538MOL0     H74234   6.467   8.826   1.484  1.4553  0.3045 -2.3352
  538MOL0     H74235   6.559   8.685   1.492  0.0503  0.7653 -3.1913
  538MOL0     H74236   6.677   8.875   1.383  0.3166  0.8410 -0.5252
  538MOL0     H74237   6.686   8.959   1.531  0.0901 -1.0200  0.1772
  538MOL0     H74238   6.803   8.690   1.479  0.9839  0.1499 -0.9216
  538MOL0     H74239   6.806   8.769   1.639  2.4061 -0.9237  0.1482
  538MOL0     H74240   7.105   8.994   1.458  1.6970  0.1095  0.2073
  538MOL0     H74241   6.373   8.703   1.888 -1.6174 -3.9387  0.1181
  538MOL0     H74242   6.251   8.578   2.193  2.0089  1.6789  1.5791
  538MOL0     H74243   6.272   8.745   2.173  1.4513  0.7198 -1.6043
  538MOL0     H74244   6.205   8.654   2.043 -2.5973 -2.5781  1.6657
  539MOL0     O74245   5.041   3.291   2.382  0.4386  0.7441 -0.6074
  539MOL0     C74246   4.973   3.324   2.282  0.7633  0.0284 -0.0098
  539MOL0     O74247   4.835   3.337   2.276 -0.5801  0.2078 -0.0097
  539MOL0     C74248   4.764   3.325   2.389  0.5770 -0.2175  0.2380
  539MOL0     C74249   4.687   3.433   2.438  0.6072 -0.2701 -0.4605
  539MOL0     C74250   4.608   3.419   2.552  0.1717 -0.3303  0.4817
  539MOL0     C74251   4.585   3.291   2.601  1.3587  0.6699  0.3959
  539MOL0     O74252   4.492   3.276   2.706 -0.7650 -0.2779 -0.2147
  539MOL0     C74253   4.410   3.156   2.709  0.3920 -0.6526 -0.7840
  539MOL0     C74254   4.269   3.214   2.754 -0.3592  0.6727 -0.0780
  539MOL0     C74255   4.181   3.100   2.801 -0.2643  0.1413 -0.3547
  539MOL0     C74256   4.048   3.165   2.852  0.6532 -0.0264  0.8589
  539MOL0     C74257   3.942   3.053   2.879 -0.8419 -0.9884  0.9716
  539MOL0     C74258   3.962   2.986   3.008  0.9507  0.2191  0.6271
  539MOL0     C74259   3.821   2.919   3.050 -0.3759 -0.4364  0.2963
  539MOL0     C74260   3.830   2.795   3.130  0.4323  0.7507 -0.4380
  539MOL0     N74261   3.895   2.691   3.052  0.2029  0.1577 -0.0285
  539MOL0     C74262   3.882   2.665   2.922  0.0454 -0.2466  0.0548
  539MOL0     C74263   3.983   2.584   2.895 -0.0383  0.7149  0.2386
  539MOL0     C74264   4.023   2.556   2.753  0.3046 -0.1012  0.7916
  539MOL0     C74265   4.109   2.671   2.703  0.5791  0.5919 -0.1811
  539MOL0     C74266   4.253   2.652   2.686 -1.1368  0.6223 -0.6751
  539MOL0     C74267   4.283   2.605   2.541 -0.4850  0.8028  0.1138
  539MOL0     O74268   4.420   2.596   2.530  0.5956 -0.2293 -0.2594
  539MOL0     C74269   4.466   2.682   2.434 -0.6212  0.5313  0.5859
  539MOL0     C74270   4.489   2.636   2.302  0.2462 -0.2962  0.3491
  539MOL0     C74271   4.542   2.724   2.201 -0.9561  0.1761  0.0149
  539MOL0     C74272   4.603   2.649   2.085 -0.0437  0.5871  0.4140
  539MOL0     C74273   4.566   2.855   2.230 -0.6592 -1.1411 -0.3346
  539MOL0     C74274   4.621   2.940   2.124  0.6995  0.4637  0.6181
  539MOL0     O74275   4.568   2.927   1.991 -0.5380 -0.4300 -0.5262
  539MOL0     C74276   4.636   3.014   1.909  0.1055 -0.8331  0.0743
  539MOL0     C74277   4.562   3.127   1.875 -0.3804 -0.3085  0.3068
  539MOL0     C74278   4.624   3.225   1.795  0.4956 -0.1657  0.4896
  539MOL0     C74279   4.751   3.212   1.743 -1.4446  0.3297 -0.5198
  539MOL0     O74280   4.821   3.314   1.678 -0.0290  0.5145  0.0397
  539MOL0     C74281   4.749   3.400   1.590 -0.0097  1.8325  0.8585
  539MOL0     C74282   4.832   3.531   1.566  0.5743  0.3515  0.5460
  539MOL0     C74283   4.979   3.519   1.526 -0.3935  0.2625 -0.3977
  539MOL0     C74284   5.034   3.656   1.511  0.5885  0.0563 -0.3963
  539MOL0     C74285   5.167   3.652   1.426  0.8372  0.0048 -0.0902
  539MOL0     C74286   5.239   3.779   1.402 -0.4257  0.1571 -0.2336
  539MOL0     C74287   5.368   3.749   1.328  0.3149  0.0738  0.7402
  539MOL0     C74288   5.458   3.874   1.337  0.6157 -0.3391  0.1934
  539MOL0    Cl74289   5.379   4.019   1.259  0.2510 -0.3360 -0.6508
  539MOL0     C74290   4.819   3.084   1.759 -0.6416 -0.3032  0.4927
  539MOL0     C74291   4.757   2.988   1.848 -0.2885 -0.9219  0.8870
  539MOL0     O74292   4.697   3.026   2.172  0.1504 -0.4078  0.6419
  539MOL0     C74293   4.535   2.901   2.362  0.0184 -0.9739 -0.1578
  539MOL0     C74294   4.484   2.821   2.461  0.9255  0.5544 -0.3124
  539MOL0     N74295   4.050   2.551   3.011 -0.8074 -0.3482  0.7750
  539MOL0     N74296   3.993   2.608   3.103  0.7205 -0.1381 -0.7158
  539MOL0     C74297   4.656   3.184   2.554 -1.0892  0.2228  0.8550
  539MOL0     C74298   4.741   3.197   2.444  0.1034 -0.5917 -0.8376
  539MOL0     C74299   5.043   3.327   2.158 -0.8961  1.2330 -0.0033
  539MOL0     C74300   5.025   3.212   2.072 -0.4294 -1.9481 -1.0738
  539MOL0     C74301   5.101   3.199   1.955 -0.3582  1.1372 -0.0738
  539MOL0     C74302   5.205   3.294   1.931  0.0758  0.9690  0.7225
  539MOL0     O74303   5.293   3.296   1.819  0.4595 -0.9869  0.3029
  539MOL0     C74304   5.289   3.195   1.725 -0.5329 -0.0186  0.2981
  539MOL0     C74305   5.377   3.245   1.608  0.8994  0.5082  0.6338
  539MOL0     C74306   5.376   3.133   1.501  0.4615  0.9138 -0.4846
  539MOL0     C74307   5.415   3.190   1.367 -0.1094 -0.2104  1.2432
  539MOL0     C74308   5.333   3.288   1.303 -0.2246  0.1996 -0.4345
  539MOL0     C74309   5.266   3.373   1.250  0.0232 -0.1289  1.4952
  539MOL0     C74310   5.225   3.396   2.015 -0.2449 -0.3676  0.3617
  539MOL0     C74311   5.145   3.417   2.127 -0.5884  0.1233 -0.1828
  539MOL0     C74312   5.180   3.539   2.217  0.8567  0.3914  0.3609
  539MOL0     H74313   4.699   3.533   2.397 -1.1291  0.1516 -0.0200
  539MOL0     H74314   4.559   3.509   2.586  0.9436 -0.3253  1.6246
  539MOL0     H74315   4.450   3.084   2.780  0.7232 -0.1146 -0.4151
  539MOL0     H74316   4.384   3.115   2.611 -3.3358 -0.5041  0.0229
  539MOL0     H74317   4.271   3.285   2.837 -0.1405 -0.5786  1.0247
  539MOL0     H74318   4.234   3.272   2.668 -1.5408 -0.2339 -0.2328
  539MOL0     H74319   4.154   3.021   2.731 -0.2859 -0.8626  0.7593
  539MOL0     H74320   4.235   3.052   2.883 -0.2084  1.4050  0.3688
  539MOL0     H74321   4.073   3.222   2.942 -0.3171  2.6525 -0.4614
  539MOL0     H74322   4.016   3.236   2.775  0.3385  0.5033  1.4668
  539MOL0     H74323   3.943   2.988   2.791  1.2142 -1.6690  1.4561
  539MOL0     H74324   3.843   3.100   2.880  0.4325  2.1064  3.9524
  539MOL0     H74325   4.032   2.902   3.004 -1.2513 -1.7277 -3.1750
  539MOL0     H74326   3.999   3.065   3.073  2.1592  1.1076 -1.0797
  539MOL0     H74327   3.752   2.905   2.966 -0.4039  0.2071  0.2044
  539MOL0     H74328   3.767   2.979   3.123  1.2670 -0.1080  1.2923
  539MOL0     H74329   3.883   2.790   3.225  1.6611 -3.0410 -1.1479
  539MOL0     H74330   3.733   2.752   3.155 -0.4548  2.3313 -0.9718
  539MOL0     H74331   3.821   2.708   2.844 -0.5478 -2.1657 -0.6045
  539MOL0     H74332   3.933   2.543   2.692  2.0274  0.6451 -2.0570
  539MOL0     H74333   4.077   2.461   2.748 -1.3583 -1.0228 -3.7326
  539MOL0     H74334   4.068   2.723   2.616 -1.4001 -0.7380 -0.0876
  539MOL0     H74335   4.110   2.739   2.789  0.3116 -3.1141  3.0240
  539MOL0     H74336   4.301   2.749   2.702  1.6638 -0.2604 -2.7921
  539MOL0     H74337   4.300   2.578   2.751  0.5343  3.2358  1.2832
  539MOL0     H74338   4.248   2.503   2.522 -2.7538  0.9041  3.0195
  539MOL0     H74339   4.233   2.674   2.472  1.1750  0.0033 -1.9940
  539MOL0     H74340   4.463   2.532   2.284 -1.8768  0.2613 -0.1326
  539MOL0     H74341   4.537   2.663   2.000 -0.5318  2.7716  1.0908
  539MOL0     H74342   4.626   2.546   2.114  2.3499  0.5282 -1.3809
  539MOL0     H74343   4.698   2.687   2.047 -0.2602 -0.6507 -1.4761
  539MOL0     H74344   4.473   3.161   1.927  1.4451 -0.5853  3.9701
  539MOL0     H74345   4.573   3.321   1.798  0.3945 -0.0697 -2.1415
  539MOL0     H74346   4.737   3.334   1.504 -2.0513  2.2615  0.7514
  539MOL0     H74347   4.646   3.420   1.621 -1.0660 -0.2118 -1.0627
  539MOL0     H74348   4.777   3.597   1.498  2.0758  1.0551 -0.0215
  539MOL0     H74349   4.828   3.579   1.665  1.9120  0.5721  0.5109
  539MOL0     H74350   4.987   3.457   1.436  0.0534 -2.8902  1.6257
  539MOL0     H74351   5.039   3.467   1.602  0.3224  0.7350 -0.6292
  539MOL0     H74352   5.062   3.697   1.609  0.0964  3.3437 -1.5175
  539MOL0     H74353   4.953   3.721   1.476 -1.6566 -2.0955  0.4905
  539MOL0     H74354   5.228   3.582   1.484 -2.4729 -4.0873 -1.0558
  539MOL0     H74355   5.142   3.608   1.328  0.4710 -1.8072  0.7833
  539MOL0     H74356   5.255   3.814   1.504 -1.8826 -2.0559  0.8252
  539MOL0     H74357   5.173   3.846   1.345 -1.1151  0.5451  0.9710
  539MOL0     H74358   5.344   3.713   1.228 -1.6333 -1.2542  1.6052
  539MOL0     H74359   5.432   3.671   1.370  3.2133  1.7342 -0.3690
  539MOL0     H74360   5.554   3.840   1.296 -0.5881  0.2818 -3.4495
  539MOL0     H74361   5.474   3.904   1.441 -0.1665 -0.2702  0.2991
  539MOL0     H74362   4.920   3.077   1.720 -0.6667 -0.9320  0.5348
  539MOL0     H74363   4.804   2.892   1.868  0.4940 -0.7666 -0.1187
  539MOL0     H74364   4.540   3.008   2.378  1.1490 -0.9609 -0.5083
  539MOL0     H74365   4.475   2.863   2.560  0.7699 -0.1883 -0.0078
  539MOL0     H74366   4.655   3.085   2.598 -0.1055 -1.1760 -2.0467
  539MOL0     H74367   4.793   3.109   2.408  1.2519 -0.6860  0.8976
  539MOL0     H74368   4.956   3.136   2.107 -2.2971 -0.3947 -1.2248
  539MOL0     H74369   5.093   3.116   1.885  0.1271  0.2719  0.8542
  539MOL0     H74370   5.322   3.099   1.768 -2.9248 -0.4958  1.1932
  539MOL0     H74371   5.187   3.191   1.686 -0.5611  1.9883  0.0807
  539MOL0     H74372   5.477   3.262   1.648  2.7912  2.3519 -4.1659
  539MOL0     H74373   5.331   3.338   1.571  3.1717  1.8014  0.8694
  539MOL0     H74374   5.440   3.053   1.540 -1.5864 -1.3231 -1.4575
  539MOL0     H74375   5.277   3.089   1.491  0.7614  0.3666 -1.1840
  539MOL0     H74376   5.437   3.102   1.305 -3.7784 -0.3392 -0.0962
  539MOL0     H74377   5.506   3.251   1.378 -2.9563  4.9905 -0.4449
  539MOL0     H74378   5.201   3.440   1.198  1.9711 -0.3777 -1.4722
  539MOL0     H74379   5.287   3.478   1.980  0.2122 -0.1652  1.5723
  539MOL0     H74380   5.213   3.503   2.315  0.1206  1.9786  1.2185
  539MOL0     H74381   5.262   3.596   2.174  1.1909 -1.0499 -1.0122
  539MOL0     H74382   5.096   3.608   2.229  1.0445  0.3123  2.5529
  540MOL0     O74383  11.041   1.382   0.218  0.7298  0.5620  0.6479
  540MOL0     C74384  11.014   1.304   0.121  0.3015  0.2083 -0.3806
  540MOL0     O74385  11.037   1.168   0.131 -0.1817 -0.0837  0.3359
  540MOL0     C74386  11.134   1.140   0.226 -0.7059 -0.1175 -0.3269
  540MOL0     C74387  11.104   1.096   0.357  0.5829 -1.0138  0.6068
  540MOL0     C74388  11.203   1.098   0.454 -0.2147 -0.0717 -0.5470
  540MOL0     C74389  11.333   1.130   0.430 -0.1847 -0.2624  1.0302
  540MOL0     O74390  11.420   1.134   0.542  0.4003 -0.2988 -0.8403
  540MOL0     C74391  11.553   1.074   0.518  0.0073 -0.2171 -0.6333
  540MOL0     C74392  11.612   1.078   0.670  1.0143 -0.1723 -0.6213
  540MOL0     C74393  11.539   0.963   0.743 -0.1548 -0.5612  0.3897
  540MOL0     C74394  11.580   0.948   0.889 -1.1120  0.4793 -0.1804
  540MOL0     C74395  11.729   0.911   0.893 -0.8153  0.0081  0.1233
  540MOL0     C74396  11.775   0.869   1.031  0.3814 -0.6918 -0.2798
  540MOL0     C74397  11.928   0.866   1.035 -0.0350  0.1600  0.8648
  540MOL0     C74398  11.979   0.811   1.174  0.4247 -0.1580  0.1965
  540MOL0     N74399  11.967   0.915   1.279  0.1707  1.1915 -0.6066
  540MOL0     C74400  12.033   1.030   1.276 -0.3212 -0.4645 -0.1998
  540MOL0     C74401  12.023   1.087   1.393  0.6590 -0.1966 -0.1933
  540MOL0     C74402  12.086   1.218   1.428 -0.8152 -0.9437  0.5463
  540MOL0     C74403  12.071   1.250   1.577  0.5962  0.3303  0.1069
  540MOL0     C74404  12.173   1.358   1.633 -0.4972  0.0469 -0.3043
  540MOL0     C74405  12.156   1.508   1.581 -0.2164  0.5887  0.1123
  540MOL0     O74406  12.180   1.525   1.438  0.2590  0.4448 -0.6117
  540MOL0     C74407  12.307   1.529   1.394 -0.1185  0.2282  0.6193
  540MOL0     C74408  12.335   1.489   1.266  0.7128 -1.0999 -0.0119
  540MOL0     C74409  12.456   1.499   1.195 -0.7454 -0.3233  0.3777
  540MOL0     C74410  12.469   1.446   1.052  0.6178 -0.2246  0.0276
  540MOL0     C74411  12.559   1.566   1.270  0.5018  0.0323  0.3272
  540MOL0     C74412  12.689   1.579   1.222  0.2105  0.1141 -0.4413
  540MOL0     O74413  12.737   1.703   1.226  0.0247 -0.3819  0.1976
  540MOL0     C74414  12.826   1.719   1.123 -0.4793 -0.9714 -0.1240
  540MOL0     C74415  12.791   1.766   0.991 -0.4584  1.3376  0.0878
  540MOL0     C74416  12.885   1.784   0.892 -0.5206 -0.4552  0.4145
  540MOL0     C74417  13.020   1.758   0.915  0.7024  0.0616 -0.1252
  540MOL0     O74418  13.112   1.780   0.819  0.4281 -0.2206 -0.3534
  540MOL0     C74419  13.255   1.767   0.828 -0.6867 -0.2806 -0.3026
  540MOL0     C74420  13.328   1.828   0.712 -0.4444 -0.3533  0.4060
  540MOL0     C74421  13.284   1.976   0.690  0.4092  0.3678  0.2991
  540MOL0     C74422  13.325   2.025   0.547 -0.6091 -0.1416  0.3277
  540MOL0     C74423  13.256   2.153   0.518  0.5834 -0.3639 -0.3287
  540MOL0     C74424  13.344   2.263   0.458 -1.4037  0.0871 -0.4845
  540MOL0     C74425  13.473   2.288   0.544 -1.3660  0.3340 -0.5547
  540MOL0     C74426  13.525   2.432   0.543  0.7883 -0.0675  1.5733
  540MOL0    Cl74427  13.666   2.434   0.652  0.0574 -0.6122  0.0467
  540MOL0     C74428  13.063   1.734   1.044 -0.4317  0.6282 -1.0771
  540MOL0     C74429  12.965   1.706   1.144 -0.7468 -0.5386 -0.3269
  540MOL0     O74430  12.752   1.478   1.203  0.1276  0.1315 -0.0714
  540MOL0     C74431  12.529   1.608   1.403 -0.3782  0.4261 -0.4288
  540MOL0     C74432  12.405   1.602   1.466  0.2764 -0.2887 -0.3261
  540MOL0     N74433  11.948   0.998   1.468 -0.2637 -0.0910  0.3542
  540MOL0     N74434  11.903   0.905   1.395 -0.4564  0.1722  0.2718
  540MOL0     C74435  11.374   1.153   0.294 -0.1114  0.5307  0.8990
  540MOL0     C74436  11.272   1.169   0.190  0.1850 -0.1014 -0.6977
  540MOL0     C74437  10.943   1.355  -0.000 -0.0612  0.0496  0.3274
  540MOL0     C74438  10.908   1.263  -0.103  1.0770 -0.2634  0.1314
  540MOL0     C74439  10.836   1.305  -0.214 -0.2022 -0.5067  0.1311
  540MOL0     C74440  10.799   1.441  -0.230  0.7800  0.5367 -1.0355
  540MOL0     O74441  10.718   1.469  -0.335  0.5026 -0.0226  0.9002
  540MOL0     C74442  10.688   1.606  -0.366  0.1120  0.1505  0.0937
  540MOL0     C74443  10.613   1.615  -0.501  1.3409 -0.5706  0.1240
  540MOL0     C74444  10.464   1.584  -0.482  1.3539  0.2390 -0.2425
  540MOL0     C74445  10.402   1.716  -0.451 -0.8662  0.1448  0.2746
  540MOL0     C74446  10.259   1.718  -0.463  1.4292 -0.8748  0.7707
  540MOL0     C74447  10.140   1.731  -0.477  0.8194  0.6873 -0.0133
  540MOL0     C74448  10.843   1.529  -0.137  0.5330 -0.7642 -0.1394
  540MOL0     C74449  10.911   1.494  -0.021 -1.0924  0.8999  0.5834
  540MOL0     C74450  10.971   1.606   0.069 -0.9030 -0.6012  0.6203
  540MOL0     H74451  10.999   1.075   0.378 -0.1389 -2.2539 -3.4386
  540MOL0     H74452  11.170   1.069   0.554  0.0549  1.2866 -0.0345
  540MOL0     H74453  11.613   1.130   0.445 -1.1235 -1.7198 -2.8244
  540MOL0     H74454  11.551   0.977   0.468 -1.0418 -1.1916  1.2019
  540MOL0     H74455  11.719   1.063   0.660  1.1360  0.4752 -0.3725
  540MOL0     H74456  11.600   1.169   0.729 -4.4192 -1.5134  0.9165
  540MOL0     H74457  11.431   0.979   0.743  0.0445  0.9812  0.0848
  540MOL0     H74458  11.554   0.870   0.687 -1.1153  0.1169 -1.0528
  540MOL0     H74459  11.570   1.049   0.928  1.4833  0.5111  0.5337
  540MOL0     H74460  11.523   0.876   0.949  0.7486  0.8391  2.1585
  540MOL0     H74461  11.790   0.996   0.864  0.8194 -0.3124  2.3619
  540MOL0     H74462  11.759   0.835   0.820  0.6300  0.8266 -0.1558
  540MOL0     H74463  11.732   0.946   1.096  1.4207 -0.0002 -0.3808
  540MOL0     H74464  11.748   0.769   1.063  2.7069 -1.3793 -0.2635
  540MOL0     H74465  11.966   0.967   1.020 -3.0702  1.1489 -1.1885
  540MOL0     H74466  11.964   0.802   0.954 -0.0371  2.4615 -1.0949
  540MOL0     H74467  11.937   0.714   1.205  1.6623 -1.9131 -3.1114
  540MOL0     H74468  12.083   0.790   1.150  0.7494 -0.7930  1.9907
  540MOL0     H74469  12.087   1.060   1.187  0.6871 -0.0767  0.5203
  540MOL0     H74470  12.048   1.303   1.372  0.3218  0.5707  1.9606
  540MOL0     H74471  12.190   1.197   1.401 -0.4427 -1.7058  2.4029
  540MOL0     H74472  11.978   1.301   1.606  0.8079  1.5379 -1.2796
  540MOL0     H74473  12.079   1.154   1.629 -0.0527 -0.7158 -1.6603
  540MOL0     H74474  12.176   1.360   1.743 -0.2568 -1.9938 -0.2218
  540MOL0     H74475  12.278   1.332   1.614 -0.3022  2.0570 -2.4391
  540MOL0     H74476  12.051   1.536   1.590 -0.0565  1.5552 -0.8810
  540MOL0     H74477  12.225   1.573   1.635  2.1268 -0.5262 -1.3643
  540MOL0     H74478  12.251   1.450   1.211 -0.6137  0.9239  0.4746
  540MOL0     H74479  12.485   1.338   1.042 -2.0266 -0.6344 -0.5484
  540MOL0     H74480  12.539   1.511   1.000 -1.2335  1.7130 -0.1718
  540MOL0     H74481  12.374   1.463   0.999  0.6043  2.8587  0.8632
  540MOL0     H74482  12.691   1.779   0.950  0.2040  0.3669 -1.9535
  540MOL0     H74483  12.862   1.804   0.788 -0.1672  0.3852  0.4897
  540MOL0     H74484  13.285   1.807   0.926 -0.5118 -0.2347 -0.3749
  540MOL0     H74485  13.290   1.664   0.839 -2.8705 -0.8584  2.7026
  540MOL0     H74486  13.434   1.821   0.734 -0.2242  1.8064  0.2469
  540MOL0     H74487  13.312   1.764   0.624 -0.2994 -0.9204  0.7906
  540MOL0     H74488  13.321   2.043   0.768  1.6214  0.2693 -0.1650
  540MOL0     H74489  13.175   1.965   0.689  0.5539 -1.4678 -0.9520
  540MOL0     H74490  13.301   1.954   0.468  1.9087  1.1044 -1.7394
  540MOL0     H74491  13.433   2.041   0.536 -0.5021 -1.1073 -0.1581
  540MOL0     H74492  13.172   2.142   0.449  1.4278  1.1334 -1.6593
  540MOL0     H74493  13.217   2.186   0.615  1.7049 -1.0438  0.3824
  540MOL0     H74494  13.280   2.351   0.447  0.8415  1.8216 -0.4265
  540MOL0     H74495  13.372   2.234   0.356 -0.1494 -1.5184  0.2727
  540MOL0     H74496  13.558   2.238   0.498  2.2227  1.4860  4.0430
  540MOL0     H74497  13.458   2.250   0.645  3.0982 -2.3408 -0.6322
  540MOL0     H74498  13.438   2.486   0.582  0.4500 -2.6130  4.8263
  540MOL0     H74499  13.558   2.480   0.451  3.9826 -3.3986  0.7411
  540MOL0     H74500  13.167   1.730   1.076 -1.3078  2.0970  2.4007
  540MOL0     H74501  12.999   1.658   1.235  0.1784  0.5265 -0.0871
  540MOL0     H74502  12.615   1.649   1.454  0.9644 -2.0505 -0.5609
  540MOL0     H74503  12.396   1.654   1.561  0.1166  1.6359 -1.3297
  540MOL0     H74504  11.474   1.175   0.258 -1.1920  1.3814 -1.7465
  540MOL0     H74505  11.307   1.214   0.098  1.1002  2.3122  0.7517
  540MOL0     H74506  10.937   1.159  -0.095  0.3792 -0.9301 -3.7793
  540MOL0     H74507  10.794   1.236  -0.287 -1.6654  0.5736 -0.1140
  540MOL0     H74508  10.620   1.640  -0.287 -0.3216 -0.3069 -0.0736
  540MOL0     H74509  10.775   1.671  -0.364 -2.2931  3.5971  0.5031
  540MOL0     H74510  10.654   1.544  -0.574 -1.4113 -1.1808 -0.9335
  540MOL0     H74511  10.631   1.712  -0.548  2.1823 -0.6635  0.2416
  540MOL0     H74512  10.429   1.543  -0.577 -0.6307 -0.6333  0.8128
  540MOL0     H74513  10.450   1.514  -0.399 -2.8700  1.2662  0.1402
  540MOL0     H74514  10.436   1.796  -0.516  1.4555 -1.4761 -0.6402
  540MOL0     H74515  10.427   1.743  -0.348 -1.2554 -0.6426  0.5913
  540MOL0     H74516  10.034   1.731  -0.491  0.7804 -0.8612  0.1250
  540MOL0     H74517  10.799   1.627  -0.139  0.8294 -0.6371 -0.6902
  540MOL0     H74518  10.924   1.617   0.167 -1.1814 -1.8436  0.6425
  540MOL0     H74519  11.076   1.582   0.087 -0.6384  0.9099  1.2140
  540MOL0     H74520  10.949   1.696   0.010  0.7548  1.3555  2.8060
  541MOL0     O74521   8.099   4.323   4.602 -0.5306  0.0107  0.1857
  541MOL0     C74522   8.072   4.409   4.526 -0.2745 -0.4479 -1.1127
  541MOL0     O74523   7.946   4.447   4.503 -0.1856 -0.0113 -0.7036
  541MOL0     C74524   7.848   4.354   4.529 -0.0388  0.6120  0.6742
  541MOL0     C74525   7.815   4.332   4.655  0.7358 -0.1146 -0.9580
  541MOL0     C74526   7.705   4.256   4.691  0.1406 -0.0199  0.5045
  541MOL0     C74527   7.626   4.189   4.590  0.1302 -0.0048 -0.2195
  541MOL0     O74528   7.523   4.101   4.607  0.2327 -1.0591  0.3217
  541MOL0     C74529   7.525   4.016   4.722  0.4043 -0.0018 -0.0486
  541MOL0     C74530   7.415   3.911   4.712 -0.1846 -0.2556  0.2861
  541MOL0     C74531   7.274   3.980   4.722  0.5104  0.3993 -0.3900
  541MOL0     C74532   7.181   3.897   4.631 -0.1355 -0.7030  0.7885
  541MOL0     C74533   7.032   3.955   4.627 -0.1005  0.5432 -0.6401
  541MOL0     C74534   6.941   3.841   4.573 -0.1977 -0.4318  1.1168
  541MOL0     C74535   6.828   3.910   4.493  0.1249 -0.6124 -0.3227
  541MOL0     C74536   6.714   3.830   4.444  0.0189  1.0287 -0.2003
  541MOL0     N74537   6.645   3.753   4.549  0.5643  0.3304 -0.1865
  541MOL0     C74538   6.535   3.793   4.619 -0.0168 -0.3518 -0.6253
  541MOL0     C74539   6.510   3.681   4.703 -0.5780  0.8963  0.3256
  541MOL0     C74540   6.392   3.666   4.800 -0.1868  0.6143 -0.1528
  541MOL0     C74541   6.425   3.573   4.918 -0.8238  0.4416  0.4190
  541MOL0     C74542   6.541   3.633   4.995 -0.4922 -0.5589  0.7048
  541MOL0     C74543   6.613   3.527   5.087 -0.3236  0.1624 -0.3825
  541MOL0     O74544   6.515   3.502   5.188 -0.0990  0.4304 -0.1646
  541MOL0     C74545   6.529   3.381   5.253 -1.3662  0.0689  0.7183
  541MOL0     C74546   6.647   3.341   5.313 -0.2985  0.4337 -0.3547
  541MOL0     C74547   6.670   3.217   5.376  1.7153 -0.1285  0.3005
  541MOL0     C74548   6.801   3.182   5.437  0.2677  0.2815 -0.9637
  541MOL0     C74549   6.552   3.131   5.378  0.0754 -0.5292  1.2155
  541MOL0     C74550   6.551   2.991   5.424 -0.1836  0.3564  0.0368
  541MOL0     O74551   6.663   2.933   5.475  0.4239 -0.3499 -0.2912
  541MOL0     C74552   6.677   2.813   5.535 -0.5771 -0.2136  0.7481
  541MOL0     C74553   6.582   2.710   5.541  0.6274 -0.1431  0.6135
  541MOL0     C74554   6.620   2.584   5.596 -0.2149 -0.6820 -0.4052
  541MOL0     C74555   6.741   2.575   5.665 -0.3646  0.5275  0.3143
  541MOL0     O74556   6.775   2.467   5.741 -0.4216 -0.1158 -0.2810
  541MOL0     C74557   6.726   2.325   5.717  0.2025 -0.5702  0.5585
  541MOL0     C74558   6.742   2.255   5.843 -0.3836 -0.3244 -0.3227
  541MOL0     C74559   6.700   2.107   5.826  0.1696 -0.2019  0.2744
  541MOL0     C74560   6.549   2.083   5.834  0.4780  0.0451  0.8439
  541MOL0     C74561   6.516   1.934   5.803  0.3761 -0.4910  0.4328
  541MOL0     C74562   6.368   1.911   5.823 -0.1548  0.4183  0.4254
  541MOL0     C74563   6.329   1.775   5.763  0.6396 -0.2271  0.5068
  541MOL0     C74564   6.188   1.764   5.703 -0.4970  0.0922 -0.1232
  541MOL0    Cl74565   6.165   1.883   5.577 -0.3851 -0.5006 -0.1416
  541MOL0     C74566   6.826   2.683   5.656 -0.2495 -0.8114 -0.8570
  541MOL0     C74567   6.805   2.793   5.580  0.5309  0.5056 -0.5056
  541MOL0     O74568   6.445   2.935   5.419 -0.4050  0.2511 -0.1882
  541MOL0     C74569   6.431   3.171   5.312  0.8837  1.0929 -0.2033
  541MOL0     C74570   6.426   3.292   5.242 -0.1103 -0.2782 -0.5601
  541MOL0     N74571   6.607   3.595   4.693 -0.4802 -0.0121 -0.1066
  541MOL0     N74572   6.687   3.635   4.601 -0.2488  0.3692 -0.5664
  541MOL0     C74573   7.651   4.234   4.463  0.1141  0.6340  1.4406
  541MOL0     C74574   7.759   4.316   4.431 -0.2097  0.1863 -0.6447
  541MOL0     C74575   8.177   4.492   4.467 -0.6114  0.0078  0.1933
  541MOL0     C74576   8.143   4.629   4.431  0.4158 -0.6241  0.3636
  541MOL0     C74577   8.237   4.716   4.369 -0.3266 -0.3741  0.4921
  541MOL0     C74578   8.369   4.683   4.371  0.1147  0.0534 -0.7171
  541MOL0     O74579   8.454   4.779   4.323 -0.0571  0.4056  0.3781
  541MOL0     C74580   8.594   4.760   4.327 -0.1129 -0.1838 -1.0343
  541MOL0     C74581   8.661   4.886   4.287 -0.8852  0.3684 -0.3474
  541MOL0     C74582   8.681   4.881   4.130  0.8815  0.2499  0.3925
  541MOL0     C74583   8.721   5.028   4.086 -0.2115 -0.2320 -0.6911
  541MOL0     C74584   8.845   5.074   4.140  0.4866  0.1356 -0.0347
  541MOL0     C74585   8.955   5.113   4.186  0.9210 -0.3711  0.6920
  541MOL0     C74586   8.412   4.549   4.419  0.2072  0.0837 -0.4302
  541MOL0     C74587   8.312   4.455   4.455  0.1678  1.2203  0.3501
  541MOL0     C74588   8.365   4.327   4.493 -0.8476  1.0511  0.3239
  541MOL0     H74589   7.880   4.371   4.733 -1.3648 -1.2311  1.5056
  541MOL0     H74590   7.689   4.240   4.797  1.0491 -2.2798  0.3584
  541MOL0     H74591   7.491   4.080   4.804 -0.0663  1.8600 -1.6209
  541MOL0     H74592   7.619   3.962   4.738  1.4051  2.3277  2.9077
  541MOL0     H74593   7.426   3.856   4.619  3.4670  0.4481  0.1275
  541MOL0     H74594   7.417   3.849   4.802  1.4274  0.1435  0.5531
  541MOL0     H74595   7.225   3.983   4.820  3.3306 -0.1466  1.1313
  541MOL0     H74596   7.271   4.083   4.683  3.5149 -0.9308 -5.0522
  541MOL0     H74597   7.214   3.915   4.528 -2.5711 -0.3702 -0.0042
  541MOL0     H74598   7.175   3.788   4.643 -0.9261 -0.6964  0.4922
  541MOL0     H74599   7.035   4.041   4.561  0.4899  1.0245 -0.0016
  541MOL0     H74600   7.012   3.980   4.732 -0.6894  3.1459 -1.3022
  541MOL0     H74601   6.994   3.779   4.499 -0.1584  2.1585 -1.1753
  541MOL0     H74602   6.892   3.775   4.645 -2.6594 -0.5948 -0.5897
  541MOL0     H74603   6.871   3.957   4.404  0.8955 -3.6946 -1.7131
  541MOL0     H74604   6.779   3.988   4.552  0.0925 -0.2990 -0.7544
  541MOL0     H74605   6.641   3.897   4.397  1.3070 -0.7915 -5.5235
  541MOL0     H74606   6.754   3.764   4.366 -2.9259  0.3025 -1.2404
  541MOL0     H74607   6.471   3.879   4.606  1.4971  0.6048 -2.1408
  541MOL0     H74608   6.309   3.636   4.736 -0.6893  1.1968  0.2111
  541MOL0     H74609   6.380   3.764   4.847  5.0119  0.2492  2.6899
  541MOL0     H74610   6.339   3.554   4.983 -1.0835 -0.2533 -0.1213
  541MOL0     H74611   6.451   3.477   4.874  0.1920 -0.0765  2.0862
  541MOL0     H74612   6.625   3.660   4.929  1.1588 -3.0358  1.6297
  541MOL0     H74613   6.520   3.724   5.052 -1.2506 -0.6433  0.5603
  541MOL0     H74614   6.635   3.437   5.029 -0.4225 -1.0325  1.3500
  541MOL0     H74615   6.709   3.560   5.125 -0.4723  0.3883 -0.2038
  541MOL0     H74616   6.734   3.405   5.323 -0.1173 -0.1218  2.2560
  541MOL0     H74617   6.842   3.087   5.401  2.0076  1.6396 -2.8375
  541MOL0     H74618   6.788   3.185   5.546  1.4133 -0.3505 -0.7968
  541MOL0     H74619   6.875   3.258   5.407 -0.0053  1.6223  1.5081
  541MOL0     H74620   6.488   2.722   5.489  0.0046 -1.5239  1.3670
  541MOL0     H74621   6.547   2.504   5.602  0.0759 -1.2487 -3.0477
  541MOL0     H74622   6.623   2.322   5.683 -0.2542 -3.2011  1.8669
  541MOL0     H74623   6.791   2.269   5.649 -0.8724 -0.1751 -0.8328
  541MOL0     H74624   6.847   2.254   5.871  0.7030 -0.1194 -3.9076
  541MOL0     H74625   6.682   2.310   5.917 -1.0921  0.5302 -1.4871
  541MOL0     H74626   6.731   2.046   5.911 -2.5058 -0.2597  1.2995
  541MOL0     H74627   6.747   2.065   5.737  3.5065  3.1403  0.1993
  541MOL0     H74628   6.487   2.146   5.769  0.5426 -1.9961 -1.3058
  541MOL0     H74629   6.523   2.117   5.935  0.2303  2.5059  0.0180
  541MOL0     H74630   6.558   1.917   5.704 -0.4422 -2.3985  0.3818
  541MOL0     H74631   6.567   1.861   5.867 -2.2424 -2.5167  0.3788
  541MOL0     H74632   6.321   1.992   5.767  0.1704 -0.3161 -0.9606
  541MOL0     H74633   6.338   1.902   5.928 -0.4038 -1.6431  0.2226
  541MOL0     H74634   6.334   1.703   5.845 -1.3441 -1.2661 -0.2268
  541MOL0     H74635   6.399   1.739   5.686 -1.6412 -0.6556 -1.4822
  541MOL0     H74636   6.109   1.785   5.776 -0.4610 -1.8419  0.5404
  541MOL0     H74637   6.176   1.660   5.670  0.9384 -0.3210  0.5949
  541MOL0     H74638   6.913   2.687   5.720 -1.9893 -2.1364  1.7862
  541MOL0     H74639   6.866   2.882   5.574  0.0661  0.8603 -0.1304
  541MOL0     H74640   6.347   3.107   5.284 -0.8630  3.2985 -0.2682
  541MOL0     H74641   6.345   3.317   5.174  0.8655  2.0024 -0.9907
  541MOL0     H74642   7.583   4.206   4.383  1.6434 -1.1295  0.6864
  541MOL0     H74643   7.771   4.344   4.326 -0.8037 -2.4594 -1.4884
  541MOL0     H74644   8.046   4.674   4.450 -0.8559 -2.7935 -0.6758
  541MOL0     H74645   8.212   4.810   4.321 -3.3713 -0.7567  1.1199
  541MOL0     H74646   8.620   4.743   4.432 -0.2240 -1.9025 -1.2558
  541MOL0     H74647   8.638   4.684   4.260  2.9057  2.4039 -2.2600
  541MOL0     H74648   8.753   4.879   4.346  0.7668 -1.3415 -2.9095
  541MOL0     H74649   8.612   4.977   4.321  1.3399  0.8447  1.9309
  541MOL0     H74650   8.759   4.812   4.096  0.6907  0.7539 -1.1262
  541MOL0     H74651   8.585   4.856   4.083  0.6888  0.7251  0.5261
  541MOL0     H74652   8.640   5.094   4.118 -2.6950 -3.1541 -0.5461
  541MOL0     H74653   8.716   5.028   3.977  0.4611 -0.4666 -0.7272
  541MOL0     H74654   9.047   5.145   4.232  2.7638 -3.6681 -0.3449
  541MOL0     H74655   8.515   4.517   4.433 -0.6518 -1.8366  2.3087
  541MOL0     H74656   8.302   4.240   4.475  1.5452 -0.4677 -1.3665
  541MOL0     H74657   8.468   4.300   4.466 -1.7670 -2.3465 -0.2701
  541MOL0     H74658   8.370   4.340   4.602 -2.0425  0.9634  0.3983
  542MOL0     O74659   3.128  11.516   6.188  0.0208 -0.4361 -0.4412
  542MOL0     C74660   3.129  11.403   6.248  1.1284 -0.4394 -0.0181
  542MOL0     O74661   3.022  11.331   6.277 -0.4304 -0.7927  0.2205
  542MOL0     C74662   2.893  11.351   6.252  0.8327  0.8837  0.9036
  542MOL0     C74663   2.837  11.273   6.149  0.3318  0.1754 -0.0657
  542MOL0     C74664   2.699  11.277   6.119 -0.9949  1.1346  1.2266
  542MOL0     C74665   2.616  11.361   6.194  0.3704 -0.0718 -0.9710
  542MOL0     O74666   2.485  11.378   6.167  0.4959  0.1602 -0.1818
  542MOL0     C74667   2.427  11.336   6.044 -0.5947  0.4700  0.3201
  542MOL0     C74668   2.381  11.187   6.047 -0.0092 -0.0883  0.4293
  542MOL0     C74669   2.285  11.146   6.160  0.5488 -0.6442 -1.2534
  542MOL0     C74670   2.289  10.995   6.150  1.0951  0.0927  0.0786
  542MOL0     C74671   2.188  10.934   6.249  0.1243 -0.2492 -0.5528
  542MOL0     C74672   2.236  10.949   6.397 -0.4721 -0.3135 -0.1736
  542MOL0     C74673   2.157  10.858   6.487  0.8122 -0.4171 -0.7015
  542MOL0     C74674   2.181  10.871   6.642 -0.0110  0.0495 -0.4655
  542MOL0     N74675   2.057  10.850   6.714 -0.0376  0.7994  0.2369
  542MOL0     C74676   1.987  10.953   6.763  1.1352 -0.2714 -0.1609
  542MOL0     C74677   1.873  10.891   6.818 -0.9164 -1.0477  0.3023
  542MOL0     C74678   1.770  10.980   6.898  0.3863 -0.3180 -0.7628
  542MOL0     C74679   1.808  11.030   7.039 -0.1320  0.5261 -0.1051
  542MOL0     C74680   1.940  11.104   7.029  0.1129 -0.2499  0.0524
  542MOL0     C74681   1.962  11.157   7.174  0.0070  0.4857 -0.7702
  542MOL0     O74682   1.870  11.270   7.208 -0.2729 -0.5887  0.5530
  542MOL0     C74683   1.908  11.394   7.165  0.3946  0.0871  0.2319
  542MOL0     C74684   1.820  11.496   7.207  0.1992 -0.0718  0.8007
  542MOL0     C74685   1.856  11.631   7.166  0.2007  0.4731 -0.1141
  542MOL0     C74686   1.760  11.738   7.180  0.3360 -1.0812  0.0430
  542MOL0     C74687   1.975  11.666   7.098  0.7641 -0.2274 -0.5016
  542MOL0     C74688   2.018  11.803   7.078  0.0331 -1.1520  0.7235
  542MOL0     O74689   1.999  11.905   7.166 -0.9319  0.3950 -0.5588
  542MOL0     C74690   1.997  12.030   7.109 -0.3615 -0.0886 -0.0539
  542MOL0     C74691   2.114  12.106   7.080  0.4082 -1.0002 -0.2641
  542MOL0     C74692   2.095  12.240   7.032 -1.1009  0.5825 -0.0927
  542MOL0     C74693   1.967  12.289   6.995 -0.1528  0.4641  0.0316
  542MOL0     O74694   1.965  12.419   6.960  0.2297  0.7321  0.1928
  542MOL0     C74695   1.853  12.476   6.899 -0.2676  0.2939 -0.2320
  542MOL0     C74696   1.801  12.577   7.012  1.5543  0.5833 -0.2311
  542MOL0     C74697   1.677  12.664   6.960 -0.8966 -0.1385 -0.0344
  542MOL0     C74698   1.717  12.741   6.839 -0.1419 -0.3430  0.5836
  542MOL0     C74699   1.619  12.867   6.829 -1.2843 -1.1616 -0.0516
  542MOL0     C74700   1.470  12.827   6.804  0.2292 -0.2852 -0.4074
  542MOL0     C74701   1.393  12.966   6.793 -0.9682  0.0000 -0.4384
  542MOL0     C74702   1.246  12.953   6.826 -0.2104  0.8323 -0.4377
  542MOL0    Cl74703   1.168  13.117   6.799  0.4145  0.2719  0.0553
  542MOL0     C74704   1.862  12.219   7.033  0.7627  0.0433  0.1113
  542MOL0     C74705   1.873  12.087   7.090 -0.1375  0.5766  0.3675
  542MOL0     O74706   2.070  11.823   6.966 -0.3257  0.3126  0.0998
  542MOL0     C74707   2.058  11.556   7.052 -0.5269 -0.6894 -0.4022
  542MOL0     C74708   2.026  11.422   7.092  0.0449  0.0242 -0.9273
  542MOL0     N74709   1.886  10.758   6.792  0.2168  0.5931 -0.3032
  542MOL0     N74710   1.991  10.726   6.723  0.1064  1.1854 -0.3384
  542MOL0     C74711   2.674  11.452   6.281 -0.1498 -0.5527 -0.4671
  542MOL0     C74712   2.808  11.445   6.311  0.1298 -0.6727 -0.1482
  542MOL0     C74713   3.265  11.359   6.303  0.8673 -1.1594 -0.4929
  542MOL0     C74714   3.261  11.227   6.340  0.4164 -0.0563  0.6112
  542MOL0     C74715   3.373  11.178   6.401 -0.9011  0.0241 -0.2933
  542MOL0     C74716   3.489  11.252   6.449  0.6314 -0.1652 -0.0296
  542MOL0     O74717   3.586  11.195   6.527 -0.2115 -0.6678  0.0528
  542MOL0     C74718   3.715  11.252   6.550 -0.6553  0.4417 -0.9414
  542MOL0     C74719   3.806  11.246   6.423 -0.5855  0.3886 -0.6876
  542MOL0     C74720   3.940  11.291   6.469 -0.6097 -0.5683  0.6132
  542MOL0     C74721   4.041  11.254   6.358 -0.0089 -0.5374 -0.0963
  542MOL0     C74722   4.158  11.344   6.360  0.9126 -0.4208  0.4641
  542MOL0     C74723   4.258  11.420   6.385 -0.8763  0.1268  0.4625
  542MOL0     C74724   3.483  11.391   6.409 -0.3508 -0.6194  0.8382
  542MOL0     C74725   3.383  11.445   6.328  0.9650 -0.5666 -1.2073
  542MOL0     C74726   3.381  11.593   6.288 -0.6429 -0.2372  0.0038
  542MOL0     H74727   2.910  11.209   6.102  1.5452  0.4137  1.4282
  542MOL0     H74728   2.660  11.205   6.048  0.6669  2.9624 -1.7353
  542MOL0     H74729   2.486  11.344   5.952 -1.9321 -1.0683 -0.7207
  542MOL0     H74730   2.341  11.400   6.026 -1.6878 -1.0773 -0.2233
  542MOL0     H74731   2.338  11.158   5.951  1.7351 -0.8819 -0.1496
  542MOL0     H74732   2.478  11.139   6.064  0.6011  1.2648  0.9130
  542MOL0     H74733   2.330  11.174   6.255 -1.9269 -3.9069  1.1020
  542MOL0     H74734   2.185  11.187   6.146  1.1138  0.2419 -3.0902
  542MOL0     H74735   2.264  10.964   6.048 -3.8030 -0.5919  1.2487
  542MOL0     H74736   2.387  10.948   6.164  1.1211  0.6237  1.8478
  542MOL0     H74737   2.175  10.827   6.228 -4.1264 -0.0190 -0.0722
  542MOL0     H74738   2.084  10.964   6.237  0.4261  0.4259 -1.5680
  542MOL0     H74739   2.344  10.932   6.397 -0.3960  0.0530 -1.3017
  542MOL0     H74740   2.214  11.049   6.435  0.3240  0.1519 -0.8775
  542MOL0     H74741   2.195  10.757   6.468  1.5839 -0.0434 -1.2122
  542MOL0     H74742   2.050  10.864   6.465  0.4270 -1.0100  0.8852
  542MOL0     H74743   2.242  10.788   6.679 -2.0745 -2.8413 -3.0739
  542MOL0     H74744   2.230  10.968   6.661  2.0160 -1.0559  0.2826
  542MOL0     H74745   2.002  11.060   6.772 -0.1771 -0.1731  1.4212
  542MOL0     H74746   1.680  10.918   6.912 -1.0000  1.5253 -1.1569
  542MOL0     H74747   1.738  11.060   6.832 -0.0898  2.2286  2.3110
  542MOL0     H74748   1.734  11.105   7.070  0.2425  0.3644  1.2532
  542MOL0     H74749   1.817  10.953   7.117 -2.6089  0.2553  0.0178
  542MOL0     H74750   2.025  11.041   7.003 -0.6353 -1.0846 -0.4432
  542MOL0     H74751   1.935  11.184   6.954 -0.6375 -1.4772 -1.2634
  542MOL0     H74752   1.940  11.081   7.250 -0.6049  1.9134  0.5514
  542MOL0     H74753   2.063  11.187   7.205  0.3837 -1.7769  0.3958
  542MOL0     H74754   1.726  11.480   7.258 -0.9602 -0.7416 -1.4209
  542MOL0     H74755   1.785  11.794   7.270 -0.0051  1.6259 -1.4322
  542MOL0     H74756   1.666  11.684   7.195  0.4559 -1.0366  1.0259
  542MOL0     H74757   1.746  11.811   7.100  1.6450 -0.0722  0.6962
  542MOL0     H74758   2.209  12.057   7.096  1.2244  1.2956  2.9814
  542MOL0     H74759   2.183  12.296   7.001 -0.3983  0.5782  1.7688
  542MOL0     H74760   1.897  12.540   6.822 -1.9615  2.9890  0.8837
  542MOL0     H74761   1.778  12.407   6.860  2.4825 -3.6623  0.7771
  542MOL0     H74762   1.771  12.518   7.099 -2.5277 -2.4080 -3.2567
  542MOL0     H74763   1.882  12.642   7.047 -0.5668  1.7424  2.8832
  542MOL0     H74764   1.657  12.730   7.045  1.8507  1.3163 -0.4182
  542MOL0     H74765   1.588  12.602   6.945 -0.3170 -1.1337  0.5309
  542MOL0     H74766   1.715  12.685   6.746 -1.3428 -0.7351  0.8289
  542MOL0     H74767   1.817  12.785   6.853  0.1225 -1.1840  1.4698
  542MOL0     H74768   1.625  12.942   6.909 -5.3541  1.2312 -1.6880
  542MOL0     H74769   1.662  12.918   6.742  2.0076 -2.2520  0.7698
  542MOL0     H74770   1.429  12.784   6.896  0.5223  1.8245  0.7722
  542MOL0     H74771   1.442  12.761   6.721  0.7285  2.6783 -3.1187
  542MOL0     H74772   1.410  12.984   6.686 -2.2563 -0.6458 -0.7717
  542MOL0     H74773   1.445  13.029   6.866 -1.8133 -1.1100  1.1636
  542MOL0     H74774   1.238  12.933   6.934  3.5148 -2.1369 -0.5133
  542MOL0     H74775   1.199  12.866   6.780  0.0527  0.0388  0.7511
  542MOL0     H74776   1.761  12.256   7.018  0.8845 -0.4110 -2.1551
  542MOL0     H74777   1.794  12.016   7.111  0.4997 -0.5325 -0.8631
  542MOL0     H74778   2.143  11.586   6.992 -0.2873  1.8006  1.0468
  542MOL0     H74779   2.084  11.336   7.061 -0.8069 -0.2723 -1.7651
  542MOL0     H74780   2.617  11.531   6.329  2.2222  0.2164  1.2727
  542MOL0     H74781   2.846  11.507   6.392 -0.2911  2.5734 -2.2325
  542MOL0     H74782   3.191  11.156   6.296  2.4170 -0.2503 -2.6312
  542MOL0     H74783   3.367  11.072   6.425  1.5210  0.0962  0.8439
  542MOL0     H74784   3.700  11.354   6.587  0.7032  0.2047  0.3404
  542MOL0     H74785   3.771  11.195   6.625  1.6422 -1.9158 -4.1808
  542MOL0     H74786   3.774  11.307   6.338  1.5586  1.2740 -0.9283
  542MOL0     H74787   3.794  11.142   6.391 -3.2265  0.1759  0.6929
  542MOL0     H74788   3.935  11.400   6.482  3.6343  0.0627 -1.2716
  542MOL0     H74789   3.971  11.250   6.566 -1.8513 -1.9027  0.4690
  542MOL0     H74790   3.999  11.264   6.258  1.0295  1.2456 -0.3986
  542MOL0     H74791   4.078  11.153   6.376  1.1147 -0.1945 -0.4108
  542MOL0     H74792   4.344  11.481   6.402 -0.1547 -1.4115  2.8891
  542MOL0     H74793   3.565  11.455   6.441 -0.4980 -1.5572  3.2833
  542MOL0     H74794   3.280  11.628   6.312  0.3432  1.2394  2.4124
  542MOL0     H74795   3.450  11.659   6.342 -0.1203 -0.7436 -0.0325
  542MOL0     H74796   3.403  11.606   6.182 -1.3010 -3.5881 -0.6596
  543MOL0     O74797   8.028   4.726  10.935  0.2331  0.2553  0.3503
  543MOL0     C74798   7.964   4.619  10.938 -0.6119 -0.5938 -0.0606
  543MOL0     O74799   7.997   4.509  11.006 -0.5017  0.8947 -0.4805
  543MOL0     C74800   8.124   4.523  11.068  0.2441  0.0266  0.5129
  543MOL0     C74801   8.240   4.476  11.005  0.2568  1.2297 -0.7367
  543MOL0     C74802   8.371   4.496  11.049  0.4926  0.4777 -0.7130
  543MOL0     C74803   8.389   4.554  11.170 -0.1864 -0.6651  0.9542
  543MOL0     O74804   8.513   4.547  11.219  0.0354 -0.6604  0.2440
  543MOL0     C74805   8.555   4.623  11.337 -0.8117  0.3963  0.1131
  543MOL0     C74806   8.712   4.610  11.364 -0.1564  0.6349  0.3478
  543MOL0     C74807   8.754   4.668  11.501 -0.0438 -0.1130 -0.4516
  543MOL0     C74808   8.907   4.690  11.520 -0.7055  0.6528 -0.6386
  543MOL0     C74809   8.935   4.747  11.654 -0.1396  0.2566  0.2001
  543MOL0     C74810   9.082   4.796  11.657 -0.2923  0.4852 -0.6344
  543MOL0     C74811   9.115   4.834  11.804  0.6422  0.7785  0.7724
  543MOL0     C74812   9.263   4.851  11.815 -0.3262 -0.3103 -0.0803
  543MOL0     N74813   9.326   4.942  11.718 -0.0795  0.1349 -0.7382
  543MOL0     C74814   9.314   5.080  11.735  0.1955  0.6874 -0.0758
  543MOL0     C74815   9.366   5.128  11.625 -0.4115 -0.0297  0.3869
  543MOL0     C74816   9.399   5.270  11.599 -0.5816 -1.0890  0.0362
  543MOL0     C74817   9.490   5.295  11.484  0.5320  0.7278 -0.3203
  543MOL0     C74818   9.545   5.442  11.475 -0.2815 -0.6134 -0.5414
  543MOL0     C74819   9.613   5.470  11.340 -0.6104 -0.2148  0.1845
  543MOL0     O74820   9.604   5.607  11.289  0.5713 -0.5159 -0.7735
  543MOL0     C74821   9.517   5.605  11.183  0.1934 -1.2683  0.1961
  543MOL0     C74822   9.375   5.633  11.205 -0.6058  0.7752  0.2099
  543MOL0     C74823   9.296   5.640  11.091 -0.0223 -0.9231  0.9205
  543MOL0     C74824   9.143   5.672  11.108  0.1543  0.8658 -0.1927
  543MOL0     C74825   9.343   5.626  10.960 -0.1458  0.0020  0.3147
  543MOL0     C74826   9.261   5.628  10.834 -0.7552  0.0628 -0.2257
  543MOL0     O74827   9.284   5.530  10.739  0.0537 -0.3346  0.4040
  543MOL0     C74828   9.213   5.528  10.619 -0.7614 -0.2092  0.0468
  543MOL0     C74829   9.290   5.503  10.514  0.2323 -0.8840 -0.9572
  543MOL0     C74830   9.229   5.502  10.389  1.0427  0.4643  0.3796
  543MOL0     C74831   9.085   5.516  10.374  0.4806 -0.4135  0.5268
  543MOL0     O74832   9.029   5.518  10.250 -0.1963 -0.7831 -0.0153
  543MOL0     C74833   8.885   5.515  10.236 -0.7592  0.7189 -0.6298
  543MOL0     C74834   8.834   5.524  10.085  0.6124  0.3879  0.0227
  543MOL0     C74835   8.680   5.557  10.063  0.3241 -0.4587 -0.4833
  543MOL0     C74836   8.591   5.443  10.083  1.7689 -0.2119 -1.1308
  543MOL0     C74837   8.441   5.492  10.058 -0.4995 -0.3762  0.5078
  543MOL0     C74838   8.393   5.487   9.916  0.9996  0.9438 -0.6774
  543MOL0     C74839   8.371   5.348   9.859  0.5677 -0.3186 -0.7340
  543MOL0     C74840   8.250   5.274   9.937 -1.0253 -1.1350  0.1378
  543MOL0    Cl74841   8.102   5.360   9.907  0.2472 -0.3613 -0.0326
  543MOL0     C74842   9.006   5.545  10.487 -0.7127  0.3812  1.0219
  543MOL0     C74843   9.074   5.551  10.616 -0.3042 -0.8113  0.4867
  543MOL0     O74844   9.192   5.728  10.822  0.3662 -0.4160  1.0383
  543MOL0     C74845   9.473   5.598  10.945  0.9390 -0.3800  0.3398
  543MOL0     C74846   9.560   5.587  11.053  0.0145  0.1898 -0.3935
  543MOL0     N74847   9.397   5.020  11.542  0.0176  0.1106 -0.1402
  543MOL0     N74848   9.375   4.910  11.599 -0.0373 -0.2514  0.5945
  543MOL0     C74849   8.275   4.601  11.240 -0.1101  0.0966  0.1625
  543MOL0     C74850   8.146   4.591  11.185  0.0004 -0.3874  0.1262
  543MOL0     C74851   7.832   4.611  10.864  0.3023  0.4957 -0.4803
  543MOL0     C74852   7.739   4.510  10.909  0.1573 -0.8114  1.0349
  543MOL0     C74853   7.612   4.501  10.852 -0.5400  1.0357  0.5059
  543MOL0     C74854   7.584   4.575  10.729  0.6263  0.0097 -0.1123
  543MOL0     O74855   7.455   4.572  10.679 -0.7226 -0.1959 -0.7921
  543MOL0     C74856   7.406   4.683  10.614 -0.2283 -0.1678  0.1668
  543MOL0     C74857   7.265   4.699  10.635  0.9421 -1.0878 -0.3782
  543MOL0     C74858   7.211   4.837  10.577 -0.6552  0.3360  0.1520
  543MOL0     C74859   7.241   4.873  10.434 -0.5509 -0.3347  0.1008
  543MOL0     C74860   7.181   4.764  10.344  0.5486 -0.6229  0.3050
  543MOL0     C74861   7.114   4.698  10.267 -0.0933 -0.3039 -0.6353
  543MOL0     C74862   7.682   4.664  10.684 -0.0412 -0.6431 -0.0923
  543MOL0     C74863   7.805   4.686  10.750 -0.3968 -0.1306 -0.4609
  543MOL0     C74864   7.908   4.769  10.689 -0.6408 -0.4969  0.6859
  543MOL0     H74865   8.231   4.431  10.906  1.4127  2.6280 -1.5301
  543MOL0     H74866   8.467   4.462  11.012  2.0116  0.5549  2.7339
  543MOL0     H74867   8.486   4.597  11.419 -1.5523  2.3962  0.1746
  543MOL0     H74868   8.527   4.728  11.321 -0.3082  0.3027 -1.5551
  543MOL0     H74869   8.742   4.506  11.373 -0.4519  0.5701  0.6370
  543MOL0     H74870   8.759   4.656  11.276 -1.8960 -0.3826 -1.1764
  543MOL0     H74871   8.704   4.765  11.513  0.8462  0.4730 -1.2985
  543MOL0     H74872   8.717   4.599  11.577  1.4076 -2.4193 -1.7141
  543MOL0     H74873   8.960   4.596  11.506 -0.8305  0.2705  1.2124
  543MOL0     H74874   8.956   4.759  11.451  2.3373  0.5902  1.3080
  543MOL0     H74875   8.902   4.682  11.735 -4.0307 -1.6860 -2.5974
  543MOL0     H74876   8.863   4.829  11.650  0.1526  0.5425  0.7708
  543MOL0     H74877   9.153   4.721  11.623  2.1487  2.8946 -1.1493
  543MOL0     H74878   9.091   4.880  11.587  2.2107 -0.5395 -1.6523
  543MOL0     H74879   9.072   4.761  11.874 -1.4709  0.4349 -0.7948
  543MOL0     H74880   9.053   4.919  11.834 -0.5277  0.2562 -0.1039
  543MOL0     H74881   9.284   4.875  11.919  2.0266  3.4899 -1.2400
  543MOL0     H74882   9.305   4.752  11.793  0.8944 -0.3921  2.3858
  543MOL0     H74883   9.282   5.141  11.819  1.0762  2.1857 -0.7940
  543MOL0     H74884   9.449   5.297  11.693 -1.7339  1.4486  0.0068
  543MOL0     H74885   9.313   5.337  11.588  1.0324  0.9417 -1.0332
  543MOL0     H74886   9.579   5.231  11.484 -0.6244 -0.9922  1.7817
  543MOL0     H74887   9.443   5.260  11.391 -0.2150 -0.2816  0.4256
  543MOL0     H74888   9.467   5.518  11.484 -0.6847 -0.2335 -5.0420
  543MOL0     H74889   9.613   5.463  11.558 -2.1892 -1.5165  1.3606
  543MOL0     H74890   9.715   5.431  11.349 -0.4935 -0.1947 -0.9519
  543MOL0     H74891   9.567   5.402  11.268  0.5991  0.4285 -1.2428
  543MOL0     H74892   9.332   5.655  11.302 -3.0110 -0.7970 -0.4323
  543MOL0     H74893   9.122   5.777  11.131 -1.8095  0.0330  2.1635
  543MOL0     H74894   9.108   5.626  11.200  2.0964  1.7402  1.0506
  543MOL0     H74895   9.080   5.638  11.026 -2.0165  0.4401  1.5669
  543MOL0     H74896   9.391   5.480  10.548 -0.3216 -0.9510  0.7600
  543MOL0     H74897   9.279   5.468  10.300 -1.0072  0.2108 -0.7347
  543MOL0     H74898   8.852   5.416  10.269 -2.5994  2.0127  1.7039
  543MOL0     H74899   8.837   5.598  10.288  0.9337  1.7380 -0.6030
  543MOL0     H74900   8.897   5.600  10.037  1.2089  0.8772  1.5359
  543MOL0     H74901   8.867   5.429  10.042  1.1139 -0.8585  2.9595
  543MOL0     H74902   8.668   5.603   9.965  2.6770 -0.4427 -0.8190
  543MOL0     H74903   8.642   5.629  10.137  0.6245 -1.3833  0.6111
  543MOL0     H74904   8.605   5.418  10.189  0.5114  3.5366  0.1118
  543MOL0     H74905   8.619   5.352  10.029  1.5772 -1.1330  0.2756
  543MOL0     H74906   8.382   5.433  10.129  0.1995 -0.1229  1.3226
  543MOL0     H74907   8.437   5.597  10.089  1.0981 -0.0721 -0.2293
  543MOL0     H74908   8.466   5.533   9.848 -0.1391  0.5543 -2.2046
  543MOL0     H74909   8.295   5.533   9.901 -0.5173 -1.6118  0.6745
  543MOL0     H74910   8.466   5.294   9.861  2.1706  2.0808 -3.6580
  543MOL0     H74911   8.341   5.358   9.754 -0.6056  1.0192 -0.3082
  543MOL0     H74912   8.279   5.252  10.041 -1.7763 -0.6784  0.4510
  543MOL0     H74913   8.245   5.178   9.885 -2.3417  1.0420 -4.1876
  543MOL0     H74914   8.898   5.562  10.485 -0.9206  0.7512 -5.7254
  543MOL0     H74915   9.003   5.567  10.697 -1.0858  1.4034 -0.5540
  543MOL0     H74916   9.510   5.590  10.844  0.7795  0.1298  0.2411
  543MOL0     H74917   9.662   5.554  11.042  0.6290  1.7108  0.3778
  543MOL0     H74918   8.295   4.643  11.339 -2.7842  0.1541  0.7609
  543MOL0     H74919   8.051   4.624  11.226  0.4761 -0.2709  1.1600
  543MOL0     H74920   7.760   4.441  10.990 -0.8274  1.1672  3.0896
  543MOL0     H74921   7.541   4.434  10.900 -2.4361  2.2802 -0.4365
  543MOL0     H74922   7.447   4.778  10.650  1.4416  0.2090 -2.4849
  543MOL0     H74923   7.430   4.660  10.510  2.1271  1.9253  0.1596
  543MOL0     H74924   7.255   4.701  10.744  3.6843 -0.1193 -0.0779
  543MOL0     H74925   7.204   4.612  10.605 -1.8055 -0.7480  3.4788
  543MOL0     H74926   7.102   4.829  10.574 -0.6351 -0.1188 -2.7153
  543MOL0     H74927   7.255   4.915  10.639  3.0763  1.1402 -3.0688
  543MOL0     H74928   7.349   4.893  10.426 -0.7211  0.7719  0.3623
  543MOL0     H74929   7.187   4.962  10.400 -1.8270 -2.0344 -2.6359
  543MOL0     H74930   7.052   4.660  10.188 -2.6474 -0.5500  1.3703
  543MOL0     H74931   7.656   4.721  10.595  0.2379  0.2028  0.3523
  543MOL0     H74932   7.906   4.873  10.723 -0.7801  0.0070 -0.7829
  543MOL0     H74933   8.006   4.723  10.699 -1.3520 -1.8448  1.8332
  543MOL0     H74934   7.896   4.793  10.583  0.2767  1.1817  0.9340
  544MOL0     O74935   7.089   3.388   7.159  0.5307 -0.0727 -0.6004
  544MOL0     C74936   7.180   3.405   7.236  0.1429 -0.2113  1.0783
  544MOL0     O74937   7.184   3.500   7.341 -0.8296  0.1441  0.0832
  544MOL0     C74938   7.061   3.545   7.388  0.4376  0.0031  0.1127
  544MOL0     C74939   7.018   3.670   7.339 -0.1424  0.6537  0.7386
  544MOL0     C74940   6.901   3.731   7.390 -0.5659 -0.6829 -1.1327
  544MOL0     C74941   6.826   3.673   7.496  0.6843 -1.1165  0.5186
  544MOL0     O74942   6.703   3.708   7.549 -0.1627  0.5796  0.3716
  544MOL0     C74943   6.632   3.804   7.479  1.4908  0.0501 -0.6276
  544MOL0     C74944   6.491   3.822   7.536  1.1423 -0.4078  0.0979
  544MOL0     C74945   6.415   3.936   7.468 -0.4505 -0.5533  0.5885
  544MOL0     C74946   6.273   3.947   7.529  0.0909 -0.1101  0.0264
  544MOL0     C74947   6.167   3.957   7.410 -0.3569 -0.6969 -0.3568
  544MOL0     C74948   6.020   3.962   7.448  0.7039 -0.0249  0.8223
  544MOL0     C74949   5.930   3.953   7.324  0.0295 -0.1828  0.2141
  544MOL0     C74950   5.945   3.830   7.238 -0.5077  0.7124 -0.7205
  544MOL0     N74951   5.912   3.696   7.304 -1.0317 -0.3459  0.0541
  544MOL0     C74952   5.818   3.600   7.261 -0.9443  0.0116  0.0676
  544MOL0     C74953   5.818   3.507   7.353 -0.4411  0.3531 -0.3544
  544MOL0     C74954   5.717   3.396   7.370 -0.4811 -0.1223 -0.5441
  544MOL0     C74955   5.589   3.444   7.428  0.7063  0.7929  0.2156
  544MOL0     C74956   5.609   3.538   7.553 -0.4268  0.3777 -0.8382
  544MOL0     C74957   5.677   3.476   7.679  0.0758  0.0797 -0.9699
  544MOL0     O74958   5.612   3.531   7.789  0.2626  0.4237  0.5185
  544MOL0     C74959   5.497   3.479   7.843 -0.3842 -0.0618  0.2423
  544MOL0     C74960   5.400   3.399   7.780 -0.0441 -0.7214 -0.2346
  544MOL0     C74961   5.281   3.356   7.845 -0.2308  0.5254  1.0197
  544MOL0     C74962   5.175   3.315   7.738 -0.4602  0.0762 -0.8992
  544MOL0     C74963   5.256   3.385   7.976  0.0921  0.2909  0.3644
  544MOL0     C74964   5.132   3.346   8.039  0.3661  0.7154  0.0456
  544MOL0     O74965   5.127   3.232   8.096 -0.7758  0.5887  0.1707
  544MOL0     C74966   5.031   3.187   8.175 -0.5637  0.2855 -0.9345
  544MOL0     C74967   4.912   3.130   8.127  0.1064  0.5223 -0.3472
  544MOL0     C74968   4.807   3.092   8.216 -0.1531 -0.0062  0.3356
  544MOL0     C74969   4.821   3.113   8.355  0.6729  0.8089 -0.4669
  544MOL0     O74970   4.723   3.098   8.449  0.8857  0.2945  0.3755
  544MOL0     C74971   4.585   3.133   8.393 -0.3483  0.3626 -0.7037
  544MOL0     C74972   4.475   3.135   8.501 -0.3025 -0.1507  0.2038
  544MOL0     C74973   4.443   2.997   8.557  0.5736  1.0099 -0.6655
  544MOL0     C74974   4.316   3.006   8.648 -0.1095  0.5418 -0.7254
  544MOL0     C74975   4.287   2.876   8.727  0.6345  0.2165 -0.1419
  544MOL0     C74976   4.230   2.768   8.635 -0.1888  0.0922  0.6091
  544MOL0     C74977   4.172   2.648   8.712  1.0327  0.2143  0.7228
  544MOL0     C74978   4.031   2.589   8.652  0.4800  0.0195 -0.4509
  544MOL0    Cl74979   3.903   2.699   8.703 -0.5614  0.2960 -0.1729
  544MOL0     C74980   4.951   3.145   8.394  0.7127  0.4798  0.9471
  544MOL0     C74981   5.049   3.163   8.304 -0.9454 -0.2637 -0.3097
  544MOL0     O74982   5.040   3.419   8.016  0.2306  0.1207  0.2073
  544MOL0     C74983   5.343   3.472   8.035  0.4659 -0.6880  0.0012
  544MOL0     C74984   5.471   3.508   7.975  0.0501  0.2206  0.4936
  544MOL0     N74985   5.907   3.542   7.449  0.0962  0.7954 -0.2422
  544MOL0     N74986   5.973   3.648   7.415  0.2269  0.2111  0.2252
  544MOL0     C74987   6.871   3.547   7.536  0.3462 -0.2545  0.7151
  544MOL0     C74988   6.984   3.485   7.485 -0.5366  0.5593  0.2410
  544MOL0     C74989   7.303   3.330   7.190  0.3487  0.0401  0.5005
  544MOL0     C74990   7.411   3.359   7.278  0.2169 -0.0253  0.1882
  544MOL0     C74991   7.536   3.294   7.258 -0.6052 -0.1360  0.8969
  544MOL0     C74992   7.564   3.220   7.143 -0.0504  0.9751  0.2571
  544MOL0     O74993   7.693   3.168   7.125  0.0055 -0.3829  0.0387
  544MOL0     C74994   7.679   3.020   7.117 -0.7502  0.3537 -0.3177
  544MOL0     C74995   7.667   2.953   7.258  0.2053 -0.0482 -0.1382
  544MOL0     C74996   7.780   2.985   7.355  0.0728  0.4354  0.3384
  544MOL0     C74997   7.916   2.913   7.306  0.1405  0.0362  0.8304
  544MOL0     C74998   7.895   2.763   7.307 -0.8368 -0.0986  0.5379
  544MOL0     C74999   7.895   2.641   7.306  0.0054  0.8275 -0.6174
  544MOL0     C75000   7.456   3.204   7.052  0.3880  0.5353 -0.4991
  544MOL0     C75001   7.327   3.247   7.073  0.5524 -0.8620  0.2514
  544MOL0     C75002   7.219   3.227   6.962 -0.5477 -0.7518 -0.8210
  544MOL0     H75003   7.073   3.709   7.254 -0.6598  1.4546  0.7678
  544MOL0     H75004   6.880   3.827   7.345  2.4294  0.4920 -0.2789
  544MOL0     H75005   6.641   3.787   7.371  3.6954 -3.1655 -0.0764
  544MOL0     H75006   6.680   3.899   7.506 -1.3546  1.8516 -1.4962
  544MOL0     H75007   6.440   3.726   7.524  1.5234 -0.7135  0.8639
  544MOL0     H75008   6.490   3.851   7.642  0.6310  1.5351 -0.3939
  544MOL0     H75009   6.467   4.030   7.490  2.2489 -2.1718  1.5753
  544MOL0     H75010   6.410   3.926   7.359  2.1985 -1.6782  0.4751
  544MOL0     H75011   6.247   3.857   7.585  0.6677 -0.5212 -0.3544
  544MOL0     H75012   6.261   4.035   7.593  0.2652  1.4545 -1.9896
  544MOL0     H75013   6.186   3.867   7.350 -2.6925 -1.5734  0.0922
  544MOL0     H75014   6.189   4.044   7.347  1.3347  0.0392  1.1592
  544MOL0     H75015   5.992   3.897   7.532 -1.2851  2.2009  2.0366
  544MOL0     H75016   6.003   4.056   7.501  0.9703 -0.6122  2.0034
  544MOL0     H75017   5.963   4.040   7.266 -0.2744  1.3277  2.1945
  544MOL0     H75018   5.825   3.965   7.352  0.5212  0.9359  1.6864
  544MOL0     H75019   5.879   3.847   7.152 -2.1065  0.0375  0.3139
  544MOL0     H75020   6.052   3.821   7.219  0.0175  2.2849  1.2213
  544MOL0     H75021   5.743   3.612   7.184 -1.3032  0.9219  0.5364
  544MOL0     H75022   5.760   3.319   7.435 -0.0643 -0.3279 -1.0623
  544MOL0     H75023   5.700   3.352   7.272  1.8443 -2.8046  0.1322
  544MOL0     H75024   5.516   3.487   7.359 -1.1788  2.7978  3.2096
  544MOL0     H75025   5.537   3.352   7.453 -0.5403  0.8140 -2.0001
  544MOL0     H75026   5.653   3.636   7.534  2.2973 -0.3313  1.1128
  544MOL0     H75027   5.507   3.560   7.585  0.0205  0.5225  0.5319
  544MOL0     H75028   5.670   3.368   7.697 -1.1928  0.1556 -0.9008
  544MOL0     H75029   5.780   3.511   7.684  0.7000 -1.7578  1.9762
  544MOL0     H75030   5.424   3.384   7.676  1.0639 -2.2789  0.1987
  544MOL0     H75031   5.087   3.372   7.768 -1.8515 -1.9355 -1.0088
  544MOL0     H75032   5.145   3.211   7.745  0.5384 -0.1729 -0.0787
  544MOL0     H75033   5.208   3.336   7.635  1.7514  0.7009 -0.1327
  544MOL0     H75034   4.894   3.131   8.020  1.8028 -0.1846 -0.6791
  544MOL0     H75035   4.717   3.059   8.165  1.2295  0.1929 -2.3641
  544MOL0     H75036   4.571   3.225   8.335 -3.3819 -0.6891 -1.8311
  544MOL0     H75037   4.557   3.061   8.316  1.3445 -1.2113  0.0832
  544MOL0     H75038   4.522   3.205   8.571  0.4275 -0.9986  0.5781
  544MOL0     H75039   4.381   3.178   8.464  0.1529  1.5680  0.9611
  544MOL0     H75040   4.527   2.956   8.614  0.8167  0.1200 -1.6178
  544MOL0     H75041   4.430   2.923   8.477 -3.9636  1.1383 -0.3000
  544MOL0     H75042   4.235   3.038   8.581  0.5601  1.7825 -0.9680
  544MOL0     H75043   4.323   3.082   8.726  1.4053 -1.4024  1.1495
  544MOL0     H75044   4.372   2.835   8.783  1.8127  2.2367 -0.3436
  544MOL0     H75045   4.213   2.913   8.797  0.5889 -3.5812  2.0866
  544MOL0     H75046   4.305   2.728   8.568  0.1310  1.8128 -0.1165
  544MOL0     H75047   4.150   2.824   8.584  0.9297  0.9152 -0.2838
  544MOL0     H75048   4.153   2.682   8.814 -2.0261 -1.6956  0.9124
  544MOL0     H75049   4.249   2.572   8.723 -1.3456 -2.8857 -1.9416
  544MOL0     H75050   4.002   2.496   8.701 -3.8424  2.3001  1.8092
  544MOL0     H75051   4.024   2.580   8.543 -1.2978  3.3757 -0.7320
  544MOL0     H75052   4.965   3.150   8.502 -0.1461 -0.6893  1.1329
  544MOL0     H75053   5.142   3.190   8.353  0.1215 -3.4456 -0.3729
  544MOL0     H75054   5.309   3.512   8.130  0.0590 -0.2562 -0.3237
  544MOL0     H75055   5.545   3.572   8.023 -0.0447  1.6768 -1.1933
  544MOL0     H75056   6.815   3.482   7.603 -2.4312  2.2263  1.0147
  544MOL0     H75057   7.024   3.400   7.540  0.9693  1.0253 -0.0845
  544MOL0     H75058   7.409   3.422   7.366 -0.0960  0.0698  0.1132
  544MOL0     H75059   7.618   3.310   7.328 -0.2868 -0.1803  0.5374
  544MOL0     H75060   7.590   2.996   7.058  0.0332  2.7829 -2.6868
  544MOL0     H75061   7.771   2.984   7.069 -0.3952  1.3404 -0.4086
  544MOL0     H75062   7.652   2.846   7.241 -3.6081  0.7099 -3.0479
  544MOL0     H75063   7.571   2.984   7.299  1.0893  0.2199  1.8232
  544MOL0     H75064   7.795   3.093   7.347 -0.8387  0.6111  0.8085
  544MOL0     H75065   7.747   2.952   7.454  0.8625 -0.3222  0.3633
  544MOL0     H75066   8.005   2.946   7.361  2.2508  2.4059 -3.5124
  544MOL0     H75067   7.943   2.937   7.203  1.3894 -0.1781  1.0906
  544MOL0     H75068   7.911   2.536   7.320 -1.2217  0.8744  1.7398
  544MOL0     H75069   7.488   3.140   6.971  3.2758 -0.6481  1.3962
  544MOL0     H75070   7.262   3.145   6.904  2.7748 -2.1858  3.2032
  544MOL0     H75071   7.130   3.194   7.016  0.4124 -1.3586  0.4417
  544MOL0     H75072   7.204   3.324   6.912 -2.6110  0.3151  1.6317
  545MOL0     O75073   4.202   6.107   8.466 -0.2230 -0.0656  0.0981
  545MOL0     C75074   4.134   6.001   8.437 -0.3998 -0.4512 -0.4846
  545MOL0     O75075   4.185   5.883   8.421  0.4531  0.5772  0.4452
  545MOL0     C75076   4.316   5.861   8.457  0.5761  0.2097 -0.7253
  545MOL0     C75077   4.389   5.911   8.573  0.3184 -0.5154  0.0602
  545MOL0     C75078   4.516   5.882   8.609 -0.9423 -0.2235  0.6706
  545MOL0     C75079   4.588   5.790   8.525 -0.7395 -0.1012 -0.0694
  545MOL0     O75080   4.722   5.779   8.553 -0.2380 -0.3578 -0.6886
  545MOL0     C75081   4.785   5.682   8.464  0.0408 -1.1621 -0.4354
  545MOL0     C75082   4.924   5.662   8.520  0.5102 -1.7346 -0.0017
  545MOL0     C75083   4.995   5.552   8.444  0.7484 -0.0361  0.7770
  545MOL0     C75084   5.134   5.547   8.501  0.5411 -0.6469 -0.0926
  545MOL0     C75085   5.201   5.407   8.476 -0.2406  0.4066  0.9186
  545MOL0     C75086   5.115   5.278   8.511  0.1737 -0.9955 -0.5415
  545MOL0     C75087   5.193   5.141   8.497 -0.1027 -0.3602  0.1629
  545MOL0     C75088   5.204   5.096   8.347  0.4698 -1.0993 -0.2813
  545MOL0     N75089   5.189   4.957   8.343  0.3540 -0.1729  0.5296
  545MOL0     C75090   5.235   4.867   8.444 -0.0306  0.6605 -0.0516
  545MOL0     C75091   5.234   4.744   8.385  0.7223  0.0318  0.1138
  545MOL0     C75092   5.261   4.607   8.432 -0.1450  0.4889 -0.2158
  545MOL0     C75093   5.130   4.537   8.472 -0.5836 -0.0153 -0.3166
  545MOL0     C75094   5.096   4.565   8.622 -0.8667  0.4581 -0.2556
  545MOL0     C75095   4.972   4.486   8.674  0.9467  0.5234  0.7497
  545MOL0     O75096   5.003   4.351   8.703 -0.0882 -0.3178 -0.1093
  545MOL0     C75097   4.905   4.254   8.738 -0.0140 -0.9611  0.1132
  545MOL0     C75098   4.768   4.283   8.752  0.8976 -0.2078 -0.1060
  545MOL0     C75099   4.672   4.180   8.791 -0.6753 -0.4944  0.4844
  545MOL0     C75100   4.526   4.217   8.784  0.2987 -0.0404 -0.2474
  545MOL0     C75101   4.723   4.055   8.838  1.2826 -0.3699  0.1344
  545MOL0     C75102   4.640   3.945   8.894  0.1934  0.0205  0.4463
  545MOL0     O75103   4.507   3.954   8.882  0.4256  0.4144  0.4033
  545MOL0     C75104   4.426   3.871   8.955 -0.1324 -0.1529 -0.3246
  545MOL0     C75105   4.357   3.771   8.891  0.0119  0.1487  0.0000
  545MOL0     C75106   4.280   3.672   8.954  0.3188 -0.5486  0.1942
  545MOL0     C75107   4.259   3.677   9.098  0.3927 -0.3791  0.4569
  545MOL0     O75108   4.181   3.595   9.174  0.4320 -0.0902 -0.2068
  545MOL0     C75109   4.111   3.490   9.101 -0.4980  0.3618 -1.0694
  545MOL0     C75110   4.077   3.377   9.201  0.3186 -0.0750  0.5655
  545MOL0     C75111   3.956   3.400   9.285  0.9709 -0.8229 -0.4815
  545MOL0     C75112   3.823   3.395   9.206  0.4475  1.3596 -0.9619
  545MOL0     C75113   3.703   3.367   9.299  0.1145 -0.2819 -0.3589
  545MOL0     C75114   3.574   3.360   9.232 -0.0909  0.2769 -0.2874
  545MOL0     C75115   3.559   3.251   9.126 -0.1139 -0.1305  0.1838
  545MOL0     C75116   3.422   3.247   9.067  0.7425  0.2220 -0.5750
  545MOL0    Cl75117   3.432   3.162   8.910  0.2542 -0.4861  0.8350
  545MOL0     C75118   4.332   3.787   9.164  0.1714 -0.0355  0.6271
  545MOL0     C75119   4.422   3.871   9.095 -0.6478 -0.1285 -0.4817
  545MOL0     O75120   4.696   3.854   8.958  0.1619  0.6440  0.1527
  545MOL0     C75121   4.862   4.033   8.824  0.0339 -0.9150  0.4797
  545MOL0     C75122   4.948   4.127   8.772 -0.1846  1.2500 -0.1718
  545MOL0     N75123   5.202   4.761   8.246  0.4671 -0.7149  0.5847
  545MOL0     N75124   5.184   4.893   8.226 -0.5719  0.6338  0.2543
  545MOL0     C75125   4.518   5.743   8.416 -0.6346 -0.3890  0.6513
  545MOL0     C75126   4.384   5.771   8.389 -0.8457 -0.2670 -0.5698
  545MOL0     C75127   3.993   6.010   8.390 -0.4811  0.4407 -0.2386
  545MOL0     C75128   3.936   5.912   8.306  0.7304  0.1882 -0.3181
  545MOL0     C75129   3.810   5.930   8.243  0.2081  0.6938 -0.6188
  545MOL0     C75130   3.737   6.047   8.255  0.1456 -0.0392 -0.0573
  545MOL0     O75131   3.613   6.072   8.212 -0.0788  0.1234 -0.7876
  545MOL0     C75132   3.566   6.008   8.095  1.0646  0.3778  0.5133
  545MOL0     C75133   3.644   6.025   7.968 -0.4253 -0.0885 -0.4566
  545MOL0     C75134   3.656   6.176   7.915  0.5241 -0.1673 -0.2279
  545MOL0     C75135   3.760   6.252   7.990 -0.0919  0.1850 -0.2512
  545MOL0     C75136   3.759   6.395   7.968  0.3768 -0.2862  0.0342
  545MOL0     C75137   3.765   6.516   7.943 -0.5974 -0.3316  0.3613
  545MOL0     C75138   3.790   6.146   8.334  0.1429 -0.4845  0.2351
  545MOL0     C75139   3.915   6.129   8.400 -0.4295 -0.8478 -0.9441
  545MOL0     C75140   3.950   6.242   8.493  0.8733 -0.0518  0.4121
  545MOL0     H75141   4.342   5.986   8.636 -1.7531 -1.9158  0.2951
  545MOL0     H75142   4.578   5.920   8.690  1.7563  2.2522 -2.3024
  545MOL0     H75143   4.790   5.723   8.363  0.8681 -3.1450 -1.2542
  545MOL0     H75144   4.726   5.591   8.476 -0.7985 -0.3094  3.1900
  545MOL0     H75145   4.981   5.755   8.515  0.1071 -1.2575  2.8442
  545MOL0     H75146   4.919   5.640   8.627 -0.5471  0.3489  0.4190
  545MOL0     H75147   4.938   5.460   8.462 -2.3564  1.7472  0.6919
  545MOL0     H75148   5.000   5.574   8.337 -0.8603  0.9724  0.8868
  545MOL0     H75149   5.187   5.629   8.451 -1.2759 -0.4578 -1.8064
  545MOL0     H75150   5.130   5.556   8.610 -0.3248 -4.7727  0.4148
  545MOL0     H75151   5.290   5.404   8.540 -1.6062 -4.1492  3.0347
  545MOL0     H75152   5.231   5.395   8.371 -1.7336  1.1921  0.3802
  545MOL0     H75153   5.097   5.270   8.618  2.2466  0.4057 -0.0093
  545MOL0     H75154   5.017   5.272   8.462 -0.3829  1.4121  0.1327
  545MOL0     H75155   5.139   5.070   8.560  1.1438 -0.5698  1.0165
  545MOL0     H75156   5.293   5.147   8.540 -0.1935  1.0036  0.2518
  545MOL0     H75157   5.130   5.145   8.283 -1.2813 -1.0346  1.6700
  545MOL0     H75158   5.305   5.102   8.307  0.4173 -2.7827 -0.7632
  545MOL0     H75159   5.262   4.877   8.548 -0.5687 -1.7815  0.3948
  545MOL0     H75160   5.330   4.604   8.517  0.9992 -3.5195 -1.0635
  545MOL0     H75161   5.309   4.537   8.362 -0.2011  0.1307  0.0988
  545MOL0     H75162   5.047   4.568   8.408  0.0616 -0.6250 -1.4741
  545MOL0     H75163   5.144   4.429   8.462 -2.2310 -0.5769  2.3632
  545MOL0     H75164   5.183   4.538   8.682 -2.0899  1.3526  2.0585
  545MOL0     H75165   5.087   4.674   8.628  2.3114  1.0669 -3.4444
  545MOL0     H75166   4.930   4.538   8.761 -3.3197  0.0274 -0.7652
  545MOL0     H75167   4.896   4.485   8.596 -1.4595  0.8375  2.9542
  545MOL0     H75168   4.713   4.373   8.725 -1.5105 -1.5942 -0.1272
  545MOL0     H75169   4.462   4.149   8.727 -2.1761 -0.3815  2.6623
  545MOL0     H75170   4.511   4.316   8.739  0.2518  1.1320  2.2212
  545MOL0     H75171   4.497   4.223   8.889  2.7068 -0.2207  0.4700
  545MOL0     H75172   4.368   3.755   8.784  0.2100  0.6127 -0.0538
  545MOL0     H75173   4.242   3.595   8.888 -0.4467 -0.1534  0.1605
  545MOL0     H75174   4.018   3.539   9.068 -0.2963  0.6085 -1.2711
  545MOL0     H75175   4.164   3.447   9.015 -0.5584  1.8256 -1.8721
  545MOL0     H75176   4.068   3.285   9.142  0.6526  0.1314  0.1925
  545MOL0     H75177   4.168   3.370   9.262  1.8479  0.5558 -1.5165
  545MOL0     H75178   3.954   3.494   9.340 -3.3703 -0.6213 -0.6398
  545MOL0     H75179   3.951   3.320   9.360 -0.8756 -0.5190 -0.2305
  545MOL0     H75180   3.841   3.313   9.136 -2.3534 -0.1314 -0.0615
  545MOL0     H75181   3.800   3.484   9.147 -2.9143  0.3240 -1.4462
  545MOL0     H75182   3.708   3.272   9.354  1.1521  0.6001  1.1442
  545MOL0     H75183   3.698   3.455   9.364  0.7428  1.2817 -2.3116
  545MOL0     H75184   3.547   3.453   9.180 -3.3458 -1.3888 -1.9016
  545MOL0     H75185   3.497   3.338   9.308  1.0161  3.3232  1.9427
  545MOL0     H75186   3.606   3.160   9.164  2.2783  0.6695 -0.6515
  545MOL0     H75187   3.628   3.276   9.046 -1.7997 -1.1987 -1.6831
  545MOL0     H75188   3.371   3.344   9.064 -0.9195 -0.5811  0.0844
  545MOL0     H75189   3.363   3.184   9.135 -0.1492  0.5558 -1.0221
  545MOL0     H75190   4.329   3.782   9.273 -0.7385 -0.1853  0.6033
  545MOL0     H75191   4.491   3.936   9.149  0.6182 -2.5084  0.9684
  545MOL0     H75192   4.916   3.945   8.859  0.1960 -0.1396  2.3228
  545MOL0     H75193   5.053   4.099   8.768 -0.0656  1.4044  1.4491
  545MOL0     H75194   4.572   5.704   8.330  4.9266  0.6194  3.2198
  545MOL0     H75195   4.348   5.733   8.294 -0.3764 -3.0219  0.2875
  545MOL0     H75196   4.003   5.830   8.282  2.1084  0.9095  0.9396
  545MOL0     H75197   3.769   5.849   8.183  0.7434  0.8026 -1.1415
  545MOL0     H75198   3.563   5.901   8.114  1.6028  0.4939  1.2703
  545MOL0     H75199   3.464   6.028   8.060  1.0199 -1.6008 -0.6455
  545MOL0     H75200   3.595   5.953   7.902 -1.1762  3.0948 -3.7227
  545MOL0     H75201   3.741   5.981   7.993  0.6985  2.4953  0.0797
  545MOL0     H75202   3.686   6.170   7.810 -1.2369 -0.3267 -0.7631
  545MOL0     H75203   3.562   6.228   7.934 -0.6707 -1.8862 -1.1278
  545MOL0     H75204   3.861   6.227   7.956  0.7345 -0.7398  2.6279
  545MOL0     H75205   3.741   6.231   8.095 -0.2688 -3.4881 -0.8747
  545MOL0     H75206   3.778   6.622   7.929  0.3130 -0.6402 -1.4968
  545MOL0     H75207   3.743   6.242   8.352 -0.1415 -0.7403  0.8589
  545MOL0     H75208   3.863   6.301   8.524  0.6231 -0.0921 -0.1966
  545MOL0     H75209   4.015   6.208   8.575  0.7849  2.6756  1.7233
  545MOL0     H75210   4.018   6.304   8.435 -0.2443  0.1713 -0.7187
  546MOL0     O75211   6.768   9.826   4.940 -0.0659 -0.1256  0.2233
  546MOL0     C75212   6.785   9.866   4.825 -0.3927  0.6113 -0.0328
  546MOL0     O75213   6.901   9.913   4.785  0.5775  0.1104  0.5408
  546MOL0     C75214   7.009   9.907   4.870 -0.7486  0.5035 -0.2601
  546MOL0     C75215   7.051  10.014   4.950  0.3272 -0.7085  0.2072
  546MOL0     C75216   7.169  10.014   5.016 -1.0228 -0.6811 -0.5350
  546MOL0     C75217   7.259   9.906   5.006 -0.4684  0.2531 -0.5351
  546MOL0     O75218   7.391   9.917   5.051 -0.3799  0.1472  0.5455
  546MOL0     C75219   7.451  10.044   5.083 -0.7816 -0.1434  0.7167
  546MOL0     C75220   7.608  10.052   5.050 -0.7737  0.6296  0.4983
  546MOL0     C75221   7.634  10.011   4.907  0.1096  0.6514 -0.6312
  546MOL0     C75222   7.785   9.993   4.877  0.6428  0.1606  0.5682
  546MOL0     C75223   7.869  10.115   4.905  0.0942  0.3867  0.0152
  546MOL0     C75224   7.963  10.169   4.804 -0.0924  0.4755  0.4554
  546MOL0     C75225   8.092  10.082   4.777 -0.3628 -0.2928 -0.4013
  546MOL0     C75226   8.211  10.166   4.756  0.2691  0.0517 -0.0472
  546MOL0     N75227   8.329  10.079   4.729  0.0115 -0.3227 -0.3457
  546MOL0     C75228   8.406  10.009   4.822  0.4640  0.3938  0.4984
  546MOL0     C75229   8.492   9.934   4.755  0.5539 -0.1338  0.8838
  546MOL0     C75230   8.601   9.848   4.822 -0.5411 -0.0743  0.5363
  546MOL0     C75231   8.728   9.863   4.730 -0.2145 -0.1506  1.2308
  546MOL0     C75232   8.854   9.784   4.777 -0.4658  0.0784  0.3627
  546MOL0     C75233   8.972   9.785   4.670 -0.2531  0.5249  0.2022
  546MOL0     O75234   8.954   9.683   4.571 -0.0314 -0.1583 -0.4579
  546MOL0     C75235   9.069   9.650   4.503 -1.2508 -0.2722 -0.6788
  546MOL0     C75236   9.163   9.746   4.456 -0.5164  0.4639  0.1567
  546MOL0     C75237   9.273   9.717   4.372  0.8167  0.2743 -0.3980
  546MOL0     C75238   9.361   9.823   4.319 -0.1509 -0.7155 -0.4447
  546MOL0     C75239   9.300   9.575   4.341 -0.0181  1.0458  1.1679
  546MOL0     C75240   9.411   9.533   4.249  1.7148 -0.2819 -0.1748
  546MOL0     O75241   9.371   9.468   4.134 -0.8494  0.5754 -0.2481
  546MOL0     C75242   9.469   9.401   4.064 -0.2130  0.2830 -0.7499
  546MOL0     C75243   9.471   9.271   4.066  0.7210  0.0189 -0.1231
  546MOL0     C75244   9.545   9.194   3.982  0.5311 -0.3153 -0.8552
  546MOL0     C75245   9.634   9.254   3.896  0.2742 -0.5484 -0.0321
  546MOL0     O75246   9.715   9.179   3.824  0.5116 -0.3704 -0.3693
  546MOL0     C75247   9.694   9.175   3.685  0.0217 -0.2398 -0.5009
  546MOL0     C75248   9.568   9.097   3.651  0.9374 -0.1315 -0.2323
  546MOL0     C75249   9.578   8.954   3.686  0.4416 -0.2640 -0.3366
  546MOL0     C75250   9.456   8.870   3.654  0.9197  1.0740  0.0688
  546MOL0     C75251   9.454   8.757   3.753 -0.9455 -0.5437 -0.5118
  546MOL0     C75252   9.357   8.643   3.709 -0.7217 -0.2939  0.8382
  546MOL0     C75253   9.348   8.537   3.817  0.4445 -0.1579 -0.4093
  546MOL0     C75254   9.217   8.467   3.830  0.6176 -0.6303  0.0993
  546MOL0    Cl75255   9.199   8.349   3.965  0.0438  0.3772 -0.2105
  546MOL0     C75256   9.625   9.403   3.882  0.1886 -0.3923  0.0227
  546MOL0     C75257   9.545   9.468   3.975 -0.5667 -0.0618 -1.1954
  546MOL0     O75258   9.528   9.559   4.281  0.2719  0.0174  0.6494
  546MOL0     C75259   9.203   9.485   4.383  0.3308  0.0330 -0.6610
  546MOL0     C75260   9.096   9.518   4.469  0.0126 -0.5029  0.2019
  546MOL0     N75261   8.461   9.952   4.618  0.4191 -0.2649 -0.4222
  546MOL0     N75262   8.357  10.034   4.604  0.1059 -0.6221 -0.1970
  546MOL0     C75263   7.216   9.796   4.942 -0.7335  0.3771  0.4504
  546MOL0     C75264   7.089   9.796   4.879 -1.0543 -0.7808  0.2686
  546MOL0     C75265   6.665   9.893   4.738 -0.4517  0.1620 -0.2562
  546MOL0     C75266   6.685   9.964   4.621 -0.5721 -0.1387 -0.2724
  546MOL0     C75267   6.588   9.998   4.525 -0.0662 -0.2250 -0.8636
  546MOL0     C75268   6.453   9.956   4.549 -0.1457  0.0792  0.5526
  546MOL0     O75269   6.361   9.987   4.459 -0.1207 -0.1760  0.6442
  546MOL0     C75270   6.378   9.885   4.350  0.6410 -0.6369 -0.1976
  546MOL0     C75271   6.265   9.888   4.251 -0.5123  0.1449 -0.9186
  546MOL0     C75272   6.170   9.765   4.263  0.1858  0.0801 -0.1090
  546MOL0     C75273   6.072   9.742   4.146 -0.1600  0.1428  0.1759
  546MOL0     C75274   6.001   9.616   4.177 -0.8017  1.0799 -0.1871
  546MOL0     C75275   5.949   9.505   4.204 -0.1831 -0.3074  0.3388
  546MOL0     C75276   6.424   9.874   4.659 -0.5191  0.6898 -0.1506
  546MOL0     C75277   6.530   9.835   4.747  0.5286  0.5937 -0.3738
  546MOL0     C75278   6.490   9.736   4.852 -0.1679  0.7642 -0.0542
  546MOL0     H75279   7.002  10.111   4.946 -1.7785 -1.7504 -1.9442
  546MOL0     H75280   7.209  10.099   5.071  0.3454 -0.2958 -2.0463
  546MOL0     H75281   7.434  10.058   5.190 -2.8111  1.7358  0.2108
  546MOL0     H75282   7.408  10.131   5.033  0.0164 -0.1323  0.0297
  546MOL0     H75283   7.642  10.156   5.053  0.3606  0.3152 -0.4965
  546MOL0     H75284   7.665   9.985   5.115 -1.4893 -0.2887  0.1987
  546MOL0     H75285   7.590   9.915   4.879  2.5292 -0.5392 -0.5572
  546MOL0     H75286   7.591  10.091   4.846  2.1956  3.0417  0.8116
  546MOL0     H75287   7.825   9.908   4.932 -1.7237 -0.8939  0.7766
  546MOL0     H75288   7.802   9.965   4.773  0.7711 -1.7034  1.0686
  546MOL0     H75289   7.923  10.094   4.998 -1.3115  2.0204  1.2598
  546MOL0     H75290   7.789  10.188   4.918 -2.0001 -1.9294  0.7477
  546MOL0     H75291   7.907  10.185   4.712 -1.1782 -1.8310  0.6497
  546MOL0     H75292   7.993  10.267   4.842 -0.4011  1.2635 -1.2434
  546MOL0     H75293   8.068  10.008   4.700  2.5314  0.0563 -1.7467
  546MOL0     H75294   8.104  10.028   4.872 -2.8082  0.9135  0.6982
  546MOL0     H75295   8.181  10.222   4.667 -4.2108  0.4269  1.4408
  546MOL0     H75296   8.217  10.227   4.846 -1.7265  0.6381 -0.2588
  546MOL0     H75297   8.408  10.003   4.930  0.3533 -1.6924  0.4310
  546MOL0     H75298   8.556   9.749   4.812 -0.4290 -0.0204 -0.7826
  546MOL0     H75299   8.615   9.863   4.929 -4.2116 -1.0054  1.2748
  546MOL0     H75300   8.704   9.806   4.640  1.0612  0.4040  0.5145
  546MOL0     H75301   8.764   9.958   4.688  1.2530 -1.8832 -1.7290
  546MOL0     H75302   8.875   9.821   4.877 -2.3431 -1.2160  1.3127
  546MOL0     H75303   8.819   9.680   4.781 -4.8649  1.3996  2.3240
  546MOL0     H75304   8.961   9.876   4.611  2.9834  0.1339 -1.2395
  546MOL0     H75305   9.069   9.766   4.718 -0.0896 -3.7869 -1.3546
  546MOL0     H75306   9.142   9.851   4.470 -0.7383  0.5739 -0.8692
  546MOL0     H75307   9.333   9.921   4.358 -0.0414 -0.6511 -0.5299
  546MOL0     H75308   9.334   9.812   4.213  0.7530 -5.0369 -0.4258
  546MOL0     H75309   9.468   9.820   4.341 -0.2505 -0.1445  0.1484
  546MOL0     H75310   9.392   9.231   4.129  0.3620  0.1430 -0.4915
  546MOL0     H75311   9.547   9.086   3.984  1.8381 -0.3050  0.5109
  546MOL0     H75312   9.671   9.274   3.645  0.9034 -0.7730 -2.4633
  546MOL0     H75313   9.778   9.127   3.633  1.6652  0.6118  1.2548
  546MOL0     H75314   9.494   9.161   3.699  1.1969  1.0944 -1.4058
  546MOL0     H75315   9.562   9.119   3.544  0.1056  1.9518  0.1882
  546MOL0     H75316   9.570   8.948   3.795 -0.7861 -0.6413 -0.4305
  546MOL0     H75317   9.667   8.904   3.647 -0.2126 -3.4902  1.9105
  546MOL0     H75318   9.466   8.831   3.553  0.0683  2.0782 -0.4253
  546MOL0     H75319   9.368   8.934   3.666  1.0466  0.9378  2.0456
  546MOL0     H75320   9.555   8.717   3.770 -1.8597 -2.7314  0.1692
  546MOL0     H75321   9.419   8.796   3.849 -1.3974  0.4330 -1.0640
  546MOL0     H75322   9.389   8.609   3.610 -2.0943 -0.7786  0.5394
  546MOL0     H75323   9.266   8.702   3.698 -0.5042 -0.1922 -0.5384
  546MOL0     H75324   9.358   8.583   3.916 -1.0499 -1.0372  0.1738
  546MOL0     H75325   9.432   8.468   3.800 -0.0277 -0.6697 -0.6843
  546MOL0     H75326   9.185   8.417   3.738 -0.0643 -1.7783  0.9473
  546MOL0     H75327   9.151   8.551   3.854 -2.9296 -3.2285  0.1844
  546MOL0     H75328   9.679   9.460   3.807  0.8948  0.8161  1.3939
  546MOL0     H75329   9.557   9.575   3.965  1.8804 -0.0886  0.3611
  546MOL0     H75330   9.212   9.383   4.347  1.5623  0.3390 -1.2512
  546MOL0     H75331   9.021   9.447   4.503 -1.3611  0.9996  0.4322
  546MOL0     H75332   7.285   9.712   4.945 -2.6637 -1.3013  3.2383
  546MOL0     H75333   7.074   9.713   4.810 -3.6214  0.8518 -1.2987
  546MOL0     H75334   6.787   9.990   4.597 -0.3012 -3.0684 -2.8570
  546MOL0     H75335   6.607  10.037   4.426  0.3243  1.1443 -0.2801
  546MOL0     H75336   6.468   9.911   4.293 -1.5368 -3.5749 -5.7171
  546MOL0     H75337   6.396   9.782   4.382  2.2338 -1.0732 -2.2612
  546MOL0     H75338   6.301   9.877   4.148 -1.3476  0.2718 -1.2374
  546MOL0     H75339   6.210   9.982   4.266 -1.5518 -0.0014 -3.3035
  546MOL0     H75340   6.230   9.674   4.267  1.5852  0.8050 -2.5665
  546MOL0     H75341   6.107   9.780   4.351 -1.4401 -2.4957 -0.7285
  546MOL0     H75342   6.123   9.741   4.049 -0.6406  2.7335 -0.1948
  546MOL0     H75343   5.995   9.819   4.158 -0.3329 -0.3996  3.6261
  546MOL0     H75344   5.908   9.407   4.217 -1.2510  0.1948  0.8500
  546MOL0     H75345   6.322   9.846   4.682  0.5987 -1.4244  2.8052
  546MOL0     H75346   6.548   9.645   4.868 -0.1540  0.9326  0.9404
  546MOL0     H75347   6.497   9.807   4.935  3.5054  1.2819 -0.6397
  546MOL0     H75348   6.386   9.702   4.850 -0.4714  1.6782 -0.2392
  547MOL0     O75349   7.174   1.068   2.280  0.3820 -0.4790 -0.2823
  547MOL0     C75350   7.166   1.195   2.274 -0.2884  1.3968  0.7724
  547MOL0     O75351   7.056   1.263   2.290  0.0040 -0.0783 -0.4531
  547MOL0     C75352   6.931   1.197   2.273 -0.8484 -0.6367 -0.2179
  547MOL0     C75353   6.852   1.210   2.161 -0.0165 -0.2731 -0.1537
  547MOL0     C75354   6.723   1.148   2.149  0.5115  0.2233  1.0026
  547MOL0     C75355   6.670   1.078   2.258  0.3234 -0.0240  1.5132
  547MOL0     O75356   6.559   0.996   2.239  0.3392 -0.2751 -0.5401
  547MOL0     C75357   6.484   0.950   2.354 -1.6721  0.7744  0.5050
  547MOL0     C75358   6.342   0.909   2.322 -0.3271  0.0829  0.3898
  547MOL0     C75359   6.254   1.034   2.281  0.2074  0.7098 -0.2068
  547MOL0     C75360   6.189   1.089   2.407  0.5578 -1.1808  0.2914
  547MOL0     C75361   6.079   1.194   2.375 -0.7803 -0.1025  0.1104
  547MOL0     C75362   6.015   1.247   2.498 -0.0543  0.3607  0.3594
  547MOL0     C75363   5.918   1.142   2.556  0.2931 -0.2122  0.5270
  547MOL0     C75364   5.841   1.205   2.682  0.4602 -0.0489 -0.6824
  547MOL0     N75365   5.746   1.110   2.738 -0.3782 -0.6782 -0.2317
  547MOL0     C75366   5.776   0.981   2.773 -1.1185 -0.4242  0.6360
  547MOL0     C75367   5.664   0.919   2.808  0.1379 -0.0490 -0.4763
  547MOL0     C75368   5.640   0.772   2.833 -0.6361 -0.4117 -0.6311
  547MOL0     C75369   5.739   0.704   2.929  0.8614  0.4183 -0.5514
  547MOL0     C75370   5.696   0.561   2.967  0.3631  0.5605  0.4371
  547MOL0     C75371   5.803   0.481   3.059 -0.8168 -0.0530 -0.4944
  547MOL0     O75372   5.901   0.437   2.962 -0.0178 -0.3702  0.5370
  547MOL0     C75373   6.019   0.365   2.997  0.3995  0.1494 -0.7396
  547MOL0     C75374   6.099   0.311   2.902 -0.2428 -0.0149 -0.8823
  547MOL0     C75375   6.220   0.236   2.939  0.2419  0.3089 -0.0282
  547MOL0     C75376   6.298   0.176   2.823  0.2199  0.5313 -0.2450
  547MOL0     C75377   6.252   0.214   3.076 -0.2417 -0.5140  0.7518
  547MOL0     C75378   6.358   0.128   3.119  0.5414  0.1858 -0.1034
  547MOL0     O75379   6.451   0.069   3.036 -0.2842 -0.0317  0.7215
  547MOL0     C75380   6.516  -0.045   3.070 -1.6202 -0.0699 -0.0924
  547MOL0     C75381   6.518  -0.115   3.192  0.7748  0.1726  0.8527
  547MOL0     C75382   6.599  -0.239   3.201  0.7973 -0.6682  0.9604
  547MOL0     C75383   6.678  -0.282   3.100  0.5381  0.2021 -0.6299
  547MOL0     O75384   6.764  -0.387   3.135  0.0389 -0.2691  0.6046
  547MOL0     C75385   6.858  -0.434   3.037  0.4254 -0.1141 -0.2723
  547MOL0     C75386   6.946  -0.536   3.118 -0.8629 -0.9707 -0.1205
  547MOL0     C75387   7.050  -0.614   3.032 -0.6852  0.5432  0.0102
  547MOL0     C75388   7.188  -0.564   3.064 -0.4821  0.1036 -0.4019
  547MOL0     C75389   7.318  -0.629   2.991 -0.4612 -0.7930 -1.2741
  547MOL0     C75390   7.312  -0.625   2.839 -0.5836  0.0714 -0.1524
  547MOL0     C75391   7.454  -0.636   2.782 -0.1190 -0.3789  0.4421
  547MOL0     C75392   7.570  -0.550   2.842  0.4180  0.3606 -0.4564
  547MOL0    Cl75393   7.508  -0.391   2.816 -0.0422 -0.2922 -0.2145
  547MOL0     C75394   6.683  -0.205   2.990  0.8170  0.0665  1.1458
  547MOL0     C75395   6.599  -0.097   2.967  0.7895 -0.2354 -0.1429
  547MOL0     O75396   6.355   0.118   3.240 -0.2684 -0.8510  0.1035
  547MOL0     C75397   6.170   0.280   3.172  0.7578 -0.5400  0.6864
  547MOL0     C75398   6.053   0.350   3.137 -0.4637 -0.3786  0.5587
  547MOL0     N75399   5.563   1.003   2.791 -0.4486 -0.0471  0.1715
  547MOL0     N75400   5.615   1.113   2.743  0.1491 -1.1722 -0.1971
  547MOL0     C75401   6.751   1.055   2.367 -0.4074  0.8109  0.2562
  547MOL0     C75402   6.879   1.115   2.375 -1.1518  0.8882 -0.5832
  547MOL0     C75403   7.293   1.273   2.247  0.2229 -0.9590  0.5436
  547MOL0     C75404   7.416   1.210   2.258  0.3725 -0.2733  0.5893
  547MOL0     C75405   7.540   1.269   2.234 -0.6500 -0.2144  0.3458
  547MOL0     C75406   7.544   1.399   2.198 -0.3748 -1.3762  0.0293
  547MOL0     O75407   7.668   1.466   2.181  0.3888 -0.2763  0.5544
  547MOL0     C75408   7.684   1.554   2.071 -0.4650 -0.1478  0.1023
  547MOL0     C75409   7.834   1.552   2.048  0.5589 -0.8426 -0.2067
  547MOL0     C75410   7.883   1.445   1.964  0.2336 -0.0650  0.7750
  547MOL0     C75411   8.021   1.486   1.901 -1.0660 -0.0936 -0.9029
  547MOL0     C75412   8.127   1.535   1.992 -0.4324  0.6566 -0.5142
  547MOL0     C75413   8.203   1.594   2.067  0.1994  0.1602  0.0389
  547MOL0     C75414   7.426   1.474   2.179  1.2827 -0.0536  0.2260
  547MOL0     C75415   7.299   1.411   2.208  0.4819 -0.0239 -1.4040
  547MOL0     C75416   7.176   1.492   2.195 -0.9900 -0.2178 -0.1281
  547MOL0     H75417   6.891   1.260   2.073 -1.2169 -1.9406 -1.7276
  547MOL0     H75418   6.665   1.160   2.059  1.0134 -1.1933  0.4651
  547MOL0     H75419   6.477   1.030   2.428  1.3944  1.9330 -0.3296
  547MOL0     H75420   6.528   0.859   2.398 -3.3836 -0.8259 -0.9101
  547MOL0     H75421   6.344   0.851   2.229  0.4761  0.0217  0.4440
  547MOL0     H75422   6.304   0.843   2.400 -0.9094 -1.4218 -1.1058
  547MOL0     H75423   6.311   1.114   2.232  3.1062 -0.3051  1.2418
  547MOL0     H75424   6.179   0.998   2.211  1.8537  0.5922 -1.9938
  547MOL0     H75425   6.135   1.012   2.463  2.0302 -1.5040  1.3417
  547MOL0     H75426   6.248   1.151   2.476 -3.2979  0.2902  2.5972
  547MOL0     H75427   6.017   1.161   2.291  0.5821  0.6603 -1.2221
  547MOL0     H75428   6.142   1.275   2.340  3.6511 -2.4071  1.9368
  547MOL0     H75429   6.086   1.280   2.574  2.3492  3.2510 -2.8062
  547MOL0     H75430   5.944   1.326   2.473 -2.4050 -1.4780  0.7951
  547MOL0     H75431   5.973   1.061   2.605 -1.1210  0.5364  3.6068
  547MOL0     H75432   5.850   1.105   2.479  1.7200 -0.3902 -0.6923
  547MOL0     H75433   5.910   1.228   2.764 -3.3708  3.2444  2.0140
  547MOL0     H75434   5.787   1.298   2.662  2.6250  1.1127 -1.4957
  547MOL0     H75435   5.879   0.946   2.774  0.0209  2.4109 -1.3702
  547MOL0     H75436   5.658   0.705   2.748  0.3033  0.7711 -1.3849
  547MOL0     H75437   5.544   0.761   2.885  0.1393 -0.0855  0.9335
  547MOL0     H75438   5.837   0.720   2.883  1.6136  0.3759  0.9725
  547MOL0     H75439   5.727   0.756   3.025 -3.2995  0.4465 -0.8918
  547MOL0     H75440   5.598   0.554   3.015 -0.7602  2.3124 -1.4369
  547MOL0     H75441   5.683   0.507   2.873  2.1495 -0.7930  0.9237
  547MOL0     H75442   5.845   0.541   3.139 -0.5220 -0.9781  0.0670
  547MOL0     H75443   5.761   0.387   3.097 -0.6977  0.7257  1.7010
  547MOL0     H75444   6.086   0.322   2.795  2.7680 -0.0260 -1.3444
  547MOL0     H75445   6.236   0.181   2.733 -0.8941  3.4250  0.5574
  547MOL0     H75446   6.342   0.077   2.833  1.9405  1.2083 -0.7460
  547MOL0     H75447   6.382   0.244   2.804  1.1181 -0.1131  1.2017
  547MOL0     H75448   6.458  -0.085   3.277 -0.2566 -2.7017  1.2329
  547MOL0     H75449   6.593  -0.291   3.296  1.4212 -1.7512  0.4317
  547MOL0     H75450   6.817  -0.488   2.951 -0.6380  5.5181 -3.8599
  547MOL0     H75451   6.907  -0.343   3.002 -2.3131  1.3552 -0.5572
  547MOL0     H75452   6.993  -0.470   3.192 -0.3807 -0.5961 -0.7443
  547MOL0     H75453   6.884  -0.606   3.174 -0.4485 -0.3241  1.1794
  547MOL0     H75454   7.023  -0.611   2.926  0.9101  1.0430 -0.4216
  547MOL0     H75455   7.044  -0.721   3.056 -1.8225  0.1403 -1.8333
  547MOL0     H75456   7.212  -0.577   3.169 -0.5428 -0.5855 -0.4695
  547MOL0     H75457   7.183  -0.457   3.042  2.7519 -0.1164 -2.9465
  547MOL0     H75458   7.404  -0.571   3.027  0.8440  0.5729 -5.9327
  547MOL0     H75459   7.325  -0.735   3.016  0.5382 -1.0883 -2.6701
  547MOL0     H75460   7.256  -0.541   2.797 -0.7197  0.5371  0.9225
  547MOL0     H75461   7.259  -0.712   2.800 -1.6364  0.2521  0.8059
  547MOL0     H75462   7.451  -0.626   2.673 -2.9087 -1.1057  0.3802
  547MOL0     H75463   7.495  -0.737   2.786  2.8791  0.5675 -1.9197
  547MOL0     H75464   7.651  -0.571   2.771 -0.5500 -1.4311 -1.1192
  547MOL0     H75465   7.594  -0.581   2.944 -0.1826  0.9117 -0.1466
  547MOL0     H75466   6.745  -0.234   2.906 -0.1652  2.0275 -0.3550
  547MOL0     H75467   6.600  -0.050   2.869  0.2820 -0.5515 -0.2987
  547MOL0     H75468   6.173   0.268   3.280 -4.1174  0.0074  1.0975
  547MOL0     H75469   5.990   0.398   3.211  0.2520 -1.4555  1.9323
  547MOL0     H75470   6.721   0.994   2.452 -3.1760 -0.3226 -1.4197
  547MOL0     H75471   6.936   1.113   2.467 -0.2652  0.4675 -1.1232
  547MOL0     H75472   7.409   1.104   2.282 -1.1457 -0.1826  0.6605
  547MOL0     H75473   7.631   1.210   2.238  0.9261  1.7699 -2.2110
  547MOL0     H75474   7.627   1.525   1.983 -0.3970 -1.6027  0.5110
  547MOL0     H75475   7.673   1.656   2.109  0.3537 -1.0205  2.9490
  547MOL0     H75476   7.891   1.543   2.141 -2.3834 -1.8249  1.6324
  547MOL0     H75477   7.848   1.655   2.013 -0.0393  1.0222  4.2937
  547MOL0     H75478   7.893   1.352   2.021 -5.1488 -2.5203 -1.5208
  547MOL0     H75479   7.820   1.421   1.877  2.0787 -1.4176 -0.2566
  547MOL0     H75480   8.016   1.558   1.818  1.1292  0.3905 -0.6619
  547MOL0     H75481   8.065   1.393   1.862 -4.3035 -1.8590 -0.7080
  547MOL0     H75482   8.266   1.649   2.134  3.5102 -1.4009 -1.5512
  547MOL0     H75483   7.438   1.573   2.136 -0.8373  0.7368  1.3034
  547MOL0     H75484   7.219   1.586   2.157 -0.1938  0.9218  3.2293
  547MOL0     H75485   7.107   1.459   2.117 -1.4067 -1.6781  0.8221
  547MOL0     H75486   7.130   1.506   2.293 -3.2158 -0.8166 -1.0241
  548MOL0     O75487   0.774   2.933   1.614 -0.4129  0.1090 -0.2336
  548MOL0     C75488   0.794   2.903   1.499 -0.6244 -0.6770 -0.2394
  548MOL0     O75489   0.911   2.923   1.424  0.0915 -0.5758 -1.1921
  548MOL0     C75490   1.005   3.011   1.467 -0.1456 -0.3483  0.5572
  548MOL0     C75491   1.137   2.956   1.460  0.0299  0.1959 -0.1252
  548MOL0     C75492   1.236   3.039   1.515  0.2425 -0.0484 -0.1218
  548MOL0     C75493   1.217   3.154   1.598 -0.2865 -0.0920  0.4011
  548MOL0     O75494   1.321   3.220   1.654 -0.3914 -0.1354  0.2090
  548MOL0     C75495   1.394   3.160   1.763  0.5385  0.3464 -0.7789
  548MOL0     C75496   1.351   3.239   1.893  0.6303  0.9653  0.3085
  548MOL0     C75497   1.290   3.150   2.000  0.2391 -0.3842 -0.7764
  548MOL0     C75498   1.290   3.233   2.124 -0.4112  0.9903 -0.2710
  548MOL0     C75499   1.214   3.159   2.231 -1.0629 -0.2869 -0.1468
  548MOL0     C75500   1.285   3.037   2.278  0.6074 -0.5460  0.5088
  548MOL0     C75501   1.205   2.977   2.404 -0.7188 -0.5380  0.0869
  548MOL0     C75502   1.233   3.039   2.536  0.4210 -0.0107  0.6933
  548MOL0     N75503   1.169   2.955   2.642 -0.3579  1.0006  1.2524
  548MOL0     C75504   1.206   2.824   2.666  0.3338 -0.1075 -0.5075
  548MOL0     C75505   1.107   2.771   2.736 -0.2828 -0.5236 -0.0292
  548MOL0     C75506   1.095   2.624   2.766  0.8269 -0.2683 -0.3513
  548MOL0     C75507   1.186   2.576   2.883  0.0462  0.0979 -0.3388
  548MOL0     C75508   1.149   2.627   3.024  0.0039 -0.3367  0.3786
  548MOL0     C75509   1.231   2.569   3.137  0.2004 -0.1178 -0.3878
  548MOL0     O75510   1.365   2.601   3.103 -0.9879 -0.2374  0.7515
  548MOL0     C75511   1.465   2.631   3.188  0.5738 -0.1073 -0.8784
  548MOL0     C75512   1.585   2.678   3.127  1.3663 -0.0767 -0.6530
  548MOL0     C75513   1.688   2.712   3.210 -0.3150 -0.2720 -0.8086
  548MOL0     C75514   1.820   2.751   3.146  0.4122 -0.5423  0.0541
  548MOL0     C75515   1.685   2.691   3.351  0.3131  0.2268 -0.4323
  548MOL0     C75516   1.795   2.715   3.447  0.9149  0.0758 -0.0515
  548MOL0     O75517   1.794   2.637   3.556  0.7156 -0.1529 -1.1825
  548MOL0     C75518   1.872   2.679   3.665  0.3111 -0.1048 -0.9150
  548MOL0     C75519   1.910   2.572   3.749 -0.1460 -0.4185  0.4181
  548MOL0     C75520   1.979   2.609   3.867 -0.1090  0.9137 -0.1998
  548MOL0     C75521   1.986   2.742   3.911 -0.6082 -0.2694  0.1924
  548MOL0     O75522   2.027   2.773   4.036  0.6569  0.1665 -0.5263
  548MOL0     C75523   2.152   2.713   4.082 -0.0757 -0.3503 -0.1296
  548MOL0     C75524   2.110   2.627   4.192  0.7538  0.5010 -0.6124
  548MOL0     C75525   2.231   2.554   4.238  0.1388  1.0248  0.0023
  548MOL0     C75526   2.198   2.466   4.355  1.1704 -0.4216  0.7254
  548MOL0     C75527   2.325   2.394   4.403 -1.3920  0.4500 -0.1765
  548MOL0     C75528   2.294   2.245   4.419 -0.2518  0.8765  0.7220
  548MOL0     C75529   2.418   2.179   4.479 -0.3828  0.5242  0.7102
  548MOL0     C75530   2.393   2.029   4.512 -0.4085  0.3558 -0.1331
  548MOL0    Cl75531   2.550   1.945   4.550 -0.4912  0.0049 -0.0611
  548MOL0     C75532   1.954   2.850   3.822  1.0634  0.7190 -0.2674
  548MOL0     C75533   1.903   2.818   3.697  0.0848  0.3500 -0.1025
  548MOL0     O75534   1.884   2.792   3.413  0.1775  0.1422  0.0031
  548MOL0     C75535   1.558   2.647   3.409 -0.7634 -0.4912  0.0070
  548MOL0     C75536   1.452   2.615   3.327  0.9092 -0.1801  0.4797
  548MOL0     N75537   1.005   2.864   2.751  0.2035 -0.0476  0.2796
  548MOL0     N75538   1.044   2.972   2.694 -0.3781 -0.0862 -1.1114
  548MOL0     C75539   1.085   3.190   1.616 -0.9596 -0.1665 -0.4705
  548MOL0     C75540   0.978   3.125   1.546 -0.1445 -0.7427 -0.3443
  548MOL0     C75541   0.678   2.834   1.428  0.3093 -0.2076  1.7062
  548MOL0     C75542   0.556   2.833   1.497 -0.1716 -0.1183  0.2079
  548MOL0     C75543   0.450   2.752   1.455  0.0495  0.7737 -0.0973
  548MOL0     C75544   0.465   2.685   1.333  0.0904 -0.1481  0.7416
  548MOL0     O75545   0.380   2.588   1.287 -0.1805 -0.6274  0.4261
  548MOL0     C75546   0.430   2.451   1.297 -0.7410 -0.0328 -0.1483
  548MOL0     C75547   0.457   2.411   1.442  0.3341 -0.2151 -0.1734
  548MOL0     C75548   0.486   2.267   1.464 -0.6514  0.2554 -0.5673
  548MOL0     C75549   0.484   2.220   1.612  0.8941  0.4962  0.4191
  548MOL0     C75550   0.466   2.076   1.624 -0.9283 -0.1338 -0.3826
  548MOL0     C75551   0.458   1.962   1.641  1.1209  0.0012 -0.5873
  548MOL0     C75552   0.573   2.704   1.252 -1.2470 -0.1658 -0.2839
  548MOL0     C75553   0.687   2.772   1.299 -0.1312  0.2461 -0.7621
  548MOL0     C75554   0.817   2.753   1.228 -0.3573 -0.0268  0.3510
  548MOL0     H75555   1.166   2.867   1.405 -2.2920  0.0760 -1.2968
  548MOL0     H75556   1.339   3.013   1.493  0.2686 -0.5132  0.5007
  548MOL0     H75557   1.503   3.163   1.753  0.6377 -1.8608 -0.8793
  548MOL0     H75558   1.369   3.054   1.775 -1.2036  0.6388 -1.5969
  548MOL0     H75559   1.428   3.308   1.929 -1.0835  2.6661  0.9028
  548MOL0     H75560   1.271   3.305   1.859  0.5467  1.6094  1.6915
  548MOL0     H75561   1.186   3.121   1.982  0.6212 -3.8469  1.5319
  548MOL0     H75562   1.359   3.065   2.013  1.0607  0.3398 -0.2538
  548MOL0     H75563   1.388   3.261   2.165 -0.6313 -1.9767  2.7918
  548MOL0     H75564   1.246   3.330   2.100  0.6383  0.6191 -4.3350
  548MOL0     H75565   1.110   3.142   2.200 -1.3012 -0.7116  0.8319
  548MOL0     H75566   1.216   3.227   2.317  2.9651 -0.1872 -0.1543
  548MOL0     H75567   1.298   2.967   2.194 -0.0185  1.8758 -1.7208
  548MOL0     H75568   1.383   3.062   2.321 -0.7762  2.4690  2.2059
  548MOL0     H75569   1.238   2.873   2.416 -0.7392 -0.6173 -0.5257
  548MOL0     H75570   1.097   2.983   2.387 -0.4308 -0.5765 -1.9667
  548MOL0     H75571   1.339   3.057   2.554 -0.1096  2.5852  1.6157
  548MOL0     H75572   1.190   3.140   2.533 -1.1059 -0.6365  0.6116
  548MOL0     H75573   1.292   2.771   2.625 -1.0136 -2.9121  0.0306
  548MOL0     H75574   1.120   2.560   2.681 -0.8753 -1.5598  0.0569
  548MOL0     H75575   0.990   2.606   2.791  0.2320 -0.6627 -2.9466
  548MOL0     H75576   1.205   2.469   2.880  0.7282  0.1351  1.4250
  548MOL0     H75577   1.280   2.628   2.863 -0.5469  1.6354  0.6590
  548MOL0     H75578   1.178   2.731   3.008  1.3278 -0.6207  0.8115
  548MOL0     H75579   1.042   2.614   3.041 -0.4166  2.5972  0.3564
  548MOL0     H75580   1.203   2.620   3.230 -0.1301  1.2591 -1.2056
  548MOL0     H75581   1.219   2.461   3.152  2.6576 -0.7590 -2.4155
  548MOL0     H75582   1.599   2.690   3.020  1.7241  1.3397 -0.4714
  548MOL0     H75583   1.816   2.772   3.039 -1.2303 -0.3739  0.1302
  548MOL0     H75584   1.894   2.671   3.153  0.0282 -1.1418 -2.1229
  548MOL0     H75585   1.857   2.846   3.186  0.1730  1.7381 -4.5189
  548MOL0     H75586   1.877   2.471   3.729  2.0360 -1.7875  3.0691
  548MOL0     H75587   2.007   2.526   3.932 -3.2503  0.4113  0.7065
  548MOL0     H75588   2.197   2.647   4.007 -0.9531 -0.9981 -0.1149
  548MOL0     H75589   2.212   2.794   4.122  2.8687 -1.5217 -1.8685
  548MOL0     H75590   2.081   2.682   4.282  2.5543  3.4643 -1.6941
  548MOL0     H75591   2.026   2.564   4.160  1.8828 -2.2865  1.4854
  548MOL0     H75592   2.312   2.625   4.258  0.1278  2.0261 -2.9625
  548MOL0     H75593   2.259   2.490   4.154 -2.1511 -0.5041  0.3178
  548MOL0     H75594   2.131   2.391   4.313  1.3349 -0.6511  0.8752
  548MOL0     H75595   2.132   2.511   4.430 -1.3363 -3.6161  0.6682
  548MOL0     H75596   2.410   2.409   4.336 -2.1859 -2.8037 -2.1559
  548MOL0     H75597   2.349   2.437   4.501 -1.6746 -0.8351  0.4788
  548MOL0     H75598   2.263   2.200   4.324  4.5133 -2.3708  0.3675
  548MOL0     H75599   2.220   2.234   4.498  0.5016  1.0030  1.4534
  548MOL0     H75600   2.452   2.225   4.572 -0.2202 -1.8394  1.8872
  548MOL0     H75601   2.494   2.193   4.402 -0.9760 -1.2204 -0.2555
  548MOL0     H75602   2.343   1.984   4.426 -0.2569 -0.9274  0.4283
  548MOL0     H75603   2.326   2.007   4.595  0.6955 -4.5557 -0.2784
  548MOL0     H75604   1.949   2.955   3.848 -2.2237  0.5931  0.0238
  548MOL0     H75605   1.893   2.892   3.618  0.1001 -0.5468 -0.9597
  548MOL0     H75606   1.552   2.635   3.517  0.4773 -2.9583 -0.1487
  548MOL0     H75607   1.353   2.583   3.359 -0.2331  1.7076 -0.9376
  548MOL0     H75608   1.068   3.275   1.681 -2.3225  0.9966 -2.2882
  548MOL0     H75609   0.871   3.144   1.550 -0.1866 -1.1252  0.5698
  548MOL0     H75610   0.549   2.893   1.588  1.5587 -0.6288  0.7207
  548MOL0     H75611   0.360   2.737   1.514  0.5037  1.2627  0.7416
  548MOL0     H75612   0.356   2.382   1.255 -2.4959 -1.7738  4.9158
  548MOL0     H75613   0.517   2.450   1.231 -2.8619 -0.4241 -3.1397
  548MOL0     H75614   0.366   2.434   1.498 -1.5849  0.8361 -3.4395
  548MOL0     H75615   0.536   2.472   1.486  0.0201  0.3088 -0.3242
  548MOL0     H75616   0.401   2.215   1.418 -1.4682  0.8059  0.2707
  548MOL0     H75617   0.576   2.231   1.415 -0.5706 -0.3402  0.0127
  548MOL0     H75618   0.399   2.256   1.671 -0.7254 -1.6927 -0.4401
  548MOL0     H75619   0.573   2.253   1.667  2.9076 -1.8436 -1.2488
  548MOL0     H75620   0.458   1.857   1.662  4.8825  0.4021  2.5709
  548MOL0     H75621   0.586   2.652   1.158  2.0018 -0.0210 -0.0275
  548MOL0     H75622   0.899   2.726   1.295 -0.6638 -2.4003 -0.1434
  548MOL0     H75623   0.818   2.671   1.156 -1.1229  0.9117 -0.7836
  548MOL0     H75624   0.829   2.855   1.188 -0.1390  0.7382  2.2377
  549MOL0     O75625   7.100   0.443   2.182 -0.4965  0.1961  0.6021
  549MOL0     C75626   6.987   0.407   2.155  0.1731  0.2447 -0.2154
  549MOL0     O75627   6.887   0.426   2.249  0.8666  0.0239  0.6017
  549MOL0     C75628   6.920   0.480   2.374  0.4199 -0.4014 -0.7634
  549MOL0     C75629   6.923   0.622   2.398  0.4401 -0.6138 -0.7481
  549MOL0     C75630   6.945   0.673   2.525  0.2769  0.0351  0.0637
  549MOL0     C75631   6.975   0.581   2.627  0.2079  0.3116  0.0384
  549MOL0     O75632   6.988   0.635   2.751  0.6389 -0.3996  0.2149
  549MOL0     C75633   7.115   0.620   2.819  0.4657  0.3349  0.0033
  549MOL0     C75634   7.126   0.704   2.943 -0.3261 -1.7404 -0.9886
  549MOL0     C75635   7.268   0.721   3.001  0.1006  0.2795  0.3714
  549MOL0     C75636   7.337   0.585   3.022  1.3181 -0.9530  0.0680
  549MOL0     C75637   7.458   0.599   3.118  0.3480  0.0896 -0.3819
  549MOL0     C75638   7.517   0.468   3.161  0.9228 -0.1568 -0.2234
  549MOL0     C75639   7.456   0.390   3.271  0.2278  0.5484 -0.4245
  549MOL0     C75640   7.338   0.294   3.245 -0.6069 -0.1972  0.1575
  549MOL0     N75641   7.366   0.197   3.147  0.5299  0.8223  0.3244
  549MOL0     C75642   7.387   0.063   3.187  0.1902 -0.6683 -0.3799
  549MOL0     C75643   7.371  -0.011   3.075 -0.6573  0.0020 -0.9233
  549MOL0     C75644   7.375  -0.165   3.074 -0.1634  0.0639 -0.6325
  549MOL0     C75645   7.502  -0.242   3.114 -0.1824 -0.2276  0.0414
  549MOL0     C75646   7.634  -0.208   3.043  0.3319  0.2381  0.5960
  549MOL0     C75647   7.728  -0.148   3.138 -0.7113 -0.0036 -0.3880
  549MOL0     O75648   7.787  -0.244   3.238 -0.2623 -0.3190  0.8793
  549MOL0     C75649   7.924  -0.236   3.261 -0.1318  0.5989 -0.3328
  549MOL0     C75650   8.000  -0.353   3.286  0.4632  0.1242 -0.9242
  549MOL0     C75651   8.133  -0.341   3.338  0.2458  0.4527 -0.8840
  549MOL0     C75652   8.194  -0.471   3.388  0.6207  0.5421  0.6208
  549MOL0     C75653   8.196  -0.216   3.346 -0.1888 -0.1043 -0.5027
  549MOL0     C75654   8.335  -0.188   3.408 -0.5317 -0.1084  0.5748
  549MOL0     O75655   8.387  -0.068   3.382  0.6135  0.4800 -0.4884
  549MOL0     C75656   8.498  -0.032   3.464 -1.0023  0.8908 -0.5819
  549MOL0     C75657   8.487   0.058   3.573  1.1112  0.1326  0.1110
  549MOL0     C75658   8.603   0.111   3.634  0.4570  0.3207 -0.4402
  549MOL0     C75659   8.733   0.068   3.593 -0.4697 -0.1040 -0.2569
  549MOL0     O75660   8.858   0.111   3.645  0.0541 -0.1353  0.1593
  549MOL0     C75661   8.872   0.076   3.786 -0.4028  0.0403 -0.2557
  549MOL0     C75662   9.000   0.142   3.840  0.6938 -0.4391  0.1258
  549MOL0     C75663   8.974   0.146   3.988  0.4847 -0.1438  0.5354
  549MOL0     C75664   8.912   0.282   4.026  0.4737 -0.0773  0.5197
  549MOL0     C75665   8.875   0.285   4.179 -0.2674  0.5492  0.1965
  549MOL0     C75666   8.761   0.389   4.202 -0.3196  0.0643 -0.4513
  549MOL0     C75667   8.651   0.371   4.306  0.2665  0.1838 -0.3886
  549MOL0     C75668   8.592   0.506   4.342 -0.3040 -0.1098 -0.2586
  549MOL0    Cl75669   8.463   0.471   4.456  0.3861  0.7447  0.2199
  549MOL0     C75670   8.746  -0.024   3.489 -0.5716 -0.3763 -0.1403
  549MOL0     C75671   8.629  -0.076   3.423  0.6947 -0.3729  0.3875
  549MOL0     O75672   8.381  -0.270   3.487 -0.4812 -0.1093 -0.4468
  549MOL0     C75673   8.117  -0.105   3.313 -0.3908 -0.3680 -0.0699
  549MOL0     C75674   7.991  -0.115   3.273 -0.2505 -0.3282 -0.4832
  549MOL0     N75675   7.334   0.075   2.977 -0.0895  0.8393  0.1145
  549MOL0     N75676   7.337   0.201   3.015  0.8268 -0.1997 -0.3468
  549MOL0     C75677   6.979   0.450   2.615 -0.6365  0.4146  0.2875
  549MOL0     C75678   6.951   0.397   2.487  1.0068  0.3377 -0.2509
  549MOL0     C75679   6.967   0.352   2.023 -0.3235  0.3708 -0.3234
  549MOL0     C75680   6.856   0.265   2.006 -0.0213  0.6191 -0.7658
  549MOL0     C75681   6.835   0.207   1.876 -0.0881 -0.7864  0.1489
  549MOL0     C75682   6.914   0.228   1.769 -0.3772  0.0728  0.3381
  549MOL0     O75683   6.929   0.144   1.662 -0.6935  0.3160 -0.2152
  549MOL0     C75684   6.837   0.042   1.635  0.5750 -0.0030 -0.4693
  549MOL0     C75685   6.855  -0.096   1.705 -0.3196  0.2026 -0.7414
  549MOL0     C75686   6.736  -0.190   1.669 -0.1835  0.0936  0.6497
  549MOL0     C75687   6.600  -0.136   1.709  0.1772 -0.0017 -0.6672
  549MOL0     C75688   6.505  -0.246   1.737 -0.1883  0.0198  0.1892
  549MOL0     C75689   6.413  -0.323   1.747  0.4643 -0.3309  0.5980
  549MOL0     C75690   7.011   0.321   1.787 -0.8237 -0.9580  0.1101
  549MOL0     C75691   7.045   0.382   1.909  0.5095 -0.1394 -0.4691
  549MOL0     C75692   7.161   0.483   1.916  0.0408  0.0108 -0.1923
  549MOL0     H75693   6.903   0.697   2.322  3.2351  1.2995  0.2426
  549MOL0     H75694   6.927   0.775   2.557 -3.8013 -0.8903  1.3364
  549MOL0     H75695   7.202   0.646   2.757  1.6712  0.0200  1.4999
  549MOL0     H75696   7.129   0.515   2.845 -0.8850  0.4922  1.5075
  549MOL0     H75697   7.098   0.806   2.913  2.7558 -1.2624 -2.6578
  549MOL0     H75698   7.063   0.660   3.021  2.4041 -1.3789  1.6139
  549MOL0     H75699   7.326   0.799   2.951 -1.5267  1.7777  0.7490
  549MOL0     H75700   7.259   0.767   3.100 -1.3319  1.8953 -0.4545
  549MOL0     H75701   7.268   0.502   3.042  2.2790 -1.6092  0.7828
  549MOL0     H75702   7.381   0.555   2.926  1.1995 -0.3353 -0.1877
  549MOL0     H75703   7.422   0.650   3.208  1.2640 -0.3353  0.2391
  549MOL0     H75704   7.536   0.658   3.070 -0.7375  0.7402 -1.3871
  549MOL0     H75705   7.521   0.414   3.066  2.0999  4.3260 -3.0416
  549MOL0     H75706   7.624   0.489   3.172  0.3340  2.1910  2.0174
  549MOL0     H75707   7.419   0.466   3.341 -0.1741 -0.8370  0.9134
  549MOL0     H75708   7.537   0.328   3.311 -0.3581 -0.3579 -0.6231
  549MOL0     H75709   7.299   0.250   3.338  0.3365  0.6532  0.9740
  549MOL0     H75710   7.249   0.350   3.213  1.2030  2.5335 -0.4588
  549MOL0     H75711   7.410   0.036   3.290  0.3504  0.2671 -0.1674
  549MOL0     H75712   7.364  -0.197   2.970 -0.3972  1.0862 -0.9364
  549MOL0     H75713   7.286  -0.206   3.122  0.8007 -2.9470 -1.2319
  549MOL0     H75714   7.513  -0.242   3.223  2.0704 -0.9399 -0.1209
  549MOL0     H75715   7.472  -0.342   3.082 -1.7429  0.6168 -1.2594
  549MOL0     H75716   7.673  -0.297   2.993  1.6851  0.9437  0.3364
  549MOL0     H75717   7.621  -0.134   2.964 -2.5231 -0.1660  0.5825
  549MOL0     H75718   7.808  -0.091   3.089  1.6999 -0.3048  2.8355
  549MOL0     H75719   7.672  -0.070   3.190 -1.8760 -0.0987 -1.4586
  549MOL0     H75720   7.969  -0.456   3.276  1.3550 -0.1815 -0.6225
  549MOL0     H75721   8.251  -0.481   3.481  1.5109 -3.0048 -0.1589
  549MOL0     H75722   8.256  -0.502   3.304 -1.7694  1.2248 -1.4913
  549MOL0     H75723   8.123  -0.552   3.403  0.6621  0.3384 -0.2400
  549MOL0     H75724   8.386   0.088   3.598 -0.4426 -5.3185  1.8600
  549MOL0     H75725   8.606   0.178   3.719 -2.5166 -1.3861  1.1922
  549MOL0     H75726   8.782   0.116   3.833  0.3776  2.5960 -0.7701
  549MOL0     H75727   8.876  -0.033   3.786 -0.5081  0.0189 -1.8688
  549MOL0     H75728   9.089   0.088   3.808 -0.2857 -1.8738 -0.2894
  549MOL0     H75729   9.007   0.240   3.793 -0.6255 -0.3585  0.0566
  549MOL0     H75730   9.070   0.146   4.041 -0.3817 -2.2059  2.2420
  549MOL0     H75731   8.919   0.056   4.014 -0.3573  0.2439  0.1426
  549MOL0     H75732   8.815   0.285   3.976  0.3977 -0.8068  0.6060
  549MOL0     H75733   8.978   0.367   4.003  0.8948  0.1208  2.3004
  549MOL0     H75734   8.841   0.189   4.218  1.9420 -1.1512 -1.7626
  549MOL0     H75735   8.965   0.305   4.237  2.1496  2.0053 -3.6621
  549MOL0     H75736   8.714   0.415   4.106 -1.9443 -2.2686 -0.3735
  549MOL0     H75737   8.815   0.480   4.231  2.2721 -1.4735 -0.1766
  549MOL0     H75738   8.702   0.335   4.396  0.8915 -3.5006 -2.0348
  549MOL0     H75739   8.573   0.301   4.275 -0.5530  0.5918  0.6942
  549MOL0     H75740   8.556   0.551   4.249  1.2153  0.6505 -0.5016
  549MOL0     H75741   8.637   0.595   4.387 -3.0367  0.8197  0.9176
  549MOL0     H75742   8.844  -0.051   3.452  0.6560 -1.1466  3.2660
  549MOL0     H75743   8.639  -0.144   3.339  1.1731 -3.5208  2.7990
  549MOL0     H75744   8.160  -0.006   3.310 -1.8134  0.2458 -2.7043
  549MOL0     H75745   7.934  -0.024   3.261 -2.2455 -0.9358  2.9620
  549MOL0     H75746   6.992   0.382   2.699 -3.1898 -0.7064 -0.1254
  549MOL0     H75747   6.950   0.291   2.466  0.7760  0.4668 -0.9096
  549MOL0     H75748   6.803   0.221   2.089 -0.4121 -0.9144 -1.7761
  549MOL0     H75749   6.761   0.128   1.872 -1.5292  0.5552 -2.0744
  549MOL0     H75750   6.734   0.078   1.637  1.1196  1.9627 -2.9459
  549MOL0     H75751   6.851   0.023   1.528 -0.3876 -4.6170  0.0105
  549MOL0     H75752   6.849  -0.079   1.813 -1.1009 -3.5333 -0.0539
  549MOL0     H75753   6.951  -0.134   1.671  0.0817  1.8057 -1.5177
  549MOL0     H75754   6.741  -0.206   1.561 -4.5492 -3.0461  0.6529
  549MOL0     H75755   6.758  -0.278   1.731  3.5037  2.1833  2.6548
  549MOL0     H75756   6.558  -0.085   1.622  0.3269 -0.2762 -0.8996
  549MOL0     H75757   6.612  -0.071   1.796 -0.8885 -1.6087  0.7596
  549MOL0     H75758   6.329  -0.384   1.776  0.7794 -0.2796  1.6591
  549MOL0     H75759   7.077   0.346   1.705  0.7541  2.8100  2.2503
  549MOL0     H75760   7.131   0.584   1.945  1.1278  0.3025 -0.0430
  549MOL0     H75761   7.246   0.447   1.974 -0.8025 -1.8180  0.0058
  549MOL0     H75762   7.207   0.494   1.817  2.5430 -1.1788  0.7470
  550MOL0     O75763   7.007   5.330   6.655  0.4229 -0.1476  0.0749
  550MOL0     C75764   6.985   5.337   6.769 -0.6181  0.5806 -0.6567
  550MOL0     O75765   6.972   5.233   6.847 -0.4145  0.7099 -0.6137
  550MOL0     C75766   6.952   5.101   6.800  0.0657  0.1299  0.0797
  550MOL0     C75767   6.871   5.061   6.693  0.2044  1.1249 -0.2244
  550MOL0     C75768   6.855   4.919   6.670 -0.0233  0.2021  0.0646
  550MOL0     C75769   6.932   4.823   6.733 -0.5238  0.6260  1.8108
  550MOL0     O75770   6.929   4.684   6.697  0.2699  0.4489 -0.0688
  550MOL0     C75771   6.883   4.650   6.568  0.3245  1.1109 -0.1221
  550MOL0     C75772   6.864   4.504   6.569 -0.6554  0.6762  0.3941
  550MOL0     C75773   6.749   4.469   6.676 -0.6425 -0.0219  0.3163
  550MOL0     C75774   6.673   4.334   6.649 -1.2796  0.2290 -0.0556
  550MOL0     C75775   6.536   4.319   6.712 -0.7949  0.1811 -0.1988
  550MOL0     C75776   6.555   4.274   6.860  0.1916 -0.0431 -0.4314
  550MOL0     C75777   6.426   4.243   6.938 -0.2788  0.5253  0.8157
  550MOL0     C75778   6.447   4.149   7.054 -0.6223  0.0182  0.2927
  550MOL0     N75779   6.553   4.171   7.150  0.3216 -0.3463  0.3746
  550MOL0     C75780   6.616   4.295   7.184  1.6013  0.0982  0.2064
  550MOL0     C75781   6.716   4.255   7.260 -0.0895  0.4749  0.2947
  550MOL0     C75782   6.825   4.348   7.312 -0.1783  0.1980 -0.4336
  550MOL0     C75783   6.825   4.378   7.460 -0.0268  0.1945 -0.6960
  550MOL0     C75784   6.688   4.433   7.501  0.4948  0.3584  0.5818
  550MOL0     C75785   6.672   4.586   7.475 -0.1890 -0.2748  0.5243
  550MOL0     O75786   6.590   4.615   7.355  0.5812  0.0659  0.1461
  550MOL0     C75787   6.462   4.571   7.359  0.5648  0.0774  0.0236
  550MOL0     C75788   6.393   4.610   7.241 -0.4624 -0.0608 -0.9872
  550MOL0     C75789   6.273   4.564   7.208 -0.3040  0.3684 -0.2666
  550MOL0     C75790   6.208   4.631   7.083 -0.3604  0.0163 -0.5782
  550MOL0     C75791   6.209   4.467   7.294 -0.0092 -0.2004 -0.0999
  550MOL0     C75792   6.076   4.408   7.265 -0.5925 -0.4877  0.4780
  550MOL0     O75793   5.995   4.369   7.372  0.2210  0.7362 -0.0278
  550MOL0     C75794   5.858   4.335   7.359 -0.7376 -0.5516 -0.1723
  550MOL0     C75795   5.783   4.340   7.242 -0.6026  0.1757 -0.1046
  550MOL0     C75796   5.649   4.295   7.240  0.2683 -0.3416 -0.2674
  550MOL0     C75797   5.590   4.235   7.350 -0.0853 -0.2409  0.0035
  550MOL0     O75798   5.461   4.190   7.350 -0.1633 -0.0883  0.2915
  550MOL0     C75799   5.382   4.208   7.473 -0.1705  0.3893 -0.0652
  550MOL0     C75800   5.234   4.233   7.437 -0.0552 -0.0500  0.6945
  550MOL0     C75801   5.168   4.114   7.354 -0.0750  0.2902 -0.4979
  550MOL0     C75802   5.021   4.139   7.353 -0.0151  0.3627 -0.2653
  550MOL0     C75803   4.952   4.026   7.274 -0.9920 -0.0746 -0.1329
  550MOL0     C75804   4.809   4.082   7.229 -1.2322 -0.1359  0.7574
  550MOL0     C75805   4.748   3.993   7.125  0.4853  0.1299 -0.4646
  550MOL0     C75806   4.600   4.019   7.095 -0.5126  0.3438 -0.5164
  550MOL0    Cl75807   4.549   4.192   7.078 -0.0495  0.1293  0.1792
  550MOL0     C75808   5.668   4.221   7.465 -0.5894  0.4649  0.0566
  550MOL0     C75809   5.799   4.274   7.467 -0.9126  0.1910  0.1432
  550MOL0     O75810   6.065   4.382   7.145  0.0376  0.4857  0.3722
  550MOL0     C75811   6.280   4.437   7.418  0.3116 -0.1804 -0.2876
  550MOL0     C75812   6.396   4.496   7.452 -0.7509  0.1889  0.1472
  550MOL0     N75813   6.722   4.115   7.276 -0.3629 -0.4000 -1.1812
  550MOL0     N75814   6.629   4.066   7.207  1.1677 -0.4513  0.2789
  550MOL0     C75815   7.015   4.862   6.837  0.7515 -0.4593  0.4088
  550MOL0     C75816   7.019   5.000   6.868  0.0931  0.4298  0.0493
  550MOL0     C75817   6.980   5.464   6.839 -0.4042  0.4827 -0.1197
  550MOL0     C75818   6.993   5.472   6.979  0.2147  0.2448 -0.0357
  550MOL0     C75819   6.994   5.597   7.043  0.1926 -0.3552  0.0936
  550MOL0     C75820   6.983   5.721   6.984  0.5077 -0.2481 -0.0263
  550MOL0     O75821   6.995   5.843   7.046 -0.4672 -0.2491  0.1303
  550MOL0     C75822   7.000   5.856   7.187  0.3676  0.0592  0.7221
  550MOL0     C75823   7.010   6.013   7.204  0.1390 -0.4699 -0.1676
  550MOL0     C75824   7.165   6.055   7.182  0.5286 -0.3847  0.0783
  550MOL0     C75825   7.164   6.204   7.123 -1.0756 -0.0880 -0.5218
  550MOL0     C75826   7.298   6.251   7.128  0.2146  0.2080 -0.2521
  550MOL0     C75827   7.417   6.282   7.135  1.2493  0.0569  0.0596
  550MOL0     C75828   6.976   5.712   6.852  0.1742 -0.2517  0.0332
  550MOL0     C75829   6.979   5.586   6.772 -0.0472 -0.4327 -0.4916
  550MOL0     C75830   6.961   5.601   6.625  0.6160 -0.8929  0.4760
  550MOL0     H75831   6.806   5.124   6.632  0.5942  1.2015 -0.5621
  550MOL0     H75832   6.777   4.901   6.596 -0.6008  0.9703  0.4715
  550MOL0     H75833   6.946   4.681   6.485  1.1385 -2.2767 -0.8955
  550MOL0     H75834   6.785   4.692   6.544 -0.0374  0.2186 -0.2309
  550MOL0     H75835   6.846   4.456   6.473  0.8786 -0.1450  0.4830
  550MOL0     H75836   6.956   4.460   6.609 -1.8087  0.3800  2.9685
  550MOL0     H75837   6.786   4.483   6.778 -3.2905 -4.1784  2.0925
  550MOL0     H75838   6.676   4.550   6.669 -0.2468  0.1729 -3.9841
  550MOL0     H75839   6.643   4.354   6.545 -4.4395  3.2329  1.2350
  550MOL0     H75840   6.740   4.249   6.658  2.0529  2.7389  0.7403
  550MOL0     H75841   6.486   4.238   6.659  4.4393 -1.4600 -3.4161
  550MOL0     H75842   6.489   4.417   6.702 -1.9575 -0.5685 -3.8252
  550MOL0     H75843   6.615   4.183   6.860  1.9358  1.0022  1.7681
  550MOL0     H75844   6.607   4.356   6.910 -1.8127 -0.7699  3.3003
  550MOL0     H75845   6.360   4.203   6.860 -1.5121  0.2963  1.9313
  550MOL0     H75846   6.384   4.336   6.977  0.4111  0.8962  0.6877
  550MOL0     H75847   6.355   4.154   7.113 -0.8544 -2.8664  0.3484
  550MOL0     H75848   6.441   4.049   7.010 -1.1461  1.4006 -3.0430
  550MOL0     H75849   6.599   4.397   7.152 -1.6634  0.3400  2.2079
  550MOL0     H75850   6.803   4.445   7.267 -3.4390  1.0802  2.6087
  550MOL0     H75851   6.922   4.313   7.276 -0.5045  0.5199 -1.6614
  550MOL0     H75852   6.837   4.290   7.525  0.8970  3.2042  3.6573
  550MOL0     H75853   6.907   4.443   7.492 -0.9412 -0.3727  3.4602
  550MOL0     H75854   6.616   4.367   7.452  1.2699 -0.2891  0.2884
  550MOL0     H75855   6.681   4.426   7.610 -1.7725  0.0299  0.4613
  550MOL0     H75856   6.636   4.633   7.567  1.1318  2.0934 -0.0536
  550MOL0     H75857   6.769   4.633   7.455  0.8718 -1.7954  1.9193
  550MOL0     H75858   6.434   4.694   7.186 -0.7382 -0.6990 -2.1790
  550MOL0     H75859   6.235   4.570   6.996  0.3243 -1.9312  0.9234
  550MOL0     H75860   6.251   4.730   7.070  1.2896 -0.2030  2.4265
  550MOL0     H75861   6.100   4.649   7.091 -0.3948 -0.6282  0.6973
  550MOL0     H75862   5.814   4.386   7.149 -2.5391  0.5122 -0.6141
  550MOL0     H75863   5.594   4.316   7.148  0.6826 -0.2614 -0.5018
  550MOL0     H75864   5.395   4.129   7.548 -2.6195  1.0909  1.1941
  550MOL0     H75865   5.420   4.302   7.514 -0.9221  1.2077 -1.1678
  550MOL0     H75866   5.182   4.252   7.531  1.8346 -0.5334  1.8860
  550MOL0     H75867   5.213   4.328   7.389 -3.8535 -0.7292  0.7241
  550MOL0     H75868   5.179   4.015   7.398  2.7027 -0.8099 -3.3109
  550MOL0     H75869   5.187   4.110   7.246 -0.8133  0.8065 -0.6580
  550MOL0     H75870   4.982   4.232   7.312 -1.7465 -0.5480 -0.7729
  550MOL0     H75871   4.975   4.131   7.452  0.3877  1.3130  0.0139
  550MOL0     H75872   5.021   4.002   7.192 -1.8390 -0.0884 -0.8563
  550MOL0     H75873   4.949   3.938   7.338 -0.3535  0.9620  1.3775
  550MOL0     H75874   4.834   4.177   7.181  0.2042 -0.8545  0.0022
  550MOL0     H75875   4.736   4.095   7.310 -1.4613 -0.5130  0.6110
  550MOL0     H75876   4.763   3.890   7.160 -0.9543 -0.3766 -1.2331
  550MOL0     H75877   4.798   3.988   7.028 -0.0692  2.0275 -0.8982
  550MOL0     H75878   4.547   3.983   7.184 -0.2893  2.4212  0.5229
  550MOL0     H75879   4.567   3.967   7.005  3.5055  2.3989 -3.5283
  550MOL0     H75880   5.648   4.159   7.551  1.4715 -2.6498 -1.5404
  550MOL0     H75881   5.855   4.269   7.560 -0.4749 -0.6965 -0.1573
  550MOL0     H75882   6.238   4.368   7.490  0.3231 -1.0733 -1.1168
  550MOL0     H75883   6.446   4.473   7.545  0.7876 -3.1066 -1.3341
  550MOL0     H75884   7.058   4.782   6.895 -3.0839 -1.1411  2.6214
  550MOL0     H75885   7.073   5.032   6.956 -4.0945  1.7164  2.4077
  550MOL0     H75886   7.005   5.379   7.034  3.9217 -1.0823 -2.6352
  550MOL0     H75887   7.014   5.587   7.150  0.1591 -1.2270  0.0262
  550MOL0     H75888   6.906   5.818   7.229  1.6712 -2.6952  1.3960
  550MOL0     H75889   7.083   5.800   7.230 -0.2929 -1.9555 -0.5139
  550MOL0     H75890   6.979   6.048   7.303 -1.5404 -1.8605 -0.1452
  550MOL0     H75891   6.945   6.056   7.127 -1.8296  0.0784  1.6788
  550MOL0     H75892   7.224   6.035   7.272 -1.3365  2.3012  2.0686
  550MOL0     H75893   7.213   5.986   7.113  1.3471 -0.4638  0.7146
  550MOL0     H75894   7.112   6.270   7.193 -1.6338 -1.9903  0.9471
  550MOL0     H75895   7.129   6.223   7.021 -0.1123  0.1580 -0.8207
  550MOL0     H75896   7.521   6.308   7.129  2.3841 -3.4575  1.4267
  550MOL0     H75897   6.976   5.800   6.789  2.1947 -0.8828 -0.9455
  550MOL0     H75898   7.040   5.549   6.570  1.0591  1.6011 -1.4348
  550MOL0     H75899   6.866   5.554   6.598  0.8135 -1.0484  0.0412
  550MOL0     H75900   6.962   5.704   6.587  1.2013 -1.3154 -0.6896
  551MOL0     O75901   5.001   4.768   7.581 -0.3638  0.1550  0.5026
  551MOL0     C75902   4.996   4.712   7.694 -0.2200 -0.2897  0.0961
  551MOL0     O75903   5.115   4.654   7.754 -0.3646 -0.3221 -0.4909
  551MOL0     C75904   5.231   4.644   7.676 -0.2236  0.5604 -0.5972
  551MOL0     C75905   5.355   4.653   7.745  0.6489  0.2179  0.1830
  551MOL0     C75906   5.475   4.645   7.680  0.2472 -0.2120 -0.5189
  551MOL0     C75907   5.474   4.633   7.541  0.4953  0.6162  0.2192
  551MOL0     O75908   5.583   4.640   7.464  0.8080 -0.4103 -0.0217
  551MOL0     C75909   5.675   4.740   7.514  0.6395  0.7038  0.2772
  551MOL0     C75910   5.783   4.764   7.404  0.0711  0.8099  0.5080
  551MOL0     C75911   5.925   4.765   7.458  0.3705  0.6588  0.0355
  551MOL0     C75912   6.015   4.811   7.344 -0.1616 -0.2106  0.1657
  551MOL0     C75913   6.151   4.818   7.388 -0.0873 -0.4939  0.0522
  551MOL0     C75914   6.188   4.932   7.480 -0.3902  0.1696  0.3541
  551MOL0     C75915   6.343   4.966   7.482 -0.3174 -0.0290  0.0498
  551MOL0     C75916   6.402   5.006   7.350  0.1112  0.8774 -1.1614
  551MOL0     N75917   6.326   5.100   7.278  0.0879 -0.1307  0.8221
  551MOL0     C75918   6.291   5.104   7.143  0.6162  0.6416  0.6400
  551MOL0     C75919   6.230   5.222   7.122 -0.6231  0.0867  0.6432
  551MOL0     C75920   6.178   5.274   6.989  0.3289 -0.5038 -0.3429
  551MOL0     C75921   6.037   5.212   6.961  0.4126 -0.1252 -1.4708
  551MOL0     C75922   5.935   5.280   7.060  0.5077 -0.5661  0.9801
  551MOL0     C75923   5.794   5.230   7.039  0.2074  1.3047 -0.0378
  551MOL0     O75924   5.757   5.278   6.905 -0.6760 -0.1542  0.2371
  551MOL0     C75925   5.678   5.200   6.819 -0.5735 -0.1295 -1.0484
  551MOL0     C75926   5.707   5.075   6.765  0.0040 -0.8136 -0.2251
  551MOL0     C75927   5.615   5.022   6.674 -0.5433  0.0175  0.0110
  551MOL0     C75928   5.641   4.883   6.611  0.3573  0.1583 -0.0984
  551MOL0     C75929   5.495   5.094   6.649  0.1827 -0.0286 -0.0709
  551MOL0     C75930   5.383   5.047   6.557 -0.8965  0.5447 -0.0251
  551MOL0     O75931   5.255   5.093   6.575 -0.0536  0.4045 -0.1496
  551MOL0     C75932   5.155   5.074   6.491  0.5302  0.1679  0.6516
  551MOL0     C75933   5.135   4.951   6.436  0.2463  0.3600  0.1106
  551MOL0     C75934   5.024   4.928   6.346 -0.9090 -0.9151  0.6535
  551MOL0     C75935   4.946   5.032   6.302 -0.5091 -0.7903 -0.3110
  551MOL0     O75936   4.847   5.004   6.215  0.4540  0.6646 -0.6771
  551MOL0     C75937   4.752   5.105   6.173  0.0134  0.4483 -0.3005
  551MOL0     C75938   4.631   5.044   6.099 -0.4918  0.0071  0.3167
  551MOL0     C75939   4.532   5.148   6.042 -0.1724  0.3063 -0.2764
  551MOL0     C75940   4.396   5.088   6.008  0.4249  0.3836 -0.3032
  551MOL0     C75941   4.309   5.205   5.952  0.2992  0.0814 -0.3649
  551MOL0     C75942   4.258   5.306   6.058  0.1052  0.3974  0.2829
  551MOL0     C75943   4.134   5.386   6.013  0.6393 -0.2272  0.0758
  551MOL0     C75944   4.107   5.514   6.097 -1.4354  0.4609 -0.2249
  551MOL0    Cl75945   3.941   5.569   6.035 -0.1377  0.1354  0.0939
  551MOL0     C75946   4.975   5.168   6.352 -0.1309  1.0854 -0.7014
  551MOL0     C75947   5.084   5.189   6.442  0.1735 -0.6336  0.6874
  551MOL0     O75948   5.419   4.989   6.452  0.4096 -0.0462  0.3606
  551MOL0     C75949   5.472   5.217   6.703  0.0929 -1.0067 -0.0166
  551MOL0     C75950   5.562   5.272   6.791  0.2521 -0.1121  0.4956
  551MOL0     N75951   6.216   5.281   7.241 -0.0440  0.3327  0.3305
  551MOL0     N75952   6.275   5.212   7.331 -0.6277  0.2593 -0.0965
  551MOL0     C75953   5.357   4.631   7.469 -0.1224  0.5488  0.5549
  551MOL0     C75954   5.236   4.621   7.537 -0.7405  0.4400 -0.5931
  551MOL0     C75955   4.875   4.720   7.768  0.7181  0.1694  0.1908
  551MOL0     C75956   4.750   4.747   7.705 -0.4056 -0.4566  0.3141
  551MOL0     C75957   4.633   4.753   7.787 -0.7705 -0.1655  0.0655
  551MOL0     C75958   4.630   4.742   7.924 -0.7154  0.2709 -0.6437
  551MOL0     O75959   4.513   4.754   7.991  0.3838 -0.6986 -0.2199
  551MOL0     C75960   4.502   4.749   8.137  0.3514  1.0935  0.1679
  551MOL0     C75961   4.538   4.877   8.201  1.0056 -0.0894 -0.4168
  551MOL0     C75962   4.452   4.993   8.155 -0.0480  0.0044  0.3458
  551MOL0     C75963   4.329   5.006   8.228 -0.1568 -1.5539 -0.3483
  551MOL0     C75964   4.233   5.112   8.182 -0.1095 -0.0687  0.5280
  551MOL0     C75965   4.165   5.201   8.133  1.1622  0.5572 -0.0486
  551MOL0     C75966   4.753   4.706   7.979  0.1800 -0.0630 -0.0986
  551MOL0     C75967   4.872   4.677   7.908 -0.7877  0.0732  0.3422
  551MOL0     C75968   4.989   4.634   7.993  0.0379 -0.1464  0.6829
  551MOL0     H75969   5.327   4.675   7.848 -1.1622  0.3241 -0.2896
  551MOL0     H75970   5.574   4.640   7.723  0.6127  2.4316 -0.8563
  551MOL0     H75971   5.728   4.698   7.599  3.0637 -2.5265 -2.5328
  551MOL0     H75972   5.621   4.831   7.543  0.0355  1.2731 -2.3465
  551MOL0     H75973   5.772   4.685   7.329 -1.9052  0.9127  0.6278
  551MOL0     H75974   5.755   4.856   7.352 -3.2113 -0.0329  0.5963
  551MOL0     H75975   5.938   4.835   7.541 -0.1362 -0.1308  0.8017
  551MOL0     H75976   5.953   4.662   7.483  0.5089  0.9899  1.3070
  551MOL0     H75977   6.008   4.732   7.268  0.9839 -1.3994  1.2480
  551MOL0     H75978   5.985   4.908   7.304  2.3242 -0.7501 -3.4544
  551MOL0     H75979   6.210   4.830   7.296 -0.7407  1.1776 -0.1723
  551MOL0     H75980   6.168   4.721   7.435  0.9855 -0.0474  0.6090
  551MOL0     H75981   6.137   5.024   7.451  2.2341  1.3420 -0.8378
  551MOL0     H75982   6.152   4.917   7.583  2.0477  1.0259  1.4021
  551MOL0     H75983   6.403   4.888   7.529  1.8704  1.8651  0.5902
  551MOL0     H75984   6.361   5.049   7.551  1.1290 -0.6122  0.4138
  551MOL0     H75985   6.500   5.047   7.376  0.1693  1.4344 -2.1867
  551MOL0     H75986   6.432   4.928   7.279 -0.1812 -1.6690  1.3555
  551MOL0     H75987   6.309   5.018   7.079  0.5894 -0.0059  1.4830
  551MOL0     H75988   6.243   5.237   6.909 -1.2951 -4.8963  0.0864
  551MOL0     H75989   6.174   5.382   7.001  0.3682 -0.6576  1.1688
  551MOL0     H75990   6.004   5.224   6.858 -1.6483 -0.3891 -0.8841
  551MOL0     H75991   6.040   5.108   6.997 -3.2779  0.6874  1.8352
  551MOL0     H75992   5.970   5.262   7.162  3.1746 -3.7043 -0.2859
  551MOL0     H75993   5.928   5.388   7.040 -2.4871 -1.2373 -2.6083
  551MOL0     H75994   5.795   5.121   7.040  2.0137  1.2651 -1.2832
  551MOL0     H75995   5.728   5.274   7.114 -1.5432 -0.8031 -0.2357
  551MOL0     H75996   5.803   5.036   6.797  1.1717  2.0679  0.0644
  551MOL0     H75997   5.559   4.812   6.626  1.0713 -1.2732 -2.4468
  551MOL0     H75998   5.718   4.834   6.671 -1.4640 -0.6386  1.6987
  551MOL0     H75999   5.665   4.894   6.505  1.4837 -2.7602 -0.2213
  551MOL0     H76000   5.189   4.863   6.469 -1.3395 -1.6945 -2.3245
  551MOL0     H76001   4.988   4.836   6.301 -2.7439  0.3300 -0.5948
  551MOL0     H76002   4.715   5.175   6.249  0.8630  0.0325  0.5241
  551MOL0     H76003   4.817   5.158   6.102  0.0299 -0.2072 -0.7844
  551MOL0     H76004   4.668   4.985   6.015 -1.6891  1.2554 -1.1511
  551MOL0     H76005   4.577   4.982   6.171  0.5406 -0.3126  0.8280
  551MOL0     H76006   4.564   5.196   5.949  0.1281 -2.7216 -1.8562
  551MOL0     H76007   4.514   5.230   6.112  0.2239  0.2657 -0.1260
  551MOL0     H76008   4.339   5.031   6.082  1.3471 -1.0021 -0.6218
  551MOL0     H76009   4.408   5.005   5.937 -0.3292 -3.8903  4.0066
  551MOL0     H76010   4.352   5.258   5.867 -1.1293  2.8925  0.5576
  551MOL0     H76011   4.216   5.155   5.923 -0.1774  0.5167  0.3804
  551MOL0     H76012   4.333   5.376   6.095  1.4525 -0.7882 -0.1090
  551MOL0     H76013   4.218   5.239   6.134 -2.7415  0.8137 -0.6921
  551MOL0     H76014   4.047   5.321   6.029  0.6910 -0.4913 -0.6676
  551MOL0     H76015   4.150   5.416   5.909  1.1166  1.9879  0.7210
  551MOL0     H76016   4.177   5.594   6.075 -1.0073  0.0615 -0.3226
  551MOL0     H76017   4.101   5.490   6.204  0.9489 -0.5794 -0.2628
  551MOL0     H76018   4.920   5.249   6.306  2.8097  2.4877 -2.0150
  551MOL0     H76019   5.100   5.290   6.478  0.3597 -1.3216  2.6464
  551MOL0     H76020   5.373   5.259   6.689  0.0689 -1.3171 -0.8304
  551MOL0     H76021   5.532   5.359   6.850  4.7902  2.1255 -0.0485
  551MOL0     H76022   5.364   4.610   7.363  2.5185 -4.3239  1.3882
  551MOL0     H76023   5.147   4.584   7.486 -2.8307 -0.9029  3.5507
  551MOL0     H76024   4.745   4.764   7.598  2.1585  2.5391  0.5164
  551MOL0     H76025   4.536   4.775   7.744 -0.2081  2.5728 -0.0115
  551MOL0     H76026   4.394   4.737   8.151  0.2718  0.9513 -0.5394
  551MOL0     H76027   4.549   4.660   8.181 -0.6112  0.9402  0.9301
  551MOL0     H76028   4.641   4.906   8.176  2.0936 -1.9867  1.5778
  551MOL0     H76029   4.528   4.858   8.308 -0.7828 -2.8753 -0.9730
  551MOL0     H76030   4.506   5.087   8.175 -0.9335  1.4651 -3.3856
  551MOL0     H76031   4.432   4.992   8.048  3.0096 -2.4111 -0.3232
  551MOL0     H76032   4.356   5.033   8.330 -0.9011 -0.4794 -0.4122
  551MOL0     H76033   4.285   4.906   8.226  1.2765 -2.2409  0.8401
  551MOL0     H76034   4.098   5.264   8.079 -2.7864 -2.4047  0.9522
  551MOL0     H76035   4.747   4.681   8.085 -2.6991 -2.2095 -0.6232
  551MOL0     H76036   5.054   4.722   7.991 -1.4701  1.0308  1.1191
  551MOL0     H76037   4.968   4.621   8.099  2.2322  0.7809  1.2847
  551MOL0     H76038   5.031   4.543   7.949 -2.0243 -0.1418 -1.5511
  552MOL0     O76039   6.722   1.173   9.905  0.6699  0.0474  0.2200
  552MOL0     C76040   6.653   1.069   9.912 -0.7143 -0.1465  0.0721
  552MOL0     O76041   6.575   1.019   9.812  0.3116 -1.0194  0.5019
  552MOL0     C76042   6.574   1.105   9.695 -0.6923 -0.2054 -0.7732
  552MOL0     C76043   6.492   1.218   9.687  0.2305 -0.1824  0.2964
  552MOL0     C76044   6.489   1.303   9.580 -0.8156  0.5540  1.4053
  552MOL0     C76045   6.551   1.265   9.462 -0.7789 -1.2148 -0.2688
  552MOL0     O76046   6.547   1.328   9.340  0.6580  0.1669  0.4721
  552MOL0     C76047   6.420   1.374   9.293  0.3980  0.0803 -0.6825
  552MOL0     C76048   6.418   1.381   9.137  0.5834 -0.1681  0.3165
  552MOL0     C76049   6.525   1.471   9.083 -0.5473 -0.5660  0.5476
  552MOL0     C76050   6.524   1.478   8.930 -0.4641 -0.5305  0.3165
  552MOL0     C76051   6.645   1.542   8.860  0.2554 -0.5636 -0.4666
  552MOL0     C76052   6.675   1.683   8.916  0.3416 -0.5377  0.1554
  552MOL0     C76053   6.571   1.799   8.934  0.1440 -0.3235  0.5103
  552MOL0     C76054   6.609   1.899   9.045 -0.2639  0.3251  0.4105
  552MOL0     N76055   6.561   1.860   9.181  0.3713 -0.0507 -0.2296
  552MOL0     C76056   6.631   1.799   9.279 -0.1899 -0.2126  0.8219
  552MOL0     C76057   6.549   1.783   9.385 -0.1438  0.0254 -0.1233
  552MOL0     C76058   6.571   1.695   9.502 -0.0646 -0.1373  0.3828
  552MOL0     C76059   6.676   1.752   9.603  0.5134  0.4589  0.0423
  552MOL0     C76060   6.686   1.681   9.739  0.0904  0.2476  0.2639
  552MOL0     C76061   6.746   1.540   9.736  0.0924  0.0143 -0.3008
  552MOL0     O76062   6.873   1.556   9.675  0.1432  0.3186  0.6392
  552MOL0     C76063   6.955   1.462   9.630 -0.5464  0.1012 -0.1705
  552MOL0     C76064   7.076   1.500   9.554 -0.8173  0.7529  0.3599
  552MOL0     C76065   7.166   1.399   9.515  0.5351 -0.9769  0.1782
  552MOL0     C76066   7.289   1.446   9.443 -0.4289  0.2613  0.4707
  552MOL0     C76067   7.139   1.260   9.548  0.1045  0.0307  0.8080
  552MOL0     C76068   7.237   1.150   9.520 -0.1351 -0.1392  0.1507
  552MOL0     O76069   7.184   1.032   9.486  0.2372  0.4827  0.8213
  552MOL0     C76070   7.275   0.930   9.452 -0.1542 -0.0847  0.4972
  552MOL0     C76071   7.341   0.953   9.330  0.6117  0.2343 -0.2036
  552MOL0     C76072   7.445   0.869   9.294 -0.0294 -0.2123 -0.1832
  552MOL0     C76073   7.475   0.757   9.375  0.6164  0.3154  0.4331
  552MOL0     O76074   7.564   0.669   9.327 -1.0621  0.0391 -0.1277
  552MOL0     C76075   7.663   0.607   9.417  0.4200  1.1771 -0.7146
  552MOL0     C76076   7.779   0.702   9.394  0.1919 -0.5789  0.2327
  552MOL0     C76077   7.883   0.710   9.513  0.1965 -0.8105 -0.1475
  552MOL0     C76078   7.868   0.843   9.599 -0.3050  0.3408 -0.1010
  552MOL0     C76079   7.743   0.862   9.677  0.3572 -0.0356  0.3854
  552MOL0     C76080   7.745   0.775   9.800  0.2171  0.7716  0.2682
  552MOL0     C76081   7.624   0.793   9.887 -0.2144 -0.4615 -0.1567
  552MOL0     C76082   7.637   0.713  10.027 -0.2105  0.3367  0.7794
  552MOL0    Cl76083   7.482   0.715  10.103 -0.1393  0.9487  0.0331
  552MOL0     C76084   7.389   0.721   9.480 -0.7292 -0.3710 -0.8279
  552MOL0     C76085   7.298   0.815   9.530 -0.2340  0.7428 -0.1697
  552MOL0     O76086   7.355   1.174   9.524  1.1684 -0.1025  0.2895
  552MOL0     C76087   7.026   1.238   9.612  0.2102 -0.1120 -0.0314
  552MOL0     C76088   6.938   1.326   9.659  0.2750 -0.5583  0.1831
  552MOL0     N76089   6.426   1.834   9.350  0.4982  0.3015  0.6660
  552MOL0     N76090   6.435   1.880   9.228  0.1743 -0.1185  0.1431
  552MOL0     C76091   6.618   1.137   9.467  0.0853 -0.4076 -0.1701
  552MOL0     C76092   6.632   1.061   9.578 -1.0557 -1.8734 -0.8554
  552MOL0     C76093   6.662   0.976  10.030 -0.1809 -0.9368  0.9340
  552MOL0     C76094   6.611   0.846  10.010 -1.1754 -0.1147 -0.5162
  552MOL0     C76095   6.612   0.751  10.120  0.6129  0.5872 -0.0632
  552MOL0     C76096   6.657   0.796  10.247 -0.1890 -0.3707  0.4773
  552MOL0     O76097   6.656   0.723  10.356  0.4762  0.2691  0.9154
  552MOL0     C76098   6.552   0.617  10.366 -0.4814 -0.0419  0.1824
  552MOL0     C76099   6.523   0.593  10.515 -0.0692 -0.7572  0.2111
  552MOL0     C76100   6.432   0.473  10.527 -0.3841  0.6187  0.1269
  552MOL0     C76101   6.397   0.436  10.667  0.6344 -0.1147  0.1520
  552MOL0     C76102   6.511   0.413  10.754  0.9156  0.3934 -0.4385
  552MOL0     C76103   6.607   0.389  10.829  0.0592  0.0199  0.1129
  552MOL0     C76104   6.690   0.924  10.266  0.5993 -0.6413  0.1592
  552MOL0     C76105   6.705   1.017  10.161  0.6111  0.1327  1.0405
  552MOL0     C76106   6.770   1.155  10.198  0.3920  0.2926  0.2826
  552MOL0     H76107   6.424   1.236   9.769 -1.7714 -0.6792 -1.1612
  552MOL0     H76108   6.420   1.387   9.576  0.1518  1.6528  4.9258
  552MOL0     H76109   6.406   1.474   9.335  0.9218  0.4608 -1.3961
  552MOL0     H76110   6.333   1.315   9.322  0.8555  0.5246  1.8456
  552MOL0     H76111   6.430   1.280   9.099 -0.1206 -0.3372  0.5249
  552MOL0     H76112   6.322   1.420   9.102  0.1298 -1.8942 -0.4199
  552MOL0     H76113   6.501   1.574   9.112  0.8114  0.3066 -1.2432
  552MOL0     H76114   6.623   1.436   9.116  1.4779  1.5953 -2.6802
  552MOL0     H76115   6.526   1.377   8.889 -1.7931 -0.3852 -0.1417
  552MOL0     H76116   6.443   1.539   8.890  1.2264  0.9684 -1.0272
  552MOL0     H76117   6.630   1.543   8.752 -1.8652 -0.1232 -0.2058
  552MOL0     H76118   6.743   1.496   8.873  0.7950  0.5921 -0.2913
  552MOL0     H76119   6.716   1.668   9.016  0.3802  0.5456  0.3078
  552MOL0     H76120   6.752   1.729   8.853 -1.3110  1.3753 -0.5835
  552MOL0     H76121   6.472   1.762   8.962  0.6491 -3.2575 -1.1716
  552MOL0     H76122   6.573   1.850   8.837  0.1765 -1.2103  0.0343
  552MOL0     H76123   6.716   1.921   9.049  0.1722 -1.5296  0.0298
  552MOL0     H76124   6.547   1.984   9.016 -0.2800 -0.1630 -1.0505
  552MOL0     H76125   6.734   1.765   9.268 -0.6983 -2.2840  1.9349
  552MOL0     H76126   6.615   1.599   9.474  0.0198 -0.7376  2.3882
  552MOL0     H76127   6.477   1.677   9.554 -0.8930  0.3288 -0.9111
  552MOL0     H76128   6.775   1.754   9.556  1.2500  0.7851  1.5428
  552MOL0     H76129   6.637   1.850   9.631 -3.0650 -0.4317 -1.2970
  552MOL0     H76130   6.739   1.747   9.808 -1.7370  1.2823  0.7224
  552MOL0     H76131   6.587   1.673   9.784 -0.5515  2.7286 -0.5686
  552MOL0     H76132   6.763   1.505   9.838 -0.9244 -2.3145 -0.8897
  552MOL0     H76133   6.686   1.476   9.671  3.9953 -0.0724 -4.2904
  552MOL0     H76134   7.091   1.606   9.533  0.5755  1.1101  2.7638
  552MOL0     H76135   7.381   1.425   9.497 -0.6991 -2.5046 -0.0091
  552MOL0     H76136   7.298   1.555   9.429  1.9320 -0.0474 -0.9397
  552MOL0     H76137   7.294   1.418   9.337  0.2555  1.2012  0.2388
  552MOL0     H76138   7.323   1.043   9.271 -0.9429  0.8897  1.1699
  552MOL0     H76139   7.519   0.896   9.220  2.9957 -0.3227  2.5702
  552MOL0     H76140   7.638   0.604   9.524 -1.1800  4.5088 -0.8821
  552MOL0     H76141   7.691   0.505   9.389 -2.1406  0.2046 -0.0120
  552MOL0     H76142   7.842   0.660   9.315  0.7276  1.4418 -0.4582
  552MOL0     H76143   7.736   0.798   9.367 -0.9688 -1.2312 -0.3079
  552MOL0     H76144   7.986   0.727   9.481 -0.6128  3.0771 -1.2247
  552MOL0     H76145   7.874   0.626   9.583  1.4455  0.2734  1.3956
  552MOL0     H76146   7.863   0.928   9.530 -3.3442  1.5164  1.3619
  552MOL0     H76147   7.954   0.843   9.667  0.7482 -0.2200 -1.3977
  552MOL0     H76148   7.738   0.967   9.707  2.2054 -0.0464  0.8409
  552MOL0     H76149   7.658   0.836   9.614  0.6854  0.2289 -0.1707
  552MOL0     H76150   7.833   0.793   9.864  0.0855  1.5484  0.2450
  552MOL0     H76151   7.744   0.673   9.761 -1.1275  1.2972 -1.1598
  552MOL0     H76152   7.542   0.757   9.823  0.7189 -2.9573 -0.0684
  552MOL0     H76153   7.609   0.896   9.921 -4.0985 -1.4437  1.6262
  552MOL0     H76154   7.707   0.759  10.098 -0.3245  0.5130  0.7762
  552MOL0     H76155   7.671   0.611  10.009 -1.2502 -0.1712  1.6388
  552MOL0     H76156   7.409   0.628   9.533  1.8062  0.0083 -0.9940
  552MOL0     H76157   7.239   0.794   9.619  1.7741 -2.3289  0.6016
  552MOL0     H76158   6.994   1.140   9.646 -1.0792  0.9323  2.0351
  552MOL0     H76159   6.846   1.284   9.699 -0.3396 -1.6194 -2.1782
  552MOL0     H76160   6.661   1.091   9.379  2.2020 -2.1293  1.6315
  552MOL0     H76161   6.684   0.966   9.587 -0.7709 -1.4948  3.3901
  552MOL0     H76162   6.581   0.817   9.910  0.0991  1.2895 -1.3618
  552MOL0     H76163   6.569   0.652  10.107  3.6512 -0.6748 -1.5229
  552MOL0     H76164   6.461   0.654  10.318 -0.3878  0.1660  0.1612
  552MOL0     H76165   6.584   0.526  10.315 -0.1422  0.5455 -0.6785
  552MOL0     H76166   6.483   0.687  10.555 -3.9880 -0.6020 -3.3401
  552MOL0     H76167   6.618   0.570  10.564 -0.2706  0.6451  1.3470
  552MOL0     H76168   6.334   0.477  10.478 -0.3148  2.3342  0.0723
  552MOL0     H76169   6.480   0.382  10.489  0.2981  0.1922  1.9068
  552MOL0     H76170   6.330   0.349  10.666 -2.5714  2.1392 -2.2493
  552MOL0     H76171   6.333   0.514  10.709  0.5232  1.7062 -3.0831
  552MOL0     H76172   6.706   0.367  10.863 -0.7265 -1.8731  1.3478
  552MOL0     H76173   6.721   0.967  10.361 -1.1310 -0.1085  0.5220
  552MOL0     H76174   6.697   1.230  10.229  2.7180  1.3365  3.9112
  552MOL0     H76175   6.832   1.132  10.285 -1.4956 -2.8014  0.9345
  552MOL0     H76176   6.835   1.194  10.119 -1.0475  1.3774 -0.4038
  553MOL0     O76177   6.879  10.493   3.606  0.4621 -0.5046 -0.3213
  553MOL0     C76178   6.867  10.610   3.559 -0.0642 -0.0505  0.5915
  553MOL0     O76179   6.799  10.638   3.439  0.4850  0.1407 -1.5091
  553MOL0     C76180   6.746  10.532   3.367  0.7471 -0.6378  0.2880
  553MOL0     C76181   6.808  10.420   3.318  0.0412  0.2949 -0.3998
  553MOL0     C76182   6.733  10.318   3.261 -0.2209  0.6137  0.2622
  553MOL0     C76183   6.592  10.320   3.250  0.9696  0.3815 -0.9245
  553MOL0     O76184   6.503  10.226   3.207 -0.9044  0.2419  0.6208
  553MOL0     C76185   6.551  10.097   3.236 -0.1503 -0.2502 -0.9615
  553MOL0     C76186   6.460   9.979   3.197 -0.1721  0.2223 -1.0441
  553MOL0     C76187   6.439   9.987   3.042  0.2032  0.6038  0.6224
  553MOL0     C76188   6.350   9.876   2.995 -0.4348 -0.6882  0.2207
  553MOL0     C76189   6.306   9.905   2.853 -0.2655 -1.3938 -0.4333
  553MOL0     C76190   6.226   9.791   2.797  0.9729  0.7129  1.0814
  553MOL0     C76191   6.237   9.777   2.641 -0.0530  0.4824  0.1920
  553MOL0     C76192   6.161   9.652   2.593  0.3636  0.5734  0.5030
  553MOL0     N76193   6.160   9.645   2.449 -0.4766 -0.0254  0.2963
  553MOL0     C76194   6.083   9.554   2.386  0.3601 -0.4222  0.5516
  553MOL0     C76195   6.103   9.589   2.251 -0.1796  0.3187  0.1782
  553MOL0     C76196   6.041   9.519   2.137  0.5920  0.6247 -0.5389
  553MOL0     C76197   6.116   9.553   2.010 -0.2472 -0.7099 -0.7646
  553MOL0     C76198   6.071   9.464   1.887  0.6811 -0.0076  0.4556
  553MOL0     C76199   6.165   9.485   1.776  0.4114  0.1803 -1.0326
  553MOL0     O76200   6.096   9.535   1.667  0.0375 -0.2441 -0.4649
  553MOL0     C76201   6.183   9.586   1.578 -0.1749  0.7546  0.2408
  553MOL0     C76202   6.230   9.715   1.599 -0.9329 -0.1206 -0.5999
  553MOL0     C76203   6.298   9.786   1.499  0.3086  0.1797  0.0808
  553MOL0     C76204   6.356   9.920   1.526 -0.4247 -1.1731  0.1218
  553MOL0     C76205   6.324   9.714   1.371 -0.3447  0.1853  0.1753
  553MOL0     C76206   6.393   9.767   1.258 -0.3329 -0.4395  1.1631
  553MOL0     O76207   6.451   9.687   1.156  0.3586  0.3953 -0.5818
  553MOL0     C76208   6.549   9.713   1.081 -0.3044 -0.3727 -0.9711
  553MOL0     C76209   6.564   9.644   0.960 -0.4143 -0.3501 -0.4896
  553MOL0     C76210   6.692   9.645   0.892 -0.1323  0.0920 -0.0745
  553MOL0     C76211   6.802   9.712   0.951  0.4537  0.5150  0.4988
  553MOL0     O76212   6.921   9.687   0.881 -0.0149  0.2279  0.3634
  553MOL0     C76213   7.035   9.760   0.915  0.1762  0.4115  0.5344
  553MOL0     C76214   7.027   9.907   0.867  0.2452 -0.1805  0.3954
  553MOL0     C76215   7.005   9.938   0.720  0.1577 -0.2286  0.2884
  553MOL0     C76216   7.026  10.087   0.684  0.0898 -1.1041 -0.1936
  553MOL0     C76217   6.917  10.189   0.741  0.1931 -0.1745  0.5229
  553MOL0     C76218   6.983  10.326   0.743 -0.9390 -0.1621 -0.8713
  553MOL0     C76219   6.908  10.429   0.820  0.3215 -0.0343 -0.1018
  553MOL0     C76220   6.932  10.410   0.971 -0.6031 -0.1684 -0.2316
  553MOL0    Cl76221   7.105  10.460   1.018  0.2636 -0.1669 -0.5614
  553MOL0     C76222   6.781   9.796   1.062 -1.3820  0.1826  0.1977
  553MOL0     C76223   6.660   9.785   1.135  0.0068 -0.3386  0.0461
  553MOL0     O76224   6.386   9.887   1.237 -0.4986  0.1883 -0.2744
  553MOL0     C76225   6.286   9.583   1.366  0.6373  0.7179  0.5141
  553MOL0     C76226   6.214   9.521   1.459 -0.1345  0.6931 -0.6020
  553MOL0     N76227   6.182   9.700   2.246 -0.7928 -0.1067 -0.2516
  553MOL0     N76228   6.231   9.726   2.365  0.2370  0.6466  0.5073
  553MOL0     C76229   6.531  10.446   3.274  0.0059 -0.5865  0.3560
  553MOL0     C76230   6.606  10.552   3.337  1.0443  0.1334  0.1888
  553MOL0     C76231   6.925  10.725   3.636  0.2770 -0.0023  0.8439
  553MOL0     C76232   6.937  10.844   3.571 -1.1342 -0.4706  0.2536
  553MOL0     C76233   6.996  10.956   3.634  0.7146 -0.5339  0.2611
  553MOL0     C76234   7.019  10.948   3.769 -0.2048 -1.2558  0.1243
  553MOL0     O76235   7.062  11.058   3.836 -0.7314  0.4194 -0.0078
  553MOL0     C76236   7.161  11.148   3.788  0.2825  0.4165  0.9523
  553MOL0     C76237   7.168  11.271   3.878  0.5784 -0.2492  0.2224
  553MOL0     C76238   7.033  11.355   3.871 -1.0954 -0.1942  0.7539
  553MOL0     C76239   7.048  11.500   3.911  0.1453 -0.6172  0.9514
  553MOL0     C76240   6.911  11.553   3.927  0.4265 -0.3012 -0.1642
  553MOL0     C76241   6.791  11.575   3.939  0.4276  0.7904 -0.4203
  553MOL0     C76242   6.996  10.835   3.837 -0.3105 -0.6927  0.2066
  553MOL0     C76243   6.952  10.718   3.773 -0.0232  0.1091  1.0079
  553MOL0     C76244   6.915  10.603   3.864 -0.9710  0.3994 -0.0594
  553MOL0     H76245   6.913  10.397   3.335 -0.1473 -1.4309 -1.3900
  553MOL0     H76246   6.795  10.236   3.226 -0.4781  0.0284  1.1486
  553MOL0     H76247   6.566  10.095   3.345  2.8878  0.6242 -1.2625
  553MOL0     H76248   6.650  10.070   3.198 -0.0185 -0.7062 -0.3177
  553MOL0     H76249   6.503   9.881   3.218 -1.7712 -0.3111 -0.0382
  553MOL0     H76250   6.364   9.994   3.247 -1.7295  0.1458 -3.7889
  553MOL0     H76251   6.393  10.083   3.017  0.0202  0.4887  0.5207
  553MOL0     H76252   6.538   9.982   2.997 -0.1882 -3.7126 -0.2663
  553MOL0     H76253   6.410   9.784   2.997 -1.1448 -1.1857 -0.7378
  553MOL0     H76254   6.258   9.880   3.055 -1.4777  1.8109 -1.3882
  553MOL0     H76255   6.396   9.926   2.796 -2.0394 -0.4842 -3.0882
  553MOL0     H76256   6.249   9.999   2.859  0.8235 -0.4385 -3.5120
  553MOL0     H76257   6.268   9.701   2.843  2.0014  0.5139 -0.1762
  553MOL0     H76258   6.120   9.809   2.816  1.1357 -0.8163  3.9166
  553MOL0     H76259   6.333   9.808   2.599  0.4112  1.6440  2.0025
  553MOL0     H76260   6.171   9.855   2.602 -1.0469  0.4246  1.6785
  553MOL0     H76261   6.218   9.564   2.625 -0.7116 -0.7811 -1.2082
  553MOL0     H76262   6.062   9.662   2.638 -0.1845 -0.2854 -0.4814
  553MOL0     H76263   6.029   9.476   2.439 -0.8712  0.5651  0.7715
  553MOL0     H76264   5.935   9.545   2.137  0.2437 -0.5135  1.7539
  553MOL0     H76265   6.037   9.410   2.146  0.0445  0.6043 -1.0145
  553MOL0     H76266   6.097   9.657   1.983 -2.9011 -0.8735  0.2222
  553MOL0     H76267   6.223   9.534   2.028 -0.0539  1.6942  1.1285
  553MOL0     H76268   6.059   9.355   1.899  0.7836 -0.0234  0.4154
  553MOL0     H76269   5.974   9.497   1.849  1.5831  0.6483 -1.3880
  553MOL0     H76270   6.246   9.549   1.811  1.3779 -1.2333 -0.5969
  553MOL0     H76271   6.225   9.398   1.745  2.1275  0.6658  0.7074
  553MOL0     H76272   6.209   9.765   1.693 -1.4815 -1.3132 -0.0726
  553MOL0     H76273   6.278   9.994   1.503 -0.4739 -0.5149  2.2114
  553MOL0     H76274   6.449   9.925   1.469 -1.4561 -0.4175 -1.6010
  553MOL0     H76275   6.381   9.941   1.630  0.5322  0.7278 -0.4463
  553MOL0     H76276   6.484   9.578   0.929 -0.2901 -1.1587  0.8152
  553MOL0     H76277   6.705   9.586   0.802  0.4671  3.1352 -2.1418
  553MOL0     H76278   7.049   9.758   1.023 -2.3195  1.9077  0.9679
  553MOL0     H76279   7.123   9.722   0.862 -0.0833 -1.3611  1.2849
  553MOL0     H76280   6.942   9.951   0.920  0.1186  0.9518 -0.6917
  553MOL0     H76281   7.115   9.967   0.893 -0.2555  0.2836  1.0771
  553MOL0     H76282   6.915   9.896   0.674  0.0550  0.1151  0.1701
  553MOL0     H76283   7.091   9.897   0.666  0.7455  1.7223 -0.3477
  553MOL0     H76284   7.019  10.093   0.575 -1.6071  0.0218 -0.0482
  553MOL0     H76285   7.125  10.120   0.717  0.6000 -0.7719 -1.9776
  553MOL0     H76286   6.828  10.183   0.678  2.1892  1.6943 -2.7398
  553MOL0     H76287   6.886  10.168   0.844  1.7494 -0.9931  0.8469
  553MOL0     H76288   7.005  10.351   0.638 -0.6702 -2.3657 -1.4001
  553MOL0     H76289   7.077  10.315   0.797 -2.6756 -1.9775  2.0549
  553MOL0     H76290   6.802  10.413   0.800  0.4169 -1.0903  0.1601
  553MOL0     H76291   6.926  10.531   0.786 -2.2823  0.0931 -1.3531
  553MOL0     H76292   6.918  10.307   1.007  3.4672 -0.3246  1.4289
  553MOL0     H76293   6.851  10.465   1.019 -0.2316  0.8724 -0.7577
  553MOL0     H76294   6.863   9.849   1.110 -1.5433  0.0807  0.5943
  553MOL0     H76295   6.660   9.832   1.233  0.2326 -1.4415  0.5997
  553MOL0     H76296   6.321   9.536   1.274  3.0404  2.3503  0.4981
  553MOL0     H76297   6.185   9.418   1.443 -1.4482  0.2718  3.3879
  553MOL0     H76298   6.423  10.452   3.271 -0.3831 -4.5851  0.5065
  553MOL0     H76299   6.549  10.637   3.371  2.9550  1.1168  1.0914
  553MOL0     H76300   6.915  10.850   3.465  1.1237  3.2891 -0.1847
  553MOL0     H76301   7.019  11.052   3.589  1.0334 -0.2183  1.0714
  553MOL0     H76302   7.256  11.096   3.806  0.7782  0.9438 -0.0635
  553MOL0     H76303   7.137  11.181   3.687  0.1181 -1.7256  0.2425
  553MOL0     H76304   7.254  11.327   3.840  1.5140 -3.8209 -3.7618
  553MOL0     H76305   7.190  11.251   3.983  0.6523  1.4050  0.5460
  553MOL0     H76306   6.981  11.368   3.776  1.4020 -0.9783 -0.7977
  553MOL0     H76307   6.965  11.300   3.937 -2.1395  1.2717  0.9513
  553MOL0     H76308   7.093  11.554   3.828 -0.8482  1.7080  1.8419
  553MOL0     H76309   7.108  11.509   4.003  5.1965 -1.1932 -1.9137
  553MOL0     H76310   6.688  11.598   3.957  0.4759  1.4056 -0.9071
  553MOL0     H76311   7.012  10.847   3.944  1.2389  1.1600 -0.1775
  553MOL0     H76312   6.995  10.529   3.855 -0.3846  0.7772  1.7516
  553MOL0     H76313   6.898  10.643   3.964 -0.8817 -0.5932  0.3570
  553MOL0     H76314   6.817  10.558   3.846  0.2079 -0.7876 -5.1810
  554MOL0     O76315   6.479  11.248   0.661  0.1846  0.5927  0.5765
  554MOL0     C76316   6.529  11.336   0.591 -0.9360 -0.7310  0.0990
  554MOL0     O76317   6.481  11.461   0.579 -0.3687  0.3227 -0.4407
  554MOL0     C76318   6.345  11.480   0.601 -0.8427  0.1785  0.3085
  554MOL0     C76319   6.291  11.544   0.712  0.2704  1.5116 -0.0473
  554MOL0     C76320   6.148  11.543   0.737 -0.4155 -0.8108  0.9975
  554MOL0     C76321   6.058  11.488   0.641 -1.0638  0.1884 -0.3393
  554MOL0     O76322   5.925  11.489   0.655  0.9482  0.1671 -0.5658
  554MOL0     C76323   5.860  11.542   0.769  0.7657  0.0199 -0.1510
  554MOL0     C76324   5.708  11.540   0.745 -0.1815 -0.5719 -0.1614
  554MOL0     C76325   5.653  11.397   0.713  0.3908 -0.4234  0.4221
  554MOL0     C76326   5.509  11.379   0.779 -0.4629 -0.4044  0.2457
  554MOL0     C76327   5.438  11.256   0.731 -0.7394 -0.7802  0.0788
  554MOL0     C76328   5.343  11.222   0.844 -0.6378  0.1724  0.1827
  554MOL0     C76329   5.239  11.116   0.793  0.5852  0.6389 -0.4563
  554MOL0     C76330   5.164  11.064   0.919  0.2903  0.3949 -0.6140
  554MOL0     N76331   5.043  10.976   0.896 -0.0146 -0.3493  0.4864
  554MOL0     C76332   4.960  10.980   0.790  0.3608 -0.8858 -0.0388
  554MOL0     C76333   4.855  10.905   0.818  0.2007  0.2386  0.7435
  554MOL0     C76334   4.732  10.905   0.729  0.4135 -0.5005  0.1687
  554MOL0     C76335   4.615  10.819   0.786  0.2800  1.2530 -0.1817
  554MOL0     C76336   4.482  10.830   0.696 -0.5442 -0.1999 -0.6363
  554MOL0     C76337   4.448  10.981   0.676 -0.4865 -0.5347  0.6550
  554MOL0     O76338   4.335  10.999   0.593  0.1835 -1.1171  0.3792
  554MOL0     C76339   4.364  11.002   0.456 -0.0520  0.4548  0.4479
  554MOL0     C76340   4.354  10.881   0.389 -1.0071 -0.7345 -0.0294
  554MOL0     C76341   4.396  10.873   0.250  0.5790  0.2867  0.0123
  554MOL0     C76342   4.394  10.733   0.194  0.5418  0.0407 -0.4675
  554MOL0     C76343   4.448  10.986   0.178  0.5081  0.3086 -1.1894
  554MOL0     C76344   4.491  10.993   0.034 -0.3034  0.2380  0.7859
  554MOL0     O76345   4.535  10.873  -0.024  0.0896 -0.4807  0.5295
  554MOL0     C76346   4.608  10.862  -0.141 -0.3462 -0.4751 -0.7025
  554MOL0     C76347   4.615  10.729  -0.181 -0.5869  0.1015  0.6036
  554MOL0     C76348   4.705  10.702  -0.293  0.5743  0.2341 -0.2333
  554MOL0     C76349   4.763  10.807  -0.370 -0.2448  0.4710 -0.1944
  554MOL0     O76350   4.839  10.774  -0.478 -0.3033 -0.1315 -0.2604
  554MOL0     C76351   4.862  10.872  -0.584  0.6547  0.4076  0.5413
  554MOL0     C76352   4.951  10.812  -0.688 -0.9233  1.1627  0.5260
  554MOL0     C76353   4.902  10.680  -0.756 -0.6355 -0.2494  0.1929
  554MOL0     C76354   4.976  10.652  -0.881 -0.7586  0.4227 -0.3495
  554MOL0     C76355   4.960  10.497  -0.919 -0.3254 -0.4846  0.1624
  554MOL0     C76356   5.022  10.466  -1.063 -0.0716 -0.0251 -0.0169
  554MOL0     C76357   4.978  10.563  -1.175 -0.1830 -0.6322 -0.0160
  554MOL0     C76358   5.006  10.511  -1.316 -0.4649 -0.5764 -0.6406
  554MOL0    Cl76359   5.181  10.472  -1.292  0.3403  0.1164  0.2892
  554MOL0     C76360   4.737  10.937  -0.331 -0.8516 -0.1821  0.6742
  554MOL0     C76361   4.657  10.963  -0.216  0.1758  0.1242  0.3715
  554MOL0     O76362   4.494  11.112  -0.015  0.5260  0.5548 -0.4935
  554MOL0     C76363   4.441  11.110   0.250  0.6087  0.4660  0.3152
  554MOL0     C76364   4.412  11.114   0.384  0.1046  0.4850  0.0821
  554MOL0     N76365   4.888  10.837   0.926  0.0287 -0.0951 -0.0040
  554MOL0     N76366   5.005  10.870   0.973 -0.1675 -0.1886  0.3140
  554MOL0     C76367   6.122  11.428   0.528  0.4462 -0.2384 -0.7136
  554MOL0     C76368   6.263  11.419   0.514 -0.4634  0.4641  0.9513
  554MOL0     C76369   6.658  11.310   0.520  1.3263 -0.4322 -0.3795
  554MOL0     C76370   6.730  11.182   0.537 -0.3990 -0.3383  0.3887
  554MOL0     C76371   6.842  11.154   0.470  0.1352 -0.6043  0.6254
  554MOL0     C76372   6.897  11.234   0.376  0.2395 -0.4712 -0.4733
  554MOL0     O76373   7.005  11.185   0.309  0.1812  0.4895  0.2986
  554MOL0     C76374   7.092  11.282   0.250  0.5514  0.9584 -0.0488
  554MOL0     C76375   7.075  11.297   0.102  0.2349 -1.0106  0.1137
  554MOL0     C76376   7.163  11.205   0.014 -0.0012 -0.0615 -0.8120
  554MOL0     C76377   7.117  11.059   0.037  0.3297  1.1048  0.7110
  554MOL0     C76378   7.169  10.979  -0.075  0.6137  0.0264 -0.1405
  554MOL0     C76379   7.213  10.930  -0.173 -0.4377  0.5584 -0.1494
  554MOL0     C76380   6.826  11.355   0.349 -0.6673 -0.3008  0.7330
  554MOL0     C76381   6.718  11.406   0.429 -0.6130 -0.1476 -0.9962
  554MOL0     C76382   6.664  11.546   0.402 -0.3473  0.6316  0.7154
  554MOL0     H76383   6.359  11.586   0.785  1.0208  1.2728 -0.6014
  554MOL0     H76384   6.108  11.596   0.823 -0.5232  2.4302 -0.8838
  554MOL0     H76385   5.902  11.639   0.797  1.2666 -0.7414  1.8991
  554MOL0     H76386   5.878  11.473   0.852 -1.2053 -1.1205 -0.6058
  554MOL0     H76387   5.673  11.565   0.846  1.6720  0.1855  0.3390
  554MOL0     H76388   5.685  11.614   0.667  2.0484 -1.5921 -1.9281
  554MOL0     H76389   5.656  11.383   0.605  0.1949 -1.2349  0.5186
  554MOL0     H76390   5.718  11.323   0.760  2.6652  0.8667 -0.5320
  554MOL0     H76391   5.538  11.386   0.884  0.3602  3.2416 -0.0727
  554MOL0     H76392   5.454  11.471   0.754  4.0148  3.0191  1.5609
  554MOL0     H76393   5.509  11.175   0.715 -0.2277 -0.1655 -0.8641
  554MOL0     H76394   5.380  11.272   0.639 -3.4512 -1.3169  1.5785
  554MOL0     H76395   5.399  11.195   0.935 -2.4994  4.1535  2.8124
  554MOL0     H76396   5.286  11.306   0.883  2.5108  2.0603  1.1197
  554MOL0     H76397   5.291  11.043   0.730  1.8262  0.4763  0.7214
  554MOL0     H76398   5.163  11.160   0.727  0.6004 -1.2411 -1.8106
  554MOL0     H76399   5.245  11.012   0.970 -0.8949  1.0513  2.1312
  554MOL0     H76400   5.139  11.155   0.974  0.6460  0.8636 -1.2190
  554MOL0     H76401   4.973  11.046   0.705  1.3178 -0.5512  0.3413
  554MOL0     H76402   4.751  10.869   0.627  1.8223 -0.2334  0.3080
  554MOL0     H76403   4.717  11.013   0.727  3.9762  0.1808  1.4638
  554MOL0     H76404   4.656  10.719   0.771  0.5924  1.6757 -2.5286
  554MOL0     H76405   4.600  10.857   0.888 -2.1986  0.2224 -0.0767
  554MOL0     H76406   4.497  10.777   0.602  0.4329  1.7396 -1.6515
  554MOL0     H76407   4.400  10.780   0.748 -2.1678  1.7378 -1.1937
  554MOL0     H76408   4.413  11.016   0.774  1.2480  1.1280  0.7362
  554MOL0     H76409   4.532  11.038   0.636 -1.5149  0.9904  0.5813
  554MOL0     H76410   4.333  10.800   0.459 -1.8256  0.8449  1.6542
  554MOL0     H76411   4.347  10.663   0.264  0.1680 -1.0404 -1.7698
  554MOL0     H76412   4.495  10.699   0.170  0.7101  1.0916 -1.3576
  554MOL0     H76413   4.338  10.727   0.101 -2.2321  4.1943  0.6303
  554MOL0     H76414   4.563  10.642  -0.142  2.1880 -1.4821  1.0526
  554MOL0     H76415   4.710  10.604  -0.339  2.5644 -0.1357  0.6715
  554MOL0     H76416   4.762  10.897  -0.621  0.5167 -0.7242  0.1117
  554MOL0     H76417   4.913  10.954  -0.533  0.9284 -0.1072  1.1091
  554MOL0     H76418   4.994  10.893  -0.748  0.3213  1.9479  2.3859
  554MOL0     H76419   5.034  10.764  -0.635  0.4217 -1.4917 -3.4635
  554MOL0     H76420   4.795  10.681  -0.778 -1.1024  1.8828  2.1166
  554MOL0     H76421   4.904  10.594  -0.688 -0.0041  0.9660  1.7952
  554MOL0     H76422   5.079  10.686  -0.873 -0.2762  0.2957 -4.0716
  554MOL0     H76423   4.938  10.718  -0.959  2.7947  1.2434 -1.5699
  554MOL0     H76424   4.987  10.425  -0.841 -3.2610 -1.2589  0.5953
  554MOL0     H76425   4.851  10.498  -0.922 -0.6509  5.1070  2.1752
  554MOL0     H76426   4.986  10.366  -1.088 -0.2471  0.2393 -0.8551
  554MOL0     H76427   5.131  10.468  -1.060 -0.0211 -1.0929 -0.5141
  554MOL0     H76428   5.031  10.659  -1.170  1.2606 -1.3772 -0.2849
  554MOL0     H76429   4.873  10.591  -1.187 -1.1517 -4.2587 -1.3570
  554MOL0     H76430   5.010  10.584  -1.397  1.0358  0.3469  0.1896
  554MOL0     H76431   4.947  10.426  -1.349 -1.0130  0.2330 -1.7826
  554MOL0     H76432   4.770  11.027  -0.382  1.0365 -0.8562  0.6311
  554MOL0     H76433   4.641  11.069  -0.201 -2.2612  0.0460 -1.0114
  554MOL0     H76434   4.479  11.199   0.200 -2.5058  1.8184  0.1135
  554MOL0     H76435   4.437  11.197   0.450 -0.0966 -0.0116  0.7936
  554MOL0     H76436   6.067  11.373   0.451  0.4018 -2.9337  1.1244
  554MOL0     H76437   6.305  11.372   0.426  0.0792  1.3426  0.7239
  554MOL0     H76438   6.688  11.113   0.610  0.4082  0.1051  1.2906
  554MOL0     H76439   6.893  11.066   0.508  0.9989  1.1488  3.9443
  554MOL0     H76440   7.096  11.380   0.297  2.6438  0.9643 -0.1448
  554MOL0     H76441   7.182  11.232   0.284  0.1994 -0.8059 -1.5481
  554MOL0     H76442   7.094  11.402   0.078 -2.4042 -0.7077 -0.9889
  554MOL0     H76443   6.969  11.289   0.077 -0.2721  2.2947  0.7347
  554MOL0     H76444   7.154  11.232  -0.091 -1.0538  1.7010 -0.3077
  554MOL0     H76445   7.269  11.217   0.039  0.1230  0.8821 -1.7438
  554MOL0     H76446   7.009  11.057   0.059  0.4536 -0.9981  1.3964
  554MOL0     H76447   7.164  11.010   0.123 -0.1271 -3.5835 -1.3887
  554MOL0     H76448   7.248  10.885  -0.264  2.5280 -0.6887  1.4971
  554MOL0     H76449   6.865  11.427   0.278  0.6278 -1.2407  0.4514
  554MOL0     H76450   6.556  11.550   0.391 -0.2384  2.8694 -0.1839
  554MOL0     H76451   6.703  11.617   0.476  1.5218  2.1743 -1.5941
  554MOL0     H76452   6.707  11.577   0.306  0.3676  1.1021  1.1812
  555MOL0     O76453   1.703   4.926   1.033  0.0171  0.0107  0.2798
  555MOL0     C76454   1.749   5.001   0.942  0.7496 -0.2988 -0.7416
  555MOL0     O76455   1.737   5.138   0.946 -0.5985  0.5529  0.7732
  555MOL0     C76456   1.687   5.195   1.062  0.0394 -0.5476 -0.5957
  555MOL0     C76457   1.592   5.301   1.059 -0.0851  0.3164  0.7814
  555MOL0     C76458   1.544   5.364   1.174  0.5962 -0.3342  0.1292
  555MOL0     C76459   1.594   5.332   1.302 -0.7014 -0.4498 -0.0618
  555MOL0     O76460   1.551   5.397   1.407  0.3818  0.4235  0.7438
  555MOL0     C76461   1.502   5.311   1.511 -0.2120  0.8334 -0.2536
  555MOL0     C76462   1.353   5.268   1.488  0.9560  0.7050  0.4424
  555MOL0     C76463   1.264   5.384   1.513  0.3779 -0.2083  0.3470
  555MOL0     C76464   1.113   5.360   1.482  0.7262 -0.4280  0.2168
  555MOL0     C76465   1.040   5.498   1.509  0.1989 -0.1225 -0.0473
  555MOL0     C76466   0.897   5.496   1.490 -0.8125 -0.0505  0.6094
  555MOL0     C76467   0.837   5.621   1.560  0.5588 -0.3840  0.4361
  555MOL0     C76468   0.701   5.670   1.493  1.0050  0.5710  0.1767
  555MOL0     N76469   0.696   5.812   1.454 -0.4609  0.5542 -0.4824
  555MOL0     C76470   0.791   5.890   1.395  0.0340 -0.1464  0.2619
  555MOL0     C76471   0.732   6.001   1.350  0.1491 -1.7407  0.4020
  555MOL0     C76472   0.806   6.118   1.273  0.0035  0.5421  0.1063
  555MOL0     C76473   0.933   6.168   1.352  0.0088  0.4458 -0.1718
  555MOL0     C76474   1.017   6.274   1.275  1.0591  0.1243 -0.2323
  555MOL0     C76475   1.089   6.219   1.152 -0.2431  0.2503  0.7300
  555MOL0     O76476   1.136   6.085   1.172  0.8171  0.0425 -0.2583
  555MOL0     C76477   1.211   6.036   1.063 -0.4171  1.2589  0.7423
  555MOL0     C76478   1.288   5.921   1.099 -0.1886  0.0004  1.0009
  555MOL0     C76479   1.389   5.878   1.009  0.0261  0.3946 -1.0029
  555MOL0     C76480   1.486   5.783   1.072  0.7069  0.5909  1.4163
  555MOL0     C76481   1.405   5.932   0.882  0.7802 -0.3287  0.2569
  555MOL0     C76482   1.493   5.881   0.770 -0.2455 -0.5857  0.6510
  555MOL0     O76483   1.446   5.898   0.644  0.3720  0.5692  0.4733
  555MOL0     C76484   1.515   5.845   0.536  0.7116 -0.3381  1.1293
  555MOL0     C76485   1.480   5.719   0.489  0.2521 -1.3800 -0.5458
  555MOL0     C76486   1.543   5.666   0.373 -0.1115 -0.4756 -0.3501
  555MOL0     C76487   1.650   5.731   0.306 -0.3543 -1.1884 -0.6346
  555MOL0     O76488   1.717   5.664   0.212 -0.3831 -0.3743  0.1799
  555MOL0     C76489   1.837   5.729   0.142 -0.2316  0.4914 -1.0191
  555MOL0     C76490   1.903   5.626   0.045 -0.2009 -0.6559 -0.7909
  555MOL0     C76491   1.806   5.581  -0.069  1.4003  0.0355 -0.2864
  555MOL0     C76492   1.901   5.537  -0.189  0.1485  0.1460 -0.2247
  555MOL0     C76493   1.967   5.398  -0.179 -0.0747 -0.6039  0.7021
  555MOL0     C76494   2.048   5.373  -0.308  0.6271 -1.0281 -0.4592
  555MOL0     C76495   2.130   5.238  -0.297  0.2801 -0.1152  0.0143
  555MOL0     C76496   2.215   5.208  -0.423  0.2987 -0.4139 -0.7595
  555MOL0    Cl76497   2.121   5.207  -0.566  0.2485  0.0601  0.2712
  555MOL0     C76498   1.678   5.863   0.352  0.3044 -0.5314  0.1727
  555MOL0     C76499   1.603   5.922   0.457 -0.5463 -0.3005 -0.3925
  555MOL0     O76500   1.595   5.822   0.794 -0.5308 -0.2810 -0.3959
  555MOL0     C76501   1.308   6.029   0.842  0.0849 -0.4541 -1.1946
  555MOL0     C76502   1.209   6.080   0.926 -0.4034 -0.7539  0.5321
  555MOL0     N76503   0.603   5.990   1.393  0.1498  0.3118  0.0718
  555MOL0     N76504   0.582   5.879   1.449 -0.3235 -0.2305 -0.9032
  555MOL0     C76505   1.706   5.244   1.305  0.1084 -0.2964 -0.3990
  555MOL0     C76506   1.751   5.169   1.189  0.9963 -0.3364 -0.8605
  555MOL0     C76507   1.811   4.939   0.820 -1.4809 -0.3215  0.8591
  555MOL0     C76508   1.904   5.020   0.750  0.8797  1.0587  0.0850
  555MOL0     C76509   1.969   4.972   0.633 -0.3898 -0.6308 -0.5900
  555MOL0     C76510   1.942   4.835   0.591 -0.7812  0.0581  0.2843
  555MOL0     O76511   2.006   4.776   0.490 -0.3756 -0.0012  0.1545
  555MOL0     C76512   2.117   4.846   0.435  0.0646 -0.3121  0.4242
  555MOL0     C76513   2.182   4.749   0.338 -0.1515  0.6562 -0.5978
  555MOL0     C76514   2.313   4.799   0.271 -0.1809 -0.2339 -0.4289
  555MOL0     C76515   2.296   4.934   0.199 -0.0136  0.3604  0.7748
  555MOL0     C76516   2.219   4.941   0.081 -0.0493 -0.0811 -0.2017
  555MOL0     C76517   2.172   4.973  -0.025  0.0351 -0.1852 -0.1979
  555MOL0     C76518   1.856   4.765   0.661 -1.2632 -0.1984 -0.2517
  555MOL0     C76519   1.791   4.810   0.777 -0.9263 -0.3068 -0.4959
  555MOL0     C76520   1.696   4.708   0.840 -0.6873  0.0328 -0.2435
  555MOL0     H76521   1.562   5.341   0.962 -0.2296 -0.4041  0.5236
  555MOL0     H76522   1.475   5.448   1.176  1.8530  0.7297 -0.2121
  555MOL0     H76523   1.520   5.357   1.608  2.2338 -2.2394  0.9040
  555MOL0     H76524   1.568   5.227   1.534  1.2519  1.6076 -1.4035
  555MOL0     H76525   1.358   5.237   1.383  4.0673  0.0238  0.6778
  555MOL0     H76526   1.320   5.178   1.540  0.4189  0.3626 -0.4696
  555MOL0     H76527   1.265   5.417   1.617  0.9832 -1.0966  0.6377
  555MOL0     H76528   1.286   5.463   1.441  2.8127 -0.9454  0.1799
  555MOL0     H76529   1.096   5.345   1.375 -0.5027  0.9290  0.1884
  555MOL0     H76530   1.072   5.291   1.557 -1.7165  0.5979 -0.0707
  555MOL0     H76531   1.083   5.583   1.454  2.0007 -0.5062  0.7025
  555MOL0     H76532   1.052   5.531   1.612  2.0227  2.6574 -1.0249
  555MOL0     H76533   0.873   5.504   1.384  0.7982 -2.8461 -0.0654
  555MOL0     H76534   0.857   5.402   1.530  2.2722 -1.5702  0.3772
  555MOL0     H76535   0.910   5.703   1.559  3.9510 -3.1929  1.1020
  555MOL0     H76536   0.817   5.590   1.662 -3.6254 -0.7248 -0.3169
  555MOL0     H76537   0.681   5.614   1.401 -2.5334  1.2614  0.3794
  555MOL0     H76538   0.613   5.631   1.543  0.3274  1.1075 -0.5581
  555MOL0     H76539   0.892   5.862   1.365 -0.0181 -0.4243  0.3430
  555MOL0     H76540   0.734   6.198   1.255 -0.2907  0.4065  0.6585
  555MOL0     H76541   0.840   6.077   1.178 -0.1082  0.8255 -0.0560
  555MOL0     H76542   0.895   6.211   1.445 -0.0297  1.6461 -0.7152
  555MOL0     H76543   1.001   6.089   1.385  1.7648  1.3815 -1.3679
  555MOL0     H76544   0.944   6.352   1.253 -2.2621 -3.1845 -1.8666
  555MOL0     H76545   1.090   6.321   1.342  2.7932  1.6512 -3.0417
  555MOL0     H76546   1.027   6.218   1.062  0.8418 -1.1010 -0.0344
  555MOL0     H76547   1.169   6.287   1.120  3.2204 -3.1901  1.4295
  555MOL0     H76548   1.294   5.891   1.204  0.1204 -0.9497  0.7229
  555MOL0     H76549   1.501   5.699   1.003 -0.0437 -1.1182  3.2519
  555MOL0     H76550   1.446   5.743   1.165 -5.2042  0.2853 -0.8139
  555MOL0     H76551   1.586   5.817   1.100  1.5610  0.5834 -1.3023
  555MOL0     H76552   1.408   5.661   0.544 -0.1613  0.4210  0.9160
  555MOL0     H76553   1.517   5.564   0.347 -1.0425 -1.0266  2.4252
  555MOL0     H76554   1.810   5.821   0.089  2.1614  3.2398  2.0455
  555MOL0     H76555   1.910   5.758   0.218 -1.3127 -1.0556  0.6827
  555MOL0     H76556   2.001   5.669   0.020  0.7702 -1.3744  1.4666
  555MOL0     H76557   1.929   5.538   0.104  2.7333  1.1414  0.8596
  555MOL0     H76558   1.744   5.668  -0.096  1.5933 -0.0487 -1.0242
  555MOL0     H76559   1.745   5.496  -0.039 -0.3045  2.3581  3.7817
  555MOL0     H76560   1.980   5.613  -0.182 -1.4792  1.7815  1.6804
  555MOL0     H76561   1.850   5.557  -0.283 -0.6126  2.3362  0.5993
  555MOL0     H76562   2.043   5.404  -0.102  0.5678  2.7053 -0.0561
  555MOL0     H76563   1.898   5.320  -0.145 -0.2420 -1.6709 -1.8312
  555MOL0     H76564   2.113   5.459  -0.329 -1.0739 -0.3172 -3.3001
  555MOL0     H76565   1.976   5.365  -0.390 -1.2517  0.3396  0.9665
  555MOL0     H76566   2.058   5.161  -0.269 -0.1355 -0.2908 -1.4582
  555MOL0     H76567   2.197   5.242  -0.210 -0.1967 -0.4417  0.3959
  555MOL0     H76568   2.251   5.105  -0.413 -0.8773 -0.8071 -0.4385
  555MOL0     H76569   2.305   5.270  -0.425 -0.9059  1.4252 -0.0782
  555MOL0     H76570   1.753   5.918   0.297 -2.2847  1.5279 -1.5369
  555MOL0     H76571   1.624   6.024   0.488  1.8698 -0.7285 -0.4770
  555MOL0     H76572   1.315   6.073   0.743 -3.3313 -0.5971 -1.6065
  555MOL0     H76573   1.136   6.155   0.899  0.0767  0.1676  1.7005
  555MOL0     H76574   1.749   5.232   1.404  0.2759  3.1093  0.0891
  555MOL0     H76575   1.827   5.094   1.208  0.5383 -0.6539 -0.2459
  555MOL0     H76576   1.928   5.122   0.779  3.8265  0.2007  0.9455
  555MOL0     H76577   2.036   5.036   0.576  0.3598 -2.1402 -1.4787
  555MOL0     H76578   2.082   4.938   0.387  0.8944  0.2297  0.8434
  555MOL0     H76579   2.187   4.887   0.508 -1.0860  1.7215  0.4413
  555MOL0     H76580   2.114   4.724   0.255 -1.5880 -1.5471  1.1121
  555MOL0     H76581   2.196   4.648   0.379  2.1726  1.2821  0.2775
  555MOL0     H76582   2.388   4.791   0.351 -1.9652 -0.9498  1.2689
  555MOL0     H76583   2.338   4.732   0.189 -1.2094  1.5856 -2.3335
  555MOL0     H76584   2.388   4.988   0.177 -0.3396  0.0857 -1.5117
  555MOL0     H76585   2.245   5.006   0.264  2.0899  0.2656  2.6217
  555MOL0     H76586   2.144   5.020  -0.117  1.3451  1.1498  0.0487
  555MOL0     H76587   1.831   4.663   0.635  0.0401 -0.2183 -1.6204
  555MOL0     H76588   1.704   4.607   0.800  0.4693  0.9397 -2.5284
  555MOL0     H76589   1.721   4.691   0.945 -0.6984 -1.2282 -0.4333
  555MOL0     H76590   1.594   4.746   0.826 -0.8217 -0.7104 -1.4092
  556MOL0     O76591   5.519   8.598   1.123  0.1048 -0.4611 -0.3593
  556MOL0     C76592   5.420   8.656   1.081  0.5887  0.1102 -0.0380
  556MOL0     O76593   5.412   8.774   1.023 -0.0270  0.5106 -0.6079
  556MOL0     C76594   5.524   8.853   0.996 -0.9408 -0.0853  0.5765
  556MOL0     C76595   5.570   8.883   0.865 -0.0101  0.0376  0.5721
  556MOL0     C76596   5.673   8.974   0.834  0.0534 -0.2553  0.1743
  556MOL0     C76597   5.733   9.041   0.943  0.8019 -0.3368 -0.1577
  556MOL0     O76598   5.832   9.124   0.906  0.3394 -0.0495  0.3805
  556MOL0     C76599   5.954   9.124   0.985 -0.2767 -0.3617  0.4212
  556MOL0     C76600   5.938   9.236   1.079 -0.4337 -0.1699  0.3831
  556MOL0     C76601   5.990   9.376   1.036 -0.8445 -0.6772  0.4222
  556MOL0     C76602   6.012   9.462   1.161 -0.2584  0.4960  0.2299
  556MOL0     C76603   5.996   9.614   1.153 -0.5892 -0.2863  0.4651
  556MOL0     C76604   6.094   9.680   1.068 -0.1695  0.5611  0.6730
  556MOL0     C76605   6.057   9.822   1.038 -0.3323 -0.5797 -0.3834
  556MOL0     C76606   6.187   9.889   0.977  0.4554 -0.5460 -0.8138
  556MOL0     N76607   6.177   9.863   0.838  0.4081  0.3347 -0.1944
  556MOL0     C76608   6.249   9.771   0.773  0.2068  0.0074 -0.7614
  556MOL0     C76609   6.195   9.748   0.660  0.3910 -0.2301 -0.6462
  556MOL0     C76610   6.248   9.652   0.558  0.4863 -0.3629  0.1584
  556MOL0     C76611   6.386   9.679   0.495 -0.1748 -0.3567 -0.5727
  556MOL0     C76612   6.505   9.613   0.569  0.3833  0.3834  0.3260
  556MOL0     C76613   6.641   9.630   0.488 -0.4283 -0.9780 -0.7666
  556MOL0     O76614   6.676   9.769   0.463 -0.1027  0.4050  0.9148
  556MOL0     C76615   6.794   9.802   0.402  0.2549 -0.2939  0.2902
  556MOL0     C76616   6.872   9.705   0.345 -0.9643  0.7353  0.9396
  556MOL0     C76617   6.990   9.733   0.272 -0.3375 -0.7054 -0.2468
  556MOL0     C76618   7.066   9.615   0.223  1.1318 -0.9190 -0.3447
  556MOL0     C76619   7.037   9.863   0.256 -0.2260 -0.6795  0.1197
  556MOL0     C76620   7.143   9.899   0.168 -0.3175 -0.4308  0.5112
  556MOL0     O76621   7.188   9.822   0.063  0.1783  0.9219  0.2561
  556MOL0     C76622   7.269   9.884  -0.016 -0.7287  0.1712  0.3202
  556MOL0     C76623   7.405   9.893   0.010 -0.0570  0.1037  1.2070
  556MOL0     C76624   7.491   9.955  -0.080  0.5860 -0.2012  0.7241
  556MOL0     C76625   7.450   9.998  -0.211 -0.5197  1.0673  0.2189
  556MOL0     O76626   7.540  10.072  -0.287  0.6552 -0.0630  0.0410
  556MOL0     C76627   7.482  10.166  -0.374 -0.1332 -1.0554  0.5497
  556MOL0     C76628   7.588  10.277  -0.410  0.1510  0.8654  0.4586
  556MOL0     C76629   7.696  10.211  -0.499 -0.2602 -0.4945  0.1928
  556MOL0     C76630   7.806  10.317  -0.538 -0.6527 -0.5460  0.2331
  556MOL0     C76631   7.886  10.281  -0.669  0.3759  0.7978  0.8981
  556MOL0     C76632   7.800  10.285  -0.799  0.1616  0.8911  0.3787
  556MOL0     C76633   7.894  10.250  -0.913 -0.7687 -0.4970 -0.4044
  556MOL0     C76634   7.826  10.257  -1.047  0.0303 -0.4818  1.2467
  556MOL0    Cl76635   7.931  10.248  -1.180 -0.1541  0.3961 -0.4965
  556MOL0     C76636   7.310   9.981  -0.237  0.6505 -0.6791  0.2914
  556MOL0     C76637   7.223   9.916  -0.147  0.6556  0.4366  0.0176
  556MOL0     O76638   7.200  10.007   0.204  0.5434  0.1700  0.0794
  556MOL0     C76639   6.972   9.966   0.337  0.3099 -0.4562  0.5543
  556MOL0     C76640   6.849   9.927   0.407 -0.8619 -0.2575 -0.7036
  556MOL0     N76641   6.077   9.825   0.651 -0.7327  0.0480  0.5689
  556MOL0     N76642   6.077   9.901   0.750 -0.2481  0.4217 -0.3016
  556MOL0     C76643   5.702   9.002   1.075 -0.3539 -0.0721  0.7160
  556MOL0     C76644   5.604   8.905   1.103 -0.8071 -0.2941  0.7468
  556MOL0     C76645   5.298   8.573   1.106 -0.6333 -0.6380 -0.2745
  556MOL0     C76646   5.278   8.501   1.226  0.1928 -0.5815 -0.1721
  556MOL0     C76647   5.163   8.431   1.256 -0.3501  0.2946 -0.2250
  556MOL0     C76648   5.055   8.438   1.165  0.3943 -0.2292 -0.4156
  556MOL0     O76649   4.935   8.370   1.179  0.0946 -0.0400 -0.3309
  556MOL0     C76650   4.922   8.258   1.273  0.2709  0.0749  0.0629
  556MOL0     C76651   4.968   8.132   1.209  0.2258 -0.4297  0.3023
  556MOL0     C76652   4.942   8.000   1.287  0.5298  0.0316 -0.5882
  556MOL0     C76653   4.965   7.865   1.214  0.0738 -0.1803  0.3866
  556MOL0     C76654   4.945   7.753   1.299  0.6177  0.1883 -0.4174
  556MOL0     C76655   4.934   7.647   1.362  1.2093  0.2882  0.2642
  556MOL0     C76656   5.069   8.514   1.058 -0.3169  0.0035 -0.0953
  556MOL0     C76657   5.189   8.577   1.023  1.2401 -0.1005 -0.2250
  556MOL0     C76658   5.201   8.625   0.878 -0.1352  0.3128  0.3654
  556MOL0     H76659   5.513   8.856   0.777  3.3489  1.8213 -2.4549
  556MOL0     H76660   5.701   8.991   0.731  0.7096  1.8893  0.6621
  556MOL0     H76661   6.041   9.141   0.921  0.2076  0.3623  1.2422
  556MOL0     H76662   5.963   9.031   1.042  0.2349 -2.4568 -2.8271
  556MOL0     H76663   5.839   9.250   1.125  0.4656 -0.7140  2.6455
  556MOL0     H76664   5.999   9.204   1.164  1.5878 -2.0474 -1.6295
  556MOL0     H76665   6.080   9.369   0.975  0.4601  0.6900  2.0625
  556MOL0     H76666   5.911   9.425   0.978 -1.5319  1.0757  2.6983
  556MOL0     H76667   5.944   9.417   1.234  0.4049 -0.6002  0.1789
  556MOL0     H76668   6.114   9.438   1.193  0.7922  3.1063 -0.8410
  556MOL0     H76669   6.002   9.646   1.257  1.5748  1.4533 -0.1150
  556MOL0     H76670   5.894   9.623   1.113  0.0971  0.1511 -1.2655
  556MOL0     H76671   6.191   9.685   1.119 -0.2063  0.3228  0.7720
  556MOL0     H76672   6.106   9.641   0.966 -0.8342  2.3393 -0.1137
  556MOL0     H76673   6.031   9.891   1.119  2.1445 -1.8106  1.5757
  556MOL0     H76674   5.980   9.824   0.959 -2.5010  0.1470  1.6388
  556MOL0     H76675   6.180   9.995   1.000 -0.9370 -0.6020 -0.8924
  556MOL0     H76676   6.288   9.862   1.008  1.2323  3.6986  1.0100
  556MOL0     H76677   6.336   9.721   0.813  1.1153  1.7484 -0.5054
  556MOL0     H76678   6.175   9.668   0.478  0.6155 -1.6008 -0.2240
  556MOL0     H76679   6.232   9.548   0.585 -0.0731 -0.4373 -0.4170
  556MOL0     H76680   6.389   9.629   0.398  1.9989  2.3942 -2.0578
  556MOL0     H76681   6.406   9.786   0.481 -0.3057 -0.1265  0.8306
  556MOL0     H76682   6.507   9.656   0.670 -0.1436  0.5725  0.2572
  556MOL0     H76683   6.479   9.507   0.577  1.1684  0.0375 -1.3928
  556MOL0     H76684   6.709   9.593   0.565 -3.4127  0.5363  2.8753
  556MOL0     H76685   6.636   9.576   0.392 -1.9481  0.7178 -1.7159
  556MOL0     H76686   6.849   9.600   0.330 -2.5002  1.3307 -1.4970
  556MOL0     H76687   7.037   9.584   0.122  0.5812 -3.6792  0.5541
  556MOL0     H76688   7.058   9.530   0.292 -1.5752 -0.0145  0.5803
  556MOL0     H76689   7.172   9.639   0.223  1.7756 -3.3842  1.2564
  556MOL0     H76690   7.440   9.854   0.105  1.9360  0.8636  0.8134
  556MOL0     H76691   7.598   9.969  -0.065  0.5667 -0.2202  0.8797
  556MOL0     H76692   7.437  10.131  -0.467  0.5620 -0.8950  0.1455
  556MOL0     H76693   7.404  10.220  -0.320  0.5926  0.7888 -0.1682
  556MOL0     H76694   7.542  10.363  -0.458 -2.3709 -0.6644 -0.0383
  556MOL0     H76695   7.623  10.321  -0.316 -1.4779  4.6926 -0.5249
  556MOL0     H76696   7.646  10.175  -0.589 -1.4196 -1.9013  1.3499
  556MOL0     H76697   7.743  10.122  -0.457 -0.6552 -1.4069 -1.2356
  556MOL0     H76698   7.870  10.347  -0.454  0.5549 -3.2691  0.3834
  556MOL0     H76699   7.747  10.401  -0.578 -4.6619 -0.9033  4.4691
  556MOL0     H76700   7.970  10.350  -0.681  0.9305  0.3915  2.2439
  556MOL0     H76701   7.922  10.179  -0.658 -1.0217  0.2468  0.6075
  556MOL0     H76702   7.763  10.387  -0.812  0.6823  0.9613 -0.6551
  556MOL0     H76703   7.718  10.213  -0.788  2.9343 -2.4866  0.6296
  556MOL0     H76704   7.936  10.150  -0.902  0.7315 -0.1266 -2.1765
  556MOL0     H76705   7.980  10.318  -0.908  2.5944 -4.4103  1.7546
  556MOL0     H76706   7.769  10.350  -1.055 -1.1092 -1.3023 -1.1952
  556MOL0     H76707   7.749  10.179  -1.053 -2.6401  2.0723 -0.7244
  556MOL0     H76708   7.279  10.013  -0.336  1.1766  2.2323  0.9855
  556MOL0     H76709   7.117   9.902  -0.167  0.3426 -0.0823  1.8020
  556MOL0     H76710   6.990  10.073   0.338 -1.4685  0.1628 -4.9177
  556MOL0     H76711   6.796   9.998   0.470  1.0540  0.0011  0.7113
  556MOL0     H76712   5.741   9.050   1.164  0.5003  2.3559 -0.8808
  556MOL0     H76713   5.575   8.883   1.206  1.5471  0.6312  1.6917
  556MOL0     H76714   5.361   8.487   1.294  0.3646 -0.6555 -0.3958
  556MOL0     H76715   5.148   8.381   1.351 -1.8600  0.0970 -0.5406
  556MOL0     H76716   4.968   8.273   1.371  2.7601  4.1010 -1.4723
  556MOL0     H76717   4.816   8.250   1.298  0.3879  1.8077  1.3122
  556MOL0     H76718   5.077   8.139   1.207  0.3340 -1.8775 -0.3151
  556MOL0     H76719   4.924   8.119   1.110  2.6433 -1.2529 -0.7382
  556MOL0     H76720   4.993   7.998   1.383  2.7563 -3.1766 -1.6649
  556MOL0     H76721   4.835   7.996   1.312  0.7889 -1.4982  0.4022
  556MOL0     H76722   5.059   7.847   1.163  1.5290 -0.5037  3.0209
  556MOL0     H76723   4.883   7.854   1.142 -1.1976 -2.0835  1.9917
  556MOL0     H76724   4.903   7.568   1.427  3.0945 -1.8510 -1.2786
  556MOL0     H76725   4.989   8.519   0.984  0.4501 -0.6316 -0.9911
  556MOL0     H76726   5.138   8.711   0.854 -4.3680 -1.4887  3.7790
  556MOL0     H76727   5.308   8.630   0.855 -0.1102 -2.1995 -0.3228
  556MOL0     H76728   5.152   8.546   0.821  1.8235 -0.1778 -0.7354
  557MOL0     O76729   3.414   4.299  10.999 -0.0775  0.2809  0.5119
  557MOL0     C76730   3.434   4.416  11.035  0.2604 -0.0108  0.4109
  557MOL0     O76731   3.385   4.528  10.966 -0.6161  0.4691 -0.2105
  557MOL0     C76732   3.367   4.526  10.830  0.6137 -0.2952 -0.6524
  557MOL0     C76733   3.421   4.428  10.741 -0.3675 -0.1141  0.2974
  557MOL0     C76734   3.404   4.449  10.604 -0.5438 -0.4370  0.2898
  557MOL0     C76735   3.325   4.554  10.552  0.2527 -0.4380  0.0471
  557MOL0     O76736   3.308   4.547  10.414  0.7324  0.1929  0.6797
  557MOL0     C76737   3.223   4.648  10.353  0.6232  0.2195 -0.4708
  557MOL0     C76738   3.247   4.648  10.202  0.5826  0.6985  0.3447
  557MOL0     C76739   3.384   4.697  10.159  0.7920  1.6139 -0.8421
  557MOL0     C76740   3.400   4.682  10.007  0.8416 -0.4312  0.6922
  557MOL0     C76741   3.548   4.690   9.973 -0.1332  0.7760  0.0969
  557MOL0     C76742   3.582   4.643   9.835  0.0819 -0.1605 -0.0379
  557MOL0     C76743   3.733   4.653   9.793  0.5761  0.6225 -0.3224
  557MOL0     C76744   3.742   4.650   9.643  0.5864 -0.6774  0.4567
  557MOL0     N76745   3.708   4.529   9.580  0.3893 -0.1316 -0.1067
  557MOL0     C76746   3.798   4.443   9.519 -0.2810 -0.3249  0.5377
  557MOL0     C76747   3.721   4.369   9.440  0.3164  0.6991  0.3184
  557MOL0     C76748   3.763   4.237   9.373 -0.4367  0.0097  0.0801
  557MOL0     C76749   3.719   4.230   9.233 -0.2191  0.7436  0.1105
  557MOL0     C76750   3.804   4.315   9.133 -0.0573  0.9642 -0.3231
  557MOL0     C76751   3.752   4.465   9.118 -0.0314  0.2086  0.4481
  557MOL0     O76752   3.610   4.468   9.086  0.1774 -0.2153  0.0114
  557MOL0     C76753   3.577   4.436   8.960  0.4023  0.3575  0.1204
  557MOL0     C76754   3.544   4.306   8.935 -0.1160 -0.4673 -0.3596
  557MOL0     C76755   3.546   4.268   8.795 -0.7222 -0.5003 -0.7541
  557MOL0     C76756   3.519   4.119   8.775  1.3675  0.1561  0.2467
  557MOL0     C76757   3.562   4.355   8.689  0.3959 -0.0331  0.0838
  557MOL0     C76758   3.580   4.318   8.543 -0.5421 -0.1013  0.8223
  557MOL0     O76759   3.536   4.418   8.461 -0.1944  0.4487  0.3936
  557MOL0     C76760   3.565   4.412   8.335 -0.8190  0.6885 -0.4928
  557MOL0     C76761   3.690   4.458   8.283 -0.0312 -0.1338 -0.3109
  557MOL0     C76762   3.710   4.464   8.146 -0.3558  0.0848 -0.5956
  557MOL0     C76763   3.607   4.416   8.059  0.4067 -0.3054  0.7592
  557MOL0     O76764   3.629   4.405   7.922  0.0040 -0.3165  0.6690
  557MOL0     C76765   3.721   4.502   7.873  0.5256 -0.3997 -0.1108
  557MOL0     C76766   3.669   4.530   7.721  0.0427  0.4909 -0.1955
  557MOL0     C76767   3.745   4.461   7.607  0.7515 -0.7242  0.3192
  557MOL0     C76768   3.863   4.542   7.556  0.2633 -0.3237 -0.4361
  557MOL0     C76769   3.965   4.467   7.468  0.2851  0.1750 -0.2140
  557MOL0     C76770   4.081   4.562   7.432  0.4938 -0.0049  0.4596
  557MOL0     C76771   4.185   4.489   7.335  0.4088 -0.4285 -0.1235
  557MOL0     C76772   4.254   4.581   7.231  0.1519  0.0643  0.9127
  557MOL0    Cl76773   4.385   4.695   7.291  0.0498  0.4893 -0.4647
  557MOL0     C76774   3.482   4.383   8.105  0.4553 -0.5360 -0.1493
  557MOL0     C76775   3.467   4.376   8.248 -0.6048 -0.1179 -1.2536
  557MOL0     O76776   3.636   4.213   8.510 -0.4399 -0.0841 -0.8921
  557MOL0     C76777   3.584   4.490   8.720 -0.5498  0.7984  0.4271
  557MOL0     C76778   3.596   4.528   8.849  0.4504 -0.8675 -1.3959
  557MOL0     N76779   3.589   4.415   9.447 -0.1754  0.0664  0.0651
  557MOL0     N76780   3.586   4.514   9.526 -1.0244 -0.0046  0.3639
  557MOL0     C76781   3.272   4.654  10.638  0.0873  0.5213  0.1328
  557MOL0     C76782   3.294   4.638  10.776 -0.3979  0.1210  0.2110
  557MOL0     C76783   3.503   4.435  11.161  0.4948 -0.4208  0.2065
  557MOL0     C76784   3.485   4.556  11.235  0.8085 -0.4524 -0.7287
  557MOL0     C76785   3.536   4.568  11.363 -0.2136 -0.8740 -0.5821
  557MOL0     C76786   3.614   4.471  11.421  0.1456 -0.1519  0.4394
  557MOL0     O76787   3.698   4.484  11.533  0.3890 -0.1060 -0.2642
  557MOL0     C76788   3.782   4.600  11.536 -0.3574  0.1942  0.1418
  557MOL0     C76789   3.718   4.705  11.632  0.2527 -0.1844 -0.2568
  557MOL0     C76790   3.761   4.695  11.778 -0.4368 -0.5458 -0.5378
  557MOL0     C76791   3.631   4.689  11.870  0.7252 -0.1391  0.9468
  557MOL0     C76792   3.658   4.669  12.010  0.3354 -0.4613 -0.7014
  557MOL0     C76793   3.695   4.654  12.124 -0.2607  0.2211  0.6198
  557MOL0     C76794   3.634   4.354  11.351 -0.4702 -0.4801  0.0760
  557MOL0     C76795   3.583   4.332  11.227 -0.2089  0.0532  0.2208
  557MOL0     C76796   3.637   4.206  11.154  0.2630  0.4941 -0.4671
  557MOL0     H76797   3.470   4.337  10.773 -2.9964 -1.0468  2.0385
  557MOL0     H76798   3.447   4.372  10.540  0.4714 -0.2282  0.6949
  557MOL0     H76799   3.237   4.749  10.394 -0.9242 -0.7986  2.9292
  557MOL0     H76800   3.121   4.615  10.375  0.9417 -1.2288 -1.0729
  557MOL0     H76801   3.228   4.544  10.176  0.6094  0.4537  1.2911
  557MOL0     H76802   3.172   4.709  10.150  1.1237  1.1097  0.0193
  557MOL0     H76803   3.405   4.794  10.203 -0.3587  0.9328  1.3783
  557MOL0     H76804   3.451   4.630  10.213 -0.0508  0.6039 -1.0139
  557MOL0     H76805   3.371   4.579   9.986 -0.2839  0.1081 -0.5827
  557MOL0     H76806   3.341   4.755   9.951  0.5305  0.1829  1.7914
  557MOL0     H76807   3.601   4.626  10.044 -2.5834 -3.0048 -1.1627
  557MOL0     H76808   3.585   4.793   9.971  0.2740  0.6323  0.1604
  557MOL0     H76809   3.541   4.543   9.820 -0.3754  0.3321 -2.5686
  557MOL0     H76810   3.522   4.702   9.765  1.9983  0.4219 -1.2874
  557MOL0     H76811   3.793   4.575   9.841 -0.1815 -0.4220 -1.0131
  557MOL0     H76812   3.779   4.749   9.818  0.3050  0.8052 -0.5283
  557MOL0     H76813   3.674   4.727   9.605 -0.0793 -1.6313 -0.3366
  557MOL0     H76814   3.847   4.674   9.621  0.5443 -0.9094 -0.0113
  557MOL0     H76815   3.904   4.429   9.539  0.6378  2.5274 -1.7701
  557MOL0     H76816   3.699   4.164   9.424 -2.4630  1.9083  0.3625
  557MOL0     H76817   3.867   4.208   9.394 -0.6622 -0.0451  1.1702
  557MOL0     H76818   3.724   4.124   9.208 -0.6602 -0.5382  4.6359
  557MOL0     H76819   3.614   4.260   9.230 -0.2812  1.1881  3.2592
  557MOL0     H76820   3.910   4.303   9.156  0.2002  3.7078  0.1761
  557MOL0     H76821   3.787   4.273   9.034 -1.2094 -0.7730  0.5576
  557MOL0     H76822   3.751   4.518   9.214 -2.8220  1.1069  0.0059
  557MOL0     H76823   3.808   4.515   9.038 -2.7194  2.4372 -0.1904
  557MOL0     H76824   3.518   4.242   9.019  1.8087 -0.6595  0.1225
  557MOL0     H76825   3.473   4.066   8.859  0.9003  2.2903  1.4200
  557MOL0     H76826   3.617   4.073   8.765  0.9771 -0.4952 -0.6653
  557MOL0     H76827   3.457   4.113   8.685 -2.8409  0.6317  2.8509
  557MOL0     H76828   3.767   4.490   8.352  0.9409 -1.2058 -0.8619
  557MOL0     H76829   3.806   4.490   8.102  0.9221  1.5002  2.7454
  557MOL0     H76830   3.717   4.588   7.940 -3.5366 -1.0848  0.7707
  557MOL0     H76831   3.819   4.453   7.868 -0.3624 -2.3247  0.4804
  557MOL0     H76832   3.565   4.496   7.720  0.2964 -0.3890  0.7101
  557MOL0     H76833   3.670   4.637   7.700  2.3399  0.3234 -1.2968
  557MOL0     H76834   3.677   4.445   7.523  1.6290  2.2651 -1.1132
  557MOL0     H76835   3.792   4.365   7.627  0.6347 -0.7950  0.2490
  557MOL0     H76836   3.912   4.580   7.646  0.1319 -1.6248  0.1910
  557MOL0     H76837   3.829   4.630   7.500 -0.7203 -0.5861 -0.2694
  557MOL0     H76838   4.012   4.382   7.519  0.7952  0.9095  0.5512
  557MOL0     H76839   3.923   4.427   7.375  0.6379  2.5550 -1.4869
  557MOL0     H76840   4.128   4.601   7.523 -1.7843  1.0678  1.2625
  557MOL0     H76841   4.035   4.648   7.382 -1.6638 -0.1838  2.0080
  557MOL0     H76842   4.136   4.408   7.279  2.6934 -1.7115 -0.4247
  557MOL0     H76843   4.266   4.445   7.394  1.3984 -1.5544 -2.1833
  557MOL0     H76844   4.174   4.644   7.190 -1.2001 -1.1331  1.5938
  557MOL0     H76845   4.293   4.523   7.146 -0.7335  2.7008 -1.4574
  557MOL0     H76846   3.395   4.364   8.043  0.2844 -1.2209  0.2821
  557MOL0     H76847   3.371   4.353   8.292  0.1319  3.4935  2.8817
  557MOL0     H76848   3.620   4.557   8.642  1.8087  0.9171  1.5356
  557MOL0     H76849   3.625   4.631   8.866 -1.1775 -0.2843 -2.0094
  557MOL0     H76850   3.217   4.745  10.615 -1.4375 -0.9747 -2.5924
  557MOL0     H76851   3.264   4.730  10.826  0.2850  0.6658 -0.3663
  557MOL0     H76852   3.433   4.637  11.184 -1.1750 -1.5714 -0.5730
  557MOL0     H76853   3.515   4.659  11.419  0.6475 -1.8615  1.4899
  557MOL0     H76854   3.879   4.583  11.583  0.1617  0.0103 -0.9579
  557MOL0     H76855   3.802   4.640  11.436  0.5218  2.1080  1.0475
  557MOL0     H76856   3.610   4.689  11.628  0.3119 -0.7918  0.4028
  557MOL0     H76857   3.738   4.808  11.600 -1.0247  1.1899  2.9716
  557MOL0     H76858   3.826   4.609  11.798 -0.6648 -0.7948 -0.8557
  557MOL0     H76859   3.816   4.788  11.795 -0.4091 -0.7871  0.8135
  557MOL0     H76860   3.567   4.604  11.846  0.6382  0.6112 -1.8294
  557MOL0     H76861   3.574   4.783  11.862 -0.7918 -1.1732 -2.2917
  557MOL0     H76862   3.744   4.631  12.216  2.3628  4.1959  0.5010
  557MOL0     H76863   3.702   4.289  11.405 -1.1086 -0.2418  1.2023
  557MOL0     H76864   3.634   4.232  11.048 -1.0568 -1.0043 -0.8385
  557MOL0     H76865   3.741   4.202  11.188  0.4487 -1.4317 -1.1314
  557MOL0     H76866   3.589   4.111  11.180  1.4173  0.0346  0.0635
  558MOL0     O76867   8.843   1.254   2.221 -0.0125  0.0052  0.6422
  558MOL0     C76868   8.741   1.197   2.247  0.3519  0.3154 -0.3751
  558MOL0     O76869   8.726   1.062   2.239  0.6234  0.8685 -0.9555
  558MOL0     C76870   8.818   0.986   2.167 -0.0736  0.6707 -0.6316
  558MOL0     C76871   8.795   0.981   2.030  0.1357  0.4143 -0.0352
  558MOL0     C76872   8.880   0.884   1.969  0.8307 -0.6434  0.1974
  558MOL0     C76873   8.974   0.805   2.033  0.1886 -0.2046  0.1944
  558MOL0     O76874   9.064   0.742   1.957 -0.7308 -0.0148  0.0496
  558MOL0     C76875   9.143   0.641   2.017 -0.3716  0.5830 -0.4756
  558MOL0     C76876   9.216   0.548   1.917  1.6031  0.6745 -0.2950
  558MOL0     C76877   9.122   0.463   1.841 -0.5730 -0.1487  0.3280
  558MOL0     C76878   9.182   0.366   1.740 -0.6116  1.1547  0.4474
  558MOL0     C76879   9.080   0.286   1.668  0.3135  0.8685  0.2259
  558MOL0     C76880   9.151   0.160   1.605  0.5602 -0.2222  0.9205
  558MOL0     C76881   9.061   0.070   1.523 -0.5548 -1.1203  0.6002
  558MOL0     C76882   9.131  -0.066   1.517 -0.1291  0.8357 -0.7558
  558MOL0     N76883   9.123  -0.152   1.640 -0.4998  0.4477 -0.2002
  558MOL0     C76884   9.044  -0.259   1.662 -0.6240 -1.0697  0.4231
  558MOL0     C76885   9.082  -0.318   1.779  0.1293 -1.5298  0.4920
  558MOL0     C76886   9.014  -0.445   1.821  0.4971 -0.0093  0.6671
  558MOL0     C76887   9.042  -0.480   1.964 -0.6059  0.5847 -0.7760
  558MOL0     C76888   8.974  -0.602   2.016  0.9274  0.1217 -1.1448
  558MOL0     C76889   9.014  -0.733   1.944 -0.2656 -0.0142  0.2463
  558MOL0     O76890   9.009  -0.843   2.038  0.0118  0.2184  0.8515
  558MOL0     C76891   8.887  -0.869   2.098 -0.4573 -1.1061  0.6698
  558MOL0     C76892   8.764  -0.841   2.039  0.6135  0.2622 -0.0746
  558MOL0     C76893   8.644  -0.874   2.107  0.6499  0.4640  0.1063
  558MOL0     C76894   8.509  -0.832   2.042  0.0747 -0.4809  0.3217
  558MOL0     C76895   8.649  -0.947   2.229 -0.2914  0.2942 -0.9636
  558MOL0     C76896   8.526  -1.005   2.294 -0.2544  1.0740 -0.0855
  558MOL0     O76897   8.554  -1.070   2.416 -0.0087 -0.3208 -0.0914
  558MOL0     C76898   8.444  -1.110   2.489 -0.8063  0.1490 -0.5470
  558MOL0     C76899   8.327  -1.047   2.521  1.0301 -1.1652  0.5537
  558MOL0     C76900   8.218  -1.091   2.595  0.0990  0.2323 -0.4264
  558MOL0     C76901   8.228  -1.214   2.658 -0.1758  0.1466 -1.6941
  558MOL0     O76902   8.126  -1.275   2.726 -0.0549 -0.5321 -0.3652
  558MOL0     C76903   8.157  -1.375   2.816 -0.5579  0.6245  0.3925
  558MOL0     C76904   8.035  -1.391   2.908  0.4814 -0.0784 -0.2988
  558MOL0     C76905   8.050  -1.502   3.020  1.0283  0.6662  0.4363
  558MOL0     C76906   7.935  -1.476   3.122 -0.5068  0.8588 -0.4546
  558MOL0     C76907   7.920  -1.583   3.222  0.0667 -0.0630  0.0141
  558MOL0     C76908   7.850  -1.711   3.170  0.0119  0.4952  0.0880
  558MOL0     C76909   7.861  -1.806   3.292  0.3189  0.1071 -0.0388
  558MOL0     C76910   7.825  -1.950   3.256  0.1731  0.6853 -0.8483
  558MOL0    Cl76911   7.838  -2.048   3.403 -0.4004  0.0444 -0.2222
  558MOL0     C76912   8.346  -1.284   2.635 -0.7797 -0.5748 -0.2183
  558MOL0     C76913   8.449  -1.236   2.551  0.7347  0.7366 -0.5031
  558MOL0     O76914   8.410  -1.004   2.241 -0.3353  0.2198 -0.5413
  558MOL0     C76915   8.778  -0.969   2.283 -0.4064 -0.4772 -0.0668
  558MOL0     C76916   8.888  -0.932   2.214 -1.0515 -0.6969 -0.2905
  558MOL0     N76917   9.188  -0.250   1.825 -0.1186 -0.0727  0.2602
  558MOL0     N76918   9.211  -0.153   1.746  0.4765  0.4976  0.4513
  558MOL0     C76919   8.969   0.804   2.172 -1.0791 -0.2372  0.2629
  558MOL0     C76920   8.896   0.901   2.239 -0.2320 -0.4810 -0.0583
  558MOL0     C76921   8.621   1.265   2.295 -0.9938  0.4589  0.1149
  558MOL0     C76922   8.491   1.211   2.287  0.4439  0.2653  0.4642
  558MOL0     C76923   8.376   1.273   2.334 -0.1806  0.4069  0.3378
  558MOL0     C76924   8.376   1.399   2.389 -0.2806  1.0227  0.1564
  558MOL0     O76925   8.262   1.464   2.433 -0.5560 -0.4188 -0.4284
  558MOL0     C76926   8.128   1.435   2.388 -0.8846 -0.1483 -1.5451
  558MOL0     C76927   8.042   1.529   2.485 -0.4257  0.1767 -0.2104
  558MOL0     C76928   7.888   1.483   2.488 -0.1686 -0.4523  0.9918
  558MOL0     C76929   7.821   1.530   2.617 -0.1095  0.4103  0.3219
  558MOL0     C76930   7.676   1.520   2.612 -0.1706 -1.2314  0.3517
  558MOL0     C76931   7.557   1.547   2.600 -0.5519 -0.1064 -0.3310
  558MOL0     C76932   8.500   1.451   2.399  0.1158 -0.0032  0.4561
  558MOL0     C76933   8.621   1.394   2.353 -0.2615  0.5238 -0.6312
  558MOL0     C76934   8.745   1.481   2.356  0.8843 -0.0363 -0.6289
  558MOL0     H76935   8.711   1.034   1.989 -2.7438 -1.6769  2.6849
  558MOL0     H76936   8.871   0.867   1.863  1.9927 -0.0496 -0.0123
  558MOL0     H76937   9.077   0.592   2.090 -1.5332  3.3123  0.4218
  558MOL0     H76938   9.224   0.694   2.069 -0.9292 -1.1631  2.4057
  558MOL0     H76939   9.284   0.608   1.856  2.6661 -0.0125  0.1814
  558MOL0     H76940   9.273   0.480   1.982 -1.0157 -1.3386  0.0656
  558MOL0     H76941   9.060   0.400   1.905 -0.1247  0.1070  1.0165
  558MOL0     H76942   9.052   0.532   1.792  0.4172 -0.7985 -2.1299
  558MOL0     H76943   9.233   0.418   1.658 -1.5143  0.3438 -0.6708
  558MOL0     H76944   9.254   0.304   1.793  3.5491 -0.0144 -5.5000
  558MOL0     H76945   9.037   0.344   1.586  1.5601  1.8571  0.2224
  558MOL0     H76946   8.999   0.256   1.734  2.4761  0.7469  3.0333
  558MOL0     H76947   9.238   0.189   1.546  1.0574  2.6895  2.8687
  558MOL0     H76948   9.195   0.104   1.688 -0.1965  0.1906  1.6155
  558MOL0     H76949   9.062   0.130   1.431  0.9204  2.0345  2.5068
  558MOL0     H76950   8.958   0.055   1.557  0.0504 -4.3538  1.3347
  558MOL0     H76951   9.082  -0.119   1.435  0.0902 -1.6621  0.6228
  558MOL0     H76952   9.237  -0.057   1.491  0.5654 -0.9218  1.1943
  558MOL0     H76953   8.958  -0.285   1.601 -1.5844 -1.9704  2.0878
  558MOL0     H76954   9.066  -0.526   1.769 -0.0852 -2.3313  3.4349
  558MOL0     H76955   8.910  -0.437   1.788  0.7014 -0.2092 -0.0501
  558MOL0     H76956   9.148  -0.508   1.963 -1.6442 -3.9707 -0.7955
  558MOL0     H76957   9.006  -0.398   2.028 -0.2173 -0.7383  1.2155
  558MOL0     H76958   8.988  -0.616   2.124  3.0340 -0.9344 -1.4978
  558MOL0     H76959   8.867  -0.586   1.998 -0.3011 -1.7036  3.1761
  558MOL0     H76960   8.962  -0.758   1.851  1.3578 -2.5789 -0.0469
  558MOL0     H76961   9.117  -0.719   1.909 -0.0501 -2.3091 -0.1718
  558MOL0     H76962   8.743  -0.779   1.952 -0.5854  0.5748  0.4162
  558MOL0     H76963   8.447  -0.775   2.113 -2.7939 -1.8268 -0.9314
  558MOL0     H76964   8.454  -0.920   2.006 -1.1241  0.6757 -0.8267
  558MOL0     H76965   8.532  -0.770   1.955  1.9028 -3.1195 -1.2065
  558MOL0     H76966   8.323  -0.943   2.490  1.4082 -0.6995  2.0066
  558MOL0     H76967   8.131  -1.031   2.621 -0.0121  0.9099 -2.2097
  558MOL0     H76968   8.180  -1.475   2.778 -0.6450  0.7642 -0.0302
  558MOL0     H76969   8.243  -1.352   2.879 -2.1579 -0.0521  2.9500
  558MOL0     H76970   8.007  -1.296   2.955  0.7611 -0.5214  0.7863
  558MOL0     H76971   7.949  -1.424   2.848 -1.2378  3.4186 -0.0209
  558MOL0     H76972   8.145  -1.505   3.075  0.0028 -0.9220  2.2495
  558MOL0     H76973   8.049  -1.600   2.971 -1.1375 -0.2870  2.2025
  558MOL0     H76974   7.839  -1.459   3.072 -1.1080 -1.5051 -0.2296
  558MOL0     H76975   7.961  -1.385   3.177 -0.1795  2.2078 -2.7009
  558MOL0     H76976   8.025  -1.607   3.241 -0.5943 -1.4605  2.2858
  558MOL0     H76977   7.870  -1.540   3.309 -1.1418  0.8922 -1.0939
  558MOL0     H76978   7.905  -1.750   3.085 -1.0204  0.1397 -0.4400
  558MOL0     H76979   7.742  -1.696   3.155 -0.2450  3.2402  3.3145
  558MOL0     H76980   7.786  -1.774   3.365  0.6716  1.3752 -0.1973
  558MOL0     H76981   7.960  -1.799   3.340  0.4358  2.0048 -0.4903
  558MOL0     H76982   7.886  -2.003   3.182  0.1673  0.2738 -0.5614
  558MOL0     H76983   7.721  -1.954   3.222 -0.5464  0.5061  1.1954
  558MOL0     H76984   8.350  -1.381   2.683  0.4012 -0.8639 -0.8726
  558MOL0     H76985   8.534  -1.297   2.525  0.9688  0.7421  0.2305
  558MOL0     H76986   8.794  -1.026   2.374  1.2601 -0.7665 -0.5119
  558MOL0     H76987   8.980  -0.962   2.264 -0.4645  0.4645 -0.6509
  558MOL0     H76988   9.040   0.754   2.236 -0.2672 -0.8019 -1.0522
  558MOL0     H76989   8.897   0.908   2.347  2.0511  0.1964 -0.0800
  558MOL0     H76990   8.463   1.118   2.236 -2.1454  0.9691  0.4317
  558MOL0     H76991   8.285   1.216   2.316  1.8978 -2.8359 -0.7453
  558MOL0     H76992   8.106   1.464   2.285  1.2612  2.5060 -1.3653
  558MOL0     H76993   8.104   1.329   2.404 -2.3028  0.4125  0.5657
  558MOL0     H76994   8.058   1.631   2.450  3.8923  0.0430  0.7298
  558MOL0     H76995   8.077   1.516   2.588  2.6466 -2.4377 -1.4078
  558MOL0     H76996   7.825   1.518   2.405  0.3699  0.8157  1.0953
  558MOL0     H76997   7.881   1.375   2.476  0.8029 -0.3999 -0.2804
  558MOL0     H76998   7.830   1.638   2.632 -5.5775  1.0132  1.3739
  558MOL0     H76999   7.857   1.484   2.710 -0.9547  1.0056  0.9636
  558MOL0     H77000   7.453   1.559   2.578 -0.4491 -0.0139 -0.7862
  558MOL0     H77001   8.508   1.553   2.437  2.9713  0.2694 -0.6044
  558MOL0     H77002   8.735   1.559   2.433 -0.2562 -3.2728  2.7916
  558MOL0     H77003   8.832   1.429   2.396  1.7653  0.7929 -1.4166
  558MOL0     H77004   8.767   1.516   2.255  0.1545  0.4394 -0.6360
  559MOL0     O77005   8.204  11.309   0.172 -0.8859  0.2264 -0.0407
  559MOL0     C77006   8.164  11.394   0.086 -0.5590 -0.0871 -0.1624
  559MOL0     O77007   8.103  11.511   0.115 -0.3596  0.2789  0.1795
  559MOL0     C77008   8.076  11.578   0.231 -0.0245 -0.4196 -1.4977
  559MOL0     C77009   8.106  11.532   0.354  0.5511  0.4150  0.1334
  559MOL0     C77010   8.071  11.597   0.471 -0.6199 -0.5880 -0.3912
  559MOL0     C77011   8.037  11.735   0.465 -0.7197 -0.0280 -1.0030
  559MOL0     O77012   8.039  11.804   0.582  0.4346 -0.3333  0.0236
  559MOL0     C77013   7.986  11.941   0.586  0.8052 -0.8069 -0.3736
  559MOL0     C77014   7.840  11.953   0.616  0.7086 -0.4245 -0.0221
  559MOL0     C77015   7.784  11.875   0.736  0.8574  0.3639  0.0586
  559MOL0     C77016   7.845  11.913   0.870  0.3553  0.2577  0.3962
  559MOL0     C77017   7.755  11.872   0.997 -0.2048 -0.8144 -0.0133
  559MOL0     C77018   7.848  11.871   1.125  0.6011  0.0216  0.2723
  559MOL0     C77019   7.756  11.827   1.236 -0.2830  1.2831 -0.5911
  559MOL0     C77020   7.839  11.770   1.353 -0.6781  0.3034 -0.7923
  559MOL0     N77021   7.753  11.724   1.462 -0.0827  0.3190 -0.3814
  559MOL0     C77022   7.679  11.803   1.547  0.3770 -0.6500  0.7473
  559MOL0     C77023   7.642  11.710   1.637  0.3167 -0.9123 -0.2456
  559MOL0     C77024   7.565  11.735   1.759  0.8722 -0.3986 -0.5192
  559MOL0     C77025   7.644  11.824   1.858 -0.3391 -0.5526 -0.4008
  559MOL0     C77026   7.714  11.748   1.970  0.6466 -0.9720 -0.5779
  559MOL0     C77027   7.828  11.647   1.924  0.7825 -0.4482  0.4998
  559MOL0     O77028   7.908  11.704   1.824 -1.0029 -0.0547  0.0604
  559MOL0     C77029   7.988  11.628   1.744  0.4596 -0.1250  0.1093
  559MOL0     C77030   8.077  11.683   1.647  0.2672  0.0204  0.4932
  559MOL0     C77031   8.143  11.603   1.556  0.7514  0.3534 -0.3651
  559MOL0     C77032   8.213  11.671   1.440  0.3265  0.1258 -0.4458
  559MOL0     C77033   8.141  11.460   1.568 -0.3783 -0.4670 -0.1615
  559MOL0     C77034   8.229  11.370   1.477  0.6960  0.0815 -0.4252
  559MOL0     O77035   8.193  11.236   1.475  0.3520 -0.4344  0.4668
  559MOL0     C77036   8.260  11.144   1.404 -0.8106  1.1476  0.6007
  559MOL0     C77037   8.251  11.018   1.456 -0.3445 -0.2238  0.4141
  559MOL0     C77038   8.316  10.908   1.395  0.4835  0.5467 -0.2300
  559MOL0     C77039   8.368  10.914   1.269  0.0366  0.9000  0.0519
  559MOL0     O77040   8.421  10.803   1.198 -0.3156 -0.4487 -0.0930
  559MOL0     C77041   8.568  10.796   1.221  0.3192 -1.2292 -0.0340
  559MOL0     C77042   8.637  10.764   1.092  0.4364 -0.3125  0.5118
  559MOL0     C77043   8.636  10.870   0.979  0.1814 -0.1485  1.2968
  559MOL0     C77044   8.775  10.920   0.944 -0.8321  0.1410  0.4059
  559MOL0     C77045   8.771  10.999   0.814  0.3875 -1.2605  0.1585
  559MOL0     C77046   8.911  11.035   0.771 -0.2239 -0.1279  0.3051
  559MOL0     C77047   8.904  11.119   0.646 -0.3643  0.4966  0.9062
  559MOL0     C77048   9.023  11.223   0.631  0.3104 -0.0397 -0.0248
  559MOL0    Cl77049   8.989  11.382   0.695  0.3870  0.2952  0.1757
  559MOL0     C77050   8.376  11.038   1.206  0.4962  0.0652 -0.8216
  559MOL0     C77051   8.319  11.150   1.272 -0.4724 -0.2246  0.3256
  559MOL0     O77052   8.333  11.403   1.428 -0.8855 -0.6111 -0.4779
  559MOL0     C77053   8.065  11.405   1.671  0.2202 -0.5343 -0.1860
  559MOL0     C77054   7.984  11.488   1.742  0.1744  1.1128  1.4414
  559MOL0     N77055   7.684  11.589   1.597 -0.0481  0.0288 -0.2944
  559MOL0     N77056   7.760  11.590   1.501  0.3656 -0.1670 -0.2856
  559MOL0     C77057   8.028  11.795   0.337 -0.5229 -0.0172  0.2755
  559MOL0     C77058   8.039  11.711   0.224  0.6953  0.1004  1.1813
  559MOL0     C77059   8.186  11.366  -0.050 -0.3417  0.1429 -0.5360
  559MOL0     C77060   8.216  11.482  -0.139  0.2931 -0.2439  0.2120
  559MOL0     C77061   8.261  11.470  -0.272  1.4309 -0.3177  0.0916
  559MOL0     C77062   8.252  11.333  -0.332  0.1904  0.4597 -0.0096
  559MOL0     O77063   8.296  11.317  -0.464  0.7165  0.5280 -0.2997
  559MOL0     C77064   8.232  11.400  -0.556  0.9940  0.4746 -0.6070
  559MOL0     C77065   8.197  11.329  -0.684 -0.5556 -0.9320  0.8787
  559MOL0     C77066   8.182  11.182  -0.680  0.2092  0.9446 -0.1769
  559MOL0     C77067   8.097  11.134  -0.799 -0.6000 -0.6521  0.5325
  559MOL0     C77068   7.955  11.168  -0.780  0.1632  0.2729 -0.4416
  559MOL0     C77069   7.833  11.193  -0.767 -0.3857 -0.0744 -0.1990
  559MOL0     C77070   8.222  11.218  -0.248  0.4035 -0.2535  0.0922
  559MOL0     C77071   8.184  11.234  -0.112 -0.9145 -0.6289 -0.1605
  559MOL0     C77072   8.154  11.110  -0.033 -0.4360  0.3336 -0.0240
  559MOL0     H77073   8.146  11.433   0.370 -3.0911 -0.8974  2.5487
  559MOL0     H77074   8.079  11.538   0.561 -0.9874  0.0390  0.0644
  559MOL0     H77075   8.006  12.004   0.500  1.4574  0.4540  0.6589
  559MOL0     H77076   8.035  12.000   0.665  1.8304 -2.1556  0.0368
  559MOL0     H77077   7.821  12.061   0.618  1.3593 -0.3041 -0.2479
  559MOL0     H77078   7.780  11.929   0.528 -0.8577  1.9327  0.3054
  559MOL0     H77079   7.679  11.905   0.736  1.3800  2.6503 -2.7589
  559MOL0     H77080   7.800  11.769   0.712  3.4356  0.7752 -0.3064
  559MOL0     H77081   7.950  11.882   0.878  1.0529  1.9214 -1.3513
  559MOL0     H77082   7.850  12.022   0.864 -2.9981  0.4095 -1.3387
  559MOL0     H77083   7.725  11.770   0.970 -0.9721 -0.0865 -2.0665
  559MOL0     H77084   7.675  11.942   1.021 -0.6431 -1.3539  0.1103
  559MOL0     H77085   7.940  11.813   1.110  1.1539  0.6170  1.2442
  559MOL0     H77086   7.877  11.976   1.141 -0.8945  0.5726 -0.4178
  559MOL0     H77087   7.689  11.749   1.197  1.2542  0.4443 -1.6661
  559MOL0     H77088   7.694  11.909   1.273 -0.7225  0.8429 -0.3363
  559MOL0     H77089   7.913  11.694   1.325  0.3961  0.4665  1.4220
  559MOL0     H77090   7.900  11.852   1.393  1.0042 -1.0896 -0.3686
  559MOL0     H77091   7.678  11.911   1.547  0.1822 -0.6435 -0.0111
  559MOL0     H77092   7.548  11.643   1.815  1.5393 -0.7184 -0.8223
  559MOL0     H77093   7.471  11.789   1.745 -0.1661  0.0514  5.5149
  559MOL0     H77094   7.719  11.880   1.801 -0.9597 -0.2797 -0.9656
  559MOL0     H77095   7.579  11.901   1.901  1.9110  1.7104 -0.7677
  559MOL0     H77096   7.754  11.828   2.033 -1.7338  1.0254 -1.4645
  559MOL0     H77097   7.637  11.699   2.030  1.9200 -2.2888  0.0638
  559MOL0     H77098   7.878  11.607   2.012  1.3159 -4.6806 -1.4895
  559MOL0     H77099   7.778  11.559   1.883  2.6878 -0.9908 -0.7657
  559MOL0     H77100   8.086  11.791   1.643 -0.5137  0.1081  0.8488
  559MOL0     H77101   8.320  11.649   1.440  0.3816  0.1741  2.1673
  559MOL0     H77102   8.199  11.779   1.450 -0.8664  0.0947 -1.4784
  559MOL0     H77103   8.171  11.648   1.341 -0.0830  1.8368 -0.7049
  559MOL0     H77104   8.205  11.001   1.553 -2.3419 -2.5232 -0.8117
  559MOL0     H77105   8.302  10.808   1.436  0.7883 -0.7666 -3.1240
  559MOL0     H77106   8.622  10.877   1.271  1.8814 -1.2352 -1.6286
  559MOL0     H77107   8.584  10.712   1.288  1.9128 -1.4680 -0.6783
  559MOL0     H77108   8.734  10.723   1.120 -0.0773 -1.3274  0.8789
  559MOL0     H77109   8.585  10.679   1.047  0.6289 -0.2324  0.1341
  559MOL0     H77110   8.575  10.956   1.011 -0.3030 -0.1856  0.5032
  559MOL0     H77111   8.587  10.819   0.896  4.7683 -3.0442 -0.0210
  559MOL0     H77112   8.843  10.837   0.922  0.4944  1.4940 -0.8703
  559MOL0     H77113   8.820  10.968   1.031 -0.9000 -1.7702  1.5489
  559MOL0     H77114   8.718  10.948   0.733  1.8680 -0.0904 -1.6352
  559MOL0     H77115   8.728  11.094   0.847  3.2172 -0.0699  0.7876
  559MOL0     H77116   8.974  10.946   0.764  2.8883  1.9882 -0.6278
  559MOL0     H77117   8.947  11.096   0.855 -0.2852 -1.7840  1.5937
  559MOL0     H77118   8.808  11.171   0.635  1.1463  3.1951 -0.4495
  559MOL0     H77119   8.916  11.057   0.557 -0.2593  2.0633 -0.2042
  559MOL0     H77120   9.044  11.247   0.526  1.1558 -0.6918 -0.0177
  559MOL0     H77121   9.112  11.184   0.680  0.0522 -1.7791 -0.8659
  559MOL0     H77122   8.413  11.052   1.105  0.7651  0.6576 -0.6430
  559MOL0     H77123   8.311  11.245   1.220 -1.0145 -0.3862  0.1039
  559MOL0     H77124   8.054  11.298   1.676  1.7222 -0.7204 -0.3227
  559MOL0     H77125   7.927  11.430   1.813  0.2301 -0.4790  0.2349
  559MOL0     H77126   8.025  11.899   0.306 -3.6536 -0.2416 -0.4831
  559MOL0     H77127   8.050  11.737   0.119  1.5252 -2.9963  0.3978
  559MOL0     H77128   8.222  11.581  -0.094  0.5058 -0.1303 -0.0623
  559MOL0     H77129   8.268  11.554  -0.340 -1.0778  1.0058  1.3269
  559MOL0     H77130   8.140  11.435  -0.508  2.1892  2.0714  0.6607
  559MOL0     H77131   8.296  11.487  -0.574  0.5230  0.8487 -0.4978
  559MOL0     H77132   8.270  11.361  -0.759 -3.4814  0.6530 -1.5122
  559MOL0     H77133   8.105  11.370  -0.727 -0.5590 -1.5715  0.2509
  559MOL0     H77134   8.286  11.146  -0.686 -0.0734 -0.0202  0.4550
  559MOL0     H77135   8.146  11.151  -0.582  0.8879  1.3594  0.2120
  559MOL0     H77136   8.106  11.026  -0.819 -1.4536 -0.5744 -0.2947
  559MOL0     H77137   8.132  11.197  -0.881  2.1405  1.8800  3.3935
  559MOL0     H77138   7.726  11.197  -0.774 -0.5989 -2.4666  0.6391
  559MOL0     H77139   8.206  11.120  -0.292 -2.6821 -0.1383  0.7420
  559MOL0     H77140   8.092  11.127   0.055  0.7908 -0.6014  1.0523
  559MOL0     H77141   8.118  11.032  -0.101 -1.2085 -1.1789  2.0245
  559MOL0     H77142   8.246  11.070   0.011 -0.1821  1.8859  0.9040
  560MOL0     O77143   5.614   9.141   0.470 -0.6046 -0.3704  0.5002
  560MOL0     C77144   5.604   9.049   0.395 -0.4141  0.3592  0.1299
  560MOL0     O77145   5.545   9.055   0.272 -0.0655 -0.5102 -0.2393
  560MOL0     C77146   5.515   9.176   0.205 -0.3976  0.7276  0.8758
  560MOL0     C77147   5.544   9.306   0.247 -0.4359  0.5909 -0.5653
  560MOL0     C77148   5.511   9.427   0.173 -0.7846 -0.4248 -0.1331
  560MOL0     C77149   5.459   9.410   0.042  0.3875  0.0776 -0.4855
  560MOL0     O77150   5.443   9.504  -0.058  0.0857 -0.0484 -0.0621
  560MOL0     C77151   5.421   9.634  -0.010 -0.8945  0.4636 -0.2629
  560MOL0     C77152   5.391   9.730  -0.125 -0.0746  0.2085  0.5362
  560MOL0     C77153   5.238   9.746  -0.156 -0.2820  0.0201 -1.2166
  560MOL0     C77154   5.182   9.625  -0.223 -0.1924 -1.1515 -0.1021
  560MOL0     C77155   5.036   9.641  -0.269 -0.5574 -0.4083  0.1954
  560MOL0     C77156   4.944   9.649  -0.151 -0.4536 -0.9567 -0.1730
  560MOL0     C77157   4.800   9.642  -0.208 -0.2087  0.1013 -0.8305
  560MOL0     C77158   4.763   9.721  -0.335  0.0670  0.1244  0.1013
  560MOL0     N77159   4.816   9.864  -0.324  0.5953  0.1409  0.1576
  560MOL0     C77160   4.920   9.916  -0.400  0.1819 -0.6837 -0.8915
  560MOL0     C77161   4.922  10.048  -0.357  0.4752  0.2140  0.0267
  560MOL0     C77162   5.025  10.136  -0.413 -0.0870 -0.7428  0.7276
  560MOL0     C77163   5.015  10.288  -0.392  0.1020  0.0265  0.0645
  560MOL0     C77164   5.074  10.354  -0.509  0.8744  0.6041 -0.1187
  560MOL0     C77165   5.118  10.499  -0.479 -0.0371  0.3479 -0.7063
  560MOL0     O77166   5.211  10.505  -0.366  0.0459  0.8600 -0.3522
  560MOL0     C77167   5.200  10.617  -0.282 -0.4921  0.3627  0.1998
  560MOL0     C77168   5.222  10.598  -0.144 -0.4220  0.6502 -0.5247
  560MOL0     C77169   5.231  10.708  -0.051 -0.2019 -0.0746  0.1984
  560MOL0     C77170   5.252  10.674   0.096  0.0500 -0.7014 -0.1303
  560MOL0     C77171   5.201  10.836  -0.099  0.0529 -0.4682  0.1150
  560MOL0     C77172   5.184  10.952  -0.011  0.1491 -0.1908 -0.1326
  560MOL0     O77173   5.277  10.969   0.084 -0.0070 -0.2383 -0.2959
  560MOL0     C77174   5.275  11.081   0.167  0.6905  0.1963  0.7473
  560MOL0     C77175   5.370  11.181   0.147  0.0986 -0.2773  1.3551
  560MOL0     C77176   5.365  11.299   0.223  0.0334 -0.3822 -0.2394
  560MOL0     C77177   5.272  11.327   0.319  0.1059 -0.9091 -0.8066
  560MOL0     O77178   5.267  11.434   0.403 -0.0426 -0.3914 -0.7912
  560MOL0     C77179   5.344  11.553   0.372 -0.2282 -0.2321  0.2477
  560MOL0     C77180   5.495  11.545   0.419 -0.4665  0.4641 -0.7286
  560MOL0     C77181   5.575  11.648   0.324  0.7568  0.8000 -0.3973
  560MOL0     C77182   5.732  11.642   0.350 -0.0594 -0.4389  0.2136
  560MOL0     C77183   5.809  11.745   0.268  0.1171 -0.2242  1.4602
  560MOL0     C77184   5.865  11.702   0.136 -0.1200  0.0863 -0.3259
  560MOL0     C77185   5.964  11.585   0.141  0.9033 -0.4575 -0.8467
  560MOL0     C77186   6.005  11.534   0.011  0.2177  0.0616  0.0794
  560MOL0    Cl77187   6.090  11.380   0.027  0.7077 -0.0455 -0.2410
  560MOL0     C77188   5.175  11.227   0.342 -0.2744 -0.0958 -0.0646
  560MOL0     C77189   5.178  11.108   0.272 -0.6485  0.6615  0.5309
  560MOL0     O77190   5.099  11.037  -0.052  0.4680  1.3836  0.2120
  560MOL0     C77191   5.164  10.845  -0.231 -0.9616 -0.2831 -0.1881
  560MOL0     C77192   5.170  10.740  -0.320 -0.6858 -1.1408 -0.6132
  560MOL0     N77193   4.837  10.065  -0.252  0.0703  0.3935  0.9515
  560MOL0     N77194   4.763   9.955  -0.237 -0.4230  0.0164  1.3543
  560MOL0     C77195   5.437   9.278   0.003  0.1220  0.9324  0.6369
  560MOL0     C77196   5.472   9.164   0.074  0.4081 -0.3444 -1.1609
  560MOL0     C77197   5.630   8.911   0.443 -1.3045  0.3960  0.7677
  560MOL0     C77198   5.512   8.841   0.460  0.2674 -0.3532 -0.1413
  560MOL0     C77199   5.521   8.709   0.492  0.7233 -0.0625  0.0733
  560MOL0     C77200   5.651   8.645   0.506  0.8637  0.7870  0.0151
  560MOL0     O77201   5.647   8.521   0.551 -0.3110  0.5784 -0.6545
  560MOL0     C77202   5.764   8.449   0.618  1.1610 -0.5297 -0.3092
  560MOL0     C77203   5.735   8.303   0.662 -0.8023  1.1760  0.3238
  560MOL0     C77204   5.592   8.295   0.721  0.1713 -0.2758  0.2306
  560MOL0     C77205   5.569   8.391   0.832 -0.0490  0.1273 -0.4652
  560MOL0     C77206   5.468   8.329   0.915 -0.3686 -0.4937 -0.8499
  560MOL0     C77207   5.379   8.285   0.991  0.8808 -0.5963  0.5307
  560MOL0     C77208   5.765   8.721   0.503 -0.4241  0.2317 -0.0374
  560MOL0     C77209   5.756   8.859   0.474 -0.2654  0.4585  0.0115
  560MOL0     C77210   5.882   8.952   0.483 -0.1888 -0.7205  0.0303
  560MOL0     H77211   5.591   9.337   0.339 -2.6825  2.1303  0.1534
  560MOL0     H77212   5.548   9.521   0.212 -0.8024 -0.3434 -0.3073
  560MOL0     H77213   5.512   9.671   0.038 -1.5632  2.3295 -0.3555
  560MOL0     H77214   5.340   9.629   0.064 -2.4332  2.5743 -1.6928
  560MOL0     H77215   5.431   9.829  -0.098 -3.5793  1.8888  0.1359
  560MOL0     H77216   5.437   9.702  -0.221 -3.5203  0.5487 -1.3527
  560MOL0     H77217   5.187   9.753  -0.059  1.8497 -2.0520  0.1581
  560MOL0     H77218   5.212   9.837  -0.210 -0.1935  3.0154  3.2186
  560MOL0     H77219   5.246   9.612  -0.311  1.9179  3.4981  0.4720
  560MOL0     H77220   5.194   9.538  -0.157 -1.3678 -0.4049  1.1520
  560MOL0     H77221   5.002   9.550  -0.321  1.0254 -0.0312 -1.5987
  560MOL0     H77222   5.021   9.723  -0.339 -2.0869  2.9896  4.0793
  560MOL0     H77223   4.962   9.572  -0.076  1.1370  0.5187  1.0379
  560MOL0     H77224   4.957   9.743  -0.097  0.2575 -1.2854  0.2349
  560MOL0     H77225   4.739   9.679  -0.125  0.5532 -0.1052 -0.1745
  560MOL0     H77226   4.767   9.538  -0.223  0.6540 -0.1527 -0.9935
  560MOL0     H77227   4.791   9.665  -0.425  0.9668 -1.1968  1.1658
  560MOL0     H77228   4.654   9.721  -0.348 -0.4049 -2.8564  2.7769
  560MOL0     H77229   4.984   9.881  -0.480  0.2455 -2.7365  0.0086
  560MOL0     H77230   5.029  10.106  -0.518  1.6715 -2.1406  1.1314
  560MOL0     H77231   5.116  10.096  -0.366  0.9900  2.8878  2.0444
  560MOL0     H77232   4.911  10.320  -0.378 -0.6319 -1.7336 -0.9784
  560MOL0     H77233   5.061  10.316  -0.297 -0.8702  1.9366  0.0372
  560MOL0     H77234   5.166  10.304  -0.540  1.8134  3.0049 -1.5324
  560MOL0     H77235   5.011  10.350  -0.598 -0.6952  1.3168  0.9056
  560MOL0     H77236   5.159  10.542  -0.571  3.3675 -0.8435  0.1064
  560MOL0     H77237   5.036  10.562  -0.441 -0.9635 -0.3941 -1.4173
  560MOL0     H77238   5.233  10.495  -0.111  0.9442  1.1225  0.5998
  560MOL0     H77239   5.249  10.565   0.103  2.3324 -0.7845  0.3106
  560MOL0     H77240   5.165  10.718   0.145  2.1261  0.1500  3.1036
  560MOL0     H77241   5.346  10.722   0.124 -0.4301  1.1867 -1.5163
  560MOL0     H77242   5.454  11.165   0.080 -1.7688  0.8022 -1.4410
  560MOL0     H77243   5.445  11.371   0.213  0.9855 -1.5869 -1.6774
  560MOL0     H77244   5.340  11.579   0.266 -0.6787 -1.2721  0.0014
  560MOL0     H77245   5.289  11.632   0.423 -0.9012 -0.7122  0.2766
  560MOL0     H77246   5.508  11.576   0.523  0.6189 -3.4774  0.4682
  560MOL0     H77247   5.548  11.452   0.396  0.7215  0.7418  0.7074
  560MOL0     H77248   5.547  11.751   0.349  2.2470  0.8020  1.5239
  560MOL0     H77249   5.554  11.621   0.220  2.0672 -0.6927 -0.3077
  560MOL0     H77250   5.772  11.540   0.342  0.6034 -0.1977  0.3355
  560MOL0     H77251   5.747  11.670   0.455  1.0101  2.1160 -0.5461
  560MOL0     H77252   5.748  11.835   0.258  1.0334  0.2412 -0.4660
  560MOL0     H77253   5.894  11.783   0.325  0.0966  1.4457  0.4522
  560MOL0     H77254   5.917  11.790   0.097 -1.0371  0.5706 -0.4582
  560MOL0     H77255   5.774  11.690   0.076 -2.1145  2.1843  2.0846
  560MOL0     H77256   5.917  11.508   0.202  1.4662  1.5849  2.4659
  560MOL0     H77257   6.054  11.620   0.192 -0.1738  2.7453 -0.8840
  560MOL0     H77258   6.064  11.608  -0.045 -1.4133 -0.0423 -1.9294
  560MOL0     H77259   5.914  11.506  -0.043 -0.0555 -2.8432  1.8616
  560MOL0     H77260   5.097  11.257   0.411  0.2239  1.4733 -0.1400
  560MOL0     H77261   5.121  11.018   0.292  0.0617  0.2295  0.6668
  560MOL0     H77262   5.139  10.943  -0.271  5.0940  2.5080  1.5443
  560MOL0     H77263   5.135  10.752  -0.423 -1.4266 -1.2800 -0.3846
  560MOL0     H77264   5.396   9.267  -0.098 -0.2519 -1.4701  0.9867
  560MOL0     H77265   5.456   9.063   0.038 -3.1351 -1.7231  3.2903
  560MOL0     H77266   5.425   8.904   0.443 -0.6448 -0.0227  4.4525
  560MOL0     H77267   5.426   8.656   0.493  0.1526  0.9309  1.1741
  560MOL0     H77268   5.848   8.444   0.549  1.0681 -0.4528 -0.4280
  560MOL0     H77269   5.786   8.512   0.705  2.3717 -1.0375 -0.2249
  560MOL0     H77270   5.809   8.275   0.738 -0.5969  0.3248 -0.1742
  560MOL0     H77271   5.743   8.232   0.579  2.3777  1.3533  0.3727
  560MOL0     H77272   5.525   8.318   0.637 -0.2575  0.1440  0.6770
  560MOL0     H77273   5.562   8.195   0.753 -0.4996  0.4722  2.0782
  560MOL0     H77274   5.535   8.483   0.786  1.1875  1.8589  1.8554
  560MOL0     H77275   5.659   8.421   0.887  0.5591 -0.6481 -1.0148
  560MOL0     H77276   5.290   8.246   1.037  1.8225 -3.3939  0.1479
  560MOL0     H77277   5.862   8.680   0.530 -2.0620 -1.9228  3.1543
  560MOL0     H77278   5.972   8.892   0.466  1.4603  1.5149  0.4813
  560MOL0     H77279   5.879   9.026   0.403 -0.1693 -2.5258 -1.7250
  560MOL0     H77280   5.880   9.008   0.576 -1.2154 -1.5698  0.5423
  561MOL0     O77281  10.118  11.529   3.427 -0.3030 -0.7095 -0.3683
  561MOL0     C77282  10.009  11.580   3.471 -0.3382  0.7173 -0.1548
  561MOL0     O77283   9.918  11.639   3.389 -0.4078 -0.3496 -0.2249
  561MOL0     C77284   9.961  11.648   3.258  0.5201 -0.1885  0.1714
  561MOL0     C77285  10.047  11.746   3.198  0.3969  1.1457  0.5103
  561MOL0     C77286  10.035  11.756   3.053  0.3925  0.1751 -0.2654
  561MOL0     C77287   9.962  11.664   2.980  0.3869  0.9503 -0.4240
  561MOL0     O77288   9.956  11.666   2.841 -0.0335  0.2492 -0.1296
  561MOL0     C77289   9.965  11.795   2.775 -0.0733  0.7630  0.0304
  561MOL0     C77290   9.899  11.770   2.638  0.8423 -0.5371  0.9659
  561MOL0     C77291   9.988  11.689   2.543  0.9641  0.3914 -0.3677
  561MOL0     C77292   9.906  11.625   2.442 -0.9930  1.2566  0.6175
  561MOL0     C77293  10.008  11.560   2.340  0.7018  0.5129 -0.2054
  561MOL0     C77294  10.090  11.668   2.270 -0.4310  0.1006  0.0648
  561MOL0     C77295  10.122  11.621   2.126 -0.6832  0.3426  0.1525
  561MOL0     C77296  10.221  11.708   2.050 -0.1879 -0.1282  0.3418
  561MOL0     N77297  10.363  11.699   2.092  0.3420  0.3908 -0.1524
  561MOL0     C77298  10.421  11.579   2.099  0.1631  0.1013 -0.3913
  561MOL0     C77299  10.525  11.598   2.181  1.0578  0.1906 -0.2323
  561MOL0     C77300  10.605  11.478   2.226  0.6100  0.4262 -0.2313
  561MOL0     C77301  10.740  11.464   2.155 -0.2226 -0.5290  0.2392
  561MOL0     C77302  10.833  11.591   2.145 -0.0971  0.1096 -0.7772
  561MOL0     C77303  10.944  11.552   2.045  0.3498 -0.0571 -0.1300
  561MOL0     O77304  10.906  11.583   1.909 -0.6177  0.0046  0.5814
  561MOL0     C77305  10.994  11.568   1.802 -0.3121 -0.0992  0.6373
  561MOL0     C77306  10.955  11.627   1.678  0.7573 -0.1062  1.1876
  561MOL0     C77307  11.017  11.598   1.552 -0.4881 -0.2634 -0.2147
  561MOL0     C77308  10.959  11.657   1.420 -0.5957 -0.1231 -1.1032
  561MOL0     C77309  11.124  11.505   1.549 -0.6423 -0.2206 -0.1564
  561MOL0     C77310  11.207  11.457   1.425  0.1359 -0.0445  0.5769
  561MOL0     O77311  11.250  11.326   1.445  0.4228  0.7992 -0.1653
  561MOL0     C77312  11.309  11.255   1.340 -0.4942 -0.0077 -0.2537
  561MOL0     C77313  11.268  11.115   1.336  0.2389 -0.1334  0.4323
  561MOL0     C77314  11.322  11.033   1.241  0.6814  0.2609  0.1071
  561MOL0     C77315  11.421  11.077   1.150  0.6397 -0.5491  0.4769
  561MOL0     O77316  11.469  11.019   1.027  0.1274 -0.2083  0.1872
  561MOL0     C77317  11.519  10.895   1.052 -0.3249 -0.0788 -0.2980
  561MOL0     C77318  11.524  10.827   0.921 -0.0313 -0.7173  0.2136
  561MOL0     C77319  11.641  10.895   0.848 -0.4044  0.2678  0.3258
  561MOL0     C77320  11.638  10.868   0.691  0.7168  0.3787 -0.3225
  561MOL0     C77321  11.767  10.859   0.627 -0.4517 -0.2881 -0.3952
  561MOL0     C77322  11.852  10.986   0.634 -0.6218  0.7488  0.1938
  561MOL0     C77323  11.979  10.970   0.544 -0.2421  0.2368 -0.3658
  561MOL0     C77324  12.093  11.049   0.607  0.6845  0.6959 -0.4559
  561MOL0    Cl77325  12.243  11.010   0.525 -0.1094  0.1982 -0.1512
  561MOL0     C77326  11.463  11.209   1.163 -0.1706  1.0459  0.2373
  561MOL0     C77327  11.409  11.295   1.257  0.6777  0.5847  0.3422
  561MOL0     O77328  11.215  11.532   1.325  2.1061 -0.1182  0.1445
  561MOL0     C77329  11.168  11.453   1.667 -0.7234 -0.4233 -0.8799
  561MOL0     C77330  11.110  11.484   1.797 -0.6985 -0.1237  0.4522
  561MOL0     N77331  10.534  11.735   2.225 -1.1692  0.2662 -0.2684
  561MOL0     N77332  10.431  11.794   2.164  0.5545  0.3023  0.1892
  561MOL0     C77333   9.906  11.559   3.044 -0.2880 -0.5447  0.4151
  561MOL0     C77334   9.899  11.557   3.177 -1.0930 -0.2048  0.7227
  561MOL0     C77335   9.985  11.576   3.612  0.5022 -0.1681 -0.2008
  561MOL0     C77336  10.004  11.696   3.693  0.6810  0.4330 -0.2514
  561MOL0     C77337   9.974  11.695   3.837  0.4308 -0.8225  1.3684
  561MOL0     C77338   9.917  11.584   3.894 -0.8767  0.4726 -0.4258
  561MOL0     O77339   9.907  11.577   4.032  0.0550  0.2225  1.0478
  561MOL0     C77340   9.889  11.445   4.093  0.1037 -0.0672  1.0733
  561MOL0     C77341   9.770  11.427   4.184 -0.0043  0.0395  1.0760
  561MOL0     C77342   9.622  11.437   4.122 -0.0139 -0.3137 -0.3770
  561MOL0     C77343   9.516  11.449   4.237 -0.2879  0.3545  0.4032
  561MOL0     C77344   9.383  11.479   4.177 -0.5716 -0.6127 -1.5724
  561MOL0     C77345   9.274  11.514   4.146  0.9248  0.3914 -0.1227
  561MOL0     C77346   9.874  11.492   3.807 -0.2439  0.3532  0.0442
  561MOL0     C77347   9.913  11.471   3.663  0.1906 -0.3447 -0.4849
  561MOL0     C77348   9.845  11.368   3.572 -0.8705 -0.8349 -0.1493
  561MOL0     H77349  10.088  11.823   3.262  0.4743  2.0468 -0.5923
  561MOL0     H77350  10.083  11.842   3.008 -1.1985  1.7797  0.9981
  561MOL0     H77351  10.057  11.853   2.760 -1.1555  1.9395 -2.6978
  561MOL0     H77352   9.894  11.866   2.820  0.5156  1.3425  0.0637
  561MOL0     H77353   9.807  11.714   2.656 -1.5680  0.9755 -4.4896
  561MOL0     H77354   9.882  11.871   2.601  1.0463 -0.6215  0.6330
  561MOL0     H77355  10.066  11.756   2.505  2.9532 -0.2176  2.3212
  561MOL0     H77356  10.031  11.600   2.590  0.2597  0.4637  0.4392
  561MOL0     H77357   9.848  11.548   2.494  0.5658  0.6617  1.5155
  561MOL0     H77358   9.843  11.700   2.392 -0.7126  0.6637 -0.6749
  561MOL0     H77359   9.951  11.504   2.267  2.1464  0.3469 -1.2515
  561MOL0     H77360  10.071  11.487   2.392  0.5635 -1.6821 -2.9438
  561MOL0     H77361  10.036  11.762   2.260  0.9839  0.7071 -2.7365
  561MOL0     H77362  10.186  11.685   2.319 -2.3944  2.1377  3.6378
  561MOL0     H77363  10.023  11.626   2.079  0.0421  0.2508 -1.4589
  561MOL0     H77364  10.163  11.519   2.122 -0.8663  0.2713  0.0908
  561MOL0     H77365  10.220  11.694   1.941  1.8493  1.9281 -0.0197
  561MOL0     H77366  10.183  11.809   2.068 -1.0243 -0.4041  0.1591
  561MOL0     H77367  10.380  11.480   2.082 -0.4635  0.0771  1.1125
  561MOL0     H77368  10.546  11.386   2.214  1.3328  0.2463 -3.0399
  561MOL0     H77369  10.619  11.488   2.334 -0.2865  0.3818 -0.0996
  561MOL0     H77370  10.795  11.380   2.198  1.8943  0.7971  0.2442
  561MOL0     H77371  10.711  11.435   2.054 -2.7243 -0.4873  0.8713
  561MOL0     H77372  10.775  11.681   2.124 -0.2771  0.6287  1.6860
  561MOL0     H77373  10.877  11.604   2.244  1.6598  1.6886 -1.6960
  561MOL0     H77374  11.019  11.624   2.080 -2.6279  2.9832  0.5220
  561MOL0     H77375  10.983  11.450   2.056  1.3330  0.2105 -1.0156
  561MOL0     H77376  10.867  11.690   1.689 -0.3092 -0.8934 -1.7676
  561MOL0     H77377  11.036  11.696   1.353 -1.9985 -0.6905 -3.1547
  561MOL0     H77378  10.888  11.736   1.447 -1.7497 -1.5052  0.0462
  561MOL0     H77379  10.897  11.578   1.378 -2.7668  0.6794  0.4254
  561MOL0     H77380  11.189  11.080   1.401  1.9898  1.4218  3.6087
  561MOL0     H77381  11.279  10.934   1.241 -1.7646  1.2272 -1.4525
  561MOL0     H77382  11.621  10.908   1.088 -0.3168  2.6189 -1.0715
  561MOL0     H77383  11.465  10.834   1.125 -1.0585  1.9528  0.9457
  561MOL0     H77384  11.546  10.722   0.938  1.6222 -0.6913 -1.4213
  561MOL0     H77385  11.431  10.829   0.863 -0.0218 -1.2826  0.1782
  561MOL0     H77386  11.735  10.861   0.895 -0.1390  0.6928  0.1038
  561MOL0     H77387  11.638  11.003   0.865 -0.4788  0.2801  0.2337
  561MOL0     H77388  11.575  10.951   0.658  1.8952  2.7263  2.8811
  561MOL0     H77389  11.589  10.771   0.678 -2.0083  1.5900  0.1143
  561MOL0     H77390  11.826  10.784   0.679 -1.1912  0.8615  2.3273
  561MOL0     H77391  11.749  10.829   0.523 -0.9357  0.6620 -0.6003
  561MOL0     H77392  11.882  11.001   0.738 -0.5439  0.3093  0.2387
  561MOL0     H77393  11.802  11.076   0.599  0.1861  0.4799 -1.7902
  561MOL0     H77394  11.960  10.998   0.439 -1.3955 -0.1265 -0.2669
  561MOL0     H77395  12.008  10.865   0.540  1.5909  0.7440 -1.1775
  561MOL0     H77396  12.090  11.024   0.714 -0.6994  0.0180 -0.6394
  561MOL0     H77397  12.071  11.156   0.597 -1.3906  0.7381  2.9613
  561MOL0     H77398  11.537  11.250   1.096  1.3813 -0.4010  1.0005
  561MOL0     H77399  11.448  11.392   1.287  5.6018 -2.0599  4.1263
  561MOL0     H77400  11.250  11.383   1.677 -1.3263 -1.6195 -3.5049
  561MOL0     H77401  11.148  11.440   1.888  0.9422  0.2232 -0.0220
  561MOL0     H77402   9.859  11.484   2.982  0.4142  0.5986 -1.5830
  561MOL0     H77403   9.845  11.476   3.225  1.6618 -3.3778 -1.1031
  561MOL0     H77404  10.048  11.790   3.659 -1.1592  0.4466 -2.8699
  561MOL0     H77405  10.022  11.772   3.897  1.2020 -2.3288  2.7501
  561MOL0     H77406   9.884  11.361   4.023 -1.6543 -0.0358  1.1246
  561MOL0     H77407   9.982  11.424   4.147  0.5549  1.7681  1.0675
  561MOL0     H77408   9.787  11.502   4.262  0.6205 -0.4398  1.4022
  561MOL0     H77409   9.772  11.333   4.240 -0.1260  0.8463  2.5011
  561MOL0     H77410   9.622  11.526   4.059  0.5976  1.2057  1.6799
  561MOL0     H77411   9.595  11.357   4.052  0.3478 -0.8548  0.0877
  561MOL0     H77412   9.535  11.526   4.312 -1.2994  2.9185 -1.8459
  561MOL0     H77413   9.506  11.359   4.299  2.4824 -0.1366  0.2475
  561MOL0     H77414   9.172  11.532   4.119  0.2356  1.7303  2.9293
  561MOL0     H77415   9.804  11.419   3.847 -4.0582  3.3671 -0.5620
  561MOL0     H77416   9.738  11.361   3.595 -1.0590  2.9620  0.7572
  561MOL0     H77417   9.862  11.386   3.466 -1.2136  2.2516  0.2436
  561MOL0     H77418   9.882  11.268   3.598 -1.0294 -1.4178 -2.0689
  562MOL0     O77419   1.296   2.125   2.016  1.1275  0.0565 -0.1347
  562MOL0     C77420   1.371   2.096   2.107 -0.5058 -0.4559 -0.2692
  562MOL0     O77421   1.345   2.099   2.240  0.3847 -0.5912  0.0885
  562MOL0     C77422   1.241   2.183   2.280  0.0970 -0.5077  0.1976
  562MOL0     C77423   1.151   2.136   2.374 -0.4235 -0.4691  0.0553
  562MOL0     C77424   1.070   2.229   2.438  0.3286  0.3109 -0.3233
  562MOL0     C77425   1.069   2.367   2.404  0.6831  0.0453 -0.1051
  562MOL0     O77426   0.982   2.448   2.474 -0.0867 -0.5432  0.1514
  562MOL0     C77427   0.952   2.568   2.407  0.1800 -0.6151  0.4420
  562MOL0     C77428   0.843   2.637   2.488 -0.7263  0.0056  0.7418
  562MOL0     C77429   0.825   2.791   2.451  0.0236 -0.5419 -0.3741
  562MOL0     C77430   0.793   2.817   2.300 -0.7997 -0.2064 -0.2572
  562MOL0     C77431   0.773   2.967   2.287  0.1606 -0.0918 -0.3548
  562MOL0     C77432   0.722   2.995   2.151  0.3082 -0.8041  1.1431
  562MOL0     C77433   0.828   2.990   2.034  0.8088 -0.4911 -0.0939
  562MOL0     C77434   0.845   2.849   1.977 -0.7544  0.5099 -0.6588
  562MOL0     N77435   0.992   2.809   1.982  0.5313 -0.0570  0.1982
  562MOL0     C77436   1.065   2.810   1.856  0.0923 -0.1455 -0.2884
  562MOL0     C77437   1.188   2.760   1.897  0.9403  0.8054 -0.7048
  562MOL0     C77438   1.316   2.763   1.821  0.1674 -0.6160  0.6542
  562MOL0     C77439   1.447   2.799   1.891  0.6458  0.9284 -1.4285
  562MOL0     C77440   1.548   2.843   1.785 -0.5106  0.2142 -0.1082
  562MOL0     C77441   1.691   2.863   1.835  0.7939 -1.0638  0.1009
  562MOL0     O77442   1.692   2.987   1.905  0.3103 -0.6452  0.5082
  562MOL0     C77443   1.682   2.992   2.042  0.2313  0.2287  1.0682
  562MOL0     C77444   1.664   2.888   2.135  0.7725  1.3731  0.3666
  562MOL0     C77445   1.663   2.909   2.276  0.4402 -0.2184 -0.3316
  562MOL0     C77446   1.636   2.795   2.377  1.0029 -1.0453  0.5995
  562MOL0     C77447   1.669   3.041   2.324  0.0759  0.1775  0.1840
  562MOL0     C77448   1.665   3.078   2.465  1.0763  0.1401 -0.4732
  562MOL0     O77449   1.766   3.021   2.544 -1.0600 -0.2306  0.2015
  562MOL0     C77450   1.758   3.041   2.682 -1.0640 -0.4201 -0.4877
  562MOL0     C77451   1.852   3.122   2.741 -0.1079 -0.4076 -0.5058
  562MOL0     C77452   1.848   3.143   2.881 -0.1113 -0.0572 -0.2961
  562MOL0     C77453   1.749   3.087   2.965  1.0582  1.3913 -0.7713
  562MOL0     O77454   1.717   3.128   3.100  0.4309  0.0594  0.4312
  562MOL0     C77455   1.804   3.227   3.161 -0.4411  0.2338 -0.5890
  562MOL0     C77456   1.941   3.177   3.203 -0.4531 -0.1570 -0.0509
  562MOL0     C77457   2.037   3.293   3.243  0.6673 -0.1689  0.1542
  562MOL0     C77458   2.161   3.272   3.332  0.5588  0.5845 -0.5275
  562MOL0     C77459   2.283   3.217   3.264 -0.4851  0.4587  0.0117
  562MOL0     C77460   2.339   3.297   3.145 -0.4105 -0.2751 -0.7020
  562MOL0     C77461   2.489   3.255   3.122  0.5690  0.1658 -0.7343
  562MOL0     C77462   2.560   3.339   3.020 -0.0808 -0.4218  0.1208
  562MOL0    Cl77463   2.476   3.345   2.868 -0.0482  0.6825 -0.4211
  562MOL0     C77464   1.659   3.001   2.904  0.3688  0.1668 -1.2893
  562MOL0     C77465   1.661   2.980   2.766 -0.7848  0.4816 -0.1672
  562MOL0     O77466   1.571   3.148   2.508 -0.0446 -0.7867  0.9174
  562MOL0     C77467   1.672   3.147   2.230  0.6156 -0.6956 -1.0833
  562MOL0     C77468   1.678   3.120   2.091  0.1878 -0.2615  0.3321
  562MOL0     N77469   1.187   2.737   2.035  0.1360 -0.3873 -0.6427
  562MOL0     N77470   1.069   2.754   2.087  0.3094  0.1295 -0.2957
  562MOL0     C77471   1.152   2.409   2.301  1.1315  0.3837 -0.1097
  562MOL0     C77472   1.237   2.318   2.240 -0.5664  0.4985 -0.5987
  562MOL0     C77473   1.504   2.075   2.065  1.4110 -0.6502 -0.3118
  562MOL0     C77474   1.607   2.133   2.150 -0.3410 -1.3269 -0.1674
  562MOL0     C77475   1.748   2.132   2.114  0.4157  0.2028  0.3251
  562MOL0     C77476   1.783   2.060   2.000  0.4269  0.6119  1.1332
  562MOL0     O77477   1.915   2.047   1.972  0.1086  0.1144 -0.4848
  562MOL0     C77478   1.968   2.114   1.867  0.0633  0.0291  0.3884
  562MOL0     C77479   1.916   2.262   1.825 -0.1296  0.2351  0.5100
  562MOL0     C77480   1.969   2.372   1.918 -0.0965 -0.2067  0.5944
  562MOL0     C77481   1.887   2.497   1.923 -0.0874  0.4306  0.1098
  562MOL0     C77482   1.748   2.473   1.975 -0.7539 -0.5533 -0.2608
  562MOL0     C77483   1.628   2.463   2.009  0.1559 -0.7046  0.5277
  562MOL0     C77484   1.683   1.997   1.930  0.0177 -0.2350 -0.3681
  562MOL0     C77485   1.554   2.001   1.954 -0.0527 -0.1253  1.0063
  562MOL0     C77486   1.462   1.914   1.881 -0.3716  0.3309 -0.7778
  562MOL0     H77487   1.156   2.036   2.415  0.4112 -0.7340 -0.6661
  562MOL0     H77488   1.006   2.213   2.524 -2.9356  0.7874 -2.4674
  562MOL0     H77489   0.923   2.556   2.302  0.2998 -0.3427  0.3792
  562MOL0     H77490   1.038   2.636   2.407 -0.0059 -0.2948 -2.0535
  562MOL0     H77491   0.751   2.586   2.458 -0.1770  1.7448 -5.3144
  562MOL0     H77492   0.869   2.629   2.594 -0.2538 -1.7672  0.5198
  562MOL0     H77493   0.749   2.816   2.525 -0.1367 -1.9521 -0.0259
  562MOL0     H77494   0.907   2.857   2.480 -1.5702  0.2935  2.5206
  562MOL0     H77495   0.877   2.797   2.233 -1.0809  1.4999 -1.1773
  562MOL0     H77496   0.701   2.763   2.275 -0.4806 -0.8306 -0.1010
  562MOL0     H77497   0.867   3.020   2.307  0.5679 -0.0996 -2.0795
  562MOL0     H77498   0.700   2.989   2.365 -0.8858 -0.9033 -1.0873
  562MOL0     H77499   0.632   2.936   2.134 -0.0032 -0.0319 -0.0631
  562MOL0     H77500   0.684   3.098   2.147  2.3615 -0.0269  0.4432
  562MOL0     H77501   0.921   3.045   2.051 -0.1256  0.9283  0.6690
  562MOL0     H77502   0.785   3.052   1.956  1.8266 -2.0928 -2.0216
  562MOL0     H77503   0.791   2.778   2.041 -1.2033  1.5231  0.1102
  562MOL0     H77504   0.809   2.840   1.875 -1.1570 -1.9439 -0.3741
  562MOL0     H77505   1.034   2.845   1.759  2.1759 -0.8818 -1.2751
  562MOL0     H77506   1.314   2.824   1.730  2.7062 -1.4483 -0.0367
  562MOL0     H77507   1.335   2.659   1.790 -0.8211 -0.5609 -0.2128
  562MOL0     H77508   1.445   2.876   1.969  1.5780  0.1177 -0.5745
  562MOL0     H77509   1.491   2.713   1.942  0.1181  0.8335 -1.1284
  562MOL0     H77510   1.541   2.776   1.699  0.1850 -1.5078  1.1162
  562MOL0     H77511   1.530   2.940   1.738  1.1465 -0.2909 -1.9183
  562MOL0     H77512   1.721   2.790   1.911 -1.1324  0.7314  2.7753
  562MOL0     H77513   1.759   2.864   1.749 -2.7519 -2.9242 -2.9836
  562MOL0     H77514   1.640   2.789   2.098  1.6747  1.6808 -1.1278
  562MOL0     H77515   1.723   2.782   2.442  0.4091  2.3378  2.3056
  562MOL0     H77516   1.622   2.701   2.324 -1.3136  0.1371 -1.0441
  562MOL0     H77517   1.553   2.814   2.446  1.8935 -2.6889  2.2046
  562MOL0     H77518   1.920   3.172   2.673  0.3765 -1.4083 -0.7770
  562MOL0     H77519   1.920   3.218   2.911 -2.2401  2.0690 -0.2218
  562MOL0     H77520   1.810   3.318   3.102 -2.4012 -0.2157 -1.5701
  562MOL0     H77521   1.755   3.252   3.256 -0.3321 -3.5995  0.6738
  562MOL0     H77522   1.934   3.102   3.282 -0.5944  2.5518  2.6463
  562MOL0     H77523   1.989   3.116   3.125 -0.3589  1.5738 -1.3984
  562MOL0     H77524   1.983   3.373   3.295  1.3932  0.8741 -0.6625
  562MOL0     H77525   2.057   3.330   3.142 -1.5593 -1.5077 -0.8503
  562MOL0     H77526   2.131   3.189   3.397  0.7525  0.5008 -0.5446
  562MOL0     H77527   2.197   3.351   3.399  0.6217 -0.9122  1.2866
  562MOL0     H77528   2.359   3.203   3.342 -1.4726 -0.2496  0.8691
  562MOL0     H77529   2.259   3.116   3.232 -3.7256  2.1487 -3.6983
  562MOL0     H77530   2.335   3.405   3.158  3.3118  0.6498 -4.5686
  562MOL0     H77531   2.295   3.273   3.047  0.5287 -1.9198 -0.7734
  562MOL0     H77532   2.488   3.148   3.098 -0.2795 -0.3740  1.5037
  562MOL0     H77533   2.554   3.263   3.210  1.3062  1.5461 -1.3594
  562MOL0     H77534   2.665   3.318   3.002 -0.4662 -0.8683 -1.8886
  562MOL0     H77535   2.561   3.445   3.047  0.6429 -0.7795  1.6367
  562MOL0     H77536   1.581   2.958   2.965  0.2288  0.0664 -1.5352
  562MOL0     H77537   1.586   2.912   2.726 -2.3612  2.4527 -0.7011
  562MOL0     H77538   1.691   3.251   2.257 -1.0819 -0.8320  0.9471
  562MOL0     H77539   1.677   3.200   2.017  0.0637 -0.1726  0.4304
  562MOL0     H77540   1.156   2.515   2.277  1.0987  0.9154  2.0142
  562MOL0     H77541   1.307   2.360   2.168 -2.4343  3.1065 -1.0160
  562MOL0     H77542   1.579   2.195   2.234 -0.6426 -1.2643 -0.3130
  562MOL0     H77543   1.822   2.189   2.169  0.1587  1.4961 -0.6241
  562MOL0     H77544   2.071   2.133   1.896 -0.1493  2.2998 -0.1135
  562MOL0     H77545   1.965   2.054   1.775  0.7165  3.6793 -2.2461
  562MOL0     H77546   1.808   2.265   1.813  0.1880  0.1816 -5.5909
  562MOL0     H77547   1.963   2.264   1.726  2.3286 -1.6991  1.5145
  562MOL0     H77548   1.988   2.329   2.017  2.4569  1.9784  1.1617
  562MOL0     H77549   2.063   2.410   1.877 -0.9883 -0.1062 -1.5066
  562MOL0     H77550   1.887   2.536   1.821 -1.2122 -0.8945 -0.4244
  562MOL0     H77551   1.923   2.561   2.004  2.0050 -0.4352 -0.0659
  562MOL0     H77552   1.528   2.477   2.045  1.0165  1.8875  2.1762
  562MOL0     H77553   1.716   1.939   1.844 -2.7209 -1.6688 -0.5541
  562MOL0     H77554   1.372   1.966   1.846 -1.8652 -1.0669  0.7910
  562MOL0     H77555   1.511   1.860   1.800 -0.1887 -0.8725  0.1209
  562MOL0     H77556   1.426   1.837   1.950 -0.9993  0.3507 -1.0732
  563MOL0     O77557   3.199   7.686   6.929 -0.1581 -0.8240  0.5269
  563MOL0     C77558   3.159   7.620   6.837  1.3456  0.6144 -0.4337
  563MOL0     O77559   3.115   7.669   6.715  0.2873  0.1945 -0.2574
  563MOL0     C77560   3.171   7.775   6.650 -0.2286 -1.0991 -0.3686
  563MOL0     C77561   3.085   7.845   6.568 -1.0259  0.0423  0.4455
  563MOL0     C77562   3.136   7.956   6.505  0.1551  0.0086  0.3232
  563MOL0     C77563   3.267   7.992   6.510  0.1960 -0.4908  0.8377
  563MOL0     O77564   3.325   8.084   6.414  0.2559  0.6400  0.2272
  563MOL0     C77565   3.429   8.162   6.462  0.1343 -0.2522  0.4073
  563MOL0     C77566   3.373   8.276   6.537  0.1014  0.2057 -1.0444
  563MOL0     C77567   3.476   8.384   6.561 -0.0179 -0.1752 -0.3503
  563MOL0     C77568   3.424   8.508   6.628 -0.6199  0.2862  0.1189
  563MOL0     C77569   3.536   8.624   6.623  0.3105 -0.2822  0.2529
  563MOL0     C77570   3.563   8.699   6.488 -0.1931 -0.5144  0.5625
  563MOL0     C77571   3.687   8.781   6.505 -0.4542  0.6369  0.1391
  563MOL0     C77572   3.710   8.875   6.384  0.1078  1.0252 -0.5906
  563MOL0     N77573   3.826   8.963   6.411  0.1473  0.2040 -0.1375
  563MOL0     C77574   3.956   8.943   6.380  0.1875 -0.3970 -0.2604
  563MOL0     C77575   4.024   9.046   6.424 -0.1691  0.4793 -0.9367
  563MOL0     C77576   4.173   9.055   6.421 -0.0955  0.8278  0.5695
  563MOL0     C77577   4.202   9.204   6.424 -0.2676  0.4136  0.6714
  563MOL0     C77578   4.355   9.220   6.384 -0.5596 -0.3559 -0.2984
  563MOL0     C77579   4.433   9.313   6.489 -0.4548  0.1332 -0.5034
  563MOL0     O77580   4.396   9.450   6.503  0.2971  0.1776  0.1914
  563MOL0     C77581   4.461   9.538   6.599  0.5617 -0.0740  0.7302
  563MOL0     C77582   4.411   9.674   6.620  0.2584 -0.3150  0.5505
  563MOL0     C77583   4.477   9.767   6.710 -0.1143 -0.0503  0.2815
  563MOL0     C77584   4.427   9.909   6.708  1.1636 -0.1718 -0.7596
  563MOL0     C77585   4.580   9.718   6.785 -0.3277 -0.1210 -1.0115
  563MOL0     C77586   4.639   9.792   6.907  0.7964 -0.5304 -0.3391
  563MOL0     O77587   4.573   9.898   6.955 -0.3990 -0.6541  0.1035
  563MOL0     C77588   4.616   9.967   7.066  0.0369 -0.1049  0.1069
  563MOL0     C77589   4.649   9.904   7.188  0.1267 -0.2411 -0.0124
  563MOL0     C77590   4.677   9.983   7.296  0.8915 -0.9548 -0.3718
  563MOL0     C77591   4.653  10.122   7.302  0.5270  1.3106 -0.1972
  563MOL0     O77592   4.673  10.190   7.415  1.0707 -0.6975 -0.4199
  563MOL0     C77593   4.657  10.337   7.428  0.3549 -0.4639  0.7261
  563MOL0     C77594   4.641  10.364   7.576 -0.0847  0.0349 -0.5458
  563MOL0     C77595   4.764  10.323   7.653  0.1845 -0.1403  0.7326
  563MOL0     C77596   4.882  10.419   7.635  0.1985  0.1417 -0.3250
  563MOL0     C77597   5.012  10.391   7.712  0.3693 -1.2907 -0.0096
  563MOL0     C77598   5.018  10.451   7.850  0.1193 -0.3159 -0.1124
  563MOL0     C77599   5.151  10.427   7.913  0.2402  0.0676 -0.5042
  563MOL0     C77600   5.141  10.296   7.992  0.3722  1.0503  0.9571
  563MOL0    Cl77601   5.285  10.306   8.099 -0.2672  0.0375 -0.2495
  563MOL0     C77602   4.613  10.176   7.184  0.5868 -0.4671  0.6529
  563MOL0     C77603   4.598  10.108   7.066  0.1167 -0.3355 -0.0938
  563MOL0     O77604   4.745   9.753   6.954 -0.6218  0.3150  0.0563
  563MOL0     C77605   4.631   9.587   6.773  0.9411 -0.2677 -0.3207
  563MOL0     C77606   4.576   9.508   6.671  0.5915  0.2673 -0.0164
  563MOL0     N77607   3.931   9.143   6.473 -0.2549  0.7414 -0.0849
  563MOL0     N77608   3.814   9.086   6.463  0.3248  0.6223  0.4120
  563MOL0     C77609   3.352   7.907   6.582  0.5149  1.0677  1.0270
  563MOL0     C77610   3.304   7.802   6.660  0.4110 -0.3303 -0.5443
  563MOL0     C77611   3.169   7.471   6.837  0.4877 -0.2629 -0.4741
  563MOL0     C77612   3.214   7.417   6.719  0.3262 -0.1504  0.1669
  563MOL0     C77613   3.239   7.283   6.713 -0.5316 -0.1249 -0.3278
  563MOL0     C77614   3.214   7.194   6.812 -1.3783 -0.2472 -0.4335
  563MOL0     O77615   3.239   7.055   6.801 -0.1115 -0.0901 -0.0460
  563MOL0     C77616   3.375   7.029   6.853  0.0051  0.5687  0.1776
  563MOL0     C77617   3.403   6.883   6.880 -0.1882 -0.6220  0.4081
  563MOL0     C77618   3.359   6.839   7.021  0.1975 -0.4460  0.0556
  563MOL0     C77619   3.427   6.707   7.067  0.0803 -0.9976  0.3142
  563MOL0     C77620   3.388   6.674   7.199 -1.5262  0.0954  0.9700
  563MOL0     C77621   3.357   6.658   7.314  0.4764 -0.0004 -0.6859
  563MOL0     C77622   3.175   7.243   6.932 -0.5067 -0.0810 -0.1626
  563MOL0     C77623   3.162   7.382   6.955 -0.5686 -0.9087  0.5395
  563MOL0     C77624   3.136   7.428   7.095  0.3395 -0.5260 -1.2194
  563MOL0     H77625   2.977   7.833   6.566 -1.2289  1.6437  0.5987
  563MOL0     H77626   3.063   8.007   6.442  0.7320 -1.4999 -1.6869
  563MOL0     H77627   3.479   8.207   6.375 -0.0234 -0.6887  0.0839
  563MOL0     H77628   3.514   8.111   6.507 -0.2221 -1.5047 -0.2871
  563MOL0     H77629   3.287   8.325   6.491  1.2349  2.6842 -0.6721
  563MOL0     H77630   3.333   8.242   6.633 -4.0630 -2.5888 -3.4193
  563MOL0     H77631   3.541   8.330   6.630 -0.4933 -1.2212 -0.6919
  563MOL0     H77632   3.525   8.402   6.464 -1.8137  1.6857 -0.9683
  563MOL0     H77633   3.335   8.546   6.577 -0.3006  1.6502  0.5223
  563MOL0     H77634   3.409   8.471   6.729 -1.4184 -1.2959 -0.5545
  563MOL0     H77635   3.630   8.579   6.658 -0.1938 -0.7426  1.0460
  563MOL0     H77636   3.505   8.691   6.704 -0.3735 -0.8695  0.4886
  563MOL0     H77637   3.578   8.628   6.406  1.6602 -0.9041  1.1837
  563MOL0     H77638   3.476   8.765   6.477 -0.7094 -0.4122  4.0480
  563MOL0     H77639   3.773   8.714   6.503 -0.6754  0.3063  1.1283
  563MOL0     H77640   3.685   8.825   6.606  1.6964  1.8652 -0.3053
  563MOL0     H77641   3.732   8.813   6.296 -1.4016 -0.0132 -0.2798
  563MOL0     H77642   3.622   8.927   6.346 -1.3727  1.3692  2.9759
  563MOL0     H77643   4.002   8.854   6.338 -0.1198 -0.8679  0.3680
  563MOL0     H77644   4.199   9.002   6.329  2.3009  0.0734  1.6005
  563MOL0     H77645   4.229   9.007   6.503  0.6724  1.2881  0.3292
  563MOL0     H77646   4.146   9.263   6.351 -1.2235  0.9486  1.8142
  563MOL0     H77647   4.187   9.237   6.527  0.0515 -1.2487  1.2845
  563MOL0     H77648   4.399   9.121   6.398  1.2973  0.6502  1.5753
  563MOL0     H77649   4.354   9.253   6.280  2.1011 -0.0677 -0.3042
  563MOL0     H77650   4.428   9.266   6.588 -4.0217 -0.1331 -0.6661
  563MOL0     H77651   4.540   9.309   6.465 -0.3759  0.4403 -0.2246
  563MOL0     H77652   4.328   9.705   6.558  0.5738  2.7538  1.4861
  563MOL0     H77653   4.370   9.928   6.800  0.7354  2.4479 -1.4786
  563MOL0     H77654   4.361   9.929   6.623 -1.0441 -3.1492  0.0564
  563MOL0     H77655   4.508   9.980   6.726  1.1264 -1.0057  4.4819
  563MOL0     H77656   4.677   9.799   7.191 -0.5833 -0.4375  3.4985
  563MOL0     H77657   4.696   9.934   7.391 -2.5386  1.1954  1.5992
  563MOL0     H77658   4.740  10.404   7.405  0.7304 -0.2759  2.4847
  563MOL0     H77659   4.574  10.375   7.367  1.9007  0.2133 -1.0306
  563MOL0     H77660   4.628  10.471   7.599  0.7049 -0.0521  0.3727
  563MOL0     H77661   4.553  10.313   7.617  2.0822 -1.1037  3.1402
  563MOL0     H77662   4.806  10.230   7.614  0.4217  0.0530  0.5272
  563MOL0     H77663   4.744  10.306   7.759  1.3083  1.0996  1.1722
  563MOL0     H77664   4.845  10.519   7.661  1.6265  1.1378 -1.8575
  563MOL0     H77665   4.904  10.420   7.527 -2.8163 -2.9634 -1.1525
  563MOL0     H77666   5.039  10.286   7.720 -1.2287 -1.9488 -2.2401
  563MOL0     H77667   5.097  10.437   7.661  2.4705 -3.5873  1.2381
  563MOL0     H77668   4.936  10.415   7.912  0.1036 -2.0666 -1.0782
  563MOL0     H77669   4.996  10.554   7.820 -2.8937 -1.9801 -4.8381
  563MOL0     H77670   5.171  10.514   7.976 -2.6139  1.1056 -0.9008
  563MOL0     H77671   5.231  10.426   7.838  1.8229 -0.6105  1.1133
  563MOL0     H77672   5.141  10.209   7.925 -1.1135 -0.2983  2.6023
  563MOL0     H77673   5.051  10.291   8.055 -0.7900 -0.8495 -0.7108
  563MOL0     H77674   4.580  10.279   7.186  1.6421 -0.1220  1.3490
  563MOL0     H77675   4.567  10.169   6.983 -0.8637 -0.5627  0.0937
  563MOL0     H77676   4.713   9.548   6.832 -0.5902 -0.5046  1.7826
  563MOL0     H77677   4.626   9.411   6.672 -3.0769 -1.8620 -0.9131
  563MOL0     H77678   3.460   7.915   6.572  0.5780 -1.3498 -0.9281
  563MOL0     H77679   3.373   7.734   6.708  1.3222  0.5037 -0.6353
  563MOL0     H77680   3.224   7.465   6.622 -0.2968 -3.1886 -1.5091
  563MOL0     H77681   3.284   7.243   6.622  1.6755  0.1118  0.5800
  563MOL0     H77682   3.451   7.070   6.786  1.4354 -3.7985 -1.2272
  563MOL0     H77683   3.389   7.082   6.948  1.5137 -0.8835  0.8140
  563MOL0     H77684   3.511   6.871   6.865  0.4572  2.8825  1.2580
  563MOL0     H77685   3.350   6.820   6.808  0.3331 -0.6812  0.0693
  563MOL0     H77686   3.398   6.913   7.091 -0.1705 -0.7385  0.5750
  563MOL0     H77687   3.249   6.838   7.023  0.1215 -3.6192 -0.5173
  563MOL0     H77688   3.535   6.699   7.051  0.5418  0.8008  2.0792
  563MOL0     H77689   3.377   6.634   7.003 -1.8691  0.7357 -0.2179
  563MOL0     H77690   3.345   6.641   7.419  2.5932 -0.9160 -0.5424
  563MOL0     H77691   3.171   7.171   7.013  3.2741  0.1989  0.4806
  563MOL0     H77692   3.236   7.452   7.133  0.5758 -0.6573 -1.7457
  563MOL0     H77693   3.075   7.519   7.089  1.1897 -0.0428 -4.2010
  563MOL0     H77694   3.086   7.351   7.154 -2.6489  0.2364 -2.5770
  564MOL0     O77695   9.059   3.964   1.372 -0.0294  0.3292  0.0115
  564MOL0     C77696   9.115   3.982   1.268  0.0501 -1.4490  0.0675
  564MOL0     O77697   9.252   3.962   1.244 -0.2674 -0.3499 -0.4676
  564MOL0     C77698   9.320   3.910   1.357  0.5579  0.2867  0.4990
  564MOL0     C77699   9.275   3.778   1.400 -1.3852  0.0663  0.2336
  564MOL0     C77700   9.326   3.730   1.521 -0.5326 -0.2778  0.9624
  564MOL0     C77701   9.424   3.805   1.603 -0.3577 -0.9341  0.4751
  564MOL0     O77702   9.480   3.766   1.724  0.5281  1.0268  1.0486
  564MOL0     C77703   9.415   3.636   1.774 -1.0323 -0.6196 -0.0725
  564MOL0     C77704   9.489   3.579   1.896  0.5579  0.3891 -0.7861
  564MOL0     C77705   9.640   3.552   1.877  1.0251  0.2367 -0.5242
  564MOL0     C77706   9.689   3.483   2.006  0.8203 -0.5580 -0.6311
  564MOL0     C77707   9.842   3.473   2.008 -0.4784  0.5097 -0.0963
  564MOL0     C77708   9.888   3.431   2.160  0.0808  0.7467  0.2434
  564MOL0     C77709  10.032   3.382   2.139  0.5298 -0.1820  0.7139
  564MOL0     C77710  10.107   3.361   2.263  0.2594  0.4580 -0.5893
  564MOL0     N77711  10.227   3.280   2.229  0.0601  0.3458  0.2988
  564MOL0     C77712  10.350   3.330   2.215 -0.6213 -0.0192  0.3255
  564MOL0     C77713  10.430   3.233   2.175  0.5131 -0.4535 -0.2625
  564MOL0     C77714  10.575   3.244   2.134 -0.6232  0.3140 -0.2943
  564MOL0     C77715  10.659   3.232   2.262 -0.1156  0.1728  0.8510
  564MOL0     C77716  10.684   3.093   2.323  0.2594 -0.9374  0.8508
  564MOL0     C77717  10.822   3.084   2.376 -0.2017 -0.2697  0.3344
  564MOL0     O77718  10.827   3.168   2.490  0.3105 -0.6073  0.6184
  564MOL0     C77719  10.914   3.278   2.499  0.3301 -0.1569 -0.6171
  564MOL0     C77720  10.892   3.367   2.614 -0.1609  0.2163  0.3116
  564MOL0     C77721  10.957   3.487   2.637 -0.9986 -0.1795 -0.1723
  564MOL0     C77722  10.913   3.558   2.757  0.2418 -0.5688 -0.6379
  564MOL0     C77723  11.057   3.523   2.542 -0.7410 -0.0354  0.8444
  564MOL0     C77724  11.121   3.668   2.543  0.3742  0.0901  0.0515
  564MOL0     O77725  11.218   3.693   2.451 -0.0909  0.6711 -0.3883
  564MOL0     C77726  11.260   3.824   2.437  0.3685  0.6139 -0.7164
  564MOL0     C77727  11.396   3.852   2.457  0.3203 -0.0023  0.4688
  564MOL0     C77728  11.442   3.993   2.454  0.5904 -0.1931 -0.3916
  564MOL0     C77729  11.355   4.100   2.450 -0.0971  1.2575  0.4692
  564MOL0     O77730  11.412   4.218   2.470 -0.2024 -0.0870  0.8842
  564MOL0     C77731  11.430   4.288   2.345  0.2258 -1.0937  0.4908
  564MOL0     C77732  11.538   4.394   2.368  0.4464  0.3087 -0.2524
  564MOL0     C77733  11.675   4.340   2.375  0.7870 -1.3222  0.0685
  564MOL0     C77734  11.775   4.448   2.395  0.5687  0.9543 -0.4637
  564MOL0     C77735  11.850   4.473   2.266 -0.7702 -0.0626 -0.3443
  564MOL0     C77736  11.953   4.595   2.275 -0.6219  0.8468 -0.1613
  564MOL0     C77737  12.061   4.568   2.386  0.1308  0.3806  0.1519
  564MOL0     C77738  12.172   4.663   2.373 -0.2304  0.1350 -0.1194
  564MOL0    Cl77739  12.323   4.606   2.463  0.2400  0.1977  0.4954
  564MOL0     C77740  11.221   4.070   2.424 -0.2582  0.7308 -0.8678
  564MOL0     C77741  11.175   3.938   2.417 -0.2454  0.5770 -0.0041
  564MOL0     O77742  11.078   3.747   2.623 -0.8212 -0.4328  0.3383
  564MOL0     C77743  11.091   3.434   2.436  0.0483  0.3379  0.9413
  564MOL0     C77744  11.018   3.314   2.412  0.5039  0.1165  0.1666
  564MOL0     N77745  10.353   3.118   2.169  0.5784 -0.0013  0.3779
  564MOL0     N77746  10.226   3.148   2.207 -0.5250  0.6962  0.3994
  564MOL0     C77747   9.472   3.922   1.546  0.3699 -0.3007  0.5782
  564MOL0     C77748   9.423   3.972   1.429  0.1114 -0.9358  1.1589
  564MOL0     C77749   9.042   4.026   1.148 -0.9368  0.2751 -0.6076
  564MOL0     C77750   9.069   3.954   1.029 -1.2029 -0.2218 -0.6681
  564MOL0     C77751   9.031   4.004   0.906 -0.0528 -0.1088  0.2810
  564MOL0     C77752   8.945   4.118   0.900 -1.2357  0.9900 -0.0867
  564MOL0     O77753   8.908   4.178   0.777 -0.3769  0.4204  1.0271
  564MOL0     C77754   8.782   4.122   0.727 -0.1452 -0.4413 -0.0853
  564MOL0     C77755   8.797   4.023   0.613  0.2692  0.5306 -0.9753
  564MOL0     C77756   8.850   4.101   0.496 -0.7410 -0.9898 -0.1270
  564MOL0     C77757   8.920   4.008   0.394  0.0515  0.0670  0.8580
  564MOL0     C77758   9.032   3.941   0.454  0.8581  0.5287  0.0922
  564MOL0     C77759   9.115   3.862   0.498 -0.3462  0.7809  0.0664
  564MOL0     C77760   8.908   4.178   1.023 -0.3969  0.0004 -0.4699
  564MOL0     C77761   8.952   4.132   1.146 -0.1330 -0.0342 -0.5268
  564MOL0     C77762   8.887   4.193   1.277 -0.7885 -0.0577  0.2206
  564MOL0     H77763   9.210   3.715   1.341  1.3594 -0.3840 -2.5100
  564MOL0     H77764   9.284   3.640   1.565 -2.8682  0.8671  1.2510
  564MOL0     H77765   9.408   3.564   1.692 -0.0726 -0.7201 -0.0704
  564MOL0     H77766   9.307   3.646   1.792 -1.1003 -1.9482  0.3487
  564MOL0     H77767   9.474   3.651   1.977  2.4951  0.7968 -0.7365
  564MOL0     H77768   9.435   3.486   1.917  1.3470 -0.5958 -2.8307
  564MOL0     H77769   9.657   3.483   1.794 -2.5322  0.0635 -1.2284
  564MOL0     H77770   9.689   3.649   1.865  4.1220 -1.3863 -2.2793
  564MOL0     H77771   9.646   3.537   2.091  1.0130 -3.9812  1.8531
  564MOL0     H77772   9.648   3.383   2.020 -0.2422 -0.1162 -0.4804
  564MOL0     H77773   9.886   3.572   1.990  0.4956  0.4810  1.8310
  564MOL0     H77774   9.872   3.388   1.946 -1.4126 -0.2310  0.4434
  564MOL0     H77775   9.891   3.511   2.235 -2.5330 -0.2016  1.4505
  564MOL0     H77776   9.820   3.362   2.209  0.8386  1.2270  2.0376
  564MOL0     H77777  10.087   3.451   2.074  0.0197  0.3525  0.8417
  564MOL0     H77778  10.027   3.288   2.084 -0.3610 -0.5838  1.4487
  564MOL0     H77779  10.127   3.454   2.318  1.9381 -0.3968  0.3077
  564MOL0     H77780  10.039   3.307   2.330  0.5052  1.6197  0.6429
  564MOL0     H77781  10.386   3.432   2.217 -2.8930  0.8105  1.9802
  564MOL0     H77782  10.582   3.344   2.090 -0.1869  0.4231  0.0238
  564MOL0     H77783  10.598   3.171   2.056  0.3091 -0.4067  0.6205
  564MOL0     H77784  10.753   3.283   2.237 -0.5306 -0.1027 -1.4723
  564MOL0     H77785  10.619   3.307   2.331 -0.0614 -0.0843  1.1671
  564MOL0     H77786  10.620   3.085   2.411 -0.0317  2.0792  1.0049
  564MOL0     H77787  10.654   3.014   2.253 -1.5103 -1.3439  1.9849
  564MOL0     H77788  10.844   2.982   2.407  1.9650 -0.1100 -0.4968
  564MOL0     H77789  10.896   3.114   2.300  0.0552  0.2352  0.7745
  564MOL0     H77790  10.812   3.338   2.681  0.9660  0.0667  1.6376
  564MOL0     H77791  10.833   3.625   2.723 -0.2334 -0.7014  0.1838
  564MOL0     H77792  10.991   3.613   2.810  0.1235 -1.7319  0.8200
  564MOL0     H77793  10.882   3.477   2.824  0.0366 -0.1725 -0.2431
  564MOL0     H77794  11.471   3.775   2.475 -0.6939 -0.8663  1.0811
  564MOL0     H77795  11.548   4.004   2.476  0.7615 -0.2154 -1.2020
  564MOL0     H77796  11.462   4.218   2.268 -1.1115 -0.4123 -0.7392
  564MOL0     H77797  11.343   4.340   2.304  1.8385  1.0102 -0.3793
  564MOL0     H77798  11.533   4.469   2.288 -1.6846 -0.2317 -0.6876
  564MOL0     H77799  11.518   4.448   2.461 -1.6354 -0.1777 -0.3596
  564MOL0     H77800  11.673   4.287   2.279 -0.7535  0.4025 -0.9224
  564MOL0     H77801  11.675   4.271   2.459  0.9605  0.2526  1.4012
  564MOL0     H77802  11.838   4.408   2.474 -1.3836  1.4680  1.4316
  564MOL0     H77803  11.723   4.537   2.433  0.1331  1.1051 -1.3725
  564MOL0     H77804  11.900   4.384   2.226 -0.4936 -0.0545 -0.0233
  564MOL0     H77805  11.779   4.494   2.186  1.2017  0.9838 -1.9142
  564MOL0     H77806  11.888   4.676   2.310 -3.1528 -0.8009 -0.8132
  564MOL0     H77807  12.004   4.609   2.180 -1.6260 -1.5040 -1.1198
  564MOL0     H77808  12.091   4.465   2.364 -3.2456  0.0642 -4.6377
  564MOL0     H77809  12.009   4.564   2.482  0.9401  2.4525  0.7244
  564MOL0     H77810  12.146   4.760   2.418 -0.4752 -0.5276  1.2056
  564MOL0     H77811  12.190   4.691   2.269  1.7378 -0.4872  0.0214
  564MOL0     H77812  11.164   4.162   2.420  4.1796  4.1396  3.2273
  564MOL0     H77813  11.070   3.918   2.397  0.5161 -1.8574 -2.2496
  564MOL0     H77814  11.167   3.482   2.376 -2.1682  2.2029 -0.5580
  564MOL0     H77815  11.038   3.256   2.322 -1.1062 -1.9619  1.0650
  564MOL0     H77816   9.551   3.981   1.593 -0.2983  2.4660 -1.5135
  564MOL0     H77817   9.449   4.066   1.382 -2.2203  0.3843  2.3595
  564MOL0     H77818   9.130   3.864   1.029 -0.7103 -0.0408  2.9902
  564MOL0     H77819   9.074   3.953   0.821 -1.4532  1.9666 -1.8031
  564MOL0     H77820   8.730   4.070   0.808  0.3305  0.6141  0.9290
  564MOL0     H77821   8.707   4.198   0.709 -0.5830 -0.0923  2.7668
  564MOL0     H77822   8.702   3.970   0.598 -0.4454  1.2195  0.8273
  564MOL0     H77823   8.862   3.945   0.653 -0.4476 -0.3348 -1.4822
  564MOL0     H77824   8.770   4.161   0.451  0.2300  1.1359  0.8725
  564MOL0     H77825   8.929   4.161   0.542 -0.3189 -0.6310 -1.3002
  564MOL0     H77826   8.960   4.067   0.312 -1.0233  0.4036  0.5588
  564MOL0     H77827   8.852   3.937   0.344 -2.5624  1.8188  1.7254
  564MOL0     H77828   9.169   3.788   0.554  1.4773 -0.9751 -3.6134
  564MOL0     H77829   8.830   4.251   1.003 -0.6410 -0.8108 -2.7250
  564MOL0     H77830   8.818   4.121   1.321  1.7184 -0.8145  3.2782
  564MOL0     H77831   8.963   4.217   1.352  2.1344  0.0439 -2.5336
  564MOL0     H77832   8.833   4.284   1.253  0.4674  0.4623 -0.8003
  565MOL0     O77833  11.128   5.471   7.085 -0.3360 -0.0389 -0.8325
  565MOL0     C77834  11.211   5.555   7.077  0.3375 -0.5287  0.3199
  565MOL0     O77835  11.341   5.537   7.079  0.5869 -0.0717 -0.7535
  565MOL0     C77836  11.395   5.419   7.126  0.3073 -0.4514  0.1282
  565MOL0     C77837  11.383   5.375   7.259 -0.1474 -0.3572  0.5035
  565MOL0     C77838  11.426   5.263   7.301  0.3748 -0.0018  0.3353
  565MOL0     C77839  11.488   5.168   7.220 -0.1531  0.1972 -0.6299
  565MOL0     O77840  11.531   5.046   7.275 -0.0492  0.3566 -0.3987
  565MOL0     C77841  11.598   4.943   7.191  0.2796 -1.1412 -0.3363
  565MOL0     C77842  11.601   4.817   7.276 -0.1932  0.2803  0.7713
  565MOL0     C77843  11.655   4.695   7.197  0.5267 -1.3294 -0.1223
  565MOL0     C77844  11.724   4.585   7.283 -0.3125 -0.0763 -0.0970
  565MOL0     C77845  11.625   4.529   7.392 -0.0711 -0.2692 -0.0019
  565MOL0     C77846  11.703   4.421   7.470 -1.2435  0.1772  0.1071
  565MOL0     C77847  11.638   4.385   7.606  0.2632 -1.1779 -0.6274
  565MOL0     C77848  11.564   4.242   7.586 -0.0339 -0.9025 -0.0728
  565MOL0     N77849  11.628   4.115   7.641 -0.5540  0.2743  0.4411
  565MOL0     C77850  11.623   4.062   7.773 -0.1440 -0.2203  0.8168
  565MOL0     C77851  11.673   3.936   7.760  0.6149  0.1527 -0.4527
  565MOL0     C77852  11.705   3.835   7.865 -0.0889  0.2654 -0.7947
  565MOL0     C77853  11.685   3.890   8.007 -0.4142 -0.3721  0.1650
  565MOL0     C77854  11.733   3.788   8.111  0.2495  0.3774 -0.6862
  565MOL0     C77855  11.640   3.662   8.108  0.4907 -0.0475 -0.1278
  565MOL0     O77856  11.500   3.701   8.120  0.5422  0.2395  0.5082
  565MOL0     C77857  11.408   3.596   8.136  1.0539 -0.3351  0.6243
  565MOL0     C77858  11.424   3.464   8.087  0.6656 -0.5550 -0.7239
  565MOL0     C77859  11.325   3.373   8.118  0.5799  0.5265  0.2708
  565MOL0     C77860  11.346   3.235   8.065  0.2744 -0.7285  0.9205
  565MOL0     C77861  11.204   3.411   8.184 -0.1531 -0.8277  0.5681
  565MOL0     C77862  11.108   3.313   8.230  0.6496  0.2367 -0.0602
  565MOL0     O77863  10.980   3.362   8.262 -0.0569 -0.7854  0.2833
  565MOL0     C77864  10.885   3.276   8.312  0.6339  0.0544 -0.1922
  565MOL0     C77865  10.831   3.294   8.441 -0.4692 -0.1362  0.7339
  565MOL0     C77866  10.738   3.204   8.500  0.4428  0.6610  0.5820
  565MOL0     C77867  10.695   3.089   8.423 -0.4531 -0.0367 -0.6304
  565MOL0     O77868  10.622   2.997   8.482  0.0491 -0.0196  0.0687
  565MOL0     C77869  10.543   2.922   8.399  0.0803  0.5786  0.5916
  565MOL0     C77870  10.444   2.848   8.485 -0.1244 -0.0172  0.2940
  565MOL0     C77871  10.315   2.814   8.415 -0.2053 -0.4379  0.1898
  565MOL0     C77872  10.236   2.703   8.495  0.4954  0.7862 -0.4029
  565MOL0     C77873  10.204   2.737   8.646  0.1527  0.6669 -0.1897
  565MOL0     C77874  10.142   2.871   8.685 -0.4785  1.1471  0.8108
  565MOL0     C77875  10.110   2.874   8.839  1.1370  0.5141  0.1484
  565MOL0     C77876   9.978   2.792   8.874 -0.2877  0.7823 -0.1083
  565MOL0    Cl77877   9.943   2.830   9.040 -0.0841  0.0728 -0.3201
  565MOL0     C77878  10.749   3.080   8.290  1.2194 -0.7370  0.4105
  565MOL0     C77879  10.836   3.170   8.235  0.6621  0.5607  0.1221
  565MOL0     O77880  11.144   3.202   8.267  0.1868  0.2945 -0.0986
  565MOL0     C77881  11.181   3.544   8.213  0.3566 -0.9016 -0.0152
  565MOL0     C77882  11.282   3.637   8.192 -0.3009  0.4068 -0.3248
  565MOL0     N77883  11.715   3.916   7.632 -0.7870  0.3007 -0.6315
  565MOL0     N77884  11.700   4.023   7.568  0.2600 -0.5419  0.1035
  565MOL0     C77885  11.508   5.211   7.084  0.3322  0.3427 -0.2162
  565MOL0     C77886  11.463   5.329   7.039  0.2631 -0.9725  0.2910
  565MOL0     C77887  11.177   5.694   7.056  0.1784  0.5452  0.0284
  565MOL0     C77888  11.088   5.731   6.949 -0.6104 -0.2086  0.0970
  565MOL0     C77889  11.066   5.871   6.915  0.2155 -0.1730 -0.5170
  565MOL0     C77890  11.123   5.964   7.012 -0.5115 -0.3237 -0.0536
  565MOL0     O77891  11.116   6.100   6.997 -0.3038 -0.7992 -0.1026
  565MOL0     C77892  11.077   6.162   6.880  0.1476 -0.5695  0.3723
  565MOL0     C77893  11.108   6.307   6.882 -0.2776 -0.5426  0.0140
  565MOL0     C77894  11.254   6.346   6.911 -0.3923  0.2119 -0.7189
  565MOL0     C77895  11.267   6.492   6.914  0.4840 -0.0020 -0.8121
  565MOL0     C77896  11.398   6.544   6.932  0.5090 -0.7869 -0.1262
  565MOL0     C77897  11.513   6.572   6.963 -0.1228 -1.1043 -0.0934
  565MOL0     C77898  11.209   5.923   7.117  0.4140 -0.5522  0.4698
  565MOL0     C77899  11.228   5.788   7.149  0.0994 -0.1669  0.4905
  565MOL0     C77900  11.298   5.757   7.278 -0.3406 -0.8425 -0.4359
  565MOL0     H77901  11.340   5.447   7.328  2.5615  1.3153  0.5664
  565MOL0     H77902  11.420   5.221   7.401  2.4359 -3.6127 -0.8785
  565MOL0     H77903  11.700   4.973   7.166 -0.5703  1.9701 -0.5928
  565MOL0     H77904  11.548   4.931   7.094  1.8406 -0.4963 -1.2556
  565MOL0     H77905  11.675   4.835   7.355  1.6185 -0.3658 -0.7110
  565MOL0     H77906  11.501   4.791   7.311  0.4978 -4.9917 -0.3417
  565MOL0     H77907  11.572   4.647   7.143  1.5813 -1.7164 -1.4550
  565MOL0     H77908  11.734   4.723   7.126 -1.0406  1.5847 -0.8394
  565MOL0     H77909  11.759   4.497   7.227 -0.7006 -0.4980  0.3130
  565MOL0     H77910  11.814   4.633   7.323  1.2832 -1.1169 -2.2427
  565MOL0     H77911  11.540   4.494   7.332  0.8697 -0.4286 -1.2692
  565MOL0     H77912  11.594   4.617   7.450 -2.2986  0.0975 -1.6215
  565MOL0     H77913  11.724   4.338   7.403  1.6360  0.8769  0.0064
  565MOL0     H77914  11.799   4.461   7.504 -0.9132 -0.9621  0.5744
  565MOL0     H77915  11.572   4.468   7.634  0.9564  0.3211 -3.0867
  565MOL0     H77916  11.703   4.370   7.693 -1.8726  0.3571  1.3598
  565MOL0     H77917  11.464   4.238   7.630 -0.3158  0.4368 -0.5471
  565MOL0     H77918  11.542   4.227   7.480  0.9242 -4.1731  0.0860
  565MOL0     H77919  11.574   4.109   7.858 -0.5347  2.3516 -0.7165
  565MOL0     H77920  11.807   3.796   7.853  0.0477 -0.0326  1.0199
  565MOL0     H77921  11.641   3.747   7.851 -0.2619  0.1890  0.3668
  565MOL0     H77922  11.734   3.985   8.027  2.1001 -1.7635  1.0737
  565MOL0     H77923  11.577   3.902   8.021 -0.4597 -2.2658  2.0553
  565MOL0     H77924  11.837   3.759   8.094  0.3827 -1.3196  2.3459
  565MOL0     H77925  11.737   3.818   8.216 -0.6340 -0.5724 -0.3679
  565MOL0     H77926  11.648   3.603   8.017 -2.4369 -0.8461  0.0327
  565MOL0     H77927  11.655   3.605   8.200  1.5137  0.5261  0.0786
  565MOL0     H77928  11.517   3.437   8.037  1.2538 -1.4560  0.7589
  565MOL0     H77929  11.250   3.197   8.028  1.0061 -0.1373 -1.8707
  565MOL0     H77930  11.395   3.172   8.140  1.7159 -0.2058  0.4722
  565MOL0     H77931  11.397   3.227   7.968 -1.9839 -4.9782 -0.1954
  565MOL0     H77932  10.875   3.377   8.497 -0.1796 -1.8420  3.1854
  565MOL0     H77933  10.708   3.222   8.602  0.4767 -1.0444  0.9104
  565MOL0     H77934  10.486   2.982   8.328 -2.0107 -2.5636 -0.6431
  565MOL0     H77935  10.605   2.845   8.352 -0.7719  1.0792 -1.4723
  565MOL0     H77936  10.501   2.760   8.518  2.4859  1.1581 -0.8218
  565MOL0     H77937  10.420   2.917   8.567 -4.5760  1.8829 -2.2817
  565MOL0     H77938  10.351   2.777   8.318  1.3118 -0.6420  0.8032
  565MOL0     H77939  10.261   2.908   8.399  1.1501  0.8581  2.7008
  565MOL0     H77940  10.298   2.612   8.491  1.0734  1.1976 -1.1412
  565MOL0     H77941  10.139   2.676   8.454  0.5906 -0.9682  0.4249
  565MOL0     H77942  10.148   2.653   8.688  0.8663 -0.5809 -1.5874
  565MOL0     H77943  10.305   2.734   8.689  0.2447  1.1521 -0.3682
  565MOL0     H77944  10.050   2.893   8.629 -0.6708  1.1175  1.1118
  565MOL0     H77945  10.224   2.942   8.668  3.5778 -2.8587  1.7380
  565MOL0     H77946  10.104   2.980   8.866 -1.1620  0.5808 -0.4408
  565MOL0     H77947  10.194   2.844   8.902  0.9201  1.7796  1.0880
  565MOL0     H77948   9.989   2.685   8.854 -0.3551  1.1106 -2.1028
  565MOL0     H77949   9.897   2.820   8.806 -1.3181  1.3412  1.3092
  565MOL0     H77950  10.711   2.993   8.238  1.3803 -2.7758  3.3945
  565MOL0     H77951  10.861   3.158   8.130 -1.5408  0.6136 -0.4501
  565MOL0     H77952  11.082   3.586   8.232  1.0578  2.3399 -2.5175
  565MOL0     H77953  11.256   3.741   8.206 -3.6260  0.0167 -2.4322
  565MOL0     H77954  11.559   5.143   7.017 -1.0756  1.1006 -2.1414
  565MOL0     H77955  11.471   5.366   6.937 -2.8093  1.3658  0.7433
  565MOL0     H77956  11.033   5.649   6.904  1.0817 -1.5876  0.4413
  565MOL0     H77957  11.000   5.910   6.838 -2.1134  1.3102  2.0420
  565MOL0     H77958  11.134   6.105   6.807 -0.1032  0.1754 -0.4222
  565MOL0     H77959  10.969   6.146   6.867 -0.2969  2.1786  0.0823
  565MOL0     H77960  11.056   6.346   6.970  1.8499 -0.6801  1.4120
  565MOL0     H77961  11.071   6.359   6.793  1.5317  3.0131  1.1642
  565MOL0     H77962  11.290   6.302   7.004  0.1475 -1.5382 -1.6976
  565MOL0     H77963  11.313   6.298   6.831  2.3635 -1.7318  2.2382
  565MOL0     H77964  11.214   6.536   6.999 -1.6471 -1.4447 -1.3233
  565MOL0     H77965  11.221   6.524   6.820  1.3754 -0.1784 -1.3232
  565MOL0     H77966  11.610   6.596   7.001 -0.4115  3.2059 -1.4611
  565MOL0     H77967  11.258   5.992   7.185 -0.4731  0.5905 -0.0062
  565MOL0     H77968  11.406   5.754   7.260 -0.0029  1.4677  0.8423
  565MOL0     H77969  11.283   5.845   7.340  1.5624 -1.3422  0.8266
  565MOL0     H77970  11.259   5.673   7.337  0.6811 -0.3779  0.9510
  566MOL0     O77971   5.253   9.613   8.100  0.3220 -0.8928  0.3224
  566MOL0     C77972   5.348   9.625   8.184 -0.1873  0.0890  0.9735
  566MOL0     O77973   5.428   9.511   8.221  0.2343 -0.7464  0.4293
  566MOL0     C77974   5.400   9.396   8.148 -0.5370 -0.0084  0.2285
  566MOL0     C77975   5.346   9.276   8.191 -0.4633 -0.4177  0.4480
  566MOL0     C77976   5.337   9.167   8.104  0.8809  0.4477  0.0099
  566MOL0     C77977   5.383   9.171   7.982  0.1256 -0.1783  0.3462
  566MOL0     O77978   5.358   9.063   7.893 -0.6005 -0.6336 -0.2765
  566MOL0     C77979   5.390   8.932   7.938  0.0990  0.6662 -0.0874
  566MOL0     C77980   5.389   8.816   7.831 -0.1871 -0.0580  0.4708
  566MOL0     C77981   5.444   8.859   7.694 -0.0006  0.1167 -0.2947
  566MOL0     C77982   5.590   8.905   7.698 -0.9843  0.3618 -0.2100
  566MOL0     C77983   5.646   8.988   7.580 -0.3285 -0.1510 -0.7239
  566MOL0     C77984   5.573   9.126   7.563  0.0204 -0.0582 -0.2504
  566MOL0     C77985   5.644   9.222   7.457  0.1120  0.2349 -0.4011
  566MOL0     C77986   5.592   9.363   7.451  0.3220  0.0244 -0.7698
  566MOL0     N77987   5.599   9.444   7.577 -0.1478 -0.0530  0.0480
  566MOL0     C77988   5.517   9.540   7.625 -0.0506  0.1773  0.4308
  566MOL0     C77989   5.585   9.605   7.717 -0.1450  1.7463 -0.6019
  566MOL0     C77990   5.549   9.722   7.810  0.0791  0.3508  1.0442
  566MOL0     C77991   5.660   9.772   7.905 -1.2563 -0.4295 -0.0385
  566MOL0     C77992   5.601   9.897   7.970 -1.0955  0.0937 -0.1693
  566MOL0     C77993   5.695   9.967   8.055 -0.1322  0.8205 -1.0043
  566MOL0     O77994   5.642  10.091   8.103  0.7103 -0.8296 -0.0081
  566MOL0     C77995   5.717  10.199   8.139 -0.0281  0.4136  0.9808
  566MOL0     C77996   5.847  10.185   8.177 -0.7018 -0.1711 -0.3155
  566MOL0     C77997   5.927  10.304   8.204 -1.4276  0.1360 -0.4123
  566MOL0     C77998   6.072  10.283   8.238 -0.8906 -0.3970 -0.5508
  566MOL0     C77999   5.876  10.428   8.197 -0.0974 -0.3019 -0.4831
  566MOL0     C78000   5.950  10.564   8.223 -0.7128 -0.0183 -0.7598
  566MOL0     O78001   5.885  10.674   8.179  0.0916 -0.5071  0.5827
  566MOL0     C78002   5.950  10.791   8.195  0.9862  0.3769 -0.0177
  566MOL0     C78003   6.045  10.836   8.114 -0.4599 -0.5287  1.0922
  566MOL0     C78004   6.114  10.954   8.145  0.3378  0.5166  0.3725
  566MOL0     C78005   6.081  11.034   8.250 -0.9241 -0.0126 -0.9039
  566MOL0     O78006   6.151  11.153   8.271 -0.7060 -0.1428 -1.0252
  566MOL0     C78007   6.075  11.273   8.243  0.2839 -0.2608  1.1981
  566MOL0     C78008   6.039  11.283   8.096 -0.4714 -0.6312  0.4426
  566MOL0     C78009   5.964  11.417   8.057  1.1273 -0.4815 -0.3516
  566MOL0     C78010   5.866  11.391   7.946  1.5996 -0.5799  0.8316
  566MOL0     C78011   5.758  11.499   7.928 -0.6977 -1.1991  0.0524
  566MOL0     C78012   5.643  11.471   7.832  0.4285 -0.8325  0.5366
  566MOL0     C78013   5.541  11.364   7.875 -0.8919  0.0030 -0.0457
  566MOL0     C78014   5.441  11.420   7.973  0.1216 -0.5014  0.6516
  566MOL0    Cl78015   5.289  11.482   7.895  0.5295 -0.0984  0.3257
  566MOL0     C78016   5.989  10.983   8.345 -0.0514 -0.1304  0.5353
  566MOL0     C78017   5.925  10.860   8.315 -0.1758  0.2618 -0.4625
  566MOL0     O78018   6.067  10.557   8.273 -0.1730 -0.4141  0.3399
  566MOL0     C78019   5.740  10.442   8.156  0.1860 -0.7714  0.3688
  566MOL0     C78020   5.665  10.328   8.137 -0.7450  0.4506 -1.1883
  566MOL0     N78021   5.707   9.544   7.721  0.1987  0.3973  0.3921
  566MOL0     N78022   5.715   9.445   7.643  0.3933 -0.0878  0.8579
  566MOL0     C78023   5.442   9.286   7.936 -0.9308  0.0643  0.3424
  566MOL0     C78024   5.444   9.403   8.017 -0.1416  1.2363  0.6755
  566MOL0     C78025   5.380   9.756   8.258 -0.2545  0.9315  0.0234
  566MOL0     C78026   5.499   9.767   8.338  0.1142 -0.4131 -0.1781
  566MOL0     C78027   5.522   9.883   8.409  0.2373  0.2492  0.6701
  566MOL0     C78028   5.434   9.993   8.406 -0.7737  0.4206  0.1968
  566MOL0     O78029   5.451  10.112   8.480 -0.5199 -0.0332 -0.1523
  566MOL0     C78030   5.584  10.141   8.533  0.9249  0.3556  0.3208
  566MOL0     C78031   5.576  10.282   8.595 -0.1165  0.4709 -0.0912
  566MOL0     C78032   5.605  10.402   8.499 -0.3340 -0.3096 -0.8839
  566MOL0     C78033   5.614  10.523   8.584  0.1926  0.1588  0.4820
  566MOL0     C78034   5.617  10.645   8.501  0.0152 -1.3588  1.5379
  566MOL0     C78035   5.613  10.744   8.435 -0.4229  0.1260  0.5643
  566MOL0     C78036   5.317   9.980   8.331  0.4654  0.7578 -1.1823
  566MOL0     C78037   5.290   9.871   8.243 -0.2089  0.9123  0.7236
  566MOL0     C78038   5.169   9.879   8.151 -0.2245  0.2364  0.1432
  566MOL0     H78039   5.308   9.270   8.293  0.7285  1.1675  1.0400
  566MOL0     H78040   5.283   9.075   8.127  0.2122  0.8083 -0.0736
  566MOL0     H78041   5.321   8.909   8.020  0.4449  1.8210  0.5528
  566MOL0     H78042   5.486   8.919   7.988 -0.7007 -0.6572  1.1833
  566MOL0     H78043   5.437   8.724   7.866 -1.5597 -2.0225 -2.3876
  566MOL0     H78044   5.285   8.792   7.808 -0.3451  0.8031  0.2362
  566MOL0     H78045   5.430   8.773   7.628  1.5896 -0.1181 -0.3630
  566MOL0     H78046   5.381   8.936   7.649  0.4187  3.2462  3.8708
  566MOL0     H78047   5.612   8.956   7.792  0.4464  1.7174 -1.2172
  566MOL0     H78048   5.660   8.823   7.711 -0.9927  0.3047 -0.5276
  566MOL0     H78049   5.658   8.935   7.486  1.1086 -1.3362  0.0750
  566MOL0     H78050   5.744   9.016   7.621 -0.5548  1.1914 -1.0496
  566MOL0     H78051   5.466   9.110   7.545 -0.0596 -5.6337  2.9010
  566MOL0     H78052   5.580   9.177   7.659 -1.2259  0.7031 -0.5405
  566MOL0     H78053   5.633   9.170   7.362  1.8012 -0.1157 -0.4472
  566MOL0     H78054   5.752   9.229   7.474 -0.3429  1.0345  2.9626
  566MOL0     H78055   5.640   9.414   7.367  1.0613 -0.1113 -0.4377
  566MOL0     H78056   5.489   9.355   7.415  1.5420 -1.1901 -4.4408
  566MOL0     H78057   5.417   9.566   7.594 -0.3085 -0.5774  0.5993
  566MOL0     H78058   5.466   9.683   7.871  0.3582  0.9701  1.8320
  566MOL0     H78059   5.509   9.805   7.750 -2.6593  0.3977  2.7599
  566MOL0     H78060   5.658   9.700   7.988  4.9770  1.7484  2.6965
  566MOL0     H78061   5.756   9.774   7.852 -0.3733  0.1751  1.4844
  566MOL0     H78062   5.551   9.966   7.901 -1.6237 -1.2669 -1.1830
  566MOL0     H78063   5.524   9.855   8.034 -0.7504 -2.9517 -1.5638
  566MOL0     H78064   5.727   9.909   8.142  0.4089  2.7821  0.1684
  566MOL0     H78065   5.786   9.975   7.995  0.9262  1.8695  0.6537
  566MOL0     H78066   5.897  10.089   8.176 -0.5266 -0.1131  0.7858
  566MOL0     H78067   6.094  10.318   8.339  0.4596 -0.1391 -0.9170
  566MOL0     H78068   6.145  10.318   8.164 -0.8110  0.2009 -0.2001
  566MOL0     H78069   6.087  10.175   8.233 -0.7770 -0.4162  0.2102
  566MOL0     H78070   6.066  10.798   8.015  3.0163  1.0917  1.0490
  566MOL0     H78071   6.184  10.992   8.071 -1.0433  0.6715 -0.8760
  566MOL0     H78072   5.981  11.266   8.298 -1.5484 -1.0198 -1.8030
  566MOL0     H78073   6.123  11.366   8.276 -2.2062  1.9595 -0.9369
  566MOL0     H78074   6.123  11.269   8.026 -2.5912 -0.4581 -2.3156
  566MOL0     H78075   5.976  11.197   8.071  0.1279 -0.8624 -0.3488
  566MOL0     H78076   6.036  11.492   8.023 -0.4234  0.7066 -1.1438
  566MOL0     H78077   5.903  11.441   8.145 -0.7436  0.6671 -1.8639
  566MOL0     H78078   5.819  11.295   7.967  0.5356 -0.5196 -1.0226
  566MOL0     H78079   5.920  11.381   7.851 -0.6254  1.2010 -0.7474
  566MOL0     H78080   5.720  11.516   8.030 -1.2739 -3.4302  0.2618
  566MOL0     H78081   5.818  11.584   7.896  0.5435 -1.8296  0.6176
  566MOL0     H78082   5.695  11.440   7.740  1.5661 -1.2401  1.2935
  566MOL0     H78083   5.586  11.562   7.811 -1.2601 -1.8779  0.4107
  566MOL0     H78084   5.586  11.276   7.923 -2.1320  1.0781  3.3798
  566MOL0     H78085   5.479  11.333   7.791  0.0520 -2.0718 -0.0523
  566MOL0     H78086   5.486  11.501   8.031  0.5111  0.4799 -0.9540
  566MOL0     H78087   5.398  11.349   8.044 -4.1529  1.3412  0.2681
  566MOL0     H78088   5.961  11.041   8.433  1.2719 -0.3366  1.1163
  566MOL0     H78089   5.851  10.828   8.387 -1.1793  1.2880 -0.9930
  566MOL0     H78090   5.688  10.537   8.146  0.5341 -0.7704 -1.9834
  566MOL0     H78091   5.559  10.335   8.112 -2.1772 -2.5086  2.9429
  566MOL0     H78092   5.470   9.295   7.831 -0.9032  0.1276  0.3555
  566MOL0     H78093   5.488   9.494   7.977 -2.6255  2.1684 -0.1384
  566MOL0     H78094   5.560   9.680   8.360  0.0903 -0.2708  0.4561
  566MOL0     H78095   5.614   9.881   8.468  0.5135 -1.0863  0.2275
  566MOL0     H78096   5.602  10.053   8.596 -2.7434 -0.6298  0.2367
  566MOL0     H78097   5.664  10.142   8.459  1.9830 -0.2677  1.4160
  566MOL0     H78098   5.663  10.286   8.661 -0.9386 -0.8832  1.1001
  566MOL0     H78099   5.499  10.305   8.669  0.8435 -1.6772  1.6538
  566MOL0     H78100   5.700  10.382   8.449  0.1419 -5.9151  1.5017
  566MOL0     H78101   5.514  10.413   8.439 -0.8729  2.7852  0.3137
  566MOL0     H78102   5.711  10.529   8.635  0.2846 -1.7109  0.5780
  566MOL0     H78103   5.540  10.540   8.663  3.8123  0.0383  4.2875
  566MOL0     H78104   5.618  10.825   8.364  1.3882 -1.0736 -0.7642
  566MOL0     H78105   5.249  10.064   8.328 -0.3164  0.2770  1.0708
  566MOL0     H78106   5.181   9.838   8.050 -0.9485  1.5100 -0.4858
  566MOL0     H78107   5.078   9.841   8.198 -2.0333  0.8820 -2.5458
  566MOL0     H78108   5.137   9.981   8.124 -0.8406 -0.3840 -1.6847
  567MOL0     O78109   4.252   4.718   6.751 -0.3583 -0.3209 -0.6978
  567MOL0     C78110   4.191   4.614   6.724 -0.2192  0.4892 -0.1388
  567MOL0     O78111   4.056   4.607   6.698  0.0624  0.5273  0.3240
  567MOL0     C78112   3.979   4.724   6.690  0.5557  0.3956 -0.0795
  567MOL0     C78113   3.965   4.818   6.790  0.3496 -0.1596 -0.6576
  567MOL0     C78114   3.864   4.917   6.789  0.6294  1.0262 -0.4605
  567MOL0     C78115   3.777   4.924   6.677  0.5994  0.9784  0.4146
  567MOL0     O78116   3.666   5.004   6.656  0.4232 -0.2833  0.0516
  567MOL0     C78117   3.648   5.125   6.739 -0.4167  0.4889  0.1390
  567MOL0     C78118   3.585   5.088   6.880  0.3144  0.9664 -0.1904
  567MOL0     C78119   3.486   5.194   6.920  0.8645  0.3786 -1.2409
  567MOL0     C78120   3.434   5.167   7.060 -0.4912  0.8147  0.4423
  567MOL0     C78121   3.327   5.263   7.114  0.2883  1.0096 -0.1811
  567MOL0     C78122   3.222   5.185   7.189  0.0292  0.0177  0.2857
  567MOL0     C78123   3.110   5.286   7.236 -0.2277  1.1875  0.9634
  567MOL0     C78124   3.006   5.210   7.319  0.1626  0.1471 -0.3449
  567MOL0     N78125   3.059   5.210   7.462 -0.0777  0.2049  0.3354
  567MOL0     C78126   3.127   5.100   7.522  0.2520  1.1861  0.2621
  567MOL0     C78127   3.160   5.139   7.640  1.0479  0.8662 -0.4379
  567MOL0     C78128   3.241   5.033   7.734 -0.4886 -0.9302  0.2201
  567MOL0     C78129   3.387   5.018   7.681  0.7189  0.1174  0.5870
  567MOL0     C78130   3.466   4.915   7.765  0.0494  0.3541 -0.6008
  567MOL0     C78131   3.619   4.929   7.754  0.2848  0.6099  0.4985
  567MOL0     O78132   3.678   4.919   7.623  0.1767  0.5404 -0.0782
  567MOL0     C78133   3.819   4.899   7.618  0.0650 -0.4556 -0.3668
  567MOL0     C78134   3.908   4.870   7.728  1.1308  0.0344  0.3916
  567MOL0     C78135   4.047   4.874   7.707 -0.1797  0.5265 -0.1952
  567MOL0     C78136   4.139   4.841   7.829 -0.9067  0.3621  0.9688
  567MOL0     C78137   4.099   4.913   7.578  0.7324 -0.0889  0.1530
  567MOL0     C78138   4.247   4.927   7.552 -0.5526 -0.2283  0.4438
  567MOL0     O78139   4.270   5.033   7.460  0.7837 -0.1190  0.0710
  567MOL0     C78140   4.400   5.074   7.436 -0.1334  0.4364 -0.0860
  567MOL0     C78141   4.525   5.024   7.493  0.7419  0.5657 -1.0540
  567MOL0     C78142   4.652   5.063   7.442  0.6255  0.4087 -0.1514
  567MOL0     C78143   4.662   5.168   7.353  0.2151  0.1894 -0.1892
  567MOL0     O78144   4.776   5.222   7.312 -0.1198 -0.0165  0.9972
  567MOL0     C78145   4.879   5.236   7.405 -0.0682 -0.0437  0.7137
  567MOL0     C78146   4.976   5.331   7.342  0.4226  0.4987  0.0964
  567MOL0     C78147   5.094   5.363   7.433  0.5975  0.5993  0.0915
  567MOL0     C78148   5.153   5.498   7.376 -0.2659 -0.4255 -0.9693
  567MOL0     C78149   5.264   5.554   7.466  0.8809 -0.3491 -0.0474
  567MOL0     C78150   5.293   5.704   7.422  0.4606  0.8521  0.3394
  567MOL0     C78151   5.381   5.789   7.517  0.4896  0.3751 -0.0236
  567MOL0     C78152   5.430   5.922   7.454 -0.2817  0.2207  0.0962
  567MOL0    Cl78153   5.555   5.883   7.330  0.0321  0.0930  0.0834
  567MOL0     C78154   4.543   5.230   7.308 -0.1766  0.1012  0.5544
  567MOL0     C78155   4.410   5.185   7.340 -1.1954 -0.8303 -0.9305
  567MOL0     O78156   4.319   4.843   7.589  0.0762  0.0793 -0.7471
  567MOL0     C78157   4.006   4.926   7.466 -0.9225  0.3283  0.5809
  567MOL0     C78158   3.870   4.914   7.492 -0.2048 -0.0111 -0.7497
  567MOL0     N78159   3.130   5.266   7.654  0.2803 -0.1738 -1.2172
  567MOL0     N78160   3.070   5.312   7.553  0.4486 -0.3613 -0.0315
  567MOL0     C78161   3.809   4.851   6.562  0.3785  0.5798 -0.2175
  567MOL0     C78162   3.899   4.746   6.571 -0.4627 -1.0681  0.3043
  567MOL0     C78163   4.266   4.498   6.678  0.1829 -0.2958 -0.2397
  567MOL0     C78164   4.207   4.411   6.582 -0.6965 -0.5054  0.9943
  567MOL0     C78165   4.270   4.295   6.555 -0.1203  0.3429 -0.2261
  567MOL0     C78166   4.372   4.252   6.636  0.2501  0.7327 -0.2122
  567MOL0     O78167   4.432   4.134   6.613 -0.4697 -0.5992 -0.1979
  567MOL0     C78168   4.565   4.123   6.547  0.0629 -0.9297 -0.5777
  567MOL0     C78169   4.642   4.010   6.610 -0.8382  0.2184 -0.2185
  567MOL0     C78170   4.706   4.056   6.738  0.2087 -0.0188  0.7452
  567MOL0     C78171   4.835   4.140   6.730 -0.8105 -0.1856  0.3958
  567MOL0     C78172   4.944   4.069   6.671 -0.7133  0.3042 -0.2063
  567MOL0     C78173   5.048   4.018   6.634  0.2443  0.2653  0.5881
  567MOL0     C78174   4.418   4.326   6.747  1.4279 -0.1205 -0.3666
  567MOL0     C78175   4.369   4.457   6.766 -0.0167  0.3201  0.5017
  567MOL0     C78176   4.422   4.534   6.889  0.7161  1.0220  0.4866
  567MOL0     H78177   4.021   4.810   6.882 -2.5524  1.8062  1.4647
  567MOL0     H78178   3.847   4.980   6.875 -2.0186  2.1775 -1.7431
  567MOL0     H78179   3.580   5.188   6.681 -0.2534  3.2490  2.6828
  567MOL0     H78180   3.747   5.166   6.761  0.3444 -1.7920  1.2850
  567MOL0     H78181   3.527   4.996   6.869  3.2946 -1.0346 -0.4000
  567MOL0     H78182   3.659   5.079   6.961 -0.7267  0.5871  0.7523
  567MOL0     H78183   3.541   5.286   6.942 -0.6324  1.2198 -0.8244
  567MOL0     H78184   3.407   5.214   6.846 -1.2512 -0.6498  0.6358
  567MOL0     H78185   3.411   5.060   7.062  2.7643  0.0176  0.6032
  567MOL0     H78186   3.523   5.178   7.123  0.9114 -1.9966 -0.8667
  567MOL0     H78187   3.291   5.327   7.033  0.0219 -0.7956 -1.5658
  567MOL0     H78188   3.386   5.324   7.182 -2.5467  3.4412  0.2604
  567MOL0     H78189   3.163   5.120   7.124 -2.5703  2.4656 -0.0044
  567MOL0     H78190   3.259   5.131   7.277 -2.5018  0.5369  1.7666
  567MOL0     H78191   3.063   5.323   7.144 -0.4889  0.0620  0.6324
  567MOL0     H78192   3.153   5.367   7.295 -0.4372  2.2572 -0.3076
  567MOL0     H78193   2.911   5.263   7.328  0.2219  0.5795 -1.8947
  567MOL0     H78194   2.978   5.110   7.284 -1.8474 -0.0224  1.5680
  567MOL0     H78195   3.171   5.012   7.477  2.0702  2.8780 -1.4904
  567MOL0     H78196   3.190   4.937   7.719 -0.3053 -0.6181 -3.4858
  567MOL0     H78197   3.242   5.067   7.838  1.1703  2.7297 -0.8262
  567MOL0     H78198   3.382   4.993   7.575 -1.5525 -2.3408  1.1454
  567MOL0     H78199   3.438   5.113   7.666  2.2056 -1.1376 -3.6101
  567MOL0     H78200   3.457   4.933   7.873 -1.5108  1.7368 -0.9242
  567MOL0     H78201   3.434   4.816   7.730  1.5506  0.8447 -3.6829
  567MOL0     H78202   3.646   5.027   7.796  1.5816 -0.0255  1.2292
  567MOL0     H78203   3.655   4.846   7.817 -0.0263 -0.9248 -1.2665
  567MOL0     H78204   3.877   4.858   7.831 -2.0153 -2.8058 -0.7125
  567MOL0     H78205   4.215   4.765   7.810  0.8483  2.1365  0.4466
  567MOL0     H78206   4.079   4.806   7.913  1.7496 -2.5846  1.8294
  567MOL0     H78207   4.198   4.933   7.842 -0.9238  0.3274  1.3029
  567MOL0     H78208   4.522   4.958   7.579 -0.7524  0.7635 -0.9225
  567MOL0     H78209   4.737   5.028   7.499  0.5065  3.4967  2.1854
  567MOL0     H78210   4.831   5.276   7.495 -1.2288  1.6689 -0.6098
  567MOL0     H78211   4.927   5.138   7.415 -0.9360 -0.7000 -1.2209
  567MOL0     H78212   5.003   5.271   7.255 -0.1914 -0.6022  0.6397
  567MOL0     H78213   4.926   5.424   7.313 -0.9594 -1.0595 -3.1003
  567MOL0     H78214   5.168   5.284   7.445  2.9403  2.7062  0.2820
  567MOL0     H78215   5.057   5.390   7.532 -1.1285  1.7159 -0.7996
  567MOL0     H78216   5.071   5.571   7.382 -0.5990 -0.6620 -2.3389
  567MOL0     H78217   5.186   5.504   7.272  0.8804  3.6412 -0.5429
  567MOL0     H78218   5.238   5.560   7.573  0.3335 -1.8799 -0.0700
  567MOL0     H78219   5.356   5.496   7.452  2.0079  0.8624  1.8029
  567MOL0     H78220   5.197   5.755   7.413  0.8287  1.7498  1.2743
  567MOL0     H78221   5.331   5.694   7.320 -1.1949 -2.5548 -0.1020
  567MOL0     H78222   5.468   5.735   7.556  0.9024  1.8546  1.2112
  567MOL0     H78223   5.312   5.811   7.599  0.2987 -1.4917  0.3489
  567MOL0     H78224   5.476   5.992   7.525 -1.3883  1.8164 -0.7192
  567MOL0     H78225   5.348   5.976   7.407 -2.5019 -0.6630  2.6643
  567MOL0     H78226   4.548   5.313   7.238  1.7964  0.9364  1.6202
  567MOL0     H78227   4.323   5.229   7.292 -0.3544 -0.3607 -2.0639
  567MOL0     H78228   4.051   4.937   7.367 -1.7281 -1.7188 -0.0633
  567MOL0     H78229   3.798   4.906   7.410 -0.2217  2.6848 -1.0754
  567MOL0     H78230   3.751   4.843   6.470  0.0985 -4.1858  0.0831
  567MOL0     H78231   3.922   4.678   6.489 -2.7449  0.0891 -1.4241
  567MOL0     H78232   4.124   4.432   6.515 -0.3212 -2.8404 -0.3131
  567MOL0     H78233   4.227   4.236   6.475 -2.6035  0.9480  0.5762
  567MOL0     H78234   4.534   4.110   6.442 -1.3629 -1.3313 -0.1328
  567MOL0     H78235   4.610   4.222   6.541  0.4558 -1.1539 -1.5887
  567MOL0     H78236   4.720   3.969   6.545  1.3641  2.0664  1.1193
  567MOL0     H78237   4.561   3.937   6.622 -2.8682  2.2424 -0.9283
  567MOL0     H78238   4.625   4.115   6.782 -0.0401  1.7290 -1.7970
  567MOL0     H78239   4.737   3.976   6.805 -1.8252 -0.6670  0.9775
  567MOL0     H78240   4.868   4.175   6.828 -0.2033 -0.5321  0.3231
  567MOL0     H78241   4.823   4.231   6.670  1.8389 -0.8601 -1.3693
  567MOL0     H78242   5.140   3.966   6.612 -0.8793 -1.8076  0.4887
  567MOL0     H78243   4.505   4.288   6.799  0.2195 -3.7661 -0.6801
  567MOL0     H78244   4.487   4.464   6.942 -0.9241 -0.7591  0.3049
  567MOL0     H78245   4.470   4.631   6.873 -0.3445  1.5970  0.6884
  567MOL0     H78246   4.337   4.550   6.956  1.3791  0.5471  1.4651
  568MOL0     O78247   0.559   5.831   5.373  0.1999  0.6381  0.2784
  568MOL0     C78248   0.656   5.894   5.335  0.6101 -0.9699 -0.0459
  568MOL0     O78249   0.651   5.967   5.219  0.2174  0.0306 -0.2725
  568MOL0     C78250   0.552   5.948   5.120 -0.3417  0.1633 -0.4935
  568MOL0     C78251   0.475   5.832   5.096 -0.8136  0.0469  0.5366
  568MOL0     C78252   0.373   5.829   4.995 -0.6699 -0.5593  0.9351
  568MOL0     C78253   0.348   5.942   4.921  0.1727  0.0485 -0.2321
  568MOL0     O78254   0.232   5.938   4.845  0.1556 -0.2184 -0.2167
  568MOL0     C78255   0.183   6.059   4.785  0.1003  0.8189  0.3989
  568MOL0     C78256   0.033   6.022   4.749  0.2915  0.5724 -0.2420
  568MOL0     C78257  -0.040   6.110   4.639  0.3560 -0.2382  0.3274
  568MOL0     C78258  -0.005   6.062   4.496  0.5471  0.3739 -0.9571
  568MOL0     C78259  -0.064   5.921   4.445  0.5850  0.2744 -0.0423
  568MOL0     C78260  -0.207   5.935   4.404  0.5383 -0.9462  0.1652
  568MOL0     C78261  -0.286   5.813   4.377 -0.1872  0.0065  0.0502
  568MOL0     C78262  -0.432   5.826   4.344  0.5581 -0.2399 -0.4763
  568MOL0     N78263  -0.506   5.922   4.432 -0.5367  0.3139 -0.4272
  568MOL0     C78264  -0.542   5.899   4.565 -1.0165  0.2498  0.6125
  568MOL0     C78265  -0.606   6.014   4.610 -0.6296  0.7055 -0.4934
  568MOL0     C78266  -0.653   6.041   4.757 -0.0833  0.3659  1.3215
  568MOL0     C78267  -0.806   6.040   4.742  0.7069 -0.5609 -0.0879
  568MOL0     C78268  -0.869   6.069   4.877  0.2516  0.0046  0.9787
  568MOL0     C78269  -0.829   5.984   4.999  0.2219  0.1967  0.7294
  568MOL0     O78270  -0.689   6.006   5.035  0.2245  0.0932  0.2511
  568MOL0     C78271  -0.640   5.953   5.152 -0.5323 -0.1408 -0.3298
  568MOL0     C78272  -0.718   5.935   5.262  0.3162  0.0793 -0.2626
  568MOL0     C78273  -0.661   5.919   5.385  0.6924 -0.5076  1.0837
  568MOL0     C78274  -0.763   5.884   5.490  0.5287 -0.0185  0.0686
  568MOL0     C78275  -0.525   5.932   5.412  0.8539 -0.1542 -0.3481
  568MOL0     C78276  -0.455   5.932   5.539 -1.1832 -0.2062  0.1259
  568MOL0     O78277  -0.322   5.918   5.533  0.5597  0.0189  0.4282
  568MOL0     C78278  -0.251   5.970   5.640  0.6020  0.0565  0.3151
  568MOL0     C78279  -0.221   5.885   5.745 -0.2594 -0.1652  0.3465
  568MOL0     C78280  -0.142   5.930   5.845  0.5162  0.2474  0.1093
  568MOL0     C78281  -0.101   6.068   5.860 -0.0836 -0.1053  0.1522
  568MOL0     O78282  -0.025   6.090   5.965 -1.1659  0.3803 -1.2618
  568MOL0     C78283  -0.018   6.222   6.007  0.7167  0.0404 -0.5787
  568MOL0     C78284   0.096   6.237   6.112  0.0824 -0.3273  0.0553
  568MOL0     C78285   0.079   6.359   6.200 -0.0644 -0.7366  0.5244
  568MOL0     C78286   0.115   6.494   6.133  0.1554 -1.4360  0.8017
  568MOL0     C78287   0.117   6.591   6.244  0.0985  0.1253 -0.4515
  568MOL0     C78288   0.097   6.742   6.202 -0.1715  0.8964  0.3163
  568MOL0     C78289   0.115   6.834   6.316  0.5119 -0.8206  0.1167
  568MOL0     C78290   0.257   6.839   6.377  0.1150 -0.2536  0.1180
  568MOL0    Cl78291   0.393   6.856   6.261  0.3904 -0.1761  0.5006
  568MOL0     C78292  -0.138   6.153   5.757 -0.4219  0.1249 -0.3256
  568MOL0     C78293  -0.215   6.104   5.650 -0.7527 -0.9044  0.4121
  568MOL0     O78294  -0.526   5.922   5.644 -0.0691  0.3751 -0.0823
  568MOL0     C78295  -0.453   5.960   5.298  0.0236  0.6430  0.5258
  568MOL0     C78296  -0.502   5.959   5.168  0.1359 -0.2717  1.0134
  568MOL0     N78297  -0.614   6.100   4.509 -0.4080  0.2018 -0.2648
  568MOL0     N78298  -0.559   6.044   4.400 -1.0493  0.1539 -0.7554
  568MOL0     C78299   0.432   6.053   4.930 -1.1114 -0.2849 -0.8413
  568MOL0     C78300   0.528   6.062   5.035 -0.4311  0.0478  0.0578
  568MOL0     C78301   0.784   5.897   5.400  0.4050 -0.1373 -0.4981
  568MOL0     C78302   0.870   6.006   5.383 -0.0830 -0.1481  0.3237
  568MOL0     C78303   0.997   6.018   5.446 -0.5751  0.4619  0.5708
  568MOL0     C78304   1.042   5.918   5.537 -0.4462 -0.1816  0.2033
  568MOL0     O78305   1.164   5.905   5.616  0.3819 -0.0032  0.5445
  568MOL0     C78306   1.230   6.034   5.638 -0.3185  0.1004  0.1574
  568MOL0     C78307   1.164   6.121   5.751  0.0478 -0.1025  0.1856
  568MOL0     C78308   1.245   6.249   5.775 -0.0846  0.7192 -0.1480
  568MOL0     C78309   1.268   6.282   5.927  0.4601 -0.6901  0.0665
  568MOL0     C78310   1.132   6.307   5.997  0.0671  0.2797  0.7231
  568MOL0     C78311   1.022   6.313   6.049  0.4521  0.1089 -0.1688
  568MOL0     C78312   0.949   5.801   5.555 -0.4757 -0.8062 -0.1935
  568MOL0     C78313   0.821   5.794   5.495 -0.8410  0.3777 -0.2600
  568MOL0     C78314   0.740   5.668   5.514  0.1355 -0.1123  0.0244
  568MOL0     H78315   0.480   5.746   5.163  0.2345  0.7641  1.4235
  568MOL0     H78316   0.296   5.753   4.997 -0.8221 -0.6724 -2.6115
  568MOL0     H78317   0.246   6.071   4.696 -0.6041  1.8049  0.0221
  568MOL0     H78318   0.198   6.144   4.853 -3.1742 -0.2040  2.6103
  568MOL0     H78319   0.031   5.915   4.727 -0.6092  0.7315 -0.9844
  568MOL0     H78320  -0.021   6.024   4.844 -1.4469 -4.7630 -0.8110
  568MOL0     H78321  -0.146   6.098   4.659  0.4495 -1.0827  0.3525
  568MOL0     H78322  -0.025   6.218   4.645 -2.1795  0.2149 -0.4250
  568MOL0     H78323  -0.028   6.136   4.419  2.8371  0.4345 -1.6430
  568MOL0     H78324   0.102   6.043   4.489  0.7110  0.7329  0.4251
  568MOL0     H78325  -0.062   5.843   4.522 -4.1319 -2.9535 -2.7002
  568MOL0     H78326   0.001   5.888   4.363  1.4930  0.2075  0.6875
  568MOL0     H78327  -0.256   5.991   4.485  0.2712 -0.9556  0.0109
  568MOL0     H78328  -0.207   5.997   4.314 -1.0756  1.1008  1.4538
  568MOL0     H78329  -0.282   5.757   4.471 -0.8991 -2.4678 -1.3026
  568MOL0     H78330  -0.233   5.762   4.296  3.1627  1.2802  1.2546
  568MOL0     H78331  -0.420   5.850   4.238  3.7128  1.0420  0.0551
  568MOL0     H78332  -0.482   5.729   4.351  2.9037 -1.4445  0.4485
  568MOL0     H78333  -0.511   5.812   4.623  2.2987 -0.3259 -1.7111
  568MOL0     H78334  -0.621   6.136   4.801  0.9950 -0.0648  1.5101
  568MOL0     H78335  -0.617   5.956   4.817  0.9594  0.6352  1.0908
  568MOL0     H78336  -0.832   6.123   4.676  0.4630 -0.6965 -0.1626
  568MOL0     H78337  -0.840   5.945   4.701 -1.7849 -0.4607  1.5186
  568MOL0     H78338  -0.844   6.173   4.902  1.1494  0.0303  0.0288
  568MOL0     H78339  -0.979   6.069   4.868  0.1517  1.6048  1.8235
  568MOL0     H78340  -0.898   6.013   5.079  1.2634 -1.2347  2.1947
  568MOL0     H78341  -0.846   5.877   4.983 -1.5025  0.5765 -0.3248
  568MOL0     H78342  -0.826   5.943   5.255  0.1287  2.1534  2.8577
  568MOL0     H78343  -0.723   5.795   5.540 -0.4336 -0.0542  0.7929
  568MOL0     H78344  -0.865   5.860   5.457 -0.5991  2.4903  1.4377
  568MOL0     H78345  -0.776   5.965   5.562 -3.8195 -0.7297  0.3758
  568MOL0     H78346  -0.234   5.777   5.742  0.8192 -0.4099  2.3340
  568MOL0     H78347  -0.122   5.862   5.927 -1.2923  0.0070  0.4044
  568MOL0     H78348   0.001   6.297   5.929  1.9610  0.2482 -0.0878
  568MOL0     H78349  -0.114   6.252   6.051  2.4867  1.0530  2.8894
  568MOL0     H78350   0.106   6.152   6.180 -1.1346 -1.0517 -0.6546
  568MOL0     H78351   0.181   6.241   6.044  1.2179 -1.4832  1.3466
  568MOL0     H78352   0.150   6.345   6.282  0.8260 -0.4392 -0.1722
  568MOL0     H78353  -0.024   6.348   6.235 -0.5758 -1.9552 -1.2382
  568MOL0     H78354   0.042   6.522   6.056  0.9543 -0.0790  0.4972
  568MOL0     H78355   0.212   6.489   6.083  1.2189 -0.8147  2.7105
  568MOL0     H78356   0.022   6.568   6.292 -0.5262 -1.1245 -2.2090
  568MOL0     H78357   0.208   6.578   6.302  0.3076  0.4664 -0.6944
  568MOL0     H78358  -0.001   6.762   6.158  0.3085  1.0482 -0.7213
  568MOL0     H78359   0.169   6.761   6.121 -1.2952 -2.0671 -1.5392
  568MOL0     H78360   0.038   6.804   6.388 -4.2798  1.2394 -3.6542
  568MOL0     H78361   0.103   6.937   6.284  1.5794 -0.3788  1.0664
  568MOL0     H78362   0.270   6.745   6.432 -2.0454 -0.6531  0.0021
  568MOL0     H78363   0.258   6.916   6.454 -0.2923  1.2303 -1.3131
  568MOL0     H78364  -0.100   6.255   5.755 -1.2184  0.4180 -0.7163
  568MOL0     H78365  -0.242   6.174   5.571  1.4902  0.5427  0.8409
  568MOL0     H78366  -0.350   5.994   5.300  1.0447 -2.0686 -0.5005
  568MOL0     H78367  -0.439   6.003   5.093 -1.7849  3.6088  1.4445
  568MOL0     H78368   0.407   6.143   4.874  0.9552  1.6736  1.1268
  568MOL0     H78369   0.565   6.162   5.056 -2.5449  0.9438 -0.2554
  568MOL0     H78370   0.846   6.096   5.327 -0.7598  1.4201  2.9456
  568MOL0     H78371   1.047   6.115   5.449 -0.8394  0.6024  0.3985
  568MOL0     H78372   1.334   6.007   5.659 -1.1900 -3.1160  0.8285
  568MOL0     H78373   1.228   6.099   5.550 -1.4746 -0.6365 -0.3801
  568MOL0     H78374   1.155   6.060   5.842  0.8001 -1.4688 -0.6261
  568MOL0     H78375   1.060   6.143   5.725 -0.8201  0.2596  3.4428
  568MOL0     H78376   1.341   6.251   5.723 -1.5831  1.0854 -3.1072
  568MOL0     H78377   1.180   6.328   5.736  1.1064  1.3537 -0.8890
  568MOL0     H78378   1.339   6.364   5.939  0.3985 -0.3001 -2.0002
  568MOL0     H78379   1.317   6.195   5.971 -0.0552 -2.3329 -2.4459
  568MOL0     H78380   0.922   6.318   6.085 -0.0270  1.2621 -1.5723
  568MOL0     H78381   0.982   5.719   5.617  2.5576  0.7515  0.4362
  568MOL0     H78382   0.807   5.599   5.565  3.8164 -0.0983 -4.1744
  568MOL0     H78383   0.663   5.686   5.589 -0.0939 -1.3562  0.1025
  568MOL0     H78384   0.702   5.627   5.420 -2.4131 -1.6542  1.6073
  569MOL0     O78385   4.659   0.408  10.286 -0.3281 -0.7954 -0.5233
  569MOL0     C78386   4.573   0.447  10.362 -0.3453  0.8011  0.1941
  569MOL0     O78387   4.449   0.387  10.376  0.9000  0.2122  0.0458
  569MOL0     C78388   4.433   0.269  10.332  0.2490  0.4210 -0.3102
  569MOL0     C78389   4.361   0.225  10.217  0.1791 -0.6200  0.4148
  569MOL0     C78390   4.338   0.089  10.191 -0.8357  0.3349 -0.1015
  569MOL0     C78391   4.397  -0.012  10.267  0.8799  0.0292  0.5829
  569MOL0     O78392   4.373  -0.139  10.235 -0.9149  0.0504 -0.0182
  569MOL0     C78393   4.432  -0.244  10.313 -0.4128 -0.3201 -0.3004
  569MOL0     C78394   4.382  -0.376  10.255 -0.5765  0.6967 -0.3037
  569MOL0     C78395   4.483  -0.443  10.168 -0.3982 -0.8028 -0.3204
  569MOL0     C78396   4.431  -0.591  10.120  0.1247 -1.5347  0.9039
  569MOL0     C78397   4.544  -0.691  10.075 -0.0291 -0.8363 -0.2202
  569MOL0     C78398   4.623  -0.742  10.194  0.3145  0.5958 -0.6714
  569MOL0     C78399   4.549  -0.809  10.309 -0.1757  0.5719 -0.5893
  569MOL0     C78400   4.474  -0.937  10.270 -0.2376  0.6152 -0.5525
  569MOL0     N78401   4.565  -1.053  10.270  0.5734 -0.5154  0.0358
  569MOL0     C78402   4.608  -1.132  10.161 -0.2466  0.1985 -0.2327
  569MOL0     C78403   4.693  -1.219  10.209 -1.1897  0.4020 -0.7918
  569MOL0     C78404   4.763  -1.336  10.130  0.8459  1.0055  0.9152
  569MOL0     C78405   4.665  -1.442  10.074 -0.2260 -0.6188  0.8652
  569MOL0     C78406   4.570  -1.508  10.185  0.1590 -0.1437  0.1346
  569MOL0     C78407   4.639  -1.565  10.314 -0.2991 -0.3256 -0.6962
  569MOL0     O78408   4.776  -1.608  10.291  0.6939 -0.0828 -0.1755
  569MOL0     C78409   4.851  -1.616  10.405  0.2284 -0.5491 -0.0011
  569MOL0     C78410   4.845  -1.717  10.491 -0.5724  0.9892  0.1247
  569MOL0     C78411   4.930  -1.736  10.602 -0.7160  0.0865  0.3902
  569MOL0     C78412   4.914  -1.859  10.686  0.2967  0.6853 -0.2082
  569MOL0     C78413   5.030  -1.634  10.623 -0.8703  0.4937 -0.8489
  569MOL0     C78414   5.116  -1.631  10.745  0.2780 -0.3123 -0.0727
  569MOL0     O78415   5.238  -1.568  10.744  0.6154  0.3754  0.7028
  569MOL0     C78416   5.310  -1.578  10.859  0.6167  0.6531  0.1395
  569MOL0     C78417   5.352  -1.698  10.927  0.4405 -0.5413 -0.3312
  569MOL0     C78418   5.434  -1.689  11.043  0.4323 -0.6824 -0.6617
  569MOL0     C78419   5.481  -1.563  11.096  0.4051  1.1047  0.1808
  569MOL0     O78420   5.561  -1.554  11.206 -1.4331  0.1144 -0.3743
  569MOL0     C78421   5.688  -1.629  11.176 -0.2254 -0.7418 -0.5878
  569MOL0     C78422   5.802  -1.629  11.277  0.1091 -0.1103 -0.2131
  569MOL0     C78423   5.765  -1.631  11.423  0.5236  0.5151 -0.8749
  569MOL0     C78424   5.890  -1.595  11.504 -0.4600  0.1939  1.0004
  569MOL0     C78425   5.856  -1.619  11.652  0.2661 -0.7851 -0.0463
  569MOL0     C78426   5.970  -1.572  11.741 -0.2429 -0.9211  0.1824
  569MOL0     C78427   5.940  -1.593  11.891 -0.3630 -0.3319  0.5168
  569MOL0     C78428   6.029  -1.488  11.970  0.6434  1.1609  0.0302
  569MOL0    Cl78429   5.997  -1.315  11.930 -0.2619 -0.2698  0.0710
  569MOL0     C78430   5.433  -1.452  11.025 -0.2012  0.1983  0.5747
  569MOL0     C78431   5.354  -1.460  10.911  0.7506 -0.4658 -0.0893
  569MOL0     O78432   5.068  -1.683  10.846 -0.5785  0.9465 -0.4590
  569MOL0     C78433   5.040  -1.529  10.533  0.7377  0.6956 -0.5939
  569MOL0     C78434   4.958  -1.526  10.428 -0.3796 -1.1461 -0.7376
  569MOL0     N78435   4.717  -1.182  10.347 -0.0394 -0.5933  0.2376
  569MOL0     N78436   4.640  -1.083  10.384 -0.3333 -0.9148  0.5755
  569MOL0     C78437   4.479   0.031  10.374 -0.1752  0.5726 -0.2420
  569MOL0     C78438   4.501   0.163  10.406 -1.0877 -0.2644 -0.4703
  569MOL0     C78439   4.577   0.576  10.440 -0.0496  0.2553 -1.2141
  569MOL0     C78440   4.472   0.669  10.460 -0.2634 -0.0035  0.7427
  569MOL0     C78441   4.472   0.790  10.524 -0.0322 -0.0931 -0.7540
  569MOL0     C78442   4.588   0.817  10.598 -0.4468 -0.0941  1.0933
  569MOL0     O78443   4.603   0.932  10.676  0.3385  0.3340 -0.0128
  569MOL0     C78444   4.545   1.055  10.632  0.8496 -0.7471  0.0287
  569MOL0     C78445   4.590   1.105  10.502 -0.4435  0.5048 -0.3702
  569MOL0     C78446   4.738   1.157  10.504 -0.6156 -0.5931 -0.4238
  569MOL0     C78447   4.823   1.125  10.382  0.5638  1.2211 -0.9254
  569MOL0     C78448   4.861   0.988  10.373  0.5183 -1.1156  0.2909
  569MOL0     C78449   4.884   0.869  10.350  1.4757 -0.0426  0.6390
  569MOL0     C78450   4.699   0.727  10.585 -0.0472 -1.3635 -0.6176
  569MOL0     C78451   4.696   0.614  10.506  0.9717 -0.1992  1.0958
  569MOL0     C78452   4.815   0.525  10.501 -0.2430 -0.0391  0.3584
  569MOL0     H78453   4.321   0.301  10.150  0.6964  0.4305  1.2805
  569MOL0     H78454   4.276   0.050  10.110 -0.5694  0.3224 -0.2988
  569MOL0     H78455   4.388  -0.226  10.411  1.1815 -0.6080  0.5072
  569MOL0     H78456   4.541  -0.231  10.317 -0.5753  0.6873  1.9684
  569MOL0     H78457   4.350  -0.440  10.338 -2.4810 -0.9447 -2.1962
  569MOL0     H78458   4.284  -0.369  10.207  0.0878 -0.6726 -1.9965
  569MOL0     H78459   4.488  -0.381  10.078  1.7855 -2.0485 -1.1455
  569MOL0     H78460   4.581  -0.454  10.215 -0.6542  2.3855  1.1956
  569MOL0     H78461   4.374  -0.636  10.201 -0.5050  0.2327  1.4882
  569MOL0     H78462   4.354  -0.584  10.042 -1.6772 -2.1845  2.5424
  569MOL0     H78463   4.609  -0.639  10.004 -0.2754 -0.8534 -0.4622
  569MOL0     H78464   4.498  -0.776  10.023  0.9299 -1.8229  0.4805
  569MOL0     H78465   4.696  -0.817  10.162  1.5746  1.1644  0.7606
  569MOL0     H78466   4.671  -0.656  10.241 -0.5949  1.3735 -1.1253
  569MOL0     H78467   4.475  -0.741  10.353 -0.1272  1.1135 -1.3173
  569MOL0     H78468   4.622  -0.822  10.388 -1.2300  0.1539  0.3437
  569MOL0     H78469   4.385  -0.947  10.333  1.4098  0.3105  1.8461
  569MOL0     H78470   4.435  -0.923  10.169 -2.2254  3.1927  0.4610
  569MOL0     H78471   4.567  -1.136  10.061 -0.2223 -2.1691 -0.2041
  569MOL0     H78472   4.838  -1.392  10.187 -0.0298 -2.1341 -0.8099
  569MOL0     H78473   4.822  -1.298  10.046  3.5458 -1.6262  1.4210
  569MOL0     H78474   4.597  -1.396  10.002  0.1269 -0.6056  0.5351
  569MOL0     H78475   4.720  -1.520  10.019  0.6986  1.4607 -1.3160
  569MOL0     H78476   4.507  -1.421  10.205  2.4376  1.1931  2.1442
  569MOL0     H78477   4.508  -1.586  10.141 -2.5578  2.1214 -0.3219
  569MOL0     H78478   4.640  -1.518  10.413 -3.0994 -0.5394 -0.5017
  569MOL0     H78479   4.577  -1.647  10.352  0.4149  1.2753  4.9212
  569MOL0     H78480   4.778  -1.801  10.477 -0.4190  0.0968  3.6312
  569MOL0     H78481   4.878  -1.827  10.784  0.5864 -0.8195  0.4087
  569MOL0     H78482   5.016  -1.894  10.706 -0.0528  0.8199  2.0115
  569MOL0     H78483   4.848  -1.931  10.637  1.2476  0.6404 -1.4871
  569MOL0     H78484   5.308  -1.791  10.894 -3.0152 -0.7341  3.9431
  569MOL0     H78485   5.457  -1.781  11.096 -0.9140 -1.9452 -2.2036
  569MOL0     H78486   5.663  -1.736  11.172  0.1977 -0.8722  0.0467
  569MOL0     H78487   5.729  -1.592  11.081 -2.9430  3.2712 -0.4241
  569MOL0     H78488   5.882  -1.703  11.267  2.0104  1.0126  4.3171
  569MOL0     H78489   5.845  -1.531  11.255 -3.1688  2.5583  3.7769
  569MOL0     H78490   5.735  -1.730  11.457  2.7926 -0.0120 -0.2176
  569MOL0     H78491   5.678  -1.573  11.454  0.4681 -0.2526  0.4684
  569MOL0     H78492   5.921  -1.491  11.491  0.1431  0.2691  2.8001
  569MOL0     H78493   5.973  -1.654  11.463 -0.4287 -0.3615  1.8427
  569MOL0     H78494   5.767  -1.565  11.685 -0.2747 -3.2308  2.9102
  569MOL0     H78495   5.827  -1.722  11.674  2.2559 -1.4061 -0.1880
  569MOL0     H78496   5.988  -1.465  11.724 -2.7230 -0.2947  1.0286
  569MOL0     H78497   6.059  -1.627  11.708  0.9004 -1.7529  4.2000
  569MOL0     H78498   5.977  -1.692  11.919 -2.2003 -0.7935  1.5090
  569MOL0     H78499   5.832  -1.593  11.910 -0.2640 -1.5896  1.1660
  569MOL0     H78500   6.135  -1.501  11.947  0.9613  2.1317  0.8688
  569MOL0     H78501   6.007  -1.496  12.077 -2.6836  1.1886 -0.5439
  569MOL0     H78502   5.452  -1.348  11.051 -2.0729  0.4884  0.8961
  569MOL0     H78503   5.320  -1.370  10.860 -1.0898 -0.9021  0.3127
  569MOL0     H78504   5.121  -1.457  10.530  1.1867  0.2402  0.2326
  569MOL0     H78505   4.976  -1.444  10.358  1.1076 -0.1263  0.7437
  569MOL0     H78506   4.541  -0.036  10.433  1.9493  2.5408 -0.1276
  569MOL0     H78507   4.575   0.195  10.480 -0.1050  1.1744 -1.9798
  569MOL0     H78508   4.377   0.643  10.415  0.7891 -3.3913  0.2026
  569MOL0     H78509   4.388   0.858  10.519 -0.7126 -0.4134  3.0684
  569MOL0     H78510   4.436   1.048  10.644  0.3551  2.4357 -1.4436
  569MOL0     H78511   4.581   1.127  10.707  1.5123 -0.7913 -0.2427
  569MOL0     H78512   4.537   1.196  10.474 -1.1785  0.8276  1.8564
  569MOL0     H78513   4.579   1.030  10.423 -0.1723  0.0456  0.0199
  569MOL0     H78514   4.723   1.263  10.528 -0.5946 -1.1423  2.2976
  569MOL0     H78515   4.798   1.123  10.589 -0.1575  1.3537  0.1015
  569MOL0     H78516   4.911   1.188  10.376 -0.1052  2.1912 -0.6983
  569MOL0     H78517   4.767   1.157  10.294 -1.4963  1.2506  0.3275
  569MOL0     H78518   4.920   0.769  10.337  2.5346  0.4825 -0.7122
  569MOL0     H78519   4.786   0.751  10.646  0.4213 -1.2408 -1.3263
  569MOL0     H78520   4.882   0.556  10.581  1.0842 -0.3289 -0.6006
  569MOL0     H78521   4.789   0.420  10.518  1.1647 -0.5968 -0.7032
  569MOL0     H78522   4.867   0.525  10.405  3.0458 -2.5109  1.9260
  570MOL0     O78523   2.058   7.813   0.511  0.5647  0.7456  0.3939
  570MOL0     C78524   1.939   7.819   0.488  0.0731  0.4741 -0.2114
  570MOL0     O78525   1.884   7.749   0.401  0.1946 -0.2091  0.7624
  570MOL0     C78526   1.919   7.625   0.361  0.8312 -0.0699 -0.1206
  570MOL0     C78527   1.941   7.608   0.220  0.2156 -0.1530  0.3341
  570MOL0     C78528   1.969   7.482   0.159  0.2537 -0.4082  0.1950
  570MOL0     C78529   1.973   7.372   0.247 -0.2762  0.5821  0.0963
  570MOL0     O78530   1.998   7.241   0.216 -0.4421 -0.1447  1.1002
  570MOL0     C78531   2.088   7.226   0.107  0.8659  0.0512 -0.2510
  570MOL0     C78532   2.115   7.081   0.081  0.0359  0.7521  0.2694
  570MOL0     C78533   2.205   7.013   0.188  0.7791 -0.1425  0.7800
  570MOL0     C78534   2.218   6.867   0.152  0.3491  0.5108  0.6039
  570MOL0     C78535   2.312   6.782   0.241 -0.5046 -0.2689  0.2536
  570MOL0     C78536   2.458   6.832   0.215  0.1252  0.2944 -0.7606
  570MOL0     C78537   2.555   6.724   0.284  1.4219 -0.5142  0.2444
  570MOL0     C78538   2.706   6.766   0.303  1.9501  0.0502  1.0494
  570MOL0     N78539   2.782   6.639   0.329  0.3398  0.7309  0.1414
  570MOL0     C78540   2.856   6.567   0.239 -1.6091 -0.6016  0.2245
  570MOL0     C78541   2.891   6.450   0.306  0.8251  0.6949 -0.5031
  570MOL0     C78542   2.985   6.347   0.251 -0.1164  0.5126  1.0153
  570MOL0     C78543   3.122   6.409   0.213 -0.6261  0.0826  0.5333
  570MOL0     C78544   3.211   6.311   0.145 -0.4061 -0.3118 -0.2167
  570MOL0     C78545   3.330   6.386   0.078  0.1911 -1.2296 -0.0148
  570MOL0     O78546   3.292   6.443  -0.045 -0.1305 -0.6714 -0.2997
  570MOL0     C78547   3.382   6.467  -0.145  0.1475  0.0134  0.6415
  570MOL0     C78548   3.496   6.546  -0.127 -1.1205  0.0621  0.3847
  570MOL0     C78549   3.584   6.558  -0.236  0.1694  0.4608  0.5645
  570MOL0     C78550   3.727   6.601  -0.197 -0.3706 -1.3200 -0.3035
  570MOL0     C78551   3.555   6.502  -0.365  0.4844  0.4578  0.1001
  570MOL0     C78552   3.637   6.510  -0.491  0.4229 -0.5339 -0.6831
  570MOL0     O78553   3.621   6.410  -0.583 -0.0753  0.5333 -0.9057
  570MOL0     C78554   3.713   6.369  -0.675  0.8582 -0.1265 -0.5900
  570MOL0     C78555   3.672   6.285  -0.782 -0.7349  0.4246 -0.1061
  570MOL0     C78556   3.749   6.246  -0.891  0.6730  0.6946  0.7345
  570MOL0     C78557   3.869   6.307  -0.908 -0.7131  0.4317  0.3495
  570MOL0     O78558   3.942   6.279  -1.026  1.2831  0.3831 -0.9655
  570MOL0     C78559   4.090   6.283  -1.024 -0.7156 -0.1570  0.0488
  570MOL0     C78560   4.144   6.219  -1.151  0.0046  0.4891 -0.7345
  570MOL0     C78561   4.072   6.087  -1.184  1.0556  0.6278 -0.7926
  570MOL0     C78562   4.149   5.990  -1.268 -0.1058  0.5072  0.3375
  570MOL0     C78563   4.062   5.878  -1.315  0.6529  0.4478  0.1395
  570MOL0     C78564   3.958   5.920  -1.423 -0.5042 -0.1904 -0.0080
  570MOL0     C78565   3.870   5.807  -1.488 -0.2597  0.1495  0.8199
  570MOL0     C78566   3.794   5.719  -1.380 -0.6182  0.2886 -0.0088
  570MOL0    Cl78567   3.688   5.599  -1.462 -0.3143 -0.2865  0.1776
  570MOL0     C78568   3.918   6.393  -0.806 -0.1501  1.1871 -0.2762
  570MOL0     C78569   3.845   6.418  -0.686  0.8893  0.6809 -0.6873
  570MOL0     O78570   3.718   6.603  -0.496 -0.3509 -0.7844  0.5701
  570MOL0     C78571   3.439   6.414  -0.366  0.4670  0.1961  0.0776
  570MOL0     C78572   3.363   6.390  -0.258  0.8904  0.5841 -0.1028
  570MOL0     N78573   2.851   6.463   0.435 -0.0908  0.2378 -0.8023
  570MOL0     N78574   2.784   6.574   0.445  0.0792  0.0872  0.2262
  570MOL0     C78575   1.942   7.386   0.383 -0.6172  0.4367  0.5532
  570MOL0     C78576   1.909   7.508   0.441 -0.1064 -0.1889  0.0885
  570MOL0     C78577   1.858   7.917   0.560 -1.1782 -0.0561 -0.2916
  570MOL0     C78578   1.734   7.939   0.499  0.2230 -0.2292 -0.2408
  570MOL0     C78579   1.639   8.037   0.549 -0.2457 -0.9336  0.0680
  570MOL0     C78580   1.685   8.125   0.646 -0.0186  0.4368 -0.0831
  570MOL0     O78581   1.615   8.234   0.695  0.4081  0.1582  0.4941
  570MOL0     C78582   1.510   8.292   0.614  0.6747  0.2318  0.1719
  570MOL0     C78583   1.564   8.366   0.483 -0.6537  0.0911 -0.2500
  570MOL0     C78584   1.665   8.476   0.534 -0.6400 -0.2056 -0.9968
  570MOL0     C78585   1.717   8.556   0.424  0.2316 -0.5338 -0.9036
  570MOL0     C78586   1.614   8.632   0.342  0.8144  0.5168 -0.6968
  570MOL0     C78587   1.516   8.683   0.286 -0.3907  0.6435 -0.0660
  570MOL0     C78588   1.811   8.104   0.706  0.7051 -0.1619 -0.3552
  570MOL0     C78589   1.893   8.003   0.665 -0.6369 -0.6306  0.3052
  570MOL0     C78590   2.031   7.989   0.740  0.5566  0.1313 -0.2449
  570MOL0     H78591   1.962   7.697   0.161  0.8333 -0.2619  0.3804
  570MOL0     H78592   1.992   7.475   0.053  0.0255 -0.3573  0.1420
  570MOL0     H78593   2.181   7.271   0.142  1.6654 -2.4979  1.1749
  570MOL0     H78594   2.048   7.259   0.010  0.4179 -0.8869 -0.3994
  570MOL0     H78595   2.021   7.026   0.076  0.6055 -0.1423 -2.1305
  570MOL0     H78596   2.159   7.067  -0.019 -2.7580 -2.6491 -0.6827
  570MOL0     H78597   2.307   7.050   0.200  0.3144  1.8501 -0.8467
  570MOL0     H78598   2.156   7.002   0.284 -0.0826 -1.8568  0.1889
  570MOL0     H78599   2.117   6.826   0.155  0.2989  0.6620  3.2899
  570MOL0     H78600   2.247   6.870   0.047 -0.6750  1.3319  0.3230
  570MOL0     H78601   2.300   6.681   0.199 -0.1205 -0.0638 -0.3724
  570MOL0     H78602   2.293   6.775   0.348  0.9969  1.6486  0.7043
  570MOL0     H78603   2.464   6.860   0.110  1.5449 -0.7717 -0.9923
  570MOL0     H78604   2.474   6.920   0.278 -1.3444  1.7132 -2.2553
  570MOL0     H78605   2.560   6.634   0.222  1.3398  0.4578 -1.2105
  570MOL0     H78606   2.514   6.693   0.381  2.0286 -0.6968  0.4478
  570MOL0     H78607   2.740   6.809   0.209  2.5402 -1.0202  0.7508
  570MOL0     H78608   2.710   6.842   0.382 -0.0401  1.0659  0.2318
  570MOL0     H78609   2.881   6.597   0.138 -2.9454  2.0468  0.5877
  570MOL0     H78610   2.938   6.312   0.159  3.9949 -0.9619 -0.7589
  570MOL0     H78611   2.997   6.267   0.325  0.1819  1.6473  2.2171
  570MOL0     H78612   3.116   6.497   0.148  1.1758  0.6414  1.0766
  570MOL0     H78613   3.163   6.445   0.307 -0.0137 -2.8444  1.4759
  570MOL0     H78614   3.250   6.245   0.223 -0.9642 -1.3650 -0.7922
  570MOL0     H78615   3.148   6.254   0.076 -2.1211  0.4347  0.6714
  570MOL0     H78616   3.352   6.472   0.142 -2.8823  1.2299 -1.9621
  570MOL0     H78617   3.413   6.317   0.057  2.4415  1.2560  0.1542
  570MOL0     H78618   3.534   6.582  -0.032 -0.3101 -0.1119  0.1381
  570MOL0     H78619   3.736   6.595  -0.088  0.5272 -1.1688 -0.3582
  570MOL0     H78620   3.739   6.705  -0.226  1.6148 -1.5274 -0.3981
  570MOL0     H78621   3.792   6.532  -0.252 -0.4347  0.0085 -2.0856
  570MOL0     H78622   3.582   6.233  -0.752  0.9675 -1.8033  1.3789
  570MOL0     H78623   3.714   6.170  -0.960 -0.0866  1.0256  0.7463
  570MOL0     H78624   4.142   6.379  -1.015  4.8594 -2.5378 -1.7726
  570MOL0     H78625   4.133   6.223  -0.944  2.5775  1.4323 -0.3492
  570MOL0     H78626   4.121   6.301  -1.220 -0.7370  1.3293  0.4825
  570MOL0     H78627   4.250   6.197  -1.138 -0.3768 -0.4317  1.1745
  570MOL0     H78628   3.984   6.125  -1.236  2.1655  5.0051  0.0831
  570MOL0     H78629   4.030   6.034  -1.098  1.3308 -0.8014 -1.5067
  570MOL0     H78630   4.230   5.937  -1.216  1.9618 -1.0893 -3.9767
  570MOL0     H78631   4.197   6.048  -1.347 -0.1297  0.2168  0.1059
  570MOL0     H78632   4.137   5.803  -1.342 -0.9986 -1.0907 -0.3160
  570MOL0     H78633   4.003   5.841  -1.231 -0.9670  2.9155  0.2192
  570MOL0     H78634   4.017   5.980  -1.492  0.1048 -0.7502  0.0247
  570MOL0     H78635   3.890   5.998  -1.386 -1.7490 -1.6865  0.9827
  570MOL0     H78636   3.937   5.734  -1.534  0.6290 -1.5253  4.3703
  570MOL0     H78637   3.799   5.850  -1.559 -0.4935 -1.5439 -0.0242
  570MOL0     H78638   3.736   5.761  -1.298 -0.6127 -0.7105  0.5227
  570MOL0     H78639   3.871   5.663  -1.326 -1.8900  2.3807  4.3997
  570MOL0     H78640   4.015   6.441  -0.815  1.3962 -1.7865 -0.6805
  570MOL0     H78641   3.890   6.489  -0.618  0.8090 -0.1548  0.2692
  570MOL0     H78642   3.418   6.361  -0.458  3.7688 -1.0020 -0.0855
  570MOL0     H78643   3.292   6.308  -0.270  2.2457 -0.8998  1.4258
  570MOL0     H78644   1.935   7.293   0.438 -2.7394 -0.4974 -1.1517
  570MOL0     H78645   1.893   7.517   0.548  0.3030  0.1120  0.1299
  570MOL0     H78646   1.691   7.888   0.414 -4.3711  3.2455 -0.3885
  570MOL0     H78647   1.541   8.040   0.502 -0.1374 -2.3939 -0.2920
  570MOL0     H78648   1.433   8.230   0.568 -4.2074  5.1066  0.6427
  570MOL0     H78649   1.462   8.359   0.686  1.8923  0.0286  1.1897
  570MOL0     H78650   1.478   8.410   0.432  0.6231  0.4404 -2.2216
  570MOL0     H78651   1.611   8.290   0.420 -1.3524 -2.9469  2.6042
  570MOL0     H78652   1.622   8.534   0.616  0.9786  0.9867 -0.9515
  570MOL0     H78653   1.750   8.436   0.591 -1.4260 -0.0743  0.3051
  570MOL0     H78654   1.772   8.497   0.350  2.4742  1.3464 -0.8771
  570MOL0     H78655   1.784   8.640   0.445 -0.6111  0.5173 -2.1552
  570MOL0     H78656   1.430   8.726   0.239 -0.3081  0.2153 -0.6170
  570MOL0     H78657   1.855   8.177   0.774  1.5169 -1.0650  0.1172
  570MOL0     H78658   2.108   8.049   0.689 -0.7450  1.2310 -0.9865
  570MOL0     H78659   2.024   8.001   0.848 -2.3568 -0.3405 -0.3022
  570MOL0     H78660   2.064   7.885   0.734 -1.0227 -0.3184 -2.2319
  571MOL0     O78661   8.714   7.594  10.449  0.2452 -0.0384  0.1292
  571MOL0     C78662   8.780   7.521  10.525  0.0570 -0.9262  0.2086
  571MOL0     O78663   8.905   7.555  10.569 -0.4659  0.1920 -0.5556
  571MOL0     C78664   8.959   7.664  10.520 -0.5383  0.3160  0.6810
  571MOL0     C78665   8.918   7.797  10.552 -0.4641 -0.0647  0.5530
  571MOL0     C78666   8.956   7.902  10.471 -0.4284  0.0999 -0.0300
  571MOL0     C78667   9.042   7.879  10.362  0.6759  0.3119 -1.5795
  571MOL0     O78668   9.069   7.976  10.266 -0.6336  0.1373  0.3123
  571MOL0     C78669   8.985   8.095  10.245  1.0627  0.8960  0.2525
  571MOL0     C78670   9.066   8.181  10.161 -1.2031 -0.5188 -0.7284
  571MOL0     C78671   8.993   8.317  10.115 -0.7435  0.0880  0.4930
  571MOL0     C78672   9.088   8.397  10.028 -0.3007  0.1761 -0.4810
  571MOL0     C78673   9.032   8.531   9.989 -0.5417  0.1653  0.2711
  571MOL0     C78674   9.021   8.621  10.114 -0.2422  0.2009 -0.1435
  571MOL0     C78675   8.984   8.764  10.065 -0.9443 -0.4522  0.1965
  571MOL0     C78676   9.112   8.835  10.006 -0.2775 -0.6360  0.2521
  571MOL0     N78677   9.222   8.868  10.099 -0.8259  0.7126 -0.0192
  571MOL0     C78678   9.219   8.967  10.192 -0.1754 -0.0751  0.3554
  571MOL0     C78679   9.339   8.957  10.253 -0.9144  0.1151  0.0638
  571MOL0     C78680   9.405   9.039  10.351 -0.7652 -0.4447 -0.5521
  571MOL0     C78681   9.317   9.032  10.479  0.2548  1.0491 -0.2060
  571MOL0     C78682   9.384   9.123  10.586 -0.4302 -0.6511 -0.0588
  571MOL0     C78683   9.508   9.063  10.647 -0.1806  1.1385  0.1040
  571MOL0     O78684   9.470   8.946  10.724 -0.0989 -0.3456 -0.2988
  571MOL0     C78685   9.539   8.836  10.708  0.0234 -0.3599 -0.1905
  571MOL0     C78686   9.667   8.824  10.653 -0.0367 -0.9119  0.6569
  571MOL0     C78687   9.728   8.696  10.647 -0.5704 -0.1213  0.7831
  571MOL0     C78688   9.876   8.695  10.605  0.6982 -0.7004 -0.3539
  571MOL0     C78689   9.654   8.579  10.673  0.6740  0.1683 -1.3975
  571MOL0     C78690   9.708   8.441  10.666 -1.2985  0.0718  0.5405
  571MOL0     O78691   9.773   8.412  10.551  0.2039 -0.2555  0.8418
  571MOL0     C78692   9.840   8.294  10.540  0.8808 -0.0962 -0.6649
  571MOL0     C78693   9.970   8.277  10.571  0.1018  0.6572 -0.1132
  571MOL0     C78694  10.041   8.159  10.540  0.5047  0.1146  0.5373
  571MOL0     C78695   9.976   8.059  10.463  0.1814  0.6795 -0.5165
  571MOL0     O78696  10.036   7.957  10.402 -0.0410 -0.2385 -0.2187
  571MOL0     C78697  10.181   7.964  10.381  0.3306 -0.4166  0.0447
  571MOL0     C78698  10.237   7.851  10.296 -0.4789 -0.0524 -1.0182
  571MOL0     C78699  10.384   7.882  10.248  0.6764 -0.5984  0.4482
  571MOL0     C78700  10.444   7.775  10.156 -0.3031 -0.0155  0.6147
  571MOL0     C78701  10.593   7.807  10.119 -0.5232  0.2106  0.3253
  571MOL0     C78702  10.657   7.704  10.035 -0.6951  0.0676 -0.8805
  571MOL0     C78703  10.719   7.584  10.101  0.3103  0.9122 -0.2203
  571MOL0     C78704  10.623   7.462  10.077  0.0291 -0.9883  0.0090
  571MOL0    Cl78705  10.703   7.321  10.165  0.0275 -0.1316  0.0173
  571MOL0     C78706   9.841   8.070  10.434  0.7484 -0.8577  0.1803
  571MOL0     C78707   9.777   8.194  10.469 -0.1743  0.1983  0.5270
  571MOL0     O78708   9.676   8.366  10.751 -0.4581  0.4127  0.6189
  571MOL0     C78709   9.520   8.595  10.712 -1.1520 -0.6464 -0.1778
  571MOL0     C78710   9.471   8.720  10.735  0.1503  0.5603 -0.6159
  571MOL0     N78711   9.398   8.838  10.211 -0.4496  0.4024 -0.0921
  571MOL0     N78712   9.320   8.784  10.121 -0.2968 -0.0903  0.2980
  571MOL0     C78713   9.095   7.749  10.339  0.2275  0.2253 -0.4977
  571MOL0     C78714   9.056   7.643  10.418  0.2161  0.1433  0.5144
  571MOL0     C78715   8.726   7.397  10.568  0.0299  1.0424  0.9132
  571MOL0     C78716   8.649   7.378  10.684 -0.6735  0.1844  0.0524
  571MOL0     C78717   8.590   7.261  10.726 -0.1326  1.2451  0.3583
  571MOL0     C78718   8.624   7.147  10.656 -0.1617  0.1882  0.0779
  571MOL0     O78719   8.586   7.019  10.685  0.0922  0.3381 -0.6808
  571MOL0     C78720   8.525   6.983  10.813  0.0594 -0.5748  0.7872
  571MOL0     C78721   8.471   6.843  10.807  0.5037 -0.4677 -0.6210
  571MOL0     C78722   8.341   6.838  10.722  0.7910 -0.1598  0.3798
  571MOL0     C78723   8.358   6.837  10.562  0.0625  0.6169 -0.0674
  571MOL0     C78724   8.460   6.743  10.522 -0.4528  0.7748 -0.7036
  571MOL0     C78725   8.543   6.653  10.498 -0.1758  0.1949 -1.1348
  571MOL0     C78726   8.704   7.152  10.538 -0.7588  0.5925 -0.4001
  571MOL0     C78727   8.754   7.273  10.495 -0.6737 -0.6359  0.5990
  571MOL0     C78728   8.858   7.284  10.381 -0.5721  0.0625  0.0752
  571MOL0     H78729   8.855   7.808  10.640  1.3715 -2.3274  2.2850
  571MOL0     H78730   8.910   8.000  10.484 -2.3241 -0.4158 -2.1096
  571MOL0     H78731   8.955   8.148  10.336 -1.6375 -0.8183  0.4575
  571MOL0     H78732   8.891   8.066  10.197  0.8158 -0.1636  1.3452
  571MOL0     H78733   9.161   8.201  10.210 -1.9411  0.0742  0.5140
  571MOL0     H78734   9.087   8.136  10.063 -1.2362  1.2997 -1.6021
  571MOL0     H78735   8.901   8.297  10.059 -0.3684 -0.2459 -0.0102
  571MOL0     H78736   8.963   8.372  10.204 -0.7519 -0.3204  0.7470
  571MOL0     H78737   9.175   8.418  10.091 -1.7200 -0.8742  1.9714
  571MOL0     H78738   9.123   8.345   9.938  4.9702  1.1415  0.6768
  571MOL0     H78739   8.930   8.506   9.957 -0.2419  2.0867 -2.6659
  571MOL0     H78740   9.082   8.571   9.900  2.5217 -2.8958  0.4143
  571MOL0     H78741   8.953   8.586  10.192 -0.7375  1.3618 -0.0405
  571MOL0     H78742   9.120   8.636  10.159  0.0057  0.3348 -0.7230
  571MOL0     H78743   8.953   8.817  10.155  0.7058  1.1650 -0.1369
  571MOL0     H78744   8.896   8.759  10.001 -0.8451 -1.5297  0.1210
  571MOL0     H78745   9.150   8.777   9.921  1.1839  2.7813 -1.6315
  571MOL0     H78746   9.067   8.922   9.957 -1.6132  0.2547  2.8765
  571MOL0     H78747   9.143   9.039  10.221  3.1893  3.7460  0.5325
  571MOL0     H78748   9.396   9.146  10.327 -2.0269 -0.7110 -1.3381
  571MOL0     H78749   9.508   9.009  10.375 -1.1274  0.1424  2.1424
  571MOL0     H78750   9.216   9.071  10.459  0.3195  0.7369 -1.1954
  571MOL0     H78751   9.312   8.929  10.515  1.2495  0.8155 -0.6982
  571MOL0     H78752   9.397   9.229  10.563 -1.2008 -0.2013  1.4165
  571MOL0     H78753   9.311   9.115  10.668  0.2038  0.5224  0.6411
  571MOL0     H78754   9.578   9.037  10.567 -2.1063 -0.7463 -1.0915
  571MOL0     H78755   9.563   9.137  10.705  1.6054 -1.5945  2.2112
  571MOL0     H78756   9.731   8.907  10.624 -0.4692 -0.7879  0.0450
  571MOL0     H78757   9.913   8.793  10.575  1.2767 -0.0650  2.1893
  571MOL0     H78758   9.908   8.623  10.529 -0.0155 -1.3604 -0.0396
  571MOL0     H78759   9.924   8.657  10.696  0.2278  1.0430  0.6673
  571MOL0     H78760  10.023   8.365  10.606 -1.5070  1.3867  0.5795
  571MOL0     H78761  10.146   8.140  10.562 -0.1440 -1.3059  2.8300
  571MOL0     H78762  10.199   8.061  10.332 -0.7648  0.0769  0.5948
  571MOL0     H78763  10.230   7.963  10.479 -2.1141 -1.1568  1.3411
  571MOL0     H78764  10.240   7.763  10.361 -0.8417  1.4107  1.0907
  571MOL0     H78765  10.173   7.828  10.211 -1.3322 -0.4528 -0.2822
  571MOL0     H78766  10.446   7.890  10.338  1.7378  0.3945 -0.3423
  571MOL0     H78767  10.402   7.982  10.206  1.2007 -1.4875 -1.5107
  571MOL0     H78768  10.386   7.774  10.063  0.3901 -2.7956  0.0963
  571MOL0     H78769  10.435   7.674  10.197 -0.5273 -0.3706 -0.2809
  571MOL0     H78770  10.606   7.907  10.075 -1.7184  0.5298  0.6543
  571MOL0     H78771  10.638   7.820  10.218 -3.5839  1.9323  1.6243
  571MOL0     H78772  10.740   7.751   9.980 -1.1460 -0.6944 -2.2758
  571MOL0     H78773  10.592   7.687   9.948 -0.3526  2.3936 -1.6652
  571MOL0     H78774  10.733   7.608  10.206 -2.8200  1.9093  0.0540
  571MOL0     H78775  10.811   7.559  10.047  0.5710  0.5446  0.3915
  571MOL0     H78776  10.614   7.456   9.969  0.4418  2.5030 -0.3384
  571MOL0     H78777  10.533   7.502  10.126  0.5439  1.6729 -1.0266
  571MOL0     H78778   9.786   7.997  10.375  0.0364  0.5647 -0.9775
  571MOL0     H78779   9.681   8.233  10.438  0.6160  2.6575  0.9039
  571MOL0     H78780   9.449   8.514  10.720 -2.0187  0.1898  0.7866
  571MOL0     H78781   9.370   8.727  10.774 -0.0970 -1.9801 -0.6257
  571MOL0     H78782   9.163   7.734  10.256 -2.6616 -3.7343 -2.5238
  571MOL0     H78783   9.103   7.546  10.402 -1.7750 -1.0626  1.5678
  571MOL0     H78784   8.635   7.470  10.740  0.0720 -0.2603  0.9806
  571MOL0     H78785   8.521   7.274  10.809 -0.6121  3.2244 -0.2983
  571MOL0     H78786   8.598   6.999  10.893 -0.2870  1.1929  0.7868
  571MOL0     H78787   8.443   7.055  10.816  0.6101  0.0259  2.1059
  571MOL0     H78788   8.459   6.804  10.909  1.3196 -0.3672 -0.4871
  571MOL0     H78789   8.547   6.789  10.751  0.1673  0.9649 -2.5516
  571MOL0     H78790   8.290   6.746  10.752 -1.8762  1.1455  0.1037
  571MOL0     H78791   8.273   6.921  10.745 -1.9173 -1.6076 -1.7566
  571MOL0     H78792   8.396   6.935  10.532  6.2991 -1.3846 -0.0464
  571MOL0     H78793   8.265   6.797  10.519 -1.5380  1.2228  2.6057
  571MOL0     H78794   8.622   6.582  10.482  0.4336  0.0030  2.0234
  571MOL0     H78795   8.721   7.066  10.474 -0.4731  0.6172 -0.3559
  571MOL0     H78796   8.846   7.377  10.324  4.1844 -0.0262 -1.4906
  571MOL0     H78797   8.959   7.293  10.422  1.4179 -2.4043 -3.7815
  571MOL0     H78798   8.852   7.199  10.314 -0.1282  0.5390 -0.5782
  572MOL0     O78799  11.078   4.871   3.955 -0.2049  0.4038  0.0066
  572MOL0     C78800  11.009   4.825   3.867  0.0041 -0.5729  0.5726
  572MOL0     O78801  10.880   4.857   3.837 -0.3596  0.5027 -0.4711
  572MOL0     C78802  10.799   4.909   3.937 -0.1299  0.0989 -0.4071
  572MOL0     C78803  10.674   4.962   3.894 -0.5695  0.3504  1.0790
  572MOL0     C78804  10.581   5.020   3.977  0.3630  1.8441  0.6644
  572MOL0     C78805  10.597   5.022   4.113 -0.5786  0.9223 -0.7144
  572MOL0     O78806  10.514   5.083   4.200  0.7356  0.0900 -0.6927
  572MOL0     C78807  10.370   5.090   4.169 -0.1195  0.7120  0.4313
  572MOL0     C78808  10.289   5.122   4.284 -0.1602 -0.4095 -1.1235
  572MOL0     C78809  10.268   5.003   4.379  0.4886 -0.0131 -0.0453
  572MOL0     C78810  10.388   4.954   4.446  0.1470 -0.0249 -1.7027
  572MOL0     C78811  10.333   4.869   4.566 -0.3463 -0.1923 -0.7304
  572MOL0     C78812  10.430   4.772   4.624 -0.3028  0.2193  0.5027
  572MOL0     C78813  10.559   4.827   4.677  0.1987 -0.8485  0.1369
  572MOL0     C78814  10.601   4.771   4.816 -1.1016  0.1851  0.6341
  572MOL0     N78815  10.525   4.831   4.934 -0.5384  0.5452 -0.6800
  572MOL0     C78816  10.409   4.774   4.983 -0.5239  0.5500 -0.3296
  572MOL0     C78817  10.393   4.844   5.107 -0.5916 -0.2609  0.6805
  572MOL0     C78818  10.264   4.843   5.186  0.7595 -0.0368 -0.2330
  572MOL0     C78819  10.294   4.855   5.340  0.2894 -0.1443  0.6826
  572MOL0     C78820  10.359   4.742   5.405  0.2878  0.4001  0.7762
  572MOL0     C78821  10.295   4.598   5.390 -0.1828 -1.0787  0.3127
  572MOL0     O78822  10.362   4.526   5.490 -0.6383 -0.2635 -0.8280
  572MOL0     C78823  10.359   4.390   5.496 -0.1872 -0.4811  0.2296
  572MOL0     C78824  10.473   4.316   5.465  0.4199  0.2424  0.6073
  572MOL0     C78825  10.467   4.178   5.487  0.1404 -0.0587  0.3278
  572MOL0     C78826  10.591   4.104   5.456  0.3426  0.1115  0.6309
  572MOL0     C78827  10.339   4.110   5.508  1.3825 -0.6676  0.0204
  572MOL0     C78828  10.321   3.967   5.526  0.1165  0.3894  0.4562
  572MOL0     O78829  10.384   3.914   5.646 -0.2329 -0.0036  0.6186
  572MOL0     C78830  10.362   3.775   5.665 -0.3813  0.0499 -0.5772
  572MOL0     C78831  10.479   3.702   5.649 -0.5670  0.2526  0.5901
  572MOL0     C78832  10.483   3.561   5.669  0.9186  1.0106 -0.3254
  572MOL0     C78833  10.372   3.492   5.716  0.9164 -0.4397 -0.0018
  572MOL0     O78834  10.365   3.359   5.749 -0.1943 -0.0205  0.2083
  572MOL0     C78835  10.324   3.311   5.882  0.1663  0.8785 -0.2467
  572MOL0     C78836  10.446   3.336   5.984 -0.5557  0.3378  0.0091
  572MOL0     C78837  10.455   3.237   6.094  0.1789 -0.1344 -0.7785
  572MOL0     C78838  10.596   3.223   6.154 -0.0225  0.1857 -0.1676
  572MOL0     C78839  10.630   3.102   6.245  0.3022 -1.3253 -0.8583
  572MOL0     C78840  10.611   3.135   6.399 -0.0863  0.6151  1.1228
  572MOL0     C78841  10.471   3.172   6.442  0.1750 -0.4716  0.3199
  572MOL0     C78842  10.471   3.209   6.592  0.2417 -0.8266 -0.9685
  572MOL0    Cl78843  10.296   3.220   6.656  0.0315  0.0573  0.1905
  572MOL0     C78844  10.251   3.569   5.723 -0.1063 -0.2223 -0.1490
  572MOL0     C78845  10.246   3.708   5.695 -0.3140  0.0713 -0.4975
  572MOL0     O78846  10.236   3.906   5.451 -0.0570  0.3944  0.5622
  572MOL0     C78847  10.222   4.195   5.535 -0.3778 -0.5022  0.3469
  572MOL0     C78848  10.232   4.337   5.534 -0.0248 -0.2173 -0.4162
  572MOL0     N78849  10.492   4.937   5.124 -0.5706  0.3321  0.6976
  572MOL0     N78850  10.572   4.926   5.018  0.0784  0.2902 -0.6160
  572MOL0     C78851  10.714   4.957   4.164 -0.3145  0.7909 -0.8873
  572MOL0     C78852  10.813   4.908   4.076 -0.3413 -0.9681  0.3820
  572MOL0     C78853  11.079   4.742   3.757 -0.3881 -0.4025  0.5565
  572MOL0     C78854  11.062   4.778   3.623 -0.8402  0.2160  0.5382
  572MOL0     C78855  11.100   4.694   3.519  0.2231 -0.9840  0.3415
  572MOL0     C78856  11.187   4.592   3.540  0.6072  0.1061 -0.2626
  572MOL0     O78857  11.240   4.510   3.443  0.1260 -0.6783 -0.2962
  572MOL0     C78858  11.273   4.574   3.322  0.1310 -0.6981  0.0030
  572MOL0     C78859  11.370   4.489   3.236  0.3646  0.3580  0.0231
  572MOL0     C78860  11.292   4.372   3.182  0.3066 -0.1635 -0.0562
  572MOL0     C78861  11.299   4.241   3.264  0.1200 -0.3723  1.3753
  572MOL0     C78862  11.423   4.168   3.263  0.3275 -0.5406  0.8037
  572MOL0     C78863  11.510   4.088   3.266 -0.6243 -0.4624 -0.0245
  572MOL0     C78864  11.208   4.561   3.678 -0.9429  1.3495  0.6680
  572MOL0     C78865  11.150   4.623   3.783 -0.3346 -0.5637 -0.1283
  572MOL0     C78866  11.197   4.575   3.919 -0.6237  0.3566 -0.4044
  572MOL0     H78867  10.662   4.976   3.787 -2.3558  2.3723  1.4894
  572MOL0     H78868  10.506   5.081   3.928 -1.7386  1.0655  2.7549
  572MOL0     H78869  10.347   5.001   4.110  2.2506  1.9152 -2.5954
  572MOL0     H78870  10.353   5.171   4.097  0.7185  1.2576  0.8342
  572MOL0     H78871  10.334   5.207   4.336  2.8626 -2.1012 -0.7357
  572MOL0     H78872  10.190   5.159   4.257  0.1576  1.1941 -0.2064
  572MOL0     H78873  10.190   5.045   4.442 -0.5777  1.5161 -2.2396
  572MOL0     H78874  10.232   4.917   4.322  0.5687 -0.0546 -0.0326
  572MOL0     H78875  10.447   4.888   4.381  0.6098 -2.0748  0.6661
  572MOL0     H78876  10.450   5.040   4.473 -1.3787  0.0518  2.1836
  572MOL0     H78877  10.236   4.825   4.544 -1.1813  0.8080  0.7811
  572MOL0     H78878  10.306   4.946   4.638  0.6818  1.9246 -2.4569
  572MOL0     H78879  10.368   4.719   4.696 -2.8075  1.2562 -0.7851
  572MOL0     H78880  10.462   4.696   4.553  1.3080 -0.3101  1.7067
  572MOL0     H78881  10.556   4.936   4.682 -1.3559 -0.9063  1.3827
  572MOL0     H78882  10.627   4.794   4.598 -0.0554  2.8255 -1.8622
  572MOL0     H78883  10.582   4.663   4.817 -1.4044  0.2289  0.0726
  572MOL0     H78884  10.705   4.792   4.842 -1.8795  0.7292  3.6551
  572MOL0     H78885  10.344   4.699   4.940 -1.5759  1.4612 -0.3584
  572MOL0     H78886  10.200   4.761   5.152 -0.2376  0.5786  0.1184
  572MOL0     H78887  10.206   4.927   5.149  0.3227  0.1275  0.8005
  572MOL0     H78888  10.366   4.934   5.363  2.3928 -1.5428 -0.7437
  572MOL0     H78889  10.198   4.882   5.385  0.9146  0.3539  1.7465
  572MOL0     H78890  10.462   4.730   5.369 -0.0912  1.4118 -0.7251
  572MOL0     H78891  10.363   4.759   5.513  2.1883  0.9635  0.6614
  572MOL0     H78892  10.187   4.600   5.404 -0.4808 -0.4357 -1.7719
  572MOL0     H78893  10.324   4.545   5.299  1.4810  0.0813  0.1091
  572MOL0     H78894  10.572   4.352   5.442 -0.1721  0.5446 -1.8671
  572MOL0     H78895  10.641   4.162   5.378 -0.4634  0.6424  0.5035
  572MOL0     H78896  10.559   4.008   5.415 -0.1064  1.1989 -1.6638
  572MOL0     H78897  10.644   4.087   5.551  0.4088 -0.5041  0.4870
  572MOL0     H78898  10.567   3.756   5.616 -1.5154  1.2783 -0.3604
  572MOL0     H78899  10.574   3.502   5.659 -0.0599 -0.6528  0.1440
  572MOL0     H78900  10.231   3.358   5.916 -2.1807 -2.4084 -1.6385
  572MOL0     H78901  10.308   3.204   5.870  2.1914  0.6653 -1.6328
  572MOL0     H78902  10.538   3.327   5.925 -0.5746 -0.9043  0.1390
  572MOL0     H78903  10.441   3.439   6.021  1.4307  0.4750  0.0166
  572MOL0     H78904  10.423   3.140   6.057  0.4206  0.4875 -2.7830
  572MOL0     H78905  10.388   3.268   6.175  0.8993 -1.0956  0.2059
  572MOL0     H78906  10.619   3.317   6.205 -1.0292 -0.1876  1.0286
  572MOL0     H78907  10.651   3.206   6.061 -2.2947 -0.8713 -1.4011
  572MOL0     H78908  10.568   3.015   6.220 -2.2991 -0.8058  2.9712
  572MOL0     H78909  10.738   3.086   6.230  1.0018  1.9278 -0.0862
  572MOL0     H78910  10.678   3.218   6.424 -0.4444  0.5712  2.2443
  572MOL0     H78911  10.646   3.053   6.462 -0.4426 -1.9036 -1.7021
  572MOL0     H78912  10.399   3.095   6.413  1.1147 -0.7151 -1.5373
  572MOL0     H78913  10.436   3.265   6.396  0.4567 -1.2592 -1.5844
  572MOL0     H78914  10.533   3.297   6.609 -1.8925  0.2257  2.4244
  572MOL0     H78915  10.516   3.123   6.642  0.5429 -0.3036 -0.3186
  572MOL0     H78916  10.156   3.517   5.730 -0.0933 -0.4926 -1.6535
  572MOL0     H78917  10.149   3.755   5.710  0.1863  0.6590  1.1072
  572MOL0     H78918  10.132   4.141   5.565  0.8125 -2.0253  1.3184
  572MOL0     H78919  10.142   4.394   5.553  0.2572  0.4581 -1.0630
  572MOL0     H78920  10.740   4.954   4.269  0.6138  1.4798 -1.0822
  572MOL0     H78921  10.909   4.883   4.122  0.7247  3.3395  0.9720
  572MOL0     H78922  10.995   4.860   3.596 -2.2803 -0.4763  1.8077
  572MOL0     H78923  11.065   4.715   3.419 -1.6754  3.2952  1.6442
  572MOL0     H78924  11.177   4.589   3.272 -1.7965 -1.0247  3.3436
  572MOL0     H78925  11.323   4.671   3.331  0.1118 -0.6427 -0.4543
  572MOL0     H78926  11.452   4.456   3.300 -0.6761 -1.6372  0.3985
  572MOL0     H78927  11.409   4.557   3.160 -2.9094  2.7399  0.2600
  572MOL0     H78928  11.184   4.387   3.174 -0.1466 -1.9619  1.6984
  572MOL0     H78929  11.331   4.349   3.082  1.6795 -1.5628  0.7497
  572MOL0     H78930  11.225   4.179   3.213  1.0410  0.6495 -1.3617
  572MOL0     H78931  11.267   4.258   3.367 -0.2026 -0.8361  1.3541
  572MOL0     H78932  11.589   4.017   3.275 -1.0315 -1.0907 -1.2385
  572MOL0     H78933  11.271   4.474   3.693  1.4111  2.3221 -2.4694
  572MOL0     H78934  11.177   4.644   4.002 -0.3123  0.7105 -0.6138
  572MOL0     H78935  11.149   4.481   3.945 -0.2160  0.7791  2.1839
  572MOL0     H78936  11.306   4.565   3.927 -0.9015 -1.6184  2.1010
  573MOL0     O78937   3.973   2.489   5.141 -0.2455  0.0770 -0.2735
  573MOL0     C78938   4.015   2.581   5.207 -0.2033 -0.1961 -0.3222
  573MOL0     O78939   4.143   2.584   5.253 -0.6524 -0.3682  0.6606
  573MOL0     C78940   4.229   2.483   5.248 -0.6384  0.3613  0.1370
  573MOL0     C78941   4.359   2.519   5.288  0.2919 -0.1436 -0.3938
  573MOL0     C78942   4.463   2.434   5.293  0.0403  0.9204 -0.0728
  573MOL0     C78943   4.443   2.296   5.271  0.1334  0.6100  1.5932
  573MOL0     O78944   4.531   2.200   5.308 -0.5359  0.4298  0.9683
  573MOL0     C78945   4.519   2.067   5.252 -1.3714  0.1801 -0.2781
  573MOL0     C78946   4.656   2.005   5.239 -0.4391  0.0646  0.1856
  573MOL0     C78947   4.675   1.917   5.361 -0.7579  0.1281 -0.2551
  573MOL0     C78948   4.583   1.784   5.366 -0.8797 -0.2096 -0.9767
  573MOL0     C78949   4.645   1.670   5.280  0.0146  1.0282 -0.7254
  573MOL0     C78950   4.613   1.530   5.322 -0.2408  1.2694 -0.5197
  573MOL0     C78951   4.696   1.427   5.239 -0.6986 -1.1370  0.5527
  573MOL0     C78952   4.838   1.388   5.306 -0.3565 -0.2310  0.5768
  573MOL0     N78953   4.933   1.358   5.204 -0.1204  0.4351  0.6104
  573MOL0     C78954   4.979   1.444   5.115  0.8739 -0.1230 -0.0500
  573MOL0     C78955   5.051   1.366   5.026 -0.9644  0.5427  0.0931
  573MOL0     C78956   5.142   1.417   4.920  0.3521 -0.5322 -0.3262
  573MOL0     C78957   5.065   1.458   4.792 -0.7486 -0.1589  0.5444
  573MOL0     C78958   5.129   1.558   4.712  0.2774 -0.8010  0.5831
  573MOL0     C78959   5.046   1.612   4.598  0.2160 -0.3893  0.3632
  573MOL0     O78960   5.053   1.519   4.497 -0.1443  0.2999  0.8640
  573MOL0     C78961   4.925   1.489   4.444 -0.3206 -0.2249  0.1796
  573MOL0     C78962   4.852   1.383   4.497  0.7195  0.3769 -0.2652
  573MOL0     C78963   4.724   1.358   4.449  0.9865 -0.1194 -0.5621
  573MOL0     C78964   4.638   1.271   4.530  0.7775 -0.2172 -0.5343
  573MOL0     C78965   4.669   1.435   4.341  0.6761  0.6384 -0.7735
  573MOL0     C78966   4.528   1.426   4.286  0.1936 -0.1659  1.3550
  573MOL0     O78967   4.500   1.522   4.190  0.1569  0.0808  0.1754
  573MOL0     C78968   4.385   1.502   4.116 -0.4160  0.5202 -0.5187
  573MOL0     C78969   4.252   1.475   4.160  0.0127  0.9943  0.1213
  573MOL0     C78970   4.149   1.441   4.078  0.2810 -0.7056  0.1580
  573MOL0     C78971   4.162   1.450   3.946 -0.2162  0.6070 -0.1172
  573MOL0     O78972   4.061   1.407   3.862 -0.6744  0.0946 -0.5398
  573MOL0     C78973   4.078   1.427   3.730  0.4338 -0.2550 -0.9854
  573MOL0     C78974   3.935   1.443   3.668 -0.0928  0.2935 -0.4652
  573MOL0     C78975   3.934   1.473   3.513  0.7266 -0.2272 -0.3903
  573MOL0     C78976   3.799   1.481   3.437  0.1132 -0.5649  0.1496
  573MOL0     C78977   3.719   1.357   3.441 -0.0735  0.6347 -0.6659
  573MOL0     C78978   3.642   1.322   3.309  0.5760  0.4510  0.4448
  573MOL0     C78979   3.543   1.218   3.339  0.2141  1.0524  1.2633
  573MOL0     C78980   3.481   1.150   3.212 -0.1091 -0.2148  0.3490
  573MOL0    Cl78981   3.603   1.054   3.137  0.3806 -0.1069 -0.1415
  573MOL0     C78982   4.301   1.472   3.898  0.8066 -1.1541 -0.5703
  573MOL0     C78983   4.409   1.494   3.977  0.3301 -0.4621 -0.7648
  573MOL0     O78984   4.458   1.334   4.321 -0.3717 -0.4593  0.4828
  573MOL0     C78985   4.751   1.535   4.283 -0.4891 -0.3926 -1.1151
  573MOL0     C78986   4.868   1.561   4.337 -0.4094 -0.1054 -0.4754
  573MOL0     N78987   5.054   1.235   5.075  1.3356  0.3026 -0.2233
  573MOL0     N78988   4.963   1.233   5.171 -0.2605  0.2164  0.5603
  573MOL0     C78989   4.317   2.254   5.229 -0.5773  0.2426  0.8136
  573MOL0     C78990   4.211   2.342   5.218 -0.3969 -0.6150  0.5667
  573MOL0     C78991   3.919   2.692   5.248  0.3260  0.2460 -0.4351
  573MOL0     C78992   3.851   2.755   5.140  0.3100  0.6382  0.0820
  573MOL0     C78993   3.764   2.860   5.164 -1.1602  0.0396 -0.1685
  573MOL0     C78994   3.730   2.899   5.297 -0.2190  0.2356  0.2520
  573MOL0     O78995   3.638   2.994   5.325 -0.0298 -0.1946  0.5715
  573MOL0     C78996   3.546   3.049   5.230  0.1684 -0.2010  0.4186
  573MOL0     C78997   3.411   3.096   5.298  0.1426 -0.0002 -0.0140
  573MOL0     C78998   3.336   3.178   5.194 -0.4935 -0.1023 -1.0224
  573MOL0     C78999   3.196   3.189   5.252 -0.0924  0.1709  0.2851
  573MOL0     C79000   3.109   3.274   5.162  0.3999 -0.7472 -0.7464
  573MOL0     C79001   3.032   3.343   5.099  0.8610  0.6864 -0.6676
  573MOL0     C79002   3.802   2.851   5.402  0.3529 -0.0092  0.1345
  573MOL0     C79003   3.898   2.752   5.379 -0.5555  0.0857 -0.1076
  573MOL0     C79004   3.967   2.698   5.497 -0.5517  0.0427 -0.8070
  573MOL0     H79005   4.380   2.615   5.334  1.3571 -1.1713  1.4081
  573MOL0     H79006   4.559   2.468   5.328  0.5765 -0.7042  0.1181
  573MOL0     H79007   4.490   2.069   5.146  1.3140 -0.9513 -1.1016
  573MOL0     H79008   4.452   2.007   5.314 -0.6936  0.0568  0.3399
  573MOL0     H79009   4.655   1.938   5.153 -1.5908 -2.3937  1.9665
  573MOL0     H79010   4.738   2.075   5.224 -0.2559 -0.7998 -4.2576
  573MOL0     H79011   4.777   1.878   5.360 -1.6211 -2.5368 -4.0817
  573MOL0     H79012   4.669   1.979   5.452 -0.2123  0.8564 -0.7051
  573MOL0     H79013   4.586   1.749   5.470  1.1671  2.0814 -0.1799
  573MOL0     H79014   4.478   1.796   5.338 -0.6458  1.4610 -1.2430
  573MOL0     H79015   4.753   1.679   5.297 -0.0040 -1.3019  1.0506
  573MOL0     H79016   4.616   1.684   5.175 -1.2551  1.3359 -0.3561
  573MOL0     H79017   4.625   1.513   5.430 -0.4612 -2.3802 -0.9387
  573MOL0     H79018   4.510   1.512   5.291  0.0956 -0.9700 -0.4783
  573MOL0     H79019   4.720   1.459   5.138 -1.3364  0.6798  0.9492
  573MOL0     H79020   4.651   1.332   5.210  3.3151 -2.0807 -3.7658
  573MOL0     H79021   4.880   1.474   5.360 -1.2210 -0.9102  2.4292
  573MOL0     H79022   4.821   1.303   5.373 -1.2878 -0.1242  0.4939
  573MOL0     H79023   4.968   1.552   5.113 -1.0727 -0.2804  0.1944
  573MOL0     H79024   5.220   1.342   4.903 -1.5781 -2.6557 -0.4077
  573MOL0     H79025   5.184   1.508   4.964  0.7197 -0.9073  0.1167
  573MOL0     H79026   5.053   1.364   4.738 -0.3587 -1.1521  2.1218
  573MOL0     H79027   4.964   1.492   4.816 -0.4168  1.3360 -0.0469
  573MOL0     H79028   5.139   1.649   4.772  0.1648  1.1731 -2.1849
  573MOL0     H79029   5.226   1.518   4.680  1.6930  1.0386  2.3310
  573MOL0     H79030   4.946   1.642   4.630  0.6602 -0.3620  1.7896
  573MOL0     H79031   5.100   1.696   4.553  0.6876  0.0845  1.7431
  573MOL0     H79032   4.872   1.325   4.586  3.1354 -0.2576 -1.1651
  573MOL0     H79033   4.603   1.190   4.465  2.0426 -0.4580 -0.9422
  573MOL0     H79034   4.559   1.329   4.577  0.6760 -0.0812 -0.8698
  573MOL0     H79035   4.692   1.229   4.616  0.7209  2.3385  0.8338
  573MOL0     H79036   4.235   1.464   4.267 -1.4228 -2.3465 -0.3532
  573MOL0     H79037   4.048   1.411   4.105 -0.3665  0.3122 -1.0107
  573MOL0     H79038   4.140   1.514   3.709  0.0684  1.5592  4.1072
  573MOL0     H79039   4.127   1.336   3.695  1.4387 -0.2333  0.3088
  573MOL0     H79040   3.883   1.349   3.692  0.4831  0.1367  0.1909
  573MOL0     H79041   3.865   1.507   3.722 -1.3895 -0.8141 -0.7683
  573MOL0     H79042   3.990   1.389   3.471  0.9357 -0.3823  0.1822
  573MOL0     H79043   3.974   1.574   3.500 -2.8373  1.6547  1.6145
  573MOL0     H79044   3.819   1.522   3.337  1.1868  0.9865  0.9603
  573MOL0     H79045   3.740   1.559   3.487 -2.2372 -1.1414 -1.5274
  573MOL0     H79046   3.782   1.273   3.472  0.2126  2.2551  4.0011
  573MOL0     H79047   3.645   1.376   3.519  2.0824 -0.0245  1.6812
  573MOL0     H79048   3.713   1.282   3.236 -1.6374 -0.6740 -1.1951
  573MOL0     H79049   3.591   1.409   3.268 -1.3241 -0.1567  1.4091
  573MOL0     H79050   3.465   1.272   3.394  0.7410  0.3196  2.7869
  573MOL0     H79051   3.586   1.143   3.406 -1.1590 -1.3607 -0.4091
  573MOL0     H79052   3.443   1.227   3.144  1.2347 -0.1723 -0.3918
  573MOL0     H79053   3.396   1.086   3.237 -2.0903  2.7495  1.7378
  573MOL0     H79054   4.324   1.461   3.792  0.7657 -0.3043 -0.6714
  573MOL0     H79055   4.511   1.500   3.941  0.1811  1.3800 -0.9778
  573MOL0     H79056   4.710   1.601   4.206 -4.8699  0.5643  1.6718
  573MOL0     H79057   4.924   1.644   4.295 -0.5770  0.2846  0.0668
  573MOL0     H79058   4.295   2.148   5.222  2.3462 -0.3270 -3.8164
  573MOL0     H79059   4.117   2.305   5.180  0.4157 -2.3882  0.1721
  573MOL0     H79060   3.863   2.712   5.041 -0.0312 -2.5554  1.3181
  573MOL0     H79061   3.714   2.903   5.078  0.9350 -0.6130 -1.8087
  573MOL0     H79062   3.598   3.136   5.190  0.8309  0.5820  2.7966
  573MOL0     H79063   3.518   2.977   5.154 -3.1803  2.0272 -0.6748
  573MOL0     H79064   3.428   3.158   5.387 -0.3701  1.3060 -0.7894
  573MOL0     H79065   3.352   3.007   5.319 -0.6111  0.3989 -0.3874
  573MOL0     H79066   3.382   3.277   5.194  0.9731 -0.6585  2.4562
  573MOL0     H79067   3.337   3.126   5.098 -0.9717 -1.0134 -0.5508
  573MOL0     H79068   3.216   3.252   5.339  4.3917 -2.2443  1.2917
  573MOL0     H79069   3.144   3.095   5.277  0.4218  0.0468  0.8969
  573MOL0     H79070   2.972   3.412   5.044 -0.1668 -1.1369 -1.9241
  573MOL0     H79071   3.777   2.897   5.497 -1.2586  1.7470 -1.0544
  573MOL0     H79072   4.071   2.733   5.502 -0.4101 -0.4903  2.0700
  573MOL0     H79073   3.907   2.717   5.587 -1.2392  1.3666 -1.5229
  573MOL0     H79074   3.965   2.589   5.485 -0.7681 -0.1393  0.6753
  574MOL0     O79075   4.849   6.522   9.835 -0.2276 -0.3753  0.3752
  574MOL0     C79076   4.759   6.472   9.893 -0.4469  0.3394 -0.6891
  574MOL0     O79077   4.671   6.391   9.842  0.0720  0.5345 -0.2939
  574MOL0     C79078   4.680   6.385   9.705  0.9224  0.3039  1.1290
  574MOL0     C79079   4.789   6.327   9.634 -0.7117  1.0345  0.3312
  574MOL0     C79080   4.805   6.338   9.497 -0.8065 -0.3862 -0.6622
  574MOL0     C79081   4.701   6.392   9.427 -0.5552  0.5240  0.1756
  574MOL0     O79082   4.712   6.400   9.295  0.0304  0.0808  0.3349
  574MOL0     C79083   4.598   6.443   9.218  0.0686 -0.2527  0.5086
  574MOL0     C79084   4.633   6.440   9.070 -0.3427 -0.9507  0.0410
  574MOL0     C79085   4.706   6.563   9.011 -0.3261 -0.2693  0.9781
  574MOL0     C79086   4.718   6.556   8.858  0.6932  0.3281  0.5483
  574MOL0     C79087   4.826   6.652   8.814  0.6494  0.0896 -0.1868
  574MOL0     C79088   4.803   6.669   8.664  1.4695 -0.4855  0.0663
  574MOL0     C79089   4.915   6.744   8.590  0.0802 -0.6237 -0.2147
  574MOL0     C79090   4.860   6.766   8.451  0.4322 -0.3884 -0.0692
  574MOL0     N79091   4.965   6.843   8.373 -0.0608  0.2091 -0.1903
  574MOL0     C79092   5.026   6.797   8.256 -0.7259  0.2913  0.2161
  574MOL0     C79093   5.072   6.902   8.186 -0.3550  0.1011  0.2897
  574MOL0     C79094   5.141   6.899   8.058  0.1625 -0.6758  1.0449
  574MOL0     C79095   5.285   6.842   8.071 -0.8035 -1.2551  0.2780
  574MOL0     C79096   5.380   6.956   8.111  0.2315  0.9267  0.2050
  574MOL0     C79097   5.533   6.912   8.129  0.7344  0.8262  0.6903
  574MOL0     O79098   5.579   6.928   8.260  0.2484  0.3392  0.6857
  574MOL0     C79099   5.715   6.897   8.286  0.7041  0.1357  0.5861
  574MOL0     C79100   5.815   6.878   8.182  1.0557 -0.1795 -0.4661
  574MOL0     C79101   5.948   6.842   8.210  1.0709  0.0002 -0.3445
  574MOL0     C79102   6.024   6.807   8.087  0.0924 -0.5925  0.0070
  574MOL0     C79103   5.989   6.830   8.345 -0.9968  0.7610 -0.0696
  574MOL0     C79104   6.133   6.806   8.383  0.9848 -0.1630 -0.2801
  574MOL0     O79105   6.166   6.764   8.500 -0.7626  0.4330  0.4200
  574MOL0     C79106   6.300   6.750   8.516 -0.2380 -0.3093 -0.6155
  574MOL0     C79107   6.351   6.621   8.507  1.0100  0.5048 -0.5237
  574MOL0     C79108   6.483   6.605   8.523 -0.8908 -0.2349  0.1344
  574MOL0     C79109   6.572   6.722   8.547 -0.4558  0.7211  0.7874
  574MOL0     O79110   6.703   6.682   8.572  1.3041 -0.0320 -0.6566
  574MOL0     C79111   6.795   6.789   8.597  0.1957  0.6049 -0.3440
  574MOL0     C79112   6.935   6.730   8.594 -0.4174 -1.0863 -0.1818
  574MOL0     C79113   6.993   6.693   8.731 -0.4221  0.4050 -0.1932
  574MOL0     C79114   7.082   6.566   8.722  0.3691 -0.2538 -0.5155
  574MOL0     C79115   7.148   6.518   8.860  0.3378  0.7143  0.0036
  574MOL0     C79116   7.231   6.397   8.829 -0.1081 -0.5207  0.2301
  574MOL0     C79117   7.313   6.368   8.956  0.1010 -0.0357  0.4779
  574MOL0     C79118   7.459   6.356   8.931 -1.2587  0.0501  0.2313
  574MOL0    Cl79119   7.525   6.520   8.907  0.1138 -0.3694  0.3679
  574MOL0     C79120   6.509   6.845   8.568 -0.0378  0.2532  1.0671
  574MOL0     C79121   6.375   6.860   8.555 -0.4344  1.3852  0.6401
  574MOL0     O79122   6.209   6.835   8.289  0.3298  0.8451 -0.2201
  574MOL0     C79123   5.891   6.841   8.451  0.6098 -0.0871 -0.0006
  574MOL0     C79124   5.755   6.879   8.420  0.2611 -0.0464 -0.1544
  574MOL0     N79125   5.037   7.014   8.267  0.1574 -0.5341  0.1134
  574MOL0     N79126   4.974   6.979   8.375 -0.7064  0.0210 -0.5096
  574MOL0     C79127   4.588   6.435   9.495 -0.2921  0.1881  0.0149
  574MOL0     C79128   4.580   6.431   9.633  0.4367 -0.1159  0.0870
  574MOL0     C79129   4.769   6.471  10.040  0.7489 -0.4082  0.3674
  574MOL0     C79130   4.684   6.395  10.114  0.3577  0.0479  0.6231
  574MOL0     C79131   4.673   6.388  10.255 -0.3737 -0.1667  0.2540
  574MOL0     C79132   4.759   6.468  10.334 -0.0102  0.3921  0.3389
  574MOL0     O79133   4.749   6.460  10.465 -0.1408  0.2585 -0.4553
  574MOL0     C79134   4.848   6.481  10.555  0.2882  0.0690 -0.2721
  574MOL0     C79135   4.791   6.441  10.691 -1.1076 -0.8662 -0.1264
  574MOL0     C79136   4.890   6.496  10.794  0.4674  0.0758 -0.5907
  574MOL0     C79137   5.013   6.406  10.835  0.8018  1.1424 -0.5568
  574MOL0     C79138   5.136   6.471  10.823  0.0323 -0.0385  0.5787
  574MOL0     C79139   5.233   6.533  10.799 -0.0833 -0.6352 -0.7307
  574MOL0     C79140   4.844   6.552  10.265  0.8619 -0.0642  0.0822
  574MOL0     C79141   4.859   6.550  10.124  0.3129  0.5452  0.5984
  574MOL0     C79142   4.948   6.650  10.061  0.2836 -0.3273  0.5201
  574MOL0     H79143   4.861   6.266   9.688 -1.8479 -1.8712 -1.2100
  574MOL0     H79144   4.891   6.287   9.455 -0.8171 -0.8624 -0.1204
  574MOL0     H79145   4.565   6.543   9.246 -1.8937 -0.7583  0.1226
  574MOL0     H79146   4.508   6.386   9.240  0.1574 -0.0377  1.4974
  574MOL0     H79147   4.695   6.350   9.059  0.7578 -0.3859  1.4107
  574MOL0     H79148   4.543   6.427   9.008  1.7115 -0.7921 -3.1979
  574MOL0     H79149   4.658   6.660   9.028  1.9347  0.9555  0.6740
  574MOL0     H79150   4.806   6.570   9.053 -0.6638  2.9456  1.4957
  574MOL0     H79151   4.744   6.452   8.839 -0.1198  0.0915  0.6813
  574MOL0     H79152   4.621   6.579   8.813  0.6335 -1.8541 -0.5724
  574MOL0     H79153   4.927   6.614   8.831  1.7155  1.5813 -2.6366
  574MOL0     H79154   4.811   6.750   8.859 -2.9663 -0.8657  0.9632
  574MOL0     H79155   4.778   6.573   8.617  1.2665 -1.9783  2.9697
  574MOL0     H79156   4.719   6.737   8.647  1.9314 -0.0811 -0.6591
  574MOL0     H79157   5.005   6.683   8.592  1.4562  1.2993 -0.9904
  574MOL0     H79158   4.939   6.836   8.644  1.7846 -1.3011  0.2352
  574MOL0     H79159   4.819   6.674   8.408 -2.5868  0.6301  0.4256
  574MOL0     H79160   4.778   6.837   8.460  2.0085  1.2972  2.2657
  574MOL0     H79161   5.036   6.692   8.228  0.3910 -0.3370  2.6677
  574MOL0     H79162   5.137   6.998   8.012  1.8296 -1.3826 -0.7213
  574MOL0     H79163   5.092   6.840   7.979 -0.2097  0.7268  0.1985
  574MOL0     H79164   5.279   6.772   8.155  0.4626  1.9033  3.2704
  574MOL0     H79165   5.318   6.792   7.979 -2.1923  0.1848 -1.0570
  574MOL0     H79166   5.385   7.044   8.045 -1.9209 -0.6382 -2.2457
  574MOL0     H79167   5.341   6.985   8.209  0.9431 -0.8081  1.0300
  574MOL0     H79168   5.533   6.805   8.105  4.0763  0.9799 -0.5552
  574MOL0     H79169   5.578   6.976   8.052 -1.8200  0.6472 -1.1105
  574MOL0     H79170   5.790   6.902   8.079  0.3286  1.6187  0.0866
  574MOL0     H79171   6.067   6.709   8.108  1.0926 -0.4419 -1.2773
  574MOL0     H79172   6.106   6.872   8.057 -1.1131  0.2255 -1.6740
  574MOL0     H79173   5.972   6.799   7.991  2.6327 -1.3301 -1.3819
  574MOL0     H79174   6.283   6.537   8.503 -1.7227  2.6131 -1.6941
  574MOL0     H79175   6.523   6.505   8.528  1.8112  0.8350  3.8133
  574MOL0     H79176   6.784   6.873   8.528 -1.8653  0.6140 -0.0670
  574MOL0     H79177   6.780   6.837   8.695 -2.1229 -1.1126  0.2316
  574MOL0     H79178   6.931   6.639   8.534 -1.7175 -0.8761 -0.4428
  574MOL0     H79179   6.998   6.801   8.539 -3.1403 -0.4592 -2.7157
  574MOL0     H79180   6.920   6.670   8.809  1.4763  0.3348  1.6480
  574MOL0     H79181   7.053   6.775   8.770  1.2543 -1.3164  1.0452
  574MOL0     H79182   7.171   6.599   8.668  1.8922  2.8134  3.3780
  574MOL0     H79183   7.021   6.489   8.672 -0.0384  1.9255 -3.6933
  574MOL0     H79184   7.210   6.597   8.904 -1.6356  2.8071 -0.7267
  574MOL0     H79185   7.073   6.494   8.936  1.4449  0.6379  1.0956
  574MOL0     H79186   7.301   6.424   8.749  0.1659  2.5260  1.3744
  574MOL0     H79187   7.160   6.317   8.805  1.1555 -2.6957  3.1351
  574MOL0     H79188   7.267   6.275   8.993 -3.7004  1.5574  0.1835
  574MOL0     H79189   7.291   6.448   9.027 -2.7900 -1.0001  0.8309
  574MOL0     H79190   7.483   6.297   8.842 -2.7244  0.3063 -0.3666
  574MOL0     H79191   7.508   6.310   9.017  0.2809  0.9410 -0.1287
  574MOL0     H79192   6.562   6.936   8.596  1.9707 -0.3103 -0.5826
  574MOL0     H79193   6.325   6.956   8.558 -3.1763  0.2115 -1.8073
  574MOL0     H79194   5.911   6.815   8.554  0.2890 -3.4307 -0.6706
  574MOL0     H79195   5.685   6.897   8.501  2.4028  1.0066  1.5757
  574MOL0     H79196   4.499   6.467   9.441 -0.3762 -2.2821 -1.4119
  574MOL0     H79197   4.495   6.480   9.681  0.3199 -0.3256  0.0964
  574MOL0     H79198   4.611   6.333  10.064 -0.0332 -0.0621  1.3213
  574MOL0     H79199   4.601   6.320  10.300 -2.0721  1.4543  0.0974
  574MOL0     H79200   4.943   6.430  10.541 -0.6048 -2.5274  2.2813
  574MOL0     H79201   4.870   6.588  10.549 -0.2169  0.2181  0.4065
  574MOL0     H79202   4.777   6.332  10.697  0.6317 -1.2329 -1.7757
  574MOL0     H79203   4.697   6.492  10.712 -0.4221 -0.0874  1.2363
  574MOL0     H79204   4.931   6.594  10.766 -2.2236  0.8024 -2.3559
  574MOL0     H79205   4.837   6.510  10.889  2.5860 -0.1552  0.6866
  574MOL0     H79206   5.011   6.322  10.765 -3.3395 -0.8720  1.6027
  574MOL0     H79207   5.005   6.370  10.938  1.1429  0.8129 -0.6456
  574MOL0     H79208   5.323   6.578  10.763  0.3507  0.2292  1.2549
  574MOL0     H79209   4.913   6.607  10.329 -0.3152  1.2204  0.2947
  574MOL0     H79210   4.995   6.710  10.139  3.9044  1.4962 -2.7555
  574MOL0     H79211   5.024   6.596  10.004 -0.5975 -1.3380  0.2670
  574MOL0     H79212   4.905   6.731  10.002  2.4409  2.1994  2.1781
  575MOL0     O79213  10.253   1.091   0.688 -0.5573 -0.5828  0.5858
  575MOL0     C79214  10.248   1.061   0.806  0.1807 -0.2730 -0.5893
  575MOL0     O79215  10.197   0.940   0.853 -0.3070 -0.1967 -0.0412
  575MOL0     C79216  10.086   0.873   0.806  0.2814 -0.2138  1.2263
  575MOL0     C79217  10.009   0.920   0.700  0.2802 -0.0641  0.2549
  575MOL0     C79218   9.906   0.853   0.649  0.2764  0.9691  0.4184
  575MOL0     C79219   9.863   0.733   0.713  0.7778  0.1608 -0.0139
  575MOL0     O79220   9.751   0.662   0.667 -0.5435 -0.3983  0.8868
  575MOL0     C79221   9.687   0.568   0.761  0.3519 -0.6773  0.0826
  575MOL0     C79222   9.539   0.554   0.722 -0.5852 -0.1309 -0.2325
  575MOL0     C79223   9.466   0.683   0.761  0.2917  0.0506  0.0763
  575MOL0     C79224   9.311   0.686   0.734 -0.9712  0.7404  0.3709
  575MOL0     C79225   9.243   0.807   0.775 -0.2850  0.2140  0.1634
  575MOL0     C79226   9.090   0.787   0.758 -0.6839  0.4680 -0.4347
  575MOL0     C79227   9.058   0.803   0.608 -0.5714 -0.5730 -0.3174
  575MOL0     C79228   8.921   0.878   0.597 -0.3125  0.6375  0.4320
  575MOL0     N79229   8.806   0.783   0.608  0.9682 -0.6388  0.5720
  575MOL0     C79230   8.784   0.691   0.514 -0.0091 -0.2163  0.2107
  575MOL0     C79231   8.677   0.611   0.547 -0.2442  0.2842 -0.6222
  575MOL0     C79232   8.616   0.484   0.480 -0.0794 -0.7453  0.1663
  575MOL0     C79233   8.598   0.505   0.330 -0.1806  0.0556 -0.8255
  575MOL0     C79234   8.486   0.415   0.258 -0.6798 -0.8943 -0.4932
  575MOL0     C79235   8.509   0.259   0.261  0.9079 -0.9717 -0.5655
  575MOL0     O79236   8.619   0.220   0.181 -0.6467 -0.2556  0.2834
  575MOL0     C79237   8.617   0.100   0.123  0.0945 -0.6271 -0.1549
  575MOL0     C79238   8.706   0.079   0.015  0.2189  0.0323  0.6491
  575MOL0     C79239   8.711  -0.032  -0.065 -0.7648  0.6498 -0.1448
  575MOL0     C79240   8.814  -0.037  -0.171 -0.3952 -0.1680 -0.2404
  575MOL0     C79241   8.628  -0.137  -0.022  0.0961 -0.5989  0.0238
  575MOL0     C79242   8.634  -0.269  -0.091  0.1050  0.0998 -0.1059
  575MOL0     O79243   8.523  -0.351  -0.076 -0.1502  1.0133  0.0770
  575MOL0     C79244   8.547  -0.476  -0.136  0.8280 -0.2620 -0.7403
  575MOL0     C79245   8.540  -0.593  -0.071 -0.6617 -0.9632 -1.7799
  575MOL0     C79246   8.554  -0.714  -0.134 -0.1691  0.4239  0.3122
  575MOL0     C79247   8.562  -0.726  -0.275  0.2729  0.2362  0.5814
  575MOL0     O79248   8.561  -0.847  -0.348 -0.7905 -0.5006 -0.5401
  575MOL0     C79249   8.609  -0.965  -0.270  1.2869 -0.1411  0.2451
  575MOL0     C79250   8.615  -1.087  -0.365 -0.8641  0.7776  0.4429
  575MOL0     C79251   8.478  -1.140  -0.398  0.8012 -0.2070 -0.8256
  575MOL0     C79252   8.481  -1.251  -0.504 -0.5174  0.0337 -0.6715
  575MOL0     C79253   8.339  -1.280  -0.555 -0.1899 -0.1539  0.2865
  575MOL0     C79254   8.353  -1.391  -0.667 -0.0133 -1.8689  0.2345
  575MOL0     C79255   8.216  -1.442  -0.702  0.7998  0.5937 -0.7708
  575MOL0     C79256   8.207  -1.525  -0.833 -0.7694 -0.5593  0.1611
  575MOL0    Cl79257   8.320  -1.666  -0.820 -0.4732  0.2646  0.4018
  575MOL0     C79258   8.566  -0.602  -0.347 -0.0619 -0.1753 -0.4619
  575MOL0     C79259   8.562  -0.478  -0.277 -1.0453  0.1036 -0.7484
  575MOL0     O79260   8.740  -0.308  -0.134  0.3495  0.2790  0.5037
  575MOL0     C79261   8.526  -0.115   0.071 -0.6765  0.5337 -0.8054
  575MOL0     C79262   8.529  -0.002   0.151  0.6919  0.2374  0.3116
  575MOL0     N79263   8.649   0.650   0.677 -0.2995  0.6198 -0.4407
  575MOL0     N79264   8.731   0.748   0.717 -0.2770  0.3581 -0.9069
  575MOL0     C79265   9.938   0.689   0.816  0.5435  0.3161 -1.0135
  575MOL0     C79266  10.046   0.762   0.871  0.5017 -0.4615  0.2309
  575MOL0     C79267  10.329   1.140   0.905  0.6284  0.0621  0.1343
  575MOL0     C79268  10.380   1.073   1.012  0.4609  0.1737 -0.3644
  575MOL0     C79269  10.447   1.132   1.114 -0.8348  0.0523  0.1220
  575MOL0     C79270  10.476   1.273   1.095 -0.0590  0.7343  0.0310
  575MOL0     O79271  10.558   1.327   1.186  0.2390  0.7541  0.7361
  575MOL0     C79272  10.648   1.432   1.133  0.2411 -0.8053  0.8004
  575MOL0     C79273  10.762   1.470   1.222  0.2400  0.0881 -0.2645
  575MOL0     C79274  10.834   1.585   1.163  0.1697 -0.3298  0.2255
  575MOL0     C79275  10.949   1.614   1.260 -0.2984 -0.1899 -0.0484
  575MOL0     C79276  11.030   1.740   1.234 -0.2480  0.3036 -0.7666
  575MOL0     C79277  11.084   1.850   1.234 -0.0413  0.1025 -0.9608
  575MOL0     C79278  10.421   1.346   0.991 -0.2252 -0.2230  0.4955
  575MOL0     C79279  10.345   1.281   0.898  0.1685 -0.4190 -0.1828
  575MOL0     C79280  10.271   1.371   0.803  0.5557  0.0079 -0.4354
  575MOL0     H79281  10.027   1.017   0.655  0.6427 -0.7402 -1.0833
  575MOL0     H79282   9.828   0.901   0.590 -0.6806  0.2335  1.0587
  575MOL0     H79283   9.697   0.609   0.863 -0.6178 -1.2532  0.4172
  575MOL0     H79284   9.736   0.470   0.753  3.5423  0.8403 -0.8893
  575MOL0     H79285   9.525   0.531   0.616  1.2884  1.2478 -0.8299
  575MOL0     H79286   9.487   0.473   0.774 -1.1827  0.0574 -0.5344
  575MOL0     H79287   9.491   0.704   0.865  1.7786 -3.3513  0.5347
  575MOL0     H79288   9.502   0.770   0.706  0.0555  0.1973  0.1532
  575MOL0     H79289   9.291   0.665   0.629 -2.9450 -0.3555  0.9023
  575MOL0     H79290   9.268   0.609   0.799 -0.5279  1.4856  1.5952
  575MOL0     H79291   9.261   0.897   0.716 -0.1147  1.3899  1.9395
  575MOL0     H79292   9.276   0.840   0.874 -0.2370 -2.5494  1.1828
  575MOL0     H79293   9.055   0.688   0.786 -1.0540  0.4716 -0.8844
  575MOL0     H79294   9.047   0.870   0.816 -1.0657  0.8972 -1.3173
  575MOL0     H79295   9.055   0.701   0.569  0.2641 -0.3200 -1.0785
  575MOL0     H79296   9.137   0.855   0.554  1.3421 -0.9905  1.9245
  575MOL0     H79297   8.914   0.955   0.675 -1.9788 -1.2074  2.2211
  575MOL0     H79298   8.903   0.918   0.497  0.9021  1.9889  0.7085
  575MOL0     H79299   8.828   0.700   0.415 -0.8664 -2.3062 -0.4169
  575MOL0     H79300   8.517   0.461   0.521 -0.0778  0.3297  0.8172
  575MOL0     H79301   8.687   0.403   0.493  0.5758  0.2060  3.4827
  575MOL0     H79302   8.576   0.612   0.317  3.3535  1.4353  2.6347
  575MOL0     H79303   8.690   0.489   0.274  1.3076  0.2267  1.4240
  575MOL0     H79304   8.390   0.441   0.302 -0.4396 -1.4286  0.3656
  575MOL0     H79305   8.487   0.457   0.157 -0.1163  0.9207  0.2322
  575MOL0     H79306   8.518   0.227   0.365 -0.2244  1.1643  0.2632
  575MOL0     H79307   8.414   0.222   0.223 -0.9480  2.9652 -0.3341
  575MOL0     H79308   8.769   0.164  -0.010  1.1685 -0.4656  1.2922
  575MOL0     H79309   8.834   0.067  -0.200 -0.8266 -0.2292 -0.7498
  575MOL0     H79310   8.774  -0.090  -0.257 -1.2217  1.8972 -1.1827
  575MOL0     H79311   8.903  -0.069  -0.116 -0.9183  2.1977  2.2235
  575MOL0     H79312   8.518  -0.589   0.035  0.6486  2.6484 -1.4989
  575MOL0     H79313   8.543  -0.798  -0.066  2.2332 -0.2043  0.0429
  575MOL0     H79314   8.711  -0.935  -0.244  1.1632  0.0593  0.4974
  575MOL0     H79315   8.547  -0.989  -0.183  1.4796  0.0877  0.4448
  575MOL0     H79316   8.680  -1.061  -0.449  0.4164  0.5305  1.3341
  575MOL0     H79317   8.666  -1.161  -0.303 -0.1356  1.0760  0.2206
  575MOL0     H79318   8.405  -1.063  -0.423 -2.2023 -1.2700  3.4328
  575MOL0     H79319   8.441  -1.179  -0.302 -0.9544  2.3396 -0.3748
  575MOL0     H79320   8.534  -1.337  -0.463  1.8626  1.4961 -0.5028
  575MOL0     H79321   8.542  -1.210  -0.584  0.1639  1.9474  0.7485
  575MOL0     H79322   8.269  -1.296  -0.473  0.8145 -0.1467  1.1758
  575MOL0     H79323   8.294  -1.192  -0.601  1.2654  0.1678 -0.5848
  575MOL0     H79324   8.432  -1.463  -0.647  0.7048 -2.0953 -2.8863
  575MOL0     H79325   8.372  -1.338  -0.761 -5.6278  0.5186  0.0175
  575MOL0     H79326   8.144  -1.362  -0.719  0.4433  0.3646 -0.3699
  575MOL0     H79327   8.190  -1.507  -0.618  0.1796 -1.9854 -2.8107
  575MOL0     H79328   8.241  -1.455  -0.910 -2.5748  0.0290 -0.1465
  575MOL0     H79329   8.108  -1.562  -0.862  0.1640 -1.1220 -2.5416
  575MOL0     H79330   8.551  -0.600  -0.455 -1.3794  1.2071 -0.2874
  575MOL0     H79331   8.556  -0.386  -0.334  2.7639  0.7307 -0.4162
  575MOL0     H79332   8.453  -0.179   0.120 -1.5548  3.0224  1.4150
  575MOL0     H79333   8.455  -0.014   0.230  0.0338 -2.5506 -0.6125
  575MOL0     H79334   9.907   0.595   0.860  0.2078  0.4657 -0.9309
  575MOL0     H79335  10.105   0.735   0.958  1.1489  2.4537  0.7991
  575MOL0     H79336  10.367   0.966   1.025 -0.7651  0.2502 -0.8011
  575MOL0     H79337  10.481   1.079   1.203 -0.9177 -1.9965 -0.9983
  575MOL0     H79338  10.702   1.400   1.043  0.9188  1.9556  0.1241
  575MOL0     H79339  10.589   1.520   1.108  0.9145 -1.0807 -2.1859
  575MOL0     H79340  10.825   1.382   1.236 -1.1601 -1.1554 -1.4720
  575MOL0     H79341  10.727   1.504   1.320 -2.9494 -0.4368 -1.1066
  575MOL0     H79342  10.875   1.562   1.064  1.1588  2.4504 -0.1068
  575MOL0     H79343  10.774   1.675   1.146  1.8229  1.4495  2.9027
  575MOL0     H79344  11.016   1.528   1.268  2.0840  1.6380  0.8553
  575MOL0     H79345  10.911   1.637   1.360  0.8375  1.2494  0.0836
  575MOL0     H79346  11.144   1.938   1.227  1.1722 -0.5905  0.4456
  575MOL0     H79347  10.444   1.451   0.982 -2.9707  0.5812  1.9003
  575MOL0     H79348  10.168   1.343   0.824  1.2746 -0.9311  2.4090
  575MOL0     H79349  10.283   1.477   0.829 -2.8128 -0.0983  2.2407
  575MOL0     H79350  10.296   1.356   0.698  0.0748 -0.4919 -0.4772
  576MOL0     O79351   8.246   8.023   6.475 -0.4864  0.8708  0.7610
  576MOL0     C79352   8.180   7.964   6.391  1.2617 -0.6401 -0.5905
  576MOL0     O79353   8.220   7.915   6.271  0.3798  0.4659  0.5744
  576MOL0     C79354   8.348   7.891   6.228 -0.0767  0.5833  0.1949
  576MOL0     C79355   8.359   7.795   6.122 -0.3765 -0.8542 -0.2198
  576MOL0     C79356   8.485   7.762   6.068 -0.5929  0.2161  0.0411
  576MOL0     C79357   8.607   7.808   6.118 -0.3075 -0.8130  0.2687
  576MOL0     O79358   8.724   7.769   6.067 -0.2029 -0.0451  0.4176
  576MOL0     C79359   8.852   7.812   6.116  0.3451  0.5643 -0.0838
  576MOL0     C79360   8.893   7.707   6.219 -0.4920  0.8045  0.4345
  576MOL0     C79361   9.004   7.758   6.301  0.1426  0.4106  0.0664
  576MOL0     C79362   9.138   7.728   6.233 -0.2556  0.8045 -0.0661
  576MOL0     C79363   9.255   7.807   6.296 -0.4419 -0.0401  0.0446
  576MOL0     C79364   9.302   7.740   6.423  0.2415 -0.5641 -0.0826
  576MOL0     C79365   9.420   7.810   6.467 -0.5867 -0.7113 -0.3709
  576MOL0     C79366   9.469   7.777   6.609 -0.3493  0.0687  0.3010
  576MOL0     N79367   9.563   7.875   6.674  0.3949  0.3465  0.0039
  576MOL0     C79368   9.524   7.985   6.740 -0.4229 -0.8543  1.0953
  576MOL0     C79369   9.642   8.024   6.795 -0.3489 -0.3401  0.2343
  576MOL0     C79370   9.669   8.138   6.897  0.3695  0.8859  0.9947
  576MOL0     C79371   9.793   8.211   6.849 -0.3370  0.1840 -0.9898
  576MOL0     C79372   9.831   8.323   6.948  1.0853 -0.5369 -0.4423
  576MOL0     C79373   9.969   8.379   6.915  0.0936  0.0256  0.1630
  576MOL0     O79374   9.973   8.509   6.969  0.5919  0.6481  0.5296
  576MOL0     C79375  10.083   8.593   6.974  1.1583 -0.6139 -0.0836
  576MOL0     C79376  10.048   8.723   7.015  1.0596 -0.2042 -0.7973
  576MOL0     C79377  10.147   8.815   7.047  0.1236  0.4336 -0.5003
  576MOL0     C79378  10.094   8.955   7.073 -0.3834  0.4587  0.4262
  576MOL0     C79379  10.283   8.775   7.040  0.5127 -0.1840 -0.0326
  576MOL0     C79380  10.394   8.862   7.055 -0.2719  0.3201  0.2902
  576MOL0     O79381  10.513   8.796   7.082  0.3195 -0.4098 -0.2906
  576MOL0     C79382  10.625   8.854   7.040 -0.4357  0.8600  0.2016
  576MOL0     C79383  10.735   8.818   7.129  0.5221 -0.1135  0.0793
  576MOL0     C79384  10.862   8.850   7.083 -0.2827 -0.1322  0.0730
  576MOL0     C79385  10.873   8.929   6.964 -0.3586  0.2091  0.3302
  576MOL0     O79386  11.003   8.965   6.938 -0.1784 -0.5725  0.0915
  576MOL0     C79387  11.027   9.106   6.940 -0.9350  0.0687  0.5748
  576MOL0     C79388  11.160   9.124   7.002 -0.3570  0.0683  0.0270
  576MOL0     C79389  11.188   9.050   7.135  0.2170  0.1518  0.2047
  576MOL0     C79390  11.320   9.096   7.186 -0.6255 -0.1396 -0.4862
  576MOL0     C79391  11.368   8.997   7.301  1.0154 -0.8865 -0.7698
  576MOL0     C79392  11.512   9.002   7.335  0.5793 -0.0455 -0.5937
  576MOL0     C79393  11.597   8.979   7.214  0.1124 -0.6276  0.1887
  576MOL0     C79394  11.728   8.915   7.263 -0.2536 -0.9769 -0.3752
  576MOL0    Cl79395  11.846   8.902   7.134 -0.3676  0.1251 -0.3761
  576MOL0     C79396  10.765   8.973   6.891  0.5427  1.0997 -0.0581
  576MOL0     C79397  10.637   8.929   6.925 -0.4529 -0.5259  0.4012
  576MOL0     O79398  10.382   8.985   7.058  0.0140 -0.2305 -1.0578
  576MOL0     C79399  10.312   8.638   7.004 -0.0295  0.6144 -1.0189
  576MOL0     C79400  10.211   8.545   6.975  0.5753 -1.2010  0.5692
  576MOL0     N79401   9.744   7.931   6.764 -0.7181  0.5792 -0.6825
  576MOL0     N79402   9.693   7.850   6.682  0.1798 -0.2246  0.0693
  576MOL0     C79403   8.598   7.904   6.222 -0.7137 -0.2136 -0.1301
  576MOL0     C79404   8.464   7.940   6.273 -0.2706  0.7629  0.2098
  576MOL0     C79405   8.035   7.929   6.438  0.9595 -0.1197  0.0688
  576MOL0     C79406   7.953   7.842   6.358 -0.4643 -0.2518  0.8221
  576MOL0     C79407   7.824   7.795   6.394  0.0328 -0.4729  0.4748
  576MOL0     C79408   7.765   7.847   6.518 -0.3774  0.7683 -0.0527
  576MOL0     O79409   7.639   7.814   6.567  0.1114  0.3879  0.0469
  576MOL0     C79410   7.566   7.737   6.471  0.4461  1.1135 -0.7637
  576MOL0     C79411   7.460   7.664   6.561  0.1272 -0.0310  0.6770
  576MOL0     C79412   7.372   7.771   6.644  0.4323 -0.4968 -0.7378
  576MOL0     C79413   7.294   7.706   6.757 -0.2398 -0.0429  0.2215
  576MOL0     C79414   7.310   7.776   6.883 -0.6714 -0.8037 -0.3451
  576MOL0     C79415   7.304   7.831   6.993  0.5102  0.1151 -0.0596
  576MOL0     C79416   7.836   7.932   6.599 -0.5488  0.1455 -0.7277
  576MOL0     C79417   7.971   7.975   6.566 -0.0308  0.1008 -0.0115
  576MOL0     C79418   8.037   8.068   6.657 -0.2893 -0.7666  0.1911
  576MOL0     H79419   8.270   7.748   6.082  1.0138 -3.5280 -0.3573
  576MOL0     H79420   8.486   7.689   5.987  0.1490  0.7918 -0.4802
  576MOL0     H79421   8.860   7.915   6.155  5.2549  1.0423 -1.6694
  576MOL0     H79422   8.931   7.798   6.042  2.1430 -2.3076  2.1925
  576MOL0     H79423   8.805   7.680   6.280 -0.4327 -2.4298 -0.7043
  576MOL0     H79424   8.923   7.619   6.162  1.3483  0.2672  2.1536
  576MOL0     H79425   9.003   7.867   6.316  2.5089  0.4176  0.5708
  576MOL0     H79426   9.002   7.709   6.398 -1.9473 -0.7907 -0.5187
  576MOL0     H79427   9.166   7.623   6.247 -1.9152  0.3476  0.0805
  576MOL0     H79428   9.136   7.750   6.126 -1.1635 -2.8082 -0.9497
  576MOL0     H79429   9.233   7.910   6.324 -0.7841  0.1481 -0.8834
  576MOL0     H79430   9.337   7.823   6.225  0.4209  4.2987  1.7055
  576MOL0     H79431   9.237   7.741   6.510  0.5268  0.4546  0.1310
  576MOL0     H79432   9.342   7.644   6.388  2.2508 -0.2539  1.2250
  576MOL0     H79433   9.401   7.917   6.460  0.1548 -0.3780  1.8599
  576MOL0     H79434   9.501   7.788   6.397 -2.3065 -0.1776 -2.6449
  576MOL0     H79435   9.384   7.769   6.676  0.4984 -1.0649  1.2785
  576MOL0     H79436   9.526   7.684   6.602  1.0624  0.8420  0.8765
  576MOL0     H79437   9.426   8.032   6.750 -0.1619  0.0658 -0.3697
  576MOL0     H79438   9.679   8.085   6.992 -1.1894  0.2841  0.8611
  576MOL0     H79439   9.593   8.217   6.896  2.7782  3.3756 -1.0184
  576MOL0     H79440   9.869   8.134   6.836 -1.2583 -0.3658 -4.0291
  576MOL0     H79441   9.767   8.259   6.754 -1.5919  0.8593 -0.3374
  576MOL0     H79442   9.757   8.403   6.948  3.4051  1.8072  1.3371
  576MOL0     H79443   9.825   8.291   7.053  0.5579  2.4075  0.5097
  576MOL0     H79444  10.045   8.310   6.953  3.3245  3.7598  1.1446
  576MOL0     H79445   9.988   8.384   6.807 -1.2657  0.6814 -0.0791
  576MOL0     H79446   9.942   8.737   7.033  0.9677  0.2017 -1.6379
  576MOL0     H79447   9.986   8.966   7.086 -0.4326  0.4635  0.0436
  576MOL0     H79448  10.115   9.014   6.983 -3.0320 -0.0410 -0.6222
  576MOL0     H79449  10.145   8.996   7.160 -0.2314  0.5404  0.2983
  576MOL0     H79450  10.732   8.762   7.222  1.3615 -2.5673 -1.2730
  576MOL0     H79451  10.952   8.835   7.142 -0.5809 -4.3316 -0.2442
  576MOL0     H79452  11.050   9.144   6.840 -0.1482  1.0363  1.1005
  576MOL0     H79453  10.944   9.160   6.987  0.1708  2.9260 -0.5200
  576MOL0     H79454  11.226   9.088   6.923 -0.4408 -1.4545  0.6046
  576MOL0     H79455  11.168   9.233   7.007  1.7040 -0.0020 -0.7373
  576MOL0     H79456  11.194   8.943   7.110  2.7533  0.8417 -2.8440
  576MOL0     H79457  11.117   9.073   7.216  1.2623 -0.1939  1.2399
  576MOL0     H79458  11.316   9.198   7.225  1.2382 -0.9607  2.1257
  576MOL0     H79459  11.378   9.089   7.093 -2.0671 -1.9218 -1.3140
  576MOL0     H79460  11.308   9.023   7.390  1.9440  2.4151 -0.9723
  576MOL0     H79461  11.339   8.896   7.271 -1.9024  0.5380 -3.3142
  576MOL0     H79462  11.531   8.925   7.410 -0.4740  0.6506  0.4322
  576MOL0     H79463  11.545   9.089   7.393  0.7474  0.5312 -1.5304
  576MOL0     H79464  11.614   9.069   7.155 -1.9930 -1.1011 -1.2809
  576MOL0     H79465  11.554   8.900   7.151  1.9939 -3.2400  1.9725
  576MOL0     H79466  11.701   8.815   7.300 -0.7707 -1.9857 -3.2423
  576MOL0     H79467  11.773   8.974   7.343  0.6588 -0.5213 -1.2036
  576MOL0     H79468  10.788   9.031   6.803 -1.0131 -1.6681 -2.4358
  576MOL0     H79469  10.556   8.949   6.855  1.0550  2.4873 -0.6710
  576MOL0     H79470  10.419   8.619   7.007  0.3334  1.6859  4.5043
  576MOL0     H79471  10.218   8.440   6.950  1.0654 -0.7176 -1.4460
  576MOL0     H79472   8.684   7.962   6.252 -1.0203  1.6913 -2.6224
  576MOL0     H79473   8.474   8.017   6.349  1.0761 -1.9706  3.0215
  576MOL0     H79474   8.001   7.815   6.265  1.3125 -0.5256  1.7842
  576MOL0     H79475   7.778   7.730   6.320  2.3262 -0.8025 -0.7284
  576MOL0     H79476   7.525   7.801   6.391  1.2385  2.4530 -0.1362
  576MOL0     H79477   7.624   7.658   6.423  2.6014  2.0030  0.2584
  576MOL0     H79478   7.497   7.582   6.624 -1.6913 -1.6807 -0.2599
  576MOL0     H79479   7.387   7.617   6.495 -2.3314  0.6212  2.7527
  576MOL0     H79480   7.438   7.843   6.692 -0.5867 -1.7452  2.8731
  576MOL0     H79481   7.301   7.828   6.582 -0.0634 -1.2755 -0.9044
  576MOL0     H79482   7.319   7.601   6.769 -0.7908 -0.0823  1.0722
  576MOL0     H79483   7.186   7.700   6.739 -0.1775  0.8658 -0.5541
  576MOL0     H79484   7.305   7.877   7.090  4.0957  0.4418 -0.1070
  576MOL0     H79485   7.791   7.974   6.689 -0.7068 -0.2337 -0.6298
  576MOL0     H79486   7.958   8.115   6.717  1.3207  3.2895 -0.5387
  576MOL0     H79487   8.117   8.028   6.719  1.2935 -1.8158 -2.3732
  576MOL0     H79488   8.086   8.147   6.598  3.8115  0.1361  4.2182
  577MOL0     O79489   7.959   7.802   8.403 -0.2801 -0.4600  0.2441
  577MOL0     C79490   7.950   7.723   8.495 -0.0360  0.0452 -0.0402
  577MOL0     O79491   8.015   7.607   8.499  0.1003 -0.9281 -0.2830
  577MOL0     C79492   8.123   7.586   8.415 -0.3284  0.0953 -0.7353
  577MOL0     C79493   8.103   7.517   8.292 -1.3931  0.1210  0.3033
  577MOL0     C79494   8.217   7.489   8.215  0.4144  0.4238  0.1719
  577MOL0     C79495   8.343   7.533   8.261  0.2366 -0.9451  0.1738
  577MOL0     O79496   8.457   7.517   8.183 -1.2436  0.4049 -0.0449
  577MOL0     C79497   8.552   7.625   8.178 -0.0453 -0.6122  0.1861
  577MOL0     C79498   8.653   7.597   8.054  0.3568 -1.0476 -0.1723
  577MOL0     C79499   8.779   7.686   8.048 -0.5206 -0.1652 -1.3128
  577MOL0     C79500   8.772   7.835   8.036 -0.3172 -0.6293 -0.1734
  577MOL0     C79501   8.900   7.905   8.006 -0.8463  0.0568 -0.4913
  577MOL0     C79502   9.021   7.889   8.106  0.7405  0.1096  0.7848
  577MOL0     C79503   9.122   7.992   8.065  0.7030  0.7534  0.1318
  577MOL0     C79504   9.249   7.995   8.146 -0.2165 -0.1301 -0.4691
  577MOL0     N79505   9.348   8.099   8.091  0.1714  0.1838  0.7353
  577MOL0     C79506   9.410   8.080   7.971 -0.4538 -0.1028  0.8860
  577MOL0     C79507   9.500   8.182   7.962 -0.4187  0.6663 -0.7830
  577MOL0     C79508   9.591   8.199   7.842  0.1180  0.5390  0.1972
  577MOL0     C79509   9.705   8.103   7.861  0.1544  0.2417 -1.0857
  577MOL0     C79510   9.812   8.097   7.758  0.7003  0.2024  0.5245
  577MOL0     C79511   9.871   7.960   7.738  1.4532  0.5278  0.1071
  577MOL0     O79512   9.896   7.909   7.864 -0.1989 -0.0952 -0.5078
  577MOL0     C79513  10.008   7.830   7.897  0.2618  0.6635 -0.2272
  577MOL0     C79514  10.091   7.785   7.799  0.2598 -0.5218 -0.2035
  577MOL0     C79515  10.208   7.719   7.832  0.0404  0.1872  0.1151
  577MOL0     C79516  10.298   7.698   7.719  0.4517  0.0891  0.3885
  577MOL0     C79517  10.239   7.690   7.966  0.2657 -0.4012 -0.7665
  577MOL0     C79518  10.352   7.593   8.008 -0.0157 -0.6829 -0.6244
  577MOL0     O79519  10.366   7.496   7.919 -0.8979 -0.3295  0.4096
  577MOL0     C79520  10.461   7.396   7.944  0.1048 -0.7169  0.1580
  577MOL0     C79521  10.475   7.334   8.064  0.1900  0.5169 -0.0940
  577MOL0     C79522  10.574   7.237   8.090  0.6424 -0.6827 -0.6980
  577MOL0     C79523  10.646   7.188   7.981  0.0388 -0.2457  0.1237
  577MOL0     O79524  10.725   7.073   8.004 -0.4063  0.0912  0.7024
  577MOL0     C79525  10.809   7.027   7.900 -0.7892  0.5403  0.1658
  577MOL0     C79526  10.877   6.896   7.969  0.0273 -0.0627 -0.3758
  577MOL0     C79527  10.987   6.848   7.876 -0.1738 -0.9385 -0.6173
  577MOL0     C79528  11.078   6.740   7.946 -0.1905  0.0812 -0.3931
  577MOL0     C79529  11.210   6.713   7.871 -0.6991  1.0866 -0.0130
  577MOL0     C79530  11.304   6.614   7.954  0.2050 -1.2238  0.0023
  577MOL0     C79531  11.439   6.606   7.879 -0.0737 -0.1131 -0.0679
  577MOL0     C79532  11.523   6.737   7.880 -0.1940  1.3569 -0.3350
  577MOL0    Cl79533  11.537   6.816   8.048  0.5755 -0.0104  0.0905
  577MOL0     C79534  10.624   7.244   7.847 -0.1502  0.2930 -0.3953
  577MOL0     C79535  10.534   7.351   7.837 -0.2110 -1.1154  0.2313
  577MOL0     O79536  10.425   7.622   8.105  0.9223 -0.9812  0.2279
  577MOL0     C79537  10.154   7.733   8.067  0.6091  0.1408  0.7064
  577MOL0     C79538  10.042   7.805   8.031  0.3598 -0.4323  1.1642
  577MOL0     N79539   9.496   8.247   8.086  0.2554  0.4859 -0.3885
  577MOL0     N79540   9.406   8.200   8.155 -0.5808  0.0223 -0.2525
  577MOL0     C79541   8.359   7.584   8.390 -0.4875 -0.6548 -0.4644
  577MOL0     C79542   8.251   7.613   8.468 -0.4754  0.3880  0.4548
  577MOL0     C79543   7.842   7.755   8.603  1.1454 -1.3851  0.3283
  577MOL0     C79544   7.735   7.851   8.571 -0.3164 -0.0234  0.3498
  577MOL0     C79545   7.642   7.894   8.656  0.5497 -0.7022  0.0691
  577MOL0     C79546   7.648   7.841   8.786  0.0353 -0.1242  0.0854
  577MOL0     O79547   7.570   7.885   8.894  0.3002 -0.6545 -0.2738
  577MOL0     C79548   7.438   7.953   8.863 -0.6595 -1.0463  0.4197
  577MOL0     C79549   7.355   7.938   8.985  0.4636 -0.2477 -0.6361
  577MOL0     C79550   7.402   8.005   9.114  0.8469  0.8060  0.2322
  577MOL0     C79551   7.417   8.159   9.098  0.4881  1.0676 -0.7823
  577MOL0     C79552   7.557   8.215   9.118  0.3899 -0.3303 -0.8502
  577MOL0     C79553   7.664   8.260   9.170 -0.5294 -0.5849 -0.2430
  577MOL0     C79554   7.754   7.755   8.823 -0.3354  0.1104 -0.5671
  577MOL0     C79555   7.846   7.707   8.736 -0.7423  0.0981  0.3227
  577MOL0     C79556   7.946   7.602   8.786 -0.0316  0.7741  0.1965
  577MOL0     H79557   8.004   7.483   8.262 -0.7423 -2.1961  0.6176
  577MOL0     H79558   8.217   7.434   8.121 -3.1990 -1.5092  1.1010
  577MOL0     H79559   8.605   7.651   8.270  2.3096 -2.6458 -0.5010
  577MOL0     H79560   8.493   7.716   8.165  3.0976  1.5098 -0.3296
  577MOL0     H79561   8.694   7.498   8.077  0.4884 -0.4341  2.6444
  577MOL0     H79562   8.612   7.599   7.953 -2.3875 -0.8242  0.8655
  577MOL0     H79563   8.843   7.675   8.136 -1.2316  0.7638 -0.6467
  577MOL0     H79564   8.837   7.647   7.964  0.6973 -0.9391 -0.1529
  577MOL0     H79565   8.705   7.868   7.956  0.8818 -0.9039 -1.3240
  577MOL0     H79566   8.732   7.872   8.131 -1.7712  0.0822 -1.0225
  577MOL0     H79567   8.872   8.010   8.006 -0.6292  0.2266  3.2267
  577MOL0     H79568   8.939   7.879   7.907 -1.0673  0.1242 -0.5961
  577MOL0     H79569   8.992   7.905   8.211  3.1131 -3.7866  2.2255
  577MOL0     H79570   9.053   7.785   8.096 -1.2003 -0.2697 -3.6710
  577MOL0     H79571   9.068   8.086   8.054 -3.4325 -1.6117 -2.3186
  577MOL0     H79572   9.141   7.963   7.961 -3.8422 -4.5938  0.3132
  577MOL0     H79573   9.217   8.026   8.246 -0.2753 -1.4052 -0.0778
  577MOL0     H79574   9.295   7.897   8.159 -2.2075 -1.0397  0.2215
  577MOL0     H79575   9.394   8.006   7.894  4.3496 -0.2493 -0.3243
  577MOL0     H79576   9.624   8.302   7.825 -1.4274  1.0714  0.2746
  577MOL0     H79577   9.541   8.169   7.750  1.2308  1.4179 -0.7272
  577MOL0     H79578   9.753   8.122   7.957 -1.4765  0.8239 -0.3635
  577MOL0     H79579   9.664   8.003   7.871 -1.9850  1.2347  0.9835
  577MOL0     H79580   9.788   8.134   7.657  2.2732 -2.7280 -1.0670
  577MOL0     H79581   9.898   8.154   7.796  1.2234  0.3415 -0.7968
  577MOL0     H79582   9.809   7.884   7.690  0.4318 -0.7028  3.1345
  577MOL0     H79583   9.964   7.971   7.682  0.0930  0.9302 -2.2342
  577MOL0     H79584  10.085   7.811   7.693  3.3112 -0.9349 -0.5807
  577MOL0     H79585  10.248   7.632   7.647 -1.0934  0.5804  0.9837
  577MOL0     H79586  10.397   7.658   7.746  0.5484 -0.0399 -0.1439
  577MOL0     H79587  10.307   7.788   7.658  1.1044  0.6771  1.3238
  577MOL0     H79588  10.410   7.366   8.145 -0.2511  0.0440 -0.2525
  577MOL0     H79589  10.598   7.187   8.183  0.4168 -2.2651 -1.4695
  577MOL0     H79590  10.748   6.998   7.814 -1.0009 -1.7805  1.0222
  577MOL0     H79591  10.881   7.103   7.872 -0.4798  0.1791 -0.0220
  577MOL0     H79592  10.917   6.939   8.061  1.6689 -2.4521  0.1237
  577MOL0     H79593  10.796   6.824   7.989 -0.7135  0.4974 -1.2763
  577MOL0     H79594  11.051   6.935   7.859  1.8859 -1.5654  3.0114
  577MOL0     H79595  10.948   6.822   7.777  2.0857 -0.5713 -1.6707
  577MOL0     H79596  11.020   6.648   7.943 -1.5658  0.8869  0.5038
  577MOL0     H79597  11.102   6.771   8.048  0.9469  1.1359 -0.9491
  577MOL0     H79598  11.193   6.663   7.775  1.6214 -1.0786  0.6084
  577MOL0     H79599  11.266   6.803   7.844 -0.2545 -0.0123 -3.1890
  577MOL0     H79600  11.260   6.515   7.943 -1.8078 -0.5192  1.2315
  577MOL0     H79601  11.310   6.638   8.061  1.3372  0.6641 -0.4503
  577MOL0     H79602  11.425   6.574   7.775 -0.3275  0.9835 -0.3935
  577MOL0     H79603  11.499   6.525   7.920 -2.1869 -1.3862  0.6216
  577MOL0     H79604  11.479   6.805   7.807  0.1804  1.9049 -0.0521
  577MOL0     H79605  11.629   6.717   7.859  0.6359  0.1745  4.0008
  577MOL0     H79606  10.691   7.223   7.765 -1.1111 -0.9063 -0.9068
  577MOL0     H79607  10.504   7.391   7.741  0.1889  2.7112  1.5396
  577MOL0     H79608  10.175   7.709   8.171 -1.0252 -0.9459  0.8187
  577MOL0     H79609   9.970   7.837   8.106  0.6740 -0.2131  1.3745
  577MOL0     H79610   8.459   7.609   8.424 -1.1884 -1.5668  2.5508
  577MOL0     H79611   8.269   7.663   8.562  1.6497 -1.3725  1.0545
  577MOL0     H79612   7.756   7.883   8.469  3.1691 -2.6210  0.0543
  577MOL0     H79613   7.567   7.966   8.626 -0.0458 -1.8897 -1.4266
  577MOL0     H79614   7.461   8.057   8.835 -1.0695 -0.9534  0.4270
  577MOL0     H79615   7.394   7.914   8.771  1.1606 -1.3318 -0.3853
  577MOL0     H79616   7.342   7.829   8.981  0.7642 -0.3119  0.0218
  577MOL0     H79617   7.260   7.978   8.949 -0.7050 -0.7481  1.6485
  577MOL0     H79618   7.327   7.990   9.192 -0.6416  2.5431 -0.7763
  577MOL0     H79619   7.496   7.954   9.139  0.2385 -0.5733 -0.1896
  577MOL0     H79620   7.350   8.209   9.168 -0.7938 -0.4173 -0.8991
  577MOL0     H79621   7.378   8.202   9.005  1.2223 -1.5146 -2.3862
  577MOL0     H79622   7.750   8.300   9.220 -0.9912  2.0612 -1.4165
  577MOL0     H79623   7.767   7.734   8.928 -2.2628 -0.7896 -0.4651
  577MOL0     H79624   7.943   7.504   8.736  1.0499  0.7228  0.2234
  577MOL0     H79625   8.044   7.647   8.799  0.5544 -0.5598  0.6448
  577MOL0     H79626   7.913   7.575   8.887 -0.0114 -4.6181 -0.8932
  578MOL0     O79627   7.786   1.847   1.526  0.0594  0.4037 -0.9423
  578MOL0     C79628   7.767   1.761   1.615  0.2974 -0.2919  0.2282
  578MOL0     O79629   7.835   1.636   1.612  0.4873  0.1176  0.5166
  578MOL0     C79630   7.852   1.566   1.500 -0.9464  0.1222  0.5237
  578MOL0     C79631   7.969   1.495   1.480 -0.7983 -0.8632 -0.3048
  578MOL0     C79632   7.992   1.427   1.360  0.6842  0.0709  0.3080
  578MOL0     C79633   7.889   1.412   1.271  0.4586 -0.5777 -0.2143
  578MOL0     O79634   7.922   1.356   1.148  0.1167 -0.2452  0.4080
  578MOL0     C79635   7.832   1.313   1.053  0.2690  0.1287  0.1357
  578MOL0     C79636   7.887   1.203   0.963 -0.0392 -0.1645  0.8182
  578MOL0     C79637   8.002   1.126   1.029  1.2358  0.7293 -0.2241
  578MOL0     C79638   8.074   1.038   0.919  0.6627 -0.2209 -0.6390
  578MOL0     C79639   8.187   0.955   0.973 -0.0104  0.5216  0.5448
  578MOL0     C79640   8.257   0.878   0.862  0.4212  0.2000 -0.0086
  578MOL0     C79641   8.187   0.741   0.826  0.0680 -0.7324 -0.7659
  578MOL0     C79642   8.284   0.665   0.748  0.2667  0.6419  0.0202
  578MOL0     N79643   8.287   0.719   0.610  0.4007 -0.0967 -0.0697
  578MOL0     C79644   8.388   0.800   0.562 -0.4263  1.3198 -0.1580
  578MOL0     C79645   8.369   0.810   0.432 -0.2450  0.3657 -0.4454
  578MOL0     C79646   8.449   0.895   0.343 -0.2577  0.6678  0.7627
  578MOL0     C79647   8.373   0.922   0.202  0.0492  0.1822 -0.1250
  578MOL0     C79648   8.413   0.807   0.096 -0.2604 -0.4590 -0.2224
  578MOL0     C79649   8.373   0.850  -0.044 -0.4079  1.7562 -0.2397
  578MOL0     O79650   8.235   0.883  -0.047 -0.0604 -0.3971 -0.8163
  578MOL0     C79651   8.173   0.880  -0.173  0.0897 -0.0290 -0.0615
  578MOL0     C79652   8.045   0.824  -0.174  0.0660  0.4105 -0.8333
  578MOL0     C79653   7.967   0.804  -0.284 -0.2309 -0.2575 -0.1736
  578MOL0     C79654   7.832   0.739  -0.268  0.0711 -0.3799  0.2268
  578MOL0     C79655   8.023   0.839  -0.408 -0.0103  0.1296  0.6326
  578MOL0     C79656   7.954   0.822  -0.543  0.8830  0.9719 -0.6601
  578MOL0     O79657   8.024   0.868  -0.651  0.3328 -0.6319  0.2035
  578MOL0     C79658   7.962   0.877  -0.774  0.6488 -0.5204  0.2892
  578MOL0     C79659   7.848   0.961  -0.794 -1.0231 -0.8989  0.4215
  578MOL0     C79660   7.805   0.990  -0.921  0.2818 -0.0382 -0.4744
  578MOL0     C79661   7.860   0.938  -1.040  0.9169 -0.1183  0.3750
  578MOL0     O79662   7.806   0.950  -1.170 -0.2987  0.3855  0.1329
  578MOL0     C79663   7.721   1.064  -1.182  0.9476  0.0029 -0.1023
  578MOL0     C79664   7.702   1.095  -1.331 -0.2340  0.2060 -0.5142
  578MOL0     C79665   7.588   1.200  -1.357  0.6417 -0.2601  0.9095
  578MOL0     C79666   7.582   1.210  -1.514  0.7547  0.4888  0.4221
  578MOL0     C79667   7.456   1.165  -1.578  0.1231 -0.6897 -0.8500
  578MOL0     C79668   7.334   1.248  -1.520 -0.8607  0.0540 -0.0434
  578MOL0     C79669   7.215   1.243  -1.621  0.7374  0.1415  0.9265
  578MOL0     C79670   7.088   1.292  -1.550  0.2021 -0.1098 -0.2741
  578MOL0    Cl79671   7.099   1.480  -1.555  0.7278 -0.1093 -0.1141
  578MOL0     C79672   7.960   0.847  -1.019 -0.2745 -0.0767  0.4021
  578MOL0     C79673   8.013   0.819  -0.892 -0.6622 -0.5874  0.4976
  578MOL0     O79674   7.837   0.785  -0.549  0.8689  0.1026  0.5965
  578MOL0     C79675   8.153   0.899  -0.410  0.7413  1.1182  0.1283
  578MOL0     C79676   8.222   0.924  -0.289 -0.2524  0.4873  0.1789
  578MOL0     N79677   8.260   0.731   0.398 -0.0199 -0.4896 -0.3155
  578MOL0     N79678   8.208   0.681   0.501  0.2643 -0.2815  0.6342
  578MOL0     C79679   7.762   1.468   1.303  0.3493  0.2973  0.4455
  578MOL0     C79680   7.744   1.536   1.419  0.3160  0.5118 -0.7302
  578MOL0     C79681   7.657   1.785   1.709  0.1070  0.7299  0.0270
  578MOL0     C79682   7.575   1.678   1.735 -0.1197  0.4805 -0.3119
  578MOL0     C79683   7.477   1.697   1.825  0.8303  0.7676 -0.2742
  578MOL0     C79684   7.465   1.809   1.902 -0.2523 -0.2464  0.2966
  578MOL0     O79685   7.379   1.804   2.011  0.9152  0.0814 -0.1522
  578MOL0     C79686   7.362   1.914   2.105  0.4830  0.8188  0.9135
  578MOL0     C79687   7.282   1.866   2.232  0.0533  0.2997 -0.3666
  578MOL0     C79688   7.134   1.852   2.199  0.8128  0.1581 -0.6989
  578MOL0     C79689   7.041   1.829   2.320  0.5379 -0.8057  0.7373
  578MOL0     C79690   6.910   1.788   2.273 -0.0538  0.7153  0.0335
  578MOL0     C79691   6.794   1.760   2.265 -0.5585  0.5200 -0.1725
  578MOL0     C79692   7.555   1.910   1.889  0.0087 -0.1112 -0.0025
  578MOL0     C79693   7.644   1.906   1.784 -0.2129  0.4303 -0.2666
  578MOL0     C79694   7.746   2.009   1.777 -0.0663  0.3283  0.0490
  578MOL0     H79695   8.053   1.499   1.550 -1.6288  0.4760  0.6464
  578MOL0     H79696   8.086   1.374   1.346 -0.3949 -1.4164 -1.9386
  578MOL0     H79697   7.802   1.403   0.999 -2.8059  0.1985  1.7292
  578MOL0     H79698   7.735   1.277   1.091 -0.3136  1.4112 -0.0891
  578MOL0     H79699   7.805   1.138   0.931 -1.8989  2.9224 -1.1580
  578MOL0     H79700   7.927   1.246   0.871  1.6196  1.9202  2.3897
  578MOL0     H79701   8.074   1.195   1.073  2.1228 -0.5747  0.4246
  578MOL0     H79702   7.970   1.066   1.115  1.8026  0.6551 -0.0651
  578MOL0     H79703   7.992   0.972   0.889  1.5649 -1.9553  0.5904
  578MOL0     H79704   8.112   1.093   0.833 -1.2132  0.7427 -0.9087
  578MOL0     H79705   8.147   0.886   1.049  0.8840 -1.6381 -0.8493
  578MOL0     H79706   8.259   1.023   1.020 -0.9183  1.5023  0.5596
  578MOL0     H79707   8.254   0.933   0.767 -1.4800 -2.4135 -1.5995
  578MOL0     H79708   8.356   0.866   0.906 -0.4229  1.8199  2.5173
  578MOL0     H79709   8.090   0.765   0.780 -0.0578  0.3069  0.0067
  578MOL0     H79710   8.175   0.673   0.910  0.9223  0.2352  0.1705
  578MOL0     H79711   8.384   0.653   0.793 -1.1562 -1.3508  2.9579
  578MOL0     H79712   8.256   0.560   0.746  1.2685  0.3777 -0.9533
  578MOL0     H79713   8.461   0.851   0.625 -0.2840 -0.5113  1.2666
  578MOL0     H79714   8.546   0.851   0.315 -1.8901 -1.3479 -2.2828
  578MOL0     H79715   8.469   0.989   0.395  1.2733 -0.0269  1.5191
  578MOL0     H79716   8.267   0.940   0.221  0.3488  0.2562  1.6811
  578MOL0     H79717   8.403   1.014   0.150  2.6213 -1.8821 -2.5638
  578MOL0     H79718   8.520   0.790   0.083  0.1215  1.5814 -0.0733
  578MOL0     H79719   8.373   0.709   0.125  3.4611 -2.6018 -1.6986
  578MOL0     H79720   8.437   0.927  -0.088  1.8520 -0.8628 -1.8647
  578MOL0     H79721   8.386   0.766  -0.113  0.5397  1.1025  0.6937
  578MOL0     H79722   8.012   0.772  -0.085  3.1430 -0.8144 -0.2981
  578MOL0     H79723   7.794   0.732  -0.166  1.7253  0.0389  0.9007
  578MOL0     H79724   7.838   0.636  -0.305  0.5903  0.0027 -0.7829
  578MOL0     H79725   7.761   0.797  -0.328 -1.3533 -1.3048  0.9528
  578MOL0     H79726   7.818   1.011  -0.703 -0.5074  0.4165 -0.0989
  578MOL0     H79727   7.726   1.065  -0.917  1.1882  0.9050  1.0257
  578MOL0     H79728   7.631   1.034  -1.127  2.3090 -0.3461  2.0686
  578MOL0     H79729   7.745   1.155  -1.126 -1.2480  0.0967  0.7818
  578MOL0     H79730   7.797   1.139  -1.361 -0.3096  1.2390  0.6916
  578MOL0     H79731   7.678   1.001  -1.382  0.9415 -0.4475  0.1035
  578MOL0     H79732   7.610   1.304  -1.329  3.3413 -0.6221  0.4093
  578MOL0     H79733   7.496   1.166  -1.308  1.3600 -1.5374  1.4066
  578MOL0     H79734   7.665   1.151  -1.553 -0.6418 -0.9047 -0.5591
  578MOL0     H79735   7.608   1.309  -1.555  1.4291  0.4217  0.6721
  578MOL0     H79736   7.459   1.173  -1.687  4.5568  2.1616 -0.7549
  578MOL0     H79737   7.438   1.059  -1.555  0.9272 -0.3321  1.7617
  578MOL0     H79738   7.364   1.353  -1.512 -1.6899  0.3428 -0.6760
  578MOL0     H79739   7.300   1.202  -1.427 -0.1808 -1.9795 -0.7424
  578MOL0     H79740   7.196   1.139  -1.650  0.8484  0.2833  0.3275
  578MOL0     H79741   7.244   1.298  -1.711  3.1315  1.1048  2.1761
  578MOL0     H79742   7.081   1.273  -1.443  0.5343 -1.4702 -0.4821
  578MOL0     H79743   7.000   1.258  -1.604  1.0523  1.3371 -2.7650
  578MOL0     H79744   8.008   0.808  -1.109 -0.8537  0.5649 -0.2026
  578MOL0     H79745   8.102   0.756  -0.886  0.3910  0.9361  2.0840
  578MOL0     H79746   8.200   0.946  -0.496 -0.9629  2.3293 -0.1967
  578MOL0     H79747   8.323   0.963  -0.294 -0.4000  0.8862  0.2581
  578MOL0     H79748   7.684   1.449   1.230  1.6766  1.1333 -1.2902
  578MOL0     H79749   7.642   1.558   1.449  0.1586 -2.6457  1.5090
  578MOL0     H79750   7.589   1.583   1.683  0.0416  2.2006 -3.6584
  578MOL0     H79751   7.425   1.605   1.853  6.3213 -2.2174  1.7891
  578MOL0     H79752   7.459   1.957   2.132  0.0143  1.5068  1.5054
  578MOL0     H79753   7.307   1.990   2.050  0.6335  0.6764  0.5610
  578MOL0     H79754   7.269   1.953   2.297 -2.2859  0.6412 -1.1973
  578MOL0     H79755   7.319   1.776   2.281  1.6621  1.1980  0.1468
  578MOL0     H79756   7.107   1.948   2.155 -0.4055  0.7004  1.1330
  578MOL0     H79757   7.115   1.769   2.130 -1.2021 -2.0083  2.1721
  578MOL0     H79758   7.039   1.921   2.379  0.6544 -0.7941  0.7247
  578MOL0     H79759   7.093   1.751   2.377  0.1346 -1.4967  0.1729
  578MOL0     H79760   6.693   1.725   2.255  0.0422 -0.7699 -2.5370
  578MOL0     H79761   7.546   2.002   1.946 -0.4634 -1.4165  2.1280
  578MOL0     H79762   7.845   1.978   1.811  0.0265 -0.3876 -0.8442
  578MOL0     H79763   7.760   2.057   1.680 -1.5216 -1.4382 -1.1172
  578MOL0     H79764   7.720   2.083   1.853 -0.6320 -0.7147  0.9069
  579MOL0     O79765   5.567   6.312   7.803 -0.8217  0.6205 -0.2265
  579MOL0     C79766   5.565   6.263   7.915  0.0088  0.2444  1.0676
  579MOL0     O79767   5.458   6.266   8.000 -0.3315  0.0648  1.0959
  579MOL0     C79768   5.335   6.334   7.980  0.6790 -0.8998 -1.1117
  579MOL0     C79769   5.303   6.414   7.869  0.7327 -0.3710 -0.3060
  579MOL0     C79770   5.184   6.487   7.874 -0.2717 -0.7502  0.6037
  579MOL0     C79771   5.110   6.497   7.992 -0.0889  0.1985 -0.2381
  579MOL0     O79772   5.007   6.589   8.007 -0.2562 -1.0501  0.2775
  579MOL0     C79773   4.940   6.645   7.891  0.2725 -0.2455  1.1789
  579MOL0     C79774   4.827   6.733   7.932  0.1819 -1.1044 -0.4021
  579MOL0     C79775   4.684   6.668   7.932  0.5342  0.3540  0.2590
  579MOL0     C79776   4.640   6.615   7.791 -0.6547  0.2601  0.8961
  579MOL0     C79777   4.494   6.585   7.799 -0.1813  1.2209  0.0244
  579MOL0     C79778   4.427   6.597   7.662 -0.0292 -0.3940  0.6899
  579MOL0     C79779   4.277   6.576   7.661  0.6427 -0.2216  0.2000
  579MOL0     C79780   4.213   6.446   7.714 -0.3481 -0.1256  0.1475
  579MOL0     N79781   4.284   6.331   7.649 -1.0955  0.5062 -0.3598
  579MOL0     C79782   4.394   6.255   7.696 -0.5021 -0.5076 -0.0501
  579MOL0     C79783   4.401   6.138   7.620 -0.3205 -0.2785  0.9805
  579MOL0     C79784   4.500   6.020   7.646  0.4395 -0.4478  0.0744
  579MOL0     C79785   4.436   5.914   7.737 -0.2321  0.2906 -0.3858
  579MOL0     C79786   4.542   5.825   7.791  0.1611  0.2448 -1.4048
  579MOL0     C79787   4.495   5.707   7.879  0.1608  0.2359 -0.7887
  579MOL0     O79788   4.611   5.646   7.928 -0.2131  0.2628  0.3916
  579MOL0     C79789   4.617   5.543   8.018  0.0979 -0.1193 -0.4072
  579MOL0     C79790   4.743   5.502   8.065 -1.5360 -0.2595  0.9497
  579MOL0     C79791   4.760   5.412   8.163  0.7559  1.3929 -0.2778
  579MOL0     C79792   4.891   5.341   8.174  0.0900  0.1723  0.4647
  579MOL0     C79793   4.644   5.359   8.230  0.3774 -0.1824  0.9082
  579MOL0     C79794   4.644   5.264   8.342  0.1366  0.4185  0.3545
  579MOL0     O79795   4.759   5.195   8.372 -0.0585  0.1210  0.4366
  579MOL0     C79796   4.749   5.092   8.467  0.7723  0.3405  0.1920
  579MOL0     C79797   4.795   4.969   8.430 -0.9675 -0.1434 -0.0650
  579MOL0     C79798   4.790   4.863   8.527  0.1646 -0.4982  0.3687
  579MOL0     C79799   4.747   4.883   8.661 -0.7236 -0.6937  0.8434
  579MOL0     O79800   4.751   4.779   8.741 -0.1005  0.7241 -0.6887
  579MOL0     C79801   4.634   4.746   8.814 -0.1369  0.1470  0.6422
  579MOL0     C79802   4.654   4.629   8.914  0.8187 -0.2584  0.9753
  579MOL0     C79803   4.742   4.676   9.032  0.5386 -0.2194 -0.3669
  579MOL0     C79804   4.802   4.573   9.125  0.6451 -0.3877  0.7648
  579MOL0     C79805   4.886   4.463   9.048  0.3111  0.3717 -0.4033
  579MOL0     C79806   4.955   4.360   9.146 -0.0316 -0.4027  0.2039
  579MOL0     C79807   5.045   4.433   9.250  0.7032 -0.5718  0.0332
  579MOL0     C79808   5.144   4.341   9.322 -0.3301 -0.2961 -0.4655
  579MOL0    Cl79809   5.069   4.193   9.391  0.2799 -0.2633 -0.4413
  579MOL0     C79810   4.713   5.014   8.698 -0.6433 -0.3081 -0.0943
  579MOL0     C79811   4.706   5.111   8.595 -0.0016 -0.1320 -0.1198
  579MOL0     O79812   4.545   5.250   8.409  0.6102  0.2971  0.4820
  579MOL0     C79813   4.513   5.409   8.184  0.6172 -1.2583 -0.7948
  579MOL0     C79814   4.502   5.490   8.076  0.2585 -0.3218 -0.0989
  579MOL0     N79815   4.282   6.147   7.545 -0.3700 -0.6222 -0.3625
  579MOL0     N79816   4.222   6.257   7.558 -0.1918  0.0799 -0.3022
  579MOL0     C79817   5.154   6.429   8.103 -0.4560 -0.6464  0.5746
  579MOL0     C79818   5.264   6.354   8.093 -0.0668  0.1041  0.0885
  579MOL0     C79819   5.680   6.177   7.947  0.1322 -0.0720 -0.4812
  579MOL0     C79820   5.666   6.115   8.078 -0.1003 -0.2831  0.2671
  579MOL0     C79821   5.762   6.028   8.131 -0.2222 -0.1567 -0.3788
  579MOL0     C79822   5.879   6.002   8.058 -0.6566  0.2228 -0.5302
  579MOL0     O79823   5.953   5.894   8.113 -0.0471 -0.1597 -0.6544
  579MOL0     C79824   6.094   5.895   8.054  0.6178  0.8267 -0.8584
  579MOL0     C79825   6.187   5.816   8.146  0.1696 -0.3979  0.9492
  579MOL0     C79826   6.333   5.849   8.123 -0.5112 -1.0096 -0.4606
  579MOL0     C79827   6.401   5.837   8.262 -0.3492  0.2289 -0.4258
  579MOL0     C79828   6.415   5.700   8.309  1.1660 -0.1297 -0.4342
  579MOL0     C79829   6.431   5.594   8.368  0.1311 -0.8578 -0.4687
  579MOL0     C79830   5.896   6.061   7.933 -0.5695 -0.1891  0.8968
  579MOL0     C79831   5.809   6.152   7.879  1.1732 -0.8085  0.6776
  579MOL0     C79832   5.838   6.218   7.746  0.2610 -0.6541  0.2707
  579MOL0     H79833   5.366   6.409   7.781  1.1976  2.2978 -0.1951
  579MOL0     H79834   5.143   6.532   7.785 -0.2179 -0.2193  0.8423
  579MOL0     H79835   4.915   6.571   7.814 -0.1561  2.5872 -1.6068
  579MOL0     H79836   5.009   6.716   7.844  0.3472  1.3589  3.5707
  579MOL0     H79837   4.844   6.768   8.034  0.4862  1.9148 -1.3822
  579MOL0     H79838   4.834   6.824   7.870  2.9581 -0.6320  0.4803
  579MOL0     H79839   4.678   6.591   8.009 -1.0742 -0.9862 -1.1360
  579MOL0     H79840   4.612   6.749   7.949  2.3762  2.3985 -1.1169
  579MOL0     H79841   4.665   6.694   7.720  2.0400 -1.7897 -0.6288
  579MOL0     H79842   4.695   6.525   7.762  0.9888  1.9703 -1.7298
  579MOL0     H79843   4.441   6.651   7.867 -1.7319 -0.9119  0.9818
  579MOL0     H79844   4.483   6.482   7.833  1.2690  0.7659 -0.7484
  579MOL0     H79845   4.451   6.696   7.621  0.5816 -0.8706 -0.1315
  579MOL0     H79846   4.475   6.524   7.596 -0.5444  0.2388 -0.4078
  579MOL0     H79847   4.244   6.592   7.558 -1.0838 -2.3473  0.3649
  579MOL0     H79848   4.235   6.665   7.708  2.9935  2.0034 -1.6182
  579MOL0     H79849   4.232   6.435   7.821 -0.4417  0.8840  0.2821
  579MOL0     H79850   4.110   6.431   7.679 -1.0626  0.8200  1.7236
  579MOL0     H79851   4.448   6.283   7.786  0.4622 -0.5746 -0.5991
  579MOL0     H79852   4.584   6.059   7.703  0.1331 -0.8860  0.8402
  579MOL0     H79853   4.543   5.972   7.558 -0.4128  0.4615 -0.8680
  579MOL0     H79854   4.397   5.955   7.831  0.0680 -1.0195  0.3388
  579MOL0     H79855   4.362   5.845   7.696  2.0422 -3.0418  0.6707
  579MOL0     H79856   4.598   5.791   7.702 -0.2670  1.4278 -2.1481
  579MOL0     H79857   4.619   5.885   7.840  1.6882  0.6366 -4.0482
  579MOL0     H79858   4.433   5.741   7.962 -0.1458 -0.5545 -0.6836
  579MOL0     H79859   4.437   5.631   7.826  0.6651  0.8897 -2.3602
  579MOL0     H79860   4.825   5.539   8.005  0.1427  0.2089  3.3516
  579MOL0     H79861   4.888   5.245   8.122 -0.4388 -0.6769  2.0109
  579MOL0     H79862   4.926   5.320   8.275  0.5800 -0.8084  0.1019
  579MOL0     H79863   4.970   5.406   8.134 -1.6987  2.0365 -0.2352
  579MOL0     H79864   4.826   4.940   8.330  0.1065 -2.4736  0.8562
  579MOL0     H79865   4.821   4.767   8.487  0.6716  0.0842 -0.6898
  579MOL0     H79866   4.582   4.827   8.866 -3.1378 -0.8329 -0.5871
  579MOL0     H79867   4.565   4.715   8.734  0.1511  0.0686  0.4203
  579MOL0     H79868   4.554   4.607   8.953  0.3655  2.3424  1.4412
  579MOL0     H79869   4.695   4.545   8.857 -1.4342 -1.5892  1.1642
  579MOL0     H79870   4.679   4.726   9.106  0.1883  1.6791 -1.8624
  579MOL0     H79871   4.811   4.750   8.990  2.1450  0.2010  2.7365
  579MOL0     H79872   4.716   4.515   9.162 -2.2115  0.1240 -4.1496
  579MOL0     H79873   4.860   4.620   9.204  1.2031 -2.1841  1.4783
  579MOL0     H79874   4.836   4.405   8.970  1.0862  1.1927 -1.5574
  579MOL0     H79875   4.964   4.508   8.985  0.4895 -1.0812 -1.2708
  579MOL0     H79876   5.015   4.303   9.074  0.0292  1.5032 -1.3105
  579MOL0     H79877   4.890   4.282   9.188 -0.1283 -1.4259 -1.7016
  579MOL0     H79878   4.983   4.494   9.316 -0.1427 -1.8371  0.4461
  579MOL0     H79879   5.108   4.508   9.201 -0.7912  1.4960  1.1407
  579MOL0     H79880   5.188   4.399   9.403  0.9693 -2.0615  0.1712
  579MOL0     H79881   5.216   4.312   9.245  0.1855  0.4458 -0.2767
  579MOL0     H79882   4.689   5.034   8.802 -0.7657 -0.1922 -0.1454
  579MOL0     H79883   4.671   5.210   8.623 -1.1613 -0.3008 -0.8823
  579MOL0     H79884   4.418   5.381   8.228  0.2712 -0.3072 -0.9056
  579MOL0     H79885   4.400   5.518   8.054  0.5542 -0.9069 -2.5104
  579MOL0     H79886   5.095   6.439   8.194 -0.5935  1.5019  0.3047
  579MOL0     H79887   5.294   6.285   8.172  0.2955 -0.8909 -0.8888
  579MOL0     H79888   5.571   6.108   8.130 -0.2738  3.1274  0.6465
  579MOL0     H79889   5.742   5.979   8.226  0.2572 -0.6605 -0.5373
  579MOL0     H79890   6.094   5.845   7.957 -1.0991 -0.7189 -0.1292
  579MOL0     H79891   6.132   5.996   8.041 -1.0986  1.6301  0.0445
  579MOL0     H79892   6.166   5.708   8.140  1.6351 -0.6343 -0.7415
  579MOL0     H79893   6.159   5.856   8.243 -4.9399 -1.0059  0.0109
  579MOL0     H79894   6.388   5.801   8.042  0.6969 -0.5009  0.0421
  579MOL0     H79895   6.336   5.958   8.107  1.7936 -0.7361  1.2760
  579MOL0     H79896   6.345   5.884   8.344  0.8959 -2.1722  1.9406
  579MOL0     H79897   6.504   5.873   8.254 -1.5230  3.8118 -1.2820
  579MOL0     H79898   6.456   5.501   8.414 -1.5566  0.5540  3.7052
  579MOL0     H79899   5.980   6.031   7.871 -1.3876 -2.5736  0.8390
  579MOL0     H79900   5.800   6.320   7.739  0.0687 -0.4256  3.2713
  579MOL0     H79901   5.946   6.229   7.739  0.1135 -0.2197 -2.1707
  579MOL0     H79902   5.808   6.169   7.653  1.4786  3.4061 -2.5492
  580MOL0     O79903   6.188   4.158  10.042  0.0521 -1.0015 -0.4404
  580MOL0     C79904   6.086   4.189  10.105 -0.3093  0.1219  0.1866
  580MOL0     O79905   6.010   4.309  10.082 -0.1172  0.1988 -0.0367
  580MOL0     C79906   6.000   4.361   9.953 -0.0905 -0.3848 -0.0654
  580MOL0     C79907   6.023   4.299   9.824  0.1233  0.2883  1.2214
  580MOL0     C79908   6.016   4.387   9.715 -0.2065 -0.1433  0.3000
  580MOL0     C79909   5.962   4.517   9.723 -0.9891  0.4751 -0.0978
  580MOL0     O79910   5.965   4.603   9.613  0.3032 -0.8518  0.3250
  580MOL0     C79911   5.961   4.558   9.484 -0.0582 -0.0506 -0.2513
  580MOL0     C79912   5.953   4.669   9.379 -0.7285 -1.3211  0.3385
  580MOL0     C79913   5.828   4.762   9.404  0.1475  0.8087  0.3072
  580MOL0     C79914   5.701   4.674   9.381  0.4181 -0.5152  0.3542
  580MOL0     C79915   5.575   4.762   9.367  0.2916  0.0819  0.9183
  580MOL0     C79916   5.448   4.683   9.303 -0.5193 -0.0913  0.3574
  580MOL0     C79917   5.318   4.773   9.294  0.6941  0.0743  1.0955
  580MOL0     C79918   5.254   4.814   9.437 -0.9820  1.6287  0.0463
  580MOL0     N79919   5.140   4.894   9.427  0.0031  0.7653  0.2803
  580MOL0     C79920   5.134   5.013   9.353 -0.1454 -0.0352  0.3356
  580MOL0     C79921   5.009   5.067   9.374 -0.1778  1.2807 -0.3160
  580MOL0     C79922   4.943   5.198   9.331 -0.4142 -0.6025 -0.1298
  580MOL0     C79923   4.793   5.201   9.287 -0.2911 -0.4909 -0.4008
  580MOL0     C79924   4.776   5.141   9.149 -0.7909  0.1068  0.1372
  580MOL0     C79925   4.634   5.076   9.113 -0.4541  0.4693 -1.1173
  580MOL0     O79926   4.536   5.175   9.109 -0.9557  0.4064 -0.4409
  580MOL0     C79927   4.475   5.212   9.223  0.7135 -0.6570  0.4835
  580MOL0     C79928   4.436   5.351   9.248 -0.5547 -0.0563 -0.2249
  580MOL0     C79929   4.361   5.388   9.357  1.4073 -0.3368  0.0566
  580MOL0     C79930   4.346   5.539   9.386 -0.3355  0.8802  0.4618
  580MOL0     C79931   4.310   5.290   9.440 -0.3297 -0.4024 -1.0558
  580MOL0     C79932   4.224   5.323   9.554 -0.1624 -0.9749 -0.4643
  580MOL0     O79933   4.276   5.416   9.644 -1.2004 -1.0455 -0.5271
  580MOL0     C79934   4.219   5.423   9.770  0.5190 -0.0416  0.1287
  580MOL0     C79935   4.186   5.543   9.833 -0.1640 -0.5616  0.7837
  580MOL0     C79936   4.158   5.556   9.975 -0.0339  0.4186 -0.0995
  580MOL0     C79937   4.156   5.442  10.058  0.1101  0.3311 -0.2960
  580MOL0     O79938   4.137   5.470  10.190  1.4300 -0.3467 -0.3248
  580MOL0     C79939   4.154   5.365  10.287 -0.3939  0.2039  0.0024
  580MOL0     C79940   4.078   5.407  10.420 -0.0361  0.0123  0.1662
  580MOL0     C79941   3.931   5.369  10.395  0.0959  0.3359 -0.6466
  580MOL0     C79942   3.844   5.409  10.504 -0.6197  0.4386 -0.3296
  580MOL0     C79943   3.691   5.370  10.479 -0.5199  0.7607  0.3990
  580MOL0     C79944   3.593   5.406  10.591  0.5924  0.2790  0.0371
  580MOL0     C79945   3.451   5.454  10.542 -0.6680 -0.2941  0.3856
  580MOL0     C79946   3.351   5.415  10.646  0.7584 -0.1246  0.0937
  580MOL0    Cl79947   3.180   5.465  10.602 -0.2271 -0.6148  0.0520
  580MOL0     C79948   4.176   5.318   9.993 -0.8171  0.0748  0.0366
  580MOL0     C79949   4.205   5.314   9.856 -0.0677 -0.4054 -0.9689
  580MOL0     O79950   4.102   5.298   9.545 -0.6912 -0.3848  0.2448
  580MOL0     C79951   4.332   5.158   9.419  0.3010 -0.5964  0.6718
  580MOL0     C79952   4.417   5.124   9.310  0.9279 -0.2877 -1.1827
  580MOL0     N79953   4.945   4.974   9.457 -0.6123  0.1280 -0.4863
  580MOL0     N79954   5.022   4.878   9.491 -0.4716  0.7018  0.7614
  580MOL0     C79955   5.926   4.567   9.840  0.4638  0.1106 -0.2998
  580MOL0     C79956   5.949   4.491   9.954  0.6035  0.8107 -0.0683
  580MOL0     C79957   6.046   4.102  10.220  0.0429  0.3268  0.1860
  580MOL0     C79958   5.932   4.127  10.294  0.9232 -1.1650 -0.6770
  580MOL0     C79959   5.909   4.060  10.423 -0.1388 -0.1695  0.5733
  580MOL0     C79960   5.989   3.961  10.464  0.7778 -0.9149  0.1544
  580MOL0     O79961   5.943   3.901  10.582 -1.2617  0.7016 -0.4526
  580MOL0     C79962   5.984   3.764  10.598 -0.2856  1.0789 -0.3442
  580MOL0     C79963   6.071   3.762  10.732 -0.1684  0.1625  0.3215
  580MOL0     C79964   6.219   3.802  10.706 -0.0435 -0.1955 -0.0666
  580MOL0     C79965   6.302   3.796  10.838 -0.1345  0.1972  0.7608
  580MOL0     C79966   6.234   3.846  10.958 -0.4399 -0.0836  1.1641
  580MOL0     C79967   6.183   3.858  11.063  0.0060 -0.5694 -0.3813
  580MOL0     C79968   6.106   3.938  10.387 -0.0995 -0.4079 -0.5922
  580MOL0     C79969   6.130   4.007  10.267 -0.7404 -0.6030 -0.3959
  580MOL0     C79970   6.261   3.953  10.206  0.5421  0.1508  0.2882
  580MOL0     H79971   6.053   4.195   9.833 -0.3664  0.1612  1.3763
  580MOL0     H79972   6.055   4.349   9.621 -1.4827 -1.3099  0.2066
  580MOL0     H79973   5.876   4.490   9.468 -0.7147  0.7025 -0.0191
  580MOL0     H79974   6.059   4.513   9.466  0.0539  0.2381 -0.3701
  580MOL0     H79975   6.033   4.744   9.385  0.5497 -2.6341  0.1867
  580MOL0     H79976   5.946   4.623   9.280 -4.5411 -0.3421 -0.0089
  580MOL0     H79977   5.818   4.818   9.498 -0.1688 -0.4147  1.0298
  580MOL0     H79978   5.853   4.836   9.328  1.0223 -0.9140 -1.1806
  580MOL0     H79979   5.718   4.608   9.295  2.1738  1.0119 -0.5241
  580MOL0     H79980   5.667   4.613   9.465 -2.7387  2.2492  1.2749
  580MOL0     H79981   5.594   4.849   9.303 -1.0781 -1.0733 -1.2002
  580MOL0     H79982   5.554   4.800   9.467  1.9864  0.4142  1.1834
  580MOL0     H79983   5.468   4.653   9.200  0.4765  1.1667  0.1689
  580MOL0     H79984   5.436   4.599   9.372 -0.0640 -0.9332 -0.5737
  580MOL0     H79985   5.248   4.704   9.246  0.6731 -0.1331  1.4281
  580MOL0     H79986   5.338   4.853   9.221 -1.4524 -0.5487 -0.2627
  580MOL0     H79987   5.252   4.722   9.497  1.4841 -0.3400 -2.6161
  580MOL0     H79988   5.338   4.869   9.481 -0.0467 -0.2078  0.6821
  580MOL0     H79989   5.206   5.051   9.281 -1.1556  0.7175 -0.2983
  580MOL0     H79990   4.996   5.235   9.243 -3.4016 -0.3986 -2.0050
  580MOL0     H79991   4.967   5.269   9.411  0.4520  1.2942 -1.9754
  580MOL0     H79992   4.735   5.138   9.353 -3.6454  2.4152 -0.2927
  580MOL0     H79993   4.748   5.301   9.290 -6.1980 -2.7368 -1.6421
  580MOL0     H79994   4.796   5.224   9.081 -2.0230 -0.5031 -1.0221
  580MOL0     H79995   4.843   5.055   9.143 -3.5430 -2.1963 -0.0882
  580MOL0     H79996   4.647   5.033   9.013  3.6127 -1.5597  0.0701
  580MOL0     H79997   4.612   4.990   9.177 -1.7345  2.3283  1.0844
  580MOL0     H79998   4.466   5.424   9.173 -0.2219  1.6575  1.5161
  580MOL0     H79999   4.398   5.563   9.479  1.2366 -1.5588  0.3056
  580MOL0     H80000   4.245   5.581   9.382  0.5626  3.1070 -2.9653
  580MOL0     H80001   4.398   5.599   9.310 -0.2669 -0.0918 -0.2811
  580MOL0     H80002   4.208   5.632   9.775  0.6052 -0.6828  0.8736
  580MOL0     H80003   4.138   5.647  10.030 -0.0537  1.5910 -1.9667
  580MOL0     H80004   4.118   5.266  10.257 -1.9617 -0.3739  3.2791
  580MOL0     H80005   4.258   5.352  10.319  0.1953  1.0565 -1.4858
  580MOL0     H80006   4.112   5.358  10.511 -1.8655 -1.3209  0.1960
  580MOL0     H80007   4.088   5.516  10.425  2.0484 -0.0374 -1.5816
  580MOL0     H80008   3.930   5.260  10.380 -0.3496  0.4818 -1.7885
  580MOL0     H80009   3.893   5.416  10.303  0.2798  1.0323 -0.3727
  580MOL0     H80010   3.840   5.518  10.514 -1.6513  0.3985 -0.1615
  580MOL0     H80011   3.872   5.372  10.603 -2.6753  1.9711  0.9212
  580MOL0     H80012   3.662   5.414  10.383  2.1366 -0.8686 -1.3008
  580MOL0     H80013   3.681   5.263  10.455 -0.2243  1.3347 -2.8217
  580MOL0     H80014   3.637   5.487  10.652  2.6290 -0.9133  0.2407
  580MOL0     H80015   3.589   5.321  10.660  0.3486 -1.3788 -1.9388
  580MOL0     H80016   3.416   5.410  10.449 -0.8997  3.2262 -1.3820
  580MOL0     H80017   3.454   5.562  10.523  0.7674 -0.4588 -0.4727
  580MOL0     H80018   3.379   5.443  10.748  0.1275 -0.2557  0.3057
  580MOL0     H80019   3.358   5.306  10.645  0.4801 -0.1570 -1.5381
  580MOL0     H80020   4.174   5.229  10.055  0.5269  0.8939  1.3319
  580MOL0     H80021   4.223   5.213   9.820  0.2439 -1.5183  2.0505
  580MOL0     H80022   4.281   5.096   9.491  0.3334  2.1704  3.2830
  580MOL0     H80023   4.425   5.018   9.285 -1.4065 -0.7063 -0.3355
  580MOL0     H80024   5.874   4.662   9.840  3.3771  1.8404  1.7174
  580MOL0     H80025   5.908   4.538  10.043 -0.4424 -1.2707  0.6237
  580MOL0     H80026   5.862   4.206  10.270  0.4387 -1.4146 -0.0903
  580MOL0     H80027   5.817   4.071  10.480 -0.1037  0.2967  0.5423
  580MOL0     H80028   5.897   3.699  10.606  1.2807 -1.1629 -0.4087
  580MOL0     H80029   6.030   3.711  10.514 -1.8338 -1.8989  0.5434
  580MOL0     H80030   6.053   3.660  10.769 -2.9880  1.0582  1.7122
  580MOL0     H80031   6.023   3.832  10.801 -2.2444  0.8508 -1.6717
  580MOL0     H80032   6.263   3.735  10.631  2.1654  0.2542  0.7471
  580MOL0     H80033   6.218   3.908  10.680 -0.0046 -0.0945  0.3384
  580MOL0     H80034   6.391   3.855  10.816 -1.2130  1.2655 -0.9357
  580MOL0     H80035   6.336   3.693  10.849  3.6443  1.1081 -0.8954
  580MOL0     H80036   6.131   3.868  11.156  1.6623  1.0862  0.4363
  580MOL0     H80037   6.172   3.861  10.423  2.6976  1.5287 -1.2749
  580MOL0     H80038   6.241   3.904  10.110 -0.9478  0.8418  0.2066
  580MOL0     H80039   6.324   4.038  10.178 -0.9943  0.5419 -2.3726
  580MOL0     H80040   6.313   3.881  10.269 -0.3891  0.9305  2.0002
  581MOL0     O80041   2.671   5.889   1.946 -0.2102 -0.5230 -0.2362
  581MOL0     C80042   2.609   5.983   1.906  0.0113  0.0640 -0.0253
  581MOL0     O80043   2.660   6.070   1.809  0.1183 -0.3329  0.3459
  581MOL0     C80044   2.748   6.021   1.712 -0.5127  0.2030 -0.1821
  581MOL0     C80045   2.829   6.118   1.647 -0.2264 -0.1155 -0.2372
  581MOL0     C80046   2.906   6.071   1.539 -0.2202  0.6632  0.3684
  581MOL0     C80047   2.901   5.936   1.494 -0.6135  0.5022 -0.0113
  581MOL0     O80048   2.992   5.910   1.405 -0.0558 -0.0416 -0.0063
  581MOL0     C80049   2.990   5.796   1.315 -0.1160 -0.4377 -0.3332
  581MOL0     C80050   2.863   5.772   1.237  0.2538 -0.1460 -0.6871
  581MOL0     C80051   2.829   5.873   1.131  0.3669 -0.9155  0.0478
  581MOL0     C80052   2.732   5.809   1.033  0.6994 -0.7643 -0.4171
  581MOL0     C80053   2.689   5.897   0.921  1.5164  0.3256 -0.0419
  581MOL0     C80054   2.790   5.933   0.815 -0.9788 -0.1927  0.1188
  581MOL0     C80055   2.714   6.009   0.708 -0.0465 -0.9072 -0.7441
  581MOL0     C80056   2.810   6.050   0.599 -0.0952  0.3520 -0.4608
  581MOL0     N80057   2.857   5.938   0.515  0.1685 -0.5167 -0.1487
  581MOL0     C80058   2.767   5.861   0.441  0.1230 -0.5775  0.1178
  581MOL0     C80059   2.834   5.766   0.372 -0.6222  0.3984  0.4235
  581MOL0     C80060   2.785   5.675   0.273 -0.6140  1.1290  0.2973
  581MOL0     C80061   2.768   5.534   0.328 -1.2602 -0.4120  0.8122
  581MOL0     C80062   2.631   5.523   0.394 -0.5432 -0.2797  0.4479
  581MOL0     C80063   2.621   5.558   0.544 -1.3995 -0.2850  1.4297
  581MOL0     O80064   2.499   5.522   0.611 -0.1644 -0.4604 -0.2851
  581MOL0     C80065   2.458   5.586   0.715  0.5796  0.2260 -0.3192
  581MOL0     C80066   2.342   5.665   0.696  0.2025  1.5883 -0.4645
  581MOL0     C80067   2.294   5.742   0.804  1.0132 -0.0112  0.8283
  581MOL0     C80068   2.179   5.833   0.771 -0.4473  0.5539 -0.9350
  581MOL0     C80069   2.351   5.727   0.934 -0.0529  0.4377  1.3474
  581MOL0     C80070   2.295   5.792   1.046  0.3443 -0.4986 -0.5286
  581MOL0     O80071   2.233   5.909   1.040  0.4237 -0.2423 -0.3353
  581MOL0     C80072   2.176   5.975   1.152  0.1168  0.4270 -0.4211
  581MOL0     C80073   2.080   6.067   1.113  0.0742 -0.0790  0.0942
  581MOL0     C80074   2.000   6.138   1.204 -0.8991 -0.3964  0.9656
  581MOL0     C80075   2.017   6.125   1.340 -0.2898 -0.3221 -0.0070
  581MOL0     O80076   1.934   6.199   1.425 -0.1836 -0.3970  0.2506
  581MOL0     C80077   1.799   6.145   1.442  0.5906  0.0051  0.1311
  581MOL0     C80078   1.791   6.031   1.547  0.1163 -0.6167  0.2790
  581MOL0     C80079   1.780   5.892   1.488 -0.1888 -0.7994  0.0458
  581MOL0     C80080   1.702   5.802   1.594 -0.4806  0.3601  0.5661
  581MOL0     C80081   1.580   5.760   1.523  0.1424  0.8159 -0.3436
  581MOL0     C80082   1.446   5.745   1.591  0.0655  0.2166  0.3034
  581MOL0     C80083   1.386   5.879   1.654  0.6408 -0.4461  0.5581
  581MOL0     C80084   1.234   5.892   1.664 -0.3571  0.1288 -0.5584
  581MOL0    Cl80085   1.163   5.882   1.495  0.2047  0.4371  0.2111
  581MOL0     C80086   2.108   6.029   1.385  0.2076 -0.9362  0.2347
  581MOL0     C80087   2.184   5.949   1.293  0.3501 -0.5816 -0.2485
  581MOL0     O80088   2.311   5.731   1.153  0.1092 -0.9782 -0.4177
  581MOL0     C80089   2.462   5.644   0.945 -0.4847 -0.1678 -0.2796
  581MOL0     C80090   2.524   5.577   0.833 -0.9536 -0.3567 -1.6193
  581MOL0     N80091   2.966   5.789   0.402 -0.1724  0.6898  0.8741
  581MOL0     N80092   2.982   5.884   0.477  0.4685 -0.3232 -0.9686
  581MOL0     C80093   2.821   5.846   1.565 -0.4268 -0.9845 -0.1820
  581MOL0     C80094   2.739   5.889   1.671 -0.9657  0.9974  1.7886
  581MOL0     C80095   2.499   6.032   1.980 -0.4825 -0.3448  1.2426
  581MOL0     C80096   2.515   6.072   2.109  0.1773 -0.6475 -0.8470
  581MOL0     C80097   2.402   6.136   2.175 -0.1087  0.5872 -0.1691
  581MOL0     C80098   2.289   6.167   2.097  0.0355  0.6715 -0.0074
  581MOL0     O80099   2.193   6.246   2.160  0.3079  0.9945 -0.7615
  581MOL0     C80100   2.055   6.220   2.129  0.0937  0.8590 -0.1397
  581MOL0     C80101   1.969   6.332   2.206 -0.4199 -0.4347 -0.1799
  581MOL0     C80102   1.943   6.280   2.346 -0.1344 -0.6759 -0.0930
  581MOL0     C80103   1.841   6.365   2.422  0.3879  0.0478 -0.6728
  581MOL0     C80104   1.802   6.305   2.548  1.0465 -0.9037 -0.2799
  581MOL0     C80105   1.767   6.240   2.642 -0.3051  0.0706 -0.6039
  581MOL0     C80106   2.280   6.131   1.962 -1.0438 -0.2440 -1.4058
  581MOL0     C80107   2.382   6.055   1.900  0.0797  1.3430 -0.2764
  581MOL0     C80108   2.361   6.029   1.748 -0.9222  0.4251 -0.4865
  581MOL0     H80109   2.821   6.220   1.682 -3.4038  0.4965 -2.3555
  581MOL0     H80110   2.959   6.152   1.489 -0.8566  2.3289  2.2884
  581MOL0     H80111   3.016   5.710   1.378 -0.8250 -0.0730  0.4769
  581MOL0     H80112   3.071   5.797   1.242 -0.2949 -3.9744 -0.7705
  581MOL0     H80113   2.882   5.675   1.189  2.2784  0.1188 -0.5101
  581MOL0     H80114   2.788   5.762   1.316  0.5092  0.1350 -0.4057
  581MOL0     H80115   2.790   5.966   1.173  1.2759  0.8267 -2.6438
  581MOL0     H80116   2.916   5.903   1.072  0.7730 -2.8961 -0.4317
  581MOL0     H80117   2.762   5.711   0.996  0.1264 -1.8575  1.8574
  581MOL0     H80118   2.643   5.805   1.096  0.5731 -0.9148 -0.6057
  581MOL0     H80119   2.656   5.990   0.969 -3.0200 -1.0677  0.0197
  581MOL0     H80120   2.599   5.858   0.873 -0.1409  2.0931  1.4728
  581MOL0     H80121   2.870   5.998   0.852 -0.1262  0.2028 -2.2734
  581MOL0     H80122   2.846   5.852   0.767 -1.2855  0.7045 -1.8244
  581MOL0     H80123   2.675   6.105   0.742 -0.4565 -0.6626 -1.8448
  581MOL0     H80124   2.635   5.948   0.663  1.1079 -2.6242 -0.5409
  581MOL0     H80125   2.750   6.120   0.540  1.1468  1.2868 -0.6676
  581MOL0     H80126   2.902   6.099   0.632 -0.6794  3.3602 -2.8475
  581MOL0     H80127   2.663   5.885   0.460  0.7814  1.6365  1.2415
  581MOL0     H80128   2.844   5.674   0.181 -2.3972 -1.4194 -0.9341
  581MOL0     H80129   2.689   5.719   0.244 -0.4809  0.8808 -0.5504
  581MOL0     H80130   2.787   5.472   0.240 -0.7737 -1.2417  1.4913
  581MOL0     H80131   2.846   5.501   0.397 -1.6352 -1.4636  0.7489
  581MOL0     H80132   2.553   5.580   0.343 -1.4591 -1.6956  0.1957
  581MOL0     H80133   2.596   5.419   0.382  3.1800 -1.7508  1.2087
  581MOL0     H80134   2.697   5.495   0.591 -0.3664  0.0876  0.3072
  581MOL0     H80135   2.640   5.663   0.566 -0.3641 -0.4808  1.5052
  581MOL0     H80136   2.295   5.666   0.598  2.7625 -2.4654 -1.9791
  581MOL0     H80137   2.113   5.847   0.857 -0.6012 -0.5250 -0.8708
  581MOL0     H80138   2.123   5.772   0.699  0.6201 -0.5203 -0.8890
  581MOL0     H80139   2.209   5.933   0.737 -0.1775  0.6878 -0.3095
  581MOL0     H80140   2.066   6.080   1.006  4.7868 -0.6689 -0.8326
  581MOL0     H80141   1.931   6.209   1.158 -0.8198 -0.4072  0.8297
  581MOL0     H80142   1.735   6.227   1.476  0.7739  0.7993 -1.3253
  581MOL0     H80143   1.777   6.106   1.342  2.2774  0.6147 -0.5111
  581MOL0     H80144   1.885   6.037   1.602 -0.4818 -0.7435  1.3471
  581MOL0     H80145   1.711   6.048   1.620  0.3656  1.7213  0.0747
  581MOL0     H80146   1.876   5.851   1.454 -0.2939 -0.9212 -0.1119
  581MOL0     H80147   1.734   5.914   1.391  0.3605  1.4524  0.2422
  581MOL0     H80148   1.678   5.864   1.680 -2.2918  0.3223  0.1304
  581MOL0     H80149   1.774   5.726   1.625  0.6153  1.1926  0.1223
  581MOL0     H80150   1.546   5.827   1.444  1.7085 -0.2276 -2.0023
  581MOL0     H80151   1.609   5.665   1.476  1.2971  0.1070  1.6508
  581MOL0     H80152   1.446   5.665   1.665 -0.3258 -1.0287 -0.9824
  581MOL0     H80153   1.376   5.708   1.516  2.1815  0.0488 -1.7147
  581MOL0     H80154   1.416   5.967   1.596  0.2893  1.4601  3.0785
  581MOL0     H80155   1.430   5.886   1.754  0.0518  0.0905  0.7851
  581MOL0     H80156   1.210   5.984   1.718  0.6947 -0.0392  0.2378
  581MOL0     H80157   1.179   5.808   1.709  0.1221 -0.4764 -1.0738
  581MOL0     H80158   2.115   6.018   1.492  0.4686 -0.9707  0.2135
  581MOL0     H80159   2.250   5.876   1.340  1.4486  0.2989 -0.3853
  581MOL0     H80160   2.512   5.644   1.041  0.4100  0.1453 -0.7400
  581MOL0     H80161   2.613   5.518   0.852 -0.6588  0.0711 -1.6394
  581MOL0     H80162   2.820   5.739   1.544  1.4518 -0.9781 -0.4669
  581MOL0     H80163   2.673   5.817   1.719 -0.6722  2.3894  4.4378
  581MOL0     H80164   2.610   6.068   2.160  0.7875  1.9919 -1.5987
  581MOL0     H80165   2.409   6.159   2.280 -1.1185  1.0487 -0.1849
  581MOL0     H80166   2.024   6.226   2.024  0.3174  3.2181 -0.1151
  581MOL0     H80167   2.032   6.116   2.153  2.8224  0.6134  1.8847
  581MOL0     H80168   1.871   6.344   2.160 -0.4522 -1.5667 -0.4370
  581MOL0     H80169   2.018   6.429   2.195 -1.8338  0.2066 -0.9596
  581MOL0     H80170   1.903   6.180   2.329  0.6279 -0.7271 -1.7708
  581MOL0     H80171   2.041   6.285   2.394  0.5346 -0.2527 -1.4430
  581MOL0     H80172   1.747   6.373   2.367 -1.3388 -4.2921  1.1541
  581MOL0     H80173   1.875   6.468   2.435  2.0061 -0.6560  1.2624
  581MOL0     H80174   1.738   6.185   2.729  0.0247 -0.1741 -0.6447
  581MOL0     H80175   2.198   6.155   1.896 -3.4566  3.7785  2.4718
  581MOL0     H80176   2.454   6.043   1.691 -0.2943 -1.6093 -0.0642
  581MOL0     H80177   2.326   5.926   1.732 -0.6862  0.0088  1.4734
  581MOL0     H80178   2.276   6.086   1.710 -2.1673 -0.5578  0.7242
  582MOL0     O80179   5.126   5.477   5.427  0.6033  0.3901 -0.4462
  582MOL0     C80180   5.205   5.567   5.449 -0.0745 -0.0028  0.1054
  582MOL0     O80181   5.170   5.693   5.474 -0.0387 -0.6454  0.3637
  582MOL0     C80182   5.032   5.718   5.488  0.0037  0.8768  0.1213
  582MOL0     C80183   4.946   5.695   5.383 -0.1736  0.5852  0.3833
  582MOL0     C80184   4.811   5.735   5.395 -0.5504 -1.1855 -0.4111
  582MOL0     C80185   4.770   5.803   5.514 -0.0330  0.1375 -0.3242
  582MOL0     O80186   4.641   5.849   5.524  0.4956  0.1566  0.2334
  582MOL0     C80187   4.597   5.943   5.625 -0.2703  0.0160  0.3097
  582MOL0     C80188   4.603   6.077   5.562 -0.4987 -0.4550  0.4909
  582MOL0     C80189   4.515   6.084   5.444  0.5857  0.1560  0.5740
  582MOL0     C80190   4.524   6.213   5.364  0.0109 -1.2923 -0.6299
  582MOL0     C80191   4.473   6.344   5.442 -0.1752  0.6736  0.6695
  582MOL0     C80192   4.435   6.463   5.357  0.6665  0.7988  0.1735
  582MOL0     C80193   4.426   6.598   5.434  0.6079  0.4193  0.1368
  582MOL0     C80194   4.303   6.587   5.529 -0.5045 -0.8854  0.4163
  582MOL0     N80195   4.301   6.712   5.609  1.0328 -0.5070  0.8696
  582MOL0     C80196   4.241   6.832   5.592  0.2926  0.0796 -0.4348
  582MOL0     C80197   4.298   6.925   5.678 -0.2985  0.1486  1.0184
  582MOL0     C80198   4.277   7.079   5.708 -0.4079 -0.7670 -0.5351
  582MOL0     C80199   4.233   7.105   5.846  0.2193  0.3082  0.3116
  582MOL0     C80200   4.081   7.108   5.861 -0.3311 -0.8976 -0.3352
  582MOL0     C80201   4.044   7.144   6.007 -0.2877 -0.2826 -0.1175
  582MOL0     O80202   4.059   7.282   6.022 -0.3810 -0.3005  0.3606
  582MOL0     C80203   3.945   7.364   5.998 -1.0734 -0.6376  0.1788
  582MOL0     C80204   3.816   7.321   5.956 -0.3540  0.3138  0.5431
  582MOL0     C80205   3.710   7.410   5.941 -0.1224 -0.3941  0.4607
  582MOL0     C80206   3.567   7.358   5.925 -0.8878  0.1562  0.3506
  582MOL0     C80207   3.746   7.547   5.955  0.5137  0.0056  0.0545
  582MOL0     C80208   3.653   7.658   5.941 -1.2061 -0.1554  0.6599
  582MOL0     O80209   3.528   7.649   5.968 -0.7115 -0.3818 -0.5724
  582MOL0     C80210   3.446   7.763   5.984  0.7020 -0.0006 -0.8747
  582MOL0     C80211   3.427   7.858   5.890  0.8801 -0.4458  1.1998
  582MOL0     C80212   3.343   7.965   5.922 -0.4385  0.1133 -0.8521
  582MOL0     C80213   3.273   7.975   6.035  0.1924  0.0442  0.4295
  582MOL0     O80214   3.198   8.091   6.061  0.9365  0.1840  0.1173
  582MOL0     C80215   3.080   8.081   6.132  0.0640 -0.1873  0.2197
  582MOL0     C80216   3.016   8.225   6.163 -0.4336  0.2432  0.2503
  582MOL0     C80217   2.959   8.283   6.036 -0.1569 -0.4367 -0.6696
  582MOL0     C80218   2.886   8.418   6.080 -0.0744  0.2576  0.2389
  582MOL0     C80219   2.970   8.541   6.044 -0.3593  0.1379  0.2691
  582MOL0     C80220   3.081   8.573   6.155  0.0711  0.6243 -0.1035
  582MOL0     C80221   3.117   8.730   6.153  0.4130  0.2450  0.3637
  582MOL0     C80222   3.193   8.771   6.270  0.1845  0.9858  0.1305
  582MOL0    Cl80223   3.103   8.778   6.427 -0.2098  0.2816  0.1330
  582MOL0     C80224   3.309   7.885   6.135 -0.4176  0.5960 -0.5015
  582MOL0     C80225   3.391   7.773   6.112 -0.2337  0.3303 -0.3073
  582MOL0     O80226   3.708   7.759   5.889  0.3153 -0.1485 -0.0372
  582MOL0     C80227   3.880   7.593   5.968 -0.0686  0.1803  0.2753
  582MOL0     C80228   3.976   7.501   5.998  0.1261  0.6974 -0.0321
  582MOL0     N80229   4.396   6.853   5.740 -0.3996  0.0720 -0.7072
  582MOL0     N80230   4.397   6.731   5.699  1.1536  0.2887 -0.2822
  582MOL0     C80231   4.860   5.810   5.624 -0.3471  0.1704  0.0170
  582MOL0     C80232   4.991   5.780   5.604 -0.9721  0.1071  0.1017
  582MOL0     C80233   5.350   5.529   5.449  0.4028 -0.4803  0.1303
  582MOL0     C80234   5.437   5.590   5.538  0.2782  0.5295 -0.3337
  582MOL0     C80235   5.567   5.557   5.553 -0.3282 -0.3461  0.5077
  582MOL0     C80236   5.624   5.449   5.481  0.8094  0.5412 -0.1919
  582MOL0     O80237   5.757   5.423   5.502  0.1368 -0.0307  0.2449
  582MOL0     C80238   5.838   5.508   5.435  0.0409 -1.1628  1.0266
  582MOL0     C80239   5.980   5.445   5.385 -0.5183 -0.6187  0.2739
  582MOL0     C80240   6.056   5.357   5.495  0.5996  0.7936 -0.0675
  582MOL0     C80241   6.191   5.300   5.443  0.9642 -0.0935  0.5498
  582MOL0     C80242   6.238   5.172   5.505  0.0249  0.3984 -0.3843
  582MOL0     C80243   6.288   5.078   5.554 -0.3329  0.5092 -0.1895
  582MOL0     C80244   5.538   5.388   5.381 -0.4785  0.2167 -0.7638
  582MOL0     C80245   5.403   5.425   5.363  0.3271 -0.6498  0.5481
  582MOL0     C80246   5.329   5.358   5.254  0.2438 -0.7470 -0.1237
  582MOL0     H80247   4.993   5.645   5.299  3.4169 -2.7549  3.9528
  582MOL0     H80248   4.740   5.733   5.313 -1.1799 -1.1151  0.1221
  582MOL0     H80249   4.662   5.943   5.713  0.8759  1.4248 -0.5034
  582MOL0     H80250   4.501   5.912   5.669 -0.3035 -0.7976 -0.3016
  582MOL0     H80251   4.568   6.156   5.630  0.9575  0.8343 -0.2122
  582MOL0     H80252   4.705   6.105   5.534  0.1999 -0.3738  2.8694
  582MOL0     H80253   4.542   5.999   5.380  0.6947  0.5184  0.1294
  582MOL0     H80254   4.413   6.065   5.478  0.3892 -5.4170 -2.0244
  582MOL0     H80255   4.622   6.236   5.323 -0.9799 -0.4266 -2.6536
  582MOL0     H80256   4.452   6.202   5.283  0.6185  1.3453 -1.6267
  582MOL0     H80257   4.567   6.372   5.490  0.7652  0.8198 -1.1327
  582MOL0     H80258   4.388   6.321   5.507 -0.2467  0.8876  0.6529
  582MOL0     H80259   4.519   6.474   5.287  2.7582 -0.6030  2.3233
  582MOL0     H80260   4.347   6.434   5.299  0.3565 -0.4204  1.2253
  582MOL0     H80261   4.413   6.679   5.361  1.3394 -0.5244 -1.0977
  582MOL0     H80262   4.518   6.610   5.491  0.5517 -0.8855  0.5438
  582MOL0     H80263   4.210   6.571   5.473  0.2847 -0.9609 -0.9232
  582MOL0     H80264   4.312   6.495   5.588 -1.3215 -1.8633 -0.9142
  582MOL0     H80265   4.161   6.862   5.525  0.9930  1.9663 -0.4936
  582MOL0     H80266   4.196   7.118   5.645  0.3316  2.3153  0.2769
  582MOL0     H80267   4.367   7.139   5.692 -1.8920  1.8108  0.1057
  582MOL0     H80268   4.267   7.018   5.903  2.4639  0.9215  0.0239
  582MOL0     H80269   4.280   7.194   5.889 -0.6069  1.1739 -0.5230
  582MOL0     H80270   4.031   7.178   5.793  0.7015  0.3768  0.1849
  582MOL0     H80271   4.041   7.009   5.836  0.4892 -1.1747 -0.5624
  582MOL0     H80272   3.945   7.103   6.027 -0.0791  0.5892  3.4353
  582MOL0     H80273   4.121   7.096   6.069  0.2033 -0.2214 -0.6727
  582MOL0     H80274   3.794   7.215   5.945 -0.8797  0.0447  3.2880
  582MOL0     H80275   3.519   7.415   5.845 -1.7880  0.7713  1.3031
  582MOL0     H80276   3.522   7.365   6.025 -1.9733  0.2902 -0.1285
  582MOL0     H80277   3.561   7.258   5.881 -0.6856  0.2078  0.2038
  582MOL0     H80278   3.476   7.853   5.793 -1.8756  1.0228 -0.3695
  582MOL0     H80279   3.338   8.040   5.843 -1.7144  2.1700  1.0459
  582MOL0     H80280   3.006   8.017   6.084  0.2795  0.6867 -1.3333
  582MOL0     H80281   3.100   8.039   6.231  0.9526  0.6950  0.4350
  582MOL0     H80282   2.939   8.218   6.240 -0.5183 -0.3452  0.1167
  582MOL0     H80283   3.089   8.291   6.212 -0.8745  0.6844  0.3268
  582MOL0     H80284   2.896   8.213   5.980 -3.7042  3.7004 -2.4854
  582MOL0     H80285   3.045   8.305   5.972  1.0995 -0.5528  0.9103
  582MOL0     H80286   2.852   8.420   6.183 -1.6755  0.1683 -0.2597
  582MOL0     H80287   2.797   8.417   6.015  1.3794 -1.7916 -1.9233
  582MOL0     H80288   3.005   8.529   5.942 -1.4430 -1.2717  0.0328
  582MOL0     H80289   2.903   8.627   6.032 -1.0860 -0.6362 -1.3823
  582MOL0     H80290   3.172   8.515   6.136 -0.8038 -1.7988  2.3594
  582MOL0     H80291   3.040   8.538   6.251 -2.2854 -0.6013 -1.4607
  582MOL0     H80292   3.025   8.789   6.152  0.4799  0.5326  3.4967
  582MOL0     H80293   3.170   8.750   6.059  0.5689  3.7307  1.0811
  582MOL0     H80294   3.225   8.873   6.244 -1.1300  1.4916  0.4142
  582MOL0     H80295   3.275   8.700   6.280  2.1251  3.2427  1.4760
  582MOL0     H80296   3.287   7.896   6.240 -1.7385 -2.3497 -0.3520
  582MOL0     H80297   3.414   7.703   6.192 -1.6016  2.4908  2.1447
  582MOL0     H80298   3.905   7.699   5.975 -1.5534  0.8498 -2.9556
  582MOL0     H80299   4.070   7.549   6.021 -0.8759  2.3960  0.6799
  582MOL0     H80300   4.830   5.854   5.718  0.0228 -1.7978  1.1072
  582MOL0     H80301   5.063   5.800   5.683 -0.6695  1.0738 -0.3993
  582MOL0     H80302   5.400   5.673   5.598 -0.1370  0.9293 -1.1278
  582MOL0     H80303   5.635   5.596   5.628 -0.2939  0.0267  0.2861
  582MOL0     H80304   5.794   5.552   5.345 -2.4795  1.7795  3.4947
  582MOL0     H80305   5.858   5.599   5.492 -1.2803 -0.6747  0.7529
  582MOL0     H80306   6.039   5.532   5.355 -1.2811  0.2298  1.2013
  582MOL0     H80307   5.980   5.379   5.298  1.2580  0.9687 -1.0064
  582MOL0     H80308   6.069   5.426   5.578  2.3594  3.2585 -2.2468
  582MOL0     H80309   5.990   5.277   5.530  3.3867 -0.5956  2.5011
  582MOL0     H80310   6.273   5.373   5.440  2.7602 -2.0588 -1.6965
  582MOL0     H80311   6.180   5.268   5.340  0.7812  0.7528  0.2958
  582MOL0     H80312   6.327   4.989   5.599 -2.5497 -1.0086 -1.1030
  582MOL0     H80313   5.572   5.310   5.314 -0.0872 -1.3844  1.2244
  582MOL0     H80314   5.272   5.273   5.291  2.5624 -2.5802 -0.4871
  582MOL0     H80315   5.264   5.424   5.196 -0.4126  0.3969  1.8445
  582MOL0     H80316   5.405   5.331   5.180  1.6729 -0.3299  1.1417
  583MOL0     O80317   7.169   6.963   9.120  0.2941  0.2079  0.5832
  583MOL0     C80318   7.288   6.940   9.099  0.1708 -0.1911 -0.4737
  583MOL0     O80319   7.367   6.967   8.991 -0.0313  0.5513  0.1662
  583MOL0     C80320   7.328   7.031   8.882 -0.1351  0.3631  0.6326
  583MOL0     C80321   7.213   7.123   8.870 -0.5958 -0.6267  0.7036
  583MOL0     C80322   7.196   7.182   8.747  1.2578  0.1056  0.1313
  583MOL0     C80323   7.277   7.164   8.640  0.3863  0.1622 -0.0626
  583MOL0     O80324   7.247   7.222   8.521  0.4272  0.3258 -0.7217
  583MOL0     C80325   7.112   7.218   8.472 -0.5113 -0.1904  0.3060
  583MOL0     C80326   7.064   7.072   8.456 -1.1449  0.1539 -0.7501
  583MOL0     C80327   7.151   6.990   8.365  0.0551  0.2969 -1.0396
  583MOL0     C80328   7.165   7.035   8.221  0.4059  0.4925 -0.2004
  583MOL0     C80329   7.201   6.923   8.121  0.8544 -0.7306  0.6148
  583MOL0     C80330   7.188   6.981   7.986 -0.2318  0.0030 -0.1711
  583MOL0     C80331   7.196   6.879   7.875 -0.3115 -0.9099  0.2324
  583MOL0     C80332   7.334   6.813   7.867 -1.7014 -1.0351 -0.2188
  583MOL0     N80333   7.351   6.700   7.950 -0.8918 -0.1842  0.4813
  583MOL0     C80334   7.477   6.651   7.992  0.4400  0.1500 -0.5898
  583MOL0     C80335   7.448   6.527   8.046 -0.0470 -0.3720  0.1013
  583MOL0     C80336   7.544   6.432   8.112  0.7169  0.4081 -0.3778
  583MOL0     C80337   7.602   6.313   8.022 -0.7461  0.8748 -0.4009
  583MOL0     C80338   7.687   6.222   8.112  0.5091  0.1643 -0.0290
  583MOL0     C80339   7.769   6.121   8.027 -0.3133 -0.0581  0.4544
  583MOL0     O80340   7.766   6.000   8.108  0.4513 -0.1768 -0.7575
  583MOL0     C80341   7.881   5.927   8.104  0.2847 -0.0514 -0.2235
  583MOL0     C80342   7.994   5.956   8.179 -0.8097  0.2677  0.4616
  583MOL0     C80343   8.109   5.883   8.175  0.0359  0.0235 -0.3508
  583MOL0     C80344   8.225   5.930   8.259 -0.6054 -0.3508 -0.5133
  583MOL0     C80345   8.110   5.766   8.090  0.4968 -0.6324 -1.0881
  583MOL0     C80346   8.233   5.702   8.053  0.0091  0.9309  0.3047
  583MOL0     O80347   8.218   5.606   7.949  0.2362 -0.0112 -0.6877
  583MOL0     C80348   8.329   5.540   7.908  0.1904  1.1006 -0.0543
  583MOL0     C80349   8.432   5.610   7.857 -0.1423  0.6739 -0.1806
  583MOL0     C80350   8.544   5.550   7.796 -0.0138 -1.0739  0.6263
  583MOL0     C80351   8.557   5.408   7.806  0.0061 -0.3588  0.0214
  583MOL0     O80352   8.664   5.338   7.756 -0.6446 -0.8149 -0.0420
  583MOL0     C80353   8.714   5.365   7.623  0.5008  0.1952 -0.1842
  583MOL0     C80354   8.620   5.308   7.517  0.1808  0.7459 -0.9230
  583MOL0     C80355   8.682   5.287   7.376  0.4160  0.0481  0.6835
  583MOL0     C80356   8.584   5.262   7.257 -1.1115  0.5352  1.0694
  583MOL0     C80357   8.632   5.161   7.154  0.2919 -0.2466 -0.4337
  583MOL0     C80358   8.735   5.211   7.049 -0.8275 -0.4218 -0.5474
  583MOL0     C80359   8.749   5.092   6.950  0.1599  0.1814 -0.5735
  583MOL0     C80360   8.825   5.146   6.824 -0.5005  0.8599 -0.1185
  583MOL0    Cl80361   8.809   5.031   6.683  0.4567 -0.1382  0.1094
  583MOL0     C80362   8.459   5.333   7.875 -0.3035 -0.7014 -1.4306
  583MOL0     C80363   8.340   5.393   7.919  0.2210 -0.6754  0.8110
  583MOL0     O80364   8.337   5.721   8.110 -0.4857 -0.0228  0.5428
  583MOL0     C80365   7.991   5.721   8.029 -0.5660 -0.1546  0.1907
  583MOL0     C80366   7.882   5.804   8.032 -0.0361  0.2699  0.5192
  583MOL0     N80367   7.304   6.508   8.044 -0.3022  0.1101 -0.1733
  583MOL0     N80368   7.257   6.609   7.985  0.9007 -0.1377  0.3253
  583MOL0     C80369   7.390   7.088   8.652 -0.2790  0.0894 -0.1390
  583MOL0     C80370   7.413   7.011   8.766  0.0564  0.1321 -0.2482
  583MOL0     C80371   7.361   6.886   9.218  0.5790  0.2254 -0.4814
  583MOL0     C80372   7.475   6.804   9.198 -0.7131 -0.3582 -0.4828
  583MOL0     C80373   7.576   6.780   9.294  0.6976 -0.2082 -0.4565
  583MOL0     C80374   7.557   6.817   9.429  1.1849 -0.3750  0.2973
  583MOL0     O80375   7.647   6.796   9.528 -0.4199 -0.0591  0.0973
  583MOL0     C80376   7.781   6.749   9.502 -0.2235  0.1007  0.1300
  583MOL0     C80377   7.847   6.717   9.637  0.3373 -1.2921  0.0835
  583MOL0     C80378   7.781   6.598   9.710 -0.2949  0.5751 -0.0585
  583MOL0     C80379   7.697   6.641   9.832  0.8401 -0.0919 -0.1601
  583MOL0     C80380   7.672   6.531   9.923  0.3962  0.0314  0.5938
  583MOL0     C80381   7.633   6.444   9.999 -0.1753  0.2253 -0.0250
  583MOL0     C80382   7.434   6.877   9.458  0.3092 -0.6227 -0.2611
  583MOL0     C80383   7.329   6.905   9.354 -0.5871  0.1068 -0.5314
  583MOL0     C80384   7.206   6.968   9.407 -0.3785 -0.6629  0.7099
  583MOL0     H80385   7.142   7.134   8.951  1.3872  1.6150  2.2562
  583MOL0     H80386   7.106   7.243   8.748  0.7431 -0.6196  1.5408
  583MOL0     H80387   7.114   7.260   8.371  2.6621  0.4912  0.5537
  583MOL0     H80388   7.046   7.287   8.526  2.3593  1.6846  1.6668
  583MOL0     H80389   7.054   7.026   8.554  1.0729  0.5482 -0.2809
  583MOL0     H80390   6.964   7.067   8.412 -1.5002  0.9463 -0.0665
  583MOL0     H80391   7.249   6.974   8.412 -0.5622 -0.3984  0.0625
  583MOL0     H80392   7.096   6.897   8.346 -0.6323  0.7144 -1.1107
  583MOL0     H80393   7.069   7.084   8.205 -0.1562  0.4974  2.6082
  583MOL0     H80394   7.246   7.108   8.215  0.7125  0.2981  1.2278
  583MOL0     H80395   7.129   6.841   8.128  0.3314 -0.3826 -0.3751
  583MOL0     H80396   7.301   6.887   8.146  0.8814 -0.4975  0.8417
  583MOL0     H80397   7.090   7.029   7.984  0.3587  1.3261  0.8743
  583MOL0     H80398   7.269   7.051   7.964  0.6792 -1.7266 -2.8872
  583MOL0     H80399   7.183   6.927   7.778  0.9913 -2.3385 -0.6996
  583MOL0     H80400   7.118   6.803   7.885 -2.3797  0.5951 -2.9418
  583MOL0     H80401   7.338   6.782   7.762 -1.7897  2.3527 -1.3437
  583MOL0     H80402   7.414   6.888   7.872 -0.9566 -1.8746  2.6568
  583MOL0     H80403   7.571   6.705   7.991  1.0302 -0.7644  1.3408
  583MOL0     H80404   7.499   6.393   8.204  1.0380 -0.2994 -0.5136
  583MOL0     H80405   7.629   6.495   8.140  1.3689  0.0909 -1.5735
  583MOL0     H80406   7.523   6.249   7.981 -0.5194 -0.5468  1.2807
  583MOL0     H80407   7.654   6.351   7.934 -1.8210  0.8332 -1.0785
  583MOL0     H80408   7.757   6.282   8.171 -0.4476 -0.3288  1.6702
  583MOL0     H80409   7.609   6.167   8.166 -1.5292  2.4736 -0.4219
  583MOL0     H80410   7.721   6.105   7.930  1.6979  0.4289 -0.6547
  583MOL0     H80411   7.871   6.158   8.019 -0.9378  1.2752 -2.3354
  583MOL0     H80412   7.994   6.038   8.251 -0.9974  1.3339 -0.7019
  583MOL0     H80413   8.307   5.976   8.204 -1.1979  2.5324  0.8527
  583MOL0     H80414   8.270   5.843   8.308  0.1322  0.2520 -0.0948
  583MOL0     H80415   8.197   6.000   8.338 -2.5342  0.2614 -1.6971
  583MOL0     H80416   8.426   5.718   7.856 -0.7000  0.6417 -0.4962
  583MOL0     H80417   8.603   5.623   7.743 -1.1540 -0.2910  0.4092
  583MOL0     H80418   8.720   5.473   7.605  2.1625  0.5510  2.0343
  583MOL0     H80419   8.814   5.322   7.620  0.6284  0.1654  2.1379
  583MOL0     H80420   8.592   5.209   7.554  1.4893  1.1864  1.5061
  583MOL0     H80421   8.531   5.372   7.515  1.3269  2.3969 -2.6633
  583MOL0     H80422   8.743   5.197   7.384 -2.9449 -2.4093  0.6826
  583MOL0     H80423   8.738   5.375   7.344  3.0304 -1.8243 -0.2128
  583MOL0     H80424   8.545   5.349   7.204 -0.0639  0.6544  0.4549
  583MOL0     H80425   8.499   5.215   7.307 -1.0023  0.0021  0.7575
  583MOL0     H80426   8.683   5.078   7.203 -1.4132 -1.7663 -1.1208
  583MOL0     H80427   8.543   5.119   7.106 -0.9922  0.6515  1.0633
  583MOL0     H80428   8.833   5.217   7.097  0.0869 -1.4873 -2.2008
  583MOL0     H80429   8.703   5.298   6.992 -2.1210 -0.7727 -0.3980
  583MOL0     H80430   8.656   5.037   6.933 -0.7537  1.9250 -1.4755
  583MOL0     H80431   8.813   5.027   7.010 -3.3522  1.7572  5.8276
  583MOL0     H80432   8.927   5.168   6.856  0.8376 -1.4102 -2.4013
  583MOL0     H80433   8.786   5.241   6.786 -1.2747  0.2672 -0.8629
  583MOL0     H80434   8.477   5.230   7.905 -3.4700 -0.9433  0.0182
  583MOL0     H80435   8.259   5.337   7.964 -0.9759  0.0562 -0.3348
  583MOL0     H80436   8.003   5.627   7.975  4.7335 -1.6887  3.3275
  583MOL0     H80437   7.788   5.775   7.986  0.1378  1.9926 -1.0348
  583MOL0     H80438   7.462   7.093   8.571  1.0207  3.6151  1.0710
  583MOL0     H80439   7.502   6.950   8.777 -0.1690 -0.7481 -2.7218
  583MOL0     H80440   7.504   6.784   9.096  1.0947  0.5247 -0.1746
  583MOL0     H80441   7.656   6.721   9.249  0.2649 -0.7726 -0.4888
  583MOL0     H80442   7.775   6.665   9.432 -0.7856 -0.9279  1.3781
  583MOL0     H80443   7.847   6.819   9.450 -0.5335  1.9037  2.0664
  583MOL0     H80444   7.853   6.811   9.692  0.4041 -0.3754 -1.4226
  583MOL0     H80445   7.951   6.688   9.614  0.4850  0.6011 -2.0056
  583MOL0     H80446   7.723   6.541   9.637 -1.0424 -0.2323  1.1407
  583MOL0     H80447   7.864   6.536   9.744 -1.1987  0.3547  1.9082
  583MOL0     H80448   7.607   6.691   9.794  1.0503  0.5770  0.2073
  583MOL0     H80449   7.746   6.719   9.891 -1.6434  0.8178  0.8522
  583MOL0     H80450   7.578   6.378  10.063 -0.7987 -0.0233 -0.8032
  583MOL0     H80451   7.426   6.904   9.563 -0.0736 -2.1902  0.1280
  583MOL0     H80452   7.225   7.013   9.505  0.2332  0.1912  0.2150
  583MOL0     H80453   7.160   7.041   9.340 -1.2223 -0.9504  0.9559
  583MOL0     H80454   7.128   6.892   9.414 -0.8539 -0.2100  0.4768
  584MOL0     O80455   3.820   2.400   9.826  0.0517  1.0132 -0.7159
  584MOL0     C80456   3.874   2.514   9.838  0.2062  0.0271 -0.7528
  584MOL0     O80457   3.934   2.558   9.942 -0.9410  0.3696  0.2547
  584MOL0     C80458   3.908   2.502  10.061  0.3161 -0.9175 -1.2626
  584MOL0     C80459   3.980   2.385  10.102  0.1233 -0.9403  0.5801
  584MOL0     C80460   3.958   2.349  10.231  0.0762  0.5508  0.0750
  584MOL0     C80461   3.870   2.413  10.327 -0.4231 -0.7816 -0.8017
  584MOL0     O80462   3.854   2.374  10.457  0.3218 -0.8785 -0.3302
  584MOL0     C80463   3.963   2.306  10.518 -0.2923  0.1764  0.2330
  584MOL0     C80464   3.994   2.352  10.663  0.7696 -0.7143 -0.1441
  584MOL0     C80465   3.883   2.332  10.763 -0.0697 -0.5401 -0.1783
  584MOL0     C80466   3.914   2.398  10.897  0.5141  0.0754 -0.0085
  584MOL0     C80467   3.775   2.373  10.965 -0.7239  1.0576  0.3965
  584MOL0     C80468   3.774   2.414  11.113 -0.1201 -0.8467 -0.2931
  584MOL0     C80469   3.634   2.369  11.179 -0.1296 -1.1056  0.1542
  584MOL0     C80470   3.596   2.429  11.314  1.1969 -0.4934 -0.6182
  584MOL0     N80471   3.469   2.505  11.309  0.4361  0.4139  0.5599
  584MOL0     C80472   3.446   2.629  11.243 -0.4989 -0.4046 -0.2110
  584MOL0     C80473   3.313   2.657  11.240  0.3170 -0.1127  0.0934
  584MOL0     C80474   3.247   2.770  11.175 -1.2217  0.2060  0.1574
  584MOL0     C80475   3.134   2.723  11.078 -0.3153 -0.2440 -0.0760
  584MOL0     C80476   2.999   2.778  11.118  0.0985  0.6113 -0.0504
  584MOL0     C80477   2.898   2.729  11.014 -0.2141 -0.7820 -0.4799
  584MOL0     O80478   2.782   2.700  11.068  0.1392  0.7963  0.5027
  584MOL0     C80479   2.688   2.805  11.075 -0.9319  0.3614 -0.5116
  584MOL0     C80480   2.714   2.938  11.073 -0.4387  0.3922 -0.0000
  584MOL0     C80481   2.610   3.037  11.069 -0.7477 -0.6419 -0.5994
  584MOL0     C80482   2.645   3.185  11.043 -1.0447 -0.1936  0.1290
  584MOL0     C80483   2.480   3.002  11.095 -0.6313  1.0557 -0.0633
  584MOL0     C80484   2.371   3.093  11.117  0.8580  0.0621 -0.2141
  584MOL0     O80485   2.354   3.152  11.240 -0.5321  0.1071 -0.0997
  584MOL0     C80486   2.280   3.264  11.240 -0.3751  0.0598 -0.0386
  584MOL0     C80487   2.201   3.294  11.352 -0.6460  0.1794 -0.0234
  584MOL0     C80488   2.129   3.409  11.352 -0.7387 -0.5100 -0.8511
  584MOL0     C80489   2.129   3.494  11.247 -0.5641 -0.7631 -0.5130
  584MOL0     O80490   2.058   3.609  11.258 -0.0273  0.6246  0.0627
  584MOL0     C80491   2.129   3.736  11.266  0.4640 -0.4636 -0.6536
  584MOL0     C80492   2.034   3.856  11.234 -0.5109 -0.2447 -0.1411
  584MOL0     C80493   2.104   3.989  11.208  0.8314 -0.4943  0.9625
  584MOL0     C80494   2.001   4.110  11.173  1.3132  0.4839 -0.9122
  584MOL0     C80495   2.062   4.246  11.176  0.3405 -0.3072  0.0028
  584MOL0     C80496   2.148   4.271  11.048  0.3046  0.0686  0.2843
  584MOL0     C80497   2.178   4.418  11.004  0.2352  1.2494  0.8093
  584MOL0     C80498   2.263   4.420  10.883  0.6362 -0.2990  0.3485
  584MOL0    Cl80499   2.427   4.351  10.916 -0.5471  0.0378 -0.0541
  584MOL0     C80500   2.212   3.477  11.142 -0.4137  0.4858  0.0194
  584MOL0     C80501   2.287   3.358  11.133 -0.0486  0.8290  0.8184
  584MOL0     O80502   2.303   3.113  11.014  0.1291  0.7302 -0.0993
  584MOL0     C80503   2.454   2.867  11.103 -0.5809  0.4740 -1.1628
  584MOL0     C80504   2.554   2.760  11.103 -0.4111 -0.2995  0.1264
  584MOL0     N80505   3.252   2.559  11.324  0.4271 -0.5359  0.0622
  584MOL0     N80506   3.347   2.466  11.357 -0.3526 -0.3270  0.1605
  584MOL0     C80507   3.807   2.528  10.281  0.2542  0.2216  0.7135
  584MOL0     C80508   3.827   2.570  10.149  0.0876 -0.3151  0.7877
  584MOL0     C80509   3.869   2.601   9.720  0.5597  0.8727  0.1536
  584MOL0     C80510   3.836   2.539   9.600  0.2549 -0.3944  1.1915
  584MOL0     C80511   3.823   2.612   9.485 -1.1319 -0.4448 -0.1170
  584MOL0     C80512   3.828   2.751   9.487  0.4600 -0.9635 -0.1177
  584MOL0     O80513   3.794   2.815   9.369 -0.9624  0.2203  0.0625
  584MOL0     C80514   3.834   2.957   9.357  0.4394  0.0248 -0.5557
  584MOL0     C80515   3.944   2.950   9.248 -0.4917  0.2629  0.4241
  584MOL0     C80516   3.883   2.990   9.109  0.0293 -0.1438  0.8722
  584MOL0     C80517   3.976   2.949   8.988  0.0160 -0.0796  0.1345
  584MOL0     C80518   4.098   3.032   8.996  0.2437 -0.0759  0.0223
  584MOL0     C80519   4.180   3.114   8.976 -0.4379  0.0119 -0.0686
  584MOL0     C80520   3.865   2.811   9.608  0.2688  0.2193 -0.1067
  584MOL0     C80521   3.886   2.733   9.720  0.5292 -0.3234  0.1470
  584MOL0     C80522   3.923   2.816   9.846  0.3497  0.3484  0.3328
  584MOL0     H80523   4.047   2.330  10.036  0.2671 -0.9260  0.7134
  584MOL0     H80524   4.023   2.264  10.251  1.8143  1.5404 -1.0741
  584MOL0     H80525   4.048   2.331  10.454 -1.4467 -2.1867 -2.4367
  584MOL0     H80526   3.954   2.197  10.511  3.1163 -0.3202  1.7508
  584MOL0     H80527   4.091   2.311  10.692  0.8920 -0.8820 -0.7641
  584MOL0     H80528   4.010   2.459  10.650 -1.0501 -0.1782  1.5465
  584MOL0     H80529   3.801   2.387  10.716  0.3771  2.1070  1.8908
  584MOL0     H80530   3.849   2.228  10.767 -0.0457 -0.5877 -1.0133
  584MOL0     H80531   3.991   2.347  10.956  0.4252  1.6202  1.5219
  584MOL0     H80532   3.936   2.506  10.899 -1.2411  0.5174 -1.5377
  584MOL0     H80533   3.767   2.264  10.963 -0.3570  0.8218  4.2030
  584MOL0     H80534   3.691   2.415  10.909 -0.2605  0.4925 -0.7718
  584MOL0     H80535   3.862   2.370  11.161  3.7001  6.2936  0.5801
  584MOL0     H80536   3.771   2.523  11.122  0.3206 -0.8637  0.1042
  584MOL0     H80537   3.629   2.261  11.198  1.0065 -0.7512  2.9649
  584MOL0     H80538   3.548   2.386  11.113  1.0291 -1.9343 -1.6574
  584MOL0     H80539   3.591   2.352  11.391 -1.6701 -0.5789 -0.7969
  584MOL0     H80540   3.671   2.503  11.343 -1.9174  2.8351 -0.2201
  584MOL0     H80541   3.516   2.694  11.191 -0.4823  2.2403  2.7497
  584MOL0     H80542   3.315   2.833  11.117 -0.8323 -0.3052  0.0539
  584MOL0     H80543   3.209   2.837  11.252 -0.1042  2.3355 -1.0527
  584MOL0     H80544   3.160   2.764  10.980 -2.1455  2.9810  0.6633
  584MOL0     H80545   3.118   2.615  11.073  3.0620 -0.8085 -1.4780
  584MOL0     H80546   2.965   2.744  11.216  0.8088  0.0457  0.0043
  584MOL0     H80547   3.008   2.887  11.113  0.3637  0.5374 -1.8742
  584MOL0     H80548   2.892   2.806  10.935  1.8444  2.5582  2.3065
  584MOL0     H80549   2.922   2.638  10.959  1.6508 -0.6890  0.0910
  584MOL0     H80550   2.816   2.976  11.075 -1.2916  3.0456 -1.5891
  584MOL0     H80551   2.749   3.194  11.008 -0.7105 -0.1564  1.1045
  584MOL0     H80552   2.644   3.239  11.138 -1.7988 -1.6929  1.0063
  584MOL0     H80553   2.581   3.226  10.964  0.8873  3.7528  0.3761
  584MOL0     H80554   2.188   3.222  11.432 -3.4642 -2.7747 -2.8389
  584MOL0     H80555   2.056   3.419  11.432 -0.6994  1.8315 -1.0444
  584MOL0     H80556   2.169   3.754  11.367 -1.3432 -1.1971  0.2370
  584MOL0     H80557   2.211   3.745  11.195  1.5272  0.0562  0.5979
  584MOL0     H80558   1.980   3.837  11.141  0.0530 -3.4644  0.0637
  584MOL0     H80559   1.965   3.865  11.318  0.1034 -3.4555  0.8511
  584MOL0     H80560   2.166   3.993  11.118 -1.6011  0.8929 -0.7561
  584MOL0     H80561   2.159   4.023  11.296  0.9387  1.8686  0.0623
  584MOL0     H80562   1.919   4.109  11.246  2.4032 -3.3637  0.5332
  584MOL0     H80563   1.963   4.092  11.072  0.9388 -2.0686 -0.4050
  584MOL0     H80564   1.981   4.319  11.169  0.6220 -0.1064 -1.5502
  584MOL0     H80565   2.112   4.261  11.272  1.1184  1.9264 -0.6781
  584MOL0     H80566   2.099   4.212  10.970 -0.0726  0.1068  0.4939
  584MOL0     H80567   2.243   4.222  11.072  0.2216  0.1586  0.8011
  584MOL0     H80568   2.226   4.475  11.084 -1.5212  3.9679  0.0608
  584MOL0     H80569   2.083   4.467  10.981  1.0241  2.2413 -0.4977
  584MOL0     H80570   2.270   4.523  10.847 -2.8200 -0.0969 -0.0638
  584MOL0     H80571   2.220   4.362  10.800 -0.0707 -0.8176  1.0564
  584MOL0     H80572   2.224   3.559  11.073  1.4158 -0.5949 -1.0249
  584MOL0     H80573   2.338   3.335  11.041 -3.9980 -2.5586 -0.8640
  584MOL0     H80574   2.350   2.841  11.119 -0.2689 -0.5749 -0.7968
  584MOL0     H80575   2.530   2.662  11.142 -2.5729 -0.2278 -0.9188
  584MOL0     H80576   3.741   2.586  10.345 -1.3851 -3.0814  2.2322
  584MOL0     H80577   3.783   2.660  10.106 -1.9952 -1.7896 -0.3552
  584MOL0     H80578   3.823   2.432   9.590  0.9754 -0.7552  3.5453
  584MOL0     H80579   3.800   2.566   9.389 -1.9234  1.7609 -1.0465
  584MOL0     H80580   3.747   3.018   9.334 -0.6846 -0.8312  1.1959
  584MOL0     H80581   3.863   3.009   9.449 -4.0910  1.6072  0.2257
  584MOL0     H80582   3.996   2.854   9.237  0.7567  0.6002  2.7394
  584MOL0     H80583   4.020   3.026   9.268 -0.6993  0.0204  2.3454
  584MOL0     H80584   3.797   2.925   9.089  0.5867 -0.8913  0.8821
  584MOL0     H80585   3.843   3.091   9.097 -1.4264 -0.9539 -1.9205
  584MOL0     H80586   3.935   2.976   8.890  1.5683 -1.1867 -0.8764
  584MOL0     H80587   4.001   2.843   8.993  1.9096  0.3980  1.5166
  584MOL0     H80588   4.249   3.195   8.962  2.5481 -2.5331 -1.2058
  584MOL0     H80589   3.891   2.916   9.613 -1.5523  0.7663 -1.0037
  584MOL0     H80590   4.022   2.793   9.885  0.2846  0.8884  0.8271
  584MOL0     H80591   3.909   2.921   9.816 -0.7761 -0.4643 -2.3209
  584MOL0     H80592   3.846   2.809   9.923 -2.4969  3.9413 -1.8097
  585MOL0     O80593   3.362   6.378   5.478  0.1141  0.0521  0.2358
  585MOL0     C80594   3.283   6.342   5.560  0.2278  0.7121  0.0884
  585MOL0     O80595   3.153   6.386   5.583 -0.0209 -0.9725  0.1625
  585MOL0     C80596   3.098   6.451   5.475 -0.8548  0.3940  0.9949
  585MOL0     C80597   3.133   6.576   5.431  0.0066  0.0766 -0.2463
  585MOL0     C80598   3.084   6.631   5.317 -1.2556  0.5725  0.3664
  585MOL0     C80599   3.009   6.554   5.229 -0.1006  0.2911  0.1281
  585MOL0     O80600   2.980   6.616   5.109 -0.2463  0.5436  0.8496
  585MOL0     C80601   2.924   6.526   5.009 -0.4603  0.6614  0.4156
  585MOL0     C80602   2.883   6.586   4.876  0.0974  0.5004 -0.3550
  585MOL0     C80603   2.790   6.713   4.888  0.0722 -0.0985  0.3333
  585MOL0     C80604   2.730   6.754   4.747  0.4048  0.4502 -0.1245
  585MOL0     C80605   2.628   6.866   4.762 -0.7083 -0.2428  0.2623
  585MOL0     C80606   2.599   6.942   4.633 -0.3287 -1.1730 -0.4559
  585MOL0     C80607   2.485   7.046   4.653 -0.5966  1.2223 -0.4871
  585MOL0     C80608   2.514   7.173   4.742  0.4948  0.8214 -0.1355
  585MOL0     N80609   2.600   7.263   4.663  0.9300  0.0732 -0.6452
  585MOL0     C80610   2.735   7.263   4.639 -1.1987 -0.0048  0.0646
  585MOL0     C80611   2.769   7.366   4.568  0.1332  0.4156 -0.3510
  585MOL0     C80612   2.909   7.400   4.533  0.8562  0.9188  0.1054
  585MOL0     C80613   2.959   7.315   4.429  0.3747 -0.3847  0.9776
  585MOL0     C80614   3.086   7.383   4.380 -0.1688 -0.2814  0.1815
  585MOL0     C80615   3.152   7.279   4.296 -0.3691  0.2188  0.1665
  585MOL0     O80616   3.072   7.248   4.176 -0.6837 -0.3781  0.8316
  585MOL0     C80617   3.110   7.320   4.058 -0.0276  0.3446  0.1019
  585MOL0     C80618   3.177   7.440   4.040  0.2814 -0.0159 -0.0385
  585MOL0     C80619   3.203   7.507   3.919 -0.5930  0.3698  0.3159
  585MOL0     C80620   3.263   7.646   3.931  0.5304  0.4499 -0.6877
  585MOL0     C80621   3.156   7.443   3.804 -0.5877 -0.2602  0.9806
  585MOL0     C80622   3.172   7.500   3.665 -0.3311 -0.2705  0.6444
  585MOL0     O80623   3.111   7.423   3.569  0.6384  0.7723  0.1094
  585MOL0     C80624   3.040   7.483   3.470 -0.0736 -0.6225  0.3618
  585MOL0     C80625   2.909   7.445   3.452 -0.3233 -0.7015  0.3212
  585MOL0     C80626   2.838   7.507   3.359  0.4030 -0.0984  0.0265
  585MOL0     C80627   2.888   7.604   3.273  0.1201  0.3610 -0.0505
  585MOL0     O80628   2.811   7.668   3.180  1.2136  0.1783 -0.2367
  585MOL0     C80629   2.670   7.639   3.172  0.8472  0.2318 -0.0670
  585MOL0     C80630   2.589   7.718   3.275 -0.0972 -0.4657 -0.4419
  585MOL0     C80631   2.629   7.871   3.246  0.1642 -0.1396 -0.5779
  585MOL0     C80632   2.571   7.943   3.366  0.3014 -0.0325  0.2386
  585MOL0     C80633   2.580   8.096   3.339 -0.3370  0.7505 -0.2050
  585MOL0     C80634   2.533   8.169   3.458  0.4138  0.3756  0.5851
  585MOL0     C80635   2.407   8.117   3.527  0.5300  1.2247  0.1467
  585MOL0     C80636   2.351   8.214   3.636 -0.6836 -0.2724  0.3163
  585MOL0    Cl80637   2.481   8.251   3.759  0.4786  0.0531  0.7777
  585MOL0     C80638   3.028   7.631   3.286  1.6543 -0.4630 -0.0349
  585MOL0     C80639   3.104   7.566   3.376  0.9729  0.4758 -0.9744
  585MOL0     O80640   3.242   7.596   3.640  0.4826  0.1418 -0.7053
  585MOL0     C80641   3.090   7.318   3.818 -0.5418 -0.3451 -0.4184
  585MOL0     C80642   3.083   7.255   3.939  0.7432  0.1059 -0.2160
  585MOL0     N80643   2.651   7.435   4.552 -0.4196  0.0895  0.2886
  585MOL0     N80644   2.547   7.372   4.601 -0.6677  0.9410  0.6719
  585MOL0     C80645   2.965   6.427   5.272 -0.3308 -0.8198  0.1056
  585MOL0     C80646   3.007   6.382   5.406  0.5831  0.0205 -0.0619
  585MOL0     C80647   3.326   6.232   5.649  0.6888 -0.3574  0.0380
  585MOL0     C80648   3.405   6.269   5.756  0.4808 -0.4296 -0.9293
  585MOL0     C80649   3.463   6.173   5.832  0.8229 -0.2526 -0.3899
  585MOL0     C80650   3.444   6.036   5.815  0.4801  0.6448 -1.1969
  585MOL0     O80651   3.496   5.925   5.879  0.5268  0.4642  0.4206
  585MOL0     C80652   3.575   5.945   5.998 -0.0948  1.4519  0.9633
  585MOL0     C80653   3.702   5.859   5.999  0.3041 -0.1910 -0.3830
  585MOL0     C80654   3.801   5.921   6.108 -0.4730 -0.0629 -0.0206
  585MOL0     C80655   3.895   6.031   6.040 -0.8327  0.3153  0.0495
  585MOL0     C80656   4.005   6.067   6.128  0.6646 -0.5663 -0.4689
  585MOL0     C80657   4.085   6.101   6.219 -0.9955  0.7470  0.8281
  585MOL0     C80658   3.348   6.006   5.710 -1.5626  0.8022  0.1950
  585MOL0     C80659   3.290   6.098   5.628 -0.7581 -0.9811  0.1616
  585MOL0     C80660   3.226   6.038   5.504 -0.3999 -0.8142 -0.6375
  585MOL0     H80661   3.209   6.617   5.497  0.8819 -0.6223 -0.7977
  585MOL0     H80662   3.119   6.730   5.289 -1.6773  0.3232 -1.1295
  585MOL0     H80663   2.834   6.475   5.044  0.0507 -0.7421 -0.2534
  585MOL0     H80664   2.998   6.448   4.992  0.6316  1.6784  0.3641
  585MOL0     H80665   2.976   6.624   4.832 -0.1378  0.1496 -1.1786
  585MOL0     H80666   2.843   6.506   4.812  1.9169  0.6845 -1.8201
  585MOL0     H80667   2.713   6.690   4.961  1.9338 -1.1586  2.0691
  585MOL0     H80668   2.845   6.800   4.926  0.7078  0.4437 -1.6717
  585MOL0     H80669   2.800   6.781   4.668  0.5928 -0.5899 -0.3204
  585MOL0     H80670   2.678   6.675   4.692 -0.5115  0.8938  0.0786
  585MOL0     H80671   2.665   6.936   4.837 -1.5178  0.7802 -0.2676
  585MOL0     H80672   2.537   6.817   4.798  0.0750 -1.8711  0.1241
  585MOL0     H80673   2.681   7.002   4.593  0.6811 -0.7059  2.0727
  585MOL0     H80674   2.564   6.870   4.559  0.4406 -2.3941  0.3290
  585MOL0     H80675   2.396   6.996   4.692 -0.1117  0.7646  0.0557
  585MOL0     H80676   2.447   7.073   4.554 -1.4926 -1.3028 -0.9272
  585MOL0     H80677   2.427   7.225   4.783 -0.4234 -0.4409 -0.4045
  585MOL0     H80678   2.578   7.131   4.820 -0.3514  1.8347  1.1351
  585MOL0     H80679   2.797   7.182   4.676  1.3840  1.1871 -1.3800
  585MOL0     H80680   2.976   7.393   4.619  0.6563  2.6953  0.4497
  585MOL0     H80681   2.920   7.504   4.499  1.9943  0.2869 -1.6199
  585MOL0     H80682   2.975   7.215   4.471  0.4422 -1.9209 -2.4029
  585MOL0     H80683   2.887   7.306   4.347  4.2780  0.7731 -2.9572
  585MOL0     H80684   3.060   7.472   4.322 -0.8341  0.9524  2.2866
  585MOL0     H80685   3.147   7.408   4.467  0.3940 -1.2332  0.0779
  585MOL0     H80686   3.250   7.316   4.264 -0.2537 -0.7946 -0.7258
  585MOL0     H80687   3.173   7.185   4.348 -0.4615  0.1884  0.1499
  585MOL0     H80688   3.200   7.477   4.140  2.6742 -0.9131 -0.1898
  585MOL0     H80689   3.295   7.679   4.030  0.2098  1.6074 -0.9595
  585MOL0     H80690   3.194   7.722   3.895 -0.6501  0.7310  1.9471
  585MOL0     H80691   3.355   7.635   3.872 -0.7882  0.1571 -2.8103
  585MOL0     H80692   2.857   7.383   3.525  1.2849  0.2557  2.4088
  585MOL0     H80693   2.737   7.468   3.360  1.1368 -2.3221 -1.8667
  585MOL0     H80694   2.637   7.665   3.071 -0.5497 -2.5477 -0.4175
  585MOL0     H80695   2.652   7.533   3.190  3.6131 -0.5485 -1.2766
  585MOL0     H80696   2.481   7.722   3.257  0.2928  1.8684 -2.8295
  585MOL0     H80697   2.609   7.684   3.377 -2.3796  1.0778  0.6306
  585MOL0     H80698   2.574   7.913   3.161  1.3847  2.8121  0.0032
  585MOL0     H80699   2.735   7.895   3.235  0.3187 -0.1835  0.6923
  585MOL0     H80700   2.617   7.916   3.461 -1.6212  2.4880  2.0371
  585MOL0     H80701   2.463   7.925   3.377 -0.3163  3.8263  2.2583
  585MOL0     H80702   2.674   8.136   3.301 -0.1192  0.1147 -0.3475
  585MOL0     H80703   2.513   8.108   3.253  1.6685  0.4966 -1.8911
  585MOL0     H80704   2.524   8.274   3.428  0.8210  0.3621  0.4073
  585MOL0     H80705   2.612   8.169   3.534 -1.4012  1.4500  2.5776
  585MOL0     H80706   2.435   8.029   3.586  1.3123  1.0044 -0.5409
  585MOL0     H80707   2.331   8.101   3.450  0.1784 -0.7391  0.8484
  585MOL0     H80708   2.259   8.187   3.688  0.6440  1.1843  3.7108
  585MOL0     H80709   2.315   8.303   3.585  1.5061  0.3093 -0.3242
  585MOL0     H80710   3.072   7.709   3.226 -1.3777  1.0939 -0.4674
  585MOL0     H80711   3.208   7.592   3.391  0.5070  2.6591 -1.2704
  585MOL0     H80712   3.043   7.262   3.738 -0.8154 -1.8389  0.7269
  585MOL0     H80713   3.050   7.153   3.957 -2.1186  0.7266 -1.4449
  585MOL0     H80714   2.908   6.357   5.213 -0.8056  0.8019 -1.4289
  585MOL0     H80715   2.964   6.296   5.456  1.9780 -0.6811  0.0003
  585MOL0     H80716   3.435   6.372   5.767  1.4168 -0.7491 -0.4060
  585MOL0     H80717   3.521   6.201   5.920 -3.1623  0.1245  2.3586
  585MOL0     H80718   3.615   6.047   6.007  2.7492  0.4498  0.6257
  585MOL0     H80719   3.516   5.922   6.087  1.0568  0.3515  1.4649
  585MOL0     H80720   3.752   5.860   5.902  0.7075  2.2650 -0.2225
  585MOL0     H80721   3.669   5.761   6.035  2.0428 -1.7057 -2.6142
  585MOL0     H80722   3.752   5.975   6.189 -0.7085 -0.6740  0.2490
  585MOL0     H80723   3.864   5.844   6.154 -1.0955  0.7463  2.3132
  585MOL0     H80724   3.833   6.116   6.011 -4.8416 -1.7533  1.6797
  585MOL0     H80725   3.925   5.988   5.944  2.3979 -0.1551  1.1405
  585MOL0     H80726   4.170   6.120   6.282  1.0563 -0.4385 -1.4510
  585MOL0     H80727   3.322   5.902   5.696 -0.0184 -0.0004  2.7865
  585MOL0     H80728   3.206   6.116   5.429 -0.4466 -0.5170 -0.3156
  585MOL0     H80729   3.296   5.970   5.456  0.7239 -0.6598  0.7204
  585MOL0     H80730   3.132   5.990   5.533 -1.3727 -0.1357 -2.4711
  586MOL0     O80731   6.347   2.424   8.325  0.5485  0.0240 -0.9284
  586MOL0     C80732   6.381   2.485   8.223  0.2138 -0.5391  0.5082
  586MOL0     O80733   6.512   2.498   8.185 -0.3531 -0.4314 -0.2423
  586MOL0     C80734   6.607   2.420   8.234 -1.0569 -0.8672  0.2791
  586MOL0     C80735   6.695   2.362   8.142  0.0248  0.2863  0.1322
  586MOL0     C80736   6.801   2.288   8.189  0.5269  0.1506  1.1200
  586MOL0     C80737   6.838   2.285   8.323 -0.5022 -0.3084 -0.3942
  586MOL0     O80738   6.956   2.227   8.343  0.4380 -0.5724  0.7409
  586MOL0     C80739   7.026   2.259   8.459 -0.2904  1.0234  0.3752
  586MOL0     C80740   7.157   2.190   8.466 -0.3492  0.1382 -0.0575
  586MOL0     C80741   7.139   2.034   8.459  0.5185 -0.0717  0.2877
  586MOL0     C80742   7.187   1.981   8.326 -0.0476  0.0662  1.0306
  586MOL0     C80743   7.123   1.843   8.291 -0.4951 -0.4955 -0.4552
  586MOL0     C80744   7.151   1.729   8.397  0.2039  0.0907 -0.0568
  586MOL0     C80745   7.095   1.596   8.353  0.5031  0.0823  0.0468
  586MOL0     C80746   7.096   1.494   8.473  0.6049  0.6023  0.1514
  586MOL0     N80747   6.982   1.408   8.465  0.0059  0.9375  0.0874
  586MOL0     C80748   6.894   1.388   8.574  0.1657 -0.0829  0.7366
  586MOL0     C80749   6.824   1.279   8.535 -0.4943  0.2797  0.7413
  586MOL0     C80750   6.711   1.212   8.605  0.1257 -1.0946 -0.0152
  586MOL0     C80751   6.756   1.137   8.735  0.1459  0.2585  0.2824
  586MOL0     C80752   6.783   0.996   8.705  0.7314 -0.1272  0.4588
  586MOL0     C80753   6.829   0.926   8.837  0.7065 -0.0646 -0.4490
  586MOL0     O80754   6.824   0.783   8.818  0.4639  0.3727 -0.7360
  586MOL0     C80755   6.895   0.704   8.901 -0.1065  0.6683 -1.2727
  586MOL0     C80756   6.983   0.740   9.010  0.2995  0.4011 -0.4160
  586MOL0     C80757   7.073   0.650   9.065  0.6406  0.2511  0.5605
  586MOL0     C80758   7.161   0.716   9.167  0.2370 -0.0829  0.0608
  586MOL0     C80759   7.066   0.512   9.022 -0.2965 -0.1192 -0.8519
  586MOL0     C80760   7.152   0.402   9.087 -0.0100  0.2565  0.0784
  586MOL0     O80761   7.248   0.432   9.176 -0.0077 -0.2356  0.2799
  586MOL0     C80762   7.352   0.345   9.208 -0.9556  0.7445 -0.2554
  586MOL0     C80763   7.400   0.248   9.115 -0.2531 -0.3136 -0.9244
  586MOL0     C80764   7.494   0.156   9.166  0.1391 -0.0197 -0.3167
  586MOL0     C80765   7.550   0.167   9.297  1.1385 -0.1462 -1.4428
  586MOL0     O80766   7.636   0.090   9.356 -0.4477 -0.0713  0.3113
  586MOL0     C80767   7.619  -0.054   9.352 -0.0041  0.1058  0.0700
  586MOL0     C80768   7.602  -0.112   9.492 -0.7067  0.4843 -0.7441
  586MOL0     C80769   7.496  -0.066   9.583  1.0563  0.9860 -0.6881
  586MOL0     C80770   7.461  -0.174   9.689 -0.5195  0.4485 -0.2522
  586MOL0     C80771   7.563  -0.171   9.810  0.7158  0.3276 -0.3297
  586MOL0     C80772   7.497  -0.238   9.926 -0.2388  0.3284  0.1747
  586MOL0     C80773   7.571  -0.236  10.052 -0.4713  0.2444 -1.2171
  586MOL0     C80774   7.498  -0.285  10.171  0.1245 -0.5015  0.2140
  586MOL0    Cl80775   7.467  -0.470  10.178  0.2520 -0.1925  0.1235
  586MOL0     C80776   7.511   0.283   9.376  0.1779 -1.4226 -0.0673
  586MOL0     C80777   7.409   0.368   9.336  0.1145  0.6853  0.6103
  586MOL0     O80778   7.124   0.287   9.063  0.0057  1.4918  1.1647
  586MOL0     C80779   6.970   0.477   8.929  0.4917  0.2503  0.1877
  586MOL0     C80780   6.891   0.571   8.864  0.1185  0.8851 -0.8165
  586MOL0     N80781   6.880   1.227   8.423 -0.3142 -0.0195 -0.4125
  586MOL0     N80782   6.972   1.301   8.379 -0.4575 -0.2901  0.6004
  586MOL0     C80783   6.751   2.352   8.410 -0.3642  0.0538  0.7718
  586MOL0     C80784   6.637   2.425   8.372 -0.6025  1.8299  0.1794
  586MOL0     C80785   6.274   2.564   8.159 -0.2519 -0.9742  0.8254
  586MOL0     C80786   6.139   2.544   8.212  0.0060 -0.3837 -0.6110
  586MOL0     C80787   6.035   2.607   8.145 -0.2487  0.1890 -0.7918
  586MOL0     C80788   6.055   2.688   8.044  0.4198 -0.0131 -0.1433
  586MOL0     O80789   5.955   2.757   7.982 -0.2621 -0.6753  0.6774
  586MOL0     C80790   5.822   2.751   8.049  0.3069  0.2211  0.3986
  586MOL0     C80791   5.735   2.870   8.008 -0.7596  0.0613 -0.2104
  586MOL0     C80792   5.745   2.912   7.862 -0.3732  1.0892  0.0406
  586MOL0     C80793   5.658   3.033   7.846 -0.5567 -0.4912  0.2422
  586MOL0     C80794   5.513   3.008   7.823  0.3358  0.0169 -0.7294
  586MOL0     C80795   5.403   2.953   7.820  0.5354  0.4091  0.1962
  586MOL0     C80796   6.183   2.715   7.998 -0.9242  0.6976  0.3158
  586MOL0     C80797   6.293   2.652   8.044  0.1690  0.0956  0.0799
  586MOL0     C80798   6.422   2.681   7.981 -0.6991  0.2761 -0.3563
  586MOL0     H80799   6.675   2.372   8.035  0.6596  1.2364  0.0854
  586MOL0     H80800   6.870   2.245   8.118 -0.5281  0.5253 -0.1689
  586MOL0     H80801   6.967   2.217   8.542 -1.9505  3.3908  0.4855
  586MOL0     H80802   7.022   2.368   8.470  1.4667  1.2369 -0.6562
  586MOL0     H80803   7.227   2.238   8.397  0.9092  0.0584  1.1329
  586MOL0     H80804   7.201   2.209   8.564  0.1302  0.7075 -0.3736
  586MOL0     H80805   7.194   1.987   8.541 -0.7164  2.3057  2.6166
  586MOL0     H80806   7.032   2.016   8.472 -0.1018  2.7768 -0.2106
  586MOL0     H80807   7.161   2.043   8.240 -2.7818 -0.3600  1.4480
  586MOL0     H80808   7.294   1.960   8.321 -0.2239 -0.5149 -1.8068
  586MOL0     H80809   7.162   1.819   8.191 -3.6932 -0.5798 -1.7848
  586MOL0     H80810   7.016   1.857   8.278 -0.8241  2.7871  3.6382
  586MOL0     H80811   7.261   1.724   8.401  0.2690  1.2236 -0.0705
  586MOL0     H80812   7.112   1.752   8.496  1.3865  2.1015 -0.0008
  586MOL0     H80813   7.160   1.557   8.274  2.5382 -1.0086  2.1595
  586MOL0     H80814   6.991   1.616   8.323  0.5711  4.3469  1.9205
  586MOL0     H80815   7.182   1.426   8.481 -1.1066 -1.4687  2.7978
  586MOL0     H80816   7.097   1.533   8.575  2.2696 -2.3570  1.3955
  586MOL0     H80817   6.882   1.455   8.659  0.2110 -0.6534  1.1978
  586MOL0     H80818   6.655   1.149   8.534  0.1279 -3.1089  1.6756
  586MOL0     H80819   6.647   1.293   8.640  2.2720  0.4245  0.5311
  586MOL0     H80820   6.847   1.192   8.763  1.3402 -0.7758 -1.3428
  586MOL0     H80821   6.683   1.139   8.816  0.0988  0.0301  0.2466
  586MOL0     H80822   6.694   0.943   8.668  1.8372 -0.7374 -1.4945
  586MOL0     H80823   6.863   0.986   8.631 -2.9111 -0.2741 -3.8742
  586MOL0     H80824   6.925   0.970   8.865 -1.1431  3.4443  0.9883
  586MOL0     H80825   6.770   0.950   8.926  0.3520  0.0157 -0.7025
  586MOL0     H80826   6.975   0.843   9.044  0.3606  0.4549 -0.5636
  586MOL0     H80827   7.079   0.741   9.236 -0.8475  0.9127 -1.5208
  586MOL0     H80828   7.198   0.806   9.116  0.9040 -0.6192 -0.4197
  586MOL0     H80829   7.250   0.666   9.205 -0.9430 -1.9113  0.5175
  586MOL0     H80830   7.354   0.237   9.017 -0.6455 -0.4022 -0.7314
  586MOL0     H80831   7.533   0.085   9.095 -2.8765  0.0798 -2.2196
  586MOL0     H80832   7.536  -0.084   9.287  0.7245 -1.7371 -0.0515
  586MOL0     H80833   7.708  -0.094   9.304  2.6003  3.5513  1.5853
  586MOL0     H80834   7.599  -0.221   9.483  1.5290  0.4491 -1.5942
  586MOL0     H80835   7.692  -0.086   9.547 -2.4016  1.9947  1.5145
  586MOL0     H80836   7.405  -0.033   9.533 -2.9296 -1.3080  4.1789
  586MOL0     H80837   7.532   0.030   9.623  1.1182  0.8812 -0.4869
  586MOL0     H80838   7.459  -0.267   9.631  2.1442  0.3228 -0.2458
  586MOL0     H80839   7.360  -0.154   9.725 -0.6970  0.8552 -0.9507
  586MOL0     H80840   7.661  -0.211   9.784  0.4759  0.0108 -0.7651
  586MOL0     H80841   7.587  -0.066   9.833  1.4158  0.0427  0.2883
  586MOL0     H80842   7.489  -0.339   9.885 -0.8164 -0.1838  1.4938
  586MOL0     H80843   7.394  -0.205   9.938  0.7217  3.7490  0.2406
  586MOL0     H80844   7.594  -0.134  10.085 -0.3863 -0.0262 -0.4079
  586MOL0     H80845   7.665  -0.292  10.051 -1.3540 -1.3383 -0.1493
  586MOL0     H80846   7.398  -0.240  10.171 -0.3786 -1.4606 -1.9912
  586MOL0     H80847   7.560  -0.258  10.256 -1.1916 -0.3537  1.1521
  586MOL0     H80848   7.546   0.293   9.479 -0.6153 -0.5561  0.1272
  586MOL0     H80849   7.367   0.452   9.390 -3.2749 -1.5374  1.7581
  586MOL0     H80850   6.952   0.376   8.893  1.1587  0.9826 -2.4607
  586MOL0     H80851   6.827   0.540   8.782  1.3366 -3.7378 -0.2897
  586MOL0     H80852   6.776   2.341   8.515 -1.6893  0.1999  1.1208
  586MOL0     H80853   6.591   2.493   8.444 -0.6869 -0.9192  2.9713
  586MOL0     H80854   6.118   2.497   8.308  0.9782  3.1000  1.5268
  586MOL0     H80855   5.936   2.579   8.181  0.1163 -0.1630 -0.0453
  586MOL0     H80856   5.764   2.661   8.024 -1.8828  2.1677 -2.0826
  586MOL0     H80857   5.836   2.759   8.157 -0.9112  2.4557  0.4353
  586MOL0     H80858   5.757   2.946   8.083  1.9725 -0.9881  0.1427
  586MOL0     H80859   5.636   2.833   8.036 -0.0355 -0.7803  1.4181
  586MOL0     H80860   5.842   2.961   7.851 -0.9740  2.1334 -0.8120
  586MOL0     H80861   5.725   2.830   7.792  2.4595  1.7039 -1.6588
  586MOL0     H80862   5.687   3.092   7.758  0.0218 -2.1865 -0.7655
  586MOL0     H80863   5.669   3.103   7.929  1.5324  0.4578 -0.7612
  586MOL0     H80864   5.305   2.910   7.814  1.3006 -1.2794 -1.1511
  586MOL0     H80865   6.199   2.780   7.912 -2.8902  1.1442  0.2410
  586MOL0     H80866   6.463   2.592   7.931  1.0076 -0.1207  1.6052
  586MOL0     H80867   6.416   2.745   7.893  0.7895  3.4320  1.6796
  586MOL0     H80868   6.497   2.720   8.049 -1.5989 -0.1236  0.9039
  587MOL0     O80869   0.080   9.093   8.260  0.9004 -0.3851  0.4259
  587MOL0     C80870  -0.034   9.074   8.298 -0.2274 -1.3561 -0.2012
  587MOL0     O80871  -0.084   9.121   8.420 -0.5108 -0.1858  0.3123
  587MOL0     C80872  -0.004   9.169   8.516 -0.2278  0.4521 -0.2214
  587MOL0     C80873   0.105   9.098   8.569 -0.2766  0.6502 -0.5795
  587MOL0     C80874   0.187   9.147   8.673  1.0511  0.1128 -0.1116
  587MOL0     C80875   0.168   9.279   8.714  0.3827  0.6933  0.2924
  587MOL0     O80876   0.258   9.314   8.811 -0.0145 -0.2599 -0.0852
  587MOL0     C80877   0.311   9.444   8.819 -0.2128 -1.0297  0.6125
  587MOL0     C80878   0.461   9.428   8.829  0.2782  1.2198  0.1988
  587MOL0     C80879   0.525   9.352   8.709 -0.6894  0.1010  1.0605
  587MOL0     C80880   0.521   9.436   8.585 -0.2373 -0.2444 -0.1416
  587MOL0     C80881   0.542   9.358   8.448  0.4510 -0.4132 -0.0168
  587MOL0     C80882   0.443   9.240   8.432 -1.1073  0.6677  0.1870
  587MOL0     C80883   0.437   9.194   8.281  0.7244 -0.2096  0.0373
  587MOL0     C80884   0.352   9.293   8.203 -0.3736 -0.3661 -0.0350
  587MOL0     N80885   0.357   9.265   8.053  0.7528  0.7510 -0.4063
  587MOL0     C80886   0.269   9.329   7.974  0.6333 -0.1474 -0.2373
  587MOL0     C80887   0.312   9.287   7.850 -0.0669  0.1950 -0.3331
  587MOL0     C80888   0.251   9.337   7.713  0.2364  0.1260 -0.3259
  587MOL0     C80889   0.158   9.236   7.659 -0.3739  0.5810 -0.5919
  587MOL0     C80890   0.021   9.210   7.719  0.3907  0.4292 -0.2715
  587MOL0     C80891  -0.084   9.327   7.694 -0.2935  0.4439 -0.8036
  587MOL0     O80892  -0.211   9.285   7.743  0.0007  0.3831  0.4779
  587MOL0     C80893  -0.244   9.283   7.880  0.4365 -0.1092 -0.4392
  587MOL0     C80894  -0.167   9.352   7.974 -0.0807  0.1252 -0.0055
  587MOL0     C80895  -0.200   9.353   8.107 -0.4416 -1.7743 -1.1120
  587MOL0     C80896  -0.114   9.425   8.205  0.1996 -0.4118 -0.2894
  587MOL0     C80897  -0.324   9.295   8.147 -0.1219 -0.6554  0.2488
  587MOL0     C80898  -0.379   9.278   8.283  0.4376  0.0662 -0.5742
  587MOL0     O80899  -0.513   9.258   8.294  0.5702 -0.0798 -0.3265
  587MOL0     C80900  -0.579   9.253   8.413 -0.7586 -0.5228 -0.6471
  587MOL0     C80901  -0.704   9.319   8.423  0.6971 -0.0348  0.4516
  587MOL0     C80902  -0.771   9.316   8.545  0.8929 -0.1847  0.3049
  587MOL0     C80903  -0.724   9.248   8.655 -0.4296  0.0466  0.2146
  587MOL0     O80904  -0.811   9.248   8.768 -0.2346  0.3895  0.1346
  587MOL0     C80905  -0.762   9.329   8.876  0.6365  0.4197 -0.8483
  587MOL0     C80906  -0.888   9.331   8.968  0.4439  0.5912  0.0878
  587MOL0     C80907  -0.933   9.185   9.006 -0.0131 -0.3654 -0.1545
  587MOL0     C80908  -1.014   9.190   9.137 -0.0091  0.2033 -0.3460
  587MOL0     C80909  -1.069   9.060   9.184  0.3065 -0.1457 -0.3483
  587MOL0     C80910  -1.141   9.089   9.317  0.9886  1.1523 -0.0869
  587MOL0     C80911  -1.188   8.948   9.367  0.4775  0.3139 -1.0552
  587MOL0     C80912  -1.287   8.935   9.477 -0.5468  0.5136 -0.6566
  587MOL0    Cl80913  -1.189   8.983   9.621  0.0399 -0.3399  0.1746
  587MOL0     C80914  -0.597   9.181   8.646  0.0224 -0.0002  0.0631
  587MOL0     C80915  -0.524   9.191   8.524 -0.0216  0.3597 -0.0951
  587MOL0     O80916  -0.305   9.298   8.382  0.2581 -0.3616  0.8504
  587MOL0     C80917  -0.410   9.246   8.047 -0.0150  0.5794  0.3770
  587MOL0     C80918  -0.363   9.229   7.918  0.6888 -0.7031  0.4823
  587MOL0     N80919   0.425   9.207   7.864 -0.9855  0.3444 -0.3481
  587MOL0     N80920   0.450   9.195   7.990 -0.0428 -0.0022 -0.4111
  587MOL0     C80921   0.064   9.349   8.660 -0.1747  0.2267  0.4736
  587MOL0     C80922  -0.026   9.294   8.563 -0.0315 -0.3019  0.1205
  587MOL0     C80923  -0.121   9.011   8.202 -0.5020 -0.1941  0.1161
  587MOL0     C80924  -0.102   9.035   8.066 -0.9814  0.1766  0.0185
  587MOL0     C80925  -0.178   8.971   7.968 -0.2537 -0.4670 -0.3758
  587MOL0     C80926  -0.283   8.880   8.004  0.7999 -0.1814 -0.8035
  587MOL0     O80927  -0.373   8.809   7.924 -0.2048 -0.2914  0.8253
  587MOL0     C80928  -0.348   8.808   7.777 -1.0514 -0.0625 -0.0317
  587MOL0     C80929  -0.372   8.659   7.735  0.2421  0.0008  0.0127
  587MOL0     C80930  -0.269   8.564   7.813  0.2007 -0.0359  0.1247
  587MOL0     C80931  -0.224   8.441   7.738 -0.4732 -0.0940  0.2898
  587MOL0     C80932  -0.139   8.497   7.629 -0.0443 -0.2723  1.2058
  587MOL0     C80933  -0.069   8.546   7.545  0.2106 -0.2611  0.3501
  587MOL0     C80934  -0.307   8.858   8.142 -0.2039 -0.4794 -0.0678
  587MOL0     C80935  -0.227   8.923   8.237  0.6791  0.1230  0.5175
  587MOL0     C80936  -0.257   8.881   8.377 -0.7084 -0.1866  0.4976
  587MOL0     H80937   0.119   9.003   8.517 -3.0442  0.9610 -2.1018
  587MOL0     H80938   0.267   9.088   8.717 -1.1635 -1.7793  1.5920
  587MOL0     H80939   0.272   9.501   8.904 -0.1747  1.0422 -0.7002
  587MOL0     H80940   0.279   9.496   8.728  0.4820 -0.5320  0.6386
  587MOL0     H80941   0.513   9.525   8.836  0.2115  1.4250 -1.6052
  587MOL0     H80942   0.475   9.375   8.923 -2.0955  0.4346  0.1688
  587MOL0     H80943   0.628   9.328   8.736 -0.2176  0.7103 -0.1235
  587MOL0     H80944   0.469   9.260   8.695 -2.6347  1.0644  2.1431
  587MOL0     H80945   0.427   9.491   8.576  1.6038  2.8847 -1.9187
  587MOL0     H80946   0.597   9.513   8.603 -0.6423  0.1079  0.0564
  587MOL0     H80947   0.648   9.331   8.462  0.0415 -1.7500  0.7060
  587MOL0     H80948   0.538   9.420   8.358 -1.0663 -0.4552  0.0006
  587MOL0     H80949   0.472   9.152   8.489  0.2522 -0.6800 -2.3881
  587MOL0     H80950   0.343   9.272   8.464 -2.2460 -2.8194  0.5827
  587MOL0     H80951   0.386   9.098   8.265  1.1464 -0.6228  1.1208
  587MOL0     H80952   0.540   9.192   8.245  1.0819  1.5162  0.8447
  587MOL0     H80953   0.250   9.292   8.242  0.5612 -0.1322  2.6037
  587MOL0     H80954   0.383   9.396   8.221  2.5402 -0.9986 -0.8406
  587MOL0     H80955   0.183   9.392   7.988  1.8080  1.4753 -0.0634
  587MOL0     H80956   0.332   9.345   7.640  1.9384 -1.7257  1.2351
  587MOL0     H80957   0.198   9.431   7.730 -0.9994 -0.8755  1.8636
  587MOL0     H80958   0.134   9.267   7.557  1.7336  0.4146 -1.2049
  587MOL0     H80959   0.203   9.136   7.658 -0.4115  0.5685 -1.2531
  587MOL0     H80960  -0.030   9.131   7.664  0.2571  0.8976 -0.8215
  587MOL0     H80961   0.024   9.193   7.828  0.3247 -1.9924 -0.5971
  587MOL0     H80962  -0.055   9.427   7.727 -1.0369  0.6476 -0.7441
  587MOL0     H80963  -0.106   9.336   7.587  2.8879  0.0900 -1.5848
  587MOL0     H80964  -0.078   9.406   7.944  1.2577 -2.1374 -0.3627
  587MOL0     H80965  -0.178   9.472   8.280  0.3256 -3.0162  1.5660
  587MOL0     H80966  -0.051   9.505   8.164 -0.6722 -0.2616 -1.3940
  587MOL0     H80967  -0.049   9.357   8.260 -0.2790 -0.3505  0.3679
  587MOL0     H80968  -0.733   9.365   8.329  4.7419  3.2813  0.5331
  587MOL0     H80969  -0.871   9.357   8.553  0.6776 -0.6780  0.1747
  587MOL0     H80970  -0.667   9.289   8.913  3.8205  1.0195 -7.1018
  587MOL0     H80971  -0.734   9.428   8.839 -1.3338  1.1831 -0.4821
  587MOL0     H80972  -0.869   9.399   9.051  0.7196  1.8114 -0.9370
  587MOL0     H80973  -0.969   9.384   8.917  2.1795  1.8239 -1.5332
  587MOL0     H80974  -0.839   9.132   9.024  1.4799  1.3650 -2.2458
  587MOL0     H80975  -0.989   9.135   8.927  0.2030  0.6564 -0.9791
  587MOL0     H80976  -1.102   9.251   9.115  0.1913 -0.1657 -2.3127
  587MOL0     H80977  -0.945   9.234   9.210  0.8888 -0.4299 -0.7873
  587MOL0     H80978  -1.148   9.029   9.116 -0.7717  2.8972 -0.6405
  587MOL0     H80979  -0.990   8.991   9.214  0.1078 -0.1764  0.1127
  587MOL0     H80980  -1.219   9.166   9.311  2.2284  2.5803  1.2437
  587MOL0     H80981  -1.060   9.121   9.384  1.7576  0.8069 -0.8281
  587MOL0     H80982  -1.103   8.885   9.395 -1.1759 -1.3704  0.4371
  587MOL0     H80983  -1.241   8.902   9.283 -1.3777 -2.2336  1.3184
  587MOL0     H80984  -1.326   8.833   9.476  2.4453 -0.7596 -2.9224
  587MOL0     H80985  -1.368   9.003   9.451  0.6530  1.3412 -2.4572
  587MOL0     H80986  -0.583   9.134   8.742 -2.6418  1.0614  1.0798
  587MOL0     H80987  -0.427   9.142   8.527  0.2478  0.8750 -0.3544
  587MOL0     H80988  -0.508   9.206   8.072  1.9205 -2.9871  3.4034
  587MOL0     H80989  -0.416   9.179   7.838  4.3981 -1.9998 -1.3967
  587MOL0     H80990   0.039   9.449   8.694  2.1948  0.1464  2.7612
  587MOL0     H80991  -0.102   9.359   8.522  1.4230  1.3725 -0.0371
  587MOL0     H80992  -0.020   9.094   8.027 -0.2149 -0.9095 -0.0615
  587MOL0     H80993  -0.146   8.983   7.865  0.5978  1.2235  0.0612
  587MOL0     H80994  -0.407   8.877   7.716 -1.8538  0.6060  1.4490
  587MOL0     H80995  -0.246   8.845   7.759 -0.8065  0.9182  2.7559
  587MOL0     H80996  -0.356   8.647   7.627 -0.5444 -1.4098  0.0401
  587MOL0     H80997  -0.476   8.631   7.753 -0.8551  3.4126 -0.1892
  587MOL0     H80998  -0.181   8.625   7.835 -0.1010 -0.2984  2.3932
  587MOL0     H80999  -0.306   8.546   7.915  2.1522  1.9106  1.2615
  587MOL0     H81000  -0.313   8.387   7.705 -1.5184  1.1736  0.9229
  587MOL0     H81001  -0.157   8.369   7.786 -0.8453 -0.8579 -0.3102
  587MOL0     H81002  -0.004   8.586   7.471  0.2523  1.3706  1.2234
  587MOL0     H81003  -0.379   8.780   8.166 -0.9228 -0.7464 -2.7599
  587MOL0     H81004  -0.307   8.783   8.375  0.8344 -1.0149  0.8456
  587MOL0     H81005  -0.165   8.869   8.435  0.9275  0.1243 -1.9369
  587MOL0     H81006  -0.320   8.958   8.423 -0.9461 -0.1645  0.1373
  588MOL0     O81007   9.646   3.419   1.420 -0.1482  0.8927 -0.3146
  588MOL0     C81008   9.612   3.516   1.356 -0.7589  0.6817 -0.6126
  588MOL0     O81009   9.671   3.641   1.352 -0.7384  0.5860 -1.0736
  588MOL0     C81010   9.793   3.666   1.416 -0.1228  0.2085 -0.3507
  588MOL0     C81011   9.789   3.714   1.541  0.8490  0.2096  0.8149
  588MOL0     C81012   9.898   3.755   1.608 -0.6273  0.4406  0.1772
  588MOL0     C81013  10.025   3.756   1.546  0.8290 -0.0926  0.8729
  588MOL0     O81014  10.130   3.807   1.617 -0.2745  0.4355  0.7561
  588MOL0     C81015  10.233   3.870   1.541 -0.3369 -0.2254 -0.6535
  588MOL0     C81016  10.325   3.960   1.615 -0.1074 -0.6320 -0.1266
  588MOL0     C81017  10.458   3.980   1.540 -0.5166 -0.0792  0.2483
  588MOL0     C81018  10.548   4.102   1.597  0.5889 -0.2401  0.4531
  588MOL0     C81019  10.619   4.070   1.736  0.1684 -0.3249 -0.7542
  588MOL0     C81020  10.729   3.961   1.717  1.4824  0.3980  0.0869
  588MOL0     C81021  10.823   3.952   1.829  0.1647  0.0611 -0.0571
  588MOL0     C81022  10.904   4.087   1.849 -0.2575  0.1730  0.9384
  588MOL0     N81023  11.021   4.045   1.923  0.4271 -0.4030  0.3674
  588MOL0     C81024  11.114   3.953   1.884 -0.6579  0.4757  0.0563
  588MOL0     C81025  11.184   3.918   2.001 -0.0198 -0.0523 -0.2280
  588MOL0     C81026  11.316   3.835   2.003  0.3034  0.0595 -0.5823
  588MOL0     C81027  11.435   3.927   1.993 -0.0926 -0.0334  0.1577
  588MOL0     C81028  11.575   3.874   1.994  0.4130 -0.3704  0.8264
  588MOL0     C81029  11.613   3.833   2.139 -0.4604  0.1401 -1.2770
  588MOL0     O81030  11.665   3.935   2.226  0.9647  0.4772 -0.3286
  588MOL0     C81031  11.796   3.952   2.237 -0.6900 -0.2204 -0.1656
  588MOL0     C81032  11.830   4.039   2.342  0.3503  0.3052  0.7660
  588MOL0     C81033  11.962   4.076   2.376 -0.5884  0.0146 -0.5526
  588MOL0     C81034  11.977   4.164   2.489  0.7986 -0.0378  0.4902
  588MOL0     C81035  12.068   4.012   2.296 -0.0097 -1.1252 -0.1779
  588MOL0     C81036  12.205   4.040   2.322 -0.1417 -0.2452 -0.3001
  588MOL0     O81037  12.245   4.142   2.406 -0.3966 -0.4667  0.1262
  588MOL0     C81038  12.375   4.189   2.390  0.1738  0.5862 -0.6032
  588MOL0     C81039  12.381   4.306   2.326  0.1297 -0.7531 -0.7710
  588MOL0     C81040  12.509   4.373   2.306  0.8903  0.9467  1.0946
  588MOL0     C81041  12.628   4.303   2.340  0.7742 -0.0899 -0.0501
  588MOL0     O81042  12.753   4.343   2.299 -0.1116 -0.5148  0.0680
  588MOL0     C81043  12.768   4.452   2.203 -0.2879 -0.1586 -0.1900
  588MOL0     C81044  12.908   4.492   2.167 -0.0848  0.5811 -0.3511
  588MOL0     C81045  12.988   4.530   2.287 -0.7496 -0.4277 -0.0763
  588MOL0     C81046  13.137   4.535   2.265  0.4133 -0.1244 -0.2751
  588MOL0     C81047  13.210   4.616   2.366  0.5614  0.0383  0.5099
  588MOL0     C81048  13.370   4.610   2.367  0.1867  0.3881 -0.1561
  588MOL0     C81049  13.417   4.659   2.501 -0.0496  0.1380  0.3738
  588MOL0     C81050  13.569   4.680   2.515 -0.0705  0.8209  0.5496
  588MOL0    Cl81051  13.626   4.719   2.687 -0.2839 -0.2329 -0.3173
  588MOL0     C81052  12.619   4.178   2.405  0.9362 -1.1493 -0.3636
  588MOL0     C81053  12.495   4.127   2.440  0.1438  0.3059 -0.4025
  588MOL0     O81054  12.282   3.979   2.244  0.3901 -0.5773  0.0322
  588MOL0     C81055  12.032   3.928   2.188 -0.0135  0.0073 -0.1723
  588MOL0     C81056  11.897   3.890   2.157 -0.9125 -0.6944  0.4170
  588MOL0     N81057  11.135   3.991   2.102  0.1170  0.4871  0.0530
  588MOL0     N81058  11.034   4.057   2.060 -0.7747 -0.5326 -0.3504
  588MOL0     C81059  10.036   3.707   1.417  0.0003 -0.7071  0.7146
  588MOL0     C81060   9.916   3.664   1.350 -0.6829 -0.0723  0.3457
  588MOL0     C81061   9.481   3.503   1.276 -0.2946  0.2251 -0.8081
  588MOL0     C81062   9.456   3.592   1.169 -0.0825  0.5251 -0.3060
  588MOL0     C81063   9.333   3.594   1.099 -0.6759  0.7651  0.1120
  588MOL0     C81064   9.249   3.490   1.115 -0.4678 -0.7660  1.1925
  588MOL0     O81065   9.125   3.503   1.048  0.1946  0.3949  0.1265
  588MOL0     C81066   9.034   3.394   1.049 -0.2097 -0.8858  0.5234
  588MOL0     C81067   8.922   3.397   0.948 -0.2273 -1.1043 -0.0320
  588MOL0     C81068   8.838   3.527   0.965 -0.1780 -0.0044 -0.4867
  588MOL0     C81069   8.890   3.644   0.871  0.0540  0.7387  0.3710
  588MOL0     C81070   8.848   3.614   0.734  0.0234 -0.7704  0.4060
  588MOL0     C81071   8.819   3.569   0.627 -0.5876 -0.3824  1.0003
  588MOL0     C81072   9.278   3.397   1.220 -0.3048  0.0326  0.8833
  588MOL0     C81073   9.386   3.407   1.301 -0.5859 -1.2263  0.3673
  588MOL0     C81074   9.398   3.301   1.410  0.0288 -0.1046 -0.5653
  588MOL0     H81075   9.690   3.721   1.584  0.2407 -4.3327  0.6649
  588MOL0     H81076   9.885   3.800   1.707 -0.9297 -0.2434  0.4533
  588MOL0     H81077  10.170   3.928   1.471 -3.2714 -1.6299  0.6478
  588MOL0     H81078  10.287   3.792   1.487  2.7804 -1.2768  3.5042
  588MOL0     H81079  10.283   4.058   1.636 -0.0246 -0.8181  1.0110
  588MOL0     H81080  10.339   3.910   1.712 -0.4585  0.9480  0.7705
  588MOL0     H81081  10.531   3.898   1.536  1.6418  1.7819 -0.3346
  588MOL0     H81082  10.433   4.005   1.437 -0.0842  3.2137  0.8309
  588MOL0     H81083  10.627   4.119   1.523 -0.2636 -0.9222 -0.6548
  588MOL0     H81084  10.490   4.194   1.609 -1.4764 -1.1789 -1.5944
  588MOL0     H81085  10.554   4.052   1.822  0.5285  2.5954  0.2532
  588MOL0     H81086  10.659   4.169   1.763  1.4257 -1.5367  2.2383
  588MOL0     H81087  10.678   3.865   1.703 -0.1949  1.2784 -0.0217
  588MOL0     H81088  10.778   3.993   1.624  3.3263 -0.8526  0.5640
  588MOL0     H81089  10.892   3.873   1.800  0.4126  0.6030 -0.9901
  588MOL0     H81090  10.780   3.929   1.927 -0.9609  2.7711  0.1762
  588MOL0     H81091  10.938   4.137   1.758 -1.2782 -0.1034  0.3805
  588MOL0     H81092  10.847   4.166   1.899 -0.4634 -0.3112  1.4939
  588MOL0     H81093  11.133   3.936   1.779  4.5735  0.3529  0.7759
  588MOL0     H81094  11.307   3.773   1.913 -0.1311  2.8958 -2.6229
  588MOL0     H81095  11.311   3.784   2.100  1.9913  1.2765  0.2021
  588MOL0     H81096  11.419   3.983   1.901 -1.3218  0.8681  0.8787
  588MOL0     H81097  11.442   4.005   2.070  1.4037  0.0151  0.0180
  588MOL0     H81098  11.580   3.791   1.922  1.6304  0.6029 -0.2778
  588MOL0     H81099  11.634   3.959   1.958 -2.0813  0.5334 -1.4468
  588MOL0     H81100  11.514   3.811   2.180 -0.5818  0.3796 -1.4388
  588MOL0     H81101  11.677   3.745   2.146  2.0270  1.8807 -0.4137
  588MOL0     H81102  11.756   4.080   2.409  0.8251 -0.2692  1.6502
  588MOL0     H81103  11.888   4.177   2.551 -0.0149 -0.9903 -0.4444
  588MOL0     H81104  12.003   4.264   2.452 -2.0576  0.7955  0.5183
  588MOL0     H81105  12.058   4.128   2.554 -0.2048 -1.8298  0.8021
  588MOL0     H81106  12.288   4.349   2.291  0.5398  0.6126 -0.2315
  588MOL0     H81107  12.510   4.474   2.264  1.2248 -0.6236 -3.1710
  588MOL0     H81108  12.717   4.430   2.109 -0.4967  0.2359 -0.1706
  588MOL0     H81109  12.717   4.541   2.241  0.6719  1.1906 -1.9105
  588MOL0     H81110  12.966   4.408   2.127  1.1213  0.5118  1.4268
  588MOL0     H81111  12.901   4.567   2.088  1.7355 -1.4751 -2.6398
  588MOL0     H81112  12.984   4.462   2.372 -0.7688  0.3359  0.5507
  588MOL0     H81113  12.942   4.623   2.321 -0.5100  0.2417 -1.5218
  588MOL0     H81114  13.157   4.587   2.170 -3.3822  3.3131  0.5233
  588MOL0     H81115  13.175   4.433   2.253  0.5599 -0.0816 -0.1820
  588MOL0     H81116  13.165   4.716   2.373 -3.3143 -1.4970 -0.3500
  588MOL0     H81117  13.184   4.574   2.464  1.9978 -3.1525 -0.3494
  588MOL0     H81118  13.413   4.675   2.290 -2.7839  1.8699 -0.6845
  588MOL0     H81119  13.407   4.509   2.347 -1.3473  0.2805 -2.9038
  588MOL0     H81120  13.396   4.592   2.585  0.0769  0.4735  0.6758
  588MOL0     H81121  13.363   4.749   2.535  0.2420  0.2773  0.4675
  588MOL0     H81122  13.610   4.763   2.456 -0.6372 -0.2123 -1.4039
  588MOL0     H81123  13.627   4.594   2.479 -1.3654 -0.1800  0.7974
  588MOL0     H81124  12.713   4.125   2.416  3.2249  2.4932 -0.7068
  588MOL0     H81125  12.495   4.035   2.497  1.5143 -1.0022 -2.3853
  588MOL0     H81126  12.106   3.865   2.139 -1.2451 -0.4154 -1.5592
  588MOL0     H81127  11.874   3.807   2.091 -0.1389 -1.5268  1.1568
  588MOL0     H81128  10.127   3.715   1.359  0.3850  0.7195  1.4724
  588MOL0     H81129   9.910   3.627   1.248  2.6634  0.5686 -0.1957
  588MOL0     H81130   9.527   3.671   1.148  1.4763 -0.2269  1.7848
  588MOL0     H81131   9.326   3.681   1.034 -1.7426  0.8072  0.2622
  588MOL0     H81132   9.094   3.307   1.017 -1.7703 -1.1126 -2.0729
  588MOL0     H81133   8.984   3.383   1.146  0.1241  2.0099  1.0991
  588MOL0     H81134   8.853   3.312   0.948 -0.4583 -0.9440 -1.6642
  588MOL0     H81135   8.953   3.380   0.844 -2.2940  0.5647 -0.9823
  588MOL0     H81136   8.736   3.498   0.939 -0.3162 -2.5672  2.4306
  588MOL0     H81137   8.831   3.556   1.070 -1.3535 -2.1086  0.0787
  588MOL0     H81138   8.999   3.649   0.876  0.2545 -1.3802 -0.8871
  588MOL0     H81139   8.840   3.738   0.898 -2.1475 -0.6120  1.2378
  588MOL0     H81140   8.802   3.534   0.527  0.3539  0.4929  0.5041
  588MOL0     H81141   9.197   3.325   1.229  0.0945 -1.3656 -3.9538
  588MOL0     H81142   9.461   3.332   1.493  3.2062 -3.2615 -1.5216
  588MOL0     H81143   9.297   3.278   1.445  0.4781 -0.2647  0.6438
  588MOL0     H81144   9.440   3.208   1.369  1.6033  0.0402  0.6445
  589MOL0     O81145   2.339   4.173   1.847  0.2825  0.0694 -0.3615
  589MOL0     C81146   2.377   4.256   1.931 -0.4090  0.1579  0.4047
  589MOL0     O81147   2.371   4.398   1.923 -0.5797  0.2431 -0.6033
  589MOL0     C81148   2.278   4.453   1.840 -0.3457 -0.3101 -0.2357
  589MOL0     C81149   2.154   4.403   1.806  0.2209 -0.2700 -0.0530
  589MOL0     C81150   2.072   4.468   1.719 -0.3024 -0.5036  0.5252
  589MOL0     C81151   2.102   4.600   1.679  0.4660  0.1060 -0.4213
  589MOL0     O81152   2.017   4.660   1.585 -1.1019  0.0803 -0.1823
  589MOL0     C81153   1.989   4.799   1.590  0.2154 -0.7315  1.0308
  589MOL0     C81154   1.870   4.833   1.508 -0.8699 -0.9471  1.2166
  589MOL0     C81155   1.733   4.791   1.555 -0.5351  0.1486 -0.3885
  589MOL0     C81156   1.618   4.764   1.449 -0.1680  0.7551 -0.3865
  589MOL0     C81157   1.541   4.895   1.414 -0.1123  0.2020  0.1430
  589MOL0     C81158   1.429   4.884   1.312  0.0406 -0.0307  0.0924
  589MOL0     C81159   1.305   4.794   1.345 -0.6344  0.3083  0.5039
  589MOL0     C81160   1.192   4.867   1.417  0.3431  0.2315 -0.7101
  589MOL0     N81161   1.096   4.929   1.325  0.4538  0.8019 -0.9988
  589MOL0     C81162   1.000   4.874   1.232 -1.1122 -0.0157 -0.1606
  589MOL0     C81163   0.900   4.957   1.222 -0.5878  0.1308  0.2713
  589MOL0     C81164   0.786   4.936   1.127  1.2573  0.2008  0.5907
  589MOL0     C81165   0.689   4.854   1.211  1.0325 -0.6796  0.3253
  589MOL0     C81166   0.599   4.923   1.312  1.1300 -0.4324  0.2298
  589MOL0     C81167   0.484   5.002   1.243 -0.2593 -0.2806 -0.0989
  589MOL0     O81168   0.420   4.895   1.174  0.5225 -0.1149  0.1025
  589MOL0     C81169   0.310   4.931   1.107 -0.2696  0.3485 -0.9504
  589MOL0     C81170   0.246   4.823   1.042 -0.2283  0.1018  0.1550
  589MOL0     C81171   0.129   4.845   0.960 -0.5466  0.4513  0.8862
  589MOL0     C81172   0.087   4.741   0.863 -0.4575 -0.4804  0.7951
  589MOL0     C81173   0.059   4.966   0.976  0.0905 -0.2561 -0.5717
  589MOL0     C81174  -0.065   4.994   0.901  0.3438 -0.7515 -0.1842
  589MOL0     O81175  -0.090   5.133   0.896 -0.0894  0.2492 -0.5055
  589MOL0     C81176  -0.214   5.177   0.835  0.2997 -0.6084  0.2180
  589MOL0     C81177  -0.337   5.135   0.876  0.3313  0.9354 -0.5005
  589MOL0     C81178  -0.459   5.176   0.815 -0.5432 -0.3061 -0.7065
  589MOL0     C81179  -0.456   5.267   0.704 -0.4926  0.1973  0.4314
  589MOL0     O81180  -0.563   5.292   0.623 -0.3627 -0.0585 -0.4991
  589MOL0     C81181  -0.692   5.292   0.680 -0.1689 -0.2275 -0.3304
  589MOL0     C81182  -0.799   5.367   0.606 -0.8023 -0.6071 -0.5314
  589MOL0     C81183  -0.822   5.318   0.449 -0.0816  0.0950  0.2264
  589MOL0     C81184  -0.962   5.248   0.449  0.5479  0.4695 -0.2111
  589MOL0     C81185  -0.992   5.183   0.314  0.1171 -0.0160  0.1768
  589MOL0     C81186  -1.127   5.123   0.304  0.9055 -0.1879  0.7244
  589MOL0     C81187  -1.144   4.992   0.375 -0.5517  0.3847 -0.3844
  589MOL0     C81188  -1.194   5.015   0.516 -0.0381  0.3797 -0.1521
  589MOL0    Cl81189  -1.121   4.889   0.620  0.2185 -0.1348  0.0333
  589MOL0     C81190  -0.330   5.300   0.653  0.7582 -0.3917  0.4677
  589MOL0     C81191  -0.208   5.257   0.714  0.3469 -0.0700  0.1544
  589MOL0     O81192  -0.140   4.898   0.865 -0.1591  0.2016 -0.3357
  589MOL0     C81193   0.113   5.063   1.060 -0.6118 -0.0033 -0.5797
  589MOL0     C81194   0.240   5.055   1.126 -0.6750 -0.2709  0.6530
  589MOL0     N81195   0.934   5.068   1.298 -0.5514 -0.1826  0.3066
  589MOL0     N81196   1.052   5.061   1.353 -0.0922  0.3223  0.0685
  589MOL0     C81197   2.226   4.651   1.713  0.0735 -0.5068 -0.4325
  589MOL0     C81198   2.320   4.573   1.778  0.6972  0.2114  0.2773
  589MOL0     C81199   2.440   4.202   2.056 -0.4866 -0.1587 -0.3728
  589MOL0     C81200   2.371   4.098   2.136 -0.5488 -0.4197 -0.6019
  589MOL0     C81201   2.434   4.059   2.259  0.3672 -0.0964 -0.2919
  589MOL0     C81202   2.557   4.108   2.311  0.3754  0.0510  0.5936
  589MOL0     O81203   2.614   4.054   2.429  0.2937 -1.1274  0.3928
  589MOL0     C81204   2.697   4.144   2.507 -0.4167 -0.2420  0.5429
  589MOL0     C81205   2.715   4.070   2.641 -0.7955  0.1786 -0.1310
  589MOL0     C81206   2.853   4.115   2.702  0.6436 -0.4356 -0.3578
  589MOL0     C81207   2.971   4.097   2.607 -0.1381 -0.7072 -0.0114
  589MOL0     C81208   3.087   4.083   2.695 -0.6594  0.1353  0.0403
  589MOL0     C81209   3.184   4.062   2.760  0.0378  0.3559  0.2720
  589MOL0     C81210   2.615   4.211   2.232  0.2578  0.7666 -0.8038
  589MOL0     C81211   2.560   4.254   2.109 -0.7307  0.1844  0.1228
  589MOL0     C81212   2.645   4.350   2.018 -0.1978  0.3079 -1.3992
  589MOL0     H81213   2.141   4.297   1.827 -0.4387 -0.4340 -1.1939
  589MOL0     H81214   1.982   4.423   1.678 -1.7304  1.8582  0.8765
  589MOL0     H81215   2.067   4.851   1.534 -1.0448  0.8864  0.7005
  589MOL0     H81216   1.980   4.847   1.688 -1.2351 -0.8116  0.9615
  589MOL0     H81217   1.862   4.941   1.491  0.6690 -1.0093 -0.1334
  589MOL0     H81218   1.876   4.785   1.411 -0.4014 -0.9134  1.2253
  589MOL0     H81219   1.745   4.697   1.610 -0.8916  0.1301 -0.3342
  589MOL0     H81220   1.701   4.874   1.619 -2.9655  0.6358 -2.1091
  589MOL0     H81221   1.662   4.732   1.354  0.6539 -0.2285  0.2983
  589MOL0     H81222   1.538   4.695   1.478 -0.1022  0.7556 -0.2022
  589MOL0     H81223   1.610   4.971   1.376  0.2441  0.3792  1.1085
  589MOL0     H81224   1.503   4.936   1.508 -0.3960 -0.6602  0.4111
  589MOL0     H81225   1.397   4.987   1.293 -0.7337 -0.5555 -1.6010
  589MOL0     H81226   1.486   4.850   1.226  1.0210  0.7303  0.4331
  589MOL0     H81227   1.338   4.710   1.406 -1.2473 -1.0368 -0.9648
  589MOL0     H81228   1.271   4.753   1.250 -0.7535  1.9911 -0.2239
  589MOL0     H81229   1.148   4.790   1.481 -0.5108  0.3744 -1.1000
  589MOL0     H81230   1.234   4.945   1.480 -0.1307  0.0969 -0.2135
  589MOL0     H81231   0.997   4.771   1.198 -1.0267 -0.1774  0.3129
  589MOL0     H81232   0.818   4.872   1.044 -0.2400  0.5435 -0.2974
  589MOL0     H81233   0.732   5.024   1.092  0.6461 -0.7205 -0.8843
  589MOL0     H81234   0.628   4.803   1.136 -0.5900  2.7898 -0.9396
  589MOL0     H81235   0.739   4.763   1.245 -1.0376 -1.5934  1.0719
  589MOL0     H81236   0.561   4.849   1.383  0.6582  1.0785  1.6095
  589MOL0     H81237   0.666   4.991   1.365  0.2825  3.4164 -3.0909
  589MOL0     H81238   0.424   5.037   1.328  1.0520  0.0993  0.7060
  589MOL0     H81239   0.516   5.092   1.191  3.0407  1.1015  3.7956
  589MOL0     H81240   0.311   4.736   1.042 -0.1845 -0.1251  4.9606
  589MOL0     H81241   0.004   4.681   0.901 -3.5963  3.0030 -0.0070
  589MOL0     H81242   0.174   4.687   0.822  1.0395  1.8591  0.6867
  589MOL0     H81243   0.054   4.785   0.769 -3.7552 -4.4723 -0.1946
  589MOL0     H81244  -0.349   5.082   0.970  1.9074  1.3539 -0.0485
  589MOL0     H81245  -0.555   5.140   0.849 -0.0673 -1.0618 -0.1387
  589MOL0     H81246  -0.733   5.191   0.690 -0.4962 -0.1982 -1.2618
  589MOL0     H81247  -0.679   5.331   0.781  0.4854 -3.7709  1.1083
  589MOL0     H81248  -0.886   5.342   0.666 -1.5037 -0.6657 -1.5441
  589MOL0     H81249  -0.777   5.472   0.583 -0.9120 -0.8422 -1.8107
  589MOL0     H81250  -0.748   5.245   0.417  0.2935  0.4089  0.3716
  589MOL0     H81251  -0.822   5.405   0.383 -0.4633 -0.8094 -0.9871
  589MOL0     H81252  -1.033   5.329   0.469 -1.2704 -1.5587  2.3275
  589MOL0     H81253  -0.971   5.186   0.538 -3.3464  0.9062 -0.1175
  589MOL0     H81254  -0.998   5.267   0.244  0.1889  0.6039  0.9012
  589MOL0     H81255  -0.908   5.114   0.299  0.2888  0.4589 -1.1433
  589MOL0     H81256  -1.142   5.113   0.197  3.2143 -0.4690  0.3667
  589MOL0     H81257  -1.206   5.187   0.345  0.5539 -1.3921  2.0149
  589MOL0     H81258  -1.046   4.943   0.385 -0.5039  0.9149  2.9445
  589MOL0     H81259  -1.203   4.928   0.309 -0.9332 -0.0115  0.3399
  589MOL0     H81260  -1.303   5.011   0.524  0.0455  1.5185  4.7986
  589MOL0     H81261  -1.165   5.115   0.550 -0.5187  0.0150  1.4293
  589MOL0     H81262  -0.328   5.358   0.561 -2.5878 -2.7524 -1.3399
  589MOL0     H81263  -0.113   5.295   0.677 -0.1940 -0.1393 -1.3386
  589MOL0     H81264   0.059   5.154   1.082  0.8653  1.4859 -2.7687
  589MOL0     H81265   0.277   5.135   1.189 -1.9583 -0.2018  1.3459
  589MOL0     H81266   2.246   4.753   1.681  2.6220 -0.7908  0.0806
  589MOL0     H81267   2.419   4.617   1.781  1.0457 -0.2970 -1.9222
  589MOL0     H81268   2.287   4.047   2.090 -0.6684 -1.1146  0.3522
  589MOL0     H81269   2.387   3.971   2.301  2.5860 -1.5358 -0.6853
  589MOL0     H81270   2.788   4.149   2.447  0.4427  0.4635  1.8602
  589MOL0     H81271   2.657   4.245   2.517 -1.0565 -0.1841 -1.9348
  589MOL0     H81272   2.712   3.961   2.644 -0.2480  0.0929 -1.7905
  589MOL0     H81273   2.630   4.102   2.703 -0.8591  0.5401 -0.4019
  589MOL0     H81274   2.857   4.220   2.733 -0.1012 -0.8672  1.3239
  589MOL0     H81275   2.857   4.059   2.796 -4.3938 -1.4510 -0.4201
  589MOL0     H81276   2.980   4.192   2.552 -2.9335 -0.8993 -0.9259
  589MOL0     H81277   2.959   4.013   2.538 -1.5083 -1.3147  0.9408
  589MOL0     H81278   3.277   4.044   2.809  0.5308  0.7381 -0.4963
  589MOL0     H81279   2.709   4.249   2.268 -0.3220 -0.4785  2.3210
  589MOL0     H81280   2.656   4.319   1.914  2.4604  2.3407 -1.8475
  589MOL0     H81281   2.599   4.449   2.021 -2.8650 -0.8713 -0.7713
  589MOL0     H81282   2.746   4.355   2.060 -2.1873  2.5014  4.0394
  590MOL0     O81283   1.297   8.501   5.236  0.1713  0.1953  0.5114
  590MOL0     C81284   1.201   8.422   5.235 -0.2435  0.0916  0.4393
  590MOL0     O81285   1.195   8.298   5.304 -0.0083 -0.2647 -0.0784
  590MOL0     C81286   1.301   8.269   5.380 -0.5925 -0.6866  1.1045
  590MOL0     C81287   1.290   8.276   5.517  0.1537  0.6556  0.6840
  590MOL0     C81288   1.390   8.227   5.601  0.3277 -0.0082  0.2776
  590MOL0     C81289   1.514   8.202   5.549 -0.1225 -0.2709  0.0746
  590MOL0     O81290   1.608   8.161   5.631 -0.1692 -0.2597  0.1452
  590MOL0     C81291   1.668   8.030   5.606 -0.3695  0.4470  0.4683
  590MOL0     C81292   1.738   7.986   5.730  0.8880  1.1739  0.3027
  590MOL0     C81293   1.839   8.092   5.770  0.2841  0.0257  0.1902
  590MOL0     C81294   1.880   8.070   5.919  1.2467  0.0930  0.3509
  590MOL0     C81295   1.959   7.944   5.937  0.4723 -0.2450 -0.3665
  590MOL0     C81296   2.062   7.949   6.053 -0.4897 -0.1204  0.7121
  590MOL0     C81297   2.139   7.819   6.068  0.0474 -1.2225 -0.0962
  590MOL0     C81298   2.249   7.783   5.958  0.2785 -0.0796  0.9488
  590MOL0     N81299   2.368   7.858   5.993  0.2404  0.5859 -0.2059
  590MOL0     C81300   2.467   7.802   6.067  0.3997 -0.4733 -0.1247
  590MOL0     C81301   2.557   7.907   6.076 -0.2775  0.4708 -0.7610
  590MOL0     C81302   2.687   7.914   6.160  0.5190 -0.2777 -0.2755
  590MOL0     C81303   2.763   7.786   6.149  1.0464  0.1847  1.7361
  590MOL0     C81304   2.856   7.763   6.270  0.8863 -0.1153 -0.1228
  590MOL0     C81305   2.990   7.700   6.223  0.2561 -0.0563 -0.3567
  590MOL0     O81306   2.969   7.570   6.159 -0.1432  0.0660  0.4090
  590MOL0     C81307   2.936   7.453   6.221  0.3827  0.6675 -0.3332
  590MOL0     C81308   2.895   7.338   6.152  0.3608 -0.5859 -0.1353
  590MOL0     C81309   2.849   7.220   6.214 -0.3487  1.1010  1.5410
  590MOL0     C81310   2.771   7.122   6.131  0.8088 -0.3296 -0.3487
  590MOL0     C81311   2.877   7.193   6.355  0.3635  0.5436  0.1583
  590MOL0     C81312   2.856   7.072   6.434  0.4741 -0.2322 -1.1815
  590MOL0     O81313   2.832   7.093   6.564  0.6822  0.6374  0.0321
  590MOL0     C81314   2.824   6.984   6.651 -0.0512  1.0239  0.6917
  590MOL0     C81315   2.931   6.902   6.699 -0.2711  0.0466  0.4243
  590MOL0     C81316   2.904   6.788   6.776 -0.2340  0.6044 -0.1572
  590MOL0     C81317   2.771   6.759   6.831 -0.3585  0.3164 -0.3261
  590MOL0     O81318   2.734   6.661   6.926 -0.2234  0.0857 -0.7858
  590MOL0     C81319   2.838   6.578   6.979  0.1523 -0.2799  0.0344
  590MOL0     C81320   2.789   6.458   7.058  1.5095 -1.0337  0.8719
  590MOL0     C81321   2.899   6.349   7.056  1.2878 -0.4581 -1.6426
  590MOL0     C81322   3.028   6.402   7.117  0.1896 -0.0650  0.7543
  590MOL0     C81323   3.113   6.293   7.171 -0.2656  0.5886  0.1120
  590MOL0     C81324   3.253   6.345   7.197 -0.0816 -0.5212  1.2248
  590MOL0     C81325   3.362   6.240   7.212 -0.5054 -0.6987 -0.8322
  590MOL0     C81326   3.336   6.158   7.335  0.8245  0.4554  0.0187
  590MOL0    Cl81327   3.224   6.028   7.299  0.1654 -0.1750 -0.2770
  590MOL0     C81328   2.671   6.850   6.790  0.1272 -1.0177 -0.3745
  590MOL0     C81329   2.701   6.964   6.703 -0.0608  0.4444  0.2163
  590MOL0     O81330   2.881   6.964   6.374 -0.5308  0.6179  0.5351
  590MOL0     C81331   2.925   7.310   6.422 -0.5521  0.7176  0.5544
  590MOL0     C81332   2.959   7.434   6.368  0.6800 -0.2126  0.6245
  590MOL0     N81333   2.519   8.004   5.985 -0.6536 -0.3070  0.3326
  590MOL0     N81334   2.398   7.983   5.948 -0.4355 -0.2662 -0.4160
  590MOL0     C81335   1.525   8.203   5.408 -0.0926  0.1485 -1.0206
  590MOL0     C81336   1.420   8.234   5.323  0.3257  0.2292 -0.0097
  590MOL0     C81337   1.076   8.466   5.165  0.1310 -0.4011  0.6660
  590MOL0     C81338   0.990   8.366   5.128 -0.2697 -0.0773 -0.9507
  590MOL0     C81339   0.866   8.400   5.073  0.2692 -0.0210  0.5599
  590MOL0     C81340   0.828   8.533   5.050 -0.1902 -0.0712 -0.4311
  590MOL0     O81341   0.700   8.569   5.021 -0.2500 -0.2303  1.1787
  590MOL0     C81342   0.599   8.477   4.973 -0.1751 -0.1583 -0.2834
  590MOL0     C81343   0.537   8.404   5.086  0.2975 -0.3513 -0.3352
  590MOL0     C81344   0.502   8.476   5.218 -0.3652  0.4515  0.3709
  590MOL0     C81345   0.397   8.597   5.204 -1.0668 -0.2402  0.2659
  590MOL0     C81346   0.255   8.569   5.180 -0.6229  0.2469 -0.2452
  590MOL0     C81347   0.135   8.564   5.174  0.1749  0.2370 -0.0300
  590MOL0     C81348   0.929   8.628   5.058 -0.0577 -0.2027  1.0530
  590MOL0     C81349   1.052   8.600   5.119 -0.7714 -0.4786  0.1579
  590MOL0     C81350   1.144   8.725   5.142 -1.2435 -0.0028  0.2405
  590MOL0     H81351   1.190   8.292   5.555 -0.2252 -1.3295  0.6097
  590MOL0     H81352   1.375   8.221   5.709  0.3288 -2.7928  0.2109
  590MOL0     H81353   1.731   8.031   5.516 -0.3818  0.8805  0.4601
  590MOL0     H81354   1.586   7.959   5.591 -0.2658 -0.7989  4.5539
  590MOL0     H81355   1.664   7.950   5.801  2.2031 -2.6993 -0.0654
  590MOL0     H81356   1.787   7.893   5.702  0.8781  0.3852  2.6968
  590MOL0     H81357   1.926   8.121   5.711 -0.6737  4.9602  0.7463
  590MOL0     H81358   1.778   8.182   5.783  0.0670 -0.0105 -0.5474
  590MOL0     H81359   1.941   8.150   5.962  1.5830  0.4930 -0.8462
  590MOL0     H81360   1.792   8.064   5.985  0.2611 -1.4276 -1.0313
  590MOL0     H81361   2.022   7.947   5.847 -0.6283 -1.4393 -1.2031
  590MOL0     H81362   1.898   7.854   5.937  0.3425 -0.1651 -1.3582
  590MOL0     H81363   2.128   8.036   6.045  0.0208 -0.0630  4.1129
  590MOL0     H81364   2.009   7.975   6.145  1.7804  1.6366  1.6155
  590MOL0     H81365   2.057   7.747   6.066 -1.5725  0.5030 -2.8878
  590MOL0     H81366   2.184   7.817   6.167 -1.3123 -1.6022  0.5276
  590MOL0     H81367   2.264   7.674   5.952 -2.7292 -0.7437  2.9145
  590MOL0     H81368   2.222   7.822   5.860  3.5270 -1.1965 -0.5271
  590MOL0     H81369   2.462   7.712   6.126  1.4239 -2.2053 -2.4993
  590MOL0     H81370   2.647   7.927   6.261 -1.9685  0.9799 -1.3353
  590MOL0     H81371   2.748   8.004   6.149 -0.7443  1.5531  4.7940
  590MOL0     H81372   2.687   7.708   6.134 -0.0377  1.4012  0.6883
  590MOL0     H81373   2.812   7.786   6.051  0.6124 -2.3252  1.4397
  590MOL0     H81374   2.886   7.853   6.324 -2.8169  2.2683 -1.5862
  590MOL0     H81375   2.808   7.702   6.347  0.1558  1.3246  0.6201
  590MOL0     H81376   3.038   7.762   6.147 -2.5878  1.0748 -1.3787
  590MOL0     H81377   3.056   7.689   6.310 -1.1618  0.7847  0.8704
  590MOL0     H81378   2.880   7.328   6.045 -4.5383 -0.1501  0.3206
  590MOL0     H81379   2.693   7.073   6.189 -1.3202  0.0322 -2.7126
  590MOL0     H81380   2.838   7.042   6.097  2.6634  0.2315  1.7766
  590MOL0     H81381   2.720   7.180   6.054 -0.0681  1.3704  1.4623
  590MOL0     H81382   3.033   6.925   6.671  0.1133 -2.7173 -0.7613
  590MOL0     H81383   2.990   6.725   6.799  1.0345  1.9834 -0.9033
  590MOL0     H81384   2.890   6.548   6.888  1.8409  0.0708  0.8281
  590MOL0     H81385   2.896   6.649   7.040 -1.2365  3.0434 -2.2215
  590MOL0     H81386   2.764   6.480   7.162 -2.1001  0.1728 -0.1309
  590MOL0     H81387   2.702   6.415   7.008  2.6017 -1.4981 -0.7334
  590MOL0     H81388   2.900   6.293   6.962  0.8147  0.9563 -2.5176
  590MOL0     H81389   2.867   6.269   7.123  2.6006 -0.8686 -1.4778
  590MOL0     H81390   3.007   6.475   7.195 -2.0893  2.3535 -1.8867
  590MOL0     H81391   3.071   6.450   7.029  0.4566 -1.5075  0.0625
  590MOL0     H81392   3.068   6.249   7.260 -2.9579  1.8682 -0.4928
  590MOL0     H81393   3.108   6.212   7.098 -4.0675  0.8875 -0.1660
  590MOL0     H81394   3.248   6.405   7.289 -0.1795 -2.4694  2.5342
  590MOL0     H81395   3.275   6.413   7.114  1.0509 -1.4628  0.7340
  590MOL0     H81396   3.453   6.300   7.223 -1.3403  0.4240  0.2905
  590MOL0     H81397   3.365   6.175   7.125 -1.0976 -1.1224 -0.5419
  590MOL0     H81398   3.294   6.219   7.416  1.3407  1.1463 -0.2255
  590MOL0     H81399   3.425   6.108   7.374  0.6870 -3.0208 -3.4330
  590MOL0     H81400   2.567   6.842   6.818 -1.3753  1.5281 -4.3280
  590MOL0     H81401   2.632   7.039   6.667  0.3866 -0.3093 -2.4166
  590MOL0     H81402   2.947   7.291   6.526  0.2833 -2.0348 -0.0448
  590MOL0     H81403   2.989   7.524   6.420  1.9980 -1.0965  1.4620
  590MOL0     H81404   1.625   8.170   5.382  0.6470 -0.2974  1.9252
  590MOL0     H81405   1.431   8.229   5.216  1.3325  1.5209  0.0037
  590MOL0     H81406   1.023   8.263   5.140  1.4802  0.2473 -2.6323
  590MOL0     H81407   0.810   8.311   5.047 -0.7135  1.4607 -3.2245
  590MOL0     H81408   0.525   8.528   4.910 -1.1550 -2.8733 -1.4847
  590MOL0     H81409   0.647   8.402   4.909  0.0857  0.3861 -0.7325
  590MOL0     H81410   0.621   8.339   5.111  0.1084 -0.8592 -0.9883
  590MOL0     H81411   0.456   8.339   5.050  0.0700 -0.8172  0.9653
  590MOL0     H81412   0.468   8.412   5.300  1.1857  2.0088  2.3218
  590MOL0     H81413   0.599   8.502   5.262  0.5380 -2.2940  0.1978
  590MOL0     H81414   0.417   8.676   5.130  0.4942 -0.7252  0.1365
  590MOL0     H81415   0.418   8.640   5.302 -1.0782 -0.2090  0.2550
  590MOL0     H81416   0.030   8.546   5.163  0.5959 -3.2967  0.3488
  590MOL0     H81417   0.900   8.731   5.044  2.7338  0.5751  0.4108
  590MOL0     H81418   1.247   8.706   5.109 -1.0324  1.0684  0.2486
  590MOL0     H81419   1.117   8.814   5.085  0.2537  1.0736  1.1374
  590MOL0     H81420   1.152   8.747   5.249  0.1496 -0.4159  0.2529
  591MOL0     O81421   2.669   6.961   7.521 -0.2370  0.0827  0.3559
  591MOL0     C81422   2.588   7.050   7.548 -0.0988 -0.6317  0.0113
  591MOL0     O81423   2.466   7.032   7.610 -0.6968  0.5386  0.0749
  591MOL0     C81424   2.427   6.911   7.652  0.1360  0.2485 -0.8151
  591MOL0     C81425   2.503   6.792   7.687 -0.1810  0.0451  0.2315
  591MOL0     C81426   2.441   6.671   7.728 -0.0078  0.4059 -0.9666
  591MOL0     C81427   2.298   6.664   7.741 -0.0753  0.5105  0.6903
  591MOL0     O81428   2.229   6.551   7.775  0.1156 -0.6571 -0.6199
  591MOL0     C81429   2.301   6.451   7.846 -0.5029  1.4526  0.7559
  591MOL0     C81430   2.211   6.332   7.878 -0.0208  0.1108  0.1587
  591MOL0     C81431   2.164   6.253   7.761  1.3810  0.1469  0.2743
  591MOL0     C81432   2.069   6.138   7.791  0.3943  0.4315  0.2277
  591MOL0     C81433   2.055   6.054   7.664 -0.0793 -0.1139  0.3835
  591MOL0     C81434   1.945   5.944   7.678  0.6602 -0.0879  0.3843
  591MOL0     C81435   1.808   5.987   7.726 -0.7361 -0.5562  0.2716
  591MOL0     C81436   1.707   5.885   7.682 -0.3000 -1.0407  0.2812
  591MOL0     N81437   1.727   5.757   7.747 -0.0614  0.0175 -0.4505
  591MOL0     C81438   1.649   5.724   7.861 -0.5511  0.1774 -0.0148
  591MOL0     C81439   1.663   5.600   7.894  0.7876 -0.0902 -0.0105
  591MOL0     C81440   1.595   5.527   8.006  0.9496  0.6122 -0.4562
  591MOL0     C81441   1.701   5.464   8.093  0.0255  0.2323  0.1026
  591MOL0     C81442   1.645   5.426   8.225 -0.8463  0.0323 -0.3447
  591MOL0     C81443   1.748   5.362   8.320  0.1737  0.3797  0.2763
  591MOL0     O81444   1.780   5.222   8.301  0.1142  0.6770 -0.0368
  591MOL0     C81445   1.868   5.171   8.390  0.2250 -0.3772 -0.2499
  591MOL0     C81446   1.915   5.042   8.367  0.6946 -0.1696  0.4854
  591MOL0     C81447   2.010   4.976   8.443 -0.3022  0.4638 -1.0097
  591MOL0     C81448   2.052   4.834   8.404  0.3188  0.3897  0.1080
  591MOL0     C81449   2.061   5.038   8.560  0.7557  0.3185  0.0383
  591MOL0     C81450   2.151   4.984   8.665 -0.1449  0.3767 -1.0281
  591MOL0     O81451   2.201   5.075   8.759 -0.5718  0.0893 -0.2559
  591MOL0     C81452   2.267   5.014   8.866 -0.0684  0.3767  0.4739
  591MOL0     C81453   2.400   4.975   8.840  0.3507  0.2229 -0.3705
  591MOL0     C81454   2.463   4.915   8.952 -0.7832  0.2098  0.1953
  591MOL0     C81455   2.410   4.901   9.080 -0.9291 -1.0606  1.2531
  591MOL0     O81456   2.492   4.846   9.177 -0.6887  0.3186 -0.0083
  591MOL0     C81457   2.486   4.868   9.316 -0.5202 -0.7433  0.1866
  591MOL0     C81458   2.437   4.741   9.389 -0.3396  0.2816 -0.6560
  591MOL0     C81459   2.469   4.738   9.539  0.4776 -0.3896  0.2482
  591MOL0     C81460   2.386   4.839   9.615  0.3655 -0.6786 -0.8941
  591MOL0     C81461   2.409   4.810   9.764 -0.6384  0.0648  0.1167
  591MOL0     C81462   2.282   4.849   9.850 -0.2221  1.3406  0.7628
  591MOL0     C81463   2.285   4.769   9.981 -0.0425  0.6631  0.4021
  591MOL0     C81464   2.163   4.805  10.063 -0.6595 -0.3188 -0.1695
  591MOL0    Cl81465   2.175   4.706  10.202  0.0915  0.1257  0.0647
  591MOL0     C81466   2.285   4.951   9.098 -0.0838  0.4786 -0.5955
  591MOL0     C81467   2.217   5.014   8.993  0.3446 -0.8220 -0.4219
  591MOL0     O81468   2.185   4.865   8.651 -0.3235 -0.1165 -0.1134
  591MOL0     C81469   1.994   5.152   8.598  0.3371  0.0483  0.5832
  591MOL0     C81470   1.920   5.232   8.509  0.3296 -0.5789 -0.2614
  591MOL0     N81471   1.740   5.540   7.787 -0.3578 -0.9881 -0.0890
  591MOL0     N81472   1.774   5.638   7.708 -0.1699  1.2859  0.4679
  591MOL0     C81473   2.227   6.783   7.715  0.5172 -1.0463 -0.8265
  591MOL0     C81474   2.287   6.906   7.668 -1.3334 -0.0859 -0.9297
  591MOL0     C81475   2.632   7.190   7.514  0.8916 -0.0668 -0.2763
  591MOL0     C81476   2.760   7.198   7.467 -0.1919 -0.0942  0.7378
  591MOL0     C81477   2.816   7.323   7.429 -0.0122  0.7821 -0.5615
  591MOL0     C81478   2.735   7.434   7.442  1.1419 -0.7648 -0.8546
  591MOL0     O81479   2.794   7.554   7.407 -0.7917  0.2780  0.3084
  591MOL0     C81480   2.708   7.671   7.397  1.0027 -0.0510  0.4156
  591MOL0     C81481   2.765   7.797   7.330  0.4732 -0.1759  0.3038
  591MOL0     C81482   2.854   7.759   7.215 -1.1386 -0.6583  0.1735
  591MOL0     C81483   2.837   7.851   7.092  0.7182  0.1680 -0.0320
  591MOL0     C81484   2.831   7.999   7.131 -0.5550  0.7578 -0.2432
  591MOL0     C81485   2.832   8.115   7.145 -0.3285 -0.5511  0.0669
  591MOL0     C81486   2.608   7.433   7.491  0.6174  1.0522  0.2548
  591MOL0     C81487   2.549   7.310   7.532  0.0477  0.5157 -0.4374
  591MOL0     C81488   2.419   7.306   7.596 -0.1293  0.1177 -0.2305
  591MOL0     H81489   2.612   6.791   7.689 -0.1487 -1.4944 -0.7368
  591MOL0     H81490   2.490   6.579   7.757  0.4868  1.2233  0.9421
  591MOL0     H81491   2.339   6.496   7.939  6.8899 -0.1520 -0.8401
  591MOL0     H81492   2.387   6.423   7.784  0.8318  0.3142  2.9895
  591MOL0     H81493   2.257   6.250   7.933 -0.8347 -0.3364  0.1870
  591MOL0     H81494   2.121   6.364   7.931 -0.8241  1.0665 -1.6834
  591MOL0     H81495   2.130   6.322   7.683 -1.5487 -1.1860  0.2526
  591MOL0     H81496   2.250   6.203   7.715  0.7267  0.4861 -1.3839
  591MOL0     H81497   2.098   6.082   7.880  2.9283  0.3184 -0.5791
  591MOL0     H81498   1.972   6.181   7.818  0.2240 -1.0518  2.2073
  591MOL0     H81499   2.149   6.004   7.639 -0.4620  0.6401 -3.0398
  591MOL0     H81500   2.029   6.117   7.578  1.8692  0.2240 -0.0189
  591MOL0     H81501   1.939   5.891   7.583 -0.6734  4.5206 -2.3782
  591MOL0     H81502   1.982   5.868   7.749  0.5043 -0.9827 -0.4774
  591MOL0     H81503   1.801   6.086   7.680  2.1598  0.2969  1.4106
  591MOL0     H81504   1.815   5.998   7.835  0.6617  0.3934  0.1115
  591MOL0     H81505   1.609   5.918   7.719  0.4976 -1.2585  2.8079
  591MOL0     H81506   1.697   5.873   7.574 -2.4989 -4.6229  0.7275
  591MOL0     H81507   1.582   5.798   7.904 -0.7077  1.5306 -2.3859
  591MOL0     H81508   1.530   5.444   7.975 -0.2170 -0.1200  3.3666
  591MOL0     H81509   1.523   5.597   8.050  0.3738  1.8088 -3.0942
  591MOL0     H81510   1.745   5.377   8.044  1.1338  0.2233  1.0622
  591MOL0     H81511   1.775   5.544   8.101 -0.1400  0.5187 -1.0193
  591MOL0     H81512   1.597   5.510   8.276  0.1414 -0.1579  0.9508
  591MOL0     H81513   1.567   5.350   8.208 -2.4378  0.9369  2.3391
  591MOL0     H81514   1.846   5.409   8.313  0.4102  0.1358  1.6617
  591MOL0     H81515   1.716   5.366   8.425  3.3637  2.0996  1.3363
  591MOL0     H81516   1.875   4.988   8.281 -1.9322  0.2936  1.3078
  591MOL0     H81517   2.012   4.812   8.304 -0.2132  0.3436  0.3246
  591MOL0     H81518   2.012   4.768   8.482  1.3118  1.2551  1.3850
  591MOL0     H81519   2.161   4.824   8.400  0.2950 -0.3012  0.8971
  591MOL0     H81520   2.430   4.997   8.738  3.8691  3.6544  1.1711
  591MOL0     H81521   2.559   4.866   8.944 -0.0232  1.1012  2.6440
  591MOL0     H81522   2.579   4.899   9.365 -1.9844 -0.1817  2.7823
  591MOL0     H81523   2.415   4.950   9.321 -0.8700 -1.1310  1.9524
  591MOL0     H81524   2.329   4.757   9.378 -0.1512  2.4985  0.2557
  591MOL0     H81525   2.464   4.649   9.336 -1.9133  0.1095 -1.2082
  591MOL0     H81526   2.576   4.758   9.550  0.6049  0.5792 -2.0879
  591MOL0     H81527   2.437   4.640   9.576 -3.6236  0.5486 -0.2211
  591MOL0     H81528   2.283   4.824   9.584  0.1759 -1.6792  0.1766
  591MOL0     H81529   2.412   4.943   9.591  1.5562 -0.5959  0.5844
  591MOL0     H81530   2.422   4.702   9.777  2.4231 -0.0530 -2.4961
  591MOL0     H81531   2.505   4.856   9.790  1.1121 -2.1990 -1.8000
  591MOL0     H81532   2.186   4.824   9.805  0.2616 -0.2647  0.5551
  591MOL0     H81533   2.294   4.958   9.853  2.6254  1.1156  0.6356
  591MOL0     H81534   2.384   4.789  10.022  1.3467 -0.3717 -2.1822
  591MOL0     H81535   2.279   4.663   9.955 -0.7537  0.0895  2.7543
  591MOL0     H81536   2.081   4.791   9.993 -1.3784 -0.0497  0.5957
  591MOL0     H81537   2.176   4.908  10.100  2.5288 -0.9112  0.7543
  591MOL0     H81538   2.242   4.947   9.198 -0.2879 -0.1410 -0.6991
  591MOL0     H81539   2.116   5.052   9.011  0.9056 -0.0066  1.2448
  591MOL0     H81540   2.009   5.200   8.694  1.5482 -0.6059  0.7444
  591MOL0     H81541   1.897   5.329   8.551  3.3110 -0.4417  1.3079
  591MOL0     H81542   2.120   6.782   7.735  0.9603 -0.1457  2.2009
  591MOL0     H81543   2.239   6.998   7.639  2.6927  2.5649 -0.0206
  591MOL0     H81544   2.814   7.105   7.457  0.0203  0.1551 -0.5624
  591MOL0     H81545   2.909   7.326   7.374  0.3508 -1.8265 -0.2541
  591MOL0     H81546   2.621   7.641   7.338  2.0556 -1.7616 -0.3726
  591MOL0     H81547   2.666   7.695   7.494 -2.2935 -1.9799 -0.3844
  591MOL0     H81548   2.818   7.848   7.411 -0.6925  0.8591  0.4495
  591MOL0     H81549   2.678   7.851   7.289  0.9912 -0.0763 -0.6710
  591MOL0     H81550   2.952   7.778   7.259 -0.1446 -0.0951 -2.1234
  591MOL0     H81551   2.845   7.657   7.176 -1.2158 -0.2132 -1.0336
  591MOL0     H81552   2.744   7.826   7.041  0.9856 -0.0702 -0.4108
  591MOL0     H81553   2.923   7.833   7.027  0.1513 -3.4246 -0.0097
  591MOL0     H81554   2.821   8.221   7.145 -0.1594 -0.5265  0.6942
  591MOL0     H81555   2.551   7.521   7.520  0.2245  0.1767  2.3138
  591MOL0     H81556   2.350   7.243   7.538  1.8875 -0.2903 -2.3249
  591MOL0     H81557   2.431   7.277   7.701  0.8508 -2.1351 -0.9036
  591MOL0     H81558   2.381   7.409   7.599 -1.0221 -0.2212  0.4945
  592MOL0     O81559   7.098   7.422  10.360 -0.9098 -0.2181  0.3550
  592MOL0     C81560   7.123   7.528  10.298  0.3739  0.6240 -1.3340
  592MOL0     O81561   7.071   7.644  10.324 -0.2256  0.7461 -0.2287
  592MOL0     C81562   6.969   7.675  10.407 -0.9173 -1.4524 -0.4130
  592MOL0     C81563   6.853   7.712  10.342 -1.4029 -0.3977 -1.0037
  592MOL0     C81564   6.746   7.755  10.414  0.1687 -0.2029 -1.3390
  592MOL0     C81565   6.745   7.751  10.557  0.3772  0.1495  0.0119
  592MOL0     O81566   6.640   7.801  10.625  0.5858  0.1446 -0.1649
  592MOL0     C81567   6.529   7.712  10.616  0.4015  0.1254  0.3654
  592MOL0     C81568   6.414   7.742  10.714 -0.0893  1.1398  0.6109
  592MOL0     C81569   6.410   7.634  10.822  0.0021  0.5920 -0.1573
  592MOL0     C81570   6.348   7.492  10.785 -0.0002 -1.7208  0.0447
  592MOL0     C81571   6.200   7.490  10.835 -0.3537 -0.1983 -0.1434
  592MOL0     C81572   6.120   7.362  10.788 -0.4250  0.5408 -0.5556
  592MOL0     C81573   6.176   7.252  10.878  0.6319 -0.6553  0.4484
  592MOL0     C81574   6.162   7.114  10.809  0.3403 -0.1693  0.1204
  592MOL0     N81575   6.020   7.081  10.771  0.7395 -0.5053  0.1408
  592MOL0     C81576   5.901   7.104  10.838 -0.1036  0.6524 -0.1352
  592MOL0     C81577   5.803   7.041  10.770  0.0814 -1.0412  0.1962
  592MOL0     C81578   5.657   7.050  10.805  0.5336 -0.0882 -0.5481
  592MOL0     C81579   5.615   7.020  10.956  0.3900 -0.1263  1.1234
  592MOL0     C81580   5.654   6.886  11.002  0.7017  0.5786 -0.4298
  592MOL0     C81581   5.567   6.770  10.960 -0.0530  0.6054  0.0499
  592MOL0     O81582   5.638   6.648  10.970 -0.0435  0.1102 -0.2746
  592MOL0     C81583   5.669   6.583  10.859  0.7379  0.3485 -0.4809
  592MOL0     C81584   5.706   6.630  10.725 -0.2306 -0.2832 -0.2075
  592MOL0     C81585   5.729   6.547  10.614  0.6158  0.7375  0.5315
  592MOL0     C81586   5.796   6.593  10.489 -0.4583  0.8486  1.0002
  592MOL0     C81587   5.706   6.412  10.627  0.5031  0.1852 -0.4559
  592MOL0     C81588   5.705   6.314  10.513  1.2584  0.1113 -0.3719
  592MOL0     O81589   5.724   6.183  10.559  0.7673 -1.2212  0.2678
  592MOL0     C81590   5.744   6.089  10.460  0.4403  0.3047  0.5145
  592MOL0     C81591   5.870   6.063  10.404 -0.3225 -0.6337 -0.5307
  592MOL0     C81592   5.883   5.958  10.322 -0.1549 -0.4307  1.6296
  592MOL0     C81593   5.779   5.864  10.304  0.0416  0.7086  0.7923
  592MOL0     O81594   5.786   5.748  10.232  0.8083  0.3109 -0.5928
  592MOL0     C81595   5.894   5.738  10.141 -0.3274  0.1187  0.2818
  592MOL0     C81596   5.879   5.603  10.056  0.3802 -0.6983 -0.1606
  592MOL0     C81597   5.857   5.486  10.151 -0.1391  0.0213 -0.2351
  592MOL0     C81598   5.809   5.365  10.062  0.5782 -0.5044  0.3470
  592MOL0     C81599   5.926   5.310   9.987 -0.0221  0.8312 -0.2408
  592MOL0     C81600   5.890   5.212   9.874  0.5356 -0.5558  0.3537
  592MOL0     C81601   6.001   5.179   9.777 -0.6174 -0.0546 -0.0274
  592MOL0     C81602   5.930   5.108   9.662 -0.2191  0.8118 -0.4307
  592MOL0    Cl81603   5.838   4.966   9.726 -0.1500  0.1948 -0.1523
  592MOL0     C81604   5.659   5.887  10.360  0.9412  0.6465  0.6140
  592MOL0     C81605   5.646   5.994  10.442  0.2656  0.2838 -0.9343
  592MOL0     O81606   5.669   6.346  10.401 -0.3887  0.1586  0.3265
  592MOL0     C81607   5.659   6.369  10.756 -0.3688 -1.0031  0.3207
  592MOL0     C81608   5.651   6.448  10.866 -0.0855  0.4270 -0.1298
  592MOL0     N81609   5.862   6.971  10.663 -0.9429 -0.5119 -0.7611
  592MOL0     N81610   5.995   6.988  10.672  0.1843 -0.1314 -0.8448
  592MOL0     C81611   6.874   7.727  10.622  0.9371  0.1915 -0.1183
  592MOL0     C81612   6.988   7.686  10.548  0.0467 -0.3783  0.3200
  592MOL0     C81613   7.243   7.531  10.205  0.3713  1.6174  0.3982
  592MOL0     C81614   7.306   7.643  10.183  0.3387 -0.6121 -0.0017
  592MOL0     C81615   7.403   7.655  10.084 -0.4377  0.2427 -0.2967
  592MOL0     C81616   7.439   7.544  10.008  0.1706 -0.2358 -0.0412
  592MOL0     O81617   7.528   7.571   9.908  0.2931 -0.1936  0.0638
  592MOL0     C81618   7.576   7.471   9.809  0.4759  1.4332 -0.1097
  592MOL0     C81619   7.655   7.355   9.868 -1.5245  0.0679  0.7557
  592MOL0     C81620   7.691   7.244   9.752 -0.2782 -0.0805 -0.7766
  592MOL0     C81621   7.574   7.158   9.693 -0.5387  0.9501 -0.6114
  592MOL0     C81622   7.521   7.072   9.796  0.0873  0.9975  0.3597
  592MOL0     C81623   7.492   7.007   9.890  0.4452  0.6268  0.6338
  592MOL0     C81624   7.365   7.422  10.027 -0.2063 -1.1618  0.2600
  592MOL0     C81625   7.271   7.408  10.129 -0.0623 -0.6725 -0.0600
  592MOL0     C81626   7.199   7.272  10.149 -0.9962  0.0129 -0.8837
  592MOL0     H81627   6.850   7.716  10.233 -1.0156  1.0864 -0.9903
  592MOL0     H81628   6.653   7.792  10.372 -0.3890 -0.4599 -0.3755
  592MOL0     H81629   6.548   7.604  10.610 -1.6618 -0.1958 -2.2524
  592MOL0     H81630   6.487   7.748  10.522  1.8281 -0.6136 -0.5783
  592MOL0     H81631   6.423   7.836  10.770 -1.6683 -0.2240  3.3817
  592MOL0     H81632   6.329   7.729  10.646  1.0310  4.7220 -1.7279
  592MOL0     H81633   6.512   7.617  10.854  0.1677  0.3889 -0.7718
  592MOL0     H81634   6.374   7.681  10.913  2.7487  1.2032  0.6875
  592MOL0     H81635   6.364   7.476  10.678 -0.2773 -0.3605 -0.2205
  592MOL0     H81636   6.400   7.408  10.832  0.7456 -0.7578  0.9690
  592MOL0     H81637   6.143   7.578  10.803 -2.0998 -1.1167  0.2839
  592MOL0     H81638   6.204   7.505  10.943 -0.2822  2.8010 -0.4751
  592MOL0     H81639   6.013   7.378  10.806 -0.4947  0.3864 -0.8219
  592MOL0     H81640   6.147   7.341  10.684  1.2174 -1.7250  0.2538
  592MOL0     H81641   6.133   7.251  10.978 -0.5703  0.0925 -0.0429
  592MOL0     H81642   6.284   7.261  10.893  0.2465  0.2991  3.1259
  592MOL0     H81643   6.232   7.103  10.726  0.3674  0.3318  0.0733
  592MOL0     H81644   6.193   7.032  10.874  3.3943 -0.9118 -2.0769
  592MOL0     H81645   5.885   7.162  10.928  1.1096  0.1363  0.4523
  592MOL0     H81646   5.603   6.975  10.747 -2.2333  1.3932 -0.0439
  592MOL0     H81647   5.619   7.146  10.771 -1.4374 -0.4987  0.3538
  592MOL0     H81648   5.672   7.088  11.020  1.5837  2.3457 -2.2343
  592MOL0     H81649   5.507   7.031  10.967  0.2930  0.1816  0.0540
  592MOL0     H81650   5.755   6.862  10.968  2.6301  3.4171  2.6276
  592MOL0     H81651   5.660   6.874  11.110 -0.2928  0.6139 -0.3599
  592MOL0     H81652   5.478   6.767  11.023 -0.3752 -1.1561 -0.4227
  592MOL0     H81653   5.531   6.786  10.858  1.0181 -1.8374 -0.7889
  592MOL0     H81654   5.730   6.736  10.721 -0.8235 -0.0254  1.9430
  592MOL0     H81655   5.737   6.636  10.407  1.4600  0.4882 -0.6513
  592MOL0     H81656   5.863   6.516  10.448 -1.6726  0.8432 -1.1274
  592MOL0     H81657   5.851   6.684  10.514 -2.3776  2.5377 -0.5563
  592MOL0     H81658   5.943   6.142  10.412 -1.3939  0.3014  6.2941
  592MOL0     H81659   5.975   5.931  10.270 -0.4088  0.3348  0.7519
  592MOL0     H81660   5.900   5.826  10.076 -3.2953 -0.2195 -0.6000
  592MOL0     H81661   5.986   5.714  10.194 -0.9377 -0.4430  1.1088
  592MOL0     H81662   5.792   5.612   9.990 -0.2154 -0.0588  0.6988
  592MOL0     H81663   5.970   5.581  10.001  1.5702 -0.3586  1.6003
  592MOL0     H81664   5.770   5.512  10.212 -0.7701 -0.2728 -0.9858
  592MOL0     H81665   5.944   5.459  10.211 -1.4132  2.0917  2.7775
  592MOL0     H81666   5.729   5.395   9.994  1.0155 -0.4436 -0.1526
  592MOL0     H81667   5.772   5.288  10.130 -1.6090  0.2827  0.1042
  592MOL0     H81668   5.989   5.383   9.936  2.1779 -0.8740 -0.1650
  592MOL0     H81669   6.001   5.273  10.059  0.8064 -0.0642 -1.5145
  592MOL0     H81670   5.806   5.255   9.820  0.2359 -1.9976 -0.3541
  592MOL0     H81671   5.856   5.125   9.930 -1.1125 -0.3675 -0.3199
  592MOL0     H81672   6.063   5.114   9.839 -0.5690 -0.1599 -0.1826
  592MOL0     H81673   6.065   5.261   9.743  0.4594 -0.5540  0.7461
  592MOL0     H81674   6.001   5.068   9.590 -0.9029  0.0353 -0.7004
  592MOL0     H81675   5.857   5.176   9.616 -1.0443  2.2636  2.7334
  592MOL0     H81676   5.568   5.831  10.345  0.5412  0.6506  2.7265
  592MOL0     H81677   5.558   6.012  10.502  1.4127 -0.4793  1.0681
  592MOL0     H81678   5.634   6.263  10.765  0.4138 -1.0770  2.1294
  592MOL0     H81679   5.624   6.418  10.967 -0.1117 -0.3955 -0.3729
  592MOL0     H81680   6.888   7.730  10.729  2.9346 -4.1929 -0.0637
  592MOL0     H81681   7.083   7.670  10.598 -1.2067 -1.0957  2.6169
  592MOL0     H81682   7.291   7.733  10.242  2.5104 -0.2004  0.0300
  592MOL0     H81683   7.448   7.752  10.062 -1.6495  1.1391  0.9814
  592MOL0     H81684   7.499   7.436   9.740 -1.1147  1.0671  1.7796
  592MOL0     H81685   7.645   7.531   9.748  0.5122 -1.1531 -2.8736
  592MOL0     H81686   7.590   7.303   9.938 -0.4921 -2.1773  0.1471
  592MOL0     H81687   7.748   7.396   9.909  1.0218  1.3882 -5.2226
  592MOL0     H81688   7.743   7.285   9.665 -1.7568 -0.0336 -1.6644
  592MOL0     H81689   7.770   7.174   9.782 -1.6593 -0.6579  1.7235
  592MOL0     H81690   7.626   7.081   9.634 -0.6114  0.8498 -0.5459
  592MOL0     H81691   7.507   7.225   9.638  0.0293  2.9134  0.9737
  592MOL0     H81692   7.485   6.949   9.980  0.3987  0.5318  0.5688
  592MOL0     H81693   7.363   7.342   9.953  2.6616 -0.4398 -0.7052
  592MOL0     H81694   7.095   7.271  10.114 -2.2069 -0.8617  2.3880
  592MOL0     H81695   7.260   7.192  10.106 -1.2314 -0.7098  0.0843
  592MOL0     H81696   7.194   7.234  10.252 -1.4688 -1.5111 -1.4407
  593MOL0     O81697  10.625   8.769   9.173 -0.2979  0.2342  0.4602
  593MOL0     C81698  10.568   8.726   9.072  0.5001 -0.1571  0.7941
  593MOL0     O81699  10.626   8.717   8.947 -0.2124  0.6976  0.0719
  593MOL0     C81700  10.766   8.704   8.942 -0.5202  0.1622 -0.2646
  593MOL0     C81701  10.838   8.614   9.029 -0.1191 -0.8684  0.8300
  593MOL0     C81702  10.972   8.572   9.013  0.1135 -1.1677 -0.2402
  593MOL0     C81703  11.035   8.619   8.893 -0.0574 -0.2452 -0.0952
  593MOL0     O81704  11.177   8.604   8.874 -0.3572 -0.4238 -0.2693
  593MOL0     C81705  11.248   8.547   8.982 -0.1118  0.7320 -0.3577
  593MOL0     C81706  11.400   8.568   8.961  0.2486  0.6517 -0.2688
  593MOL0     C81707  11.427   8.709   8.951  0.6484  0.2373 -0.3968
  593MOL0     C81708  11.573   8.727   8.953  0.3493 -0.2018 -0.1865
  593MOL0     C81709  11.600   8.870   8.923 -0.1970 -0.3467 -0.0425
  593MOL0     C81710  11.600   8.966   9.036 -0.1130 -0.2246  0.8992
  593MOL0     C81711  11.683   9.096   9.008 -0.8825  0.4194  0.6138
  593MOL0     C81712  11.648   9.201   9.116  0.3118 -0.4410  0.1333
  593MOL0     N81713  11.636   9.160   9.253 -0.7753  0.4102 -0.3950
  593MOL0     C81714  11.702   9.236   9.350 -0.1397  0.5658 -0.0953
  593MOL0     C81715  11.651   9.191   9.467 -0.7170  0.2771  1.0905
  593MOL0     C81716  11.706   9.224   9.606  0.1887  0.4230 -0.1046
  593MOL0     C81717  11.833   9.167   9.655  0.8434 -0.0348  0.4359
  593MOL0     C81718  11.843   9.173   9.806  0.0738 -0.0646  0.8771
  593MOL0     C81719  11.959   9.103   9.860  0.3354  0.5964 -0.2161
  593MOL0     O81720  12.087   9.145   9.805 -0.2725  0.1839 -0.4285
  593MOL0     C81721  12.127   9.270   9.829  0.1571 -0.7817  0.5478
  593MOL0     C81722  12.065   9.362   9.917 -0.5957 -0.2071  0.4190
  593MOL0     C81723  12.121   9.491   9.954  0.4545 -0.1607  1.0097
  593MOL0     C81724  12.054   9.566  10.064 -0.6893 -0.4582 -1.0308
  593MOL0     C81725  12.251   9.523   9.897 -0.3247  0.3501  0.4083
  593MOL0     C81726  12.339   9.639   9.933 -0.2604  0.2707  0.2588
  593MOL0     O81727  12.436   9.667   9.833  0.0754 -0.1259 -1.3248
  593MOL0     C81728  12.502   9.793   9.839 -0.2014 -0.5941  1.0219
  593MOL0     C81729  12.439   9.908   9.869  0.6235  0.3104 -0.1341
  593MOL0     C81730  12.515  10.028   9.878  0.9587 -0.7503 -0.4781
  593MOL0     C81731  12.649  10.028   9.835  0.1979  0.2086 -0.3724
  593MOL0     O81732  12.713  10.148   9.855 -0.8732 -0.0202  0.0335
  593MOL0     C81733  12.811  10.176   9.758  0.1081  0.1598  0.2233
  593MOL0     C81734  12.746  10.268   9.655  0.1334  0.1508 -0.4507
  593MOL0     C81735  12.841  10.301   9.538  0.3685 -0.5597  0.3656
  593MOL0     C81736  12.792  10.408   9.443  0.6258 -1.0221 -0.6688
  593MOL0     C81737  12.872  10.416   9.310  0.4244 -0.2718 -0.3608
  593MOL0     C81738  12.849  10.296   9.219  0.2760 -0.0850 -0.5122
  593MOL0     C81739  12.968  10.265   9.126  0.2949  0.2782  0.3035
  593MOL0     C81740  12.989  10.368   9.015 -1.1856  0.4745 -0.8213
  593MOL0    Cl81741  13.120  10.304   8.912  0.4216 -0.0362 -0.0078
  593MOL0     C81742  12.711   9.909   9.804 -0.6705 -0.1626 -0.2997
  593MOL0     C81743  12.638   9.795   9.795 -0.0708  0.1361 -0.6851
  593MOL0     O81744  12.326   9.700  10.039  0.3323  0.3752  0.8948
  593MOL0     C81745  12.299   9.434   9.800  0.5556  0.4981  0.7307
  593MOL0     C81746  12.241   9.311   9.768  0.5961 -0.9244 -0.4725
  593MOL0     N81747  11.539   9.114   9.439 -0.0368  0.4246 -0.0473
  593MOL0     N81748  11.535   9.085   9.305  0.0880  0.1738  0.1087
  593MOL0     C81749  10.962   8.694   8.806  0.1764  0.7910  0.6294
  593MOL0     C81750  10.835   8.738   8.826  0.4727 -0.4860 -0.4786
  593MOL0     C81751  10.423   8.692   9.085 -0.9317 -0.0512 -0.2134
  593MOL0     C81752  10.341   8.726   8.978 -0.6910 -0.1424  0.7520
  593MOL0     C81753  10.199   8.728   9.000  0.7702  0.2137 -0.4411
  593MOL0     C81754  10.149   8.687   9.120  0.0333  0.0936  0.3309
  593MOL0     O81755  10.017   8.683   9.121 -0.2538  0.2848  0.0101
  593MOL0     C81756   9.946   8.795   9.181 -0.2836 -0.3538  0.3403
  593MOL0     C81757   9.800   8.803   9.119 -0.5951 -0.9101  0.0442
  593MOL0     C81758   9.775   8.893   8.994  0.3809  0.7300 -0.7645
  593MOL0     C81759   9.694   9.007   9.036  0.5597 -0.1004 -0.5473
  593MOL0     C81760   9.689   9.090   8.910 -0.9746  0.1129 -0.4079
  593MOL0     C81761   9.689   9.161   8.814  0.2053  0.5696  0.1814
  593MOL0     C81762  10.230   8.627   9.213  1.1290 -0.1440  0.6495
  593MOL0     C81763  10.368   8.626   9.205  0.1895  1.0802  0.3425
  593MOL0     C81764  10.446   8.568   9.321  0.3161  0.3924  0.3971
  593MOL0     H81765  10.806   8.570   9.123  1.3001  0.9122  2.2179
  593MOL0     H81766  11.020   8.515   9.092  2.5973  2.4111  1.0807
  593MOL0     H81767  11.211   8.445   8.995 -1.1781  1.1032 -0.4063
  593MOL0     H81768  11.211   8.600   9.070 -0.6524 -1.0176  0.5118
  593MOL0     H81769  11.434   8.510   9.047  0.0181  0.4904 -0.2814
  593MOL0     H81770  11.434   8.527   8.865 -0.9711  1.1249 -0.9220
  593MOL0     H81771  11.381   8.760   8.866  0.6159  0.1409 -0.4376
  593MOL0     H81772  11.372   8.754   9.034 -2.4651  3.3385 -3.7522
  593MOL0     H81773  11.620   8.699   9.048  1.6587 -2.1005 -1.3297
  593MOL0     H81774  11.616   8.661   8.878  0.4297  1.8168 -2.0161
  593MOL0     H81775  11.538   8.910   8.842 -1.6471 -1.8917  0.2605
  593MOL0     H81776  11.703   8.865   8.884 -0.5091  0.0854 -0.9540
  593MOL0     H81777  11.496   8.997   9.051 -0.3978  0.9337 -2.6219
  593MOL0     H81778  11.645   8.911   9.119  1.5288 -2.1960 -1.2030
  593MOL0     H81779  11.659   9.135   8.908 -1.0384  0.4452  0.6613
  593MOL0     H81780  11.788   9.065   8.998 -0.9320  0.7519 -1.3113
  593MOL0     H81781  11.711   9.290   9.109 -4.2655  3.1101 -1.0138
  593MOL0     H81782  11.556   9.253   9.086 -0.4738 -2.0767 -0.4475
  593MOL0     H81783  11.772   9.315   9.326 -3.2246  2.6253 -3.5433
  593MOL0     H81784  11.619   9.182   9.656 -0.3839  0.3771 -1.0955
  593MOL0     H81785  11.705   9.332   9.626 -0.8615  0.2469  0.8498
  593MOL0     H81786  11.838   9.062   9.626  3.1528  0.2947 -0.5659
  593MOL0     H81787  11.905   9.229   9.600 -1.5838  2.8699  0.2572
  593MOL0     H81788  11.822   9.278   9.827 -1.3529  0.0011 -0.5788
  593MOL0     H81789  11.755   9.125   9.850  0.2918 -1.7550 -0.4043
  593MOL0     H81790  11.966   9.121   9.968  2.5023 -0.8013 -0.0775
  593MOL0     H81791  11.956   8.994   9.847  1.2796  0.2952  1.7531
  593MOL0     H81792  11.972   9.346   9.970 -1.9204  1.6390 -1.2337
  593MOL0     H81793  12.060   9.674  10.046  1.8604 -0.7804 -2.7857
  593MOL0     H81794  12.111   9.548  10.156 -0.6706  1.2726 -0.6802
  593MOL0     H81795  11.954   9.529  10.087  0.1500 -2.7037 -0.6984
  593MOL0     H81796  12.333   9.920   9.891  0.8279  1.9401  0.1136
  593MOL0     H81797  12.476  10.128   9.897 -0.6792 -1.6180  0.9885
  593MOL0     H81798  12.896  10.222   9.810 -0.8008  1.6156  0.4859
  593MOL0     H81799  12.851  10.089   9.706 -0.6285 -0.2630  0.3573
  593MOL0     H81800  12.665  10.209   9.611 -0.1773  1.5393 -1.8009
  593MOL0     H81801  12.719  10.356   9.714  2.3449  0.0336  0.8685
  593MOL0     H81802  12.859  10.206   9.487  0.6347 -1.4622  2.0581
  593MOL0     H81803  12.937  10.333   9.579  0.1106  0.4272  0.2370
  593MOL0     H81804  12.801  10.510   9.480  1.3698 -1.1090 -0.5971
  593MOL0     H81805  12.687  10.386   9.423  0.0344  1.1938 -0.2819
  593MOL0     H81806  12.841  10.507   9.258 -1.5288  2.0377  4.2540
  593MOL0     H81807  12.977  10.429   9.341  0.1166 -1.8700  1.6132
  593MOL0     H81808  12.766  10.316   9.151  0.1602 -4.1916 -1.8719
  593MOL0     H81809  12.814  10.207   9.273 -1.2272  2.2039  2.6008
  593MOL0     H81810  12.949  10.174   9.069 -0.2052 -0.0161  0.9292
  593MOL0     H81811  13.070  10.252   9.162  0.9955 -4.2474 -2.4892
  593MOL0     H81812  13.016  10.464   9.060  2.0232 -1.3313  1.5259
  593MOL0     H81813  12.898  10.367   8.954  0.0954 -2.7767 -2.9408
  593MOL0     H81814  12.819   9.911   9.793 -0.5012  4.6952  0.2068
  593MOL0     H81815  12.701   9.710   9.771  1.3231  1.0408 -0.3543
  593MOL0     H81816  12.389   9.446   9.740  0.0235 -2.5421 -0.8561
  593MOL0     H81817  12.293   9.239   9.707  1.3964 -0.7169 -0.0476
  593MOL0     H81818  11.018   8.717   8.716  1.2426 -0.1065  1.0321
  593MOL0     H81819  10.778   8.791   8.750  1.0356 -0.4201 -0.8707
  593MOL0     H81820  10.400   8.760   8.893 -0.4415 -0.3835  0.8260
  593MOL0     H81821  10.130   8.769   8.927  0.0165 -2.2006 -1.1889
  593MOL0     H81822   9.956   8.791   9.290 -2.4994  1.3040  0.6595
  593MOL0     H81823   9.997   8.888   9.151  0.0732 -1.5350 -3.1698
  593MOL0     H81824   9.724   8.820   9.196 -0.1715  2.2605 -0.1076
  593MOL0     H81825   9.787   8.697   9.095  1.9903 -1.2939  0.0148
  593MOL0     H81826   9.870   8.911   8.943  0.6586 -3.0877 -1.8802
  593MOL0     H81827   9.708   8.842   8.925 -0.2950 -0.5873  0.7830
  593MOL0     H81828   9.728   9.059   9.126 -2.6226  0.8705  0.2327
  593MOL0     H81829   9.592   8.973   9.056  0.3588  0.8491  0.1117
  593MOL0     H81830   9.666   9.220   8.728 -2.2466 -0.2354  0.1956
  593MOL0     H81831  10.175   8.584   9.297  0.3599 -0.2351  0.1055
  593MOL0     H81832  10.389   8.545   9.411 -0.8311 -0.2258 -0.4654
  593MOL0     H81833  10.490   8.469   9.303 -1.0255 -0.3615  1.1308
  593MOL0     H81834  10.526   8.635   9.355  1.3385  0.3246 -1.7384
  594MOL0     O81835  10.247  10.109  11.519 -0.4117  1.4857  0.4625
  594MOL0     C81836  10.177  10.122  11.617 -0.2023 -0.0262  0.3389
  594MOL0     O81837  10.050  10.171  11.607  0.1758  0.3266  0.0474
  594MOL0     C81838   9.994  10.218  11.491  0.9896 -0.3091 -0.2678
  594MOL0     C81839  10.057  10.313  11.405 -0.2470  0.2592  0.4960
  594MOL0     C81840   9.979  10.365  11.304 -0.0044  0.2553  0.4160
  594MOL0     C81841   9.851  10.319  11.277  0.6254 -0.2536  0.6574
  594MOL0     O81842   9.751  10.371  11.195  0.1305 -0.0843 -0.5222
  594MOL0     C81843   9.794  10.463  11.091  0.1381 -0.3951 -0.3526
  594MOL0     C81844   9.855  10.398  10.974 -0.6256 -0.1765  0.3841
  594MOL0     C81845   9.783  10.287  10.908  0.0389 -0.9577  0.1017
  594MOL0     C81846   9.672  10.341  10.817 -0.8123  0.3811  0.4801
  594MOL0     C81847   9.579  10.221  10.767 -0.1032  0.1207  0.2165
  594MOL0     C81848   9.639  10.081  10.757  0.6769  0.2374  0.3935
  594MOL0     C81849   9.560   9.968  10.672  0.3913  0.0149 -0.7297
  594MOL0     C81850   9.650   9.898  10.563 -0.4096  0.6831  0.1850
  594MOL0     N81851   9.587   9.780  10.511 -0.1620 -0.9294  0.0830
  594MOL0     C81852   9.454   9.758  10.487  0.5014 -0.8186  0.1024
  594MOL0     C81853   9.442   9.626  10.464  0.5702 -0.1255  0.1315
  594MOL0     C81854   9.318   9.556  10.407  0.5321 -0.1963  0.4652
  594MOL0     C81855   9.357   9.422  10.345  0.1548 -0.5062  0.8376
  594MOL0     C81856   9.413   9.430  10.202  0.4163 -0.2149  0.0342
  594MOL0     C81857   9.300   9.449  10.099 -0.4203  0.3141 -0.3966
  594MOL0     O81858   9.222   9.325  10.098 -0.4346 -0.6050  0.0815
  594MOL0     C81859   9.114   9.319  10.016  0.4401  0.1040 -0.6040
  594MOL0     C81860   9.117   9.370   9.885  0.2475 -0.4545  0.2427
  594MOL0     C81861   9.002   9.359   9.800 -0.1752 -0.1335  0.9185
  594MOL0     C81862   9.014   9.417   9.662  0.1010 -0.4584 -1.5956
  594MOL0     C81863   8.877   9.299   9.850 -0.4762  0.4883 -0.5186
  594MOL0     C81864   8.760   9.272   9.765  0.9995 -0.5016  0.1277
  594MOL0     O81865   8.643   9.329   9.816 -1.1526 -0.2580 -0.4908
  594MOL0     C81866   8.542   9.348   9.721 -0.9957 -0.8126 -0.3299
  594MOL0     C81867   8.419   9.292   9.743  0.1699  1.1435  0.0155
  594MOL0     C81868   8.315   9.307   9.649 -0.7434  0.2624  0.7553
  594MOL0     C81869   8.335   9.395   9.541  0.2980 -0.4396 -0.0693
  594MOL0     O81870   8.237   9.406   9.447  0.2154  0.3769  0.5106
  594MOL0     C81871   8.230   9.534   9.385  0.4002 -0.8348 -0.7162
  594MOL0     C81872   8.100   9.567   9.300  0.0074  0.5968  0.5104
  594MOL0     C81873   8.090   9.472   9.177  0.3502  0.4019 -0.4402
  594MOL0     C81874   7.976   9.523   9.091  0.2951 -0.4979 -0.2939
  594MOL0     C81875   7.982   9.462   8.949  0.5536  0.1744 -0.3176
  594MOL0     C81876   7.989   9.305   8.951 -0.0676  0.3583 -0.8923
  594MOL0     C81877   7.920   9.224   8.831  0.4451 -0.8590 -1.0854
  594MOL0     C81878   7.932   9.290   8.695 -0.0403  0.4050  0.3887
  594MOL0    Cl81879   8.101   9.272   8.652 -0.0032 -0.3714  0.2603
  594MOL0     C81880   8.457   9.478   9.540  0.5212  0.8560  0.6517
  594MOL0     C81881   8.557   9.449   9.628  0.2167  0.4186  0.2887
  594MOL0     O81882   8.761   9.219   9.658  0.3474 -0.1219  0.4226
  594MOL0     C81883   8.882   9.248   9.982  0.4354  0.9469  0.2078
  594MOL0     C81884   8.997   9.249  10.055 -0.1905 -0.7111 -0.9153
  594MOL0     N81885   9.568   9.568  10.459 -0.0412 -0.4853 -1.2852
  594MOL0     N81886   9.653   9.663  10.492  0.2030 -0.1457  0.3122
  594MOL0     C81887   9.798  10.218  11.356 -0.1266  0.3069  0.2560
  594MOL0     C81888   9.864  10.165  11.457  0.0752 -0.2765 -0.8930
  594MOL0     C81889  10.231  10.085  11.751 -0.4704 -0.3003 -0.4735
  594MOL0     C81890  10.143  10.077  11.856  1.0334  1.0096  0.3036
  594MOL0     C81891  10.174  10.039  11.985  0.6215  0.3076  0.8960
  594MOL0     C81892  10.307  10.000  12.011  0.0762 -0.1263 -0.3591
  594MOL0     O81893  10.335   9.952  12.133  0.2173  1.1965 -0.9520
  594MOL0     C81894  10.451   9.869  12.160  1.0739  0.5148 -0.3731
  594MOL0     C81895  10.550   9.952  12.236 -0.5477 -0.3838  0.3465
  594MOL0     C81896  10.645   9.869  12.326  0.1399 -0.3441  0.9821
  594MOL0     C81897  10.639   9.904  12.477  0.8724 -0.9433  0.4616
  594MOL0     C81898  10.667  10.051  12.486  0.2263  0.5923  0.2087
  594MOL0     C81899  10.683  10.174  12.496 -0.4818 -0.2586  0.1147
  594MOL0     C81900  10.401  10.015  11.908 -0.5206 -0.6323 -0.1384
  594MOL0     C81901  10.366  10.066  11.783 -0.5479 -0.1145 -0.5318
  594MOL0     C81902  10.468  10.107  11.678 -0.5637  0.3389 -0.2761
  594MOL0     H81903  10.160  10.346  11.415  1.7852 -2.8345 -5.4578
  594MOL0     H81904  10.016  10.453  11.253  1.7472 -1.7141 -1.9566
  594MOL0     H81905   9.864  10.541  11.122  0.5572 -0.7116 -0.5003
  594MOL0     H81906   9.692  10.501  11.075 -0.0924  0.0976  1.9429
  594MOL0     H81907   9.886  10.474  10.902 -1.8728  0.5800  0.6157
  594MOL0     H81908   9.944  10.346  11.009 -2.1547 -3.2001  0.1201
  594MOL0     H81909   9.857  10.228  10.854  1.9240  1.9080 -0.6322
  594MOL0     H81910   9.749  10.225  10.992  0.9585 -0.8736  0.5446
  594MOL0     H81911   9.607  10.416  10.863 -0.0245  0.6970  1.0864
  594MOL0     H81912   9.735  10.387  10.741  2.0468  0.9858  3.0346
  594MOL0     H81913   9.525  10.244  10.675  1.6843 -2.3243 -1.5445
  594MOL0     H81914   9.505  10.231  10.847 -1.8567  1.0687 -1.4324
  594MOL0     H81915   9.733  10.097  10.703  1.1176 -2.8997  0.0645
  594MOL0     H81916   9.642  10.043  10.859  1.5397 -0.1633  0.2298
  594MOL0     H81917   9.474  10.022  10.630  1.8799  2.6269 -0.6440
  594MOL0     H81918   9.507   9.903  10.742  0.1293 -0.9192 -1.7696
  594MOL0     H81919   9.670   9.977  10.490  4.2365 -0.5504 -0.1930
  594MOL0     H81920   9.746   9.868  10.606 -1.3264 -1.0005  1.1496
  594MOL0     H81921   9.378   9.836  10.492  5.0233  4.3898 -1.6923
  594MOL0     H81922   9.266   9.619  10.335  0.7625 -0.4798  0.0484
  594MOL0     H81923   9.246   9.538  10.488 -0.5882 -0.6006 -0.5940
  594MOL0     H81924   9.428   9.367  10.408 -0.5920 -2.5977 -0.0346
  594MOL0     H81925   9.268   9.358  10.347  0.3464 -0.7716  1.0686
  594MOL0     H81926   9.482   9.515  10.207  3.0789 -2.3197  2.3448
  594MOL0     H81927   9.469   9.340  10.177  0.4519 -0.9921  2.6236
  594MOL0     H81928   9.238   9.537  10.121 -1.6242 -0.9550  1.6251
  594MOL0     H81929   9.340   9.469   9.999  2.4816  0.4582  0.7102
  594MOL0     H81930   9.201   9.423   9.842 -1.1870  1.5666 -0.2028
  594MOL0     H81931   9.000   9.346   9.580  0.0202  1.4527 -3.3424
  594MOL0     H81932   9.113   9.460   9.641  2.2799 -4.3025 -0.1736
  594MOL0     H81933   8.941   9.498   9.660 -0.1032 -0.4807  1.4758
  594MOL0     H81934   8.404   9.228   9.829 -0.1662  1.3670  0.1242
  594MOL0     H81935   8.224   9.250   9.658  0.4309 -2.4790 -2.5229
  594MOL0     H81936   8.243   9.609   9.464  1.8502 -0.9064 -0.8553
  594MOL0     H81937   8.319   9.559   9.326 -0.5473  2.5155 -0.9716
  594MOL0     H81938   8.018   9.536   9.366 -0.0544  1.1301  0.6865
  594MOL0     H81939   8.105   9.674   9.279 -1.7738  1.6535  4.4078
  594MOL0     H81940   8.059   9.372   9.209 -0.7391  0.6234 -0.7627
  594MOL0     H81941   8.183   9.463   9.119 -1.2673  1.8931 -3.4848
  594MOL0     H81942   7.986   9.631   9.077  0.4019 -0.2138  1.7545
  594MOL0     H81943   7.879   9.504   9.137  0.1325  2.0004  0.5040
  594MOL0     H81944   7.894   9.501   8.897 -1.7610 -0.9941  2.4670
  594MOL0     H81945   8.074   9.495   8.898  1.7565  0.0035  1.6418
  594MOL0     H81946   7.922   9.274   9.031  2.1024 -0.4433  0.7339
  594MOL0     H81947   8.090   9.268   8.971 -0.3631  0.0183 -0.0068
  594MOL0     H81948   7.815   9.206   8.857  0.3759 -1.4190 -1.7262
  594MOL0     H81949   7.965   9.124   8.829 -0.3355 -1.2106 -2.0188
  594MOL0     H81950   7.891   9.389   8.716 -0.7022 -0.6290  5.3264
  594MOL0     H81951   7.875   9.236   8.619  3.2721  0.3572 -2.3034
  594MOL0     H81952   8.485   9.551   9.464 -0.6514  1.4871  0.7954
  594MOL0     H81953   8.653   9.499   9.616  0.8806 -0.9253 -0.1346
  594MOL0     H81954   8.805   9.183  10.022 -0.0221  0.5973 -1.1955
  594MOL0     H81955   9.003   9.210  10.156  0.7163 -1.7348 -1.3388
  594MOL0     H81956   9.700  10.174  11.337  0.7971 -1.3536 -0.9240
  594MOL0     H81957   9.820  10.079  11.507  1.2838  0.4230  1.5601
  594MOL0     H81958  10.036  10.092  11.842  0.0661 -5.1093 -2.0442
  594MOL0     H81959  10.093  10.045  12.056  2.3482  0.7070  2.9576
  594MOL0     H81960  10.429   9.775  12.212  2.3119  0.5724  0.2944
  594MOL0     H81961  10.480   9.815  12.069 -0.9249 -0.5777 -0.4180
  594MOL0     H81962  10.491  10.013  12.305 -2.4451 -1.3291 -0.3701
  594MOL0     H81963  10.606  10.024  12.175  0.6829 -1.0901  0.6190
  594MOL0     H81964  10.621   9.763  12.310  2.7465 -1.2594  2.5550
  594MOL0     H81965  10.748   9.890  12.297 -0.9722  2.6143 -1.3395
  594MOL0     H81966  10.708   9.838  12.529  2.5628 -0.7736 -1.4305
  594MOL0     H81967  10.544   9.875  12.524  0.3371 -0.4066 -0.2582
  594MOL0     H81968  10.689  10.281  12.497 -1.1856 -0.1916 -0.8797
  594MOL0     H81969  10.506   9.996  11.925 -1.0949 -2.7840  1.4971
  594MOL0     H81970  10.479  10.039  11.594 -0.7765 -0.8636  0.6439
  594MOL0     H81971  10.466  10.210  11.640  0.0176  0.7168  0.6702
  594MOL0     H81972  10.566  10.102  11.727 -0.3215  2.1199 -0.4791
  595MOL0     O81973  10.953   8.011   1.322  0.4818 -0.2439  0.8113
  595MOL0     C81974  10.999   8.012   1.210 -0.1429  0.0367 -0.3815
  595MOL0     O81975  11.119   8.077   1.176 -0.1716  0.2593 -0.3195
  595MOL0     C81976  11.185   8.143   1.272  0.0062  0.7726  0.0659
  595MOL0     C81977  11.307   8.084   1.316 -0.3606  0.2155  0.5637
  595MOL0     C81978  11.384   8.141   1.421  0.1562 -0.2599  1.0689
  595MOL0     C81979  11.336   8.255   1.485 -0.3536  0.2726  0.3513
  595MOL0     O81980  11.415   8.298   1.586 -0.1815 -0.5606 -0.0909
  595MOL0     C81981  11.364   8.376   1.690  0.1938 -0.1590  0.7564
  595MOL0     C81982  11.405   8.524   1.705 -0.0025 -0.1216 -0.7910
  595MOL0     C81983  11.352   8.619   1.597 -0.5127  0.1586 -0.0626
  595MOL0     C81984  11.439   8.746   1.597 -0.4998 -0.3606 -0.7465
  595MOL0     C81985  11.385   8.857   1.507  1.1861 -0.1663  0.2276
  595MOL0     C81986  11.483   8.980   1.486  0.2505  0.2713  0.2217
  595MOL0     C81987  11.515   9.044   1.621 -0.4444  0.7173  0.4745
  595MOL0     C81988  11.596   9.177   1.611 -0.2099 -0.5637 -0.1255
  595MOL0     N81989  11.738   9.151   1.633  0.4992  0.2278  0.5496
  595MOL0     C81990  11.813   9.161   1.750  0.4087 -0.0970 -0.4819
  595MOL0     C81991  11.926   9.093   1.728  0.9732  0.2272  0.2123
  595MOL0     C81992  12.023   9.038   1.836  0.8068  0.7519 -0.0686
  595MOL0     C81993  12.086   8.909   1.794  0.0363  0.3594 -0.8373
  595MOL0     C81994  11.974   8.804   1.747  0.0831  0.2202  0.2912
  595MOL0     C81995  11.864   8.771   1.848 -0.0791 -0.1227  0.9126
  595MOL0     O81996  11.932   8.759   1.968  0.2021  0.6661  0.3849
  595MOL0     C81997  11.872   8.724   2.080 -0.1106 -0.0624 -0.0279
  595MOL0     C81998  11.738   8.694   2.082  0.6062  0.2880  0.7442
  595MOL0     C81999  11.665   8.680   2.191  0.4589 -0.2174 -0.5394
  595MOL0     C82000  11.515   8.640   2.181 -0.5872 -1.5234 -0.0374
  595MOL0     C82001  11.733   8.684   2.318  0.0443 -0.5385 -0.1276
  595MOL0     C82002  11.670   8.675   2.452  0.1962 -0.3344 -0.1734
  595MOL0     O82003  11.753   8.701   2.556 -0.6873 -0.1957  0.0842
  595MOL0     C82004  11.702   8.711   2.678  0.6056 -1.1112 -0.3971
  595MOL0     C82005  11.772   8.655   2.777 -0.3537 -0.5163 -1.8392
  595MOL0     C82006  11.717   8.660   2.910 -0.8934  0.0790  0.2468
  595MOL0     C82007  11.588   8.711   2.942 -0.0582 -1.0787 -0.1969
  595MOL0     O82008  11.551   8.686   3.066  1.0661  0.2039  0.0235
  595MOL0     C82009  11.416   8.650   3.089  0.6091  0.5028  0.1438
  595MOL0     C82010  11.395   8.493   3.093 -0.6159  0.3412  0.1397
  595MOL0     C82011  11.248   8.460   3.141 -0.4905 -0.6624  0.2890
  595MOL0     C82012  11.219   8.309   3.125 -0.7925 -0.0142 -0.2771
  595MOL0     C82013  11.086   8.273   3.202  0.4975  1.2869  0.3646
  595MOL0     C82014  11.058   8.115   3.204 -0.7823 -0.5248 -1.0208
  595MOL0     C82015  10.992   8.067   3.086  1.0203  0.2754 -0.1103
  595MOL0     C82016  10.933   7.923   3.105  0.0849  0.2198 -0.2106
  595MOL0    Cl82017  10.871   7.864   2.936 -0.3648  0.0018 -0.0354
  595MOL0     C82018  11.521   8.778   2.838  0.6313  0.8637  0.1380
  595MOL0     C82019  11.584   8.785   2.713  0.4954  0.8947  0.5322
  595MOL0     O82020  11.552   8.652   2.453 -0.0192  0.9721 -0.3642
  595MOL0     C82021  11.870   8.714   2.314  0.2637  0.4584 -0.1378
  595MOL0     C82022  11.944   8.735   2.197  0.8218 -0.5371 -0.1181
  595MOL0     N82023  11.930   9.078   1.591  0.3732 -0.1789  0.1320
  595MOL0     N82024  11.817   9.114   1.527 -0.3492  0.4766 -0.4614
  595MOL0     C82025  11.214   8.313   1.442 -0.0022 -0.0512  1.4218
  595MOL0     C82026  11.137   8.255   1.333  0.1317 -0.4660  0.0225
  595MOL0     C82027  10.907   7.971   1.102 -0.4219 -0.5746  0.1630
  595MOL0     C82028  10.929   8.037   0.974  0.9413  0.3638 -0.1787
  595MOL0     C82029  10.834   8.026   0.873 -0.4121  0.8066 -0.0817
  595MOL0     C82030  10.719   7.949   0.887 -0.9067 -0.2640 -0.4711
  595MOL0     O82031  10.610   7.952   0.799  0.9396  0.6302  0.2074
  595MOL0     C82032  10.525   8.065   0.797 -0.3274  0.9047 -0.0772
  595MOL0     C82033  10.404   8.019   0.704 -0.9409  0.8714  0.0849
  595MOL0     C82034  10.335   8.147   0.663  0.2057 -0.0664  0.4782
  595MOL0     C82035  10.249   8.113   0.533  0.0659  0.2118 -0.1789
  595MOL0     C82036  10.114   8.170   0.546  0.0336 -0.3431 -0.3080
  595MOL0     C82037  10.004   8.207   0.563  0.5061  0.9007  0.3907
  595MOL0     C82038  10.713   7.872   0.996  0.8010  1.3349 -0.1351
  595MOL0     C82039  10.804   7.874   1.107  0.6952  0.7214  0.7699
  595MOL0     C82040  10.772   7.786   1.227 -0.6714  0.3881  0.4669
  595MOL0     H82041  11.355   8.011   1.252 -2.6247 -1.7780  0.9837
  595MOL0     H82042  11.474   8.095   1.458  0.3853 -1.3223 -0.6821
  595MOL0     H82043  11.398   8.321   1.778  2.0630  0.2213  0.3019
  595MOL0     H82044  11.255   8.368   1.696  0.3290 -1.2243  2.4912
  595MOL0     H82045  11.358   8.565   1.795 -1.0571 -1.4097 -0.7307
  595MOL0     H82046  11.514   8.534   1.707 -0.1282  1.5335  0.0844
  595MOL0     H82047  11.372   8.582   1.496  1.0340  2.5785 -0.7208
  595MOL0     H82048  11.250   8.656   1.610 -0.3947  1.4865 -2.4568
  595MOL0     H82049  11.449   8.784   1.699  1.5108 -0.1179 -0.9999
  595MOL0     H82050  11.543   8.732   1.568 -0.2068 -0.7069  0.4094
  595MOL0     H82051  11.301   8.902   1.562  1.0046  1.2736 -1.1498
  595MOL0     H82052  11.335   8.831   1.413  0.0376  1.3881  0.3573
  595MOL0     H82053  11.579   8.952   1.441 -0.1535  0.9192 -1.1079
  595MOL0     H82054  11.426   9.049   1.423 -1.0705 -1.2421 -0.3157
  595MOL0     H82055  11.559   8.976   1.695 -0.7862  0.4705  0.4565
  595MOL0     H82056  11.416   9.069   1.660 -0.1055 -0.0934  1.9141
  595MOL0     H82057  11.585   9.221   1.511 -0.0696 -0.3837 -0.0630
  595MOL0     H82058  11.567   9.243   1.694 -0.1633 -1.0684  0.2968
  595MOL0     H82059  11.778   9.204   1.844  0.8664  0.9536 -0.7833
  595MOL0     H82060  11.964   9.015   1.925  1.0831 -0.3076 -0.1463
  595MOL0     H82061  12.100   9.110   1.867  1.0519  0.0015  1.1393
  595MOL0     H82062  12.170   8.918   1.725  0.2604  0.5679 -0.5439
  595MOL0     H82063  12.128   8.867   1.886  0.3533  1.0402 -0.6638
  595MOL0     H82064  11.939   8.827   1.646  2.7216  0.8507 -0.5680
  595MOL0     H82065  12.013   8.704   1.727 -0.7270  0.1936 -1.3323
  595MOL0     H82066  11.791   8.852   1.848  0.3130  0.2711 -1.0426
  595MOL0     H82067  11.810   8.678   1.827  0.2955 -0.4367  1.3113
  595MOL0     H82068  11.678   8.688   1.992  0.4595 -2.6884  0.9308
  595MOL0     H82069  11.444   8.710   2.227 -0.5589 -0.0594 -2.0728
  595MOL0     H82070  11.503   8.537   2.215 -0.6603 -1.8900 -1.1348
  595MOL0     H82071  11.477   8.638   2.079 -1.2518 -1.0062  0.1866
  595MOL0     H82072  11.869   8.609   2.766  0.8516  0.8877  1.5888
  595MOL0     H82073  11.781   8.613   2.983  1.8730 -2.2315 -3.3107
  595MOL0     H82074  11.386   8.688   3.187 -0.1509 -0.1976  0.1938
  595MOL0     H82075  11.340   8.701   3.030  1.5728  1.3400 -0.4026
  595MOL0     H82076  11.398   8.464   2.988  0.2061  1.5074 -0.1852
  595MOL0     H82077  11.470   8.442   3.154 -0.4629  0.8067  0.3466
  595MOL0     H82078  11.170   8.509   3.082  1.2798  0.1740 -1.4881
  595MOL0     H82079  11.241   8.485   3.247  0.6653 -1.6416  0.6239
  595MOL0     H82080  11.301   8.246   3.161 -3.6809 -3.9118  0.1927
  595MOL0     H82081  11.204   8.280   3.021 -2.0032 -1.1723  0.1907
  595MOL0     H82082  11.101   8.293   3.309  1.5646  0.6509  0.3588
  595MOL0     H82083  11.005   8.331   3.158 -0.1828  0.3553  0.3617
  595MOL0     H82084  10.986   8.084   3.280 -0.5485 -1.0604 -1.0180
  595MOL0     H82085  11.153   8.072   3.238 -1.2096  1.5296  3.4820
  595MOL0     H82086  11.060   8.060   3.001 -0.2178  1.3478 -1.2458
  595MOL0     H82087  10.901   8.122   3.058 -1.2351 -0.1725  5.0846
  595MOL0     H82088  10.854   7.915   3.181  0.0561  0.2124 -0.2406
  595MOL0     H82089  11.017   7.859   3.132 -0.9370 -0.4565  1.5884
  595MOL0     H82090  11.423   8.818   2.860  0.0618 -0.4401  0.0581
  595MOL0     H82091  11.533   8.847   2.639 -2.2252 -1.5993  0.0911
  595MOL0     H82092  11.932   8.714   2.403 -1.4716 -1.6510  1.1835
  595MOL0     H82093  12.050   8.761   2.200  0.2855  2.3378 -2.0947
  595MOL0     H82094  11.188   8.406   1.491 -2.4994 -0.0567  0.2476
  595MOL0     H82095  11.042   8.302   1.311  0.4802  2.2310  3.4645
  595MOL0     H82096  11.019   8.097   0.970  0.6065  1.0030  1.2081
  595MOL0     H82097  10.844   8.065   0.772 -2.1475 -1.8818 -1.4254
  595MOL0     H82098  10.491   8.074   0.900  0.5370  0.0391  0.2953
  595MOL0     H82099  10.578   8.156   0.767  3.0648  0.1613  3.0772
  595MOL0     H82100  10.344   7.943   0.754 -0.0084  1.5743  2.4098
  595MOL0     H82101  10.457   7.964   0.625 -2.2995 -0.2589 -0.0612
  595MOL0     H82102  10.271   8.183   0.744  0.0987  0.9302 -0.0368
  595MOL0     H82103  10.409   8.224   0.639 -0.0796 -0.6042 -2.5941
  595MOL0     H82104  10.239   8.008   0.501  0.8635  0.8205 -2.5835
  595MOL0     H82105  10.302   8.161   0.451  3.5404 -2.4592  0.2838
  595MOL0     H82106   9.904   8.240   0.581 -1.1965 -1.9591 -2.6961
  595MOL0     H82107  10.635   7.798   0.987  1.8648  0.3098 -1.3308
  595MOL0     H82108  10.738   7.850   1.309 -0.6607  3.5237 -1.7941
  595MOL0     H82109  10.691   7.716   1.206  1.1984 -0.8008 -3.8905
  595MOL0     H82110  10.859   7.728   1.261 -1.0104 -0.1874  0.3588
  596MOL0     O82111   8.952   7.053   6.097 -0.1533 -0.1649 -0.4986
  596MOL0     C82112   9.052   7.123   6.109 -0.7397 -0.5254  0.1884
  596MOL0     O82113   9.140   7.157   6.005 -0.0347 -0.6276  0.0024
  596MOL0     C82114   9.131   7.124   5.873 -1.2783  0.1798 -0.2265
  596MOL0     C82115   9.032   7.051   5.811 -0.0013  0.2418 -0.0036
  596MOL0     C82116   9.040   7.023   5.679 -0.7090  0.1106  0.0797
  596MOL0     C82117   9.140   7.069   5.597  0.7263  0.2497  0.0556
  596MOL0     O82118   9.145   7.037   5.455 -0.5087  0.5515 -0.4529
  596MOL0     C82119   9.088   7.143   5.373 -0.1401  0.7454 -0.1365
  596MOL0     C82120   9.160   7.139   5.236  0.5715  0.7369  0.3053
  596MOL0     C82121   9.107   7.226   5.117 -0.0471  0.7892  0.5147
  596MOL0     C82122   8.958   7.216   5.092 -0.9006 -0.5760  0.4426
  596MOL0     C82123   8.925   7.286   4.949 -0.3109 -0.9187  0.4700
  596MOL0     C82124   8.954   7.218   4.814 -0.2479  0.0909  0.3686
  596MOL0     C82125   8.889   7.079   4.801  0.2166  1.0686  0.2377
  596MOL0     C82126   8.923   7.017   4.660 -0.3010  0.7719 -0.2265
  596MOL0     N82127   8.878   6.879   4.650  0.4606  0.8285  1.2149
  596MOL0     C82128   8.742   6.838   4.647  0.2457  1.1652  0.1151
  596MOL0     C82129   8.752   6.703   4.631  0.1448 -0.3057  0.4425
  596MOL0     C82130   8.623   6.620   4.642  0.4630  1.2666  0.4546
  596MOL0     C82131   8.557   6.609   4.503 -0.8852  0.6728 -0.2063
  596MOL0     C82132   8.644   6.533   4.392 -0.6015 -1.0065  0.2063
  596MOL0     C82133   8.625   6.388   4.378  1.7403  0.0609  0.2920
  596MOL0     O82134   8.738   6.327   4.325  0.4984 -0.5226  0.6023
  596MOL0     C82135   8.752   6.342   4.192 -0.4756  0.8722  0.4949
  596MOL0     C82136   8.695   6.244   4.109  1.0115  0.5854  0.4960
  596MOL0     C82137   8.700   6.254   3.965 -0.2429  0.6714 -0.4663
  596MOL0     C82138   8.652   6.130   3.891  0.5540  0.2589 -0.7454
  596MOL0     C82139   8.763   6.369   3.916 -0.8885  0.5830  0.7334
  596MOL0     C82140   8.775   6.400   3.766  1.0707  0.5594 -0.4727
  596MOL0     O82141   8.848   6.511   3.730  0.1426  0.0084  0.9682
  596MOL0     C82142   8.863   6.544   3.597  0.4832 -1.1217  0.0831
  596MOL0     C82143   8.756   6.576   3.506 -0.0083  0.0925 -0.1694
  596MOL0     C82144   8.785   6.604   3.372 -0.7526 -0.6421  0.8993
  596MOL0     C82145   8.918   6.610   3.323  0.3142  0.1909 -0.3810
  596MOL0     O82146   8.947   6.619   3.190  0.3772 -0.0205 -0.7869
  596MOL0     C82147   9.072   6.582   3.137 -0.0816 -0.4575 -0.2080
  596MOL0     C82148   9.067   6.561   2.990  0.7519 -0.0410 -0.0496
  596MOL0     C82149   8.960   6.466   2.948  0.6511  1.2121  0.9542
  596MOL0     C82150   8.962   6.430   2.800  0.7605 -0.8115  0.1820
  596MOL0     C82151   8.864   6.534   2.725  0.4334 -0.7069 -0.0255
  596MOL0     C82152   8.873   6.506   2.577  0.5679 -0.0969  0.4247
  596MOL0     C82153   8.846   6.369   2.524  0.3248 -0.3711  0.1373
  596MOL0     C82154   8.704   6.307   2.558 -0.1840 -0.7924 -0.2652
  596MOL0    Cl82155   8.716   6.124   2.573  0.2909 -0.1164  0.5833
  596MOL0     C82156   9.029   6.586   3.415 -0.0849 -0.7216 -0.0732
  596MOL0     C82157   9.003   6.554   3.545  1.1327 -0.7223  0.1189
  596MOL0     O82158   8.712   6.336   3.687 -0.3882 -0.1978 -0.1742
  596MOL0     C82159   8.825   6.459   3.998 -0.1242  0.2606 -0.0220
  596MOL0     C82160   8.828   6.445   4.133  0.4637  0.6615 -0.4254
  596MOL0     N82161   8.892   6.663   4.627  0.1680 -0.4331 -0.3054
  596MOL0     N82162   8.961   6.769   4.635 -0.1589  0.0296  0.1058
  596MOL0     C82163   9.237   7.153   5.652 -0.5609  0.6577  0.0658
  596MOL0     C82164   9.234   7.178   5.794  0.1826 -0.1904 -0.5257
  596MOL0     C82165   9.091   7.195   6.233 -0.2801 -1.4536 -0.0337
  596MOL0     C82166   9.195   7.292   6.231  0.1160  0.1696  0.0998
  596MOL0     C82167   9.234   7.358   6.343 -0.2648  0.4411 -0.0673
  596MOL0     C82168   9.174   7.336   6.467 -0.2031  0.1779 -0.1723
  596MOL0     O82169   9.217   7.401   6.574  0.2150 -0.1759  0.6292
  596MOL0     C82170   9.215   7.347   6.704  0.8480  0.1428  0.5355
  596MOL0     C82171   9.311   7.405   6.791 -0.1087  0.1609 -0.9127
  596MOL0     C82172   9.453   7.341   6.764  0.7537 -0.9642  0.5290
  596MOL0     C82173   9.541   7.371   6.893  0.9780  0.1013 -0.1520
  596MOL0     C82174   9.672   7.312   6.884 -1.2083  0.6469 -1.4976
  596MOL0     C82175   9.784   7.270   6.875  0.0923 -0.1716 -0.7615
  596MOL0     C82176   9.066   7.248   6.478 -0.0173  1.2405  0.0501
  596MOL0     C82177   9.023   7.179   6.359 -0.3380 -0.2421 -0.2684
  596MOL0     C82178   8.913   7.083   6.371  0.5573 -0.6534 -0.0214
  596MOL0     H82179   8.951   6.998   5.859  0.3172  0.6567  1.0281
  596MOL0     H82180   8.969   6.966   5.620 -3.0969  0.3454  2.5412
  596MOL0     H82181   9.109   7.242   5.415 -0.8785  1.1319 -0.6380
  596MOL0     H82182   8.981   7.125   5.359  0.1561  0.5669 -2.5883
  596MOL0     H82183   9.246   7.200   5.265  1.3228  0.1298 -0.5917
  596MOL0     H82184   9.191   7.037   5.214 -0.9771  0.1194  0.8076
  596MOL0     H82185   9.135   7.331   5.135 -1.1429  0.6142  3.9028
  596MOL0     H82186   9.154   7.191   5.025 -2.4791  0.0186 -0.5219
  596MOL0     H82187   8.928   7.112   5.109 -2.2036 -0.4367 -0.8213
  596MOL0     H82188   8.909   7.271   5.174  4.1586  2.3624  1.9199
  596MOL0     H82189   8.962   7.389   4.948 -1.5062 -0.4748  0.1466
  596MOL0     H82190   8.816   7.302   4.947 -0.1816 -0.0022 -0.2833
  596MOL0     H82191   8.912   7.273   4.729  1.1584  1.1636  0.3264
  596MOL0     H82192   9.062   7.200   4.809  0.1344  1.3236  2.6332
  596MOL0     H82193   8.782   7.080   4.824  0.4933 -1.0806  2.0410
  596MOL0     H82194   8.924   7.015   4.883 -0.7010  0.9220  0.5360
  596MOL0     H82195   8.882   7.071   4.574  0.6265  0.7344 -0.7032
  596MOL0     H82196   9.032   7.025   4.656  0.1000 -0.5450  3.6082
  596MOL0     H82197   8.652   6.898   4.656 -0.4817  0.3811 -1.3196
  596MOL0     H82198   8.555   6.651   4.722 -1.1130 -2.0912  0.6001
  596MOL0     H82199   8.660   6.519   4.665  2.6475  1.7229 -0.8652
  596MOL0     H82200   8.461   6.561   4.527 -0.0141  0.7298  4.2353
  596MOL0     H82201   8.531   6.709   4.466 -0.9716  0.7075 -0.0523
  596MOL0     H82202   8.636   6.588   4.297 -0.2245  0.6892  1.1181
  596MOL0     H82203   8.751   6.546   4.411 -0.5004  1.1874 -1.4517
  596MOL0     H82204   8.613   6.339   4.475 -2.3455 -1.1938 -0.6344
  596MOL0     H82205   8.534   6.358   4.325  0.8071 -0.1571  1.9470
  596MOL0     H82206   8.627   6.177   4.161  2.6786  0.7475  3.0889
  596MOL0     H82207   8.595   6.166   3.805  0.2602  4.4123  0.9605
  596MOL0     H82208   8.597   6.062   3.957  0.5930  0.7403 -0.2089
  596MOL0     H82209   8.739   6.071   3.860 -0.6019 -1.0761 -1.5925
  596MOL0     H82210   8.654   6.562   3.539 -0.5897  1.6983 -1.1892
  596MOL0     H82211   8.704   6.616   3.301  1.3789 -3.0864 -2.2414
  596MOL0     H82212   9.143   6.661   3.162  1.4039 -1.5068 -1.0192
  596MOL0     H82213   9.122   6.494   3.179  2.8773  1.3749  0.3559
  596MOL0     H82214   9.035   6.652   2.938 -1.6737 -0.4142  0.6422
  596MOL0     H82215   9.167   6.532   2.957  0.8583  0.9741 -0.6641
  596MOL0     H82216   8.868   6.511   2.986  1.1700  1.5593  1.8049
  596MOL0     H82217   8.954   6.368   2.997  1.5126  1.4556  1.5704
  596MOL0     H82218   8.928   6.327   2.780 -0.6946 -0.2081 -0.6298
  596MOL0     H82219   9.063   6.440   2.760  0.7117 -1.1231 -0.0270
  596MOL0     H82220   8.759   6.528   2.756  0.5031 -2.6430 -0.0371
  596MOL0     H82221   8.902   6.636   2.738  1.4263 -1.1288  0.4870
  596MOL0     H82222   8.967   6.544   2.535 -1.6904  4.6866 -1.0056
  596MOL0     H82223   8.800   6.576   2.535  2.3781  1.5734 -0.1079
  596MOL0     H82224   8.919   6.296   2.560  1.1944 -0.6759 -2.0435
  596MOL0     H82225   8.859   6.365   2.415  0.6435  0.7741  0.1140
  596MOL0     H82226   8.623   6.337   2.491 -1.1902  1.0011  1.6583
  596MOL0     H82227   8.678   6.347   2.656 -3.3718 -1.1158 -0.8878
  596MOL0     H82228   9.134   6.596   3.388  0.3327 -1.5777  1.1512
  596MOL0     H82229   9.086   6.526   3.609  2.0461 -0.1414 -0.7904
  596MOL0     H82230   8.883   6.537   3.950 -0.1925 -0.3456 -1.1244
  596MOL0     H82231   8.888   6.506   4.199  0.6881  1.7990 -1.6347
  596MOL0     H82232   9.318   7.195   5.593 -0.6756  1.9880  0.8164
  596MOL0     H82233   9.310   7.244   5.835 -2.5418  0.3583  4.4659
  596MOL0     H82234   9.246   7.312   6.137 -1.0186 -0.1461 -0.6024
  596MOL0     H82235   9.316   7.428   6.328  1.2664 -1.3230 -0.2051
  596MOL0     H82236   9.119   7.374   6.750  0.9275  3.3940 -0.9439
  596MOL0     H82237   9.243   7.243   6.721  0.6079 -0.1319 -0.7042
  596MOL0     H82238   9.282   7.371   6.891  1.0048 -0.5967 -0.8322
  596MOL0     H82239   9.325   7.514   6.790 -0.1650  0.3105  2.2220
  596MOL0     H82240   9.462   7.234   6.744  1.4244 -0.6084 -1.2323
  596MOL0     H82241   9.502   7.387   6.678 -1.7494 -0.4620 -0.7137
  596MOL0     H82242   9.500   7.342   6.990  3.8255  2.5223  1.9771
  596MOL0     H82243   9.555   7.478   6.906  0.8377  0.1777 -0.6089
  596MOL0     H82244   9.885   7.240   6.857  0.6763  0.7593  0.7864
  596MOL0     H82245   9.025   7.231   6.577 -1.0319  2.0190 -0.2218
  596MOL0     H82246   8.882   7.083   6.476  0.6962  2.6102  0.1385
  596MOL0     H82247   8.826   7.108   6.308  0.0935  0.8605  1.1537
  596MOL0     H82248   8.941   6.981   6.345 -1.2905 -0.8177 -1.6641
  597MOL0     O82249  10.908   2.557   1.818  0.5942  0.5517 -0.6346
  597MOL0     C82250  10.815   2.575   1.900  0.5016  0.9915  0.0007
  597MOL0     O82251  10.777   2.476   1.986 -0.8452 -0.0716 -0.5903
  597MOL0     C82252  10.745   2.517   2.110 -0.0445 -0.4131  0.4631
  597MOL0     C82253  10.849   2.510   2.204  0.8692 -0.0319 -1.2782
  597MOL0     C82254  10.826   2.557   2.335 -0.4717 -0.2664 -0.5600
  597MOL0     C82255  10.699   2.600   2.372  0.9510  0.7236 -0.2048
  597MOL0     O82256  10.682   2.667   2.496  0.2535 -0.3669  0.6322
  597MOL0     C82257  10.741   2.619   2.619  0.3459  0.0765 -0.9024
  597MOL0     C82258  10.671   2.667   2.741 -0.0126 -0.9954  0.3244
  597MOL0     C82259  10.529   2.615   2.749 -0.3503 -0.8006  0.2387
  597MOL0     C82260  10.451   2.679   2.873  0.4788 -0.1195 -0.1548
  597MOL0     C82261  10.496   2.623   3.012 -1.1139 -0.2816 -0.2125
  597MOL0     C82262  10.423   2.669   3.136  0.0256 -0.4138  0.1229
  597MOL0     C82263  10.301   2.584   3.171 -0.3389  0.4649 -0.1968
  597MOL0     C82264  10.237   2.619   3.296 -0.7847 -0.4372 -0.3667
  597MOL0     N82265  10.155   2.740   3.291 -0.3142  0.5934  0.2889
  597MOL0     C82266  10.025   2.753   3.254 -0.2758  0.3458  0.7156
  597MOL0     C82267  10.009   2.883   3.207  0.1658  0.6658  0.3088
  597MOL0     C82268   9.875   2.933   3.145 -0.3748  0.3186 -0.1803
  597MOL0     C82269   9.865   3.086   3.150 -0.2949 -0.3851  0.9702
  597MOL0     C82270   9.725   3.125   3.126 -0.0877 -0.2659 -0.1074
  597MOL0     C82271   9.714   3.266   3.167 -0.0859 -0.6945  0.0342
  597MOL0     O82272   9.636   3.266   3.285  0.0574 -0.5474 -0.0866
  597MOL0     C82273   9.602   3.386   3.344 -0.4635 -0.0301 -0.3325
  597MOL0     C82274   9.541   3.374   3.465  0.2005 -0.9295  0.8961
  597MOL0     C82275   9.523   3.489   3.552  0.6131 -0.4970 -0.0654
  597MOL0     C82276   9.478   3.451   3.688 -0.2069 -0.3070 -0.3410
  597MOL0     C82277   9.550   3.624   3.492 -0.3927  0.4309 -0.0082
  597MOL0     C82278   9.537   3.746   3.562  0.1218  0.2100 -0.0684
  597MOL0     O82279   9.480   3.739   3.690  0.1979 -0.2632  0.4002
  597MOL0     C82280   9.478   3.857   3.766  0.4258 -0.0744 -0.5828
  597MOL0     C82281   9.595   3.919   3.798  0.8369  0.4548 -0.2880
  597MOL0     C82282   9.597   4.029   3.873 -0.7515  0.9362 -0.3910
  597MOL0     C82283   9.480   4.084   3.927  0.0726  0.1144 -0.2667
  597MOL0     O82284   9.471   4.186   4.008 -0.8563 -0.2350 -0.0878
  597MOL0     C82285   9.580   4.216   4.089 -0.2595 -0.3125  0.6812
  597MOL0     C82286   9.537   4.289   4.215 -0.7064  0.4513  0.6583
  597MOL0     C82287   9.499   4.442   4.218  0.3507  0.3291  0.7548
  597MOL0     C82288   9.363   4.463   4.148 -0.2152  0.0120  0.1964
  597MOL0     C82289   9.295   4.595   4.194  0.1545  0.9910  0.2831
  597MOL0     C82290   9.386   4.714   4.173  0.2414  0.0395 -0.4012
  597MOL0     C82291   9.321   4.832   4.112  0.0970  0.2616  0.2392
  597MOL0     C82292   9.378   4.972   4.160 -0.4115 -0.0583 -0.1408
  597MOL0    Cl82293   9.346   4.972   4.338 -0.0021 -0.6765 -0.0285
  597MOL0     C82294   9.353   4.029   3.877 -0.2398  0.4714 -0.4055
  597MOL0     C82295   9.355   3.910   3.806 -0.1983 -0.0053  0.3519
  597MOL0     O82296   9.578   3.851   3.514 -0.0088  0.2369  0.4753
  597MOL0     C82297   9.613   3.622   3.372 -0.1448 -0.4769  0.7998
  597MOL0     C82298   9.630   3.513   3.296 -0.7427  0.9746  0.3958
  597MOL0     N82299  10.128   2.950   3.227  0.9202  1.0141 -0.4362
  597MOL0     N82300  10.207   2.870   3.286  0.6467 -0.4253  0.1635
  597MOL0     C82301  10.599   2.612   2.281  0.2589 -0.2826  0.3290
  597MOL0     C82302  10.622   2.564   2.148 -0.3561 -1.3026 -0.0696
  597MOL0     C82303  10.751   2.706   1.886  0.7453  0.3060  0.4911
  597MOL0     C82304  10.620   2.709   1.845  0.1250 -0.2401  0.4227
  597MOL0     C82305  10.560   2.834   1.810  0.5644  0.2633 -0.4244
  597MOL0     C82306  10.626   2.953   1.826  0.6681 -0.1591 -0.6193
  597MOL0     O82307  10.582   3.083   1.800 -0.0774 -0.0730  1.1939
  597MOL0     C82308  10.443   3.111   1.788  0.0066  0.1961  0.3188
  597MOL0     C82309  10.411   3.267   1.797 -0.7452  0.0887  0.1653
  597MOL0     C82310  10.295   3.319   1.707 -0.1554  0.4994  1.0949
  597MOL0     C82311  10.176   3.345   1.791  0.1528 -0.4859 -0.4613
  597MOL0     C82312  10.066   3.372   1.702 -0.4363 -1.5301 -0.3337
  597MOL0     C82313   9.962   3.392   1.646  0.7286  0.9866  0.0534
  597MOL0     C82314  10.759   2.947   1.871 -0.5374 -0.0042  0.3986
  597MOL0     C82315  10.823   2.826   1.906  0.1334 -0.7232 -0.0277
  597MOL0     C82316  10.965   2.822   1.956 -0.6405  0.0022 -0.8680
  597MOL0     H82317  10.949   2.468   2.192  1.1166 -0.3247  1.3434
  597MOL0     H82318  10.894   2.561   2.420 -1.1566 -1.1140  0.0478
  597MOL0     H82319  10.850   2.622   2.619  0.4227 -1.5074 -1.5785
  597MOL0     H82320  10.728   2.510   2.622 -2.7119  0.3376 -1.4307
  597MOL0     H82321  10.730   2.643   2.830  4.2095  0.0698 -1.9277
  597MOL0     H82322  10.667   2.776   2.745  1.0973 -0.9716  1.4055
  597MOL0     H82323  10.470   2.639   2.660 -0.7711  0.9372  0.9390
  597MOL0     H82324  10.528   2.506   2.750  4.0053 -1.1080  3.9852
  597MOL0     H82325  10.457   2.788   2.873  0.1535 -0.0914 -1.0387
  597MOL0     H82326  10.345   2.651   2.865  0.0517  0.9530  1.3992
  597MOL0     H82327  10.600   2.656   3.019 -1.2205 -0.1365  1.0505
  597MOL0     H82328  10.492   2.514   3.022  0.3151 -0.1909  2.4361
  597MOL0     H82329  10.497   2.668   3.217 -0.7019 -1.5850  0.7993
  597MOL0     H82330  10.384   2.770   3.121  0.5067 -0.2913 -0.3639
  597MOL0     H82331  10.340   2.482   3.177 -0.4575  0.5179  2.1672
  597MOL0     H82332  10.221   2.587   3.096 -2.4413  1.9988  1.9355
  597MOL0     H82333  10.176   2.533   3.324 -2.4252  0.3339 -1.3807
  597MOL0     H82334  10.304   2.644   3.379  1.0828  0.4121 -2.0320
  597MOL0     H82335   9.960   2.667   3.260 -0.2783  0.2707 -0.2226
  597MOL0     H82336   9.792   2.903   3.210 -0.3738 -0.2267 -0.4242
  597MOL0     H82337   9.848   2.893   3.047  0.6965 -0.9565  0.0177
  597MOL0     H82338   9.907   3.115   3.246  0.4430 -0.5865  0.7134
  597MOL0     H82339   9.929   3.133   3.074 -0.3036 -0.0233  1.1856
  597MOL0     H82340   9.688   3.114   3.024 -2.5729  1.0870  0.5913
  597MOL0     H82341   9.661   3.063   3.189  1.4718  1.1832  3.1527
  597MOL0     H82342   9.803   3.318   3.204 -2.0576  1.1486  2.5484
  597MOL0     H82343   9.689   3.327   3.080  4.4063  4.0484  1.6085
  597MOL0     H82344   9.514   3.274   3.497 -1.6092 -1.0648 -0.8494
  597MOL0     H82345   9.387   3.509   3.704 -0.2389  0.1826 -2.1242
  597MOL0     H82346   9.563   3.474   3.753 -1.3424  2.2891  0.3580
  597MOL0     H82347   9.458   3.344   3.701  1.6914 -1.1097 -3.2452
  597MOL0     H82348   9.683   3.868   3.759  0.5885  0.1687 -0.4827
  597MOL0     H82349   9.694   4.067   3.902  1.0662 -2.4856 -1.4481
  597MOL0     H82350   9.616   4.114   4.108 -0.2945 -0.4863 -0.1676
  597MOL0     H82351   9.664   4.270   4.045 -0.9336  0.6614  0.5570
  597MOL0     H82352   9.456   4.226   4.254 -2.2102  1.7077 -0.3105
  597MOL0     H82353   9.626   4.280   4.279  2.1659  0.5326 -3.0286
  597MOL0     H82354   9.562   4.510   4.159 -1.3606  0.0347 -1.5614
  597MOL0     H82355   9.485   4.483   4.318  0.0161 -1.4585  1.4661
  597MOL0     H82356   9.292   4.381   4.156  1.7818 -1.6021  2.3348
  597MOL0     H82357   9.384   4.494   4.045 -0.6050 -0.5348 -0.0531
  597MOL0     H82358   9.204   4.611   4.136  0.7195  2.9710 -0.1231
  597MOL0     H82359   9.276   4.593   4.302 -0.5443  1.1944  0.1670
  597MOL0     H82360   9.470   4.698   4.105 -1.2727  0.3335 -2.4254
  597MOL0     H82361   9.426   4.738   4.272 -1.5960 -2.0903  0.9861
  597MOL0     H82362   9.214   4.828   4.133  0.6079  1.7627  3.6878
  597MOL0     H82363   9.351   4.820   4.007  4.6282 -0.3037  1.3826
  597MOL0     H82364   9.323   5.048   4.105  0.4588  1.0248  0.4609
  597MOL0     H82365   9.484   4.983   4.134  0.2370 -0.6028  2.0011
  597MOL0     H82366   9.258   4.072   3.906 -0.8749 -1.6820  0.9144
  597MOL0     H82367   9.267   3.848   3.794  0.0722 -0.2913 -0.2142
  597MOL0     H82368   9.652   3.713   3.327  1.2608 -2.1968 -1.7611
  597MOL0     H82369   9.671   3.525   3.196 -3.8553  1.8775 -0.8950
  597MOL0     H82370  10.505   2.660   2.306 -0.0969 -0.7763 -0.0401
  597MOL0     H82371  10.542   2.577   2.076 -2.0117  6.1513  2.2526
  597MOL0     H82372  10.570   2.613   1.849  0.4861 -0.4002  3.9722
  597MOL0     H82373  10.464   2.825   1.761  0.5722 -1.9317 -0.1010
  597MOL0     H82374  10.414   3.075   1.689  0.2197 -2.4698  1.1329
  597MOL0     H82375  10.390   3.057   1.868  2.5491 -0.3261  1.7485
  597MOL0     H82376  10.496   3.327   1.764 -0.0832  0.1812  1.9112
  597MOL0     H82377  10.399   3.297   1.902 -0.3302  2.4825 -0.4192
  597MOL0     H82378  10.311   3.417   1.663 -2.3675 -0.3016 -1.8907
  597MOL0     H82379  10.274   3.254   1.621 -3.3985  2.9410 -0.1800
  597MOL0     H82380  10.183   3.431   1.858 -0.1892 -0.6373 -0.2250
  597MOL0     H82381  10.162   3.254   1.850 -0.5502  0.7985  1.4619
  597MOL0     H82382   9.862   3.405   1.610 -0.8387 -1.4728  3.0366
  597MOL0     H82383  10.818   3.037   1.886  0.5372 -0.4719 -0.8481
  597MOL0     H82384  11.023   2.816   1.863 -0.0308  0.6850 -0.5509
  597MOL0     H82385  10.989   2.906   2.023 -0.0568 -1.4239  0.7733
  597MOL0     H82386  10.990   2.729   2.008 -2.8064 -0.3802 -0.4283
  598MOL0     O82387   6.108   4.298   8.609  0.4121 -0.3333 -0.1252
  598MOL0     C82388   6.021   4.288   8.691  0.2783 -0.4382  0.6666
  598MOL0     O82389   5.992   4.173   8.753  1.1532 -0.0871 -0.4632
  598MOL0     C82390   6.033   4.054   8.713 -0.6285 -0.1097  0.9034
  598MOL0     C82391   6.023   3.958   8.814  0.4060 -0.3083 -0.2550
  598MOL0     C82392   6.050   3.828   8.781 -0.0036  0.2023  0.6040
  598MOL0     C82393   6.093   3.788   8.656 -0.7892 -0.3224  0.2294
  598MOL0     O82394   6.164   3.670   8.629  0.5838 -0.1119 -0.1578
  598MOL0     C82395   6.088   3.584   8.540 -0.4856  0.0503  0.1827
  598MOL0     C82396   5.966   3.525   8.620  0.3138  1.0274 -0.1386
  598MOL0     C82397   5.872   3.427   8.533 -1.2676  1.1736 -0.9335
  598MOL0     C82398   5.756   3.377   8.618 -0.1312 -0.1032 -0.1856
  598MOL0     C82399   5.661   3.270   8.562 -0.5856 -0.7685  0.3141
  598MOL0     C82400   5.590   3.320   8.426  0.4298 -0.1848  1.0629
  598MOL0     C82401   5.496   3.213   8.361 -0.5671  0.4976 -0.2713
  598MOL0     C82402   5.517   3.055   8.385 -0.3009  0.0134  1.2332
  598MOL0     N82403   5.401   2.977   8.347 -0.6685 -0.2877  0.2725
  598MOL0     C82404   5.356   2.962   8.218 -0.2289 -0.6994  0.2048
  598MOL0     C82405   5.249   2.882   8.222 -0.3039 -0.1079 -0.6636
  598MOL0     C82406   5.165   2.838   8.108 -0.1599  0.4154  0.2655
  598MOL0     C82407   5.027   2.783   8.167 -0.4204 -0.2487 -0.0901
  598MOL0     C82408   4.942   2.743   8.039 -0.5472 -0.1538 -0.4619
  598MOL0     C82409   4.821   2.680   8.093 -1.2121 -0.2697  1.1653
  598MOL0     O82410   4.720   2.778   8.107 -0.5572  0.6801  0.1325
  598MOL0     C82411   4.592   2.738   8.129  0.2193 -0.1266 -0.4461
  598MOL0     C82412   4.489   2.836   8.121  0.4861  1.0128  0.3704
  598MOL0     C82413   4.351   2.804   8.156 -0.3555 -0.0036 -0.4410
  598MOL0     C82414   4.261   2.920   8.174  0.3365  0.3747 -0.3086
  598MOL0     C82415   4.316   2.663   8.190  0.2053 -0.5697  1.0639
  598MOL0     C82416   4.176   2.618   8.217 -0.4563 -0.0832 -0.8272
  598MOL0     O82417   4.082   2.714   8.240  0.0865 -0.4005  0.8884
  598MOL0     C82418   3.948   2.687   8.246 -0.2558 -0.5800  1.1127
  598MOL0     C82419   3.873   2.708   8.359 -0.4289  0.0167 -0.0796
  598MOL0     C82420   3.741   2.660   8.367  0.3723 -0.5404  0.4889
  598MOL0     C82421   3.688   2.601   8.256 -0.0098  0.5777 -0.4873
  598MOL0     O82422   3.556   2.568   8.286 -0.3599 -0.3031  0.1630
  598MOL0     C82423   3.479   2.540   8.170  0.3100  0.5065 -0.7793
  598MOL0     C82424   3.332   2.534   8.211  0.2459 -0.2292  0.2389
  598MOL0     C82425   3.244   2.490   8.093  0.3807  0.2997  0.6167
  598MOL0     C82426   3.109   2.428   8.128 -0.6551  0.1578  1.0964
  598MOL0     C82427   3.129   2.292   8.194  0.4700 -0.5445 -0.0661
  598MOL0     C82428   3.090   2.296   8.342  0.0918  0.3080 -0.1088
  598MOL0     C82429   3.100   2.144   8.386 -1.5189 -0.5442  0.5098
  598MOL0     C82430   3.071   2.123   8.539  0.4072  0.7490  0.1788
  598MOL0    Cl82431   3.045   1.953   8.567  0.1633 -0.1004  0.4666
  598MOL0     C82432   3.757   2.583   8.137  0.1136  0.9579 -0.2765
  598MOL0     C82433   3.891   2.629   8.138  0.6483  0.6129  1.1108
  598MOL0     O82434   4.156   2.497   8.226  0.2071  0.6780  1.0095
  598MOL0     C82435   4.424   2.570   8.189 -0.7058 -0.6194  0.1364
  598MOL0     C82436   4.556   2.608   8.168 -0.7082  0.1854 -1.1033
  598MOL0     N82437   5.245   2.843   8.357  0.0464  0.7475 -0.2860
  598MOL0     N82438   5.334   2.896   8.437 -0.2225  0.4934  0.5150
  598MOL0     C82439   6.097   3.879   8.558 -0.0710  0.5313 -0.0708
  598MOL0     C82440   6.066   4.017   8.581 -0.7610 -0.1062  0.0165
  598MOL0     C82441   5.959   4.411   8.758 -1.0672  0.2382 -0.7405
  598MOL0     C82442   5.874   4.392   8.870  0.3795  0.0837  0.0046
  598MOL0     C82443   5.814   4.505   8.931 -0.6932 -0.5496 -0.5400
  598MOL0     C82444   5.847   4.637   8.906  0.4749  0.6680 -0.3476
  598MOL0     O82445   5.772   4.739   8.965  1.5597 -0.2211 -0.2516
  598MOL0     C82446   5.852   4.847   9.028  0.0277  0.4606  0.1857
  598MOL0     C82447   5.877   4.967   8.924 -0.0906 -0.3125  0.8176
  598MOL0     C82448   5.751   5.022   8.863  0.2553 -0.0450  0.9038
  598MOL0     C82449   5.780   5.137   8.768 -0.2047  1.1722  1.2908
  598MOL0     C82450   5.670   5.205   8.696 -0.0003  0.0657 -0.7456
  598MOL0     C82451   5.595   5.282   8.629  0.3180  0.1687 -0.7458
  598MOL0     C82452   5.939   4.652   8.800 -0.5184 -0.0745  0.0578
  598MOL0     C82453   5.999   4.549   8.729 -0.0184  0.3368  0.7233
  598MOL0     C82454   6.115   4.582   8.636  0.4415  0.1612  0.1365
  598MOL0     H82455   6.001   3.982   8.917  1.0311 -1.2030  0.1010
  598MOL0     H82456   6.045   3.751   8.857  2.9338 -1.2416 -0.4969
  598MOL0     H82457   6.138   3.498   8.494  0.9177  1.6334 -1.4316
  598MOL0     H82458   6.072   3.642   8.448  2.1004 -0.4520 -0.6769
  598MOL0     H82459   5.997   3.466   8.706 -0.7093  2.7215  1.4859
  598MOL0     H82460   5.907   3.613   8.649  2.1744  2.2713  0.0981
  598MOL0     H82461   5.827   3.482   8.449  2.5447  2.7597 -2.1436
  598MOL0     H82462   5.937   3.349   8.494 -0.8902  1.9916 -1.9876
  598MOL0     H82463   5.792   3.335   8.712 -0.9905 -1.0501 -0.2631
  598MOL0     H82464   5.702   3.470   8.640 -0.4646 -0.5019  0.7426
  598MOL0     H82465   5.579   3.253   8.632  0.8733 -4.6338  1.3175
  598MOL0     H82466   5.721   3.179   8.552  1.8705  0.4788  2.4693
  598MOL0     H82467   5.535   3.412   8.447  2.5042  0.7741  2.6535
  598MOL0     H82468   5.666   3.332   8.349  0.3809  2.7846  1.3642
  598MOL0     H82469   5.487   3.220   8.252 -0.3242 -0.0652 -0.3312
  598MOL0     H82470   5.393   3.234   8.391 -0.7353  0.0935 -0.5475
  598MOL0     H82471   5.607   3.029   8.328 -0.0708  1.4393  0.9069
  598MOL0     H82472   5.546   3.028   8.487  2.6080 -0.9604  0.2568
  598MOL0     H82473   5.394   3.015   8.131  0.0330 -0.6386  0.3537
  598MOL0     H82474   5.219   2.761   8.052 -0.6961  1.5158 -1.8749
  598MOL0     H82475   5.130   2.923   8.049 -2.8084 -0.9733 -0.3283
  598MOL0     H82476   5.062   2.698   8.225 -0.3721 -2.1015 -2.6383
  598MOL0     H82477   4.979   2.861   8.227  0.3015 -0.4206  0.7149
  598MOL0     H82478   4.911   2.833   7.984  2.3625 -0.0955 -2.2107
  598MOL0     H82479   5.013   2.685   7.979 -2.1726 -2.3929 -0.3574
  598MOL0     H82480   4.801   2.608   8.013  1.0119 -0.9924  1.2197
  598MOL0     H82481   4.844   2.634   8.189  0.4587 -0.6767  0.5955
  598MOL0     H82482   4.520   2.939   8.114  0.0558  1.1455  0.3656
  598MOL0     H82483   4.179   2.907   8.104 -1.5928 -0.2884  1.9395
  598MOL0     H82484   4.303   3.021   8.165 -4.4517  2.9068  1.9433
  598MOL0     H82485   4.231   2.911   8.279 -0.1449  2.3419 -0.2344
  598MOL0     H82486   3.913   2.771   8.438  0.6757  0.4738 -0.9681
  598MOL0     H82487   3.677   2.669   8.455 -0.3231  0.9219 -0.1232
  598MOL0     H82488   3.505   2.616   8.096  0.4454  1.4771  0.2376
  598MOL0     H82489   3.514   2.445   8.128  2.4472  0.9231 -0.0726
  598MOL0     H82490   3.327   2.463   8.294 -1.1706  0.2102  0.5493
  598MOL0     H82491   3.286   2.625   8.251 -0.9053 -1.4739  1.8549
  598MOL0     H82492   3.294   2.414   8.032 -2.8108 -0.8561 -0.7500
  598MOL0     H82493   3.225   2.581   8.034 -0.7593  0.2559  0.9008
  598MOL0     H82494   3.057   2.426   8.032 -0.8004  1.3206  1.1313
  598MOL0     H82495   3.041   2.490   8.187 -2.6460 -0.3081 -0.6135
  598MOL0     H82496   3.063   2.226   8.138 -1.4215 -3.3198  4.7950
  598MOL0     H82497   3.232   2.255   8.190  0.7367  0.0866  0.6865
  598MOL0     H82498   2.988   2.337   8.349  0.7829  2.1233 -0.2538
  598MOL0     H82499   3.169   2.354   8.391  1.4171  0.2769 -2.1242
  598MOL0     H82500   3.198   2.101   8.366 -1.8445 -0.1447 -2.4487
  598MOL0     H82501   3.035   2.087   8.318  0.7208 -0.2738 -2.0163
  598MOL0     H82502   2.974   2.170   8.562  0.8428  1.9591 -0.3545
  598MOL0     H82503   3.145   2.161   8.610 -1.0924  3.3791  0.4756
  598MOL0     H82504   3.701   2.545   8.052 -0.1427 -1.9415  1.0500
  598MOL0     H82505   3.941   2.628   8.041 -1.6209 -0.8652 -0.1378
  598MOL0     H82506   4.406   2.467   8.219  1.5119 -1.0673  0.0790
  598MOL0     H82507   4.626   2.528   8.190  0.8929  1.5774 -0.9154
  598MOL0     H82508   6.124   3.850   8.457  0.8904 -0.8319  0.5498
  598MOL0     H82509   6.086   4.084   8.498  0.1105  1.3413  1.3320
  598MOL0     H82510   5.833   4.295   8.897 -5.5506  2.2418  0.2516
  598MOL0     H82511   5.742   4.486   9.010 -0.1668 -1.1474 -0.2004
  598MOL0     H82512   5.803   4.872   9.122  3.1008 -3.2032  3.0887
  598MOL0     H82513   5.949   4.804   9.055  0.7697 -0.7409 -3.6639
  598MOL0     H82514   5.948   4.935   8.847  1.9909  2.7193  1.3159
  598MOL0     H82515   5.919   5.052   8.979  0.1972 -0.0320  0.1744
  598MOL0     H82516   5.694   4.941   8.815  1.6655 -0.1843 -0.6145
  598MOL0     H82517   5.679   5.062   8.935 -2.3472 -0.9493 -0.9920
  598MOL0     H82518   5.833   5.093   8.683 -0.1232  0.9448  1.4594
  598MOL0     H82519   5.837   5.218   8.815 -0.4047  0.5647  2.6239
  598MOL0     H82520   5.528   5.347   8.577  0.0106 -1.3695 -2.3655
  598MOL0     H82521   5.970   4.753   8.774  0.1478 -0.4995 -0.8381
  598MOL0     H82522   6.097   4.521   8.547 -2.1275  1.3606 -0.2433
  598MOL0     H82523   6.107   4.684   8.597  0.7026  0.3786  0.6433
  598MOL0     H82524   6.214   4.578   8.683  2.3287  0.9768 -3.4068
  599MOL0     O82525   9.383   6.326   2.955 -0.0466 -0.7986 -0.0638
  599MOL0     C82526   9.507   6.354   2.943 -0.7107  0.0316 -0.4922
  599MOL0     O82527   9.601   6.261   2.945 -0.2930 -0.1591 -0.0755
  599MOL0     C82528   9.561   6.131   2.935  0.7348  0.2325 -0.3799
  599MOL0     C82529   9.565   6.070   2.818 -0.6357  0.4485  0.2409
  599MOL0     C82530   9.502   5.946   2.797 -0.3253 -0.2838 -0.0814
  599MOL0     C82531   9.456   5.871   2.905  0.4451 -0.1353  0.2748
  599MOL0     O82532   9.413   5.741   2.879 -0.0004  0.1181 -0.4579
  599MOL0     C82533   9.345   5.680   2.990  0.0825 -0.0514  0.3345
  599MOL0     C82534   9.262   5.561   2.941  0.8658  0.5240  0.7433
  599MOL0     C82535   9.189   5.589   2.820 -0.0549 -0.4711 -0.2998
  599MOL0     C82536   9.113   5.467   2.761 -0.0133  0.3757 -0.2523
  599MOL0     C82537   9.084   5.479   2.618  0.6085 -0.7380  0.9109
  599MOL0     C82538   9.171   5.414   2.514 -0.2958  0.4090 -0.1325
  599MOL0     C82539   9.322   5.458   2.499  0.1142  0.1071 -0.2084
  599MOL0     C82540   9.346   5.560   2.393  0.0767 -0.4633  0.3523
  599MOL0     N82541   9.276   5.684   2.419  0.1620 -0.6337 -0.0682
  599MOL0     C82542   9.315   5.777   2.504  0.8590  0.8357 -0.0073
  599MOL0     C82543   9.234   5.885   2.487  0.3822 -0.7720  0.0758
  599MOL0     C82544   9.236   6.023   2.553  0.4298  0.2151  0.3401
  599MOL0     C82545   9.101   6.063   2.618 -0.4398  0.0451  0.8521
  599MOL0     C82546   9.055   5.982   2.739 -0.3778  0.0821  0.7254
  599MOL0     C82547   9.140   6.018   2.862 -0.4177  0.3266  0.0487
  599MOL0     O82548   9.087   5.931   2.965  0.2965  0.8837  0.1822
  599MOL0     C82549   9.119   5.958   3.102  0.1214  0.8295  0.5123
  599MOL0     C82550   9.204   6.055   3.140 -0.4813  0.1430 -0.4602
  599MOL0     C82551   9.242   6.077   3.277 -0.1119  0.0880 -1.4555
  599MOL0     C82552   9.354   6.184   3.302  0.5945 -0.4638 -0.2454
  599MOL0     C82553   9.179   6.010   3.385  0.3311  0.2811  0.3243
  599MOL0     C82554   9.195   6.038   3.528 -0.2206 -0.3150 -0.4361
  599MOL0     O82555   9.128   5.938   3.607  0.1654 -0.1714 -0.3134
  599MOL0     C82556   9.085   5.962   3.733  0.4839 -0.1109 -0.6830
  599MOL0     C82557   9.058   6.086   3.782 -0.3586  0.2923 -0.1133
  599MOL0     C82558   9.010   6.097   3.911  0.6194  0.2653  0.6927
  599MOL0     C82559   8.986   5.990   4.001 -0.3722  0.2246 -0.1031
  599MOL0     O82560   8.914   6.019   4.119 -0.3890  0.5974 -0.0815
  599MOL0     C82561   8.935   5.915   4.225  0.1847  0.9608 -0.5409
  599MOL0     C82562   8.820   5.911   4.328 -0.7609 -0.2058  0.9100
  599MOL0     C82563   8.713   5.798   4.309  0.0783 -0.3347  0.2133
  599MOL0     C82564   8.769   5.663   4.348 -0.0334  0.2891 -0.2130
  599MOL0     C82565   8.662   5.550   4.376 -0.2404  0.1156  0.4382
  599MOL0     C82566   8.718   5.422   4.441 -0.4081 -0.1911 -0.5063
  599MOL0     C82567   8.632   5.304   4.423  0.1846  0.6483 -0.2496
  599MOL0     C82568   8.660   5.198   4.530  0.1152  0.7084  0.5108
  599MOL0    Cl82569   8.822   5.134   4.534  0.2183 -0.4690  0.1472
  599MOL0     C82570   9.016   5.859   3.947  0.1632  0.4975 -0.0817
  599MOL0     C82571   9.069   5.850   3.815  1.0548 -0.7871  0.2540
  599MOL0     O82572   9.267   6.137   3.574 -0.1023  0.0426 -0.1015
  599MOL0     C82573   9.082   5.910   3.341 -0.6591 -0.3320 -0.7228
  599MOL0     C82574   9.057   5.882   3.208  0.3174  0.4137  0.0431
  599MOL0     N82575   9.151   5.852   2.377 -0.0130 -0.5949  0.0259
  599MOL0     N82576   9.176   5.737   2.336  0.4502  0.0570 -0.8728
  599MOL0     C82577   9.485   5.919   3.034 -0.4640  0.2141  0.1544
  599MOL0     C82578   9.533   6.049   3.047  0.2937  0.1143  0.4891
  599MOL0     C82579   9.541   6.501   2.926  0.0359  0.4827  0.0421
  599MOL0     C82580   9.472   6.588   2.828  0.4494 -1.1651 -0.7323
  599MOL0     C82581   9.494   6.726   2.818  0.8097  0.3201  1.4910
  599MOL0     C82582   9.587   6.790   2.900  0.5193  0.5387 -0.8397
  599MOL0     O82583   9.595   6.929   2.887  0.0939  0.9550  0.0141
  599MOL0     C82584   9.660   7.014   2.981  0.0366 -0.0182 -0.8739
  599MOL0     C82585   9.804   7.042   2.934  0.7264  0.7687 -0.4082
  599MOL0     C82586   9.810   7.166   2.849 -0.1373  1.0148  0.1960
  599MOL0     C82587   9.954   7.180   2.817 -0.7923  0.1174 -0.6336
  599MOL0     C82588   9.972   7.289   2.724  0.4694 -0.0121  0.4613
  599MOL0     C82589   9.977   7.371   2.632 -0.5856 -0.1053 -0.1619
  599MOL0     C82590   9.663   6.710   2.982 -1.0364  0.4715  0.4955
  599MOL0     C82591   9.638   6.564   2.998 -0.8123 -0.9904  0.8953
  599MOL0     C82592   9.730   6.497   3.095 -0.5849 -0.1335 -0.6625
  599MOL0     H82593   9.580   6.125   2.726  0.7271  1.1978  0.8712
  599MOL0     H82594   9.499   5.899   2.699 -2.8895 -0.3153 -0.0396
  599MOL0     H82595   9.283   5.758   3.036  1.8774  2.5945 -1.4629
  599MOL0     H82596   9.413   5.647   3.069 -0.7380 -0.4546  0.8883
  599MOL0     H82597   9.333   5.479   2.927  0.1345  0.0819 -0.5579
  599MOL0     H82598   9.192   5.529   3.019  1.9558  2.7434  2.7622
  599MOL0     H82599   9.116   5.670   2.837  0.2303 -0.3637  0.4372
  599MOL0     H82600   9.273   5.605   2.752  1.6059 -2.5819  1.1492
  599MOL0     H82601   9.169   5.375   2.777  1.1973  1.1307  0.0165
  599MOL0     H82602   9.020   5.454   2.816  0.7073 -3.2327  0.3353
  599MOL0     H82603   9.077   5.584   2.590  0.4502 -0.8880  0.3728
  599MOL0     H82604   8.983   5.437   2.611  0.7483 -1.3527  2.2540
  599MOL0     H82605   9.170   5.312   2.554 -3.7019  0.0168 -0.9636
  599MOL0     H82606   9.120   5.408   2.418 -0.5654  1.0704 -0.0331
  599MOL0     H82607   9.382   5.371   2.470  1.7597  0.6511  1.3360
  599MOL0     H82608   9.361   5.476   2.600  2.2336  0.1757 -0.9767
  599MOL0     H82609   9.450   5.593   2.392 -0.4328  1.1879 -0.5423
  599MOL0     H82610   9.320   5.523   2.293  1.0679  1.3540 -0.6248
  599MOL0     H82611   9.399   5.763   2.571  3.7219  1.1958 -3.2490
  599MOL0     H82612   9.256   6.102   2.481  1.0939 -0.1237  0.1487
  599MOL0     H82613   9.314   6.032   2.629  1.6412 -2.1133 -0.5458
  599MOL0     H82614   9.114   6.170   2.634 -0.7445 -0.1061  2.2255
  599MOL0     H82615   9.025   6.056   2.539 -0.8420  2.8458  0.8873
  599MOL0     H82616   8.957   6.026   2.762 -0.3496  0.8966 -0.5801
  599MOL0     H82617   9.043   5.876   2.716  2.5782 -0.1367 -0.1831
  599MOL0     H82618   9.243   5.986   2.843 -0.1665  0.4855  1.0739
  599MOL0     H82619   9.160   6.124   2.880 -0.2506 -0.1401  3.1559
  599MOL0     H82620   9.250   6.111   3.059 -1.9766  1.7519 -0.2651
  599MOL0     H82621   9.433   6.148   3.369 -0.8120 -4.5372 -0.4821
  599MOL0     H82622   9.307   6.270   3.351 -0.3266 -2.4291  2.5996
  599MOL0     H82623   9.398   6.214   3.207 -2.9583 -1.0642 -2.2761
  599MOL0     H82624   9.076   6.181   3.734  1.7810 -1.2897 -2.7736
  599MOL0     H82625   8.990   6.193   3.956 -1.3197  0.0530  0.3964
  599MOL0     H82626   8.954   5.813   4.193 -2.1433  1.1169 -2.7080
  599MOL0     H82627   9.019   5.937   4.292 -1.6145  1.1382  1.7657
  599MOL0     H82628   8.864   5.917   4.428  0.1539 -2.0871  0.6700
  599MOL0     H82629   8.767   6.006   4.324 -1.0685 -0.3697  1.0279
  599MOL0     H82630   8.669   5.804   4.209 -0.2970 -3.5716  0.0844
  599MOL0     H82631   8.634   5.823   4.381 -0.8774 -1.6769 -0.3151
  599MOL0     H82632   8.824   5.684   4.440  1.2514  0.3371 -0.9507
  599MOL0     H82633   8.833   5.625   4.267 -0.7775 -2.4602  0.4059
  599MOL0     H82634   8.569   5.581   4.423  0.4359 -0.8169  2.5089
  599MOL0     H82635   8.632   5.520   4.275 -0.0633 -0.3087  0.5104
  599MOL0     H82636   8.721   5.447   4.548 -3.3696  0.8793 -0.5733
  599MOL0     H82637   8.820   5.416   4.403 -0.2530  2.3798 -0.7080
  599MOL0     H82638   8.637   5.255   4.325  3.8841 -0.7097  0.4587
  599MOL0     H82639   8.530   5.340   4.439  0.4815  3.1793 -3.1635
  599MOL0     H82640   8.595   5.118   4.493  1.0693  1.6475 -3.8262
  599MOL0     H82641   8.628   5.235   4.627  0.1635  1.5884  0.2000
  599MOL0     H82642   8.996   5.764   3.996 -2.6934  1.6924  1.3286
  599MOL0     H82643   9.088   5.757   3.762 -2.0777 -0.1745 -2.2270
  599MOL0     H82644   9.041   5.838   3.412  2.6740 -0.8244  0.9237
  599MOL0     H82645   8.991   5.799   3.188  3.6762 -2.1508 -1.2911
  599MOL0     H82646   9.484   5.864   3.127  2.5795 -0.2958 -0.0196
  599MOL0     H82647   9.544   6.084   3.150  1.3904 -2.8174  1.4563
  599MOL0     H82648   9.410   6.537   2.755  2.7098  0.0484 -3.7137
  599MOL0     H82649   9.442   6.776   2.738  1.3051 -0.2075  0.8284
  599MOL0     H82650   9.602   7.104   3.001  0.1565  0.0427 -0.7973
  599MOL0     H82651   9.654   6.963   3.078 -0.9917 -2.4399 -2.1014
  599MOL0     H82652   9.842   6.952   2.886  4.1557  0.9983  1.5235
  599MOL0     H82653   9.879   7.060   3.011  1.6876  2.4719 -1.6549
  599MOL0     H82654   9.759   7.161   2.752 -0.3360 -2.5890  0.3641
  599MOL0     H82655   9.773   7.248   2.910 -1.3258 -2.7273  5.1310
  599MOL0     H82656   9.993   7.082   2.791 -0.1941 -1.9899  6.1473
  599MOL0     H82657  10.020   7.205   2.901  3.3932 -0.2695 -3.5466
  599MOL0     H82658   9.978   7.453   2.563 -0.4180  0.2178  0.2202
  599MOL0     H82659   9.740   6.766   3.034 -2.3125  1.5274  1.3127
  599MOL0     H82660   9.824   6.546   3.069 -0.1874 -2.4396 -4.2201
  599MOL0     H82661   9.697   6.509   3.199  1.4614 -1.1758  0.1495
  599MOL0     H82662   9.740   6.390   3.074 -2.9139 -0.0170 -2.8541
  600MOL0     O82663   2.805   6.631   0.992  0.7395 -0.2080 -0.3565
  600MOL0     C82664   2.814   6.508   1.025 -1.2060 -0.6729 -0.7705
  600MOL0     O82665   2.761   6.461   1.140  0.9338  0.0457 -0.1390
  600MOL0     C82666   2.659   6.540   1.203  0.4823  0.3389 -0.7068
  600MOL0     C82667   2.565   6.617   1.126 -0.4336 -0.1717  0.5191
  600MOL0     C82668   2.458   6.676   1.191  0.2886  0.3173  0.8179
  600MOL0     C82669   2.449   6.684   1.331 -0.2161 -0.2837 -0.2533
  600MOL0     O82670   2.341   6.751   1.389 -0.0150 -0.2834 -0.3472
  600MOL0     C82671   2.375   6.834   1.503  0.2432  0.2619  0.0719
  600MOL0     C82672   2.237   6.897   1.550 -0.8335 -0.2122 -0.4863
  600MOL0     C82673   2.170   6.987   1.457  0.2380  0.1216  0.0500
  600MOL0     C82674   2.207   7.128   1.501 -0.3620 -0.3716 -0.7879
  600MOL0     C82675   2.182   7.233   1.386 -0.0741  0.1636 -0.3838
  600MOL0     C82676   2.238   7.373   1.421  0.0682 -0.9264  0.3531
  600MOL0     C82677   2.207   7.467   1.303 -0.1490 -1.1417 -0.4130
  600MOL0     C82678   2.218   7.614   1.347 -0.0342  0.0662  0.1462
  600MOL0     N82679   2.335   7.635   1.426  0.3657  0.2316  0.4477
  600MOL0     C82680   2.461   7.650   1.364  0.5612 -1.3722 -0.6648
  600MOL0     C82681   2.541   7.678   1.469  0.3875  0.7370  0.2033
  600MOL0     C82682   2.677   7.733   1.461 -0.4724  0.5229  0.1723
  600MOL0     C82683   2.678   7.875   1.406  0.7810 -0.7872 -0.6792
  600MOL0     C82684   2.630   7.969   1.518  0.6543  0.9829  0.7158
  600MOL0     C82685   2.657   8.117   1.499 -0.5841  0.2018  0.1352
  600MOL0     O82686   2.616   8.182   1.608 -0.8359 -0.3225 -0.2444
  600MOL0     C82687   2.630   8.317   1.605  0.7993 -0.5880 -0.0861
  600MOL0     C82688   2.608   8.382   1.734  1.2593  0.0408  0.1113
  600MOL0     C82689   2.600   8.526   1.745 -0.2010 -0.4203  0.9766
  600MOL0     C82690   2.571   8.584   1.878  0.9828  0.0995 -0.1781
  600MOL0     C82691   2.633   8.597   1.631 -0.8635  0.2016  1.0090
  600MOL0     C82692   2.636   8.746   1.653 -0.3937  0.0326 -0.0039
  600MOL0     O82693   2.754   8.803   1.665 -0.6312 -0.3960  0.8124
  600MOL0     C82694   2.756   8.935   1.696  0.4053 -0.7111 -0.5892
  600MOL0     C82695   2.768   8.977   1.830 -0.6567  0.0635 -0.0387
  600MOL0     C82696   2.760   9.115   1.863 -0.5847 -0.0088  0.5067
  600MOL0     C82697   2.737   9.217   1.767  0.0354  0.2109 -0.4805
  600MOL0     O82698   2.727   9.355   1.797 -0.3860  0.0157  0.7466
  600MOL0     C82699   2.750   9.452   1.689 -0.3045  0.4863  0.1537
  600MOL0     C82700   2.864   9.558   1.724  0.8369  0.5452 -0.2305
  600MOL0     C82701   2.840   9.690   1.647 -0.3422  0.1211 -0.3407
  600MOL0     C82702   2.714   9.772   1.688 -0.6363  0.9788 -0.5884
  600MOL0     C82703   2.735   9.925   1.704 -0.3763 -0.1051  0.1479
  600MOL0     C82704   2.736   9.977   1.562  0.8873 -0.0526 -0.2943
  600MOL0     C82705   2.728  10.130   1.560 -0.1335 -0.1107 -0.0759
  600MOL0     C82706   2.786  10.193   1.435  0.5132 -0.8098  0.1419
  600MOL0    Cl82707   2.785  10.371   1.462 -0.1733  0.2867 -0.0223
  600MOL0     C82708   2.719   9.171   1.638  1.1766  0.0145  0.4483
  600MOL0     C82709   2.725   9.036   1.597  0.6071  0.0369 -0.7238
  600MOL0     O82710   2.528   8.803   1.648  0.4677 -0.1597  0.7395
  600MOL0     C82711   2.633   8.539   1.498  0.5060  0.4614 -0.6263
  600MOL0     C82712   2.623   8.399   1.488  0.9172  0.0377  0.5529
  600MOL0     N82713   2.466   7.688   1.586 -0.2118  0.2825 -0.4672
  600MOL0     N82714   2.344   7.662   1.556 -0.2091 -0.5590  0.3515
  600MOL0     C82715   2.546   6.613   1.407  0.5048  0.1309 -1.0179
  600MOL0     C82716   2.649   6.532   1.348  0.6440  0.6221  0.3967
  600MOL0     C82717   2.908   6.428   0.952  1.4109  0.5610  0.7131
  600MOL0     C82718   2.921   6.445   0.812  0.5184  0.4967 -0.2048
  600MOL0     C82719   2.997   6.354   0.733  0.2029  0.4093  0.1686
  600MOL0     C82720   3.073   6.253   0.795 -0.5094  0.4346 -0.0174
  600MOL0     O82721   3.159   6.188   0.712 -0.3678  0.0990  0.1524
  600MOL0     C82722   3.183   6.057   0.737 -0.1232  1.0686  0.0513
  600MOL0     C82723   3.316   6.033   0.817  0.2601 -0.4260 -0.4244
  600MOL0     C82724   3.320   5.888   0.845 -0.0973 -0.4043 -0.1006
  600MOL0     C82725   3.441   5.854   0.929  0.3388 -0.0598  0.0794
  600MOL0     C82726   3.439   5.921   1.062  0.2174 -0.7084  1.1681
  600MOL0     C82727   3.435   5.983   1.172  0.3684 -0.4252  0.3906
  600MOL0     C82728   3.054   6.235   0.934 -0.0682  0.7476  0.5064
  600MOL0     C82729   2.977   6.318   1.016  0.6634  0.1553 -0.1604
  600MOL0     C82730   2.954   6.273   1.167 -1.0884  0.1128  0.2309
  600MOL0     H82731   2.569   6.623   1.018 -0.7555  3.6742  0.5929
  600MOL0     H82732   2.388   6.723   1.122  0.0528 -1.8747 -0.5410
  600MOL0     H82733   2.443   6.917   1.483  0.4366  0.4823  1.5613
  600MOL0     H82734   2.418   6.773   1.583 -0.3551 -2.6025 -1.6529
  600MOL0     H82735   2.166   6.815   1.563 -1.5573 -0.0169 -2.8461
  600MOL0     H82736   2.256   6.947   1.645 -1.4157 -1.1977  0.1694
  600MOL0     H82737   2.201   6.976   1.353 -2.2103  1.9134 -0.9553
  600MOL0     H82738   2.063   6.967   1.449  0.9501 -3.4653 -3.9170
  600MOL0     H82739   2.151   7.155   1.591 -2.3813  0.6691 -2.2662
  600MOL0     H82740   2.314   7.118   1.517  0.4856 -0.7016 -5.2606
  600MOL0     H82741   2.074   7.229   1.365 -0.7197 -4.0083  2.3756
  600MOL0     H82742   2.227   7.193   1.294 -0.1982 -1.9280  0.4007
  600MOL0     H82743   2.189   7.414   1.510 -0.6693  0.3534 -0.6082
  600MOL0     H82744   2.346   7.373   1.438 -0.0104  1.9782  1.4749
  600MOL0     H82745   2.103   7.447   1.276 -0.4945 -1.1263  0.8198
  600MOL0     H82746   2.277   7.453   1.221 -3.3934  2.5263 -4.2394
  600MOL0     H82747   2.214   7.687   1.266  2.6194  0.9205  0.6845
  600MOL0     H82748   2.134   7.635   1.415 -0.0347  5.2126 -0.9898
  600MOL0     H82749   2.485   7.646   1.259  0.6607 -0.9359 -0.6580
  600MOL0     H82750   2.731   7.662   1.398 -1.8155 -0.1901 -0.2084
  600MOL0     H82751   2.722   7.738   1.561 -0.8376  3.8402  0.3058
  600MOL0     H82752   2.769   7.913   1.359 -1.0493  1.3782 -2.7156
  600MOL0     H82753   2.613   7.888   1.319 -1.0136 -0.1734  0.6909
  600MOL0     H82754   2.521   7.970   1.517  0.4164 -1.4115 -3.9074
  600MOL0     H82755   2.670   7.930   1.612  3.4515 -3.5246 -1.9451
  600MOL0     H82756   2.764   8.137   1.491 -0.7510  0.5154 -2.0952
  600MOL0     H82757   2.609   8.148   1.405  1.7075 -2.1546 -1.9854
  600MOL0     H82758   2.581   8.322   1.820 -0.9325 -0.1931 -0.6785
  600MOL0     H82759   2.503   8.670   1.876 -2.3423 -2.3250 -0.7293
  600MOL0     H82760   2.662   8.605   1.934  0.5653 -1.1871  1.0247
  600MOL0     H82761   2.528   8.504   1.940 -2.1448  1.7058 -0.0628
  600MOL0     H82762   2.793   8.905   1.907  0.6265 -1.0343 -1.4326
  600MOL0     H82763   2.774   9.154   1.964  0.3716 -1.9173  1.1652
  600MOL0     H82764   2.767   9.405   1.592 -1.4906 -2.8031  1.4033
  600MOL0     H82765   2.661   9.516   1.680 -1.1087 -0.7118 -0.6174
  600MOL0     H82766   2.872   9.577   1.831  3.4780  1.6352 -0.5519
  600MOL0     H82767   2.959   9.513   1.695  0.1053 -1.9371  0.9577
  600MOL0     H82768   2.847   9.695   1.538 -0.2239  6.2111 -0.4190
  600MOL0     H82769   2.930   9.750   1.667  1.0753 -2.2357  0.7134
  600MOL0     H82770   2.693   9.734   1.788  2.9257  1.3243  0.4294
  600MOL0     H82771   2.633   9.756   1.616 -0.3606  0.9509 -0.8951
  600MOL0     H82772   2.653   9.959   1.767  0.0787  1.1915  0.0589
  600MOL0     H82773   2.824   9.946   1.764  0.3353 -2.3777 -0.0105
  600MOL0     H82774   2.666   9.926   1.494  1.7376 -2.8178  0.7482
  600MOL0     H82775   2.840   9.965   1.531  0.7965  3.1572 -2.2461
  600MOL0     H82776   2.802  10.160   1.635  1.9253 -1.6912 -1.3760
  600MOL0     H82777   2.623  10.159   1.576 -0.3076 -1.9153  2.7874
  600MOL0     H82778   2.727  10.159   1.349 -1.9999 -1.6455  2.0717
  600MOL0     H82779   2.889  10.161   1.420  0.5800  0.5823 -3.6220
  600MOL0     H82780   2.681   9.226   1.554 -1.2685  0.9707  2.0712
  600MOL0     H82781   2.683   9.009   1.500 -2.3712  2.1453 -0.1767
  600MOL0     H82782   2.626   8.603   1.410 -1.1442  2.1314  0.6226
  600MOL0     H82783   2.625   8.359   1.387 -1.6559 -0.0108  0.4629
  600MOL0     H82784   2.539   6.614   1.515 -1.9359 -0.3501 -1.1163
  600MOL0     H82785   2.714   6.462   1.400  0.0541 -1.2278 -1.2400
  600MOL0     H82786   2.864   6.521   0.758  1.5163  2.3986  1.3119
  600MOL0     H82787   3.018   6.365   0.627  3.4129  1.6299  0.8047
  600MOL0     H82788   3.095   6.009   0.781 -0.7793  2.0629 -0.1338
  600MOL0     H82789   3.197   6.000   0.645  2.5963 -0.7669  1.4726
  600MOL0     H82790   3.312   6.089   0.910  3.7544 -3.4873  1.8995
  600MOL0     H82791   3.402   6.065   0.757 -0.9170  0.6653 -1.5692
  600MOL0     H82792   3.234   5.851   0.901  1.2961 -0.5882  2.0431
  600MOL0     H82793   3.332   5.836   0.750  2.2213  0.7163 -0.4916
  600MOL0     H82794   3.531   5.888   0.878 -0.3243  0.6071 -0.6670
  600MOL0     H82795   3.433   5.745   0.941 -1.9261  0.0197 -0.2015
  600MOL0     H82796   3.440   6.035   1.265  1.4311  1.5976 -0.7450
  600MOL0     H82797   3.099   6.154   0.992 -3.4499 -0.9592  1.0048
  600MOL0     H82798   3.006   6.185   1.206 -1.0310  1.0662  2.4940
  600MOL0     H82799   2.998   6.349   1.232 -0.0881  0.9694 -1.3937
  600MOL0     H82800   2.851   6.243   1.189 -1.9145  0.5125 -2.6587
  601MOL0     O82801   8.228   5.992   3.860 -0.6060 -0.7229 -0.1050
  601MOL0     C82802   8.135   6.001   3.779  0.6128 -0.8102 -0.3406
  601MOL0     O82803   8.153   5.973   3.644  0.8238 -0.0483 -0.2144
  601MOL0     C82804   8.274   5.983   3.587 -1.5583 -0.2043  0.0510
  601MOL0     C82805   8.343   6.102   3.590 -0.4279  1.1056 -0.6630
  601MOL0     C82806   8.478   6.108   3.527  1.0272  0.4198 -0.5285
  601MOL0     C82807   8.518   5.995   3.448  0.2281  0.4786  0.0255
  601MOL0     O82808   8.633   5.983   3.375  0.6284 -0.1908 -0.8615
  601MOL0     C82809   8.733   6.082   3.395  0.5734  0.2955 -0.1243
  601MOL0     C82810   8.699   6.217   3.325  0.5735  0.4053  0.7384
  601MOL0     C82811   8.611   6.199   3.197  0.4062  0.4581  0.0783
  601MOL0     C82812   8.705   6.140   3.089  0.2885 -0.6483  0.6106
  601MOL0     C82813   8.625   6.135   2.949 -1.4427 -0.1306 -0.0990
  601MOL0     C82814   8.484   6.073   2.944  0.7658  0.4464  0.7095
  601MOL0     C82815   8.479   5.933   2.984  0.5520  0.1126 -1.2224
  601MOL0     C82816   8.342   5.869   2.946  0.9878 -0.0846  0.2470
  601MOL0     N82817   8.233   5.945   3.001  1.5706 -0.1062  0.8426
  601MOL0     C82818   8.234   5.974   3.140  0.0693  0.1160  0.1237
  601MOL0     C82819   8.139   6.069   3.151  0.1171  0.0659 -0.0803
  601MOL0     C82820   8.074   6.123   3.273  0.0725 -0.0127  0.1744
  601MOL0     C82821   8.102   6.263   3.314 -0.0830 -0.2059  0.4477
  601MOL0     C82822   8.251   6.297   3.317  1.9856 -0.2656 -0.3914
  601MOL0     C82823   8.279   6.432   3.388 -0.3188  0.2353  0.3443
  601MOL0     O82824   8.293   6.404   3.529 -0.4828  0.4811 -0.1402
  601MOL0     C82825   8.342   6.513   3.600 -0.4677  0.8262 -0.6201
  601MOL0     C82826   8.331   6.650   3.562 -0.0837  0.2188 -1.1706
  601MOL0     C82827   8.388   6.758   3.636  0.4646  0.1631 -0.3389
  601MOL0     C82828   8.363   6.902   3.586  0.4557  0.5859  0.8154
  601MOL0     C82829   8.471   6.733   3.749  0.6600  0.0161 -0.0337
  601MOL0     C82830   8.554   6.822   3.832  0.7365 -0.1161  0.5774
  601MOL0     O82831   8.617   6.770   3.950  0.1908  0.3208 -0.0625
  601MOL0     C82832   8.708   6.851   4.020  0.9949 -0.3915  0.8529
  601MOL0     C82833   8.659   6.912   4.139 -0.5944  0.3714 -0.5444
  601MOL0     C82834   8.754   6.977   4.217 -0.7588 -0.9028  0.4361
  601MOL0     C82835   8.885   6.977   4.191 -0.0242  0.0451 -0.8053
  601MOL0     O82836   8.959   7.047   4.288  0.2119 -0.3748 -0.2745
  601MOL0     C82837   9.086   6.998   4.307  0.1917  0.8693  0.0776
  601MOL0     C82838   9.181   7.090   4.385 -0.4298  0.0788  0.3937
  601MOL0     C82839   9.321   7.019   4.362  0.1329 -0.1304  0.5078
  601MOL0     C82840   9.418   7.089   4.453 -0.7061 -0.2859 -0.5427
  601MOL0     C82841   9.472   7.223   4.402 -0.0842 -0.3038 -0.3033
  601MOL0     C82842   9.547   7.228   4.270 -0.6407 -0.1851  0.4408
  601MOL0     C82843   9.676   7.140   4.263 -0.4740 -0.3611  1.4375
  601MOL0     C82844   9.770   7.185   4.365 -0.5381 -0.4895 -0.2713
  601MOL0    Cl82845   9.919   7.086   4.356  0.1039 -0.2390 -0.0637
  601MOL0     C82846   8.933   6.917   4.070 -0.8122 -0.8233  0.1881
  601MOL0     C82847   8.841   6.853   3.994 -0.5651 -0.5624 -0.4459
  601MOL0     O82848   8.561   6.944   3.803  0.9246  0.3013  0.7373
  601MOL0     C82849   8.463   6.599   3.791 -0.3932  0.5379 -0.5985
  601MOL0     C82850   8.408   6.490   3.724  0.7582  0.0475 -0.5098
  601MOL0     N82851   8.105   6.120   3.019 -0.1428  0.2659  0.4624
  601MOL0     N82852   8.166   6.044   2.931 -0.1099 -0.1738 -0.1506
  601MOL0     C82853   8.443   5.881   3.442 -0.9344 -0.1736  0.7169
  601MOL0     C82854   8.325   5.877   3.511  0.6426  0.9009 -0.3358
  601MOL0     C82855   8.009   6.056   3.837  0.2998  1.0788  0.1682
  601MOL0     C82856   7.980   6.057   3.975  0.2224  0.4105  0.5133
  601MOL0     C82857   7.860   6.092   4.024  0.0075 -0.4659  0.0480
  601MOL0     C82858   7.760   6.143   3.945 -0.2565  0.7921 -0.7872
  601MOL0     O82859   7.653   6.207   4.006  0.0994  0.2792 -0.5245
  601MOL0     C82860   7.522   6.162   3.955  0.1288 -1.1992 -0.0324
  601MOL0     C82861   7.425   6.151   4.082  0.2652  0.4037  0.6547
  601MOL0     C82862   7.278   6.127   4.051  0.3285  0.4540 -0.2882
  601MOL0     C82863   7.254   5.979   4.018 -0.0775 -0.3027  0.0696
  601MOL0     C82864   7.109   5.946   3.985 -1.1496  0.0486 -0.8075
  601MOL0     C82865   6.992   5.942   3.970  0.1989  0.3990  0.3343
  601MOL0     C82866   7.781   6.151   3.813 -0.7584  1.0748 -0.0441
  601MOL0     C82867   7.901   6.103   3.752  0.3022 -0.3011 -0.2920
  601MOL0     C82868   7.925   6.137   3.602  0.3582 -0.2922  0.1603
  601MOL0     H82869   8.310   6.194   3.638  0.4942 -0.1187  2.5718
  601MOL0     H82870   8.522   6.204   3.552 -2.5296  1.4439  2.7386
  601MOL0     H82871   8.828   6.049   3.352  0.6333 -0.3721  0.4982
  601MOL0     H82872   8.751   6.087   3.503 -2.8176  0.3910  0.5500
  601MOL0     H82873   8.646   6.286   3.391 -0.7732  0.5694 -0.4762
  601MOL0     H82874   8.792   6.270   3.302  0.4519  0.6090  0.7124
  601MOL0     H82875   8.521   6.137   3.200  1.5719 -1.3713 -0.6030
  601MOL0     H82876   8.581   6.302   3.174  1.6255  0.8033 -0.0251
  601MOL0     H82877   8.787   6.212   3.075 -0.0660 -0.6057 -1.5025
  601MOL0     H82878   8.747   6.041   3.110  1.0156  0.2893  4.3721
  601MOL0     H82879   8.692   6.085   2.879  0.6263  0.0426  1.6313
  601MOL0     H82880   8.619   6.235   2.905  0.5840 -0.5300 -1.4009
  601MOL0     H82881   8.416   6.127   3.011 -2.4921 -2.1800 -0.1890
  601MOL0     H82882   8.444   6.078   2.843  2.7490  1.1829 -0.0975
  601MOL0     H82883   8.491   5.920   3.092 -1.7812 -3.1432 -1.2266
  601MOL0     H82884   8.563   5.878   2.941  0.9224  0.1802 -0.5907
  601MOL0     H82885   8.332   5.869   2.837  0.0259 -2.8008  0.2618
  601MOL0     H82886   8.355   5.766   2.981 -1.6438 -0.7483 -0.5350
  601MOL0     H82887   8.269   5.914   3.223 -0.6428 -0.1004  0.2752
  601MOL0     H82888   8.119   6.069   3.358  1.0374  3.3346  1.9530
  601MOL0     H82889   7.966   6.106   3.275  0.0548  0.1644  1.7564
  601MOL0     H82890   8.052   6.329   3.243  0.0875  1.6837  1.9873
  601MOL0     H82891   8.057   6.290   3.410 -1.7602 -0.1150 -0.3333
  601MOL0     H82892   8.312   6.216   3.358  1.6496 -0.9324 -1.1775
  601MOL0     H82893   8.288   6.297   3.214 -0.4176 -0.7988 -1.3263
  601MOL0     H82894   8.374   6.477   3.357 -0.1442 -1.6085 -2.0347
  601MOL0     H82895   8.208   6.513   3.368  1.9767  2.0406 -1.0646
  601MOL0     H82896   8.268   6.681   3.479 -2.0943  1.4165  0.7044
  601MOL0     H82897   8.264   6.917   3.541  0.2425  0.5637  1.2655
  601MOL0     H82898   8.427   6.926   3.501  0.8887 -1.3984  0.5321
  601MOL0     H82899   8.375   6.982   3.660 -1.7434  0.1196  1.7745
  601MOL0     H82900   8.557   6.904   4.174  0.8110 -0.6387  3.9012
  601MOL0     H82901   8.720   7.018   4.312  0.0340 -2.5248  1.4587
  601MOL0     H82902   9.074   6.904   4.362 -0.4384 -0.0275 -1.5541
  601MOL0     H82903   9.135   6.972   4.213  0.7343 -0.2397  0.6429
  601MOL0     H82904   9.178   7.186   4.335 -1.1045  0.6830  1.5589
  601MOL0     H82905   9.139   7.100   4.485 -0.4465 -1.1300  0.5227
  601MOL0     H82906   9.353   7.010   4.257  5.4403  0.1706  1.8494
  601MOL0     H82907   9.304   6.919   4.402 -0.6600 -0.0056  0.4973
  601MOL0     H82908   9.499   7.016   4.459 -0.7006 -0.2055  0.7094
  601MOL0     H82909   9.375   7.101   4.553  0.8313  0.6562  0.0341
  601MOL0     H82910   9.387   7.289   4.382  0.9538  0.6581 -1.7415
  601MOL0     H82911   9.522   7.272   4.486  0.1434 -2.8284  1.1289
  601MOL0     H82912   9.577   7.332   4.253 -4.4604  1.3105  1.7644
  601MOL0     H82913   9.490   7.202   4.180  1.8234 -1.9350 -0.7283
  601MOL0     H82914   9.710   7.147   4.160 -0.5390  0.4152  1.4617
  601MOL0     H82915   9.643   7.039   4.287 -3.7850  0.4009  0.5744
  601MOL0     H82916   9.727   7.159   4.462  1.8077 -1.5351  0.5677
  601MOL0     H82917   9.795   7.292   4.367 -0.3315 -0.5459  1.6132
  601MOL0     H82918   9.037   6.901   4.040 -1.2602 -4.0289 -0.0459
  601MOL0     H82919   8.875   6.807   3.901 -2.0847 -1.8519 -0.4084
  601MOL0     H82920   8.508   6.551   3.877 -2.6676  1.2870  1.1342
  601MOL0     H82921   8.418   6.388   3.758 -1.2153  0.2818  1.0090
  601MOL0     H82922   8.470   5.794   3.384 -0.4917 -0.1044  0.8190
  601MOL0     H82923   8.255   5.794   3.507  2.0205 -0.2904 -0.6272
  601MOL0     H82924   8.046   6.011   4.048  1.7029 -3.1537 -2.7624
  601MOL0     H82925   7.843   6.090   4.132 -0.9036  0.2886 -0.0747
  601MOL0     H82926   7.491   6.237   3.883  1.1274 -0.2113  0.5266
  601MOL0     H82927   7.532   6.076   3.889  2.1863 -0.7786 -0.3394
  601MOL0     H82928   7.426   6.246   4.136 -1.6820 -0.1404  1.7662
  601MOL0     H82929   7.458   6.076   4.155  1.5936 -1.3282 -1.5993
  601MOL0     H82930   7.205   6.164   4.124  0.0928 -0.2113 -0.1805
  601MOL0     H82931   7.249   6.182   3.961  2.3334  2.9177  0.4315
  601MOL0     H82932   7.278   5.910   4.100 -1.4920  0.0040  0.7576
  601MOL0     H82933   7.311   5.948   3.930 -2.8960  0.1281 -2.0412
  601MOL0     H82934   6.885   5.944   3.959  0.2368  2.2618 -0.0208
  601MOL0     H82935   7.702   6.207   3.765 -0.6457  4.0354  2.8695
  601MOL0     H82936   7.856   6.218   3.577 -1.6230 -2.1634 -0.7811
  601MOL0     H82937   8.026   6.175   3.589  0.7771 -0.5043  2.3482
  601MOL0     H82938   7.902   6.051   3.539 -0.7843  0.1134  0.0056
  602MOL0     O82939   0.787   0.649   1.143  0.4694 -0.1402 -0.1134
  602MOL0     C82940   0.856   0.680   1.051  1.0090 -0.5231 -0.5077
  602MOL0     O82941   0.941   0.603   0.986 -1.1331 -0.5005  0.9190
  602MOL0     C82942   0.943   0.468   1.013 -0.0371  0.6284  0.5253
  602MOL0     C82943   0.986   0.421   1.136 -0.1709  0.0043  0.6326
  602MOL0     C82944   0.986   0.289   1.169  0.2628 -0.1722  0.0440
  602MOL0     C82945   0.925   0.188   1.081 -0.6491 -0.6388 -0.3734
  602MOL0     O82946   0.913   0.049   1.103  0.3646 -0.0021  0.4538
  602MOL0     C82947   0.979   0.005   1.224  0.3894  0.3344 -0.5638
  602MOL0     C82948   1.003  -0.150   1.233 -1.4385  0.3398  0.4990
  602MOL0     C82949   1.057  -0.223   1.105 -0.2472 -0.6868  0.0703
  602MOL0     C82950   1.194  -0.147   1.076 -0.0071  0.4766 -0.6064
  602MOL0     C82951   1.284  -0.230   0.976 -0.0788 -0.6238  1.2117
  602MOL0     C82952   1.323  -0.371   1.020 -0.9488  0.7363 -0.4937
  602MOL0     C82953   1.445  -0.411   0.943  0.5162 -0.1650 -0.4135
  602MOL0     C82954   1.483  -0.562   0.957  0.5067 -0.3107  0.4738
  602MOL0     N82955   1.550  -0.593   1.083  0.1475 -0.5009 -0.8879
  602MOL0     C82956   1.620  -0.704   1.104 -0.7606  0.6368 -0.5085
  602MOL0     C82957   1.640  -0.710   1.242  0.6053 -0.2220 -0.5070
  602MOL0     C82958   1.719  -0.812   1.310  0.1232  0.3171  0.6013
  602MOL0     C82959   1.634  -0.939   1.331  0.4135  0.9182 -0.7591
  602MOL0     C82960   1.673  -1.056   1.240  0.1163  0.0223 -0.0521
  602MOL0     C82961   1.585  -1.176   1.275 -0.3460  0.5570 -1.3527
  602MOL0     O82962   1.617  -1.286   1.183  0.6592  0.1004  0.0209
  602MOL0     C82963   1.630  -1.407   1.240  0.3845 -1.4429  0.2145
  602MOL0     C82964   1.739  -1.476   1.244 -0.4363  0.9500 -0.3358
  602MOL0     C82965   1.750  -1.601   1.304 -0.1088 -0.1055  0.1105
  602MOL0     C82966   1.885  -1.666   1.315  0.3901 -0.8293  0.5820
  602MOL0     C82967   1.634  -1.666   1.355  0.7526  0.1388 -0.7018
  602MOL0     C82968   1.629  -1.795   1.419 -0.7784 -0.0787 -0.1721
  602MOL0     O82969   1.523  -1.825   1.499  1.0034  0.1277  0.1629
  602MOL0     C82970   1.510  -1.953   1.541  0.6577  0.5263  0.9629
  602MOL0     C82971   1.531  -1.988   1.680  0.0392  0.6167 -0.0201
  602MOL0     C82972   1.514  -2.121   1.713 -0.0282  0.0559  0.6838
  602MOL0     C82973   1.472  -2.224   1.626  0.5896 -0.7450  0.1806
  602MOL0     O82974   1.466  -2.349   1.672  0.6426  0.6897  0.7856
  602MOL0     C82975   1.336  -2.419   1.674  0.5689  0.0909 -0.0962
  602MOL0     C82976   1.329  -2.534   1.760 -0.1400  0.6732 -0.1480
  602MOL0     C82977   1.216  -2.634   1.732 -0.4396 -0.2306  0.7039
  602MOL0     C82978   1.207  -2.736   1.851  1.1401 -0.3374 -1.1607
  602MOL0     C82979   1.091  -2.834   1.820 -0.3501  0.1230  1.0151
  602MOL0     C82980   0.951  -2.779   1.833 -1.5827 -0.5208 -0.3623
  602MOL0     C82981   0.840  -2.890   1.828 -0.1052 -0.0215 -0.2543
  602MOL0     C82982   0.835  -2.982   1.950  0.1802  0.2373  0.2581
  602MOL0    Cl82983   0.791  -2.909   2.100  0.3781  0.0645 -0.3890
  602MOL0     C82984   1.450  -2.186   1.485  0.3264  0.6543 -1.3451
  602MOL0     C82985   1.467  -2.054   1.450  0.1234  0.0008  0.2391
  602MOL0     O82986   1.718  -1.876   1.385  0.1749 -0.1555 -0.1750
  602MOL0     C82987   1.518  -1.587   1.349  0.5555  0.0470 -0.7449
  602MOL0     C82988   1.514  -1.462   1.294 -0.7866  0.0293 -0.4838
  602MOL0     N82989   1.603  -0.581   1.291 -0.3631  0.0506 -0.4839
  602MOL0     N82990   1.534  -0.519   1.200  0.1020 -0.1965 -0.4467
  602MOL0     C82991   0.875   0.242   0.961 -0.0557  0.1246 -0.3596
  602MOL0     C82992   0.880   0.377   0.923 -0.2759 -0.1463  0.4733
  602MOL0     C82993   0.824   0.821   1.015  0.0315  0.0106  0.0051
  602MOL0     C82994   0.748   0.845   0.896 -0.8065 -0.4389  0.0583
  602MOL0     C82995   0.725   0.968   0.863  0.4869 -0.6127  0.1034
  602MOL0     C82996   0.744   1.079   0.948  0.5419 -0.7256 -1.6096
  602MOL0     O82997   0.712   1.208   0.921 -0.4676  0.8618  0.1194
  602MOL0     C82998   0.595   1.218   0.839 -0.2259  0.4632  0.2757
  602MOL0     C82999   0.547   1.366   0.853 -0.0246 -0.5474  0.2095
  602MOL0     C83000   0.588   1.457   0.737  0.9095 -0.0532 -1.0258
  602MOL0     C83001   0.547   1.610   0.751 -0.0816  0.8076  0.7039
  602MOL0     C83002   0.645   1.687   0.836 -1.1429  0.5720 -0.3444
  602MOL0     C83003   0.723   1.756   0.904  0.7007 -0.0847 -0.1417
  602MOL0     C83004   0.818   1.059   1.064  0.3341  1.3186 -0.2919
  602MOL0     C83005   0.865   0.927   1.103  0.3312  0.0045  0.7950
  602MOL0     C83006   0.972   0.909   1.209 -0.1305 -0.8311  0.4812
  602MOL0     H83007   1.015   0.490   1.215 -0.2034  0.3399  0.3547
  602MOL0     H83008   1.009   0.270   1.273 -0.1917 -0.3159  0.1198
  602MOL0     H83009   0.912   0.027   1.308 -0.6648  0.5326 -1.4377
  602MOL0     H83010   1.070   0.062   1.242 -0.3740  1.0580  1.2348
  602MOL0     H83011   1.076  -0.176   1.310 -0.1329  1.7179 -0.2266
  602MOL0     H83012   0.906  -0.198   1.250 -1.5936  0.0345 -1.1404
  602MOL0     H83013   1.063  -0.330   1.125  1.3431 -0.5031  0.6365
  602MOL0     H83014   0.984  -0.216   1.023 -1.4703 -0.9708  1.1028
  602MOL0     H83015   1.180  -0.049   1.030 -2.4258 -0.8189 -2.8918
  602MOL0     H83016   1.249  -0.135   1.170  0.1166 -0.6028 -0.5252
  602MOL0     H83017   1.365  -0.157   0.977 -2.1025  1.8099 -0.6936
  602MOL0     H83018   1.238  -0.225   0.877 -0.2985  2.9012  1.3663
  602MOL0     H83019   1.344  -0.370   1.128 -3.0239 -1.7760  0.0210
  602MOL0     H83020   1.242  -0.441   1.000  0.0709 -0.1721 -1.5298
  602MOL0     H83021   1.532  -0.351   0.970 -0.0390  0.5383 -0.1476
  602MOL0     H83022   1.434  -0.391   0.836  0.2076 -0.6406 -0.4772
  602MOL0     H83023   1.399  -0.632   0.947  2.1092 -2.5995  1.9363
  602MOL0     H83024   1.548  -0.589   0.873  1.2035  0.6667  0.6784
  602MOL0     H83025   1.668  -0.768   1.031 -1.1755 -0.8029  0.4437
  602MOL0     H83026   1.755  -0.764   1.401  1.4902 -0.0958  0.3009
  602MOL0     H83027   1.795  -0.838   1.236 -0.0396 -2.8144  1.3865
  602MOL0     H83028   1.643  -0.962   1.438  3.9529  0.1616 -1.1014
  602MOL0     H83029   1.529  -0.919   1.308 -0.7706 -1.8347  1.5823
  602MOL0     H83030   1.647  -1.023   1.139  0.0350 -0.5802 -0.2299
  602MOL0     H83031   1.773  -1.099   1.245 -0.2875 -0.8573  0.8127
  602MOL0     H83032   1.606  -1.205   1.378 -0.9861  0.5347 -1.2209
  602MOL0     H83033   1.483  -1.138   1.260 -1.6172 -2.2160 -0.4231
  602MOL0     H83034   1.823  -1.434   1.191 -1.8929 -0.6996 -4.3494
  602MOL0     H83035   1.895  -1.745   1.241  1.5073  0.0901 -0.2748
  602MOL0     H83036   1.906  -1.697   1.418  1.6491  0.9781  0.9170
  602MOL0     H83037   1.957  -1.589   1.288 -0.3269 -0.1108  0.6533
  602MOL0     H83038   1.576  -1.923   1.754  2.1970 -2.5127  1.6686
  602MOL0     H83039   1.522  -2.154   1.816 -1.0955  1.0944  1.1275
  602MOL0     H83040   1.252  -2.354   1.700  0.6056 -0.9492  3.0227
  602MOL0     H83041   1.324  -2.464   1.576  2.2183 -1.5298  0.3998
  602MOL0     H83042   1.420  -2.591   1.736 -0.9666 -1.6752  1.8587
  602MOL0     H83043   1.324  -2.503   1.865 -1.8342 -2.1606  0.7057
  602MOL0     H83044   1.250  -2.685   1.642  1.8947  0.5997  1.0209
  602MOL0     H83045   1.127  -2.575   1.711  0.5760  0.9909 -0.3599
  602MOL0     H83046   1.171  -2.678   1.937 -2.8874 -2.0672 -1.4114
  602MOL0     H83047   1.304  -2.780   1.874  0.0564 -1.7867  0.8934
  602MOL0     H83048   1.106  -2.876   1.720 -3.8146  0.5373  0.2016
  602MOL0     H83049   1.099  -2.916   1.892  0.1590  0.8272  1.7782
  602MOL0     H83050   0.946  -2.717   1.743  3.1409  1.4723  0.4408
  602MOL0     H83051   0.944  -2.720   1.924 -1.7165 -1.3472  0.1715
  602MOL0     H83052   0.842  -2.953   1.739 -0.3754  0.0628 -0.3206
  602MOL0     H83053   0.741  -2.845   1.818 -0.9995 -2.3937 -5.6914
  602MOL0     H83054   0.936  -3.025   1.956 -1.1349 -3.5534 -1.6170
  602MOL0     H83055   0.769  -3.064   1.919 -1.7732  0.6398  2.9690
  602MOL0     H83056   1.438  -2.273   1.421 -0.3688 -2.2817  2.4191
  602MOL0     H83057   1.464  -2.025   1.346 -0.1343 -1.1334 -0.0780
  602MOL0     H83058   1.431  -1.642   1.384 -0.1092 -0.0335 -2.4178
  602MOL0     H83059   1.424  -1.407   1.269 -0.6175  0.5770  0.0840
  602MOL0     H83060   0.849   0.165   0.889  0.0689  0.0951 -0.3742
  602MOL0     H83061   0.841   0.397   0.824 -0.5862 -2.0755  0.1638
  602MOL0     H83062   0.730   0.757   0.835  1.0193 -0.4126 -0.5838
  602MOL0     H83063   0.665   0.968   0.772  1.6824  0.6527 -0.7291
  602MOL0     H83064   0.605   1.184   0.736 -1.8321  1.1914 -0.1612
  602MOL0     H83065   0.514   1.150   0.869 -2.4410  1.3034 -3.1719
  602MOL0     H83066   0.576   1.400   0.953 -6.4523 -1.5505  2.9448
  602MOL0     H83067   0.438   1.354   0.852  0.0692 -1.4510 -0.1180
  602MOL0     H83068   0.697   1.449   0.738  0.8114 -4.0159  1.7675
  602MOL0     H83069   0.551   1.409   0.645 -0.6183  1.5568 -1.3074
  602MOL0     H83070   0.446   1.613   0.793 -2.1523 -0.0892 -3.6213
  602MOL0     H83071   0.533   1.642   0.647  0.0254 -2.2752 -0.3826
  602MOL0     H83072   0.780   1.819   0.969  0.1668  2.1982 -1.7968
  602MOL0     H83073   0.836   1.147   1.125  2.6048  0.7025 -0.0108
  602MOL0     H83074   0.942   0.815   1.257  0.5955 -0.2519  2.1437
  602MOL0     H83075   1.075   0.899   1.176 -0.3407 -2.8529  0.3362
  602MOL0     H83076   0.958   0.999   1.269  2.1412  1.3588 -2.0237
  603MOL0     O83077  10.135   9.971   2.080  0.0415  0.0034  0.1991
  603MOL0     C83078  10.160   9.971   2.195 -0.2049  0.7700 -1.2597
  603MOL0     O83079  10.173  10.089   2.271 -0.0516  1.0707 -0.7081
  603MOL0     C83080  10.163  10.208   2.207  0.0088 -0.0628  0.7416
  603MOL0     C83081  10.067  10.302   2.251 -0.5383  0.1265 -0.1462
  603MOL0     C83082  10.048  10.427   2.187  0.4089  0.2566  0.8953
  603MOL0     C83083  10.149  10.467   2.098 -0.3473  0.3406 -0.7609
  603MOL0     O83084  10.139  10.592   2.043  0.0331  0.0135 -0.3613
  603MOL0     C83085  10.200  10.688   2.135  0.1614  1.2798 -0.1247
  603MOL0     C83086  10.152  10.831   2.104  0.0361  0.3832 -0.1322
  603MOL0     C83087  10.001  10.846   2.112  0.9961  0.1465  0.0780
  603MOL0     C83088   9.956  10.830   2.263  0.4385 -0.0219  0.2666
  603MOL0     C83089   9.804  10.833   2.265  1.1036  0.7485  0.6295
  603MOL0     C83090   9.728  10.853   2.399  1.0076 -0.3102 -0.2111
  603MOL0     C83091   9.779  10.742   2.493  0.8922  1.3710 -1.0719
  603MOL0     C83092   9.690  10.754   2.619  0.1502 -0.0574  1.6401
  603MOL0     N83093   9.677  10.620   2.679  0.0612 -0.0204  0.1185
  603MOL0     C83094   9.773  10.563   2.759  0.4512 -0.1297  0.6733
  603MOL0     C83095   9.732  10.433   2.761  1.0778  0.0326  0.9377
  603MOL0     C83096   9.812  10.326   2.825 -0.3250  0.7198 -0.1309
  603MOL0     C83097   9.743  10.248   2.944  0.7081  0.4586  0.6694
  603MOL0     C83098   9.615  10.168   2.903  0.3635 -0.2312 -0.1138
  603MOL0     C83099   9.563  10.066   3.006 -0.6166  0.0590  0.4266
  603MOL0     O83100   9.547  10.138   3.123  0.3692  0.0044 -0.7563
  603MOL0     C83101   9.478  10.094   3.227 -0.1932  0.8621 -0.0465
  603MOL0     C83102   9.406   9.972   3.226  0.3122 -0.0283 -0.5820
  603MOL0     C83103   9.333   9.927   3.341 -0.1875 -1.0837 -0.0435
  603MOL0     C83104   9.217   9.837   3.309 -0.4740  0.0596 -0.4168
  603MOL0     C83105   9.366   9.981   3.466 -0.0364 -1.4439  0.3914
  603MOL0     C83106   9.312   9.932   3.591 -0.1983 -0.2186  0.6257
  603MOL0     O83107   9.261   9.791   3.596 -0.2397 -0.9877 -0.1286
  603MOL0     C83108   9.201   9.755   3.709  0.1724  0.1764 -0.2797
  603MOL0     C83109   9.080   9.808   3.746  0.0297 -0.0251 -0.4231
  603MOL0     C83110   9.006   9.762   3.861 -0.7027  0.2960  0.7542
  603MOL0     C83111   9.059   9.655   3.936  0.3053 -0.1501 -0.4611
  603MOL0     O83112   9.002   9.614   4.053 -0.1305 -0.0181  0.4788
  603MOL0     C83113   8.872   9.669   4.087 -0.6430  0.2008 -0.1210
  603MOL0     C83114   8.835   9.627   4.230 -0.6854 -0.2263  0.4556
  603MOL0     C83115   8.678   9.619   4.251  0.5341  0.0449  0.4220
  603MOL0     C83116   8.649   9.572   4.403 -0.2114  0.0851 -0.5127
  603MOL0     C83117   8.495   9.568   4.437  0.3912 -0.6472  0.4091
  603MOL0     C83118   8.470   9.524   4.579  0.1011 -0.6195 -0.0731
  603MOL0     C83119   8.314   9.507   4.592  0.0636 -0.3577  0.1039
  603MOL0     C83120   8.230   9.632   4.577  0.4005  0.6905 -1.8751
  603MOL0    Cl83121   8.080   9.612   4.667  0.5042  0.2600  0.0076
  603MOL0     C83122   9.176   9.604   3.895 -0.0933  1.0269  0.9299
  603MOL0     C83123   9.250   9.649   3.785  0.2987  0.3613 -0.3444
  603MOL0     O83124   9.324  10.006   3.690 -0.6878  0.6522  0.1951
  603MOL0     C83125   9.452  10.095   3.468 -0.3062  0.2812  0.4931
  603MOL0     C83126   9.497  10.150   3.352 -0.5390  0.4096 -0.5751
  603MOL0     N83127   9.605  10.418   2.707 -0.2902  0.0958 -0.0523
  603MOL0     N83128   9.574  10.532   2.673  0.6960  0.1390  0.7220
  603MOL0     C83129  10.250  10.384   2.065  0.3607  0.4687 -0.0361
  603MOL0     C83130  10.256  10.248   2.111 -0.5680  0.1297  0.0082
  603MOL0     C83131  10.185   9.835   2.265  0.5496 -1.5080  0.6103
  603MOL0     C83132  10.195   9.835   2.403  0.8065  0.3195  0.4125
  603MOL0     C83133  10.244   9.730   2.482  1.0055  0.1796 -0.4428
  603MOL0     C83134  10.263   9.613   2.415 -0.8416 -0.2670 -0.3634
  603MOL0     O83135  10.323   9.505   2.484 -0.1315 -0.3158 -0.2858
  603MOL0     C83136  10.324   9.374   2.435  0.0276 -0.8605  0.1036
  603MOL0     C83137  10.319   9.272   2.553 -0.5071 -0.3274  0.1796
  603MOL0     C83138  10.203   9.281   2.647  0.7372 -0.2325  0.4907
  603MOL0     C83139  10.157   9.160   2.713  1.1089  0.6782  0.5067
  603MOL0     C83140  10.031   9.177   2.781  0.7785 -0.0001  0.3299
  603MOL0     C83141   9.922   9.195   2.836  0.2304  0.7159  0.4742
  603MOL0     C83142  10.230   9.602   2.277 -0.7241 -0.8595  0.2438
  603MOL0     C83143  10.196   9.717   2.198 -0.1273 -0.2642  0.3169
  603MOL0     C83144  10.175   9.682   2.052  0.4039 -0.2100 -0.4686
  603MOL0     H83145  10.010  10.249   2.326  1.7021 -1.5673  0.4795
  603MOL0     H83146   9.953  10.469   2.217 -0.4158 -0.1392 -1.0641
  603MOL0     H83147  10.309  10.689   2.124  0.2363  0.7941  0.5550
  603MOL0     H83148  10.180  10.664   2.240  3.6243 -1.5812  0.0698
  603MOL0     H83149  10.195  10.886   2.188 -0.3801 -1.5707  1.4593
  603MOL0     H83150  10.200  10.874   2.017  0.5928  0.5411  0.2501
  603MOL0     H83151   9.975  10.952   2.099 -3.1592 -0.4530  1.8333
  603MOL0     H83152   9.946  10.784   2.042 -2.6640  1.3342  1.6612
  603MOL0     H83153   9.992  10.737   2.308 -0.7837 -0.7831 -0.2449
  603MOL0     H83154   9.992  10.918   2.316  0.9379 -0.3885  0.5426
  603MOL0     H83155   9.767  10.741   2.217  4.0078  0.2880 -0.9327
  603MOL0     H83156   9.770  10.911   2.196  3.0356 -0.2158 -1.5625
  603MOL0     H83157   9.763  10.949   2.437 -1.2009  1.2438 -1.8550
  603MOL0     H83158   9.619  10.851   2.396  0.9601 -2.6572  0.6677
  603MOL0     H83159   9.887  10.748   2.509  0.9338  3.0783 -1.7406
  603MOL0     H83160   9.766  10.648   2.439  0.8455  0.0059  1.1851
  603MOL0     H83161   9.730  10.831   2.686  1.7372  1.0101 -0.4210
  603MOL0     H83162   9.590  10.789   2.594  0.9944 -0.1033 -2.3823
  603MOL0     H83163   9.861  10.606   2.806 -0.3938  1.2381  1.0775
  603MOL0     H83164   9.906  10.360   2.868  0.6432 -1.1970 -0.6462
  603MOL0     H83165   9.847  10.260   2.745  1.2843  0.3788  0.8340
  603MOL0     H83166   9.816  10.191   3.001  0.8488 -0.1865 -0.1287
  603MOL0     H83167   9.708  10.328   3.010 -1.0197 -0.9783  1.5906
  603MOL0     H83168   9.533  10.233   2.868  2.0036  2.2173  0.3006
  603MOL0     H83169   9.635  10.107   2.814 -0.7766 -1.3600  0.3769
  603MOL0     H83170   9.468  10.021   2.975 -1.9385  0.2626  3.7216
  603MOL0     H83171   9.637   9.986   3.019  1.5052  1.4773 -1.9896
  603MOL0     H83172   9.401   9.917   3.133 -0.7228 -1.6953  0.3929
  603MOL0     H83173   9.140   9.830   3.386 -0.1558  1.0872  0.0136
  603MOL0     H83174   9.253   9.741   3.272  1.6388  1.5797 -2.5903
  603MOL0     H83175   9.164   9.882   3.224 -0.4209  2.0288  0.5356
  603MOL0     H83176   9.041   9.888   3.682 -0.8206  1.8014  2.2031
  603MOL0     H83177   8.914   9.816   3.883 -1.2102 -1.4736  3.4162
  603MOL0     H83178   8.877   9.778   4.103  1.0419  0.2202 -0.5823
  603MOL0     H83179   8.800   9.638   4.012  0.1443 -0.8034 -0.4712
  603MOL0     H83180   8.884   9.530   4.242 -0.2389 -0.8843 -4.6450
  603MOL0     H83181   8.876   9.708   4.290 -0.2690  1.9694 -2.5711
  603MOL0     H83182   8.649   9.542   4.179  0.2421  0.9713 -0.4766
  603MOL0     H83183   8.614   9.706   4.238 -3.3569 -2.5683  0.6623
  603MOL0     H83184   8.700   9.644   4.467  0.3405 -1.6808  1.1549
  603MOL0     H83185   8.686   9.470   4.417  1.8181  0.3615 -3.1279
  603MOL0     H83186   8.446   9.662   4.410  0.9332 -0.4531  0.0653
  603MOL0     H83187   8.428   9.510   4.373 -3.0097  1.2218  2.0130
  603MOL0     H83188   8.497   9.609   4.641 -2.5031  0.2815 -0.0374
  603MOL0     H83189   8.528   9.436   4.608  2.0581 -1.7552 -6.0846
  603MOL0     H83190   8.296   9.475   4.694 -0.9717 -0.6404 -0.1607
  603MOL0     H83191   8.266   9.433   4.527 -1.4992  0.5740  0.1457
  603MOL0     H83192   8.216   9.649   4.470  2.3705 -0.3632 -2.3526
  603MOL0     H83193   8.281   9.717   4.624 -1.4884 -0.3104  2.5502
  603MOL0     H83194   9.210   9.520   3.955 -0.8270  0.4182  0.5062
  603MOL0     H83195   9.344   9.604   3.756 -1.3675 -3.9828  0.3396
  603MOL0     H83196   9.469  10.145   3.563  1.2533 -1.2096  1.0391
  603MOL0     H83197   9.564  10.235   3.354  2.6866 -1.9521 -0.2013
  603MOL0     H83198  10.328  10.411   1.995 -0.7644  3.0835 -0.4086
  603MOL0     H83199  10.338  10.183   2.080  0.3068  0.2090  1.9469
  603MOL0     H83200  10.175   9.936   2.437  1.7292  1.3131 -1.7849
  603MOL0     H83201  10.272   9.757   2.583  1.5054  1.6486 -0.9457
  603MOL0     H83202  10.231   9.371   2.377  1.5865 -0.5236 -2.5567
  603MOL0     H83203  10.412   9.373   2.370 -0.2468  0.9852 -0.3429
  603MOL0     H83204  10.406   9.286   2.618 -1.2308 -0.0643  1.1224
  603MOL0     H83205  10.333   9.170   2.516  1.8190 -0.5966  1.6135
  603MOL0     H83206  10.232   9.355   2.723  1.5398  0.5547 -0.5499
  603MOL0     H83207  10.122   9.324   2.588  1.1049  0.4226  0.4481
  603MOL0     H83208  10.229   9.124   2.787  0.4279  0.8619  1.2810
  603MOL0     H83209  10.150   9.080   2.638 -0.0798  4.8672 -4.3819
  603MOL0     H83210   9.832   9.228   2.885  0.3938  2.9454 -0.5736
  603MOL0     H83211  10.254   9.507   2.230  0.0912 -0.0163 -1.1133
  603MOL0     H83212  10.220   9.754   1.984 -1.1025 -1.2535 -2.6862
  603MOL0     H83213  10.229   9.588   2.036  1.8415  0.3035  1.0571
  603MOL0     H83214  10.067   9.665   2.042  0.2620  0.6073 -0.3587
  604MOL0     O83215   6.645  10.752   5.824  0.3400 -0.0324  0.0113
  604MOL0     C83216   6.566  10.727   5.916  0.5640  0.2953 -0.8568
  604MOL0     O83217   6.536  10.603   5.971  0.3775 -1.2930  0.0389
  604MOL0     C83218   6.589  10.506   5.896 -0.3247 -1.0495  0.5592
  604MOL0     C83219   6.539  10.471   5.766 -0.3497  0.5070  0.2224
  604MOL0     C83220   6.611  10.373   5.695 -0.6496  0.5328  0.1731
  604MOL0     C83221   6.724  10.311   5.747 -0.4433 -0.6453  0.8871
  604MOL0     O83222   6.770  10.208   5.665 -0.0428 -1.1591  0.1811
  604MOL0     C83223   6.909  10.219   5.634 -0.5261  0.0996  0.0941
  604MOL0     C83224   6.935  10.322   5.526 -0.2710 -0.2890  0.6510
  604MOL0     C83225   6.861  10.315   5.396 -0.7179 -0.4248 -0.6482
  604MOL0     C83226   6.891  10.189   5.326 -0.8309  0.6622  0.7089
  604MOL0     C83227   6.802  10.177   5.206 -0.6610 -0.5395 -0.4939
  604MOL0     C83228   6.655  10.127   5.219  0.4158  1.2451  0.2527
  604MOL0     C83229   6.575  10.132   5.083 -0.3318  0.6701  0.1999
  604MOL0     C83230   6.537  10.282   5.063  0.1760  0.7206 -0.4818
  604MOL0     N83231   6.412  10.299   4.986 -0.8691 -1.1647  0.2110
  604MOL0     C83232   6.326  10.398   5.022  1.3309  0.8200 -0.5174
  604MOL0     C83233   6.202  10.364   4.961 -0.1532 -0.9111  0.0660
  604MOL0     C83234   6.080  10.450   4.953 -0.3927  1.0861  0.1716
  604MOL0     C83235   6.001  10.418   5.078  0.0805 -0.1736  0.1545
  604MOL0     C83236   5.879  10.517   5.093 -0.7715  0.4486 -0.1363
  604MOL0     C83237   5.911  10.653   5.122 -0.7120 -0.5808  0.0339
  604MOL0     O83238   5.804  10.741   5.135  0.4318 -1.3918 -0.4565
  604MOL0     C83239   5.734  10.746   5.252 -0.0550 -0.5354 -1.0240
  604MOL0     C83240   5.616  10.812   5.249 -0.0428  0.5549 -0.2982
  604MOL0     C83241   5.524  10.826   5.364  0.1299  0.2571  0.4266
  604MOL0     C83242   5.386  10.892   5.346 -0.1784  0.8461 -0.0072
  604MOL0     C83243   5.574  10.779   5.494 -0.6813  0.2100 -0.5456
  604MOL0     C83244   5.517  10.800   5.632 -0.4408 -0.6673 -0.5837
  604MOL0     O83245   5.600  10.778   5.738 -0.1084  0.4437 -0.0215
  604MOL0     C83246   5.533  10.772   5.856 -0.2823  0.3050 -0.8075
  604MOL0     C83247   5.515  10.636   5.892 -0.8487  0.2122 -0.3793
  604MOL0     C83248   5.464  10.604   6.023  0.4097 -0.2213  0.2864
  604MOL0     C83249   5.434  10.708   6.115  0.0362  0.6655  0.3928
  604MOL0     O83250   5.393  10.694   6.245  0.1723  0.2754 -0.3815
  604MOL0     C83251   5.362  10.558   6.292  0.4800  0.1829 -0.5784
  604MOL0     C83252   5.294  10.584   6.428  0.0463  1.0900 -0.0474
  604MOL0     C83253   5.313  10.463   6.525  0.5020  0.2687  0.6199
  604MOL0     C83254   5.267  10.321   6.476  0.2998 -0.0869  1.2797
  604MOL0     C83255   5.279  10.231   6.601 -0.5507 -0.1792  0.1560
  604MOL0     C83256   5.221  10.098   6.576 -0.6612  0.1070  0.9095
  604MOL0     C83257   5.211  10.015   6.701  0.2465 -0.2069 -0.4188
  604MOL0     C83258   5.288   9.882   6.704 -0.4351  0.3571 -0.7248
  604MOL0    Cl83259   5.223   9.754   6.598  0.0250 -0.1983  0.2729
  604MOL0     C83260   5.451  10.833   6.078 -0.6775 -0.7975  0.1068
  604MOL0     C83261   5.502  10.869   5.952  0.0838 -0.5117 -0.4834
  604MOL0     O83262   5.407  10.850   5.642  0.7284 -0.0388 -1.1033
  604MOL0     C83263   5.704  10.722   5.492  0.6220 -0.0216 -0.8142
  604MOL0     C83264   5.764  10.697   5.375  0.6878  1.5658 -0.6000
  604MOL0     N83265   6.233  10.268   4.874  0.9411  0.6967 -0.0327
  604MOL0     N83266   6.352  10.223   4.892 -0.2087  0.5043 -0.5149
  604MOL0     C83267   6.764  10.340   5.870  0.2163  0.4954  0.1062
  604MOL0     C83268   6.699  10.435   5.945 -0.1457 -0.3952  0.2379
  604MOL0     C83269   6.479  10.847   5.945 -0.3287 -0.0519  0.8299
  604MOL0     C83270   6.356  10.871   5.885 -0.4967  0.8146 -0.1528
  604MOL0     C83271   6.272  10.983   5.927 -1.3771 -1.0808  0.3478
  604MOL0     C83272   6.322  11.062   6.036  0.7874 -0.3831  0.7698
  604MOL0     O83273   6.225  11.151   6.088  0.1956 -0.3137  0.4269
  604MOL0     C83274   6.268  11.231   6.203 -0.0521  0.3624  0.8113
  604MOL0     C83275   6.153  11.307   6.263 -0.4623 -0.0835 -0.3263
  604MOL0     C83276   6.211  11.430   6.326  0.5080 -0.8260  0.1080
  604MOL0     C83277   6.101  11.507   6.397  0.2780  0.1050 -0.1958
  604MOL0     C83278   6.060  11.450   6.523  0.3346 -0.2474 -0.1415
  604MOL0     C83279   6.017  11.422   6.635 -0.5830  0.4421  0.4329
  604MOL0     C83280   6.451  11.038   6.092 -0.0215  0.0052  0.0776
  604MOL0     C83281   6.537  10.943   6.040  0.3366  0.8711  0.4577
  604MOL0     C83282   6.676  10.922   6.101  0.4013  0.1301  0.8321
  604MOL0     H83283   6.458  10.535   5.730 -0.7269 -0.4858 -0.7471
  604MOL0     H83284   6.568  10.329   5.606  1.7645 -2.5145  0.3447
  604MOL0     H83285   6.954  10.120   5.619  0.3738  0.4800  0.2355
  604MOL0     H83286   6.951  10.264   5.724 -2.5627  3.7120 -0.5675
  604MOL0     H83287   6.920  10.422   5.567  2.7217  0.7212 -0.4220
  604MOL0     H83288   7.041  10.311   5.501 -0.3033 -1.4098  0.9213
  604MOL0     H83289   6.754  10.327   5.410 -0.6247 -1.2005  1.0172
  604MOL0     H83290   6.893  10.403   5.339 -0.5824  0.8818  1.3205
  604MOL0     H83291   6.996  10.177   5.300 -0.1531  0.7845  3.1531
  604MOL0     H83292   6.862  10.108   5.394 -0.7718 -0.2979 -0.3636
  604MOL0     H83293   6.855  10.110   5.138  0.7584  0.2079 -0.1569
  604MOL0     H83294   6.788  10.272   5.152 -2.8503  0.3904  1.5280
  604MOL0     H83295   6.668  10.023   5.248  0.4837  0.7241 -1.5509
  604MOL0     H83296   6.603  10.182   5.298  0.9800  1.0074  0.7924
  604MOL0     H83297   6.487  10.069   5.096 -0.2304  1.0202  4.0013
  604MOL0     H83298   6.639  10.104   4.999  1.8970  2.3707  1.2083
  604MOL0     H83299   6.528  10.321   5.165  3.9984 -2.1110  1.2170
  604MOL0     H83300   6.612  10.348   5.020  0.4709  3.1237  3.2864
  604MOL0     H83301   6.346  10.483   5.087  0.2385  0.8500 -0.1921
  604MOL0     H83302   6.026  10.433   4.859  1.1299  1.6300 -0.8428
  604MOL0     H83303   6.111  10.554   4.951  1.4037  0.5741 -0.3763
  604MOL0     H83304   5.959  10.319   5.060 -4.0163  0.9371  2.2008
  604MOL0     H83305   6.066  10.426   5.166 -0.2668  1.4864  0.3022
  604MOL0     H83306   5.815  10.504   5.005  0.7588 -1.7788 -1.0039
  604MOL0     H83307   5.826  10.489   5.185  1.8903  1.4095  1.8137
  604MOL0     H83308   5.972  10.655   5.213 -0.8826 -0.5573  0.1491
  604MOL0     H83309   5.983  10.681   5.045  0.7218 -3.3669  0.2563
  604MOL0     H83310   5.584  10.842   5.149 -2.7872 -2.4661 -0.5001
  604MOL0     H83311   5.305  10.819   5.359  0.8081 -0.4462 -0.9116
  604MOL0     H83312   5.375  10.928   5.243  3.1103  1.8448 -0.1230
  604MOL0     H83313   5.377  10.975   5.416 -1.3000  1.5300 -0.9245
  604MOL0     H83314   5.546  10.559   5.823  0.6169  1.5399 -1.2527
  604MOL0     H83315   5.454  10.497   6.038  0.5472 -0.4893 -1.3166
  604MOL0     H83316   5.292  10.507   6.225 -2.6286  1.7062  1.3289
  604MOL0     H83317   5.453  10.497   6.300  1.0765  1.1118 -0.1475
  604MOL0     H83318   5.334  10.670   6.482 -1.6057  0.7076  1.9187
  604MOL0     H83319   5.192  10.608   6.397  0.8138 -0.5870 -4.7621
  604MOL0     H83320   5.258  10.492   6.615  1.3578 -0.7383  1.4955
  604MOL0     H83321   5.420  10.453   6.547  1.5551 -0.3863 -3.8487
  604MOL0     H83322   5.340  10.291   6.400 -2.2852 -1.6986 -0.7517
  604MOL0     H83323   5.166  10.315   6.435  0.7066  2.5169 -0.3333
  604MOL0     H83324   5.378  10.239   6.646 -0.0596  2.7307 -1.2005
  604MOL0     H83325   5.225  10.279   6.683  2.3412  0.7461  1.6423
  604MOL0     H83326   5.275  10.035   6.505  0.1985  3.1757 -1.3985
  604MOL0     H83327   5.121  10.104   6.533 -0.0626 -1.2823 -0.7693
  604MOL0     H83328   5.109   9.984   6.725 -0.4188  0.3456 -2.3157
  604MOL0     H83329   5.225  10.076   6.791  1.4820 -0.8947 -0.1285
  604MOL0     H83330   5.269   9.849   6.806 -1.8274  1.9312 -0.4334
  604MOL0     H83331   5.394   9.895   6.681 -0.0058  1.3145  1.5342
  604MOL0     H83332   5.421  10.906   6.153  2.2257 -0.5405  1.1344
  604MOL0     H83333   5.499  10.972   5.919 -3.3297 -0.6613 -1.0196
  604MOL0     H83334   5.759  10.689   5.579  3.9479  0.6365 -2.4959
  604MOL0     H83335   5.851  10.632   5.386 -1.3072 -1.1994  0.1123
  604MOL0     H83336   6.854  10.293   5.910 -1.7126 -2.5248  1.2507
  604MOL0     H83337   6.722  10.460   6.048  0.3416 -2.5412  0.6862
  604MOL0     H83338   6.316  10.804   5.810  1.5678  0.4267 -0.9669
  604MOL0     H83339   6.176  11.004   5.881  1.0721  2.3826 -3.9924
  604MOL0     H83340   6.306  11.169   6.285 -0.6045  0.7681  1.3889
  604MOL0     H83341   6.348  11.301   6.175 -0.3525 -0.3318 -2.1067
  604MOL0     H83342   6.101  11.243   6.335  1.7894 -0.2038  1.3025
  604MOL0     H83343   6.093  11.344   6.180 -2.0713  1.0716  1.2660
  604MOL0     H83344   6.291  11.406   6.398  0.9374 -0.5114 -0.2627
  604MOL0     H83345   6.255  11.501   6.255  0.6964 -0.9937  0.0567
  604MOL0     H83346   6.008  11.518   6.340  0.7099 -0.4736 -1.0332
  604MOL0     H83347   6.135  11.609   6.416 -2.6180  1.1075  0.0697
  604MOL0     H83348   5.966  11.394   6.725 -1.6669 -3.1510 -1.1291
  604MOL0     H83349   6.485  11.090   6.181  2.0184 -2.1297  0.6422
  604MOL0     H83350   6.691  10.820   6.139 -1.0103  0.0121  1.1223
  604MOL0     H83351   6.759  10.944   6.033  0.6449 -1.6393  0.5110
  604MOL0     H83352   6.687  10.987   6.189  1.3879 -1.2114  1.7476
  605MOL0     O83353  10.253   4.074   8.988 -0.0944  0.1820 -0.2096
  605MOL0     C83354  10.259   4.042   9.107  0.3629 -0.1777 -0.1702
  605MOL0     O83355  10.194   4.105   9.212  0.3238  0.3980 -0.2078
  605MOL0     C83356  10.107   4.195   9.176 -0.0159  0.0784  0.6853
  605MOL0     C83357   9.993   4.163   9.099  0.0901  0.0344 -0.9739
  605MOL0     C83358   9.896   4.257   9.064 -0.6108  0.0557 -0.1198
  605MOL0     C83359   9.917   4.392   9.098 -0.6756 -0.0900  0.7178
  605MOL0     O83360   9.831   4.489   9.057 -0.1759 -0.4550  0.0927
  605MOL0     C83361   9.688   4.457   9.038 -0.4001  0.2121 -1.2925
  605MOL0     C83362   9.597   4.586   9.033  0.3315 -1.0465 -0.1662
  605MOL0     C83363   9.453   4.577   8.987  0.5349  0.0992 -0.4016
  605MOL0     C83364   9.378   4.713   8.982 -0.2492  0.3112  0.0381
  605MOL0     C83365   9.407   4.817   9.099 -0.2604  0.5661  0.0756
  605MOL0     C83366   9.310   4.930   9.078  0.5820  0.3111 -0.4902
  605MOL0     C83367   9.336   5.043   9.182  0.3156  0.2735 -0.5132
  605MOL0     C83368   9.309   4.997   9.327  0.3313  1.5076  0.1653
  605MOL0     N83369   9.327   5.101   9.430  1.0789  0.1074  0.5913
  605MOL0     C83370   9.427   5.182   9.469  0.5610 -0.3314  0.9932
  605MOL0     C83371   9.378   5.267   9.569 -0.1517  1.0961 -0.3876
  605MOL0     C83372   9.461   5.374   9.640 -0.0218 -0.3106 -0.1041
  605MOL0     C83373   9.407   5.514   9.596 -0.8837  0.7035  0.5542
  605MOL0     C83374   9.443   5.542   9.449  0.1990 -0.3078 -0.5725
  605MOL0     C83375   9.366   5.663   9.396  0.4538  1.1059 -0.0075
  605MOL0     O83376   9.351   5.648   9.248 -0.3839 -0.0926  0.4822
  605MOL0     C83377   9.235   5.606   9.197 -0.2780 -0.6660 -0.3476
  605MOL0     C83378   9.195   5.473   9.200 -0.0488 -0.5298  0.0098
  605MOL0     C83379   9.061   5.436   9.193  0.4393 -0.9822  0.0707
  605MOL0     C83380   9.033   5.288   9.219 -1.1329 -0.8689 -0.0341
  605MOL0     C83381   8.960   5.541   9.179  0.6366 -0.5772  0.6716
  605MOL0     C83382   8.809   5.522   9.172 -0.3744  0.5306 -0.0068
  605MOL0     O83383   8.742   5.627   9.119 -0.5982 -0.1997  0.4761
  605MOL0     C83384   8.610   5.616   9.101  0.0917  0.1968 -0.2540
  605MOL0     C83385   8.560   5.589   8.970 -0.3259 -0.6580 -0.0199
  605MOL0     C83386   8.425   5.573   8.959  0.8342  0.5340 -0.8254
  605MOL0     C83387   8.342   5.593   9.063  0.7970 -1.2050  0.3813
  605MOL0     O83388   8.204   5.584   9.055 -0.4552 -0.2684  0.2962
  605MOL0     C83389   8.150   5.473   8.979  0.0880 -0.4751  0.5085
  605MOL0     C83390   7.994   5.458   9.002 -0.0821 -0.0568  0.7929
  605MOL0     C83391   7.916   5.584   8.973 -0.0393  0.8337 -0.3381
  605MOL0     C83392   7.775   5.560   8.926  0.4335  0.2284 -0.0344
  605MOL0     C83393   7.682   5.687   8.942  0.7898  0.0214  1.1122
  605MOL0     C83394   7.529   5.646   8.941 -0.1072 -0.2245 -0.9973
  605MOL0     C83395   7.442   5.752   8.991  0.6670  0.4190 -0.4470
  605MOL0     C83396   7.445   5.881   8.914 -0.4360 -0.0871 -0.7089
  605MOL0    Cl83397   7.372   5.863   8.747 -0.2460  0.5878 -0.3704
  605MOL0     C83398   8.401   5.620   9.192  0.8637 -0.9419 -0.7752
  605MOL0     C83399   8.533   5.635   9.212 -0.4249  1.6678 -0.0536
  605MOL0     O83400   8.763   5.414   9.210  0.5220  0.6929  0.2739
  605MOL0     C83401   9.011   5.670   9.160 -0.4640 -0.5495 -0.2811
  605MOL0     C83402   9.143   5.703   9.176 -0.8113 -0.6432  1.0060
  605MOL0     N83403   9.243   5.237   9.586 -0.6324  0.9681  0.5085
  605MOL0     N83404   9.209   5.135   9.505 -0.1907  0.8080 -0.3626
  605MOL0     C83405  10.037   4.438   9.159 -0.2519  0.1276  0.3047
  605MOL0     C83406  10.128   4.337   9.202  0.3084 -0.3001 -0.7245
  605MOL0     C83407  10.304   3.906   9.127  0.1500 -0.0402 -0.5482
  605MOL0     C83408  10.215   3.805   9.150 -0.1117 -0.2504  0.9562
  605MOL0     C83409  10.263   3.673   9.179  0.2773  0.0520 -0.3687
  605MOL0     C83410  10.395   3.638   9.175  0.2377  1.1948 -0.1670
  605MOL0     O83411  10.445   3.511   9.195 -0.4722  0.6161  0.2035
  605MOL0     C83412  10.356   3.399   9.197  0.3220  0.0824  0.4460
  605MOL0     C83413  10.432   3.269   9.186 -0.3234  0.3076 -0.4017
  605MOL0     C83414  10.346   3.150   9.133 -0.3063  0.9992 -0.0625
  605MOL0     C83415  10.439   3.031   9.096 -0.2730  0.6049 -0.5918
  605MOL0     C83416  10.522   3.030   8.972  1.0304  0.4216 -0.8335
  605MOL0     C83417  10.564   3.030   8.859  0.1810 -0.1798 -0.6144
  605MOL0     C83418  10.482   3.741   9.154 -0.3584 -0.3655 -0.1298
  605MOL0     C83419  10.439   3.877   9.130  0.7252 -0.2841  0.7100
  605MOL0     C83420  10.543   3.971   9.097  1.3272  0.3105 -1.1523
  605MOL0     H83421   9.992   4.059   9.068  1.7047 -0.3029  0.0152
  605MOL0     H83422   9.812   4.223   9.005 -2.1266  0.3234  1.7913
  605MOL0     H83423   9.651   4.388   9.115  1.3835 -1.3183 -1.7377
  605MOL0     H83424   9.662   4.395   8.952 -1.0653 -6.6329  3.0598
  605MOL0     H83425   9.603   4.633   9.131  4.9406 -1.6278  0.0414
  605MOL0     H83426   9.651   4.657   8.970  1.7926 -0.3376  1.8149
  605MOL0     H83427   9.465   4.540   8.884  0.2834  0.7258 -0.6606
  605MOL0     H83428   9.396   4.512   9.054  0.0221 -0.8907 -1.7576
  605MOL0     H83429   9.417   4.747   8.886  1.3015 -1.7396 -0.1122
  605MOL0     H83430   9.270   4.696   8.978 -0.7286  2.7793  0.8411
  605MOL0     H83431   9.509   4.857   9.093 -0.9236  2.1072 -2.2824
  605MOL0     H83432   9.395   4.776   9.200  3.4164  2.5937  1.5403
  605MOL0     H83433   9.320   4.963   8.974  2.0198 -3.4348 -1.7227
  605MOL0     H83434   9.208   4.894   9.093  0.9255  0.3204  2.4431
  605MOL0     H83435   9.281   5.134   9.157 -1.8544 -0.3932  1.5126
  605MOL0     H83436   9.437   5.082   9.165  0.6446 -0.7093 -0.8892
  605MOL0     H83437   9.212   4.947   9.330  2.6727 -3.8723 -1.6395
  605MOL0     H83438   9.377   4.918   9.361  1.4196  1.7702 -1.3137
  605MOL0     H83439   9.529   5.188   9.432  0.1902  0.6281  0.0821
  605MOL0     H83440   9.566   5.351   9.622 -0.4045 -0.9651 -1.7208
  605MOL0     H83441   9.437   5.375   9.746 -0.5800 -0.5595 -0.2252
  605MOL0     H83442   9.298   5.520   9.608 -1.3995 -3.8295 -0.1229
  605MOL0     H83443   9.455   5.591   9.658  0.7154 -0.4514  0.7971
  605MOL0     H83444   9.547   5.575   9.452 -0.7393  2.9582  2.5239
  605MOL0     H83445   9.420   5.454   9.387 -1.5198  0.0934 -0.5538
  605MOL0     H83446   9.267   5.668   9.441 -0.1237  1.0160 -1.2292
  605MOL0     H83447   9.410   5.757   9.433  0.1741  0.7949  1.1706
  605MOL0     H83448   9.270   5.404   9.237 -1.0481 -1.6190  0.0666
  605MOL0     H83449   9.013   5.281   9.326 -1.1115  2.5199  0.3196
  605MOL0     H83450   9.131   5.240   9.210  0.2304  1.2459  2.3361
  605MOL0     H83451   8.965   5.242   9.146 -2.0756  2.4563 -1.4663
  605MOL0     H83452   8.618   5.565   8.882 -0.5177 -0.3029 -0.2468
  605MOL0     H83453   8.378   5.529   8.871  2.2592 -1.4740 -0.6580
  605MOL0     H83454   8.153   5.494   8.872  0.3764  3.8002  1.2055
  605MOL0     H83455   8.202   5.388   9.024  0.3089  0.6987  2.5724
  605MOL0     H83456   7.937   5.380   8.951 -2.5567  0.6731  2.2399
  605MOL0     H83457   7.984   5.442   9.110  1.4409 -2.2600  0.6622
  605MOL0     H83458   7.959   5.645   8.893 -0.3361  0.4297 -0.8114
  605MOL0     H83459   7.915   5.643   9.065  1.1037 -1.3729  1.1817
  605MOL0     H83460   7.733   5.479   8.987 -0.3998  0.8406  0.2078
  605MOL0     H83461   7.776   5.526   8.822  1.9118 -0.3398  0.1361
  605MOL0     H83462   7.704   5.738   9.036 -1.1426  3.3600 -0.0950
  605MOL0     H83463   7.693   5.752   8.855 -4.2450 -0.3167 -0.0852
  605MOL0     H83464   7.512   5.559   9.004  1.9091 -0.0716 -0.1638
  605MOL0     H83465   7.500   5.613   8.841 -2.2159  1.1242 -0.8808
  605MOL0     H83466   7.455   5.776   9.096 -4.6043  0.3599  0.4880
  605MOL0     H83467   7.342   5.708   8.983  1.9075 -2.4543 -1.4294
  605MOL0     H83468   7.547   5.920   8.911 -0.2136 -0.5356  0.4904
  605MOL0     H83469   7.393   5.957   8.972 -0.4716 -1.8513  1.7346
  605MOL0     H83470   8.326   5.613   9.270  0.5900 -1.0046 -1.0473
  605MOL0     H83471   8.572   5.645   9.313 -1.7415  0.1240  0.6484
  605MOL0     H83472   8.936   5.748   9.148  0.3511  0.2855 -0.0520
  605MOL0     H83473   9.180   5.804   9.169  0.4333 -1.2294 -2.1793
  605MOL0     H83474  10.066   4.542   9.166  1.2405 -0.1953 -0.4717
  605MOL0     H83475  10.221   4.371   9.247  0.2342 -0.6608 -0.2908
  605MOL0     H83476  10.108   3.823   9.159 -0.0326 -0.2909  2.0636
  605MOL0     H83477  10.185   3.605   9.211 -3.1567  3.5078 -0.7299
  605MOL0     H83478  10.290   3.396   9.284 -2.3634  0.5294 -1.4335
  605MOL0     H83479  10.284   3.409   9.115 -3.4784  2.7348  3.7022
  605MOL0     H83480  10.491   3.240   9.273 -2.0756 -0.5999  0.5219
  605MOL0     H83481  10.521   3.280   9.123  1.6566 -0.1240  2.1483
  605MOL0     H83482  10.277   3.115   9.211 -0.8234  0.7774 -0.6107
  605MOL0     H83483  10.287   3.176   9.045  0.0786 -0.0202 -0.6425
  605MOL0     H83484  10.371   2.947   9.078 -1.7043  1.5157  0.4161
  605MOL0     H83485  10.504   3.011   9.182 -2.1360  1.4929  1.0930
  605MOL0     H83486  10.610   3.037   8.763  0.2701 -3.9212 -0.9742
  605MOL0     H83487  10.589   3.726   9.148 -0.4326 -0.6876 -0.7561
  605MOL0     H83488  10.582   3.953   8.997  4.2898  1.6275 -0.3227
  605MOL0     H83489  10.507   4.074   9.100 -3.1758 -1.0415  0.6461
  605MOL0     H83490  10.624   3.965   9.170  0.0024 -0.0266  0.3599
  606MOL0     O83491   8.161   4.313   9.373 -0.5582 -0.1899  0.4632
  606MOL0     C83492   8.266   4.359   9.327  0.1498  0.3472  0.0315
  606MOL0     O83493   8.391   4.333   9.367  1.1809  0.1808  0.7674
  606MOL0     C83494   8.443   4.252   9.466 -0.1018 -0.6585  0.5217
  606MOL0     C83495   8.576   4.207   9.447  0.7973  0.3606  0.0682
  606MOL0     C83496   8.638   4.138   9.546 -0.4584 -0.5245  1.4304
  606MOL0     C83497   8.566   4.086   9.654  0.1605 -0.4065  0.5974
  606MOL0     O83498   8.602   3.991   9.742 -0.3734  0.2194  0.4457
  606MOL0     C83499   8.726   3.915   9.717  1.0130 -0.4180 -0.0419
  606MOL0     C83500   8.765   3.805   9.813  0.0082 -0.4244 -1.0887
  606MOL0     C83501   8.846   3.695   9.762 -0.7766 -0.2004  0.3693
  606MOL0     C83502   8.896   3.605   9.875  0.1197 -0.2094  0.9283
  606MOL0     C83503   8.963   3.482   9.826 -0.1594  0.4060  0.3123
  606MOL0     C83504   9.097   3.508   9.751  0.2424  0.6832  0.0501
  606MOL0     C83505   9.184   3.618   9.813  0.2306 -1.1290  1.0188
  606MOL0     C83506   9.309   3.616   9.734 -1.0568 -0.1248  0.3139
  606MOL0     N83507   9.408   3.708   9.797 -1.0650  0.5746  0.3375
  606MOL0     C83508   9.395   3.843   9.795  0.7574  0.4477 -0.2703
  606MOL0     C83509   9.511   3.893   9.851  0.8661  0.6230 -0.9244
  606MOL0     C83510   9.550   4.038   9.861  0.0828 -0.4687 -0.1136
  606MOL0     C83511   9.555   4.118   9.728  0.2481  0.2457  0.1649
  606MOL0     C83512   9.614   4.259   9.734  0.3205 -0.5152  0.6410
  606MOL0     C83513   9.758   4.258   9.688 -0.0088  0.4436 -0.4384
  606MOL0     O83514   9.776   4.333   9.569  0.0085 -0.7473  0.0875
  606MOL0     C83515   9.761   4.469   9.561  0.2686  0.5524 -0.4913
  606MOL0     C83516   9.718   4.547   9.667 -0.0892 -0.3724  0.4817
  606MOL0     C83517   9.688   4.684   9.653 -0.9376 -0.3642  0.2799
  606MOL0     C83518   9.665   4.761   9.783 -0.4809 -0.0724 -0.7746
  606MOL0     C83519   9.724   4.745   9.530  0.0424 -0.0667 -0.5874
  606MOL0     C83520   9.703   4.888   9.493 -0.5745 -0.1112  0.2157
  606MOL0     O83521   9.732   4.922   9.364  0.2975 -0.1852 -0.4372
  606MOL0     C83522   9.774   5.052   9.336 -0.2756 -0.4011  0.5537
  606MOL0     C83523   9.731   5.114   9.218 -0.4499  0.5682  0.1621
  606MOL0     C83524   9.773   5.250   9.193  0.6584  1.3381 -0.8559
  606MOL0     C83525   9.858   5.319   9.289 -0.3856 -1.5738  0.8528
  606MOL0     O83526   9.883   5.456   9.260 -0.7178  0.9323 -0.7067
  606MOL0     C83527   9.945   5.536   9.370  0.0304  0.7423 -0.3794
  606MOL0     C83528   9.852   5.546   9.492  0.3946  0.3177  0.1371
  606MOL0     C83529   9.910   5.641   9.603  0.3849 -0.2627  0.5504
  606MOL0     C83530   9.820   5.673   9.728  0.3447 -0.0995  0.0412
  606MOL0     C83531   9.905   5.734   9.836 -0.2140  0.5935 -0.3557
  606MOL0     C83532   9.826   5.788   9.962  0.0640  0.8384 -0.7975
  606MOL0     C83533   9.938   5.813  10.066  0.2630 -0.2486 -0.3009
  606MOL0     C83534   9.911   5.940  10.146 -0.8214  0.3082 -0.2729
  606MOL0    Cl83535   9.774   5.936  10.257  0.6461 -0.2850  0.5507
  606MOL0     C83536   9.916   5.243   9.388 -0.1033  0.3034  0.6964
  606MOL0     C83537   9.871   5.115   9.417  0.3754  0.2289 -0.8144
  606MOL0     O83538   9.660   4.967   9.576  0.1323  0.3350  0.1830
  606MOL0     C83539   9.776   4.667   9.425  0.0689  0.1928 -0.4301
  606MOL0     C83540   9.781   4.529   9.441 -0.1250  0.1806  0.2333
  606MOL0     N83541   9.587   3.778   9.883  0.4896  0.1008 -0.3937
  606MOL0     N83542   9.526   3.663   9.841 -0.2496  0.0424  0.1516
  606MOL0     C83543   8.429   4.114   9.663 -0.4913 -0.2430  0.5970
  606MOL0     C83544   8.372   4.194   9.560 -0.3211 -0.2894 -0.5189
  606MOL0     C83545   8.250   4.445   9.204  0.3267 -0.2635 -0.0043
  606MOL0     C83546   8.370   4.450   9.120  0.4221  0.5281  0.0068
  606MOL0     C83547   8.371   4.522   9.003 -0.6023 -0.4953 -0.7309
  606MOL0     C83548   8.252   4.583   8.968 -0.0628 -0.7684 -0.8387
  606MOL0     O83549   8.253   4.658   8.852  0.1492 -0.3305  0.4988
  606MOL0     C83550   8.186   4.592   8.746 -0.8241  0.0114  0.7563
  606MOL0     C83551   8.284   4.579   8.627  0.5517  0.1483  0.2045
  606MOL0     C83552   8.212   4.579   8.484 -0.8046  0.1711  0.2850
  606MOL0     C83553   8.308   4.590   8.374 -0.1358 -0.4675 -0.5962
  606MOL0     C83554   8.367   4.462   8.353  0.1066 -1.2121 -0.4120
  606MOL0     C83555   8.417   4.360   8.330 -0.0074  0.0937 -0.1189
  606MOL0     C83556   8.137   4.577   9.048 -0.2742 -0.0777 -0.0323
  606MOL0     C83557   8.128   4.512   9.172 -0.2805 -0.1529  1.1849
  606MOL0     C83558   8.001   4.510   9.253 -0.7343  0.0322  0.5768
  606MOL0     H83559   8.625   4.243   9.357  0.1404  1.3412  0.0893
  606MOL0     H83560   8.741   4.113   9.520 -0.5339  0.9704 -0.5635
  606MOL0     H83561   8.809   3.986   9.718 -1.5944  2.9107  3.3640
  606MOL0     H83562   8.705   3.865   9.621 -2.0794  2.0681 -0.8210
  606MOL0     H83563   8.822   3.858   9.890 -1.6084 -1.3501  0.8698
  606MOL0     H83564   8.673   3.771   9.863  0.4858 -0.7119 -0.3837
  606MOL0     H83565   8.786   3.640   9.688 -0.4674 -1.1917  0.8394
  606MOL0     H83566   8.936   3.729   9.709 -1.0690  2.0169  1.2066
  606MOL0     H83567   8.960   3.653   9.950  2.3488 -3.8320  1.5533
  606MOL0     H83568   8.807   3.565   9.924 -0.1129  0.5135  1.1126
  606MOL0     H83569   8.901   3.420   9.760 -0.9744  0.6986  0.7861
  606MOL0     H83570   8.980   3.419   9.914 -1.0608 -0.3677 -0.0489
  606MOL0     H83571   9.147   3.411   9.752 -1.2269 -0.1419 -1.7552
  606MOL0     H83572   9.076   3.539   9.648  0.2559 -0.4274 -0.2932
  606MOL0     H83573   9.219   3.581   9.910  1.6971 -3.1502 -0.1998
  606MOL0     H83574   9.135   3.715   9.805  1.9532 -0.3577 -4.6372
  606MOL0     H83575   9.364   3.522   9.740 -0.4938 -0.0914 -2.7178
  606MOL0     H83576   9.280   3.639   9.631  1.3507 -1.3133 -0.7216
  606MOL0     H83577   9.321   3.909   9.752  1.0736  1.7685  1.1251
  606MOL0     H83578   9.640   4.058   9.921 -0.9152  1.1593  0.9170
  606MOL0     H83579   9.466   4.086   9.912 -0.7396 -1.6431 -0.3344
  606MOL0     H83580   9.582   4.048   9.649 -1.7828 -1.7561  1.1210
  606MOL0     H83581   9.455   4.146   9.694  1.5771  1.4548 -3.0599
  606MOL0     H83582   9.556   4.327   9.671 -1.5754 -0.3167  2.4984
  606MOL0     H83583   9.603   4.296   9.837  2.7015  0.1856  0.7081
  606MOL0     H83584   9.803   4.309   9.773 -4.5527  2.0565  1.3163
  606MOL0     H83585   9.795   4.155   9.684 -1.4440 -0.0832 -1.1855
  606MOL0     H83586   9.722   4.507   9.768  2.7690  0.1779  0.6765
  606MOL0     H83587   9.603   4.848   9.762  0.9707  2.1217  3.1504
  606MOL0     H83588   9.761   4.787   9.828 -0.2782 -2.9293  0.7265
  606MOL0     H83589   9.613   4.695   9.853 -2.4682  2.6954  0.5541
  606MOL0     H83590   9.672   5.063   9.143 -0.9780  2.7513 -0.9966
  606MOL0     H83591   9.739   5.307   9.107 -2.4131 -0.3043 -0.8400
  606MOL0     H83592  10.039   5.485   9.394  0.4346  0.8415 -1.6655
  606MOL0     H83593   9.975   5.638   9.344 -0.9173  0.4459 -2.8985
  606MOL0     H83594   9.750   5.581   9.472 -0.6017 -2.0900  0.7365
  606MOL0     H83595   9.851   5.452   9.546 -2.4593  1.7076  2.8164
  606MOL0     H83596   9.944   5.730   9.548  1.2483  0.2141  1.8239
  606MOL0     H83597   9.999   5.600   9.652  0.6345  1.0825  1.2748
  606MOL0     H83598   9.778   5.578   9.764  2.3183 -1.3148 -0.7058
  606MOL0     H83599   9.740   5.739   9.694  2.7877  1.7138 -2.6574
  606MOL0     H83600   9.968   5.649   9.868  0.7260  1.0629 -0.9254
  606MOL0     H83601   9.969   5.814   9.798  1.3188 -1.2096 -1.8300
  606MOL0     H83602   9.749   5.717   9.992 -1.6909  2.1616 -1.9757
  606MOL0     H83603   9.782   5.885   9.935 -0.4985  0.4249 -1.3814
  606MOL0     H83604  10.037   5.822  10.022  1.2585  0.5890  1.9732
  606MOL0     H83605   9.944   5.726  10.131  1.2614  0.0106 -0.0381
  606MOL0     H83606   9.898   6.011  10.065  0.8986 -1.5270 -2.2997
  606MOL0     H83607  10.005   5.963  10.197  0.7519 -0.3525 -2.7057
  606MOL0     H83608   9.982   5.299   9.455 -0.3950 -1.0921  2.1984
  606MOL0     H83609   9.923   5.056   9.491 -0.1280 -1.0613 -1.4618
  606MOL0     H83610   9.803   4.693   9.323 -2.9574  1.2239 -1.0655
  606MOL0     H83611   9.812   4.460   9.363 -0.6511  0.0488  0.1314
  606MOL0     H83612   8.365   4.076   9.742 -1.8992  0.5156 -0.1459
  606MOL0     H83613   8.268   4.219   9.580 -0.7447 -4.7455  6.1529
  606MOL0     H83614   8.454   4.385   9.143 -1.9687 -2.2370  1.4521
  606MOL0     H83615   8.452   4.526   8.931 -1.4797  0.6549 -1.6926
  606MOL0     H83616   8.160   4.487   8.767  0.7056 -0.3410  0.9522
  606MOL0     H83617   8.100   4.654   8.719 -0.1644  0.1273 -1.1819
  606MOL0     H83618   8.335   4.482   8.631 -2.0606 -1.3028  0.1608
  606MOL0     H83619   8.356   4.659   8.643  1.1288 -0.4664  0.7633
  606MOL0     H83620   8.161   4.484   8.469 -0.0485 -0.3522  0.9774
  606MOL0     H83621   8.153   4.672   8.478  1.6490  1.7880 -0.2176
  606MOL0     H83622   8.388   4.659   8.404 -2.2424  2.0096 -0.3703
  606MOL0     H83623   8.254   4.639   8.293 -1.0543  1.5256  1.1414
  606MOL0     H83624   8.454   4.267   8.291 -0.3340  0.3218 -0.9934
  606MOL0     H83625   8.044   4.613   9.003  0.9787 -2.5584 -5.4094
  606MOL0     H83626   8.033   4.523   9.357 -0.3395  0.3843  0.4142
  606MOL0     H83627   7.937   4.595   9.229  1.5670  0.9867 -2.9405
  606MOL0     H83628   7.939   4.422   9.236 -0.8342 -0.0244  1.1990
  607MOL0     O83629   4.703  11.202   8.149  0.4327  0.1099 -0.0706
  607MOL0     C83630   4.811  11.227   8.109  0.1241 -0.7868 -0.4004
  607MOL0     O83631   4.923  11.204   8.189 -0.0284 -0.4602  0.4507
  607MOL0     C83632   4.923  11.143   8.313 -0.2730  0.6555 -0.1051
  607MOL0     C83633   5.014  11.192   8.407 -0.1069 -0.1524 -1.0108
  607MOL0     C83634   5.029  11.121   8.529  0.6968  0.0908 -0.1869
  607MOL0     C83635   4.947  11.002   8.560  0.1617  0.8029 -0.8093
  607MOL0     O83636   4.949  10.932   8.688 -0.9482  0.0388 -0.0910
  607MOL0     C83637   4.934  11.007   8.799  0.9325 -0.3127 -0.2401
  607MOL0     C83638   4.849  10.925   8.894  0.7911 -0.3176  0.2175
  607MOL0     C83639   4.817  10.986   9.035  0.1706 -0.6063  0.5806
  607MOL0     C83640   4.704  10.911   9.102 -0.7138 -0.9079 -0.7403
  607MOL0     C83641   4.719  10.929   9.259  0.0807  0.1597 -0.2972
  607MOL0     C83642   4.849  10.861   9.318  0.0654  0.0063 -0.3153
  607MOL0     C83643   4.828  10.840   9.469  0.1268  0.5949 -0.3813
  607MOL0     C83644   4.851  10.962   9.572  1.0033  0.0381  0.7467
  607MOL0     N83645   4.984  11.021   9.556  0.4540  0.0268  0.1445
  607MOL0     C83646   5.034  11.105   9.458 -0.5873 -0.0260 -0.2139
  607MOL0     C83647   5.170  11.101   9.478  0.2992  0.0460 -0.2053
  607MOL0     C83648   5.257  11.200   9.407 -0.0057  0.3311 -0.2905
  607MOL0     C83649   5.276  11.184   9.259  0.8030 -0.1561 -0.1152
  607MOL0     C83650   5.349  11.061   9.198 -0.5103  0.9858 -1.6285
  607MOL0     C83651   5.433  10.969   9.298  0.0497 -0.2878  0.0401
  607MOL0     O83652   5.516  10.865   9.239 -0.3297 -0.3053  0.2621
  607MOL0     C83653   5.604  10.908   9.138  0.3989  1.3045 -0.1603
  607MOL0     C83654   5.638  10.826   9.029 -0.2343  0.1970  0.5153
  607MOL0     C83655   5.710  10.879   8.918 -0.3067  0.2906  0.6903
  607MOL0     C83656   5.728  10.797   8.790  0.4428  0.4118  0.0798
  607MOL0     C83657   5.776  10.998   8.934  0.6820 -0.4034  0.5000
  607MOL0     C83658   5.869  11.058   8.841 -0.3321  0.9529  0.4071
  607MOL0     O83659   5.984  11.122   8.889 -0.4516 -0.0057  0.4082
  607MOL0     C83660   6.029  11.218   8.801 -0.3150  0.3774  0.1938
  607MOL0     C83661   6.023  11.359   8.833  0.0662 -0.1917 -0.2771
  607MOL0     C83662   6.070  11.452   8.741 -0.4904 -0.7064  0.7656
  607MOL0     C83663   6.124  11.417   8.621 -0.0256 -0.5118 -0.5544
  607MOL0     O83664   6.165  11.522   8.540 -0.5602  0.6945 -0.4108
  607MOL0     C83665   6.305  11.531   8.488  1.3534 -0.0654 -0.3040
  607MOL0     C83666   6.411  11.560   8.589  0.3072 -1.0322  0.8202
  607MOL0     C83667   6.407  11.708   8.637 -0.0576  0.6857 -0.7986
  607MOL0     C83668   6.540  11.743   8.698 -0.2100 -0.1292 -0.0939
  607MOL0     C83669   6.534  11.877   8.768 -1.0907 -0.5747 -0.3606
  607MOL0     C83670   6.497  11.992   8.678  0.6109  0.8836 -0.7407
  607MOL0     C83671   6.494  12.119   8.774 -0.1366 -0.1469 -0.7914
  607MOL0     C83672   6.407  12.239   8.723  0.4287  0.3758 -0.7625
  607MOL0    Cl83673   6.457  12.270   8.560  0.0813  0.2450  0.2184
  607MOL0     C83674   6.136  11.285   8.588 -0.2195  0.1796  0.3622
  607MOL0     C83675   6.090  11.185   8.672  0.5385  0.1421  1.0564
  607MOL0     O83676   5.817  11.074   8.727 -0.6662  0.2306 -0.5544
  607MOL0     C83677   5.755  11.077   9.049  0.8153 -0.7615 -0.4385
  607MOL0     C83678   5.675  11.027   9.150 -0.8995 -0.3102  0.1940
  607MOL0     N83679   5.198  11.011   9.577 -0.5797  0.2147  0.5767
  607MOL0     N83680   5.088  10.963   9.614  0.5252 -0.9026 -0.5436
  607MOL0     C83681   4.866  10.950   8.453  0.0677  0.5698 -0.0110
  607MOL0     C83682   4.860  11.014   8.326  0.0631  0.7619 -0.4728
  607MOL0     C83683   4.820  11.272   7.963  0.0831  0.7345 -0.2540
  607MOL0     C83684   4.950  11.271   7.915  0.8181  0.8453  0.6474
  607MOL0     C83685   4.981  11.279   7.775  0.7129 -0.7619  0.8543
  607MOL0     C83686   4.868  11.297   7.687  0.9411  0.2824  0.5542
  607MOL0     O83687   4.868  11.283   7.552  0.0414  0.9377 -0.3981
  607MOL0     C83688   4.991  11.311   7.486 -0.0483  0.0614  0.0863
  607MOL0     C83689   5.068  11.445   7.520  0.3893  0.7370 -0.7134
  607MOL0     C83690   4.985  11.570   7.490  0.9052 -0.1913 -0.6236
  607MOL0     C83691   5.083  11.683   7.467 -0.3153 -0.0609 -0.0326
  607MOL0     C83692   5.021  11.809   7.422  1.2041  0.1503 -0.2612
  607MOL0     C83693   4.980  11.914   7.384 -0.7683 -0.6858 -1.0110
  607MOL0     C83694   4.738  11.303   7.743 -0.9255  0.1155 -0.1962
  607MOL0     C83695   4.708  11.300   7.876 -0.5289 -0.2689  0.3238
  607MOL0     C83696   4.564  11.334   7.917  0.2646  0.3055 -0.7206
  607MOL0     H83697   5.062  11.285   8.382 -1.6544  0.6889 -0.9997
  607MOL0     H83698   5.091  11.169   8.604  1.2773 -0.0674 -0.5581
  607MOL0     H83699   4.884  11.100   8.769  2.6259  0.6505 -0.2184
  607MOL0     H83700   5.026  11.031   8.852  0.3950 -0.5660  0.8343
  607MOL0     H83701   4.755  10.902   8.843  1.6548 -1.9937 -0.7210
  607MOL0     H83702   4.896  10.827   8.907  0.4636 -0.3661  1.0678
  607MOL0     H83703   4.913  10.993   9.088  0.1079 -0.7795  0.7159
  607MOL0     H83704   4.780  11.088   9.019 -2.9989 -1.7459  0.0441
  607MOL0     H83705   4.608  10.949   9.067  0.1936 -0.2647 -2.6466
  607MOL0     H83706   4.723  10.804   9.088 -1.1747 -1.2605  1.0096
  607MOL0     H83707   4.632  10.880   9.303  0.9430 -1.7868 -0.6408
  607MOL0     H83708   4.729  11.038   9.261 -0.7274  0.3221 -2.2406
  607MOL0     H83709   4.876  10.770   9.264 -0.6677 -0.0967 -0.5123
  607MOL0     H83710   4.930  10.934   9.307 -0.2041  0.2166 -0.9488
  607MOL0     H83711   4.867  10.741   9.494 -4.2215 -0.9540  1.3997
  607MOL0     H83712   4.724  10.806   9.477  0.5819 -0.4915  1.5536
  607MOL0     H83713   4.771  11.031   9.544  1.2513 -0.7336 -2.2046
  607MOL0     H83714   4.831  10.927   9.674  4.3759  0.8432  1.7992
  607MOL0     H83715   4.967  11.150   9.386  0.3476 -0.9934 -1.7347
  607MOL0     H83716   5.350  11.210   9.465 -0.5351  0.6155  0.5318
  607MOL0     H83717   5.201  11.292   9.425  0.2138  0.6449 -1.1732
  607MOL0     H83718   5.180  11.180   9.206  1.6105  0.2736 -1.6979
  607MOL0     H83719   5.315  11.275   9.213 -3.3108  0.3513 -3.2117
  607MOL0     H83720   5.291  10.986   9.143 -1.7873 -0.2066  1.1269
  607MOL0     H83721   5.430  11.105   9.139 -0.4872  0.5820 -1.9061
  607MOL0     H83722   5.486  11.030   9.372  2.3342  0.6699 -2.1990
  607MOL0     H83723   5.368  10.906   9.358  2.3835 -2.3543  0.5918
  607MOL0     H83724   5.593  10.728   9.027  1.9615 -0.8682  0.3793
  607MOL0     H83725   5.699  10.695   8.819 -1.1686  1.0117  0.7463
  607MOL0     H83726   5.831  10.789   8.757 -0.3340  0.3089 -2.4972
  607MOL0     H83727   5.666  10.845   8.714 -1.7146 -1.1070  0.7503
  607MOL0     H83728   5.977  11.397   8.924  1.5791  1.0512  0.0120
  607MOL0     H83729   6.084  11.553   8.778 -2.0262 -0.9167  2.0442
  607MOL0     H83730   6.309  11.439   8.429 -1.0582 -0.4720  0.0641
  607MOL0     H83731   6.296  11.606   8.409 -1.4050 -0.4887 -0.4725
  607MOL0     H83732   6.400  11.485   8.667 -2.8177 -3.0120 -1.2962
  607MOL0     H83733   6.501  11.548   8.529 -0.3843 -0.5262 -0.3629
  607MOL0     H83734   6.330  11.725   8.712  2.2170  0.2212  1.8046
  607MOL0     H83735   6.387  11.768   8.548 -0.8577 -1.1468 -1.9143
  607MOL0     H83736   6.609  11.738   8.614  0.3184 -1.6754  0.4027
  607MOL0     H83737   6.572  11.679   8.781  1.6810  0.3482 -0.4116
  607MOL0     H83738   6.458  11.868   8.846 -0.6656 -1.6053 -0.0515
  607MOL0     H83739   6.627  11.901   8.820 -1.5972 -0.5117  0.5435
  607MOL0     H83740   6.400  11.972   8.632 -0.7514 -0.8704  2.5676
  607MOL0     H83741   6.578  11.997   8.605  1.9304  1.0867  0.6969
  607MOL0     H83742   6.598  12.148   8.785  0.1376 -0.4499 -2.3958
  607MOL0     H83743   6.459  12.083   8.872  2.2509 -0.6822 -0.0671
  607MOL0     H83744   6.423  12.333   8.775  1.8350 -0.8490  1.1761
  607MOL0     H83745   6.300  12.217   8.714  0.4156  1.1724 -3.5864
  607MOL0     H83746   6.180  11.262   8.492  0.7561 -1.0931  1.0805
  607MOL0     H83747   6.088  11.084   8.633  2.0956  0.6507 -0.4931
  607MOL0     H83748   5.813  11.167   9.069 -2.1618  0.7937  2.2051
  607MOL0     H83749   5.680  11.082   9.243  0.4387 -0.3927  0.1852
  607MOL0     H83750   4.799  10.868   8.476  0.8830  0.4008  1.9761
  607MOL0     H83751   4.794  10.973   8.251 -0.5016  2.5549 -1.0022
  607MOL0     H83752   5.027  11.245   7.987  2.0966 -3.3068 -1.8704
  607MOL0     H83753   5.081  11.257   7.738  0.0026  0.0547 -1.7971
  607MOL0     H83754   5.056  11.225   7.502 -0.4279  0.1364  2.3094
  607MOL0     H83755   4.964  11.312   7.380  0.5625  1.4740 -0.0824
  607MOL0     H83756   5.160  11.445   7.461 -1.1692  1.0185 -3.2907
  607MOL0     H83757   5.085  11.450   7.628 -1.2097 -0.2008 -0.3919
  607MOL0     H83758   4.931  11.559   7.395  0.1743  3.0339 -0.6845
  607MOL0     H83759   4.910  11.589   7.567 -0.7563 -2.7037 -1.5080
  607MOL0     H83760   5.152  11.647   7.391  1.2941  1.5024  0.6215
  607MOL0     H83761   5.139  11.698   7.560  3.5167 -1.7085 -1.8734
  607MOL0     H83762   4.937  12.012   7.377  0.8929  0.3839  1.8915
  607MOL0     H83763   4.659  11.294   7.669 -0.2581  0.0820 -0.9169
  607MOL0     H83764   4.568  11.399   8.005  0.1855 -3.8300  2.7140
  607MOL0     H83765   4.499  11.364   7.835 -0.6723  3.0764  0.9182
  607MOL0     H83766   4.533  11.235   7.953 -0.5789 -0.3457 -3.1087
  608MOL0     O83767   6.106   2.576   0.758  0.8224  0.0818 -0.1317
  608MOL0     C83768   5.992   2.619   0.733  0.1692  0.3486 -0.7909
  608MOL0     O83769   5.897   2.549   0.662 -0.4724  0.0827  0.6804
  608MOL0     C83770   5.926   2.447   0.576  0.0513 -0.5224  0.3594
  608MOL0     C83771   5.869   2.445   0.450  1.0075 -0.2923  0.2722
  608MOL0     C83772   5.868   2.326   0.375 -1.1920 -0.2123 -0.3682
  608MOL0     C83773   5.925   2.208   0.426  0.4387  1.2802  0.0807
  608MOL0     O83774   5.920   2.092   0.341  0.7216 -1.0638  0.0554
  608MOL0     C83775   5.981   1.970   0.384 -0.4132 -0.4668 -0.2230
  608MOL0     C83776   6.072   1.913   0.274  0.5643 -0.6248  1.1116
  608MOL0     C83777   5.990   1.888   0.144 -0.8203  1.4017  0.5578
  608MOL0     C83778   6.078   1.810   0.032 -0.1665  0.6765  0.9252
  608MOL0     C83779   6.007   1.719  -0.075 -0.1415  0.2883 -0.8458
  608MOL0     C83780   6.086   1.590  -0.116 -0.6823 -0.3143  0.3714
  608MOL0     C83781   6.118   1.475  -0.009 -0.1192 -0.0091 -0.6063
  608MOL0     C83782   6.000   1.438   0.086 -0.2285  0.0038  0.7336
  608MOL0     N83783   6.040   1.340   0.186 -0.0178 -0.6617 -1.2230
  608MOL0     C83784   6.127   1.347   0.297  0.1681 -0.7054  0.1086
  608MOL0     C83785   6.165   1.221   0.326  0.2923  0.2544 -0.1155
  608MOL0     C83786   6.254   1.168   0.441 -0.3702 -0.0773 -0.1651
  608MOL0     C83787   6.266   1.265   0.554 -0.3004 -0.0898  0.8288
  608MOL0     C83788   6.374   1.240   0.658  0.1039 -0.3813 -0.1887
  608MOL0     C83789   6.365   1.324   0.775  0.4793 -0.3978 -0.3313
  608MOL0     O83790   6.238   1.321   0.846 -0.5451  0.0210  0.0469
  608MOL0     C83791   6.245   1.399   0.966  0.0448 -1.0110  0.5820
  608MOL0     C83792   6.140   1.491   0.996  0.3135  0.7166 -0.4236
  608MOL0     C83793   6.145   1.575   1.112 -0.0161  0.5150 -0.0741
  608MOL0     C83794   6.030   1.672   1.145  0.2573  0.1275 -0.1873
  608MOL0     C83795   6.245   1.556   1.214 -0.3311 -0.9762 -1.0042
  608MOL0     C83796   6.247   1.618   1.343  0.1821 -0.0208 -0.1975
  608MOL0     O83797   6.218   1.749   1.354 -0.1630 -0.3466 -0.3199
  608MOL0     C83798   6.224   1.814   1.476  1.0299  0.7441 -0.2079
  608MOL0     C83799   6.193   1.762   1.608  0.3025  0.5474 -0.4667
  608MOL0     C83800   6.212   1.831   1.724 -1.3484  0.6042  0.2267
  608MOL0     C83801   6.276   1.957   1.718 -0.9349  0.3268  0.3826
  608MOL0     O83802   6.311   2.041   1.816  0.9991  0.0292  0.6920
  608MOL0     C83803   6.288   1.997   1.948  0.0264 -0.7621 -0.6827
  608MOL0     C83804   6.141   1.997   2.009 -0.6778  0.0100 -0.0684
  608MOL0     C83805   6.048   2.113   1.991 -0.1930 -0.4823  1.0396
  608MOL0     C83806   5.976   2.093   1.858  0.1404 -0.0415 -0.1460
  608MOL0     C83807   5.851   2.176   1.847  1.3462 -0.4675 -0.3526
  608MOL0     C83808   5.863   2.323   1.910 -0.8728  0.5814  0.2483
  608MOL0     C83809   5.722   2.386   1.899 -0.7298 -0.8894  0.0949
  608MOL0     C83810   5.655   2.426   1.768 -0.1463  0.7604 -0.3219
  608MOL0    Cl83811   5.736   2.575   1.737  0.0254 -0.1345 -0.4190
  608MOL0     C83812   6.305   2.006   1.586 -0.3142 -0.0136 -0.6740
  608MOL0     C83813   6.273   1.938   1.475 -0.1431 -0.3848  0.1296
  608MOL0     O83814   6.290   1.552   1.431 -0.2136  0.1817  0.1751
  608MOL0     C83815   6.340   1.460   1.184 -0.5778  0.0163 -0.0439
  608MOL0     C83816   6.342   1.385   1.069 -0.3000  0.4577 -0.0375
  608MOL0     N83817   6.111   1.138   0.232  0.2163  0.4306  0.6752
  608MOL0     N83818   6.038   1.212   0.155  0.6924 -0.2289  0.6171
  608MOL0     C83819   5.998   2.221   0.545 -0.0365  0.4220 -0.5722
  608MOL0     C83820   6.011   2.344   0.615  0.6068 -0.8322  0.3524
  608MOL0     C83821   5.944   2.741   0.799 -0.4254  0.5458 -0.1556
  608MOL0     C83822   5.836   2.808   0.738  0.5833  0.6440  0.8332
  608MOL0     C83823   5.786   2.926   0.768  0.1004  0.9530 -0.3368
  608MOL0     C83824   5.843   2.994   0.881 -0.3526  0.6307  0.1396
  608MOL0     O83825   5.813   3.117   0.925 -0.3098  1.1155  0.0085
  608MOL0     C83826   5.733   3.200   0.833  0.4503 -0.6541 -0.6170
  608MOL0     C83827   5.575   3.183   0.857 -0.3247  0.8616  0.0249
  608MOL0     C83828   5.489   3.232   0.737  0.7455 -0.1814 -0.2692
  608MOL0     C83829   5.344   3.216   0.777  0.4781 -0.3339  0.1398
  608MOL0     C83830   5.307   3.075   0.767  0.4617 -0.7303 -0.3351
  608MOL0     C83831   5.263   2.959   0.765  0.0505 -0.0960 -0.6925
  608MOL0     C83832   5.949   2.929   0.949  0.2743 -0.1790  0.3293
  608MOL0     C83833   6.002   2.802   0.908 -1.3090  0.3062 -0.0198
  608MOL0     C83834   6.119   2.749   0.987  0.3363 -0.0911  0.0145
  608MOL0     H83835   5.819   2.529   0.402  0.7301 -0.8299 -0.3926
  608MOL0     H83836   5.814   2.340   0.282 -2.5934  1.5878  0.6445
  608MOL0     H83837   5.900   1.901   0.407 -0.7278  0.5949  2.1323
  608MOL0     H83838   6.042   1.981   0.474 -3.2706  0.0184  1.7999
  608MOL0     H83839   6.149   1.989   0.261 -1.6349  1.8284  1.4574
  608MOL0     H83840   6.124   1.823   0.308  0.1907 -0.9223  0.9032
  608MOL0     H83841   5.904   1.826   0.173  1.0573 -1.2466  0.7914
  608MOL0     H83842   5.962   1.987   0.107  2.3633  3.4719  3.1227
  608MOL0     H83843   6.133   1.893  -0.014  0.7836  1.3123  3.0983
  608MOL0     H83844   6.144   1.740   0.084 -0.4333  0.9663  1.6606
  608MOL0     H83845   5.983   1.780  -0.163 -1.8048  2.4133  0.9499
  608MOL0     H83846   5.915   1.678  -0.033  0.0678 -0.6828 -1.3031
  608MOL0     H83847   6.016   1.544  -0.187 -0.7653 -2.3639  1.7130
  608MOL0     H83848   6.179   1.629  -0.157 -0.2994 -0.1253  1.4073
  608MOL0     H83849   6.191   1.514   0.063 -0.7360 -1.7801  1.0681
  608MOL0     H83850   6.135   1.379  -0.059 -1.6128 -1.7991  2.0860
  608MOL0     H83851   5.945   1.524   0.125 -1.5033  0.1734 -1.2905
  608MOL0     H83852   5.924   1.400   0.017  0.2351  2.2777 -1.1629
  608MOL0     H83853   6.152   1.441   0.345 -0.7368  1.0944 -2.7258
  608MOL0     H83854   6.352   1.140   0.400  0.5927 -1.0206  2.5543
  608MOL0     H83855   6.209   1.076   0.480  2.3236 -1.4021  0.0776
  608MOL0     H83856   6.305   1.359   0.513 -0.6560 -0.1057  0.4409
  608MOL0     H83857   6.165   1.280   0.595 -1.3041 -2.4600 -0.5761
  608MOL0     H83858   6.378   1.134   0.686  3.3816 -0.8892 -2.1078
  608MOL0     H83859   6.465   1.278   0.612 -1.3844  0.1890 -2.8474
  608MOL0     H83860   6.450   1.306   0.842  3.1696 -2.4656 -3.9070
  608MOL0     H83861   6.384   1.425   0.735  1.3957 -0.3020  0.3150
  608MOL0     H83862   6.054   1.485   0.930  1.5465 -1.3451 -1.9616
  608MOL0     H83863   5.960   1.672   1.061 -1.8821  0.7750  1.5173
  608MOL0     H83864   6.072   1.773   1.156 -0.2544  0.1482  1.8140
  608MOL0     H83865   5.981   1.640   1.237 -1.2873  3.7236  0.3983
  608MOL0     H83866   6.155   1.661   1.611  1.1469  0.2164 -0.6944
  608MOL0     H83867   6.200   1.781   1.820  0.7448  0.6383  0.5486
  608MOL0     H83868   6.331   1.896   1.954 -2.2800 -1.7654  0.0819
  608MOL0     H83869   6.347   2.063   2.013 -4.8497  2.1161  1.3774
  608MOL0     H83870   6.111   1.903   1.962  0.5090 -1.3277  1.7249
  608MOL0     H83871   6.152   1.986   2.117 -1.0102  4.2112  0.5767
  608MOL0     H83872   6.103   2.207   1.985  1.0496 -1.2066  0.6148
  608MOL0     H83873   5.977   2.110   2.074 -1.0881  2.0585  0.4584
  608MOL0     H83874   5.938   1.995   1.827  0.4568  0.0969 -1.0182
  608MOL0     H83875   6.039   2.139   1.781  0.4497 -0.0991  0.0734
  608MOL0     H83876   5.820   2.191   1.743 -2.7021 -1.1163  0.6144
  608MOL0     H83877   5.770   2.121   1.897  2.2406 -1.3729  0.1402
  608MOL0     H83878   5.936   2.378   1.849  0.0081 -2.5582 -1.7678
  608MOL0     H83879   5.904   2.319   2.012  3.8183  2.7383 -1.2657
  608MOL0     H83880   5.736   2.479   1.955 -1.2570 -0.8750  0.2066
  608MOL0     H83881   5.655   2.317   1.952 -0.2508 -2.8655 -1.7335
  608MOL0     H83882   5.548   2.444   1.781 -0.3321  0.9401 -1.9005
  608MOL0     H83883   5.657   2.352   1.687 -2.6804  0.4885 -0.1949
  608MOL0     H83884   6.350   2.104   1.569  0.0931  0.2779  1.7073
  608MOL0     H83885   6.285   1.981   1.376 -2.8377 -1.4359 -0.7538
  608MOL0     H83886   6.420   1.443   1.255 -1.0035 -0.7608  0.2617
  608MOL0     H83887   6.422   1.312   1.064 -0.9656 -0.3218  0.2883
  608MOL0     H83888   6.036   2.140   0.605 -0.2111  0.3952 -0.4969
  608MOL0     H83889   6.057   2.348   0.713 -0.6534 -3.0962  1.1201
  608MOL0     H83890   5.794   2.773   0.644 -1.0151  1.3356  1.2654
  608MOL0     H83891   5.716   2.974   0.700  3.0012  0.9613 -3.5529
  608MOL0     H83892   5.768   3.298   0.868  2.7753 -1.9385  0.9530
  608MOL0     H83893   5.757   3.190   0.726 -1.9872  0.4348 -1.3267
  608MOL0     H83894   5.548   3.242   0.946 -2.9064 -2.2688  1.5063
  608MOL0     H83895   5.562   3.076   0.874  0.1981  1.1498  2.8488
  608MOL0     H83896   5.516   3.336   0.715  1.5559 -0.6268 -1.4897
  608MOL0     H83897   5.509   3.169   0.650  0.8703 -1.7565  0.8655
  608MOL0     H83898   5.288   3.270   0.699 -2.3852  0.2407  2.4026
  608MOL0     H83899   5.326   3.260   0.876  0.3705 -2.4303  1.1002
  608MOL0     H83900   5.236   2.856   0.760  0.3346 -0.2442  0.5633
  608MOL0     H83901   5.990   2.976   1.038 -3.0081 -0.1916  2.0037
  608MOL0     H83902   6.125   2.795   1.086 -0.4537  1.6845 -0.7190
  608MOL0     H83903   6.107   2.641   0.997  2.2431 -0.3390 -0.0292
  608MOL0     H83904   6.213   2.762   0.932  1.2359 -1.7740  1.0599
  609MOL0     O83905   1.176   4.218   1.286 -0.8633 -0.3323  0.9750
  609MOL0     C83906   1.177   4.307   1.364 -0.7046 -0.0410 -0.4908
  609MOL0     O83907   1.171   4.434   1.336 -0.1103  0.0143  0.2771
  609MOL0     C83908   1.201   4.468   1.208 -0.0147  0.6206 -0.2241
  609MOL0     C83909   1.339   4.481   1.171  0.3284  1.1407  0.3763
  609MOL0     C83910   1.372   4.513   1.042 -0.0063 -0.4308 -0.3197
  609MOL0     C83911   1.267   4.548   0.952  0.5860  0.0139 -0.7091
  609MOL0     O83912   1.316   4.580   0.830 -0.7153  0.1426  0.0963
  609MOL0     C83913   1.215   4.618   0.724  0.1624 -0.2969 -0.4217
  609MOL0     C83914   1.282   4.614   0.586 -0.2176  0.0520 -0.0654
  609MOL0     C83915   1.369   4.742   0.583 -0.2366 -0.8850  0.4428
  609MOL0     C83916   1.509   4.724   0.518 -0.2560  0.2529 -0.2911
  609MOL0     C83917   1.518   4.694   0.367  1.6887 -0.8053 -0.6091
  609MOL0     C83918   1.662   4.676   0.316  0.3515 -0.1262 -0.5744
  609MOL0     C83919   1.687   4.666   0.168  0.7872 -0.0793 -0.2947
  609MOL0     C83920   1.833   4.688   0.120  0.2964 -0.2206  0.7184
  609MOL0     N83921   1.851   4.658  -0.026 -0.2227  0.5266 -0.5616
  609MOL0     C83922   1.967   4.696  -0.091 -0.1133  0.4966 -0.1289
  609MOL0     C83923   1.942   4.683  -0.220  0.3984 -1.2213  0.5257
  609MOL0     C83924   2.025   4.714  -0.336  0.1558 -0.9096 -0.7678
  609MOL0     C83925   1.954   4.775  -0.466 -1.0318 -0.1870 -1.3602
  609MOL0     C83926   2.056   4.771  -0.579  0.0746  0.4650  0.3470
  609MOL0     C83927   2.039   4.890  -0.668  0.6244 -0.0218  0.4644
  609MOL0     O83928   2.165   4.919  -0.741 -0.6487  0.7148 -1.0183
  609MOL0     C83929   2.207   4.825  -0.833  0.0005 -0.8805 -0.3695
  609MOL0     C83930   2.347   4.818  -0.856 -0.4709 -0.1531 -0.1210
  609MOL0     C83931   2.415   4.736  -0.945 -1.1079  1.2551  0.1796
  609MOL0     C83932   2.565   4.751  -0.946 -0.1506  0.6100 -0.2195
  609MOL0     C83933   2.331   4.652  -1.023 -0.2521  0.3528 -0.5087
  609MOL0     C83934   2.381   4.552  -1.119  0.1423 -0.4160 -0.1581
  609MOL0     O83935   2.290   4.466  -1.173  0.2193 -0.1853  0.5808
  609MOL0     C83936   2.338   4.362  -1.251 -0.5355  0.0578  0.2939
  609MOL0     C83937   2.307   4.230  -1.204  0.5249  0.2004 -0.1427
  609MOL0     C83938   2.376   4.119  -1.255  0.0439  0.6035  0.2980
  609MOL0     C83939   2.459   4.123  -1.369  0.2809 -1.1319  0.1627
  609MOL0     O83940   2.512   4.007  -1.422 -0.3691  0.2818  0.3769
  609MOL0     C83941   2.429   3.889  -1.433  0.9456 -0.1700 -0.0717
  609MOL0     C83942   2.459   3.815  -1.568  0.0329  0.3022 -0.9282
  609MOL0     C83943   2.476   3.904  -1.692  0.6028 -0.3982 -0.0407
  609MOL0     C83944   2.362   4.014  -1.706  0.2214 -0.4467  1.4803
  609MOL0     C83945   2.402   4.129  -1.790 -0.0979  0.3998 -0.0194
  609MOL0     C83946   2.374   4.112  -1.943 -0.2141  0.2546 -0.3529
  609MOL0     C83947   2.402   4.241  -2.017  0.4090  0.7157  0.8965
  609MOL0     C83948   2.430   4.206  -2.163 -0.5672 -1.4498  0.5404
  609MOL0    Cl83949   2.284   4.154  -2.251 -0.0907  0.1321 -0.1154
  609MOL0     C83950   2.477   4.254  -1.419 -0.5442  0.9653  0.5327
  609MOL0     C83951   2.417   4.367  -1.360 -0.1862  0.1263  0.3491
  609MOL0     O83952   2.500   4.549  -1.121  0.0742 -0.1230 -0.1378
  609MOL0     C83953   2.189   4.651  -0.991 -0.9225 -0.2455  0.0686
  609MOL0     C83954   2.130   4.741  -0.902 -0.7914  1.3191 -0.0451
  609MOL0     N83955   1.809   4.637  -0.233 -0.7055 -0.4852 -0.8308
  609MOL0     N83956   1.757   4.631  -0.115 -1.1071  0.4539  0.1550
  609MOL0     C83957   1.134   4.559   1.005  0.1513 -0.0878 -0.0596
  609MOL0     C83958   1.092   4.512   1.134  0.9903  0.0445  0.1202
  609MOL0     C83959   1.165   4.272   1.502  0.5511  0.3459 -0.8174
  609MOL0     C83960   1.235   4.340   1.606 -0.9687 -0.1327 -0.1364
  609MOL0     C83961   1.221   4.312   1.750  0.2610 -0.3614  0.6419
  609MOL0     C83962   1.137   4.209   1.790  0.0641 -0.6441 -0.3835
  609MOL0     O83963   1.102   4.196   1.922 -0.7924 -0.0727  0.7895
  609MOL0     C83964   1.003   4.103   1.959  0.0809  0.3383 -0.4099
  609MOL0     C83965   0.865   4.140   1.924 -0.8946 -0.1942  0.5277
  609MOL0     C83966   0.840   4.285   1.946  0.3942 -0.6523 -0.8031
  609MOL0     C83967   0.698   4.325   1.956  0.2225  0.5031  0.2560
  609MOL0     C83968   0.689   4.467   1.968  0.8061  0.5799 -0.1801
  609MOL0     C83969   0.697   4.584   1.970 -0.1779  0.0107 -0.0731
  609MOL0     C83970   1.077   4.132   1.683  0.0216  0.4106 -0.2101
  609MOL0     C83971   1.082   4.160   1.542 -0.0253  1.4958 -1.2634
  609MOL0     C83972   0.995   4.071   1.456 -0.1071 -0.3943  0.0968
  609MOL0     H83973   1.415   4.455   1.243 -1.2605 -3.1485  0.8631
  609MOL0     H83974   1.477   4.527   1.018  0.9974 -0.3205  3.5345
  609MOL0     H83975   1.165   4.710   0.755 -1.5111 -0.7641 -1.5656
  609MOL0     H83976   1.140   4.538   0.718 -0.9671  0.5790  1.2160
  609MOL0     H83977   1.355   4.533   0.585  0.4903  0.6694 -1.4765
  609MOL0     H83978   1.216   4.606   0.499 -1.0415 -1.8731  0.6673
  609MOL0     H83979   1.318   4.818   0.523 -0.7701 -0.5507  1.2972
  609MOL0     H83980   1.379   4.788   0.682  0.5013 -1.9885  0.8979
  609MOL0     H83981   1.575   4.811   0.522  3.6725 -2.3457 -2.3200
  609MOL0     H83982   1.557   4.637   0.562  2.0908  1.2731 -0.6912
  609MOL0     H83983   1.464   4.775   0.318  1.3181 -1.5185 -1.3978
  609MOL0     H83984   1.451   4.611   0.342 -0.9227  1.1482 -0.4718
  609MOL0     H83985   1.722   4.756   0.362 -1.7001 -0.5816  3.3497
  609MOL0     H83986   1.692   4.584   0.366  0.6511 -0.3970 -1.2446
  609MOL0     H83987   1.633   4.746   0.117  1.3737  0.4905 -0.0387
  609MOL0     H83988   1.650   4.567   0.142 -2.4658  0.7249  0.7328
  609MOL0     H83989   1.870   4.791   0.126 -0.9866  0.2045  2.1480
  609MOL0     H83990   1.899   4.621   0.176  1.6486  0.8581  0.4854
  609MOL0     H83991   2.061   4.729  -0.047  1.2652 -5.4890  2.3597
  609MOL0     H83992   2.060   4.615  -0.368 -2.1981 -1.8553 -0.5941
  609MOL0     H83993   2.100   4.786  -0.302 -3.7111  3.3876 -0.3758
  609MOL0     H83994   1.864   4.719  -0.491 -1.1508 -0.6233 -0.0591
  609MOL0     H83995   1.932   4.881  -0.455  1.3366  0.3427 -1.1109
  609MOL0     H83996   2.158   4.779  -0.540  1.3143 -3.4142 -1.6283
  609MOL0     H83997   2.058   4.674  -0.630  2.6402  1.2332 -1.1721
  609MOL0     H83998   1.954   4.873  -0.734  1.0942  1.9601 -0.7458
  609MOL0     H83999   2.008   4.981  -0.616 -0.2940 -0.8172  1.3531
  609MOL0     H84000   2.397   4.896  -0.799 -3.8368  1.9495  0.2512
  609MOL0     H84001   2.600   4.814  -0.864  1.3127  0.9123 -1.0312
  609MOL0     H84002   2.607   4.787  -1.041  1.7592  0.0708  0.3772
  609MOL0     H84003   2.606   4.650  -0.938 -2.5293 -0.3296  0.8613
  609MOL0     H84004   2.235   4.216  -1.124  0.1863  1.2191 -0.2619
  609MOL0     H84005   2.357   4.024  -1.205 -1.1439 -1.8290 -4.2438
  609MOL0     H84006   2.449   3.831  -1.343  1.6636  1.8537  1.1479
  609MOL0     H84007   2.325   3.923  -1.435  1.0863  0.3162 -2.3270
  609MOL0     H84008   2.557   3.772  -1.543  0.9644  2.8614  0.1586
  609MOL0     H84009   2.380   3.742  -1.588 -0.5724  0.2133  1.4389
  609MOL0     H84010   2.484   3.840  -1.780 -0.1959 -2.3770  1.2617
  609MOL0     H84011   2.558   3.974  -1.672 -0.6429  0.9117  0.6391
  609MOL0     H84012   2.326   4.054  -1.611  1.0388  0.6024  1.3704
  609MOL0     H84013   2.273   3.965  -1.746  0.4106  1.5997 -1.7899
  609MOL0     H84014   2.339   4.209  -1.752 -0.5351  0.3686 -0.6764
  609MOL0     H84015   2.509   4.153  -1.782  0.1748  0.1782 -2.3251
  609MOL0     H84016   2.267   4.104  -1.966 -0.8004  3.5162  0.7621
  609MOL0     H84017   2.437   4.030  -1.978  2.9410  2.0997  0.6280
  609MOL0     H84018   2.497   4.288  -1.990  0.0941  1.8987  0.0529
  609MOL0     H84019   2.323   4.315  -2.005 -1.1425 -0.6363 -0.5113
  609MOL0     H84020   2.516   4.139  -2.170 -1.1281 -1.9851 -3.0051
  609MOL0     H84021   2.450   4.302  -2.212  0.7325 -1.1872  1.5338
  609MOL0     H84022   2.535   4.268  -1.509  0.0825 -0.2541  0.7284
  609MOL0     H84023   2.437   4.458  -1.416  0.0382 -2.5583 -4.3927
  609MOL0     H84024   2.121   4.578  -1.032  0.3678 -1.3573 -0.1786
  609MOL0     H84025   2.024   4.728  -0.886 -0.6965 -1.2052 -1.0085
  609MOL0     H84026   1.068   4.622   0.946 -2.5684 -2.4468  0.2793
  609MOL0     H84027   0.986   4.517   1.159  0.2401  1.6713 -2.9425
  609MOL0     H84028   1.305   4.416   1.574 -1.0043 -0.0553 -0.0306
  609MOL0     H84029   1.267   4.380   1.821  0.8274  2.7109 -2.3737
  609MOL0     H84030   1.020   4.006   1.912 -1.5848  0.6536 -1.7693
  609MOL0     H84031   1.009   4.089   2.067 -2.9523 -0.2898 -0.2096
  609MOL0     H84032   0.795   4.095   1.995 -2.3263 -0.3442 -0.9252
  609MOL0     H84033   0.835   4.110   1.823 -3.5660  1.2680  0.7894
  609MOL0     H84034   0.885   4.311   2.042 -1.1131  1.2114 -0.5346
  609MOL0     H84035   0.899   4.336   1.868  1.5109 -4.2128 -2.5371
  609MOL0     H84036   0.645   4.274   2.036  1.5567  0.3091  1.0465
  609MOL0     H84037   0.644   4.283   1.870 -0.4285 -1.2768  1.4684
  609MOL0     H84038   0.723   4.688   1.967  0.3754 -0.1032  0.5274
  609MOL0     H84039   1.009   4.057   1.724  1.1950  0.6425  2.3499
  609MOL0     H84040   0.912   4.127   1.412  1.0160 -0.4727 -2.3310
  609MOL0     H84041   1.047   4.026   1.370 -0.8762  0.2839 -0.7457
  609MOL0     H84042   0.955   3.982   1.505 -0.9125  0.1482  0.4337
  610MOL0     O84043   6.812   6.326   0.478 -0.1466  0.0312  0.4129
  610MOL0     C84044   6.912   6.330   0.547 -0.1921  0.1442 -0.0760
  610MOL0     O84045   6.916   6.266   0.668 -0.0977  1.2888 -0.2783
  610MOL0     C84046   6.806   6.213   0.730 -0.0870 -0.3026 -0.2788
  610MOL0     C84047   6.755   6.091   0.695 -0.8818  0.3571 -0.4055
  610MOL0     C84048   6.628   6.046   0.743 -0.1756  0.4187  0.1442
  610MOL0     C84049   6.551   6.124   0.836  0.0470 -0.1636  0.3124
  610MOL0     O84050   6.424   6.104   0.895 -0.7824 -0.5361  0.0904
  610MOL0     C84051   6.369   5.982   0.837 -0.4740 -0.4863 -1.3187
  610MOL0     C84052   6.310   6.001   0.708 -0.3690 -0.0776  0.2895
  610MOL0     C84053   6.319   5.877   0.616 -0.0737 -0.4811 -0.2866
  610MOL0     C84054   6.252   5.747   0.682 -0.0618  0.2034  0.6576
  610MOL0     C84055   6.170   5.672   0.575  0.7149 -0.0230 -0.2942
  610MOL0     C84056   6.099   5.552   0.653 -0.3649 -0.1594  0.1506
  610MOL0     C84057   6.029   5.450   0.561 -0.1046 -0.8390  0.3921
  610MOL0     C84058   6.037   5.307   0.604  0.3378  0.4276 -1.0298
  610MOL0     N84059   6.013   5.209   0.497 -0.0204  0.7424  0.4835
  610MOL0     C84060   5.926   5.101   0.513 -0.1098 -0.3333  0.6863
  610MOL0     C84061   5.964   5.020   0.405 -0.6457 -1.0558 -0.0304
  610MOL0     C84062   5.902   4.886   0.365  0.1963 -0.5936 -0.6206
  610MOL0     C84063   6.002   4.773   0.400 -0.5776  0.6075  0.0657
  610MOL0     C84064   5.995   4.649   0.308 -0.0551  0.0589 -0.7425
  610MOL0     C84065   6.135   4.587   0.283 -0.7797 -1.0940 -0.5022
  610MOL0     O84066   6.135   4.451   0.233  0.4189 -0.7323  0.0149
  610MOL0     C84067   6.114   4.441   0.094  1.2383  0.4422 -0.5624
  610MOL0     C84068   6.126   4.315   0.047 -0.1229 -0.4823 -0.7830
  610MOL0     C84069   6.086   4.272  -0.080  0.3362 -0.8109 -0.0015
  610MOL0     C84070   6.111   4.129  -0.099  0.6008 -0.2412 -0.0478
  610MOL0     C84071   6.024   4.368  -0.165 -0.5079 -0.0508  0.0250
  610MOL0     C84072   5.990   4.333  -0.302 -0.0793 -0.1344 -0.2378
  610MOL0     O84073   6.045   4.403  -0.414  0.5555 -0.0351 -0.0870
  610MOL0     C84074   5.991   4.393  -0.539 -0.8637  0.7362 -0.1342
  610MOL0     C84075   5.939   4.511  -0.600  0.2599 -0.5668 -0.6253
  610MOL0     C84076   5.884   4.506  -0.729 -0.1663  0.6724 -0.8207
  610MOL0     C84077   5.883   4.391  -0.802  0.1985 -0.4795  0.3784
  610MOL0     O84078   5.855   4.384  -0.938 -0.0404  0.8552  0.2998
  610MOL0     C84079   5.887   4.486  -1.028  0.7768  0.1313 -0.2635
  610MOL0     C84080   6.035   4.500  -1.065 -0.0368  0.1871  0.1737
  610MOL0     C84081   6.050   4.588  -1.194  0.2395  0.4513 -0.4919
  610MOL0     C84082   6.187   4.643  -1.213  0.1539 -0.3742 -0.4694
  610MOL0     C84083   6.199   4.751  -1.324 -0.8731 -0.2756 -0.3843
  610MOL0     C84084   6.162   4.710  -1.467  0.9539 -0.8131 -0.2341
  610MOL0     C84085   6.219   4.829  -1.559  0.5203 -0.8307 -0.2007
  610MOL0     C84086   6.360   4.812  -1.588 -0.5486  0.2172  0.1296
  610MOL0    Cl84087   6.407   4.945  -1.698  0.5092 -0.5432  0.2513
  610MOL0     C84088   5.933   4.279  -0.744  0.5419 -0.1574 -0.3414
  610MOL0     C84089   5.979   4.272  -0.614  0.3926 -0.2339 -0.4752
  610MOL0     O84090   5.925   4.230  -0.314  0.2154  0.1552  0.3070
  610MOL0     C84091   6.020   4.502  -0.135  0.7954  0.8281 -0.3255
  610MOL0     C84092   6.057   4.531   0.002  1.0937 -0.1429  0.3802
  610MOL0     N84093   6.073   5.080   0.336 -0.5894  0.0721  0.5106
  610MOL0     N84094   6.100   5.196   0.385 -0.4039  0.2769  0.2328
  610MOL0     C84095   6.613   6.239   0.872  0.3767 -0.5503  1.1870
  610MOL0     C84096   6.739   6.284   0.831 -0.3483 -1.0530 -0.3610
  610MOL0     C84097   7.033   6.387   0.486  0.2611 -0.5451 -0.8197
  610MOL0     C84098   7.053   6.360   0.347 -0.0468 -0.4715 -0.4285
  610MOL0     C84099   7.160   6.411   0.273  0.2604  0.2251 -0.2490
  610MOL0     C84100   7.257   6.491   0.336  0.0301  0.1008  0.3169
  610MOL0     O84101   7.357   6.540   0.257  0.0584 -0.2204  0.0245
  610MOL0     C84102   7.469   6.597   0.330 -0.7101  0.1296 -0.1949
  610MOL0     C84103   7.568   6.627   0.227 -0.7871 -1.1243  0.1545
  610MOL0     C84104   7.621   6.511   0.158 -0.3739 -0.0627  0.3282
  610MOL0     C84105   7.694   6.403   0.246  0.3140  0.1753 -0.1877
  610MOL0     C84106   7.784   6.463   0.352 -0.1703 -0.6326 -0.1892
  610MOL0     C84107   7.841   6.511   0.447 -0.0062  0.4892 -0.1460
  610MOL0     C84108   7.236   6.516   0.477 -0.4930  0.2402 -0.7980
  610MOL0     C84109   7.136   6.456   0.552  0.8365 -0.2583  0.3883
  610MOL0     C84110   7.137   6.501   0.698  0.4199  0.1709  0.1262
  610MOL0     H84111   6.794   6.035   0.611 -2.4377  1.3535 -1.8754
  610MOL0     H84112   6.597   5.947   0.709  1.0001 -0.3681  1.2854
  610MOL0     H84113   6.290   5.942   0.900  1.1819 -2.5785 -0.4350
  610MOL0     H84114   6.438   5.897   0.835  0.0111 -0.1018 -1.3806
  610MOL0     H84115   6.203   6.020   0.715 -1.0122 -2.4818 -1.7490
  610MOL0     H84116   6.356   6.091   0.664 -1.3653  0.8318  1.0644
  610MOL0     H84117   6.268   5.900   0.523  0.2316 -0.0395 -0.3451
  610MOL0     H84118   6.421   5.853   0.586 -0.1634 -0.9182 -0.2465
  610MOL0     H84119   6.331   5.683   0.723  1.7270  1.9102  0.0743
  610MOL0     H84120   6.195   5.781   0.769 -0.8494 -1.1677  0.6922
  610MOL0     H84121   6.230   5.636   0.490 -0.5056 -3.5628  0.1881
  610MOL0     H84122   6.094   5.742   0.540  0.5604 -0.8218 -1.6514
  610MOL0     H84123   6.176   5.504   0.714 -1.6210  0.3477  2.2079
  610MOL0     H84124   6.017   5.593   0.713 -0.7079  0.0097 -0.4271
  610MOL0     H84125   6.071   5.450   0.460  3.1084  1.0453  1.5852
  610MOL0     H84126   5.924   5.472   0.540 -0.2976 -0.1043  1.9522
  610MOL0     H84127   6.138   5.290   0.643 -0.2082  0.1493  0.3047
  610MOL0     H84128   5.970   5.289   0.689 -1.1974  2.1245 -1.8193
  610MOL0     H84129   5.847   5.098   0.588 -0.0436  1.0084  0.8423
  610MOL0     H84130   5.863   4.885   0.263 -1.5378 -0.2405 -0.0016
  610MOL0     H84131   5.817   4.876   0.433  0.4828  1.7729  0.1798
  610MOL0     H84132   6.103   4.813   0.398  0.5274 -2.0239 -0.0140
  610MOL0     H84133   5.985   4.738   0.503  0.4300 -1.0189 -0.2960
  610MOL0     H84134   5.943   4.573   0.367 -0.5714  0.7112 -0.3413
  610MOL0     H84135   5.930   4.668   0.222 -2.0234 -0.2695  0.6028
  610MOL0     H84136   6.197   4.638   0.209 -0.0192 -2.7025 -1.0282
  610MOL0     H84137   6.195   4.573   0.373  1.4304  0.2838 -1.6649
  610MOL0     H84138   6.173   4.240   0.109 -0.5648  0.0451  0.2081
  610MOL0     H84139   6.021   4.067  -0.088  1.7300 -1.9856 -0.2256
  610MOL0     H84140   6.199   4.092  -0.044  1.2187 -2.1236 -2.1650
  610MOL0     H84141   6.142   4.109  -0.202 -1.0795 -1.9464 -0.2778
  610MOL0     H84142   5.951   4.600  -0.538 -1.3246 -1.4353  1.0333
  610MOL0     H84143   5.842   4.602  -0.760  1.5234  1.5005 -0.6882
  610MOL0     H84144   5.841   4.472  -1.126  1.5981 -2.4974 -0.3563
  610MOL0     H84145   5.848   4.580  -0.987  0.0904  0.2002 -1.0666
  610MOL0     H84146   6.086   4.550  -0.982  1.1628  1.9788 -1.5526
  610MOL0     H84147   6.077   4.402  -1.090 -1.3788 -1.9558  5.1740
  610MOL0     H84148   5.979   4.668  -1.174 -0.9124 -1.1538  2.6366
  610MOL0     H84149   6.032   4.534  -1.287 -1.6083 -0.2399  0.2124
  610MOL0     H84150   6.266   4.571  -1.237  1.8343  0.1498  2.8608
  610MOL0     H84151   6.215   4.685  -1.115 -1.0569 -3.8425  1.5596
  610MOL0     H84152   6.137   4.832  -1.287  1.7415  1.8075 -0.3011
  610MOL0     H84153   6.303   4.781  -1.312 -1.0333  0.6671 -1.2687
  610MOL0     H84154   6.053   4.719  -1.467  1.0180  0.1559  0.7925
  610MOL0     H84155   6.195   4.611  -1.500  1.8197 -0.7179  0.3303
  610MOL0     H84156   6.208   4.924  -1.504 -2.9595 -1.3230  0.1807
  610MOL0     H84157   6.162   4.843  -1.651  0.5848 -1.3874 -0.3252
  610MOL0     H84158   6.381   4.720  -1.644 -3.9284  0.2585 -1.4421
  610MOL0     H84159   6.419   4.827  -1.497  1.7176  4.3333 -1.7446
  610MOL0     H84160   5.930   4.193  -0.810 -0.7519  0.2871 -0.8745
  610MOL0     H84161   6.000   4.174  -0.573  4.0366  0.9894  1.0187
  610MOL0     H84162   5.987   4.577  -0.206  3.5221  3.6024  1.0798
  610MOL0     H84163   6.050   4.636   0.029  1.5855  0.5822 -2.0759
  610MOL0     H84164   6.567   6.307   0.944 -0.0948 -0.3855  0.7414
  610MOL0     H84165   6.769   6.385   0.856  1.6510 -1.4951 -0.8421
  610MOL0     H84166   6.983   6.305   0.285  0.1946 -0.9519 -0.2817
  610MOL0     H84167   7.170   6.398   0.166 -0.5231  1.5049 -0.5028
  610MOL0     H84168   7.432   6.678   0.393 -1.8629 -1.2324  0.9655
  610MOL0     H84169   7.508   6.520   0.397  1.8093  1.6928  0.2490
  610MOL0     H84170   7.639   6.690   0.282 -1.5798 -0.8066  0.8136
  610MOL0     H84171   7.525   6.695   0.153  0.9712  1.8414  1.6603
  610MOL0     H84172   7.543   6.468   0.095  1.3155 -1.2751 -1.0275
  610MOL0     H84173   7.697   6.555   0.093 -0.9601 -0.1518 -0.4291
  610MOL0     H84174   7.752   6.332   0.186 -0.7533 -1.4454  0.5982
  610MOL0     H84175   7.616   6.351   0.302 -1.4907  0.5734 -2.2231
  610MOL0     H84176   7.888   6.556   0.532 -0.7148 -0.1277  0.5860
  610MOL0     H84177   7.306   6.584   0.525 -1.4056  1.0678 -0.5995
  610MOL0     H84178   7.039   6.494   0.745  0.6974 -0.4792  0.6307
  610MOL0     H84179   7.212   6.441   0.751  1.0887  1.2399  0.4123
  610MOL0     H84180   7.169   6.605   0.708  0.8665 -0.0986  1.6904
  611MOL0     O84181   9.840   0.531   5.199 -0.7397  0.0406  0.3485
  611MOL0     C84182   9.798   0.643   5.223 -0.4507  1.0852 -1.3626
  611MOL0     O84183   9.673   0.689   5.223  0.4470  0.6721  0.4461
  611MOL0     C84184   9.564   0.601   5.201  0.1464  0.5862  0.9413
  611MOL0     C84185   9.512   0.555   5.318  0.2983  0.3104 -0.3093
  611MOL0     C84186   9.410   0.467   5.311  0.5421 -1.2787  0.5738
  611MOL0     C84187   9.353   0.425   5.186 -0.0016 -0.0873 -0.4853
  611MOL0     O84188   9.246   0.339   5.172 -0.0881  0.0410  0.0235
  611MOL0     C84189   9.286   0.202   5.198 -0.3568 -0.5234  0.0065
  611MOL0     C84190   9.226   0.101   5.095 -0.1629  0.7316 -0.8486
  611MOL0     C84191   9.082   0.142   5.074  0.3957  0.2745  0.3020
  611MOL0     C84192   8.987   0.135   5.189 -0.1168  0.3538 -1.0031
  611MOL0     C84193   8.841   0.168   5.151 -0.9273 -0.1509  0.1270
  611MOL0     C84194   8.774   0.056   5.071  0.3018 -0.2269  0.4710
  611MOL0     C84195   8.627   0.076   5.076  0.6149  0.2469 -0.2333
  611MOL0     C84196   8.549   0.025   5.199 -0.8147  0.3211  0.5657
  611MOL0     N84197   8.405   0.040   5.193 -0.1622 -0.2268  0.4703
  611MOL0     C84198   8.324  -0.027   5.099 -1.2107  0.3234 -0.2029
  611MOL0     C84199   8.200  -0.041   5.158  0.6475  0.2734  0.5680
  611MOL0     C84200   8.087  -0.103   5.083  0.4571  0.6319  0.7015
  611MOL0     C84201   7.972  -0.113   5.179  0.1674  0.1019  1.0271
  611MOL0     C84202   7.838  -0.143   5.106 -0.0260  0.5714 -0.0121
  611MOL0     C84203   7.733  -0.195   5.206  0.3352 -0.3617  0.5047
  611MOL0     O84204   7.790  -0.306   5.276 -0.0560 -0.5237  0.3325
  611MOL0     C84205   7.704  -0.365   5.365  0.8189  0.4526  0.1341
  611MOL0     C84206   7.760  -0.418   5.479  0.1946  0.0541  0.0239
  611MOL0     C84207   7.690  -0.479   5.588 -1.3609  0.0244  0.7655
  611MOL0     C84208   7.773  -0.545   5.701  0.1201  0.3416  0.2724
  611MOL0     C84209   7.552  -0.478   5.577 -0.2127  0.6483 -1.1118
  611MOL0     C84210   7.462  -0.516   5.693  0.0222  0.4185 -0.6773
  611MOL0     O84211   7.500  -0.492   5.825 -0.4179 -0.0785 -0.0066
  611MOL0     C84212   7.414  -0.503   5.931 -0.0754  0.3329 -0.2917
  611MOL0     C84213   7.353  -0.621   5.970 -0.2274 -0.1716 -0.8166
  611MOL0     C84214   7.279  -0.622   6.092 -0.0581 -0.3207 -0.6424
  611MOL0     C84215   7.289  -0.513   6.185  0.0633  1.0802  0.2932
  611MOL0     O84216   7.224  -0.506   6.305  0.1542  0.1072  0.0345
  611MOL0     C84217   7.167  -0.622   6.349  0.1340  0.6703  0.3548
  611MOL0     C84218   7.137  -0.626   6.506 -0.5895 -0.0755  0.1673
  611MOL0     C84219   7.257  -0.655   6.602 -1.0619 -0.3825  0.3431
  611MOL0     C84220   7.228  -0.675   6.752  0.2413 -0.2227  0.1593
  611MOL0     C84221   7.320  -0.763   6.831  1.0202  0.2005  0.4959
  611MOL0     C84222   7.467  -0.712   6.833  0.1774 -0.4333  0.2189
  611MOL0     C84223   7.481  -0.568   6.887  0.1754 -0.6011  0.4347
  611MOL0     C84224   7.608  -0.539   6.956 -0.3208 -0.1377  0.5055
  611MOL0    Cl84225   7.602  -0.616   7.121 -0.1112 -0.0093 -0.1253
  611MOL0     C84226   7.350  -0.397   6.135  0.6865  1.2740 -1.2984
  611MOL0     C84227   7.410  -0.387   6.015 -0.4613  0.4381  0.1146
  611MOL0     O84228   7.355  -0.567   5.658  0.4792  0.1063 -0.3344
  611MOL0     C84229   7.493  -0.428   5.461 -0.3855  0.1075 -0.1198
  611MOL0     C84230   7.564  -0.376   5.351 -0.0784 -0.1985  0.5618
  611MOL0     N84231   8.203   0.015   5.277 -0.8517  0.4004 -0.0557
  611MOL0     N84232   8.322   0.054   5.300 -0.3584  0.1115 -0.3782
  611MOL0     C84233   9.408   0.477   5.073 -0.6152  0.3640 -0.1531
  611MOL0     C84234   9.522   0.556   5.079  0.5614 -0.2064  0.4503
  611MOL0     C84235   9.901   0.743   5.263  0.7561 -0.3380  0.6087
  611MOL0     C84236  10.008   0.696   5.330 -0.4213 -1.0060  0.1741
  611MOL0     C84237  10.108   0.782   5.372 -0.3946  0.0271 -1.7316
  611MOL0     C84238  10.092   0.914   5.369  0.6062 -0.7469 -1.0979
  611MOL0     O84239  10.203   0.986   5.422  1.2684 -0.5367 -0.4761
  611MOL0     C84240  10.225   1.118   5.377 -0.5336 -0.1144  0.4725
  611MOL0     C84241  10.332   1.188   5.460  0.0447 -0.1096 -0.0126
  611MOL0     C84242  10.372   1.331   5.410  0.1839  0.0318  0.4526
  611MOL0     C84243  10.256   1.426   5.416 -0.1765  1.3237 -0.6744
  611MOL0     C84244  10.230   1.480   5.546 -0.1238 -0.2599  0.4702
  611MOL0     C84245  10.211   1.529   5.659 -0.3756  0.1133  0.2976
  611MOL0     C84246   9.980   0.973   5.304 -0.0065  0.6353 -0.2757
  611MOL0     C84247   9.894   0.886   5.235 -0.8638 -0.1473  0.4971
  611MOL0     C84248   9.787   0.953   5.156 -0.7261  0.2505  0.3863
  611MOL0     H84249   9.545   0.594   5.414 -1.7866  4.4489 -1.0539
  611MOL0     H84250   9.388   0.426   5.409 -1.2292 -1.5084  0.1222
  611MOL0     H84251   9.253   0.176   5.299 -1.3553 -4.1928 -1.1322
  611MOL0     H84252   9.394   0.186   5.193  0.0119  1.9827 -1.9943
  611MOL0     H84253   9.282   0.107   5.001 -0.4304 -0.0256 -1.0693
  611MOL0     H84254   9.228  -0.006   5.119  0.2100  0.3457 -2.4848
  611MOL0     H84255   9.085   0.245   5.037  0.4851 -1.4737 -5.5680
  611MOL0     H84256   9.043   0.082   4.991  1.7849 -0.1864 -0.0404
  611MOL0     H84257   9.007   0.040   5.241 -0.4107  2.1216  2.6656
  611MOL0     H84258   9.014   0.207   5.267  2.1044 -2.6529  1.2589
  611MOL0     H84259   8.836   0.255   5.085  2.4397  0.8494  0.9900
  611MOL0     H84260   8.788   0.181   5.245 -0.1290 -1.4422  0.7874
  611MOL0     H84261   8.805   0.065   4.967  0.5359  2.8908  0.7002
  611MOL0     H84262   8.796  -0.040   5.119  1.8265  1.4524  3.4762
  611MOL0     H84263   8.592   0.035   4.980  0.4086  0.8788 -0.4294
  611MOL0     H84264   8.595   0.179   5.061  0.7148  0.1326 -1.3267
  611MOL0     H84265   8.575  -0.079   5.219  1.0820  0.7855  0.7396
  611MOL0     H84266   8.585   0.085   5.283  0.9755  1.2110 -0.7679
  611MOL0     H84267   8.365  -0.051   5.002  1.3702  0.0595  0.8565
  611MOL0     H84268   8.124  -0.201   5.052 -0.9465  0.7965 -1.6704
  611MOL0     H84269   8.059  -0.049   4.992  1.5333  1.9083  1.0860
  611MOL0     H84270   8.000  -0.191   5.250  2.5874 -0.0335  0.0215
  611MOL0     H84271   7.963  -0.019   5.234 -1.6497 -0.4596  1.7735
  611MOL0     H84272   7.792  -0.061   5.051 -1.9836 -0.7710 -0.4679
  611MOL0     H84273   7.866  -0.218   5.033 -0.4974  1.1443 -0.8014
  611MOL0     H84274   7.693  -0.117   5.272 -0.6914  1.3151 -1.9345
  611MOL0     H84275   7.649  -0.239   5.151  0.4222 -0.0787  0.1387
  611MOL0     H84276   7.868  -0.410   5.483  0.0911  1.4099  0.9453
  611MOL0     H84277   7.709  -0.605   5.767 -3.2201 -0.7591 -3.5723
  611MOL0     H84278   7.824  -0.463   5.752 -1.2897  1.4335 -0.0061
  611MOL0     H84279   7.848  -0.608   5.653 -0.5157 -1.7785  1.8928
  611MOL0     H84280   7.358  -0.697   5.893 -0.5204 -2.3195  1.1796
  611MOL0     H84281   7.214  -0.708   6.109  1.6033 -1.4812  0.1246
  611MOL0     H84282   7.071  -0.640   6.298 -0.5404 -1.4278  2.2174
  611MOL0     H84283   7.224  -0.714   6.333  0.7370  0.6037  2.5148
  611MOL0     H84284   7.094  -0.529   6.534 -0.0523 -0.2888  1.8504
  611MOL0     H84285   7.069  -0.709   6.526  2.1937 -2.7308 -0.6552
  611MOL0     H84286   7.323  -0.568   6.596 -1.2231 -0.2648  0.3104
  611MOL0     H84287   7.310  -0.741   6.560 -1.6151 -1.2378  1.3312
  611MOL0     H84288   7.126  -0.710   6.770  0.1188 -0.3211 -0.6989
  611MOL0     H84289   7.221  -0.578   6.801  0.2294 -1.1084  2.0133
  611MOL0     H84290   7.276  -0.773   6.931  2.1876 -1.6657  0.8671
  611MOL0     H84291   7.328  -0.863   6.788 -1.8992  0.5751 -1.1898
  611MOL0     H84292   7.508  -0.713   6.731  2.0310 -2.3545  0.9083
  611MOL0     H84293   7.534  -0.781   6.886  1.0636 -0.1236 -0.4667
  611MOL0     H84294   7.405  -0.545   6.962 -0.5835 -0.8480 -0.2428
  611MOL0     H84295   7.465  -0.505   6.798 -3.6320 -2.0230 -0.0538
  611MOL0     H84296   7.619  -0.430   6.960  0.5828 -0.1420 -0.9394
  611MOL0     H84297   7.688  -0.583   6.895  0.5013  0.4679  1.1230
  611MOL0     H84298   7.339  -0.307   6.196 -1.5958  0.4451 -0.3643
  611MOL0     H84299   7.458  -0.293   5.987  1.4504 -0.4284  0.3149
  611MOL0     H84300   7.384  -0.426   5.467 -0.4119  4.5832  2.7970
  611MOL0     H84301   7.504  -0.345   5.266 -0.7352 -2.3642  0.1782
  611MOL0     H84302   9.355   0.449   4.982  0.2190 -1.8503  0.0032
  611MOL0     H84303   9.571   0.575   4.985 -0.3385 -4.5793 -1.1393
  611MOL0     H84304  10.031   0.593   5.356 -0.5950 -1.0345  0.2175
  611MOL0     H84305  10.199   0.728   5.398 -2.0824 -1.7581  1.0166
  611MOL0     H84306  10.264   1.109   5.275 -1.4393 -0.4193  0.1430
  611MOL0     H84307  10.127   1.165   5.376 -1.9300 -2.7467 -2.2379
  611MOL0     H84308  10.421   1.125   5.465 -0.3772 -0.6602  1.1277
  611MOL0     H84309  10.294   1.187   5.563 -3.1579  1.1235 -1.0558
  611MOL0     H84310  10.450   1.374   5.474 -1.8006 -0.8714  3.7238
  611MOL0     H84311  10.405   1.324   5.306 -0.2768 -1.0858  0.3730
  611MOL0     H84312  10.166   1.371   5.388  0.7319 -0.6822  0.1968
  611MOL0     H84313  10.281   1.503   5.341  2.7787 -1.3153 -2.6500
  611MOL0     H84314  10.224   1.571   5.756  2.3002  0.4078 -0.1066
  611MOL0     H84315   9.978   1.079   5.281  0.1560  0.2568 -2.2398
  611MOL0     H84316   9.701   0.980   5.218  0.7692  0.0878  2.6143
  611MOL0     H84317   9.832   1.044   5.114 -1.9294  0.6944 -0.0047
  611MOL0     H84318   9.752   0.892   5.072  2.0838  0.5061 -1.0864
  612MOL0     O84319   2.942   6.049   5.241 -0.2097 -0.2536  0.4451
  612MOL0     C84320   2.824   6.035   5.274  0.2329 -0.2236 -0.1561
  612MOL0     O84321   2.776   5.940   5.353 -0.1822  0.0626  0.2559
  612MOL0     C84322   2.864   5.865   5.421 -0.0475  0.0768 -0.6300
  612MOL0     C84323   2.839   5.853   5.563 -0.6371  0.2477 -0.6142
  612MOL0     C84324   2.932   5.777   5.638 -0.6234 -0.3433 -0.1493
  612MOL0     C84325   3.048   5.723   5.570 -0.1730  0.3250 -0.5533
  612MOL0     O84326   3.158   5.670   5.630 -0.5199 -0.5315  0.5020
  612MOL0     C84327   3.135   5.595   5.752 -0.0430  0.7599 -0.6162
  612MOL0     C84328   3.260   5.506   5.791  0.1990  0.0034  1.1359
  612MOL0     C84329   3.394   5.552   5.736  0.1571  0.2561  0.3716
  612MOL0     C84330   3.496   5.472   5.825 -1.0848  0.3286  0.5588
  612MOL0     C84331   3.626   5.474   5.738  0.3844  0.4619 -0.1394
  612MOL0     C84332   3.697   5.610   5.719  0.7439 -0.3735 -0.5175
  612MOL0     C84333   3.815   5.595   5.617  0.0506 -0.0932 -0.5993
  612MOL0     C84334   3.836   5.739   5.551 -0.1890 -0.4323  0.1977
  612MOL0     N84335   3.905   5.843   5.627  0.1955  1.2332 -0.6905
  612MOL0     C84336   4.025   5.813   5.689 -0.1396 -0.3229  0.8680
  612MOL0     C84337   4.061   5.931   5.741 -0.4659 -0.7081  0.0496
  612MOL0     C84338   4.195   5.952   5.788  0.0932  0.7665  0.1708
  612MOL0     C84339   4.227   5.864   5.914  0.8017  0.3332  0.2999
  612MOL0     C84340   4.377   5.881   5.978 -0.0504  0.1830  0.2408
  612MOL0     C84341   4.420   6.030   5.982 -0.2463  0.1504 -0.5696
  612MOL0     O84342   4.528   6.072   6.069 -0.3675 -0.1886  0.1312
  612MOL0     C84343   4.645   6.024   6.044 -0.9336 -0.6732  0.1622
  612MOL0     C84344   4.730   6.102   5.966  0.0808  0.0437 -0.1306
  612MOL0     C84345   4.864   6.067   5.944 -1.0383 -0.7242  0.6591
  612MOL0     C84346   4.943   6.173   5.862  0.6139  0.6111  0.3315
  612MOL0     C84347   4.922   5.940   5.987 -0.0673 -0.3883  1.0373
  612MOL0     C84348   5.062   5.894   5.969 -0.3093  0.4890  0.0025
  612MOL0     O84349   5.155   5.976   5.909  0.5969  0.5329 -0.5885
  612MOL0     C84350   5.289   5.942   5.904  0.6007 -1.5073  0.0170
  612MOL0     C84351   5.372   6.024   5.820 -0.2058  0.2640  0.5501
  612MOL0     C84352   5.508   5.994   5.811  0.5181 -0.0162  0.7777
  612MOL0     C84353   5.564   5.902   5.900  0.0756  0.0785  0.5864
  612MOL0     O84354   5.696   5.892   5.882 -0.3356 -0.4419 -0.0137
  612MOL0     C84355   5.791   5.873   5.995  0.2338  0.0883 -0.7216
  612MOL0     C84356   5.886   5.762   5.948 -0.1597  0.0395 -0.2367
  612MOL0     C84357   5.824   5.639   5.885  0.8414  0.5029 -0.1434
  612MOL0     C84358   5.926   5.529   5.849 -0.0101  0.7898 -0.8951
  612MOL0     C84359   5.865   5.392   5.816 -0.7778  0.4188 -0.5348
  612MOL0     C84360   5.970   5.288   5.842  0.4558  0.4603 -0.1579
  612MOL0     C84361   5.921   5.150   5.799 -0.4326 -0.3510 -0.9210
  612MOL0     C84362   6.030   5.044   5.828 -0.2052  0.1467  0.2467
  612MOL0    Cl84363   5.998   4.901   5.715  0.7487 -0.7119 -0.0666
  612MOL0     C84364   5.487   5.826   5.990  0.3357 -0.1648  0.2399
  612MOL0     C84365   5.351   5.849   5.993 -0.0413 -1.0000  0.1271
  612MOL0     O84366   5.078   5.768   5.986  0.2534 -0.2325 -0.2546
  612MOL0     C84367   4.828   5.862   6.056  0.5008  0.5470 -0.0378
  612MOL0     C84368   4.704   5.907   6.089 -0.6095 -0.0524 -1.1963
  612MOL0     N84369   3.959   6.017   5.723 -0.4256  0.0765  0.4234
  612MOL0     N84370   3.858   5.962   5.664  0.8277 -0.0092  0.2950
  612MOL0     C84371   3.068   5.741   5.435  0.0623  0.0193  0.2020
  612MOL0     C84372   2.980   5.808   5.353  0.8193 -0.1390 -0.1315
  612MOL0     C84373   2.732   6.134   5.226  0.1892  0.5768 -0.5205
  612MOL0     C84374   2.642   6.179   5.320 -0.4548 -0.3029  0.0323
  612MOL0     C84375   2.547   6.266   5.288  0.0993 -0.4329 -0.5257
  612MOL0     C84376   2.552   6.329   5.169  0.7332  0.6512 -0.3210
  612MOL0     O84377   2.450   6.415   5.147  0.6753 -0.2819 -0.2660
  612MOL0     C84378   2.477   6.535   5.062  0.8953  0.2462 -0.4368
  612MOL0     C84379   2.398   6.644   5.114  0.7381  0.1501  1.1131
  612MOL0     C84380   2.385   6.760   5.022  0.4722 -0.2045 -0.0390
  612MOL0     C84381   2.255   6.856   5.061  0.2354  0.3530  0.0398
  612MOL0     C84382   2.230   6.963   4.965  0.0082 -0.4500  0.3071
  612MOL0     C84383   2.189   7.061   4.904 -0.2236 -0.1043  0.2768
  612MOL0     C84384   2.641   6.289   5.069 -0.2649  0.1162 -0.6332
  612MOL0     C84385   2.736   6.179   5.091  0.5747 -0.3290  0.1866
  612MOL0     C84386   2.822   6.134   4.973  0.0100  0.0351  0.1314
  612MOL0     H84387   2.751   5.906   5.598  0.2970  3.9746 -3.2467
  612MOL0     H84388   2.917   5.768   5.745  1.8110  1.2859  0.3965
  612MOL0     H84389   3.046   5.531   5.755  1.1656 -0.9648  1.5610
  612MOL0     H84390   3.127   5.674   5.827 -2.5129  1.0856 -1.1425
  612MOL0     H84391   3.270   5.512   5.900  3.8104 -1.2973  1.0026
  612MOL0     H84392   3.245   5.405   5.753 -1.8516  1.8153 -3.6461
  612MOL0     H84393   3.407   5.541   5.628 -1.6569  1.1455  0.0237
  612MOL0     H84394   3.406   5.658   5.757 -2.4890  0.8120 -0.5380
  612MOL0     H84395   3.524   5.522   5.918  1.5987  2.1158 -1.0579
  612MOL0     H84396   3.459   5.370   5.841 -0.2436  0.2639  2.3577
  612MOL0     H84397   3.590   5.429   5.645 -2.9997  0.2799  1.1421
  612MOL0     H84398   3.696   5.399   5.777  1.4238  0.3363 -2.1085
  612MOL0     H84399   3.615   5.671   5.677  1.3134  1.6042  1.0860
  612MOL0     H84400   3.727   5.666   5.808 -1.7882  0.9204 -0.3819
  612MOL0     H84401   3.768   5.536   5.538 -1.4719  0.3827 -0.0975
  612MOL0     H84402   3.905   5.549   5.658 -0.3163  0.4161  0.8462
  612MOL0     H84403   3.906   5.735   5.468  2.6026  0.0158  2.3543
  612MOL0     H84404   3.737   5.776   5.522  0.2560 -0.4071 -1.3667
  612MOL0     H84405   4.086   5.723   5.685 -0.2760 -0.3732 -0.8030
  612MOL0     H84406   4.195   6.057   5.818 -1.1267  0.1190  2.6846
  612MOL0     H84407   4.268   5.925   5.711 -0.3594  3.5566 -1.3771
  612MOL0     H84408   4.152   5.896   5.987 -0.7075 -1.4761 -0.3762
  612MOL0     H84409   4.196   5.762   5.890  0.3695  0.6269 -0.4440
  612MOL0     H84410   4.375   5.832   6.076  0.2904 -1.1511 -0.3935
  612MOL0     H84411   4.452   5.823   5.923  0.4869  0.8938  0.2230
  612MOL0     H84412   4.437   6.066   5.880  0.7584  1.4007  0.0102
  612MOL0     H84413   4.330   6.076   6.024 -0.9148 -0.5725 -1.1766
  612MOL0     H84414   4.693   6.200   5.938  2.4189  1.4064  1.2485
  612MOL0     H84415   5.005   6.244   5.919 -0.0187 -0.1620  2.0591
  612MOL0     H84416   4.874   6.234   5.802 -0.9415 -1.4962 -0.1343
  612MOL0     H84417   5.012   6.131   5.789  0.4095 -2.9077  1.9827
  612MOL0     H84418   5.327   6.094   5.750  1.2769 -0.7642 -1.5501
  612MOL0     H84419   5.570   6.035   5.732 -1.8837 -2.4548 -2.6434
  612MOL0     H84420   5.847   5.967   6.006  0.5804 -0.1790 -0.1424
  612MOL0     H84421   5.743   5.842   6.088  1.2673 -0.5108 -0.3673
  612MOL0     H84422   5.954   5.809   5.876 -0.6415  1.3495  0.1375
  612MOL0     H84423   5.945   5.729   6.034  0.8802  0.8304 -0.6200
  612MOL0     H84424   5.775   5.672   5.793  0.6411 -1.1198 -0.6578
  612MOL0     H84425   5.744   5.599   5.948  0.8675  1.4094  0.4838
  612MOL0     H84426   5.992   5.522   5.936 -1.6275  2.5785  0.5503
  612MOL0     H84427   5.986   5.561   5.763  0.8092  1.8768  0.0558
  612MOL0     H84428   5.780   5.379   5.884 -1.6707  1.7578 -1.3328
  612MOL0     H84429   5.830   5.385   5.713 -0.9383 -0.9689 -0.3952
  612MOL0     H84430   6.003   5.278   5.946  3.6254 -0.3566 -1.1299
  612MOL0     H84431   6.059   5.316   5.784  0.7499  0.2947  0.2064
  612MOL0     H84432   5.900   5.153   5.692  0.9353  0.0250 -1.1939
  612MOL0     H84433   5.828   5.128   5.854  0.6801 -1.9455  0.4137
  612MOL0     H84434   6.039   5.012   5.932  1.9141  0.6126  0.2565
  612MOL0     H84435   6.125   5.093   5.805 -0.5327  1.4880  1.5798
  612MOL0     H84436   5.531   5.762   6.066  0.9872  3.9544  3.7746
  612MOL0     H84437   5.292   5.801   6.069 -1.5399  2.4010  1.3090
  612MOL0     H84438   4.856   5.772   6.110 -1.7403 -0.6244 -0.6855
  612MOL0     H84439   4.647   5.848   6.160 -0.4793  1.4871  0.2713
  612MOL0     H84440   3.165   5.705   5.404  0.4877  0.2955  1.1714
  612MOL0     H84441   2.977   5.828   5.246 -0.3379  3.2748  0.4234
  612MOL0     H84442   2.645   6.153   5.426 -2.6395 -0.7199  0.0443
  612MOL0     H84443   2.461   6.289   5.350  0.1850 -2.1798  0.3030
  612MOL0     H84444   2.581   6.568   5.075  1.0584  0.2053 -1.5801
  612MOL0     H84445   2.457   6.510   4.958  1.0452  0.6522 -0.5661
  612MOL0     H84446   2.434   6.678   5.211  0.0811  1.0073  1.0631
  612MOL0     H84447   2.292   6.618   5.123  0.5924  0.8770  1.5698
  612MOL0     H84448   2.479   6.815   5.024 -0.3032  1.1612  1.6211
  612MOL0     H84449   2.352   6.722   4.925 -0.2627  0.0262  0.1071
  612MOL0     H84450   2.276   6.908   5.155  1.6236  0.4297 -0.2766
  612MOL0     H84451   2.170   6.788   5.070 -0.5380  1.4222  1.1633
  612MOL0     H84452   2.138   7.139   4.852 -1.7131 -0.4198  1.1944
  612MOL0     H84453   2.640   6.321   4.965 -1.5431 -2.3416 -1.4787
  612MOL0     H84454   2.776   6.175   4.883  1.3312  2.2828  0.4021
  612MOL0     H84455   2.924   6.171   4.991 -0.3459  2.6027 -2.3582
  612MOL0     H84456   2.819   6.025   4.965 -1.1187  0.1518 -1.3114
  613MOL0     O84457   7.725   2.998   1.049 -0.3451  1.2696 -0.5528
  613MOL0     C84458   7.695   3.088   1.124 -0.3586  0.1619  0.4414
  613MOL0     O84459   7.632   3.074   1.237  0.6306  0.8585  0.1699
  613MOL0     C84460   7.587   2.957   1.287 -0.2995  0.0945  0.0998
  613MOL0     C84461   7.651   2.834   1.269 -0.5427  0.5801 -0.5318
  613MOL0     C84462   7.586   2.731   1.307  0.0262  1.0033 -0.0089
  613MOL0     C84463   7.453   2.730   1.372  0.1576 -1.2559 -0.3360
  613MOL0     O84464   7.372   2.629   1.420  0.1199 -0.1863 -0.0459
  613MOL0     C84465   7.419   2.496   1.410  0.5756  0.0614  0.6482
  613MOL0     C84466   7.308   2.392   1.439 -0.2598 -0.5890 -0.5681
  613MOL0     C84467   7.181   2.416   1.348  0.7881  0.0092 -0.4691
  613MOL0     C84468   7.203   2.357   1.209  0.5661  0.3054  0.5201
  613MOL0     C84469   7.100   2.389   1.100  0.2952 -0.9337  0.6203
  613MOL0     C84470   7.098   2.545   1.057 -0.0766 -0.1252 -0.1197
  613MOL0     C84471   7.001   2.558   0.941 -0.5361 -0.1767 -0.6267
  613MOL0     C84472   7.060   2.497   0.810 -0.4278  0.1925  0.1528
  613MOL0     N84473   6.993   2.530   0.686  0.2852 -0.5353  0.6514
  613MOL0     C84474   6.912   2.448   0.610  0.5761  0.4269 -1.6042
  613MOL0     C84475   6.866   2.533   0.518  1.2989  0.3699 -0.5370
  613MOL0     C84476   6.767   2.496   0.408 -0.8717 -0.4030  0.3940
  613MOL0     C84477   6.841   2.437   0.286 -0.1238 -0.1068 -1.0106
  613MOL0     C84478   6.737   2.388   0.185 -0.2958  0.8653  0.1320
  613MOL0     C84479   6.807   2.312   0.077  0.3656  0.4032  0.6171
  613MOL0     O84480   6.910   2.380  -0.001  0.4043  0.2261  0.1206
  613MOL0     C84481   6.963   2.313  -0.100  0.2415 -0.4218  0.3769
  613MOL0     C84482   6.977   2.175  -0.118  0.5156  0.3480 -1.0308
  613MOL0     C84483   7.013   2.111  -0.238  0.2973  0.2773 -0.2831
  613MOL0     C84484   7.016   1.962  -0.231  1.1370 -0.3235  0.1946
  613MOL0     C84485   7.024   2.188  -0.353  0.0221 -0.1416 -0.3723
  613MOL0     C84486   7.033   2.138  -0.495  0.2591 -0.2757  1.1413
  613MOL0     O84487   7.001   2.004  -0.528  0.1625  0.4174 -0.2488
  613MOL0     C84488   6.969   1.977  -0.660  0.1079  0.5299  0.3170
  613MOL0     C84489   7.063   1.909  -0.733  0.0844  0.1138  0.1481
  613MOL0     C84490   7.037   1.883  -0.871 -0.1917 -0.6866  0.3203
  613MOL0     C84491   6.918   1.920  -0.933 -0.2878 -0.8269  0.6763
  613MOL0     O84492   6.913   1.887  -1.064 -0.7810 -0.8428 -0.2633
  613MOL0     C84493   6.827   1.977  -1.143  0.4530  0.9729 -0.4792
  613MOL0     C84494   6.903   2.022  -1.265  0.2067  0.7695  0.4064
  613MOL0     C84495   7.000   2.130  -1.223 -0.2493  0.2477  0.5560
  613MOL0     C84496   7.021   2.220  -1.344 -0.6031 -1.4096 -0.3851
  613MOL0     C84497   7.138   2.324  -1.322 -0.3324 -0.6036 -0.6412
  613MOL0     C84498   7.124   2.434  -1.435  0.1832  0.7605  0.5754
  613MOL0     C84499   7.238   2.541  -1.435 -0.1821  0.2673  0.6467
  613MOL0     C84500   7.350   2.499  -1.524  0.1183  0.6813  0.1056
  613MOL0    Cl84501   7.433   2.650  -1.568 -0.1535  0.1642  0.3399
  613MOL0     C84502   6.818   1.979  -0.847  0.2360 -0.0778  1.4527
  613MOL0     C84503   6.843   2.001  -0.710 -0.3401  0.2715 -0.1209
  613MOL0     O84504   7.067   2.217  -0.582  0.4315  1.0081  0.0389
  613MOL0     C84505   7.026   2.326  -0.332 -0.1965 -0.4952  0.6362
  613MOL0     C84506   7.008   2.393  -0.211 -0.1618  0.4046 -0.4292
  613MOL0     N84507   6.910   2.662   0.548  0.7223  0.6146 -0.5018
  613MOL0     N84508   6.993   2.662   0.643 -0.6529 -0.0754  0.1898
  613MOL0     C84509   7.402   2.860   1.399 -0.5252  0.2755  0.3828
  613MOL0     C84510   7.469   2.968   1.354  0.8058 -0.9505 -0.3288
  613MOL0     C84511   7.717   3.232   1.079  0.2093 -0.4065 -0.2965
  613MOL0     C84512   7.768   3.328   1.172 -0.9771  0.9515 -0.4917
  613MOL0     C84513   7.776   3.463   1.145  0.3754  0.3148  0.7424
  613MOL0     C84514   7.745   3.509   1.020 -0.3523 -1.2086  0.1163
  613MOL0     O84515   7.774   3.642   0.991  0.3290  0.1357  0.1836
  613MOL0     C84516   7.727   3.705   0.877  0.3941  0.1755 -0.0960
  613MOL0     C84517   7.730   3.853   0.912 -0.1455 -0.5995  0.8855
  613MOL0     C84518   7.702   3.934   0.779  0.6414  0.6188 -0.6384
  613MOL0     C84519   7.755   4.079   0.798  0.0674  0.8341 -0.0436
  613MOL0     C84520   7.901   4.094   0.794 -0.0664 -0.0132 -0.5330
  613MOL0     C84521   8.022   4.110   0.789 -1.0589 -0.0808  0.4508
  613MOL0     C84522   7.703   3.415   0.919  0.7907  0.5625  1.2217
  613MOL0     C84523   7.682   3.279   0.949  0.2157  0.7670 -0.7327
  613MOL0     C84524   7.648   3.181   0.843 -0.6037 -0.4886 -0.5067
  613MOL0     H84525   7.741   2.813   1.211  1.2429  0.1738  2.1871
  613MOL0     H84526   7.621   2.633   1.277 -1.3854 -0.0436  1.6104
  613MOL0     H84527   7.496   2.477   1.485  0.7102  0.5516  0.6338
  613MOL0     H84528   7.456   2.471   1.310 -2.5937  1.4223 -1.0014
  613MOL0     H84529   7.351   2.293   1.420  1.0355 -0.3366  0.7861
  613MOL0     H84530   7.282   2.405   1.545 -1.3502 -0.2454 -0.8712
  613MOL0     H84531   7.093   2.362   1.384  0.7302  2.7323  4.2838
  613MOL0     H84532   7.156   2.522   1.337 -0.7230 -0.5951 -5.5353
  613MOL0     H84533   7.293   2.382   1.153 -1.8525  1.3346 -3.2741
  613MOL0     H84534   7.203   2.248   1.218  2.6673  0.1090 -1.1131
  613MOL0     H84535   7.000   2.352   1.123 -0.2894  1.6255  2.7466
  613MOL0     H84536   7.123   2.333   1.009  1.6043 -2.0508  1.6054
  613MOL0     H84537   7.056   2.603   1.140  1.6973 -2.1510  2.3942
  613MOL0     H84538   7.197   2.579   1.025  0.2833  0.3323  1.3646
  613MOL0     H84539   6.967   2.661   0.930  1.2136  0.5512  0.4207
  613MOL0     H84540   6.908   2.510   0.973  0.2831 -2.2645 -1.1839
  613MOL0     H84541   7.166   2.518   0.795 -0.1278 -1.8117 -0.8835
  613MOL0     H84542   7.056   2.388   0.814  3.5913 -0.6572 -6.2607
  613MOL0     H84543   6.897   2.341   0.611 -2.3205  0.7303  0.2068
  613MOL0     H84544   6.717   2.588   0.376  0.0870  0.8123  2.1402
  613MOL0     H84545   6.694   2.422   0.441  0.1967 -1.2288  0.9559
  613MOL0     H84546   6.899   2.507   0.226  1.9775 -0.7016  0.2054
  613MOL0     H84547   6.910   2.361   0.324 -0.5701 -0.2284 -0.4312
  613MOL0     H84548   6.660   2.329   0.235  1.0998  0.4338  1.9029
  613MOL0     H84549   6.694   2.474   0.134  1.7752  0.1494 -3.2166
  613MOL0     H84550   6.861   2.232   0.128  3.0003  1.4659 -0.3268
  613MOL0     H84551   6.733   2.264   0.012 -0.6578  1.7431  0.7564
  613MOL0     H84552   6.929   2.113  -0.043 -0.7093  1.8361 -0.5110
  613MOL0     H84553   6.917   1.921  -0.215  0.6037  0.8611  0.0466
  613MOL0     H84554   7.087   1.942  -0.150 -1.1783  5.3430  4.3141
  613MOL0     H84555   7.067   1.920  -0.319  0.0030 -0.1267 -0.5762
  613MOL0     H84556   7.157   1.875  -0.690 -0.5096 -5.1832 -1.8897
  613MOL0     H84557   7.115   1.835  -0.929 -1.2266  0.3340 -2.0297
  613MOL0     H84558   6.741   1.913  -1.166  0.8533  0.4030 -0.4102
  613MOL0     H84559   6.792   2.065  -1.087  3.0057  2.1031 -0.5601
  613MOL0     H84560   6.963   1.943  -1.310  1.8925  3.2931 -2.1601
  613MOL0     H84561   6.831   2.052  -1.343 -1.3705 -1.6302  0.8276
  613MOL0     H84562   7.092   2.081  -1.188  0.7104 -0.2644 -2.3710
  613MOL0     H84563   6.969   2.187  -1.134  1.7900  1.2984  0.6579
  613MOL0     H84564   6.933   2.284  -1.353 -2.1696 -3.3380  0.6110
  613MOL0     H84565   7.037   2.164  -1.436 -1.0128  0.9446 -1.9961
  613MOL0     H84566   7.139   2.371  -1.223  0.9363  0.4458 -1.1211
  613MOL0     H84567   7.227   2.262  -1.335  0.0302 -0.4550  0.8801
  613MOL0     H84568   7.030   2.488  -1.424 -2.9878 -2.6156 -5.2272
  613MOL0     H84569   7.112   2.382  -1.530 -4.4172 -1.6183  2.1682
  613MOL0     H84570   7.278   2.548  -1.333  2.2383 -1.7279 -0.0401
  613MOL0     H84571   7.192   2.634  -1.468  1.7155  1.2541  0.6304
  613MOL0     H84572   7.302   2.449  -1.609 -1.4525 -2.2143  2.5214
  613MOL0     H84573   7.409   2.422  -1.473 -1.9916 -0.5970  0.7513
  613MOL0     H84574   6.718   1.997  -0.887  0.9833  2.5456  0.6067
  613MOL0     H84575   6.762   2.039  -0.649 -2.4405 -0.7533 -2.1334
  613MOL0     H84576   7.033   2.396  -0.415 -0.6015 -2.8662 -1.5319
  613MOL0     H84577   7.003   2.502  -0.204 -0.5374  0.6849 -3.6348
  613MOL0     H84578   7.305   2.876   1.446 -0.4849 -0.6504  0.8193
  613MOL0     H84579   7.426   3.067   1.365 -0.1870 -1.4467  0.3428
  613MOL0     H84580   7.792   3.303   1.275  1.3209  0.7012 -1.0459
  613MOL0     H84581   7.816   3.520   1.229  1.0358 -1.7440  1.8895
  613MOL0     H84582   7.799   3.694   0.795  1.5486  1.2047  0.7559
  613MOL0     H84583   7.634   3.664   0.837 -0.5309  1.2742  0.8504
  613MOL0     H84584   7.830   3.881   0.946  1.2953 -1.7679 -1.9863
  613MOL0     H84585   7.653   3.872   0.987 -0.1460  0.9717  0.5225
  613MOL0     H84586   7.747   3.881   0.695 -0.1608 -0.7731 -0.2200
  613MOL0     H84587   7.595   3.930   0.757  0.8037  1.4068 -1.6430
  613MOL0     H84588   7.714   4.125   0.888  0.4648 -0.3843  0.7853
  613MOL0     H84589   7.723   4.141   0.714 -3.3884  0.7753  1.0750
  613MOL0     H84590   8.129   4.117   0.784 -1.0993  0.4191  0.1716
  613MOL0     H84591   7.712   3.449   0.816  2.3717  2.3831  1.9127
  613MOL0     H84592   7.727   3.109   0.819 -0.5923 -0.0117 -1.9645
  613MOL0     H84593   7.555   3.131   0.872 -1.2765 -0.0174 -1.7725
  613MOL0     H84594   7.627   3.227   0.746 -1.7093  1.4766  0.5980
  614MOL0     O84595   0.990   4.871   3.338 -0.4837  0.0504 -0.8668
  614MOL0     C84596   1.096   4.855   3.272  0.8893 -1.1201  1.0055
  614MOL0     O84597   1.141   4.738   3.236 -0.0527 -0.6705 -0.2260
  614MOL0     C84598   1.052   4.635   3.250  0.3455 -0.0600 -0.0406
  614MOL0     C84599   1.075   4.540   3.344 -0.5659  0.5443  0.2566
  614MOL0     C84600   0.989   4.435   3.344  0.1301 -0.1283 -0.3460
  614MOL0     C84601   0.870   4.429   3.270 -1.2120 -0.6141 -0.0344
  614MOL0     O84602   0.789   4.327   3.296 -0.3645 -0.5567 -0.4714
  614MOL0     C84603   0.798   4.223   3.195  0.0257 -0.4645  0.4277
  614MOL0     C84604   0.922   4.128   3.224 -0.8398  0.3687  0.7558
  614MOL0     C84605   0.903   4.012   3.322  0.4546  0.3101 -0.0442
  614MOL0     C84606   0.775   3.938   3.296  1.0964  0.9432 -0.5053
  614MOL0     C84607   0.771   3.797   3.350  0.4105  0.1696  0.3394
  614MOL0     C84608   0.765   3.803   3.507  0.6134  1.0679 -0.0627
  614MOL0     C84609   0.747   3.677   3.587  0.0302  0.5756 -0.4115
  614MOL0     C84610   0.879   3.607   3.582 -0.3549 -0.9612 -0.6075
  614MOL0     N84611   0.870   3.488   3.664  0.1583  0.0008 -0.0734
  614MOL0     C84612   0.812   3.366   3.617  0.0621 -0.0604 -0.4567
  614MOL0     C84613   0.819   3.278   3.716 -0.0510 -0.7295  0.1350
  614MOL0     C84614   0.739   3.154   3.732 -0.3904  0.0704  0.4272
  614MOL0     C84615   0.827   3.026   3.764  0.1022  0.2267 -1.4650
  614MOL0     C84616   0.751   2.901   3.812  0.4006  0.1546  0.8904
  614MOL0     C84617   0.834   2.776   3.795  0.7433  0.9250  0.1925
  614MOL0     O84618   0.765   2.659   3.837 -0.3103 -0.1754 -0.1925
  614MOL0     C84619   0.691   2.579   3.751 -0.3362  1.4252  0.1828
  614MOL0     C84620   0.668   2.445   3.775  0.5128 -0.0717  0.3339
  614MOL0     C84621   0.606   2.358   3.686 -0.0645 -0.0587  0.3189
  614MOL0     C84622   0.556   2.233   3.741 -0.0134  0.6679 -0.3484
  614MOL0     C84623   0.575   2.402   3.564  0.2838  0.3583  0.4884
  614MOL0     C84624   0.520   2.316   3.454  0.7103  0.9307  0.0165
  614MOL0     O84625   0.504   2.178   3.462 -0.9476 -0.0309  0.0368
  614MOL0     C84626   0.414   2.110   3.384  0.3301  1.2985  0.8224
  614MOL0     C84627   0.287   2.136   3.330 -0.3272 -0.5461  0.1967
  614MOL0     C84628   0.224   2.050   3.242  0.3100  0.1915  0.0241
  614MOL0     C84629   0.281   1.936   3.205 -0.8298 -0.7793 -0.7133
  614MOL0     O84630   0.225   1.841   3.132 -0.2338  0.2479  0.2193
  614MOL0     C84631   0.272   1.838   2.994  0.6397 -0.3741 -0.6690
  614MOL0     C84632   0.171   1.750   2.903 -0.5439  0.4809 -1.7540
  614MOL0     C84633   0.191   1.600   2.908  0.0440  0.6711 -0.1535
  614MOL0     C84634   0.167   1.538   3.047 -0.1123  0.8949  0.3224
  614MOL0     C84635   0.035   1.561   3.125  0.0294  0.1254  1.1645
  614MOL0     C84636  -0.026   1.434   3.185  0.3208 -0.0763 -0.5139
  614MOL0     C84637  -0.043   1.315   3.089  0.3472  0.3662  0.8747
  614MOL0     C84638  -0.129   1.201   3.138  0.0915 -0.2113  0.1250
  614MOL0    Cl84639  -0.107   1.066   3.019 -1.1532 -0.2119  0.1841
  614MOL0     C84640   0.404   1.896   3.265 -0.7351  0.0596 -0.2642
  614MOL0     C84641   0.471   1.990   3.344  0.3535  0.2074  0.5866
  614MOL0     O84642   0.488   2.379   3.355 -0.9325 -0.0860  0.0987
  614MOL0     C84643   0.607   2.536   3.528  0.1032  0.2119  0.2112
  614MOL0     C84644   0.668   2.620   3.621  0.5545  0.3008 -0.7001
  614MOL0     N84645   0.870   3.353   3.828  0.7042  0.1976 -0.1506
  614MOL0     N84646   0.900   3.469   3.793 -0.0285 -0.1259 -0.4178
  614MOL0     C84647   0.857   4.524   3.166 -0.0318  0.3571 -0.4579
  614MOL0     C84648   0.943   4.629   3.162 -1.2031 -0.6376 -0.7040
  614MOL0     C84649   1.182   4.975   3.235  0.4844 -0.2720 -0.5963
  614MOL0     C84650   1.225   5.051   3.352 -1.0542  0.2036 -0.1527
  614MOL0     C84651   1.335   5.140   3.334 -0.1011 -1.1296  0.1821
  614MOL0     C84652   1.395   5.156   3.213  0.0821  0.5160  1.5621
  614MOL0     O84653   1.493   5.239   3.175  0.6751  0.3426  0.1564
  614MOL0     C84654   1.587   5.283   3.275 -0.1795 -0.0124  0.5022
  614MOL0     C84655   1.704   5.350   3.192 -0.1356  0.0590 -0.1731
  614MOL0     C84656   1.819   5.379   3.284  0.2333 -0.0659 -0.0240
  614MOL0     C84657   1.948   5.427   3.221 -1.1509  0.2115  0.4514
  614MOL0     C84658   2.034   5.458   3.331 -0.6357 -0.9777  0.2346
  614MOL0     C84659   2.101   5.494   3.431 -0.9937 -0.3492 -0.2022
  614MOL0     C84660   1.343   5.091   3.100  0.4404  0.4558 -0.8970
  614MOL0     C84661   1.231   5.003   3.109 -0.2329  0.0408 -0.4278
  614MOL0     C84662   1.181   4.936   2.980 -0.1878  0.3867 -0.0594
  614MOL0     H84663   1.176   4.544   3.384  0.6478  0.4933 -2.5895
  614MOL0     H84664   1.006   4.356   3.416  0.1293 -1.4990 -1.7776
  614MOL0     H84665   0.813   4.263   3.094  0.8744 -0.9969  0.3325
  614MOL0     H84666   0.706   4.163   3.192  0.5328 -1.3310  1.5212
  614MOL0     H84667   0.943   4.091   3.123  0.6894  3.1614 -0.0525
  614MOL0     H84668   1.011   4.182   3.256  0.6367  0.2508 -2.7017
  614MOL0     H84669   0.985   3.940   3.321 -0.7888 -1.1741 -1.8176
  614MOL0     H84670   0.903   4.041   3.428  1.7935  1.3627 -0.3119
  614MOL0     H84671   0.682   3.982   3.333 -0.4358 -2.3611  0.0053
  614MOL0     H84672   0.759   3.926   3.189 -2.1294 -2.7471  0.1524
  614MOL0     H84673   0.859   3.741   3.317  0.7827  0.2877  1.1062
  614MOL0     H84674   0.681   3.742   3.322 -0.0276  0.7399  0.6136
  614MOL0     H84675   0.853   3.844   3.556 -0.5178 -0.8589  4.0429
  614MOL0     H84676   0.678   3.861   3.540 -0.0371  0.1496 -0.1233
  614MOL0     H84677   0.684   3.596   3.548  1.6834 -1.3816  0.7810
  614MOL0     H84678   0.712   3.700   3.688 -0.2100 -2.5200  0.3083
  614MOL0     H84679   0.910   3.571   3.484 -1.0515 -2.1637 -0.4155
  614MOL0     H84680   0.956   3.665   3.635 -0.5616 -2.9173  2.0403
  614MOL0     H84681   0.754   3.342   3.528 -0.6865 -1.3004  0.3316
  614MOL0     H84682   0.706   3.118   3.634  1.0492 -2.6635  0.8497
  614MOL0     H84683   0.654   3.167   3.800 -2.0967 -1.1102 -1.3472
  614MOL0     H84684   0.890   2.999   3.678  2.0974 -1.8377  0.5164
  614MOL0     H84685   0.897   3.047   3.845 -0.1092 -2.8926 -0.3548
  614MOL0     H84686   0.730   2.925   3.917 -1.6068  0.4557  0.4657
  614MOL0     H84687   0.650   2.891   3.771  0.6434 -0.0205  0.3347
  614MOL0     H84688   0.865   2.765   3.691 -1.4686 -1.6456 -0.2779
  614MOL0     H84689   0.920   2.789   3.862  0.3133 -0.1465  0.9761
  614MOL0     H84690   0.697   2.429   3.878 -2.9001  2.9086  1.9868
  614MOL0     H84691   0.587   2.147   3.682  4.1084  1.3206  0.5292
  614MOL0     H84692   0.447   2.228   3.752  0.2538 -4.9093  3.9035
  614MOL0     H84693   0.596   2.220   3.842  0.3566 -0.0080 -0.5749
  614MOL0     H84694   0.241   2.228   3.366  0.0699 -0.2895  0.0648
  614MOL0     H84695   0.124   2.078   3.211  0.3806 -0.6664 -1.0330
  614MOL0     H84696   0.266   1.943   2.962  1.3633  0.3220  1.3356
  614MOL0     H84697   0.377   1.811   2.979  0.8209  0.0009 -0.0816
  614MOL0     H84698   0.070   1.789   2.918 -1.5041 -1.1263 -3.5351
  614MOL0     H84699   0.206   1.778   2.803  2.1917  0.2452 -0.9590
  614MOL0     H84700   0.295   1.567   2.903 -0.7385 -2.2363  1.0177
  614MOL0     H84701   0.141   1.551   2.824 -1.0613  0.1370  0.7886
  614MOL0     H84702   0.244   1.571   3.117  2.5873 -2.1897 -0.8953
  614MOL0     H84703   0.176   1.431   3.023  2.5838  0.9259  0.9119
  614MOL0     H84704   0.059   1.641   3.196 -1.1137  1.3608  0.2264
  614MOL0     H84705  -0.032   1.606   3.051  1.2806 -0.0558 -0.1227
  614MOL0     H84706  -0.125   1.445   3.231  0.8036  0.5309  0.4283
  614MOL0     H84707   0.045   1.407   3.264  1.8813  2.2850 -0.9975
  614MOL0     H84708   0.051   1.267   3.061  1.5579  1.7663  2.3149
  614MOL0     H84709  -0.080   1.364   2.999  0.7661 -0.9974 -0.0578
  614MOL0     H84710  -0.237   1.218   3.141  0.1257 -0.0895  1.1313
  614MOL0     H84711  -0.089   1.169   3.235  3.3295  0.7173 -0.7996
  614MOL0     H84712   0.436   1.793   3.254 -0.1785  0.3077 -1.0754
  614MOL0     H84713   0.565   1.965   3.392  0.0342  0.1912  1.2194
  614MOL0     H84714   0.576   2.572   3.431 -2.7821 -0.7094  0.7024
  614MOL0     H84715   0.680   2.726   3.600 -0.3969  0.3910 -0.8395
  614MOL0     H84716   0.776   4.509   3.096 -1.0498  1.0095  0.5624
  614MOL0     H84717   0.919   4.704   3.087  0.7225  1.3903  0.5764
  614MOL0     H84718   1.182   5.034   3.450 -2.3864 -0.5120 -0.8241
  614MOL0     H84719   1.376   5.210   3.406  0.7616  0.0726 -1.4077
  614MOL0     H84720   1.550   5.360   3.343  2.9475  2.0711  0.0297
  614MOL0     H84721   1.620   5.193   3.328 -3.0181 -2.5270 -1.6504
  614MOL0     H84722   1.676   5.433   3.127 -3.0502 -1.3540 -0.8769
  614MOL0     H84723   1.735   5.275   3.119  2.2971  1.8566 -1.1406
  614MOL0     H84724   1.781   5.458   3.350 -0.2940  0.7463 -1.2735
  614MOL0     H84725   1.846   5.291   3.343 -0.0526 -0.5317 -0.5757
  614MOL0     H84726   1.940   5.513   3.153 -4.2623 -0.7189 -0.4815
  614MOL0     H84727   1.988   5.347   3.158 -3.3204 -0.8356  0.3337
  614MOL0     H84728   2.146   5.509   3.527  0.0662 -0.6968 -0.6325
  614MOL0     H84729   1.390   5.109   3.004  2.2376 -1.3029 -0.4300
  614MOL0     H84730   1.072   4.925   2.987  0.0517 -1.7371  1.4500
  614MOL0     H84731   1.214   4.986   2.889 -2.3871 -0.8271 -1.6334
  614MOL0     H84732   1.221   4.834   2.983 -1.3003 -0.0978 -1.0150
  615MOL0     O84733   6.712  10.588   5.185  0.1723  0.3711 -1.0338
  615MOL0     C84734   6.681  10.696   5.237  0.7905 -0.5742 -0.3361
  615MOL0     O84735   6.777  10.792   5.280 -0.1888 -0.0448  0.9651
  615MOL0     C84736   6.911  10.771   5.273 -0.3348 -0.7648 -0.8718
  615MOL0     C84737   6.983  10.778   5.153 -0.4667 -0.7057  1.4098
  615MOL0     C84738   7.123  10.777   5.159 -0.9165  0.9461  0.2019
  615MOL0     C84739   7.195  10.783   5.283  0.5669 -0.0654 -0.8743
  615MOL0     O84740   7.329  10.789   5.306  0.0932 -0.0318 -1.1042
  615MOL0     C84741   7.418  10.790   5.198 -0.1431  0.3791 -0.2434
  615MOL0     C84742   7.556  10.780   5.254 -0.3597  0.0654  0.5070
  615MOL0     C84743   7.656  10.819   5.145  0.2173  0.6053  0.5203
  615MOL0     C84744   7.794  10.765   5.194  0.9025 -0.1950  0.0298
  615MOL0     C84745   7.898  10.815   5.103 -0.0170 -0.4748  0.6961
  615MOL0     C84746   7.934  10.964   5.123 -0.9619  0.0822  0.6900
  615MOL0     C84747   8.070  10.997   5.071 -0.0491 -0.4326  0.8015
  615MOL0     C84748   8.081  11.015   4.919  0.1209  0.1986 -0.4233
  615MOL0     N84749   8.217  11.022   4.879  0.3170 -0.8016 -1.2086
  615MOL0     C84750   8.303  11.134   4.904 -0.0204 -0.2007  0.6404
  615MOL0     C84751   8.430  11.086   4.875  0.1788  0.1408 -0.6273
  615MOL0     C84752   8.557  11.177   4.894  1.1818  0.5487 -0.2195
  615MOL0     C84753   8.596  11.250   4.762 -0.3227 -1.3856  0.3046
  615MOL0     C84754   8.705  11.357   4.767 -0.1256  0.4187  0.0027
  615MOL0     C84755   8.818  11.330   4.872  0.0349 -0.1931  0.2097
  615MOL0     O84756   8.883  11.197   4.854  0.3893 -0.0242 -0.5275
  615MOL0     C84757   8.969  11.187   4.747  0.3247 -0.0664 -0.7324
  615MOL0     C84758   9.027  11.296   4.679  0.4016 -0.7821  0.2531
  615MOL0     C84759   9.127  11.282   4.579 -0.5083  0.4214 -0.7753
  615MOL0     C84760   9.186  11.411   4.521  1.0325  0.3534  1.0629
  615MOL0     C84761   9.174  11.151   4.549  0.1811  0.4776  0.3133
  615MOL0     C84762   9.276  11.120   4.446 -0.0630 -0.3589  0.2305
  615MOL0     O84763   9.349  10.999   4.457  0.6319  0.4102 -0.5306
  615MOL0     C84764   9.456  10.969   4.375 -0.8329  0.4089 -0.4649
  615MOL0     C84765   9.496  10.833   4.370 -0.2614 -0.2796 -0.4742
  615MOL0     C84766   9.629  10.801   4.327  0.4993  0.5533 -0.7048
  615MOL0     C84767   9.702  10.886   4.241 -0.5169 -0.4313 -0.8751
  615MOL0     O84768   9.830  10.853   4.202 -0.2294 -0.3565  0.7622
  615MOL0     C84769   9.860  10.821   4.066  0.7429 -0.6793  0.6258
  615MOL0     C84770   9.855  10.950   3.964  0.4993  0.2523  0.4040
  615MOL0     C84771   9.950  11.055   4.016  0.3146  0.8190  0.4743
  615MOL0     C84772  10.022  11.119   3.892  0.1723 -0.0727 -0.3034
  615MOL0     C84773  10.145  11.198   3.941 -0.5899 -0.3691  1.1719
  615MOL0     C84774  10.246  11.222   3.830 -0.6332  0.8967  0.5864
  615MOL0     C84775  10.369  11.289   3.880 -0.5496  0.0701 -0.3582
  615MOL0     C84776  10.461  11.189   3.953 -0.1244  0.2533 -1.3676
  615MOL0    Cl84777  10.590  11.287   4.032 -0.2959  0.3443 -0.3178
  615MOL0     C84778   9.661  11.016   4.245 -1.4559 -0.4483 -0.2543
  615MOL0     C84779   9.551  11.057   4.318 -0.0645  0.6881  0.2374
  615MOL0     O84780   9.293  11.202   4.354 -0.6843 -0.3150  0.0317
  615MOL0     C84781   9.118  11.040   4.623 -0.6541 -0.2643 -0.0230
  615MOL0     C84782   9.026  11.064   4.720  1.4042 -0.7436  0.5434
  615MOL0     N84783   8.410  10.952   4.840 -0.0233 -0.5262  0.4556
  615MOL0     N84784   8.292  10.924   4.822 -0.1355  0.7696  0.0329
  615MOL0     C84785   7.116  10.777   5.402 -0.5221 -0.2192 -0.6368
  615MOL0     C84786   6.981  10.771   5.393 -0.4090  0.2982  0.6658
  615MOL0     C84787   6.541  10.738   5.245  0.0125  0.5220 -0.3206
  615MOL0     C84788   6.478  10.753   5.123 -0.1788 -0.5558  0.1048
  615MOL0     C84789   6.344  10.797   5.127  0.6697 -1.1056 -0.7357
  615MOL0     C84790   6.273  10.840   5.249  0.5705 -0.0649  0.2619
  615MOL0     O84791   6.144  10.888   5.234  0.5138 -0.6261  0.6658
  615MOL0     C84792   6.134  11.015   5.170  0.1341 -0.0334 -0.2034
  615MOL0     C84793   5.990  11.073   5.200 -0.4379 -0.6859  0.4016
  615MOL0     C84794   5.953  11.072   5.348  0.5213 -0.2029 -0.8480
  615MOL0     C84795   5.803  11.104   5.381 -0.3542  0.0838  0.2006
  615MOL0     C84796   5.766  11.227   5.305  0.1187 -0.7223  0.1660
  615MOL0     C84797   5.733  11.315   5.224 -0.0237  0.5280  0.6548
  615MOL0     C84798   6.342  10.816   5.368  0.2464  0.7101  0.2426
  615MOL0     C84799   6.475  10.772   5.366 -0.1903  0.1440 -0.6540
  615MOL0     C84800   6.555  10.772   5.494 -1.0642 -0.8247 -0.1383
  615MOL0     H84801   6.939  10.794   5.055  3.5596 -0.2960 -0.5723
  615MOL0     H84802   7.191  10.756   5.078  0.3650 -3.4349  2.1196
  615MOL0     H84803   7.410  10.882   5.139  0.0332  0.8073  0.3858
  615MOL0     H84804   7.408  10.714   5.121  2.9078  3.0356 -3.6657
  615MOL0     H84805   7.561  10.853   5.335  1.8991  0.2494  0.2804
  615MOL0     H84806   7.581  10.683   5.297  0.7714  0.5036  0.8987
  615MOL0     H84807   7.626  10.769   5.052  0.1754 -1.1094  1.4139
  615MOL0     H84808   7.660  10.924   5.114  0.8027  0.1411 -1.0788
  615MOL0     H84809   7.821  10.795   5.296  3.1219 -0.8189 -0.3289
  615MOL0     H84810   7.795  10.656   5.198 -0.6569 -0.1973  1.7249
  615MOL0     H84811   7.867  10.794   5.001  1.2952 -1.1231  0.4020
  615MOL0     H84812   7.986  10.754   5.126 -1.8699 -2.5639  2.8172
  615MOL0     H84813   7.859  11.017   5.064 -0.5856 -0.3481 -0.1855
  615MOL0     H84814   7.927  10.997   5.227 -0.6692 -1.4932  1.2240
  615MOL0     H84815   8.139  10.920   5.107  2.8282  0.9137 -1.3684
  615MOL0     H84816   8.087  11.096   5.115  0.2465  1.2233 -2.7141
  615MOL0     H84817   8.043  10.921   4.878  0.3436  0.7198 -1.8709
  615MOL0     H84818   8.028  11.097   4.871 -1.0279 -0.0791  0.3288
  615MOL0     H84819   8.273  11.234   4.934 -3.4220 -2.0291  4.3278
  615MOL0     H84820   8.641  11.108   4.903  0.3258 -0.8127 -1.9546
  615MOL0     H84821   8.550  11.251   4.974  0.6223  1.0266 -0.7037
  615MOL0     H84822   8.638  11.173   4.697  0.0101 -1.4712  0.6164
  615MOL0     H84823   8.520  11.293   4.697 -0.5003  1.5378  2.2632
  615MOL0     H84824   8.750  11.376   4.669 -1.0847  1.1034 -0.3278
  615MOL0     H84825   8.640  11.443   4.788  0.7200  0.8475  0.9558
  615MOL0     H84826   8.878  11.420   4.888 -2.6822  1.6787  0.4817
  615MOL0     H84827   8.763  11.326   4.966 -0.2306  2.4194  0.2422
  615MOL0     H84828   9.017  11.398   4.713  3.7235 -0.0242 -0.6659
  615MOL0     H84829   9.294  11.389   4.517  0.7388 -1.1259  0.4679
  615MOL0     H84830   9.159  11.506   4.568  1.1909  0.6251  0.6126
  615MOL0     H84831   9.169  11.417   4.413  3.9769 -1.5103  0.3539
  615MOL0     H84832   9.437  10.756   4.418 -0.2697 -0.0828 -0.1691
  615MOL0     H84833   9.672  10.706   4.354 -0.0807  0.9861  1.9759
  615MOL0     H84834   9.964  10.787   4.063  0.2269 -2.5064  1.9328
  615MOL0     H84835   9.808  10.734   4.024 -1.8641  0.2623  1.6676
  615MOL0     H84836   9.889  10.904   3.871  0.8346 -1.7634  1.4619
  615MOL0     H84837   9.750  10.982   3.972  0.4688  0.0124  0.9909
  615MOL0     H84838  10.024  11.008   4.081  0.3486 -2.0396 -1.4502
  615MOL0     H84839   9.894  11.129   4.073 -1.3308  0.9494 -1.2348
  615MOL0     H84840   9.946  11.169   3.831 -0.2759 -2.2505 -1.6576
  615MOL0     H84841  10.064  11.036   3.835  0.3542 -0.0544 -0.1950
  615MOL0     H84842  10.119  11.290   3.996 -0.0559  1.0439 -0.8211
  615MOL0     H84843  10.202  11.131   4.005  0.8997 -0.6443 -0.3746
  615MOL0     H84844  10.196  11.283   3.755  0.5653 -0.2069 -1.2083
  615MOL0     H84845  10.292  11.134   3.783 -0.4826 -0.5340  3.2231
  615MOL0     H84846  10.346  11.383   3.931  2.9903  1.3638 -0.8350
  615MOL0     H84847  10.423  11.328   3.793  0.8362 -1.6816 -0.3554
  615MOL0     H84848  10.501  11.116   3.882 -1.3885 -1.6655 -0.2156
  615MOL0     H84849  10.408  11.136   4.033  1.0775  1.0182 -0.0196
  615MOL0     H84850   9.719  11.097   4.201  0.5023 -2.0190 -0.7093
  615MOL0     H84851   9.534  11.163   4.334 -0.6374  0.5749  0.4188
  615MOL0     H84852   9.143  10.938   4.594 -0.0437  0.3067 -1.6219
  615MOL0     H84853   8.979  10.993   4.787 -0.6353  1.5829  1.7445
  615MOL0     H84854   7.168  10.774   5.497 -3.1716 -1.1476  0.8856
  615MOL0     H84855   6.923  10.762   5.485 -1.6640 -1.6501 -0.2563
  615MOL0     H84856   6.534  10.748   5.030 -1.5713 -0.9724 -0.7293
  615MOL0     H84857   6.292  10.824   5.036  1.8916  2.3921 -0.5758
  615MOL0     H84858   6.199  11.091   5.214 -0.0932  1.0860 -1.6994
  615MOL0     H84859   6.164  10.999   5.066 -1.8838 -2.3841 -0.5302
  615MOL0     H84860   5.913  11.022   5.141 -0.4906  1.0334 -1.1180
  615MOL0     H84861   5.986  11.178   5.168  0.9405 -0.6099  0.4353
  615MOL0     H84862   5.965  10.971   5.389  1.5482  1.1026  2.3967
  615MOL0     H84863   6.015  11.131   5.416  0.2075 -1.4801  0.6186
  615MOL0     H84864   5.805  11.110   5.490  1.6739 -0.5640  0.2491
  615MOL0     H84865   5.741  11.018   5.354 -1.6921  1.1564 -0.2641
  615MOL0     H84866   5.675  11.394   5.182 -4.0750 -1.7230  1.5234
  615MOL0     H84867   6.298  10.844   5.463  0.6868  0.0169  0.6554
  615MOL0     H84868   6.613  10.864   5.502 -0.4410 -0.9878 -2.1188
  615MOL0     H84869   6.486  10.744   5.575 -1.2345  0.1455  0.0625
  615MOL0     H84870   6.633  10.697   5.480  1.3378  0.9947  2.3876
  616MOL0     O84871   7.543   5.400   7.914 -0.6867 -0.3866  0.2321
  616MOL0     C84872   7.522   5.522   7.907  0.4036 -0.0418 -0.8296
  616MOL0     O84873   7.517   5.594   7.789  0.0097  0.0187  0.0428
  616MOL0     C84874   7.557   5.526   7.676  0.2555  1.7237 -0.0265
  616MOL0     C84875   7.464   5.470   7.589 -0.4705 -0.5716 -0.3692
  616MOL0     C84876   7.496   5.390   7.489  0.2104 -1.1384  0.0007
  616MOL0     C84877   7.631   5.370   7.450 -1.0804  0.3186  0.1732
  616MOL0     O84878   7.664   5.279   7.353 -0.1307  0.2364 -0.5162
  616MOL0     C84879   7.672   5.349   7.228 -0.9170  0.1446 -0.6439
  616MOL0     C84880   7.820   5.392   7.207 -1.3603 -0.4595 -0.0318
  616MOL0     C84881   7.915   5.270   7.191 -0.1147  0.7763 -0.3286
  616MOL0     C84882   8.006   5.276   7.063 -0.1311  0.4701  0.6203
  616MOL0     C84883   7.928   5.276   6.926 -0.8832  0.0594  0.3401
  616MOL0     C84884   8.009   5.206   6.813  0.5897  0.6961 -0.4022
  616MOL0     C84885   7.952   5.237   6.681 -0.8989  0.7161  1.2113
  616MOL0     C84886   8.058   5.193   6.573  1.1112  0.6247 -0.3911
  616MOL0     N84887   8.087   5.044   6.550 -0.3661 -0.2522  0.3626
  616MOL0     C84888   8.135   4.949   6.633 -0.4861 -0.6115  0.1743
  616MOL0     C84889   8.140   4.829   6.567 -0.5120  1.1134  0.4442
  616MOL0     C84890   8.163   4.682   6.616 -0.5440 -0.3597  1.6191
  616MOL0     C84891   8.131   4.671   6.776 -0.2654  0.1728  0.7876
  616MOL0     C84892   8.196   4.545   6.837 -0.1738  0.3738 -0.8943
  616MOL0     C84893   8.104   4.449   6.914  0.5401 -0.5661  0.1527
  616MOL0     O84894   8.117   4.450   7.058 -0.9121  0.1054 -0.6122
  616MOL0     C84895   8.237   4.415   7.112 -0.4283 -0.2179 -1.2288
  616MOL0     C84896   8.254   4.467   7.246 -0.5231 -0.4482  0.5353
  616MOL0     C84897   8.363   4.437   7.324 -0.4091  1.1998  0.4649
  616MOL0     C84898   8.364   4.495   7.460 -0.1433  0.3433  0.2652
  616MOL0     C84899   8.468   4.359   7.267 -0.6240  0.5531 -0.1668
  616MOL0     C84900   8.598   4.325   7.333  0.9114  0.3249  0.7074
  616MOL0     O84901   8.598   4.339   7.467  0.3856 -0.1225 -0.1545
  616MOL0     C84902   8.716   4.329   7.535  0.0227 -0.2624  0.2430
  616MOL0     C84903   8.797   4.219   7.516 -0.0425 -0.1194 -0.0550
  616MOL0     C84904   8.918   4.215   7.587 -0.1560 -1.5603  0.4133
  616MOL0     C84905   8.959   4.313   7.687 -0.4251  0.1926  0.3518
  616MOL0     O84906   9.081   4.320   7.757 -0.6985  0.4719  0.0071
  616MOL0     C84907   9.149   4.197   7.767 -0.6728 -0.2708 -0.5032
  616MOL0     C84908   9.300   4.196   7.742  0.3834  0.2847 -0.8270
  616MOL0     C84909   9.383   4.293   7.836  0.5354 -1.1342  0.5450
  616MOL0     C84910   9.394   4.434   7.768  1.0870 -0.1564 -0.3401
  616MOL0     C84911   9.482   4.510   7.858  0.8333  0.9077  0.9468
  616MOL0     C84912   9.527   4.636   7.794 -0.1732  0.9870  1.1976
  616MOL0     C84913   9.617   4.617   7.679  0.1982  0.6318  0.3340
  616MOL0     C84914   9.707   4.732   7.648  0.7165  0.1610 -0.9925
  616MOL0    Cl84915   9.824   4.779   7.773 -0.0164 -0.0704 -0.2510
  616MOL0     C84916   8.875   4.417   7.695  0.0466 -0.6426  0.2167
  616MOL0     C84917   8.754   4.433   7.626 -0.1170 -0.5522 -0.9583
  616MOL0     O84918   8.695   4.301   7.264 -0.6519  0.4122  0.7297
  616MOL0     C84919   8.447   4.316   7.129 -0.9883  0.4191 -0.7583
  616MOL0     C84920   8.341   4.348   7.050 -0.4926  0.1873 -0.1007
  616MOL0     N84921   8.091   4.858   6.439  1.0084 -0.0415 -1.0188
  616MOL0     N84922   8.064   4.982   6.427 -0.4069 -0.1854 -0.6839
  616MOL0     C84923   7.732   5.443   7.523  0.3399  0.4367 -0.1261
  616MOL0     C84924   7.687   5.512   7.641 -0.0033  0.6845 -0.5395
  616MOL0     C84925   7.506   5.593   8.039  0.8142 -0.1587  0.0652
  616MOL0     C84926   7.495   5.735   8.024 -0.3443  1.3762 -0.4893
  616MOL0     C84927   7.478   5.815   8.131  0.4589 -0.3617 -1.4909
  616MOL0     C84928   7.484   5.766   8.266  0.3356  0.3356  0.1238
  616MOL0     O84929   7.492   5.839   8.386 -0.0642 -0.7228  0.0894
  616MOL0     C84930   7.509   5.985   8.377 -0.0982  0.9618 -0.1978
  616MOL0     C84931   7.380   6.041   8.327  0.0196  0.3590  0.3093
  616MOL0     C84932   7.283   6.047   8.446  0.1468 -0.3147  0.1388
  616MOL0     C84933   7.284   6.175   8.535 -0.1984  0.3271 -0.1762
  616MOL0     C84934   7.248   6.295   8.457 -0.1809  0.2493 -0.3918
  616MOL0     C84935   7.212   6.388   8.391 -0.7585 -0.8880  0.1740
  616MOL0     C84936   7.505   5.630   8.281  0.3503 -0.8380 -0.9139
  616MOL0     C84937   7.512   5.542   8.175 -0.2489 -0.2277  0.5046
  616MOL0     C84938   7.503   5.389   8.199 -0.2390 -0.4181  0.5625
  616MOL0     H84939   7.362   5.475   7.624 -0.0495  2.1432  0.7134
  616MOL0     H84940   7.407   5.339   7.456 -1.7056  2.3031 -0.6626
  616MOL0     H84941   7.616   5.442   7.212 -0.9963  0.1697 -0.2270
  616MOL0     H84942   7.639   5.275   7.155 -0.1160 -1.6400  0.7289
  616MOL0     H84943   7.831   5.446   7.113  0.2326 -1.6112 -0.5507
  616MOL0     H84944   7.858   5.450   7.292  0.1878 -1.5791  0.0822
  616MOL0     H84945   7.979   5.257   7.279 -3.6701 -0.0487  2.3683
  616MOL0     H84946   7.854   5.180   7.183 -1.5108  1.4570  1.8579
  616MOL0     H84947   8.078   5.358   7.071  1.4082 -0.9342  1.6189
  616MOL0     H84948   8.067   5.186   7.055  3.2734  2.6573 -0.2293
  616MOL0     H84949   7.900   5.377   6.894 -0.2100 -0.0010 -0.4736
  616MOL0     H84950   7.830   5.228   6.931 -0.8164 -0.0026  1.2026
  616MOL0     H84951   8.097   5.271   6.815  1.5346 -0.5661  0.4561
  616MOL0     H84952   8.034   5.100   6.822 -1.0071  0.0984 -2.4272
  616MOL0     H84953   7.922   5.342   6.673 -0.4299  0.7571 -0.3012
  616MOL0     H84954   7.855   5.190   6.661 -1.6917  1.3506  3.3223
  616MOL0     H84955   8.037   5.240   6.477  1.8784  0.4987 -0.6258
  616MOL0     H84956   8.152   5.243   6.600  2.0069  0.2972 -2.6800
  616MOL0     H84957   8.167   4.966   6.735  0.1872 -0.1183 -0.1154
  616MOL0     H84958   8.270   4.657   6.615  0.4898  3.2433 -1.6703
  616MOL0     H84959   8.110   4.606   6.557 -2.2136 -1.5445  4.4556
  616MOL0     H84960   8.181   4.757   6.822  0.7910  0.1648 -0.2811
  616MOL0     H84961   8.025   4.685   6.796 -0.8386  1.0572 -2.3170
  616MOL0     H84962   8.233   4.492   6.748  3.5606  2.1837 -0.6249
  616MOL0     H84963   8.285   4.565   6.898 -0.5468  2.5152 -1.0089
  616MOL0     H84964   8.001   4.466   6.882  0.4620 -1.2061  0.0569
  616MOL0     H84965   8.120   4.344   6.889 -2.7572 -1.4025  1.0905
  616MOL0     H84966   8.174   4.528   7.286  0.8927 -0.1270  3.0987
  616MOL0     H84967   8.276   4.558   7.476 -0.3165  0.1219  0.1825
  616MOL0     H84968   8.456   4.553   7.472 -0.4290  1.5944 -2.5935
  616MOL0     H84969   8.371   4.412   7.530  1.2216  1.1554  1.1442
  616MOL0     H84970   8.776   4.142   7.442 -1.9410  1.2279 -0.9870
  616MOL0     H84971   8.970   4.121   7.572  3.3670  0.2452  0.2665
  616MOL0     H84972   9.132   4.169   7.872 -1.4600 -0.6150 -0.7147
  616MOL0     H84973   9.108   4.114   7.709  2.1618 -0.5835 -2.2238
  616MOL0     H84974   9.336   4.098   7.774  0.3308  0.8223  0.9834
  616MOL0     H84975   9.329   4.220   7.639 -1.9009  3.2180 -0.9297
  616MOL0     H84976   9.484   4.254   7.847  0.4199 -1.0127  2.3462
  616MOL0     H84977   9.338   4.297   7.936 -3.9525  3.3583 -1.2356
  616MOL0     H84978   9.302   4.491   7.751  1.7901  0.9390 -0.5496
  616MOL0     H84979   9.445   4.426   7.671 -0.2640 -1.5668 -0.9697
  616MOL0     H84980   9.424   4.523   7.950 -0.8240 -1.2956  0.2968
  616MOL0     H84981   9.574   4.453   7.874  0.4747 -0.9297 -2.5382
  616MOL0     H84982   9.577   4.692   7.874 -0.5103  0.5481  1.7188
  616MOL0     H84983   9.433   4.683   7.764 -1.0906 -1.6223 -0.2385
  616MOL0     H84984   9.550   4.599   7.594 -1.4494  1.7933  1.3265
  616MOL0     H84985   9.676   4.526   7.695 -1.2037 -0.1017  1.7218
  616MOL0     H84986   9.649   4.815   7.607  2.1297  0.8388 -1.7129
  616MOL0     H84987   9.773   4.694   7.568  3.0965 -3.1380  2.1837
  616MOL0     H84988   8.915   4.482   7.773  0.5731 -0.7777  0.0622
  616MOL0     H84989   8.678   4.508   7.644 -3.8998 -4.3119  0.7887
  616MOL0     H84990   8.533   4.258   7.097 -0.3829 -0.8262  2.6791
  616MOL0     H84991   8.337   4.305   6.950  1.3504  1.7131 -0.8932
  616MOL0     H84992   7.838   5.433   7.504 -0.1267  0.3093 -3.1926
  616MOL0     H84993   7.758   5.555   7.710 -1.6674  1.2537  0.9014
  616MOL0     H84994   7.488   5.785   7.928 -1.1234  1.7183 -0.2579
  616MOL0     H84995   7.466   5.920   8.106 -2.2854  0.5068  2.4912
  616MOL0     H84996   7.514   6.027   8.478  2.1355 -1.2561  0.7145
  616MOL0     H84997   7.594   6.008   8.311  1.6297  0.0177  1.6036
  616MOL0     H84998   7.332   5.987   8.245 -2.1688  2.6372 -0.0525
  616MOL0     H84999   7.405   6.142   8.293 -1.4529  1.6986  2.9059
  616MOL0     H85000   7.187   6.049   8.394 -0.2959  3.1335  0.8465
  616MOL0     H85001   7.282   5.958   8.510 -1.0752 -1.7578 -1.7572
  616MOL0     H85002   7.388   6.182   8.568  1.6826 -2.0646 -4.8150
  616MOL0     H85003   7.208   6.157   8.612  0.8638  0.2184  0.8841
  616MOL0     H85004   7.182   6.475   8.335  1.5104  1.2482  2.0179
  616MOL0     H85005   7.505   5.591   8.382  2.2610  1.3239 -0.0045
  616MOL0     H85006   7.585   5.327   8.163 -0.7560 -2.3067  2.4647
  616MOL0     H85007   7.496   5.369   8.306  2.5791  2.2953  1.4136
  616MOL0     H85008   7.415   5.352   8.147  0.9461  1.3280 -3.0079
  617MOL0     O85009   2.071   2.004   1.166 -0.0601  0.4650 -0.3312
  617MOL0     C85010   2.040   1.940   1.065  0.1843 -0.0585  0.3022
  617MOL0     O85011   1.950   1.846   1.060  0.5471  0.5121  0.6807
  617MOL0     C85012   1.879   1.822   1.175 -0.2312  1.4703  0.2452
  617MOL0     C85013   1.775   1.900   1.211  0.0312 -0.1420 -1.1970
  617MOL0     C85014   1.694   1.862   1.317  0.0482  0.1336 -0.3019
  617MOL0     C85015   1.710   1.742   1.391  0.4389  0.5295  0.5082
  617MOL0     O85016   1.633   1.711   1.501 -0.4649 -0.2690  0.2014
  617MOL0     C85017   1.570   1.579   1.505 -0.3882  1.0225  1.0216
  617MOL0     C85018   1.488   1.543   1.622 -0.4106 -0.5478 -0.5124
  617MOL0     C85019   1.570   1.532   1.754  0.2520 -0.0056 -0.1862
  617MOL0     C85020   1.508   1.434   1.858  0.1822  0.4305  0.3942
  617MOL0     C85021   1.580   1.455   1.991 -0.5834  0.4373  0.8071
  617MOL0     C85022   1.509   1.369   2.096 -0.1372 -0.6213  0.5620
  617MOL0     C85023   1.583   1.372   2.228 -0.7377  0.9273 -0.9596
  617MOL0     C85024   1.520   1.283   2.333  0.3431  0.0204 -0.2672
  617MOL0     N85025   1.564   1.292   2.470  0.4801  0.2205 -0.0354
  617MOL0     C85026   1.515   1.356   2.578 -0.1186  0.2276 -0.3276
  617MOL0     C85027   1.601   1.308   2.676  0.2294 -0.7611 -0.7506
  617MOL0     C85028   1.592   1.357   2.821 -0.1188 -0.1609 -0.3082
  617MOL0     C85029   1.571   1.250   2.930 -1.0582  0.5632  0.4013
  617MOL0     C85030   1.585   1.303   3.076 -0.0605 -0.5600  0.3662
  617MOL0     C85031   1.482   1.402   3.112  0.9392 -0.4121 -0.2024
  617MOL0     O85032   1.456   1.418   3.252 -0.4192  0.1263 -0.2850
  617MOL0     C85033   1.377   1.323   3.312  0.5604 -1.5856  0.0655
  617MOL0     C85034   1.248   1.305   3.277 -1.1964 -0.1421  0.2248
  617MOL0     C85035   1.164   1.217   3.349  0.5631  0.4955  0.4059
  617MOL0     C85036   1.024   1.195   3.293  0.1220 -0.8884  0.6131
  617MOL0     C85037   1.213   1.127   3.447  0.0724 -0.2344  0.2843
  617MOL0     C85038   1.133   1.013   3.512  0.1983 -0.5677 -0.5404
  617MOL0     O85039   1.004   0.980   3.469  0.3556 -0.3998 -0.0676
  617MOL0     C85040   0.952   0.857   3.488  0.2251 -0.5461 -0.4547
  617MOL0     C85041   0.871   0.810   3.385 -0.3462 -0.2744  0.3001
  617MOL0     C85042   0.797   0.693   3.394 -1.0707 -1.0036  0.0033
  617MOL0     C85043   0.816   0.621   3.505  0.7926 -0.1950 -0.3349
  617MOL0     O85044   0.746   0.507   3.521 -0.0019  0.0289  0.0967
  617MOL0     C85045   0.837   0.389   3.490  1.2935 -1.0963 -0.0943
  617MOL0     C85046   0.762   0.262   3.494 -1.0469  1.1009  0.4658
  617MOL0     C85047   0.681   0.241   3.626 -0.3369 -0.2217  0.6381
  617MOL0     C85048   0.604   0.111   3.599  0.1473  0.1425 -0.2163
  617MOL0     C85049   0.485   0.080   3.708 -0.8553  0.1663 -0.5355
  617MOL0     C85050   0.435  -0.068   3.711 -1.2448 -0.3178 -0.7659
  617MOL0     C85051   0.366  -0.096   3.845  0.2677  0.4203 -0.4771
  617MOL0     C85052   0.283  -0.219   3.843 -0.3887  1.5648  0.0885
  617MOL0    Cl85053   0.404  -0.355   3.866  0.0814 -0.1956  0.2184
  617MOL0     C85054   0.885   0.667   3.618  0.4388  0.1327  0.7245
  617MOL0     C85055   0.951   0.790   3.609  0.2880  1.0678 -0.0790
  617MOL0     O85056   1.209   0.938   3.578  0.2695 -0.0681  0.0334
  617MOL0     C85057   1.352   1.148   3.474 -0.2270 -0.1558 -0.4125
  617MOL0     C85058   1.437   1.248   3.414 -0.1079 -0.8149  0.7642
  617MOL0     N85059   1.692   1.215   2.632 -0.2912  0.5537  0.2600
  617MOL0     N85060   1.672   1.220   2.496 -0.6036  0.5636  0.3000
  617MOL0     C85061   1.811   1.662   1.348 -0.1416 -0.1519  0.7956
  617MOL0     C85062   1.897   1.698   1.243  0.0479 -0.0071 -0.3914
  617MOL0     C85063   2.117   1.964   0.942  0.4795 -0.2804 -0.0633
  617MOL0     C85064   2.139   1.848   0.861  1.0260 -0.0537  0.2562
  617MOL0     C85065   2.213   1.871   0.748  0.0989 -0.1654 -1.1736
  617MOL0     C85066   2.268   1.992   0.718  0.6260 -0.6705  0.1714
  617MOL0     O85067   2.347   1.993   0.609  0.3072  0.6765  0.5567
  617MOL0     C85068   2.285   2.066   0.506 -0.0917 -0.5045  0.5225
  617MOL0     C85069   2.343   2.030   0.369  0.3085 -1.2078 -0.4218
  617MOL0     C85070   2.495   2.077   0.361  0.1760  0.4969 -0.6235
  617MOL0     C85071   2.572   2.007   0.252 -0.8066  0.4169  0.1527
  617MOL0     C85072   2.524   2.057   0.128  0.2606 -0.2761 -0.2443
  617MOL0     C85073   2.480   2.095   0.020  0.1039  0.7706 -0.2901
  617MOL0     C85074   2.254   2.101   0.796 -0.4130 -0.0566 -0.1299
  617MOL0     C85075   2.174   2.084   0.908  0.4932 -0.5783 -0.5851
  617MOL0     C85076   2.133   2.215   0.985 -0.8326  0.4469  0.0411
  617MOL0     H85077   1.743   1.991   1.162 -1.1198 -0.1404 -0.4685
  617MOL0     H85078   1.614   1.933   1.336 -0.8688 -0.7629 -0.7220
  617MOL0     H85079   1.644   1.498   1.514 -3.0323 -1.4187  2.2308
  617MOL0     H85080   1.509   1.570   1.415  0.2652  0.0617  0.6574
  617MOL0     H85081   1.403   1.610   1.638  0.1378  0.0633 -0.0601
  617MOL0     H85082   1.444   1.446   1.598 -1.3503 -0.3795  0.4510
  617MOL0     H85083   1.669   1.492   1.731  1.5261  2.2566  0.9764
  617MOL0     H85084   1.596   1.631   1.794  0.4377  0.3376 -1.1325
  617MOL0     H85085   1.403   1.463   1.870 -0.2608 -0.6247 -0.7591
  617MOL0     H85086   1.502   1.333   1.817  0.7430  0.4331  0.2983
  617MOL0     H85087   1.597   1.559   2.023 -0.8475  0.9038 -0.5355
  617MOL0     H85088   1.683   1.418   1.982 -0.7641  0.1783 -0.2228
  617MOL0     H85089   1.404   1.397   2.108 -0.6135 -2.5624  1.1879
  617MOL0     H85090   1.516   1.267   2.057  1.5377  0.2584 -1.6868
  617MOL0     H85091   1.574   1.473   2.268 -2.5292 -0.0520  1.3247
  617MOL0     H85092   1.688   1.348   2.210 -0.3398  2.2481 -0.5266
  617MOL0     H85093   1.419   1.323   2.334  0.1394 -0.4860  0.5400
  617MOL0     H85094   1.517   1.178   2.302  2.7895  0.4839 -2.4290
  617MOL0     H85095   1.437   1.430   2.598  0.2578  0.2709  1.0863
  617MOL0     H85096   1.503   1.420   2.830 -2.3029 -3.1103  0.7120
  617MOL0     H85097   1.679   1.417   2.849  0.4262  0.2549 -2.7049
  617MOL0     H85098   1.481   1.192   2.909  1.0956 -2.2371 -2.0170
  617MOL0     H85099   1.657   1.184   2.916 -2.5420 -1.4200  0.2039
  617MOL0     H85100   1.577   1.222   3.149  0.2544 -0.0442  0.9872
  617MOL0     H85101   1.686   1.345   3.087 -0.2396  0.3819 -1.3008
  617MOL0     H85102   1.509   1.497   3.064 -2.4185 -0.1436 -1.8915
  617MOL0     H85103   1.386   1.376   3.066 -1.1496  3.6501  1.2971
  617MOL0     H85104   1.206   1.351   3.189 -0.9813 -0.5217 -0.0808
  617MOL0     H85105   1.026   1.093   3.252  0.0431 -1.5290  2.1511
  617MOL0     H85106   0.997   1.263   3.212  0.7007  0.1624  1.2879
  617MOL0     H85107   0.945   1.202   3.367  1.7259 -0.4153  2.3610
  617MOL0     H85108   0.866   0.865   3.291 -0.9008  0.1102  0.5458
  617MOL0     H85109   0.743   0.645   3.313 -1.0399  0.2001 -0.7596
  617MOL0     H85110   0.859   0.403   3.383 -1.0205  1.5798 -0.3167
  617MOL0     H85111   0.928   0.402   3.549  0.0999  1.0640  1.3742
  617MOL0     H85112   0.691   0.260   3.410 -0.1981 -1.3916 -0.2750
  617MOL0     H85113   0.826   0.175   3.477 -2.1943  0.3016  0.0918
  617MOL0     H85114   0.608   0.313   3.663 -1.1284 -0.2186 -0.8618
  617MOL0     H85115   0.756   0.214   3.701  0.1075 -2.0150 -0.3819
  617MOL0     H85116   0.670   0.024   3.599 -0.3263 -0.2235 -0.1534
  617MOL0     H85117   0.554   0.119   3.502 -3.1877 -2.2688  1.0984
  617MOL0     H85118   0.528   0.094   3.807  0.6015 -4.6658 -0.2066
  617MOL0     H85119   0.406   0.154   3.693  0.3467  2.2100  2.2712
  617MOL0     H85120   0.531  -0.119   3.700  0.5593  2.3448  1.4287
  617MOL0     H85121   0.366  -0.087   3.628 -1.2831 -0.8082 -0.6273
  617MOL0     H85122   0.298  -0.016   3.875 -0.6251 -1.0726  1.7186
  617MOL0     H85123   0.444  -0.101   3.922  0.2049 -0.1738 -0.4429
  617MOL0     H85124   0.224  -0.224   3.751  1.3395 -0.9095 -1.0133
  617MOL0     H85125   0.217  -0.221   3.929 -2.9344 -0.3852 -1.7420
  617MOL0     H85126   0.908   0.625   3.715 -3.3782  1.1887  2.2786
  617MOL0     H85127   1.015   0.825   3.689  0.8392  1.5938 -0.7469
  617MOL0     H85128   1.390   1.090   3.558 -1.7492  2.4733  2.3159
  617MOL0     H85129   1.543   1.269   3.429 -0.5790  2.2856  0.4675
  617MOL0     H85130   1.829   1.573   1.408 -0.4595 -0.2072  0.8074
  617MOL0     H85131   1.978   1.630   1.220  0.7886  1.1181 -1.2611
  617MOL0     H85132   2.096   1.755   0.896 -1.5337  0.3263 -1.5749
  617MOL0     H85133   2.246   1.781   0.697  0.1367 -1.4138  0.8916
  617MOL0     H85134   2.175   2.064   0.512 -0.1705  1.1464  0.3261
  617MOL0     H85135   2.313   2.171   0.521  1.6211 -0.8488 -0.0717
  617MOL0     H85136   2.304   2.092   0.288  2.9581  0.9114 -0.2241
  617MOL0     H85137   2.333   1.924   0.344 -2.2703 -1.9726  3.1108
  617MOL0     H85138   2.505   2.184   0.337  4.2156  0.1649 -1.0091
  617MOL0     H85139   2.544   2.067   0.458  1.2794 -0.3856 -1.2552
  617MOL0     H85140   2.548   1.900   0.257 -2.4727  0.7258 -0.6804
  617MOL0     H85141   2.679   2.026   0.264 -0.5176 -0.5009 -0.8095
  617MOL0     H85142   2.433   2.141  -0.064  0.6410  3.1876  0.6389
  617MOL0     H85143   2.293   2.196   0.762 -2.2766 -0.1069 -2.6824
  617MOL0     H85144   2.182   2.226   1.082 -2.4204  4.2033  0.5837
  617MOL0     H85145   2.148   2.290   0.908  4.5401 -0.3668 -0.1056
  617MOL0     H85146   2.025   2.227   0.996 -0.7811  1.4075 -0.4372
  618MOL0     O85147   8.540   5.623   6.685 -0.6713 -0.1489  0.5941
  618MOL0     C85148   8.519   5.516   6.743 -0.4878  0.0265 -0.1173
  618MOL0     O85149   8.526   5.505   6.885  0.4006 -0.0317 -0.0733
  618MOL0     C85150   8.509   5.623   6.956  0.3534  0.4456  1.2914
  618MOL0     C85151   8.395   5.711   6.931 -0.6396  0.7997  0.2742
  618MOL0     C85152   8.393   5.828   7.001 -0.6236 -0.4879  0.7404
  618MOL0     C85153   8.490   5.864   7.098  0.6623 -0.7752  0.6677
  618MOL0     O85154   8.471   5.987   7.144  0.4499  0.4900 -0.1723
  618MOL0     C85155   8.584   6.074   7.170  0.2373  0.5061  0.0897
  618MOL0     C85156   8.558   6.126   7.313  0.2409 -0.2707 -0.0971
  618MOL0     C85157   8.652   6.233   7.372 -0.4547 -0.3756  0.4014
  618MOL0     C85158   8.746   6.184   7.489  0.1094  0.7183  0.6133
  618MOL0     C85159   8.835   6.286   7.553  0.2430  0.2860  0.3662
  618MOL0     C85160   8.943   6.349   7.457  0.5881 -0.7132 -1.0390
  618MOL0     C85161   9.037   6.462   7.530  0.1789  0.7234  0.7383
  618MOL0     C85162   9.119   6.537   7.422  0.2162 -0.8374  0.0547
  618MOL0     N85163   9.039   6.627   7.331 -0.0105 -1.1800 -0.3636
  618MOL0     C85164   8.980   6.741   7.364 -0.3730 -0.1740 -0.1104
  618MOL0     C85165   8.940   6.792   7.241  0.4437  0.7415 -0.1772
  618MOL0     C85166   8.848   6.914   7.200 -1.1643  0.1875  0.8911
  618MOL0     C85167   8.717   6.915   7.277  0.5448  0.8991  1.1682
  618MOL0     C85168   8.656   7.058   7.276 -0.0609 -0.5102  0.5415
  618MOL0     C85169   8.595   7.108   7.144  0.2371 -0.3272 -0.7159
  618MOL0     O85170   8.485   7.025   7.110 -0.3840 -1.0009 -0.5966
  618MOL0     C85171   8.436   7.046   6.981 -0.1962 -0.2500 -0.9166
  618MOL0     C85172   8.389   6.940   6.907 -0.2074  0.5756 -0.1318
  618MOL0     C85173   8.340   6.958   6.775 -0.5984  0.3621 -0.4726
  618MOL0     C85174   8.304   6.836   6.703 -0.1642 -1.0723 -0.0752
  618MOL0     C85175   8.327   7.092   6.723  0.0749 -0.5142 -0.0718
  618MOL0     C85176   8.269   7.128   6.585 -0.1795  0.2181 -0.0040
  618MOL0     O85177   8.192   7.033   6.528 -0.2981  0.2997 -0.7086
  618MOL0     C85178   8.175   7.019   6.393 -0.0512  0.7380 -0.7522
  618MOL0     C85179   8.247   7.077   6.288  0.2873  0.0938 -0.0922
  618MOL0     C85180   8.229   7.026   6.155  0.2744  0.1423  0.3996
  618MOL0     C85181   8.134   6.930   6.126 -0.8944  0.1656  0.0967
  618MOL0     O85182   8.104   6.893   5.992  0.5292  0.2538 -0.5580
  618MOL0     C85183   8.163   6.762   5.947 -0.4280  0.4874  0.4918
  618MOL0     C85184   8.118   6.732   5.794 -0.2655 -0.0245 -0.3287
  618MOL0     C85185   8.230   6.642   5.733 -0.3360 -0.0769  0.2960
  618MOL0     C85186   8.192   6.569   5.606  0.4217 -0.0970  0.7464
  618MOL0     C85187   8.307   6.485   5.548  0.0812 -0.3864 -0.0679
  618MOL0     C85188   8.414   6.575   5.477 -0.6508 -0.3325 -0.0632
  618MOL0     C85189   8.535   6.505   5.418 -0.2145 -0.1842  0.0575
  618MOL0     C85190   8.504   6.390   5.312 -0.8114 -0.3867  0.2751
  618MOL0    Cl85191   8.418   6.433   5.172  0.0751  0.3167  0.0999
  618MOL0     C85192   8.061   6.872   6.227 -0.7767  0.2858  0.2239
  618MOL0     C85193   8.082   6.918   6.362  0.0442  0.9148  0.2224
  618MOL0     O85194   8.313   7.234   6.534 -0.1254  0.0184  0.4072
  618MOL0     C85195   8.365   7.200   6.805 -0.4433 -0.5873  0.4609
  618MOL0     C85196   8.428   7.168   6.924  0.2564  0.2538 -0.1948
  618MOL0     N85197   8.987   6.714   7.142 -0.3024 -0.2453 -0.5625
  618MOL0     N85198   9.048   6.616   7.198  1.2994 -0.3766  0.2649
  618MOL0     C85199   8.587   5.771   7.131  0.0289  0.0515  0.1353
  618MOL0     C85200   8.596   5.649   7.057  0.2499 -0.5502 -0.7625
  618MOL0     C85201   8.503   5.388   6.660 -0.2449  0.0858  1.0244
  618MOL0     C85202   8.582   5.388   6.542  0.5633  0.0149  0.5260
  618MOL0     C85203   8.578   5.282   6.460 -0.5059  0.4938  0.1072
  618MOL0     C85204   8.517   5.162   6.496 -0.0271 -0.2022  0.7755
  618MOL0     O85205   8.537   5.063   6.402  0.3946  0.3419  0.0255
  618MOL0     C85206   8.460   4.943   6.401  0.5572  0.1984  0.2524
  618MOL0     C85207   8.511   4.834   6.301 -0.3738  0.2938 -0.3199
  618MOL0     C85208   8.497   4.879   6.157 -0.6004 -0.1578 -0.6252
  618MOL0     C85209   8.587   4.792   6.056  0.3043 -0.3166 -0.8721
  618MOL0     C85210   8.593   4.843   5.918  0.0543 -0.4038 -0.3563
  618MOL0     C85211   8.613   4.861   5.801 -0.4704  0.5792  0.2670
  618MOL0     C85212   8.448   5.151   6.617  0.3034 -0.5232  1.0785
  618MOL0     C85213   8.443   5.262   6.703 -0.1695 -1.3074 -0.2379
  618MOL0     C85214   8.398   5.240   6.837 -0.0487  0.1661 -0.4221
  618MOL0     H85215   8.334   5.687   6.845  0.7519  1.6233 -1.0029
  618MOL0     H85216   8.321   5.905   6.975 -0.5346 -1.2715 -2.2207
  618MOL0     H85217   8.577   6.157   7.098  2.2035  0.6625  0.0371
  618MOL0     H85218   8.673   6.011   7.169 -1.0228 -1.3342  0.0048
  618MOL0     H85219   8.457   6.167   7.320  0.3770 -0.1983  2.1726
  618MOL0     H85220   8.571   6.039   7.379  0.3926 -0.5323 -0.4693
  618MOL0     H85221   8.709   6.278   7.290  0.5102 -0.1888  1.1576
  618MOL0     H85222   8.586   6.312   7.408 -1.8905 -1.2354 -0.2490
  618MOL0     H85223   8.683   6.138   7.565  0.5118  0.1568  0.6149
  618MOL0     H85224   8.802   6.103   7.441 -0.8039 -0.5370  1.5985
  618MOL0     H85225   8.882   6.237   7.639 -1.5073 -2.8311 -0.2947
  618MOL0     H85226   8.770   6.370   7.576 -0.9376  0.4140 -2.8802
  618MOL0     H85227   8.999   6.270   7.405  0.4950 -0.3181 -1.7592
  618MOL0     H85228   8.889   6.401   7.377  2.9497  0.1667 -2.1501
  618MOL0     H85229   9.095   6.403   7.602  1.8502  1.2618 -0.1232
  618MOL0     H85230   8.972   6.529   7.587  0.5169  1.0125  0.7924
  618MOL0     H85231   9.202   6.595   7.465  1.5775 -0.4159 -2.8767
  618MOL0     H85232   9.165   6.463   7.356  0.8549 -0.4604  0.0654
  618MOL0     H85233   8.955   6.770   7.465 -1.6904 -4.8791  1.1802
  618MOL0     H85234   8.828   6.923   7.093  2.6415  2.2742  0.1781
  618MOL0     H85235   8.906   7.004   7.222  1.1005 -0.5099 -1.7025
  618MOL0     H85236   8.645   6.846   7.232  1.0394  2.7292 -2.8819
  618MOL0     H85237   8.746   6.889   7.379  0.7184  1.1987  1.1961
  618MOL0     H85238   8.583   7.069   7.357  0.0782 -0.3331  0.6427
  618MOL0     H85239   8.738   7.126   7.300  0.0370 -0.2227 -0.5575
  618MOL0     H85240   8.563   7.211   7.167 -3.5887 -0.0002 -5.6578
  618MOL0     H85241   8.668   7.103   7.063  0.1331 -0.6626 -0.7890
  618MOL0     H85242   8.398   6.836   6.938  1.0344  0.7970  0.3120
  618MOL0     H85243   8.353   6.831   6.605  0.1855 -1.8297  0.1344
  618MOL0     H85244   8.197   6.850   6.686 -0.0165  0.4629  0.0610
  618MOL0     H85245   8.317   6.744   6.760  4.3675 -0.5622  0.0533
  618MOL0     H85246   8.325   7.145   6.322 -0.0605  2.1716 -3.1116
  618MOL0     H85247   8.279   7.071   6.070 -0.2380 -2.5692 -1.4497
  618MOL0     H85248   8.269   6.787   5.940 -0.3069 -0.1844 -0.3203
  618MOL0     H85249   8.153   6.679   6.018 -1.5601 -2.9639 -3.2760
  618MOL0     H85250   8.018   6.690   5.780 -1.6047  3.1755 -1.4870
  618MOL0     H85251   8.126   6.825   5.737  0.0241 -0.3604 -0.8437
  618MOL0     H85252   8.260   6.567   5.807 -1.5461 -0.5393  0.3476
  618MOL0     H85253   8.321   6.699   5.713  0.0347 -0.8712 -0.3281
  618MOL0     H85254   8.155   6.642   5.533  1.0531  0.6812  1.1941
  618MOL0     H85255   8.109   6.500   5.624  1.4376 -1.8691 -1.0078
  618MOL0     H85256   8.348   6.423   5.628  0.2242 -2.6083 -1.7789
  618MOL0     H85257   8.254   6.426   5.473 -0.2441  2.5921 -2.3921
  618MOL0     H85258   8.448   6.658   5.540 -1.8320  0.7825 -0.8581
  618MOL0     H85259   8.362   6.630   5.399  1.9474  1.0460 -0.9668
  618MOL0     H85260   8.596   6.470   5.502 -0.5264  0.8231  0.7241
  618MOL0     H85261   8.598   6.569   5.355 -0.1170 -1.2203 -0.9271
  618MOL0     H85262   8.453   6.313   5.371 -1.4441  0.9077  1.4548
  618MOL0     H85263   8.603   6.349   5.287 -1.4174 -1.1761 -0.9158
  618MOL0     H85264   8.010   6.779   6.204  1.7947 -0.9455 -0.9547
  618MOL0     H85265   8.021   6.871   6.438 -6.0218  1.5674 -3.5120
  618MOL0     H85266   8.349   7.302   6.771 -0.3553 -0.2476  1.3985
  618MOL0     H85267   8.437   7.261   6.979 -1.1396  1.2070 -1.4963
  618MOL0     H85268   8.660   5.804   7.205 -0.7119  0.6758  0.6051
  618MOL0     H85269   8.681   5.586   7.079 -0.5879 -1.2766  0.5402
  618MOL0     H85270   8.633   5.474   6.500 -2.6084  1.4149 -0.7925
  618MOL0     H85271   8.619   5.284   6.360 -2.4801 -4.9793 -1.1715
  618MOL0     H85272   8.452   4.895   6.499 -4.4660 -0.5188 -0.2411
  618MOL0     H85273   8.362   4.966   6.358  1.3457 -1.5665 -2.7851
  618MOL0     H85274   8.458   4.739   6.314 -1.1186  0.6228 -0.8627
  618MOL0     H85275   8.618   4.818   6.308 -0.2962  1.1189  0.6908
  618MOL0     H85276   8.396   4.869   6.117 -1.6996  3.6595  0.7831
  618MOL0     H85277   8.521   4.985   6.144 -0.9647 -0.1881 -1.6252
  618MOL0     H85278   8.571   4.684   6.055  1.1323 -0.4645 -0.0521
  618MOL0     H85279   8.692   4.808   6.084  0.6641 -3.2637 -0.2975
  618MOL0     H85280   8.633   4.864   5.696 -3.2502 -2.2962 -0.4947
  618MOL0     H85281   8.405   5.061   6.658  0.7521 -1.1010  0.2997
  618MOL0     H85282   8.350   5.143   6.849 -2.0890  1.1758  0.0396
  618MOL0     H85283   8.471   5.252   6.918 -2.5113 -0.2852  2.0199
  618MOL0     H85284   8.320   5.307   6.874  1.6816  0.7768  2.4474
  619MOL0     O85285  10.215   5.849   4.841  0.7429 -0.0345 -0.4174
  619MOL0     C85286  10.334   5.834   4.822  0.0465 -0.3924 -1.1409
  619MOL0     O85287  10.425   5.826   4.921  0.4134 -0.0358  0.3306
  619MOL0     C85288  10.380   5.827   5.048  0.4129  0.0134 -0.3119
  619MOL0     C85289  10.352   5.708   5.111 -0.5006  0.1273  0.5710
  619MOL0     C85290  10.323   5.703   5.248 -0.4438 -0.4339 -1.1968
  619MOL0     C85291  10.337   5.824   5.320  0.1811 -0.2675  0.0644
  619MOL0     O85292  10.299   5.815   5.450  0.7563 -0.1100  0.1864
  619MOL0     C85293  10.387   5.752   5.537 -0.0757  0.7155  0.1249
  619MOL0     C85294  10.290   5.691   5.643  0.1057 -0.1138 -0.1513
  619MOL0     C85295  10.262   5.540   5.635 -0.1674 -0.1441  0.2735
  619MOL0     C85296  10.111   5.520   5.663  0.6007  0.0624 -0.1220
  619MOL0     C85297  10.034   5.529   5.537 -0.5251 -0.1385 -0.1559
  619MOL0     C85298   9.920   5.431   5.525  0.0130 -0.4734 -0.0091
  619MOL0     C85299   9.853   5.422   5.389  0.1606  0.3007 -0.6328
  619MOL0     C85300   9.931   5.320   5.302 -0.4759 -0.3644  0.5717
  619MOL0     N85301   9.916   5.177   5.331 -0.4592  0.0574 -0.3616
  619MOL0     C85302   9.831   5.109   5.413  0.0499 -0.6453 -0.4122
  619MOL0     C85303   9.857   4.980   5.393 -1.1073 -1.1967 -0.6105
  619MOL0     C85304   9.791   4.863   5.469  0.4395  0.5785  0.6013
  619MOL0     C85305   9.711   4.776   5.368  0.4157 -0.3996  0.2817
  619MOL0     C85306   9.593   4.861   5.312 -0.8315 -0.2468  0.1653
  619MOL0     C85307   9.501   4.779   5.221 -0.0573  0.1826 -0.0143
  619MOL0     O85308   9.565   4.749   5.097  0.7340  0.4709 -0.4615
  619MOL0     C85309   9.493   4.665   5.010 -0.0418 -0.4406  0.8709
  619MOL0     C85310   9.513   4.691   4.882  0.8997 -0.7662 -0.2659
  619MOL0     C85311   9.455   4.622   4.778  0.1676  0.5827  0.7453
  619MOL0     C85312   9.471   4.659   4.635 -0.4151  0.7394  0.3341
  619MOL0     C85313   9.367   4.518   4.808  0.7147 -0.2582 -0.7236
  619MOL0     C85314   9.311   4.435   4.707 -0.8476 -0.2271 -0.3480
  619MOL0     O85315   9.370   4.316   4.682  0.7785 -0.8480 -0.2038
  619MOL0     C85316   9.300   4.230   4.596 -0.0454  0.1362 -0.2768
  619MOL0     C85317   9.274   4.259   4.468 -0.9952 -0.6210  0.3585
  619MOL0     C85318   9.216   4.161   4.389  0.9358  1.0327 -0.8346
  619MOL0     C85319   9.173   4.037   4.452  0.0689 -0.7011 -0.2703
  619MOL0     O85320   9.105   3.938   4.385  0.5268  0.3870 -0.0348
  619MOL0     C85321   9.135   3.899   4.248  0.4206 -0.1673  0.1505
  619MOL0     C85322   9.042   3.781   4.206 -0.1088 -0.6345  0.7242
  619MOL0     C85323   9.064   3.650   4.287  0.4454 -0.8377  0.4077
  619MOL0     C85324   9.203   3.596   4.262 -0.0366  0.2546  0.3913
  619MOL0     C85325   9.211   3.439   4.274  0.3992  0.5504 -0.2998
  619MOL0     C85326   9.142   3.356   4.168 -0.1741  0.3479 -0.5239
  619MOL0     C85327   9.147   3.207   4.202  0.2954 -0.2286  0.3538
  619MOL0     C85328   9.279   3.126   4.166  0.3660 -0.3606 -0.1816
  619MOL0    Cl85329   9.314   3.180   4.006 -0.3270 -0.2855 -0.0610
  619MOL0     C85330   9.201   4.016   4.585  0.1872  0.8731 -1.1955
  619MOL0     C85331   9.261   4.112   4.661 -0.4576 -1.0328  0.1533
  619MOL0     O85332   9.214   4.482   4.649  0.2578  0.1909  0.1434
  619MOL0     C85333   9.342   4.494   4.940 -0.5616  1.1002 -0.2822
  619MOL0     C85334   9.403   4.564   5.040  0.5380 -0.0766  0.1142
  619MOL0     N85335   9.960   4.967   5.299  0.3705 -0.7508  0.2108
  619MOL0     N85336   9.984   5.089   5.256 -0.2710  0.4868  0.4452
  619MOL0     C85337  10.384   5.943   5.264 -0.2746 -0.2340 -0.1374
  619MOL0     C85338  10.391   5.944   5.119 -0.3132 -0.3965 -0.6922
  619MOL0     C85339  10.382   5.831   4.680 -0.1749  0.9620  0.2120
  619MOL0     C85340  10.320   5.912   4.585 -0.4752 -0.4847  0.1598
  619MOL0     C85341  10.380   5.943   4.459  0.1726  0.5831 -0.2965
  619MOL0     C85342  10.493   5.874   4.421 -0.7063 -0.0524 -0.1046
  619MOL0     O85343  10.560   5.893   4.308 -0.0901 -0.9081  0.0771
  619MOL0     C85344  10.526   5.792   4.211 -1.1856 -0.5484  0.5513
  619MOL0     C85345  10.645   5.773   4.114 -0.6384  0.1888 -0.3017
  619MOL0     C85346  10.772   5.713   4.182  1.3134 -0.5065  0.8509
  619MOL0     C85347  10.888   5.700   4.075  0.0798  0.4027 -1.0079
  619MOL0     C85348  10.982   5.594   4.120  0.2476  0.3773  0.4380
  619MOL0     C85349  11.055   5.519   4.166  0.2710  0.0735  0.2702
  619MOL0     C85350  10.546   5.791   4.513 -0.5101  0.3131 -0.2072
  619MOL0     C85351  10.491   5.763   4.642 -0.0739  0.3376  0.3749
  619MOL0     C85352  10.564   5.656   4.719 -0.0266  0.3382  0.4462
  619MOL0     H85353  10.359   5.616   5.053  2.2824  0.9017 -0.4983
  619MOL0     H85354  10.281   5.612   5.289  1.6193 -1.4763 -1.2672
  619MOL0     H85355  10.466   5.811   5.584  3.2059 -0.1672 -3.7147
  619MOL0     H85356  10.439   5.670   5.486  1.9654  0.1829  2.8852
  619MOL0     H85357  10.337   5.702   5.742  0.0526 -0.7712 -0.0510
  619MOL0     H85358  10.200   5.753   5.645  0.4522  0.5216 -2.1622
  619MOL0     H85359  10.287   5.507   5.534  0.6866 -1.0557  0.7688
  619MOL0     H85360  10.318   5.485   5.711  0.6874 -1.3191 -1.1457
  619MOL0     H85361  10.099   5.415   5.691  0.1268  0.1024 -0.1694
  619MOL0     H85362  10.077   5.586   5.743  1.7709  1.2879 -0.5937
  619MOL0     H85363  10.105   5.519   5.454 -0.1439  0.8080  0.0415
  619MOL0     H85364   9.989   5.629   5.527 -0.7102 -0.3383 -1.4733
  619MOL0     H85365   9.956   5.333   5.560  1.0041 -0.4620 -0.9443
  619MOL0     H85366   9.855   5.464   5.606 -0.7794 -4.1592  1.0486
  619MOL0     H85367   9.855   5.515   5.332  3.7751 -0.7657 -2.6054
  619MOL0     H85368   9.749   5.389   5.401 -0.2102  0.8593 -2.0761
  619MOL0     H85369   9.907   5.345   5.198 -1.3920  0.8163  1.0407
  619MOL0     H85370  10.037   5.341   5.313 -0.6755  1.0712 -0.0018
  619MOL0     H85371   9.753   5.141   5.482 -3.6178 -1.3503 -3.8525
  619MOL0     H85372   9.742   4.915   5.551  0.5933 -0.0112  1.0735
  619MOL0     H85373   9.874   4.799   5.499  0.4120 -1.4406 -3.0011
  619MOL0     H85374   9.780   4.736   5.293 -1.3158 -1.9134 -0.6198
  619MOL0     H85375   9.670   4.683   5.411 -0.1127 -0.3351 -0.0721
  619MOL0     H85376   9.527   4.892   5.394 -2.2227 -1.1220 -0.5929
  619MOL0     H85377   9.634   4.945   5.256  3.2038 -1.8885  0.3010
  619MOL0     H85378   9.478   4.687   5.276  1.0919  0.8789  1.7175
  619MOL0     H85379   9.415   4.843   5.200 -1.6566 -2.1395 -0.9627
  619MOL0     H85380   9.575   4.778   4.863 -2.3152  2.0246  0.9713
  619MOL0     H85381   9.506   4.762   4.636 -1.8202  1.2365  0.1914
  619MOL0     H85382   9.372   4.660   4.590 -0.1151  1.2701 -0.3246
  619MOL0     H85383   9.539   4.587   4.588 -2.9673  0.2270 -2.9691
  619MOL0     H85384   9.293   4.347   4.407 -2.8505  0.2897  1.0468
  619MOL0     H85385   9.188   4.163   4.284 -0.4483 -0.2505 -0.5198
  619MOL0     H85386   9.141   3.976   4.170 -0.5898  0.3489  0.5688
  619MOL0     H85387   9.237   3.859   4.254  0.1126 -0.7766  1.8467
  619MOL0     H85388   8.939   3.807   4.230 -1.4213 -1.2755 -3.3949
  619MOL0     H85389   9.055   3.759   4.100  0.6060 -0.9889  0.8744
  619MOL0     H85390   8.984   3.594   4.238 -0.4820  1.9124 -1.4408
  619MOL0     H85391   9.039   3.672   4.392  1.2224  1.3910  0.1749
  619MOL0     H85392   9.265   3.635   4.344  1.8092  1.2647 -1.4022
  619MOL0     H85393   9.248   3.621   4.166  2.6533 -1.4630  1.0868
  619MOL0     H85394   9.314   3.402   4.282  1.2846  2.6263 -1.0686
  619MOL0     H85395   9.169   3.415   4.372  0.9775  0.3533 -0.0972
  619MOL0     H85396   9.167   3.387   4.067 -1.6104 -1.1663 -1.4048
  619MOL0     H85397   9.034   3.372   4.177 -1.5558 -6.2723 -0.3227
  619MOL0     H85398   9.061   3.160   4.155  2.4669 -2.0679 -2.0818
  619MOL0     H85399   9.128   3.185   4.308  1.5310 -0.0932  0.6293
  619MOL0     H85400   9.246   3.023   4.180 -3.5570  0.8035  0.3775
  619MOL0     H85401   9.366   3.150   4.228  2.2908  1.0293 -3.1849
  619MOL0     H85402   9.165   3.923   4.628  1.8804  0.2920 -0.9763
  619MOL0     H85403   9.263   4.111   4.769 -1.6455  3.5820  0.4024
  619MOL0     H85404   9.283   4.407   4.968  0.6658 -0.6623 -2.7805
  619MOL0     H85405   9.378   4.536   5.142 -1.0817 -1.5790 -0.6468
  619MOL0     H85406  10.409   6.027   5.329  0.5851  0.5450 -1.4224
  619MOL0     H85407  10.421   6.039   5.075 -3.0472  2.2020  2.4774
  619MOL0     H85408  10.218   5.948   4.598 -1.4531  0.3991 -6.4012
  619MOL0     H85409  10.333   6.018   4.397 -2.5121 -0.3043  0.4967
  619MOL0     H85410  10.496   5.696   4.253  1.8049 -0.7133  2.5634
  619MOL0     H85411  10.430   5.816   4.163 -1.2387  3.2000  2.2111
  619MOL0     H85412  10.670   5.873   4.079  0.5808  0.9770  2.5271
  619MOL0     H85413  10.614   5.711   4.030 -0.8221  0.7637 -0.6636
  619MOL0     H85414  10.795   5.768   4.273  0.2435 -0.5991  1.1852
  619MOL0     H85415  10.755   5.612   4.220  1.6864 -0.5097  1.0135
  619MOL0     H85416  10.945   5.793   4.072 -0.3455  0.7083  0.0434
  619MOL0     H85417  10.853   5.675   3.974 -0.2069 -1.7058 -0.4278
  619MOL0     H85418  11.127   5.451   4.206  1.7086  1.1975 -0.3027
  619MOL0     H85419  10.639   5.740   4.490 -1.0596 -0.8742  0.1208
  619MOL0     H85420  10.574   5.678   4.826 -0.6860  4.5366 -0.1880
  619MOL0     H85421  10.515   5.561   4.692  3.1484 -0.6893 -2.3589
  619MOL0     H85422  10.664   5.634   4.682 -0.2076 -1.2231  0.8051
  620MOL0     O85423   4.091   8.937   1.935 -0.3359  0.1819 -0.3169
  620MOL0     C85424   4.102   9.057   1.901 -0.2898  0.1280 -0.1042
  620MOL0     O85425   4.134   9.100   1.777 -0.0886  0.0601  0.1977
  620MOL0     C85426   4.166   9.013   1.674  0.2362 -0.5744  0.3531
  620MOL0     C85427   4.294   9.002   1.643  0.0064 -0.0470 -0.6574
  620MOL0     C85428   4.330   8.898   1.552 -0.6902 -0.1845 -0.5946
  620MOL0     C85429   4.234   8.819   1.482 -0.2418 -0.0401 -0.2757
  620MOL0     O85430   4.292   8.743   1.386  0.0518  0.6897 -0.2542
  620MOL0     C85431   4.203   8.669   1.298 -0.3003  0.5585 -0.4039
  620MOL0     C85432   4.162   8.528   1.357 -0.9997 -0.0814  0.3342
  620MOL0     C85433   4.042   8.457   1.291 -0.1663  0.0333 -0.2538
  620MOL0     C85434   4.079   8.384   1.163 -0.8482 -0.6425  0.7163
  620MOL0     C85435   3.961   8.308   1.110 -0.4547 -0.3895  0.0147
  620MOL0     C85436   4.005   8.258   0.968  0.7130 -0.2235 -0.7030
  620MOL0     C85437   3.897   8.187   0.889 -0.2966 -0.0389  0.2734
  620MOL0     C85438   3.960   8.130   0.760 -0.6739  0.0774 -0.6523
  620MOL0     N85439   4.003   8.226   0.662 -0.2349  0.0445  0.0785
  620MOL0     C85440   3.923   8.312   0.587 -0.7958 -0.4899 -0.2357
  620MOL0     C85441   4.002   8.419   0.563  0.0134  0.0589  0.5652
  620MOL0     C85442   3.956   8.543   0.496  0.2508  0.3441  0.7453
  620MOL0     C85443   4.019   8.565   0.357  0.4333 -0.3959 -1.1089
  620MOL0     C85444   3.994   8.452   0.259  0.4754  0.1861  0.9259
  620MOL0     C85445   4.018   8.495   0.111  0.4316 -0.1047 -0.1830
  620MOL0     O85446   3.940   8.612   0.090  0.4370  0.1040  0.4491
  620MOL0     C85447   3.990   8.696  -0.001 -0.4070  1.0008 -0.1860
  620MOL0     C85448   3.970   8.828   0.030 -0.5530  0.6158 -0.7133
  620MOL0     C85449   3.978   8.930  -0.060  0.4484  0.0566  0.7510
  620MOL0     C85450   3.929   9.069  -0.003 -0.1228  0.1430 -1.0275
  620MOL0     C85451   4.041   8.901  -0.191  0.5827 -0.1721 -0.5103
  620MOL0     C85452   4.091   9.004  -0.286  1.0619 -0.4292 -0.0140
  620MOL0     O85453   4.132   8.958  -0.411 -0.0083 -0.0165 -0.2684
  620MOL0     C85454   4.175   9.048  -0.501  0.5149 -0.5490 -0.2580
  620MOL0     C85455   4.298   9.025  -0.558 -0.1578  0.0933 -0.3871
  620MOL0     C85456   4.340   9.107  -0.661  0.2565 -0.0274 -0.4909
  620MOL0     C85457   4.264   9.211  -0.719  1.6812 -0.7435 -0.9761
  620MOL0     O85458   4.321   9.288  -0.809 -0.1138  0.0343  0.5081
  620MOL0     C85459   4.233   9.360  -0.902  0.0405  0.5458  0.1556
  620MOL0     C85460   4.308   9.422  -1.014  0.2648 -0.0257  0.0208
  620MOL0     C85461   4.422   9.521  -0.987 -0.2061 -0.4451 -0.1576
  620MOL0     C85462   4.370   9.650  -0.930 -0.2499  0.1244  0.5345
  620MOL0     C85463   4.490   9.739  -0.890  0.1882 -0.3028  0.6386
  620MOL0     C85464   4.453   9.867  -0.820 -0.9536  0.0798 -0.1332
  620MOL0     C85465   4.585   9.962  -0.820 -0.0142  0.3707 -0.7727
  620MOL0     C85466   4.543  10.111  -0.802 -0.5150 -0.6852 -0.1474
  620MOL0    Cl85467   4.430  10.175  -0.913 -0.1258 -0.6953  0.2010
  620MOL0     C85468   4.138   9.244  -0.647 -0.2743  0.2764  0.4222
  620MOL0     C85469   4.098   9.161  -0.542  0.2968  0.7612  0.0505
  620MOL0     O85470   4.088   9.123  -0.246 -0.3536  0.6371  0.0144
  620MOL0     C85471   4.062   8.761  -0.225 -0.1688 -0.0373  1.0588
  620MOL0     C85472   4.029   8.661  -0.136  0.5602  0.1458  0.4605
  620MOL0     N85473   4.129   8.397   0.614  0.2695 -0.6767  1.1206
  620MOL0     N85474   4.129   8.276   0.654  0.5901  0.4872  0.5051
  620MOL0     C85475   4.097   8.831   1.521 -0.5707  0.2364 -0.2573
  620MOL0     C85476   4.070   8.920   1.624 -0.2487 -0.1694  0.7394
  620MOL0     C85477   4.043   9.171   1.988 -0.3570 -0.0285  0.0320
  620MOL0     C85478   3.986   9.280   1.922 -0.8037 -0.2186  0.4609
  620MOL0     C85479   3.931   9.383   1.984 -0.9534  0.7744 -1.3089
  620MOL0     C85480   3.948   9.401   2.124 -0.8710 -0.1579  1.1741
  620MOL0     O85481   3.882   9.508   2.179  0.2491 -0.7020 -0.5801
  620MOL0     C85482   3.884   9.520   2.329  0.9341  0.3026  0.2876
  620MOL0     C85483   3.827   9.656   2.369 -0.4453 -0.1488 -0.2499
  620MOL0     C85484   3.922   9.768   2.315  0.2515  0.2173  0.1652
  620MOL0     C85485   4.038   9.816   2.411  0.7373  0.3022 -0.3328
  620MOL0     C85486   4.136   9.716   2.433  1.0202  0.3425 -0.4018
  620MOL0     C85487   4.218   9.633   2.475  0.1827 -0.3974  0.7268
  620MOL0     C85488   4.016   9.299   2.191 -0.6104 -0.7329 -0.0500
  620MOL0     C85489   4.059   9.183   2.123 -0.2421  0.0040 -0.8019
  620MOL0     C85490   4.128   9.079   2.212 -0.8804 -0.0390 -0.2295
  620MOL0     H85491   4.372   9.054   1.697 -0.1924  3.4730 -3.4067
  620MOL0     H85492   4.430   8.882   1.514 -0.9497  1.6308 -2.2170
  620MOL0     H85493   4.250   8.657   1.199  0.4945 -2.5755  0.2705
  620MOL0     H85494   4.112   8.728   1.286  0.7594  2.5593  0.7799
  620MOL0     H85495   4.251   8.465   1.351 -0.6355  0.4631 -0.0710
  620MOL0     H85496   4.137   8.552   1.460  1.1456 -1.4217  1.2334
  620MOL0     H85497   4.007   8.384   1.364  1.0647  0.4062  0.7258
  620MOL0     H85498   3.959   8.528   1.284  1.4927  2.3158  1.6405
  620MOL0     H85499   4.125   8.449   1.088  2.8031  0.7476  3.8068
  620MOL0     H85500   4.150   8.305   1.188 -0.0673 -0.3058 -0.3408
  620MOL0     H85501   3.876   8.376   1.096  1.5185  2.1515 -0.3120
  620MOL0     H85502   3.930   8.224   1.173 -0.0003  0.8817  1.9956
  620MOL0     H85503   4.038   8.341   0.905 -1.4968  1.6175  0.4476
  620MOL0     H85504   4.096   8.197   0.968  0.6679 -0.3192  0.7658
  620MOL0     H85505   3.825   8.264   0.859 -0.4301 -0.3172 -0.1315
  620MOL0     H85506   3.853   8.111   0.954  2.8021 -1.8124  0.4903
  620MOL0     H85507   4.056   8.081   0.782 -1.4802 -1.1245  0.3461
  620MOL0     H85508   3.897   8.054   0.714  0.3535 -1.1623 -0.0959
  620MOL0     H85509   3.815   8.306   0.574 -0.9107 -0.9451  0.8187
  620MOL0     H85510   3.970   8.624   0.569  0.4250 -0.0983  1.2040
  620MOL0     H85511   3.847   8.542   0.484  0.4448  2.4019 -2.7241
  620MOL0     H85512   4.000   8.663   0.312 -1.2298 -1.8886 -3.9608
  620MOL0     H85513   4.124   8.558   0.386  0.2341 -1.4541 -0.5852
  620MOL0     H85514   4.063   8.369   0.276 -0.4082 -0.6975  0.3452
  620MOL0     H85515   3.889   8.421   0.263  0.3695  0.0071 -1.7376
  620MOL0     H85516   4.124   8.506   0.087  0.3486  0.6880 -0.1973
  620MOL0     H85517   3.976   8.423   0.039  1.4207 -1.2591  0.3503
  620MOL0     H85518   3.939   8.850   0.132 -0.7309  0.4819 -0.7382
  620MOL0     H85519   3.864   9.063   0.085  0.6646 -0.5311 -0.4782
  620MOL0     H85520   3.875   9.126  -0.080 -1.1159  0.2150 -0.2918
  620MOL0     H85521   4.016   9.128   0.029  0.6204 -0.2945 -2.1568
  620MOL0     H85522   4.362   8.946  -0.522 -1.8824 -0.2744  2.2059
  620MOL0     H85523   4.433   9.080  -0.710 -0.2705 -1.2315 -0.8671
  620MOL0     H85524   4.162   9.292  -0.950  1.4650 -0.2061 -0.9702
  620MOL0     H85525   4.181   9.446  -0.859 -2.3790  0.6412 -2.6269
  620MOL0     H85526   4.357   9.336  -1.060  4.3823  1.0264  1.8933
  620MOL0     H85527   4.242   9.476  -1.082  1.5251 -2.2057 -3.1546
  620MOL0     H85528   4.467   9.550  -1.082 -0.7101  0.4272 -0.1478
  620MOL0     H85529   4.486   9.478  -0.909  0.4287  1.5317  0.4837
  620MOL0     H85530   4.303   9.632  -0.846 -0.8675 -0.4402 -0.0708
  620MOL0     H85531   4.309   9.705  -1.003  0.5355 -1.6984 -1.6011
  620MOL0     H85532   4.550   9.679  -0.821 -0.5890 -0.4367  1.2124
  620MOL0     H85533   4.552   9.754  -0.979  0.8088  1.6696  1.3416
  620MOL0     H85534   4.420   9.832  -0.722 -1.8064 -1.8944 -1.0710
  620MOL0     H85535   4.377   9.932  -0.865 -1.3518  1.2350  2.1054
  620MOL0     H85536   4.654   9.967  -0.904  0.0109  1.2021 -0.7153
  620MOL0     H85537   4.653   9.916  -0.748  0.7099  3.2766  0.5677
  620MOL0     H85538   4.639  10.164  -0.808 -0.0844 -1.1946  1.6823
  620MOL0     H85539   4.506  10.127  -0.701 -0.7712 -2.3904  0.0584
  620MOL0     H85540   4.072   9.329  -0.661 -1.3232 -0.0564  2.7363
  620MOL0     H85541   4.004   9.174  -0.488 -1.5812 -3.4653 -1.7105
  620MOL0     H85542   4.096   8.727  -0.322 -3.1631 -1.2010  0.3056
  620MOL0     H85543   4.048   8.559  -0.169  0.6894 -0.5205  2.4541
  620MOL0     H85544   4.009   8.783   1.479  0.9060 -2.1734 -0.7568
  620MOL0     H85545   3.966   8.943   1.640 -1.1270 -1.9510 -1.6874
  620MOL0     H85546   3.982   9.276   1.814 -2.7236  0.6492  0.4652
  620MOL0     H85547   3.876   9.462   1.934 -0.4148  2.3502  0.4334
  620MOL0     H85548   3.811   9.454   2.376  0.7424  0.3029 -0.0040
  620MOL0     H85549   3.987   9.500   2.361  1.3443  0.9318 -0.5926
  620MOL0     H85550   3.816   9.674   2.476 -3.9164  2.2463 -0.8372
  620MOL0     H85551   3.725   9.668   2.331 -1.4549  0.7500  2.5049
  620MOL0     H85552   3.965   9.727   2.222 -1.1384 -2.0824  0.4736
  620MOL0     H85553   3.853   9.843   2.277  0.1555 -0.5409 -1.2399
  620MOL0     H85554   3.985   9.855   2.498 -1.8622  1.8578 -2.4554
  620MOL0     H85555   4.092   9.903   2.372  0.8223  0.7921  0.8338
  620MOL0     H85556   4.286   9.565   2.521 -0.5236 -1.2218  0.5752
  620MOL0     H85557   4.031   9.313   2.298 -3.7815 -0.5562  0.4701
  620MOL0     H85558   4.237   9.092   2.213 -0.4637 -2.9484 -0.0202
  620MOL0     H85559   4.084   9.082   2.313 -2.2386 -4.3771 -0.5118
  620MOL0     H85560   4.116   8.973   2.190  2.5136 -0.2900 -1.4712
  621MOL0     O85561   7.852   8.304   0.600 -0.4373  0.2448 -0.5025
  621MOL0     C85562   7.751   8.236   0.616  0.6730  1.0886 -0.3185
  621MOL0     O85563   7.626   8.286   0.618  0.9687  0.1613 -0.2730
  621MOL0     C85564   7.594   8.411   0.666 -0.2435 -0.0024 -0.3318
  621MOL0     C85565   7.470   8.461   0.625 -0.2349 -0.2023  0.0419
  621MOL0     C85566   7.428   8.585   0.674  0.7615 -0.6056 -0.6808
  621MOL0     C85567   7.517   8.668   0.744  0.0171  0.2328 -0.7097
  621MOL0     O85568   7.472   8.797   0.767 -0.1467  0.1066  0.0575
  621MOL0     C85569   7.551   8.887   0.849 -0.1563  0.3472  0.6690
  621MOL0     C85570   7.470   9.003   0.897 -0.2844  0.8021 -0.5960
  621MOL0     C85571   7.552   9.114   0.956 -1.0520  0.8866  0.6080
  621MOL0     C85572   7.488   9.152   1.089 -0.4159 -0.5385  0.8307
  621MOL0     C85573   7.528   9.293   1.138 -0.2718  0.3248  0.6635
  621MOL0     C85574   7.511   9.321   1.285 -0.4184  0.4753  0.5486
  621MOL0     C85575   7.552   9.470   1.319  0.1188  0.1482  0.9502
  621MOL0     C85576   7.511   9.497   1.456  1.1909  0.5053 -0.8160
  621MOL0     N85577   7.583   9.617   1.515 -0.8900 -1.1542  0.3218
  621MOL0     C85578   7.527   9.744   1.518  0.0989 -0.0615  0.0522
  621MOL0     C85579   7.616   9.816   1.594 -0.4163 -0.9259  0.4661
  621MOL0     C85580   7.615   9.963   1.605 -0.3089 -0.3187  0.7459
  621MOL0     C85581   7.507  10.007   1.690 -0.1325  0.4241 -0.1223
  621MOL0     C85582   7.518   9.943   1.831  0.9826 -0.6377 -0.0388
  621MOL0     C85583   7.609  10.018   1.927  0.0275 -1.2223  0.2420
  621MOL0     O85584   7.581  10.002   2.068  0.6051 -1.0523 -0.2615
  621MOL0     C85585   7.630   9.901   2.143  0.4743 -0.1788 -0.3310
  621MOL0     C85586   7.696   9.788   2.087 -0.3827  0.4389 -0.0533
  621MOL0     C85587   7.755   9.692   2.165 -0.1476 -0.4377 -0.2970
  621MOL0     C85588   7.844   9.599   2.095  1.1113  0.4769  0.9156
  621MOL0     C85589   7.728   9.693   2.301 -0.2128 -0.0196  0.9066
  621MOL0     C85590   7.781   9.593   2.395 -1.2521  0.1549 -0.7133
  621MOL0     O85591   7.747   9.612   2.532 -0.8634  0.4123 -0.5639
  621MOL0     C85592   7.812   9.558   2.635 -0.8412 -0.0913 -0.3057
  621MOL0     C85593   7.756   9.455   2.707  0.5735  0.4943  0.6265
  621MOL0     C85594   7.816   9.388   2.808 -0.4093  0.1731 -0.2239
  621MOL0     C85595   7.950   9.416   2.842 -0.1831  0.6595 -0.1934
  621MOL0     O85596   8.021   9.366   2.954 -0.1951 -0.8005  0.3143
  621MOL0     C85597   7.952   9.274   3.043  0.2221 -0.6442 -0.2284
  621MOL0     C85598   8.024   9.248   3.165  0.0403 -0.0165 -1.1195
  621MOL0     C85599   8.168   9.180   3.142 -0.3192  0.2772 -0.5540
  621MOL0     C85600   8.217   9.098   3.257  0.3713  0.8967  0.1911
  621MOL0     C85601   8.332   9.016   3.235 -0.1761  0.1701  0.0273
  621MOL0     C85602   8.384   8.968   3.370  0.3696  0.1958 -0.3001
  621MOL0     C85603   8.312   8.839   3.426  0.5042 -0.9713  0.4748
  621MOL0     C85604   8.354   8.792   3.566 -0.0868  0.7825  0.0862
  621MOL0    Cl85605   8.246   8.649   3.616 -0.0757  0.2605 -0.1172
  621MOL0     C85606   8.014   9.523   2.772 -0.0938  0.0192 -0.1922
  621MOL0     C85607   7.946   9.580   2.665  0.0667 -0.2093 -0.1540
  621MOL0     O85608   7.864   9.510   2.359  0.0993 -0.2536 -0.5961
  621MOL0     C85609   7.638   9.795   2.353 -0.4163  0.2473  0.7921
  621MOL0     C85610   7.599   9.898   2.277 -0.2730 -0.3291  0.0434
  621MOL0     N85611   7.718   9.738   1.634 -0.1183  0.1560  0.2225
  621MOL0     N85612   7.703   9.624   1.584  0.0683  1.3379 -0.0104
  621MOL0     C85613   7.654   8.617   0.778 -0.3531 -0.6472  0.8106
  621MOL0     C85614   7.687   8.492   0.735  0.3270 -0.0818 -0.1280
  621MOL0     C85615   7.772   8.091   0.628 -0.0181 -0.0934  0.5336
  621MOL0     C85616   7.900   8.039   0.659  0.3147 -0.4799  0.9643
  621MOL0     C85617   7.923   7.902   0.680 -0.6261  1.2494  0.0926
  621MOL0     C85618   7.823   7.815   0.681  0.8835  0.5634  0.5856
  621MOL0     O85619   7.832   7.683   0.717 -0.0853 -0.3137  0.4214
  621MOL0     C85620   7.912   7.652   0.835  0.0282  0.6981  0.0425
  621MOL0     C85621   8.060   7.606   0.814  0.1951  0.9802 -0.0249
  621MOL0     C85622   8.070   7.507   0.696  0.0105  0.0586 -0.1361
  621MOL0     C85623   8.065   7.364   0.732 -0.8027  0.4763 -0.6224
  621MOL0     C85624   7.937   7.321   0.783  0.7714 -0.0979  0.8873
  621MOL0     C85625   7.819   7.325   0.816 -0.8222 -0.4138 -0.1614
  621MOL0     C85626   7.690   7.866   0.657  0.1782 -0.3506 -0.1291
  621MOL0     C85627   7.665   8.002   0.633  0.2712  0.6087 -0.9253
  621MOL0     C85628   7.511   8.026   0.631 -0.3212  0.1851 -1.0577
  621MOL0     H85629   7.407   8.394   0.567  0.1127  1.5789 -2.5658
  621MOL0     H85630   7.343   8.645   0.645 -0.3858 -2.6541 -1.7759
  621MOL0     H85631   7.641   8.928   0.802  1.1459  1.9229  4.1758
  621MOL0     H85632   7.574   8.832   0.940  1.0946  1.1501  0.8717
  621MOL0     H85633   7.419   9.046   0.810  1.6178 -0.2996 -2.3637
  621MOL0     H85634   7.395   8.966   0.967  0.8434 -3.0579 -1.1662
  621MOL0     H85635   7.652   9.071   0.964 -2.0879 -2.7469 -2.5549
  621MOL0     H85636   7.557   9.204   0.895  3.1324 -0.5545 -1.5452
  621MOL0     H85637   7.383   9.165   1.060  0.2404  0.8379 -1.0849
  621MOL0     H85638   7.497   9.079   1.171 -1.0275 -0.3300  1.0862
  621MOL0     H85639   7.485   9.369   1.072 -0.8935 -0.9677 -0.4754
  621MOL0     H85640   7.633   9.303   1.110 -0.8400 -0.4219 -2.0014
  621MOL0     H85641   7.405   9.303   1.308 -0.2801  0.7261  1.4144
  621MOL0     H85642   7.574   9.252   1.342  1.1840  2.5329  1.4031
  621MOL0     H85643   7.512   9.530   1.236  3.8920 -2.0558 -2.8924
  621MOL0     H85644   7.661   9.468   1.308  0.1291  0.3190  1.0147
  621MOL0     H85645   7.403   9.516   1.458  0.8668 -1.0878  2.6250
  621MOL0     H85646   7.538   9.407   1.512 -2.1828 -0.1253  0.0153
  621MOL0     H85647   7.430   9.773   1.477  0.1434 -0.1779 -0.1397
  621MOL0     H85648   7.605  10.000   1.503 -0.6694 -1.6400  0.2858
  621MOL0     H85649   7.712   9.990   1.650  0.9802  0.9290 -2.4841
  621MOL0     H85650   7.502  10.116   1.694 -1.6649  0.3363  2.0839
  621MOL0     H85651   7.413   9.983   1.641 -1.3321  4.6002 -0.2605
  621MOL0     H85652   7.415   9.950   1.868  1.1037  0.7944  0.1102
  621MOL0     H85653   7.534   9.835   1.831  1.8308 -0.5808 -2.7660
  621MOL0     H85654   7.715   9.993   1.911  0.0709 -0.5863 -0.5182
  621MOL0     H85655   7.606  10.126   1.914  1.1560 -1.3832 -1.7771
  621MOL0     H85656   7.702   9.770   1.980  0.6097 -1.4229  0.2782
  621MOL0     H85657   7.790   9.507   2.075 -1.0106  2.3483 -3.2791
  621MOL0     H85658   7.932   9.603   2.160  1.9856  3.1101 -0.2564
  621MOL0     H85659   7.873   9.650   2.003  1.1419 -1.9255 -0.4723
  621MOL0     H85660   7.652   9.435   2.684  1.0380 -0.1101 -1.1044
  621MOL0     H85661   7.769   9.317   2.875  1.3200 -1.3455 -0.5258
  621MOL0     H85662   7.857   9.322   3.069  0.1180 -0.3225 -1.1661
  621MOL0     H85663   7.921   9.180   2.996 -2.6029  1.5439 -3.2255
  621MOL0     H85664   8.025   9.343   3.219 -4.3325 -1.3033  1.6928
  621MOL0     H85665   7.966   9.189   3.236  1.4012 -1.2072 -0.9349
  621MOL0     H85666   8.248   9.252   3.120  0.5682 -1.3057 -2.8116
  621MOL0     H85667   8.173   9.120   3.051  2.0645 -0.1579 -0.2047
  621MOL0     H85668   8.134   9.033   3.284 -0.1805  1.1293 -0.8808
  621MOL0     H85669   8.240   9.165   3.341 -1.0063  2.3893 -0.5561
  621MOL0     H85670   8.294   8.932   3.177 -0.2250  0.1449  0.0938
  621MOL0     H85671   8.406   9.073   3.178  0.7152  0.3620  1.3225
  621MOL0     H85672   8.388   9.052   3.440  1.9096 -1.8218  2.2230
  621MOL0     H85673   8.486   8.928   3.360  1.4615  2.8829 -0.9692
  621MOL0     H85674   8.329   8.752   3.362  1.2185 -1.8342  1.7884
  621MOL0     H85675   8.207   8.868   3.424  0.8283  0.2244 -0.1554
  621MOL0     H85676   8.352   8.870   3.644  0.7981 -0.3115  1.2488
  621MOL0     H85677   8.450   8.741   3.554 -2.4026 -3.3691 -3.5215
  621MOL0     H85678   8.115   9.551   2.798  0.9927 -1.0063 -2.9803
  621MOL0     H85679   7.999   9.655   2.607 -0.1312  0.3630  0.3926
  621MOL0     H85680   7.607   9.801   2.457 -0.8219 -1.3822  0.8030
  621MOL0     H85681   7.543   9.979   2.323  1.2334  0.1636  1.0689
  621MOL0     H85682   7.736   8.677   0.815  0.0115 -1.1608  0.8570
  621MOL0     H85683   7.787   8.454   0.757 -0.3796 -1.0576  1.5945
  621MOL0     H85684   7.977   8.114   0.672 -0.7761  0.8368  0.1415
  621MOL0     H85685   8.020   7.864   0.709 -0.3878 -1.7697 -3.8093
  621MOL0     H85686   7.899   7.739   0.899 -1.3318  1.8428 -1.6952
  621MOL0     H85687   7.863   7.570   0.888  0.3689 -1.0740 -2.2120
  621MOL0     H85688   8.092   7.556   0.906  1.4575 -3.1920 -2.4561
  621MOL0     H85689   8.134   7.684   0.791  0.3724  0.5449 -0.9764
  621MOL0     H85690   7.995   7.534   0.621 -0.0509 -1.2383 -0.5571
  621MOL0     H85691   8.168   7.510   0.648  0.2351 -2.1416  0.1100
  621MOL0     H85692   8.132   7.342   0.816  0.2995  0.9083 -1.3678
  621MOL0     H85693   8.098   7.300   0.649 -1.8667 -2.7910  1.2527
  621MOL0     H85694   7.713   7.332   0.831 -0.9941  0.0458 -1.4209
  621MOL0     H85695   7.611   7.792   0.667 -1.1572  1.3376  3.9429
  621MOL0     H85696   7.473   8.053   0.532 -0.4228  3.3486 -0.2732
  621MOL0     H85697   7.456   7.941   0.673  1.4729 -2.6676 -3.9908
  621MOL0     H85698   7.489   8.102   0.707  0.6934  1.5783 -2.1070
  622MOL0     O85699  11.199   7.771   1.530 -0.1572  0.8139  0.4683
  622MOL0     C85700  11.314   7.769   1.484 -0.4889  0.5406  0.5072
  622MOL0     O85701  11.348   7.690   1.368 -0.0565 -0.4981 -0.0652
  622MOL0     C85702  11.240   7.670   1.289  0.2575 -0.3273 -0.2091
  622MOL0     C85703  11.160   7.555   1.296  0.5057 -0.1747 -0.2383
  622MOL0     C85704  11.061   7.533   1.201  0.0814  0.8589 -0.4175
  622MOL0     C85705  11.039   7.618   1.094 -0.1770 -0.4454  0.2640
  622MOL0     O85706  10.956   7.587   0.988 -0.0498  0.4080  0.0589
  622MOL0     C85707  10.900   7.452   0.961  0.2164  0.3348  0.6452
  622MOL0     C85708  10.749   7.479   0.918 -0.4831  0.2123  0.1647
  622MOL0     C85709  10.717   7.507   0.776  0.3495  0.2756  0.8090
  622MOL0     C85710  10.732   7.377   0.694  0.1593 -0.1117  0.3005
  622MOL0     C85711  10.693   7.384   0.546 -0.2085 -0.6180 -0.2324
  622MOL0     C85712  10.738   7.264   0.466 -0.3307 -0.0245  1.5053
  622MOL0     C85713  10.669   7.247   0.329  0.3835 -0.5916  0.5830
  622MOL0     C85714  10.725   7.127   0.254  0.4077 -0.1125 -0.0987
  622MOL0     N85715  10.721   6.997   0.327  0.1371 -0.9420 -0.7403
  622MOL0     C85716  10.834   6.944   0.392 -0.2415  0.8288  0.0761
  622MOL0     C85717  10.772   6.836   0.452 -0.0315 -0.0105 -0.1599
  622MOL0     C85718  10.833   6.750   0.560  0.5485  0.4293 -0.1728
  622MOL0     C85719  10.992   6.759   0.560 -0.4218 -0.3313 -0.3621
  622MOL0     C85720  11.046   6.660   0.668  0.3993  0.5424 -0.5099
  622MOL0     C85721  11.175   6.719   0.709 -0.2449 -0.0596  0.3027
  622MOL0     O85722  11.240   6.627   0.800  0.1418 -0.0067 -0.1041
  622MOL0     C85723  11.347   6.669   0.881  0.4251 -0.0616  0.2826
  622MOL0     C85724  11.413   6.583   0.976 -0.1150  0.0222 -0.3005
  622MOL0     C85725  11.538   6.620   1.033  0.4843  0.6988  0.1958
  622MOL0     C85726  11.600   6.539   1.135  0.1658  0.1118 -0.4869
  622MOL0     C85727  11.586   6.752   1.010  0.7288 -0.1371 -0.1292
  622MOL0     C85728  11.702   6.819   1.087 -0.1782 -0.3105  1.5831
  622MOL0     O85729  11.808   6.743   1.130  0.1227  0.3378 -0.3525
  622MOL0     C85730  11.890   6.796   1.223  0.1158 -0.3695  0.1794
  622MOL0     C85731  11.988   6.891   1.183  0.3761  0.2240 -0.0364
  622MOL0     C85732  12.071   6.942   1.280 -0.2713  0.1194 -0.1512
  622MOL0     C85733  12.069   6.893   1.412 -0.0104  0.4354 -0.2403
  622MOL0     O85734  12.162   6.953   1.498  0.3904  0.1251 -0.4573
  622MOL0     C85735  12.204   6.886   1.622  0.4208  1.0813  0.0228
  622MOL0     C85736  12.311   6.972   1.688  0.4156 -0.7188  0.3950
  622MOL0     C85737  12.373   6.896   1.811  0.1310 -1.1122 -0.7864
  622MOL0     C85738  12.473   6.985   1.889  0.5964 -1.4654  0.9326
  622MOL0     C85739  12.587   7.037   1.795  0.4838  0.2441  0.0547
  622MOL0     C85740  12.689   7.113   1.873 -0.1715 -0.3237  0.0789
  622MOL0     C85741  12.792   7.170   1.783 -0.2901  0.6614 -0.2681
  622MOL0     C85742  12.907   7.245   1.871  0.2537 -0.2365 -0.5074
  622MOL0    Cl85743  12.867   7.419   1.892 -0.2884  0.1350 -0.0078
  622MOL0     C85744  11.981   6.790   1.449  0.6933  0.7850  0.0232
  622MOL0     C85745  11.879   6.752   1.354 -0.6282  0.5381 -0.4040
  622MOL0     O85746  11.700   6.945   1.100  1.0198  0.5300  0.4317
  622MOL0     C85747  11.521   6.834   0.921 -0.3291  0.1515  0.1974
  622MOL0     C85748  11.403   6.796   0.859 -1.4747 -0.3449 -0.5811
  622MOL0     N85749  10.637   6.832   0.432 -0.2284  0.7102  0.1102
  622MOL0     N85750  10.610   6.921   0.339 -0.3820  0.5069 -0.2564
  622MOL0     C85751  11.113   7.735   1.085 -1.1448 -0.0432  0.2795
  622MOL0     C85752  11.220   7.750   1.176 -0.9103 -0.5355  0.2881
  622MOL0     C85753  11.431   7.831   1.552 -0.7491  0.2002  0.3545
  622MOL0     C85754  11.561   7.803   1.505  0.3876 -0.1123  0.0979
  622MOL0     C85755  11.673   7.863   1.568 -0.4293 -0.0629  0.6415
  622MOL0     C85756  11.665   7.953   1.672  1.2260 -0.0265  0.2528
  622MOL0     O85757  11.769   8.029   1.719  0.2921 -0.1641  0.2103
  622MOL0     C85758  11.858   7.966   1.811 -0.0641  0.1369 -0.2107
  622MOL0     C85759  11.884   8.043   1.929  0.7728 -0.0307 -0.4439
  622MOL0     C85760  12.025   8.041   1.988  0.2446 -0.3088  0.4558
  622MOL0     C85761  12.072   7.895   2.009 -0.5291  0.7624  0.1306
  622MOL0     C85762  12.018   7.836   2.132  0.2532  0.4728  0.1460
  622MOL0     C85763  11.969   7.786   2.227  0.4820  0.4237 -0.0785
  622MOL0     C85764  11.537   7.983   1.714 -0.8001  0.1720 -0.4841
  622MOL0     C85765  11.422   7.921   1.662  0.1331  0.1318 -0.8005
  622MOL0     C85766  11.289   7.970   1.709 -0.1508  0.7577  0.2173
  622MOL0     H85767  11.155   7.489   1.383 -0.6419  2.0593  1.4829
  622MOL0     H85768  11.002   7.443   1.215  1.0489  0.2544 -0.0925
  622MOL0     H85769  10.881   7.378   1.040 -0.7498 -1.5009 -1.2100
  622MOL0     H85770  10.961   7.401   0.886 -3.0186  0.3547 -2.2449
  622MOL0     H85771  10.684   7.391   0.931  0.6047 -0.6874 -0.3058
  622MOL0     H85772  10.703   7.548   0.989  0.8301 -2.8136  4.3445
  622MOL0     H85773  10.617   7.550   0.769  0.8662  1.8808  2.5684
  622MOL0     H85774  10.785   7.584   0.738 -2.8053  1.8416 -2.2638
  622MOL0     H85775  10.839   7.354   0.691 -0.0541 -1.0460 -2.1799
  622MOL0     H85776  10.668   7.294   0.724  0.2562 -1.1416 -2.1184
  622MOL0     H85777  10.723   7.478   0.498  0.2896  0.8814  2.7789
  622MOL0     H85778  10.585   7.380   0.528 -0.1085  2.1023 -1.9920
  622MOL0     H85779  10.843   7.280   0.440 -0.9039  0.6360 -0.6207
  622MOL0     H85780  10.741   7.173   0.527  4.9787 -1.8453 -0.8604
  622MOL0     H85781  10.680   7.343   0.276  3.1675 -0.1373  1.8115
  622MOL0     H85782  10.561   7.232   0.332 -0.0877  1.3873 -2.2730
  622MOL0     H85783  10.658   7.126   0.168 -0.4232  1.9558  0.4525
  622MOL0     H85784  10.828   7.150   0.223 -0.4443  1.2936 -2.0865
  622MOL0     H85785  10.936   6.979   0.400  0.3764 -1.3087  2.7766
  622MOL0     H85786  10.796   6.648   0.555 -0.7724  0.9423 -1.3350
  622MOL0     H85787  10.789   6.795   0.650 -0.2430  0.3392 -0.5100
  622MOL0     H85788  11.040   6.746   0.462  0.4314  3.4854 -0.6268
  622MOL0     H85789  11.011   6.864   0.583 -0.2234 -0.1884 -1.1383
  622MOL0     H85790  10.995   6.660   0.765 -1.0439 -0.0607 -1.2349
  622MOL0     H85791  11.052   6.559   0.626 -1.0841  1.3258 -2.8065
  622MOL0     H85792  11.245   6.751   0.632 -1.2033 -1.2495 -1.1169
  622MOL0     H85793  11.143   6.812   0.757 -0.2714 -0.2279  0.6132
  622MOL0     H85794  11.370   6.486   0.997  1.4215 -0.4235  1.0155
  622MOL0     H85795  11.695   6.501   1.095  0.5529  1.2760 -0.7140
  622MOL0     H85796  11.537   6.453   1.159 -0.4512  0.1456 -1.8576
  622MOL0     H85797  11.609   6.592   1.230 -2.2674 -1.5442  0.7751
  622MOL0     H85798  11.987   6.933   1.083 -1.0451  1.9209  0.6264
  622MOL0     H85799  12.138   7.024   1.257 -2.1831  1.4990 -1.1410
  622MOL0     H85800  12.123   6.869   1.694 -0.6902 -1.5208 -1.7094
  622MOL0     H85801  12.265   6.796   1.616  0.8555  1.2095  1.9655
  622MOL0     H85802  12.381   6.993   1.607 -0.2374 -0.1363 -0.0314
  622MOL0     H85803  12.271   7.069   1.720  0.6809 -0.0120 -1.2978
  622MOL0     H85804  12.437   6.811   1.783  3.0930 -0.6321  3.5395
  622MOL0     H85805  12.288   6.859   1.869  1.0238  0.9236  2.0076
  622MOL0     H85806  12.502   6.926   1.977 -1.9715  0.1201  3.0248
  622MOL0     H85807  12.427   7.068   1.945  1.4741  0.8125 -1.5437
  622MOL0     H85808  12.633   6.952   1.743 -0.8938  0.3133 -1.3371
  622MOL0     H85809  12.562   7.110   1.717 -0.0185  1.7427  1.5607
  622MOL0     H85810  12.734   7.040   1.940 -0.0890 -0.7677 -0.4553
  622MOL0     H85811  12.648   7.202   1.921  2.6695  1.8890 -1.2303
  622MOL0     H85812  12.762   7.242   1.706 -1.2970 -0.0906 -0.5956
  622MOL0     H85813  12.857   7.093   1.742 -3.0411 -0.9131 -2.0223
  622MOL0     H85814  12.992   7.248   1.803  1.2383 -1.9234  0.5712
  622MOL0     H85815  12.944   7.195   1.961  0.6332 -1.3067 -1.2466
  622MOL0     H85816  11.996   6.750   1.549  2.4208 -0.1373 -0.5670
  622MOL0     H85817  11.809   6.669   1.360  0.1338 -0.1689 -1.0463
  622MOL0     H85818  11.565   6.932   0.902 -1.5694  1.4297  3.1897
  622MOL0     H85819  11.360   6.868   0.789  1.4360 -0.2911 -2.4545
  622MOL0     H85820  11.105   7.793   0.993 -1.1242  3.7291  2.4336
  622MOL0     H85821  11.307   7.811   1.153 -1.2030 -1.1902 -3.0736
  622MOL0     H85822  11.558   7.730   1.425 -2.6732 -2.6813  2.2963
  622MOL0     H85823  11.773   7.837   1.533  0.2703  3.2749 -0.1809
  622MOL0     H85824  11.822   7.869   1.845 -2.8306  0.6769 -1.3398
  622MOL0     H85825  11.951   7.949   1.755  0.2697  0.4877  0.2305
  622MOL0     H85826  11.822   8.003   2.009 -2.3902  1.9921 -1.6970
  622MOL0     H85827  11.851   8.146   1.938  0.1434 -0.4077  3.0293
  622MOL0     H85828  12.083   8.090   1.909  0.6131 -0.3913  0.6723
  622MOL0     H85829  12.016   8.101   2.079 -1.2450  1.3829 -0.7160
  622MOL0     H85830  12.181   7.887   2.015 -0.5165  1.8377  3.3579
  622MOL0     H85831  12.049   7.831   1.923 -0.9423  1.1152 -0.0233
  622MOL0     H85832  11.920   7.736   2.308  1.7459  1.2438  1.2363
  622MOL0     H85833  11.537   8.067   1.783  0.5015 -0.1000 -0.1405
  622MOL0     H85834  11.307   8.035   1.795 -2.1913 -0.5828  1.7430
  622MOL0     H85835  11.229   8.015   1.630 -1.5898 -0.3247  0.6490
  622MOL0     H85836  11.239   7.885   1.755  2.4890 -0.2860  1.3550
  623MOL0     O85837   0.309   5.072   4.052  0.6223  0.4587 -0.1398
  623MOL0     C85838   0.370   5.144   4.131 -0.0176 -0.5602 -0.0776
  623MOL0     O85839   0.429   5.267   4.097  0.3117  0.4274 -0.5728
  623MOL0     C85840   0.434   5.320   3.975  0.1388 -0.2112 -0.8393
  623MOL0     C85841   0.458   5.461   3.972  0.2103  0.3505  0.3752
  623MOL0     C85842   0.458   5.545   3.864 -0.5993 -0.6959 -0.1524
  623MOL0     C85843   0.423   5.484   3.737 -0.6516 -0.8216 -0.2851
  623MOL0     O85844   0.435   5.559   3.630 -0.0607 -0.1155  1.2559
  623MOL0     C85845   0.336   5.535   3.526 -0.5182  1.6639  0.8335
  623MOL0     C85846   0.362   5.586   3.382  0.4081 -0.6083  0.3242
  623MOL0     C85847   0.490   5.525   3.319  0.6808 -0.2807  0.1448
  623MOL0     C85848   0.487   5.372   3.308 -0.5655 -0.3239  1.0515
  623MOL0     C85849   0.602   5.314   3.219  0.5556  0.5476  0.3894
  623MOL0     C85850   0.595   5.164   3.238  0.5329 -0.7896  0.1704
  623MOL0     C85851   0.700   5.118   3.133 -0.3036  0.2058 -0.4164
  623MOL0     C85852   0.740   4.971   3.163 -0.4474  0.3745 -0.5105
  623MOL0     N85853   0.633   4.871   3.135 -0.0377  0.1486  0.1527
  623MOL0     C85854   0.540   4.827   3.228 -0.9752  0.2793 -0.2205
  623MOL0     C85855   0.468   4.732   3.164 -0.0631  0.7808 -0.7111
  623MOL0     C85856   0.374   4.618   3.227 -0.7580 -0.5111  0.8216
  623MOL0     C85857   0.439   4.482   3.248  0.2257  0.8985  0.3147
  623MOL0     C85858   0.338   4.387   3.314  0.1001 -0.3514 -0.4790
  623MOL0     C85859   0.366   4.242   3.247 -0.4471  0.8954  0.3752
  623MOL0     O85860   0.301   4.143   3.323  0.1027  0.6220  0.1036
  623MOL0     C85861   0.326   4.007   3.310 -0.2319 -1.3581  0.1738
  623MOL0     C85862   0.389   3.941   3.197  0.6111 -0.4649 -0.5992
  623MOL0     C85863   0.421   3.800   3.196  0.8728 -0.2815  0.4179
  623MOL0     C85864   0.488   3.736   3.073 -0.5242 -0.5570 -0.0049
  623MOL0     C85865   0.398   3.730   3.320 -0.4518  0.4731  0.9204
  623MOL0     C85866   0.450   3.589   3.329  0.5248  0.2707 -0.7438
  623MOL0     O85867   0.373   3.508   3.396  0.0899  0.6923 -0.6497
  623MOL0     C85868   0.367   3.372   3.373  0.0424 -0.0887  0.9202
  623MOL0     C85869   0.414   3.306   3.256  0.2936  0.0064  0.0498
  623MOL0     C85870   0.375   3.177   3.235  1.8273 -0.3480  0.4732
  623MOL0     C85871   0.293   3.104   3.324 -0.7483  0.1341  0.5286
  623MOL0     O85872   0.247   2.975   3.292  0.8563 -0.1798  0.5227
  623MOL0     C85873   0.174   2.970   3.171 -0.4941 -0.3208 -0.0451
  623MOL0     C85874   0.053   2.878   3.175 -0.1910  0.3427 -0.1315
  623MOL0     C85875   0.070   2.763   3.070  0.7540  0.0178 -0.0576
  623MOL0     C85876   0.085   2.810   2.921  0.4324  0.6194  0.2565
  623MOL0     C85877   0.060   2.684   2.832  0.2500 -0.8366 -0.3395
  623MOL0     C85878   0.048   2.706   2.687  0.4522 -0.2063  0.2504
  623MOL0     C85879   0.179   2.736   2.615 -0.3729 -0.4852  0.6315
  623MOL0     C85880   0.177   2.782   2.477  0.6003 -0.6963 -0.6674
  623MOL0    Cl85881   0.079   2.678   2.361 -0.4817  0.1461  0.0871
  623MOL0     C85882   0.254   3.170   3.448  0.5905 -0.2859  0.4815
  623MOL0     C85883   0.285   3.304   3.465 -0.1088  0.6608  0.1130
  623MOL0     O85884   0.557   3.558   3.276 -0.2435  0.0596  0.4704
  623MOL0     C85885   0.327   3.794   3.419 -0.1877 -0.5403  0.1001
  623MOL0     C85886   0.286   3.926   3.411  0.1111 -0.7637  0.0814
  623MOL0     N85887   0.518   4.729   3.035  0.5910  1.4120 -0.5709
  623MOL0     N85888   0.619   4.799   3.027  0.7153 -0.1008  1.0582
  623MOL0     C85889   0.404   5.345   3.737 -0.9925 -0.5507  0.6248
  623MOL0     C85890   0.405   5.268   3.853 -0.7642  0.0735  0.8332
  623MOL0     C85891   0.365   5.117   4.272  0.8042 -0.4152 -0.5318
  623MOL0     C85892   0.436   5.209   4.354  0.2595  0.9106 -0.5263
  623MOL0     C85893   0.427   5.196   4.497 -0.0312 -0.2215  0.3774
  623MOL0     C85894   0.365   5.090   4.561 -0.0506  0.5954  0.2108
  623MOL0     O85895   0.376   5.072   4.698 -0.5266 -0.1849  0.9740
  623MOL0     C85896   0.349   4.946   4.753 -0.5941 -0.3211 -1.6949
  623MOL0     C85897   0.377   4.933   4.903  1.0012  0.4019  0.0283
  623MOL0     C85898   0.350   4.800   4.980  0.3516  1.0579  0.6551
  623MOL0     C85899   0.350   4.818   5.132  0.9130  0.2632 -0.4667
  623MOL0     C85900   0.350   4.673   5.188  0.7018 -0.1394  0.0135
  623MOL0     C85901   0.355   4.561   5.234  0.3295  0.6364 -0.7336
  623MOL0     C85902   0.301   5.001   4.478 -0.3585  0.1443  0.5547
  623MOL0     C85903   0.293   5.012   4.337 -0.5147  0.3811  0.3305
  623MOL0     C85904   0.190   4.928   4.259 -0.3513  0.0459 -0.4757
  623MOL0     H85905   0.479   5.489   4.075 -1.1354 -4.7864  2.3962
  623MOL0     H85906   0.474   5.652   3.871  0.6939 -0.8967  0.3535
  623MOL0     H85907   0.238   5.560   3.569 -1.7501 -2.9912  1.2578
  623MOL0     H85908   0.313   5.429   3.511 -2.4447  2.2201 -0.5129
  623MOL0     H85909   0.280   5.575   3.310  2.2225  1.2092 -2.2058
  623MOL0     H85910   0.382   5.692   3.398  1.5327 -0.6730 -0.5249
  623MOL0     H85911   0.491   5.557   3.214 -1.7558  0.6922  0.3405
  623MOL0     H85912   0.583   5.556   3.366  1.1594  0.0333 -0.9710
  623MOL0     H85913   0.505   5.326   3.406  0.7213 -2.4873 -0.1358
  623MOL0     H85914   0.392   5.341   3.263 -0.9540  0.5998  1.2016
  623MOL0     H85915   0.698   5.360   3.246  1.2647  1.0921 -2.6782
  623MOL0     H85916   0.592   5.333   3.112  1.0662 -0.3328  0.1759
  623MOL0     H85917   0.613   5.140   3.343 -1.0329 -4.3851 -0.2389
  623MOL0     H85918   0.495   5.136   3.205  1.1559 -0.6919 -1.9096
  623MOL0     H85919   0.787   5.185   3.141  0.7156 -1.0706 -0.5405
  623MOL0     H85920   0.655   5.125   3.033  0.3991  0.7389 -0.7069
  623MOL0     H85921   0.829   4.939   3.108  0.7106  0.3948  1.2548
  623MOL0     H85922   0.777   4.959   3.266  2.4454  2.4728 -1.1876
  623MOL0     H85923   0.537   4.847   3.335 -1.3968 -2.7308  0.4035
  623MOL0     H85924   0.285   4.609   3.164 -0.1008  0.6314 -0.3256
  623MOL0     H85925   0.340   4.670   3.316  0.7133 -1.2997  1.8796
  623MOL0     H85926   0.462   4.445   3.147  0.9263  3.9631 -0.7539
  623MOL0     H85927   0.531   4.498   3.304  0.1620  0.7340  0.4651
  623MOL0     H85928   0.347   4.387   3.423  1.4644  1.8544 -0.5501
  623MOL0     H85929   0.234   4.407   3.287 -0.1804 -1.6385 -0.4090
  623MOL0     H85930   0.339   4.241   3.141  0.6444  2.6873  0.0431
  623MOL0     H85931   0.472   4.217   3.258 -1.0212 -1.9180  0.1879
  623MOL0     H85932   0.416   4.006   3.114  3.2861  2.0944  2.0313
  623MOL0     H85933   0.437   3.785   2.989 -0.9106  1.3378  1.2598
  623MOL0     H85934   0.479   3.628   3.070 -0.7808 -0.5919  1.4376
  623MOL0     H85935   0.591   3.774   3.070 -0.2149 -1.4009 -0.5600
  623MOL0     H85936   0.475   3.365   3.189 -0.8019 -1.3394 -2.2712
  623MOL0     H85937   0.406   3.121   3.147 -3.6282 -1.7220 -1.0113
  623MOL0     H85938   0.151   3.068   3.128  0.7559  0.3797  0.8388
  623MOL0     H85939   0.242   2.924   3.098  1.4363 -0.2583  1.6167
  623MOL0     H85940   0.061   2.825   3.270 -0.8090 -0.6679 -0.6158
  623MOL0     H85941  -0.044   2.928   3.166  0.6571  1.9140 -0.9511
  623MOL0     H85942  -0.015   2.695   3.078  0.4410  0.1558 -1.7885
  623MOL0     H85943   0.157   2.702   3.098  0.6651 -0.4392 -0.7416
  623MOL0     H85944   0.187   2.840   2.894  0.6368 -1.5456 -1.7322
  623MOL0     H85945   0.014   2.887   2.890  0.3474  0.6163  0.4430
  623MOL0     H85946   0.139   2.609   2.840  1.8041  0.3944 -2.6914
  623MOL0     H85947  -0.030   2.634   2.868 -1.0664  2.0531  0.7325
  623MOL0     H85948  -0.025   2.786   2.675  1.3090  0.9036  2.0383
  623MOL0     H85949   0.011   2.612   2.645 -0.4629  0.1891  0.1580
  623MOL0     H85950   0.248   2.652   2.624  0.9419  0.7582  3.9353
  623MOL0     H85951   0.236   2.804   2.680 -0.2827  0.6063 -0.5512
  623MOL0     H85952   0.281   2.790   2.444  0.4227  0.3212 -1.0455
  623MOL0     H85953   0.136   2.884   2.483  0.0140 -1.0144  1.8070
  623MOL0     H85954   0.191   3.118   3.518 -0.4422  1.8142  1.1952
  623MOL0     H85955   0.257   3.350   3.559 -5.4474 -1.8978  0.1244
  623MOL0     H85956   0.309   3.744   3.514  0.6868  1.7399  1.5432
  623MOL0     H85957   0.230   3.968   3.494 -3.4649 -0.7368 -2.1523
  623MOL0     H85958   0.395   5.291   3.643  0.9446  3.2604 -2.0505
  623MOL0     H85959   0.395   5.161   3.844  1.4540 -0.0835 -0.5810
  623MOL0     H85960   0.482   5.297   4.310 -0.3454 -0.2108 -3.6433
  623MOL0     H85961   0.478   5.272   4.554 -0.1209 -0.5200  0.8674
  623MOL0     H85962   0.245   4.918   4.733 -1.3967  0.0410  1.4665
  623MOL0     H85963   0.417   4.880   4.698 -0.9437 -1.0728 -1.2405
  623MOL0     H85964   0.306   5.005   4.942  2.6894  2.0713  0.1578
  623MOL0     H85965   0.481   4.955   4.931  1.0013 -0.9295  1.1890
  623MOL0     H85966   0.250   4.767   4.952 -0.0938 -1.8600  4.6881
  623MOL0     H85967   0.422   4.725   4.947  1.4771  3.1781 -2.1096
  623MOL0     H85968   0.259   4.874   5.156  1.2632  2.1019 -3.0658
  623MOL0     H85969   0.439   4.875   5.159  1.2290  0.1085 -1.1738
  623MOL0     H85970   0.332   4.459   5.258  0.4422  0.7029 -0.3334
  623MOL0     H85971   0.247   4.914   4.515 -2.4794  0.6081 -1.2306
  623MOL0     H85972   0.104   4.978   4.214 -0.5369  1.2817  1.1697
  623MOL0     H85973   0.241   4.878   4.176  3.5760 -0.6199  2.0742
  623MOL0     H85974   0.141   4.854   4.323  1.3241  1.4806  2.6788
  624MOL0     O85975   7.335   2.823   6.358 -0.6722  0.6086 -0.2879
  624MOL0     C85976   7.382   2.765   6.449 -0.5526  0.2334  0.2954
  624MOL0     O85977   7.361   2.629   6.478 -0.3619 -0.6948 -0.2975
  624MOL0     C85978   7.261   2.560   6.419  0.4198 -0.3825 -0.0983
  624MOL0     C85979   7.267   2.422   6.456  0.7664 -0.5421  0.2804
  624MOL0     C85980   7.172   2.330   6.410 -0.4327  0.2075  0.0030
  624MOL0     C85981   7.062   2.378   6.332  0.6152 -0.2431  1.1553
  624MOL0     O85982   6.958   2.301   6.297  0.1123 -0.2941  0.9745
  624MOL0     C85983   6.896   2.223   6.396 -1.1012 -0.2137 -0.0528
  624MOL0     C85984   6.779   2.297   6.439  0.5676  0.0058  0.1456
  624MOL0     C85985   6.666   2.259   6.345  0.2334  0.1800 -0.6716
  624MOL0     C85986   6.550   2.354   6.356  0.0409  0.7723  0.4797
  624MOL0     C85987   6.422   2.290   6.294 -0.2281 -0.1859 -1.0977
  624MOL0     C85988   6.311   2.391   6.281 -0.9085  0.6928  0.2663
  624MOL0     C85989   6.240   2.421   6.412  0.6092  0.3202 -0.0306
  624MOL0     C85990   6.112   2.355   6.449 -0.1124  0.2693  0.0795
  624MOL0     N85991   5.991   2.441   6.429 -0.4273 -0.2688 -0.2019
  624MOL0     C85992   5.934   2.522   6.525 -0.1548 -0.0098 -0.1184
  624MOL0     C85993   5.829   2.589   6.472  0.0343  0.2647  0.2451
  624MOL0     C85994   5.750   2.690   6.555 -0.6760  0.4061  0.6436
  624MOL0     C85995   5.635   2.620   6.623 -0.5799  1.2066  0.1902
  624MOL0     C85996   5.567   2.732   6.708 -0.0252 -0.5057 -0.3828
  624MOL0     C85997   5.447   2.674   6.771  0.6033 -0.3792  0.1694
  624MOL0     O85998   5.381   2.762   6.868 -0.0974 -0.1134 -0.3142
  624MOL0     C85999   5.262   2.823   6.843  0.3145  0.5163  0.0207
  624MOL0     C86000   5.170   2.808   6.742  0.9360  0.0783  0.2409
  624MOL0     C86001   5.050   2.881   6.733  0.2189  0.3508  0.4554
  624MOL0     C86002   4.991   2.863   6.587 -0.1857  0.4475 -0.1216
  624MOL0     C86003   5.001   2.965   6.841 -1.2807  0.0965  0.5131
  624MOL0     C86004   4.876   3.043   6.838 -0.5028 -0.0153 -0.5365
  624MOL0     O86005   4.874   3.150   6.927  0.5765 -0.0428  0.1424
  624MOL0     C86006   4.755   3.216   6.939 -0.5104 -0.5454 -0.5528
  624MOL0     C86007   4.646   3.164   6.998  0.5078 -0.1978  0.1776
  624MOL0     C86008   4.531   3.242   6.996  0.0676  0.4569  0.5255
  624MOL0     C86009   4.523   3.375   6.957 -0.1363 -0.8883 -0.3494
  624MOL0     O86010   4.406   3.436   6.975 -0.3164  0.0218 -0.3611
  624MOL0     C86011   4.366   3.551   6.893 -0.4109 -0.4141 -0.6461
  624MOL0     C86012   4.210   3.563   6.875  0.9612  0.6346 -0.4865
  624MOL0     C86013   4.169   3.692   6.804 -0.4893 -0.3027  0.6296
  624MOL0     C86014   4.026   3.675   6.753  0.8775 -0.7389  0.3034
  624MOL0     C86015   3.952   3.794   6.692 -0.4811 -0.1243  0.3912
  624MOL0     C86016   3.832   3.837   6.787  0.2478  0.6757  0.4207
  624MOL0     C86017   3.720   3.736   6.774  1.5790  0.0213  0.1691
  624MOL0     C86018   3.613   3.785   6.884 -0.4580  1.2147  1.1744
  624MOL0    Cl86019   3.564   3.961   6.868  0.3096 -0.2763 -0.2027
  624MOL0     C86020   4.640   3.434   6.902 -0.4444  0.0518 -0.7247
  624MOL0     C86021   4.752   3.352   6.892 -0.7648  0.9799  0.2040
  624MOL0     O86022   4.781   2.995   6.776 -0.0429 -0.0839  0.1380
  624MOL0     C86023   5.099   2.984   6.942  0.2757  0.7473  0.5587
  624MOL0     C86024   5.226   2.914   6.941 -0.1290  0.4087  0.4986
  624MOL0     N86025   5.817   2.541   6.339 -0.4298 -0.4552  0.0741
  624MOL0     N86026   5.918   2.455   6.317 -0.0798 -0.2022  0.6130
  624MOL0     C86027   7.053   2.516   6.311  0.5145 -0.3048  0.7054
  624MOL0     C86028   7.153   2.607   6.347 -0.2209 -0.0076  0.1850
  624MOL0     C86029   7.466   2.844   6.540 -0.0495  0.5153  0.4226
  624MOL0     C86030   7.553   2.934   6.472 -0.6469  0.4191  0.6676
  624MOL0     C86031   7.639   3.026   6.537  0.1407 -0.0358 -0.0065
  624MOL0     C86032   7.621   3.040   6.681 -0.8709 -0.0163 -0.0745
  624MOL0     O86033   7.689   3.142   6.749  0.2838 -0.3058  0.2789
  624MOL0     C86034   7.785   3.225   6.685  0.8793  1.1324  1.1138
  624MOL0     C86035   7.862   3.300   6.796 -0.3822 -0.4851  0.9177
  624MOL0     C86036   7.793   3.426   6.850  0.2743  0.7405 -0.2509
  624MOL0     C86037   7.821   3.451   7.002  0.0461  0.5993  0.3214
  624MOL0     C86038   7.824   3.594   7.027  0.3980  1.1849  1.3873
  624MOL0     C86039   7.837   3.710   7.061  0.7616 -0.9094 -0.3771
  624MOL0     C86040   7.536   2.956   6.754 -0.3882  0.5191  1.1239
  624MOL0     C86041   7.460   2.860   6.681  1.0748  0.8550  0.2311
  624MOL0     C86042   7.375   2.770   6.768  0.7319  0.0560 -0.2943
  624MOL0     H86043   7.333   2.387   6.534  1.7266 -0.8284 -0.6338
  624MOL0     H86044   7.196   2.227   6.433  2.2101  0.4882 -1.0733
  624MOL0     H86045   6.957   2.205   6.485  0.5634  1.2875 -0.8333
  624MOL0     H86046   6.861   2.133   6.345  0.6301 -0.3611 -1.0455
  624MOL0     H86047   6.747   2.276   6.541 -2.2209  0.6678 -0.5056
  624MOL0     H86048   6.797   2.405   6.438  0.6764 -0.0121  0.1804
  624MOL0     H86049   6.703   2.254   6.242  0.4967  2.8853 -0.7975
  624MOL0     H86050   6.629   2.161   6.375 -1.7113  1.6765  2.3481
  624MOL0     H86051   6.544   2.372   6.464  2.9989  1.5619  0.5878
  624MOL0     H86052   6.581   2.448   6.310  1.7302  0.0096 -0.0144
  624MOL0     H86053   6.407   2.211   6.368  2.6420  0.9859  0.9242
  624MOL0     H86054   6.436   2.244   6.196  1.6821 -0.4003 -0.7658
  624MOL0     H86055   6.358   2.479   6.238  0.2058 -2.4620 -6.0792
  624MOL0     H86056   6.240   2.351   6.208  0.0309  1.4685 -1.1052
  624MOL0     H86057   6.219   2.528   6.407 -0.3537  0.2907  2.3537
  624MOL0     H86058   6.308   2.398   6.495 -2.6064 -1.3866  2.3324
  624MOL0     H86059   6.099   2.263   6.391  3.9515 -0.2313 -0.2831
  624MOL0     H86060   6.124   2.321   6.552 -0.6539  0.1346  0.1035
  624MOL0     H86061   5.969   2.529   6.628 -0.0690 -0.8473 -0.0837
  624MOL0     H86062   5.700   2.769   6.498 -0.7618  0.4794  0.8196
  624MOL0     H86063   5.813   2.749   6.622 -0.3649  1.0190 -0.1796
  624MOL0     H86064   5.560   2.579   6.554 -1.1279  3.5558 -0.7102
  624MOL0     H86065   5.675   2.536   6.681  1.5748  1.5544 -0.6977
  624MOL0     H86066   5.630   2.774   6.788 -1.5721 -1.8388  1.6332
  624MOL0     H86067   5.530   2.814   6.646  0.5461 -0.7038 -1.0059
  624MOL0     H86068   5.379   2.661   6.686  0.0649  3.7845 -0.2343
  624MOL0     H86069   5.480   2.586   6.827  1.0611 -0.0586  0.4042
  624MOL0     H86070   5.184   2.727   6.671  0.1631  0.4548 -0.3492
  624MOL0     H86071   5.043   2.925   6.514  3.8132  0.3225  2.3217
  624MOL0     H86072   4.887   2.895   6.587 -0.7796 -0.9816  3.6111
  624MOL0     H86073   4.986   2.757   6.557 -1.2179  0.0838  1.2518
  624MOL0     H86074   4.642   3.064   7.040 -0.3133  0.1836  1.0529
  624MOL0     H86075   4.441   3.193   7.032  0.1551  0.1547  0.3404
  624MOL0     H86076   4.412   3.639   6.939  0.4593 -1.1618 -0.0379
  624MOL0     H86077   4.398   3.544   6.789  0.4080 -0.3717 -0.3995
  624MOL0     H86078   4.187   3.479   6.810  0.2646  1.5840 -1.5130
  624MOL0     H86079   4.139   3.558   6.959 -1.4089 -0.6130 -2.4360
  624MOL0     H86080   4.235   3.705   6.718 -2.0190  2.9349 -0.2181
  624MOL0     H86081   4.189   3.787   6.855 -2.1623 -0.3199  1.3689
  624MOL0     H86082   3.967   3.637   6.837  1.1474 -0.1276  0.7753
  624MOL0     H86083   4.020   3.591   6.683 -0.4375 -1.8634  1.6801
  624MOL0     H86084   4.022   3.878   6.688 -1.1008  0.3499 -2.7951
  624MOL0     H86085   3.930   3.777   6.586 -0.2999 -0.6106  0.4297
  624MOL0     H86086   3.809   3.941   6.762 -2.0649 -0.4801 -2.9743
  624MOL0     H86087   3.869   3.831   6.890 -1.7527 -1.9178  1.1009
  624MOL0     H86088   3.751   3.633   6.794 -0.6161 -0.6300  0.3997
  624MOL0     H86089   3.680   3.734   6.672 -1.4063 -1.8335  1.2511
  624MOL0     H86090   3.659   3.783   6.983  1.4452  2.4070  0.3694
  624MOL0     H86091   3.523   3.724   6.900 -0.6905  0.7340 -1.4817
  624MOL0     H86092   4.637   3.542   6.885  0.9547 -0.0643 -1.8561
  624MOL0     H86093   4.849   3.391   6.865  0.8529 -1.6005  1.7883
  624MOL0     H86094   5.070   3.049   7.024 -1.4908  1.7135 -0.7559
  624MOL0     H86095   5.297   2.920   7.023  3.0484 -0.4683 -1.9767
  624MOL0     H86096   6.965   2.562   6.268  0.1761  1.8503  3.4760
  624MOL0     H86097   7.126   2.710   6.330 -2.0331 -0.5472 -0.3899
  624MOL0     H86098   7.562   2.929   6.364  1.5723  1.7026  0.7285
  624MOL0     H86099   7.698   3.103   6.490  0.1954 -0.5020 -0.7190
  624MOL0     H86100   7.858   3.167   6.627 -0.7371  1.7630 -1.7108
  624MOL0     H86101   7.738   3.297   6.617  2.0496  0.2297 -0.7368
  624MOL0     H86102   7.956   3.330   6.749 -1.4354 -1.7998 -2.3357
  624MOL0     H86103   7.884   3.223   6.870  0.6589  0.2908  1.4430
  624MOL0     H86104   7.812   3.518   6.794 -1.8639  2.8142  2.1516
  624MOL0     H86105   7.686   3.417   6.829  0.3334  0.3141 -0.3759
  624MOL0     H86106   7.919   3.409   7.027 -0.4458 -0.6529  0.1796
  624MOL0     H86107   7.755   3.392   7.066  1.5440 -0.2357  1.1523
  624MOL0     H86108   7.817   3.812   7.086 -0.8652 -1.2207 -0.2999
  624MOL0     H86109   7.528   2.950   6.862  1.0976  1.5866  1.3244
  624MOL0     H86110   7.406   2.672   6.731  2.0570 -0.0108  0.8924
  624MOL0     H86111   7.406   2.758   6.872 -2.3067 -2.6296  0.4754
  624MOL0     H86112   7.269   2.798   6.768  0.0950 -1.2247  5.0422
  625MOL0     O86113   9.512   8.785   2.424 -1.0430  0.3747  0.2777
  625MOL0     C86114   9.497   8.779   2.546 -0.2244 -0.4559  1.0169
  625MOL0     O86115   9.495   8.885   2.626 -0.1996 -0.0401  0.1119
  625MOL0     C86116   9.478   9.004   2.565  0.6842 -0.4429 -0.0964
  625MOL0     C86117   9.580   9.096   2.594  0.3602  0.3647 -0.9201
  625MOL0     C86118   9.558   9.230   2.570  0.2614 -0.8144  0.5866
  625MOL0     C86119   9.437   9.279   2.511 -0.0952 -0.2707  0.2439
  625MOL0     O86120   9.433   9.417   2.492  0.3459 -0.3409 -0.7112
  625MOL0     C86121   9.307   9.476   2.442 -0.9261  0.4630  0.1870
  625MOL0     C86122   9.302   9.632   2.469  0.0980  0.4791  0.5333
  625MOL0     C86123   9.164   9.697   2.427 -0.6046 -0.6783  0.0945
  625MOL0     C86124   9.112   9.651   2.297 -0.9834 -0.8819  0.1545
  625MOL0     C86125   8.988   9.723   2.257  0.1494 -0.6821  0.5525
  625MOL0     C86126   9.021   9.826   2.139  0.0707  0.6079  0.3381
  625MOL0     C86127   8.898   9.869   2.067 -0.1116 -0.7498 -0.6819
  625MOL0     C86128   8.920   9.981   1.967  0.1126  0.2941  0.3915
  625MOL0     N86129   9.009   9.929   1.857 -0.2092  0.9233  0.6868
  625MOL0     C86130   8.963   9.871   1.737  0.4214  0.0239  0.0348
  625MOL0     C86131   9.063   9.880   1.652  0.4074  0.1420  0.0419
  625MOL0     C86132   9.038   9.835   1.507 -0.3886 -1.1204 -0.4753
  625MOL0     C86133   9.017   9.687   1.495  0.6839  0.2571  0.4648
  625MOL0     C86134   8.971   9.647   1.357  0.5443  0.3278  0.5213
  625MOL0     C86135   8.967   9.502   1.334 -0.2945  0.5310 -0.3695
  625MOL0     O86136   8.856   9.457   1.405 -0.5823  1.1967 -0.0817
  625MOL0     C86137   8.823   9.327   1.386  0.1900  0.0993 -0.1170
  625MOL0     C86138   8.875   9.243   1.291  0.3407  0.3623  0.5200
  625MOL0     C86139   8.825   9.115   1.281 -0.4560  0.7798  0.7518
  625MOL0     C86140   8.889   9.036   1.166  0.7368 -0.3426 -0.3486
  625MOL0     C86141   8.720   9.065   1.351  0.2849 -0.5843 -0.2255
  625MOL0     C86142   8.656   8.930   1.339  0.0241 -0.2123  0.8499
  625MOL0     O86143   8.573   8.896   1.445  0.8183  0.1781  0.3817
  625MOL0     C86144   8.506   8.783   1.434 -0.8971 -0.0851 -0.4119
  625MOL0     C86145   8.553   8.655   1.474  0.0108 -0.1530  0.7940
  625MOL0     C86146   8.475   8.543   1.462  0.1596  1.0698  0.1883
  625MOL0     C86147   8.342   8.544   1.414  0.6384  0.3497  0.6446
  625MOL0     O86148   8.273   8.432   1.433  0.5437 -0.3172  0.1335
  625MOL0     C86149   8.205   8.397   1.315  0.3336  0.2732  0.2809
  625MOL0     C86150   8.286   8.346   1.194  0.6724  0.2747 -0.3347
  625MOL0     C86151   8.240   8.398   1.057  0.6982 -0.6452 -0.5756
  625MOL0     C86152   8.254   8.549   1.021  0.2592  0.6304  0.6645
  625MOL0     C86153   8.391   8.562   0.949  0.2498  0.2621 -0.1930
  625MOL0     C86154   8.424   8.709   0.943 -0.7005  0.0354  0.2455
  625MOL0     C86155   8.562   8.714   0.858  0.2610  0.0742  0.1042
  625MOL0     C86156   8.675   8.680   0.954 -0.1638  0.7052  0.0544
  625MOL0    Cl86157   8.820   8.694   0.875 -0.0859 -0.1580  0.7918
  625MOL0     C86158   8.298   8.669   1.380  0.9735  0.4301  0.3739
  625MOL0     C86159   8.375   8.790   1.384  0.0310  1.6449  0.3214
  625MOL0     O86160   8.673   8.866   1.236 -0.9116 -0.4466  0.1769
  625MOL0     C86161   8.687   9.153   1.460  0.6199 -0.2881  0.2743
  625MOL0     C86162   8.724   9.283   1.461 -0.1334 -0.1740  0.3646
  625MOL0     N86163   9.170   9.948   1.718  1.0475 -0.1735  0.6649
  625MOL0     N86164   9.135   9.973   1.841  0.2061 -0.3181  0.4308
  625MOL0     C86165   9.346   9.181   2.467  0.2044  0.2564  0.3525
  625MOL0     C86166   9.360   9.039   2.496  0.7414 -0.1248 -0.2924
  625MOL0     C86167   9.474   8.647   2.604 -0.1829 -0.1383 -0.2233
  625MOL0     C86168   9.396   8.561   2.532  0.1480 -0.4407 -0.1314
  625MOL0     C86169   9.348   8.438   2.582 -0.8120 -0.7165  0.0611
  625MOL0     C86170   9.393   8.395   2.710  1.3311  0.3230  0.1423
  625MOL0     O86171   9.337   8.280   2.772 -0.5765  0.0625  0.2465
  625MOL0     C86172   9.359   8.273   2.918 -0.4495  0.2241 -0.3261
  625MOL0     C86173   9.268   8.156   2.975 -0.0130 -0.3834  0.0640
  625MOL0     C86174   9.335   8.016   2.950  0.3566 -0.5859  0.1947
  625MOL0     C86175   9.269   7.895   3.006  0.5162 -0.2038  0.5291
  625MOL0     C86176   9.292   7.873   3.150  0.4049 -0.3643 -0.5420
  625MOL0     C86177   9.331   7.846   3.261 -0.6868  1.5081  0.0521
  625MOL0     C86178   9.493   8.470   2.768 -0.0065 -1.1953 -0.6235
  625MOL0     C86179   9.533   8.601   2.717  0.8299 -0.5862  0.2615
  625MOL0     C86180   9.626   8.693   2.790  0.7713 -0.1716  0.1912
  625MOL0     H86181   9.667   9.049   2.639 -0.2268  0.1662  0.0292
  625MOL0     H86182   9.637   9.300   2.594  0.2893 -0.4020 -0.6278
  625MOL0     H86183   9.221   9.428   2.490 -0.7169  1.0671  1.1997
  625MOL0     H86184   9.306   9.462   2.334  0.8263  1.1133  0.0532
  625MOL0     H86185   9.324   9.646   2.575  1.7008 -1.8455  0.5667
  625MOL0     H86186   9.380   9.680   2.410 -0.3173 -2.0981 -2.4269
  625MOL0     H86187   9.084   9.673   2.499 -2.9982  0.8841 -1.8892
  625MOL0     H86188   9.188   9.803   2.423 -2.5358 -0.1511  1.1846
  625MOL0     H86189   9.183   9.670   2.216  4.5123  0.8846  4.6916
  625MOL0     H86190   9.094   9.543   2.301 -2.5822 -0.7601 -2.1685
  625MOL0     H86191   8.925   9.775   2.330  2.3903  1.6856  0.9217
  625MOL0     H86192   8.933   9.646   2.202 -0.7556  0.4743 -0.2013
  625MOL0     H86193   9.054   9.920   2.183  1.6074  0.2218  0.0707
  625MOL0     H86194   9.104   9.798   2.073  0.5017  0.4614  0.9361
  625MOL0     H86195   8.836   9.919   2.142 -2.6745 -2.5035 -1.5214
  625MOL0     H86196   8.850   9.784   2.018  2.6975 -0.1209 -5.1447
  625MOL0     H86197   8.824  10.019   1.932  0.0178 -1.8809 -1.9622
  625MOL0     H86198   8.986  10.061   2.003  1.9498  0.2821 -2.6066
  625MOL0     H86199   8.864   9.834   1.712  0.2411  1.5023 -1.6390
  625MOL0     H86200   9.130   9.857   1.450 -1.4451  1.1323 -1.4660
  625MOL0     H86201   8.959   9.896   1.461  0.9446  1.4203  0.3949
  625MOL0     H86202   9.110   9.629   1.501 -0.5366 -2.0873 -1.6119
  625MOL0     H86203   8.958   9.662   1.583  2.5148  0.3322  1.7917
  625MOL0     H86204   8.869   9.687   1.347 -0.4525 -2.3052 -0.6027
  625MOL0     H86205   9.035   9.700   1.286  1.3128 -1.4573 -0.1688
  625MOL0     H86206   8.953   9.488   1.227  0.7643  2.1900 -0.7633
  625MOL0     H86207   9.060   9.454   1.365 -0.6367 -0.2459 -0.5294
  625MOL0     H86208   8.954   9.277   1.225  0.4199 -1.1542 -0.2088
  625MOL0     H86209   8.818   8.978   1.107  0.8375 -1.1588  0.3251
  625MOL0     H86210   8.955   8.958   1.205 -0.4515 -1.5388 -0.6699
  625MOL0     H86211   8.959   9.098   1.110  1.3747  1.6474  2.4072
  625MOL0     H86212   8.656   8.651   1.508  0.6099 -3.4107 -0.9969
  625MOL0     H86213   8.510   8.452   1.509 -1.4965 -1.5299 -3.1168
  625MOL0     H86214   8.130   8.325   1.348 -2.3958  1.8023 -2.1512
  625MOL0     H86215   8.133   8.473   1.282  0.4409 -0.1475 -0.9800
  625MOL0     H86216   8.391   8.366   1.218  0.1049  1.4504  1.3228
  625MOL0     H86217   8.263   8.239   1.201 -0.5322  0.5664  0.5864
  625MOL0     H86218   8.133   8.377   1.066  0.6864  0.1613  4.4413
  625MOL0     H86219   8.291   8.339   0.981 -0.2321 -2.1615 -0.0605
  625MOL0     H86220   8.245   8.600   1.117  2.4950 -2.7036  2.8586
  625MOL0     H86221   8.176   8.582   0.952 -0.5635  1.4882  1.9542
  625MOL0     H86222   8.471   8.499   0.991  0.4009 -0.3154 -1.2892
  625MOL0     H86223   8.390   8.513   0.851 -0.4298  0.1747 -0.1456
  625MOL0     H86224   8.430   8.759   1.041  0.9148  0.3753  0.0014
  625MOL0     H86225   8.337   8.758   0.898 -1.8644 -1.1256  1.1412
  625MOL0     H86226   8.578   8.820   0.835 -1.2195  0.0127 -1.3444
  625MOL0     H86227   8.576   8.651   0.770  0.6674 -0.3295  0.4484
  625MOL0     H86228   8.662   8.573   0.975  1.6829  0.6130  0.9232
  625MOL0     H86229   8.678   8.742   1.044  3.1282  0.6570  0.1021
  625MOL0     H86230   8.194   8.668   1.349  0.8685 -2.5292  0.6010
  625MOL0     H86231   8.331   8.889   1.377 -1.4083  1.0744  0.9597
  625MOL0     H86232   8.628   9.104   1.537 -1.6668  1.4300 -0.2484
  625MOL0     H86233   8.692   9.353   1.536  1.0472  0.4466  0.3225
  625MOL0     H86234   9.253   9.212   2.420 -0.9459 -1.5528  1.3477
  625MOL0     H86235   9.291   8.962   2.463 -0.8618  0.9724  0.3990
  625MOL0     H86236   9.354   8.583   2.434 -1.5856 -2.2056  0.1614
  625MOL0     H86237   9.293   8.371   2.517 -0.3647 -1.1434  0.1158
  625MOL0     H86238   9.464   8.258   2.941 -0.5121 -0.7938 -0.6847
  625MOL0     H86239   9.321   8.366   2.962 -2.8483 -0.0256 -1.6703
  625MOL0     H86240   9.180   8.155   2.909 -0.5566  2.5711  0.6003
  625MOL0     H86241   9.242   8.177   3.079  0.6521  1.8333 -0.1604
  625MOL0     H86242   9.345   8.003   2.842 -3.5279  1.4964 -0.6124
  625MOL0     H86243   9.436   8.012   2.991  0.3224  2.1522  0.7548
  625MOL0     H86244   9.295   7.798   2.963  2.1856  0.4255  0.0486
  625MOL0     H86245   9.162   7.910   2.985  0.1608 -0.5930  1.9394
  625MOL0     H86246   9.371   7.810   3.354  1.1151 -1.1831 -1.6172
  625MOL0     H86247   9.533   8.422   2.857 -4.6382 -3.8227  0.3627
  625MOL0     H86248   9.607   8.799   2.774 -0.3877 -0.3194  0.5112
  625MOL0     H86249   9.609   8.686   2.898 -1.2348 -2.5678 -0.1886
  625MOL0     H86250   9.732   8.684   2.764  0.3468 -0.4256 -1.5936
  626MOL0     O86251   6.771   5.964   4.807  0.1368  0.0271  0.4355
  626MOL0     C86252   6.707   5.905   4.883  0.0027 -0.7064 -0.1851
  626MOL0     O86253   6.720   5.769   4.904  0.5866  0.2047 -0.3297
  626MOL0     C86254   6.784   5.675   4.828  0.0440 -0.6292  0.7273
  626MOL0     C86255   6.823   5.561   4.894  0.2972  0.3535  0.0029
  626MOL0     C86256   6.884   5.452   4.825 -0.6574  0.2767 -0.4751
  626MOL0     C86257   6.915   5.465   4.692  0.7380  0.1338  0.3024
  626MOL0     O86258   6.980   5.368   4.628 -0.6053  0.4681  0.3161
  626MOL0     C86259   6.965   5.358   4.488 -0.7325  0.3386  0.7353
  626MOL0     C86260   7.010   5.228   4.432  0.0663  0.4464  0.0797
  626MOL0     C86261   6.943   5.116   4.506  0.1847 -0.3207 -0.0984
  626MOL0     C86262   6.964   4.977   4.447  0.3178  0.3429 -0.6566
  626MOL0     C86263   6.869   4.958   4.333 -0.1622  0.4113  0.7817
  626MOL0     C86264   6.849   4.817   4.269 -0.3580 -0.2353  0.5845
  626MOL0     C86265   6.809   4.710   4.377  0.6984  0.0470  0.5907
  626MOL0     C86266   6.667   4.742   4.432  0.0290 -0.1023 -0.4596
  626MOL0     N86267   6.559   4.761   4.331 -1.1950  0.6430 -0.6710
  626MOL0     C86268   6.505   4.651   4.270 -0.4041 -1.1635 -0.1620
  626MOL0     C86269   6.397   4.703   4.212 -0.0382 -0.2541 -1.0668
  626MOL0     C86270   6.289   4.617   4.152  0.6522 -0.6936  0.0755
  626MOL0     C86271   6.205   4.521   4.239  0.3154  0.1115 -0.4243
  626MOL0     C86272   6.124   4.414   4.159  0.9552 -0.5658  0.2820
  626MOL0     C86273   6.208   4.317   4.079  0.4327 -0.5875 -0.1497
  626MOL0     O86274   6.334   4.294   4.153  0.0659  0.1812  0.3356
  626MOL0     C86275   6.446   4.311   4.077 -0.0686 -0.1643  0.4488
  626MOL0     C86276   6.463   4.278   3.935  0.6346 -0.2765 -0.0485
  626MOL0     C86277   6.582   4.317   3.869 -0.3763 -0.5051 -0.9451
  626MOL0     C86278   6.579   4.311   3.714  1.1347  0.5884 -0.0604
  626MOL0     C86279   6.687   4.370   3.952 -0.6748 -0.6021  0.2096
  626MOL0     C86280   6.817   4.419   3.887  0.1547  0.3883 -0.7423
  626MOL0     O86281   6.889   4.502   3.971 -0.1368 -0.5056  0.0433
  626MOL0     C86282   7.021   4.524   3.953  0.2182 -0.0157 -0.5174
  626MOL0     C86283   7.128   4.431   3.948 -0.1783 -0.2648 -0.3373
  626MOL0     C86284   7.258   4.465   3.928  0.1466 -1.0971 -0.1305
  626MOL0     C86285   7.280   4.609   3.931  0.0929  0.2009 -0.6000
  626MOL0     O86286   7.404   4.656   3.885 -0.0004 -0.0208  0.3151
  626MOL0     C86287   7.484   4.724   3.980  1.3513  0.6281 -0.2262
  626MOL0     C86288   7.617   4.763   3.904  0.3000 -0.1591 -0.7173
  626MOL0     C86289   7.679   4.647   3.844  0.9490  0.0411  0.2427
  626MOL0     C86290   7.836   4.657   3.858  0.3678 -1.5376  0.4210
  626MOL0     C86291   7.887   4.604   3.986 -0.2366  0.3946 -0.1131
  626MOL0     C86292   8.028   4.653   4.031 -0.0418  0.5043 -0.2897
  626MOL0     C86293   8.133   4.582   3.952 -0.3031 -0.8192 -0.8932
  626MOL0     C86294   8.268   4.594   4.014  0.0246  0.6184  0.3823
  626MOL0    Cl86295   8.338   4.762   4.031 -0.1586 -0.2262 -0.1804
  626MOL0     C86296   7.180   4.705   3.956 -0.3034 -0.6281 -0.0396
  626MOL0     C86297   7.046   4.663   3.958  0.3619  0.2819 -0.0182
  626MOL0     O86298   6.849   4.392   3.777 -0.5952 -0.5851 -0.4173
  626MOL0     C86299   6.677   4.376   4.090 -0.5741  0.3254 -0.1464
  626MOL0     C86300   6.554   4.343   4.146 -0.5847 -0.0295 -0.3237
  626MOL0     N86301   6.398   4.844   4.229 -0.2129 -0.0007 -0.2776
  626MOL0     N86302   6.493   4.879   4.310 -0.2877 -0.0442  0.3092
  626MOL0     C86303   6.893   5.588   4.623 -0.7141  0.5391 -1.1319
  626MOL0     C86304   6.822   5.688   4.695 -0.5324  0.4903  0.1280
  626MOL0     C86305   6.616   5.981   4.970  0.9168 -0.0135 -0.3358
  626MOL0     C86306   6.567   6.099   4.916  0.3658  0.8594 -0.1743
  626MOL0     C86307   6.493   6.202   4.986  0.2224  1.0202  0.4529
  626MOL0     C86308   6.458   6.177   5.114 -0.2745  1.1200 -0.1597
  626MOL0     O86309   6.377   6.262   5.174  0.2197 -0.4817  0.5079
  626MOL0     C86310   6.429   6.322   5.291 -0.7304 -0.0818 -0.0832
  626MOL0     C86311   6.330   6.441   5.346 -0.4389 -0.6411  0.5396
  626MOL0     C86312   6.208   6.371   5.389 -0.1954  0.0142 -0.5630
  626MOL0     C86313   6.081   6.445   5.428 -0.6398 -0.1864 -0.1062
  626MOL0     C86314   6.099   6.511   5.565  0.6143 -0.8032 -0.0715
  626MOL0     C86315   6.101   6.578   5.665 -0.4968  0.2905 -0.3618
  626MOL0     C86316   6.497   6.052   5.169 -0.4308 -0.1041  0.1871
  626MOL0     C86317   6.576   5.951   5.105 -0.0479 -1.1196 -0.0632
  626MOL0     C86318   6.612   5.832   5.174 -0.2494 -0.3285  0.4736
  626MOL0     H86319   6.829   5.551   5.002  0.0880  0.8228  0.0607
  626MOL0     H86320   6.909   5.360   4.875  1.8102  0.9552 -0.3335
  626MOL0     H86321   7.015   5.436   4.430 -1.4408  0.7973  0.7168
  626MOL0     H86322   6.861   5.368   4.454 -1.7010 -1.7159  2.7977
  626MOL0     H86323   6.989   5.210   4.327 -0.6782  0.7843  0.1685
  626MOL0     H86324   7.119   5.238   4.438  0.1744 -1.0738  1.7197
  626MOL0     H86325   6.986   5.130   4.606 -0.5237  4.0679 -0.2138
  626MOL0     H86326   6.839   5.148   4.518  0.7457  1.0450  1.5205
  626MOL0     H86327   7.070   4.959   4.424  1.2950  2.5493  1.5992
  626MOL0     H86328   6.940   4.908   4.528  0.8061 -0.5342 -1.2411
  626MOL0     H86329   6.914   5.020   4.255  1.9650  0.4537  1.9818
  626MOL0     H86330   6.773   4.995   4.370 -0.0089 -0.0933  1.6990
  626MOL0     H86331   6.775   4.817   4.188  1.3997 -1.1086 -1.0988
  626MOL0     H86332   6.937   4.780   4.215 -1.3785 -1.0059 -0.6305
  626MOL0     H86333   6.881   4.709   4.458  0.4901  0.5381  0.7892
  626MOL0     H86334   6.796   4.620   4.316  0.8144  1.1889 -1.1937
  626MOL0     H86335   6.638   4.657   4.494 -0.6183  0.8016  0.5079
  626MOL0     H86336   6.673   4.830   4.497  1.4923 -1.2894  1.1011
  626MOL0     H86337   6.535   4.548   4.285 -1.1170 -1.4131 -0.4051
  626MOL0     H86338   6.344   4.565   4.074 -0.2322  0.2309 -1.2115
  626MOL0     H86339   6.215   4.681   4.102 -0.3905 -0.5962  1.6413
  626MOL0     H86340   6.287   4.484   4.303  0.8385  0.4302 -0.8992
  626MOL0     H86341   6.138   4.578   4.304  0.8218  3.2097 -2.4051
  626MOL0     H86342   6.067   4.349   4.226 -1.6203  0.9113 -0.3567
  626MOL0     H86343   6.054   4.465   4.094  0.8885 -2.3073 -1.0937
  626MOL0     H86344   6.150   4.225   4.078 -0.7478  0.1349 -1.2812
  626MOL0     H86345   6.227   4.359   3.980  0.3568 -1.3679 -0.4978
  626MOL0     H86346   6.378   4.254   3.872  0.5563 -0.0123 -0.0446
  626MOL0     H86347   6.578   4.404   3.657 -3.1624  1.9938  1.8676
  626MOL0     H86348   6.483   4.264   3.690  0.7267  0.8407  1.0237
  626MOL0     H86349   6.657   4.243   3.678 -0.3326 -0.9002 -0.5456
  626MOL0     H86350   7.098   4.327   3.945  2.9852 -1.3083  0.6980
  626MOL0     H86351   7.337   4.406   3.885  1.9739  1.2519 -0.2026
  626MOL0     H86352   7.443   4.820   4.012  3.8740  0.9450  2.5006
  626MOL0     H86353   7.502   4.665   4.071 -4.7443 -2.3342 -0.4221
  626MOL0     H86354   7.603   4.829   3.818  3.0684  3.9629  1.6045
  626MOL0     H86355   7.685   4.815   3.972  2.0787 -2.0371 -0.9600
  626MOL0     H86356   7.651   4.634   3.739 -2.8168  4.5652  0.3656
  626MOL0     H86357   7.654   4.555   3.898  0.6442 -1.0190 -1.6146
  626MOL0     H86358   7.861   4.763   3.847 -3.1653 -0.5469  0.7871
  626MOL0     H86359   7.872   4.608   3.767  0.6038 -4.3120  1.8876
  626MOL0     H86360   7.819   4.648   4.060  0.2078 -0.4903  0.8516
  626MOL0     H86361   7.877   4.496   3.979  1.2864  0.2621 -0.6220
  626MOL0     H86362   8.046   4.641   4.138  0.2647 -1.3927 -0.5101
  626MOL0     H86363   8.023   4.761   4.017  2.0778  0.7388  0.4901
  626MOL0     H86364   8.126   4.626   3.852 -4.9419 -0.6260 -0.7112
  626MOL0     H86365   8.115   4.474   3.950 -0.8961 -0.7217 -0.9236
  626MOL0     H86366   8.343   4.538   3.958 -0.7681  0.3989 -0.4894
  626MOL0     H86367   8.252   4.554   4.114 -1.6161  0.3459  0.0314
  626MOL0     H86368   7.182   4.811   3.980 -2.9020 -0.1209 -1.7069
  626MOL0     H86369   6.966   4.737   3.964  0.3837  1.1048 -5.0916
  626MOL0     H86370   6.748   4.426   4.156 -1.5949  0.0663  1.2079
  626MOL0     H86371   6.538   4.333   4.253 -2.0426 -0.8335 -0.5883
  626MOL0     H86372   6.924   5.604   4.520  0.4095 -1.5042 -1.1754
  626MOL0     H86373   6.791   5.780   4.646  0.8085  0.9382  0.0693
  626MOL0     H86374   6.590   6.129   4.814 -2.1292  1.8165 -0.5220
  626MOL0     H86375   6.459   6.292   4.934 -0.1949  1.5539  1.6129
  626MOL0     H86376   6.447   6.250   5.372 -1.0141 -0.6212 -0.4935
  626MOL0     H86377   6.520   6.373   5.260 -0.7518  0.1681  0.2525
  626MOL0     H86378   6.310   6.519   5.272 -0.6583  1.7210  2.9441
  626MOL0     H86379   6.373   6.495   5.431 -1.3742  1.5520 -0.2814
  626MOL0     H86380   6.183   6.314   5.299 -0.1827 -1.3717  0.2891
  626MOL0     H86381   6.242   6.305   5.469  1.4375 -0.3785 -1.5490
  626MOL0     H86382   5.996   6.377   5.423 -0.1732 -0.7569 -0.3646
  626MOL0     H86383   6.064   6.526   5.357  0.3816 -1.9378 -2.4737
  626MOL0     H86384   6.097   6.650   5.743  1.1885 -0.0644  0.0879
  626MOL0     H86385   6.465   6.030   5.270 -0.6348  0.5858  0.2748
  626MOL0     H86386   6.721   5.819   5.181 -0.3213 -1.1069  0.2266
  626MOL0     H86387   6.555   5.841   5.267  0.3163  0.3718  0.7627
  626MOL0     H86388   6.568   5.755   5.111  0.2790  0.7554 -1.2924
  627MOL0     O86389   5.849   0.428   4.878  0.1142 -0.2179 -0.1187
  627MOL0     C86390   5.749   0.491   4.834  0.2629 -0.5068  0.7604
  627MOL0     O86391   5.627   0.517   4.901  0.4689 -0.2629  0.3604
  627MOL0     C86392   5.618   0.466   5.028 -0.6293 -0.3599 -0.0321
  627MOL0     C86393   5.636   0.325   5.046 -0.2066  0.1968  0.3072
  627MOL0     C86394   5.599   0.255   5.167  0.8234  0.6358 -0.0225
  627MOL0     C86395   5.567   0.338   5.279 -0.0245  0.1435 -0.5924
  627MOL0     O86396   5.533   0.297   5.409 -0.5413  0.2235 -0.5285
  627MOL0     C86397   5.523   0.156   5.426  0.2025  0.7178  0.0307
  627MOL0     C86398   5.545   0.126   5.578  0.3478 -0.5019 -0.0915
  627MOL0     C86399   5.577  -0.025   5.601 -0.5380 -0.0420 -0.4875
  627MOL0     C86400   5.442  -0.100   5.593  0.6220  0.4146  0.0529
  627MOL0     C86401   5.464  -0.252   5.613 -0.6728  0.8195  0.5877
  627MOL0     C86402   5.534  -0.303   5.737 -0.7289 -0.4970 -0.2147
  627MOL0     C86403   5.470  -0.256   5.864  0.1472 -0.7586 -0.3227
  627MOL0     C86404   5.323  -0.285   5.880  0.2334 -0.1362 -0.3839
  627MOL0     N86405   5.278  -0.265   6.022  0.1587  0.5712  0.4776
  627MOL0     C86406   5.212  -0.147   6.064 -0.0488  0.3069 -0.1352
  627MOL0     C86407   5.226  -0.151   6.195 -0.6312 -0.3924 -0.0593
  627MOL0     C86408   5.179  -0.035   6.286  0.7156  1.4914 -1.1493
  627MOL0     C86409   5.030  -0.004   6.246 -0.2254  0.3913  0.4976
  627MOL0     C86410   4.960   0.088   6.346 -0.0436  0.3593  0.8458
  627MOL0     C86411   4.806   0.068   6.361 -0.1455 -0.7218 -0.2423
  627MOL0     O86412   4.756   0.195   6.421 -0.0075  0.3892  0.1023
  627MOL0     C86413   4.625   0.223   6.417  0.2528 -0.0054  0.4116
  627MOL0     C86414   4.581   0.314   6.511 -0.4551 -0.4538  0.4761
  627MOL0     C86415   4.451   0.342   6.533  0.2650  0.6175 -0.0658
  627MOL0     C86416   4.417   0.438   6.645  0.8748  0.1018 -0.7393
  627MOL0     C86417   4.347   0.275   6.460  0.2302  0.2261  0.1667
  627MOL0     C86418   4.201   0.286   6.470  0.2063  0.1152 -0.7195
  627MOL0     O86419   4.119   0.236   6.375  0.7339  0.5562  0.5550
  627MOL0     C86420   3.982   0.253   6.406  0.0238 -0.1203  0.9205
  627MOL0     C86421   3.911   0.366   6.360  1.1099 -0.3651 -0.2343
  627MOL0     C86422   3.772   0.381   6.377  0.1177  0.1448 -0.9358
  627MOL0     C86423   3.698   0.285   6.450 -1.0560 -0.2899 -0.4349
  627MOL0     O86424   3.570   0.294   6.499 -0.5008  0.5487  0.2844
  627MOL0     C86425   3.489   0.398   6.443  0.1430  0.3418 -0.1345
  627MOL0     C86426   3.342   0.382   6.479  0.7384 -0.8731  0.3313
  627MOL0     C86427   3.256   0.497   6.438  0.4404  0.6986  0.1703
  627MOL0     C86428   3.112   0.480   6.482  0.4760  0.1703 -0.4669
  627MOL0     C86429   3.024   0.574   6.392  0.1539 -0.3312 -0.1221
  627MOL0     C86430   2.888   0.507   6.363  0.5712 -0.6519 -0.5325
  627MOL0     C86431   2.790   0.493   6.479  1.4273 -0.4348 -0.8359
  627MOL0     C86432   2.718   0.626   6.511 -0.9217 -1.4794 -0.0360
  627MOL0    Cl86433   2.625   0.684   6.366  0.5618  0.2174  0.0538
  627MOL0     C86434   3.770   0.171   6.501  0.4105  0.2713  0.3110
  627MOL0     C86435   3.907   0.154   6.467  0.9848  0.8146  0.2383
  627MOL0     O86436   4.161   0.336   6.573  0.0668  0.3446 -0.0038
  627MOL0     C86437   4.392   0.192   6.362 -0.7963 -0.5677 -0.8757
  627MOL0     C86438   4.526   0.157   6.341  0.0538  0.0488 -1.2499
  627MOL0     N86439   5.271  -0.276   6.234  0.5850 -0.1945 -0.5219
  627MOL0     N86440   5.310  -0.339   6.131  0.2314  0.7308  0.3521
  627MOL0     C86441   5.545   0.479   5.259  0.1126  0.2706 -0.1543
  627MOL0     C86442   5.562   0.546   5.133  0.2656 -0.4016 -0.0469
  627MOL0     C86443   5.747   0.541   4.688  0.1212 -0.1909 -0.3562
  627MOL0     C86444   5.863   0.530   4.609  0.7669  0.4714  0.4332
  627MOL0     C86445   5.869   0.551   4.477  0.3620  0.9000 -0.2150
  627MOL0     C86446   5.761   0.606   4.411  0.1019 -0.0816 -0.1243
  627MOL0     O86447   5.758   0.621   4.276 -0.4361  0.7117  0.3005
  627MOL0     C86448   5.744   0.494   4.206  0.9643 -0.7877 -1.4967
  627MOL0     C86449   5.824   0.499   4.084 -0.6336  0.3880  0.5006
  627MOL0     C86450   5.953   0.559   4.115 -0.1160  0.5828  0.1853
  627MOL0     C86451   6.055   0.528   4.002 -0.0356 -0.7339 -0.1900
  627MOL0     C86452   6.155   0.432   4.039  0.2858 -0.1860  0.2539
  627MOL0     C86453   6.239   0.344   4.047  0.9172  0.1817 -0.9000
  627MOL0     C86454   5.644   0.623   4.485 -0.6181 -0.3155  0.2803
  627MOL0     C86455   5.633   0.590   4.617  1.0263  0.1037  0.8641
  627MOL0     C86456   5.494   0.614   4.672  0.4532 -0.1248 -0.2716
  627MOL0     H86457   5.665   0.258   4.966  1.6265 -0.7218  1.6745
  627MOL0     H86458   5.586   0.148   5.172 -1.2919  0.8897  4.7432
  627MOL0     H86459   5.601   0.106   5.367 -3.2741 -1.7206 -2.9790
  627MOL0     H86460   5.425   0.114   5.399 -0.0577  0.1675  1.7361
  627MOL0     H86461   5.636   0.182   5.602 -1.0897  0.6921  3.1454
  627MOL0     H86462   5.461   0.156   5.642  2.6199  0.0703  2.8251
  627MOL0     H86463   5.649  -0.068   5.531 -0.1059 -0.9666  0.4800
  627MOL0     H86464   5.616  -0.035   5.703  1.0831  0.2938 -1.0376
  627MOL0     H86465   5.366  -0.063   5.664  0.9421 -0.2643  0.7594
  627MOL0     H86466   5.394  -0.084   5.496  0.1942 -0.0508  0.1838
  627MOL0     H86467   5.517  -0.289   5.524 -0.3276 -3.0745  2.1984
  627MOL0     H86468   5.363  -0.294   5.604  0.0673 -0.7897 -1.0748
  627MOL0     H86469   5.537  -0.413   5.736 -2.0980 -0.5615  0.4110
  627MOL0     H86470   5.639  -0.275   5.750 -0.5753 -0.9553 -0.4096
  627MOL0     H86471   5.480  -0.149   5.885  1.1847 -0.9800  0.4109
  627MOL0     H86472   5.528  -0.304   5.944  2.2907  2.0819 -0.0270
  627MOL0     H86473   5.277  -0.214   5.811  1.8342 -1.8682 -3.4469
  627MOL0     H86474   5.304  -0.389   5.853 -1.9291 -0.0456  0.6051
  627MOL0     H86475   5.161  -0.071   6.005  0.0268  0.1979 -0.3442
  627MOL0     H86476   5.235   0.058   6.281  3.8449  0.0831  2.6753
  627MOL0     H86477   5.191  -0.080   6.385  1.0514  2.6385 -0.6619
  627MOL0     H86478   5.013   0.043   6.148 -0.7702 -4.4235 -2.0433
  627MOL0     H86479   4.980  -0.101   6.253 -3.1576  1.9391  2.7962
  627MOL0     H86480   5.004   0.092   6.446 -2.1894  2.6166  1.8237
  627MOL0     H86481   4.974   0.192   6.313 -0.3224 -0.3371 -1.6199
  627MOL0     H86482   4.769   0.043   6.261  3.1222 -0.9059 -1.5035
  627MOL0     H86483   4.771  -0.017   6.422  0.2607 -1.4598 -1.0189
  627MOL0     H86484   4.652   0.374   6.567 -3.8768  2.2637  2.3071
  627MOL0     H86485   4.333   0.506   6.629  2.6853  2.6055 -0.2022
  627MOL0     H86486   4.498   0.505   6.676 -0.0123  2.3622 -2.9922
  627MOL0     H86487   4.396   0.371   6.730  0.6678  0.3588 -0.5870
  627MOL0     H86488   3.963   0.447   6.309  1.1548  1.6919  2.8051
  627MOL0     H86489   3.720   0.471   6.347 -2.2847 -1.5631 -2.2068
  627MOL0     H86490   3.531   0.494   6.472  1.7845 -0.6723  1.0097
  627MOL0     H86491   3.497   0.400   6.334 -1.0214  0.2360 -0.2296
  627MOL0     H86492   3.311   0.291   6.427  3.8015 -1.7663 -0.1434
  627MOL0     H86493   3.341   0.379   6.588 -2.0196  2.4466  0.5665
  627MOL0     H86494   3.257   0.504   6.329 -4.0012  1.9579  0.0297
  627MOL0     H86495   3.293   0.582   6.496  0.6516  2.2271 -2.0674
  627MOL0     H86496   3.113   0.495   6.590 -0.1256 -2.9768  0.0649
  627MOL0     H86497   3.082   0.376   6.468  2.5495 -0.5807  0.3378
  627MOL0     H86498   3.015   0.664   6.454  1.6675  0.3789 -0.8830
  627MOL0     H86499   3.084   0.602   6.305  0.6555  0.5593  0.5011
  627MOL0     H86500   2.922   0.408   6.328 -0.7485 -0.5932 -2.0753
  627MOL0     H86501   2.850   0.559   6.275  1.5161 -0.4091 -0.8135
  627MOL0     H86502   2.821   0.442   6.570  0.6863  1.1921  0.3858
  627MOL0     H86503   2.701   0.433   6.454 -1.2512  3.0329 -0.4551
  627MOL0     H86504   2.797   0.693   6.544 -1.3079 -0.1561 -1.6628
  627MOL0     H86505   2.641   0.613   6.588  0.1653 -0.1966  1.3292
  627MOL0     H86506   3.722   0.103   6.571  0.0573  0.0398 -0.1470
  627MOL0     H86507   3.954   0.065   6.505 -0.5528 -1.1145 -2.0903
  627MOL0     H86508   4.318   0.135   6.305 -2.2345  1.0653 -0.7213
  627MOL0     H86509   4.554   0.071   6.282  1.7596 -0.0309 -0.3670
  627MOL0     H86510   5.500   0.541   5.335  0.6042  2.3191 -1.4737
  627MOL0     H86511   5.538   0.652   5.124  0.0386 -0.6460 -3.7296
  627MOL0     H86512   5.951   0.481   4.650  0.7928  1.9290  2.2615
  627MOL0     H86513   5.954   0.541   4.410 -1.5466  3.2758 -3.2760
  627MOL0     H86514   5.781   0.416   4.273  0.4268  2.0590  2.4627
  627MOL0     H86515   5.640   0.481   4.176  0.6970 -2.3755 -0.0324
  627MOL0     H86516   5.788   0.556   3.997  2.0570  1.4061 -0.0642
  627MOL0     H86517   5.846   0.401   4.040  2.4960  1.7187 -1.3132
  627MOL0     H86518   5.961   0.667   4.136  5.3393  0.3413  0.9590
  627MOL0     H86519   5.999   0.513   4.203  4.6618  1.3117 -1.6308
  627MOL0     H86520   6.104   0.625   3.989 -1.0954 -0.2870 -0.9711
  627MOL0     H86521   6.011   0.495   3.907 -0.3898 -0.1751 -0.2242
  627MOL0     H86522   6.317   0.270   4.050  1.7694  1.0760  0.3144
  627MOL0     H86523   5.558   0.658   4.428  0.6809 -0.1078 -1.6255
  627MOL0     H86524   5.490   0.664   4.770  4.2172  1.0837 -0.5690
  627MOL0     H86525   5.432   0.668   4.600  0.8370  0.2085 -0.3565
  627MOL0     H86526   5.441   0.519   4.681  0.7518 -0.3721 -1.1000
  628MOL0     O86527   9.445   3.636   0.795 -0.3957 -0.5220 -0.0148
  628MOL0     C86528   9.513   3.617   0.695  0.0754 -0.5118 -0.0933
  628MOL0     O86529   9.652   3.638   0.687 -0.5912  1.3149 -0.1292
  628MOL0     C86530   9.723   3.713   0.781  0.4017 -0.4780  0.0788
  628MOL0     C86531   9.711   3.698   0.919  0.2277 -0.1200 -0.1281
  628MOL0     C86532   9.774   3.793   1.009  0.6917  0.0508  0.4654
  628MOL0     C86533   9.871   3.872   0.958 -0.7091  0.1895 -0.0368
  628MOL0     O86534   9.962   3.919   1.057  0.0000 -0.1147 -0.1555
  628MOL0     C86535  10.080   4.005   1.010  0.3726  0.8733 -0.2826
  628MOL0     C86536  10.160   4.054   1.131 -0.7365 -0.1235  1.0059
  628MOL0     C86537  10.277   4.149   1.090  0.2364  0.2101 -0.7641
  628MOL0     C86538  10.330   4.216   1.214 -0.2458  1.2497 -0.9547
  628MOL0     C86539  10.458   4.302   1.205 -1.4905 -0.2358 -0.0576
  628MOL0     C86540  10.467   4.395   1.335 -0.2898  0.0303  0.8884
  628MOL0     C86541  10.555   4.511   1.308 -0.7633  0.3634 -0.6210
  628MOL0     C86542  10.597   4.590   1.428 -0.4601  0.0273 -0.4093
  628MOL0     N86543  10.486   4.623   1.517 -0.3568  1.3151 -0.2437
  628MOL0     C86544  10.401   4.729   1.487 -0.6234  0.3707  0.3907
  628MOL0     C86545  10.341   4.753   1.599  0.5645 -0.5802  0.3049
  628MOL0     C86546  10.229   4.852   1.619 -0.4254  0.1756  0.0672
  628MOL0     C86547  10.296   4.989   1.666 -0.1781  0.2944 -0.2071
  628MOL0     C86548  10.208   5.113   1.666  0.1934  1.0572 -1.1635
  628MOL0     C86549  10.105   5.104   1.780  0.0874  0.3325 -0.0221
  628MOL0     O86550  10.017   5.213   1.770  0.1011  0.0684  0.4859
  628MOL0     C86551   9.976   5.254   1.893  0.4285 -0.6448 -0.9030
  628MOL0     C86552   9.893   5.175   1.972  0.1795  0.2714 -0.0580
  628MOL0     C86553   9.847   5.213   2.101  0.4064  0.4885 -0.1620
  628MOL0     C86554   9.759   5.105   2.173  0.1428 -1.0585 -0.0752
  628MOL0     C86555   9.898   5.331   2.158 -0.1756  0.0414  0.1857
  628MOL0     C86556   9.860   5.367   2.302  0.5657  0.9761  0.0719
  628MOL0     O86557   9.929   5.468   2.352 -0.2244  0.3732 -0.6886
  628MOL0     C86558   9.894   5.553   2.450  0.4918  0.0439  0.5191
  628MOL0     C86559   9.770   5.554   2.513  0.3042  0.3732  1.5234
  628MOL0     C86560   9.753   5.661   2.604 -0.1784  0.4471  0.4154
  628MOL0     C86561   9.849   5.749   2.650  0.3782  0.7876 -0.7240
  628MOL0     O86562   9.828   5.869   2.712 -0.3214  0.3508 -0.8017
  628MOL0     C86563   9.882   5.868   2.848  0.1457 -0.6485  0.1077
  628MOL0     C86564   9.948   6.003   2.886  0.3072 -0.7999 -0.1917
  628MOL0     C86565  10.086   6.017   2.824 -0.3802  1.1061 -0.3928
  628MOL0     C86566  10.167   6.147   2.862 -0.4708  0.0717  0.0662
  628MOL0     C86567  10.281   6.179   2.764 -0.2098  0.6524 -0.8973
  628MOL0     C86568  10.235   6.267   2.643  0.0770  0.3832 -0.1186
  628MOL0     C86569  10.343   6.281   2.533 -0.9033  1.0541  0.4346
  628MOL0     C86570  10.286   6.342   2.401  0.4045  0.3089 -0.1121
  628MOL0    Cl86571  10.213   6.498   2.428 -0.1645 -0.8519 -0.0402
  628MOL0     C86572   9.978   5.736   2.593 -0.0865  0.5109 -0.1596
  628MOL0     C86573  10.001   5.636   2.499  1.5705  0.9397 -1.1708
  628MOL0     O86574   9.752   5.317   2.344 -0.1873 -0.4166  0.0447
  628MOL0     C86575   9.988   5.412   2.083  0.2323  0.3771 -0.0753
  628MOL0     C86576  10.018   5.378   1.953 -0.1739 -0.5262  0.8391
  628MOL0     N86577  10.377   4.660   1.694  0.2383  0.2270 -0.5433
  628MOL0     N86578  10.477   4.586   1.656  0.0416 -0.1446  0.3108
  628MOL0     C86579   9.889   3.885   0.820  0.3602  0.2062  0.6595
  628MOL0     C86580   9.803   3.816   0.733  0.5573  0.3058  0.2352
  628MOL0     C86581   9.454   3.552   0.575  0.2489 -0.2893 -0.3253
  628MOL0     C86582   9.539   3.521   0.470 -0.9922  0.3951 -0.0882
  628MOL0     C86583   9.485   3.441   0.363  0.0886 -0.5989  0.8884
  628MOL0     C86584   9.354   3.408   0.355 -0.1245 -0.4153  0.4922
  628MOL0     O86585   9.324   3.330   0.237  0.5075 -0.7111 -0.6753
  628MOL0     C86586   9.192   3.267   0.225 -0.7182 -0.0521  0.7116
  628MOL0     C86587   9.193   3.201   0.097  0.1379  0.7647  0.6024
  628MOL0     C86588   9.144   3.289  -0.015 -0.2248  0.1688  0.6710
  628MOL0     C86589   9.142   3.223  -0.158 -0.3765 -0.2888  0.4820
  628MOL0     C86590   9.130   3.325  -0.265 -0.1206 -0.1061  0.2192
  628MOL0     C86591   9.090   3.408  -0.341 -0.0638 -0.6733 -0.1062
  628MOL0     C86592   9.262   3.447   0.455  0.4095 -0.7346 -0.1134
  628MOL0     C86593   9.315   3.516   0.568  0.6984  0.1819  0.2878
  628MOL0     C86594   9.214   3.529   0.675  0.3887 -0.0116 -0.3027
  628MOL0     H86595   9.634   3.633   0.959 -0.4817 -0.0393 -1.3103
  628MOL0     H86596   9.749   3.787   1.114 -0.0295  1.4223  0.3922
  628MOL0     H86597  10.047   4.093   0.955  1.7988  1.2941 -0.4958
  628MOL0     H86598  10.142   3.941   0.947 -0.7486  0.2224 -0.7569
  628MOL0     H86599  10.095   4.105   1.202 -1.1167  1.3506 -0.3553
  628MOL0     H86600  10.196   3.963   1.181 -2.9610  0.9560  4.9675
  628MOL0     H86601  10.357   4.097   1.036 -1.6974 -2.9913 -0.7705
  628MOL0     H86602  10.245   4.226   1.019  1.6027  1.3795 -0.1707
  628MOL0     H86603  10.250   4.274   1.262  0.0420  0.8944 -0.0235
  628MOL0     H86604  10.357   4.135   1.282 -0.4058  1.3874 -0.7247
  628MOL0     H86605  10.462   4.348   1.106 -1.1952 -0.8645 -0.3431
  628MOL0     H86606  10.540   4.230   1.197 -0.8801  0.3369  0.8601
  628MOL0     H86607  10.368   4.438   1.356  0.0469  2.0557 -1.3534
  628MOL0     H86608  10.497   4.332   1.420 -1.7578 -1.6334  0.2445
  628MOL0     H86609  10.510   4.577   1.234 -1.3026 -0.9774 -1.5258
  628MOL0     H86610  10.649   4.461   1.282 -0.4481 -1.4850  3.2800
  628MOL0     H86611  10.667   4.530   1.487 -2.6953 -1.3109  1.0164
  628MOL0     H86612  10.647   4.684   1.403 -1.3452  0.1489 -1.8513
  628MOL0     H86613  10.381   4.780   1.393  0.0357 -1.5930 -0.8544
  628MOL0     H86614  10.163   4.821   1.700 -2.1166 -0.0834 -1.3444
  628MOL0     H86615  10.166   4.852   1.529  0.2385 -0.2019 -0.4128
  628MOL0     H86616  10.342   4.975   1.765 -0.5805 -1.2128 -0.2099
  628MOL0     H86617  10.384   5.008   1.604  1.5088 -2.0080  1.2835
  628MOL0     H86618  10.275   5.197   1.688 -1.5549  1.7803  2.0498
  628MOL0     H86619  10.151   5.133   1.575  0.0506  1.9859 -0.8852
  628MOL0     H86620  10.053   5.010   1.765  1.0965 -0.3823  0.7411
  628MOL0     H86621  10.153   5.096   1.879  0.1452 -2.5983 -0.2056
  628MOL0     H86622   9.865   5.078   1.933  0.6994  0.8517 -1.9946
  628MOL0     H86623   9.764   5.008   2.123 -1.6038 -1.3231  0.2067
  628MOL0     H86624   9.656   5.139   2.189  1.4826  2.5346  2.1120
  628MOL0     H86625   9.786   5.087   2.278 -0.1100 -0.5101  0.0879
  628MOL0     H86626   9.678   5.502   2.486  2.2480 -2.1749 -0.7603
  628MOL0     H86627   9.653   5.692   2.632  0.4217  2.9184  0.0908
  628MOL0     H86628   9.804   5.856   2.924  1.0133 -1.2014  0.9415
  628MOL0     H86629   9.950   5.784   2.868  0.0144 -0.3932  1.8046
  628MOL0     H86630   9.885   6.084   2.847 -0.7826 -1.4233  0.2372
  628MOL0     H86631   9.957   6.014   2.994  1.4702  2.1260 -0.4697
  628MOL0     H86632  10.068   6.001   2.717 -0.1229  0.3300 -0.3261
  628MOL0     H86633  10.130   5.934   2.879  0.8442  0.9118 -1.6156
  628MOL0     H86634  10.201   6.132   2.965 -0.4386  1.6152  0.3077
  628MOL0     H86635  10.116   6.242   2.879  2.3242  1.2774  2.6466
  628MOL0     H86636  10.357   6.226   2.826 -2.3458  0.9875  1.6717
  628MOL0     H86637  10.303   6.081   2.719 -1.0806  1.7306 -3.9243
  628MOL0     H86638  10.218   6.367   2.684  3.4090  1.2101 -0.4240
  628MOL0     H86639  10.142   6.228   2.600 -0.2461  0.4996  0.4612
  628MOL0     H86640  10.381   6.180   2.519 -0.1703  1.0953  1.9663
  628MOL0     H86641  10.427   6.342   2.568  0.3947 -2.0296  3.2145
  628MOL0     H86642  10.201   6.289   2.358 -1.7580 -0.2170  4.1838
  628MOL0     H86643  10.359   6.348   2.320  2.1566  0.9692  1.4397
  628MOL0     H86644  10.064   5.793   2.628 -1.7116  2.7896  0.3686
  628MOL0     H86645  10.103   5.620   2.466  2.7902  1.8658  1.8231
  628MOL0     H86646  10.030   5.504   2.124 -1.3505  2.5085 -2.9340
  628MOL0     H86647  10.100   5.420   1.895 -1.3856 -0.1179 -0.6300
  628MOL0     H86648   9.969   3.948   0.782 -1.7785  2.4263 -0.3917
  628MOL0     H86649   9.800   3.836   0.627 -1.1189 -0.7535  0.0508
  628MOL0     H86650   9.643   3.552   0.469 -1.0749  0.7062  0.3750
  628MOL0     H86651   9.551   3.415   0.281 -0.6467 -0.5702  0.2840
  628MOL0     H86652   9.184   3.198   0.310  3.1888 -1.6262 -0.0057
  628MOL0     H86653   9.111   3.341   0.228 -2.0160 -1.3704 -0.3363
  628MOL0     H86654   9.127   3.114   0.103  2.1199 -0.7853  1.0367
  628MOL0     H86655   9.293   3.168   0.066 -0.3373  1.7144 -2.2477
  628MOL0     H86656   9.044   3.329   0.003  0.0200  0.9348  0.3625
  628MOL0     H86657   9.217   3.370  -0.010 -1.0150  0.9985 -0.5786
  628MOL0     H86658   9.058   3.152  -0.158 -0.0229 -0.7500  2.3119
  628MOL0     H86659   9.236   3.170  -0.177 -0.3598  0.1137 -0.6931
  628MOL0     H86660   9.068   3.486  -0.411 -2.7819 -0.8014  0.5102
  628MOL0     H86661   9.159   3.417   0.443  0.1512 -0.2210  0.7414
  628MOL0     H86662   9.114   3.492   0.648  1.0640 -1.1633 -1.3104
  628MOL0     H86663   9.240   3.464   0.758  2.4488 -1.0446 -1.6657
  628MOL0     H86664   9.203   3.630   0.717 -0.8253  0.1277 -0.8954
  629MOL0     O86665   3.311   3.045   1.406  0.6145 -0.3253  0.6062
  629MOL0     C86666   3.350   3.121   1.495 -0.1384 -0.0660  0.1605
  629MOL0     O86667   3.417   3.230   1.479  0.9422 -0.1718  0.2430
  629MOL0     C86668   3.415   3.291   1.354  0.0006  0.2453  0.7963
  629MOL0     C86669   3.328   3.399   1.333  0.1802 -0.6485  1.0993
  629MOL0     C86670   3.307   3.449   1.202 -0.2506  0.5817  0.0118
  629MOL0     C86671   3.378   3.399   1.093 -0.2019  1.2791 -1.3708
  629MOL0     O86672   3.363   3.459   0.973  0.6213  0.6775 -0.4356
  629MOL0     C86673   3.469   3.501   0.897 -0.6204 -0.6746 -0.1409
  629MOL0     C86674   3.398   3.593   0.785 -0.4838  1.0455 -0.6930
  629MOL0     C86675   3.353   3.518   0.664  0.1837 -0.7498 -0.2584
  629MOL0     C86676   3.355   3.613   0.541  0.3043  0.1655  0.4053
  629MOL0     C86677   3.294   3.545   0.408  0.2312 -0.0019 -0.3032
  629MOL0     C86678   3.289   3.647   0.297  0.0387 -0.4298 -0.0977
  629MOL0     C86679   3.264   3.593   0.151 -0.1913  0.5669 -0.3795
  629MOL0     C86680   3.234   3.713   0.051 -0.7992 -0.1202  0.1054
  629MOL0     N86681   3.221   3.677  -0.083 -0.2380 -0.0411  0.1345
  629MOL0     C86682   3.296   3.715  -0.197  0.7999 -0.5322 -0.2996
  629MOL0     C86683   3.236   3.674  -0.309  0.3292 -0.1807 -0.5989
  629MOL0     C86684   3.260   3.731  -0.450  0.2142 -0.5059 -0.5041
  629MOL0     C86685   3.393   3.673  -0.508 -0.8619 -0.6301  0.1606
  629MOL0     C86686   3.464   3.756  -0.615  0.5555 -0.9894 -0.1744
  629MOL0     C86687   3.523   3.883  -0.549  0.3862  0.8562  0.2786
  629MOL0     O86688   3.626   3.931  -0.631 -0.3114 -0.7144 -0.5671
  629MOL0     C86689   3.600   4.012  -0.742  0.0125  0.2477  0.3535
  629MOL0     C86690   3.475   4.030  -0.795 -0.1505  0.1294 -0.1030
  629MOL0     C86691   3.451   4.078  -0.924 -0.9067  0.5581  0.0422
  629MOL0     C86692   3.303   4.097  -0.957  0.3835  0.0688  0.2489
  629MOL0     C86693   3.566   4.113  -1.003 -0.1393 -0.0527  0.7736
  629MOL0     C86694   3.555   4.146  -1.148 -0.6469 -0.6005 -1.0205
  629MOL0     O86695   3.445   4.102  -1.212  0.5579  0.6651  0.7592
  629MOL0     C86696   3.415   4.143  -1.338 -0.2559 -0.1135  0.7808
  629MOL0     C86697   3.458   4.259  -1.394 -0.1388 -0.7568  0.7220
  629MOL0     C86698   3.437   4.285  -1.538 -0.4635 -0.2490  0.3848
  629MOL0     C86699   3.351   4.197  -1.606  0.1005  0.2137  0.4223
  629MOL0     O86700   3.309   4.194  -1.741 -0.0342  0.0910  0.2275
  629MOL0     C86701   3.342   4.307  -1.815 -0.0105 -0.9748 -0.9626
  629MOL0     C86702   3.254   4.299  -1.939  0.9893 -0.5053  0.2034
  629MOL0     C86703   3.242   4.444  -2.003 -0.1241  0.7638  0.4197
  629MOL0     C86704   3.235   4.436  -2.157  0.6211 -0.0787  0.1074
  629MOL0     C86705   3.235   4.585  -2.209 -0.3177 -0.8599  1.2797
  629MOL0     C86706   3.089   4.642  -2.227 -0.2226 -0.1372  0.1689
  629MOL0     C86707   3.103   4.791  -2.251 -0.0582 -0.6940  0.7470
  629MOL0     C86708   2.969   4.836  -2.306  0.1586 -1.5570 -0.2396
  629MOL0    Cl86709   2.839   4.849  -2.177 -0.0249 -0.2155 -0.4951
  629MOL0     C86710   3.300   4.085  -1.537  0.1042 -1.1797  0.1143
  629MOL0     C86711   3.324   4.062  -1.402 -0.8717 -0.2850  0.3467
  629MOL0     O86712   3.656   4.194  -1.192 -0.6225 -0.2842  0.5177
  629MOL0     C86713   3.697   4.103  -0.942  0.0017  0.0296  0.7259
  629MOL0     C86714   3.707   4.056  -0.819  0.0991  0.8697 -1.3158
  629MOL0     N86715   3.117   3.608  -0.269  0.2733 -0.7123 -1.1377
  629MOL0     N86716   3.115   3.612  -0.135  0.1178  0.4510 -0.2238
  629MOL0     C86717   3.470   3.293   1.112  0.5414 -0.7559  0.1387
  629MOL0     C86718   3.489   3.238   1.240 -0.9792  0.2956 -0.3049
  629MOL0     C86719   3.304   3.095   1.636 -0.7749 -0.9078  0.3108
  629MOL0     C86720   3.201   2.997   1.651 -0.0905  0.6196  0.2436
  629MOL0     C86721   3.150   2.963   1.779 -0.2906 -0.7480 -0.6830
  629MOL0     C86722   3.208   3.020   1.891  0.4322  0.1269  0.4411
  629MOL0     O86723   3.187   2.986   2.026 -0.1823 -0.4012  0.0535
  629MOL0     C86724   3.062   2.915   2.062  0.5111  0.8999  0.5338
  629MOL0     C86725   3.114   2.767   2.089  0.5489 -0.0267 -0.4920
  629MOL0     C86726   3.216   2.751   2.201 -0.4589 -0.4280  0.6211
  629MOL0     C86727   3.229   2.615   2.256  0.9027  0.9687  0.2853
  629MOL0     C86728   3.363   2.583   2.293  0.9962  0.0487  0.1862
  629MOL0     C86729   3.460   2.519   2.322 -0.2631 -0.2135 -0.4388
  629MOL0     C86730   3.308   3.111   1.874  0.5319  0.8010 -1.1684
  629MOL0     C86731   3.358   3.164   1.755  0.8453  0.2424  0.1840
  629MOL0     C86732   3.456   3.275   1.755  0.1505 -0.1976 -0.1645
  629MOL0     H86733   3.264   3.422   1.417  0.3647 -1.6379  1.5283
  629MOL0     H86734   3.242   3.533   1.181  1.5221  1.6702 -1.4495
  629MOL0     H86735   3.525   3.416   0.857 -0.5281  0.3098 -2.2241
  629MOL0     H86736   3.552   3.557   0.942  2.1002 -1.1157 -4.0844
  629MOL0     H86737   3.317   3.636   0.844  0.2887 -2.9302  3.8857
  629MOL0     H86738   3.469   3.670   0.753  0.7915  0.4701  0.6334
  629MOL0     H86739   3.429   3.442   0.643  3.1092  1.7471  0.4703
  629MOL0     H86740   3.255   3.471   0.673 -0.2535  0.2643  0.3977
  629MOL0     H86741   3.286   3.696   0.559  0.2665  0.2478 -0.1052
  629MOL0     H86742   3.455   3.652   0.520  0.0680  1.3471  1.3780
  629MOL0     H86743   3.193   3.508   0.429  1.5974 -4.6813 -0.9311
  629MOL0     H86744   3.361   3.465   0.376 -0.3102 -0.4460 -0.3356
  629MOL0     H86745   3.209   3.716   0.325  0.8751  0.1061  1.0358
  629MOL0     H86746   3.380   3.708   0.291 -1.1040  1.3638  0.1785
  629MOL0     H86747   3.185   3.518   0.153  1.2957 -1.0707  0.2786
  629MOL0     H86748   3.353   3.541   0.111  0.1574  1.5600 -0.9368
  629MOL0     H86749   3.140   3.762   0.079 -0.7467 -0.3534  0.7059
  629MOL0     H86750   3.313   3.788   0.065 -0.9469  0.3149 -1.2669
  629MOL0     H86751   3.370   3.794  -0.184 -0.3057  0.7865 -1.6710
  629MOL0     H86752   3.264   3.840  -0.442 -1.1929 -0.5175  1.0423
  629MOL0     H86753   3.190   3.701  -0.529  1.2639 -2.4191 -0.7657
  629MOL0     H86754   3.458   3.665  -0.420 -2.1495  1.7047  1.4035
  629MOL0     H86755   3.376   3.570  -0.541 -4.0050  0.2531 -1.3228
  629MOL0     H86756   3.543   3.708  -0.674  2.8448  3.2509 -0.9677
  629MOL0     H86757   3.400   3.777  -0.701  1.7279  0.0925 -0.8188
  629MOL0     H86758   3.458   3.963  -0.512 -0.0251 -0.5226  2.7846
  629MOL0     H86759   3.575   3.842  -0.461 -1.5674  0.1014  1.1381
  629MOL0     H86760   3.399   4.029  -0.717  1.1710 -0.7959  1.2469
  629MOL0     H86761   3.280   3.994  -0.987  1.2653 -0.0936  0.0871
  629MOL0     H86762   3.287   4.169  -1.038 -1.0248 -2.5108 -1.9591
  629MOL0     H86763   3.241   4.117  -0.869  1.0651 -0.2522  0.8119
  629MOL0     H86764   3.519   4.327  -1.335 -0.2141 -0.1819  0.1498
  629MOL0     H86765   3.481   4.374  -1.582  0.0661 -0.4635  0.4723
  629MOL0     H86766   3.323   4.400  -1.760  0.0214 -1.2804 -0.4284
  629MOL0     H86767   3.444   4.296  -1.852  0.1779  0.5702 -0.9515
  629MOL0     H86768   3.292   4.223  -2.008  0.7026  0.7293 -1.3862
  629MOL0     H86769   3.153   4.278  -1.904  0.0104  1.2949 -1.3664
  629MOL0     H86770   3.315   4.514  -1.961 -0.9768  0.0881  3.2983
  629MOL0     H86771   3.143   4.477  -1.968 -1.5913 -1.4072 -1.4134
  629MOL0     H86772   3.146   4.384  -2.194  0.6199  0.9767 -1.4862
  629MOL0     H86773   3.311   4.371  -2.199  0.4438 -0.8324  0.9329
  629MOL0     H86774   3.301   4.639  -2.142  0.3525  0.9888 -0.7486
  629MOL0     H86775   3.291   4.601  -2.302  0.2843 -0.1780  1.7528
  629MOL0     H86776   3.039   4.625  -2.132  0.0590 -0.5570  0.2455
  629MOL0     H86777   3.045   4.590  -2.312  1.0296  1.0048 -1.2440
  629MOL0     H86778   3.187   4.813  -2.318  0.8022 -1.3356  1.5932
  629MOL0     H86779   3.118   4.849  -2.160 -1.3985 -0.2685  0.7192
  629MOL0     H86780   2.932   4.771  -2.386 -2.0845 -0.2847 -0.3121
  629MOL0     H86781   2.977   4.935  -2.352 -0.1974 -0.7370  1.3573
  629MOL0     H86782   3.222   4.042  -1.599  0.5391  1.0003 -2.0980
  629MOL0     H86783   3.267   3.984  -1.353 -0.7003 -1.2555 -0.9307
  629MOL0     H86784   3.789   4.121  -0.997  0.2624  0.1775  1.2079
  629MOL0     H86785   3.809   4.039  -0.785 -0.2766  0.6019 -0.2734
  629MOL0     H86786   3.538   3.251   1.039  0.8599  0.9361 -0.5914
  629MOL0     H86787   3.553   3.151   1.252 -0.8482  0.1280 -2.0920
  629MOL0     H86788   3.150   2.944   1.571  1.5259 -2.1151  0.9183
  629MOL0     H86789   3.065   2.895   1.785 -2.4143  1.6809 -1.4768
  629MOL0     H86790   3.004   2.965   2.140 -1.0397 -2.0200  1.4194
  629MOL0     H86791   2.995   2.921   1.975 -4.1139  0.3299  3.6937
  629MOL0     H86792   3.135   2.707   2.000  0.4120 -1.6843  0.5607
  629MOL0     H86793   3.021   2.720   2.123  0.8470  0.5979  1.2970
  629MOL0     H86794   3.312   2.780   2.158 -0.6650  2.1585  1.7131
  629MOL0     H86795   3.209   2.832   2.274 -0.9747  2.4257 -2.3686
  629MOL0     H86796   3.196   2.530   2.196 -0.2472  0.3434  1.7168
  629MOL0     H86797   3.158   2.613   2.340 -4.9552  0.2044 -4.0309
  629MOL0     H86798   3.557   2.473   2.332 -0.1286 -0.1387 -1.3237
  629MOL0     H86799   3.345   3.154   1.967  2.1477  0.0511 -1.4357
  629MOL0     H86800   3.433   3.347   1.676 -0.6303 -1.1729 -0.8351
  629MOL0     H86801   3.449   3.326   1.852 -4.5334 -0.7497  0.0180
  629MOL0     H86802   3.556   3.232   1.761 -0.4969 -1.6779  0.5044
  630MOL0     O86803   5.510   8.449  11.468  0.1615 -1.0288 -0.1653
  630MOL0     C86804   5.405   8.496  11.514  0.6616 -0.4551  0.3662
  630MOL0     O86805   5.330   8.440  11.612 -0.7927  0.3975  0.2753
  630MOL0     C86806   5.380   8.336  11.689  0.3727  0.4918  0.4544
  630MOL0     C86807   5.356   8.206  11.654  0.6673 -0.2528  0.0540
  630MOL0     C86808   5.411   8.104  11.722 -0.9773  0.5036 -0.1924
  630MOL0     C86809   5.502   8.128  11.822 -0.4119  0.1291 -0.0171
  630MOL0     O86810   5.561   8.020  11.887 -0.1150 -0.2670 -0.2381
  630MOL0     C86811   5.622   7.942  11.789 -0.1528  0.8141  0.2957
  630MOL0     C86812   5.702   7.825  11.839 -0.2474  0.1331  0.0166
  630MOL0     C86813   5.840   7.857  11.911  0.5779 -0.2134  0.2247
  630MOL0     C86814   5.888   7.751  12.008 -0.1392  0.0295 -0.5324
  630MOL0     C86815   6.015   7.789  12.081 -0.6606 -0.0254 -0.0285
  630MOL0     C86816   6.010   7.911  12.179 -0.4659 -0.4875 -0.0682
  630MOL0     C86817   6.125   7.911  12.276  0.3005  0.1482  0.2169
  630MOL0     C86818   6.085   8.018  12.382 -0.1427 -0.0967  0.1232
  630MOL0     N86819   6.198   8.064  12.465 -0.3036  0.4419  0.1891
  630MOL0     C86820   6.213   8.188  12.516  0.3190  0.4473 -0.7968
  630MOL0     C86821   6.338   8.193  12.570 -0.2030  0.4204 -0.0879
  630MOL0     C86822   6.397   8.307  12.654 -0.6002  0.1220  0.1821
  630MOL0     C86823   6.402   8.446  12.584  0.1936 -0.8478 -0.2210
  630MOL0     C86824   6.406   8.563  12.680  0.5349  0.5672 -0.8269
  630MOL0     C86825   6.544   8.609  12.749 -0.5697 -0.0048  0.2903
  630MOL0     O86826   6.638   8.646  12.643 -0.4846  0.7984 -0.0939
  630MOL0     C86827   6.750   8.711  12.666  0.0492 -0.2311 -0.1980
  630MOL0     C86828   6.781   8.814  12.580 -0.0152 -0.3663 -0.0945
  630MOL0     C86829   6.904   8.882  12.585 -0.2313  1.5425 -0.4049
  630MOL0     C86830   6.915   9.005  12.501 -0.1682 -0.5243 -0.1273
  630MOL0     C86831   6.990   8.850  12.695 -0.0030 -0.3932  0.1199
  630MOL0     C86832   7.115   8.932  12.732  0.3223 -0.3678 -0.3601
  630MOL0     O86833   7.230   8.876  12.774 -0.2009  0.1439 -0.3381
  630MOL0     C86834   7.256   8.743  12.757 -0.1501 -1.6955  0.6199
  630MOL0     C86835   7.300   8.654  12.863 -0.2615 -0.3933 -0.9142
  630MOL0     C86836   7.348   8.523  12.833  0.7973 -1.1021 -0.4731
  630MOL0     C86837   7.338   8.476  12.701 -0.6974  0.2970 -0.6021
  630MOL0     O86838   7.389   8.350  12.680 -0.1510  0.9520  0.0706
  630MOL0     C86839   7.486   8.326  12.581 -0.7818  0.7131  0.4770
  630MOL0     C86840   7.615   8.308  12.665 -0.3197  0.8687 -0.3805
  630MOL0     C86841   7.630   8.184  12.738  1.0154 -0.1685  0.1881
  630MOL0     C86842   7.724   8.215  12.859 -0.6540  0.7006 -0.8316
  630MOL0     C86843   7.738   8.089  12.955  0.6176  0.1000 -0.5308
  630MOL0     C86844   7.706   8.131  13.105 -0.3090 -0.1168 -0.1830
  630MOL0     C86845   7.559   8.178  13.126 -0.0943  0.1286  0.0002
  630MOL0     C86846   7.530   8.253  13.247  0.3764 -0.1794 -0.0041
  630MOL0    Cl86847   7.375   8.337  13.215 -0.0268 -0.0040  0.2090
  630MOL0     C86848   7.301   8.557  12.597 -0.4268 -0.2841  0.8347
  630MOL0     C86849   7.257   8.688  12.627 -1.2027  0.9499  0.1236
  630MOL0     O86850   7.109   9.056  12.722 -0.0884  0.7385  0.1935
  630MOL0     C86851   6.964   8.734  12.775 -0.6895 -0.1660  0.2298
  630MOL0     C86852   6.849   8.666  12.760 -1.1301 -0.4420  0.2686
  630MOL0     N86853   6.398   8.076  12.544 -0.9217  1.2352 -0.5658
  630MOL0     N86854   6.320   8.000  12.479 -0.0859 -0.1487  0.0316
  630MOL0     C86855   5.531   8.259  11.866  0.2968 -0.6421 -0.8059
  630MOL0     C86856   5.464   8.362  11.797  0.5203 -0.2950 -0.5043
  630MOL0     C86857   5.353   8.620  11.453  0.5775  0.6696  0.4462
  630MOL0     C86858   5.384   8.651  11.319 -0.0247  0.2593 -0.4813
  630MOL0     C86859   5.365   8.778  11.259  0.0400 -0.5527 -0.8932
  630MOL0     C86860   5.314   8.883  11.341 -1.1962 -0.1097  0.5830
  630MOL0     O86861   5.298   9.022  11.318 -0.0746  0.5172 -0.0085
  630MOL0     C86862   5.360   9.064  11.193 -0.0112  0.3212  0.0724
  630MOL0     C86863   5.271   9.075  11.072 -0.6544 -0.4642 -0.8957
  630MOL0     C86864   5.138   9.154  11.102  0.0687  0.3886 -0.4789
  630MOL0     C86865   5.172   9.293  11.158  0.5132 -0.0390  0.2412
  630MOL0     C86866   5.244   9.369  11.062 -0.3691  0.0859  0.6266
  630MOL0     C86867   5.308   9.447  10.999  0.7687 -0.0325 -0.4073
  630MOL0     C86868   5.266   8.848  11.464  0.8337  0.5885 -0.4373
  630MOL0     C86869   5.284   8.725  11.524 -0.0085  0.4868 -0.0590
  630MOL0     C86870   5.236   8.707  11.661  0.6214  0.1916  0.6275
  630MOL0     H86871   5.292   8.184  11.569 -0.4032  0.6183  0.6161
  630MOL0     H86872   5.386   8.001  11.699  0.6278 -0.3551  1.5991
  630MOL0     H86873   5.682   7.998  11.717 -1.5014  2.2550  0.2494
  630MOL0     H86874   5.551   7.889  11.724  0.8339  1.2201 -1.1477
  630MOL0     H86875   5.629   7.784  11.910 -1.1819  2.3896  0.4533
  630MOL0     H86876   5.726   7.747  11.765 -1.1005 -1.9503  1.8150
  630MOL0     H86877   5.911   7.875  11.830 -1.0630  0.7566 -1.0792
  630MOL0     H86878   5.830   7.948  11.972 -0.2089 -0.3927  0.3728
  630MOL0     H86879   5.805   7.729  12.075  0.5491 -2.7684 -0.4760
  630MOL0     H86880   5.909   7.660  11.952  1.2045  0.0178 -0.0562
  630MOL0     H86881   6.099   7.799  12.011 -1.0399 -1.5681 -0.7609
  630MOL0     H86882   6.038   7.704  12.145  0.7257 -0.0786 -0.5513
  630MOL0     H86883   6.019   8.009  12.133 -2.2849 -0.2583  0.0142
  630MOL0     H86884   5.909   7.904  12.220 -0.8027 -0.1050 -0.8121
  630MOL0     H86885   6.214   7.941  12.219  0.9433 -1.9435  0.0251
  630MOL0     H86886   6.131   7.814  12.328  0.4633 -0.9306 -1.7203
  630MOL0     H86887   6.044   8.104  12.329  3.5257  0.6039 -1.9549
  630MOL0     H86888   5.994   7.986  12.433  0.5565  1.6934  2.7117
  630MOL0     H86889   6.132   8.260  12.523 -0.6490 -0.6419 -0.5462
  630MOL0     H86890   6.502   8.290  12.678 -0.9462  0.0535  1.7254
  630MOL0     H86891   6.341   8.322  12.747  0.9498  0.7394  1.0640
  630MOL0     H86892   6.487   8.463  12.518  1.0102 -0.1718  0.9654
  630MOL0     H86893   6.306   8.460  12.533 -0.0781 -1.7166  0.0371
  630MOL0     H86894   6.383   8.654  12.625 -0.5229 -0.2380 -1.7630
  630MOL0     H86895   6.339   8.545  12.765  2.8412 -3.9388  0.3926
  630MOL0     H86896   6.525   8.694  12.815 -2.5772  1.0877 -1.5500
  630MOL0     H86897   6.592   8.530  12.807 -0.3340 -1.0268 -1.2287
  630MOL0     H86898   6.706   8.833  12.504 -1.3895  2.1158  1.7557
  630MOL0     H86899   7.019   9.036  12.486 -0.6822  0.8670 -1.0327
  630MOL0     H86900   6.873   9.090  12.555  1.8203 -0.8648  2.1518
  630MOL0     H86901   6.861   8.989  12.408 -0.2847  0.7261 -0.2843
  630MOL0     H86902   7.317   8.688  12.965 -0.1617 -2.2476 -0.2835
  630MOL0     H86903   7.389   8.452  12.904  1.0688  0.0144  0.5094
  630MOL0     H86904   7.447   8.247  12.517  1.5751  0.6332 -1.0171
  630MOL0     H86905   7.483   8.421  12.525 -0.4570  1.2306  1.3221
  630MOL0     H86906   7.704   8.319  12.602 -0.5659  1.6657 -0.6006
  630MOL0     H86907   7.618   8.393  12.733 -2.1450  2.0128 -1.6534
  630MOL0     H86908   7.660   8.107  12.667  1.0446 -0.9697  1.0460
  630MOL0     H86909   7.534   8.146  12.773  1.9617 -0.6284  2.4669
  630MOL0     H86910   7.687   8.304  12.910  1.5640  0.0306  2.2543
  630MOL0     H86911   7.823   8.252  12.832 -1.1446  0.8685 -2.4888
  630MOL0     H86912   7.659   8.019  12.927  0.3548  0.7706 -1.5022
  630MOL0     H86913   7.839   8.047  12.948  1.0246  1.1073 -0.8453
  630MOL0     H86914   7.780   8.208  13.125  1.2783 -1.2566 -1.4549
  630MOL0     H86915   7.722   8.044  13.170 -1.3438 -1.0661 -1.1583
  630MOL0     H86916   7.508   8.081  13.128  0.4289 -0.2304 -1.7814
  630MOL0     H86917   7.515   8.229  13.039 -1.2611 -2.3647 -0.9764
  630MOL0     H86918   7.612   8.324  13.266  2.3286 -1.2861 -3.3939
  630MOL0     H86919   7.519   8.189  13.335 -1.8900  3.1391  2.3516
  630MOL0     H86920   7.306   8.527  12.493 -0.0865 -2.6348  1.4540
  630MOL0     H86921   7.217   8.747  12.545 -2.9218 -0.7944 -0.3584
  630MOL0     H86922   7.023   8.705  12.861  0.4237  0.7978 -0.1784
  630MOL0     H86923   6.832   8.579  12.822 -3.3591 -0.1187  0.1965
  630MOL0     H86924   5.596   8.272  11.952 -0.3270  3.0811 -0.7283
  630MOL0     H86925   5.481   8.467  11.820 -2.7568  0.5991 -1.5536
  630MOL0     H86926   5.427   8.572  11.259 -2.6835 -2.5161  0.9730
  630MOL0     H86927   5.405   8.810  11.163 -1.5416  1.0759 -1.0638
  630MOL0     H86928   5.399   9.165  11.213 -2.7125  1.0521  2.3479
  630MOL0     H86929   5.446   9.004  11.163 -1.0557 -0.0777 -2.3260
  630MOL0     H86930   5.232   8.975  11.055  2.6121 -1.7598 -1.4901
  630MOL0     H86931   5.321   9.116  10.984 -2.8913  2.2681 -1.0467
  630MOL0     H86932   5.072   9.156  11.015 -0.7487 -3.0004 -0.0933
  630MOL0     H86933   5.090   9.105  11.188 -2.3123  1.2061 -1.2797
  630MOL0     H86934   5.224   9.310  11.253 -0.4524  1.8245  0.4875
  630MOL0     H86935   5.075   9.344  11.161  0.9130  0.8857 -1.3898
  630MOL0     H86936   5.361   9.510  10.930  0.6284 -2.3042 -2.7198
  630MOL0     H86937   5.203   8.928  11.503 -0.0214  0.3180 -1.2131
  630MOL0     H86938   5.310   8.693  11.740  0.9645 -1.1475  0.0905
  630MOL0     H86939   5.180   8.797  11.687  0.9437 -0.0878  2.4194
  630MOL0     H86940   5.168   8.621  11.670  2.1079 -1.5942 -3.0265
  631MOL0     O86941   2.538   9.189   6.628 -0.2151  0.7596 -0.4062
  631MOL0     C86942   2.457   9.250   6.558  0.6455 -0.1807 -0.3651
  631MOL0     O86943   2.348   9.198   6.482  0.0033 -0.7014 -0.9139
  631MOL0     C86944   2.299   9.070   6.500 -0.2570 -0.4985  0.8668
  631MOL0     C86945   2.374   8.949   6.546 -0.6397 -0.3424  0.8388
  631MOL0     C86946   2.311   8.824   6.553 -0.0896  0.3928 -0.6599
  631MOL0     C86947   2.172   8.814   6.529  0.0077 -0.5737 -0.5739
  631MOL0     O86948   2.106   8.693   6.538 -0.5105 -0.4489  0.1281
  631MOL0     C86949   2.154   8.594   6.635 -0.8446 -0.1962  1.3651
  631MOL0     C86950   2.046   8.482   6.637 -0.8216 -0.7581  0.1642
  631MOL0     C86951   2.087   8.366   6.729 -0.9100  0.5391  0.4212
  631MOL0     C86952   2.005   8.239   6.698 -0.1995  1.2389 -0.6997
  631MOL0     C86953   2.035   8.170   6.572  0.0287 -0.3389 -0.1081
  631MOL0     C86954   1.948   8.045   6.560 -0.8111 -0.0689 -0.3981
  631MOL0     C86955   1.991   7.959   6.437  0.3665 -0.6192  0.0771
  631MOL0     C86956   1.976   7.805   6.455 -0.6444  0.1753  0.7031
  631MOL0     N86957   1.893   7.741   6.354 -0.6699  0.2132 -0.1663
  631MOL0     C86958   1.761   7.772   6.333 -0.4705 -0.2158  0.3736
  631MOL0     C86959   1.733   7.703   6.222 -0.6876  0.6768  0.1183
  631MOL0     C86960   1.602   7.722   6.152 -0.8618  0.2037  0.1918
  631MOL0     C86961   1.595   7.825   6.037  0.0288  0.4597 -0.3158
  631MOL0     C86962   1.459   7.835   5.961  0.3630  0.1411  0.7599
  631MOL0     C86963   1.398   7.708   5.901 -1.0324  0.3532  0.1596
  631MOL0     O86964   1.509   7.648   5.818 -0.1156  1.0119 -0.3048
  631MOL0     C86965   1.509   7.512   5.789  0.5557  0.5669  0.7813
  631MOL0     C86966   1.604   7.459   5.714  0.7459 -0.3549 -0.6469
  631MOL0     C86967   1.612   7.323   5.680 -0.5798 -0.3962 -0.1512
  631MOL0     C86968   1.706   7.267   5.578 -0.3800 -0.0804  0.4567
  631MOL0     C86969   1.510   7.236   5.723  0.3408 -0.0733 -0.1517
  631MOL0     C86970   1.511   7.086   5.700 -1.0165 -0.6754 -0.0125
  631MOL0     O86971   1.616   7.013   5.733 -0.1467  0.2989  0.1265
  631MOL0     C86972   1.614   6.875   5.707  0.9484  0.7405  0.2056
  631MOL0     C86973   1.724   6.814   5.665  0.4907  0.4299  0.4831
  631MOL0     C86974   1.743   6.681   5.665  0.2585 -0.1296  0.5531
  631MOL0     C86975   1.645   6.588   5.687 -0.4341 -0.0612  0.0731
  631MOL0     O86976   1.645   6.446   5.690 -0.4038 -0.8537  0.7844
  631MOL0     C86977   1.756   6.384   5.619 -0.4954  1.0827 -0.1656
  631MOL0     C86978   1.707   6.243   5.574  0.7640 -0.1307  0.3075
  631MOL0     C86979   1.791   6.120   5.632  0.5509 -0.2335 -1.1656
  631MOL0     C86980   1.744   5.982   5.599 -0.3459 -0.4082 -0.2712
  631MOL0     C86981   1.806   5.955   5.465  0.1637  0.4772  0.5263
  631MOL0     C86982   1.777   5.813   5.414 -0.2396  0.7929  0.4905
  631MOL0     C86983   1.879   5.752   5.307 -0.5036 -1.2055  0.3724
  631MOL0     C86984   1.908   5.836   5.178  0.7441 -1.0067 -0.6360
  631MOL0    Cl86985   1.746   5.890   5.116 -0.2135 -0.2800 -0.2703
  631MOL0     C86986   1.527   6.642   5.737 -0.7328 -0.0927  0.0888
  631MOL0     C86987   1.516   6.786   5.752 -0.9762  0.5295 -0.9726
  631MOL0     O86988   1.410   7.050   5.638 -0.1724 -0.3159  0.2543
  631MOL0     C86989   1.403   7.292   5.799 -0.7170 -1.0273  0.2597
  631MOL0     C86990   1.400   7.429   5.830 -0.7804 -0.1849 -0.6189
  631MOL0     N86991   1.843   7.628   6.178 -0.5130 -0.4026 -0.0893
  631MOL0     N86992   1.937   7.654   6.257 -0.1415  0.0561  0.6660
  631MOL0     C86993   2.113   8.928   6.498  0.0466  0.0109 -0.8813
  631MOL0     C86994   2.169   9.058   6.476  0.6125  0.6857 -0.7743
  631MOL0     C86995   2.475   9.404   6.553 -0.7523  0.1632 -0.0585
  631MOL0     C86996   2.392   9.480   6.472  0.0789 -0.3697  0.2972
  631MOL0     C86997   2.393   9.622   6.471 -0.2951 -0.2235  0.5841
  631MOL0     C86998   2.483   9.699   6.542 -0.2610  0.1124 -0.8362
  631MOL0     O86999   2.492   9.835   6.512 -0.4574 -0.4671 -0.4057
  631MOL0     C87000   2.620   9.906   6.518 -0.0824 -0.6221  0.7509
  631MOL0     C87001   2.701   9.884   6.380  0.3943  0.6012  0.8886
  631MOL0     C87002   2.610   9.883   6.249 -0.3636  0.0769 -0.3535
  631MOL0     C87003   2.687   9.908   6.117  0.6312 -0.7741 -1.1495
  631MOL0     C87004   2.796   9.809   6.098  1.2598 -0.2496 -0.2255
  631MOL0     C87005   2.889   9.728   6.093  0.4399 -0.3784  0.6394
  631MOL0     C87006   2.567   9.626   6.633  0.8825  0.4627  0.7022
  631MOL0     C87007   2.565   9.481   6.647 -0.2906  0.6631  0.2370
  631MOL0     C87008   2.641   9.412   6.763  0.3722  0.0554  0.2319
  631MOL0     H87009   2.477   8.969   6.575 -1.1587  2.7955  0.8602
  631MOL0     H87010   2.373   8.739   6.581 -0.6553 -0.6776 -2.5068
  631MOL0     H87011   2.168   8.634   6.736  1.1997 -3.2630  2.4255
  631MOL0     H87012   2.244   8.548   6.593 -0.5825  1.9474 -0.6408
  631MOL0     H87013   1.946   8.507   6.675 -0.5986 -1.5165  1.3012
  631MOL0     H87014   2.038   8.457   6.531  0.5960  2.2900 -0.7520
  631MOL0     H87015   2.194   8.341   6.728 -1.0559 -0.4166 -2.9714
  631MOL0     H87016   2.054   8.407   6.825 -0.9056 -1.0147  1.1196
  631MOL0     H87017   2.013   8.157   6.770  0.2003  0.4096 -1.6521
  631MOL0     H87018   1.900   8.268   6.699  0.5703  4.6267  1.9970
  631MOL0     H87019   2.140   8.136   6.573 -0.1597 -0.9366  0.0326
  631MOL0     H87020   2.020   8.236   6.486  0.1695  0.3276  0.3717
  631MOL0     H87021   1.971   7.983   6.648  0.2664 -1.2777 -1.4847
  631MOL0     H87022   1.842   8.067   6.573 -0.5968  1.1611 -0.5891
  631MOL0     H87023   2.098   7.976   6.419  0.3231  0.1131  0.4848
  631MOL0     H87024   1.934   8.000   6.353  0.0826 -2.3187 -0.6239
  631MOL0     H87025   2.074   7.758   6.446  0.8536  3.4256 -2.4508
  631MOL0     H87026   1.946   7.779   6.557 -1.7032  0.4885  0.4915
  631MOL0     H87027   1.693   7.825   6.399 -1.2120 -0.5032 -0.1389
  631MOL0     H87028   1.537   7.749   6.236 -1.9083 -2.8816  0.5104
  631MOL0     H87029   1.565   7.625   6.119 -4.3922  1.6706 -0.6151
  631MOL0     H87030   1.621   7.920   6.084 -0.8497  0.9131 -0.7195
  631MOL0     H87031   1.673   7.799   5.964  1.9297 -1.2833  2.1619
  631MOL0     H87032   1.377   7.869   6.024 -1.7619 -0.7943 -1.3273
  631MOL0     H87033   1.464   7.909   5.880  3.1914 -1.1518 -0.4248
  631MOL0     H87034   1.370   7.645   5.986  1.5169 -1.6178 -0.3245
  631MOL0     H87035   1.312   7.710   5.834 -0.6821 -2.1798 -0.4904
  631MOL0     H87036   1.693   7.519   5.704  1.2443 -1.1287 -0.9055
  631MOL0     H87037   1.740   7.347   5.510 -1.2124 -0.5829 -0.5760
  631MOL0     H87038   1.656   7.192   5.517  1.2106 -0.3217 -0.6339
  631MOL0     H87039   1.792   7.225   5.631  2.7471  3.4724 -1.3237
  631MOL0     H87040   1.801   6.881   5.627  1.1601 -0.5578  0.0471
  631MOL0     H87041   1.839   6.647   5.629 -0.2484  0.3416 -1.3846
  631MOL0     H87042   1.766   6.458   5.539 -1.3686  0.0000 -1.3268
  631MOL0     H87043   1.843   6.372   5.684 -0.8829 -0.8620  0.0475
  631MOL0     H87044   1.602   6.234   5.606  2.0475 -1.3587  4.9148
  631MOL0     H87045   1.710   6.243   5.464 -1.0332  4.9993  0.0069
  631MOL0     H87046   1.785   6.132   5.740 -2.0457  1.0558 -1.3693
  631MOL0     H87047   1.895   6.131   5.602  1.7445 -0.2189  2.5680
  631MOL0     H87048   1.634   5.986   5.596 -0.5010  3.9040  2.3259
  631MOL0     H87049   1.774   5.907   5.671  2.0965 -0.0857 -0.8661
  631MOL0     H87050   1.769   6.027   5.391  0.3592  2.8119  2.5827
  631MOL0     H87051   1.914   5.959   5.481  0.2612 -0.9546  0.4153
  631MOL0     H87052   1.675   5.817   5.375 -0.5365  2.2477  1.3386
  631MOL0     H87053   1.783   5.741   5.496  0.7706 -2.4698 -2.2234
  631MOL0     H87054   1.841   5.655   5.276 -1.3032 -1.3504  1.7422
  631MOL0     H87055   1.973   5.728   5.357  0.9760  0.3711 -1.4781
  631MOL0     H87056   1.961   5.775   5.104  1.5397 -0.7698 -0.2718
  631MOL0     H87057   1.963   5.929   5.193  0.0632 -0.8164  0.8445
  631MOL0     H87058   1.441   6.578   5.752 -0.4184 -0.3801  0.7283
  631MOL0     H87059   1.426   6.836   5.785  1.3242  2.5022  3.2346
  631MOL0     H87060   1.326   7.228   5.842 -1.2143  0.3594  1.4986
  631MOL0     H87061   1.313   7.461   5.886 -0.7186  0.4743 -0.8903
  631MOL0     H87062   2.007   8.923   6.477 -0.5166 -0.6263  1.7531
  631MOL0     H87063   2.107   9.141   6.444 -0.0393  1.6565  2.5683
  631MOL0     H87064   2.316   9.430   6.412 -0.4545  0.6591  0.0831
  631MOL0     H87065   2.320   9.682   6.418  2.1445  1.9146 -0.6153
  631MOL0     H87066   2.612  10.014   6.536 -0.0448 -0.2951 -1.0456
  631MOL0     H87067   2.689   9.876   6.598  2.4302  1.7307 -0.3587
  631MOL0     H87068   2.741   9.782   6.378 -0.2493  0.3449  0.8023
  631MOL0     H87069   2.783   9.956   6.376  2.0632 -1.0149  3.3543
  631MOL0     H87070   2.550   9.792   6.249  1.2749 -1.0586  0.1676
  631MOL0     H87071   2.546   9.972   6.258 -1.9905 -1.1331  0.4640
  631MOL0     H87072   2.731  10.008   6.123 -0.6591 -0.1408 -1.8048
  631MOL0     H87073   2.608   9.889   6.043 -0.6525 -1.2712  0.2969
  631MOL0     H87074   2.979   9.671   6.098  2.1020  2.0973  1.0034
  631MOL0     H87075   2.625   9.683   6.705  0.2465  1.4504  0.4561
  631MOL0     H87076   2.716   9.351   6.711  0.5948  0.9751 -0.5630
  631MOL0     H87077   2.696   9.472   6.836 -0.4666  2.8024 -1.2469
  631MOL0     H87078   2.565   9.350   6.809 -0.1247  0.2188 -0.3490
  632MOL0     O87079   2.443   2.894   5.829  0.3466 -0.5539 -0.4375
  632MOL0     C87080   2.486   2.838   5.729  1.5353  0.1953 -1.1552
  632MOL0     O87081   2.416   2.821   5.617  0.2932 -0.7479  0.2341
  632MOL0     C87082   2.300   2.885   5.609  0.5892  0.2718  0.1868
  632MOL0     C87083   2.264   3.010   5.649 -0.4672  0.0065 -0.4280
  632MOL0     C87084   2.140   3.072   5.616  0.6281  0.7077 -0.5633
  632MOL0     C87085   2.056   3.009   5.529 -0.0768  0.7555  0.4553
  632MOL0     O87086   1.940   3.074   5.494 -0.1654 -0.0704  0.0902
  632MOL0     C87087   1.945   3.161   5.375  0.3610  0.0467 -0.2266
  632MOL0     C87088   1.808   3.197   5.330 -0.0390 -0.1904 -0.9803
  632MOL0     C87089   1.805   3.293   5.218  0.3502  0.4916  0.6832
  632MOL0     C87090   1.850   3.435   5.269 -0.0400 -0.1508 -0.2648
  632MOL0     C87091   1.851   3.533   5.154  0.0748  0.2283  0.5582
  632MOL0     C87092   1.710   3.588   5.117 -0.6670 -0.7835 -0.1068
  632MOL0     C87093   1.735   3.728   5.056 -0.5207  0.5207  0.4210
  632MOL0     C87094   1.596   3.789   5.032  0.0710  0.0943 -0.2174
  632MOL0     N87095   1.601   3.903   4.944  0.8414  0.3278 -0.5690
  632MOL0     C87096   1.621   3.908   4.814 -0.4327  0.5252  0.4827
  632MOL0     C87097   1.628   4.038   4.784 -0.8313 -0.5843 -0.2285
  632MOL0     C87098   1.655   4.083   4.648  0.4043 -0.8362 -0.1133
  632MOL0     C87099   1.520   4.161   4.615 -0.6008  0.1103  0.8070
  632MOL0     C87100   1.483   4.146   4.465  0.7848  0.2636  0.9319
  632MOL0     C87101   1.563   4.240   4.382  0.3550  0.3295 -0.0028
  632MOL0     O87102   1.698   4.212   4.369 -0.7635 -0.5032 -0.1733
  632MOL0     C87103   1.754   4.242   4.249 -0.1789  0.0274  0.1216
  632MOL0     C87104   1.695   4.227   4.120  0.4884  0.3012  1.0840
  632MOL0     C87105   1.771   4.243   4.004 -0.7291  1.2869 -0.0930
  632MOL0     C87106   1.696   4.214   3.872 -0.1365 -0.2259  0.8318
  632MOL0     C87107   1.906   4.296   4.017  0.7425 -0.0404  0.5327
  632MOL0     C87108   1.990   4.321   3.901  0.0085 -0.1575 -0.3805
  632MOL0     O87109   1.965   4.253   3.784 -0.1955 -0.0910  0.0053
  632MOL0     C87110   2.072   4.244   3.695 -0.1973 -0.2760  0.9981
  632MOL0     C87111   2.056   4.243   3.554 -1.0053 -0.4812 -0.1660
  632MOL0     C87112   2.164   4.223   3.470 -0.5793  0.1916 -0.3878
  632MOL0     C87113   2.293   4.221   3.506  0.1354 -0.8106 -0.9342
  632MOL0     O87114   2.390   4.206   3.408 -0.1732 -0.1812 -0.8619
  632MOL0     C87115   2.520   4.248   3.424  0.0856  0.2712 -0.0028
  632MOL0     C87116   2.610   4.245   3.298 -0.1667  0.4633  0.4095
  632MOL0     C87117   2.563   4.322   3.175 -0.2273  0.2365 -0.1838
  632MOL0     C87118   2.656   4.309   3.054 -0.1694  0.5880 -0.0347
  632MOL0     C87119   2.742   4.439   3.041  0.0506  0.4440 -0.7273
  632MOL0     C87120   2.828   4.427   2.924 -0.0677  0.1698 -0.2484
  632MOL0     C87121   2.905   4.558   2.901 -0.1328 -0.1385  0.2397
  632MOL0     C87122   3.001   4.551   2.779  0.2327  0.0080 -0.1391
  632MOL0    Cl87123   3.142   4.453   2.802  0.1017 -0.4277 -0.3080
  632MOL0     C87124   2.314   4.230   3.644 -0.0818 -0.0936  0.0915
  632MOL0     C87125   2.212   4.241   3.739 -0.9263  0.9837  0.9392
  632MOL0     O87126   2.081   4.402   3.919 -0.1527 -0.6490 -0.8579
  632MOL0     C87127   1.962   4.306   4.143 -0.2962  1.0487  0.5520
  632MOL0     C87128   1.887   4.279   4.257  0.6857  0.3475 -0.1292
  632MOL0     N87129   1.603   4.114   4.899  0.2464  0.0338  0.0276
  632MOL0     N87130   1.579   4.028   4.991 -0.1071 -0.3405 -0.6471
  632MOL0     C87131   2.084   2.875   5.484  0.6049  0.1139  1.1491
  632MOL0     C87132   2.208   2.826   5.520  0.8057  0.2238 -0.4383
  632MOL0     C87133   2.618   2.773   5.741 -0.0444 -0.6141  0.3835
  632MOL0     C87134   2.630   2.650   5.675 -0.5401  0.6008 -0.3117
  632MOL0     C87135   2.754   2.578   5.706 -0.0770  0.1458 -0.2271
  632MOL0     C87136   2.860   2.635   5.789  0.1325  0.8069 -0.0115
  632MOL0     O87137   2.981   2.568   5.821  0.4693 -0.1570  0.0969
  632MOL0     C87138   2.997   2.425   5.791 -0.3473 -0.4220 -0.0547
  632MOL0     C87139   3.130   2.370   5.848 -0.2277  0.3739  0.2744
  632MOL0     C87140   3.147   2.210   5.828  0.4959  1.0763  0.5983
  632MOL0     C87141   3.121   2.159   5.685  0.2906  0.1309  0.7730
  632MOL0     C87142   3.109   2.014   5.689  0.1430  0.5707  0.3469
  632MOL0     C87143   3.108   1.890   5.690  0.6202 -0.1629  0.6325
  632MOL0     C87144   2.840   2.771   5.844  0.1796 -0.2477 -0.2525
  632MOL0     C87145   2.722   2.837   5.821  0.7488 -0.7824  1.5220
  632MOL0     C87146   2.716   2.977   5.883 -0.2671  0.0904 -0.2094
  632MOL0     H87147   2.337   3.064   5.708 -0.0061  0.2557 -1.2066
  632MOL0     H87148   2.118   3.168   5.663  0.9127  0.2009  0.6438
  632MOL0     H87149   1.993   3.096   5.300 -0.5593 -1.7452  0.6667
  632MOL0     H87150   2.010   3.247   5.392 -1.1890  1.2035  0.0343
  632MOL0     H87151   1.760   3.102   5.306 -0.3627 -0.3320  0.1831
  632MOL0     H87152   1.754   3.245   5.412  0.1493 -1.3265 -0.1637
  632MOL0     H87153   1.879   3.262   5.143 -0.9324 -1.9448  0.3028
  632MOL0     H87154   1.708   3.301   5.168  0.5884 -0.1224  0.1037
  632MOL0     H87155   1.789   3.467   5.354  4.1401  1.7592  2.3321
  632MOL0     H87156   1.955   3.440   5.298  0.9003  0.8919 -3.4264
  632MOL0     H87157   1.905   3.487   5.071 -1.2946  0.6263 -0.5895
  632MOL0     H87158   1.909   3.615   5.198 -0.7888 -0.7492  3.7714
  632MOL0     H87159   1.654   3.521   5.051 -3.0764  0.3202  0.7175
  632MOL0     H87160   1.645   3.599   5.204  1.7107 -1.7160  1.8933
  632MOL0     H87161   1.800   3.725   4.967  3.1140 -2.2720  2.8713
  632MOL0     H87162   1.790   3.792   5.124 -0.9774  1.5660 -0.1678
  632MOL0     H87163   1.541   3.710   4.980 -0.2931 -0.3826  0.8661
  632MOL0     H87164   1.547   3.823   5.124 -0.0849 -0.4063 -0.1088
  632MOL0     H87165   1.622   3.823   4.746  3.3795 -2.4318  3.7595
  632MOL0     H87166   1.654   3.997   4.580  0.0118  0.0400 -1.2474
  632MOL0     H87167   1.746   4.142   4.634 -0.1927  0.1082 -0.0699
  632MOL0     H87168   1.437   4.113   4.666 -2.5587  1.1165 -1.2593
  632MOL0     H87169   1.528   4.265   4.648 -0.6955  0.5469 -0.4503
  632MOL0     H87170   1.487   4.041   4.434  2.4837  0.2757  1.0537
  632MOL0     H87171   1.380   4.182   4.452  0.6377 -0.6510 -0.8353
  632MOL0     H87172   1.499   4.260   4.296 -2.5073  0.5034  2.0125
  632MOL0     H87173   1.562   4.340   4.427 -1.7688  0.7880 -0.9415
  632MOL0     H87174   1.591   4.197   4.111 -0.2176  3.0287 -1.1393
  632MOL0     H87175   1.702   4.293   3.797 -0.4192  1.7628  2.7786
  632MOL0     H87176   1.591   4.192   3.896  0.0172  0.8536  2.7523
  632MOL0     H87177   1.736   4.121   3.830 -0.4817  1.2760 -3.2881
  632MOL0     H87178   1.965   4.254   3.496  0.4487 -1.1175 -2.7016
  632MOL0     H87179   2.147   4.207   3.363 -1.0935  1.4665 -0.5109
  632MOL0     H87180   2.535   4.344   3.473  1.4953 -0.3137  0.7810
  632MOL0     H87181   2.568   4.172   3.486 -0.1492 -1.4246 -1.7864
  632MOL0     H87182   2.704   4.293   3.328  0.8202 -0.6578 -0.7937
  632MOL0     H87183   2.643   4.144   3.276  0.0298  0.4311  0.8192
  632MOL0     H87184   2.557   4.430   3.194  2.5478  1.2882 -4.0316
  632MOL0     H87185   2.461   4.291   3.153 -0.7796  1.0588  1.0803
  632MOL0     H87186   2.601   4.311   2.959  0.5119  2.8703 -0.4176
  632MOL0     H87187   2.720   4.222   3.071  2.5011  2.8802  2.7249
  632MOL0     H87188   2.682   4.530   3.030 -1.7519 -0.1376  2.7641
  632MOL0     H87189   2.808   4.440   3.128  0.1669 -3.9524 -0.5123
  632MOL0     H87190   2.755   4.404   2.846 -1.4971  1.0010  0.7956
  632MOL0     H87191   2.899   4.346   2.942  1.1993  1.3473  0.1825
  632MOL0     H87192   2.967   4.595   2.983 -0.4762  1.5372 -0.2095
  632MOL0     H87193   2.831   4.639   2.896  0.9780  0.8613 -0.3410
  632MOL0     H87194   3.029   4.655   2.761  3.5360 -0.6038  0.7803
  632MOL0     H87195   2.944   4.499   2.701 -0.3302  0.5068 -0.0753
  632MOL0     H87196   2.419   4.234   3.671  0.9154  2.4599 -3.4442
  632MOL0     H87197   2.224   4.228   3.847  0.5836  2.0214  0.9236
  632MOL0     H87198   2.069   4.317   4.160  0.0932 -1.6121  0.2893
  632MOL0     H87199   1.930   4.264   4.355 -1.1697  0.1356  0.6990
  632MOL0     H87200   2.010   2.825   5.423 -0.1297  2.1484  0.2868
  632MOL0     H87201   2.239   2.733   5.474  0.3785 -1.4029  2.3494
  632MOL0     H87202   2.551   2.600   5.620 -0.6077 -2.0950  2.0081
  632MOL0     H87203   2.775   2.483   5.659 -0.8628 -0.3063  0.3179
  632MOL0     H87204   2.927   2.362   5.846  0.2724 -2.3223 -1.3239
  632MOL0     H87205   2.991   2.402   5.685 -2.5966  3.1409 -0.8614
  632MOL0     H87206   3.140   2.385   5.956 -2.2598  3.0975  0.1841
  632MOL0     H87207   3.211   2.432   5.810  1.0061 -1.4499 -0.1886
  632MOL0     H87208   3.249   2.182   5.856  0.2167 -0.5563  0.0538
  632MOL0     H87209   3.071   2.165   5.893 -1.6578  1.8895 -1.2308
  632MOL0     H87210   3.201   2.178   5.613  0.2176 -0.4615  0.5329
  632MOL0     H87211   3.025   2.196   5.649  2.2579  3.2038 -1.8016
  632MOL0     H87212   3.119   1.784   5.677 -0.0404 -0.1033 -0.6489
  632MOL0     H87213   2.917   2.826   5.898 -0.9386 -1.0847  2.3410
  632MOL0     H87214   2.800   3.013   5.943  0.8838  0.0012 -1.7320
  632MOL0     H87215   2.719   3.058   5.811  0.2490 -0.7721 -1.1870
  632MOL0     H87216   2.626   2.997   5.943 -1.0871  0.1465 -1.4272
  633MOL0     O87217  10.578  10.379   2.435 -1.0689  0.0106  0.4250
  633MOL0     C87218  10.533  10.402   2.322  0.0880  0.5760  0.3706
  633MOL0     O87219  10.445  10.506   2.294 -0.3702 -1.1590  0.2510
  633MOL0     C87220  10.367  10.553   2.401 -0.7724 -0.1413  0.1692
  633MOL0     C87221  10.282  10.464   2.461  0.1244  0.1377  0.4106
  633MOL0     C87222  10.185  10.519   2.549 -0.1776  0.0542 -0.1016
  633MOL0     C87223  10.205  10.653   2.598 -0.2304  0.0511 -0.4252
  633MOL0     O87224  10.121  10.692   2.698 -1.0057 -0.0596 -0.5477
  633MOL0     C87225  10.146  10.818   2.764  0.3441  0.2423  0.1394
  633MOL0     C87226  10.051  10.849   2.888 -1.2517  0.3508  0.6988
  633MOL0     C87227  10.114  10.775   3.009 -0.9120  0.1585 -0.2824
  633MOL0     C87228  10.017  10.765   3.132 -0.2621 -1.4418  0.0194
  633MOL0     C87229   9.900  10.676   3.104 -0.3369  0.0737 -0.8236
  633MOL0     C87230   9.781  10.697   3.201 -0.3618  0.7242 -0.2931
  633MOL0     C87231   9.792  10.626   3.337 -0.7319  0.4512  0.5672
  633MOL0     C87232   9.675  10.673   3.426  0.5286  0.5677 -0.7506
  633MOL0     N87233   9.652  10.578   3.537 -0.4482 -0.6860 -0.2017
  633MOL0     C87234   9.713  10.584   3.661  0.1855 -0.2445  0.1230
  633MOL0     C87235   9.676  10.471   3.736 -0.6350 -0.1853 -1.6098
  633MOL0     C87236   9.722  10.430   3.880  0.8081  0.3929  0.8043
  633MOL0     C87237   9.615  10.470   3.988  0.8439  0.3592  0.0858
  633MOL0     C87238   9.673  10.453   4.129  0.1149 -0.4917 -0.0278
  633MOL0     C87239   9.557  10.447   4.234  0.4234  0.7595 -0.3969
  633MOL0     O87240   9.631  10.411   4.351 -0.2127  0.0950  0.3305
  633MOL0     C87241   9.571  10.329   4.447 -1.0319 -0.3343  1.3950
  633MOL0     C87242   9.432  10.340   4.484 -0.7029 -0.1940  0.7537
  633MOL0     C87243   9.377  10.238   4.558  1.7932 -0.8901  1.0067
  633MOL0     C87244   9.231  10.248   4.593  0.8279 -1.7184 -0.8750
  633MOL0     C87245   9.449  10.122   4.593  0.7310  0.4381  0.1580
  633MOL0     C87246   9.393  10.007   4.673 -0.1339  1.2516 -0.3166
  633MOL0     O87247   9.486   9.907   4.703 -0.1376  0.4512  0.1715
  633MOL0     C87248   9.442   9.784   4.740 -0.4620 -0.1299 -0.6444
  633MOL0     C87249   9.379   9.779   4.862 -0.4458 -0.1471 -0.2185
  633MOL0     C87250   9.327   9.654   4.899  0.4384 -0.0996  0.3708
  633MOL0     C87251   9.338   9.539   4.823 -0.1655  0.6864  1.2153
  633MOL0     O87252   9.266   9.427   4.842  0.2663 -0.0546 -0.1006
  633MOL0     C87253   9.121   9.457   4.829  0.3076  0.1224  0.5300
  633MOL0     C87254   9.054   9.321   4.781 -0.0665 -0.6670 -0.4003
  633MOL0     C87255   8.905   9.342   4.754  0.6642 -0.5426  0.5054
  633MOL0     C87256   8.845   9.209   4.733 -0.3396  0.0148 -0.0127
  633MOL0     C87257   8.695   9.229   4.700  0.1697  0.8793 -0.0996
  633MOL0     C87258   8.631   9.103   4.675  0.0826 -0.3164  0.8740
  633MOL0     C87259   8.480   9.109   4.650  0.3901 -0.6656 -0.2826
  633MOL0     C87260   8.419   9.023   4.545 -0.0579 -0.5374  0.1094
  633MOL0    Cl87261   8.245   9.063   4.551 -0.3034  0.3352 -0.2711
  633MOL0     C87262   9.406   9.558   4.702  0.5983 -0.3181  0.9083
  633MOL0     C87263   9.469   9.672   4.664  0.7601 -0.3074  0.0220
  633MOL0     O87264   9.268   9.992   4.691 -0.5555  0.2221 -0.1746
  633MOL0     C87265   9.582  10.116   4.564  0.2193 -0.1797  0.5183
  633MOL0     C87266   9.647  10.222   4.494  0.5857 -0.0218 -1.0007
  633MOL0     N87267   9.574  10.411   3.659  0.7419  0.2295  0.1927
  633MOL0     N87268   9.565  10.467   3.544 -0.1689 -1.1477  0.8281
  633MOL0     C87269  10.293  10.748   2.538  0.3223 -0.1931 -0.0243
  633MOL0     C87270  10.372  10.689   2.435  0.3061  0.0111  0.4296
  633MOL0     C87271  10.564  10.297   2.219 -0.0996 -0.0993 -0.8270
  633MOL0     C87272  10.580  10.336   2.090  1.2137 -1.1498 -0.5548
  633MOL0     C87273  10.581  10.259   1.976 -0.4965  0.1804 -0.6319
  633MOL0     C87274  10.614  10.119   1.991  0.7438  0.7244  0.3971
  633MOL0     O87275  10.649  10.038   1.882 -0.0650 -0.6242 -0.0608
  633MOL0     C87276  10.647  10.096   1.753 -0.9612 -1.1587 -0.2041
  633MOL0     C87277  10.665   9.997   1.644  1.3544 -0.4266  0.3354
  633MOL0     C87278  10.664  10.045   1.500 -0.9953 -0.2413  0.1664
  633MOL0     C87279  10.651   9.934   1.391 -0.2715  0.0676 -0.5591
  633MOL0     C87280  10.738   9.821   1.397 -0.2094  0.4233  0.5907
  633MOL0     C87281  10.808   9.721   1.384 -0.3036  0.6893  0.2740
  633MOL0     C87282  10.601  10.066   2.127 -0.4628 -0.7201  0.6275
  633MOL0     C87283  10.572  10.158   2.238  0.5366  0.6585  0.2080
  633MOL0     C87284  10.542  10.096   2.373 -1.1540  0.5271 -0.1750
  633MOL0     H87285  10.273  10.362   2.426 -1.5930 -0.0282  1.2832
  633MOL0     H87286  10.107  10.461   2.599  0.5456 -1.0489 -0.2162
  633MOL0     H87287  10.145  10.902   2.694 -2.7182  2.2371  2.3354
  633MOL0     H87288  10.249  10.802   2.798  0.9848  1.6886 -1.0074
  633MOL0     H87289  10.049  10.957   2.903 -0.5911  0.2459  1.6745
  633MOL0     H87290   9.951  10.811   2.866 -1.0606 -0.3346  0.9898
  633MOL0     H87291  10.138  10.672   2.979 -1.4311  0.3108 -1.2787
  633MOL0     H87292  10.201  10.834   3.039 -1.0121  2.7351 -4.2488
  633MOL0     H87293  10.080  10.741   3.217  3.8608  2.6970 -1.3812
  633MOL0     H87294   9.982  10.866   3.159  1.2492 -1.4942  2.4641
  633MOL0     H87295   9.947  10.578   3.119  2.6481  1.3257 -1.3924
  633MOL0     H87296   9.855  10.690   3.005 -2.5167  2.0021  0.3449
  633MOL0     H87297   9.777  10.804   3.219  1.3896  0.4836  2.0965
  633MOL0     H87298   9.684  10.667   3.160 -1.5895 -2.1197  3.9662
  633MOL0     H87299   9.892  10.641   3.381  0.8704  1.2391 -2.9528
  633MOL0     H87300   9.778  10.519   3.318 -1.3336  0.3466  1.5348
  633MOL0     H87301   9.693  10.776   3.461 -0.4889  1.4172 -2.5680
  633MOL0     H87302   9.588  10.686   3.361  0.9538  0.5339 -1.3335
  633MOL0     H87303   9.782  10.661   3.692 -0.4848 -0.2524  1.7114
  633MOL0     H87304   9.808  10.494   3.899 -0.0912  1.2461  2.2011
  633MOL0     H87305   9.753  10.326   3.872 -0.8230 -0.0025 -1.7280
  633MOL0     H87306   9.576  10.571   3.968 -2.2224 -0.4137  1.5322
  633MOL0     H87307   9.520  10.417   3.999  0.7830  0.9126  2.7804
  633MOL0     H87308   9.731  10.361   4.143 -3.0551 -2.6613 -0.1477
  633MOL0     H87309   9.734  10.543   4.141 -5.0015  3.5001 -0.6916
  633MOL0     H87310   9.511  10.546   4.246 -2.7462 -0.7268  1.0207
  633MOL0     H87311   9.480  10.373   4.210  1.1725  0.2129 -1.1830
  633MOL0     H87312   9.370  10.423   4.454 -2.4796 -2.1206 -1.2169
  633MOL0     H87313   9.160  10.191   4.533 -0.6068 -0.8911 -0.0194
  633MOL0     H87314   9.191  10.350   4.587 -1.8663 -2.5687  0.8167
  633MOL0     H87315   9.212  10.230   4.699  0.6271  1.5189 -0.2523
  633MOL0     H87316   9.373   9.867   4.925  2.9796 -0.4517  0.7093
  633MOL0     H87317   9.265   9.648   4.987 -0.1893 -0.5526 -0.0935
  633MOL0     H87318   9.080   9.483   4.927 -0.7039 -0.8016  0.3650
  633MOL0     H87319   9.105   9.533   4.751  1.4247 -1.7242 -1.6102
  633MOL0     H87320   9.112   9.293   4.692  1.7356 -2.3084  1.1900
  633MOL0     H87321   9.067   9.249   4.863  1.1738  0.9709  0.9060
  633MOL0     H87322   8.893   9.406   4.666 -0.6387  1.5358  2.0864
  633MOL0     H87323   8.858   9.397   4.836 -1.8425 -0.9222 -0.6033
  633MOL0     H87324   8.863   9.135   4.811 -0.7459 -0.0109  0.0565
  633MOL0     H87325   8.892   9.163   4.645 -2.3128 -1.5060 -0.3318
  633MOL0     H87326   8.639   9.254   4.791 -1.7081 -2.0319 -0.2972
  633MOL0     H87327   8.679   9.300   4.618 -0.1383  1.4835  0.4799
  633MOL0     H87328   8.655   9.041   4.762  2.2892  0.7018  1.0422
  633MOL0     H87329   8.680   9.057   4.589 -2.3081  1.5861 -1.6901
  633MOL0     H87330   8.448   9.212   4.632 -0.4322 -1.3193 -3.1275
  633MOL0     H87331   8.431   9.078   4.743 -2.3044 -0.6791 -1.6000
  633MOL0     H87332   8.430   8.917   4.568  1.9896 -0.4019 -0.0477
  633MOL0     H87333   8.463   9.053   4.449  0.3749 -0.2355  0.3973
  633MOL0     H87334   9.404   9.479   4.628  0.3569 -2.2048  2.8319
  633MOL0     H87335   9.527   9.675   4.572 -0.6836 -1.1378 -0.9504
  633MOL0     H87336   9.647  10.032   4.585  1.1487  0.8511  1.9930
  633MOL0     H87337   9.751  10.201   4.470  1.1939 -2.8756  3.0803
  633MOL0     H87338  10.298  10.855   2.552  1.2063 -0.5233  2.9125
  633MOL0     H87339  10.442  10.750   2.378 -0.3631  0.7763  0.3991
  633MOL0     H87340  10.568  10.443   2.078  0.4112 -1.3992 -2.3332
  633MOL0     H87341  10.592  10.311   1.881  1.0635  0.8794 -0.1028
  633MOL0     H87342  10.553  10.147   1.733 -1.3559 -1.4963  0.7179
  633MOL0     H87343  10.728  10.167   1.734 -0.6813 -1.2925  0.4769
  633MOL0     H87344  10.592   9.915   1.650 -1.7796  2.1853  0.7785
  633MOL0     H87345  10.767   9.959   1.650  2.3223  1.8494 -0.7060
  633MOL0     H87346  10.594  10.128   1.486  3.6166  3.6671 -2.7946
  633MOL0     H87347  10.759  10.097   1.489 -2.0011  2.0168  1.2979
  633MOL0     H87348  10.693   9.988   1.306  2.2851  0.9526  1.1714
  633MOL0     H87349  10.547   9.899   1.389  0.3755 -1.9894 -0.4795
  633MOL0     H87350  10.853   9.625   1.367  0.7574  0.9886  1.2528
  633MOL0     H87351  10.603   9.958   2.137 -4.3264 -0.9135  0.8208
  633MOL0     H87352  10.454  10.150   2.409 -2.9852 -2.4668  0.1533
  633MOL0     H87353  10.502   9.994   2.367  0.6931 -0.2801  0.5229
  633MOL0     H87354  10.628  10.114   2.438  0.2359  0.1163 -1.8216
  634MOL0     O87355   3.941   3.314  11.073 -0.0326  0.1733 -0.9446
  634MOL0     C87356   3.902   3.421  11.039 -0.7691  0.1742  0.3647
  634MOL0     O87357   3.783   3.487  11.061 -0.3621 -0.2410  0.1009
  634MOL0     C87358   3.680   3.420  11.114  0.4780 -0.1729 -0.9007
  634MOL0     C87359   3.574   3.376  11.029 -0.1447  0.2368 -0.6740
  634MOL0     C87360   3.460   3.330  11.088  0.5339  0.1579  0.1033
  634MOL0     C87361   3.440   3.327  11.228 -0.0909 -0.0932 -1.5746
  634MOL0     O87362   3.319   3.276  11.275 -0.2635  0.5953  0.0547
  634MOL0     C87363   3.288   3.294  11.409  0.2564 -0.1331 -1.0928
  634MOL0     C87364   3.188   3.200  11.466  0.5126 -0.3792  0.1026
  634MOL0     C87365   3.056   3.221  11.394  0.4111 -0.5489 -0.0189
  634MOL0     C87366   2.938   3.260  11.483  0.5495  0.3229 -0.9822
  634MOL0     C87367   2.802   3.272  11.412  0.2661 -0.1370  0.2452
  634MOL0     C87368   2.691   3.342  11.488 -0.5749 -0.5018 -0.4575
  634MOL0     C87369   2.697   3.487  11.455  0.4300 -0.5936  0.1351
  634MOL0     C87370   2.613   3.521  11.330 -0.5113  0.1344 -0.1917
  634MOL0     N87371   2.583   3.670  11.340 -0.3903  0.6010  0.4870
  634MOL0     C87372   2.669   3.785  11.340 -0.1625  0.7954 -0.6215
  634MOL0     C87373   2.581   3.889  11.340  0.3140  0.4480 -0.0836
  634MOL0     C87374   2.627   4.028  11.314  1.2399  0.3887 -0.1735
  634MOL0     C87375   2.519   4.115  11.256 -0.1179 -0.8861  1.0429
  634MOL0     C87376   2.585   4.235  11.179 -0.1078  0.4362 -0.6494
  634MOL0     C87377   2.703   4.320  11.244  0.9250 -0.2286 -0.1711
  634MOL0     O87378   2.712   4.321  11.383  0.0059 -0.4791 -0.1179
  634MOL0     C87379   2.830   4.317  11.448 -0.2298 -0.2861 -0.3428
  634MOL0     C87380   2.941   4.370  11.405 -0.3785  0.5793 -0.3484
  634MOL0     C87381   3.053   4.385  11.483  0.2168 -0.0200  0.5660
  634MOL0     C87382   3.169   4.461  11.431  0.3288  0.6904  0.7361
  634MOL0     C87383   3.064   4.325  11.605  0.3137  0.3317 -1.2689
  634MOL0     C87384   3.184   4.328  11.698 -0.1128  0.0200 -0.4720
  634MOL0     O87385   3.203   4.219  11.781  0.6213  0.2899  0.0874
  634MOL0     C87386   3.274   4.207  11.889  0.5990  0.8023  0.8485
  634MOL0     C87387   3.350   4.309  11.948  0.2282 -0.0697  0.2246
  634MOL0     C87388   3.433   4.280  12.061  0.0944  0.7435 -0.1578
  634MOL0     C87389   3.435   4.156  12.118  0.9394 -0.2852  0.6418
  634MOL0     O87390   3.513   4.131  12.226  0.0297 -0.1219  0.1397
  634MOL0     C87391   3.455   4.035  12.314 -0.1815  0.5928  0.7600
  634MOL0     C87392   3.522   4.054  12.447 -0.0780 -0.4541  0.7355
  634MOL0     C87393   3.458   3.961  12.541 -0.5261 -0.9775 -0.4184
  634MOL0     C87394   3.313   3.997  12.583  0.3389 -0.2739  0.2402
  634MOL0     C87395   3.213   3.898  12.515 -0.7684  0.3823 -0.3348
  634MOL0     C87396   3.079   3.970  12.505  0.4218  0.3214  0.7141
  634MOL0     C87397   3.022   4.037  12.634 -0.2572  0.0832 -0.2039
  634MOL0     C87398   2.908   4.134  12.597  0.5263  0.6007 -0.7080
  634MOL0    Cl87399   2.939   4.256  12.476 -0.2642 -0.4506 -0.2583
  634MOL0     C87400   3.363   4.048  12.050 -0.1612  0.2237 -0.3511
  634MOL0     C87401   3.294   4.077  11.937  0.2343  0.4059  0.3778
  634MOL0     O87402   3.267   4.420  11.694 -0.1223 -0.1674  0.0745
  634MOL0     C87403   2.946   4.268  11.659 -0.0673  0.6138  0.7869
  634MOL0     C87404   2.828   4.267  11.580 -0.7795  0.9184  0.2214
  634MOL0     N87405   2.451   3.844  11.327  0.0599 -0.1132 -0.1790
  634MOL0     N87406   2.455   3.715  11.341 -0.2473  0.2646  0.0988
  634MOL0     C87407   3.548   3.382  11.308 -0.3850 -0.0873  0.4664
  634MOL0     C87408   3.663   3.428  11.251  0.9567 -0.4720 -0.0439
  634MOL0     C87409   3.992   3.487  10.948 -0.4376 -0.0342  1.0606
  634MOL0     C87410   4.128   3.470  10.969 -0.3617  0.3907 -0.2862
  634MOL0     C87411   4.237   3.521  10.887  0.5986  0.5230  0.2392
  634MOL0     C87412   4.194   3.577  10.767 -0.7750  0.1936  0.8074
  634MOL0     O87413   4.282   3.620  10.665  0.5227  0.4951  0.2183
  634MOL0     C87414   4.374   3.525  10.621 -0.5364  1.4942  0.5107
  634MOL0     C87415   4.519   3.560  10.640  0.4065 -0.1641 -0.6790
  634MOL0     C87416   4.578   3.687  10.588  0.1110 -0.1423 -0.1378
  634MOL0     C87417   4.714   3.723  10.663  0.7441 -0.9492 -0.0261
  634MOL0     C87418   4.808   3.612  10.638 -0.3441  0.4525 -0.8418
  634MOL0     C87419   4.895   3.528  10.641  0.3738 -0.0579  0.3348
  634MOL0     C87420   4.057   3.587  10.738  0.6925 -0.0190  0.2284
  634MOL0     C87421   3.954   3.558  10.829  0.5054  0.2998  0.7227
  634MOL0     C87422   3.807   3.595  10.793  0.6252  0.3981 -0.9779
  634MOL0     H87423   3.593   3.379  10.922 -1.1162 -2.7165 -1.0276
  634MOL0     H87424   3.378   3.299  11.024  2.0899 -3.4486 -0.3868
  634MOL0     H87425   3.277   3.402  11.424  0.4401 -0.3598  1.0775
  634MOL0     H87426   3.371   3.264  11.474 -1.9160 -1.9069  1.0379
  634MOL0     H87427   3.223   3.098  11.450  1.0053 -0.6915  2.7147
  634MOL0     H87428   3.169   3.209  11.574 -0.4156  2.1264 -0.1881
  634MOL0     H87429   3.052   3.290  11.309 -1.8875 -1.4047 -0.6983
  634MOL0     H87430   3.016   3.129  11.351 -4.4375  0.9469  0.6518
  634MOL0     H87431   2.913   3.193  11.566 -0.9372  0.5150 -1.2399
  634MOL0     H87432   2.958   3.352  11.538 -3.9128  1.0577 -0.1763
  634MOL0     H87433   2.772   3.168  11.393  0.6723 -0.0966 -0.7316
  634MOL0     H87434   2.808   3.327  11.317  1.4161  0.7564  0.8086
  634MOL0     H87435   2.599   3.291  11.457 -1.9511  1.1674  0.6908
  634MOL0     H87436   2.701   3.318  11.594 -1.1610  0.6829 -0.1211
  634MOL0     H87437   2.796   3.520  11.423  0.5081  0.3513  1.2882
  634MOL0     H87438   2.673   3.543  11.545 -3.1883 -3.3706  1.1391
  634MOL0     H87439   2.676   3.515  11.241  2.2323  5.0690  1.0363
  634MOL0     H87440   2.525   3.457  11.323  0.1975 -0.7339 -2.1181
  634MOL0     H87441   2.778   3.792  11.341  0.0057 -1.1926  0.8842
  634MOL0     H87442   2.713   4.019  11.248 -0.0608 -1.8378 -1.6832
  634MOL0     H87443   2.658   4.077  11.407  1.0467 -0.2103  0.2095
  634MOL0     H87444   2.467   4.051  11.184  0.7005 -0.6150  0.1942
  634MOL0     H87445   2.443   4.154  11.324  0.8275  1.4603  0.8502
  634MOL0     H87446   2.614   4.209  11.077 -0.5812  1.7686 -1.1305
  634MOL0     H87447   2.503   4.303  11.155  1.2836  1.3608 -3.1302
  634MOL0     H87448   2.800   4.286  11.206  2.2072 -0.6304  3.0495
  634MOL0     H87449   2.694   4.425  11.215 -0.9026  0.6668  3.0623
  634MOL0     H87450   2.942   4.421  11.309  1.2852  1.3437  0.0525
  634MOL0     H87451   3.168   4.470  11.322 -2.9650 -0.7545  0.5268
  634MOL0     H87452   3.252   4.394  11.456 -0.4980 -0.6283  0.0794
  634MOL0     H87453   3.157   4.553  11.489 -2.6037 -1.1656  3.3650
  634MOL0     H87454   3.339   4.415  11.928  2.5037  0.3395  0.8618
  634MOL0     H87455   3.478   4.370  12.101  0.3729  0.6131 -0.1728
  634MOL0     H87456   3.346   4.050  12.317 -0.3459 -0.3622 -0.0356
  634MOL0     H87457   3.483   3.933  12.286 -0.9298  0.4725  0.4298
  634MOL0     H87458   3.631   4.047  12.452  0.2831  3.1279  0.7576
  634MOL0     H87459   3.503   4.159  12.473  1.2919  0.1884 -0.6274
  634MOL0     H87460   3.517   3.968  12.633 -2.3476 -2.6377  0.9464
  634MOL0     H87461   3.453   3.856  12.509 -0.7871 -0.7691 -1.0798
  634MOL0     H87462   3.281   4.099  12.561  0.1313 -0.3287  0.2887
  634MOL0     H87463   3.311   3.997  12.692 -0.0061  1.2751  0.2530
  634MOL0     H87464   3.250   3.875  12.414 -0.2281 -0.2350  0.0000
  634MOL0     H87465   3.212   3.805  12.571 -2.4535  0.9519  0.6389
  634MOL0     H87466   3.005   3.909  12.453  1.2362 -2.1965  2.3414
  634MOL0     H87467   3.093   4.056  12.438 -1.9602  0.9626  0.9410
  634MOL0     H87468   3.100   4.071  12.703  0.8957 -2.5286 -0.1073
  634MOL0     H87469   2.982   3.955  12.694  0.7925  0.2171  0.7134
  634MOL0     H87470   2.881   4.193  12.684  4.4792  1.7258 -0.0663
  634MOL0     H87471   2.817   4.079  12.571 -0.2886  0.3573  2.2896
  634MOL0     H87472   3.388   3.948  12.082 -1.3275 -0.2232 -0.7898
  634MOL0     H87473   3.253   3.990  11.888 -0.8274  2.0305 -1.8041
  634MOL0     H87474   2.923   4.242  11.761 -1.4468 -0.4372  0.2496
  634MOL0     H87475   2.727   4.235  11.602 -1.4198  0.9641 -2.3189
  634MOL0     H87476   3.540   3.386  11.416  0.9417  0.5732  0.5639
  634MOL0     H87477   3.739   3.471  11.316 -1.1650  0.6838  1.7987
  634MOL0     H87478   4.171   3.411  11.050  1.1790  2.9445  0.8611
  634MOL0     H87479   4.341   3.499  10.909  1.9078  3.2498 -2.4902
  634MOL0     H87480   4.359   3.426  10.665 -0.2344  0.0917 -2.2880
  634MOL0     H87481   4.354   3.497  10.516 -1.3386  1.9602  0.5296
  634MOL0     H87482   4.588   3.479  10.613 -0.6006 -0.3864 -2.8351
  634MOL0     H87483   4.511   3.569  10.748  2.3371 -1.3861 -0.3794
  634MOL0     H87484   4.589   3.694  10.479 -1.1958  3.8058 -0.1823
  634MOL0     H87485   4.513   3.773  10.605 -0.4715 -0.0083 -2.6289
  634MOL0     H87486   4.694   3.739  10.769 -3.2087  1.3860 -0.9256
  634MOL0     H87487   4.762   3.817  10.636  1.2880 -1.7559 -2.0235
  634MOL0     H87488   4.966   3.449  10.629  0.5063  0.2478 -1.1085
  634MOL0     H87489   4.035   3.628  10.640  0.7795  0.9667  0.6099
  634MOL0     H87490   3.742   3.514  10.825  0.0013  0.8000 -1.2114
  634MOL0     H87491   3.787   3.694  10.834 -2.4704  0.5818 -2.6702
  634MOL0     H87492   3.792   3.621  10.688 -0.1327 -0.9841 -1.2325
  635MOL0     O87493   9.709   0.878   2.905  0.3372 -0.1725 -0.3742
  635MOL0     C87494   9.672   0.933   2.804  1.3994  0.4845  0.8826
  635MOL0     O87495   9.603   0.880   2.698 -0.2006 -0.8331  0.0532
  635MOL0     C87496   9.582   0.740   2.703 -0.3734  0.7812 -0.5768
  635MOL0     C87497   9.499   0.677   2.801  0.1485 -0.4225  0.6018
  635MOL0     C87498   9.482   0.537   2.810  0.4049  0.1742 -0.1002
  635MOL0     C87499   9.555   0.453   2.728 -0.6009 -0.7862 -0.0396
  635MOL0     O87500   9.564   0.321   2.719  0.0921  0.7017 -0.6554
  635MOL0     C87501   9.470   0.257   2.817  0.1315  0.1542  0.8467
  635MOL0     C87502   9.505   0.268   2.960 -0.3213 -0.5505  0.3626
  635MOL0     C87503   9.391   0.211   3.045 -0.1591  0.7288 -0.8904
  635MOL0     C87504   9.401   0.059   3.053 -0.0982  0.0969  0.0548
  635MOL0     C87505   9.267  -0.002   3.114  0.1851  0.4032  0.4481
  635MOL0     C87506   9.156  -0.008   3.007 -0.5559 -0.7398  0.1133
  635MOL0     C87507   9.027  -0.075   3.070  0.2725 -0.1544  0.6566
  635MOL0     C87508   8.921  -0.099   2.954  0.6325 -0.0016 -0.7145
  635MOL0     N87509   8.782  -0.156   2.992 -0.4619  0.4979 -0.2037
  635MOL0     C87510   8.657  -0.115   2.959 -0.5183  0.3870  0.0379
  635MOL0     C87511   8.580  -0.216   3.008 -0.3802 -0.5660  0.0164
  635MOL0     C87512   8.430  -0.229   2.992  0.1033  0.2878 -0.5090
  635MOL0     C87513   8.382  -0.369   3.030 -0.6163  0.5576 -0.6820
  635MOL0     C87514   8.238  -0.374   2.977 -0.4280  0.0372  0.2607
  635MOL0     C87515   8.173  -0.509   2.966  0.3815 -0.4384  0.4060
  635MOL0     O87516   8.030  -0.503   2.983 -0.3592  0.7332 -0.3418
  635MOL0     C87517   7.966  -0.616   3.022  0.7870 -0.1351 -0.0624
  635MOL0     C87518   7.843  -0.606   3.081 -0.3053  0.0052  0.0354
  635MOL0     C87519   7.769  -0.719   3.113 -0.1571  0.2150 -0.3645
  635MOL0     C87520   7.638  -0.681   3.188 -0.3810  0.6539  0.0435
  635MOL0     C87521   7.822  -0.853   3.090  0.2307  0.5499 -0.6616
  635MOL0     C87522   7.740  -0.970   3.138 -0.2379  0.3039  0.6086
  635MOL0     O87523   7.788  -1.088   3.089  0.2991 -0.1879 -0.2015
  635MOL0     C87524   7.702  -1.191   3.073 -0.7126  0.7322  0.7070
  635MOL0     C87525   7.657  -1.277   3.174  0.4330 -0.4465 -0.2526
  635MOL0     C87526   7.583  -1.389   3.153  0.4028  0.8557 -0.1609
  635MOL0     C87527   7.552  -1.433   3.026 -0.3179  0.1009  0.0580
  635MOL0     O87528   7.492  -1.559   3.020 -0.0376  0.5737 -0.1226
  635MOL0     C87529   7.509  -1.626   2.896  0.3242 -0.1280  0.4916
  635MOL0     C87530   7.452  -1.767   2.901 -0.8957  0.0818  0.0774
  635MOL0     C87531   7.537  -1.867   2.981 -0.5809  0.3073  0.4129
  635MOL0     C87532   7.463  -1.995   2.975  0.3818 -0.3630 -0.2540
  635MOL0     C87533   7.521  -2.078   3.102 -1.0599 -0.4073  0.8200
  635MOL0     C87534   7.460  -2.218   3.143 -0.1861  0.4481  0.5808
  635MOL0     C87535   7.500  -2.252   3.288  0.0797 -0.5630  0.3161
  635MOL0     C87536   7.504  -2.397   3.319 -0.7111  0.5263  0.1203
  635MOL0    Cl87537   7.544  -2.436   3.492  0.3199 -0.4363  0.0984
  635MOL0     C87538   7.597  -1.359   2.915 -0.5649 -0.2555 -0.9764
  635MOL0     C87539   7.672  -1.240   2.942  1.2226 -0.0888  0.2061
  635MOL0     O87540   7.647  -0.957   3.207  0.0089  0.4090  0.1145
  635MOL0     C87541   7.949  -0.871   3.035 -0.3286  0.3177  0.1782
  635MOL0     C87542   8.016  -0.753   3.004 -0.0234 -1.0375 -0.2278
  635MOL0     N87543   8.664  -0.306   3.079 -0.0026  0.3252  0.6176
  635MOL0     N87544   8.784  -0.271   3.066  0.6101 -0.0746 -1.0240
  635MOL0     C87545   9.642   0.514   2.640  0.7133  0.4917  0.0724
  635MOL0     C87546   9.654   0.654   2.622  0.5136  1.0536  0.8804
  635MOL0     C87547   9.728   1.064   2.771  0.7090 -0.3780 -0.5498
  635MOL0     C87548   9.861   1.090   2.753  0.2987  0.1106 -0.2303
  635MOL0     C87549   9.912   1.214   2.734 -0.2789  0.1768 -0.0760
  635MOL0     C87550   9.827   1.327   2.713 -0.1747  0.1427  0.2493
  635MOL0     O87551   9.873   1.455   2.688  0.1391  0.0452 -0.5519
  635MOL0     C87552  10.011   1.492   2.701  0.9576  0.9158 -0.9360
  635MOL0     C87553  10.079   1.451   2.575 -0.2155 -0.0491 -0.1926
  635MOL0     C87554  10.233   1.500   2.580 -0.3013 -0.5457 -0.3070
  635MOL0     C87555  10.313   1.435   2.468  0.6019  0.1569  0.1922
  635MOL0     C87556  10.440   1.496   2.464  0.3058  0.8635  0.1017
  635MOL0     C87557  10.554   1.545   2.461 -0.2058 -0.3214 -0.5315
  635MOL0     C87558   9.692   1.297   2.720  0.1709 -0.0386 -0.9407
  635MOL0     C87559   9.642   1.176   2.757 -0.4823 -0.1181 -0.3373
  635MOL0     C87560   9.500   1.170   2.797  0.8240  0.0687 -0.4326
  635MOL0     H87561   9.448   0.736   2.877 -4.5901 -1.7953 -1.1536
  635MOL0     H87562   9.396   0.511   2.871 -0.6306  1.1133 -1.1125
  635MOL0     H87563   9.467   0.150   2.796 -1.0694  0.4265 -0.5925
  635MOL0     H87564   9.371   0.303   2.807  1.8454  3.9775 -0.2220
  635MOL0     H87565   9.603   0.220   2.970  0.9499  1.6932 -0.5458
  635MOL0     H87566   9.529   0.369   2.996  0.2372 -0.7251  0.4888
  635MOL0     H87567   9.399   0.241   3.149 -0.1199 -1.9355 -0.0473
  635MOL0     H87568   9.302   0.255   3.001  1.0104 -0.1035 -4.4942
  635MOL0     H87569   9.427   0.017   2.956  0.7331 -0.3544  0.4609
  635MOL0     H87570   9.484   0.035   3.120  1.1523  0.6669 -1.2435
  635MOL0     H87571   9.230   0.047   3.204 -1.1468 -1.2277  0.8194
  635MOL0     H87572   9.298  -0.105   3.132  1.7743 -0.1813 -4.1677
  635MOL0     H87573   9.126   0.078   2.947 -1.5072 -1.9445 -1.1872
  635MOL0     H87574   9.189  -0.086   2.939 -3.8469 -2.7997  0.6587
  635MOL0     H87575   8.986  -0.013   3.151 -1.5613 -0.6736  0.1633
  635MOL0     H87576   9.057  -0.172   3.112  1.0985 -0.3212 -0.2883
  635MOL0     H87577   8.909  -0.000   2.908  1.1909  0.4282  0.0438
  635MOL0     H87578   8.970  -0.162   2.878 -0.5884 -0.0998 -1.4503
  635MOL0     H87579   8.616  -0.035   2.897  1.1243  1.4979  0.3187
  635MOL0     H87580   8.409  -0.205   2.887 -0.9081  3.4030  0.3188
  635MOL0     H87581   8.375  -0.160   3.055 -0.9997 -2.2690  1.5264
  635MOL0     H87582   8.439  -0.442   2.972 -1.6801 -1.2068  0.3999
  635MOL0     H87583   8.391  -0.389   3.137  1.1687  2.9067 -0.3206
  635MOL0     H87584   8.166  -0.314   3.033 -1.1253 -1.4122  0.9564
  635MOL0     H87585   8.235  -0.328   2.878 -0.9673 -1.3748 -0.3966
  635MOL0     H87586   8.197  -0.537   2.863 -1.5260  2.2428 -0.8870
  635MOL0     H87587   8.214  -0.588   3.030  3.4716  0.5282 -0.2308
  635MOL0     H87588   7.796  -0.509   3.093 -1.1411 -0.1786 -1.5251
  635MOL0     H87589   7.657  -0.725   3.286  1.9958 -0.8378 -1.0049
  635MOL0     H87590   7.549  -0.722   3.138  0.6851 -0.4834 -0.9837
  635MOL0     H87591   7.623  -0.575   3.207 -0.1041  1.0099 -1.5909
  635MOL0     H87592   7.678  -1.239   3.273 -0.0206 -0.0423 -0.3057
  635MOL0     H87593   7.545  -1.458   3.228 -1.0761  1.8589  0.0701
  635MOL0     H87594   7.457  -1.575   2.813  0.3019 -1.8657 -0.6061
  635MOL0     H87595   7.617  -1.631   2.881  0.3340  1.2467 -0.0421
  635MOL0     H87596   7.352  -1.767   2.947 -2.1298  0.5123 -2.4066
  635MOL0     H87597   7.452  -1.800   2.796 -2.4768  2.7193 -0.8790
  635MOL0     H87598   7.556  -1.827   3.081  2.9116  0.2670 -0.1051
  635MOL0     H87599   7.635  -1.887   2.935  0.2914 -3.7132  3.4786
  635MOL0     H87600   7.479  -2.045   2.879  0.6011  0.9300 -0.9115
  635MOL0     H87601   7.354  -1.989   2.986  0.2242 -2.4068 -0.2864
  635MOL0     H87602   7.630  -2.085   3.092 -0.8478  1.8841  0.8883
  635MOL0     H87603   7.498  -2.007   3.182  1.9009  1.3706  0.2430
  635MOL0     H87604   7.507  -2.289   3.074 -0.2212 -0.7500  1.7614
  635MOL0     H87605   7.350  -2.216   3.140 -0.1901  0.7604  0.9871
  635MOL0     H87606   7.430  -2.200   3.353 -1.1364  0.8688 -2.0244
  635MOL0     H87607   7.604  -2.224   3.307  0.3044  0.6786 -2.2795
  635MOL0     H87608   7.565  -2.445   3.241 -2.0028  1.9637 -1.8755
  635MOL0     H87609   7.400  -2.425   3.302 -0.8872  0.0406  1.8182
  635MOL0     H87610   7.584  -1.392   2.812 -0.0315 -1.5389 -0.6528
  635MOL0     H87611   7.701  -1.175   2.860  4.3575 -0.1825  1.1156
  635MOL0     H87612   7.992  -0.967   3.007 -1.8086 -0.3786  0.2396
  635MOL0     H87613   8.110  -0.770   2.954 -0.2455 -0.1798 -0.9581
  635MOL0     H87614   9.682   0.446   2.565  0.6900 -1.8387  2.0712
  635MOL0     H87615   9.717   0.698   2.547  0.5370 -0.1148  0.1891
  635MOL0     H87616   9.938   1.014   2.754 -0.3389 -0.5948  2.2772
  635MOL0     H87617  10.020   1.228   2.726 -0.5114  3.9098  1.2732
  635MOL0     H87618  10.031   1.599   2.717  0.9887  0.5212  2.3686
  635MOL0     H87619  10.043   1.447   2.795 -1.0395 -0.1093 -0.6987
  635MOL0     H87620  10.027   1.497   2.491 -1.5827  0.9919  1.1857
  635MOL0     H87621  10.081   1.343   2.557 -1.9277 -0.3082  0.9637
  635MOL0     H87622  10.238   1.609   2.574  0.8670 -0.6305 -1.3073
  635MOL0     H87623  10.271   1.477   2.680 -1.9248  0.8566  0.6844
  635MOL0     H87624  10.259   1.462   2.377  1.1501 -0.4437 -0.3293
  635MOL0     H87625  10.332   1.328   2.485  3.3505  0.6295  0.4839
  635MOL0     H87626  10.655   1.583   2.465 -0.7292  1.0705  0.2681
  635MOL0     H87627   9.620   1.376   2.704  2.0091  1.8727 -0.2186
  635MOL0     H87628   9.496   1.102   2.883 -0.7616  3.1396  2.1557
  635MOL0     H87629   9.471   1.266   2.840 -1.7412  1.4552 -4.7447
  635MOL0     H87630   9.425   1.147   2.721  1.9319 -0.1679 -1.4813
  636MOL0     O87631   9.462  10.853   8.025  0.4790 -0.0027  0.4382
  636MOL0     C87632   9.565  10.795   8.009  0.4132  0.5010 -0.3201
  636MOL0     O87633   9.594  10.718   7.894 -0.4907 -0.1803 -0.2690
  636MOL0     C87634   9.506  10.710   7.790  0.1679 -0.0854 -0.4292
  636MOL0     C87635   9.395  10.791   7.747  0.4715 -0.0609 -0.7222
  636MOL0     C87636   9.327  10.768   7.627  0.2588 -1.1143 -0.3406
  636MOL0     C87637   9.375  10.673   7.532  0.0035 -0.5908 -0.5920
  636MOL0     O87638   9.312  10.669   7.408  0.1659 -0.1724 -0.0555
  636MOL0     C87639   9.402  10.640   7.292  0.3433  0.7601 -1.0099
  636MOL0     C87640   9.335  10.700   7.165 -0.0020  0.3740 -0.2875
  636MOL0     C87641   9.236  10.602   7.108 -0.1960  0.0486  0.6248
  636MOL0     C87642   9.301  10.529   6.987 -0.1502  0.1074 -0.4322
  636MOL0     C87643   9.225  10.400   6.947  0.8636  0.0200 -0.6344
  636MOL0     C87644   9.299  10.343   6.827  0.3229  0.3076  0.5229
  636MOL0     C87645   9.221  10.217   6.769  0.0675 -1.1071 -0.6811
  636MOL0     C87646   9.114  10.279   6.668  0.1283 -0.0088  0.7808
  636MOL0     N87647   9.060  10.165   6.600  0.6366 -0.0937  0.9898
  636MOL0     C87648   9.120  10.104   6.486  0.1287  0.1654 -0.4996
  636MOL0     C87649   9.029  10.030   6.432 -0.0350  0.6790 -0.1128
  636MOL0     C87650   9.038   9.960   6.296 -0.1716 -0.4650  0.7150
  636MOL0     C87651   9.092  10.022   6.168 -1.0049  0.4809  0.0252
  636MOL0     C87652   8.995  10.103   6.072 -1.2903  0.1363 -0.4463
  636MOL0     C87653   8.877  10.021   6.024 -0.6554 -0.4549 -0.5621
  636MOL0     O87654   8.918   9.916   5.939  0.2296 -0.3026 -0.7474
  636MOL0     C87655   8.839   9.809   5.898 -0.1331 -0.3375  0.1929
  636MOL0     C87656   8.879   9.728   5.790  0.0648 -0.1175 -0.3201
  636MOL0     C87657   8.793   9.633   5.737  0.0607 -0.3007  0.1760
  636MOL0     C87658   8.838   9.559   5.626 -0.8505 -0.0346  0.2792
  636MOL0     C87659   8.661   9.611   5.791  0.9534 -0.1823 -0.0849
  636MOL0     C87660   8.560   9.501   5.748 -0.9185  0.1615  0.5381
  636MOL0     O87661   8.588   9.421   5.639 -0.5686  0.4254 -0.4781
  636MOL0     C87662   8.480   9.363   5.572 -0.2055 -0.4882  0.0297
  636MOL0     C87663   8.361   9.427   5.531 -1.0078 -0.6578  0.4692
  636MOL0     C87664   8.252   9.362   5.473  0.0432 -0.3776 -0.8920
  636MOL0     C87665   8.256   9.227   5.435 -0.0411 -0.4063 -0.1545
  636MOL0     O87666   8.153   9.160   5.371 -0.0756  0.0554  0.1128
  636MOL0     C87667   8.056   9.237   5.297 -0.4025 -0.5465 -0.5674
  636MOL0     C87668   7.994   9.142   5.196  0.0877 -0.6781 -0.2424
  636MOL0     C87669   8.093   9.103   5.088  0.3525  0.1759  0.5025
  636MOL0     C87670   8.061   8.982   5.004  1.5889  0.8244  0.7512
  636MOL0     C87671   7.935   8.995   4.911 -0.1611  0.3114  0.0844
  636MOL0     C87672   7.936   8.868   4.810  0.4960 -0.1735 -1.9959
  636MOL0     C87673   7.880   8.892   4.676 -0.9733  0.2767 -1.2190
  636MOL0     C87674   7.739   8.934   4.681  0.5245  1.0623  0.8665
  636MOL0    Cl87675   7.635   8.787   4.703  0.3525  0.1833  0.1629
  636MOL0     C87676   8.377   9.159   5.477  1.0813 -0.3647  0.0261
  636MOL0     C87677   8.482   9.229   5.542  0.1543  0.9419  0.0417
  636MOL0     O87678   8.467   9.486   5.819  0.1452 -1.0535  0.7411
  636MOL0     C87679   8.623   9.696   5.904 -0.0852 -1.0337 -0.0482
  636MOL0     C87680   8.707   9.792   5.952 -0.2499  0.3788 -0.3138
  636MOL0     N87681   8.915  10.040   6.514  0.2105 -0.0502 -0.8497
  636MOL0     N87682   8.936  10.125   6.605  0.1406  0.3232  0.2364
  636MOL0     C87683   9.482  10.590   7.575  0.1404  0.6389  0.1089
  636MOL0     C87684   9.551  10.611   7.694  0.2503  0.0375 -0.5294
  636MOL0     C87685   9.680  10.817   8.104 -0.9436 -0.0996  0.2033
  636MOL0     C87686   9.797  10.734   8.090 -0.0190 -0.7526  0.4174
  636MOL0     C87687   9.904  10.751   8.176 -0.9588 -0.0059  0.9091
  636MOL0     C87688   9.907  10.833   8.284 -1.0722 -0.7735 -1.2703
  636MOL0     O87689  10.018  10.830   8.371 -0.8072 -0.3086 -0.8190
  636MOL0     C87690  10.023  10.927   8.478 -0.3507  0.1537  0.1852
  636MOL0     C87691  10.138  10.878   8.584 -0.1030 -0.1649  1.2265
  636MOL0     C87692  10.282  10.922   8.543 -0.6472 -0.5022  0.5645
  636MOL0     C87693  10.330  11.058   8.601  0.1865  0.1693 -1.2179
  636MOL0     C87694  10.220  11.151   8.616  0.4847  0.2317 -0.6823
  636MOL0     C87695  10.132  11.236   8.609  0.5183  0.0870  0.0001
  636MOL0     C87696   9.796  10.916   8.301 -0.8386 -0.0256  0.5106
  636MOL0     C87697   9.687  10.911   8.213  0.1725  0.1953  0.1845
  636MOL0     C87698   9.583  11.020   8.221  0.0069 -0.1258 -0.4630
  636MOL0     H87699   9.362  10.880   7.799 -1.5720  0.8120 -3.2744
  636MOL0     H87700   9.248  10.840   7.612  1.2224  0.1368  0.4410
  636MOL0     H87701   9.426  10.534   7.282 -1.2632 -0.1532  2.9559
  636MOL0     H87702   9.497  10.689   7.319  0.1619 -0.8217  3.1721
  636MOL0     H87703   9.285  10.794   7.189  1.3724  1.7421 -2.5051
  636MOL0     H87704   9.415  10.720   7.094 -1.0034  2.1777 -0.9556
  636MOL0     H87705   9.200  10.521   7.172 -2.0502 -2.1318 -2.8499
  636MOL0     H87706   9.152  10.665   7.077  0.6007  0.3686 -0.9780
  636MOL0     H87707   9.296  10.594   6.900 -2.5029 -1.2372 -1.3974
  636MOL0     H87708   9.406  10.509   7.010 -0.1521  1.8917  1.4217
  636MOL0     H87709   9.123  10.419   6.914  0.9807  1.5898 -0.2117
  636MOL0     H87710   9.228  10.319   7.019 -0.8229 -0.1636 -0.7457
  636MOL0     H87711   9.330  10.414   6.749 -2.5861 -1.6827 -2.7552
  636MOL0     H87712   9.385  10.304   6.883 -0.4241  0.0931  1.5298
  636MOL0     H87713   9.166  10.172   6.852 -2.7999  1.5992 -0.9038
  636MOL0     H87714   9.288  10.144   6.723  1.7831  1.1940 -2.0921
  636MOL0     H87715   9.035  10.333   6.722  0.4405 -0.8642  2.1636
  636MOL0     H87716   9.163  10.341   6.594  1.5429 -0.5069  1.2675
  636MOL0     H87717   9.216  10.135   6.445  0.9072  0.6783  1.5676
  636MOL0     H87718   8.939   9.927   6.263  0.6518 -0.7880 -1.6010
  636MOL0     H87719   9.088   9.863   6.298  1.6400  0.3115 -1.8114
  636MOL0     H87720   9.177  10.081   6.203 -1.5976  0.2955  1.8667
  636MOL0     H87721   9.133   9.937   6.113 -1.5224 -0.3940  0.9584
  636MOL0     H87722   8.968  10.200   6.114 -0.9838 -1.3721  3.6364
  636MOL0     H87723   9.071  10.111   5.993  3.1217 -2.1692  3.1132
  636MOL0     H87724   8.827   9.996   6.118 -1.6535  1.9356 -0.3803
  636MOL0     H87725   8.799  10.079   5.973 -4.2589 -1.1513  3.5695
  636MOL0     H87726   8.977   9.746   5.748  1.2677 -0.9981  1.9332
  636MOL0     H87727   8.941   9.585   5.598 -1.9013  1.8447 -2.1873
  636MOL0     H87728   8.774   9.554   5.538  2.5723 -4.6899 -2.4163
  636MOL0     H87729   8.829   9.458   5.666 -3.1277 -0.8744 -2.1020
  636MOL0     H87730   8.347   9.534   5.543 -1.1580 -0.2965 -2.2990
  636MOL0     H87731   8.167   9.425   5.449 -0.9524 -1.4306 -0.2244
  636MOL0     H87732   7.978   9.286   5.356 -2.3460 -1.3311 -2.3524
  636MOL0     H87733   8.113   9.319   5.252 -0.5239  0.1427  0.4942
  636MOL0     H87734   7.940   9.056   5.238 -1.0970 -0.3783 -1.0918
  636MOL0     H87735   7.907   9.190   5.151 -0.3213  1.2871  2.4020
  636MOL0     H87736   8.189   9.075   5.133  2.2634 -0.6305 -3.5840
  636MOL0     H87737   8.100   9.190   5.022 -2.5535  1.1751  1.3562
  636MOL0     H87738   8.039   8.893   5.064 -0.8850  0.1108 -1.0655
  636MOL0     H87739   8.143   8.959   4.935 -0.4594 -1.0565 -1.2262
  636MOL0     H87740   7.837   8.994   4.960 -1.0533 -2.8183 -1.4851
  636MOL0     H87741   7.953   9.084   4.850  1.2948 -0.2422 -0.3319
  636MOL0     H87742   7.891   8.781   4.858  1.0041  0.8056  0.4167
  636MOL0     H87743   8.037   8.828   4.794  0.4476 -2.3789  2.0446
  636MOL0     H87744   7.885   8.804   4.612  0.3622  0.5484 -1.5207
  636MOL0     H87745   7.937   8.979   4.640  2.9426 -1.6956 -0.2714
  636MOL0     H87746   7.703   8.975   4.585 -1.0200 -0.8218  0.5774
  636MOL0     H87747   7.718   9.005   4.761  1.6451  0.0440  2.1023
  636MOL0     H87748   8.403   9.057   5.450 -0.1661 -0.8263  0.4771
  636MOL0     H87749   8.566   9.165   5.568  1.6032  2.1278 -1.5202
  636MOL0     H87750   8.523   9.681   5.942 -0.1431  0.8553  0.6797
  636MOL0     H87751   8.685   9.852   6.040  1.6812  1.1574 -0.2955
  636MOL0     H87752   9.526  10.499   7.535 -0.9356  0.2219 -0.1516
  636MOL0     H87753   9.621  10.532   7.718 -2.2051 -1.4135  2.4741
  636MOL0     H87754   9.797  10.661   8.010  0.1228 -0.8084  0.4676
  636MOL0     H87755   9.988  10.685   8.153 -0.2344  1.2348 -0.1688
  636MOL0     H87756  10.037  11.033   8.455 -1.3706  0.4246  0.7226
  636MOL0     H87757   9.933  10.915   8.540 -0.7102  0.3188 -0.2977
  636MOL0     H87758  10.147  10.770   8.598 -0.1278 -0.0819  1.9235
  636MOL0     H87759  10.115  10.911   8.686  3.4982  1.5268  1.6508
  636MOL0     H87760  10.361  10.855   8.578  2.1696  0.4047 -3.3669
  636MOL0     H87761  10.292  10.915   8.434  2.6973 -0.9304  0.7734
  636MOL0     H87762  10.415  11.102   8.547  0.2104 -0.3490 -1.6156
  636MOL0     H87763  10.370  11.040   8.701 -1.0502  2.1340 -0.3203
  636MOL0     H87764  10.056  11.311   8.603 -1.2938 -1.6771 -0.1442
  636MOL0     H87765   9.790  10.978   8.390  3.4950 -2.2064  2.6451
  636MOL0     H87766   9.488  10.980   8.260  0.1952  1.1785  1.4884
  636MOL0     H87767   9.619  11.096   8.290  2.6642 -1.3416 -0.3969
  636MOL0     H87768   9.575  11.058   8.119  2.5812  2.3400  0.1619
  637MOL0     O87769   4.075   1.835  11.062  0.6742 -0.7533 -0.2901
  637MOL0     C87770   3.974   1.900  11.055  0.6435 -0.5357  0.2416
  637MOL0     O87771   3.958   2.023  11.008 -0.1590  0.2497 -0.4293
  637MOL0     C87772   4.079   2.094  10.987  0.6726  0.0859 -0.6404
  637MOL0     C87773   4.131   2.105  10.861  0.9101  0.1715 -0.3224
  637MOL0     C87774   4.255   2.177  10.851 -0.3268 -0.0644  0.0280
  637MOL0     C87775   4.321   2.223  10.969  0.7105  0.4323 -0.0596
  637MOL0     O87776   4.442   2.277  10.944 -0.4625 -0.3445  0.0295
  637MOL0     C87777   4.530   2.291  11.064 -0.5758  0.2844 -0.1132
  637MOL0     C87778   4.673   2.325  11.007  0.8071  0.5703  0.8267
  637MOL0     C87779   4.746   2.199  10.955  0.1525  0.3320 -1.0330
  637MOL0     C87780   4.884   2.235  10.899  0.3028  0.1321  0.0119
  637MOL0     C87781   4.985   2.279  10.997 -0.8190  1.7983 -0.1283
  637MOL0     C87782   5.121   2.288  10.938 -0.2521  0.2097 -0.0250
  637MOL0     C87783   5.223   2.311  11.048  0.1898  0.1586  0.1939
  637MOL0     C87784   5.358   2.311  10.987 -0.0607 -0.0332 -0.7382
  637MOL0     N87785   5.459   2.370  11.077  0.2483  0.1005  0.1451
  637MOL0     C87786   5.583   2.318  11.102 -0.2617  0.1581  0.0275
  637MOL0     C87787   5.640   2.407  11.194 -0.4672  0.0862  0.6653
  637MOL0     C87788   5.784   2.389  11.231  0.8180  0.5991 -0.0662
  637MOL0     C87789   5.801   2.441  11.374 -0.2058 -0.3066  0.2493
  637MOL0     C87790   5.931   2.404  11.446  0.0155  0.5712  0.0772
  637MOL0     C87791   5.930   2.474  11.581 -0.5393  0.0903 -0.1053
  637MOL0     O87792   5.928   2.615  11.567 -0.0567  0.4812  0.4537
  637MOL0     C87793   5.960   2.701  11.667  0.2637 -0.5682  0.1314
  637MOL0     C87794   6.045   2.675  11.769  0.1647 -0.1907 -0.0665
  637MOL0     C87795   6.099   2.767  11.858 -0.2802 -0.0266 -0.1900
  637MOL0     C87796   6.190   2.732  11.981  0.5258 -0.2679  1.7130
  637MOL0     C87797   6.063   2.908  11.838  0.2948 -0.2743 -0.5644
  637MOL0     C87798   6.100   3.006  11.932 -0.2700 -0.3342  0.0632
  637MOL0     O87799   6.062   2.988  12.067 -0.4347  0.2062  0.3458
  637MOL0     C87800   6.095   3.086  12.163 -0.2692  0.1669  0.7601
  637MOL0     C87801   6.171   3.058  12.279  0.9278 -0.1227  0.9177
  637MOL0     C87802   6.167   3.148  12.389  0.2231 -0.2286 -0.0223
  637MOL0     C87803   6.105   3.267  12.380  0.6030 -0.2831  0.8551
  637MOL0     O87804   6.090   3.360  12.469 -0.5069 -0.3874  0.3487
  637MOL0     C87805   6.099   3.321  12.608 -0.8221 -0.0751 -0.0538
  637MOL0     C87806   5.961   3.350  12.676  0.3287  0.3172  0.7308
  637MOL0     C87807   5.890   3.478  12.636  0.2728  0.7348 -0.2807
  637MOL0     C87808   5.786   3.521  12.743 -0.7719  0.0514 -0.3828
  637MOL0     C87809   5.681   3.617  12.683  0.8574 -0.8376  0.4102
  637MOL0     C87810   5.594   3.554  12.580 -0.2217 -0.9315 -0.0081
  637MOL0     C87811   5.618   3.626  12.445  0.0781 -0.2636 -0.7926
  637MOL0     C87812   5.543   3.764  12.433  0.5112  0.0040  0.1666
  637MOL0    Cl87813   5.541   3.820  12.259 -0.6665  0.3873 -0.4799
  637MOL0     C87814   6.046   3.300  12.254  0.3624  0.2178  0.0399
  637MOL0     C87815   6.045   3.213  12.145  0.6635  0.8371  0.0746
  637MOL0     O87816   6.154   3.107  11.880  0.4249 -0.0208 -0.3679
  637MOL0     C87817   5.971   2.938  11.743  0.4572 -0.3432  0.5446
  637MOL0     C87818   5.925   2.838  11.657  0.5712 -0.5227 -0.6969
  637MOL0     N87819   5.561   2.511  11.209  0.3864  0.1219  0.4189
  637MOL0     N87820   5.462   2.490  11.132 -0.4454  0.4333  0.8002
  637MOL0     C87821   4.256   2.210  11.090 -0.0840  0.1270  0.1349
  637MOL0     C87822   4.145   2.132  11.105 -0.5597 -0.6035  0.1689
  637MOL0     C87823   3.851   1.838  11.112 -0.4554  0.5442  0.0448
  637MOL0     C87824   3.866   1.716  11.172  0.6059 -0.2444 -0.4690
  637MOL0     C87825   3.762   1.642  11.220  0.0994 -0.1599 -0.3863
  637MOL0     C87826   3.633   1.689  11.225 -0.0192 -1.0312 -0.2165
  637MOL0     O87827   3.528   1.616  11.277 -0.5230  0.2682 -0.4838
  637MOL0     C87828   3.555   1.490  11.339  1.0096 -0.1589 -0.4370
  637MOL0     C87829   3.421   1.449  11.400 -0.1035 -0.0534 -0.1837
  637MOL0     C87830   3.314   1.421  11.290  0.3984 -0.8729  0.1102
  637MOL0     C87831   3.186   1.356  11.346  0.0873  0.9151  0.7066
  637MOL0     C87832   3.093   1.365  11.229  0.8560 -0.2391 -1.1522
  637MOL0     C87833   3.028   1.367  11.123  0.3219  0.6568  0.6988
  637MOL0     C87834   3.610   1.811  11.166  0.2421  0.6685 -0.4277
  637MOL0     C87835   3.717   1.888  11.112 -0.0775 -0.4428  0.0396
  637MOL0     C87836   3.679   2.025  11.058 -0.3363 -0.3275  0.2540
  637MOL0     H87837   4.069   2.070  10.779 -1.0331  1.6048  0.4668
  637MOL0     H87838   4.295   2.195  10.751 -3.9376  1.3869 -1.2996
  637MOL0     H87839   4.533   2.198  11.121 -1.7326  1.0572  1.2501
  637MOL0     H87840   4.498   2.374  11.127  2.4985 -0.4019  2.6421
  637MOL0     H87841   4.655   2.400  10.929 -0.8417  1.4343  1.9729
  637MOL0     H87842   4.738   2.375  11.080  1.4979 -0.9375  1.2782
  637MOL0     H87843   4.756   2.132  11.041  3.2946 -2.8776 -3.6191
  637MOL0     H87844   4.689   2.155  10.874  1.5851 -1.1162 -1.3176
  637MOL0     H87845   4.918   2.146  10.845 -0.2992  0.7724 -1.4584
  637MOL0     H87846   4.873   2.323  10.835 -0.5531  1.8909  2.4096
  637MOL0     H87847   4.986   2.210  11.082  0.9658  0.8928 -0.8493
  637MOL0     H87848   4.947   2.376  11.032 -0.1465  3.0984 -2.7538
  637MOL0     H87849   5.153   2.190  10.902 -0.7438 -0.8099  2.1903
  637MOL0     H87850   5.126   2.367  10.862 -0.4416 -0.3098 -0.5844
  637MOL0     H87851   5.217   2.232  11.123 -2.0082  0.8565  0.8320
  637MOL0     H87852   5.198   2.410  11.087  0.1250  1.2246 -2.3293
  637MOL0     H87853   5.396   2.210  10.967  2.6158  0.5065  1.0112
  637MOL0     H87854   5.356   2.379  10.902 -0.6514  1.5681  0.5006
  637MOL0     H87855   5.632   2.230  11.062  0.1079  1.2742 -2.1338
  637MOL0     H87856   5.845   2.435  11.152 -1.8522  0.7596 -2.1660
  637MOL0     H87857   5.820   2.286  11.231 -0.5318  0.0985  1.4382
  637MOL0     H87858   5.806   2.549  11.358 -0.2099 -0.4260 -0.5987
  637MOL0     H87859   5.716   2.413  11.437  1.4665 -0.8115  2.4099
  637MOL0     H87860   5.938   2.295  11.456 -0.6929  0.5530  0.4323
  637MOL0     H87861   6.019   2.442  11.393  0.3449 -1.6827 -1.1371
  637MOL0     H87862   5.844   2.433  11.634  0.2320 -1.2059  0.1841
  637MOL0     H87863   6.019   2.429  11.626 -1.9285 -1.1776  1.4771
  637MOL0     H87864   6.062   2.570  11.790 -0.1825  0.2986  3.2303
  637MOL0     H87865   6.146   2.660  12.051 -0.1247 -0.3214  1.2497
  637MOL0     H87866   6.226   2.823  12.030 -0.2958  1.0801 -0.1239
  637MOL0     H87867   6.286   2.692  11.946 -0.4961 -1.2577 -0.1384
  637MOL0     H87868   6.209   2.957  12.274 -1.1455 -0.9138 -3.0864
  637MOL0     H87869   6.219   3.112  12.478 -1.2693 -0.4828  0.7809
  637MOL0     H87870   6.112   3.213  12.617 -0.7706 -0.3483 -2.6258
  637MOL0     H87871   6.181   3.381  12.649  2.5555 -2.8702 -2.0334
  637MOL0     H87872   5.894   3.265  12.664  2.9247 -2.0329  1.8347
  637MOL0     H87873   5.981   3.345  12.784  2.3447  1.4596  0.4599
  637MOL0     H87874   5.847   3.463  12.536  0.6309  2.6293 -0.7656
  637MOL0     H87875   5.970   3.553  12.629  0.6942  0.3677  0.4876
  637MOL0     H87876   5.836   3.572  12.826  1.4339 -0.9090 -1.0315
  637MOL0     H87877   5.747   3.429  12.786  0.9544  0.3396  1.9962
  637MOL0     H87878   5.622   3.661  12.763  0.8567 -1.5154  0.7824
  637MOL0     H87879   5.735   3.705  12.645 -0.7198 -0.4311 -1.0003
  637MOL0     H87880   5.491   3.549  12.616 -0.7365 -1.7163 -1.5118
  637MOL0     H87881   5.628   3.450  12.570  1.4140 -0.4500  0.2241
  637MOL0     H87882   5.568   3.566  12.369  1.3486 -2.2866 -0.1273
  637MOL0     H87883   5.722   3.637  12.412 -0.5773 -0.0051 -2.8801
  637MOL0     H87884   5.593   3.838  12.497 -0.5950  1.3839 -0.5100
  637MOL0     H87885   5.441   3.763  12.471  0.7983 -1.7898  1.0065
  637MOL0     H87886   6.000   3.397  12.237  0.9766  0.3191 -1.1643
  637MOL0     H87887   5.990   3.233  12.054 -1.8233  0.5950  1.4476
  637MOL0     H87888   5.943   3.042  11.729 -0.4500 -0.5790  0.5666
  637MOL0     H87889   5.868   2.868  11.570  2.9037  0.4401 -2.0018
  637MOL0     H87890   4.301   2.252  11.180  1.5668 -1.4562  0.1220
  637MOL0     H87891   4.105   2.100  11.201 -3.1726 -1.4662 -1.1215
  637MOL0     H87892   3.965   1.674  11.184  0.4742 -0.3558  0.2259
  637MOL0     H87893   3.792   1.546  11.261  3.4643  0.7729 -0.3813
  637MOL0     H87894   3.574   1.416  11.261 -1.0221  1.6375 -2.7977
  637MOL0     H87895   3.638   1.491  11.411 -0.0133  2.5948  0.8640
  637MOL0     H87896   3.385   1.522  11.474  0.3360  0.0693 -0.0853
  637MOL0     H87897   3.445   1.362  11.462 -0.5907 -1.7040 -2.2139
  637MOL0     H87898   3.293   1.518  11.245  0.5424  0.2270  2.2542
  637MOL0     H87899   3.363   1.351  11.223  0.7730  0.7071 -1.3389
  637MOL0     H87900   3.145   1.404  11.435 -0.0131 -0.9303  1.7102
  637MOL0     H87901   3.207   1.254  11.381  0.7564  0.9797  0.5103
  637MOL0     H87902   2.972   1.386  11.034 -1.2216 -1.0513  1.2445
  637MOL0     H87903   3.510   1.854  11.166  0.9399  2.6077 -2.9759
  637MOL0     H87904   3.573   2.045  11.075 -0.7150 -2.5081  0.8854
  637MOL0     H87905   3.736   2.096  11.119  0.3541 -1.2597  0.7381
  637MOL0     H87906   3.711   2.027  10.954  0.7818  0.8036  0.5956
  638MOL0     O87907   4.377   7.031   4.865 -0.5060 -0.5164  0.3148
  638MOL0     C87908   4.480   7.010   4.923 -1.0679 -0.5964 -0.3992
  638MOL0     O87909   4.516   6.898   4.990 -0.2681  0.3186  0.6847
  638MOL0     C87910   4.427   6.795   5.009  1.0513  1.3442  0.4768
  638MOL0     C87911   4.434   6.676   4.938 -0.0951 -0.6677  0.3174
  638MOL0     C87912   4.364   6.559   4.965 -0.6408  0.1480 -0.5021
  638MOL0     C87913   4.261   6.560   5.063 -0.5959 -0.6597 -0.7176
  638MOL0     O87914   4.178   6.452   5.091 -0.1297 -0.3389  0.3491
  638MOL0     C87915   4.198   6.327   5.021 -0.1046  0.0584  0.2745
  638MOL0     C87916   4.106   6.222   5.092 -0.5845  0.5564  0.8075
  638MOL0     C87917   4.191   6.123   5.177  0.2325 -0.1638 -0.4425
  638MOL0     C87918   4.085   6.011   5.230 -0.6792  0.7271  0.3175
  638MOL0     C87919   4.168   5.914   5.321  0.7115  0.4833 -0.3667
  638MOL0     C87920   4.276   5.820   5.267 -0.7616 -0.1463 -0.4241
  638MOL0     C87921   4.347   5.759   5.392  0.1848  0.2930 -0.1884
  638MOL0     C87922   4.277   5.648   5.460 -0.1331  0.5489 -0.4627
  638MOL0     N87923   4.343   5.598   5.583  0.3154 -0.6372 -0.4351
  638MOL0     C87924   4.473   5.613   5.616 -0.3001 -0.3974 -0.1483
  638MOL0     C87925   4.482   5.569   5.742  0.2632 -0.2965 -0.9690
  638MOL0     C87926   4.600   5.546   5.833  0.3276  0.1165  0.8916
  638MOL0     C87927   4.665   5.418   5.795  0.2313 -0.1495  0.7198
  638MOL0     C87928   4.795   5.435   5.713  0.1694  0.3796  0.0369
  638MOL0     C87929   4.859   5.302   5.687 -0.9459  0.2140  0.0850
  638MOL0     O87930   4.897   5.244   5.813 -0.2186  0.1327 -0.1875
  638MOL0     C87931   5.024   5.268   5.862 -0.9037  0.0253 -0.4364
  638MOL0     C87932   5.109   5.370   5.824  0.8644  0.2686 -0.3709
  638MOL0     C87933   5.234   5.402   5.882 -1.1531  0.1113 -0.0033
  638MOL0     C87934   5.312   5.507   5.818 -0.5278 -0.4404 -0.5818
  638MOL0     C87935   5.280   5.323   5.990  0.2080  0.1484  0.4600
  638MOL0     C87936   5.411   5.338   6.046 -0.9372  0.9357 -0.5274
  638MOL0     O87937   5.427   5.283   6.168  0.0312  0.4912  0.3622
  638MOL0     C87938   5.547   5.240   6.201  0.5156 -0.3580  0.4761
  638MOL0     C87939   5.641   5.172   6.117 -0.4111  0.1168  0.0477
  638MOL0     C87940   5.770   5.142   6.171 -0.4031 -0.7535  0.4381
  638MOL0     C87941   5.806   5.156   6.301 -0.2484 -0.5997  0.2772
  638MOL0     O87942   5.933   5.137   6.334 -0.3747  0.8777  0.5752
  638MOL0     C87943   5.953   5.033   6.430  0.6509 -0.4609 -0.4017
  638MOL0     C87944   5.918   4.893   6.372  0.0434 -0.0943 -0.4846
  638MOL0     C87945   6.027   4.840   6.284 -0.0202  0.5578 -0.7224
  638MOL0     C87946   5.983   4.701   6.227  0.3432 -0.2315 -0.8874
  638MOL0     C87947   6.106   4.629   6.156 -0.2364  0.5501  0.7342
  638MOL0     C87948   6.201   4.573   6.270 -0.1644  0.1447  0.1432
  638MOL0     C87949   6.311   4.494   6.207  0.4681 -0.4830  1.1058
  638MOL0     C87950   6.391   4.420   6.311  0.5329  1.1993  0.0391
  638MOL0    Cl87951   6.504   4.522   6.396 -0.0265  0.0017 -0.1404
  638MOL0     C87952   5.706   5.217   6.384 -0.3606 -0.8138  0.3807
  638MOL0     C87953   5.584   5.258   6.339  0.4431 -0.0463  0.3156
  638MOL0     O87954   5.501   5.406   5.992  0.1640  0.2083  0.0056
  638MOL0     C87955   5.188   5.228   6.039 -1.6158  0.0505  0.0850
  638MOL0     C87956   5.064   5.197   5.972  0.6299  0.5146  0.7450
  638MOL0     N87957   4.356   5.533   5.780 -0.0523  0.5080 -0.0196
  638MOL0     N87958   4.276   5.545   5.686 -0.0934  0.5161 -0.0750
  638MOL0     C87959   4.241   6.686   5.128 -1.2316  0.0263 -0.8665
  638MOL0     C87960   4.331   6.799   5.105 -0.5271 -0.6136  0.1002
  638MOL0     C87961   4.588   7.113   4.919 -0.8234  0.0543  0.0360
  638MOL0     C87962   4.689   7.105   5.018 -0.9439 -0.7290  0.4230
  638MOL0     C87963   4.802   7.186   5.018 -0.5100  0.1147 -0.4099
  638MOL0     C87964   4.816   7.296   4.930 -0.0346 -0.1844  0.4096
  638MOL0     O87965   4.922   7.386   4.942  0.2373  0.1289 -0.1326
  638MOL0     C87966   4.934   7.470   5.059  0.1682  0.1329 -0.2571
  638MOL0     C87967   4.835   7.587   5.063 -0.6952  0.2659  0.1976
  638MOL0     C87968   4.833   7.659   5.205  0.5744  0.1749 -0.1462
  638MOL0     C87969   4.736   7.773   5.215  0.7343 -0.4615 -0.3642
  638MOL0     C87970   4.743   7.843   5.345 -0.7488  0.4697  0.4725
  638MOL0     C87971   4.760   7.895   5.456 -0.1268  0.0970 -0.8479
  638MOL0     C87972   4.718   7.307   4.836 -1.5606  0.0111  0.6019
  638MOL0     C87973   4.610   7.218   4.826  0.4726  0.4788  0.9054
  638MOL0     C87974   4.531   7.218   4.697 -0.3844 -0.1649  0.6581
  638MOL0     H87975   4.500   6.668   4.852 -0.8584 -3.5309 -0.0856
  638MOL0     H87976   4.383   6.463   4.919 -1.0491  1.1897 -2.9964
  638MOL0     H87977   4.302   6.293   5.016 -0.6577 -1.6596 -3.8517
  638MOL0     H87978   4.181   6.338   4.913  0.5797  0.9909  0.2450
  638MOL0     H87979   4.031   6.263   5.161 -1.5116  2.4493 -1.2167
  638MOL0     H87980   4.065   6.164   5.010  0.9823 -0.8843  0.9752
  638MOL0     H87981   4.272   6.076   5.120  0.4281  1.3846 -1.4794
  638MOL0     H87982   4.236   6.180   5.258  1.5016  1.1478 -2.0017
  638MOL0     H87983   4.003   6.046   5.293 -0.6029 -3.5842  3.2722
  638MOL0     H87984   4.047   5.959   5.142 -3.1069  2.3280  0.3241
  638MOL0     H87985   4.093   5.852   5.371  1.6087 -0.2867  0.0394
  638MOL0     H87986   4.212   5.982   5.394  0.0797 -0.9445  1.4099
  638MOL0     H87987   4.234   5.731   5.218 -1.1427  1.2826 -2.8124
  638MOL0     H87988   4.350   5.862   5.199  1.7822 -0.2859  2.1052
  638MOL0     H87989   4.375   5.834   5.467  0.3516  0.3412 -0.2974
  638MOL0     H87990   4.433   5.713   5.343 -1.3761  0.5116 -3.3836
  638MOL0     H87991   4.175   5.678   5.485 -1.6301 -3.8884 -0.4166
  638MOL0     H87992   4.269   5.552   5.408 -0.8448  0.1411  0.3901
  638MOL0     H87993   4.560   5.651   5.564 -0.5134 -1.6933 -1.4885
  638MOL0     H87994   4.568   5.541   5.937 -2.2491  1.1746  0.2462
  638MOL0     H87995   4.664   5.635   5.828  4.1092 -2.3484  1.2585
  638MOL0     H87996   4.685   5.356   5.883 -2.2004 -0.6766  0.9886
  638MOL0     H87997   4.599   5.367   5.723 -0.0354  2.6584 -1.1590
  638MOL0     H87998   4.773   5.494   5.623 -2.8801  0.1290  0.5005
  638MOL0     H87999   4.876   5.487   5.765  1.0801 -1.2239  0.2693
  638MOL0     H88000   4.789   5.241   5.628 -0.8905 -0.6377  0.8719
  638MOL0     H88001   4.944   5.331   5.624 -1.0652  4.1620  1.5004
  638MOL0     H88002   5.075   5.437   5.745  0.1059  1.5411  0.9774
  638MOL0     H88003   5.252   5.573   5.754  1.6780  2.9583  0.5184
  638MOL0     H88004   5.392   5.454   5.764  0.0445 -2.4143  2.0394
  638MOL0     H88005   5.356   5.561   5.902  0.9054 -0.0639 -1.5193
  638MOL0     H88006   5.616   5.150   6.013 -0.9127 -1.4451  0.4787
  638MOL0     H88007   5.846   5.106   6.102 -0.3507  2.0632 -1.1191
  638MOL0     H88008   6.058   5.047   6.457  0.1500 -0.7151  1.9456
  638MOL0     H88009   5.893   5.047   6.521  1.3316  1.7161 -0.2301
  638MOL0     H88010   5.890   4.822   6.450  4.2564 -0.0631  1.3464
  638MOL0     H88011   5.821   4.908   6.324 -0.7466  3.7119  1.8402
  638MOL0     H88012   6.105   4.825   6.359  0.9622  1.7257 -1.4737
  638MOL0     H88013   6.037   4.909   6.200  4.9572  0.5442 -0.4085
  638MOL0     H88014   5.900   4.717   6.156  0.8920  0.8407 -1.3124
  638MOL0     H88015   5.932   4.641   6.303  3.1000 -1.5227  0.0720
  638MOL0     H88016   6.067   4.552   6.088 -1.6518  1.0888  0.8958
  638MOL0     H88017   6.161   4.704   6.100 -0.4410  0.9019  0.9973
  638MOL0     H88018   6.136   4.514   6.336 -0.4310 -2.6495 -2.4371
  638MOL0     H88019   6.236   4.662   6.323  0.9405  0.1927 -0.6496
  638MOL0     H88020   6.369   4.561   6.142 -0.2372 -0.1572  0.8034
  638MOL0     H88021   6.263   4.433   6.130 -1.1785  2.6972 -0.5930
  638MOL0     H88022   6.447   4.343   6.257 -0.9747 -0.1746  0.3614
  638MOL0     H88023   6.332   4.373   6.390  1.0092  2.2622  1.0698
  638MOL0     H88024   5.728   5.213   6.490 -1.3099 -2.2960  0.5430
  638MOL0     H88025   5.514   5.309   6.404  0.8566  1.5810 -0.4626
  638MOL0     H88026   5.214   5.170   6.128  0.6407  0.6204 -0.1248
  638MOL0     H88027   5.015   5.109   6.012  1.3791 -0.0391  0.4596
  638MOL0     H88028   4.155   6.682   5.194 -0.5795 -1.6158 -0.0546
  638MOL0     H88029   4.318   6.897   5.150  0.6526 -1.1434  1.6705
  638MOL0     H88030   4.679   7.031   5.097 -2.6733  0.1701  1.1128
  638MOL0     H88031   4.880   7.159   5.089  0.5810 -0.0678 -1.6534
  638MOL0     H88032   4.912   7.394   5.134 -1.6684 -1.5720 -2.3581
  638MOL0     H88033   5.032   7.511   5.083  0.1082  0.3962 -0.4537
  638MOL0     H88034   4.739   7.535   5.053 -0.0619 -0.9430  0.2168
  638MOL0     H88035   4.868   7.649   4.979 -0.7004  1.4721  1.0635
  638MOL0     H88036   4.797   7.593   5.284  2.6046  1.2400  1.7873
  638MOL0     H88037   4.935   7.688   5.229  0.2905  0.5054  0.7079
  638MOL0     H88038   4.636   7.730   5.207  0.3217  0.4785 -0.4055
  638MOL0     H88039   4.749   7.846   5.135  1.1295  0.3499  0.4246
  638MOL0     H88040   4.768   7.944   5.551  2.0021  0.3822 -1.1387
  638MOL0     H88041   4.739   7.385   4.763  0.3944  0.8116  1.9220
  638MOL0     H88042   4.602   7.241   4.617 -0.0541 -0.4530  0.8656
  638MOL0     H88043   4.486   7.121   4.672  0.4605 -1.4813  3.7245
  638MOL0     H88044   4.453   7.295   4.699 -1.5493 -1.2598 -0.7836
  639MOL0     O88045  10.731   6.562   1.885 -0.4475 -0.7565 -0.3697
  639MOL0     C88046  10.796   6.460   1.876  0.1451 -1.1520  0.3679
  639MOL0     O88047  10.933   6.464   1.860  0.9214  0.2221  0.2599
  639MOL0     C88048  11.013   6.581   1.857 -0.5447  0.0472 -0.4510
  639MOL0     C88049  10.971   6.711   1.814  0.3462  0.8959  0.0825
  639MOL0     C88050  11.056   6.814   1.808  0.2508 -0.8426 -0.0718
  639MOL0     C88051  11.194   6.800   1.844  0.6203  0.3027 -1.0858
  639MOL0     O88052  11.272   6.912   1.862  0.3034 -0.2949 -0.0970
  639MOL0     C88053  11.199   7.032   1.910 -0.3041 -1.0304  0.0744
  639MOL0     C88054  11.303   7.139   1.945  0.0860  1.3898 -0.0800
  639MOL0     C88055  11.388   7.084   2.058  0.1517 -0.5500 -0.2968
  639MOL0     C88056  11.480   7.189   2.119  0.1566  0.0862 -0.2779
  639MOL0     C88057  11.608   7.224   2.046 -0.0472  0.2947 -0.0254
  639MOL0     C88058  11.735   7.173   2.118  0.1716  1.1650 -0.1139
  639MOL0     C88059  11.753   7.024   2.094 -0.1422  0.6375 -0.6411
  639MOL0     C88060  11.807   7.001   1.950  0.3543 -0.9029  0.0314
  639MOL0     N88061  11.865   6.867   1.925  0.2704 -0.0129 -0.3482
  639MOL0     C88062  11.788   6.754   1.900 -0.0617  0.4709 -0.1344
  639MOL0     C88063  11.881   6.652   1.898 -0.2558  0.3998 -0.8611
  639MOL0     C88064  11.836   6.507   1.891 -0.7115 -0.1374  0.0016
  639MOL0     C88065  11.925   6.407   1.965  0.1377  0.1148  1.5036
  639MOL0     C88066  11.846   6.352   2.087  0.3088  0.4915  0.5066
  639MOL0     C88067  11.913   6.238   2.161  0.7759  1.0159 -0.1624
  639MOL0     O88068  11.935   6.120   2.087 -0.2331  0.2889  0.0425
  639MOL0     C88069  12.062   6.096   2.043  0.3614 -0.6743  0.3995
  639MOL0     C88070  12.177   6.120   2.117  0.7090  0.6507 -0.5499
  639MOL0     C88071  12.293   6.062   2.079  0.2186 -0.0642  0.1447
  639MOL0     C88072  12.411   6.108   2.152 -0.0516  1.0402 -0.8818
  639MOL0     C88073  12.305   5.983   1.964  0.6220 -0.4701  0.4999
  639MOL0     C88074  12.419   5.887   1.917 -0.3203  0.1079 -0.9196
  639MOL0     O88075  12.531   5.877   1.988 -0.1403  0.2760 -0.0479
  639MOL0     C88076  12.617   5.769   1.979  0.3798 -0.3324 -0.0883
  639MOL0     C88077  12.570   5.638   1.944  0.9518  0.3743  0.0346
  639MOL0     C88078  12.663   5.542   1.911 -0.2606  0.4594 -0.6915
  639MOL0     C88079  12.799   5.575   1.924 -0.8516  0.9993 -0.0081
  639MOL0     O88080  12.895   5.477   1.894  0.9422 -0.2331 -0.4249
  639MOL0     C88081  12.920   5.396   2.010  0.2717 -0.5789 -0.4676
  639MOL0     C88082  13.055   5.321   2.000 -0.2482  0.3645 -0.2848
  639MOL0     C88083  13.091   5.225   2.113  0.8820 -0.3784  0.3131
  639MOL0     C88084  13.083   5.301   2.241  0.0584  0.1128 -1.7285
  639MOL0     C88085  13.142   5.235   2.370  0.1502  0.1463 -0.8958
  639MOL0     C88086  13.289   5.199   2.365  0.7897  0.6642 -0.1812
  639MOL0     C88087  13.347   5.179   2.503 -0.2911 -1.0641  0.2967
  639MOL0     C88088  13.494   5.120   2.491  0.2606 -0.8422  0.0538
  639MOL0    Cl88089  13.598   5.247   2.424 -0.0545 -0.2208 -0.3228
  639MOL0     C88090  12.846   5.697   1.966 -0.3774  0.1494 -0.1927
  639MOL0     C88091  12.755   5.795   1.997 -0.0639 -0.3279  0.8073
  639MOL0     O88092  12.394   5.822   1.819 -0.4291 -0.5656  1.1768
  639MOL0     C88093  12.189   5.980   1.878  1.0946 -0.1012  1.0055
  639MOL0     C88094  12.065   6.027   1.920  0.4789 -0.9453 -0.2192
  639MOL0     N88095  12.009   6.707   1.909  0.9419  1.1776  0.2562
  639MOL0     N88096  12.001   6.837   1.926  1.7120 -0.0987  0.1848
  639MOL0     C88097  11.238   6.676   1.886 -0.8498 -0.7927 -0.0157
  639MOL0     C88098  11.148   6.566   1.898 -0.5428 -0.7593 -0.1977
  639MOL0     C88099  10.743   6.329   1.863 -0.7365 -0.0883  0.3572
  639MOL0     C88100  10.810   6.240   1.776 -0.0460  1.0198  0.4979
  639MOL0     C88101  10.763   6.105   1.748  0.1993 -0.2302 -0.2634
  639MOL0     C88102  10.643   6.059   1.813 -0.3807  0.1241 -0.2569
  639MOL0     O88103  10.573   5.948   1.782  0.3436  0.9106 -0.6364
  639MOL0     C88104  10.572   5.899   1.647  0.1234 -0.1816 -0.2326
  639MOL0     C88105  10.667   5.775   1.634 -0.1347  0.3208  0.4009
  639MOL0     C88106  10.700   5.741   1.477  0.1977 -0.8536 -0.3831
  639MOL0     C88107  10.833   5.678   1.458 -0.4992  0.8140 -0.4554
  639MOL0     C88108  10.843   5.541   1.517 -0.0416  0.1673 -0.6037
  639MOL0     C88109  10.851   5.426   1.562  1.0937  0.1423 -0.3295
  639MOL0     C88110  10.589   6.145   1.912 -0.3524 -0.1645 -0.1590
  639MOL0     C88111  10.628   6.277   1.936  0.4039 -0.4826  0.3879
  639MOL0     C88112  10.565   6.362   2.041  0.3006  0.3147  0.2053
  639MOL0     H88113  10.869   6.733   1.785 -0.9685 -0.8499  2.9275
  639MOL0     H88114  11.006   6.903   1.774 -0.1204 -2.1735 -3.4240
  639MOL0     H88115  11.147   7.001   2.001  1.0211 -1.4787  0.7115
  639MOL0     H88116  11.131   7.075   1.836 -1.7560 -1.1458  1.2937
  639MOL0     H88117  11.365   7.154   1.856 -1.5364  0.8376 -1.3551
  639MOL0     H88118  11.252   7.230   1.978  3.7945  3.5276  0.3284
  639MOL0     H88119  11.321   7.061   2.141  2.0245 -0.3331  1.3408
  639MOL0     H88120  11.445   6.991   2.049 -3.0241 -2.8836  1.7767
  639MOL0     H88121  11.428   7.285   2.129  1.9757  1.0229  0.7280
  639MOL0     H88122  11.494   7.154   2.222 -2.0292  2.4150  0.9305
  639MOL0     H88123  11.625   7.332   2.039 -2.6339  0.8199  0.8644
  639MOL0     H88124  11.609   7.186   1.943 -1.6267 -1.0797  0.4178
  639MOL0     H88125  11.820   7.236   2.089 -0.3468  0.9068 -2.2971
  639MOL0     H88126  11.723   7.188   2.226 -1.0028  0.3055 -0.1127
  639MOL0     H88127  11.660   6.970   2.109  1.0138 -1.4516 -0.5580
  639MOL0     H88128  11.825   6.987   2.168  0.4259  0.5516 -1.2208
  639MOL0     H88129  11.717   7.009   1.888 -0.2645  0.0391  1.0178
  639MOL0     H88130  11.877   7.082   1.931 -0.2999  0.2722  2.2021
  639MOL0     H88131  11.680   6.751   1.892  0.0246 -0.9650 -1.2087
  639MOL0     H88132  11.839   6.489   1.783 -0.8736  0.1760 -0.0538
  639MOL0     H88133  11.737   6.486   1.932 -0.2465  1.0241  1.8282
  639MOL0     H88134  11.957   6.336   1.888 -0.9055  1.3777 -0.1562
  639MOL0     H88135  12.016   6.462   1.991  0.7816  0.3447 -0.9219
  639MOL0     H88136  11.819   6.428   2.161  1.2067  0.1889  1.1619
  639MOL0     H88137  11.751   6.311   2.052  1.4121 -1.6681 -0.1652
  639MOL0     H88138  12.009   6.281   2.191  0.2545  1.1615  1.4133
  639MOL0     H88139  11.865   6.223   2.259  1.0548 -1.1681 -0.3111
  639MOL0     H88140  12.165   6.181   2.206 -2.8778 -1.2335  0.4707
  639MOL0     H88141  12.416   6.043   2.241 -0.4519  2.2019  0.0076
  639MOL0     H88142  12.404   6.212   2.184 -1.3015  0.3886  1.1354
  639MOL0     H88143  12.505   6.102   2.097 -0.3170  0.0833 -1.2637
  639MOL0     H88144  12.466   5.622   1.917  0.8394  2.5848 -1.0549
  639MOL0     H88145  12.624   5.448   1.873 -2.0939  0.9490 -0.1253
  639MOL0     H88146  12.903   5.451   2.102 -3.2766 -2.3995  0.1307
  639MOL0     H88147  12.845   5.316   2.015  0.3009 -0.5186  1.6073
  639MOL0     H88148  13.056   5.266   1.905  0.1274  1.0688 -0.6984
  639MOL0     H88149  13.138   5.392   2.002 -1.3726  1.7926 -1.9097
  639MOL0     H88150  13.190   5.181   2.098 -0.2303 -2.6764 -0.8128
  639MOL0     H88151  13.025   5.138   2.112  0.5540 -0.1845  1.8272
  639MOL0     H88152  12.979   5.335   2.252 -1.0034 -2.9211 -1.1371
  639MOL0     H88153  13.143   5.392   2.236 -2.5579  1.8861 -5.0192
  639MOL0     H88154  13.140   5.312   2.447 -0.1142  1.1129 -1.8469
  639MOL0     H88155  13.074   5.156   2.405 -0.6568  0.8843 -0.7519
  639MOL0     H88156  13.341   5.278   2.310 -0.6329  0.4011 -2.0004
  639MOL0     H88157  13.298   5.108   2.307 -0.5277 -0.2233  0.9407
  639MOL0     H88158  13.280   5.116   2.561 -0.2756  2.0032  4.0231
  639MOL0     H88159  13.335   5.275   2.553 -1.1382  0.5156 -2.6736
  639MOL0     H88160  13.497   5.044   2.412  2.4246  2.6163 -3.5112
  639MOL0     H88161  13.542   5.080   2.581  0.3069 -1.6641 -0.3249
  639MOL0     H88162  12.953   5.713   1.961  0.0082 -2.4196 -1.8675
  639MOL0     H88163  12.782   5.892   2.037 -1.4609  0.7944 -0.8155
  639MOL0     H88164  12.191   5.942   1.776 -1.4433  0.3025  0.7429
  639MOL0     H88165  11.986   6.031   1.846  0.2670 -0.1360  0.0427
  639MOL0     H88166  11.342   6.676   1.915 -0.8257 -0.0217 -0.0743
  639MOL0     H88167  11.175   6.467   1.933  0.8506  0.3197  2.0061
  639MOL0     H88168  10.904   6.262   1.726  0.5423 -0.8230  0.7196
  639MOL0     H88169  10.821   6.041   1.682  1.3892  2.6717 -2.2450
  639MOL0     H88170  10.473   5.859   1.624 -0.2842 -1.2978  2.9232
  639MOL0     H88171  10.595   5.977   1.573  1.0470  1.3768  1.6053
  639MOL0     H88172  10.614   5.684   1.664 -0.6535 -0.3457 -2.2527
  639MOL0     H88173  10.765   5.784   1.682 -0.5407  0.7298  1.1669
  639MOL0     H88174  10.617   5.682   1.438  0.9786 -3.0100  1.0076
  639MOL0     H88175  10.702   5.836   1.423  0.1368 -1.6496 -1.8453
  639MOL0     H88176  10.916   5.746   1.481 -1.1178  1.7987 -1.0467
  639MOL0     H88177  10.832   5.676   1.349 -0.7658  1.8040 -0.4844
  639MOL0     H88178  10.838   5.331   1.610 -1.8118 -0.9769 -3.0169
  639MOL0     H88179  10.503   6.108   1.967 -0.6024  1.4762  0.6329
  639MOL0     H88180  10.511   6.293   2.108  1.8181 -1.9986 -0.8209
  639MOL0     H88181  10.650   6.406   2.094  1.3515 -1.6235  0.2229
  639MOL0     H88182  10.506   6.437   1.989 -2.3935 -1.1626  0.9312
  640MOL0     O88183   4.409   4.453   9.074 -0.3095 -0.2333  0.0088
  640MOL0     C88184   4.374   4.409   9.183  0.1240  0.2396 -0.0433
  640MOL0     O88185   4.282   4.474   9.265 -0.1385 -0.0315 -0.2690
  640MOL0     C88186   4.220   4.592   9.212 -0.4509 -0.2469 -0.4781
  640MOL0     C88187   4.086   4.605   9.252  0.0953  0.2234 -0.0482
  640MOL0     C88188   4.007   4.718   9.224 -0.6370 -0.0869 -0.2985
  640MOL0     C88189   4.072   4.830   9.154  0.5110 -1.0919  0.0320
  640MOL0     O88190   4.003   4.948   9.136  0.3897 -0.5475  0.2972
  640MOL0     C88191   4.081   5.073   9.132 -0.4760  0.5676  0.5651
  640MOL0     C88192   4.006   5.202   9.112 -0.0117  0.4782  0.5807
  640MOL0     C88193   4.085   5.332   9.134 -0.6793 -0.8315 -0.2528
  640MOL0     C88194   3.971   5.438   9.144 -0.0454 -0.9411  0.2735
  640MOL0     C88195   3.899   5.452   9.275  0.2196  0.2874 -0.4990
  640MOL0     C88196   3.777   5.546   9.265 -0.0957 -0.6771  0.3814
  640MOL0     C88197   3.811   5.686   9.205 -0.1135  0.3175 -0.9066
  640MOL0     C88198   3.701   5.793   9.231  0.1569 -0.3698  0.9948
  640MOL0     N88199   3.576   5.764   9.170 -0.4238 -0.2104  0.0841
  640MOL0     C88200   3.564   5.768   9.034 -0.0328  0.3601 -0.2758
  640MOL0     C88201   3.444   5.721   9.012  0.3499 -0.7372  0.4026
  640MOL0     C88202   3.376   5.710   8.879 -0.6247  0.0076  0.1826
  640MOL0     C88203   3.424   5.598   8.783 -0.1900 -0.3417 -0.2191
  640MOL0     C88204   3.444   5.466   8.862  0.2461 -0.0027 -0.2739
  640MOL0     C88205   3.486   5.349   8.778  0.2706 -0.6775  0.0552
  640MOL0     O88206   3.561   5.262   8.864  0.3752  0.8020  0.2884
  640MOL0     C88207   3.637   5.166   8.807 -0.2890  0.0317 -0.0035
  640MOL0     C88208   3.638   5.140   8.663 -0.7516  0.2509 -0.0790
  640MOL0     C88209   3.728   5.039   8.627  0.2279 -0.8394 -0.5481
  640MOL0     C88210   3.733   5.031   8.480  0.3860  0.1116  0.3163
  640MOL0     C88211   3.795   4.950   8.720 -0.2800  0.0131 -1.4141
  640MOL0     C88212   3.872   4.824   8.689 -0.9784  0.0106  0.2212
  640MOL0     O88213   3.865   4.722   8.779 -0.5994 -0.2346 -0.0222
  640MOL0     C88214   3.936   4.603   8.773 -0.1963  0.0883  0.0917
  640MOL0     C88215   4.026   4.584   8.875 -0.2940  0.6737  0.7010
  640MOL0     C88216   4.087   4.453   8.869 -0.1538  0.3738  0.1313
  640MOL0     C88217   4.057   4.353   8.777 -0.7076 -0.1093  0.2055
  640MOL0     O88218   4.144   4.242   8.781  0.2380  0.1507  0.1216
  640MOL0     C88219   4.154   4.173   8.907  0.5460  0.4833  0.1624
  640MOL0     C88220   4.032   4.079   8.911 -0.5825 -0.0231  0.0171
  640MOL0     C88221   4.059   3.949   8.825  0.4230 -0.6841  0.2029
  640MOL0     C88222   3.932   3.891   8.760  0.3265  0.4176  0.7978
  640MOL0     C88223   3.962   3.763   8.680  0.0392  0.4149  1.3917
  640MOL0     C88224   3.852   3.732   8.571  0.3303 -0.2382 -0.2579
  640MOL0     C88225   3.715   3.707   8.631 -0.2681 -0.2622  0.1708
  640MOL0     C88226   3.610   3.682   8.521 -0.5879 -0.5834 -0.2349
  640MOL0    Cl88227   3.648   3.546   8.427 -0.0059 -0.9768 -0.1933
  640MOL0     C88228   3.979   4.383   8.668  0.9570  0.1444  0.0726
  640MOL0     C88229   3.914   4.509   8.672  0.1886 -0.1099 -0.2660
  640MOL0     O88230   3.920   4.802   8.574 -0.7226 -0.0343 -0.1711
  640MOL0     C88231   3.780   4.981   8.858 -1.0115  0.4262  0.1533
  640MOL0     C88232   3.714   5.092   8.902 -0.0201  0.9289  0.2166
  640MOL0     N88233   3.380   5.699   9.137 -0.6233  0.0247  0.4658
  640MOL0     N88234   3.456   5.739   9.230 -0.3928  0.0457 -0.0247
  640MOL0     C88235   4.202   4.811   9.105  0.4379  0.3861 -0.0224
  640MOL0     C88236   4.285   4.695   9.140 -0.0163  0.4283  0.2488
  640MOL0     C88237   4.437   4.287   9.237  0.5493 -0.4205 -0.9449
  640MOL0     C88238   4.552   4.242   9.171 -0.6434  1.1988  0.4288
  640MOL0     C88239   4.635   4.141   9.215 -0.5470  1.6133  0.0128
  640MOL0     C88240   4.604   4.069   9.328  0.4334  0.3165 -0.6245
  640MOL0     O88241   4.671   3.963   9.392  0.7991  0.1231  0.0478
  640MOL0     C88242   4.802   3.942   9.346  0.6373  0.7024  1.3280
  640MOL0     C88243   4.874   3.836   9.433  0.6269  0.1947 -0.9597
  640MOL0     C88244   4.815   3.695   9.402  0.3864  0.0947  0.0223
  640MOL0     C88245   4.833   3.604   9.530  1.0872 -0.4977  0.5385
  640MOL0     C88246   4.741   3.485   9.530 -0.2691  0.0385  0.7253
  640MOL0     C88247   4.663   3.397   9.522  0.1470  0.1411 -0.6808
  640MOL0     C88248   4.485   4.101   9.393 -0.2254 -0.1714  0.1046
  640MOL0     C88249   4.399   4.211   9.353 -0.9003 -0.1599 -0.8737
  640MOL0     C88250   4.276   4.240   9.440  0.5302  0.2046  0.3613
  640MOL0     H88251   4.036   4.523   9.303 -0.1713 -0.0362 -0.7285
  640MOL0     H88252   3.904   4.740   9.252 -0.1698  1.4498  0.3254
  640MOL0     H88253   4.145   5.070   9.044  1.2339 -0.2690  1.7695
  640MOL0     H88254   4.134   5.078   9.228 -0.3364  0.3047  0.5045
  640MOL0     H88255   3.977   5.195   9.006 -0.1021  4.2702  0.2187
  640MOL0     H88256   3.914   5.206   9.171 -1.0570 -1.2144 -0.8150
  640MOL0     H88257   4.128   5.327   9.234 -1.6450  0.5861  0.2706
  640MOL0     H88258   4.169   5.341   9.065  0.8003 -2.0623  1.3067
  640MOL0     H88259   4.003   5.536   9.107 -0.8535 -1.0754 -0.8475
  640MOL0     H88260   3.894   5.413   9.070 -0.3493  2.0105 -0.5521
  640MOL0     H88261   3.964   5.495   9.351  2.7196 -1.6895 -1.3704
  640MOL0     H88262   3.868   5.351   9.305  2.6179 -0.3367  0.0757
  640MOL0     H88263   3.691   5.500   9.216 -0.5953 -1.3198  1.8156
  640MOL0     H88264   3.745   5.565   9.368  0.3542  2.8020 -0.0001
  640MOL0     H88265   3.832   5.674   9.098  1.6072 -0.5563 -0.5109
  640MOL0     H88266   3.909   5.717   9.241  0.1796 -0.0067 -1.4124
  640MOL0     H88267   3.687   5.807   9.339  1.0988  0.2158  1.0569
  640MOL0     H88268   3.738   5.890   9.198 -3.7589  1.3912  1.2080
  640MOL0     H88269   3.636   5.800   8.959 -1.0163  0.5029 -1.1747
  640MOL0     H88270   3.388   5.796   8.812 -3.8567 -0.4022 -1.1016
  640MOL0     H88271   3.267   5.704   8.881 -0.6083 -1.0142 -0.9947
  640MOL0     H88272   3.351   5.580   8.704  0.0026 -2.7665  0.0851
  640MOL0     H88273   3.526   5.608   8.745  0.8421 -4.0772  1.1829
  640MOL0     H88274   3.522   5.483   8.937 -2.8151  0.6512  3.0489
  640MOL0     H88275   3.355   5.436   8.919  1.5581 -1.9325  0.8863
  640MOL0     H88276   3.393   5.304   8.741  0.3663 -1.9388  1.2540
  640MOL0     H88277   3.542   5.386   8.691 -0.6722 -1.1038 -0.7530
  640MOL0     H88278   3.576   5.190   8.589 -1.1432  0.3014  0.2783
  640MOL0     H88279   3.752   4.926   8.457  0.5816  0.1421  0.3426
  640MOL0     H88280   3.822   5.086   8.449  0.8812  0.5037  2.3372
  640MOL0     H88281   3.641   5.063   8.430 -2.6026 -1.4087  4.2792
  640MOL0     H88282   4.058   4.667   8.937 -0.0709  2.1110 -1.2361
  640MOL0     H88283   4.167   4.444   8.941  0.1189 -1.9263 -0.3558
  640MOL0     H88284   4.245   4.113   8.893  0.0759 -0.4569  0.9744
  640MOL0     H88285   4.157   4.242   8.991 -3.3306  3.9742 -2.2423
  640MOL0     H88286   4.025   4.055   9.018  1.2014  0.5172  0.2917
  640MOL0     H88287   3.946   4.144   8.893 -0.9247 -0.6956 -0.8270
  640MOL0     H88288   4.111   3.872   8.883  0.1530 -0.5318  0.6542
  640MOL0     H88289   4.127   3.982   8.745  0.2743 -2.9512 -0.9506
  640MOL0     H88290   3.876   3.964   8.701  0.3542  0.1210  0.3986
  640MOL0     H88291   3.865   3.869   8.844 -0.3636  0.2167  0.2079
  640MOL0     H88292   4.045   3.786   8.612 -1.3843 -0.9009 -0.9566
  640MOL0     H88293   4.000   3.681   8.742 -0.6209 -0.2709  0.9051
  640MOL0     H88294   3.873   3.638   8.520 -0.4326  1.3988 -3.9683
  640MOL0     H88295   3.849   3.810   8.493 -3.0249 -0.0933 -0.1053
  640MOL0     H88296   3.691   3.787   8.702  4.4235 -0.0152  1.8230
  640MOL0     H88297   3.725   3.617   8.691  4.4057 -0.6846 -0.8640
  640MOL0     H88298   3.615   3.766   8.452  0.0532  0.3267  0.8618
  640MOL0     H88299   3.509   3.677   8.562 -1.5451 -1.1135 -2.5378
  640MOL0     H88300   3.957   4.314   8.587 -1.1296 -1.7306  2.0820
  640MOL0     H88301   3.848   4.544   8.593  1.5686 -0.1406 -1.4877
  640MOL0     H88302   3.828   4.916   8.930  2.2306  0.0735 -2.1374
  640MOL0     H88303   3.719   5.125   9.005 -0.8484 -4.4325  2.3117
  640MOL0     H88304   4.255   4.887   9.049 -1.4987 -0.5098 -3.3203
  640MOL0     H88305   4.389   4.694   9.110  0.4434  0.8083  1.7608
  640MOL0     H88306   4.575   4.301   9.083 -3.2410 -2.1939 -2.8437
  640MOL0     H88307   4.727   4.112   9.165 -1.7344  0.0246 -1.3917
  640MOL0     H88308   4.787   3.893   9.249 -0.5978  1.5305  1.0712
  640MOL0     H88309   4.863   4.033   9.348 -1.3258  2.0828  3.2506
  640MOL0     H88310   4.862   3.866   9.538  4.5010  0.0966 -0.3283
  640MOL0     H88311   4.982   3.844   9.413  1.3432 -0.7382  2.0675
  640MOL0     H88312   4.708   3.700   9.380  0.4846  0.6528 -0.3280
  640MOL0     H88313   4.870   3.658   9.316  1.4649  2.0140 -0.1708
  640MOL0     H88314   4.818   3.654   9.626  0.5673 -4.3909  2.7035
  640MOL0     H88315   4.933   3.560   9.529  0.1846 -2.9741 -3.3576
  640MOL0     H88316   4.596   3.315   9.507 -0.9010  0.6045  1.0777
  640MOL0     H88317   4.464   4.025   9.467 -1.0376  0.5963  0.6781
  640MOL0     H88318   4.263   4.167   9.520 -0.0466  0.9944  0.9953
  640MOL0     H88319   4.283   4.343   9.475  0.1017  0.5318 -0.4903
  640MOL0     H88320   4.186   4.220   9.382  0.4606 -2.4190  1.2209
  641MOL0     O88321   3.754   8.972   4.603  0.2817 -0.4969 -0.2813
  641MOL0     C88322   3.767   9.003   4.718 -0.0556  0.1277 -0.7542
  641MOL0     O88323   3.679   8.963   4.817 -1.0538 -0.0313 -0.1780
  641MOL0     C88324   3.564   8.901   4.775 -0.3064  0.0900 -0.6585
  641MOL0     C88325   3.568   8.764   4.761 -0.2100  0.4474 -0.0091
  641MOL0     C88326   3.452   8.697   4.726 -0.4124 -0.1508 -0.0228
  641MOL0     C88327   3.338   8.769   4.700 -0.2730 -0.0481 -0.6175
  641MOL0     O88328   3.247   8.685   4.661  0.5401 -0.5485 -0.0515
  641MOL0     C88329   3.101   8.703   4.683  0.0585 -0.0345  0.4219
  641MOL0     C88330   3.034   8.648   4.820  0.7606 -0.4802  0.3225
  641MOL0     C88331   2.895   8.710   4.846  0.0469  0.2090  0.2370
  641MOL0     C88332   2.811   8.666   4.731  1.1207 -0.3487 -0.7809
  641MOL0     C88333   2.670   8.708   4.753  0.7388 -1.3071 -0.5221
  641MOL0     C88334   2.646   8.857   4.734 -0.8196 -1.2920  0.1486
  641MOL0     C88335   2.502   8.891   4.771 -0.9404 -0.5875  1.0382
  641MOL0     C88336   2.394   8.861   4.661 -0.2245 -0.3477 -0.7164
  641MOL0     N88337   2.431   8.929   4.537  0.0483  0.9089 -1.1505
  641MOL0     C88338   2.413   9.061   4.520  0.4190  0.3450  0.8760
  641MOL0     C88339   2.462   9.080   4.397 -1.0363 -0.6584  0.2431
  641MOL0     C88340   2.469   9.211   4.319 -0.3416 -0.3257 -0.9954
  641MOL0     C88341   2.366   9.217   4.203 -0.7924 -0.1516  0.0510
  641MOL0     C88342   2.363   9.361   4.127  0.1925 -0.3195 -0.3682
  641MOL0     C88343   2.232   9.397   4.059  0.0859  0.9706 -0.9002
  641MOL0     O88344   2.177   9.279   3.995  0.1989  0.7648 -0.5766
  641MOL0     C88345   2.192   9.254   3.862 -0.2480 -0.1917 -0.4297
  641MOL0     C88346   2.306   9.183   3.822 -0.0066 -0.0226 -1.3932
  641MOL0     C88347   2.341   9.148   3.696 -0.0661 -0.2684  0.5777
  641MOL0     C88348   2.459   9.056   3.674  0.1330 -1.0571  0.2206
  641MOL0     C88349   2.257   9.199   3.595 -0.4361  0.0006 -1.0808
  641MOL0     C88350   2.266   9.190   3.442  0.4079 -1.1893 -0.0824
  641MOL0     O88351   2.207   9.297   3.374 -0.3722  0.0839  0.8887
  641MOL0     C88352   2.212   9.298   3.235 -0.4671 -0.5287 -0.3508
  641MOL0     C88353   2.142   9.207   3.151  0.2048 -0.2667 -0.3518
  641MOL0     C88354   2.169   9.187   3.019 -0.2385  0.0381  0.0353
  641MOL0     C88355   2.260   9.275   2.961 -0.2389  0.3405 -0.0823
  641MOL0     O88356   2.286   9.255   2.824  0.6181 -0.3226 -0.1228
  641MOL0     C88357   2.401   9.293   2.761 -0.3421  0.2178  0.1187
  641MOL0     C88358   2.376   9.231   2.623 -0.6185  0.4418  0.1407
  641MOL0     C88359   2.261   9.286   2.538  0.4929 -0.0238  0.2231
  641MOL0     C88360   2.298   9.395   2.442  0.2027 -0.4580  0.0736
  641MOL0     C88361   2.172   9.446   2.375 -0.5040 -0.0461 -0.7174
  641MOL0     C88362   2.083   9.531   2.468  1.1010  0.2475  0.0256
  641MOL0     C88363   1.985   9.599   2.369 -0.2366  0.4748 -0.3672
  641MOL0     C88364   1.859   9.651   2.446 -0.9395  0.3731 -0.7023
  641MOL0    Cl88365   1.761   9.742   2.336  0.0312  0.0475  0.4661
  641MOL0     C88366   2.337   9.378   3.038 -0.0178 -0.0916 -0.9317
  641MOL0     C88367   2.307   9.379   3.169 -0.8412 -0.9310 -0.9401
  641MOL0     O88368   2.320   9.095   3.388  0.6757 -0.6203 -0.7325
  641MOL0     C88369   2.140   9.277   3.632  0.2426  0.4266  0.5298
  641MOL0     C88370   2.113   9.302   3.762 -0.1402 -1.0918 -0.1389
  641MOL0     N88371   2.497   8.967   4.331 -0.0833 -0.1714 -1.0946
  641MOL0     N88372   2.482   8.876   4.421 -0.5072  0.3177  0.2716
  641MOL0     C88373   3.321   8.906   4.727  0.5928 -0.3198 -0.3439
  641MOL0     C88374   3.434   8.968   4.771 -0.9674  0.1130 -0.2154
  641MOL0     C88375   3.877   9.090   4.760 -1.0886 -0.1323  0.1803
  641MOL0     C88376   3.933   9.079   4.888  0.4035  0.3900  0.2223
  641MOL0     C88377   4.060   9.140   4.923 -0.0977  0.3994  0.3903
  641MOL0     C88378   4.124   9.224   4.833 -0.9197  0.3889  0.1510
  641MOL0     O88379   4.237   9.292   4.846  0.0719 -0.7698 -0.0871
  641MOL0     C88380   4.305   9.275   4.973 -1.1650 -0.6052  0.1466
  641MOL0     C88381   4.454   9.309   4.951  0.4664  0.3825 -0.2313
  641MOL0     C88382   4.519   9.193   4.873 -0.3470  0.5356 -0.3265
  641MOL0     C88383   4.656   9.231   4.824 -0.1041 -0.8782 -0.1287
  641MOL0     C88384   4.722   9.110   4.767 -0.2809  0.8068 -0.5600
  641MOL0     C88385   4.797   9.023   4.731  0.2388 -0.6890 -0.3055
  641MOL0     C88386   4.065   9.237   4.711  0.0278 -1.3198  0.3875
  641MOL0     C88387   3.940   9.180   4.675  0.6180 -0.7787  0.5535
  641MOL0     C88388   3.885   9.212   4.540 -0.0535  0.6032 -0.1043
  641MOL0     H88389   3.661   8.712   4.779  0.9441  1.8902 -1.4821
  641MOL0     H88390   3.454   8.591   4.701  0.8728 -0.9233  2.9449
  641MOL0     H88391   3.047   8.658   4.599 -3.0781  1.0121  1.7329
  641MOL0     H88392   3.073   8.809   4.678  0.2309 -0.0204 -0.3602
  641MOL0     H88393   3.030   8.539   4.811  2.1081 -0.5661  0.5215
  641MOL0     H88394   3.104   8.684   4.895  0.3787  2.5605 -0.6542
  641MOL0     H88395   2.850   8.670   4.937 -0.4666 -0.6850 -0.3941
  641MOL0     H88396   2.903   8.817   4.869  0.0089 -0.0183  1.3708
  641MOL0     H88397   2.857   8.709   4.641  3.6297  0.1298  0.6175
  641MOL0     H88398   2.819   8.558   4.723 -0.9897 -0.5074 -1.1014
  641MOL0     H88399   2.632   8.669   4.848 -2.4287  2.0534 -0.1901
  641MOL0     H88400   2.613   8.666   4.669  1.4177  1.8154 -2.7452
  641MOL0     H88401   2.710   8.920   4.795 -4.1936  2.3321  0.3127
  641MOL0     H88402   2.661   8.891   4.631  1.1858  1.0653  1.1272
  641MOL0     H88403   2.499   8.999   4.788 -0.7932 -0.4633  0.3104
  641MOL0     H88404   2.466   8.843   4.862 -0.6960  0.8908  1.9469
  641MOL0     H88405   2.390   8.754   4.639  2.0771 -0.8875  1.0162
  641MOL0     H88406   2.295   8.893   4.694  0.0304  0.8824 -1.1043
  641MOL0     H88407   2.378   9.134   4.593  2.8988  2.0432  0.4700
  641MOL0     H88408   2.567   9.215   4.269  1.0439 -0.8517  1.5172
  641MOL0     H88409   2.458   9.298   4.384  2.6379 -0.8376  0.3417
  641MOL0     H88410   2.384   9.146   4.122 -0.9914 -0.8477  0.6042
  641MOL0     H88411   2.269   9.198   4.249 -1.8041 -3.8396 -3.0899
  641MOL0     H88412   2.366   9.445   4.198 -0.1044  1.3144 -2.2037
  641MOL0     H88413   2.455   9.383   4.072  0.6013  0.5735  0.6268
  641MOL0     H88414   2.163   9.429   4.138  1.2216 -0.3130  0.6634
  641MOL0     H88415   2.242   9.480   3.988 -1.4495 -2.4523 -5.6007
  641MOL0     H88416   2.372   9.166   3.906 -4.7554  1.3975  3.1096
  641MOL0     H88417   2.463   8.992   3.762  0.8628 -2.0749 -0.5259
  641MOL0     H88418   2.556   9.104   3.656  0.3048 -2.0344 -1.7279
  641MOL0     H88419   2.439   8.986   3.592 -1.4804 -1.7886  1.1845
  641MOL0     H88420   2.072   9.149   3.210 -0.2252  1.4815  0.9559
  641MOL0     H88421   2.121   9.115   2.954 -2.0591  1.5821 -0.4186
  641MOL0     H88422   2.407   9.402   2.769 -1.8788  0.2211  2.2084
  641MOL0     H88423   2.483   9.252   2.821 -0.1013  1.3617  0.5935
  641MOL0     H88424   2.468   9.264   2.574 -2.0322  0.8163 -2.4285
  641MOL0     H88425   2.360   9.124   2.640 -1.4427  0.2422 -1.6226
  641MOL0     H88426   2.197   9.326   2.617 -1.5258 -0.9822 -0.8529
  641MOL0     H88427   2.226   9.201   2.478  0.8495  1.3363 -2.0441
  641MOL0     H88428   2.359   9.342   2.367 -2.3522 -0.9515 -1.7750
  641MOL0     H88429   2.360   9.468   2.494 -1.3673 -1.9690  4.5256
  641MOL0     H88430   2.209   9.490   2.282  2.1652 -0.6051 -0.0095
  641MOL0     H88431   2.119   9.356   2.343 -1.6410  1.2371 -2.6906
  641MOL0     H88432   2.152   9.603   2.512 -1.2970  1.6375  1.7754
  641MOL0     H88433   2.031   9.468   2.541  1.5256 -0.7178 -0.4852
  641MOL0     H88434   1.942   9.528   2.297 -3.0693  1.1058  0.5902
  641MOL0     H88435   2.037   9.678   2.314  5.8412 -1.8572  1.1727
  641MOL0     H88436   1.901   9.721   2.518  2.1515  0.1192 -2.0818
  641MOL0     H88437   1.807   9.563   2.485  2.7254 -2.8619 -2.4156
  641MOL0     H88438   2.416   9.436   2.991  1.9444 -1.8525  0.0480
  641MOL0     H88439   2.366   9.453   3.222 -1.0899 -1.5298  0.1915
  641MOL0     H88440   2.072   9.312   3.555  1.0138  0.2464 -0.2531
  641MOL0     H88441   2.025   9.364   3.778 -0.6291 -1.7210 -0.3822
  641MOL0     H88442   3.225   8.952   4.706  0.8919  1.6361  2.1090
  641MOL0     H88443   3.432   9.073   4.797  0.9927 -0.3580  2.1925
  641MOL0     H88444   3.884   9.014   4.959 -4.0272  0.8367 -2.0602
  641MOL0     H88445   4.100   9.131   5.024  0.2230  4.8244  0.8472
  641MOL0     H88446   4.256   9.343   5.043 -3.0432 -1.4124 -0.3254
  641MOL0     H88447   4.291   9.182   5.030 -3.5840 -1.9404 -2.3876
  641MOL0     H88448   4.500   9.317   5.050 -1.5848 -1.0136  0.8931
  641MOL0     H88449   4.468   9.406   4.902  0.9935  0.8893  0.8758
  641MOL0     H88450   4.528   9.102   4.932  1.4142  1.8092  1.4710
  641MOL0     H88451   4.459   9.165   4.786  0.0917 -0.6897 -0.2434
  641MOL0     H88452   4.723   9.276   4.897 -0.1350  2.3233 -1.8759
  641MOL0     H88453   4.660   9.304   4.741 -1.6077  0.5321  0.9613
  641MOL0     H88454   4.874   8.958   4.695 -0.4630 -0.4119 -2.4609
  641MOL0     H88455   4.118   9.296   4.637  1.4453  1.3310  3.2595
  641MOL0     H88456   3.930   9.305   4.505  1.2053  0.5757  1.3394
  641MOL0     H88457   3.905   9.139   4.461 -0.2926 -0.4000  0.7354
  641MOL0     H88458   3.776   9.219   4.543 -0.3416 -2.3128  0.0186
  642MOL0     O88459   5.577   3.896   1.674 -0.4732 -0.3943  0.0919
  642MOL0     C88460   5.600   3.903   1.795  0.5419 -0.7269 -0.3911
  642MOL0     O88461   5.626   4.029   1.858  0.1079  0.6681  0.0892
  642MOL0     C88462   5.652   4.147   1.792  0.6606  0.1827  0.6069
  642MOL0     C88463   5.551   4.208   1.723  0.5477 -0.0419 -0.4123
  642MOL0     C88464   5.591   4.313   1.643  0.4811 -0.2603  0.6144
  642MOL0     C88465   5.730   4.358   1.637  0.6197 -1.2843 -0.1486
  642MOL0     O88466   5.766   4.454   1.551  0.4681 -1.2177 -0.0283
  642MOL0     C88467   5.897   4.482   1.528  0.5434  0.6386  0.0219
  642MOL0     C88468   5.911   4.562   1.400 -0.0916 -0.1313 -0.0836
  642MOL0     C88469   5.915   4.464   1.282  0.7899 -0.6963  0.1709
  642MOL0     C88470   5.922   4.538   1.148 -0.0812  0.4002  0.2770
  642MOL0     C88471   5.960   4.442   1.036 -0.1596 -0.4285 -0.5355
  642MOL0     C88472   6.110   4.448   1.013 -0.7655  1.1030  1.0122
  642MOL0     C88473   6.153   4.352   0.892 -0.0598  0.5534 -0.1023
  642MOL0     C88474   6.113   4.391   0.753  0.1014 -0.0779  0.3329
  642MOL0     N88475   6.171   4.525   0.723 -0.2603 -0.7778 -1.0727
  642MOL0     C88476   6.302   4.549   0.673  0.3553 -0.1142 -0.4540
  642MOL0     C88477   6.314   4.681   0.697 -0.6302  0.2696 -1.3950
  642MOL0     C88478   6.423   4.776   0.644 -0.5474 -0.3031  0.5770
  642MOL0     C88479   6.380   4.860   0.512  0.2168 -0.7394 -0.5030
  642MOL0     C88480   6.440   4.788   0.396  0.8729  0.3339  0.5320
  642MOL0     C88481   6.412   4.882   0.272 -0.3173 -0.6125 -1.2965
  642MOL0     O88482   6.398   4.812   0.153  0.3199 -0.2354  0.5384
  642MOL0     C88483   6.294   4.839   0.068  0.1122  0.5723 -0.0153
  642MOL0     C88484   6.327   4.815  -0.071  0.9450 -0.1160  0.4755
  642MOL0     C88485   6.232   4.842  -0.172  0.0901 -0.2529 -0.1544
  642MOL0     C88486   6.266   4.795  -0.304  0.8291  0.9612 -0.2861
  642MOL0     C88487   6.101   4.883  -0.133  1.0298  0.2825  0.3909
  642MOL0     C88488   5.992   4.922  -0.234 -0.8604 -0.9846  0.2330
  642MOL0     O88489   6.043   4.959  -0.360  0.1692 -0.1672 -0.0624
  642MOL0     C88490   5.964   4.932  -0.467 -1.0757  0.2336  0.5068
  642MOL0     C88491   5.834   4.984  -0.469  0.3148 -0.5879  0.4264
  642MOL0     C88492   5.759   4.980  -0.582  0.1360  1.4906 -0.5064
  642MOL0     C88493   5.814   4.926  -0.700 -1.0810 -0.7169  0.5922
  642MOL0     O88494   5.726   4.925  -0.806  0.9526 -0.0608  0.1428
  642MOL0     C88495   5.593   4.883  -0.791  0.0540  0.3108  0.0435
  642MOL0     C88496   5.537   4.832  -0.925  1.2753 -0.1792 -0.0536
  642MOL0     C88497   5.580   4.688  -0.963  0.5505 -0.3422  0.5298
  642MOL0     C88498   5.473   4.582  -0.941 -0.1946  0.8119  0.2714
  642MOL0     C88499   5.524   4.445  -0.997 -0.9135 -0.0786 -0.4470
  642MOL0     C88500   5.524   4.442  -1.147 -0.2371  0.1696  0.5657
  642MOL0     C88501   5.544   4.297  -1.204  0.2131 -0.2266 -0.4786
  642MOL0     C88502   5.415   4.207  -1.203  0.8543 -0.1864  0.0438
  642MOL0    Cl88503   5.368   4.161  -1.361  0.2127 -0.0638 -0.0737
  642MOL0     C88504   5.951   4.883  -0.705  0.2263  0.3507  0.5728
  642MOL0     C88505   6.026   4.895  -0.587  0.3437  2.0577  0.4665
  642MOL0     O88506   5.875   4.893  -0.209  0.8643 -0.0230 -0.2174
  642MOL0     C88507   6.069   4.893   0.006 -0.6759  0.0728  0.7759
  642MOL0     C88508   6.161   4.867   0.102  0.2889 -0.3800  0.5542
  642MOL0     N88509   6.202   4.733   0.760 -0.5901 -0.0606  0.3373
  642MOL0     N88510   6.116   4.637   0.775  0.1508  0.7581 -0.2423
  642MOL0     C88511   5.820   4.297   1.726 -0.4862 -0.5777 -0.7587
  642MOL0     C88512   5.779   4.195   1.799 -0.4656 -1.0478 -0.2262
  642MOL0     C88513   5.597   3.786   1.883  0.2302 -0.3103 -0.3946
  642MOL0     C88514   5.646   3.799   2.015 -0.7299 -0.3767 -0.6707
  642MOL0     C88515   5.653   3.699   2.109 -0.4670  0.0641 -0.5733
  642MOL0     C88516   5.609   3.571   2.069  0.0210 -0.3412  0.6199
  642MOL0     O88517   5.584   3.458   2.150 -0.0861  0.1429  0.4051
  642MOL0     C88518   5.612   3.464   2.289 -0.7374 -0.1657 -0.0214
  642MOL0     C88519   5.583   3.325   2.357 -0.0530  0.4044  0.6909
  642MOL0     C88520   5.589   3.336   2.509  0.0302 -0.9446 -0.6587
  642MOL0     C88521   5.575   3.208   2.585 -0.6546 -0.1632  0.4844
  642MOL0     C88522   5.442   3.153   2.550  0.2442  0.8087 -0.1012
  642MOL0     C88523   5.342   3.097   2.510 -0.3880  0.3495 -1.1149
  642MOL0     C88524   5.574   3.554   1.938 -0.5169  0.0930 -0.1544
  642MOL0     C88525   5.575   3.653   1.842 -0.5742 -0.7112 -0.3986
  642MOL0     C88526   5.546   3.614   1.696 -0.1775  0.3269  0.3496
  642MOL0     H88527   5.450   4.172   1.707  0.7377 -0.8581  0.1614
  642MOL0     H88528   5.525   4.370   1.579  3.5473  0.5719 -2.1024
  642MOL0     H88529   5.948   4.386   1.516  0.8122  0.9982 -2.2283
  642MOL0     H88530   5.951   4.543   1.601  1.7732  0.4309 -0.6718
  642MOL0     H88531   5.835   4.640   1.401  0.7473  0.7379 -1.1489
  642MOL0     H88532   6.013   4.603   1.405  1.0044 -2.1557 -2.8251
  642MOL0     H88533   5.993   4.387   1.281  1.9421  0.2622 -4.0274
  642MOL0     H88534   5.824   4.403   1.281  0.1604  0.1082 -2.6206
  642MOL0     H88535   5.822   4.576   1.122 -0.0544 -0.3636 -1.0732
  642MOL0     H88536   5.996   4.619   1.145  2.7332 -1.9801  1.4506
  642MOL0     H88537   5.906   4.480   0.948 -0.4451 -1.6816 -0.9161
  642MOL0     H88538   5.930   4.338   1.047 -3.2077  0.0547 -2.9923
  642MOL0     H88539   6.134   4.553   0.995 -1.7099  1.0351 -0.8488
  642MOL0     H88540   6.156   4.407   1.104  1.2323 -0.7142 -0.7026
  642MOL0     H88541   6.120   4.253   0.923  3.6578 -0.7901  0.0524
  642MOL0     H88542   6.262   4.348   0.890 -0.0985 -1.4520  0.1327
  642MOL0     H88543   6.144   4.315   0.680 -0.4406  0.3737 -0.3752
  642MOL0     H88544   6.004   4.396   0.745  0.0201 -1.2704  0.4244
  642MOL0     H88545   6.365   4.470   0.634 -0.3041 -0.9593  0.1670
  642MOL0     H88546   6.505   4.709   0.616  1.1001  1.5445  0.7193
  642MOL0     H88547   6.459   4.847   0.720 -0.9490  1.1104 -0.5045
  642MOL0     H88548   6.271   4.859   0.523  0.2804  1.1835  0.6935
  642MOL0     H88549   6.411   4.964   0.521  0.3367 -0.9717  3.7989
  642MOL0     H88550   6.547   4.766   0.402  0.9775  0.8181  0.5276
  642MOL0     H88551   6.399   4.688   0.381 -3.3479  1.7379  1.4162
  642MOL0     H88552   6.343   4.960   0.308  3.1004  0.6160  3.5474
  642MOL0     H88553   6.507   4.936   0.272  0.4136 -1.6932  1.7826
  642MOL0     H88554   6.424   4.769  -0.086  2.3807  3.3053 -2.1685
  642MOL0     H88555   6.176   4.748  -0.343 -1.8726  4.0464  1.6601
  642MOL0     H88556   6.337   4.712  -0.296 -0.0284 -0.1040 -2.8657
  642MOL0     H88557   6.315   4.868  -0.370  4.6437 -1.5464 -0.5422
  642MOL0     H88558   5.799   5.055  -0.394 -4.8542  2.1265 -3.8904
  642MOL0     H88559   5.658   5.020  -0.583  0.6118  2.8300 -2.8508
  642MOL0     H88560   5.589   4.802  -0.718  0.4559 -0.3380 -0.6296
  642MOL0     H88561   5.530   4.965  -0.758 -0.2110  0.5322 -0.9715
  642MOL0     H88562   5.428   4.828  -0.937  1.5164 -0.2600 -2.9428
  642MOL0     H88563   5.577   4.895  -1.005  0.6627  0.1489 -0.1121
  642MOL0     H88564   5.652   4.660  -0.885  0.6257  2.2760  1.4703
  642MOL0     H88565   5.626   4.692  -1.062  2.4236 -1.0831  1.3098
  642MOL0     H88566   5.374   4.617  -0.972 -1.0255 -0.7564  1.0381
  642MOL0     H88567   5.469   4.555  -0.835  0.5192 -2.9693 -0.5238
  642MOL0     H88568   5.632   4.438  -0.979 -0.1892  4.5231 -1.6029
  642MOL0     H88569   5.458   4.366  -0.962  1.1325 -2.3479 -1.3808
  642MOL0     H88570   5.598   4.511  -1.188 -0.1761 -0.0093  0.3731
  642MOL0     H88571   5.427   4.473  -1.188  0.4712 -0.9439 -2.1572
  642MOL0     H88572   5.639   4.258  -1.164  0.9419  0.7056 -1.2419
  642MOL0     H88573   5.566   4.326  -1.308 -2.8694  1.5780 -0.7280
  642MOL0     H88574   5.329   4.263  -1.168 -0.7415 -2.4224 -0.0419
  642MOL0     H88575   5.443   4.116  -1.150 -1.1564 -1.3345 -0.7174
  642MOL0     H88576   5.996   4.841  -0.794  0.8381  1.2859  0.4235
  642MOL0     H88577   6.129   4.863  -0.581 -0.4966 -0.8561  0.9361
  642MOL0     H88578   5.966   4.918   0.030 -0.5704  1.9453 -0.5543
  642MOL0     H88579   6.127   4.877   0.204 -2.6055 -1.3542 -0.2070
  642MOL0     H88580   5.926   4.323   1.730 -0.6679  0.2516 -1.1546
  642MOL0     H88581   5.853   4.148   1.863  0.8656 -0.2524 -1.1397
  642MOL0     H88582   5.684   3.894   2.050 -1.3808 -0.7876  1.2305
  642MOL0     H88583   5.673   3.736   2.209 -3.1048  0.0952  0.0250
  642MOL0     H88584   5.718   3.486   2.304 -0.7096  0.1836 -0.7015
  642MOL0     H88585   5.562   3.548   2.337 -0.2412 -0.2655  0.6909
  642MOL0     H88586   5.654   3.251   2.318 -1.4552 -0.3764 -0.5265
  642MOL0     H88587   5.486   3.282   2.329  0.5430 -0.7788  0.3446
  642MOL0     H88588   5.684   3.378   2.544  0.7198 -0.5011 -2.9384
  642MOL0     H88589   5.516   3.411   2.542  3.9665  4.0473 -2.0541
  642MOL0     H88590   5.573   3.229   2.693  1.6222  0.5904  0.4390
  642MOL0     H88591   5.656   3.137   2.571 -3.0095 -2.6629 -1.7214
  642MOL0     H88592   5.255   3.039   2.486 -0.7953  0.1394  0.7266
  642MOL0     H88593   5.548   3.457   1.897  2.0165 -0.9256  0.4513
  642MOL0     H88594   5.605   3.671   1.625 -0.4252  0.7512  0.4824
  642MOL0     H88595   5.569   3.507   1.691 -2.0851 -0.0778 -0.7843
  642MOL0     H88596   5.441   3.628   1.668 -0.6240 -0.1315  1.7131
  643MOL0     O88597   2.395   3.663   3.140  0.7349  0.0841 -0.2349
  643MOL0     C88598   2.434   3.773   3.095  0.2882  0.0742 -0.2248
  643MOL0     O88599   2.533   3.845   3.142  0.1315  0.3496  0.2189
  643MOL0     C88600   2.546   3.835   3.275  0.2111 -0.4051  0.0958
  643MOL0     C88601   2.441   3.846   3.367 -1.0450  0.3096  0.3305
  643MOL0     C88602   2.459   3.880   3.501  0.5063 -0.1789 -0.8738
  643MOL0     C88603   2.588   3.873   3.554 -0.1918 -0.7406 -1.0400
  643MOL0     O88604   2.614   3.890   3.688 -0.4210 -0.4343 -0.1202
  643MOL0     C88605   2.667   4.019   3.728  0.4307 -0.3151  0.8570
  643MOL0     C88606   2.626   4.038   3.873  0.3848  0.3146 -0.8263
  643MOL0     C88607   2.732   4.119   3.947  0.9627  0.1573 -0.9678
  643MOL0     C88608   2.675   4.187   4.076  0.4319 -0.0876  0.0046
  643MOL0     C88609   2.792   4.233   4.165 -0.9113  0.0520 -0.5618
  643MOL0     C88610   2.739   4.293   4.294 -0.5387  0.1348 -0.5759
  643MOL0     C88611   2.691   4.192   4.398 -0.2795  0.4597 -0.3215
  643MOL0     C88612   2.645   4.249   4.527  0.7771 -0.2324  0.2677
  643MOL0     N88613   2.576   4.153   4.626 -0.3262  0.4347  0.0552
  643MOL0     C88614   2.549   4.181   4.754  0.5253 -0.0623 -0.6917
  643MOL0     C88615   2.474   4.077   4.787 -0.4058  0.0880 -0.8415
  643MOL0     C88616   2.422   4.042   4.927  0.5700 -0.5256  0.0163
  643MOL0     C88617   2.450   4.147   5.034  0.8708 -0.1240 -0.6439
  643MOL0     C88618   2.397   4.094   5.166  1.1496  0.3027 -0.2401
  643MOL0     C88619   2.433   4.193   5.276  0.3913 -0.7400  0.5506
  643MOL0     O88620   2.405   4.331   5.241 -0.5560 -0.6608  0.5853
  643MOL0     C88621   2.281   4.384   5.252  0.3918 -0.3009 -0.6076
  643MOL0     C88622   2.246   4.499   5.187  0.1762 -1.1365  0.4889
  643MOL0     C88623   2.121   4.566   5.184 -0.3465 -0.0992  0.1705
  643MOL0     C88624   2.098   4.687   5.091  0.5459 -1.2429 -0.6544
  643MOL0     C88625   2.019   4.513   5.272 -0.1637 -0.0131  0.0042
  643MOL0     C88626   1.893   4.581   5.303 -1.0956  0.6014  0.1514
  643MOL0     O88627   1.888   4.707   5.273 -0.0116  0.3630 -0.6630
  643MOL0     C88628   1.771   4.773   5.275  0.5363  0.5312  0.2155
  643MOL0     C88629   1.722   4.823   5.146 -0.7412 -0.3647  1.1440
  643MOL0     C88630   1.593   4.879   5.134 -0.7081 -0.4991 -0.2001
  643MOL0     C88631   1.514   4.885   5.249 -0.5489 -0.5137  0.1326
  643MOL0     O88632   1.383   4.924   5.235 -0.4194  0.4805  0.4472
  643MOL0     C88633   1.289   4.837   5.292  0.6934  0.1643 -0.3938
  643MOL0     C88634   1.145   4.888   5.270  0.7059 -1.0305 -0.8900
  643MOL0     C88635   1.107   4.904   5.122  0.8312 -0.6314 -0.2959
  643MOL0     C88636   0.960   4.947   5.115 -0.5366 -0.1983  0.2289
  643MOL0     C88637   0.938   5.102   5.133  0.8569 -0.1584 -0.1594
  643MOL0     C88638   0.798   5.130   5.084  0.4182  0.4472  0.0823
  643MOL0     C88639   0.811   5.161   4.936  0.0851 -0.2601 -0.6360
  643MOL0     C88640   0.685   5.178   4.854 -0.5949 -0.5783 -0.9449
  643MOL0    Cl88641   0.570   5.290   4.931 -0.0636 -0.0302 -0.2828
  643MOL0     C88642   1.561   4.838   5.371  0.1588 -0.0758  0.0230
  643MOL0     C88643   1.687   4.787   5.389  0.0780  0.0597  0.2180
  643MOL0     O88644   1.802   4.515   5.342  0.1747  0.2566 -0.2569
  643MOL0     C88645   2.053   4.396   5.350 -0.5321 -0.5872 -0.0232
  643MOL0     C88646   2.181   4.336   5.339 -0.1568 -0.1875  0.6313
  643MOL0     N88647   2.463   3.990   4.690 -0.0058  0.3736  0.1552
  643MOL0     N88648   2.521   4.034   4.589 -0.6753 -0.2403 -0.6429
  643MOL0     C88649   2.691   3.840   3.467 -0.4570  0.2707  0.0136
  643MOL0     C88650   2.665   3.816   3.332 -0.5614  0.1550 -0.4349
  643MOL0     C88651   2.374   3.803   2.961  0.2800 -0.7199  0.3663
  643MOL0     C88652   2.406   3.719   2.859  0.3984  0.1416  0.2828
  643MOL0     C88653   2.340   3.732   2.735 -0.7056  0.0919 -1.0472
  643MOL0     C88654   2.249   3.826   2.713  0.2036 -0.3133  0.3633
  643MOL0     O88655   2.192   3.815   2.586 -0.2875 -0.4284  1.0675
  643MOL0     C88656   2.082   3.907   2.554 -0.3454 -0.7224 -0.0390
  643MOL0     C88657   2.027   3.878   2.410  0.0123  0.0140  0.0988
  643MOL0     C88658   2.129   3.856   2.310 -0.8708  0.1739 -0.6976
  643MOL0     C88659   2.065   3.816   2.178  0.1097  0.5843 -0.1520
  643MOL0     C88660   2.153   3.750   2.077  0.4694 -0.2058  0.2986
  643MOL0     C88661   2.226   3.703   1.996  0.3758 -1.0386  0.0425
  643MOL0     C88662   2.221   3.914   2.815  0.1957 -0.3648  0.8448
  643MOL0     C88663   2.285   3.919   2.940 -0.9481 -0.5492  0.5258
  643MOL0     C88664   2.249   4.019   3.051 -0.3898 -0.1743 -0.8988
  643MOL0     H88665   2.338   3.851   3.333 -0.6567  1.1122 -0.7802
  643MOL0     H88666   2.377   3.887   3.573 -0.1358 -2.0072 -1.3689
  643MOL0     H88667   2.631   4.101   3.666  0.8766  0.5670  1.7491
  643MOL0     H88668   2.776   4.007   3.725  0.3500 -1.0332  0.4265
  643MOL0     H88669   2.529   4.089   3.877  1.5471  2.7400 -1.2705
  643MOL0     H88670   2.615   3.942   3.923 -2.3142  1.9263  2.0502
  643MOL0     H88671   2.815   4.054   3.977 -0.2096 -1.0220 -0.2292
  643MOL0     H88672   2.765   4.200   3.881 -0.5127  0.6043 -1.1898
  643MOL0     H88673   2.606   4.268   4.050  1.6988  1.5205  1.4017
  643MOL0     H88674   2.616   4.108   4.123  0.9869 -1.1711 -1.0849
  643MOL0     H88675   2.869   4.299   4.126  1.1432 -2.0191 -0.2552
  643MOL0     H88676   2.849   4.142   4.188 -0.4721  0.0649 -1.5548
  643MOL0     H88677   2.817   4.359   4.334 -2.5110  0.7220  2.6422
  643MOL0     H88678   2.661   4.360   4.257  1.4795  1.3421 -3.0636
  643MOL0     H88679   2.767   4.116   4.419 -0.9242  0.3860  1.9472
  643MOL0     H88680   2.599   4.153   4.354 -1.3970  0.0606  2.2046
  643MOL0     H88681   2.721   4.292   4.593 -0.1092 -2.0399  2.6167
  643MOL0     H88682   2.577   4.332   4.506 -1.6006 -2.4295 -1.4592
  643MOL0     H88683   2.581   4.264   4.815  2.0495  0.1164 -1.6858
  643MOL0     H88684   2.461   3.946   4.962 -1.9620 -0.9584  1.9479
  643MOL0     H88685   2.313   4.041   4.927  0.5313 -2.0099  1.9547
  643MOL0     H88686   2.557   4.168   5.042  0.9992 -1.4516  2.0139
  643MOL0     H88687   2.409   4.246   5.011  0.3036 -0.6351 -1.9706
  643MOL0     H88688   2.288   4.093   5.165  1.1555 -0.4465 -0.4450
  643MOL0     H88689   2.442   3.998   5.192  2.7052  1.1018  0.1804
  643MOL0     H88690   2.386   4.169   5.372 -0.4529  3.6446  1.4773
  643MOL0     H88691   2.538   4.180   5.304  0.1369  0.5523  2.2735
  643MOL0     H88692   2.326   4.523   5.119  0.2393  0.0090  0.9407
  643MOL0     H88693   2.113   4.769   5.162  2.5203  0.7120 -3.1193
  643MOL0     H88694   2.008   4.703   5.031  0.6459  0.6029 -0.3783
  643MOL0     H88695   2.173   4.693   5.012  2.3153  0.3558  1.0139
  643MOL0     H88696   1.780   4.814   5.055  0.6951 -1.2547  2.1235
  643MOL0     H88697   1.552   4.912   5.039  0.0225  0.1091 -0.3093
  643MOL0     H88698   1.298   4.746   5.231 -3.1640 -0.4186 -0.3384
  643MOL0     H88699   1.307   4.829   5.400  0.8423  1.5242 -0.3023
  643MOL0     H88700   1.070   4.831   5.327  0.7495 -1.1190 -0.9213
  643MOL0     H88701   1.154   4.989   5.312  4.0125 -2.0826  1.3167
  643MOL0     H88702   1.125   4.808   5.072  1.3210 -1.2178  0.9632
  643MOL0     H88703   1.168   4.975   5.066 -2.1244  0.5855 -2.1932
  643MOL0     H88704   0.901   4.907   5.198 -0.4398 -1.0053 -0.0788
  643MOL0     H88705   0.922   4.904   5.022 -0.9579  0.9890 -0.1541
  643MOL0     H88706   0.941   5.127   5.240  1.0952 -1.8520  0.2696
  643MOL0     H88707   1.016   5.156   5.078 -0.0167  1.8135  0.4702
  643MOL0     H88708   0.758   5.215   5.140 -0.2136 -0.9242  1.7910
  643MOL0     H88709   0.735   5.042   5.096 -0.3214  0.9360 -0.1357
  643MOL0     H88710   0.867   5.084   4.882  0.5063 -0.6451  0.3301
  643MOL0     H88711   0.865   5.256   4.941  0.7988 -0.6015 -1.6281
  643MOL0     H88712   0.639   5.079   4.845 -2.5236  0.0521  1.1675
  643MOL0     H88713   0.697   5.220   4.754 -2.0802 -0.9463 -1.3039
  643MOL0     H88714   1.496   4.821   5.457  1.6605 -2.4784  0.7850
  643MOL0     H88715   1.715   4.745   5.485 -0.7718 -1.6663 -0.2458
  643MOL0     H88716   1.990   4.346   5.423 -0.9456 -1.6408 -1.0764
  643MOL0     H88717   2.200   4.258   5.412 -2.5568  0.5662  2.1914
  643MOL0     H88718   2.791   3.846   3.508  0.2435  0.6288 -1.6743
  643MOL0     H88719   2.754   3.789   3.276  0.4242  1.2040  0.5641
  643MOL0     H88720   2.484   3.645   2.862 -0.4339 -0.8035 -0.6911
  643MOL0     H88721   2.368   3.668   2.652  3.3016 -0.3874  0.4660
  643MOL0     H88722   2.007   3.925   2.632 -0.3498 -0.1982 -0.1622
  643MOL0     H88723   2.120   4.008   2.538 -2.1240  0.0028  0.0830
  643MOL0     H88724   1.945   3.944   2.379 -1.9196 -2.7054 -0.9220
  643MOL0     H88725   1.975   3.782   2.422 -1.0531  0.4815 -0.6041
  643MOL0     H88726   2.195   3.941   2.290 -0.6304  0.0730 -0.3375
  643MOL0     H88727   2.204   3.780   2.336 -0.5038  0.9308  0.5428
  643MOL0     H88728   2.025   3.906   2.131 -2.1215 -0.0796  0.3415
  643MOL0     H88729   1.986   3.740   2.182 -0.6189  1.0604 -3.0798
  643MOL0     H88730   2.291   3.685   1.913 -2.2545  0.0172 -2.4281
  643MOL0     H88731   2.136   3.977   2.794  0.3548 -0.2154  0.6428
  643MOL0     H88732   2.269   4.119   3.013  1.0509 -0.2393 -0.3495
  643MOL0     H88733   2.144   4.003   3.078 -0.1344 -1.9608 -0.8571
  643MOL0     H88734   2.309   4.008   3.141  0.1393 -2.2544 -1.4490
  644MOL0     O88735   1.573   3.531   9.697  0.2574 -0.7646  0.7792
  644MOL0     C88736   1.664   3.466   9.649 -0.3239 -0.5124  0.2391
  644MOL0     O88737   1.728   3.491   9.520  0.7629 -0.4176 -0.0821
  644MOL0     C88738   1.690   3.583   9.428  0.2468 -0.1129 -0.5044
  644MOL0     C88739   1.631   3.701   9.462  0.0909 -0.3180  0.5792
  644MOL0     C88740   1.597   3.788   9.365 -0.6466  0.5587  0.9366
  644MOL0     C88741   1.630   3.769   9.231 -0.1530  0.3466  0.5020
  644MOL0     O88742   1.576   3.847   9.140 -0.1572 -0.2465 -0.0148
  644MOL0     C88743   1.644   3.962   9.100  0.1571 -0.0787 -0.4814
  644MOL0     C88744   1.545   4.049   9.011 -0.2722  0.6196  0.1784
  644MOL0     C88745   1.523   3.973   8.871 -0.9525  0.1935  0.3139
  644MOL0     C88746   1.459   4.061   8.767  0.0523  0.6472  0.5293
  644MOL0     C88747   1.366   3.980   8.669  0.3747 -0.1347 -0.4704
  644MOL0     C88748   1.306   4.057   8.557 -1.0238  0.7239  0.8270
  644MOL0     C88749   1.207   4.172   8.599  0.2630 -0.6943  0.6893
  644MOL0     C88750   1.265   4.300   8.517  0.6562 -0.1728  0.4466
  644MOL0     N88751   1.193   4.426   8.557  0.9751 -0.6262 -0.5949
  644MOL0     C88752   1.057   4.439   8.572  0.0053 -0.2823 -0.3992
  644MOL0     C88753   1.021   4.563   8.591 -0.7929 -0.0225 -0.1959
  644MOL0     C88754   0.885   4.614   8.600 -0.2888 -1.1064  0.9258
  644MOL0     C88755   0.842   4.700   8.475 -0.4821  0.6819  0.1243
  644MOL0     C88756   0.706   4.764   8.478 -0.4169  0.2911 -0.4083
  644MOL0     C88757   0.590   4.676   8.491 -0.2290 -0.4244  0.3969
  644MOL0     O88758   0.575   4.640   8.359 -0.0018  0.5817 -0.6644
  644MOL0     C88759   0.469   4.555   8.330  0.1950  0.3495  1.0574
  644MOL0     C88760   0.428   4.529   8.197 -0.3280 -0.1130  0.0908
  644MOL0     C88761   0.330   4.436   8.161  0.2826 -0.2416  0.3310
  644MOL0     C88762   0.308   4.438   8.009 -0.4894  0.1538 -0.3020
  644MOL0     C88763   0.259   4.366   8.256  0.2078 -0.7596 -0.0002
  644MOL0     C88764   0.132   4.290   8.236 -0.4484  0.1952  1.0912
  644MOL0     O88765   0.110   4.178   8.321  0.3460  0.3528  0.5083
  644MOL0     C88766  -0.018   4.126   8.344 -0.2756  0.7791  0.1355
  644MOL0     C88767  -0.016   3.990   8.364  0.4601  0.9310 -0.7630
  644MOL0     C88768  -0.146   3.925   8.365  0.5729  0.3906 -0.5490
  644MOL0     C88769  -0.264   3.994   8.360  0.1048  0.6319 -0.4722
  644MOL0     O88770  -0.378   3.915   8.358 -0.7138  0.1176  0.7688
  644MOL0     C88771  -0.502   3.981   8.376  0.0842 -0.0552  0.6643
  644MOL0     C88772  -0.627   3.895   8.390 -0.7055 -0.5047 -0.0075
  644MOL0     C88773  -0.624   3.800   8.505  0.4047 -0.1048  0.2626
  644MOL0     C88774  -0.763   3.763   8.554  0.5804 -0.3940 -0.3249
  644MOL0     C88775  -0.760   3.656   8.652  0.2858  0.0150 -0.5169
  644MOL0     C88776  -0.709   3.715   8.785 -0.7169  0.3229 -0.0537
  644MOL0     C88777  -0.743   3.636   8.907 -0.2509  0.3743 -0.3868
  644MOL0     C88778  -0.701   3.490   8.905  0.2998 -0.3159  0.4227
  644MOL0    Cl88779  -0.811   3.388   8.808 -0.4516  0.0522 -0.4630
  644MOL0     C88780  -0.263   4.126   8.348  0.2661 -0.3168 -0.3356
  644MOL0     C88781  -0.142   4.190   8.335  0.4994 -0.1783 -0.8755
  644MOL0     O88782   0.059   4.318   8.140 -0.1656  0.8000  0.0824
  644MOL0     C88783   0.297   4.387   8.387  0.2481 -0.5626 -0.6266
  644MOL0     C88784   0.398   4.481   8.425 -0.3065 -0.2877 -0.6861
  644MOL0     N88785   1.141   4.631   8.588  0.4636 -0.0714 -0.1555
  644MOL0     N88786   1.239   4.549   8.584 -0.2218 -0.5758 -0.2373
  644MOL0     C88787   1.691   3.652   9.200 -0.9646  0.2950  0.3652
  644MOL0     C88788   1.731   3.553   9.298  0.2324 -0.8446  0.0223
  644MOL0     C88789   1.729   3.370   9.740  0.7935  0.3203 -0.0059
  644MOL0     C88790   1.740   3.410   9.875  0.3797 -0.8325 -0.1293
  644MOL0     C88791   1.799   3.332   9.967 -0.6253 -0.5807  0.0050
  644MOL0     C88792   1.841   3.203   9.937  0.4752  0.2834 -0.5446
  644MOL0     O88793   1.904   3.117  10.025  0.1239  0.2117  0.5144
  644MOL0     C88794   1.973   3.169  10.137 -0.1669  0.1865 -0.3985
  644MOL0     C88795   2.052   3.048  10.204 -0.1206 -0.9682 -0.5867
  644MOL0     C88796   2.074   3.068  10.363  0.3190 -0.1863 -0.8466
  644MOL0     C88797   2.092   2.937  10.432 -0.3479  0.5473 -0.6994
  644MOL0     C88798   1.971   2.859  10.441  0.4813 -1.1555  0.5580
  644MOL0     C88799   1.882   2.783  10.460 -0.7660  0.4134 -0.5886
  644MOL0     C88800   1.814   3.159   9.806 -0.3940  0.2621 -1.2679
  644MOL0     C88801   1.767   3.234   9.702 -0.1867 -1.1368 -0.0335
  644MOL0     C88802   1.746   3.185   9.555 -0.0900  0.8595  0.4046
  644MOL0     H88803   1.608   3.725   9.566 -3.0743 -1.9414  0.3533
  644MOL0     H88804   1.548   3.882   9.387  2.2260  1.5992  3.5374
  644MOL0     H88805   1.736   3.936   9.046 -0.4979  0.4855 -1.9064
  644MOL0     H88806   1.679   4.027   9.181  1.0844  1.1409 -1.8007
  644MOL0     H88807   1.459   4.063   9.078 -1.0962 -1.1554 -0.4359
  644MOL0     H88808   1.589   4.146   8.985 -1.7686  1.1288 -0.5887
  644MOL0     H88809   1.619   3.938   8.831  0.5824  1.5816  2.4966
  644MOL0     H88810   1.461   3.884   8.885  1.2628 -1.6609 -0.8376
  644MOL0     H88811   1.411   4.148   8.813 -2.5083  0.1268 -0.9819
  644MOL0     H88812   1.539   4.109   8.710 -0.7467 -0.2188 -1.4197
  644MOL0     H88813   1.287   3.939   8.733 -0.8655  0.1359 -1.7670
  644MOL0     H88814   1.416   3.896   8.620 -0.8955 -0.2622 -1.6040
  644MOL0     H88815   1.397   4.087   8.504 -0.3245 -1.2126  0.8726
  644MOL0     H88816   1.245   3.997   8.490  0.1889  0.9198 -0.4894
  644MOL0     H88817   1.207   4.202   8.705  0.0063  0.1428  0.4565
  644MOL0     H88818   1.108   4.143   8.562  0.3750 -0.4676  0.2128
  644MOL0     H88819   1.373   4.300   8.531  0.4227  2.8990  3.8842
  644MOL0     H88820   1.234   4.285   8.413 -0.4847  4.4986 -0.1374
  644MOL0     H88821   0.981   4.362   8.568  1.5935 -2.0763  1.2489
  644MOL0     H88822   0.877   4.668   8.695 -0.8757 -0.4620  0.5256
  644MOL0     H88823   0.813   4.532   8.599 -0.9666 -0.7739 -4.0732
  644MOL0     H88824   0.918   4.778   8.468  0.8061 -0.5463 -0.1277
  644MOL0     H88825   0.845   4.640   8.383  0.5540 -1.7416  1.6448
  644MOL0     H88826   0.708   4.802   8.581 -0.7931  0.6026 -0.5102
  644MOL0     H88827   0.682   4.846   8.408  3.7248  1.0843 -1.1379
  644MOL0     H88828   0.607   4.580   8.540  1.7357 -1.3715 -1.9334
  644MOL0     H88829   0.508   4.727   8.542  1.4474  2.1768  0.6600
  644MOL0     H88830   0.493   4.571   8.121 -1.2534  1.3425  0.0781
  644MOL0     H88831   0.208   4.409   7.975  0.6674 -4.7521 -0.2411
  644MOL0     H88832   0.376   4.378   7.948  2.6416  1.6228  1.5013
  644MOL0     H88833   0.324   4.536   7.961 -1.7369  0.1414 -0.7884
  644MOL0     H88834   0.078   3.937   8.363  0.6793  0.9420  3.4622
  644MOL0     H88835  -0.129   3.818   8.360 -1.0065 -0.0527  1.7282
  644MOL0     H88836  -0.510   4.053   8.458 -3.2335 -1.0467  1.3746
  644MOL0     H88837  -0.509   4.042   8.286 -0.9508 -1.7287 -0.4564
  644MOL0     H88838  -0.710   3.966   8.401 -1.4863 -1.1790 -1.3057
  644MOL0     H88839  -0.639   3.834   8.300  0.5646  0.7486 -1.0809
  644MOL0     H88840  -0.573   3.854   8.585  0.8629 -1.1990  0.7385
  644MOL0     H88841  -0.563   3.710   8.488 -0.4366 -0.6630  0.1131
  644MOL0     H88842  -0.814   3.721   8.466  0.7389 -0.5782 -0.3290
  644MOL0     H88843  -0.818   3.851   8.588  1.7508  0.0619  0.4567
  644MOL0     H88844  -0.861   3.619   8.673 -0.0005  1.3362  0.5603
  644MOL0     H88845  -0.695   3.573   8.622 -0.5333 -0.5586 -0.7350
  644MOL0     H88846  -0.757   3.813   8.803  2.9247  2.1468  0.5796
  644MOL0     H88847  -0.604   3.744   8.777 -1.3906  2.4137 -4.8263
  644MOL0     H88848  -0.848   3.646   8.936 -0.7552 -2.9266 -0.6210
  644MOL0     H88849  -0.679   3.677   8.985  0.6470 -3.2093  0.9505
  644MOL0     H88850  -0.697   3.449   9.007 -1.8512 -1.0664  0.2782
  644MOL0     H88851  -0.602   3.475   8.863  1.0563 -0.3929  2.1382
  644MOL0     H88852  -0.355   4.183   8.343  1.4474  1.7181  0.0503
  644MOL0     H88853  -0.143   4.295   8.306 -2.7293 -0.5972 -2.8082
  644MOL0     H88854   0.256   4.332   8.471  1.3320  0.8087  0.8584
  644MOL0     H88855   0.407   4.485   8.533  0.6470  1.7419 -0.7850
  644MOL0     H88856   1.703   3.618   9.097  1.5895 -0.0960  0.7278
  644MOL0     H88857   1.780   3.460   9.270 -2.6491 -2.4894  0.0420
  644MOL0     H88858   1.700   3.505   9.911  4.4126  1.4049 -0.9308
  644MOL0     H88859   1.798   3.357  10.072 -0.3175 -0.4447 -0.0229
  644MOL0     H88860   2.029   3.260  10.112 -2.8785  2.2204  0.4672
  644MOL0     H88861   1.897   3.194  10.211 -0.9243  2.0296 -1.7258
  644MOL0     H88862   2.146   3.024  10.152 -1.1305  0.3350 -3.1704
  644MOL0     H88863   1.986   2.963  10.187  0.5744 -1.5091 -0.6491
  644MOL0     H88864   2.163   3.132  10.371  1.0160 -1.2356  0.0292
  644MOL0     H88865   1.979   3.113  10.391 -1.9249 -3.2666 -2.8947
  644MOL0     H88866   2.123   2.959  10.535 -0.9038  2.3374 -0.8858
  644MOL0     H88867   2.176   2.887  10.383 -0.0986  0.1012  0.1628
  644MOL0     H88868   1.792   2.726  10.470 -0.5489  0.2377  0.4803
  644MOL0     H88869   1.848   3.059   9.781  2.5302  1.0748 -0.9267
  644MOL0     H88870   1.746   3.076   9.559 -1.5294  0.7584 -1.0908
  644MOL0     H88871   1.652   3.214   9.507 -0.1072  0.8568  0.4358
  644MOL0     H88872   1.826   3.214   9.486  1.1979 -1.8928  0.6178
  645MOL0     O88873   0.168   6.094   7.805 -1.2181 -0.3281 -0.4909
  645MOL0     C88874   0.185   6.212   7.825  0.1127 -0.2911 -0.1218
  645MOL0     O88875   0.096   6.303   7.796 -0.0675 -0.4111 -0.5416
  645MOL0     C88876  -0.019   6.276   7.724 -0.0028  0.4129 -0.0939
  645MOL0     C88877  -0.137   6.226   7.784 -1.1266  0.2047 -0.2368
  645MOL0     C88878  -0.245   6.182   7.705  0.2094 -0.0219 -0.2170
  645MOL0     C88879  -0.245   6.182   7.567  0.3308 -0.2689  0.3448
  645MOL0     O88880  -0.354   6.121   7.500 -0.3142 -0.0737 -0.9582
  645MOL0     C88881  -0.405   6.190   7.393 -0.6324 -0.1573  0.7101
  645MOL0     C88882  -0.495   6.300   7.449  0.0321  0.1776 -0.5660
  645MOL0     C88883  -0.627   6.250   7.508  0.6752 -0.5126  0.4706
  645MOL0     C88884  -0.640   6.309   7.655 -0.4694  0.2468  0.4986
  645MOL0     C88885  -0.747   6.230   7.730 -0.0483  0.0693  0.9294
  645MOL0     C88886  -0.804   6.323   7.839 -0.0316 -0.2809  0.1693
  645MOL0     C88887  -0.930   6.270   7.906 -0.6858 -1.1905 -0.0914
  645MOL0     C88888  -0.888   6.153   7.998 -0.1091  0.2861 -0.0327
  645MOL0     N88889  -0.998   6.123   8.085 -0.2899 -0.5994 -0.5269
  645MOL0     C88890  -1.114   6.065   8.051 -0.1166 -0.4103 -0.3417
  645MOL0     C88891  -1.191   6.068   8.165 -0.4792 -0.0647  0.0329
  645MOL0     C88892  -1.310   5.983   8.178 -0.2481  0.8216 -0.6910
  645MOL0     C88893  -1.365   5.955   8.321 -1.1294 -0.0264  0.6360
  645MOL0     C88894  -1.382   6.074   8.411  0.4198 -0.3064  0.2369
  645MOL0     C88895  -1.273   6.078   8.513  0.6459  0.3898 -1.2315
  645MOL0     O88896  -1.295   5.989   8.630  0.9582  0.0775  0.1420
  645MOL0     C88897  -1.356   6.054   8.736 -0.9663  0.3109 -0.2907
  645MOL0     C88898  -1.495   6.076   8.737  0.2696  0.0176 -0.8195
  645MOL0     C88899  -1.554   6.124   8.856  0.2082 -0.6519  0.1654
  645MOL0     C88900  -1.703   6.142   8.852 -0.1675  1.4317  0.3203
  645MOL0     C88901  -1.478   6.156   8.973 -1.0222 -0.3924 -0.4578
  645MOL0     C88902  -1.521   6.219   9.109 -0.1242  0.1952 -0.2606
  645MOL0     O88903  -1.444   6.321   9.157 -0.1051 -0.0395  0.1804
  645MOL0     C88904  -1.466   6.376   9.284 -0.9898 -0.1226 -0.2117
  645MOL0     C88905  -1.578   6.370   9.359 -0.5745 -0.0414 -0.2935
  645MOL0     C88906  -1.576   6.414   9.493 -0.0757  0.1343 -0.1673
  645MOL0     C88907  -1.458   6.479   9.544  0.0225 -0.0639  0.5891
  645MOL0     O88908  -1.473   6.532   9.668 -0.2686 -0.4120 -0.4746
  645MOL0     C88909  -1.411   6.663   9.682  0.2278  0.2679 -0.2851
  645MOL0     C88910  -1.483   6.745   9.781  0.1995 -0.5898 -0.3598
  645MOL0     C88911  -1.639   6.761   9.753  0.7681  0.0073 -0.1515
  645MOL0     C88912  -1.701   6.898   9.786 -0.4622  0.8057 -0.8788
  645MOL0     C88913  -1.848   6.909   9.748 -0.3152 -0.4848 -0.4028
  645MOL0     C88914  -1.891   7.059   9.785 -0.1356 -0.1408 -0.6266
  645MOL0     C88915  -2.028   7.068   9.736  0.8028 -0.6681 -0.6513
  645MOL0     C88916  -2.106   7.185   9.786  0.3051 -0.3058  0.2748
  645MOL0    Cl88917  -2.046   7.337   9.725 -0.0007  0.0872 -0.5096
  645MOL0     C88918  -1.349   6.497   9.459  0.6495 -0.5829 -0.0126
  645MOL0     C88919  -1.351   6.446   9.330  0.1540  1.7958 -0.7674
  645MOL0     O88920  -1.619   6.167   9.163 -0.3009 -0.0801 -0.2093
  645MOL0     C88921  -1.337   6.131   8.961 -0.4207  0.4625  0.8043
  645MOL0     C88922  -1.278   6.080   8.848  0.2076  1.1056  0.1143
  645MOL0     N88923  -1.123   6.140   8.255  0.2096 -0.1091  0.6396
  645MOL0     N88924  -1.006   6.170   8.207 -0.4441 -0.7802 -0.3377
  645MOL0     C88925  -0.134   6.222   7.497 -0.3667 -0.0504  0.0379
  645MOL0     C88926  -0.026   6.281   7.580 -0.4713  0.8617  0.7493
  645MOL0     C88927   0.319   6.255   7.872 -0.2722 -0.4378  0.9094
  645MOL0     C88928   0.352   6.397   7.874 -0.2259 -1.1152 -0.0311
  645MOL0     C88929   0.469   6.439   7.930 -0.4293 -0.1333  0.3746
  645MOL0     C88930   0.563   6.356   7.981 -0.9125 -0.7268 -0.4326
  645MOL0     O88931   0.685   6.404   8.023 -0.2297  0.1705 -0.3794
  645MOL0     C88932   0.719   6.546   8.034  0.9434 -0.8486  0.0655
  645MOL0     C88933   0.851   6.564   8.108 -0.1668 -0.0310 -0.0264
  645MOL0     C88934   0.861   6.705   8.175  0.3455 -0.2593  0.2170
  645MOL0     C88935   0.881   6.711   8.321 -0.1737  0.3274 -0.7682
  645MOL0     C88936   1.010   6.659   8.366  0.7045 -0.8389 -0.6400
  645MOL0     C88937   1.109   6.604   8.402 -0.4284 -0.1522  1.0164
  645MOL0     C88938   0.540   6.214   7.978 -0.0008 -0.7238 -0.2936
  645MOL0     C88939   0.421   6.163   7.931 -1.3601  0.1353  0.3007
  645MOL0     C88940   0.411   6.013   7.942 -0.1331 -0.1489 -0.1907
  645MOL0     H88941  -0.141   6.199   7.890 -0.4896  2.3672  0.3931
  645MOL0     H88942  -0.332   6.146   7.758  0.8659  1.6122  2.1174
  645MOL0     H88943  -0.467   6.122   7.336  1.1800 -1.3398  0.0478
  645MOL0     H88944  -0.327   6.236   7.331 -0.4201  1.5314  2.1136
  645MOL0     H88945  -0.438   6.374   7.505 -0.3097  1.2880 -1.6257
  645MOL0     H88946  -0.524   6.360   7.362  1.9122  0.0607 -1.3330
  645MOL0     H88947  -0.712   6.287   7.450  0.7931 -0.9235  0.0290
  645MOL0     H88948  -0.630   6.141   7.515 -0.1632 -0.5499 -0.2998
  645MOL0     H88949  -0.542   6.304   7.704 -1.9903 -1.9292  3.6587
  645MOL0     H88950  -0.677   6.412   7.651  2.5824  1.4607  0.4326
  645MOL0     H88951  -0.697   6.142   7.773  1.5908  0.8575  0.6797
  645MOL0     H88952  -0.824   6.196   7.660  1.9459 -0.7174 -0.9822
  645MOL0     H88953  -0.731   6.341   7.919 -0.0904 -1.7759  0.5944
  645MOL0     H88954  -0.837   6.421   7.804  0.6138  0.0205  0.3945
  645MOL0     H88955  -1.005   6.248   7.829  0.5420  1.4105 -2.2077
  645MOL0     H88956  -0.983   6.342   7.971 -2.0918 -1.9440 -0.3684
  645MOL0     H88957  -0.870   6.063   7.939 -0.5717  1.0673 -1.4203
  645MOL0     H88958  -0.799   6.173   8.057  0.0573 -0.9835  0.1777
  645MOL0     H88959  -1.131   6.019   7.954  0.0786 -0.7484 -0.2166
  645MOL0     H88960  -1.300   5.889   8.125  1.5086 -0.9751  2.5416
  645MOL0     H88961  -1.386   6.040   8.123 -1.6863  0.1921  0.5525
  645MOL0     H88962  -1.458   5.897   8.308 -0.1530 -1.0071 -3.0629
  645MOL0     H88963  -1.298   5.875   8.353 -1.0402 -0.1907  0.0388
  645MOL0     H88964  -1.377   6.166   8.352 -0.6868 -1.4489 -1.7488
  645MOL0     H88965  -1.470   6.072   8.474  1.4093  0.0933  1.6743
  645MOL0     H88966  -1.177   6.053   8.466  0.8288 -0.9421 -0.2031
  645MOL0     H88967  -1.276   6.180   8.551 -1.7464 -0.5911  1.6029
  645MOL0     H88968  -1.561   6.062   8.652  0.3511  2.4077 -1.3592
  645MOL0     H88969  -1.751   6.097   8.940  0.8117  1.4849  0.9008
  645MOL0     H88970  -1.737   6.089   8.763  2.1104 -1.0259  0.7678
  645MOL0     H88971  -1.744   6.243   8.855 -3.9605  0.0586  2.9366
  645MOL0     H88972  -1.675   6.330   9.329 -1.2168  2.4874 -1.8660
  645MOL0     H88973  -1.670   6.424   9.545 -1.5429  1.9349 -2.9162
  645MOL0     H88974  -1.304   6.662   9.704  0.7393 -3.3283 -2.1502
  645MOL0     H88975  -1.422   6.720   9.590  0.6304  0.8907  0.0476
  645MOL0     H88976  -1.473   6.706   9.882 -0.0331  1.5890  0.5561
  645MOL0     H88977  -1.443   6.846   9.772  0.6925 -0.8913 -2.1319
  645MOL0     H88978  -1.679   6.677   9.812  0.4294  0.3300  0.0858
  645MOL0     H88979  -1.664   6.738   9.649 -0.7452  2.2779 -0.3562
  645MOL0     H88980  -1.644   6.985   9.751  0.3536  1.3754  1.6475
  645MOL0     H88981  -1.689   6.915   9.894 -0.3109  2.3118 -1.1029
  645MOL0     H88982  -1.855   6.898   9.639  0.7843  1.1863 -0.6852
  645MOL0     H88983  -1.897   6.824   9.796  1.6127  0.4893  3.7304
  645MOL0     H88984  -1.828   7.124   9.723  1.7763 -0.9417  0.3822
  645MOL0     H88985  -1.889   7.089   9.890 -3.1076 -0.5167 -0.3775
  645MOL0     H88986  -2.076   6.976   9.771  2.1263 -1.4159 -0.7529
  645MOL0     H88987  -2.026   7.078   9.628 -1.1008  1.5146 -0.5608
  645MOL0     H88988  -2.091   7.185   9.894 -0.6471  0.7056  0.4251
  645MOL0     H88989  -2.212   7.163   9.765  1.0089 -1.5792 -2.4538
  645MOL0     H88990  -1.261   6.546   9.501  0.3947 -1.0154  1.0749
  645MOL0     H88991  -1.259   6.428   9.275 -0.7785  0.5568 -1.9706
  645MOL0     H88992  -1.271   6.154   9.044 -1.1880 -0.2540  1.6294
  645MOL0     H88993  -1.173   6.053   8.844  0.5940  2.4959  0.2117
  645MOL0     H88994  -0.132   6.223   7.389  0.0261  1.9145  0.0267
  645MOL0     H88995   0.055   6.324   7.521 -1.4859 -0.1804 -1.5051
  645MOL0     H88996   0.289   6.476   7.835  1.2127  0.3462  0.5380
  645MOL0     H88997   0.478   6.548   7.928 -3.2456  0.1889  0.9060
  645MOL0     H88998   0.708   6.589   7.934 -2.2445  2.3324  1.5670
  645MOL0     H88999   0.639   6.595   8.090  0.7410 -2.5260  1.3422
  645MOL0     H89000   0.929   6.540   8.036  0.2517 -0.2671  0.5008
  645MOL0     H89001   0.845   6.481   8.179 -2.1285  1.0389  1.1529
  645MOL0     H89002   0.949   6.756   8.136  0.2737 -1.0341 -0.9822
  645MOL0     H89003   0.774   6.762   8.141 -0.1583 -0.4797  1.0959
  645MOL0     H89004   0.805   6.645   8.363 -2.7819  3.7321  0.3578
  645MOL0     H89005   0.872   6.814   8.358  1.3796  0.4364 -0.5952
  645MOL0     H89006   1.199   6.552   8.429  0.2744 -1.5816 -3.3329
  645MOL0     H89007   0.625   6.154   8.009  0.9193  0.7504  0.1691
  645MOL0     H89008   0.425   5.956   7.849 -0.3523 -0.8941  0.2234
  645MOL0     H89009   0.474   5.971   8.021 -2.0088 -1.4795  0.6708
  645MOL0     H89010   0.308   5.992   7.972  0.3945  2.0108  3.7237
  646MOL0     O89011   6.379   0.398   9.110  0.1437 -0.4048 -0.0204
  646MOL0     C89012   6.266   0.444   9.114 -0.4445 -0.9157 -0.3285
  646MOL0     O89013   6.152   0.392   9.160  0.7589  0.0548 -0.0941
  646MOL0     C89014   6.156   0.259   9.181  0.1657 -0.4139 -0.0223
  646MOL0     C89015   6.200   0.171   9.077  0.6011 -0.6145  0.3053
  646MOL0     C89016   6.198   0.031   9.091  0.3474  0.3297 -1.0002
  646MOL0     C89017   6.173  -0.017   9.226  0.5551  0.4886 -0.7492
  646MOL0     O89018   6.185  -0.149   9.261  0.1464 -0.1127  0.7672
  646MOL0     C89019   6.081  -0.231   9.192  0.0353  0.2933 -0.2816
  646MOL0     C89020   6.073  -0.369   9.245  0.5079 -0.8561  0.2441
  646MOL0     C89021   6.025  -0.378   9.385  0.7746 -1.2363 -0.1238
  646MOL0     C89022   6.038  -0.520   9.442 -0.1571  0.3455  0.5773
  646MOL0     C89023   5.937  -0.634   9.402  0.3990 -1.1142 -0.1505
  646MOL0     C89024   5.964  -0.783   9.451  0.3325  0.9083 -0.1610
  646MOL0     C89025   5.871  -0.885   9.388  1.5731 -0.0466  0.3658
  646MOL0     C89026   5.871  -0.875   9.235  0.6271  0.5907  0.6610
  646MOL0     N89027   5.796  -0.976   9.167  0.2505  0.3187  0.1520
  646MOL0     C89028   5.663  -1.013   9.177  0.0832 -0.5732 -0.6046
  646MOL0     C89029   5.639  -1.105   9.082  0.4361  0.6324 -0.5927
  646MOL0     C89030   5.507  -1.178   9.070  0.3384 -0.3615 -0.1321
  646MOL0     C89031   5.425  -1.113   8.955 -0.1293  0.4111 -0.2556
  646MOL0     C89032   5.305  -1.202   8.940 -1.2800  0.0107 -1.1390
  646MOL0     C89033   5.198  -1.146   8.851 -0.0023 -0.8024  1.8352
  646MOL0     O89034   5.209  -1.172   8.714 -0.0728 -0.1384  0.1895
  646MOL0     C89035   5.103  -1.136   8.630 -0.5723  0.2146 -0.2017
  646MOL0     C89036   4.969  -1.115   8.667 -0.1619  0.1857  0.6624
  646MOL0     C89037   4.881  -1.058   8.575  0.1468  0.6465 -0.1332
  646MOL0     C89038   4.745  -1.032   8.630  0.5613  0.8169 -0.7109
  646MOL0     C89039   4.916  -1.055   8.439 -0.5456  0.6685  0.2373
  646MOL0     C89040   4.820  -1.025   8.333  0.1875 -1.2147 -0.4588
  646MOL0     O89041   4.874  -1.007   8.210 -0.4935  0.2848 -0.7146
  646MOL0     C89042   4.805  -0.935   8.115 -0.6118 -0.0257 -1.2194
  646MOL0     C89043   4.839  -0.797   8.101 -0.4040 -0.4627 -0.7623
  646MOL0     C89044   4.778  -0.724   8.003  1.4959  0.6434  0.0929
  646MOL0     C89045   4.683  -0.783   7.915 -0.1779 -0.2313 -0.9006
  646MOL0     O89046   4.638  -0.688   7.824  0.3594 -0.2841  0.9175
  646MOL0     C89047   4.545  -0.722   7.725  0.3706  0.0325  0.1377
  646MOL0     C89048   4.504  -0.596   7.646 -1.0429 -0.4255 -0.3817
  646MOL0     C89049   4.409  -0.526   7.741 -0.2731  0.1724 -0.4687
  646MOL0     C89050   4.359  -0.390   7.689  0.7756  0.0229  0.7480
  646MOL0     C89051   4.265  -0.408   7.564 -0.0002 -0.4482 -0.5240
  646MOL0     C89052   4.229  -0.275   7.486  0.4569  0.8234  0.5991
  646MOL0     C89053   4.191  -0.155   7.583  0.5591  0.4915  0.4890
  646MOL0     C89054   4.094  -0.062   7.510 -0.4295  0.6278 -0.1343
  646MOL0    Cl89055   4.166  -0.004   7.358  0.7636 -0.1058  0.4373
  646MOL0     C89056   4.655  -0.919   7.926 -0.1028  0.1171  1.0256
  646MOL0     C89057   4.716  -0.997   8.024  0.2369 -0.0417 -0.2318
  646MOL0     O89058   4.701  -1.014   8.364 -0.2692  0.4033 -0.8887
  646MOL0     C89059   5.051  -1.081   8.405 -1.3940  1.1163  0.5494
  646MOL0     C89060   5.142  -1.125   8.500 -0.7197  0.9052 -0.2148
  646MOL0     N89061   5.753  -1.110   9.005  0.3867  0.4018  0.1309
  646MOL0     N89062   5.848  -1.048   9.062 -0.9978 -0.4531 -0.1303
  646MOL0     C89063   6.123   0.076   9.325  0.8378  1.0056  0.1100
  646MOL0     C89064   6.108   0.207   9.299  0.7409 -0.1145 -0.1090
  646MOL0     C89065   6.253   0.581   9.050  0.3243  0.1015  0.3278
  646MOL0     C89066   6.362   0.666   9.085  0.3714 -0.6176 -0.0430
  646MOL0     C89067   6.362   0.798   9.049 -0.2622 -0.2989 -1.2036
  646MOL0     C89068   6.252   0.847   8.972  0.2511 -0.0249 -0.3686
  646MOL0     O89069   6.269   0.978   8.932  1.0970  0.6898 -0.2340
  646MOL0     C89070   6.170   1.043   8.852 -0.7371 -0.6645  0.7822
  646MOL0     C89071   6.223   1.196   8.853 -0.5771  0.0375  0.5804
  646MOL0     C89072   6.117   1.282   8.787  0.0926  0.0552  0.0525
  646MOL0     C89073   6.086   1.259   8.641  0.7215 -0.3526 -0.4564
  646MOL0     C89074   6.208   1.293   8.566  1.2377 -0.5803 -0.4053
  646MOL0     C89075   6.311   1.312   8.510  0.4388 -0.5484  0.5674
  646MOL0     C89076   6.144   0.760   8.937  0.5745  0.1868 -0.7716
  646MOL0     C89077   6.147   0.624   8.971 -0.3270  0.1455  0.2534
  646MOL0     C89078   6.042   0.533   8.909 -0.4659  1.3236  0.3774
  646MOL0     H89079   6.215   0.214   8.978 -1.5198 -0.3420  0.0550
  646MOL0     H89080   6.239  -0.022   9.006  4.4153  0.3745  0.6865
  646MOL0     H89081   6.108  -0.239   9.087  0.8753 -1.5764  0.0344
  646MOL0     H89082   5.980  -0.191   9.205 -0.9439 -2.2638  0.6833
  646MOL0     H89083   6.004  -0.427   9.182  2.0225  0.7209 -3.1774
  646MOL0     H89084   6.167  -0.422   9.225 -0.2222 -1.5541 -1.5856
  646MOL0     H89085   6.072  -0.308   9.455 -2.2231  2.2342 -1.2495
  646MOL0     H89086   5.923  -0.341   9.399  1.4212 -0.1671  2.4917
  646MOL0     H89087   6.141  -0.542   9.410 -0.9489  0.4782 -2.4258
  646MOL0     H89088   6.047  -0.520   9.551  1.9469 -1.3651  0.4942
  646MOL0     H89089   5.919  -0.629   9.294 -3.1364  0.0310  0.3767
  646MOL0     H89090   5.845  -0.598   9.449  1.3868  2.1127 -0.4142
  646MOL0     H89091   6.063  -0.820   9.424 -1.1986 -1.8331 -2.5856
  646MOL0     H89092   5.971  -0.780   9.560  0.5782 -0.8658 -0.0904
  646MOL0     H89093   5.766  -0.864   9.414 -0.0261 -1.2504 -4.1326
  646MOL0     H89094   5.890  -0.990   9.412 -1.8323 -0.7998  0.3049
  646MOL0     H89095   5.833  -0.780   9.195 -1.0222 -0.8133 -1.3300
  646MOL0     H89096   5.976  -0.899   9.221  1.0224 -0.0501  3.9943
  646MOL0     H89097   5.587  -0.981   9.249  2.4809  1.4872  1.2043
  646MOL0     H89098   5.451  -1.160   9.162 -1.4777 -1.3263 -0.9980
  646MOL0     H89099   5.521  -1.285   9.051  1.1206 -0.0433 -1.5015
  646MOL0     H89100   5.409  -1.010   8.987  1.4277  0.4611  0.5024
  646MOL0     H89101   5.474  -1.094   8.859  0.2773  1.1729  0.0845
  646MOL0     H89102   5.354  -1.279   8.879 -0.9188  1.1045 -2.2827
  646MOL0     H89103   5.273  -1.243   9.036  2.8612  1.2755  1.0206
  646MOL0     H89104   5.105  -1.192   8.888  0.8012 -3.5720  0.6868
  646MOL0     H89105   5.190  -1.038   8.868 -2.1855 -0.8327  1.3753
  646MOL0     H89106   4.939  -1.109   8.771  0.0827  3.4434  0.6655
  646MOL0     H89107   4.702  -0.941   8.587 -1.6101 -0.4155 -1.2598
  646MOL0     H89108   4.758  -1.022   8.739  0.9283  1.0937 -0.7759
  646MOL0     H89109   4.665  -1.104   8.613 -0.6676  1.6512  1.1332
  646MOL0     H89110   4.919  -0.763   8.166 -0.6344  1.5623 -1.4620
  646MOL0     H89111   4.818  -0.625   7.982 -0.1372  0.7308 -3.2204
  646MOL0     H89112   4.594  -0.797   7.662 -2.3494  0.3516 -2.5654
  646MOL0     H89113   4.455  -0.757   7.777 -0.7919  4.6528  1.7542
  646MOL0     H89114   4.580  -0.527   7.610 -0.4579 -0.4183  0.8082
  646MOL0     H89115   4.454  -0.638   7.558 -2.4020  3.2315 -1.5407
  646MOL0     H89116   4.459  -0.500   7.835 -2.3297 -1.0378  1.0513
  646MOL0     H89117   4.326  -0.594   7.759  0.2268 -0.7793 -1.6497
  646MOL0     H89118   4.434  -0.312   7.668  1.0413 -0.3030  0.4736
  646MOL0     H89119   4.301  -0.336   7.765  0.1196 -0.8658  0.8941
  646MOL0     H89120   4.325  -0.473   7.499 -2.0193 -1.3091 -1.6002
  646MOL0     H89121   4.170  -0.453   7.594  0.2625 -0.7414 -0.1241
  646MOL0     H89122   4.141  -0.294   7.424 -0.7423  1.3897  2.0819
  646MOL0     H89123   4.313  -0.246   7.422 -0.4261 -3.0706 -2.7214
  646MOL0     H89124   4.280  -0.100   7.616 -0.2301  1.9846  0.2228
  646MOL0     H89125   4.148  -0.208   7.669 -0.0181 -1.1598 -0.7807
  646MOL0     H89126   4.083   0.024   7.577  4.4555  2.1790 -0.9333
  646MOL0     H89127   4.002  -0.113   7.480 -0.6292 -0.1586  1.6971
  646MOL0     H89128   4.574  -0.948   7.860 -1.0281 -0.8832  2.5382
  646MOL0     H89129   4.695  -1.103   8.029 -0.6646  0.0170 -2.0475
  646MOL0     H89130   5.086  -1.067   8.303  0.7248  0.9777  1.2253
  646MOL0     H89131   5.244  -1.141   8.466 -0.4560 -1.7362  1.5267
  646MOL0     H89132   6.097   0.038   9.424  0.1100  0.0143 -0.4397
  646MOL0     H89133   6.066   0.279   9.369 -3.3441 -0.0053 -2.3458
  646MOL0     H89134   6.444   0.633   9.148  0.7844 -0.1550 -0.3319
  646MOL0     H89135   6.440   0.868   9.079  2.8750 -2.1562 -4.3158
  646MOL0     H89136   6.149   0.982   8.764 -0.0803 -0.9440  0.8117
  646MOL0     H89137   6.075   1.038   8.905 -1.1253  1.4866  0.3858
  646MOL0     H89138   6.321   1.212   8.807 -1.2952  1.7383 -0.4686
  646MOL0     H89139   6.230   1.223   8.959 -0.6298  2.0980  0.0952
  646MOL0     H89140   6.025   1.264   8.843  0.7463 -2.2167  0.4649
  646MOL0     H89141   6.151   1.386   8.795  3.4623 -0.9909  0.9893
  646MOL0     H89142   6.004   1.327   8.614  0.9931  2.4920  4.5725
  646MOL0     H89143   6.054   1.156   8.629  0.6177 -0.3352 -0.3310
  646MOL0     H89144   6.398   1.331   8.450  0.3357 -2.4864 -0.3040
  646MOL0     H89145   6.068   0.814   8.882 -1.1038 -0.2036  1.0791
  646MOL0     H89146   5.973   0.587   8.844 -0.3962  0.6848 -0.2457
  646MOL0     H89147   6.098   0.455   8.857  2.0074  4.2094 -1.6622
  646MOL0     H89148   5.984   0.484   8.988  1.6731 -3.0982 -0.4848
  647MOL0     O89149   0.674   0.192   0.522  0.1487  0.6608 -0.5077
  647MOL0     C89150   0.610   0.294   0.500  0.2684 -0.8877 -0.0784
  647MOL0     O89151   0.479   0.306   0.480 -0.6171  0.5963  0.0424
  647MOL0     C89152   0.396   0.195   0.499 -0.8750  0.7582 -0.5195
  647MOL0     C89153   0.284   0.185   0.408 -0.1728 -0.8400 -0.1648
  647MOL0     C89154   0.187   0.089   0.426  0.0830  0.2254  0.8333
  647MOL0     C89155   0.186  -0.007   0.527 -0.0874  0.4429 -0.0491
  647MOL0     O89156   0.080  -0.097   0.522  1.3398  0.1050  0.1128
  647MOL0     C89157   0.073  -0.197   0.624 -0.2534  0.5324 -0.2482
  647MOL0     C89158  -0.062  -0.207   0.688  0.4776  0.4367  0.8252
  647MOL0     C89159  -0.074  -0.107   0.798  0.5405 -0.1226 -0.3722
  647MOL0     C89160  -0.228  -0.112   0.857  0.0921 -0.0383  0.2427
  647MOL0     C89161  -0.248   0.008   0.943 -0.6287 -0.0096  0.3170
  647MOL0     C89162  -0.393   0.028   0.973  0.2713  0.0302 -0.3678
  647MOL0     C89163  -0.439   0.159   1.024  0.0821 -0.1486 -0.5565
  647MOL0     C89164  -0.588   0.162   1.042 -0.0332  0.1150  0.1712
  647MOL0     N89165  -0.627   0.299   1.075  0.8561 -0.3856  0.6339
  647MOL0     C89166  -0.690   0.342   1.189  0.3250  0.4279  0.2317
  647MOL0     C89167  -0.701   0.476   1.180 -0.3973  0.2242 -0.0776
  647MOL0     C89168  -0.764   0.560   1.284 -0.0994 -0.4858 -0.2827
  647MOL0     C89169  -0.762   0.707   1.256 -0.0963  0.2039 -0.2058
  647MOL0     C89170  -0.799   0.793   1.383  0.7304  0.4670 -0.2359
  647MOL0     C89171  -0.896   0.904   1.334  0.3150  0.3678  0.0604
  647MOL0     O89172  -1.018   0.844   1.278  0.1530 -0.0997 -0.9176
  647MOL0     C89173  -1.093   0.761   1.362 -0.2877 -0.4918  0.0885
  647MOL0     C89174  -1.104   0.769   1.503  0.8552 -0.6564  0.1028
  647MOL0     C89175  -1.183   0.679   1.577 -0.0002 -0.6434 -0.3042
  647MOL0     C89176  -1.205   0.715   1.718 -0.3174 -0.1389  0.0210
  647MOL0     C89177  -1.251   0.570   1.513 -0.0588  0.1654 -0.5789
  647MOL0     C89178  -1.338   0.474   1.593  0.4466  1.0955 -0.4645
  647MOL0     O89179  -1.387   0.516   1.712  0.6157 -0.0880 -0.1610
  647MOL0     C89180  -1.462   0.434   1.800 -0.1528 -0.5947 -0.1046
  647MOL0     C89181  -1.508   0.305   1.777 -0.3599 -0.2774  0.0601
  647MOL0     C89182  -1.588   0.251   1.875  0.7705 -0.4909 -0.0838
  647MOL0     C89183  -1.627   0.322   1.986 -0.8659  0.2710 -0.2241
  647MOL0     O89184  -1.720   0.264   2.067  0.9421 -0.0664 -0.7066
  647MOL0     C89185  -1.780   0.332   2.176  0.4689  0.5238 -0.2608
  647MOL0     C89186  -1.895   0.421   2.139  1.0977 -0.1950  0.3787
  647MOL0     C89187  -1.910   0.540   2.232  0.2593  0.2519 -0.5360
  647MOL0     C89188  -2.048   0.609   2.220  0.0693 -1.1051 -0.1684
  647MOL0     C89189  -2.047   0.740   2.298 -0.5581  0.5094 -0.3474
  647MOL0     C89190  -2.183   0.822   2.290 -1.2808  0.8928 -0.5974
  647MOL0     C89191  -2.182   0.927   2.401  0.7080 -0.6355 -1.2575
  647MOL0     C89192  -2.320   1.008   2.403  0.4493 -0.0239  0.0238
  647MOL0    Cl89193  -2.338   1.091   2.554 -0.1640 -0.3434 -0.2573
  647MOL0     C89194  -1.566   0.444   2.010  0.1311 -0.5468  0.2070
  647MOL0     C89195  -1.492   0.510   1.910  0.3998 -0.0361 -0.2922
  647MOL0     O89196  -1.358   0.362   1.544 -0.0010 -0.1896  0.6070
  647MOL0     C89197  -1.240   0.564   1.371  0.0912  0.1170 -0.4453
  647MOL0     C89198  -1.172   0.667   1.294  0.4409  0.4897 -1.7262
  647MOL0     N89199  -0.658   0.517   1.050 -0.2344  0.3364 -0.2996
  647MOL0     N89200  -0.616   0.411   0.994 -0.8003  0.7874 -0.1916
  647MOL0     C89201   0.298  -0.002   0.613 -0.0206  0.1239 -0.2158
  647MOL0     C89202   0.394   0.098   0.605  0.9325  0.2183  0.0007
  647MOL0     C89203   0.699   0.422   0.485 -0.7190 -0.6695 -0.4507
  647MOL0     C89204   0.827   0.419   0.543 -0.4366  0.7581  0.4051
  647MOL0     C89205   0.908   0.530   0.543  0.1885  0.0241 -0.1270
  647MOL0     C89206   0.861   0.652   0.490 -0.4441 -0.2130 -0.4505
  647MOL0     O89207   0.940   0.761   0.483  0.0175 -0.0731  0.2010
  647MOL0     C89208   0.927   0.855   0.587 -0.0994  0.0352 -0.6346
  647MOL0     C89209   1.021   0.825   0.713 -0.2163 -0.3222  1.4236
  647MOL0     C89210   1.165   0.791   0.673 -0.5238 -0.3186 -1.3772
  647MOL0     C89211   1.246   0.758   0.801  0.5582  0.2029  0.4190
  647MOL0     C89212   1.388   0.742   0.776  0.2995  0.0348 -0.0243
  647MOL0     C89213   1.508   0.751   0.761  0.4709 -0.2603 -0.5292
  647MOL0     C89214   0.743   0.652   0.421  0.4860  0.2206 -0.4043
  647MOL0     C89215   0.656   0.536   0.422  0.2163 -0.1061 -0.6078
  647MOL0     C89216   0.545   0.539   0.317  0.0101 -0.0022 -0.8166
  647MOL0     H89217   0.268   0.261   0.332 -2.2186 -0.7492  0.2996
  647MOL0     H89218   0.100   0.093   0.363  1.6546  0.7690 -1.4261
  647MOL0     H89219   0.153  -0.193   0.699 -1.1662  3.4370  0.6766
  647MOL0     H89220   0.088  -0.293   0.574  3.4352  1.7064 -1.7586
  647MOL0     H89221  -0.142  -0.197   0.614 -0.4862 -0.3199  1.7476
  647MOL0     H89222  -0.081  -0.306   0.730 -0.1451  1.2856  2.6462
  647MOL0     H89223   0.002  -0.139   0.869  1.8184  1.3028 -1.0409
  647MOL0     H89224  -0.049  -0.008   0.758  1.3346 -1.3415 -3.1701
  647MOL0     H89225  -0.291  -0.109   0.767  3.6456  0.4911 -2.4217
  647MOL0     H89226  -0.254  -0.205   0.908  0.5046  0.0638  0.6367
  647MOL0     H89227  -0.204   0.092   0.888 -0.5121  0.2267  0.7557
  647MOL0     H89228  -0.188  -0.006   1.034 -1.1913 -1.3122  0.5012
  647MOL0     H89229  -0.452  -0.002   0.886  2.7247 -0.1178 -2.0603
  647MOL0     H89230  -0.416  -0.042   1.054  2.0019  2.1118  2.0910
  647MOL0     H89231  -0.421   0.233   0.946  0.5404  0.3572  0.0145
  647MOL0     H89232  -0.381   0.194   1.110  0.5160 -1.5950 -0.2311
  647MOL0     H89233  -0.632   0.143   0.944 -0.9271  2.3221  0.0884
  647MOL0     H89234  -0.635   0.101   1.120  0.7847  1.8199  2.0789
  647MOL0     H89235  -0.715   0.285   1.278  0.8189  1.6170  1.1444
  647MOL0     H89236  -0.704   0.539   1.372  0.9745 -1.2432 -1.1754
  647MOL0     H89237  -0.868   0.536   1.308 -0.2069  0.5528  0.3559
  647MOL0     H89238  -0.663   0.731   1.217 -0.7162 -2.0775 -3.6041
  647MOL0     H89239  -0.815   0.727   1.163 -0.7200 -1.8105 -0.3289
  647MOL0     H89240  -0.833   0.733   1.468 -0.0495  2.2356  0.7533
  647MOL0     H89241  -0.719   0.854   1.425 -0.7259  3.6026 -1.7006
  647MOL0     H89242  -0.919   0.972   1.416  1.9530  2.7068 -1.3210
  647MOL0     H89243  -0.847   0.958   1.253  1.6146 -3.1100 -1.7127
  647MOL0     H89244  -1.042   0.841   1.556  0.2076 -0.1533  0.1880
  647MOL0     H89245  -1.312   0.726   1.736 -0.5105  0.7406 -1.5162
  647MOL0     H89246  -1.139   0.798   1.742  0.4850 -0.5840 -0.5840
  647MOL0     H89247  -1.174   0.628   1.777 -0.7309 -1.4144 -1.5553
  647MOL0     H89248  -1.506   0.248   1.685  1.2213  1.3387 -0.9822
  647MOL0     H89249  -1.636   0.156   1.856  0.2909 -0.0074 -1.4244
  647MOL0     H89250  -1.818   0.253   2.242  0.2436 -0.8315 -1.9633
  647MOL0     H89251  -1.698   0.377   2.234  0.1275 -3.1657  3.5988
  647MOL0     H89252  -1.874   0.466   2.041  0.7748 -3.5253 -1.3480
  647MOL0     H89253  -1.986   0.361   2.132  1.0351 -0.1023  0.4030
  647MOL0     H89254  -1.829   0.610   2.206  1.2739 -0.1167  1.3901
  647MOL0     H89255  -1.896   0.520   2.339 -1.1163 -1.9160 -0.7151
  647MOL0     H89256  -2.128   0.546   2.260 -0.1859 -0.2605  0.7030
  647MOL0     H89257  -2.075   0.626   2.115 -1.2281  0.9944  0.4512
  647MOL0     H89258  -2.026   0.694   2.395 -0.5793 -4.9846 -2.5607
  647MOL0     H89259  -1.962   0.803   2.269  0.6214 -0.4884  0.7589
  647MOL0     H89260  -2.262   0.752   2.320  1.5789 -0.6771  4.4382
  647MOL0     H89261  -2.201   0.863   2.190  0.4629 -0.1048 -1.3695
  647MOL0     H89262  -2.093   0.987   2.380  1.7107 -0.5688  2.3948
  647MOL0     H89263  -2.161   0.877   2.496  0.4307 -1.1977 -1.4864
  647MOL0     H89264  -2.398   0.931   2.413 -0.3081  0.9051  1.8476
  647MOL0     H89265  -2.334   1.071   2.315  1.9075 -1.4682 -1.3103
  647MOL0     H89266  -1.575   0.491   2.107 -1.5534 -1.1435  0.3753
  647MOL0     H89267  -1.449   0.608   1.921  0.2141  0.3205 -2.3027
  647MOL0     H89268  -1.269   0.480   1.309 -0.9031  0.8574 -1.0154
  647MOL0     H89269  -1.165   0.650   1.187 -1.9158 -4.3830 -1.3692
  647MOL0     H89270   0.312  -0.072   0.695 -0.3901  0.0970 -0.1749
  647MOL0     H89271   0.483   0.088   0.666  1.1323  0.3795 -0.2583
  647MOL0     H89272   0.882   0.333   0.580  1.5241  1.3842 -0.8885
  647MOL0     H89273   1.007   0.526   0.588 -0.8213 -2.2525  2.0848
  647MOL0     H89274   0.953   0.956   0.556  0.2830  0.9499  2.3068
  647MOL0     H89275   0.830   0.860   0.637  0.2407 -1.1053  0.1915
  647MOL0     H89276   0.977   0.733   0.754 -0.1077 -1.8204 -1.5534
  647MOL0     H89277   1.014   0.904   0.788 -2.0123  0.4838  0.4739
  647MOL0     H89278   1.185   0.706   0.607  2.5264 -1.1359  0.3976
  647MOL0     H89279   1.203   0.879   0.622  2.3495  0.7812  2.2048
  647MOL0     H89280   1.217   0.657   0.831  2.7089 -0.9416 -1.0461
  647MOL0     H89281   1.241   0.835   0.878  0.8777 -0.8532  1.5202
  647MOL0     H89282   1.614   0.765   0.770  0.3971 -0.4596  0.7571
  647MOL0     H89283   0.724   0.742   0.364 -2.3799 -0.4651 -0.7232
  647MOL0     H89284   0.535   0.642   0.280  0.1850 -0.2260 -1.5035
  647MOL0     H89285   0.564   0.472   0.233 -1.0854 -1.5415  0.1202
  647MOL0     H89286   0.446   0.512   0.354 -0.0808  2.0887  0.6149
  648MOL0     O89287  10.238   8.118   2.941  0.4947  0.3759  0.6584
  648MOL0     C89288  10.221   8.068   2.829  0.7195 -0.4823  1.2929
  648MOL0     O89289  10.177   7.934   2.809  0.3427 -0.3894  0.9948
  648MOL0     C89290  10.159   7.864   2.925  0.0585 -0.1550 -0.6123
  648MOL0     C89291  10.047   7.885   3.011  0.1739  0.4891  0.3021
  648MOL0     C89292  10.037   7.842   3.143  0.3706 -0.0498 -0.3800
  648MOL0     C89293  10.130   7.753   3.196 -0.2008  0.5862  0.2990
  648MOL0     O89294  10.104   7.674   3.307  0.1191  0.2601 -0.1844
  648MOL0     C89295  10.025   7.723   3.416 -0.2726 -0.2860  0.7854
  648MOL0     C89296  10.051   7.622   3.529 -0.0250 -0.1992  0.8799
  648MOL0     C89297  10.203   7.644   3.584  0.1460 -0.7614 -0.0367
  648MOL0     C89298  10.221   7.559   3.703 -0.2458 -0.1996  0.1147
  648MOL0     C89299  10.352   7.579   3.780 -0.1323 -0.8915  0.3670
  648MOL0     C89300  10.478   7.581   3.689  0.6696 -0.8025 -0.7933
  648MOL0     C89301  10.602   7.582   3.784  0.3750  0.1345  0.1745
  648MOL0     C89302  10.729   7.602   3.703 -0.4815 -0.8414 -0.5678
  648MOL0     N89303  10.849   7.609   3.783 -0.7083 -0.2329 -0.6982
  648MOL0     C89304  10.968   7.564   3.739 -0.7854 -0.3461 -0.1130
  648MOL0     C89305  11.059   7.635   3.811 -0.6781  0.2846  0.5044
  648MOL0     C89306  11.204   7.625   3.811  0.3547  0.0271 -0.1675
  648MOL0     C89307  11.247   7.499   3.889 -0.2256 -0.2666  0.2609
  648MOL0     C89308  11.395   7.503   3.916  0.1181 -0.1575 -1.1389
  648MOL0     C89309  11.448   7.393   4.005 -0.5522 -1.1959 -0.4887
  648MOL0     O89310  11.453   7.266   3.936  0.7240 -0.8453 -0.4135
  648MOL0     C89311  11.536   7.163   3.978 -0.0754  0.8485  0.5438
  648MOL0     C89312  11.641   7.182   4.075  0.4693  0.6328  1.1194
  648MOL0     C89313  11.736   7.077   4.095  0.0651 -0.8527 -0.9400
  648MOL0     C89314  11.870   7.117   4.170  0.0638 -0.4631  0.3259
  648MOL0     C89315  11.715   6.951   4.030 -0.2586  0.1974 -0.9517
  648MOL0     C89316  11.803   6.831   4.055  0.8487  0.6987 -0.1158
  648MOL0     O89317  11.776   6.728   3.966 -0.6818  0.1124  0.2921
  648MOL0     C89318  11.821   6.602   4.011 -0.3560 -0.9799 -0.0545
  648MOL0     C89319  11.726   6.506   4.016  0.2033 -0.2048 -0.3383
  648MOL0     C89320  11.762   6.373   4.056  0.1718  0.2957  0.7178
  648MOL0     C89321  11.892   6.340   4.090 -1.0465  0.9147 -0.5331
  648MOL0     O89322  11.926   6.207   4.120  0.6347  0.2359  0.4683
  648MOL0     C89323  12.037   6.178   4.206  0.1129 -0.1768 -0.2624
  648MOL0     C89324  12.022   6.036   4.274 -0.1088  0.0401  0.6104
  648MOL0     C89325  12.049   6.024   4.422  0.3575 -0.2316 -1.5382
  648MOL0     C89326  12.191   6.067   4.457  1.2611  0.4187 -0.1976
  648MOL0     C89327  12.227   6.044   4.602  0.7341  0.8521  0.1483
  648MOL0     C89328  12.360   6.111   4.631 -0.7944 -0.6164  0.2173
  648MOL0     C89329  12.400   6.104   4.779 -0.3618  0.0224  0.0903
  648MOL0     C89330  12.440   5.960   4.815  0.4337  0.1769 -0.6840
  648MOL0    Cl89331  12.426   5.944   4.994 -0.1484 -0.1314  0.2326
  648MOL0     C89332  11.995   6.447   4.084  0.3834 -0.5475 -0.1554
  648MOL0     C89333  11.958   6.577   4.041 -0.8691  0.5387  0.1155
  648MOL0     O89334  11.861   6.822   4.160 -0.0425 -0.0009  0.0944
  648MOL0     C89335  11.604   6.938   3.939 -0.3077  0.4012  0.3898
  648MOL0     C89336  11.513   7.043   3.913 -0.6652  0.2967  0.6451
  648MOL0     N89337  10.993   7.713   3.902 -0.1434  0.7332 -0.5398
  648MOL0     N89338  10.875   7.694   3.885  0.8193  0.4302 -0.5545
  648MOL0     C89339  10.238   7.716   3.106 -0.1474  0.4035  0.0200
  648MOL0     C89340  10.252   7.778   2.981  0.0062 -0.1607  0.2049
  648MOL0     C89341  10.247   8.150   2.709 -0.0898  0.3505  0.0271
  648MOL0     C89342  10.274   8.077   2.595  0.4185  0.0853  0.8535
  648MOL0     C89343  10.305   8.140   2.479 -0.6746  0.1763  0.2369
  648MOL0     C89344  10.331   8.270   2.479  0.2890 -0.0875 -1.0251
  648MOL0     O89345  10.374   8.339   2.366 -0.0821  0.3876  0.3273
  648MOL0     C89346  10.410   8.479   2.363  0.7144 -0.0902 -0.3864
  648MOL0     C89347  10.476   8.502   2.226  0.0821 -0.3750  0.5899
  648MOL0     C89348  10.548   8.635   2.201  0.7850 -0.3277 -0.3563
  648MOL0     C89349  10.611   8.635   2.064  0.5058  0.6288  0.3260
  648MOL0     C89350  10.699   8.750   2.055  0.3074 -0.0993  0.0484
  648MOL0     C89351  10.774   8.848   2.036 -0.8793 -0.2009 -0.0011
  648MOL0     C89352  10.304   8.344   2.595  0.0568  0.2812 -0.0441
  648MOL0     C89353  10.274   8.285   2.714 -0.1080  0.5776 -0.9711
  648MOL0     C89354  10.268   8.377   2.836 -0.2650  0.2700  0.1253
  648MOL0     H89355   9.962   7.933   2.964 -1.5076 -0.6384  2.0419
  648MOL0     H89356   9.951   7.867   3.205 -2.3681 -1.0047 -3.4655
  648MOL0     H89357   9.918   7.723   3.392 -0.4280  1.9650  1.3268
  648MOL0     H89358  10.052   7.826   3.442  1.6339  0.3730 -3.0099
  648MOL0     H89359   9.977   7.632   3.608  1.5251  1.8932  2.1688
  648MOL0     H89360  10.044   7.520   3.488  0.7501 -0.5545  1.5963
  648MOL0     H89361  10.285   7.641   3.512  3.3183 -1.4397  3.2887
  648MOL0     H89362  10.216   7.746   3.619 -0.3359 -0.3907 -0.9214
  648MOL0     H89363  10.138   7.575   3.773 -1.6070 -1.8551 -1.0231
  648MOL0     H89364  10.226   7.455   3.669  1.7278  0.0157 -0.3318
  648MOL0     H89365  10.375   7.499   3.850 -1.2202  0.1314  1.9635
  648MOL0     H89366  10.349   7.670   3.841  0.8881 -0.6571  0.0974
  648MOL0     H89367  10.485   7.496   3.622  0.0400 -0.6371 -1.0729
  648MOL0     H89368  10.481   7.679   3.639  0.8538 -0.3977 -0.0111
  648MOL0     H89369  10.613   7.477   3.814  0.0255 -0.3331 -1.2311
  648MOL0     H89370  10.577   7.649   3.866  0.5361  3.1721 -2.0873
  648MOL0     H89371  10.754   7.525   3.629  2.7401  1.5968 -2.3033
  648MOL0     H89372  10.702   7.689   3.643 -2.8930 -1.2861 -0.2452
  648MOL0     H89373  10.985   7.482   3.669  1.8495  0.2033 -0.2379
  648MOL0     H89374  11.253   7.721   3.831 -2.0283  1.5256 -1.1674
  648MOL0     H89375  11.230   7.612   3.706  2.6177 -1.0815  0.4523
  648MOL0     H89376  11.193   7.484   3.983  0.5491  1.2084  0.9720
  648MOL0     H89377  11.226   7.415   3.823 -0.6230 -0.0411  0.1020
  648MOL0     H89378  11.454   7.497   3.825 -0.8921 -0.8242 -1.7693
  648MOL0     H89379  11.411   7.594   3.975  0.6890 -0.9254 -0.0816
  648MOL0     H89380  11.545   7.423   4.045 -1.0754 -0.6827  0.4165
  648MOL0     H89381  11.385   7.375   4.093 -1.4998 -1.5760 -1.2218
  648MOL0     H89382  11.653   7.284   4.113 -5.5818  2.4691 -0.7463
  648MOL0     H89383  11.878   7.225   4.183  2.2917 -0.6297  0.6477
  648MOL0     H89384  11.948   7.075   4.107 -3.8014 -4.2328 -2.5657
  648MOL0     H89385  11.882   7.082   4.273  0.5855  1.1761  0.8419
  648MOL0     H89386  11.626   6.535   3.983  0.4615 -0.8598 -1.7804
  648MOL0     H89387  11.702   6.283   4.046  0.4996  0.2721 -1.6456
  648MOL0     H89388  12.131   6.192   4.153  0.2098 -0.5393 -0.1919
  648MOL0     H89389  12.023   6.257   4.281  0.4257  1.8020 -2.1925
  648MOL0     H89390  11.916   6.016   4.257 -0.7921  3.4997  0.1020
  648MOL0     H89391  12.073   5.959   4.215  0.6830 -2.3719  4.0866
  648MOL0     H89392  12.035   5.923   4.462 -1.5765  0.9281  0.9989
  648MOL0     H89393  11.986   6.093   4.479  1.4676  1.6323 -2.4802
  648MOL0     H89394  12.203   6.176   4.450  0.1299  1.3211  5.9382
  648MOL0     H89395  12.270   6.019   4.398  0.8435 -0.6158  0.0646
  648MOL0     H89396  12.141   6.075   4.662 -0.6006 -4.5037  1.5944
  648MOL0     H89397  12.238   5.937   4.622  1.0339  1.1220  1.5204
  648MOL0     H89398  12.374   6.216   4.603  3.9144 -0.7541  1.2210
  648MOL0     H89399  12.441   6.063   4.575  2.1863  3.2728  0.7289
  648MOL0     H89400  12.312   6.130   4.840 -1.0965 -1.7845 -0.1135
  648MOL0     H89401  12.482   6.173   4.800 -2.3534  1.9968  1.8873
  648MOL0     H89402  12.542   5.932   4.786  0.3801  0.6502 -1.3510
  648MOL0     H89403  12.368   5.891   4.772  0.0466  0.7514 -0.9731
  648MOL0     H89404  12.100   6.422   4.097 -0.1242 -2.2877  0.9498
  648MOL0     H89405  12.030   6.654   4.014 -2.8614  1.5766 -2.7856
  648MOL0     H89406  11.579   6.852   3.878  1.2378 -0.8358  1.4398
  648MOL0     H89407  11.436   7.038   3.837 -1.2623 -2.6271  1.3483
  648MOL0     H89408  10.307   7.645   3.150  0.9129 -0.3181 -2.6084
  648MOL0     H89409  10.340   7.761   2.919 -1.3115 -1.3773 -1.3978
  648MOL0     H89410  10.255   7.970   2.589 -0.4559  0.2809 -0.4293
  648MOL0     H89411  10.302   8.093   2.381  0.0607  1.0770 -0.2240
  648MOL0     H89412  10.319   8.539   2.370  1.0174  0.1592  4.0781
  648MOL0     H89413  10.477   8.509   2.443  2.1271 -1.8100 -0.8802
  648MOL0     H89414  10.400   8.490   2.148 -1.9708  3.5441  1.7206
  648MOL0     H89415  10.549   8.422   2.209  0.3788 -0.4902  2.2420
  648MOL0     H89416  10.472   8.709   2.225 -0.7704 -2.3078  1.1804
  648MOL0     H89417  10.622   8.640   2.282  1.6642 -0.6166 -1.1139
  648MOL0     H89418  10.530   8.651   1.992  1.0894  5.3216  0.4116
  648MOL0     H89419  10.666   8.541   2.051 -0.2446 -0.0464  1.7959
  648MOL0     H89420  10.833   8.935   2.016 -0.7974 -0.5550 -1.4227
  648MOL0     H89421  10.326   8.450   2.601 -1.6822  0.6159  1.9333
  648MOL0     H89422  10.349   8.352   2.905  0.5347  1.0371 -0.4995
  648MOL0     H89423  10.275   8.484   2.814 -1.3585 -0.2231 -3.2088
  648MOL0     H89424  10.178   8.368   2.897 -0.0910  4.5760  1.3430
  649MOL0     O89425   6.891   9.572   4.082 -0.1653  0.2543 -0.0929
  649MOL0     C89426   7.007   9.600   4.097 -1.4187 -0.2841  0.1937
  649MOL0     O89427   7.108   9.568   4.001 -0.4419 -0.3708 -0.0597
  649MOL0     C89428   7.079   9.479   3.901  0.0101 -0.1441 -0.2505
  649MOL0     C89429   7.073   9.533   3.775  0.1405  0.2354  0.2132
  649MOL0     C89430   7.041   9.451   3.671 -0.0677  0.9741  0.3828
  649MOL0     C89431   7.011   9.314   3.685  0.0694  0.1014  0.8281
  649MOL0     O89432   6.979   9.248   3.570 -0.6354  0.7375  0.0664
  649MOL0     C89433   6.928   9.114   3.577 -0.2612 -0.0785  0.1762
  649MOL0     C89434   6.936   9.048   3.444 -0.3590 -0.5359  0.7130
  649MOL0     C89435   6.839   9.127   3.354  0.0057  0.4265 -0.0398
  649MOL0     C89436   6.859   9.080   3.212  0.1948 -0.0808  1.5112
  649MOL0     C89437   6.731   9.125   3.142  0.5397 -0.2834 -0.3869
  649MOL0     C89438   6.734   9.280   3.125  1.0641  1.1314 -0.3716
  649MOL0     C89439   6.856   9.338   3.058  0.2130  0.5534  0.6176
  649MOL0     C89440   6.887   9.270   2.924 -0.8582  0.3171 -0.1282
  649MOL0     N89441   7.009   9.325   2.856 -0.4239  0.0608 -0.4436
  649MOL0     C89442   7.014   9.427   2.770 -0.5780 -0.6456 -0.0629
  649MOL0     C89443   7.146   9.441   2.748  0.6047 -0.7927 -0.4311
  649MOL0     C89444   7.195   9.548   2.653  0.3400 -0.2030  0.0116
  649MOL0     C89445   7.184   9.509   2.506 -0.3977 -0.3946  0.2730
  649MOL0     C89446   7.259   9.616   2.414  0.2643  0.3248  0.1443
  649MOL0     C89447   7.386   9.535   2.360 -0.4428 -0.0366 -0.2861
  649MOL0     O89448   7.360   9.423   2.268  0.2534 -0.5307 -0.3990
  649MOL0     C89449   7.324   9.461   2.141 -0.3085 -0.0697  0.3778
  649MOL0     C89450   7.200   9.444   2.081 -0.9491  0.0050  0.3713
  649MOL0     C89451   7.164   9.486   1.954  1.6168  0.1011 -0.7414
  649MOL0     C89452   7.020   9.468   1.909  0.5128 -0.7419  0.0877
  649MOL0     C89453   7.257   9.539   1.869  0.2391 -0.3623  1.0673
  649MOL0     C89454   7.227   9.574   1.729  0.9924 -0.4151 -0.2363
  649MOL0     O89455   7.188   9.470   1.649  0.1914 -0.4188  0.4146
  649MOL0     C89456   7.146   9.494   1.516 -0.8100  0.1732 -0.3322
  649MOL0     C89457   7.109   9.374   1.449 -1.0852 -1.0726 -1.6266
  649MOL0     C89458   7.065   9.375   1.320  0.0477  0.1783 -0.5412
  649MOL0     C89459   7.059   9.493   1.247  0.6953  0.1929  0.2743
  649MOL0     O89460   7.031   9.493   1.113  0.1134 -0.2152 -0.0648
  649MOL0     C89461   7.140   9.453   1.030 -0.2880 -1.0232 -0.0594
  649MOL0     C89462   7.092   9.358   0.916 -0.3273 -0.6307  0.6601
  649MOL0     C89463   7.207   9.331   0.814  0.0112  0.1778 -0.7466
  649MOL0     C89464   7.154   9.243   0.706 -0.7525 -0.6283 -0.2553
  649MOL0     C89465   7.068   9.328   0.600  0.1563  0.0570 -0.5140
  649MOL0     C89466   7.007   9.238   0.485  0.0187  0.4586 -0.9533
  649MOL0     C89467   6.900   9.326   0.418  0.2812 -0.0175  0.1129
  649MOL0     C89468   6.763   9.255   0.418 -0.3424  0.2669  0.0446
  649MOL0    Cl89469   6.692   9.271   0.578 -0.3055 -0.4048 -0.1703
  649MOL0     C89470   7.093   9.609   1.313  0.3729 -0.0931  0.0005
  649MOL0     C89471   7.139   9.613   1.442 -1.6047  0.6393  0.2578
  649MOL0     O89472   7.213   9.692   1.711 -0.3948 -0.5504  0.1502
  649MOL0     C89473   7.384   9.555   1.923 -0.4571  0.5730  0.5985
  649MOL0     C89474   7.425   9.518   2.058 -0.1874  0.1941 -0.0187
  649MOL0     N89475   7.218   9.344   2.811  0.4197  0.5021 -0.2154
  649MOL0     N89476   7.132   9.266   2.870 -0.2893 -0.3785  0.5892
  649MOL0     C89477   7.035   9.264   3.809  0.3733  0.5743 -0.8630
  649MOL0     C89478   7.062   9.344   3.918 -0.2986  0.0132  0.4138
  649MOL0     C89479   7.048   9.702   4.204  0.0886 -0.1471 -0.1461
  649MOL0     C89480   7.169   9.767   4.187 -1.0082 -0.0894  0.4294
  649MOL0     C89481   7.227   9.861   4.278 -0.7380 -0.8177  0.8403
  649MOL0     C89482   7.162   9.885   4.399  0.5898 -0.5550 -0.5369
  649MOL0     O89483   7.220   9.961   4.499  0.0406  0.3472  0.0053
  649MOL0     C89484   7.330  10.042   4.459 -0.3442  0.3797  0.7778
  649MOL0     C89485   7.329  10.168   4.551 -0.5518  0.5537  0.2507
  649MOL0     C89486   7.399  10.285   4.475  0.4892  0.5415  0.0108
  649MOL0     C89487   7.380  10.428   4.536 -1.0811  0.3679  0.5074
  649MOL0     C89488   7.472  10.523   4.468 -0.1671  0.6284  0.3921
  649MOL0     C89489   7.537  10.597   4.399  0.3704 -0.0637 -0.2934
  649MOL0     C89490   7.045   9.823   4.417 -0.3540 -0.0865  0.8566
  649MOL0     C89491   6.986   9.734   4.327  0.2365  0.3112 -0.2757
  649MOL0     C89492   6.850   9.683   4.367 -0.6912  0.0832 -0.0727
  649MOL0     H89493   7.103   9.634   3.749  1.3875 -0.0415  0.5187
  649MOL0     H89494   7.038   9.493   3.571 -1.4332  1.3673  0.5811
  649MOL0     H89495   6.824   9.109   3.608 -0.9332  3.2841 -1.1849
  649MOL0     H89496   6.987   9.056   3.649  1.2156  1.1945  0.0570
  649MOL0     H89497   7.039   9.068   3.414 -0.4324  0.4195  1.0898
  649MOL0     H89498   6.921   8.940   3.429  0.0122 -0.2802 -1.9987
  649MOL0     H89499   6.736   9.107   3.387 -0.9804  1.1980 -2.4374
  649MOL0     H89500   6.860   9.233   3.368 -2.2207  0.6506  2.6789
  649MOL0     H89501   6.953   9.121   3.174 -0.4122 -0.3759 -0.4236
  649MOL0     H89502   6.857   8.971   3.207 -3.4256 -0.0766  0.2694
  649MOL0     H89503   6.642   9.102   3.201 -0.3297  0.0328 -1.5486
  649MOL0     H89504   6.720   9.071   3.047 -1.3089 -5.3162  2.2872
  649MOL0     H89505   6.641   9.317   3.080  1.4308 -0.2359 -2.3670
  649MOL0     H89506   6.741   9.311   3.229  0.3063 -2.8430  1.0027
  649MOL0     H89507   6.941   9.328   3.127 -0.7241  0.2924  1.7601
  649MOL0     H89508   6.852   9.446   3.043 -0.5899  0.1874 -2.7975
  649MOL0     H89509   6.901   9.162   2.920  2.7657  0.6379 -4.5438
  649MOL0     H89510   6.803   9.276   2.854 -0.7304 -0.8149 -0.3940
  649MOL0     H89511   6.930   9.488   2.737  1.8385  3.8463  1.2311
  649MOL0     H89512   7.300   9.562   2.682  0.5738 -2.3051  0.3549
  649MOL0     H89513   7.138   9.638   2.678 -0.9169 -0.9878  0.0491
  649MOL0     H89514   7.229   9.410   2.494  0.7984  0.2021 -0.3383
  649MOL0     H89515   7.078   9.507   2.478 -0.4933 -2.0308  0.6151
  649MOL0     H89516   7.209   9.640   2.320  1.7294  0.9488 -0.5048
  649MOL0     H89517   7.290   9.702   2.475  0.0667 -0.5471  1.5062
  649MOL0     H89518   7.436   9.615   2.303  1.9482 -0.6046  0.8913
  649MOL0     H89519   7.453   9.502   2.440 -0.3251  0.9895  0.0538
  649MOL0     H89520   7.122   9.403   2.144 -2.3635  3.5685  1.1408
  649MOL0     H89521   7.018   9.366   1.869 -0.6682 -0.9381  0.5951
  649MOL0     H89522   7.007   9.544   1.832  3.9740 -0.1491 -0.0781
  649MOL0     H89523   6.948   9.482   1.991  0.3758  2.0358 -0.4361
  649MOL0     H89524   7.120   9.282   1.506  0.4407 -1.1822 -2.0528
  649MOL0     H89525   7.019   9.286   1.277  1.3343  0.7895 -3.4100
  649MOL0     H89526   7.184   9.535   0.972  1.5421 -1.3212  0.8215
  649MOL0     H89527   7.228   9.419   1.087 -0.7910 -0.5273  1.0460
  649MOL0     H89528   7.054   9.260   0.948 -2.2780  0.7279  2.8585
  649MOL0     H89529   7.007   9.408   0.868 -0.5521  2.1740  3.6301
  649MOL0     H89530   7.287   9.283   0.870 -1.1814  1.0046  1.8348
  649MOL0     H89531   7.255   9.423   0.781 -2.4615  3.0949  2.8893
  649MOL0     H89532   7.106   9.156   0.751 -0.5161 -1.8530 -2.2620
  649MOL0     H89533   7.240   9.204   0.652 -1.7004 -1.5491 -1.1593
  649MOL0     H89534   6.992   9.379   0.660 -0.1862 -1.4645  0.4180
  649MOL0     H89535   7.124   9.407   0.550  0.2142  1.5465  1.7709
  649MOL0     H89536   6.968   9.149   0.535  0.1574  1.9232  1.9032
  649MOL0     H89537   7.081   9.215   0.407 -0.0372 -1.2519 -0.5433
  649MOL0     H89538   6.934   9.346   0.316 -1.8313  0.8452 -0.4762
  649MOL0     H89539   6.887   9.423   0.466  0.4079  0.5030 -0.8753
  649MOL0     H89540   6.785   9.150   0.401  1.4279 -0.1116  3.6948
  649MOL0     H89541   6.705   9.305   0.340  2.5274 -0.2803 -2.6338
  649MOL0     H89542   7.087   9.699   1.252 -1.5965  1.0868  1.8205
  649MOL0     H89543   7.170   9.708   1.484  0.3436 -0.3128  1.1328
  649MOL0     H89544   7.449   9.597   1.847 -0.2327  1.0260  1.0367
  649MOL0     H89545   7.527   9.525   2.094 -0.3751 -0.1880  0.6040
  649MOL0     H89546   7.024   9.158   3.828  2.7851  0.8375  3.3083
  649MOL0     H89547   7.059   9.300   4.017  0.5886  0.4868  0.6621
  649MOL0     H89548   7.221   9.744   4.095 -1.7567  1.8405 -0.5381
  649MOL0     H89549   7.330   9.890   4.259 -0.6534 -0.7715  1.3362
  649MOL0     H89550   7.421   9.982   4.451 -0.8857 -0.3406 -0.1578
  649MOL0     H89551   7.322  10.075   4.355 -0.3297  0.7492  0.8929
  649MOL0     H89552   7.387  10.131   4.636 -0.7842 -0.3099  0.0454
  649MOL0     H89553   7.229  10.206   4.571  0.5173  3.6196  0.2625
  649MOL0     H89554   7.505  10.258   4.473  0.1692 -0.8772  0.7512
  649MOL0     H89555   7.356  10.275   4.375 -0.1519 -2.4617  0.4634
  649MOL0     H89556   7.417  10.424   4.639  1.1030 -0.6342 -0.2645
  649MOL0     H89557   7.277  10.466   4.535 -1.1968  0.1205  1.6206
  649MOL0     H89558   7.591  10.669   4.340 -0.6859 -0.3312 -1.6337
  649MOL0     H89559   7.012   9.848   4.518 -1.8014  1.0136  0.1415
  649MOL0     H89560   6.776   9.737   4.307  2.1464  1.7901 -2.2613
  649MOL0     H89561   6.848   9.575   4.347  1.1050 -0.3871  1.8991
  649MOL0     H89562   6.821   9.697   4.472 -2.9832 -2.8674 -0.1773
  650MOL0     O89563   2.738  10.170   6.658  1.1033 -0.0191 -0.4838
  650MOL0     C89564   2.850  10.210   6.681 -0.3621 -0.6897 -0.3213
  650MOL0     O89565   2.925  10.183   6.794 -0.0881  0.1800 -0.5757
  650MOL0     C89566   2.875  10.088   6.878 -0.4015 -0.2450 -0.4601
  650MOL0     C89567   2.896   9.955   6.855 -0.9730  0.3516  0.7775
  650MOL0     C89568   2.838   9.855   6.931 -0.0639 -0.5303 -0.1424
  650MOL0     C89569   2.765   9.900   7.038 -0.4169 -0.9368 -0.1496
  650MOL0     O89570   2.706   9.813   7.128  0.0742 -0.6006  0.3288
  650MOL0     C89571   2.605   9.727   7.065 -0.6538 -0.1848 -0.0738
  650MOL0     C89572   2.479   9.801   7.003 -0.1372 -0.5403  0.0783
  650MOL0     C89573   2.380   9.868   7.098 -0.4061 -0.3690  0.1535
  650MOL0     C89574   2.372   9.803   7.243 -0.2038  0.2817 -0.8072
  650MOL0     C89575   2.274   9.880   7.333  0.2035 -0.3697 -0.0981
  650MOL0     C89576   2.297   9.835   7.477  0.5037 -0.6484 -0.1548
  650MOL0     C89577   2.217   9.923   7.574 -0.2568 -0.8618  0.6756
  650MOL0     C89578   2.247   9.908   7.723  0.6408  0.4180  0.0849
  650MOL0     N89579   2.164   9.984   7.816  0.5820  0.2619  0.0001
  650MOL0     C89580   2.178  10.117   7.861 -0.2211 -0.1005  0.9863
  650MOL0     C89581   2.065  10.142   7.926 -0.1794 -1.3815 -1.2997
  650MOL0     C89582   2.024  10.269   7.987 -0.4004 -1.0186 -0.3209
  650MOL0     C89583   2.089  10.262   8.126 -0.4693  1.1267 -0.9611
  650MOL0     C89584   2.218  10.344   8.119  0.0099 -0.2721 -0.1318
  650MOL0     C89585   2.280  10.359   8.262 -0.2098 -0.8905  0.4981
  650MOL0     O89586   2.227  10.472   8.325 -0.0363  1.0086 -0.0053
  650MOL0     C89587   2.262  10.486   8.459 -1.1374 -0.7861  0.1147
  650MOL0     C89588   2.392  10.469   8.508  0.2704  0.6584  0.1736
  650MOL0     C89589   2.427  10.489   8.637 -0.7487  0.2820  0.1599
  650MOL0     C89590   2.570  10.458   8.667 -0.4541  0.5161 -0.3630
  650MOL0     C89591   2.334  10.517   8.733  0.4048 -0.0879  0.0430
  650MOL0     C89592   2.351  10.541   8.885 -0.1100  0.4547 -0.4705
  650MOL0     O89593   2.237  10.559   8.957 -0.2439 -0.0794 -0.1560
  650MOL0     C89594   2.244  10.576   9.098  0.1401  0.2754  0.4682
  650MOL0     C89595   2.311  10.480   9.180  0.5387  0.2000 -0.6670
  650MOL0     C89596   2.344  10.524   9.307  1.2092  0.7939 -0.5553
  650MOL0     C89597   2.303  10.645   9.365  0.4888 -0.0291 -0.1548
  650MOL0     O89598   2.328  10.673   9.498  0.3637 -0.6738 -0.4260
  650MOL0     C89599   2.419  10.588   9.561 -0.4304 -0.4542 -0.1485
  650MOL0     C89600   2.464  10.640   9.704  0.2675  0.4468 -0.2531
  650MOL0     C89601   2.526  10.530   9.791 -0.6799 -0.0735  0.0662
  650MOL0     C89602   2.554  10.563   9.944 -0.7954  0.0153  0.6060
  650MOL0     C89603   2.703  10.616   9.952  0.0131 -1.1149  0.2560
  650MOL0     C89604   2.719  10.703  10.087  0.2333  0.5156  0.7342
  650MOL0     C89605   2.868  10.700  10.135  0.1448 -0.0899 -0.3637
  650MOL0     C89606   2.900  10.759  10.269  0.1047 -0.1857 -0.5093
  650MOL0    Cl89607   2.814  10.698  10.414  0.5410  0.2284 -0.5226
  650MOL0     C89608   2.234  10.730   9.282 -0.6733  0.3281 -0.1474
  650MOL0     C89609   2.212  10.698   9.150 -0.9442 -0.2513 -0.0558
  650MOL0     O89610   2.466  10.532   8.932  0.5180 -0.0479 -0.4491
  650MOL0     C89611   2.202  10.546   8.686  0.4985  0.0023 -0.4289
  650MOL0     C89612   2.166  10.531   8.555  0.2921  0.2138  0.2877
  650MOL0     N89613   1.999  10.021   7.940  0.0262  0.0727  0.4337
  650MOL0     N89614   2.049   9.937   7.863  1.6934  0.2024 -0.2069
  650MOL0     C89615   2.746  10.038   7.070 -0.7407 -0.2372  0.0749
  650MOL0     C89616   2.797  10.130   6.989 -0.5552  0.2591 -0.3295
  650MOL0     C89617   2.906  10.329   6.612  0.0163  0.1295  0.9791
  650MOL0     C89618   3.015  10.399   6.661  0.6481 -0.7479 -0.3907
  650MOL0     C89619   3.047  10.528   6.616  0.0213 -0.0870 -0.6428
  650MOL0     C89620   2.990  10.581   6.501  0.0485 -0.1075  0.2495
  650MOL0     O89621   3.022  10.702   6.450 -0.3646  0.2528 -0.2819
  650MOL0     C89622   3.132  10.696   6.358 -0.2587  0.3366 -0.3194
  650MOL0     C89623   3.094  10.765   6.230  0.3433 -0.6687  1.3430
  650MOL0     C89624   3.086  10.916   6.226 -0.4329  0.0957 -0.0040
  650MOL0     C89625   2.978  10.969   6.331 -0.3557  0.8757  0.5124
  650MOL0     C89626   2.846  10.926   6.282 -0.1529  0.5008 -0.1312
  650MOL0     C89627   2.744  10.888   6.242 -0.0798 -0.1664  1.1198
  650MOL0     C89628   2.903  10.499   6.430 -0.4725 -0.3106 -0.5925
  650MOL0     C89629   2.852  10.375   6.488  0.0579 -0.2667 -0.2189
  650MOL0     C89630   2.748  10.304   6.405  0.1865  0.5756  0.4433
  650MOL0     H89631   2.961   9.938   6.769  0.0519  1.5094  1.2959
  650MOL0     H89632   2.855   9.748   6.923 -2.1693 -0.8100 -1.6849
  650MOL0     H89633   2.574   9.658   7.144  1.3735 -0.1486  0.7928
  650MOL0     H89634   2.646   9.667   6.983 -0.9705  1.8858 -1.8410
  650MOL0     H89635   2.514   9.872   6.927  1.8326 -1.2985  0.2278
  650MOL0     H89636   2.427   9.736   6.931  1.2146  0.2202 -1.6632
  650MOL0     H89637   2.401   9.975   7.108  1.3527 -0.4853 -1.6496
  650MOL0     H89638   2.277   9.874   7.062  0.2747 -0.5166 -2.0149
  650MOL0     H89639   2.332   9.702   7.233 -3.0101  1.3850 -1.6760
  650MOL0     H89640   2.475   9.803   7.280  0.5632 -1.2342 -2.7678
  650MOL0     H89641   2.168   9.869   7.309 -0.0023  1.6449 -0.2356
  650MOL0     H89642   2.300   9.986   7.341 -0.5520 -0.3289  3.0895
  650MOL0     H89643   2.269   9.729   7.481 -0.8590 -0.2841  0.6773
  650MOL0     H89644   2.404   9.843   7.502  0.3707  1.8386 -0.1979
  650MOL0     H89645   2.112   9.895   7.557 -0.5755 -0.0449  1.2384
  650MOL0     H89646   2.231  10.029   7.553 -2.4003 -0.4389  1.1086
  650MOL0     H89647   2.246   9.802   7.750  2.0555  0.1633 -0.7703
  650MOL0     H89648   2.351   9.941   7.732  1.0149 -0.3432 -1.1901
  650MOL0     H89649   2.258  10.189   7.852  1.4461 -1.8779  0.9271
  650MOL0     H89650   1.916  10.256   7.993 -0.0791 -3.9673  0.6820
  650MOL0     H89651   2.046  10.350   7.917 -0.9884 -2.4723 -2.2692
  650MOL0     H89652   2.021  10.292   8.206 -2.4883 -2.4368 -1.1211
  650MOL0     H89653   2.111  10.162   8.165 -0.5492  1.6898  0.5963
  650MOL0     H89654   2.289  10.284   8.061  0.8641 -0.3140  0.9217
  650MOL0     H89655   2.206  10.435   8.060 -0.6992 -0.1867  0.1383
  650MOL0     H89656   2.258  10.272   8.323 -1.6558  0.6175  2.2168
  650MOL0     H89657   2.388  10.370   8.246 -0.7365  1.3854 -2.2406
  650MOL0     H89658   2.467  10.436   8.437  1.3491  0.2760  1.4648
  650MOL0     H89659   2.572  10.386   8.749 -0.9014  3.4239  2.3890
  650MOL0     H89660   2.602  10.555   8.706  1.3978 -0.5088  0.8184
  650MOL0     H89661   2.635  10.433   8.582  0.9425  3.2872 -0.2062
  650MOL0     H89662   2.352  10.387   9.141  2.4018  0.1095  1.2942
  650MOL0     H89663   2.403  10.452   9.363 -0.7553  1.0198  1.9660
  650MOL0     H89664   2.362  10.496   9.576 -2.3915  0.6175 -0.7181
  650MOL0     H89665   2.515  10.577   9.508  0.5160 -2.0685  1.7768
  650MOL0     H89666   2.539  10.719   9.710  1.5794 -0.7580 -0.2792
  650MOL0     H89667   2.371  10.663   9.757 -0.0001 -3.2961  1.1770
  650MOL0     H89668   2.618  10.486   9.751 -2.3491 -4.2969  0.3234
  650MOL0     H89669   2.453  10.449   9.794 -1.0254  0.1856 -0.9970
  650MOL0     H89670   2.533  10.480  10.012 -4.1699 -0.0259 -0.2756
  650MOL0     H89671   2.484  10.640   9.978 -0.0100  0.4008  1.3675
  650MOL0     H89672   2.775  10.535   9.944  1.7651  0.4848 -0.8472
  650MOL0     H89673   2.718  10.679   9.864  1.5318 -2.7901 -0.7548
  650MOL0     H89674   2.655  10.670  10.169 -0.7080  2.3812  0.8224
  650MOL0     H89675   2.684  10.807  10.082  1.7836  1.1332  2.1199
  650MOL0     H89676   2.932  10.746  10.059  0.6486  2.4684  1.4950
  650MOL0     H89677   2.905  10.597  10.134 -0.3656 -0.3301  1.7127
  650MOL0     H89678   2.873  10.865  10.261  1.0415  0.2771  1.6805
  650MOL0     H89679   3.007  10.739  10.279 -0.3960 -3.3351 -0.3849
  650MOL0     H89680   2.189  10.825   9.305 -2.4630 -0.3908 -0.5609
  650MOL0     H89681   2.161  10.769   9.086 -2.2416  0.0630  1.2756
  650MOL0     H89682   2.135  10.600   8.754 -0.5103 -3.1568  1.2817
  650MOL0     H89683   2.063  10.542   8.523 -0.1648  1.1685  1.9546
  650MOL0     H89684   2.689  10.060   7.160 -2.4111  0.1843 -1.0592
  650MOL0     H89685   2.802  10.232   7.024 -0.4387  0.1551 -0.0436
  650MOL0     H89686   3.053  10.366   6.757  0.6205  1.5063  0.4525
  650MOL0     H89687   3.118  10.584   6.676  0.4696 -2.9173  1.7111
  650MOL0     H89688   3.217  10.756   6.394  1.5727 -0.7698 -2.5072
  650MOL0     H89689   3.153  10.589   6.349 -0.5012  0.3605 -1.1857
  650MOL0     H89690   2.999  10.726   6.193  0.0585  1.8230 -0.8012
  650MOL0     H89691   3.174  10.736   6.162 -0.2831  1.9953 -0.7100
  650MOL0     H89692   3.177  10.958   6.269 -0.2162 -1.1108  0.7300
  650MOL0     H89693   3.064  10.952   6.125 -0.0673  0.0205 -0.1102
  650MOL0     H89694   2.983  11.076   6.349 -0.3414  0.5613  2.6248
  650MOL0     H89695   3.009  10.933   6.429 -1.7003  2.6878  1.6624
  650MOL0     H89696   2.649  10.844   6.221 -0.3282  0.1124  1.6517
  650MOL0     H89697   2.867  10.532   6.333  2.9196  0.2604 -1.7989
  650MOL0     H89698   2.778  10.203   6.376 -1.0275  0.0064  1.0732
  650MOL0     H89699   2.648  10.298   6.449  0.8751 -2.1479  1.8391
  650MOL0     H89700   2.732  10.353   6.308 -1.7451 -2.3850 -0.8733
  651MOL0     O89701   7.846   6.900   8.566  0.4111  0.3440 -0.5621
  651MOL0     C89702   7.751   6.900   8.489  0.1302 -0.2966  0.4850
  651MOL0     O89703   7.676   6.789   8.455  0.2828 -0.3443 -0.0812
  651MOL0     C89704   7.710   6.660   8.479 -0.0399 -0.3189 -0.5511
  651MOL0     C89705   7.836   6.592   8.467  1.1116 -0.2575 -0.3751
  651MOL0     C89706   7.835   6.456   8.479  0.0746  0.1278 -0.1432
  651MOL0     C89707   7.714   6.388   8.513 -0.7761 -0.6587 -0.5650
  651MOL0     O89708   7.718   6.257   8.529 -0.3964 -0.4624 -0.6461
  651MOL0     C89709   7.773   6.208   8.654 -0.3466 -0.0299  0.4150
  651MOL0     C89710   7.761   6.055   8.669  0.2997  0.3279  0.8899
  651MOL0     C89711   7.840   5.979   8.568 -0.6618 -0.2403 -0.2008
  651MOL0     C89712   7.798   5.832   8.573 -0.1634  0.0470  0.7004
  651MOL0     C89713   7.869   5.750   8.462 -0.3216 -0.6553 -0.7955
  651MOL0     C89714   7.826   5.606   8.451  0.5371  0.0430  0.4569
  651MOL0     C89715   7.884   5.524   8.332 -0.2518 -0.0676  0.0582
  651MOL0     C89716   7.864   5.369   8.345  0.5012 -0.2477 -0.0855
  651MOL0     N89717   7.930   5.308   8.230  1.3355  0.6821  0.5426
  651MOL0     C89718   7.881   5.328   8.100  1.2862  0.1073  0.1622
  651MOL0     C89719   7.981   5.289   8.023 -0.5667 -0.0403 -0.0737
  651MOL0     C89720   7.988   5.297   7.871  0.2213 -0.6169 -0.0070
  651MOL0     C89721   7.909   5.184   7.810  0.8688 -0.3191 -0.3781
  651MOL0     C89722   7.935   5.189   7.665 -0.0783 -0.3431 -0.6097
  651MOL0     C89723   7.836   5.116   7.576  0.8902  0.8129  0.4061
  651MOL0     O89724   7.827   4.982   7.613 -0.1455  0.0072  0.0720
  651MOL0     C89725   7.732   4.897   7.569  0.1149 -1.0860 -0.2422
  651MOL0     C89726   7.699   4.786   7.647 -0.3927  0.1113  0.6075
  651MOL0     C89727   7.609   4.691   7.601  0.6205 -0.4712  0.0909
  651MOL0     C89728   7.540   4.599   7.703 -0.3273  0.7568  0.5943
  651MOL0     C89729   7.550   4.701   7.469 -0.0520  0.4196  0.0261
  651MOL0     C89730   7.450   4.601   7.423 -0.1804 -0.0251  0.3679
  651MOL0     O89731   7.373   4.635   7.313  0.5621 -0.6380 -0.4407
  651MOL0     C89732   7.321   4.537   7.234  1.0279  1.8764 -0.1034
  651MOL0     C89733   7.407   4.438   7.185  0.5040  0.5933  0.3334
  651MOL0     C89734   7.357   4.353   7.091  0.2401  0.0464  1.0961
  651MOL0     C89735   7.222   4.347   7.049 -0.4627  0.4202  0.3089
  651MOL0     O89736   7.192   4.242   6.970  0.6929  0.4835  0.5905
  651MOL0     C89737   7.054   4.209   6.978 -0.7459 -0.8659  0.0857
  651MOL0     C89738   7.032   4.062   6.927  0.1234  0.2376 -0.2978
  651MOL0     C89739   6.911   3.997   6.993 -0.6429  0.0220 -0.4650
  651MOL0     C89740   6.911   3.843   6.952  0.1452 -0.6851 -0.7154
  651MOL0     C89741   6.788   3.764   7.003  0.0578 -0.5060  0.6008
  651MOL0     C89742   6.778   3.628   6.939 -0.0457  0.3998 -0.0950
  651MOL0     C89743   6.760   3.606   6.779  0.5782  0.0270 -0.4599
  651MOL0     C89744   6.728   3.458   6.755 -0.0482 -0.1718 -0.5275
  651MOL0    Cl89745   6.849   3.358   6.839  0.1190  0.0656 -0.6918
  651MOL0     C89746   7.136   4.443   7.097  0.2366 -0.2870 -0.4627
  651MOL0     C89747   7.187   4.538   7.190  0.2976  0.4925 -0.2213
  651MOL0     O89748   7.447   4.486   7.475 -0.1263 -0.1955 -0.0260
  651MOL0     C89749   7.581   4.809   7.388 -0.3737 -0.7783  0.9973
  651MOL0     C89750   7.671   4.914   7.439 -0.1507  0.7509  0.4641
  651MOL0     N89751   8.076   5.231   8.101 -0.0760 -0.2104 -0.0125
  651MOL0     N89752   8.048   5.239   8.231  0.7331 -0.4411 -0.1858
  651MOL0     C89753   7.596   6.453   8.530 -0.5066  0.1301 -0.2134
  651MOL0     C89754   7.587   6.589   8.503 -0.0263 -0.5081  0.0664
  651MOL0     C89755   7.720   7.037   8.433  1.5105  0.3045  0.6433
  651MOL0     C89756   7.597   7.046   8.362  0.1029 -0.2221  0.3548
  651MOL0     C89757   7.555   7.164   8.299 -0.1991  0.2833  0.6654
  651MOL0     C89758   7.621   7.277   8.331 -0.1750 -0.4746  0.4245
  651MOL0     O89759   7.561   7.384   8.265  0.0634  0.7956  0.5053
  651MOL0     C89760   7.620   7.515   8.281 -0.1819 -0.1196  0.4170
  651MOL0     C89761   7.533   7.609   8.198 -0.0574 -1.0303 -0.2610
  651MOL0     C89762   7.398   7.627   8.277 -0.7591  1.2683  0.2102
  651MOL0     C89763   7.306   7.734   8.227 -0.0384 -0.4438  0.2453
  651MOL0     C89764   7.167   7.741   8.284  0.0934  0.4253  0.3607
  651MOL0     C89765   7.051   7.756   8.335 -0.4916  0.6876  0.0959
  651MOL0     C89766   7.735   7.277   8.408 -0.0166  0.3523 -0.4791
  651MOL0     C89767   7.791   7.156   8.454 -0.4338 -0.9618 -0.2475
  651MOL0     C89768   7.922   7.176   8.537  0.8214  0.3295 -0.1711
  651MOL0     H89769   7.929   6.645   8.447  0.6578  0.8845  0.4242
  651MOL0     H89770   7.929   6.403   8.463 -0.4212 -0.2482 -2.1689
  651MOL0     H89771   7.719   6.249   8.740  1.7307  2.9774  0.4674
  651MOL0     H89772   7.878   6.239   8.657 -1.4968  4.8449  3.4392
  651MOL0     H89773   7.791   6.023   8.769 -1.7222  2.9304  2.4547
  651MOL0     H89774   7.654   6.033   8.665  0.5696 -1.7596  2.9671
  651MOL0     H89775   7.823   6.013   8.465 -0.9852 -0.8302 -0.3534
  651MOL0     H89776   7.942   5.990   8.605 -1.2641 -0.7353  1.6846
  651MOL0     H89777   7.838   5.796   8.668 -0.2386 -0.2334  0.6269
  651MOL0     H89778   7.693   5.802   8.581  0.3622 -2.0193  0.3148
  651MOL0     H89779   7.975   5.759   8.488 -1.0603  0.3452  2.3078
  651MOL0     H89780   7.838   5.796   8.368  2.0616  3.8271  0.3487
  651MOL0     H89781   7.866   5.559   8.541  3.4605 -2.0879 -1.7991
  651MOL0     H89782   7.718   5.613   8.436  0.5911 -1.5885 -0.8923
  651MOL0     H89783   7.992   5.533   8.316 -0.2765 -1.2895 -1.0050
  651MOL0     H89784   7.832   5.564   8.244  1.2338  0.4406 -0.6056
  651MOL0     H89785   7.916   5.337   8.436 -1.1695 -1.5728  0.4609
  651MOL0     H89786   7.756   5.354   8.348  0.3400  0.9058  0.7678
  651MOL0     H89787   7.791   5.377   8.065  0.6267 -1.0047  0.2719
  651MOL0     H89788   8.091   5.292   7.834  0.9381 -1.8481  2.0058
  651MOL0     H89789   7.955   5.391   7.826  0.1428 -1.6487 -2.2211
  651MOL0     H89790   7.946   5.086   7.844  1.3273 -0.4259 -1.1483
  651MOL0     H89791   7.806   5.203   7.839  0.0271 -4.3871 -0.1115
  651MOL0     H89792   7.945   5.285   7.613 -0.0051 -1.2111 -2.2617
  651MOL0     H89793   8.032   5.140   7.651 -1.5094 -3.4894 -0.4182
  651MOL0     H89794   7.738   5.163   7.588  0.8849  0.5192  1.6668
  651MOL0     H89795   7.869   5.130   7.473  0.2229 -1.5679 -0.1863
  651MOL0     H89796   7.745   4.771   7.744  1.7943  1.5928 -0.1328
  651MOL0     H89797   7.432   4.590   7.689 -0.2617  3.0091 -2.4015
  651MOL0     H89798   7.557   4.643   7.802  0.5323  0.6814  0.4838
  651MOL0     H89799   7.593   4.505   7.692 -0.4360  0.9233 -1.7534
  651MOL0     H89800   7.512   4.438   7.214  0.8343 -0.9986 -0.7312
  651MOL0     H89801   7.426   4.273   7.064  0.7676 -0.8718  4.5808
  651MOL0     H89802   7.026   4.208   7.084  0.0490  0.3364  0.3310
  651MOL0     H89803   6.993   4.280   6.920  1.6837 -0.8186 -2.6326
  651MOL0     H89804   7.012   4.066   6.820  2.0245  1.3026 -0.6761
  651MOL0     H89805   7.114   3.993   6.950  0.0505  1.1151  3.1538
  651MOL0     H89806   6.824   4.060   6.970  0.0835  2.3215  2.4949
  651MOL0     H89807   6.922   3.999   7.102 -0.8203  0.5572 -0.4534
  651MOL0     H89808   7.003   3.798   6.992 -1.6621 -3.3411  0.7734
  651MOL0     H89809   6.912   3.834   6.843 -0.5360 -2.6924 -0.5865
  651MOL0     H89810   6.786   3.767   7.112  0.2833  1.3060  0.5752
  651MOL0     H89811   6.699   3.824   6.987 -1.2293 -2.4682 -0.0206
  651MOL0     H89812   6.686   3.584   6.978  1.3210 -1.3827  1.2636
  651MOL0     H89813   6.865   3.573   6.976  1.1089  0.2636 -2.7733
  651MOL0     H89814   6.856   3.619   6.727  1.6354 -3.9328  0.1850
  651MOL0     H89815   6.682   3.675   6.746 -0.8302 -1.6535 -0.7894
  651MOL0     H89816   6.732   3.451   6.646 -2.2888  1.1965 -0.7530
  651MOL0     H89817   6.627   3.434   6.791 -0.5556 -0.0181 -1.8313
  651MOL0     H89818   7.032   4.446   7.065  0.1728  1.5639 -0.1794
  651MOL0     H89819   7.126   4.614   7.236  0.4399 -0.6927  2.0464
  651MOL0     H89820   7.531   4.812   7.292  0.6964 -2.3443  0.3613
  651MOL0     H89821   7.698   4.999   7.377 -0.7155  0.1617 -0.6138
  651MOL0     H89822   7.508   6.398   8.560 -1.5731  2.0211  0.3109
  651MOL0     H89823   7.488   6.632   8.515 -1.2139 -2.8712 -0.6262
  651MOL0     H89824   7.532   6.960   8.347  0.0908  0.1656 -2.2765
  651MOL0     H89825   7.478   7.160   8.223 -0.0073 -0.0695  0.4830
  651MOL0     H89826   7.617   7.555   8.383  0.1605  0.6296  0.1384
  651MOL0     H89827   7.723   7.517   8.244 -0.3992  3.4770 -0.3590
  651MOL0     H89828   7.526   7.584   8.091  1.6891 -2.4701 -0.0906
  651MOL0     H89829   7.569   7.712   8.193 -2.2658 -0.0965  1.2514
  651MOL0     H89830   7.338   7.536   8.274 -0.8623  1.3357  0.2257
  651MOL0     H89831   7.412   7.644   8.384  3.1306  3.2398 -0.4369
  651MOL0     H89832   7.296   7.725   8.119 -0.7915 -2.0625  0.4096
  651MOL0     H89833   7.340   7.838   8.233 -0.9604 -0.0478 -1.0521
  651MOL0     H89834   6.953   7.772   8.376 -0.8407 -1.2821  0.1334
  651MOL0     H89835   7.798   7.365   8.419 -0.0991  0.4160 -0.5154
  651MOL0     H89836   7.908   7.161   8.645 -2.3968 -2.9666 -0.8618
  651MOL0     H89837   7.994   7.094   8.523  2.8584  1.8019  1.1052
  651MOL0     H89838   7.968   7.273   8.517 -0.2249  0.0110 -5.3170
  652MOL0     O89839   1.316   6.511   1.484 -0.5464  0.4365 -0.5819
  652MOL0     C89840   1.352   6.401   1.437  0.1702 -0.4346 -0.2770
  652MOL0     O89841   1.333   6.280   1.491  0.4098  0.8534 -0.4975
  652MOL0     C89842   1.289   6.286   1.623  1.0353  0.3687 -0.0306
  652MOL0     C89843   1.173   6.215   1.667  0.5626 -0.5867 -0.9466
  652MOL0     C89844   1.120   6.226   1.806  0.2611 -0.3971  0.3779
  652MOL0     C89845   1.194   6.301   1.900 -0.5028 -0.3091 -0.3825
  652MOL0     O89846   1.147   6.303   2.033 -0.0344 -1.0941  0.2026
  652MOL0     C89847   1.213   6.392   2.119 -0.2685 -0.3065 -0.1943
  652MOL0     C89848   1.146   6.397   2.262 -0.1803  0.1822 -0.6294
  652MOL0     C89849   1.241   6.434   2.383 -0.6195  0.2445  1.6544
  652MOL0     C89850   1.334   6.553   2.370  0.1276  0.6280  0.5257
  652MOL0     C89851   1.436   6.550   2.479 -0.7239  0.2030 -0.1421
  652MOL0     C89852   1.525   6.672   2.455 -0.3364 -1.1124  0.0050
  652MOL0     C89853   1.637   6.686   2.546 -0.1634  0.3958  0.0012
  652MOL0     C89854   1.597   6.695   2.691  0.5552 -0.2126 -0.7902
  652MOL0     N89855   1.478   6.782   2.725  0.3616 -0.2856  0.3133
  652MOL0     C89856   1.510   6.911   2.740  0.7140 -0.6331  0.2280
  652MOL0     C89857   1.409   6.956   2.820  0.0416 -0.0647  0.0455
  652MOL0     C89858   1.376   7.100   2.863  0.0474 -0.1541  0.1961
  652MOL0     C89859   1.479   7.142   2.968 -0.2120 -0.1573  0.0610
  652MOL0     C89860   1.462   7.298   3.014  0.3674  0.6831  0.2653
  652MOL0     C89861   1.571   7.327   3.114  1.3746  1.1677 -0.6855
  652MOL0     O89862   1.569   7.461   3.150 -0.2230  0.0505 -0.4549
  652MOL0     C89863   1.618   7.499   3.274  0.3028 -0.5532  0.6363
  652MOL0     C89864   1.705   7.418   3.340 -0.8102  0.5820  0.3744
  652MOL0     C89865   1.755   7.465   3.466 -0.0610 -0.2967  0.4821
  652MOL0     C89866   1.862   7.383   3.534 -0.0436  0.3931 -0.8111
  652MOL0     C89867   1.727   7.600   3.509  0.3112 -0.1406  1.1866
  652MOL0     C89868   1.780   7.666   3.631  0.2628  0.6501  0.6741
  652MOL0     O89869   1.805   7.800   3.633  0.0823  0.6036  0.3193
  652MOL0     C89870   1.861   7.880   3.735 -0.8037 -0.0118 -0.1533
  652MOL0     C89871   1.909   8.014   3.708  0.0120 -1.3665 -0.3933
  652MOL0     C89872   1.956   8.099   3.811 -0.4802 -0.0273 -0.3712
  652MOL0     C89873   1.959   8.055   3.946 -0.6403 -0.3960 -1.2890
  652MOL0     O89874   1.983   8.129   4.055  0.1728  0.2017 -0.2029
  652MOL0     C89875   2.066   8.247   4.041  0.5834 -0.6311 -0.8326
  652MOL0     C89876   2.050   8.323   4.170 -0.1102  0.7599  0.7598
  652MOL0     C89877   1.926   8.402   4.173  0.7995 -0.5310  0.2192
  652MOL0     C89878   1.898   8.472   4.305 -0.3598 -0.5039 -0.2591
  652MOL0     C89879   1.799   8.589   4.281  0.6816  0.2817 -0.7171
  652MOL0     C89880   1.665   8.527   4.226  0.4933 -0.0682  0.2128
  652MOL0     C89881   1.553   8.618   4.281  0.5203  0.3097  0.7697
  652MOL0     C89882   1.415   8.611   4.213 -0.0484  0.2625 -0.0137
  652MOL0    Cl89883   1.355   8.436   4.192 -0.5842 -0.1648  1.0554
  652MOL0     C89884   1.929   7.925   3.970 -0.9088  0.3815  1.1500
  652MOL0     C89885   1.884   7.833   3.867  0.0321 -0.3363 -0.4264
  652MOL0     O89886   1.779   7.597   3.730  0.1254 -0.1809  0.4362
  652MOL0     C89887   1.635   7.675   3.436  0.2249  0.7158  0.1268
  652MOL0     C89888   1.574   7.625   3.317 -0.3435  0.5973  0.2314
  652MOL0     N89889   1.321   6.850   2.839  0.2490  0.3523  0.2917
  652MOL0     N89890   1.366   6.747   2.783 -0.6090  0.2195 -0.6193
  652MOL0     C89891   1.317   6.356   1.857 -0.1770  0.2988 -0.6886
  652MOL0     C89892   1.355   6.350   1.725  0.1082  0.2072  0.5739
  652MOL0     C89893   1.421   6.391   1.300  0.0945  0.4011 -0.6885
  652MOL0     C89894   1.486   6.275   1.260 -0.0322 -0.5157 -0.2481
  652MOL0     C89895   1.543   6.253   1.130  0.0737  0.3867  0.7302
  652MOL0     C89896   1.542   6.351   1.035 -0.1689  0.8094  0.6275
  652MOL0     O89897   1.611   6.342   0.913  0.9505 -0.2766  1.2702
  652MOL0     C89898   1.723   6.260   0.906 -0.3539  0.9159  0.2275
  652MOL0     C89899   1.812   6.297   0.779  0.3904  1.0766 -0.9781
  652MOL0     C89900   1.733   6.274   0.645 -1.1935 -0.2250 -0.0014
  652MOL0     C89901   1.811   6.327   0.526  0.0492  0.2907  0.0057
  652MOL0     C89902   1.910   6.224   0.471  0.0706 -0.0872  1.0930
  652MOL0     C89903   1.992   6.146   0.421  0.1123 -0.6817  0.6523
  652MOL0     C89904   1.459   6.458   1.059 -0.4961  0.5938 -1.2050
  652MOL0     C89905   1.398   6.480   1.191  0.6529  0.3334 -0.0430
  652MOL0     C89906   1.304   6.602   1.201  0.3148 -0.0129  0.0483
  652MOL0     H89907   1.103   6.158   1.606 -0.5448  0.7663 -0.9945
  652MOL0     H89908   1.022   6.185   1.831 -0.6466  2.0250  1.1115
  652MOL0     H89909   1.220   6.494   2.080 -0.1778 -0.2856 -0.1231
  652MOL0     H89910   1.315   6.354   2.128  0.5615  1.5864 -1.0964
  652MOL0     H89911   1.057   6.460   2.266 -1.0155 -1.0527  1.4728
  652MOL0     H89912   1.097   6.300   2.276 -0.2192  0.2471 -0.3189
  652MOL0     H89913   1.185   6.451   2.475 -0.4598  3.3421  1.2684
  652MOL0     H89914   1.311   6.350   2.393  3.9615  3.3067 -1.1414
  652MOL0     H89915   1.380   6.553   2.271 -0.4614  0.4456  0.2429
  652MOL0     H89916   1.276   6.646   2.372  0.9187  1.2183 -1.4393
  652MOL0     H89917   1.498   6.461   2.470 -0.9918 -0.1467  1.2650
  652MOL0     H89918   1.400   6.553   2.582  1.5605  1.1258  0.6838
  652MOL0     H89919   1.561   6.662   2.352 -1.3890  1.5924 -0.7233
  652MOL0     H89920   1.457   6.758   2.452  1.2619  0.1752 -1.2096
  652MOL0     H89921   1.705   6.768   2.525  1.4235 -0.8876 -0.0752
  652MOL0     H89922   1.703   6.599   2.540  2.8888  2.4350  1.4382
  652MOL0     H89923   1.573   6.591   2.718  0.3702 -0.4038 -1.6534
  652MOL0     H89924   1.692   6.725   2.735 -0.3895  1.1603  0.4178
  652MOL0     H89925   1.602   6.960   2.709  0.3570 -2.1210 -3.8089
  652MOL0     H89926   1.274   7.097   2.903 -1.3210 -1.8408 -3.0628
  652MOL0     H89927   1.378   7.171   2.780  0.3041 -0.5671 -0.1546
  652MOL0     H89928   1.473   7.069   3.050 -0.3600  0.0579  0.2434
  652MOL0     H89929   1.584   7.116   2.949 -0.1849 -0.6868  0.8501
  652MOL0     H89930   1.489   7.362   2.930  3.7536 -0.3894  0.3927
  652MOL0     H89931   1.361   7.326   3.046 -0.2377 -2.1452  1.1399
  652MOL0     H89932   1.557   7.264   3.203 -1.5878  1.0792 -1.0909
  652MOL0     H89933   1.670   7.300   3.077  1.5041 -0.9929  0.9975
  652MOL0     H89934   1.762   7.330   3.311 -2.0627 -2.5505  5.9012
  652MOL0     H89935   1.905   7.315   3.460  0.0052 -0.6203  0.1167
  652MOL0     H89936   1.833   7.332   3.627 -1.9042  1.9898 -0.4563
  652MOL0     H89937   1.937   7.449   3.578 -0.8604 -0.3377  1.8703
  652MOL0     H89938   1.892   8.052   3.607 -3.3015  0.7311  0.7712
  652MOL0     H89939   1.986   8.203   3.797  1.7213 -0.6404 -0.5738
  652MOL0     H89940   2.171   8.226   4.017  0.2035 -1.1835 -2.1127
  652MOL0     H89941   2.039   8.315   3.959 -1.6429 -1.0872 -0.5363
  652MOL0     H89942   2.050   8.244   4.245 -0.6484 -1.0543 -1.0691
  652MOL0     H89943   2.133   8.394   4.183 -0.2346  0.7250  1.8036
  652MOL0     H89944   1.846   8.334   4.142  1.5351 -1.6135  0.6355
  652MOL0     H89945   1.934   8.485   4.102  0.4788  0.9710  1.8530
  652MOL0     H89946   1.983   8.509   4.363 -0.1574 -3.3720  1.4810
  652MOL0     H89947   1.860   8.401   4.378  2.9908 -1.0048  1.1790
  652MOL0     H89948   1.779   8.624   4.383 -3.2108 -2.3457 -0.3817
  652MOL0     H89949   1.841   8.665   4.214 -1.1454  0.7143 -1.4282
  652MOL0     H89950   1.641   8.431   4.272 -3.1397  0.9441  0.7437
  652MOL0     H89951   1.650   8.531   4.118  0.2593  0.9846  0.2743
  652MOL0     H89952   1.590   8.719   4.262  1.1554 -0.5231 -3.3415
  652MOL0     H89953   1.533   8.605   4.388  2.2197 -4.5840  0.7494
  652MOL0     H89954   1.423   8.661   4.116  1.4240 -0.4223 -0.2781
  652MOL0     H89955   1.341   8.657   4.279 -3.3604 -1.9499 -1.8896
  652MOL0     H89956   1.928   7.887   4.071 -1.1464  1.0671  1.4108
  652MOL0     H89957   1.857   7.731   3.890 -0.7623 -0.1707 -0.5796
  652MOL0     H89958   1.601   7.768   3.479 -0.2860  1.8538 -2.5320
  652MOL0     H89959   1.496   7.675   3.261 -1.6117  1.1727  2.3944
  652MOL0     H89960   1.384   6.399   1.931  0.7145 -0.8736 -0.7907
  652MOL0     H89961   1.450   6.388   1.692 -1.3913 -0.1708 -5.2499
  652MOL0     H89962   1.499   6.187   1.322  0.2757 -0.1322  0.2436
  652MOL0     H89963   1.585   6.158   1.100 -0.0047  0.0335  1.7085
  652MOL0     H89964   1.795   6.269   0.988 -0.1770  0.7143  0.0972
  652MOL0     H89965   1.696   6.154   0.901 -1.0284  1.0305  1.1159
  652MOL0     H89966   1.902   6.235   0.778 -0.7513 -0.6636 -1.6391
  652MOL0     H89967   1.831   6.404   0.781  1.1217  0.9479 -0.7527
  652MOL0     H89968   1.734   6.165   0.630 -0.1754 -0.4069  1.2413
  652MOL0     H89969   1.627   6.301   0.650 -1.8197 -2.6038  0.9458
  652MOL0     H89970   1.862   6.419   0.555  1.2086  0.3434 -1.9982
  652MOL0     H89971   1.746   6.357   0.443  1.0726 -3.3352 -2.3887
  652MOL0     H89972   2.053   6.071   0.375  1.2445  0.3718  0.3788
  652MOL0     H89973   1.432   6.532   0.984 -2.5500  0.8482 -0.2997
  652MOL0     H89974   1.333   6.664   1.115  1.6936  0.0539  0.5478
  652MOL0     H89975   1.201   6.564   1.191 -0.5946  2.7315 -5.8868
  652MOL0     H89976   1.312   6.673   1.284  0.6682  1.9309 -1.5645
  653MOL0     O89977   8.689  10.130   1.075 -0.9568 -0.0618 -0.3516
  653MOL0     C89978   8.630  10.143   1.178  0.0950 -0.0655 -0.2401
  653MOL0     O89979   8.684  10.135   1.305  0.7945 -0.0347  0.7859
  653MOL0     C89980   8.815  10.178   1.334  0.3818  0.4540  0.0783
  653MOL0     C89981   8.857  10.159   1.468 -0.5052  0.9879  0.2878
  653MOL0     C89982   8.984  10.193   1.508  0.1735  0.2688 -0.0040
  653MOL0     C89983   9.068  10.258   1.420  0.6479  0.0619  0.3448
  653MOL0     O89984   9.191  10.314   1.441  0.4404  0.5532  0.2551
  653MOL0     C89985   9.283  10.277   1.545  1.3116  0.7319 -1.4748
  653MOL0     C89986   9.269  10.386   1.646  0.2959 -0.1632 -0.3995
  653MOL0     C89987   9.362  10.376   1.765  0.2519 -0.4194  0.0662
  653MOL0     C89988   9.328  10.253   1.849 -0.1386  0.0651 -0.7484
  653MOL0     C89989   9.360  10.275   1.996  0.4835 -0.4521 -0.0704
  653MOL0     C89990   9.313  10.157   2.085  0.9673 -0.2743  0.5702
  653MOL0     C89991   9.331  10.192   2.235  0.9344  0.2844 -0.0122
  653MOL0     C89992   9.297  10.068   2.329 -0.8090 -0.5898  0.6109
  653MOL0     N89993   9.315  10.110   2.475 -0.7041  0.9333 -0.7918
  653MOL0     C89994   9.243  10.211   2.537 -0.4004 -0.1464  0.2351
  653MOL0     C89995   9.275  10.184   2.665  0.4692 -0.4022  0.0060
  653MOL0     C89996   9.203  10.265   2.772 -0.3847 -0.1026 -0.2926
  653MOL0     C89997   9.209  10.207   2.913  0.4662 -0.4613  0.3699
  653MOL0     C89998   9.137  10.067   2.913  0.1610  0.7059 -0.8412
  653MOL0     C89999   8.988  10.078   2.900 -0.3564 -0.1711  0.5756
  653MOL0     O90000   8.926  10.161   2.996  0.0681  0.3619  0.7289
  653MOL0     C90001   8.884  10.103   3.117  0.6994  1.2477  0.0506
  653MOL0     C90002   8.776  10.015   3.120 -0.5117  0.3069  0.0032
  653MOL0     C90003   8.745   9.942   3.235 -0.1335  0.4217 -1.1339
  653MOL0     C90004   8.609   9.867   3.246 -0.0654  0.2916  0.8188
  653MOL0     C90005   8.832   9.957   3.353  0.3409 -0.3845  0.2649
  653MOL0     C90006   8.796   9.895   3.483 -0.1832  0.9453  1.4469
  653MOL0     O90007   8.768   9.759   3.474  0.7742 -0.1876 -0.5569
  653MOL0     C90008   8.713   9.699   3.585  0.4632  0.3659  0.1037
  653MOL0     C90009   8.587   9.731   3.623  0.4236  0.0354 -0.4120
  653MOL0     C90010   8.524   9.669   3.736  0.1692 -0.6484  0.4619
  653MOL0     C90011   8.600   9.582   3.813  0.5487  0.0402  0.4247
  653MOL0     O90012   8.563   9.530   3.928 -0.2870 -0.3235 -0.2732
  653MOL0     C90013   8.427   9.504   3.949  0.1893  0.6901  0.2951
  653MOL0     C90014   8.407   9.376   4.031 -0.5457  0.5067 -0.5919
  653MOL0     C90015   8.267   9.364   4.091  0.3587 -0.6810 -0.8232
  653MOL0     C90016   8.261   9.245   4.183 -0.3660 -0.7954 -1.0146
  653MOL0     C90017   8.119   9.216   4.238 -0.3960  0.2935 -0.9013
  653MOL0     C90018   8.059   9.315   4.343 -0.1202  0.6416  0.6676
  653MOL0     C90019   7.928   9.258   4.409 -0.7767 -0.4172  0.5049
  653MOL0     C90020   7.888   9.338   4.533 -0.3650 -0.3241  0.3259
  653MOL0    Cl90021   7.749   9.265   4.614 -0.1158  0.5674  0.1345
  653MOL0     C90022   8.737   9.548   3.767 -0.5466  1.1264  0.7679
  653MOL0     C90023   8.790   9.603   3.651  0.0851 -0.4656 -0.3462
  653MOL0     O90024   8.820   9.953   3.585  0.1627 -0.5480  0.4428
  653MOL0     C90025   8.938  10.048   3.337 -0.5066  0.2024 -0.6043
  653MOL0     C90026   8.962  10.118   3.226 -0.7710 -0.1479 -0.3832
  653MOL0     N90027   9.352  10.074   2.677  0.6662  0.9307 -0.1024
  653MOL0     N90028   9.386  10.033   2.563 -0.4401 -0.2662  0.1210
  653MOL0     C90029   9.029  10.278   1.288  0.6274 -0.7804 -1.0233
  653MOL0     C90030   8.904  10.239   1.240  0.5294  0.8938  0.0533
  653MOL0     C90031   8.487  10.140   1.177  0.1560 -0.4113  0.3741
  653MOL0     C90032   8.410  10.024   1.126 -0.4953  0.4433 -0.8671
  653MOL0     C90033   8.272  10.027   1.117  0.2511  0.2717  0.2666
  653MOL0     C90034   8.199  10.141   1.154  0.0558 -0.6485  0.0944
  653MOL0     O90035   8.062  10.158   1.153 -0.3352 -0.5025  0.3666
  653MOL0     C90036   7.990  10.036   1.139 -0.4807 -1.0490 -0.2468
  653MOL0     C90037   7.842  10.058   1.144 -0.3720 -0.9518  0.5455
  653MOL0     C90038   7.754   9.931   1.115 -0.8306 -1.0399  0.2380
  653MOL0     C90039   7.790   9.794   1.194 -0.0666  0.5085  0.1229
  653MOL0     C90040   7.759   9.671   1.116  0.0170 -0.1364 -0.4871
  653MOL0     C90041   7.741   9.567   1.057  0.3197  0.3889 -0.4612
  653MOL0     C90042   8.270  10.246   1.209 -0.2260  0.2608  0.7160
  653MOL0     C90043   8.410  10.249   1.215  0.5500 -0.2921 -0.9384
  653MOL0     C90044   8.472  10.379   1.274 -0.2235  0.4002  0.2900
  653MOL0     H90045   8.796  10.115   1.546  0.8050  1.1941  1.4592
  653MOL0     H90046   9.021  10.175   1.609  1.1111  0.2050 -0.3463
  653MOL0     H90047   9.385  10.273   1.505  0.7325 -0.8782 -2.9403
  653MOL0     H90048   9.253  10.178   1.580  1.5921  1.1745  0.1080
  653MOL0     H90049   9.297  10.475   1.589 -4.1800  2.3560  0.8705
  653MOL0     H90050   9.167  10.391   1.686  1.1152 -0.2265  1.7947
  653MOL0     H90051   9.465  10.363   1.729  0.8383  2.7575  0.3301
  653MOL0     H90052   9.357  10.469   1.821  1.6067  1.1191 -2.2185
  653MOL0     H90053   9.233  10.205   1.827 -0.5476  0.7125 -0.4282
  653MOL0     H90054   9.398  10.175   1.819  0.5087  0.4116 -0.1780
  653MOL0     H90055   9.314  10.369   2.028 -2.3541 -1.2651 -1.4794
  653MOL0     H90056   9.468  10.290   2.009  0.5626 -1.9733  1.3371
  653MOL0     H90057   9.207  10.135   2.069  0.4638  2.6371 -0.7788
  653MOL0     H90058   9.378  10.071   2.069  0.2072 -1.3543  2.8472
  653MOL0     H90059   9.279  10.282   2.267 -0.5299 -0.4859 -0.1189
  653MOL0     H90060   9.434  10.221   2.257  1.1294 -0.0749 -0.4226
  653MOL0     H90061   9.193  10.035   2.323 -0.5731 -1.1296 -2.4651
  653MOL0     H90062   9.361   9.987   2.291 -1.8470 -1.0546 -0.2080
  653MOL0     H90063   9.177  10.280   2.485 -1.6037 -3.2173 -2.7228
  653MOL0     H90064   9.101  10.269   2.734 -0.2506  0.5046 -0.6016
  653MOL0     H90065   9.239  10.368   2.775  0.3840 -0.2784 -1.9994
  653MOL0     H90066   9.307  10.191   2.960  0.6579 -0.1896  0.0728
  653MOL0     H90067   9.157  10.274   2.983  0.5670 -0.0748  0.0806
  653MOL0     H90068   9.187  10.005   2.837  3.7801 -0.0006  1.8293
  653MOL0     H90069   9.151  10.029   3.014  1.4338 -0.9789 -1.5983
  653MOL0     H90070   8.961  10.113   2.800 -0.4613 -1.5983  0.0820
  653MOL0     H90071   8.951   9.976   2.909  0.0539 -0.5429 -1.3742
  653MOL0     H90072   8.726  10.002   3.025 -0.8839  1.4274  0.0296
  653MOL0     H90073   8.577   9.872   3.351 -0.9681 -1.3022  0.6489
  653MOL0     H90074   8.609   9.767   3.203  2.4656 -0.4255  2.2900
  653MOL0     H90075   8.530   9.916   3.188 -1.8776 -1.4503  1.6838
  653MOL0     H90076   8.536   9.804   3.561 -2.3757 -0.3190  1.2997
  653MOL0     H90077   8.430   9.704   3.777  1.0498  1.2902  0.9242
  653MOL0     H90078   8.374   9.591   3.989 -1.7694 -0.0656 -0.5332
  653MOL0     H90079   8.378   9.483   3.854  1.1123 -0.6983  0.0823
  653MOL0     H90080   8.417   9.281   3.977 -0.1077 -0.4064  1.0483
  653MOL0     H90081   8.484   9.375   4.108 -1.0886 -1.3728 -0.0193
  653MOL0     H90082   8.189   9.358   4.014 -0.9104 -1.2578  0.4595
  653MOL0     H90083   8.250   9.450   4.156  1.6588 -0.3106 -0.9643
  653MOL0     H90084   8.335   9.254   4.263 -2.6471 -0.8991  1.2290
  653MOL0     H90085   8.295   9.157   4.127  1.4297 -1.0606  0.3907
  653MOL0     H90086   8.051   9.204   4.153 -0.3074  0.4705 -0.9999
  653MOL0     H90087   8.153   9.119   4.273  1.1813  1.6597  1.6697
  653MOL0     H90088   8.042   9.416   4.303 -2.5284  1.0963  2.5950
  653MOL0     H90089   8.135   9.326   4.421  0.4224 -1.1212  0.4353
  653MOL0     H90090   7.935   9.152   4.436 -3.0950 -0.9098 -0.5706
  653MOL0     H90091   7.848   9.266   4.335  0.3770  1.8853 -0.6092
  653MOL0     H90092   7.848   9.439   4.515 -0.5062  0.7880  5.3599
  653MOL0     H90093   7.971   9.350   4.603  1.6029 -0.4140 -1.8937
  653MOL0     H90094   8.810   9.483   3.814 -0.7960  1.6307  1.9048
  653MOL0     H90095   8.885   9.582   3.604  0.5849  1.1215 -0.1092
  653MOL0     H90096   9.000  10.071   3.423 -1.2564 -0.0131  0.0057
  653MOL0     H90097   9.037  10.196   3.216 -2.6873  2.0156  1.2891
  653MOL0     H90098   9.102  10.312   1.215  3.2515  1.3192  2.2751
  653MOL0     H90099   8.877  10.238   1.135  1.5011  2.6100 -0.2535
  653MOL0     H90100   8.460   9.932   1.098  0.6876  1.0331 -0.7551
  653MOL0     H90101   8.226   9.933   1.090  0.0386  1.1243 -2.7469
  653MOL0     H90102   8.004   9.995   1.039 -1.9702  1.0927 -1.4188
  653MOL0     H90103   8.016   9.964   1.216  1.6502  0.3052  0.4148
  653MOL0     H90104   7.816  10.141   1.078  1.2438  0.0226  1.0711
  653MOL0     H90105   7.817  10.094   1.244  1.7925 -2.6569  1.7873
  653MOL0     H90106   7.649   9.959   1.131 -0.5942  1.9371 -2.4766
  653MOL0     H90107   7.770   9.917   1.007 -1.3613  2.9252 -0.4942
  653MOL0     H90108   7.737   9.800   1.289  1.0651  6.9646  0.8347
  653MOL0     H90109   7.896   9.783   1.220 -0.0252 -1.5607 -0.6870
  653MOL0     H90110   7.731   9.474   1.004  2.2110  1.0410 -2.1048
  653MOL0     H90111   8.216  10.339   1.224 -3.3847 -1.3981  0.4776
  653MOL0     H90112   8.533  10.410   1.188  1.6260 -1.1429  0.9649
  653MOL0     H90113   8.403  10.458   1.304 -0.0815  0.4065  0.6026
  653MOL0     H90114   8.539  10.340   1.351  0.7400 -1.9643 -1.6233
  654MOL0     O90115   5.394   9.017   5.157 -0.0538 -0.0133  0.8614
  654MOL0     C90116   5.394   9.005   5.033 -0.3248 -0.1109 -0.6515
  654MOL0     O90117   5.491   8.932   4.969  0.0881 -0.1897 -0.4135
  654MOL0     C90118   5.622   8.941   5.015  0.0872  0.3814  0.1866
  654MOL0     C90119   5.664   8.834   5.094 -0.0525  1.1067 -0.6253
  654MOL0     C90120   5.797   8.843   5.153 -0.0512  0.2183  0.5018
  654MOL0     C90121   5.885   8.955   5.135 -0.1387  0.3183  0.0008
  654MOL0     O90122   6.004   8.966   5.199 -0.4315 -0.6669 -0.3812
  654MOL0     C90123   6.051   9.100   5.238  0.0950 -0.4058 -0.6583
  654MOL0     C90124   6.182   9.086   5.320  0.1354 -0.0733 -0.0194
  654MOL0     C90125   6.241   9.211   5.385 -0.0480  0.4783 -0.2576
  654MOL0     C90126   6.365   9.176   5.464 -0.5954  0.4492 -0.1458
  654MOL0     C90127   6.431   9.286   5.545 -0.4180 -0.1147 -0.7973
  654MOL0     C90128   6.514   9.225   5.659 -0.1120  0.0868  0.3990
  654MOL0     C90129   6.552   9.344   5.764  0.4503  0.6079 -0.8530
  654MOL0     C90130   6.672   9.417   5.723 -0.2485 -0.1892 -0.3681
  654MOL0     N90131   6.698   9.508   5.832 -0.3877 -0.2384  0.3339
  654MOL0     C90132   6.784   9.472   5.933  0.1420 -0.6718  0.5673
  654MOL0     C90133   6.776   9.569   6.021 -1.1591 -0.4221  1.2200
  654MOL0     C90134   6.869   9.570   6.135  0.5901 -0.2188 -0.3598
  654MOL0     C90135   6.821   9.495   6.253  0.1629  0.0406  0.7501
  654MOL0     C90136   6.682   9.541   6.297  0.9546 -1.1637 -0.2247
  654MOL0     C90137   6.673   9.525   6.444  0.1993  0.1621 -0.0588
  654MOL0     O90138   6.538   9.534   6.497  0.5201 -0.4835 -0.2822
  654MOL0     C90139   6.501   9.659   6.511  0.2296 -0.2155 -0.5800
  654MOL0     C90140   6.533   9.732   6.633  0.3766  0.0208 -0.0210
  654MOL0     C90141   6.492   9.856   6.647  0.8735  0.7312  0.2598
  654MOL0     C90142   6.529   9.923   6.779  0.4294 -0.4150 -0.1921
  654MOL0     C90143   6.413   9.925   6.549 -0.4955  0.5166  1.0824
  654MOL0     C90144   6.358  10.069   6.567 -0.1361 -0.2872 -0.5408
  654MOL0     O90145   6.374  10.131   6.686 -0.5914  1.0013  0.6733
  654MOL0     C90146   6.340  10.264   6.718 -0.7529 -0.5781  1.0787
  654MOL0     C90147   6.223  10.330   6.671  0.3386 -0.1604  0.3549
  654MOL0     C90148   6.169  10.441   6.741 -0.0316 -0.3082  0.9501
  654MOL0     C90149   6.228  10.496   6.854 -0.4525 -0.2466  0.2718
  654MOL0     O90150   6.181  10.607   6.912  0.2745  0.7757 -0.2324
  654MOL0     C90151   6.046  10.610   6.955  0.6331 -0.3265  0.4526
  654MOL0     C90152   6.027  10.741   7.012 -0.4067  0.3689 -0.1516
  654MOL0     C90153   5.875  10.744   7.065 -1.4184 -0.7616  0.1264
  654MOL0     C90154   5.865  10.826   7.188  0.6599 -0.2995 -0.5882
  654MOL0     C90155   5.722  10.874   7.209 -0.6211  0.6085 -0.6963
  654MOL0     C90156   5.714  10.975   7.329  0.2205 -0.3197 -0.0336
  654MOL0     C90157   5.585  11.053   7.343  0.5391  0.7505  0.6181
  654MOL0     C90158   5.588  11.147   7.467  0.4480  0.0205 -0.8601
  654MOL0    Cl90159   5.444  11.259   7.480 -0.4873 -1.0790 -0.0441
  654MOL0     C90160   6.353  10.431   6.899 -0.4540  0.8641  0.3344
  654MOL0     C90161   6.403  10.314   6.831 -0.8655  0.5637 -0.1696
  654MOL0     O90162   6.302  10.118   6.470  0.5567  0.2201 -0.1732
  654MOL0     C90163   6.378   9.850   6.426  1.1225 -0.3110 -0.1202
  654MOL0     C90164   6.429   9.722   6.405 -0.3562 -1.0563 -0.5004
  654MOL0     N90165   6.695   9.672   5.972 -0.2351  0.1794 -0.5215
  654MOL0     N90166   6.648   9.629   5.863  0.0961  0.2204  0.3285
  654MOL0     C90167   5.835   9.061   5.049  0.7265 -0.1872  0.5689
  654MOL0     C90168   5.703   9.046   4.994 -0.4347 -0.6638  0.0222
  654MOL0     C90169   5.286   9.074   4.947  0.1597  0.8699  0.0746
  654MOL0     C90170   5.296   9.060   4.805 -0.4759 -0.6407  0.3014
  654MOL0     C90171   5.199   9.125   4.727  0.2852  0.3216  0.6483
  654MOL0     C90172   5.096   9.206   4.771  0.5366 -1.1204 -0.2156
  654MOL0     O90173   5.014   9.287   4.695  0.0991  0.2706 -0.4197
  654MOL0     C90174   4.993   9.262   4.554 -0.4694 -0.1960 -0.9020
  654MOL0     C90175   4.860   9.329   4.504 -0.2851  0.5308  0.9731
  654MOL0     C90176   4.860   9.329   4.354  0.3563 -0.0995  0.4532
  654MOL0     C90177   4.724   9.310   4.281 -0.1045  0.4647  0.3860
  654MOL0     C90178   4.630   9.410   4.336 -1.0123  0.1182  0.8449
  654MOL0     C90179   4.560   9.503   4.373 -0.0619  0.3192  0.9896
  654MOL0     C90180   5.083   9.209   4.905 -0.4128  0.5015 -0.0863
  654MOL0     C90181   5.169   9.150   4.995  0.5488 -0.6489  0.7403
  654MOL0     C90182   5.122   9.156   5.145 -0.8983  0.0254  0.1276
  654MOL0     H90183   5.611   8.744   5.124  0.5958  0.9374  0.0357
  654MOL0     H90184   5.834   8.751   5.199 -3.8340 -3.5066 -3.0603
  654MOL0     H90185   5.986   9.158   5.304  1.0769 -0.3221  0.2766
  654MOL0     H90186   6.073   9.146   5.141  3.0206 -1.5180 -0.6379
  654MOL0     H90187   6.158   9.019   5.403 -4.3115  0.9585 -0.2305
  654MOL0     H90188   6.257   9.038   5.256 -0.3170 -0.6478 -0.1233
  654MOL0     H90189   6.276   9.280   5.308 -0.0951  0.2295 -0.5036
  654MOL0     H90190   6.166   9.258   5.450  0.3641 -0.0590  0.6266
  654MOL0     H90191   6.349   9.092   5.531  1.6512  0.1276  0.0755
  654MOL0     H90192   6.429   9.132   5.387  0.6802 -2.3808  2.3582
  654MOL0     H90193   6.358   9.353   5.591  3.4335  3.1956  1.1258
  654MOL0     H90194   6.498   9.345   5.481 -0.2562  3.3567  2.2483
  654MOL0     H90195   6.462   9.144   5.711 -1.4469  0.0353 -0.9622
  654MOL0     H90196   6.604   9.180   5.616 -0.3869 -0.5359  0.4585
  654MOL0     H90197   6.566   9.295   5.861 -2.0925 -0.8537 -1.1499
  654MOL0     H90198   6.467   9.411   5.775 -0.6055 -0.5877 -1.4366
  654MOL0     H90199   6.751   9.343   5.714 -0.3995 -0.5545  1.1558
  654MOL0     H90200   6.664   9.460   5.622  0.3173  0.4039 -0.1712
  654MOL0     H90201   6.847   9.384   5.936 -0.8903 -1.4033  1.6215
  654MOL0     H90202   6.891   9.672   6.167 -1.7085 -0.5063  2.6131
  654MOL0     H90203   6.961   9.523   6.099  0.4162  0.1620 -1.3397
  654MOL0     H90204   6.826   9.392   6.216  1.3552  0.7183 -1.1137
  654MOL0     H90205   6.893   9.515   6.333 -0.7222 -0.5472  1.7185
  654MOL0     H90206   6.652   9.643   6.272  1.0257 -1.3163 -0.9573
  654MOL0     H90207   6.603   9.478   6.253 -0.4843  0.5574 -0.2252
  654MOL0     H90208   6.705   9.422   6.463 -0.1346  0.1312  0.3540
  654MOL0     H90209   6.748   9.581   6.501 -0.1470  1.3156 -0.7038
  654MOL0     H90210   6.590   9.684   6.712  2.0483  0.6409 -0.8025
  654MOL0     H90211   6.581   9.855   6.846 -0.9643  0.9883  2.4500
  654MOL0     H90212   6.444   9.957   6.838  0.1325  1.5378 -1.6273
  654MOL0     H90213   6.592  10.010   6.759  0.7202 -0.7702 -0.8595
  654MOL0     H90214   6.176  10.288   6.583  1.2248 -0.9233  0.2230
  654MOL0     H90215   6.084  10.499   6.707  0.8646 -0.1363 -1.1815
  654MOL0     H90216   5.977  10.591   6.872  3.2527 -1.7587 -1.5535
  654MOL0     H90217   6.031  10.526   7.024 -1.9388 -1.2152 -1.0603
  654MOL0     H90218   6.109  10.751   7.084  1.1299 -0.2319 -1.7217
  654MOL0     H90219   6.044  10.824   6.943  1.8951  0.1535  0.0573
  654MOL0     H90220   5.853  10.639   7.085  0.8469 -0.8996  2.3931
  654MOL0     H90221   5.812  10.782   6.984 -1.9817  1.3199  1.4716
  654MOL0     H90222   5.934  10.911   7.177 -0.5199  0.7077 -0.4633
  654MOL0     H90223   5.897  10.760   7.269 -1.2394 -0.3382  0.1802
  654MOL0     H90224   5.685  10.910   7.112  2.4803 -0.4944 -2.4248
  654MOL0     H90225   5.658  10.788   7.232  3.1856 -2.6711 -1.2386
  654MOL0     H90226   5.788  11.056   7.325 -0.8533  0.6715 -0.8032
  654MOL0     H90227   5.738  10.921   7.420 -1.2405  1.0190  1.2109
  654MOL0     H90228   5.502  10.985   7.368  0.6523  0.6369  0.6834
  654MOL0     H90229   5.569  11.120   7.258  3.8143  3.4062  1.8631
  654MOL0     H90230   5.665  11.223   7.453 -1.4639  1.8486 -1.9284
  654MOL0     H90231   5.597  11.089   7.559  2.0688 -0.4812 -1.2881
  654MOL0     H90232   6.419  10.460   6.980 -0.2925  5.8897 -1.2944
  654MOL0     H90233   6.484  10.247   6.857 -2.9156 -2.1846 -0.2858
  654MOL0     H90234   6.312   9.886   6.348  0.4014 -0.2842  0.4908
  654MOL0     H90235   6.419   9.667   6.312 -1.2841  1.3002 -1.8847
  654MOL0     H90236   5.889   9.151   5.021 -3.6170  1.7606 -2.6074
  654MOL0     H90237   5.668   9.131   4.937  0.1486  0.3330  1.1033
  654MOL0     H90238   5.369   8.997   4.756 -0.2525  1.2030 -1.8892
  654MOL0     H90239   5.206   9.105   4.620  3.1423  0.2432  0.7555
  654MOL0     H90240   5.075   9.309   4.500 -0.9104  1.8221  0.0708
  654MOL0     H90241   5.003   9.159   4.520  2.3595  0.3860 -2.1189
  654MOL0     H90242   4.858   9.432   4.541  0.5847  1.1517 -0.6011
  654MOL0     H90243   4.777   9.268   4.542 -0.5872 -0.4568 -1.1528
  654MOL0     H90244   4.919   9.401   4.296  1.1164 -1.1760 -0.1799
  654MOL0     H90245   4.902   9.233   4.320 -0.5528 -0.6704  0.9017
  654MOL0     H90246   4.681   9.212   4.303 -1.1228  0.9764  0.7389
  654MOL0     H90247   4.730   9.321   4.173  2.7042  0.7684  0.5069
  654MOL0     H90248   4.495   9.579   4.413  0.2573 -0.1132  2.3657
  654MOL0     H90249   5.006   9.275   4.944 -1.1044 -1.1114  1.4023
  654MOL0     H90250   5.182   9.082   5.199 -2.0565 -0.7295  0.4144
  654MOL0     H90251   5.133   9.256   5.187 -0.1334  0.7040 -1.6065
  654MOL0     H90252   5.018   9.125   5.154 -1.7159  2.4372 -0.4436
  655MOL0     O90253   4.022   0.712   7.161  0.5248  0.7886  0.2383
  655MOL0     C90254   4.019   0.833   7.180  0.2081 -0.7565  0.4160
  655MOL0     O90255   4.104   0.918   7.123  0.1325  0.4493  0.3773
  655MOL0     C90256   4.192   0.873   7.027  0.2759  0.7420 -0.4662
  655MOL0     C90257   4.151   0.836   6.901 -0.3111  0.1200  0.2833
  655MOL0     C90258   4.239   0.793   6.806  0.7400  0.1343  0.4939
  655MOL0     C90259   4.377   0.794   6.825  0.5394 -0.0492  0.1980
  655MOL0     O90260   4.463   0.757   6.722  0.3466  0.1316  0.2115
  655MOL0     C90261   4.565   0.848   6.671 -0.8632  0.0546 -0.2207
  655MOL0     C90262   4.650   0.772   6.572  0.3023 -0.0959 -0.1704
  655MOL0     C90263   4.576   0.760   6.440  0.7971 -1.0909 -0.6964
  655MOL0     C90264   4.684   0.746   6.326  0.2054  0.1683 -1.1962
  655MOL0     C90265   4.788   0.634   6.341 -0.1780 -0.4655  1.2831
  655MOL0     C90266   4.858   0.634   6.208 -0.6417  0.7799  0.3482
  655MOL0     C90267   4.974   0.526   6.204 -0.2277 -0.0016  0.5895
  655MOL0     C90268   5.010   0.506   6.050 -0.4647  0.3359  0.1614
  655MOL0     N90269   5.095   0.388   6.040  0.2932  0.4868 -0.3070
  655MOL0     C90270   5.226   0.372   6.086  0.6563 -0.4253  0.4471
  655MOL0     C90271   5.275   0.267   6.019 -0.4071 -0.1902  0.5950
  655MOL0     C90272   5.409   0.194   6.052 -0.5007 -0.6551  0.0375
  655MOL0     C90273   5.532   0.255   5.979  0.3769  0.2709  0.1487
  655MOL0     C90274   5.664   0.174   6.019 -0.0051 -0.7684  0.2195
  655MOL0     C90275   5.762   0.173   5.900  0.1722  0.2791 -1.2505
  655MOL0     O90276   5.870   0.084   5.948 -0.6560 -0.6957 -0.0903
  655MOL0     C90277   5.929  -0.006   5.861 -0.1428  0.5790  1.3302
  655MOL0     C90278   5.920   0.003   5.722  0.3482  1.0252 -0.6898
  655MOL0     C90279   5.984  -0.084   5.630 -0.4385  0.2949 -0.9315
  655MOL0     C90280   5.957  -0.059   5.484 -0.4021  0.8351 -0.0932
  655MOL0     C90281   6.079  -0.187   5.668 -0.0894  0.0974 -0.3484
  655MOL0     C90282   6.166  -0.264   5.577  0.1247 -0.4137 -0.0641
  655MOL0     O90283   6.194  -0.201   5.460  0.3102 -0.6855  1.1608
  655MOL0     C90284   6.288  -0.244   5.371 -0.2619 -0.5752  0.4780
  655MOL0     C90285   6.377  -0.345   5.387  0.1112  0.0347 -0.4435
  655MOL0     C90286   6.469  -0.380   5.287 -0.7793 -1.1049  0.1243
  655MOL0     C90287   6.485  -0.300   5.172  1.1342 -0.0860 -0.7395
  655MOL0     O90288   6.566  -0.341   5.072  0.2939 -0.1059 -0.5673
  655MOL0     C90289   6.689  -0.396   5.110 -0.2921 -0.0712 -0.4894
  655MOL0     C90290   6.786  -0.386   4.993 -0.1025  0.0422  0.1097
  655MOL0     C90291   6.745  -0.507   4.913 -0.1065  0.0275  0.4675
  655MOL0     C90292   6.829  -0.521   4.782 -0.4509 -0.2655  0.1385
  655MOL0     C90293   6.977  -0.535   4.809 -0.2133  0.3068  0.1085
  655MOL0     C90294   7.060  -0.559   4.687  0.0516 -0.7216  0.1122
  655MOL0     C90295   7.197  -0.630   4.713 -1.0827  0.1202  0.3454
  655MOL0     C90296   7.189  -0.770   4.761  0.3336  0.9375 -0.5919
  655MOL0    Cl90297   7.358  -0.823   4.795  0.1541 -0.1087  0.1249
  655MOL0     C90298   6.393  -0.199   5.149 -0.3514 -0.5631 -0.9450
  655MOL0     C90299   6.294  -0.172   5.254 -0.1284  0.1515 -0.0540
  655MOL0     O90300   6.201  -0.378   5.619 -0.2587 -0.4990  0.2426
  655MOL0     C90301   6.095  -0.188   5.813  0.3669  0.3027  0.5128
  655MOL0     C90302   6.015  -0.109   5.899 -0.1443  0.1416  0.7037
  655MOL0     N90303   5.179   0.214   5.937  0.4988  0.0895 -0.1557
  655MOL0     N90304   5.073   0.290   5.947  0.2557  0.3254 -0.1119
  655MOL0     C90305   4.429   0.835   6.956 -0.1539 -0.4922  0.8513
  655MOL0     C90306   4.337   0.877   7.052 -0.6564  0.5647  0.0299
  655MOL0     C90307   3.902   0.895   7.247  0.2243 -0.8957 -0.3123
  655MOL0     C90308   3.849   1.015   7.182  0.3881 -0.2982 -0.7974
  655MOL0     C90309   3.727   1.074   7.226 -0.9791  0.1154 -0.2107
  655MOL0     C90310   3.657   1.022   7.333 -0.0544 -0.0825 -1.5194
  655MOL0     O90311   3.529   1.058   7.378 -0.3328 -1.2615 -0.1182
  655MOL0     C90312   3.465   1.180   7.315 -0.4189 -0.4472 -0.8022
  655MOL0     C90313   3.347   1.214   7.406  0.2035  1.1723 -0.3965
  655MOL0     C90314   3.286   1.352   7.370  0.0723 -0.4153  0.9193
  655MOL0     C90315   3.140   1.374   7.428 -0.4996 -0.2068  0.9143
  655MOL0     C90316   3.159   1.432   7.554 -0.5799 -0.3691 -0.0274
  655MOL0     C90317   3.174   1.504   7.646  0.9019 -1.0204 -0.1339
  655MOL0     C90318   3.704   0.899   7.398 -1.0826 -0.2863  0.1641
  655MOL0     C90319   3.814   0.834   7.340 -0.7321  0.0973  0.0274
  655MOL0     C90320   3.836   0.690   7.388 -0.8302  0.0410 -0.5589
  655MOL0     H90321   4.044   0.819   6.889 -0.1532 -3.8857  2.9299
  655MOL0     H90322   4.189   0.768   6.713  0.5390  1.4278  0.2465
  655MOL0     H90323   4.621   0.877   6.760 -3.6133  2.0522  1.0061
  655MOL0     H90324   4.520   0.934   6.620  2.5247  3.1084  1.4747
  655MOL0     H90325   4.740   0.833   6.566  1.9785 -2.4492 -0.2291
  655MOL0     H90326   4.680   0.673   6.607 -0.8671 -1.1527 -2.0441
  655MOL0     H90327   4.514   0.670   6.447 -2.4621  1.0664  0.1342
  655MOL0     H90328   4.511   0.845   6.420  1.0520 -0.2063  1.8365
  655MOL0     H90329   4.629   0.743   6.232 -0.3043  1.2117 -0.9444
  655MOL0     H90330   4.742   0.839   6.321 -0.0077  0.2148 -3.3374
  655MOL0     H90331   4.741   0.537   6.359  4.0210 -3.1928 -0.7971
  655MOL0     H90332   4.866   0.661   6.412  2.7582  1.9385 -2.4600
  655MOL0     H90333   4.782   0.626   6.130 -2.2593  4.9589  1.2451
  655MOL0     H90334   4.910   0.729   6.195  0.6133  0.0281 -0.3815
  655MOL0     H90335   4.927   0.436   6.244  1.8635 -2.4851 -2.1241
  655MOL0     H90336   5.056   0.554   6.271 -2.0507  0.3349  2.8095
  655MOL0     H90337   4.917   0.495   5.993 -0.7492  2.1301  0.2192
  655MOL0     H90338   5.060   0.597   6.017 -0.5844  1.3598  2.5894
  655MOL0     H90339   5.271   0.426   6.169 -4.3920 -1.8297  4.6033
  655MOL0     H90340   5.395   0.090   6.021  1.4265 -1.2174  0.8667
  655MOL0     H90341   5.424   0.189   6.160 -0.6401  1.2111  0.1751
  655MOL0     H90342   5.514   0.242   5.872  0.3005  4.1630 -0.4533
  655MOL0     H90343   5.534   0.362   6.001 -0.7094  0.3368  0.0246
  655MOL0     H90344   5.709   0.208   6.113 -0.2370  0.2697 -0.0371
  655MOL0     H90345   5.625   0.075   6.045 -0.5916 -0.3597  0.9450
  655MOL0     H90346   5.720   0.138   5.806 -0.0551  0.3311 -1.1690
  655MOL0     H90347   5.790   0.276   5.878 -2.5870  2.3544  3.3942
  655MOL0     H90348   5.874   0.091   5.678  2.4062  2.1825 -0.6224
  655MOL0     H90349   5.858  -0.016   5.467 -0.3342  1.8283  1.8122
  655MOL0     H90350   5.948  -0.149   5.422 -0.7379  1.3314 -0.7777
  655MOL0     H90351   6.030   0.010   5.441 -2.0574  2.4263 -0.5005
  655MOL0     H90352   6.392  -0.411   5.471  2.0561  1.3662  0.3347
  655MOL0     H90353   6.542  -0.456   5.309  0.4194 -0.2047 -0.6150
  655MOL0     H90354   6.742  -0.350   5.194  1.6924  1.1091 -2.2752
  655MOL0     H90355   6.686  -0.502   5.137 -2.6155  0.1525  0.3718
  655MOL0     H90356   6.784  -0.289   4.942 -2.5420  0.9760  1.8192
  655MOL0     H90357   6.887  -0.407   5.031  0.0633 -1.0991 -0.8998
  655MOL0     H90358   6.637  -0.503   4.896 -0.4103 -0.7057  2.0453
  655MOL0     H90359   6.755  -0.600   4.970  1.5225 -1.6461 -2.3125
  655MOL0     H90360   6.817  -0.433   4.718  1.0131 -0.8700 -1.0297
  655MOL0     H90361   6.792  -0.610   4.730 -1.0792 -0.4881  0.9401
  655MOL0     H90362   7.021  -0.443   4.851 -0.2337  0.0005  0.8017
  655MOL0     H90363   6.991  -0.616   4.881  0.5700  0.8413  0.5802
  655MOL0     H90364   7.073  -0.458   4.645 -0.4360  0.6199  2.9447
  655MOL0     H90365   7.005  -0.618   4.613  3.0631 -2.8690 -0.5831
  655MOL0     H90366   7.235  -0.569   4.796 -2.7626 -2.8825  3.5594
  655MOL0     H90367   7.263  -0.621   4.626 -0.8697 -0.0482  0.4893
  655MOL0     H90368   7.138  -0.828   4.683 -0.4730  2.2078 -1.0331
  655MOL0     H90369   7.132  -0.782   4.853  2.1408  2.2448  0.7728
  655MOL0     H90370   6.404  -0.141   5.058  0.5883 -1.2829 -1.3077
  655MOL0     H90371   6.224  -0.091   5.236 -0.8764 -1.0838 -3.4189
  655MOL0     H90372   6.164  -0.260   5.857 -1.2060 -0.9418  1.0460
  655MOL0     H90373   6.012  -0.118   6.007  0.6340 -0.0277  0.7212
  655MOL0     H90374   4.537   0.842   6.961  0.2305  3.4422 -4.2191
  655MOL0     H90375   4.369   0.904   7.153 -0.8908 -1.8915  0.8298
  655MOL0     H90376   3.915   1.057   7.107  0.2189 -0.5285 -1.0796
  655MOL0     H90377   3.693   1.163   7.175 -0.5501 -0.7418 -2.0984
  655MOL0     H90378   3.545   1.254   7.312  0.1173 -1.0112 -0.7361
  655MOL0     H90379   3.429   1.155   7.215 -3.8657 -2.9304  0.8161
  655MOL0     H90380   3.370   1.209   7.513 -3.1127  0.7445  0.3860
  655MOL0     H90381   3.276   1.134   7.383  2.4600 -1.1536  0.3064
  655MOL0     H90382   3.358   1.432   7.391 -0.1152  0.6876 -2.1908
  655MOL0     H90383   3.277   1.340   7.262 -1.4360 -1.1249  1.0916
  655MOL0     H90384   3.085   1.280   7.438 -0.2960 -0.6691 -1.5113
  655MOL0     H90385   3.063   1.426   7.370 -2.2243 -1.5473  1.9129
  655MOL0     H90386   3.189   1.569   7.729  1.4398  1.4632 -2.0283
  655MOL0     H90387   3.652   0.848   7.477  1.6177 -1.6604  1.1738
  655MOL0     H90388   3.874   0.626   7.308  0.6748  0.3310 -0.1065
  655MOL0     H90389   3.906   0.698   7.472  1.2177 -2.4202 -1.8794
  655MOL0     H90390   3.741   0.651   7.425 -0.5801 -0.4713 -0.4515
  656MOL0     O90391   9.142   0.950   0.325 -0.0686 -0.5469 -0.4366
  656MOL0     C90392   9.157   0.838   0.278  0.1155 -0.1493 -0.4038
  656MOL0     O90393   9.279   0.773   0.277  1.0199 -0.3514  0.2303
  656MOL0     C90394   9.387   0.842   0.311 -0.4049  0.5477 -0.3553
  656MOL0     C90395   9.494   0.777   0.382  0.4979 -0.1566  0.0086
  656MOL0     C90396   9.616   0.842   0.394  0.0774 -0.4998  0.1013
  656MOL0     C90397   9.629   0.974   0.350  0.0487  0.0734  0.1704
  656MOL0     O90398   9.748   1.027   0.368 -0.3877  0.2938  0.1679
  656MOL0     C90399   9.761   1.168   0.368 -0.5879 -0.5582 -0.0083
  656MOL0     C90400   9.906   1.192   0.393  0.2283 -0.7953  0.3352
  656MOL0     C90401   9.987   1.145   0.265  0.6297 -0.2086 -0.5932
  656MOL0     C90402  10.133   1.121   0.307  0.0081 -0.1362  0.0582
  656MOL0     C90403  10.215   1.110   0.172 -0.2527 -0.4623  0.4636
  656MOL0     C90404  10.199   0.966   0.117 -0.3307  1.0834 -0.1214
  656MOL0     C90405  10.252   0.961  -0.022 -0.1869 -0.2091  0.3764
  656MOL0     C90406  10.248   0.816  -0.072  0.6662  0.1245 -0.4554
  656MOL0     N90407  10.321   0.800  -0.198  0.6388 -0.3437  0.4770
  656MOL0     C90408  10.450   0.795  -0.199 -0.4336  0.6490 -0.3650
  656MOL0     C90409  10.491   0.858  -0.307 -0.9723 -0.4712  0.7076
  656MOL0     C90410  10.633   0.886  -0.346 -0.2987 -0.5907  0.5820
  656MOL0     C90411  10.680   0.804  -0.465 -0.4026 -0.5162  1.2333
  656MOL0     C90412  10.660   0.653  -0.444 -0.0907 -0.1860  0.5890
  656MOL0     C90413  10.523   0.602  -0.502 -0.5069 -0.3542 -0.7002
  656MOL0     O90414  10.518   0.461  -0.510 -0.3945  0.5974  0.4734
  656MOL0     C90415  10.517   0.388  -0.386  0.8908 -0.2931  0.5914
  656MOL0     C90416  10.589   0.273  -0.379  0.4081 -0.1251 -0.0417
  656MOL0     C90417  10.601   0.199  -0.267  0.0787  0.4769  0.1479
  656MOL0     C90418  10.690   0.073  -0.284  0.1163  0.6487  0.7362
  656MOL0     C90419  10.533   0.233  -0.153  0.8464 -0.2128  0.3588
  656MOL0     C90420  10.520   0.143  -0.037 -0.6052  0.6369 -0.4685
  656MOL0     O90421  10.519   0.200   0.085 -0.1802  0.7363  0.1394
  656MOL0     C90422  10.455   0.149   0.198  0.0021  0.5581 -0.3780
  656MOL0     C90423  10.386   0.028   0.214 -0.6531  0.7519  0.6729
  656MOL0     C90424  10.340  -0.010   0.333  0.7520  0.3850  0.1201
  656MOL0     C90425  10.357   0.077   0.451  0.7150 -0.0576  0.4378
  656MOL0     O90426  10.300   0.053   0.571  0.0975  0.7381 -0.3535
  656MOL0     C90427  10.370  -0.046   0.640  0.7880  0.1287  0.7665
  656MOL0     C90428  10.520  -0.010   0.673 -0.1866 -0.3423 -0.7677
  656MOL0     C90429  10.592  -0.130   0.751  0.0298 -0.1796 -0.3987
  656MOL0     C90430  10.738  -0.092   0.788  0.1981  0.0330  0.2261
  656MOL0     C90431  10.835  -0.135   0.678  0.1610 -0.8562  1.4848
  656MOL0     C90432  10.920  -0.259   0.716  0.1897 -0.9937  0.3147
  656MOL0     C90433  11.005  -0.306   0.593 -0.2538 -0.3869 -0.2460
  656MOL0     C90434  11.071  -0.195   0.514 -0.1206  0.5005 -0.5608
  656MOL0    Cl90435  11.134  -0.263   0.356  0.2715  0.3003  0.0015
  656MOL0     C90436  10.416   0.195   0.433 -0.2009 -0.8421 -1.2589
  656MOL0     C90437  10.462   0.231   0.315 -0.3335  0.1397  0.4818
  656MOL0     O90438  10.521   0.014  -0.064 -0.4369  0.5889  0.5004
  656MOL0     C90439  10.462   0.362  -0.150 -0.4861  0.1823 -0.2331
  656MOL0     C90440  10.457   0.439  -0.270  0.3653  0.0534  0.4753
  656MOL0     N90441  10.387   0.898  -0.386 -0.1007  0.4728 -0.2650
  656MOL0     N90442  10.284   0.855  -0.321  0.5159  0.3118  0.1817
  656MOL0     C90443   9.525   1.039   0.274 -1.6520 -0.1859  0.5493
  656MOL0     C90444   9.409   0.970   0.255 -1.3203 -0.7414  0.6311
  656MOL0     C90445   9.054   0.765   0.212  0.8498  0.7908  0.3367
  656MOL0     C90446   8.950   0.836   0.142 -0.4758 -0.2039 -0.6378
  656MOL0     C90447   8.853   0.773   0.068  0.2926 -0.4931  0.1255
  656MOL0     C90448   8.845   0.629   0.070 -0.2039  0.0889 -0.1746
  656MOL0     O90449   8.748   0.585  -0.013 -0.3092 -0.0849 -0.0382
  656MOL0     C90450   8.739   0.446  -0.041 -1.2899  0.4427  0.2414
  656MOL0     C90451   8.860   0.411  -0.131 -0.3539  0.4256  0.1434
  656MOL0     C90452   8.847   0.479  -0.269  0.0107  1.1151  0.7907
  656MOL0     C90453   8.980   0.442  -0.336 -0.5771 -0.3301  0.1756
  656MOL0     C90454   8.988   0.524  -0.458  0.2385 -0.6588 -0.3602
  656MOL0     C90455   8.979   0.587  -0.557 -0.7464  0.4946 -0.2434
  656MOL0     C90456   8.934   0.556   0.148  0.2552  0.4954 -0.2880
  656MOL0     C90457   9.040   0.629   0.209 -0.6183  0.5611 -0.8292
  656MOL0     C90458   9.125   0.528   0.294  0.2306 -0.3469  0.4667
  656MOL0     H90459   9.475   0.674   0.412 -5.6752  0.0049 -1.9521
  656MOL0     H90460   9.700   0.798   0.447  0.0281 -1.8080 -0.8778
  656MOL0     H90461   9.693   1.216   0.439 -0.2586 -0.4954  0.2685
  656MOL0     H90462   9.725   1.208   0.273 -3.7743  0.0342  1.3193
  656MOL0     H90463   9.949   1.292   0.403  0.4106 -0.3091 -3.7450
  656MOL0     H90464   9.934   1.135   0.482  1.2270 -1.9221 -0.6437
  656MOL0     H90465   9.937   1.067   0.207  0.3824  0.7049 -1.6471
  656MOL0     H90466   9.993   1.230   0.196  0.0762  1.5643  1.4242
  656MOL0     H90467  10.167   1.208   0.364 -0.8609 -0.5262  1.1854
  656MOL0     H90468  10.156   1.030   0.363 -0.6382  1.4670  3.1212
  656MOL0     H90469  10.320   1.136   0.191 -0.4415  1.5388 -0.8909
  656MOL0     H90470  10.188   1.194   0.108 -0.4872 -0.6613  0.3018
  656MOL0     H90471  10.263   0.899   0.175  1.4370  1.4011 -1.5870
  656MOL0     H90472  10.094   0.934   0.124 -0.1502  0.8933  4.5923
  656MOL0     H90473  10.355   0.996  -0.032 -0.2280 -0.3023 -0.4565
  656MOL0     H90474  10.186   1.025  -0.081  1.4324  2.1468  0.9899
  656MOL0     H90475  10.286   0.751   0.008  2.3982  1.3159 -0.2588
  656MOL0     H90476  10.141   0.794  -0.077  0.6518  0.4464 -1.9025
  656MOL0     H90477  10.512   0.770  -0.113  1.8705 -1.2741 -2.4408
  656MOL0     H90478  10.693   0.861  -0.259 -0.3168 -2.1779  0.1598
  656MOL0     H90479  10.657   0.990  -0.373  0.9473 -1.0874 -0.3011
  656MOL0     H90480  10.628   0.834  -0.556 -0.5422 -0.5372  1.3057
  656MOL0     H90481  10.786   0.811  -0.492 -0.4844  1.5104  1.3362
  656MOL0     H90482  10.753   0.606  -0.478  0.9947  0.1654  2.8666
  656MOL0     H90483  10.668   0.628  -0.337  4.9968 -3.1164 -0.1700
  656MOL0     H90484  10.434   0.637  -0.450  0.1716 -0.2877  0.4719
  656MOL0     H90485  10.522   0.652  -0.599  1.5790  0.9366 -0.1301
  656MOL0     H90486  10.636   0.234  -0.469 -1.6680 -3.8851  0.3300
  656MOL0     H90487  10.624  -0.012  -0.303  0.0157 -0.0356  3.6413
  656MOL0     H90488  10.749   0.060  -0.193 -1.0945 -0.8420  1.3511
  656MOL0     H90489  10.758   0.085  -0.369 -1.0718  0.3731 -0.2919
  656MOL0     H90490  10.377  -0.045   0.135 -2.0129 -0.0011  1.4786
  656MOL0     H90491  10.315  -0.116   0.334  1.4935  0.2076  0.4081
  656MOL0     H90492  10.320  -0.053   0.738 -0.0153  0.5424  0.4005
  656MOL0     H90493  10.358  -0.142   0.589  0.8089  0.8901 -0.7010
  656MOL0     H90494  10.577   0.023   0.586  1.6168  3.7346  1.6470
  656MOL0     H90495  10.521   0.083   0.730 -1.3678  0.4358 -1.9588
  656MOL0     H90496  10.592  -0.222   0.692  0.0063 -0.5337  0.1463
  656MOL0     H90497  10.524  -0.146   0.835 -0.5768 -2.7825 -1.2620
  656MOL0     H90498  10.761  -0.138   0.885  1.1553  1.0132  0.4853
  656MOL0     H90499  10.744   0.013   0.817 -2.5577  0.2526  0.2656
  656MOL0     H90500  10.789  -0.140   0.579 -0.1966 -3.3464  1.7103
  656MOL0     H90501  10.908  -0.054   0.664 -0.9467 -0.1532 -0.7940
  656MOL0     H90502  10.856  -0.346   0.733 -0.5536 -0.6688 -0.7486
  656MOL0     H90503  10.988  -0.236   0.799  1.5244  0.2839 -1.0558
  656MOL0     H90504  10.938  -0.352   0.520 -0.9755  0.6628 -0.2558
  656MOL0     H90505  11.092  -0.361   0.630  1.7952  0.6101 -3.2197
  656MOL0     H90506  11.157  -0.168   0.576  0.6797 -3.3631  0.3141
  656MOL0     H90507  11.017  -0.103   0.491  3.0593  2.7876  0.3399
  656MOL0     H90508  10.435   0.258   0.520  1.0605 -1.8477 -0.7691
  656MOL0     H90509  10.501   0.332   0.305  1.3099 -0.5168  0.0223
  656MOL0     H90510  10.417   0.389  -0.055 -1.2671 -1.9331  0.0605
  656MOL0     H90511  10.412   0.535  -0.293  4.2760  1.2823 -3.4370
  656MOL0     H90512   9.534   1.134   0.223 -3.5831 -0.2593 -0.0140
  656MOL0     H90513   9.335   1.024   0.196  1.8599  2.2610 -0.9426
  656MOL0     H90514   8.960   0.944   0.150  0.0138 -0.1730 -1.5780
  656MOL0     H90515   8.783   0.828   0.005  1.7696  3.2337  1.4398
  656MOL0     H90516   8.737   0.389   0.053 -1.3070  2.2483  1.4015
  656MOL0     H90517   8.643   0.429  -0.091 -1.3205  1.1490  0.0434
  656MOL0     H90518   8.843   0.305  -0.151  0.5337  0.2468  0.3167
  656MOL0     H90519   8.954   0.431  -0.079 -0.0141  0.6659 -0.5475
  656MOL0     H90520   8.771   0.434  -0.334 -1.3080  1.6346  1.9146
  656MOL0     H90521   8.836   0.588  -0.263  1.6816  1.3540  0.1694
  656MOL0     H90522   8.981   0.337  -0.369 -0.7025  0.3243 -2.0899
  656MOL0     H90523   9.073   0.449  -0.279 -0.3475 -2.4388  0.1649
  656MOL0     H90524   8.962   0.651  -0.641  1.8890 -1.2777 -2.2923
  656MOL0     H90525   8.937   0.448   0.134  0.1329  0.4399  0.0869
  656MOL0     H90526   9.220   0.504   0.244  1.5950  1.6557  1.9420
  656MOL0     H90527   9.150   0.560   0.395 -1.2988 -2.0673  1.4478
  656MOL0     H90528   9.077   0.430   0.297  1.1383 -0.8800 -1.1514
  657MOL0     O90529   0.842   7.565  11.162  0.2779 -0.4396  0.0162
  657MOL0     C90530   0.766   7.577  11.068  0.9693 -0.1392  0.5276
  657MOL0     O90531   0.693   7.690  11.047  0.3265  1.0349  0.3068
  657MOL0     C90532   0.657   7.766  11.157 -0.5326  0.1944 -0.2314
  657MOL0     C90533   0.584   7.703  11.250 -0.5276 -0.9887  1.2345
  657MOL0     C90534   0.549   7.775  11.365  0.5127 -0.3000  0.1915
  657MOL0     C90535   0.598   7.910  11.384 -0.5223  0.1616  0.7215
  657MOL0     O90536   0.568   7.987  11.495  0.1104 -0.3555 -0.5046
  657MOL0     C90537   0.540   7.918  11.624  0.0047 -0.1138 -0.6495
  657MOL0     C90538   0.550   8.020  11.737 -0.0410 -0.0625 -0.1284
  657MOL0     C90539   0.452   8.137  11.718  0.0328 -0.5109  0.4441
  657MOL0     C90540   0.501   8.265  11.784  0.1135  0.3073 -0.0293
  657MOL0     C90541   0.378   8.368  11.779  0.1847  0.0381  1.4182
  657MOL0     C90542   0.404   8.511  11.826 -0.0645  0.4424  0.8177
  657MOL0     C90543   0.547   8.556  11.791 -0.3816 -0.3924  0.1807
  657MOL0     C90544   0.575   8.704  11.805  0.0087  0.2850 -1.8634
  657MOL0     N90545   0.520   8.771  11.689 -0.0952  0.1931 -1.0038
  657MOL0     C90546   0.385   8.810  11.691  0.2648  0.2012 -0.1714
  657MOL0     C90547   0.368   8.878  11.572 -0.8480 -0.4180 -0.2575
  657MOL0     C90548   0.241   8.932  11.512  0.0990  1.0129 -0.5089
  657MOL0     C90549   0.233   9.084  11.520 -0.3444 -0.2376  0.2909
  657MOL0     C90550   0.228   9.142  11.380 -0.4009 -0.2827 -0.1971
  657MOL0     C90551   0.208   9.293  11.396 -0.5342  0.4594  0.0348
  657MOL0     O90552   0.078   9.324  11.442 -0.6441  0.0604  0.0815
  657MOL0     C90553   0.037   9.456  11.459 -0.5452  0.3238  0.2406
  657MOL0     C90554  -0.083   9.471  11.521 -0.6685  0.3831 -0.0569
  657MOL0     C90555  -0.145   9.595  11.543  0.4593 -0.3094  0.2278
  657MOL0     C90556  -0.254   9.598  11.644 -0.3149 -0.4013  0.0143
  657MOL0     C90557  -0.072   9.709  11.508  0.0912  0.1760 -0.5831
  657MOL0     C90558  -0.115   9.842  11.549  0.4674  0.2357  0.3673
  657MOL0     O90559  -0.010   9.928  11.567 -0.0570 -0.2227 -0.0840
  657MOL0     C90560  -0.051  10.047  11.627 -0.5569  0.6121 -1.1948
  657MOL0     C90561  -0.111  10.141  11.547  0.1079  0.3364  0.1965
  657MOL0     C90562  -0.150  10.261  11.597 -0.4572  0.5788  0.3078
  657MOL0     C90563  -0.136  10.293  11.734  0.2861 -0.2320  0.2621
  657MOL0     O90564  -0.195  10.402  11.792 -0.3975 -0.3092 -0.5249
  657MOL0     C90565  -0.234  10.524  11.725 -0.6731  0.4192 -0.2435
  657MOL0     C90566  -0.114  10.603  11.700  0.1108 -0.4954  0.2712
  657MOL0     C90567  -0.150  10.750  11.660 -0.4602 -0.0749  0.5009
  657MOL0     C90568  -0.018  10.813  11.615  0.1454  0.5501  0.3574
  657MOL0     C90569  -0.010  10.966  11.657 -0.2332  0.1366 -0.2251
  657MOL0     C90570   0.048  10.985  11.801  0.0843  0.2329 -0.0235
  657MOL0     C90571   0.049  11.135  11.838  0.2795 -0.5543 -0.4693
  657MOL0     C90572  -0.086  11.190  11.876 -0.0963 -0.6330  0.6244
  657MOL0    Cl90573  -0.156  11.105  12.018 -0.2370 -0.1871 -0.4134
  657MOL0     C90574  -0.078  10.199  11.815 -0.5655 -0.3498 -1.0275
  657MOL0     C90575  -0.026  10.079  11.764  0.6616 -0.2757 -0.0303
  657MOL0     O90576  -0.237   9.880  11.537 -0.7290  0.8036 -0.3360
  657MOL0     C90577   0.042   9.697  11.434 -0.3615 -0.7438  1.2257
  657MOL0     C90578   0.096   9.568  11.410  0.5482 -0.9916  0.3802
  657MOL0     N90579   0.495   8.891  11.513 -1.1135  0.8114  0.5638
  657MOL0     N90580   0.583   8.825  11.575  1.3471 -0.5608 -1.2966
  657MOL0     C90581   0.660   7.974  11.280  0.4071  0.6666  0.1173
  657MOL0     C90582   0.682   7.905  11.166 -0.3565 -0.2246  0.3547
  657MOL0     C90583   0.761   7.462  10.964 -0.4996  0.2867  0.3792
  657MOL0     C90584   0.651   7.458  10.870  0.3751  0.4184  0.1545
  657MOL0     C90585   0.626   7.353  10.783  0.5945 -0.3080  0.3497
  657MOL0     C90586   0.707   7.232  10.803 -0.5664  0.2379 -0.1106
  657MOL0     O90587   0.682   7.122  10.731  0.2325  0.7387  0.7084
  657MOL0     C90588   0.601   7.025  10.812 -0.0751  0.5152  0.0969
  657MOL0     C90589   0.569   6.910  10.715 -0.0673  0.0204 -1.2340
  657MOL0     C90590   0.696   6.821  10.676 -0.0035 -0.3152  0.4889
  657MOL0     C90591   0.824   6.890  10.635  0.7604  0.5408 -0.2307
  657MOL0     C90592   0.816   6.981  10.520  0.1439  0.1458 -1.6846
  657MOL0     C90593   0.799   7.070  10.442 -0.0890  1.3807  0.6406
  657MOL0     C90594   0.823   7.238  10.882  0.4040  0.2256 -0.2790
  657MOL0     C90595   0.857   7.353  10.961  0.9030 -0.0849  0.0898
  657MOL0     C90596   0.983   7.351  11.037  0.3008 -0.1459 -0.0678
  657MOL0     H90597   0.556   7.598  11.240 -1.0612 -0.8038  0.7399
  657MOL0     H90598   0.487   7.745  11.449 -1.0479  3.0819  0.4358
  657MOL0     H90599   0.621   7.844  11.628 -0.6891 -0.8561 -0.2572
  657MOL0     H90600   0.440   7.876  11.621 -0.0124 -0.8130  3.7851
  657MOL0     H90601   0.531   7.976  11.836 -0.7712 -2.0281 -1.0811
  657MOL0     H90602   0.649   8.066  11.736 -1.0398  2.2248 -1.6120
  657MOL0     H90603   0.442   8.155  11.610  2.5472  6.6015  0.8587
  657MOL0     H90604   0.357   8.109  11.764  0.9442  0.2671  2.9462
  657MOL0     H90605   0.525   8.238  11.887 -1.9811 -0.5676  0.2653
  657MOL0     H90606   0.584   8.319  11.736  0.4640  0.8587  1.1548
  657MOL0     H90607   0.284   8.336  11.824 -2.0676  0.2898 -2.7075
  657MOL0     H90608   0.356   8.379  11.673  2.2794  2.0622  1.1188
  657MOL0     H90609   0.320   8.563  11.779 -1.0829 -1.4299  0.4702
  657MOL0     H90610   0.383   8.523  11.933 -1.6606  0.3792  0.5412
  657MOL0     H90611   0.566   8.518  11.690  1.3329 -0.7074  0.5944
  657MOL0     H90612   0.608   8.501  11.862 -2.1942 -1.4213  1.0036
  657MOL0     H90613   0.539   8.736  11.903  0.7098  0.1288 -1.5470
  657MOL0     H90614   0.684   8.711  11.814  0.3251 -3.0464 -1.6190
  657MOL0     H90615   0.308   8.789  11.764  0.4455 -1.1398 -0.3479
  657MOL0     H90616   0.171   8.891  11.586  2.6679 -0.8654  1.0305
  657MOL0     H90617   0.210   8.900  11.412 -0.3531  2.1260 -0.7438
  657MOL0     H90618   0.146   9.116  11.577  2.0550  1.9847  3.0128
  657MOL0     H90619   0.318   9.123  11.576  1.8316 -2.5635 -1.1355
  657MOL0     H90620   0.319   9.113  11.327  0.4648  1.3850  0.3034
  657MOL0     H90621   0.140   9.103  11.328  1.7118 -2.4350 -2.3832
  657MOL0     H90622   0.276   9.335  11.470  0.1574 -1.4809  0.5538
  657MOL0     H90623   0.237   9.351  11.308  2.0921 -0.3185  0.3052
  657MOL0     H90624  -0.139   9.389  11.566 -1.6806  1.4946  0.8001
  657MOL0     H90625  -0.273   9.495  11.676  0.6596 -1.7006 -3.2134
  657MOL0     H90626  -0.345   9.648  11.608 -0.2198 -1.2197 -1.4375
  657MOL0     H90627  -0.224   9.653  11.734  3.6070  0.2476 -1.4987
  657MOL0     H90628  -0.142  10.126  11.444 -1.0251  2.3585  0.2010
  657MOL0     H90629  -0.209  10.324  11.532  1.1123 -0.2692 -2.1259
  657MOL0     H90630  -0.297  10.515  11.636 -0.0770 -0.5582 -0.5842
  657MOL0     H90631  -0.297  10.578  11.796 -0.8813 -0.2077  0.0611
  657MOL0     H90632  -0.046  10.600  11.785  3.7615 -2.3282 -2.4016
  657MOL0     H90633  -0.070  10.549  11.615  0.4403 -4.2242  2.6199
  657MOL0     H90634  -0.178  10.802  11.751 -3.4158  1.2536 -1.0518
  657MOL0     H90635  -0.229  10.760  11.585  0.5432 -2.5301 -1.0182
  657MOL0     H90636   0.005  10.805  11.508  2.0961  0.4039  0.7466
  657MOL0     H90637   0.060  10.766  11.676 -0.5945 -1.4326 -0.1573
  657MOL0     H90638   0.057  11.020  11.589 -0.4089  0.7922  0.1173
  657MOL0     H90639  -0.107  11.016  11.657  0.2503  1.3702  3.6121
  657MOL0     H90640   0.148  10.947  11.779 -0.9578 -1.5575 -2.0274
  657MOL0     H90641   0.000  10.922  11.876 -1.7007  1.3804 -0.1225
  657MOL0     H90642   0.081  11.197  11.754 -1.4121  3.0891  1.3447
  657MOL0     H90643   0.123  11.156  11.916 -0.1254 -1.3179  0.1393
  657MOL0     H90644  -0.157  11.179  11.793  0.8156 -1.9669 -0.0057
  657MOL0     H90645  -0.083  11.299  11.887 -0.0251 -0.3269 -1.8447
  657MOL0     H90646  -0.062  10.239  11.915 -0.0073 -0.8529 -0.9045
  657MOL0     H90647   0.019  10.004  11.828 -2.6176 -2.7589 -0.3529
  657MOL0     H90648   0.103   9.782  11.405  0.7463 -1.8714  0.1041
  657MOL0     H90649   0.183   9.571  11.344  0.8544 -0.8929  0.7867
  657MOL0     H90650   0.681   8.079  11.293  1.2001  0.2951  2.3398
  657MOL0     H90651   0.740   7.962  11.095 -2.5620  1.1953 -0.4173
  657MOL0     H90652   0.579   7.540  10.878 -0.2766 -0.0768 -0.4610
  657MOL0     H90653   0.542   7.344  10.714  0.3428 -1.1168  0.7470
  657MOL0     H90654   0.658   6.990  10.898  1.5455  0.2787 -1.0314
  657MOL0     H90655   0.514   7.077  10.855  0.8125  2.0844  0.0816
  657MOL0     H90656   0.516   6.956  10.632  0.4277  0.3860 -1.3541
  657MOL0     H90657   0.494   6.845  10.761 -1.4036  3.3639  1.7543
  657MOL0     H90658   0.722   6.752  10.756  1.5047 -0.2163  0.1276
  657MOL0     H90659   0.666   6.759  10.591  1.3180  0.6437 -0.7442
  657MOL0     H90660   0.899   6.813  10.612  2.4605  1.7860  0.9050
  657MOL0     H90661   0.854   6.949  10.722 -0.8258 -1.7688  2.0413
  657MOL0     H90662   0.789   7.153  10.375 -1.7606 -0.4590 -1.5564
  657MOL0     H90663   0.872   7.142  10.887 -1.4817 -0.7757  0.2185
  657MOL0     H90664   1.054   7.275  11.005 -0.1696 -0.5383 -0.1860
  657MOL0     H90665   1.041   7.442  11.018  0.9166 -0.7383 -1.1161
  657MOL0     H90666   0.956   7.341  11.143  1.3729 -3.2144  0.0080
  658MOL0     O90667   4.159   6.275   3.544  0.3848  0.5732 -0.1195
  658MOL0     C90668   4.113   6.271   3.431  0.0288 -0.3283 -0.9283
  658MOL0     O90669   4.114   6.164   3.348  0.4322  0.1412  0.5652
  658MOL0     C90670   4.152   6.035   3.373 -1.3356  0.3788 -0.5048
  658MOL0     C90671   4.128   5.940   3.271  0.0986  0.3604 -0.7638
  658MOL0     C90672   4.144   5.803   3.287 -0.0430 -0.9516 -0.2982
  658MOL0     C90673   4.183   5.754   3.406  0.3265 -0.2649  0.0979
  658MOL0     O90674   4.197   5.618   3.419 -0.1266 -0.2399  0.2561
  658MOL0     C90675   4.077   5.543   3.456  0.7423 -0.3886 -0.0012
  658MOL0     C90676   4.103   5.400   3.464  0.6116  0.6568  0.9102
  658MOL0     C90677   4.165   5.341   3.337  0.6719  0.1486  0.1599
  658MOL0     C90678   4.046   5.330   3.239  1.1286  0.2022 -0.8822
  658MOL0     C90679   4.079   5.265   3.114 -0.3712  0.3520 -0.0586
  658MOL0     C90680   3.994   5.322   2.996  0.0058 -0.8624 -0.0425
  658MOL0     C90681   4.020   5.246   2.868  1.0150 -0.1483 -0.5407
  658MOL0     C90682   3.938   5.300   2.755 -0.1963 -0.1265 -0.1007
  658MOL0     N90683   3.990   5.284   2.621 -0.2095  0.4735 -0.2219
  658MOL0     C90684   4.064   5.167   2.584  0.1064  0.1305 -0.1390
  658MOL0     C90685   4.085   5.200   2.457  0.8192  0.0841 -0.6055
  658MOL0     C90686   4.179   5.130   2.374  0.0195 -0.3556 -0.4425
  658MOL0     C90687   4.320   5.112   2.450 -0.1903  0.2593  0.1556
  658MOL0     C90688   4.430   5.050   2.362 -0.1998 -0.1297  0.4365
  658MOL0     C90689   4.468   5.121   2.233  0.5355 -0.5131 -0.4043
  658MOL0     O90690   4.614   5.140   2.238  0.7563 -0.0828 -0.0741
  658MOL0     C90691   4.672   5.201   2.128 -0.5782 -0.0585 -0.5771
  658MOL0     C90692   4.815   5.217   2.133  0.2742  1.1957 -0.1992
  658MOL0     C90693   4.886   5.266   2.027  1.0896  0.3654 -1.0810
  658MOL0     C90694   5.032   5.300   2.062 -0.0875 -0.2287  0.1165
  658MOL0     C90695   4.807   5.294   1.913 -0.1056 -0.0532  0.4788
  658MOL0     C90696   4.871   5.344   1.785 -0.2456 -0.6015 -0.6330
  658MOL0     O90697   4.974   5.267   1.737  0.4131 -0.7800  0.3168
  658MOL0     C90698   5.045   5.287   1.620 -0.6422 -0.2162  0.2128
  658MOL0     C90699   5.146   5.195   1.578 -0.0518 -0.9344 -0.7583
  658MOL0     C90700   5.245   5.227   1.488  1.0212  1.0099  0.6735
  658MOL0     C90701   5.248   5.353   1.419  0.1786  0.3150 -0.5385
  658MOL0     O90702   5.346   5.405   1.334  0.0788  0.4114 -0.6663
  658MOL0     C90703   5.401   5.309   1.246  0.3174  0.8236 -1.8185
  658MOL0     C90704   5.415   5.380   1.114 -0.6706  0.2838 -0.2315
  658MOL0     C90705   5.502   5.287   1.020 -0.7851 -0.5534 -0.1917
  658MOL0     C90706   5.520   5.374   0.901 -0.3398 -0.6895  0.0882
  658MOL0     C90707   5.609   5.290   0.808 -0.0178  0.1002  0.0038
  658MOL0     C90708   5.645   5.348   0.671 -0.6254 -0.5114 -0.0515
  658MOL0     C90709   5.536   5.292   0.575  0.1519  0.0199 -0.7260
  658MOL0     C90710   5.553   5.369   0.447  0.4565  0.5361  0.8396
  658MOL0    Cl90711   5.483   5.271   0.306 -0.5475  0.2643 -0.1720
  658MOL0     C90712   5.146   5.444   1.462  0.9306 -1.0482 -0.0109
  658MOL0     C90713   5.045   5.409   1.553 -0.1059  0.4663  0.7568
  658MOL0     O90714   4.834   5.448   1.746  0.2262 -0.5348 -0.0735
  658MOL0     C90715   4.667   5.290   1.907 -0.2515  0.7872 -0.0895
  658MOL0     C90716   4.588   5.254   2.022  0.1118  0.4760  0.0545
  658MOL0     N90717   4.032   5.317   2.418  0.2520  0.0048  0.2129
  658MOL0     N90718   3.997   5.379   2.529 -0.1721 -0.0772 -0.2064
  658MOL0     C90719   4.215   5.836   3.513 -0.6411 -0.9278  0.2314
  658MOL0     C90720   4.210   5.977   3.494  0.5673 -0.5179 -0.1996
  658MOL0     C90721   4.093   6.396   3.361  0.1053 -1.4655 -0.4273
  658MOL0     C90722   4.198   6.484   3.333 -0.4075  0.5880 -0.9076
  658MOL0     C90723   4.188   6.594   3.241 -0.3853 -0.4503 -0.2661
  658MOL0     C90724   4.069   6.612   3.173 -1.1719  0.2214  0.4562
  658MOL0     O90725   4.045   6.706   3.078  0.3078  0.8706  0.9500
  658MOL0     C90726   4.148   6.796   3.037  0.7860  0.0437  1.0556
  658MOL0     C90727   4.223   6.741   2.919 -1.3209  0.7976 -0.2165
  658MOL0     C90728   4.375   6.770   2.925 -0.4128 -0.2541  0.3475
  658MOL0     C90729   4.409   6.911   2.956 -0.4422 -0.4289  0.1901
  658MOL0     C90730   4.348   6.994   2.850 -0.0197  1.6290  0.4024
  658MOL0     C90731   4.301   7.058   2.762 -0.4242 -0.1851 -0.4966
  658MOL0     C90732   3.963   6.523   3.202 -1.3610  0.4311  0.7313
  658MOL0     C90733   3.971   6.412   3.290 -0.8690 -0.1680  0.3730
  658MOL0     C90734   3.847   6.323   3.315 -0.4241  0.9642 -0.5493
  658MOL0     H90735   4.102   5.992   3.179 -1.6879  1.7458  0.4241
  658MOL0     H90736   4.124   5.736   3.204  2.8477  0.4271 -2.2556
  658MOL0     H90737   3.992   5.581   3.399  0.6005  1.2295  1.1898
  658MOL0     H90738   4.046   5.563   3.560 -0.5545  0.2593 -0.4887
  658MOL0     H90739   4.169   5.381   3.549  1.2839 -0.1876  0.2309
  658MOL0     H90740   4.015   5.339   3.484  2.5662 -2.5605  0.5204
  658MOL0     H90741   4.248   5.402   3.299  0.6689 -1.4279 -2.6200
  658MOL0     H90742   4.200   5.239   3.357 -1.1424 -0.4609  0.3692
  658MOL0     H90743   3.956   5.286   3.284 -0.8553  2.3004 -2.5520
  658MOL0     H90744   4.020   5.435   3.223 -1.8964 -0.4817 -1.1700
  658MOL0     H90745   4.065   5.156   3.123  1.8909  0.0175 -0.1731
  658MOL0     H90746   4.184   5.288   3.096  0.3537 -0.1263  2.9801
  658MOL0     H90747   3.889   5.309   3.022 -0.3570  2.0006  0.1389
  658MOL0     H90748   4.015   5.428   2.980 -0.0853 -0.7509  0.5352
  658MOL0     H90749   3.998   5.140   2.882  1.9162 -0.2944 -0.1853
  658MOL0     H90750   4.125   5.272   2.851  1.2358  2.1556  3.2146
  658MOL0     H90751   3.838   5.262   2.777 -0.5186  1.4149  1.3421
  658MOL0     H90752   3.930   5.408   2.768 -0.6581 -0.0044 -1.3227
  658MOL0     H90753   4.082   5.084   2.652 -3.9872  0.4963  1.6867
  658MOL0     H90754   4.195   5.182   2.279  1.6584  0.4813  0.2534
  658MOL0     H90755   4.142   5.030   2.350  0.7401 -1.0084  1.0242
  658MOL0     H90756   4.348   5.204   2.503  0.3075 -1.3505  2.9030
  658MOL0     H90757   4.306   5.041   2.532  0.9511  2.6937  2.6329
  658MOL0     H90758   4.520   5.021   2.417 -0.5089 -1.1734  0.4196
  658MOL0     H90759   4.398   4.952   2.324  0.9062 -0.4102  0.2030
  658MOL0     H90760   4.435   5.054   2.152  0.1308  0.2441 -0.8787
  658MOL0     H90761   4.414   5.214   2.215 -0.9904 -1.5572 -1.5172
  658MOL0     H90762   4.863   5.179   2.222  0.9422  2.3594 -0.0368
  658MOL0     H90763   5.090   5.348   1.982  0.0628  3.5759  2.2641
  658MOL0     H90764   5.083   5.207   2.089 -0.3955 -0.1094  1.1523
  658MOL0     H90765   5.039   5.370   2.146 -1.6968 -1.6107  1.4538
  658MOL0     H90766   5.160   5.117   1.652  0.6385 -0.8185 -0.7604
  658MOL0     H90767   5.317   5.150   1.464  1.1582  2.0410 -2.7047
  658MOL0     H90768   5.498   5.271   1.280 -0.3822  0.4266 -0.1525
  658MOL0     H90769   5.340   5.220   1.231  0.8824 -0.3528  1.8294
  658MOL0     H90770   5.318   5.399   1.067 -0.2865  0.3915 -0.9892
  658MOL0     H90771   5.459   5.480   1.122 -1.5504  0.8915 -2.3288
  658MOL0     H90772   5.448   5.194   1.000 -2.7915  0.2064  1.4300
  658MOL0     H90773   5.601   5.270   1.065 -1.9130  0.6201  3.0323
  658MOL0     H90774   5.573   5.462   0.938 -0.9283 -0.7307  1.0865
  658MOL0     H90775   5.424   5.395   0.853  0.8051  0.8966 -1.6460
  658MOL0     H90776   5.698   5.286   0.872 -1.3347  0.6767  1.9734
  658MOL0     H90777   5.560   5.193   0.798 -2.7379  1.3769 -0.0484
  658MOL0     H90778   5.741   5.302   0.649 -0.3899 -0.3050  0.5172
  658MOL0     H90779   5.654   5.455   0.691 -1.9301 -0.0829 -1.5202
  658MOL0     H90780   5.433   5.302   0.609 -0.9032 -1.6275 -3.1559
  658MOL0     H90781   5.548   5.184   0.568 -0.0001 -0.1350  0.9120
  658MOL0     H90782   5.661   5.381   0.438  0.5936 -0.7753  0.4917
  658MOL0     H90783   5.505   5.467   0.456  0.2046  0.9657 -3.1946
  658MOL0     H90784   5.146   5.546   1.424 -2.1671 -1.1864 -0.6719
  658MOL0     H90785   4.985   5.487   1.598  1.4492  0.6213  2.7266
  658MOL0     H90786   4.613   5.318   1.817 -1.0866  0.1918  0.2156
  658MOL0     H90787   4.480   5.254   2.029 -0.0019  2.5499 -0.8411
  658MOL0     H90788   4.256   5.801   3.607  1.8947 -1.4657 -0.9735
  658MOL0     H90789   4.240   6.034   3.581  2.0659 -1.0505 -0.3326
  658MOL0     H90790   4.295   6.465   3.378 -0.1233  0.8013 -1.4271
  658MOL0     H90791   4.278   6.648   3.213  0.5147 -1.6172  0.2821
  658MOL0     H90792   4.111   6.893   3.005  0.7147  0.5406  2.5735
  658MOL0     H90793   4.211   6.823   3.123  1.0926  2.7464  0.0729
  658MOL0     H90794   4.179   6.766   2.821 -1.1218  0.0361 -0.5068
  658MOL0     H90795   4.212   6.633   2.921  3.7637  0.0521 -0.1417
  658MOL0     H90796   4.406   6.704   3.007 -1.7600 -0.6237  0.5808
  658MOL0     H90797   4.418   6.745   2.827 -1.2372  2.7882 -0.8834
  658MOL0     H90798   4.516   6.924   2.940 -0.7793  0.2939 -1.7486
  658MOL0     H90799   4.380   6.944   3.057 -3.1076  2.2976 -1.2985
  658MOL0     H90800   4.255   7.112   2.682 -0.7561  0.2610 -0.0151
  658MOL0     H90801   3.871   6.539   3.146  0.0298  1.8123 -1.3378
  658MOL0     H90802   3.760   6.359   3.259 -0.4734 -0.3243 -1.3297
  658MOL0     H90803   3.866   6.221   3.281 -2.7985  0.3892 -0.3014
  658MOL0     H90804   3.812   6.314   3.419 -0.3269  0.6694 -0.5423
  659MOL0     O90805   4.147   1.221   1.383 -0.0260  0.4766 -0.0305
  659MOL0     C90806   4.193   1.288   1.475  0.4924 -0.0482 -0.2891
  659MOL0     O90807   4.143   1.413   1.534  0.1795 -0.4427 -0.0667
  659MOL0     C90808   4.050   1.469   1.447 -1.0343 -0.8838 -0.2054
  659MOL0     C90809   3.918   1.425   1.445  0.6055  0.2213 -0.1248
  659MOL0     C90810   3.828   1.487   1.352 -0.3718  0.3156 -0.9116
  659MOL0     C90811   3.864   1.592   1.282 -0.2028 -0.0154  0.8643
  659MOL0     O90812   3.771   1.638   1.189 -0.2644  0.4011 -0.0682
  659MOL0     C90813   3.792   1.768   1.135  0.6568  0.0497  0.3249
  659MOL0     C90814   3.672   1.810   1.049  0.0034  0.4966  0.3212
  659MOL0     C90815   3.560   1.881   1.125 -0.3876  0.0488 -0.3773
  659MOL0     C90816   3.583   2.020   1.184 -0.1404 -0.3675 -0.1428
  659MOL0     C90817   3.454   2.103   1.217 -0.7114 -0.1267 -0.4936
  659MOL0     C90818   3.367   2.017   1.318 -0.7146 -0.0075  0.6059
  659MOL0     C90819   3.234   2.090   1.326  0.0463 -0.9086 -0.3569
  659MOL0     C90820   3.123   1.997   1.375 -0.2793  0.3343 -0.3015
  659MOL0     N90821   3.143   1.979   1.512  0.4362  0.2361  0.1336
  659MOL0     C90822   3.238   1.900   1.575  0.0101 -0.9204  0.4868
  659MOL0     C90823   3.218   1.928   1.714 -0.4816 -0.8743  0.4291
  659MOL0     C90824   3.317   1.886   1.824  0.1907  0.3637 -1.4270
  659MOL0     C90825   3.320   1.733   1.847  0.3236 -0.0852 -0.3245
  659MOL0     C90826   3.324   1.702   1.999  0.4383  0.5902 -1.0462
  659MOL0     C90827   3.453   1.674   2.070  0.0995 -0.0246 -0.3270
  659MOL0     O90828   3.542   1.777   2.031 -0.7201  0.3421 -0.0152
  659MOL0     C90829   3.668   1.786   2.090 -0.2890 -0.0098  1.2796
  659MOL0     C90830   3.726   1.690   2.175 -0.7991 -0.5224  1.1835
  659MOL0     C90831   3.847   1.703   2.247  0.2051 -0.4660  0.4548
  659MOL0     C90832   3.911   1.600   2.321 -0.4640  1.0142 -0.3752
  659MOL0     C90833   3.912   1.828   2.234  0.0397 -0.2041  0.1033
  659MOL0     C90834   4.018   1.870   2.318  0.0814 -0.0604 -0.8714
  659MOL0     O90835   3.987   1.967   2.402 -0.0809  0.4786  0.1858
  659MOL0     C90836   4.048   1.981   2.524  0.3669  0.9537  0.0466
  659MOL0     C90837   4.087   1.866   2.606  0.1327  0.1187 -0.7752
  659MOL0     C90838   4.120   1.887   2.740 -0.3099  0.7438 -0.3556
  659MOL0     C90839   4.118   2.012   2.801  0.0762 -0.7187 -0.6137
  659MOL0     O90840   4.141   2.019   2.932 -0.3062 -0.3506 -0.2523
  659MOL0     C90841   4.158   2.147   3.006  0.9736 -0.1180  0.6113
  659MOL0     C90842   4.273   2.152   3.103 -0.2765 -0.6411 -0.6481
  659MOL0     C90843   4.280   2.298   3.161 -0.5567  0.5241  0.3152
  659MOL0     C90844   4.345   2.391   3.061  1.0698  0.1393  0.3121
  659MOL0     C90845   4.360   2.527   3.138 -0.0411 -0.0711 -0.2837
  659MOL0     C90846   4.432   2.633   3.051  0.2888 -0.1022  1.0320
  659MOL0     C90847   4.562   2.583   2.993  0.5562  0.2586  0.0598
  659MOL0     C90848   4.653   2.696   2.931  0.2716  0.0628  0.6860
  659MOL0    Cl90849   4.564   2.844   2.881 -0.1475  0.0606  0.4247
  659MOL0     C90850   4.066   2.119   2.723  0.4576 -0.8238 -0.1963
  659MOL0     C90851   4.041   2.109   2.584 -0.6108  0.1958 -0.4918
  659MOL0     O90852   4.126   1.818   2.309 -0.2341 -0.1351 -0.1025
  659MOL0     C90853   3.857   1.927   2.149 -0.6425 -0.6088  0.3286
  659MOL0     C90854   3.739   1.906   2.071 -0.6741  0.0465  0.7654
  659MOL0     N90855   3.112   2.012   1.723 -0.0028 -0.6583  0.1227
  659MOL0     N90856   3.070   2.049   1.608 -0.4793 -0.2927 -0.1867
  659MOL0     C90857   3.996   1.640   1.278 -0.7212  0.9738  0.1905
  659MOL0     C90858   4.091   1.577   1.366 -0.0391 -0.8033  0.3798
  659MOL0     C90859   4.317   1.239   1.519  0.4690 -0.6901 -0.3218
  659MOL0     C90860   4.323   1.113   1.574  0.0792  0.7749 -0.0984
  659MOL0     C90861   4.442   1.056   1.603  0.0464  0.1260 -0.4516
  659MOL0     C90862   4.556   1.129   1.605 -0.1932  0.0960  0.5459
  659MOL0     O90863   4.678   1.069   1.643  0.1052 -0.1837 -0.7975
  659MOL0     C90864   4.697   0.933   1.693  0.3306  0.1816 -0.5208
  659MOL0     C90865   4.694   0.844   1.572 -0.2789  0.2053  0.1644
  659MOL0     C90866   4.800   0.894   1.469  0.6887 -0.1100  0.4890
  659MOL0     C90867   4.806   0.769   1.386  0.1496  0.6575  1.1266
  659MOL0     C90868   4.904   0.788   1.282 -0.0310 -0.2654  0.2551
  659MOL0     C90869   4.992   0.791   1.203 -0.2576  0.2191  0.1816
  659MOL0     C90870   4.554   1.263   1.581 -0.8317  0.3646  0.5991
  659MOL0     C90871   4.437   1.324   1.537  0.8242 -0.8750  0.8258
  659MOL0     C90872   4.448   1.460   1.479 -0.2431  0.4698 -0.0870
  659MOL0     H90873   3.883   1.337   1.499 -0.4284  0.2007 -0.8054
  659MOL0     H90874   3.729   1.443   1.336 -0.6282  0.7570 -0.5654
  659MOL0     H90875   3.869   1.749   1.059 -1.1275 -0.0511 -1.5328
  659MOL0     H90876   3.828   1.846   1.203 -0.2599  1.8999 -1.2111
  659MOL0     H90877   3.715   1.876   0.974  1.7965 -2.3202 -1.2707
  659MOL0     H90878   3.633   1.737   0.978  1.3744  1.4176 -1.4525
  659MOL0     H90879   3.481   1.891   1.051  0.7352  1.3942 -1.4514
  659MOL0     H90880   3.544   1.805   1.202  3.0954  0.3571  0.8270
  659MOL0     H90881   3.641   2.010   1.276 -0.5187  0.7517  0.2336
  659MOL0     H90882   3.642   2.079   1.112  2.8916 -0.2815  2.2033
  659MOL0     H90883   3.396   2.118   1.125  0.7446 -0.7619 -1.5457
  659MOL0     H90884   3.489   2.199   1.255 -0.4199 -0.8817  1.2358
  659MOL0     H90885   3.368   1.910   1.294 -0.6280 -0.5872  2.9571
  659MOL0     H90886   3.420   2.020   1.414 -0.5475  2.2268  0.4851
  659MOL0     H90887   3.186   2.117   1.231  1.3429 -1.9958 -1.3684
  659MOL0     H90888   3.246   2.178   1.389 -0.5684 -1.9089  1.2212
  659MOL0     H90889   3.023   2.040   1.374 -1.1534 -1.1072  3.9217
  659MOL0     H90890   3.134   1.911   1.309 -3.4420 -0.7376  0.4106
  659MOL0     H90891   3.313   1.844   1.520  0.1390  2.2961 -2.9683
  659MOL0     H90892   3.283   1.937   1.914 -1.3202 -1.1544 -1.0791
  659MOL0     H90893   3.415   1.929   1.804  1.1337  0.8094  3.1852
  659MOL0     H90894   3.229   1.690   1.806 -0.9476  0.8042  1.4439
  659MOL0     H90895   3.405   1.679   1.804  1.1598  0.5310  0.5106
  659MOL0     H90896   3.273   1.786   2.047  1.8931  2.9520 -3.3678
  659MOL0     H90897   3.252   1.624   2.024  0.3991  0.4474 -1.5823
  659MOL0     H90898   3.438   1.680   2.178 -0.1369 -1.3732 -0.2714
  659MOL0     H90899   3.486   1.574   2.039 -0.7248 -0.5362  0.4034
  659MOL0     H90900   3.664   1.603   2.195 -1.2239 -1.4847 -3.3091
  659MOL0     H90901   3.833   1.531   2.355 -1.7943  1.7997 -1.6871
  659MOL0     H90902   3.977   1.623   2.404  0.2231  1.3430 -0.9995
  659MOL0     H90903   3.959   1.534   2.248  1.1362  0.9803  0.6776
  659MOL0     H90904   4.098   1.764   2.569 -2.5034 -0.1111 -1.0807
  659MOL0     H90905   4.160   1.795   2.782 -5.9802 -1.8597  0.2301
  659MOL0     H90906   4.166   2.235   2.942  1.4420 -0.1136  0.6694
  659MOL0     H90907   4.060   2.165   3.052  0.6746 -2.9599  1.2577
  659MOL0     H90908   4.258   2.080   3.184 -3.1379 -0.3612 -0.8173
  659MOL0     H90909   4.372   2.123   3.067  1.7001  1.6198  2.3951
  659MOL0     H90910   4.342   2.287   3.250 -1.3433  1.2078  0.9666
  659MOL0     H90911   4.182   2.334   3.195 -0.8377  3.4433 -2.9725
  659MOL0     H90912   4.291   2.398   2.966 -1.9080 -0.7738  1.8225
  659MOL0     H90913   4.440   2.352   3.022  1.1103  1.5616 -1.1564
  659MOL0     H90914   4.262   2.561   3.172 -0.0421 -2.5212  2.5722
  659MOL0     H90915   4.424   2.516   3.226 -0.2680  0.4566 -0.0477
  659MOL0     H90916   4.437   2.732   3.098 -2.9255  0.8651 -0.4344
  659MOL0     H90917   4.370   2.638   2.961  0.6406 -1.2043  0.7110
  659MOL0     H90918   4.538   2.509   2.917  1.6762 -1.7062  1.5086
  659MOL0     H90919   4.620   2.535   3.072 -0.2595 -1.4062 -0.3180
  659MOL0     H90920   4.708   2.667   2.842 -0.3032 -1.0239  0.6660
  659MOL0     H90921   4.728   2.720   3.007  2.1758 -4.0885  0.3480
  659MOL0     H90922   4.062   2.218   2.767 -0.1219 -0.5788 -0.7794
  659MOL0     H90923   3.993   2.189   2.528 -0.9421  0.7387  0.5526
  659MOL0     H90924   3.891   2.030   2.141  2.0730 -1.3276  1.5848
  659MOL0     H90925   3.705   1.976   1.996  3.1798  2.1241  0.6973
  659MOL0     H90926   4.033   1.724   1.221  1.4499  1.7501  2.5871
  659MOL0     H90927   4.190   1.620   1.371 -0.5840  0.3989  1.5925
  659MOL0     H90928   4.235   1.051   1.589 -1.5427  2.6279 -1.4746
  659MOL0     H90929   4.439   0.956   1.645 -2.2737  0.6955  0.8700
  659MOL0     H90930   4.802   0.929   1.721  1.0287 -1.4925 -3.1104
  659MOL0     H90931   4.630   0.904   1.775 -0.7969 -0.1321 -1.5199
  659MOL0     H90932   4.592   0.828   1.535 -0.8003  0.2368  1.5462
  659MOL0     H90933   4.715   0.741   1.603 -1.3290  0.3064  1.3007
  659MOL0     H90934   4.774   0.988   1.418  0.3936 -0.3329  0.2229
  659MOL0     H90935   4.896   0.916   1.516  0.5048  1.2779  0.2768
  659MOL0     H90936   4.711   0.754   1.333  1.3980 -1.2469 -0.7100
  659MOL0     H90937   4.836   0.681   1.443  1.9464  0.9925  0.7484
  659MOL0     H90938   5.078   0.781   1.140 -1.1987 -0.6224 -1.0200
  659MOL0     H90939   4.655   1.303   1.584 -1.3282  1.6705  0.8368
  659MOL0     H90940   4.390   1.465   1.387 -3.0228 -1.3641  1.3993
  659MOL0     H90941   4.418   1.535   1.553  1.0663 -0.3639  1.3487
  659MOL0     H90942   4.551   1.481   1.449 -0.5756 -1.3392 -2.7328
  660MOL0     O90943   1.985   1.203   4.252  0.2930 -0.6720 -0.5412
  660MOL0     C90944   1.872   1.163   4.273  0.2817  0.2047 -0.8055
  660MOL0     O90945   1.809   1.070   4.200 -0.0312  0.0992 -0.4200
  660MOL0     C90946   1.873   1.035   4.086 -0.2249  0.1858 -0.0206
  660MOL0     C90947   1.928   0.909   4.093 -0.7459 -0.1013  0.4324
  660MOL0     C90948   1.998   0.852   3.980 -0.0487 -0.0117 -0.3446
  660MOL0     C90949   2.012   0.928   3.866  0.3158 -0.2896  0.6506
  660MOL0     O90950   2.094   0.908   3.756  0.1996 -0.4298  0.0818
  660MOL0     C90951   2.218   0.849   3.786 -0.1547 -0.2649  0.0477
  660MOL0     C90952   2.270   0.761   3.671 -0.3369  0.6318  0.0757
  660MOL0     C90953   2.233   0.832   3.531 -0.0613 -0.1983 -1.1118
  660MOL0     C90954   2.285   0.767   3.400  0.5419 -0.2889 -0.2215
  660MOL0     C90955   2.184   0.662   3.347  0.4164  0.2661 -0.5706
  660MOL0     C90956   2.238   0.600   3.222  0.7345 -0.4444 -0.5217
  660MOL0     C90957   2.261   0.688   3.104 -0.3695 -0.3833 -0.8890
  660MOL0     C90958   2.344   0.611   3.000 -0.4859 -0.9105 -1.0079
  660MOL0     N90959   2.250   0.508   2.942 -0.1330  0.0061 -0.3083
  660MOL0     C90960   2.120   0.528   2.907 -0.0100  0.2812 -0.2994
  660MOL0     C90961   2.068   0.407   2.900  0.8785  0.0293 -0.0315
  660MOL0     C90962   1.922   0.363   2.881 -1.0121  0.5045  0.0494
  660MOL0     C90963   1.861   0.320   3.009  0.2165 -0.1820  0.3142
  660MOL0     C90964   1.840   0.420   3.124 -1.1768 -0.4721  0.3496
  660MOL0     C90965   1.723   0.505   3.103  0.7015  1.1076  0.0003
  660MOL0     O90966   1.706   0.601   3.213 -0.0484  0.4177  0.4557
  660MOL0     C90967   1.601   0.691   3.190 -0.3124  0.6530 -0.0898
  660MOL0     C90968   1.548   0.724   3.064 -0.0399 -0.3519  0.7454
  660MOL0     C90969   1.438   0.801   3.032 -0.1372 -0.0424 -0.3814
  660MOL0     C90970   1.404   0.837   2.891 -0.2584 -0.6495  1.2498
  660MOL0     C90971   1.378   0.845   3.145 -0.2566 -0.4326 -0.4620
  660MOL0     C90972   1.267   0.936   3.129  0.3218  0.0386  0.1322
  660MOL0     O90973   1.133   0.894   3.169  0.2658  0.7639 -0.5068
  660MOL0     C90974   1.099   0.764   3.140 -0.2828 -0.0863 -0.4516
  660MOL0     C90975   1.135   0.666   3.240  0.1221  0.0216  1.0803
  660MOL0     C90976   1.069   0.537   3.223 -0.6698  0.5907 -0.6732
  660MOL0     C90977   0.994   0.507   3.108  0.3275 -0.4523 -0.6315
  660MOL0     O90978   0.938   0.389   3.097  0.3599  0.8534  0.0705
  660MOL0     C90979   0.981   0.313   2.980  0.6337  0.9718  0.0999
  660MOL0     C90980   0.977   0.164   3.005 -0.5435  0.5455  0.2691
  660MOL0     C90981   1.080   0.111   3.115 -0.6199 -0.3992  0.1891
  660MOL0     C90982   1.057   0.156   3.262 -0.8430  0.4926 -0.3025
  660MOL0     C90983   1.163   0.110   3.366  0.6850  0.6110 -0.2163
  660MOL0     C90984   1.156  -0.038   3.412  0.0532  0.1369  0.6853
  660MOL0     C90985   1.252  -0.081   3.534  0.0098 -0.2691 -0.2244
  660MOL0     C90986   1.228  -0.005   3.661  1.2211 -1.0523 -0.6187
  660MOL0    Cl90987   1.058  -0.010   3.731 -0.3178  0.1494  0.2212
  660MOL0     C90988   0.982   0.601   3.006 -0.2333 -0.4959 -0.8872
  660MOL0     C90989   1.051   0.724   3.014 -0.0057  0.5132 -0.2557
  660MOL0     O90990   1.287   1.046   3.089  0.3730 -0.0698 -0.2931
  660MOL0     C90991   1.421   0.814   3.281  0.3962 -1.2058 -0.1283
  660MOL0     C90992   1.527   0.736   3.300 -1.0081  0.1105  0.0342
  660MOL0     N90993   2.163   0.307   2.929 -0.8177 -0.2965  0.4448
  660MOL0     N90994   2.273   0.372   2.948  0.2389  0.2516  0.4206
  660MOL0     C90995   1.957   1.058   3.871  0.1663 -1.4870 -1.3607
  660MOL0     C90996   1.901   1.108   3.977  0.9290 -0.5006 -0.3029
  660MOL0     C90997   1.797   1.197   4.407  0.7499  0.2745  0.2900
  660MOL0     C90998   1.698   1.111   4.447  1.1235 -0.6021  0.0582
  660MOL0     C90999   1.612   1.150   4.552  0.5447 -0.4053 -0.4692
  660MOL0     C91000   1.630   1.268   4.621  0.8998 -0.0171  0.1243
  660MOL0     O91001   1.544   1.298   4.724  0.1260  0.3205 -0.1576
  660MOL0     C91002   1.410   1.296   4.707  0.6565 -0.4284 -0.1764
  660MOL0     C91003   1.372   1.442   4.657 -0.1915 -0.3743  0.5042
  660MOL0     C91004   1.359   1.460   4.503  0.4149  0.3442  0.7643
  660MOL0     C91005   1.460   1.549   4.427 -0.5087 -0.2196 -0.3855
  660MOL0     C91006   1.401   1.597   4.307  0.1949 -1.3166 -0.6255
  660MOL0     C91007   1.344   1.650   4.212  1.2553 -0.1560 -0.1373
  660MOL0     C91008   1.732   1.352   4.578 -0.4406 -0.0149  0.4425
  660MOL0     C91009   1.820   1.322   4.470  0.5028 -0.5147 -0.3127
  660MOL0     C91010   1.913   1.431   4.430  0.3640 -0.4763  1.1740
  660MOL0     H91011   1.922   0.847   4.182  1.6738 -1.9696 -0.6063
  660MOL0     H91012   2.045   0.755   3.989  2.6568  1.3256  0.9389
  660MOL0     H91013   2.217   0.779   3.871  0.9854 -3.2448 -2.1974
  660MOL0     H91014   2.291   0.926   3.811 -1.7091  1.3523 -0.2253
  660MOL0     H91015   2.372   0.722   3.673 -1.3234 -2.5107 -1.9621
  660MOL0     H91016   2.211   0.668   3.671 -2.6634  2.0315  1.0120
  660MOL0     H91017   2.123   0.830   3.530 -0.0541 -0.5595 -1.6176
  660MOL0     H91018   2.267   0.936   3.531  0.8240 -0.4509  0.8075
  660MOL0     H91019   2.300   0.849   3.328  1.5187  0.9307  1.3088
  660MOL0     H91020   2.383   0.720   3.408  0.8122  0.3972  0.6932
  660MOL0     H91021   2.084   0.705   3.338  0.5239  1.7084  3.2194
  660MOL0     H91022   2.185   0.590   3.430 -1.3568  1.7809  0.8728
  660MOL0     H91023   2.328   0.542   3.246  0.0241 -1.5485 -0.4755
  660MOL0     H91024   2.179   0.518   3.181 -1.2442  0.9805 -0.6751
  660MOL0     H91025   2.324   0.773   3.130 -2.1686  1.2424 -1.5537
  660MOL0     H91026   2.164   0.722   3.065 -0.7747  2.1701  1.9581
  660MOL0     H91027   2.398   0.668   2.924  3.7295  0.0421  2.3239
  660MOL0     H91028   2.429   0.562   3.047 -0.4904 -0.9998 -1.0926
  660MOL0     H91029   2.067   0.622   2.890 -1.2967 -0.4912 -0.7485
  660MOL0     H91030   1.919   0.284   2.806 -3.0571  3.0970 -2.8512
  660MOL0     H91031   1.862   0.440   2.831 -1.2227 -2.7589 -5.4944
  660MOL0     H91032   1.761   0.280   2.991 -1.8732  3.7512  1.9173
  660MOL0     H91033   1.930   0.243   3.045  2.9248  2.0526  0.3090
  660MOL0     H91034   1.821   0.368   3.219 -2.2304  0.5038  0.7014
  660MOL0     H91035   1.926   0.485   3.142 -1.4684  1.0453 -3.0077
  660MOL0     H91036   1.747   0.558   3.010  2.8935 -0.0015 -0.1162
  660MOL0     H91037   1.634   0.441   3.101  2.1141 -1.0958  2.6198
  660MOL0     H91038   1.612   0.705   2.979  0.6817  3.5148  0.2593
  660MOL0     H91039   1.369   0.751   2.834  0.8850  0.8988 -2.0331
  660MOL0     H91040   1.491   0.878   2.839 -1.7336  1.0619 -0.0280
  660MOL0     H91041   1.324   0.911   2.880  1.3802  1.1307  0.6682
  660MOL0     H91042   1.182   0.693   3.334  1.7528 -0.8496  0.5528
  660MOL0     H91043   1.083   0.465   3.303 -0.3186  0.2468 -1.0491
  660MOL0     H91044   0.930   0.336   2.886  1.7008  0.7644 -0.5411
  660MOL0     H91045   1.084   0.326   2.946  0.3146 -1.2108 -2.0051
  660MOL0     H91046   0.878   0.122   3.027 -0.4238 -1.7177 -2.8170
  660MOL0     H91047   1.004   0.115   2.911  0.2972 -1.2462  1.3879
  660MOL0     H91048   1.180   0.145   3.085 -1.6381  0.6104 -2.3436
  660MOL0     H91049   1.091   0.002   3.116 -0.5417 -0.3926  0.1514
  660MOL0     H91050   0.957   0.127   3.296 -0.4640  0.4732  0.8397
  660MOL0     H91051   1.061   0.265   3.265 -0.6086  0.4971 -0.7718
  660MOL0     H91052   1.260   0.140   3.324  1.1470 -0.1258  0.2887
  660MOL0     H91053   1.151   0.167   3.459  2.7605 -1.3295  1.3793
  660MOL0     H91054   1.173  -0.107   3.329 -0.6087 -1.1524  1.5763
  660MOL0     H91055   1.054  -0.064   3.441  0.1519 -2.1535 -0.8117
  660MOL0     H91056   1.358  -0.076   3.507  0.8951  0.3678  3.0013
  660MOL0     H91057   1.240  -0.187   3.557 -0.7693 -0.0464  0.4064
  660MOL0     H91058   1.262   0.097   3.644  1.4179 -1.1475 -0.8009
  660MOL0     H91059   1.306  -0.041   3.729  0.7035  1.4630  1.4536
  660MOL0     H91060   0.924   0.568   2.921 -1.1952 -2.1846  0.3456
  660MOL0     H91061   1.054   0.793   2.931 -2.4703  1.6369  0.4750
  660MOL0     H91062   1.376   0.858   3.370  0.3050 -1.5911  0.0194
  660MOL0     H91063   1.566   0.729   3.401  0.3764  0.4525 -0.4576
  660MOL0     H91064   1.977   1.115   3.781  1.5211 -2.7382 -1.8864
  660MOL0     H91065   1.851   1.204   3.970 -0.4727 -1.2296 -0.6572
  660MOL0     H91066   1.671   1.020   4.393  0.5618 -1.1001  1.1413
  660MOL0     H91067   1.543   1.077   4.592  0.9526 -0.2536  0.5365
  660MOL0     H91068   1.376   1.220   4.636 -2.5800 -1.0083  1.7773
  660MOL0     H91069   1.371   1.283   4.809 -0.0648  1.0777 -0.2313
  660MOL0     H91070   1.442   1.522   4.683 -1.2017  1.2657 -1.4884
  660MOL0     H91071   1.273   1.465   4.698 -1.7045 -2.5536 -1.6504
  660MOL0     H91072   1.364   1.357   4.465  0.3308  0.6084  0.0217
  660MOL0     H91073   1.262   1.505   4.483  0.2220 -0.4992 -0.3044
  660MOL0     H91074   1.556   1.497   4.417  0.2611  0.7844  1.3785
  660MOL0     H91075   1.479   1.635   4.492  0.2950 -0.9524  0.3865
  660MOL0     H91076   1.305   1.680   4.117 -0.8305  1.4727  1.1499
  660MOL0     H91077   1.751   1.439   4.640  3.5504 -1.7772  2.0641
  660MOL0     H91078   2.017   1.401   4.446  1.8622  3.6112  0.3403
  660MOL0     H91079   1.897   1.445   4.322 -0.2514 -2.1714  1.0211
  660MOL0     H91080   1.894   1.521   4.488  0.3840 -0.1793  0.7293
  661MOL0     O91081  11.384   1.595   9.034 -0.5192 -0.4833  0.1620
  661MOL0     C91082  11.390   1.492   9.103  0.6441 -0.2729  0.6182
  661MOL0     O91083  11.369   1.479   9.237 -0.5057 -0.6311 -0.2115
  661MOL0     C91084  11.340   1.594   9.309 -0.2166  0.2652 -0.3124
  661MOL0     C91085  11.244   1.694   9.269  0.4795 -0.0609  0.6767
  661MOL0     C91086  11.223   1.804   9.350  1.3793  0.3610 -0.1446
  661MOL0     C91087  11.302   1.835   9.458 -0.1275 -0.2136 -0.8479
  661MOL0     O91088  11.263   1.947   9.524  0.3339  1.0391 -0.8676
  661MOL0     C91089  11.337   2.003   9.640  0.1020  0.9651  0.6714
  661MOL0     C91090  11.252   1.980   9.765  0.6078 -0.9754 -0.1374
  661MOL0     C91091  11.095   2.013   9.760 -0.3464  0.1681  0.2200
  661MOL0     C91092  11.047   2.162   9.746 -0.5355 -0.3991 -0.6575
  661MOL0     C91093  10.905   2.183   9.692 -0.0590  0.6086 -0.0580
  661MOL0     C91094  10.858   2.321   9.701 -0.2019 -0.8119 -0.0452
  661MOL0     C91095  10.710   2.309   9.679 -0.0463 -0.5722 -0.2957
  661MOL0     C91096  10.633   2.446   9.671 -1.3632  0.5615 -0.2716
  661MOL0     N91097  10.639   2.526   9.792 -0.3637  0.0349  0.0106
  661MOL0     C91098  10.748   2.598   9.844  0.4708 -0.0715 -1.6201
  661MOL0     C91099  10.702   2.643   9.960  0.6998 -0.4709 -0.4520
  661MOL0     C91100  10.791   2.712  10.058  0.6866  0.2221 -0.8820
  661MOL0     C91101  10.896   2.608  10.118 -1.1892  0.1412  0.0772
  661MOL0     C91102  10.824   2.506  10.212 -0.3005  0.1270 -0.0226
  661MOL0     C91103  10.934   2.396  10.251  0.2164 -0.3754  0.5225
  661MOL0     O91104  10.879   2.306  10.351 -0.6255 -0.4613  0.2110
  661MOL0     C91105  10.758   2.242  10.322  0.1919 -0.1170 -0.1072
  661MOL0     C91106  10.750   2.157  10.216  0.0978  0.9468  1.0768
  661MOL0     C91107  10.637   2.084  10.182 -0.7527 -0.5326  0.1968
  661MOL0     C91108  10.647   1.980  10.070 -0.3396 -0.3200 -0.3859
  661MOL0     C91109  10.518   2.124  10.252  0.2825  0.2263 -0.3658
  661MOL0     C91110  10.379   2.067  10.230 -0.4419 -0.6962  0.3683
  661MOL0     O91111  10.276   2.132  10.296 -0.3797 -0.1926  0.5236
  661MOL0     C91112  10.162   2.129  10.230  0.9319  0.4091  0.1504
  661MOL0     C91113  10.047   2.084  10.299 -0.1305 -0.3129 -0.0136
  661MOL0     C91114   9.922   2.084  10.233  0.2823  0.7719  0.5999
  661MOL0     C91115   9.908   2.129  10.099 -0.1624  0.8911 -0.4614
  661MOL0     O91116   9.794   2.130  10.018 -0.5993  0.5797 -0.1182
  661MOL0     C91117   9.662   2.107  10.080 -0.3462 -0.6199  1.0113
  661MOL0     C91118   9.545   2.116   9.983 -0.0451 -0.1369 -0.3148
  661MOL0     C91119   9.411   2.060  10.034 -0.6918  0.2118  0.5105
  661MOL0     C91120   9.291   2.156  10.000 -1.0437  0.1757 -0.2635
  661MOL0     C91121   9.157   2.082  10.019 -0.3894 -0.0666 -0.3156
  661MOL0     C91122   9.124   2.000   9.897 -0.2437  0.6315  0.1411
  661MOL0     C91123   8.995   1.923   9.908 -0.2682  0.6717 -0.2221
  661MOL0     C91124   9.006   1.784   9.842 -0.3744  0.8672 -0.2196
  661MOL0    Cl91125   8.864   1.674   9.885  0.2882  0.2902 -0.2063
  661MOL0     C91126  10.022   2.184  10.040  0.1865  0.1424  0.2554
  661MOL0     C91127  10.149   2.180  10.099  0.8153  0.4460  0.1686
  661MOL0     O91128  10.363   1.971  10.161 -0.0307  0.7248 -0.2937
  661MOL0     C91129  10.525   2.215  10.361  0.0388  0.2076 -0.4750
  661MOL0     C91130  10.647   2.270  10.398 -0.6328  0.0334  0.3627
  661MOL0     N91131  10.571   2.602   9.980  0.4647 -0.0908 -0.1461
  661MOL0     N91132  10.539   2.521   9.883  0.6913  0.3908 -0.2262
  661MOL0     C91133  11.406   1.747   9.499 -0.0635  0.5850  1.0831
  661MOL0     C91134  11.420   1.630   9.425  0.2625  0.0719 -0.4283
  661MOL0     C91135  11.450   1.373   9.043  0.2745 -0.6508  0.6039
  661MOL0     C91136  11.419   1.353   8.909  0.5134 -0.1071 -0.5155
  661MOL0     C91137  11.465   1.244   8.834 -0.3693  0.6160 -0.6308
  661MOL0     C91138  11.540   1.143   8.900  0.6897 -0.2710 -0.5522
  661MOL0     O91139  11.580   1.035   8.831 -0.1509 -0.5076  0.7154
  661MOL0     C91140  11.711   0.983   8.867 -0.1348 -0.3444  0.5370
  661MOL0     C91141  11.818   1.058   8.799 -0.2849  0.1172 -0.4344
  661MOL0     C91142  11.799   1.074   8.641 -0.6401  0.6240 -0.3949
  661MOL0     C91143  11.785   0.944   8.565 -0.5081 -0.6142  0.4033
  661MOL0     C91144  11.644   0.894   8.558  0.0772 -0.5931  0.5377
  661MOL0     C91145  11.530   0.850   8.582 -0.9626 -0.0364 -0.2367
  661MOL0     C91146  11.571   1.170   9.039  0.8648  0.3090 -0.1809
  661MOL0     C91147  11.538   1.285   9.112  0.3033  0.2781 -0.1767
  661MOL0     C91148  11.592   1.292   9.252 -0.0811 -0.0096  0.0616
  661MOL0     H91149  11.180   1.694   9.182  0.6245 -1.8847  0.5335
  661MOL0     H91150  11.137   1.866   9.329 -0.6069 -1.1102  2.8817
  661MOL0     H91151  11.337   2.111   9.625  3.2541  1.1022  1.1131
  661MOL0     H91152  11.441   1.982   9.666 -0.0013 -0.5360 -0.0598
  661MOL0     H91153  11.255   1.873   9.787  2.3312 -1.5241 -2.6363
  661MOL0     H91154  11.300   2.027   9.851  1.6280  1.2150 -1.8093
  661MOL0     H91155  11.050   1.960   9.675  1.9136  0.7329 -1.4487
  661MOL0     H91156  11.037   1.964   9.839 -0.2781 -1.0759 -0.4667
  661MOL0     H91157  11.050   2.201   9.848  1.4182 -1.5505 -0.2165
  661MOL0     H91158  11.114   2.207   9.672 -3.4083  1.3343 -2.3993
  661MOL0     H91159  10.843   2.113   9.749  2.3433 -1.5180  0.1409
  661MOL0     H91160  10.901   2.157   9.585 -0.8694  2.0907 -0.4114
  661MOL0     H91161  10.871   2.367   9.799 -5.0032 -0.1642  0.5632
  661MOL0     H91162  10.908   2.381   9.625  0.5059 -1.3889 -0.0440
  661MOL0     H91163  10.657   2.256   9.758  0.2699  1.7681  1.6052
  661MOL0     H91164  10.691   2.257   9.585 -0.4328 -2.3826  0.7562
  661MOL0     H91165  10.676   2.499   9.585 -0.5565 -0.1393 -0.3169
  661MOL0     H91166  10.527   2.426   9.650 -0.9104  1.2580 -3.8531
  661MOL0     H91167  10.850   2.602   9.808  2.5063  0.1855  3.3883
  661MOL0     H91168  10.727   2.749  10.140 -1.0514 -1.0063 -1.6198
  661MOL0     H91169  10.842   2.794  10.006  2.1237 -0.4131 -0.5019
  661MOL0     H91170  10.946   2.566  10.030 -1.5932 -0.2845  0.0462
  661MOL0     H91171  10.984   2.651  10.167  2.1813 -4.9898 -0.6490
  661MOL0     H91172  10.776   2.547  10.302 -3.0622 -0.4518 -1.1197
  661MOL0     H91173  10.752   2.462  10.142  1.0997 -4.4589  1.0696
  661MOL0     H91174  10.964   2.348  10.158 -0.7307  3.0744 -1.7544
  661MOL0     H91175  11.024   2.434  10.299  0.3866  0.3546 -0.3534
  661MOL0     H91176  10.836   2.148  10.150 -1.2844  0.8690 -0.8108
  661MOL0     H91177  10.574   1.996   9.990  1.0011 -0.0799 -1.5900
  661MOL0     H91178  10.609   1.884  10.106 -0.8095  0.8320  2.4946
  661MOL0     H91179  10.745   1.973  10.022 -0.3390 -0.5665 -0.3506
  661MOL0     H91180  10.051   2.054  10.404 -1.7892  0.8721  0.4341
  661MOL0     H91181   9.837   2.044  10.288  2.3208 -1.1408  2.5785
  661MOL0     H91182   9.645   2.015  10.136 -5.4532 -0.5111  0.1668
  661MOL0     H91183   9.652   2.181  10.160  0.7693 -1.6767  2.1650
  661MOL0     H91184   9.526   2.218   9.946  0.4768  0.1271  0.1305
  661MOL0     H91185   9.579   2.068   9.890  1.3503 -0.7032  0.4567
  661MOL0     H91186   9.422   2.049  10.142  3.0110 -0.1228  0.2113
  661MOL0     H91187   9.390   1.958  10.000  1.1909  0.0961 -0.4358
  661MOL0     H91188   9.297   2.194   9.898  0.7246 -1.8129 -0.9674
  661MOL0     H91189   9.296   2.237  10.074  1.3736 -0.2803  0.1524
  661MOL0     H91190   9.159   2.042  10.120  0.0221  1.2894  0.2371
  661MOL0     H91191   9.080   2.155  10.045 -0.8819 -0.5401 -0.4157
  661MOL0     H91192   9.205   1.929   9.874  0.4456  1.5604 -0.3434
  661MOL0     H91193   9.118   2.074   9.817 -0.3198  1.2073  0.6742
  661MOL0     H91194   8.903   1.968   9.869  0.9939  2.2184 -1.5837
  661MOL0     H91195   8.968   1.901  10.012 -3.7354  0.8374 -0.9639
  661MOL0     H91196   9.099   1.737   9.876  1.2746  4.0139 -0.0279
  661MOL0     H91197   9.008   1.790   9.733  2.4211 -0.5643 -0.3532
  661MOL0     H91198  10.018   2.206   9.934 -1.2835  1.6353  0.5646
  661MOL0     H91199  10.240   2.225  10.060  0.1793  0.8827 -0.8462
  661MOL0     H91200  10.447   2.241  10.432  1.3700  3.5299 -0.0375
  661MOL0     H91201  10.668   2.327  10.488  0.3283 -2.5278  1.8732
  661MOL0     H91202  11.475   1.773   9.579  0.0191 -0.8207  1.4854
  661MOL0     H91203  11.500   1.574   9.474  0.1405  2.0978  2.3159
  661MOL0     H91204  11.362   1.426   8.852 -0.9355  0.3486  1.4324
  661MOL0     H91205  11.406   1.220   8.746  0.2817 -0.9207 -0.6883
  661MOL0     H91206  11.741   0.982   8.972  1.9853 -2.4762 -0.0063
  661MOL0     H91207  11.716   0.874   8.863 -4.5662 -0.8319  2.1949
  661MOL0     H91208  11.914   1.012   8.825 -0.5139 -1.3341 -1.9575
  661MOL0     H91209  11.822   1.154   8.851 -0.4261  0.6809 -1.4277
  661MOL0     H91210  11.709   1.133   8.621 -2.1654 -0.7276  2.0909
  661MOL0     H91211  11.876   1.137   8.595 -1.2911  2.2162  0.6242
  661MOL0     H91212  11.839   0.863   8.614  3.0593  2.5308  2.2604
  661MOL0     H91213  11.834   0.962   8.469 -0.2388  0.4323  0.7245
  661MOL0     H91214  11.433   0.806   8.599 -0.3829 -0.2160  3.5436
  661MOL0     H91215  11.623   1.097   9.101 -0.3665  0.9069  1.6203
  661MOL0     H91216  11.547   1.216   9.315 -0.5595  0.7426  0.6399
  661MOL0     H91217  11.697   1.261   9.243 -0.2672 -0.0008 -4.4363
  661MOL0     H91218  11.587   1.393   9.293  3.6786 -0.3891  1.9954
  662MOL0     O91219   8.422   0.972   3.589  0.2633 -0.3306  0.0236
  662MOL0     C91220   8.369   0.936   3.488 -0.5843  0.2911  0.5835
  662MOL0     O91221   8.245   0.899   3.474  0.1417 -0.9401 -0.1164
  662MOL0     C91222   8.158   0.889   3.578 -0.6452 -0.3807 -0.0792
  662MOL0     C91223   8.159   0.958   3.698  0.2373  0.4772 -0.5020
  662MOL0     C91224   8.067   0.928   3.796  0.0641 -0.3203 -0.4523
  662MOL0     C91225   7.963   0.830   3.773 -0.1790  0.1116  0.2501
  662MOL0     O91226   7.869   0.782   3.858  0.5202  0.0786 -0.6295
  662MOL0     C91227   7.912   0.776   3.992 -0.1267 -0.2025  0.2481
  662MOL0     C91228   7.824   0.687   4.081 -0.1968  0.3637 -0.1561
  662MOL0     C91229   7.828   0.532   4.047  0.4099  0.4837 -0.0604
  662MOL0     C91230   7.713   0.482   3.959  0.3311 -0.5158  0.9988
  662MOL0     C91231   7.759   0.446   3.818  0.0313  0.3732 -0.4582
  662MOL0     C91232   7.648   0.414   3.725 -0.3031  0.5079 -0.3411
  662MOL0     C91233   7.539   0.517   3.691 -0.4308 -0.1020  0.6218
  662MOL0     C91234   7.417   0.448   3.648  0.5519 -0.1157  0.1592
  662MOL0     N91235   7.356   0.382   3.767 -0.4656  0.5006 -0.0424
  662MOL0     C91236   7.270   0.446   3.852  0.1717 -0.3155 -0.1889
  662MOL0     C91237   7.211   0.354   3.931 -0.5882  0.5953  0.8668
  662MOL0     C91238   7.111   0.376   4.043  0.5365 -0.4711  0.8376
  662MOL0     C91239   7.142   0.274   4.149 -0.0031  0.1686  0.3686
  662MOL0     C91240   7.044   0.285   4.264  0.2809 -0.1400 -0.8898
  662MOL0     C91241   6.901   0.240   4.226  0.4057 -0.0220  0.3852
  662MOL0     O91242   6.826   0.181   4.333 -1.4695 -1.1364 -0.7934
  662MOL0     C91243   6.778   0.255   4.446  0.7841  0.3404  0.6407
  662MOL0     C91244   6.779   0.393   4.464 -0.7936 -0.0177  0.0229
  662MOL0     C91245   6.733   0.453   4.578  0.1965 -0.2972  0.0026
  662MOL0     C91246   6.726   0.603   4.569  1.0549 -0.4827 -0.0913
  662MOL0     C91247   6.688   0.372   4.680  1.1619  0.3466  0.2382
  662MOL0     C91248   6.631   0.429   4.810  0.3001  0.4562  0.6733
  662MOL0     O91249   6.687   0.549   4.853  0.1031  0.0279 -0.6645
  662MOL0     C91250   6.702   0.588   4.980  0.5324 -1.6895 -0.7621
  662MOL0     C91251   6.735   0.730   4.992  0.3620  0.4801  0.0814
  662MOL0     C91252   6.785   0.780   5.112 -0.1966  0.1502  0.1975
  662MOL0     C91253   6.790   0.692   5.224  1.3332 -0.1409  0.2854
  662MOL0     O91254   6.854   0.744   5.335  0.5128  0.0559  0.4801
  662MOL0     C91255   6.830   0.684   5.460  1.4324  0.2608  0.0518
  662MOL0     C91256   6.901   0.753   5.577 -0.0728 -0.9672  1.0307
  662MOL0     C91257   7.054   0.756   5.540 -0.1996  0.3580  0.0775
  662MOL0     C91258   7.137   0.761   5.668 -0.6813  0.2687 -0.0619
  662MOL0     C91259   7.184   0.629   5.723 -0.6891  0.4863 -0.1669
  662MOL0     C91260   7.303   0.626   5.824  0.3135  0.5945 -1.5933
  662MOL0     C91261   7.430   0.626   5.750 -0.0523  0.0054  0.2784
  662MOL0     C91262   7.550   0.623   5.841  1.0462 -0.6538 -0.6211
  662MOL0    Cl91263   7.581   0.459   5.900 -0.0956  0.2170 -0.0446
  662MOL0     C91264   6.754   0.561   5.213  0.5810  0.6296 -0.0761
  662MOL0     C91265   6.709   0.507   5.095  0.0206 -0.4562  0.5674
  662MOL0     O91266   6.564   0.354   4.879  0.5909 -0.3833  0.4785
  662MOL0     C91267   6.685   0.233   4.670  0.0883  0.8883  0.7176
  662MOL0     C91268   6.721   0.176   4.550  0.1332 -0.1617 -0.6229
  662MOL0     N91269   7.272   0.237   3.893  0.1632  0.1889 -0.7541
  662MOL0     N91270   7.362   0.253   3.806 -0.2616 -0.4641 -1.0242
  662MOL0     C91271   7.963   0.762   3.647 -0.7854 -1.1976  0.0746
  662MOL0     C91272   8.057   0.795   3.559  0.4695  0.4967 -0.8434
  662MOL0     C91273   8.459   0.949   3.363  0.3239  0.1450 -0.2125
  662MOL0     C91274   8.395   0.961   3.237  0.3869  0.6945 -0.8186
  662MOL0     C91275   8.468   0.982   3.116 -0.0238 -0.2967  0.2617
  662MOL0     C91276   8.609   0.986   3.120  0.3825  0.2430  0.4785
  662MOL0     O91277   8.671   1.004   3.002 -1.3273  0.4090  0.2064
  662MOL0     C91278   8.768   1.109   2.988  0.8500 -0.2787  0.4969
  662MOL0     C91279   8.786   1.147   2.834 -0.5293  0.3645 -0.2047
  662MOL0     C91280   8.862   1.277   2.817  0.2286  0.3062 -0.4276
  662MOL0     C91281   8.819   1.366   2.695  0.0744  1.1174 -0.2090
  662MOL0     C91282   8.685   1.418   2.713 -0.0197 -0.2023 -0.1757
  662MOL0     C91283   8.570   1.442   2.759 -1.3711 -0.0680 -0.5870
  662MOL0     C91284   8.673   0.965   3.244 -0.8035 -0.5190 -0.1320
  662MOL0     C91285   8.604   0.948   3.365 -0.4658 -1.1921 -1.2111
  662MOL0     C91286   8.677   0.958   3.492  0.0345  0.2481 -0.0271
  662MOL0     H91287   8.234   1.029   3.730  0.1385 -0.3282  1.6437
  662MOL0     H91288   8.073   0.978   3.892  1.3568 -0.9522 -0.1901
  662MOL0     H91289   7.919   0.875   4.039  2.4711 -0.7081  1.0789
  662MOL0     H91290   8.015   0.740   3.989 -0.3374 -0.8550  0.6231
  662MOL0     H91291   7.869   0.699   4.180  1.3809 -3.1375 -0.2860
  662MOL0     H91292   7.721   0.723   4.087 -0.2179  0.1897  0.7314
  662MOL0     H91293   7.924   0.502   4.005  0.5847  1.9197 -0.7629
  662MOL0     H91294   7.818   0.474   4.139  0.7876 -0.3099 -0.5154
  662MOL0     H91295   7.654   0.400   4.002 -4.1207  0.8490 -1.8301
  662MOL0     H91296   7.636   0.560   3.952 -1.6391 -2.1749  2.5596
  662MOL0     H91297   7.831   0.364   3.818 -1.0335 -0.6306  1.2841
  662MOL0     H91298   7.823   0.524   3.777  1.8951 -0.9591 -0.1811
  662MOL0     H91299   7.692   0.395   3.627 -1.0481 -1.3665 -0.3472
  662MOL0     H91300   7.608   0.318   3.758  2.6552 -0.0704  2.0340
  662MOL0     H91301   7.582   0.570   3.606  1.2632  0.4477  1.7770
  662MOL0     H91302   7.527   0.598   3.762 -0.0803  0.4127  0.1036
  662MOL0     H91303   7.349   0.518   3.599  1.2581  0.1931 -0.4070
  662MOL0     H91304   7.439   0.372   3.573 -0.6873  0.1515 -0.4880
  662MOL0     H91305   7.256   0.553   3.862 -1.1883 -0.5593  0.8649
  662MOL0     H91306   7.009   0.363   4.006 -0.6689  2.3989  2.7816
  662MOL0     H91307   7.110   0.479   4.080  2.2685  0.2365 -0.9036
  662MOL0     H91308   7.144   0.175   4.102 -1.4765  0.0965  0.3938
  662MOL0     H91309   7.243   0.301   4.179 -0.3715  3.5802 -1.1069
  662MOL0     H91310   7.083   0.219   4.342 -0.5986 -1.7513 -1.7614
  662MOL0     H91311   7.054   0.387   4.303  2.9068 -0.3349 -0.8391
  662MOL0     H91312   6.847   0.328   4.189  0.5140 -0.5814 -1.1796
  662MOL0     H91313   6.902   0.178   4.136 -0.7253 -2.7409  2.1099
  662MOL0     H91314   6.822   0.459   4.390  1.3148  0.7836  1.8417
  662MOL0     H91315   6.625   0.643   4.560  1.3263 -0.0066 -1.1347
  662MOL0     H91316   6.787   0.642   4.487  0.2404  0.5552 -0.2126
  662MOL0     H91317   6.771   0.634   4.664  0.9554 -2.1909  0.5513
  662MOL0     H91318   6.737   0.797   4.906  3.3506  1.4357  0.7753
  662MOL0     H91319   6.832   0.877   5.127  2.4066 -1.0794  0.6663
  662MOL0     H91320   6.722   0.679   5.474  1.3719 -0.7557 -0.6686
  662MOL0     H91321   6.864   0.580   5.461 -0.0567 -0.2490 -0.4335
  662MOL0     H91322   6.866   0.856   5.587 -3.1660 -1.7896 -0.1486
  662MOL0     H91323   6.895   0.702   5.674  2.9839  0.2959  1.9811
  662MOL0     H91324   7.076   0.850   5.487  4.5861 -0.0666  0.8752
  662MOL0     H91325   7.073   0.670   5.475 -1.4628 -0.2996  0.5258
  662MOL0     H91326   7.075   0.803   5.748 -0.9529  0.5016 -0.3914
  662MOL0     H91327   7.223   0.825   5.647 -1.2678  0.9306 -0.4884
  662MOL0     H91328   7.107   0.584   5.786 -0.3417 -1.5032 -1.1073
  662MOL0     H91329   7.191   0.552   5.646 -0.8460  0.8702 -0.5710
  662MOL0     H91330   7.301   0.524   5.863 -1.1631  1.3638  0.6059
  662MOL0     H91331   7.292   0.704   5.901  3.9302  0.7239 -1.0728
  662MOL0     H91332   7.436   0.722   5.699  0.5533  1.6873  3.2749
  662MOL0     H91333   7.431   0.558   5.665 -0.2528  0.7075 -0.2878
  662MOL0     H91334   7.532   0.695   5.921 -0.0007 -0.5501 -0.9309
  662MOL0     H91335   7.632   0.660   5.778 -0.5570  1.7392 -1.4470
  662MOL0     H91336   6.770   0.480   5.284 -0.4391 -1.3456 -2.0031
  662MOL0     H91337   6.697   0.399   5.092 -2.3220 -0.2420  0.8376
  662MOL0     H91338   6.643   0.168   4.746  2.3620 -0.5184  0.8399
  662MOL0     H91339   6.736   0.069   4.553  0.3454 -0.1053  1.1046
  662MOL0     H91340   7.892   0.683   3.628 -0.3684 -1.8443  1.1159
  662MOL0     H91341   8.074   0.749   3.461 -2.0480  2.5332 -2.3485
  662MOL0     H91342   8.287   0.966   3.234  0.3277 -0.2537 -0.7597
  662MOL0     H91343   8.427   0.997   3.017  2.0123  3.0951 -0.2012
  662MOL0     H91344   8.737   1.198   3.045  0.2916 -1.1970  1.6614
  662MOL0     H91345   8.861   1.073   3.033  0.2656 -3.7226 -0.8084
  662MOL0     H91346   8.693   1.161   2.779  0.0654 -0.8924 -1.6455
  662MOL0     H91347   8.841   1.069   2.779 -2.0933  0.2878 -1.7271
  662MOL0     H91348   8.840   1.342   2.902 -3.1572  1.8127 -2.2248
  662MOL0     H91349   8.968   1.251   2.824 -0.5197 -2.5228  2.6837
  662MOL0     H91350   8.856   1.318   2.604  2.2965  0.4355  0.9833
  662MOL0     H91351   8.889   1.450   2.692  0.5075  0.7653 -0.0635
  662MOL0     H91352   8.481   1.468   2.811  0.5518  1.2311  2.3427
  662MOL0     H91353   8.780   0.980   3.243 -0.6846 -1.3124 -1.5778
  662MOL0     H91354   8.641   0.876   3.555 -1.6308  1.3550  0.5229
  662MOL0     H91355   8.786   0.952   3.477 -0.1863 -1.9708 -1.1475
  662MOL0     H91356   8.645   1.053   3.535  2.5582  1.6947 -1.0900
  663MOL0     O91357   2.971   6.641   2.005  0.3627 -0.0865  0.3374
  663MOL0     C91358   2.937   6.653   2.121 -0.9472 -0.3109 -0.3019
  663MOL0     O91359   2.928   6.773   2.188 -0.4410 -0.0987 -0.0799
  663MOL0     C91360   2.931   6.887   2.115 -1.0467  0.8628  0.5590
  663MOL0     C91361   2.808   6.938   2.073  0.2771 -0.7084  0.4625
  663MOL0     C91362   2.812   7.061   2.008 -0.1957  0.8126 -0.5619
  663MOL0     C91363   2.930   7.130   1.987 -0.0022  0.0970 -1.2654
  663MOL0     O91364   2.936   7.257   1.921  0.9793  0.1555  0.1102
  663MOL0     C91365   2.836   7.275   1.820  0.1007 -0.3734 -0.2647
  663MOL0     C91366   2.891   7.379   1.735 -0.4690 -0.3084 -0.0284
  663MOL0     C91367   2.927   7.526   1.792  0.3719  0.2554 -1.1712
  663MOL0     C91368   3.008   7.619   1.694  0.5978 -0.0017 -0.9477
  663MOL0     C91369   3.144   7.562   1.665  0.2016 -0.9077  0.3782
  663MOL0     C91370   3.221   7.658   1.576  0.3887 -0.6276  0.7262
  663MOL0     C91371   3.364   7.596   1.563 -0.0867  0.7818 -0.7760
  663MOL0     C91372   3.430   7.668   1.451  0.7358 -0.9994 -0.8369
  663MOL0     N91373   3.547   7.593   1.406  0.4610 -0.2806 -0.6437
  663MOL0     C91374   3.539   7.466   1.373 -0.2138  0.9854  0.3229
  663MOL0     C91375   3.674   7.442   1.359 -0.5250  0.1828  0.6228
  663MOL0     C91376   3.723   7.309   1.299  0.4754 -0.2562 -0.7744
  663MOL0     C91377   3.753   7.319   1.154  0.1509  0.4335  0.5873
  663MOL0     C91378   3.805   7.190   1.098  0.2412 -0.1572 -0.3785
  663MOL0     C91379   3.866   7.223   0.952 -0.1865  1.0258  0.7977
  663MOL0     O91380   3.762   7.227   0.851  0.0892  0.5516 -0.6049
  663MOL0     C91381   3.788   7.285   0.728 -1.4565  0.3354 -0.8675
  663MOL0     C91382   3.914   7.336   0.676  0.2083 -0.1679 -0.1284
  663MOL0     C91383   3.927   7.409   0.553  0.9678 -0.8559 -0.2744
  663MOL0     C91384   4.057   7.470   0.510 -0.0733 -0.3623  0.2496
  663MOL0     C91385   3.806   7.407   0.471 -0.5426 -0.8590 -0.9133
  663MOL0     C91386   3.809   7.476   0.339  0.9110  0.8153  0.1855
  663MOL0     O91387   3.696   7.555   0.302 -0.2674 -0.9092 -0.2382
  663MOL0     C91388   3.700   7.623   0.180 -1.3031  0.6470 -0.2932
  663MOL0     C91389   3.709   7.764   0.186 -0.2118  0.0239 -0.6116
  663MOL0     C91390   3.722   7.840   0.073  0.4728  0.3466  0.6917
  663MOL0     C91391   3.721   7.785  -0.052  0.1748 -1.1253  0.4523
  663MOL0     O91392   3.734   7.857  -0.173  0.2317  0.0867 -0.4144
  663MOL0     C91393   3.787   7.985  -0.167  0.4012  0.4775 -0.0839
  663MOL0     C91394   3.805   8.050  -0.299 -0.8761  0.0960  0.3421
  663MOL0     C91395   3.849   8.203  -0.285 -0.1792  0.9719 -0.1912
  663MOL0     C91396   3.975   8.233  -0.367  0.1374 -0.2892 -0.6816
  663MOL0     C91397   3.966   8.209  -0.520  0.1494  0.0121 -0.3737
  663MOL0     C91398   3.857   8.297  -0.585  0.2839  0.0209  1.1558
  663MOL0     C91399   3.886   8.292  -0.740  0.1629  1.0387 -0.3160
  663MOL0     C91400   3.774   8.336  -0.836 -0.2480  0.9888  0.7738
  663MOL0    Cl91401   3.660   8.208  -0.864 -0.2076 -0.1476 -0.1024
  663MOL0     C91402   3.704   7.648  -0.061  0.7986  0.1940 -0.1242
  663MOL0     C91403   3.685   7.567   0.054 -0.7973 -0.9142  0.0267
  663MOL0     O91404   3.904   7.461   0.269 -0.4488 -0.1320  0.4605
  663MOL0     C91405   3.686   7.361   0.518 -0.0674  0.5887  0.2748
  663MOL0     C91406   3.679   7.291   0.645 -0.6731  0.4269 -0.6737
  663MOL0     N91407   3.754   7.544   1.402  0.1809  0.0922  0.1936
  663MOL0     N91408   3.669   7.628   1.446  0.5056 -0.8116 -0.7927
  663MOL0     C91409   3.048   7.082   2.022 -0.0214 -0.7019 -0.6727
  663MOL0     C91410   3.055   6.959   2.091  0.5152  1.4277 -0.1144
  663MOL0     C91411   2.926   6.526   2.196 -0.2342  0.1641 -0.5183
  663MOL0     C91412   2.840   6.540   2.303 -0.2713 -0.8890 -0.7759
  663MOL0     C91413   2.802   6.438   2.387  0.8822 -0.6832 -0.2203
  663MOL0     C91414   2.847   6.312   2.373  0.0080  0.1574  0.5372
  663MOL0     O91415   2.810   6.205   2.447 -0.0116 -0.0890  0.3561
  663MOL0     C91416   2.914   6.148   2.529 -0.6356  0.2100 -0.3312
  663MOL0     C91417   2.986   6.024   2.491 -0.6096 -0.0729  0.6077
  663MOL0     C91418   2.904   5.896   2.485  0.4350 -1.0064 -0.3762
  663MOL0     C91419   2.994   5.779   2.492 -0.6778 -0.0544  0.1067
  663MOL0     C91420   2.931   5.652   2.454  1.0072 -1.0346 -0.5475
  663MOL0     C91421   2.876   5.558   2.407 -0.3469  0.3283  0.0483
  663MOL0     C91422   2.936   6.290   2.253 -0.3158 -0.0570  0.4808
  663MOL0     C91423   2.969   6.391   2.158 -0.1407 -0.3429  0.5332
  663MOL0     C91424   3.068   6.365   2.043  0.3142  0.8054 -0.2678
  663MOL0     H91425   2.712   6.891   2.089 -0.7919  1.3332  0.3307
  663MOL0     H91426   2.717   7.098   1.971  0.5883  0.1958 -3.4085
  663MOL0     H91427   2.737   7.295   1.864  1.2879  0.8444  2.0179
  663MOL0     H91428   2.834   7.182   1.763  3.3538 -0.8787  0.2676
  663MOL0     H91429   2.979   7.323   1.703 -2.3747 -4.4390  1.2200
  663MOL0     H91430   2.826   7.402   1.650  0.0068  3.1457  0.3866
  663MOL0     H91431   2.832   7.574   1.816 -0.0680 -1.8851  2.0320
  663MOL0     H91432   2.994   7.516   1.878  0.2128  0.0118 -1.0750
  663MOL0     H91433   2.952   7.626   1.601  1.1653 -1.6620 -1.4529
  663MOL0     H91434   3.012   7.717   1.742 -3.1092 -0.0911 -0.2212
  663MOL0     H91435   3.128   7.467   1.613  0.5786 -1.7785  1.8073
  663MOL0     H91436   3.206   7.537   1.751  2.3000 -1.6554 -1.2527
  663MOL0     H91437   3.181   7.661   1.474 -3.2979 -1.3932  1.9936
  663MOL0     H91438   3.222   7.760   1.616 -0.4895 -0.5091  0.4609
  663MOL0     H91439   3.375   7.488   1.549  0.2561  0.6318  0.5367
  663MOL0     H91440   3.416   7.609   1.658  1.3747 -2.7458 -0.9518
  663MOL0     H91441   3.368   7.675   1.362 -0.5620 -0.4463  0.0904
  663MOL0     H91442   3.461   7.769   1.478  0.0968 -0.4292 -2.1426
  663MOL0     H91443   3.455   7.398   1.364 -1.1286  1.7487  2.4249
  663MOL0     H91444   3.646   7.238   1.331  1.1900  0.3890  2.9120
  663MOL0     H91445   3.808   7.279   1.360  0.1635  0.9905  0.3245
  663MOL0     H91446   3.662   7.350   1.101 -0.2562 -0.8042  0.5348
  663MOL0     H91447   3.824   7.399   1.133  1.7279 -1.4835 -2.0884
  663MOL0     H91448   3.896   7.147   1.142  0.8890  0.5122 -1.0131
  663MOL0     H91449   3.719   7.123   1.088  0.0517 -0.0286  0.3862
  663MOL0     H91450   3.935   7.308   0.951  1.9999 -0.5327  3.4911
  663MOL0     H91451   3.937   7.143   0.926 -0.0588  1.6368 -0.8799
  663MOL0     H91452   3.993   7.338   0.751 -1.1025  0.7793  1.2806
  663MOL0     H91453   4.042   7.573   0.477 -0.5306 -0.0788  1.2840
  663MOL0     H91454   4.088   7.411   0.423 -0.4336  1.1894 -0.9660
  663MOL0     H91455   4.133   7.460   0.588 -0.2376 -1.1428  0.3189
  663MOL0     H91456   3.713   7.805   0.286  1.2058  1.6008 -1.2621
  663MOL0     H91457   3.736   7.946   0.089 -0.7967  0.7468 -0.6261
  663MOL0     H91458   3.717   8.045  -0.107 -0.1887 -0.3706  0.0916
  663MOL0     H91459   3.882   7.993  -0.114  0.9691  1.8077 -1.2347
  663MOL0     H91460   3.874   7.988  -0.358 -2.1075 -0.7983 -0.2077
  663MOL0     H91461   3.711   8.058  -0.354 -1.0971 -3.7342 -0.1381
  663MOL0     H91462   3.882   8.216  -0.182  1.5634 -1.9886 -0.2751
  663MOL0     H91463   3.767   8.275  -0.290  0.2193  1.8801  3.5540
  663MOL0     H91464   4.058   8.181  -0.319  0.2346  1.3604  1.0792
  663MOL0     H91465   3.991   8.341  -0.360 -2.1183 -0.0379  3.2770
  663MOL0     H91466   4.065   8.232  -0.560  0.2067  1.3516  0.4668
  663MOL0     H91467   3.942   8.104  -0.535  1.9124 -0.2575 -1.5763
  663MOL0     H91468   3.874   8.401  -0.556 -0.5768 -0.0623  1.9940
  663MOL0     H91469   3.753   8.273  -0.559 -0.1501  0.3588 -0.1527
  663MOL0     H91470   3.911   8.187  -0.761  1.6256  1.3615 -0.2451
  663MOL0     H91471   3.971   8.357  -0.759  0.3305  0.8055 -0.3626
  663MOL0     H91472   3.813   8.370  -0.932  1.0177 -0.2460  0.8179
  663MOL0     H91473   3.721   8.408  -0.773 -1.4837 -0.3048  1.2758
  663MOL0     H91474   3.705   7.614  -0.164  1.7026  1.1361 -0.4487
  663MOL0     H91475   3.676   7.459   0.052 -1.8585 -0.8303 -0.2338
  663MOL0     H91476   3.604   7.373   0.448 -1.0507 -0.4236  1.2307
  663MOL0     H91477   3.589   7.251   0.691  0.2573 -0.7534  0.1667
  663MOL0     H91478   3.140   7.137   2.004 -0.8269  0.4413 -1.3936
  663MOL0     H91479   3.148   6.910   2.117 -0.9653 -2.2097 -1.0431
  663MOL0     H91480   2.809   6.643   2.321  3.8092  0.5344 -0.9255
  663MOL0     H91481   2.744   6.470   2.473 -0.2340 -0.4514 -1.0520
  663MOL0     H91482   2.986   6.230   2.535  2.3133 -2.1749 -0.8596
  663MOL0     H91483   2.868   6.125   2.626  0.6394 -0.5850  0.1218
  663MOL0     H91484   3.068   6.022   2.564  2.1578  1.8419 -2.1655
  663MOL0     H91485   3.021   6.039   2.389 -1.8068  1.5866  0.4074
  663MOL0     H91486   2.851   5.894   2.581  0.1740 -1.5610 -0.5262
  663MOL0     H91487   2.843   5.894   2.394 -0.4984 -1.7924  0.2461
  663MOL0     H91488   3.035   5.770   2.593  0.0018  0.1100 -0.1485
  663MOL0     H91489   3.079   5.784   2.423  0.3260  1.3967  1.3828
  663MOL0     H91490   2.831   5.474   2.358 -3.0212  1.2799  0.7242
  663MOL0     H91491   2.964   6.187   2.236 -1.0335 -0.5406  2.0090
  663MOL0     H91492   3.043   6.415   1.949 -1.1545 -1.2827 -1.0601
  663MOL0     H91493   3.173   6.376   2.070  1.1396 -3.0635 -1.2772
  663MOL0     H91494   3.054   6.262   2.007  2.2595 -0.0828  1.3045
  664MOL0     O91495   4.068   5.915   9.221 -0.2925  0.4318  0.2288
  664MOL0     C91496   4.056   6.010   9.291  0.9722 -0.1872 -0.5135
  664MOL0     O91497   4.001   6.015   9.423  0.8236 -0.3735  0.1715
  664MOL0     C91498   3.956   5.897   9.492 -1.5708  1.6158  0.1086
  664MOL0     C91499   3.841   5.907   9.565  0.4150  0.4011  1.3081
  664MOL0     C91500   3.801   5.794   9.642 -0.5237  0.0708  1.0667
  664MOL0     C91501   3.879   5.673   9.639  0.2754  0.0201  0.5710
  664MOL0     O91502   3.820   5.583   9.722  0.7348 -0.0384 -0.3406
  664MOL0     C91503   3.843   5.446   9.681 -0.5105 -0.4539 -0.3465
  664MOL0     C91504   3.760   5.331   9.735 -0.6452  0.3190 -0.2549
  664MOL0     C91505   3.613   5.335   9.700  0.1562  0.4569  0.3092
  664MOL0     C91506   3.583   5.412   9.584  0.3084  0.4675 -0.5475
  664MOL0     C91507   3.437   5.390   9.545 -0.2874 -0.2906 -0.5022
  664MOL0     C91508   3.412   5.442   9.406  0.7983  0.5967 -0.4040
  664MOL0     C91509   3.265   5.430   9.361  0.1331 -0.1761 -0.1503
  664MOL0     C91510   3.246   5.309   9.279 -0.4987 -0.0572  0.2653
  664MOL0     N91511   3.102   5.297   9.243 -0.9375 -0.9723 -0.5250
  664MOL0     C91512   3.007   5.220   9.307 -0.3617 -0.9865  0.1689
  664MOL0     C91513   2.891   5.245   9.230 -0.6190 -0.3181  0.2630
  664MOL0     C91514   2.759   5.187   9.240 -0.5256 -0.5665  0.4823
  664MOL0     C91515   2.657   5.299   9.271  0.1641 -1.1194 -0.3960
  664MOL0     C91516   2.514   5.252   9.246  0.8030  0.0130  0.2366
  664MOL0     C91517   2.423   5.364   9.289  0.7977 -0.5425  0.6139
  664MOL0     O91518   2.288   5.325   9.247 -1.3552  0.2364 -0.0694
  664MOL0     C91519   2.188   5.417   9.289  0.3646  0.2730 -0.0482
  664MOL0     C91520   2.199   5.514   9.397  1.6562 -0.0546  1.0421
  664MOL0     C91521   2.089   5.593   9.443  0.6348  0.7226 -0.2470
  664MOL0     C91522   2.106   5.695   9.553  0.1151  0.0965 -0.6357
  664MOL0     C91523   1.967   5.576   9.371 -0.6128  0.4415 -0.7932
  664MOL0     C91524   1.859   5.664   9.385 -0.8606 -0.8214 -0.2365
  664MOL0     O91525   1.807   5.665   9.508 -0.2276 -0.2032 -0.2512
  664MOL0     C91526   1.685   5.707   9.549  0.2918 -0.3753 -0.2718
  664MOL0     C91527   1.673   5.746   9.677 -0.2557  0.6709  0.2258
  664MOL0     C91528   1.564   5.811   9.724 -0.8329  0.1669 -0.6225
  664MOL0     C91529   1.452   5.834   9.640 -0.3002  0.9123 -0.3185
  664MOL0     O91530   1.339   5.899   9.696  0.0824  0.1927 -0.0533
  664MOL0     C91531   1.293   6.000   9.605  0.2784  0.2344 -0.0023
  664MOL0     C91532   1.162   6.078   9.653  1.2183  0.0479 -0.2868
  664MOL0     C91533   1.049   5.982   9.690  0.0664  0.0827 -0.5580
  664MOL0     C91534   0.930   6.054   9.762  0.6539 -0.1603  0.5360
  664MOL0     C91535   0.834   5.935   9.778  0.0249 -0.3435  0.7996
  664MOL0     C91536   0.697   5.970   9.838 -0.4029 -0.3059  0.5863
  664MOL0     C91537   0.631   6.081   9.752  0.4211  0.1263  0.2147
  664MOL0     C91538   0.478   6.083   9.772 -0.1133  1.2555 -0.3531
  664MOL0    Cl91539   0.448   6.130   9.952 -0.1101 -0.0145  0.0296
  664MOL0     C91540   1.456   5.782   9.510  0.2412  0.1606 -0.3169
  664MOL0     C91541   1.572   5.723   9.458 -0.4034  0.7873 -0.3503
  664MOL0     O91542   1.808   5.711   9.288  0.0483  0.6469  0.0103
  664MOL0     C91543   1.955   5.473   9.278 -0.7022 -0.2017 -0.3425
  664MOL0     C91544   2.063   5.408   9.224  0.4228  0.2515 -0.2466
  664MOL0     N91545   2.923   5.346   9.135  0.1554  0.2099 -0.5368
  664MOL0     N91546   3.040   5.380   9.156  0.0956 -0.6552  0.1059
  664MOL0     C91547   4.000   5.659   9.569  0.1347 -0.9279  0.2294
  664MOL0     C91548   4.040   5.779   9.498 -0.4071  0.6914 -0.3233
  664MOL0     C91549   4.072   6.140   9.230 -0.4454  0.4180  0.9564
  664MOL0     C91550   3.995   6.175   9.117  0.3023  0.1018  0.0624
  664MOL0     C91551   3.995   6.301   9.058 -0.6402  0.4902  0.0881
  664MOL0     C91552   4.077   6.398   9.104 -0.8502 -0.1168  0.1064
  664MOL0     O91553   4.065   6.522   9.053 -0.1977 -0.0288  0.1234
  664MOL0     C91554   4.148   6.629   9.096  1.1313  0.0740 -0.2679
  664MOL0     C91555   4.203   6.695   8.969 -0.9683 -0.6958 -0.7413
  664MOL0     C91556   4.350   6.744   8.987 -0.1818 -0.4512 -0.1062
  664MOL0     C91557   4.368   6.881   9.053  0.5759  0.3744 -0.3467
  664MOL0     C91558   4.482   6.879   9.140 -0.3135 -0.3744  0.4606
  664MOL0     C91559   4.589   6.873   9.205 -0.2845  0.6093  0.6865
  664MOL0     C91560   4.151   6.367   9.225 -0.4774  0.2901  0.2715
  664MOL0     C91561   4.150   6.244   9.291 -0.3664 -0.7357  0.0661
  664MOL0     C91562   4.232   6.241   9.417  0.6954  0.3866  0.0751
  664MOL0     H91563   3.788   6.002   9.569  1.1862  1.1812 -2.7001
  664MOL0     H91564   3.709   5.799   9.699 -1.8264 -0.9581 -0.8435
  664MOL0     H91565   3.942   5.420   9.719 -1.4096 -2.6940  0.6397
  664MOL0     H91566   3.843   5.435   9.572  0.1028  0.8995 -0.5022
  664MOL0     H91567   3.804   5.237   9.702 -4.2651 -0.8927 -2.1307
  664MOL0     H91568   3.768   5.343   9.843 -0.2384  1.2542 -0.3788
  664MOL0     H91569   3.582   5.231   9.689  0.2254  0.4318  0.3514
  664MOL0     H91570   3.563   5.380   9.786 -0.0102  0.9613 -0.0445
  664MOL0     H91571   3.612   5.512   9.617  1.0196 -0.7893  3.1302
  664MOL0     H91572   3.650   5.371   9.508  0.9220 -0.9845  0.7279
  664MOL0     H91573   3.372   5.436   9.621  2.2173  0.5035  1.2837
  664MOL0     H91574   3.420   5.284   9.567  0.5507  0.2582  3.6944
  664MOL0     H91575   3.436   5.549   9.412 -4.4353  2.0063  1.8171
  664MOL0     H91576   3.472   5.384   9.336 -1.0040 -1.9918  0.0480
  664MOL0     H91577   3.240   5.509   9.290  0.1928 -1.0765 -1.2031
  664MOL0     H91578   3.195   5.424   9.445  0.8205  2.7762  0.7494
  664MOL0     H91579   3.306   5.306   9.188  1.4168 -0.8726  1.4837
  664MOL0     H91580   3.285   5.219   9.328  2.3864  0.1104 -1.5493
  664MOL0     H91581   3.029   5.156   9.392  0.4216 -1.0553 -0.0722
  664MOL0     H91582   2.749   5.110   9.318 -1.2789 -0.7355  0.2330
  664MOL0     H91583   2.731   5.142   9.144 -1.9849 -1.0172  1.0865
  664MOL0     H91584   2.672   5.333   9.374 -2.5380 -0.7481 -0.0616
  664MOL0     H91585   2.670   5.383   9.202  1.1446 -0.8517  0.0962
  664MOL0     H91586   2.499   5.234   9.139 -1.7142  0.5930  0.4180
  664MOL0     H91587   2.494   5.166   9.312 -2.0336  0.2397 -0.1802
  664MOL0     H91588   2.437   5.386   9.395 -0.0592 -2.3168  1.1250
  664MOL0     H91589   2.433   5.458   9.234 -1.7884  0.4043  1.5918
  664MOL0     H91590   2.296   5.531   9.442  3.1179 -3.1843 -0.5439
  664MOL0     H91591   2.048   5.787   9.543 -1.3025 -0.4368  1.7222
  664MOL0     H91592   2.213   5.719   9.556  1.6459 -5.1429  4.7234
  664MOL0     H91593   2.085   5.663   9.655 -1.1073  0.1717 -0.8486
  664MOL0     H91594   1.760   5.728   9.739 -0.2946 -0.8377 -0.1019
  664MOL0     H91595   1.549   5.850   9.824 -0.6205  1.2300 -0.9883
  664MOL0     H91596   1.368   6.076   9.585  0.3633  0.4303  1.0403
  664MOL0     H91597   1.275   5.959   9.505 -0.5836  0.8208 -0.1031
  664MOL0     H91598   1.189   6.135   9.742  4.9606  1.0246 -1.8941
  664MOL0     H91599   1.116   6.145   9.580 -1.3318  2.1097  2.8937
  664MOL0     H91600   1.094   5.911   9.760 -1.3477  1.0530  1.4282
  664MOL0     H91601   1.013   5.939   9.596  0.4538  0.2384 -0.7804
  664MOL0     H91602   0.891   6.137   9.703  1.7406 -0.6166 -0.8987
  664MOL0     H91603   0.970   6.092   9.857  2.9180  1.1298 -0.8363
  664MOL0     H91604   0.814   5.899   9.676 -1.5364  0.6493  0.7308
  664MOL0     H91605   0.881   5.862   9.844  2.2005  1.3509  1.2490
  664MOL0     H91606   0.714   6.000   9.942  1.5089  0.3380  0.1256
  664MOL0     H91607   0.630   5.884   9.845  0.6374 -1.0840  1.1984
  664MOL0     H91608   0.632   6.065   9.644 -1.9899 -0.7335  0.2734
  664MOL0     H91609   0.670   6.181   9.778  2.2730 -0.5830  0.3206
  664MOL0     H91610   0.439   5.985   9.741  1.6764  1.0899 -2.2958
  664MOL0     H91611   0.422   6.155   9.711 -0.9907  0.8709 -0.0283
  664MOL0     H91612   1.373   5.761   9.444 -0.2832 -0.9925  0.6840
  664MOL0     H91613   1.572   5.681   9.358  1.4836 -3.2496  1.1306
  664MOL0     H91614   1.855   5.473   9.235 -0.7857 -1.2674 -0.1814
  664MOL0     H91615   2.054   5.325   9.155  0.0755 -0.0824  0.2012
  664MOL0     H91616   4.058   5.567   9.562  0.3719 -0.6105 -3.4300
  664MOL0     H91617   4.138   5.773   9.453  0.0306  1.9472  0.4133
  664MOL0     H91618   3.926   6.095   9.089  1.8061 -1.4425  0.5681
  664MOL0     H91619   3.933   6.324   8.973  1.1881  2.2106 -0.8777
  664MOL0     H91620   4.087   6.709   9.140  2.5408  1.6902 -1.1338
  664MOL0     H91621   4.227   6.604   9.167  2.8653 -0.9854 -2.4630
  664MOL0     H91622   4.142   6.780   8.936  1.4609  0.6721 -2.0348
  664MOL0     H91623   4.185   6.628   8.884 -0.9374  0.9493 -2.1090
  664MOL0     H91624   4.397   6.664   9.046 -0.2856 -0.7887 -0.4768
  664MOL0     H91625   4.394   6.745   8.887 -0.4284  0.8230 -0.2146
  664MOL0     H91626   4.282   6.893   9.120  1.3244  1.2109  0.4938
  664MOL0     H91627   4.364   6.961   8.978 -3.1601  0.7333  0.0386
  664MOL0     H91628   4.666   6.873   9.280  0.4178  3.6027  0.0899
  664MOL0     H91629   4.219   6.437   9.272  0.4370 -1.6995  2.1218
  664MOL0     H91630   4.180   6.180   9.492 -1.6024 -1.0417 -2.4835
  664MOL0     H91631   4.332   6.203   9.398  0.0958 -1.3110  0.1227
  664MOL0     H91632   4.246   6.340   9.462 -0.8263  0.9925 -0.7086
  665MOL0     O91633   3.037  10.192   8.038  0.0343  0.3727  0.4063
  665MOL0     C91634   2.972  10.100   7.992 -0.2641  0.3161  0.5880
  665MOL0     O91635   3.014   9.993   7.927 -0.8325  0.4321  0.3307
  665MOL0     C91636   3.143   9.994   7.905  0.2016  1.4139 -0.5143
  665MOL0     C91637   3.194  10.048   7.784  0.7308  0.4767  0.6910
  665MOL0     C91638   3.327  10.058   7.749 -0.1054 -0.1258 -0.6427
  665MOL0     C91639   3.409   9.991   7.834  0.0929 -0.1743  0.3527
  665MOL0     O91640   3.543  10.016   7.794  0.7717  0.1022 -0.1905
  665MOL0     C91641   3.654   9.959   7.872 -0.0871  0.9174  0.2271
  665MOL0     C91642   3.786   9.987   7.804  0.4487 -0.3276 -0.5195
  665MOL0     C91643   3.894   9.915   7.884 -0.1531  1.0516 -1.0941
  665MOL0     C91644   3.894   9.766   7.846 -0.2011  0.9776 -0.3492
  665MOL0     C91645   4.003   9.693   7.929  0.7622  0.2221  0.3436
  665MOL0     C91646   3.989   9.536   7.908  0.0583 -0.2229 -1.0253
  665MOL0     C91647   3.894   9.468   8.011  0.5187 -0.1680  0.8236
  665MOL0     C91648   3.918   9.323   8.013  1.2248  0.8103  0.1087
  665MOL0     N91649   3.827   9.263   8.104 -0.3527 -0.3995 -1.0354
  665MOL0     C91650   3.692   9.287   8.132  0.6029 -0.8563  0.6370
  665MOL0     C91651   3.665   9.196   8.231 -0.0317 -0.1268  0.0679
  665MOL0     C91652   3.534   9.187   8.288 -0.7046 -0.6033 -0.3290
  665MOL0     C91653   3.417   9.249   8.207  0.1866 -0.1240 -1.0663
  665MOL0     C91654   3.293   9.203   8.282  0.6725  0.5845 -1.0228
  665MOL0     C91655   3.154   9.238   8.219 -0.3537  0.3000  0.9506
  665MOL0     O91656   3.039   9.224   8.310 -0.2121  0.6112  0.6236
  665MOL0     C91657   3.024   9.096   8.348 -0.5392 -0.4635  0.4168
  665MOL0     C91658   2.988   9.003   8.254  0.6663 -0.0351 -0.5639
  665MOL0     C91659   2.943   8.869   8.296  0.1772 -0.6748  0.5088
  665MOL0     C91660   2.904   8.778   8.190  0.1178 -1.3857 -0.5104
  665MOL0     C91661   2.933   8.834   8.436 -0.3779  0.5683 -0.6189
  665MOL0     C91662   2.885   8.696   8.491 -0.3549 -0.0858 -0.3292
  665MOL0     O91663   2.950   8.577   8.456 -0.4480 -0.0720  0.0086
  665MOL0     C91664   2.928   8.464   8.530 -0.3815  0.5968 -0.6140
  665MOL0     C91665   2.933   8.461   8.671  0.6104 -0.1290 -0.2371
  665MOL0     C91666   2.912   8.339   8.738  0.4324 -0.1148  0.6958
  665MOL0     C91667   2.873   8.226   8.674 -1.1025  0.0113 -0.7243
  665MOL0     O91668   2.850   8.103   8.732  0.2542 -0.2748  0.0462
  665MOL0     C91669   2.922   8.069   8.852 -0.5914 -0.1734  0.5110
  665MOL0     C91670   2.806   8.050   8.951  0.3344 -0.1837  0.6152
  665MOL0     C91671   2.841   7.983   9.080 -0.7590 -0.1929  0.0442
  665MOL0     C91672   2.713   7.953   9.166 -0.4748  0.4385 -0.3980
  665MOL0     C91673   2.749   7.882   9.301  0.4248  0.2749 -1.3458
  665MOL0     C91674   2.717   7.731   9.315  0.7500 -0.3667 -0.5402
  665MOL0     C91675   2.783   7.660   9.439 -0.5359 -0.7519 -0.5141
  665MOL0     C91676   2.735   7.509   9.447  0.7366 -0.3622  0.4246
  665MOL0    Cl91677   2.769   7.445   9.594 -0.5833  0.0228 -0.1065
  665MOL0     C91678   2.864   8.226   8.543 -0.3965 -0.1222  0.2112
  665MOL0     C91679   2.893   8.339   8.465  0.2320 -0.1676  0.4013
  665MOL0     O91680   2.802   8.710   8.584  0.6484 -0.6555  0.6898
  665MOL0     C91681   2.977   8.930   8.524 -0.2035  0.3694  0.3699
  665MOL0     C91682   3.021   9.058   8.485  0.0545  0.4575  0.0193
  665MOL0     N91683   3.777   9.124   8.256  0.8894  0.6994 -0.6655
  665MOL0     N91684   3.871   9.155   8.185 -0.7941  0.2582  1.9060
  665MOL0     C91685   3.368   9.930   7.959 -0.0807 -0.0451 -0.4073
  665MOL0     C91686   3.232   9.940   7.998 -0.3774 -0.3560 -0.1961
  665MOL0     C91687   2.825  10.097   8.010 -0.4454 -0.4021  0.1786
  665MOL0     C91688   2.772   9.977   8.048 -0.0410 -0.2426 -0.3636
  665MOL0     C91689   2.638   9.960   8.090  1.0594 -0.1374 -0.1035
  665MOL0     C91690   2.552  10.076   8.089  0.7643  0.7023  0.1617
  665MOL0     O91691   2.421  10.078   8.127  0.4837 -0.0216  0.1733
  665MOL0     C91692   2.349   9.965   8.163 -0.1556  1.1223  0.4730
  665MOL0     C91693   2.366   9.930   8.313  0.2932  0.2240  0.2608
  665MOL0     C91694   2.340   9.786   8.356  0.0051 -0.1352 -0.6147
  665MOL0     C91695   2.419   9.755   8.480  0.4568 -0.6850 -0.2393
  665MOL0     C91696   2.423   9.609   8.515 -0.3023 -0.0144  0.6329
  665MOL0     C91697   2.442   9.499   8.550  0.4916  0.3263  0.3565
  665MOL0     C91698   2.613  10.195   8.058  0.2923 -0.3376  0.0497
  665MOL0     C91699   2.743  10.218   8.023 -0.4973  0.2128  0.5361
  665MOL0     C91700   2.788  10.358   7.997 -0.6735  0.4576  0.0415
  665MOL0     H91701   3.133  10.079   7.699  3.2426  0.9367 -1.0667
  665MOL0     H91702   3.370  10.124   7.675 -1.0893  4.0113  2.1023
  665MOL0     H91703   3.631   9.853   7.884 -0.4022  1.0759  1.0941
  665MOL0     H91704   3.656   9.999   7.974 -0.7151 -1.2705  1.1586
  665MOL0     H91705   3.762   9.945   7.705 -0.4717  0.2172 -0.5403
  665MOL0     H91706   3.806  10.094   7.797 -0.8071 -0.1356 -1.5530
  665MOL0     H91707   3.994   9.960   7.881  0.3536  0.1195  0.6377
  665MOL0     H91708   3.862   9.912   7.988  1.0368  0.3690 -0.7265
  665MOL0     H91709   3.799   9.719   7.875 -1.6464  4.1926  0.7510
  665MOL0     H91710   3.909   9.767   7.738 -0.8862  1.3050 -0.4488
  665MOL0     H91711   3.985   9.711   8.036  0.2472  1.5896  0.0465
  665MOL0     H91712   4.102   9.721   7.894  0.8485  2.3767  2.0541
  665MOL0     H91713   3.974   9.517   7.802 -1.8795 -0.0225 -0.8200
  665MOL0     H91714   4.092   9.514   7.940  0.1165  2.5682  1.1608
  665MOL0     H91715   3.794   9.495   7.978  1.6907  1.7967 -1.3784
  665MOL0     H91716   3.904   9.504   8.114 -0.3889 -2.1777  1.6725
  665MOL0     H91717   3.901   9.289   7.910  1.5172  2.3573 -0.4841
  665MOL0     H91718   4.027   9.312   8.022  1.4376  1.1161 -1.6606
  665MOL0     H91719   3.631   9.366   8.090  0.4766 -1.1940  0.1823
  665MOL0     H91720   3.547   9.230   8.388 -0.3509  0.5868 -0.8683
  665MOL0     H91721   3.506   9.082   8.301 -2.9078  0.0572  0.8850
  665MOL0     H91722   3.410   9.358   8.201 -0.0432 -0.0490  0.2456
  665MOL0     H91723   3.408   9.191   8.114  0.7708 -0.9038 -0.6571
  665MOL0     H91724   3.295   9.093   8.282  0.9682  0.5765  0.1552
  665MOL0     H91725   3.299   9.250   8.380  3.0728 -1.1905 -0.2118
  665MOL0     H91726   3.160   9.344   8.195 -0.6086  0.3222  0.9853
  665MOL0     H91727   3.148   9.179   8.127  1.2741 -4.1704  3.3775
  665MOL0     H91728   2.992   9.017   8.147  2.8740  2.9042 -0.2267
  665MOL0     H91729   2.992   8.724   8.154  2.8380  3.9799 -3.1596
  665MOL0     H91730   2.859   8.824   8.101  0.8201  1.4181  0.4803
  665MOL0     H91731   2.827   8.707   8.221 -2.1242  0.1189 -2.2592
  665MOL0     H91732   2.955   8.547   8.734  0.6161 -0.5019  0.2743
  665MOL0     H91733   2.917   8.355   8.845  2.4386 -0.1374  0.6422
  665MOL0     H91734   2.980   7.981   8.823 -0.6407  0.3055 -1.1433
  665MOL0     H91735   2.997   8.136   8.892  2.4137 -2.5798 -0.7045
  665MOL0     H91736   2.772   8.151   8.976 -1.5136 -1.3626  3.2109
  665MOL0     H91737   2.723   8.002   8.897 -0.5793  0.7981  1.1136
  665MOL0     H91738   2.897   8.043   9.153 -0.4467 -1.6684  1.0624
  665MOL0     H91739   2.890   7.889   9.054  0.4191  0.6862 -0.9866
  665MOL0     H91740   2.639   7.900   9.106  0.1657 -1.4387  0.3770
  665MOL0     H91741   2.681   8.051   9.202  0.4990 -0.1553  2.3389
  665MOL0     H91742   2.853   7.906   9.326  1.4454 -0.2799 -4.5593
  665MOL0     H91743   2.685   7.936   9.371  0.9715 -1.7069  0.7679
  665MOL0     H91744   2.745   7.671   9.228 -0.1406  0.0938 -1.1573
  665MOL0     H91745   2.608   7.724   9.324  0.4182  2.7186 -0.9630
  665MOL0     H91746   2.732   7.700   9.527  0.5685 -3.0543  1.2554
  665MOL0     H91747   2.892   7.672   9.442 -0.4390 -1.0552 -1.8637
  665MOL0     H91748   2.781   7.462   9.360  0.3718  1.1862 -0.6542
  665MOL0     H91749   2.626   7.495   9.449  0.7148 -0.1815  2.6377
  665MOL0     H91750   2.824   8.134   8.500 -1.8147 -0.1708  1.5409
  665MOL0     H91751   2.872   8.340   8.359 -0.3717 -2.6618  0.4432
  665MOL0     H91752   2.987   8.917   8.631  0.2542 -0.8949  0.2001
  665MOL0     H91753   3.035   9.128   8.567  0.1810 -0.0736  0.4584
  665MOL0     H91754   3.426   9.880   8.036  2.2526  2.2824 -0.5159
  665MOL0     H91755   3.195   9.903   8.093 -3.1853 -4.0507 -2.4784
  665MOL0     H91756   2.824   9.883   8.063 -1.8309 -1.1330  0.7308
  665MOL0     H91757   2.592   9.866   8.118 -0.3802  0.8699  1.0659
  665MOL0     H91758   2.243   9.984   8.144 -0.2872  0.6711  0.7397
  665MOL0     H91759   2.388   9.877   8.110 -1.5998 -0.5583  2.0700
  665MOL0     H91760   2.292   9.982   8.374  0.3837 -0.9343  1.4135
  665MOL0     H91761   2.466   9.962   8.342  0.6792 -0.1007 -0.6785
  665MOL0     H91762   2.233   9.763   8.352  0.0446 -0.2879 -0.8081
  665MOL0     H91763   2.394   9.732   8.277  1.6494  1.9262 -0.9847
  665MOL0     H91764   2.364   9.810   8.558  1.5294 -1.1941  0.8999
  665MOL0     H91765   2.522   9.791   8.483  0.8929 -1.9584  0.8680
  665MOL0     H91766   2.447   9.396   8.576 -1.7306 -0.0723 -0.5119
  665MOL0     H91767   2.543  10.277   8.066 -1.9507 -2.2756  2.1921
  665MOL0     H91768   2.855  10.395   8.075  1.0340  2.9849 -2.3994
  665MOL0     H91769   2.850  10.369   7.907  1.7220 -0.5551  1.4533
  665MOL0     H91770   2.703  10.427   7.994  0.2028  1.6357  1.2197
  666MOL0     O91771   2.858   0.720   6.788 -0.1458 -0.1221  0.3822
  666MOL0     C91772   2.885   0.687   6.907  0.5051 -0.7093 -0.2145
  666MOL0     O91773   2.811   0.723   7.016 -0.1955  0.1435  0.6314
  666MOL0     C91774   2.704   0.810   6.987 -0.1123 -0.2332 -0.3303
  666MOL0     C91775   2.595   0.773   6.915 -0.9673 -0.3758  1.0583
  666MOL0     C91776   2.483   0.852   6.883 -0.4914  0.1800 -0.5621
  666MOL0     C91777   2.482   0.978   6.947 -0.3365  0.0357  0.7822
  666MOL0     O91778   2.400   1.084   6.911  0.6202 -0.6507  0.6068
  666MOL0     C91779   2.262   1.049   6.886  0.1988  0.1224 -0.6071
  666MOL0     C91780   2.185   1.164   6.830 -0.2616  0.2352  0.2525
  666MOL0     C91781   2.163   1.171   6.677  0.5319  0.8390  0.1130
  666MOL0     C91782   2.063   1.285   6.641 -0.2935 -0.1863  0.3854
  666MOL0     C91783   2.142   1.413   6.646  0.4906 -0.4918 -0.4859
  666MOL0     C91784   2.083   1.526   6.564  0.7457  0.3124  0.2142
  666MOL0     C91785   2.170   1.663   6.583 -0.0934  0.0528 -0.4432
  666MOL0     C91786   2.104   1.766   6.506 -0.6250 -0.0850  1.2641
  666MOL0     N91787   1.985   1.826   6.554  0.7857 -0.2778 -0.7246
  666MOL0     C91788   1.988   1.933   6.641 -0.5798  0.0278  0.8740
  666MOL0     C91789   1.869   1.984   6.632  0.0669 -0.5153  0.1248
  666MOL0     C91790   1.824   2.103   6.710 -0.0804  0.9656  1.0321
  666MOL0     C91791   1.906   2.230   6.668  0.1836  0.3037 -0.5730
  666MOL0     C91792   1.829   2.346   6.727  0.2182  0.1456 -0.0834
  666MOL0     C91793   1.899   2.478   6.709 -0.3688  0.0082 -0.3597
  666MOL0     O91794   2.036   2.482   6.751 -0.6940 -0.5130 -0.8976
  666MOL0     C91795   2.111   2.593   6.719  0.2593 -0.0266  0.4165
  666MOL0     C91796   2.072   2.706   6.652  0.5709  0.0404 -0.3798
  666MOL0     C91797   2.149   2.818   6.631 -0.1122 -0.5271  0.5603
  666MOL0     C91798   2.098   2.937   6.549 -0.6272 -0.3530 -0.2257
  666MOL0     C91799   2.275   2.820   6.703  0.0064 -0.2776  0.5727
  666MOL0     C91800   2.352   2.941   6.724  0.7646  0.2568  0.5685
  666MOL0     O91801   2.279   3.054   6.754  0.1367 -0.0494  0.1609
  666MOL0     C91802   2.342   3.180   6.771 -0.1182  0.0133 -0.0756
  666MOL0     C91803   2.458   3.227   6.723  0.2071 -0.2992  0.2020
  666MOL0     C91804   2.518   3.350   6.771  0.5616  0.0066 -0.5562
  666MOL0     C91805   2.443   3.434   6.857  0.6322  0.7128 -0.2399
  666MOL0     O91806   2.494   3.553   6.902  0.8086  0.4351 -0.3640
  666MOL0     C91807   2.404   3.656   6.898 -0.0815 -0.6753 -0.7264
  666MOL0     C91808   2.344   3.688   6.761 -0.0911 -0.5328 -0.0502
  666MOL0     C91809   2.263   3.814   6.758  0.0224 -0.2604  0.5694
  666MOL0     C91810   2.233   3.851   6.615 -0.7072 -0.1573  0.7023
  666MOL0     C91811   2.131   3.973   6.617 -0.7277  0.0138  0.2045
  666MOL0     C91812   2.204   4.096   6.668  0.3456  1.1344 -0.1824
  666MOL0     C91813   2.111   4.216   6.647  0.5756 -1.0059 -0.0799
  666MOL0     C91814   2.175   4.347   6.695  0.9589  0.1527 -0.2440
  666MOL0    Cl91815   2.230   4.344   6.867  0.1460 -0.0338 -0.3666
  666MOL0     C91816   2.325   3.384   6.914 -0.3212 -0.5381 -0.6018
  666MOL0     C91817   2.276   3.269   6.857 -0.3318  0.8182 -0.2650
  666MOL0     O91818   2.476   2.931   6.710  0.1617  0.1101 -0.1632
  666MOL0     C91819   2.320   2.702   6.761  0.6524  0.1459 -0.0556
  666MOL0     C91820   2.241   2.596   6.767 -0.1698 -0.9140 -0.8479
  666MOL0     N91821   1.788   1.907   6.548  0.2588 -0.5219  0.5725
  666MOL0     N91822   1.858   1.813   6.504 -0.6766  0.1389  0.2186
  666MOL0     C91823   2.587   1.013   7.040  0.7173  0.8109  0.8978
  666MOL0     C91824   2.695   0.925   7.062 -0.4411 -0.1178 -0.1435
  666MOL0     C91825   2.994   0.592   6.925 -0.1775  0.8401  0.2503
  666MOL0     C91826   2.974   0.490   7.011 -0.8352  0.6560 -0.4559
  666MOL0     C91827   3.075   0.396   7.043 -0.2131 -0.2106  0.2828
  666MOL0     C91828   3.195   0.391   6.965  0.0426 -0.8030  0.4695
  666MOL0     O91829   3.279   0.284   6.986 -0.0928  0.8444 -0.0030
  666MOL0     C91830   3.402   0.268   6.921  0.0053  0.1359 -0.2616
  666MOL0     C91831   3.435   0.121   6.946  0.4732 -1.0987 -0.0621
  666MOL0     C91832   3.528   0.052   6.852 -0.2637  0.3467 -0.3656
  666MOL0     C91833   3.667   0.113   6.858 -0.3957  0.1986 -0.8329
  666MOL0     C91834   3.747   0.091   6.976  0.1931  1.0320 -0.4471
  666MOL0     C91835   3.813   0.054   7.070 -0.0662 -0.1660  0.1129
  666MOL0     C91836   3.218   0.497   6.875  0.0320 -0.2906  0.0251
  666MOL0     C91837   3.119   0.599   6.853 -0.1428  0.3973 -0.4686
  666MOL0     C91838   3.161   0.703   6.760  0.2598 -0.2138  0.6650
  666MOL0     H91839   2.608   0.674   6.872 -0.7833  0.0585  0.0811
  666MOL0     H91840   2.419   0.818   6.803  0.6331 -1.6261 -0.7551
  666MOL0     H91841   2.226   1.028   6.988 -0.3735  2.2786 -0.3278
  666MOL0     H91842   2.246   0.960   6.824  0.9886 -0.3724 -0.1128
  666MOL0     H91843   2.091   1.175   6.884  0.9652 -1.0084  2.7973
  666MOL0     H91844   2.231   1.259   6.857  1.3040  0.3452 -2.4431
  666MOL0     H91845   2.254   1.184   6.618  0.5978  2.2082  0.4798
  666MOL0     H91846   2.103   1.081   6.655 -0.3286  1.4541 -0.1351
  666MOL0     H91847   2.040   1.258   6.538 -3.6287  1.0597  0.6875
  666MOL0     H91848   1.969   1.283   6.697 -1.3569  4.5716 -0.7580
  666MOL0     H91849   2.243   1.393   6.608  1.0815  0.3605  0.5750
  666MOL0     H91850   2.154   1.451   6.748 -1.7098  1.1559 -0.7593
  666MOL0     H91851   2.104   1.512   6.458  0.9149 -0.6409  0.3706
  666MOL0     H91852   1.978   1.523   6.594  1.0164  0.9521  1.2966
  666MOL0     H91853   2.271   1.642   6.547 -0.4206 -1.3797 -0.6080
  666MOL0     H91854   2.180   1.706   6.683 -0.6003 -3.5493  1.3321
  666MOL0     H91855   2.176   1.846   6.488 -0.1169 -0.0897  3.0724
  666MOL0     H91856   2.076   1.724   6.409  1.3414  2.3073 -0.4655
  666MOL0     H91857   2.069   1.979   6.698  2.1429 -2.5768 -0.6523
  666MOL0     H91858   1.845   2.101   6.817  0.8619 -0.1456  0.8486
  666MOL0     H91859   1.723   2.125   6.676  1.0096 -0.0815 -3.6281
  666MOL0     H91860   2.003   2.213   6.716  0.9393 -2.2340 -2.7155
  666MOL0     H91861   1.911   2.247   6.560  2.6866  1.8992 -0.2983
  666MOL0     H91862   1.728   2.356   6.686  0.4401 -1.6607 -1.2136
  666MOL0     H91863   1.807   2.340   6.834 -6.3923  1.5742 -0.8831
  666MOL0     H91864   1.885   2.500   6.603  0.0142 -1.4331 -0.7273
  666MOL0     H91865   1.842   2.548   6.771  1.8445  0.8894  0.7744
  666MOL0     H91866   1.964   2.704   6.642  0.1269 -4.9093  2.3656
  666MOL0     H91867   2.180   2.994   6.506 -2.6383  2.6270 -0.3902
  666MOL0     H91868   2.040   2.999   6.618  2.7138 -0.6225  3.1763
  666MOL0     H91869   2.039   2.911   6.460  3.3806 -2.2936 -2.6139
  666MOL0     H91870   2.519   3.183   6.644 -1.6976  1.2257 -2.2674
  666MOL0     H91871   2.616   3.376   6.732  0.7901 -2.9642 -2.2640
  666MOL0     H91872   2.326   3.652   6.975  1.6094  1.3663  1.2096
  666MOL0     H91873   2.466   3.735   6.940 -0.6844 -1.3389  1.5800
  666MOL0     H91874   2.418   3.684   6.680 -1.7718  1.2404 -1.7624
  666MOL0     H91875   2.284   3.606   6.721  1.1495  0.2558 -3.9761
  666MOL0     H91876   2.324   3.891   6.805 -1.5432 -1.0437  4.2644
  666MOL0     H91877   2.171   3.807   6.816  0.5657 -1.0167  1.3594
  666MOL0     H91878   2.195   3.769   6.553 -1.8857  0.1241  1.0313
  666MOL0     H91879   2.329   3.890   6.579 -0.7037  1.0882  1.9759
  666MOL0     H91880   2.108   3.979   6.510  1.0334 -5.8650 -0.9028
  666MOL0     H91881   2.040   3.943   6.669 -0.8283  0.3054  0.1977
  666MOL0     H91882   2.304   4.115   6.627 -0.6371  0.2837 -3.1640
  666MOL0     H91883   2.221   4.082   6.775  0.9627 -1.6853 -0.5660
  666MOL0     H91884   2.020   4.198   6.706 -1.9214  1.4772 -2.8741
  666MOL0     H91885   2.086   4.234   6.543  1.3732  0.4265 -0.0419
  666MOL0     H91886   2.095   4.421   6.685 -1.6703 -2.3746  0.5354
  666MOL0     H91887   2.265   4.373   6.639  0.8837 -1.4614 -1.1821
  666MOL0     H91888   2.272   3.434   6.995  0.6944  0.5240 -0.5661
  666MOL0     H91889   2.185   3.228   6.900  2.1092 -4.2028  0.8349
  666MOL0     H91890   2.417   2.688   6.809  0.3755 -2.8567 -0.1966
  666MOL0     H91891   2.272   2.501   6.809  0.3052  0.1045  1.2108
  666MOL0     H91892   2.576   1.114   7.079  2.4631 -0.1505  4.2746
  666MOL0     H91893   2.776   0.960   7.125 -0.3919 -1.6345  0.6877
  666MOL0     H91894   2.876   0.474   7.055 -0.6918 -1.2194 -0.7570
  666MOL0     H91895   3.055   0.311   7.108  0.6487 -1.7880 -1.4010
  666MOL0     H91896   3.396   0.281   6.813  0.7446 -2.0189 -0.6016
  666MOL0     H91897   3.484   0.329   6.961 -0.9398 -0.0326  2.0577
  666MOL0     H91898   3.341   0.064   6.947  0.9313 -1.8825 -0.6129
  666MOL0     H91899   3.469   0.109   7.049 -0.6573  0.0646  0.4714
  666MOL0     H91900   3.537  -0.054   6.878  1.0914  0.7970  1.1567
  666MOL0     H91901   3.494   0.057   6.748  2.2363  1.8508 -1.2073
  666MOL0     H91902   3.657   0.222   6.846  1.2939  0.4067 -0.5979
  666MOL0     H91903   3.734   0.071   6.782  0.1251 -1.6719  0.5983
  666MOL0     H91904   3.873   0.063   7.158 -1.6119  1.0098  1.1085
  666MOL0     H91905   3.301   0.503   6.806 -1.1848 -2.8189 -1.8275
  666MOL0     H91906   3.240   0.767   6.802 -0.4481  1.6206 -0.6401
  666MOL0     H91907   3.212   0.657   6.675  0.4870 -0.9332  1.1821
  666MOL0     H91908   3.080   0.772   6.735  0.7235  0.6911  1.5734
  667MOL0     O91909   8.418   9.283   0.122  0.4929 -0.6769  0.1644
  667MOL0     C91910   8.472   9.377   0.171 -0.1062 -0.9576 -0.7607
  667MOL0     O91911   8.427   9.507   0.153  0.2964 -0.2434  0.5904
  667MOL0     C91912   8.309   9.536   0.084  0.1207 -0.1588 -0.1611
  667MOL0     C91913   8.313   9.632  -0.012 -0.2466 -0.8488 -0.1911
  667MOL0     C91914   8.195   9.661  -0.082  0.0254  0.1900  0.4489
  667MOL0     C91915   8.069   9.604  -0.049  0.0604 -0.0651 -0.3439
  667MOL0     O91916   7.947   9.641  -0.109  0.3491  0.8327 -0.2014
  667MOL0     C91917   7.951   9.685  -0.244 -0.9003 -0.0529  0.2941
  667MOL0     C91918   7.810   9.669  -0.311  0.0409 -0.4293 -0.6407
  667MOL0     C91919   7.809   9.679  -0.472  0.1568 -0.5481 -0.8308
  667MOL0     C91920   7.873   9.807  -0.523 -0.0466  0.6277  0.1483
  667MOL0     C91921   7.939   9.798  -0.665 -1.0926  0.2216  0.2537
  667MOL0     C91922   7.855   9.751  -0.781 -0.0317 -0.4602  0.5047
  667MOL0     C91923   7.788   9.874  -0.856  0.5239 -0.2356 -1.0072
  667MOL0     C91924   7.670   9.823  -0.927 -0.0168 -0.7353  0.7330
  667MOL0     N91925   7.590   9.928  -0.995  0.8340  0.0822  0.6095
  667MOL0     C91926   7.533  10.037  -0.939  0.2138  0.4548  0.9699
  667MOL0     C91927   7.463  10.107  -1.038 -0.6693  0.8238 -0.5255
  667MOL0     C91928   7.387  10.229  -1.030 -0.5962  1.2061 -0.7328
  667MOL0     C91929   7.405  10.312  -0.897  0.4196  0.3006  0.0090
  667MOL0     C91930   7.334  10.445  -0.905  0.1853  0.1322 -0.0785
  667MOL0     C91931   7.344  10.526  -0.778  0.4635  0.4870 -0.1585
  667MOL0     O91932   7.295  10.464  -0.659  0.9019  0.4588 -0.0699
  667MOL0     C91933   7.328  10.534  -0.547 -1.0278 -0.0146  0.4441
  667MOL0     C91934   7.316  10.470  -0.428 -1.0988 -0.3022  0.0789
  667MOL0     C91935   7.351  10.527  -0.308 -0.1008 -0.1300 -0.3429
  667MOL0     C91936   7.289  10.466  -0.181 -0.2580  0.3831 -0.0395
  667MOL0     C91937   7.406  10.660  -0.301 -0.8763 -0.2436  0.0349
  667MOL0     C91938   7.466  10.725  -0.183  1.0055 -0.0283  0.5328
  667MOL0     O91939   7.510  10.854  -0.201 -0.2005  0.2192  0.5252
  667MOL0     C91940   7.588  10.907  -0.107  0.2094 -0.7218  0.5660
  667MOL0     C91941   7.712  10.957  -0.146  0.8777 -0.6408 -0.3614
  667MOL0     C91942   7.791  11.033  -0.055  0.4780  0.5918  0.1345
  667MOL0     C91943   7.761  11.051   0.079 -0.5842  0.1596  0.7835
  667MOL0     O91944   7.848  11.115   0.166 -0.2794  0.0486  0.7721
  667MOL0     C91945   7.839  11.100   0.313  0.0423 -0.2401 -0.0861
  667MOL0     C91946   7.930  11.202   0.378  0.2389 -0.6792 -0.7013
  667MOL0     C91947   7.929  11.221   0.537  1.1658 -0.4190  1.0011
  667MOL0     C91948   8.019  11.121   0.616 -0.0777 -0.7026 -0.0516
  667MOL0     C91949   7.982  11.105   0.759  0.3145  0.0801 -0.2348
  667MOL0     C91950   8.100  11.028   0.825  0.6058  0.4420 -0.6815
  667MOL0     C91951   8.080  10.879   0.839  0.1776  0.0879  0.0849
  667MOL0     C91952   8.143  10.803   0.963  0.9921 -0.5455  0.6800
  667MOL0    Cl91953   8.325  10.783   0.933  0.2979  0.4223  0.2037
  667MOL0     C91954   7.642  10.987   0.116 -0.4961 -0.7185 -0.3045
  667MOL0     C91955   7.561  10.917   0.031  0.8846 -0.2947 -0.1563
  667MOL0     O91956   7.477  10.666  -0.076 -0.1073 -0.7036  1.0644
  667MOL0     C91957   7.420  10.730  -0.421  0.2441  0.5538 -0.2698
  667MOL0     C91958   7.379  10.668  -0.543  0.5128  0.1636 -0.4920
  667MOL0     N91959   7.476  10.040  -1.156 -0.6115 -0.1488 -0.6121
  667MOL0     N91960   7.549   9.930  -1.122 -0.3036  0.8876 -0.4258
  667MOL0     C91961   8.071   9.499   0.036 -0.2667 -0.2409  0.2693
  667MOL0     C91962   8.187   9.457   0.098  0.4104 -0.2332 -0.2002
  667MOL0     C91963   8.583   9.357   0.251 -0.1229 -0.4721  0.0473
  667MOL0     C91964   8.681   9.260   0.203  0.5967 -0.0229 -0.0076
  667MOL0     C91965   8.789   9.229   0.281 -0.1140  0.1046  0.5881
  667MOL0     C91966   8.815   9.309   0.393  0.6395 -0.4602 -0.7434
  667MOL0     O91967   8.932   9.277   0.460 -0.0811  0.3510 -1.2781
  667MOL0     C91968   8.905   9.253   0.604 -0.2586 -0.9274 -0.6638
  667MOL0     C91969   9.001   9.150   0.658  0.2551 -0.2933  0.1922
  667MOL0     C91970   8.946   9.091   0.784  0.2053  0.5377 -0.5536
  667MOL0     C91971   9.032   8.978   0.854  0.2537  0.6766 -0.5792
  667MOL0     C91972   9.075   8.887   0.749 -0.3220  0.4886 -1.2222
  667MOL0     C91973   9.126   8.829   0.657 -0.7438 -1.4452 -0.5448
  667MOL0     C91974   8.740   9.419   0.429  0.3273 -0.9879 -0.9868
  667MOL0     C91975   8.615   9.435   0.363  0.0700 -0.3533  0.3617
  667MOL0     C91976   8.532   9.562   0.401  0.1656 -0.2992 -0.0741
  667MOL0     H91977   8.398   9.697  -0.032 -1.9192  0.8922 -2.2871
  667MOL0     H91978   8.200   9.735  -0.161 -1.3535 -0.5985 -0.4211
  667MOL0     H91979   8.027   9.620  -0.289 -0.4879  0.5988  0.0380
  667MOL0     H91980   7.976   9.791  -0.246 -1.8199  0.2285  1.9606
  667MOL0     H91981   7.787   9.565  -0.288  4.0423 -1.0434  1.5207
  667MOL0     H91982   7.731   9.733  -0.270 -0.3343 -1.1317 -0.2417
  667MOL0     H91983   7.856   9.588  -0.510  2.9294 -1.7509  4.5765
  667MOL0     H91984   7.707   9.661  -0.508  0.6183  0.9560 -3.1464
  667MOL0     H91985   7.815   9.898  -0.509 -3.4609 -1.3399 -0.2108
  667MOL0     H91986   7.957   9.832  -0.457  1.7751  0.3345 -1.9250
  667MOL0     H91987   8.022   9.728  -0.647 -0.5458  0.1143 -2.2361
  667MOL0     H91988   7.993   9.887  -0.698  2.9017 -2.7079 -1.9989
  667MOL0     H91989   7.913   9.692  -0.853 -2.0264  1.5943 -3.0693
  667MOL0     H91990   7.781   9.680  -0.742  0.2962 -0.4189  1.2142
  667MOL0     H91991   7.846   9.932  -0.928 -2.1149  2.6779 -1.0217
  667MOL0     H91992   7.760   9.950  -0.782  3.6066  0.7040 -0.6994
  667MOL0     H91993   7.711   9.761  -1.007 -0.2366 -0.4010  0.3552
  667MOL0     H91994   7.606   9.759  -0.866 -1.4571 -0.0130  0.0367
  667MOL0     H91995   7.538  10.066  -0.834  0.6957 -0.0192  1.0831
  667MOL0     H91996   7.287  10.189  -1.051  0.9945 -3.4825 -0.5313
  667MOL0     H91997   7.413  10.292  -1.116 -3.7738 -0.5337 -3.2178
  667MOL0     H91998   7.371  10.258  -0.807  0.1942 -1.9886 -1.3727
  667MOL0     H91999   7.508  10.344  -0.881 -0.5086  3.2140  0.8455
  667MOL0     H92000   7.386  10.506  -0.980 -0.2029  2.1934  1.2328
  667MOL0     H92001   7.231  10.444  -0.942  0.1593  2.4362 -0.2685
  667MOL0     H92002   7.448  10.558  -0.772 -0.1665  2.7684 -0.5351
  667MOL0     H92003   7.279  10.611  -0.800 -0.5752 -1.2200 -4.9411
  667MOL0     H92004   7.267  10.373  -0.429 -2.9594  0.6090 -1.1955
  667MOL0     H92005   7.217  10.386  -0.200 -0.7967  0.5679  1.1369
  667MOL0     H92006   7.234  10.545  -0.130 -2.9342 -0.4088 -1.4899
  667MOL0     H92007   7.363  10.429  -0.110 -3.6882 -1.8214  2.6868
  667MOL0     H92008   7.753  10.958  -0.246  1.7587 -3.0455 -0.1025
  667MOL0     H92009   7.884  11.081  -0.082 -0.7453  2.0479 -1.7489
  667MOL0     H92010   7.739  11.112   0.356  0.7428 -0.6513  1.7640
  667MOL0     H92011   7.871  10.999   0.337 -1.3364 -0.6015  0.3091
  667MOL0     H92012   8.034  11.182   0.349  1.0283 -2.4754  2.8083
  667MOL0     H92013   7.901  11.297   0.332 -1.7586 -0.7173  0.3597
  667MOL0     H92014   7.827  11.221   0.577  0.2905  2.0852 -0.9623
  667MOL0     H92015   7.967  11.321   0.563  2.4375  0.1347 -2.4901
  667MOL0     H92016   8.119  11.164   0.612 -0.7301  1.1087 -5.4281
  667MOL0     H92017   8.015  11.023   0.567  0.6835 -1.5094  1.4398
  667MOL0     H92018   7.973  11.200   0.812 -3.0419  0.1703 -0.7079
  667MOL0     H92019   7.884  11.055   0.764  1.0542 -1.3734  0.3744
  667MOL0     H92020   8.096  11.064   0.928 -3.5570 -1.9729  0.2507
  667MOL0     H92021   8.194  11.048   0.772  2.4730 -2.9931  0.9794
  667MOL0     H92022   8.117  10.832   0.747  2.1108 -2.1545  1.8540
  667MOL0     H92023   7.973  10.857   0.845  0.0705  0.5134 -0.2255
  667MOL0     H92024   8.090  10.710   0.985 -3.6872  1.7107  0.2200
  667MOL0     H92025   8.127  10.866   1.051 -1.2543  0.0540 -0.0848
  667MOL0     H92026   7.604  11.008   0.215 -3.5716 -1.5981 -1.2108
  667MOL0     H92027   7.464  10.893   0.072  1.0070  2.3158  1.9738
  667MOL0     H92028   7.450  10.833  -0.430 -0.4261  0.6855 -1.0976
  667MOL0     H92029   7.377  10.726  -0.635 -1.9717  1.3075  0.1850
  667MOL0     H92030   7.984   9.441   0.065  1.3427 -1.1494  3.9201
  667MOL0     H92031   8.189   9.367   0.159  0.3471 -0.8634 -1.1054
  667MOL0     H92032   8.650   9.195   0.122  1.9706 -1.8599  0.8646
  667MOL0     H92033   8.847   9.137   0.277  0.4955  0.5148 -0.7424
  667MOL0     H92034   8.929   9.349   0.651 -0.4403 -0.0528 -2.2639
  667MOL0     H92035   8.802   9.225   0.627 -2.0166  2.0773 -3.7761
  667MOL0     H92036   9.094   9.200   0.685  1.6516 -2.5246 -0.1989
  667MOL0     H92037   9.022   9.077   0.580  0.8396 -0.5240  0.5584
  667MOL0     H92038   8.946   9.167   0.861  1.9668  0.2672 -0.2512
  667MOL0     H92039   8.843   9.059   0.763 -0.4813  2.3011 -0.0599
  667MOL0     H92040   8.966   8.921   0.920  2.8532 -2.3844 -0.4054
  667MOL0     H92041   9.114   9.020   0.913  2.1378 -0.7885 -2.0403
  667MOL0     H92042   9.164   8.770   0.577 -0.8562 -3.4693  0.8246
  667MOL0     H92043   8.774   9.477   0.514 -3.8966 -0.3078  0.5079
  667MOL0     H92044   8.425   9.559   0.424  0.3536 -0.1725  0.8610
  667MOL0     H92045   8.568   9.590   0.500 -1.7780  2.5032 -0.0435
  667MOL0     H92046   8.551   9.648   0.336 -2.3509 -2.0554 -3.4704
  668MOL0     O92047   8.178   0.713   2.701 -1.0632 -0.2944 -0.5831
  668MOL0     C92048   8.088   0.634   2.722  1.0104  0.8879 -0.0404
  668MOL0     O92049   8.035   0.538   2.636 -0.3437 -0.4815 -0.3809
  668MOL0     C92050   8.108   0.527   2.518 -0.2807  0.4881  0.1650
  668MOL0     C92051   8.155   0.408   2.474  0.3918 -0.6441  0.1060
  668MOL0     C92052   8.214   0.392   2.345 -0.2124  0.4190 -0.3834
  668MOL0     C92053   8.220   0.498   2.255  0.3783 -0.2354 -0.6930
  668MOL0     O92054   8.263   0.486   2.128 -0.4511  0.2082  0.1827
  668MOL0     C92055   8.270   0.357   2.067 -0.1616 -0.3840  0.2260
  668MOL0     C92056   8.301   0.378   1.917  0.0870 -0.1912  0.3448
  668MOL0     C92057   8.202   0.460   1.834 -0.7458  0.3636 -0.3637
  668MOL0     C92058   8.273   0.478   1.699 -0.4646 -0.3338  0.4491
  668MOL0     C92059   8.162   0.548   1.619 -0.0995  0.2068  0.8474
  668MOL0     C92060   8.214   0.609   1.488 -0.3491  1.0519 -0.2739
  668MOL0     C92061   8.104   0.674   1.412 -0.2953  0.2104  1.0508
  668MOL0     C92062   8.010   0.574   1.355 -0.1772  0.5109  0.3186
  668MOL0     N92063   7.916   0.647   1.274  0.4017 -0.6008 -0.3150
  668MOL0     C92064   7.812   0.723   1.323  0.3199 -1.5811  1.4184
  668MOL0     C92065   7.742   0.782   1.216 -0.7289  0.5972 -0.3148
  668MOL0     C92066   7.612   0.862   1.222 -0.5044  0.2319  0.1785
  668MOL0     C92067   7.621   1.000   1.144  0.9406  0.0906  0.2779
  668MOL0     C92068   7.527   1.102   1.203  0.2225 -0.8926  0.4972
  668MOL0     C92069   7.381   1.042   1.205  0.3558  0.6677 -1.2688
  668MOL0     O92070   7.293   1.141   1.262  0.1228  0.4459  0.4330
  668MOL0     C92071   7.159   1.113   1.275  0.5699  0.3734 -0.2821
  668MOL0     C92072   7.086   1.029   1.189  0.2217 -0.0968  0.0406
  668MOL0     C92073   6.952   1.001   1.206 -0.5071  0.3854  0.8328
  668MOL0     C92074   6.880   0.916   1.104 -0.4381 -0.4359 -0.1378
  668MOL0     C92075   6.895   1.062   1.318  0.2805  0.1504  0.4763
  668MOL0     C92076   6.752   1.035   1.355  0.6241  1.4659 -0.2258
  668MOL0     O92077   6.728   1.048   1.490  0.4911 -0.0718  0.2218
  668MOL0     C92078   6.603   1.041   1.554  0.3303  0.0285  1.0641
  668MOL0     C92079   6.520   1.154   1.545 -0.0604  0.6519 -0.1294
  668MOL0     C92080   6.391   1.143   1.593  0.1374  0.3514  1.1799
  668MOL0     C92081   6.338   1.014   1.643  0.1844  0.0349  0.4133
  668MOL0     O92082   6.213   0.992   1.696 -1.2415 -0.2835  0.9899
  668MOL0     C92083   6.146   0.871   1.661  1.1812 -0.2096  0.3928
  668MOL0     C92084   6.000   0.893   1.648 -0.6329 -1.6701 -1.0669
  668MOL0     C92085   5.942   0.792   1.542  0.0327 -0.0077  0.8439
  668MOL0     C92086   5.792   0.791   1.541  0.3764  0.4515  0.6840
  668MOL0     C92087   5.722   0.656   1.485 -0.9949  0.5195 -0.0508
  668MOL0     C92088   5.764   0.535   1.573 -0.0994  0.5303  0.7305
  668MOL0     C92089   5.693   0.399   1.558 -0.8032 -0.5866 -0.0690
  668MOL0     C92090   5.556   0.412   1.624  0.7219  0.3840 -0.1693
  668MOL0    Cl92091   5.460   0.274   1.574 -0.3451 -0.5188  0.1326
  668MOL0     C92092   6.432   0.913   1.656 -0.3115 -0.1565 -0.5293
  668MOL0     C92093   6.562   0.924   1.613  1.3658  0.8569 -1.1180
  668MOL0     O92094   6.667   1.017   1.273  0.0950  0.0895  0.3623
  668MOL0     C92095   6.974   1.131   1.412  0.3592 -0.6463 -0.8379
  668MOL0     C92096   7.103   1.165   1.393  0.1628 -0.0750 -0.1079
  668MOL0     N92097   7.821   0.762   1.107 -0.5509  0.3333 -0.1148
  668MOL0     N92098   7.918   0.682   1.140  0.9114 -0.4312 -0.7569
  668MOL0     C92099   8.178   0.617   2.305 -0.1820  0.0370  0.1508
  668MOL0     C92100   8.130   0.630   2.434  0.9871  0.2788 -0.6753
  668MOL0     C92101   8.009   0.659   2.844 -0.6059  0.6137  1.4133
  668MOL0     C92102   7.872   0.652   2.815 -0.7766  0.7762  0.5648
  668MOL0     C92103   7.785   0.702   2.907  0.6855  0.6807  0.5038
  668MOL0     C92104   7.828   0.755   3.026  0.1479 -0.1701  0.4083
  668MOL0     O92105   7.737   0.802   3.111  0.5140  0.4607  0.3049
  668MOL0     C92106   7.774   0.808   3.251  0.8673  0.0045 -0.6045
  668MOL0     C92107   7.645   0.848   3.316  0.5829 -0.1283 -0.1438
  668MOL0     C92108   7.660   0.827   3.470  0.1856 -0.1185  0.0757
  668MOL0     C92109   7.539   0.877   3.558  0.4714  0.4774  1.1166
  668MOL0     C92110   7.424   0.811   3.513  0.0665  0.1362 -0.1971
  668MOL0     C92111   7.314   0.765   3.489 -0.5423  0.2097  0.5881
  668MOL0     C92112   7.969   0.767   3.047  0.0950 -0.1051  0.0799
  668MOL0     C92113   8.061   0.714   2.956  0.1107 -0.3548 -0.5833
  668MOL0     C92114   8.203   0.734   2.972 -0.8137  0.8952 -0.6350
  668MOL0     H92115   8.124   0.319   2.529 -2.6815 -1.3289 -2.4202
  668MOL0     H92116   8.230   0.293   2.304 -1.2204  0.4991 -0.9831
  668MOL0     H92117   8.172   0.309   2.073 -0.1634 -0.6741 -1.6849
  668MOL0     H92118   8.354   0.299   2.106  0.8037  0.4046 -0.6144
  668MOL0     H92119   8.403   0.415   1.907 -0.4727  0.6046 -4.9988
  668MOL0     H92120   8.303   0.279   1.869 -2.5870 -0.8572  1.3933
  668MOL0     H92121   8.105   0.410   1.823 -0.8128 -0.2292  2.2092
  668MOL0     H92122   8.180   0.556   1.882  0.0961  0.8014 -0.8325
  668MOL0     H92123   8.356   0.548   1.686  0.9236 -2.2668 -2.2744
  668MOL0     H92124   8.286   0.379   1.655 -3.8879  0.3455 -2.5729
  668MOL0     H92125   8.119   0.631   1.675 -1.7401  0.2879 -0.4659
  668MOL0     H92126   8.085   0.470   1.613 -2.1414  1.7900  3.9125
  668MOL0     H92127   8.303   0.668   1.511  1.3263 -1.2482 -0.4935
  668MOL0     H92128   8.265   0.535   1.426  1.2763  2.6674 -0.9621
  668MOL0     H92129   8.149   0.728   1.329 -0.2699 -1.6941 -0.2578
  668MOL0     H92130   8.048   0.740   1.479  3.1071  0.5844  3.8059
  668MOL0     H92131   8.062   0.492   1.304 -0.9937 -1.5523  2.5905
  668MOL0     H92132   7.954   0.521   1.432  2.3939 -0.9557  1.2964
  668MOL0     H92133   7.772   0.706   1.423 -1.0304 -1.5670  0.9094
  668MOL0     H92134   7.611   0.892   1.327  0.3564 -2.1244  0.9360
  668MOL0     H92135   7.521   0.801   1.214  0.4806 -1.3609  0.6192
  668MOL0     H92136   7.719   1.049   1.153 -0.6865  3.6334  0.6875
  668MOL0     H92137   7.599   0.989   1.038  2.1694  1.1461 -0.1211
  668MOL0     H92138   7.554   1.141   1.302  0.8261  0.0666 -0.0327
  668MOL0     H92139   7.527   1.186   1.133 -1.1796 -1.4526 -0.2041
  668MOL0     H92140   7.350   1.014   1.104 -0.5794  0.3744 -0.9132
  668MOL0     H92141   7.364   0.953   1.266 -2.4367  1.3394 -0.9391
  668MOL0     H92142   7.142   0.987   1.106 -1.8167  1.1701 -2.1059
  668MOL0     H92143   6.953   0.879   1.031 -1.5521 -1.7468 -0.6266
  668MOL0     H92144   6.808   0.972   1.042 -0.5212 -0.9902 -0.5557
  668MOL0     H92145   6.826   0.833   1.151  0.3292 -1.0783 -0.3630
  668MOL0     H92146   6.553   1.253   1.514 -0.8652  1.2748  0.9080
  668MOL0     H92147   6.334   1.234   1.582  1.7408  1.0698 -2.8366
  668MOL0     H92148   6.181   0.834   1.564  0.9144  0.8863 -0.1394
  668MOL0     H92149   6.156   0.804   1.747 -1.0016  0.8810  1.5553
  668MOL0     H92150   5.971   0.878   1.753  1.0066 -1.0753 -0.5127
  668MOL0     H92151   5.985   0.993   1.607  0.6601 -0.6431  0.8067
  668MOL0     H92152   5.979   0.689   1.547  1.8754  0.5656 -0.2719
  668MOL0     H92153   5.988   0.817   1.446  0.0445 -1.9785  0.2915
  668MOL0     H92154   5.756   0.879   1.487  0.5300  0.2286  0.2178
  668MOL0     H92155   5.757   0.803   1.644 -1.7134 -0.6884  0.1753
  668MOL0     H92156   5.613   0.668   1.493 -1.0506  0.3399 -0.4946
  668MOL0     H92157   5.746   0.627   1.382 -0.5253  0.4877  0.0677
  668MOL0     H92158   5.747   0.577   1.673  1.2275  1.2313  0.6828
  668MOL0     H92159   5.872   0.518   1.568 -0.2817 -0.3725 -0.1869
  668MOL0     H92160   5.768   0.326   1.587  1.5541  1.7988  0.1980
  668MOL0     H92161   5.674   0.384   1.451  0.1117 -0.6504 -0.2258
  668MOL0     H92162   5.515   0.509   1.597  1.2204  0.1404 -1.8988
  668MOL0     H92163   5.569   0.413   1.733  0.6765 -2.7211 -0.0456
  668MOL0     H92164   6.406   0.822   1.709 -0.9068 -1.0938 -2.3309
  668MOL0     H92165   6.639   0.855   1.645  2.8387  1.9460 -2.2209
  668MOL0     H92166   6.936   1.162   1.509 -4.2071 -1.9185 -1.9950
  668MOL0     H92167   7.165   1.219   1.463  2.2553 -2.7488  0.2926
  668MOL0     H92168   8.180   0.695   2.229 -2.2482 -1.9884 -2.1925
  668MOL0     H92169   8.079   0.722   2.462 -1.9778 -1.2205 -0.8251
  668MOL0     H92170   7.818   0.593   2.742 -0.2752 -0.6849  1.3278
  668MOL0     H92171   7.677   0.696   2.901  0.7538 -2.3548  0.8378
  668MOL0     H92172   7.795   0.704   3.276  1.1183  0.1630 -0.1454
  668MOL0     H92173   7.855   0.880   3.267 -0.0553  0.7923  0.7767
  668MOL0     H92174   7.562   0.789   3.275  1.6548 -1.2875 -0.7000
  668MOL0     H92175   7.627   0.956   3.304  1.7334  0.0715 -0.1255
  668MOL0     H92176   7.689   0.724   3.493  0.3676 -0.3964 -1.3131
  668MOL0     H92177   7.744   0.894   3.490  0.5058  0.7823 -3.6055
  668MOL0     H92178   7.525   0.985   3.546 -1.1768  0.0465 -1.6108
  668MOL0     H92179   7.562   0.857   3.663  0.6153  3.0164  1.6256
  668MOL0     H92180   7.214   0.728   3.477 -0.3183  0.3243 -2.1489
  668MOL0     H92181   8.016   0.818   3.130  1.2395 -0.1155 -0.5483
  668MOL0     H92182   8.226   0.743   3.079 -0.9285 -0.5709 -0.4672
  668MOL0     H92183   8.262   0.651   2.931 -0.3392  0.4117  0.9077
  668MOL0     H92184   8.218   0.829   2.921  3.7717 -1.4263 -4.4008
  669MOL0     O92185   1.528   3.064   5.444 -0.0894 -0.3306 -0.3674
  669MOL0     C92186   1.494   3.122   5.553 -0.7262 -0.3204  0.3978
  669MOL0     O92187   1.468   3.052   5.670 -0.3409  0.3518 -0.1283
  669MOL0     C92188   1.552   2.942   5.700 -0.2908 -0.2723  0.5244
  669MOL0     C92189   1.683   2.923   5.656  0.0412  0.4973 -0.4258
  669MOL0     C92190   1.761   2.816   5.702  0.1079  0.3261 -0.8401
  669MOL0     C92191   1.713   2.720   5.792 -0.0941 -0.1041 -0.0518
  669MOL0     O92192   1.776   2.612   5.849 -0.9342 -0.1825  0.3167
  669MOL0     C92193   1.918   2.598   5.832 -0.5458 -0.7279 -1.4735
  669MOL0     C92194   1.985   2.469   5.891 -0.2663  0.0634  0.4899
  669MOL0     C92195   1.969   2.473   6.040  0.4411  0.3025 -0.9497
  669MOL0     C92196   2.046   2.354   6.100 -0.0728  0.0193 -0.9957
  669MOL0     C92197   2.073   2.365   6.249 -0.1132 -0.0725  0.3534
  669MOL0     C92198   2.185   2.266   6.296 -0.3688  0.8752  0.0434
  669MOL0     C92199   2.182   2.271   6.447  0.0866 -0.1927 -0.3851
  669MOL0     C92200   2.296   2.184   6.509  0.6182 -0.7397 -0.8792
  669MOL0     N92201   2.428   2.257   6.513  0.7881  0.0493 -0.0895
  669MOL0     C92202   2.531   2.248   6.419 -0.7313 -0.1003 -0.1215
  669MOL0     C92203   2.605   2.359   6.437  1.0646 -0.1753 -0.6571
  669MOL0     C92204   2.721   2.416   6.351 -1.3107 -0.0732 -0.3533
  669MOL0     C92205   2.693   2.422   6.207  0.3344 -0.4791  0.5700
  669MOL0     C92206   2.812   2.469   6.115  0.4581 -0.3421  0.2508
  669MOL0     C92207   2.864   2.621   6.132 -0.2238  0.3668  0.8164
  669MOL0     O92208   2.918   2.640   6.260 -0.5750 -0.4274 -0.3764
  669MOL0     C92209   2.968   2.765   6.300  0.5678 -0.2146  0.6960
  669MOL0     C92210   3.019   2.855   6.208 -0.5855 -0.1244  0.4698
  669MOL0     C92211   3.088   2.978   6.250 -0.2632  0.0552 -0.7971
  669MOL0     C92212   3.135   3.074   6.139  0.0491 -0.6972  0.4192
  669MOL0     C92213   3.087   3.003   6.399 -0.3985  0.5213  0.9320
  669MOL0     C92214   3.124   3.133   6.456  0.7752  0.2399 -0.0269
  669MOL0     O92215   3.219   3.121   6.554  0.2187 -0.2172 -0.3912
  669MOL0     C92216   3.252   3.239   6.616 -0.0632  0.3547 -0.7086
  669MOL0     C92217   3.196   3.262   6.743 -0.2478 -0.5195 -0.6426
  669MOL0     C92218   3.207   3.384   6.808 -0.9051  0.5538 -0.6748
  669MOL0     C92219   3.280   3.486   6.750  0.5414  0.4253  0.0032
  669MOL0     O92220   3.290   3.616   6.798  0.5223  0.5713 -0.3295
  669MOL0     C92221   3.207   3.658   6.910  0.8866  0.4721  0.4189
  669MOL0     C92222   3.226   3.807   6.941 -0.1014  0.5928  0.0771
  669MOL0     C92223   3.224   3.888   6.806 -0.0993 -0.2140 -0.4812
  669MOL0     C92224   3.159   4.022   6.811 -0.0422  0.1835  0.3557
  669MOL0     C92225   3.244   4.111   6.905 -0.4325 -0.3677 -0.3270
  669MOL0     C92226   3.196   4.259   6.899 -0.2335  0.0087 -0.0135
  669MOL0     C92227   3.287   4.366   6.967  0.0260  1.0146  0.3178
  669MOL0     C92228   3.285   4.343   7.122  0.0867  0.7783  0.4250
  669MOL0    Cl92229   3.131   4.415   7.179  0.0385 -0.2008 -0.3732
  669MOL0     C92230   3.352   3.460   6.633  0.2614  0.8386 -0.0225
  669MOL0     C92231   3.334   3.340   6.560  0.7446 -0.1696  0.8127
  669MOL0     O92232   3.084   3.235   6.400 -0.1627  0.3313  0.3357
  669MOL0     C92233   3.037   2.902   6.479 -0.6576  0.0212  0.3089
  669MOL0     C92234   2.986   2.783   6.433  0.8178  0.0243 -0.1448
  669MOL0     N92235   2.571   2.409   6.559 -0.0046 -0.4915  0.4708
  669MOL0     N92236   2.468   2.347   6.607 -0.2749 -0.2518 -0.1418
  669MOL0     C92237   1.586   2.744   5.840 -0.2272  0.5012  0.5863
  669MOL0     C92238   1.500   2.844   5.791  0.3277 -0.7108  0.2360
  669MOL0     C92239   1.479   3.269   5.543  0.6820  0.3680  0.2277
  669MOL0     C92240   1.449   3.335   5.430 -0.4264  0.9252  0.1042
  669MOL0     C92241   1.429   3.467   5.410  0.3061  1.0644 -0.0611
  669MOL0     C92242   1.447   3.553   5.518  0.3042  0.6558 -0.1921
  669MOL0     O92243   1.409   3.690   5.502  0.5641 -0.0415  0.5348
  669MOL0     C92244   1.436   3.791   5.600 -0.7535 -0.0554 -1.6113
  669MOL0     C92245   1.420   3.930   5.553 -0.0343 -0.3745 -0.7595
  669MOL0     C92246   1.521   3.973   5.441  0.1437 -0.3063 -0.0334
  669MOL0     C92247   1.662   4.010   5.495 -0.1332  0.1460 -0.1159
  669MOL0     C92248   1.744   4.066   5.390  0.7121  0.0523 -1.6090
  669MOL0     C92249   1.799   4.133   5.305 -0.0926 -0.1288 -0.3040
  669MOL0     C92250   1.493   3.503   5.644  0.5061 -0.1027  0.7917
  669MOL0     C92251   1.497   3.361   5.655 -0.1679 -0.1553 -0.2109
  669MOL0     C92252   1.536   3.299   5.789  0.7065  0.1371 -0.5127
  669MOL0     H92253   1.734   2.995   5.593  1.8673  1.0240  1.5008
  669MOL0     H92254   1.867   2.816   5.680  1.0190  1.5280  2.8279
  669MOL0     H92255   1.952   2.679   5.898  0.2746 -2.4081  0.2552
  669MOL0     H92256   1.940   2.608   5.725  2.1660 -0.3070 -0.9736
  669MOL0     H92257   1.921   2.388   5.857 -0.0895 -0.1173  0.5821
  669MOL0     H92258   2.087   2.464   5.852 -0.3285  0.2634  0.2992
  669MOL0     H92259   2.019   2.565   6.073  0.2821  0.0595 -0.0285
  669MOL0     H92260   1.864   2.481   6.067  0.4626  0.7215 -0.9764
  669MOL0     H92261   1.994   2.258   6.090 -0.5702  0.1401  0.2133
  669MOL0     H92262   2.142   2.343   6.049  0.7633  0.1663  0.4688
  669MOL0     H92263   1.979   2.335   6.297 -0.1066 -4.1908 -1.8001
  669MOL0     H92264   2.106   2.465   6.278 -0.6926  1.0577 -2.5452
  669MOL0     H92265   2.183   2.160   6.268  4.1085 -0.7668  4.3865
  669MOL0     H92266   2.282   2.296   6.255  1.9053 -2.2040  2.6164
  669MOL0     H92267   2.095   2.208   6.470  0.9758 -1.3162 -0.0199
  669MOL0     H92268   2.174   2.373   6.484 -3.1938 -0.8743  1.1584
  669MOL0     H92269   2.268   2.165   6.613  3.1296 -0.8943 -0.1458
  669MOL0     H92270   2.310   2.089   6.456  1.3709  0.3609 -2.7259
  669MOL0     H92271   2.549   2.186   6.331  2.0268  1.5682 -0.8639
  669MOL0     H92272   2.804   2.346   6.363  0.2657  1.5821 -1.1442
  669MOL0     H92273   2.754   2.516   6.381  1.4033  1.0774 -5.8619
  669MOL0     H92274   2.655   2.323   6.179  0.1269 -0.4523  0.7566
  669MOL0     H92275   2.607   2.485   6.185 -0.0179 -1.3145 -0.5489
  669MOL0     H92276   2.899   2.402   6.110  0.3459 -0.4213 -3.6942
  669MOL0     H92277   2.766   2.467   6.016  0.2478  0.8110  0.3133
  669MOL0     H92278   2.955   2.633   6.073  0.0353  2.6364  1.5717
  669MOL0     H92279   2.790   2.694   6.099  2.2794  2.6666 -0.1041
  669MOL0     H92280   2.998   2.851   6.102 -1.1454  0.5341  0.5532
  669MOL0     H92281   3.238   3.101   6.166  0.9426 -2.6484 -0.7869
  669MOL0     H92282   3.073   3.164   6.135 -0.8425 -1.3085  0.2471
  669MOL0     H92283   3.128   3.036   6.037 -0.9009 -3.5035  1.4182
  669MOL0     H92284   3.146   3.188   6.804  1.0857  0.1730  1.3590
  669MOL0     H92285   3.157   3.397   6.904  1.7839  4.5760  0.4419
  669MOL0     H92286   3.101   3.642   6.887 -0.1266 -0.1283  4.6522
  669MOL0     H92287   3.221   3.599   7.002 -0.1948 -0.8301 -0.2074
  669MOL0     H92288   3.138   3.834   6.999 -0.4869  2.4143 -1.2613
  669MOL0     H92289   3.319   3.826   6.995 -0.2699  0.9938  0.2294
  669MOL0     H92290   3.162   3.836   6.732  1.5628 -2.3194 -0.4949
  669MOL0     H92291   3.327   3.897   6.772  0.5528  1.6556  1.7307
  669MOL0     H92292   3.063   3.997   6.858  0.4594  0.1964  1.4047
  669MOL0     H92293   3.153   4.069   6.712  0.7783 -0.2984  0.0728
  669MOL0     H92294   3.250   4.081   7.010 -2.1381  0.8221  0.1581
  669MOL0     H92295   3.350   4.112   6.876 -0.5532 -2.4779 -1.0164
  669MOL0     H92296   3.096   4.268   6.942  0.0661  1.0452  0.4864
  669MOL0     H92297   3.193   4.275   6.791 -2.0508  0.4073  0.0544
  669MOL0     H92298   3.257   4.465   6.930 -1.7831  0.0740 -0.8933
  669MOL0     H92299   3.387   4.345   6.928 -1.5780  0.6866 -4.3420
  669MOL0     H92300   3.374   4.390   7.166  1.6840 -0.7888 -1.0075
  669MOL0     H92301   3.276   4.237   7.149 -0.8141  0.3626 -1.3979
  669MOL0     H92302   3.413   3.544   6.601 -0.2051  2.3319  2.7436
  669MOL0     H92303   3.380   3.337   6.462  1.6342  1.4720  1.1615
  669MOL0     H92304   3.061   2.905   6.585 -3.0430 -0.1736  0.9262
  669MOL0     H92305   2.951   2.703   6.498  0.8995 -0.3775 -0.5863
  669MOL0     H92306   1.544   2.686   5.921  0.9191  2.8288  2.9810
  669MOL0     H92307   1.395   2.853   5.817  0.1976 -0.5364 -0.3480
  669MOL0     H92308   1.435   3.281   5.337  2.0217  0.4356 -0.0415
  669MOL0     H92309   1.387   3.488   5.312  0.9449  2.3597 -0.0736
  669MOL0     H92310   1.378   3.776   5.691 -0.4191  1.7794 -1.0741
  669MOL0     H92311   1.541   3.778   5.628 -0.8786  0.7136 -0.7382
  669MOL0     H92312   1.432   3.986   5.646  1.6598 -2.9546  0.7081
  669MOL0     H92313   1.320   3.958   5.519 -0.6884 -0.6368  0.8199
  669MOL0     H92314   1.528   3.887   5.373  1.8427 -0.9831  0.9374
  669MOL0     H92315   1.464   4.048   5.385  1.0684  1.2249  1.0170
  669MOL0     H92316   1.708   3.917   5.530 -0.2827  1.3365  3.7463
  669MOL0     H92317   1.665   4.071   5.586  1.8581 -2.8064  1.9958
  669MOL0     H92318   1.853   4.200   5.242 -1.3976  0.6092 -0.6704
  669MOL0     H92319   1.514   3.564   5.731 -0.2292  0.9433  0.2594
  669MOL0     H92320   1.462   3.235   5.837  1.5003  0.0864  0.7001
  669MOL0     H92321   1.621   3.231   5.782  1.4583  0.7303  1.7675
  669MOL0     H92322   1.575   3.375   5.858 -0.9341  1.4586 -0.9745
  670MOL0     O92323   4.884   5.873   5.065 -0.5400 -0.1828  0.9169
  670MOL0     C92324   4.990   5.841   5.103 -0.6017 -0.1904  0.4964
  670MOL0     O92325   5.055   5.714   5.095  0.1561  0.0281  0.2822
  670MOL0     C92326   5.014   5.615   5.005 -0.2367 -0.6752  1.4991
  670MOL0     C92327   4.981   5.646   4.871  0.0682 -0.0254  0.4246
  670MOL0     C92328   4.936   5.553   4.771 -1.0708 -0.6547 -0.5330
  670MOL0     C92329   4.925   5.423   4.819 -0.4041  0.6036  0.0763
  670MOL0     O92330   4.876   5.326   4.730 -0.4752 -0.0109  0.3449
  670MOL0     C92331   4.763   5.358   4.649  0.6971 -0.5371  0.2834
  670MOL0     C92332   4.696   5.234   4.614 -0.6431 -0.0841 -1.2072
  670MOL0     C92333   4.564   5.263   4.539 -0.6394  0.0332 -0.3016
  670MOL0     C92334   4.498   5.129   4.499  0.2523 -0.6717  0.2435
  670MOL0     C92335   4.348   5.143   4.471  0.5005 -0.4188 -0.1399
  670MOL0     C92336   4.312   5.267   4.381 -0.0468 -0.1482 -0.9323
  670MOL0     C92337   4.204   5.354   4.442  0.4022  0.4234 -0.2159
  670MOL0     C92338   4.062   5.288   4.432 -0.3616 -0.7534 -1.0260
  670MOL0     N92339   4.002   5.293   4.287  0.0967  0.8517 -0.6274
  670MOL0     C92340   3.980   5.182   4.214 -0.1559 -0.7828  0.5425
  670MOL0     C92341   3.891   5.221   4.108 -0.4323 -0.1106 -0.3920
  670MOL0     C92342   3.855   5.142   3.988 -0.2978  0.3307 -1.0501
  670MOL0     C92343   3.702   5.127   3.978  0.1006  0.0929 -0.3517
  670MOL0     C92344   3.671   5.041   3.861 -0.1246 -0.1809  0.3144
  670MOL0     C92345   3.526   5.002   3.863  0.3337  0.4908 -0.1650
  670MOL0     O92346   3.482   4.936   3.979  0.7615  0.1629 -0.2753
  670MOL0     C92347   3.513   4.809   4.012 -0.7766 -0.4820  0.2752
  670MOL0     C92348   3.478   4.762   4.133  0.9248  0.2102 -0.6703
  670MOL0     C92349   3.488   4.632   4.176  0.9531  0.2760  0.4658
  670MOL0     C92350   3.443   4.596   4.316  0.4405 -0.8840  0.7013
  670MOL0     C92351   3.553   4.536   4.088  0.9035 -0.6917  0.0660
  670MOL0     C92352   3.588   4.391   4.121 -0.9730 -0.2956 -0.0300
  670MOL0     O92353   3.540   4.300   4.048 -0.0513  0.2124 -0.0044
  670MOL0     C92354   3.590   4.167   4.061  0.2110  0.3765 -0.1010
  670MOL0     C92355   3.532   4.085   4.157 -0.5511  0.0667 -0.0277
  670MOL0     C92356   3.582   3.959   4.171  0.8195  0.2871 -0.6530
  670MOL0     C92357   3.692   3.902   4.103 -0.0790  0.7768 -0.1362
  670MOL0     O92358   3.718   3.762   4.119  1.3106 -0.6600 -0.6981
  670MOL0     C92359   3.829   3.706   4.046 -0.0691  0.1459 -0.5232
  670MOL0     C92360   3.862   3.557   4.080  0.7275 -0.1449 -0.7101
  670MOL0     C92361   3.934   3.541   4.213  0.8649 -0.2885 -0.2491
  670MOL0     C92362   3.842   3.520   4.330 -0.1280  0.0338  0.8029
  670MOL0     C92363   3.905   3.564   4.463 -0.4491  1.3093 -0.3348
  670MOL0     C92364   4.013   3.463   4.508  0.1615 -0.0698  0.1743
  670MOL0     C92365   4.069   3.493   4.652 -0.7842 -0.6269 -0.3637
  670MOL0     C92366   4.159   3.389   4.706 -0.0881 -0.3220 -0.4492
  670MOL0    Cl92367   4.126   3.363   4.891 -0.1640 -0.2915 -0.1416
  670MOL0     C92368   3.745   3.980   4.000  0.2183 -0.0503 -0.4972
  670MOL0     C92369   3.691   4.116   3.985 -0.2652 -0.0268  0.1751
  670MOL0     O92370   3.650   4.375   4.232 -0.4024  0.0152  0.6316
  670MOL0     C92371   3.595   4.582   3.967 -0.8513  0.2141  0.2901
  670MOL0     C92372   3.579   4.717   3.924  0.6166 -0.6206 -0.5110
  670MOL0     N92373   3.864   5.355   4.114 -0.9797 -0.3512  0.1018
  670MOL0     N92374   3.927   5.396   4.226 -0.2253  0.0935 -0.1896
  670MOL0     C92375   4.964   5.383   4.943  0.3192 -0.4664 -0.5203
  670MOL0     C92376   5.014   5.479   5.032 -0.5193 -0.8078 -0.6843
  670MOL0     C92377   5.074   5.936   5.182 -0.2110 -0.9031 -1.0464
  670MOL0     C92378   5.214   5.919   5.183 -0.4155 -0.0135  0.0686
  670MOL0     C92379   5.293   6.007   5.258 -0.9057 -0.9306  1.1855
  670MOL0     C92380   5.240   6.116   5.321  0.0449  1.1136  0.2901
  670MOL0     O92381   5.327   6.202   5.393  0.0552  0.1478 -0.3754
  670MOL0     C92382   5.280   6.316   5.470 -0.3218  0.3277  0.4126
  670MOL0     C92383   5.405   6.374   5.547  0.0723  0.6594 -0.2383
  670MOL0     C92384   5.525   6.400   5.458 -0.5332  0.3263  0.0963
  670MOL0     C92385   5.618   6.294   5.425 -0.7587 -0.5707 -0.5908
  670MOL0     C92386   5.704   6.322   5.308  0.6121  0.3489  0.1758
  670MOL0     C92387   5.761   6.345   5.205 -0.1392  0.1376 -0.6942
  670MOL0     C92388   5.107   6.138   5.303 -0.4685  0.7629  0.4042
  670MOL0     C92389   5.014   6.042   5.249 -1.5040 -0.3837  0.1585
  670MOL0     C92390   4.868   6.074   5.261 -0.2049  0.0389  0.0690
  670MOL0     H92391   4.979   5.752   4.850 -1.5830 -0.0802  0.1743
  670MOL0     H92392   4.919   5.589   4.670  3.0064 -0.7525 -1.4182
  670MOL0     H92393   4.785   5.409   4.555 -0.9185 -1.0075 -0.3908
  670MOL0     H92394   4.692   5.415   4.711  1.1314  1.1010 -0.6474
  670MOL0     H92395   4.749   5.167   4.545 -2.7393 -0.5563 -2.4602
  670MOL0     H92396   4.678   5.179   4.707  1.3966 -0.5236 -1.0291
  670MOL0     H92397   4.506   5.320   4.613  1.5456  0.5187  1.1380
  670MOL0     H92398   4.592   5.329   4.457  1.1299  0.4474  0.5762
  670MOL0     H92399   4.554   5.096   4.410  0.1087  1.9800 -0.9288
  670MOL0     H92400   4.510   5.055   4.578 -2.3462  0.0100  1.3575
  670MOL0     H92401   4.288   5.150   4.563 -0.3841  4.4882 -0.7951
  670MOL0     H92402   4.301   5.055   4.426 -1.7899 -0.2758  1.7948
  670MOL0     H92403   4.395   5.338   4.381 -0.0384 -0.0832  1.7900
  670MOL0     H92404   4.286   5.233   4.280  2.2619  1.1896 -2.0584
  670MOL0     H92405   4.202   5.445   4.382 -1.4996  0.6541  0.1125
  670MOL0     H92406   4.227   5.389   4.543 -0.7003 -2.3421  1.1117
  670MOL0     H92407   4.061   5.186   4.473 -0.6701 -1.0309 -1.7085
  670MOL0     H92408   3.999   5.354   4.492 -0.5673 -1.2906 -0.6459
  670MOL0     H92409   4.015   5.080   4.229  0.4863 -1.0312 -2.1597
  670MOL0     H92410   3.899   5.042   3.998 -0.0329  0.5085 -0.4163
  670MOL0     H92411   3.890   5.186   3.894 -1.9401  0.6298 -1.5570
  670MOL0     H92412   3.672   5.080   4.072 -0.2257 -0.7017 -0.8489
  670MOL0     H92413   3.661   5.228   3.971  0.0628  0.5070  3.5328
  670MOL0     H92414   3.686   5.089   3.764 -1.7826  3.2075  1.5955
  670MOL0     H92415   3.732   4.950   3.863  1.7307  1.0272  1.7378
  670MOL0     H92416   3.464   5.091   3.848 -0.8393 -0.1201  0.8367
  670MOL0     H92417   3.507   4.944   3.772  1.2801 -1.6581  0.9548
  670MOL0     H92418   3.427   4.837   4.194 -3.0891 -1.2371 -1.9128
  670MOL0     H92419   3.353   4.534   4.310  1.8110 -2.7983 -1.7098
  670MOL0     H92420   3.422   4.676   4.388  0.5817 -0.1583 -0.0390
  670MOL0     H92421   3.512   4.528   4.368  5.5299  1.6121 -2.0835
  670MOL0     H92422   3.457   4.134   4.218 -1.3944  0.8815 -1.6556
  670MOL0     H92423   3.527   3.888   4.231  1.5663  1.2909  1.3120
  670MOL0     H92424   3.812   3.700   3.939  0.1949 -2.9184 -0.4775
  670MOL0     H92425   3.910   3.777   4.064  0.4212 -0.1521 -1.4958
  670MOL0     H92426   3.773   3.493   4.071  2.9065 -3.0977 -3.6908
  670MOL0     H92427   3.931   3.532   3.999  0.3634 -2.4898 -0.3843
  670MOL0     H92428   4.004   3.624   4.225  1.2113 -0.3240 -1.8745
  670MOL0     H92429   3.981   3.443   4.216 -2.1817 -1.8748 -0.1225
  670MOL0     H92430   3.799   3.420   4.327  0.2097 -0.1181  0.9932
  670MOL0     H92431   3.762   3.590   4.307  0.3841  0.3437 -0.0760
  670MOL0     H92432   3.939   3.668   4.461  2.5588  0.4601  1.1729
  670MOL0     H92433   3.823   3.552   4.535  1.2620 -1.9291  1.2881
  670MOL0     H92434   4.094   3.471   4.436 -1.2636  0.0893 -1.4857
  670MOL0     H92435   3.971   3.362   4.509  1.9128 -0.8384  0.5260
  670MOL0     H92436   3.981   3.495   4.718 -1.3315  0.0071 -1.0952
  670MOL0     H92437   4.110   3.594   4.644 -0.7963 -0.6405 -0.5954
  670MOL0     H92438   4.264   3.419   4.699 -0.0771 -0.5532 -1.5420
  670MOL0     H92439   4.141   3.289   4.666  0.0535  0.3835 -2.4162
  670MOL0     H92440   3.811   3.949   3.920 -1.8084 -1.5140 -1.6988
  670MOL0     H92441   3.735   4.182   3.911  2.3704  2.4743  3.6413
  670MOL0     H92442   3.638   4.511   3.897 -3.2828  0.2913 -1.4102
  670MOL0     H92443   3.613   4.746   3.825  4.5134 -2.2887  0.1276
  670MOL0     H92444   4.947   5.281   4.976  0.6627 -0.2087  0.5038
  670MOL0     H92445   5.048   5.448   5.131  2.3947  1.4254 -0.8524
  670MOL0     H92446   5.267   5.839   5.132  3.1862 -1.5906  5.4161
  670MOL0     H92447   5.400   6.002   5.273 -0.5298  0.3003 -0.8169
  670MOL0     H92448   5.239   6.396   5.409  0.1447 -0.0622 -0.4278
  670MOL0     H92449   5.194   6.290   5.532 -1.3772 -0.1510 -1.1975
  670MOL0     H92450   5.421   6.305   5.630 -1.6093  1.7538  1.0592
  670MOL0     H92451   5.371   6.463   5.599 -3.1338 -0.2384 -0.5734
  670MOL0     H92452   5.492   6.446   5.365 -0.5016 -1.0715 -0.6278
  670MOL0     H92453   5.583   6.479   5.506 -1.3623  1.4270 -0.6864
  670MOL0     H92454   5.579   6.195   5.401  0.2744 -1.7983  2.3372
  670MOL0     H92455   5.681   6.281   5.514 -1.0724  0.0232 -0.2754
  670MOL0     H92456   5.800   6.370   5.108  0.2307 -3.5709 -1.6296
  670MOL0     H92457   5.064   6.227   5.347  0.8849  0.9176  1.4557
  670MOL0     H92458   4.815   5.985   5.296  1.1124 -1.9545 -2.6321
  670MOL0     H92459   4.859   6.140   5.348  0.0518 -0.5362  0.5384
  670MOL0     H92460   4.821   6.106   5.167 -1.7897 -1.3242  0.3495
  671MOL0     O92461  10.957   5.227   4.074  0.4582 -0.1495 -0.4743
  671MOL0     C92462  10.905   5.246   3.967 -1.1683  0.0388 -0.4055
  671MOL0     O92463  10.778   5.299   3.950  0.4663 -0.1146 -0.3803
  671MOL0     C92464  10.689   5.333   4.049  0.3830  0.0235  0.1464
  671MOL0     C92465  10.548   5.350   4.012 -0.1400  0.5747  1.0732
  671MOL0     C92466  10.447   5.401   4.095  0.4409 -1.2519  1.0799
  671MOL0     C92467  10.485   5.432   4.223  0.0302  0.5938 -0.0161
  671MOL0     O92468  10.408   5.466   4.323  0.6866 -0.5367 -0.4147
  671MOL0     C92469  10.274   5.503   4.307 -0.1732 -0.1613  0.1961
  671MOL0     C92470  10.216   5.546   4.442 -0.4006 -0.2962  0.4809
  671MOL0     C92471  10.188   5.424   4.534 -0.1634 -0.0587 -0.2390
  671MOL0     C92472  10.142   5.466   4.673 -0.3741  0.3742 -0.5561
  671MOL0     C92473  10.074   5.347   4.746  0.0633  0.6215  0.4359
  671MOL0     C92474  10.101   5.354   4.900  0.3123 -0.3185 -0.4934
  671MOL0     C92475  10.072   5.497   4.945  0.5581  0.2509  0.5431
  671MOL0     C92476   9.928   5.549   4.923 -0.3722  0.2244 -0.0426
  671MOL0     N92477   9.895   5.658   5.026  0.3578  0.6768  0.2158
  671MOL0     C92478   9.985   5.745   5.082  1.0162 -0.0125 -0.3111
  671MOL0     C92479   9.917   5.813   5.179  1.0135  0.3534 -0.9891
  671MOL0     C92480   9.980   5.912   5.277 -0.0450  0.5780  0.2574
  671MOL0     C92481  10.042   6.025   5.192 -0.0484 -0.1470  0.1469
  671MOL0     C92482  10.100   6.129   5.282 -0.0883  0.1116  0.6711
  671MOL0     C92483  10.139   6.248   5.185 -0.0142 -0.7708 -0.7909
  671MOL0     O92484  10.019   6.332   5.158  0.2927 -0.2392 -0.5515
  671MOL0     C92485  10.056   6.458   5.119 -0.1158 -0.6825 -0.0182
  671MOL0     C92486  10.065   6.488   4.980  0.2674 -0.9004 -0.7647
  671MOL0     C92487  10.081   6.622   4.942  0.4189 -0.4392 -0.5286
  671MOL0     C92488  10.065   6.638   4.793  0.6199  0.0467 -0.3023
  671MOL0     C92489  10.117   6.722   5.031  0.3356  0.3268 -0.7710
  671MOL0     C92490  10.142   6.863   4.994  0.0392 -0.3718 -0.4613
  671MOL0     O92491  10.111   6.904   4.872  0.4194  0.6511 -0.4433
  671MOL0     C92492  10.104   7.034   4.838 -0.5436 -0.5424  0.6513
  671MOL0     C92493  10.201   7.128   4.884  0.0771 -0.0717 -0.7617
  671MOL0     C92494  10.186   7.266   4.852 -0.6548 -0.9068  0.1039
  671MOL0     C92495  10.089   7.306   4.760 -0.0808 -0.3996  0.0210
  671MOL0     O92496  10.057   7.436   4.735 -0.5506 -0.4374 -0.1439
  671MOL0     C92497  10.158   7.510   4.653 -0.8333  0.6058  0.0488
  671MOL0     C92498  10.128   7.539   4.508  1.1345  1.0584 -0.0436
  671MOL0     C92499   9.987   7.609   4.504  0.6631  0.9001 -0.3686
  671MOL0     C92500  10.002   7.753   4.552 -0.0943 -0.3256  0.0462
  671MOL0     C92501   9.859   7.824   4.540  0.1476 -0.7195  1.1609
  671MOL0     C92502   9.884   7.976   4.545 -0.5597 -0.5506 -0.4084
  671MOL0     C92503   9.978   8.029   4.433 -0.1562 -1.3913 -0.0840
  671MOL0     C92504   9.970   8.176   4.413  0.1005 -1.0033 -0.6187
  671MOL0    Cl92505  10.029   8.207   4.246  0.5791  0.3650 -0.0342
  671MOL0     C92506  10.007   7.209   4.699  0.0517  0.1567  0.8880
  671MOL0     C92507  10.014   7.081   4.740  0.3651  0.2567 -0.0568
  671MOL0     O92508  10.182   6.937   5.091 -0.2361  0.0938  0.0945
  671MOL0     C92509  10.108   6.696   5.170  0.0717  0.5428  0.8682
  671MOL0     C92510  10.083   6.562   5.209 -1.1651 -0.0295  0.3676
  671MOL0     N92511   9.787   5.767   5.172  0.0914 -0.8586 -0.0507
  671MOL0     N92512   9.771   5.681   5.082  0.2926 -0.1578 -0.6922
  671MOL0     C92513  10.622   5.400   4.263  0.7518 -0.3755  0.0254
  671MOL0     C92514  10.727   5.362   4.180 -0.2437  0.2092 -0.6937
  671MOL0     C92515  10.981   5.209   3.851 -0.1384 -0.3457  0.2327
  671MOL0     C92516  10.920   5.197   3.722  0.2049  0.1915 -0.9883
  671MOL0     C92517  10.988   5.157   3.613 -0.2624  0.6818  0.5755
  671MOL0     C92518  11.116   5.102   3.624  0.4281  0.6796 -0.8356
  671MOL0     O92519  11.178   5.051   3.516  0.2146  0.3754  0.9298
  671MOL0     C92520  11.228   5.131   3.409  1.1782 -0.3407 -0.4101
  671MOL0     C92521  11.199   5.045   3.286  0.0324 -0.2212  0.7331
  671MOL0     C92522  11.330   4.972   3.240  0.6337  0.3012  0.0109
  671MOL0     C92523  11.308   4.893   3.122 -0.0942  0.9165 -0.0218
  671MOL0     C92524  11.424   4.819   3.072  0.3513  0.1337  0.2107
  671MOL0     C92525  11.512   4.756   3.025  0.8052 -0.5457  0.1267
  671MOL0     C92526  11.186   5.131   3.743 -0.6138 -0.0199  0.7950
  671MOL0     C92527  11.126   5.193   3.851 -1.0997 -0.2515  0.1586
  671MOL0     C92528  11.219   5.221   3.973  0.8334 -0.2184  1.8127
  671MOL0     H92529  10.522   5.320   3.911 -2.6932 -1.9576  2.3270
  671MOL0     H92530  10.349   5.420   4.052  1.2336  0.7952  0.0426
  671MOL0     H92531  10.223   5.415   4.266 -0.5659  0.0490  0.2273
  671MOL0     H92532  10.267   5.585   4.235 -0.3461 -0.3770 -0.0360
  671MOL0     H92533  10.292   5.609   4.489  0.3277  0.4341 -1.5565
  671MOL0     H92534  10.124   5.601   4.419  0.3478  0.9744  0.4394
  671MOL0     H92535  10.116   5.366   4.477  0.2371  0.6538 -1.5169
  671MOL0     H92536  10.273   5.355   4.542 -0.5331 -1.1559 -3.7956
  671MOL0     H92537  10.227   5.498   4.734 -0.7813 -1.9755  1.4284
  671MOL0     H92538  10.073   5.551   4.664  1.0442  1.6092 -0.1388
  671MOL0     H92539  10.108   5.249   4.710 -3.7114 -0.7504  0.1566
  671MOL0     H92540   9.967   5.350   4.724  0.4715 -1.0699 -2.3163
  671MOL0     H92541  10.034   5.284   4.950  1.3909 -1.2074 -0.2502
  671MOL0     H92542  10.204   5.338   4.933 -0.4202  0.9917  2.8221
  671MOL0     H92543  10.140   5.572   4.903  1.5217 -0.0280  1.5624
  671MOL0     H92544  10.102   5.495   5.050 -1.5027 -0.5320  1.1699
  671MOL0     H92545   9.916   5.595   4.824 -3.2769 -2.9431 -1.3476
  671MOL0     H92546   9.863   5.463   4.904  2.2817 -1.4307 -2.3532
  671MOL0     H92547  10.090   5.759   5.056  1.5527 -4.7413 -1.4741
  671MOL0     H92548  10.066   5.865   5.326  0.5305 -1.6834 -2.6510
  671MOL0     H92549   9.907   5.943   5.353 -1.3387 -1.0281 -0.2785
  671MOL0     H92550  10.119   5.975   5.133  0.9897  2.5238 -0.9136
  671MOL0     H92551   9.964   6.065   5.126 -2.6910 -1.3749  2.3526
  671MOL0     H92552  10.029   6.161   5.359 -1.6285  0.7479 -0.9485
  671MOL0     H92553  10.199   6.098   5.316  0.4112 -2.0945 -2.4012
  671MOL0     H92554  10.203   6.310   5.249  0.3804  0.6305 -2.4544
  671MOL0     H92555  10.190   6.217   5.093  1.1539  1.4715 -0.9673
  671MOL0     H92556  10.045   6.411   4.907  0.1398  0.9867 -2.8432
  671MOL0     H92557   9.975   6.695   4.770  0.1004 -1.6274 -2.9298
  671MOL0     H92558  10.048   6.545   4.737 -2.5945  0.3248  0.0039
  671MOL0     H92559  10.153   6.689   4.753  0.1476  0.0000 -1.4266
  671MOL0     H92560  10.290   7.114   4.945 -1.5869  0.1198  1.8720
  671MOL0     H92561  10.243   7.345   4.899 -5.4746  2.4426  1.0827
  671MOL0     H92562  10.173   7.605   4.705  0.6760  0.6275 -0.3767
  671MOL0     H92563  10.250   7.453   4.640 -1.8461 -1.4852  1.4373
  671MOL0     H92564  10.200   7.612   4.470  1.7588  1.2473  1.4211
  671MOL0     H92565  10.129   7.446   4.451 -0.1788  0.3258  1.0630
  671MOL0     H92566   9.918   7.563   4.575  3.4050 -1.2420  1.1291
  671MOL0     H92567   9.951   7.608   4.401  0.2640  1.1936 -0.2311
  671MOL0     H92568  10.065   7.790   4.471 -2.5532 -0.1292 -1.9277
  671MOL0     H92569  10.041   7.766   4.653 -2.6199  0.3139  1.0120
  671MOL0     H92570   9.812   7.790   4.447  0.8569 -1.1405  0.9482
  671MOL0     H92571   9.790   7.794   4.620  0.1962 -3.2638  0.3534
  671MOL0     H92572   9.945   7.992   4.634 -0.9085  1.0374 -0.4409
  671MOL0     H92573   9.791   8.032   4.536  1.8522  3.9416  0.0761
  671MOL0     H92574   9.960   7.985   4.335 -2.3278  2.5036 -1.6828
  671MOL0     H92575  10.079   8.000   4.463 -0.1940 -1.6928 -0.2511
  671MOL0     H92576  10.044   8.220   4.480  2.8486  1.3376 -4.7691
  671MOL0     H92577   9.863   8.191   4.424  0.2144 -1.3961  1.3810
  671MOL0     H92578   9.926   7.232   4.631 -0.4209 -1.6468  0.7949
  671MOL0     H92579   9.941   7.012   4.699  0.1745  0.2951  0.2136
  671MOL0     H92580  10.132   6.774   5.241  0.4571 -0.4437  1.8555
  671MOL0     H92581  10.087   6.545   5.316 -1.3772 -0.3918  0.3177
  671MOL0     H92582  10.644   5.415   4.368 -0.1916 -0.7639  0.2855
  671MOL0     H92583  10.825   5.352   4.225 -1.5150 -0.4313  2.2101
  671MOL0     H92584  10.812   5.203   3.713  0.0758 -0.2990  0.0637
  671MOL0     H92585  10.944   5.156   3.513 -0.2133  2.3819  0.5136
  671MOL0     H92586  11.181   5.230   3.413  1.4663 -0.2428  1.1281
  671MOL0     H92587  11.335   5.139   3.425  1.1801 -2.1723  0.7891
  671MOL0     H92588  11.171   5.116   3.207 -2.8155 -1.1668  0.7678
  671MOL0     H92589  11.117   4.973   3.293 -0.2407 -0.0309 -0.3489
  671MOL0     H92590  11.407   5.047   3.220  2.1598  0.2535  4.4422
  671MOL0     H92591  11.371   4.910   3.320 -1.1825 -1.1202 -0.1055
  671MOL0     H92592  11.270   4.955   3.040  3.4029  3.0682 -0.1848
  671MOL0     H92593  11.223   4.828   3.145 -0.6856  1.1446 -1.4432
  671MOL0     H92594  11.582   4.690   2.977  0.7206 -2.1730  2.1211
  671MOL0     H92595  11.289   5.097   3.738 -0.8504 -0.6036 -1.9164
  671MOL0     H92596  11.181   5.158   4.055 -1.8575 -2.5669 -0.9727
  671MOL0     H92597  11.322   5.200   3.944  1.4849  3.6285  0.7849
  671MOL0     H92598  11.228   5.326   3.998 -1.5814  1.3035 -2.5381
  672MOL0     O92599   2.056   9.674   4.131  0.2665 -0.4201  0.4719
  672MOL0     C92600   2.143   9.758   4.169 -1.0485 -1.2908  0.1082
  672MOL0     O92601   2.164   9.795   4.298  0.3232  0.2217  0.0312
  672MOL0     C92602   2.152   9.692   4.387 -0.8936 -0.2960  0.1683
  672MOL0     C92603   2.259   9.596   4.407 -0.4240  1.5531  0.1540
  672MOL0     C92604   2.225   9.485   4.496  0.0484  0.8942 -0.4300
  672MOL0     C92605   2.109   9.475   4.567  0.6741  0.1942 -0.2825
  672MOL0     O92606   2.096   9.378   4.658  0.2578 -1.0282 -0.2141
  672MOL0     C92607   2.009   9.275   4.610  0.4280 -0.0247 -0.2318
  672MOL0     C92608   1.898   9.244   4.714 -0.5115  1.0569 -0.0354
  672MOL0     C92609   1.959   9.218   4.865  0.9595  0.4923 -0.8090
  672MOL0     C92610   2.011   9.067   4.862  0.5666 -0.3683 -0.0529
  672MOL0     C92611   2.069   9.033   5.000 -0.4154 -0.5520 -0.5351
  672MOL0     C92612   2.213   9.084   5.017  0.4355 -0.4334  0.5089
  672MOL0     C92613   2.289   8.988   5.108 -1.0669  0.8562 -0.4750
  672MOL0     C92614   2.436   9.048   5.140  0.2515 -0.5340  0.6884
  672MOL0     N92615   2.521   8.959   5.223 -0.2944 -0.5897 -0.5135
  672MOL0     C92616   2.512   8.930   5.362  1.4188  0.0056  0.9728
  672MOL0     C92617   2.598   8.828   5.379  0.4123  0.2056 -0.9741
  672MOL0     C92618   2.618   8.733   5.499  0.9772 -0.6877  0.8672
  672MOL0     C92619   2.584   8.790   5.634  0.3900  0.2628  0.4189
  672MOL0     C92620   2.545   8.681   5.733 -0.1526 -0.6002 -0.0401
  672MOL0     C92621   2.498   8.745   5.872 -0.2085  0.0341  0.3566
  672MOL0     O92622   2.374   8.809   5.835  0.5650 -0.2894  0.1445
  672MOL0     C92623   2.321   8.909   5.911  0.2662  0.1207 -0.4311
  672MOL0     C92624   2.201   8.892   5.984 -0.3968 -0.2298 -0.6034
  672MOL0     C92625   2.134   8.992   6.048  1.2643  0.5979  0.3305
  672MOL0     C92626   2.000   8.962   6.114 -0.2491 -0.3022  0.4811
  672MOL0     C92627   2.202   9.123   6.059  0.0138  0.9125  0.4442
  672MOL0     C92628   2.165   9.246   6.141  0.0454  1.5104 -0.0652
  672MOL0     O92629   2.046   9.244   6.213 -0.2028  0.1758  0.4273
  672MOL0     C92630   1.993   9.368   6.230  0.2178  0.1226  1.3373
  672MOL0     C92631   2.034   9.446   6.337 -0.5037 -1.3295  0.2972
  672MOL0     C92632   1.963   9.566   6.372 -0.2528 -0.4704  0.0624
  672MOL0     C92633   1.855   9.606   6.295  0.0391  0.0458 -0.8848
  672MOL0     O92634   1.781   9.713   6.324  0.4506  0.2589  0.1099
  672MOL0     C92635   1.826   9.807   6.428  0.6154  0.5459  1.0125
  672MOL0     C92636   1.731   9.925   6.437  0.4713  0.3207  0.0782
  672MOL0     C92637   1.791  10.037   6.530 -0.2792 -0.1984  0.3916
  672MOL0     C92638   1.681  10.151   6.529 -0.8051 -1.1045 -0.1822
  672MOL0     C92639   1.680  10.226   6.665 -0.5935 -0.4659  1.7873
  672MOL0     C92640   1.812  10.287   6.721 -0.1334  0.1136 -0.7012
  672MOL0     C92641   1.853  10.437   6.692 -0.3807 -0.0148  0.1399
  672MOL0     C92642   1.851  10.487   6.550 -0.1837  0.0911  0.8955
  672MOL0    Cl92643   1.959  10.406   6.440 -0.1216 -0.1462  0.4061
  672MOL0     C92644   1.814   9.523   6.193 -0.4971  0.0239 -0.3682
  672MOL0     C92645   1.878   9.400   6.164  0.8456  0.1890  0.8010
  672MOL0     O92646   2.249   9.339   6.157  0.2752  0.2991 -0.5952
  672MOL0     C92647   2.326   9.134   5.985 -0.4696  1.0966  0.3022
  672MOL0     C92648   2.380   9.032   5.915 -0.6828 -0.1936  0.4392
  672MOL0     N92649   2.656   8.799   5.257  0.0713  0.7657  0.0592
  672MOL0     N92650   2.606   8.874   5.160 -1.0929  0.1049  0.0100
  672MOL0     C92651   2.020   9.590   4.555 -0.1128  0.1687  0.0368
  672MOL0     C92652   2.042   9.698   4.472 -0.3486 -0.0798 -0.1469
  672MOL0     C92653   2.253   9.790   4.066  0.7798 -0.0686 -0.9595
  672MOL0     C92654   2.379   9.839   4.107 -0.5285 -0.8692 -0.0953
  672MOL0     C92655   2.481   9.855   4.014 -0.4715 -0.6467 -0.3300
  672MOL0     C92656   2.461   9.847   3.883 -0.4194  0.7338  0.7396
  672MOL0     O92657   2.565   9.889   3.805  0.3513  0.5462  0.6952
  672MOL0     C92658   2.538   9.986   3.698  0.3938  0.3839 -0.7796
  672MOL0     C92659   2.521   9.938   3.559 -0.0797  0.3745  0.6095
  672MOL0     C92660   2.650   9.918   3.472 -0.3915  0.3374 -0.8405
  672MOL0     C92661   2.625   9.892   3.325  0.6407 -0.8938  0.5612
  672MOL0     C92662   2.746   9.847   3.253  0.5702  0.4110 -0.5585
  672MOL0     C92663   2.845   9.834   3.181  0.2012  0.3645 -0.8073
  672MOL0     C92664   2.337   9.802   3.832 -0.4555  0.2841  0.4564
  672MOL0     C92665   2.236   9.772   3.927  0.3263  0.3568  0.3449
  672MOL0     C92666   2.097   9.751   3.861  0.1580  0.0601 -0.2430
  672MOL0     H92667   2.357   9.606   4.360  1.6770 -3.2726  2.7860
  672MOL0     H92668   2.303   9.410   4.502 -0.6498  0.2515  1.0816
  672MOL0     H92669   2.063   9.181   4.594 -0.4370 -0.4819 -0.4845
  672MOL0     H92670   1.958   9.296   4.515 -0.2791  1.4220  0.4331
  672MOL0     H92671   1.846   9.339   4.730 -1.2972  0.4727  0.9565
  672MOL0     H92672   1.819   9.174   4.686 -1.5235  2.5992 -1.1816
  672MOL0     H92673   2.040   9.287   4.889 -2.1788  3.2542  3.3293
  672MOL0     H92674   1.881   9.236   4.940  0.0456  1.3998 -1.9374
  672MOL0     H92675   1.928   9.002   4.830  0.8237 -0.9806  0.5111
  672MOL0     H92676   2.086   9.055   4.783 -1.1835 -1.0074 -1.6973
  672MOL0     H92677   2.070   8.924   5.007  0.5057 -0.4564  1.6731
  672MOL0     H92678   2.008   9.072   5.083 -1.8858  0.6775 -2.1202
  672MOL0     H92679   2.273   9.084   4.925  0.4228  1.3565  0.4736
  672MOL0     H92680   2.218   9.177   5.075 -1.6755 -0.8020  1.3544
  672MOL0     H92681   2.286   8.890   5.061 -1.7714  1.3506 -1.5207
  672MOL0     H92682   2.241   8.987   5.206  4.3996  3.1698  2.6711
  672MOL0     H92683   2.478   9.086   5.047 -2.8736  1.0760 -0.2281
  672MOL0     H92684   2.414   9.140   5.195  0.4325  0.0844 -0.2507
  672MOL0     H92685   2.438   8.966   5.432 -0.9655  0.3170 -1.5462
  672MOL0     H92686   2.724   8.707   5.494  0.8354 -1.4906 -4.6553
  672MOL0     H92687   2.575   8.633   5.485 -1.6120  0.1522  2.1555
  672MOL0     H92688   2.668   8.849   5.672 -0.0355 -0.0458  1.9159
  672MOL0     H92689   2.492   8.845   5.614  1.0471  0.9051 -0.9683
  672MOL0     H92690   2.468   8.608   5.705  1.5155 -2.9721  1.1787
  672MOL0     H92691   2.631   8.616   5.753  2.0688  1.2017 -2.7859
  672MOL0     H92692   2.485   8.673   5.953  2.4402 -1.6640 -0.5666
  672MOL0     H92693   2.578   8.814   5.901 -2.4007  2.0107  2.0002
  672MOL0     H92694   2.147   8.798   5.970  0.1024 -0.4481 -1.0918
  672MOL0     H92695   1.927   9.038   6.085 -1.7187 -1.2165  1.5934
  672MOL0     H92696   2.001   8.972   6.223 -3.7588 -0.9248  0.6768
  672MOL0     H92697   1.963   8.860   6.099  0.1680 -0.6905  1.8536
  672MOL0     H92698   2.112   9.410   6.402 -1.6359 -3.5055  0.5498
  672MOL0     H92699   1.998   9.637   6.447  1.6071  2.1304 -2.9836
  672MOL0     H92700   1.817   9.758   6.525 -0.8901  1.4122  1.3365
  672MOL0     H92701   1.926   9.847   6.407  1.0018 -0.7741  0.1647
  672MOL0     H92702   1.702   9.963   6.339 -0.2335  1.0484  0.5554
  672MOL0     H92703   1.632   9.895   6.471 -0.7075  2.3529 -1.3418
  672MOL0     H92704   1.888  10.071   6.493  0.5878 -1.5343  1.3693
  672MOL0     H92705   1.811   9.999   6.631  1.6208  0.3192  0.2475
  672MOL0     H92706   1.583  10.102   6.521 -0.7130 -1.9971  2.7481
  672MOL0     H92707   1.699  10.223   6.449 -0.4663 -1.9491 -0.8877
  672MOL0     H92708   1.603  10.302   6.657 -0.9625 -1.0618 -1.6415
  672MOL0     H92709   1.641  10.150   6.734  1.6511 -3.4847  0.0224
  672MOL0     H92710   1.900  10.232   6.686  0.2802 -0.1440  0.6766
  672MOL0     H92711   1.813  10.276   6.830 -2.0158 -0.7875 -0.7466
  672MOL0     H92712   1.955  10.447   6.730 -0.1003  0.4620 -0.7047
  672MOL0     H92713   1.779  10.498   6.743 -0.8493 -0.5107  0.0632
  672MOL0     H92714   1.869  10.594   6.542  3.2461 -0.1536  3.1137
  672MOL0     H92715   1.752  10.472   6.506  0.9336  4.0302 -3.8817
  672MOL0     H92716   1.723   9.549   6.141 -1.9261 -2.1275  0.9484
  672MOL0     H92717   1.852   9.342   6.076  0.2721  1.9432 -0.2375
  672MOL0     H92718   2.383   9.227   5.988  1.0587  0.1743  1.3445
  672MOL0     H92719   2.472   9.031   5.858  0.6567 -5.6734  2.0516
  672MOL0     H92720   1.938   9.575   4.625  1.1013 -0.3468  1.4025
  672MOL0     H92721   1.983   9.788   4.457 -0.3941 -0.0744  0.0657
  672MOL0     H92722   2.395   9.870   4.210 -2.5983 -1.5587  0.4796
  672MOL0     H92723   2.577   9.899   4.037 -1.6432  1.8021  0.1831
  672MOL0     H92724   2.453  10.047   3.729 -0.8500 -0.7521 -1.8068
  672MOL0     H92725   2.629  10.046   3.690  1.3551 -0.9274 -0.1114
  672MOL0     H92726   2.468  10.016   3.505 -0.1972  0.3363  0.6692
  672MOL0     H92727   2.452   9.854   3.551  0.3982 -0.1623  1.8623
  672MOL0     H92728   2.706  10.011   3.483 -0.2076  0.0802  0.6145
  672MOL0     H92729   2.693   9.829   3.519 -3.3292 -1.6311 -1.5839
  672MOL0     H92730   2.589   9.982   3.275  1.0301 -1.2835 -0.4590
  672MOL0     H92731   2.541   9.821   3.330 -0.9663  0.9597  5.0174
  672MOL0     H92732   2.934   9.820   3.122  0.1701 -0.7487 -0.6125
  672MOL0     H92733   2.317   9.775   3.728 -0.2337 -1.5545  0.8632
  672MOL0     H92734   2.068   9.646   3.871 -1.9161  0.3927 -2.1371
  672MOL0     H92735   2.035   9.821   3.918 -1.0772 -1.7978  0.8102
  672MOL0     H92736   2.097   9.764   3.753  3.2096 -2.7233 -0.7703
  673MOL0     O92737   9.559   9.544   5.555 -0.1234  0.5033 -0.3429
  673MOL0     C92738   9.489   9.562   5.449 -0.2764 -0.2821 -0.2683
  673MOL0     O92739   9.530   9.652   5.346  0.0746 -0.0089 -0.4990
  673MOL0     C92740   9.630   9.749   5.351  1.1669 -0.2280 -0.0018
  673MOL0     C92741   9.643   9.823   5.236 -0.0331  0.2334 -0.0169
  673MOL0     C92742   9.724   9.934   5.237 -0.2789  0.7786  0.3770
  673MOL0     C92743   9.816   9.956   5.344  0.2866  0.7766 -0.8140
  673MOL0     O92744   9.901  10.059   5.345  0.0396 -0.7058  0.4271
  673MOL0     C92745   9.938  10.120   5.224  0.3583  0.3038 -0.1734
  673MOL0     C92746  10.089  10.127   5.233 -0.1646  0.9282  0.0584
  673MOL0     C92747  10.161  10.196   5.115  0.4513  0.1334  0.6761
  673MOL0     C92748  10.202  10.093   5.012 -0.0863 -0.6715  0.1154
  673MOL0     C92749  10.339  10.034   5.038  0.2478 -0.0633 -0.5514
  673MOL0     C92750  10.352   9.898   4.970 -0.1567  0.1106  0.2105
  673MOL0     C92751  10.491   9.839   5.008  0.2250 -0.3092  0.4561
  673MOL0     C92752  10.587   9.892   4.908 -0.4314 -0.1560 -0.0915
  673MOL0     N92753  10.731   9.847   4.931 -0.2106  0.0547  0.2567
  673MOL0     C92754  10.777   9.713   4.897  0.6998 -0.0127 -0.8777
  673MOL0     C92755  10.901   9.707   4.955  0.7774  0.5031 -0.4155
  673MOL0     C92756  11.016   9.607   4.935 -0.1958  0.0690 -0.3949
  673MOL0     C92757  11.144   9.673   4.885 -0.5761 -0.1079  0.3241
  673MOL0     C92758  11.266   9.573   4.877 -0.0774 -0.8201  0.3607
  673MOL0     C92759  11.387   9.649   4.820 -1.4744 -0.2990 -0.5998
  673MOL0     O92760  11.468   9.687   4.937  0.3277  0.5401 -0.3183
  673MOL0     C92761  11.584   9.759   4.903  0.4710  0.1858  0.0314
  673MOL0     C92762  11.659   9.750   4.785 -0.5392 -0.2151  0.5697
  673MOL0     C92763  11.760   9.846   4.757  0.6801  0.3103 -0.6266
  673MOL0     C92764  11.844   9.822   4.634 -0.1669  0.7759 -0.5890
  673MOL0     C92765  11.799   9.949   4.852  0.1141  0.9905  0.2862
  673MOL0     C92766  11.912  10.046   4.833  0.1289  0.3368  0.4177
  673MOL0     O92767  11.957  10.068   4.709 -0.6238  0.8229 -0.0639
  673MOL0     C92768  12.085  10.095   4.682 -1.0134  0.4521 -0.0445
  673MOL0     C92769  12.176   9.983   4.659  0.4163  0.1036  1.3948
  673MOL0     C92770  12.306  10.008   4.608  0.0006  0.2432  0.2955
  673MOL0     C92771  12.345  10.142   4.591 -0.3731  0.2091  0.0889
  673MOL0     O92772  12.472  10.169   4.566 -0.0316 -0.0271  0.4004
  673MOL0     C92773  12.568  10.087   4.642 -0.2944 -0.7983 -0.5571
  673MOL0     C92774  12.609   9.976   4.549 -0.8544 -0.2034  0.1123
  673MOL0     C92775  12.762   9.960   4.573 -0.0817 -0.3980 -0.0866
  673MOL0     C92776  12.817   9.841   4.486 -0.1300  0.1330 -0.4730
  673MOL0     C92777  12.967   9.862   4.474 -0.3851 -0.1116 -0.3992
  673MOL0     C92778  13.037   9.759   4.392  0.5199 -0.1875 -0.0286
  673MOL0     C92779  13.184   9.812   4.374 -0.7474  0.1887 -0.4723
  673MOL0     C92780  13.263   9.718   4.287  0.8026  1.0666 -0.9255
  673MOL0    Cl92781  13.267   9.562   4.373  0.2480 -0.1673  0.0025
  673MOL0     C92782  12.261  10.246   4.621 -0.2300 -0.0028 -0.3495
  673MOL0     C92783  12.134  10.223   4.667  0.6114  0.1387 -0.8012
  673MOL0     O92784  11.970  10.098   4.932  0.5449 -0.1869  0.1462
  673MOL0     C92785  11.742   9.942   4.975 -0.4823  0.2652  0.0609
  673MOL0     C92786  11.634   9.847   4.998 -0.1974  0.2765  0.0941
  673MOL0     N92787  10.921   9.821   5.027  0.3688 -0.6532 -0.5721
  673MOL0     N92788  10.823   9.904   5.008  0.9608 -0.8421 -0.5256
  673MOL0     C92789   9.804   9.871   5.461 -0.1748 -0.6096 -0.0239
  673MOL0     C92790   9.715   9.771   5.461 -0.0332  0.7165  0.9428
  673MOL0     C92791   9.373   9.480   5.426 -0.5503 -0.0863  0.2644
  673MOL0     C92792   9.345   9.458   5.287  0.5813 -0.3449  0.1410
  673MOL0     C92793   9.229   9.404   5.236  0.4023 -0.6853  0.3227
  673MOL0     C92794   9.142   9.345   5.322  0.1026  1.1658  0.8825
  673MOL0     O92795   9.026   9.285   5.294  0.6612  0.0748 -0.4593
  673MOL0     C92796   8.987   9.273   5.160  0.0669 -0.7442  0.0250
  673MOL0     C92797   8.859   9.181   5.142 -0.1408 -0.1496 -0.1490
  673MOL0     C92798   8.733   9.236   5.235 -0.0437  0.4027 -0.0199
  673MOL0     C92799   8.695   9.388   5.207 -0.6483 -0.3590  0.1596
  673MOL0     C92800   8.616   9.413   5.078  0.1892  0.1494 -0.1815
  673MOL0     C92801   8.542   9.437   4.980 -1.1819  0.1840 -0.5546
  673MOL0     C92802   9.171   9.355   5.457  0.0756  0.4191 -0.7936
  673MOL0     C92803   9.286   9.413   5.518  0.7285 -0.5067  1.1291
  673MOL0     C92804   9.287   9.429   5.676  0.2237 -0.0065  0.4773
  673MOL0     H92805   9.589   9.793   5.147  0.9931 -0.9935 -0.2512
  673MOL0     H92806   9.733   9.995   5.147  1.2343 -0.0260 -0.0663
  673MOL0     H92807   9.886  10.217   5.218 -1.5438 -0.7279 -3.9060
  673MOL0     H92808   9.918  10.077   5.125  0.0346 -1.2145  0.5223
  673MOL0     H92809  10.115  10.176   5.327  0.7089 -3.1672  2.1887
  673MOL0     H92810  10.119  10.022   5.229 -1.0672  0.6309  0.6620
  673MOL0     H92811  10.100  10.275   5.070  2.2414  1.6879  0.8392
  673MOL0     H92812  10.241  10.258   5.157 -1.3210  0.1776  4.4200
  673MOL0     H92813  10.123  10.020   4.990  0.2504 -0.4400 -2.0775
  673MOL0     H92814  10.219  10.148   4.919 -0.6797 -1.0628 -0.2326
  673MOL0     H92815  10.354  10.030   5.147 -1.3962  4.3826  0.0404
  673MOL0     H92816  10.423  10.095   5.003  0.6006  0.8080  1.6254
  673MOL0     H92817  10.272   9.831   5.002 -0.9563  1.2564  0.6671
  673MOL0     H92818  10.351   9.912   4.862 -0.6437 -0.4815  0.1354
  673MOL0     H92819  10.477   9.731   5.007  1.7579 -0.6228  2.8103
  673MOL0     H92820  10.514   9.866   5.112 -2.5312  2.2328  0.5319
  673MOL0     H92821  10.546   9.859   4.813 -0.0638 -1.4679  0.1820
  673MOL0     H92822  10.592  10.001   4.908 -3.8592  0.1049  0.3938
  673MOL0     H92823  10.738   9.633   4.836 -2.3551  0.3951  0.3525
  673MOL0     H92824  10.979   9.527   4.871 -2.2189 -0.6699  1.6115
  673MOL0     H92825  11.031   9.556   5.030  1.0210 -0.2492 -0.7306
  673MOL0     H92826  11.119   9.707   4.784 -1.8277  0.8404  0.9232
  673MOL0     H92827  11.188   9.754   4.943  2.1765 -0.5533 -1.0044
  673MOL0     H92828  11.296   9.521   4.969  3.2482  0.5546  0.2074
  673MOL0     H92829  11.227   9.504   4.802 -2.4671  1.0144 -0.2153
  673MOL0     H92830  11.448   9.581   4.759 -0.8125 -0.4169  0.1690
  673MOL0     H92831  11.354   9.741   4.771  0.8476  2.9982  3.3740
  673MOL0     H92832  11.645   9.661   4.724  2.2400  1.5739 -3.0816
  673MOL0     H92833  11.849   9.912   4.572  1.3539  0.4204 -1.0227
  673MOL0     H92834  11.801   9.743   4.572 -0.1975  0.1637  0.1993
  673MOL0     H92835  11.946   9.789   4.654 -1.1620 -1.1039  1.8398
  673MOL0     H92836  12.144   9.880   4.669  0.0545  0.2044  1.2903
  673MOL0     H92837  12.367   9.922   4.583  2.1897  2.0304 -0.9075
  673MOL0     H92838  12.654  10.142   4.680  0.4363 -2.2621 -0.0121
  673MOL0     H92839  12.521  10.044   4.731 -0.9980 -1.2524 -1.1298
  673MOL0     H92840  12.568   9.881   4.583  1.9791 -0.4151  3.5418
  673MOL0     H92841  12.595  10.014   4.447  0.2761  2.0011  0.6998
  673MOL0     H92842  12.779   9.944   4.680 -0.4035 -1.9406 -0.2445
  673MOL0     H92843  12.817  10.050   4.541 -0.2051  0.6770  2.4988
  673MOL0     H92844  12.781   9.857   4.384 -0.8609  1.7461  0.0103
  673MOL0     H92845  12.783   9.748   4.532  0.0644 -0.4084 -1.3898
  673MOL0     H92846  12.977   9.963   4.434 -1.1371 -0.8229 -2.4989
  673MOL0     H92847  13.026   9.857   4.566  1.4063 -0.3997 -1.5204
  673MOL0     H92848  12.989   9.753   4.294 -0.0494  1.8282  0.0843
  673MOL0     H92849  13.019   9.663   4.440  3.6596 -1.7875 -1.7118
  673MOL0     H92850  13.231   9.812   4.473 -2.0593 -2.7619  0.2391
  673MOL0     H92851  13.196   9.909   4.324  1.6316 -0.9027 -2.1980
  673MOL0     H92852  13.368   9.744   4.270  0.6627  3.3340  1.1697
  673MOL0     H92853  13.213   9.710   4.190  1.6728 -0.1254 -1.3016
  673MOL0     H92854  12.312  10.342   4.619  1.3932 -0.5771  3.7153
  673MOL0     H92855  12.075  10.311   4.688  0.2665 -0.4338  0.7563
  673MOL0     H92856  11.777  10.007   5.054 -1.7396  1.3321 -0.2299
  673MOL0     H92857  11.590   9.851   5.098  0.5876  0.0676  0.4541
  673MOL0     H92858   9.872   9.897   5.542 -0.3034 -2.6388  0.8048
  673MOL0     H92859   9.704   9.724   5.558  0.8824 -0.6325  0.4182
  673MOL0     H92860   9.416   9.499   5.215 -0.1772  0.0016 -0.4187
  673MOL0     H92861   9.205   9.413   5.131  0.5204  3.1941  0.5013
  673MOL0     H92862   8.964   9.372   5.119 -0.5250 -1.5771 -1.7399
  673MOL0     H92863   9.061   9.220   5.099  0.2379 -1.0030  0.4594
  673MOL0     H92864   8.894   9.083   5.179 -3.6095 -1.8097 -0.8440
  673MOL0     H92865   8.841   9.185   5.035  1.4267 -0.8921 -0.4698
  673MOL0     H92866   8.637   9.188   5.209  0.9653 -1.1937 -0.9901
  673MOL0     H92867   8.747   9.224   5.343 -1.6192  0.3238  0.2105
  673MOL0     H92868   8.792   9.438   5.196 -0.8928 -0.4116 -3.4874
  673MOL0     H92869   8.648   9.433   5.295 -1.2451  0.3803 -0.5176
  673MOL0     H92870   8.496   9.448   4.884  2.2945 -0.9078 -2.5244
  673MOL0     H92871   9.107   9.310   5.533 -2.6380 -0.8917 -3.6631
  673MOL0     H92872   9.220   9.512   5.702 -1.3063 -1.6428  2.0068
  673MOL0     H92873   9.247   9.336   5.717  1.1867 -2.8224 -4.2546
  673MOL0     H92874   9.389   9.459   5.700  0.1869 -1.2000  2.2517
  674MOL0     O92875   6.166   9.721   7.765  0.2165  0.2071  0.2261
  674MOL0     C92876   6.123   9.612   7.800 -0.4976 -0.5018  0.6649
  674MOL0     O92877   6.127   9.511   7.716  0.4984  0.9470 -0.7399
  674MOL0     C92878   6.158   9.536   7.592 -0.6448 -0.0027 -0.1007
  674MOL0     C92879   6.066   9.610   7.521 -0.1748  0.0944  0.6449
  674MOL0     C92880   6.089   9.641   7.385  0.1668 -0.0224 -0.5021
  674MOL0     C92881   6.195   9.591   7.322  0.4504  0.1089  0.7922
  674MOL0     O92882   6.213   9.614   7.186 -0.0074 -0.6504  0.6309
  674MOL0     C92883   6.309   9.536   7.122 -0.3948 -0.3132 -1.3459
  674MOL0     C92884   6.332   9.551   6.973  1.0178  0.2651  0.3267
  674MOL0     C92885   6.192   9.550   6.892 -0.4414  0.7207  0.3409
  674MOL0     C92886   6.121   9.418   6.900 -0.5401  0.9704 -0.5274
  674MOL0     C92887   5.979   9.432   6.980  0.4000  0.7116  0.0399
  674MOL0     C92888   5.909   9.300   6.984  0.2890  0.7341 -0.8904
  674MOL0     C92889   5.777   9.302   7.058  0.6752 -0.0117  0.7017
  674MOL0     C92890   5.720   9.162   7.061  0.4503  0.2382 -1.5635
  674MOL0     N92891   5.582   9.160   7.108 -0.1437 -0.1072 -0.6749
  674MOL0     C92892   5.509   9.056   7.157 -1.1038 -0.3199 -1.0584
  674MOL0     C92893   5.383   9.100   7.178 -0.1146  0.0337  0.6131
  674MOL0     C92894   5.269   9.009   7.214 -1.1676 -0.1680 -0.0112
  674MOL0     C92895   5.181   9.074   7.308 -0.5514 -0.0031  0.1182
  674MOL0     C92896   5.079   8.973   7.349 -0.3259  0.0958  0.1757
  674MOL0     C92897   4.999   9.036   7.460  1.1672  0.7716 -0.0973
  674MOL0     O92898   4.960   8.930   7.542  0.1323 -0.6427  0.4745
  674MOL0     C92899   4.854   8.951   7.628  0.5848  1.2069 -0.2171
  674MOL0     C92900   4.730   8.906   7.596 -0.1999  0.2553  0.7258
  674MOL0     C92901   4.628   8.904   7.687  1.0927  0.2495  0.4081
  674MOL0     C92902   4.506   8.845   7.632  0.2775  0.1098 -0.5231
  674MOL0     C92903   4.654   8.931   7.821 -0.6161 -0.1463 -0.2596
  674MOL0     C92904   4.560   8.906   7.931 -0.2691 -0.0439 -0.0321
  674MOL0     O92905   4.605   8.953   8.052  0.6330 -0.1018  1.0186
  674MOL0     C92906   4.517   8.957   8.156 -0.0343  0.4955 -0.0618
  674MOL0     C92907   4.488   9.076   8.228  0.1716  0.4162 -0.2443
  674MOL0     C92908   4.394   9.086   8.336 -0.7774 -0.3089  0.7098
  674MOL0     C92909   4.312   8.976   8.362 -0.2751 -0.5728  0.2009
  674MOL0     O92910   4.226   8.998   8.469  0.2679 -0.4730 -0.1617
  674MOL0     C92911   4.116   8.918   8.485  0.5958 -0.1512 -0.0880
  674MOL0     C92912   3.987   9.003   8.507  0.7883 -1.1846 -0.2268
  674MOL0     C92913   3.879   8.913   8.561 -0.1320 -0.4038 -0.2007
  674MOL0     C92914   3.745   8.976   8.603 -0.7501  0.5748 -0.3207
  674MOL0     C92915   3.748   9.085   8.710  0.2255  0.0037 -0.1401
  674MOL0     C92916   3.633   9.096   8.802  0.0065 -0.5742  0.7517
  674MOL0     C92917   3.512   9.143   8.718  0.5006 -0.1378 -0.6245
  674MOL0     C92918   3.386   9.163   8.808 -0.4382 -0.0602  0.4508
  674MOL0    Cl92919   3.251   9.180   8.702 -0.2509 -0.2567 -0.1974
  674MOL0     C92920   4.333   8.853   8.291  0.2957 -0.2956  0.8151
  674MOL0     C92921   4.440   8.841   8.199  0.3810 -1.0074  1.1015
  674MOL0     O92922   4.456   8.851   7.913 -0.9064  0.0820 -0.0583
  674MOL0     C92923   4.784   8.975   7.853  0.3528 -0.0331  0.1593
  674MOL0     C92924   4.885   8.987   7.757  1.1064  0.0811  0.0584
  674MOL0     N92925   5.376   9.235   7.154 -0.6085  0.3956 -0.0693
  674MOL0     N92926   5.499   9.271   7.110  0.3801  0.1789  0.8332
  674MOL0     C92927   6.293   9.512   7.399  0.3041  0.7979 -0.3193
  674MOL0     C92928   6.265   9.480   7.535 -0.2529 -0.2755  0.2593
  674MOL0     C92929   6.054   9.600   7.936  0.1423  0.3920  0.6183
  674MOL0     C92930   5.953   9.492   7.955 -0.2821  0.1356  0.3794
  674MOL0     C92931   5.878   9.491   8.071  0.0955  0.4277 -0.0858
  674MOL0     C92932   5.889   9.590   8.174  0.5590  0.3346  0.5873
  674MOL0     O92933   5.811   9.584   8.282 -0.2126  0.4843  0.1068
  674MOL0     C92934   5.842   9.476   8.369 -0.6601  0.3233 -0.5918
  674MOL0     C92935   5.734   9.471   8.474  0.0593 -0.1234 -0.5059
  674MOL0     C92936   5.746   9.597   8.565  0.4047  0.1915 -0.9525
  674MOL0     C92937   5.636   9.603   8.684  0.0667 -0.4748  0.0193
  674MOL0     C92938   5.632   9.728   8.750  0.5867 -0.3207 -0.5181
  674MOL0     C92939   5.627   9.839   8.804  0.4888  0.0574  0.8753
  674MOL0     C92940   5.980   9.696   8.151 -1.0735 -0.3941 -0.3403
  674MOL0     C92941   6.057   9.702   8.038 -1.0159  0.5346 -0.8481
  674MOL0     C92942   6.157   9.814   8.039 -0.4221  0.3451  0.1308
  674MOL0     H92943   5.969   9.643   7.557 -1.1794 -2.2004  0.2695
  674MOL0     H92944   6.021   9.702   7.326 -2.1373 -2.9987 -1.1800
  674MOL0     H92945   6.293   9.430   7.140 -0.5945 -0.5883 -2.9416
  674MOL0     H92946   6.405   9.571   7.162 -0.5531 -0.1321 -1.1234
  674MOL0     H92947   6.385   9.645   6.959  2.6114 -0.2765  2.1338
  674MOL0     H92948   6.397   9.480   6.921  0.4593  0.5401 -0.7754
  674MOL0     H92949   6.123   9.630   6.922 -1.1479  0.0083  0.6295
  674MOL0     H92950   6.226   9.548   6.788  1.0806 -2.2575  0.7972
  674MOL0     H92951   6.108   9.381   6.798 -2.5290 -1.2393  0.4319
  674MOL0     H92952   6.182   9.341   6.948 -2.1351 -2.3111 -3.3297
  674MOL0     H92953   5.920   9.508   6.928  2.1336  4.2112  2.7703
  674MOL0     H92954   5.982   9.471   7.082  1.9585  2.7239 -0.7109
  674MOL0     H92955   5.905   9.264   6.881  0.2855  0.6705 -0.8686
  674MOL0     H92956   5.961   9.223   7.041 -2.7225  0.2999  1.5140
  674MOL0     H92957   5.710   9.361   6.994 -0.3947 -2.7125 -0.8302
  674MOL0     H92958   5.786   9.348   7.157 -2.7776 -2.6838  2.5103
  674MOL0     H92959   5.731   9.105   6.968 -1.1229  2.2026 -3.0418
  674MOL0     H92960   5.781   9.116   7.139 -0.3328  1.2070 -0.3445
  674MOL0     H92961   5.539   8.952   7.168  0.3542 -0.0653 -2.4102
  674MOL0     H92962   5.315   8.915   7.244  0.6147 -0.7552 -3.9354
  674MOL0     H92963   5.222   8.980   7.120  0.7554 -1.1339 -0.7330
  674MOL0     H92964   5.246   9.110   7.389 -0.6367  1.3093 -0.3799
  674MOL0     H92965   5.125   9.155   7.262 -3.0084 -0.9569  1.2350
  674MOL0     H92966   5.021   8.946   7.261  1.1068 -0.1705 -0.7209
  674MOL0     H92967   5.137   8.888   7.385  0.5823  1.2718  1.6269
  674MOL0     H92968   5.051   9.115   7.516  1.2772  2.1568 -2.0376
  674MOL0     H92969   4.909   9.075   7.411 -1.9346 -3.5206  1.5113
  674MOL0     H92970   4.722   8.855   7.501 -3.7272  1.8106  0.0397
  674MOL0     H92971   4.418   8.901   7.664  0.8335 -0.4330  2.1557
  674MOL0     H92972   4.490   8.745   7.676 -0.7473  0.2959 -0.4380
  674MOL0     H92973   4.508   8.820   7.525 -1.1520 -3.5152  0.1189
  674MOL0     H92974   4.541   9.167   8.200  1.9917 -0.5177 -0.0448
  674MOL0     H92975   4.380   9.177   8.391 -0.7143 -1.7389  3.2277
  674MOL0     H92976   4.101   8.854   8.397  2.4136 -3.4869  1.8346
  674MOL0     H92977   4.135   8.853   8.570 -1.6084 -1.7014 -0.6656
  674MOL0     H92978   3.993   9.092   8.570 -2.9170 -0.7963 -0.2246
  674MOL0     H92979   3.953   9.039   8.410  1.0985 -1.7133 -0.5403
  674MOL0     H92980   3.917   8.861   8.650 -2.0909 -2.3954 -0.4331
  674MOL0     H92981   3.868   8.823   8.500 -0.8925 -0.8834  0.6065
  674MOL0     H92982   3.699   8.889   8.649 -0.2294  0.2425 -0.4160
  674MOL0     H92983   3.685   9.000   8.515 -1.2861  0.2611 -0.0421
  674MOL0     H92984   3.844   9.069   8.760  1.1972  1.5401 -1.4216
  674MOL0     H92985   3.761   9.186   8.671 -1.4288  0.9066  1.4355
  674MOL0     H92986   3.646   9.177   8.874  0.2629 -0.9541  1.1377
  674MOL0     H92987   3.607   9.008   8.862  0.0280 -0.6411  0.6635
  674MOL0     H92988   3.479   9.065   8.648  0.2296  0.5817 -1.3194
  674MOL0     H92989   3.535   9.235   8.662 -1.1914  0.7700  0.0888
  674MOL0     H92990   3.398   9.250   8.874 -1.8905  0.2035  0.3992
  674MOL0     H92991   3.363   9.083   8.879 -5.1509  1.0731  0.5382
  674MOL0     H92992   4.277   8.766   8.325  4.5710 -2.1733  3.9858
  674MOL0     H92993   4.456   8.745   8.152 -3.2506 -1.5877  0.8007
  674MOL0     H92994   4.823   8.996   7.952 -0.5177  0.6054  0.3754
  674MOL0     H92995   4.987   9.018   7.780  0.5708  2.9701 -1.0548
  674MOL0     H92996   6.386   9.474   7.357  0.0418 -0.2556  0.0226
  674MOL0     H92997   6.322   9.397   7.577 -0.3210  0.4291  1.8010
  674MOL0     H92998   5.950   9.409   7.885  1.3198  0.9965 -0.8018
  674MOL0     H92999   5.821   9.402   8.093 -2.4684  1.8265 -0.7101
  674MOL0     H93000   5.841   9.377   8.322 -3.2641  0.1928 -0.4112
  674MOL0     H93001   5.943   9.480   8.413 -0.1964  0.3911 -1.6468
  674MOL0     H93002   5.760   9.384   8.535  1.7496  0.1309 -0.7984
  674MOL0     H93003   5.635   9.456   8.430 -0.0950 -1.8968  0.3778
  674MOL0     H93004   5.847   9.595   8.606 -0.6448  1.0916  1.8820
  674MOL0     H93005   5.736   9.692   8.511  0.0680  2.0469  2.1363
  674MOL0     H93006   5.664   9.526   8.756  1.4406 -0.4227 -0.4336
  674MOL0     H93007   5.539   9.595   8.635 -0.3436  2.4334  0.1964
  674MOL0     H93008   5.594   9.931   8.849 -0.5680 -1.1816  2.7632
  674MOL0     H93009   6.002   9.771   8.227 -3.1312  0.8278 -0.8698
  674MOL0     H93010   6.251   9.778   7.994 -0.5272 -0.4191  0.5190
  674MOL0     H93011   6.115   9.894   7.977  2.0390  1.9644  0.4186
  674MOL0     H93012   6.181   9.854   8.138  0.0692  0.8973 -0.1986
  675MOL0     O93013   0.741  10.509   8.908  0.1368  0.0166  0.7336
  675MOL0     C93014   0.776  10.389   8.913 -0.3095 -0.4762  0.3651
  675MOL0     O93015   0.824  10.319   8.803 -0.1650 -0.0803  0.1648
  675MOL0     C93016   0.779  10.357   8.680 -0.4092  0.4444  0.3082
  675MOL0     C93017   0.861  10.419   8.589  1.0004  0.3622 -0.6705
  675MOL0     C93018   0.815  10.448   8.458 -0.5412  0.1415 -0.3738
  675MOL0     C93019   0.687  10.414   8.406 -1.0452  0.8273 -0.8985
  675MOL0     O93020   0.640  10.434   8.279 -0.0371 -0.1324  0.2283
  675MOL0     C93021   0.731  10.501   8.185 -0.3160  0.8735  0.7321
  675MOL0     C93022   0.804  10.387   8.113  0.4506  0.5679  0.2375
  675MOL0     C93023   0.719  10.269   8.054 -0.4373 -0.6058 -0.2081
  675MOL0     C93024   0.799  10.191   7.959  0.6745  1.2018 -0.1076
  675MOL0     C93025   0.738  10.071   7.905 -0.5487  0.6515 -0.4515
  675MOL0     C93026   0.819  10.024   7.790 -0.4034  0.2881  0.5066
  675MOL0     C93027   0.757   9.905   7.723  0.0351 -0.4160  0.4990
  675MOL0     C93028   0.855   9.810   7.650 -0.1540 -0.1811 -0.5908
  675MOL0     N93029   0.806   9.686   7.599 -0.1322  0.1502 -0.1699
  675MOL0     C93030   0.762   9.575   7.665 -0.1773 -0.5749  0.1506
  675MOL0     C93031   0.738   9.480   7.577  0.4818  0.4497 -0.0601
  675MOL0     C93032   0.673   9.345   7.609 -0.7137 -0.0868  0.0319
  675MOL0     C93033   0.746   9.275   7.722 -0.2826  0.1739  0.2766
  675MOL0     C93034   0.816   9.148   7.669  0.0911  0.3172  0.3678
  675MOL0     C93035   0.952   9.168   7.597 -0.3676 -0.2192 -0.6216
  675MOL0     O93036   1.044   9.197   7.700 -0.8377  0.2362  0.2041
  675MOL0     C93037   1.137   9.113   7.748 -0.2662 -0.6803  0.1549
  675MOL0     C93038   1.113   8.973   7.759  1.1636  0.3620  0.3445
  675MOL0     C93039   1.214   8.881   7.806 -0.0573 -1.2090 -0.2155
  675MOL0     C93040   1.180   8.736   7.822 -0.0962  0.6165  0.0352
  675MOL0     C93041   1.346   8.930   7.824  1.0024 -0.6899 -0.2552
  675MOL0     C93042   1.468   8.850   7.852  0.0693  0.1199  0.5770
  675MOL0     O93043   1.583   8.921   7.864 -0.5204 -0.0384 -0.3496
  675MOL0     C93044   1.700   8.849   7.885  0.1499 -0.0891  0.5760
  675MOL0     C93045   1.743   8.784   8.001  0.3786  0.2328 -0.5027
  675MOL0     C93046   1.865   8.717   8.013 -0.5935 -0.3788 -0.8692
  675MOL0     C93047   1.950   8.706   7.900 -0.2067  0.4430  0.9392
  675MOL0     O93048   2.059   8.624   7.900 -0.6329  0.3463  0.0870
  675MOL0     C93049   2.123   8.579   7.784  1.2475 -0.3630 -0.0454
  675MOL0     C93050   2.013   8.499   7.703  0.8045  0.3477  0.1941
  675MOL0     C93051   2.089   8.423   7.593 -0.8971  0.2957  0.7912
  675MOL0     C93052   2.143   8.294   7.641  0.0141  0.5234 -0.1122
  675MOL0     C93053   2.227   8.233   7.527  0.1171 -0.3918  0.6795
  675MOL0     C93054   2.295   8.110   7.574 -0.3723  0.3742  0.2607
  675MOL0     C93055   2.405   8.069   7.472 -0.0037 -0.9938  0.6152
  675MOL0     C93056   2.361   7.976   7.349 -0.4269 -0.4207 -0.1214
  675MOL0    Cl93057   2.272   7.834   7.392 -0.3121  0.0558 -0.0591
  675MOL0     C93058   1.909   8.782   7.788  0.5579 -0.1470  0.3892
  675MOL0     C93059   1.785   8.844   7.782 -0.8426 -0.7288  1.3716
  675MOL0     O93060   1.458   8.730   7.872  0.1077  0.3486 -0.0228
  675MOL0     C93061   1.358   9.074   7.822 -0.7048  0.0180 -0.6263
  675MOL0     C93062   1.260   9.161   7.794  0.5120  0.4519 -0.9426
  675MOL0     N93063   0.759   9.532   7.454 -0.6575 -0.1976  0.3412
  675MOL0     N93064   0.790   9.660   7.465 -0.1639 -0.5287 -0.8529
  675MOL0     C93065   0.603  10.360   8.502 -0.5918 -1.1316  1.0343
  675MOL0     C93066   0.650  10.317   8.631 -0.2314  0.1223  0.4429
  675MOL0     C93067   0.796  10.330   9.051  0.2244 -0.6930  0.2415
  675MOL0     C93068   0.911  10.238   9.060  0.5248 -0.3265  0.7842
  675MOL0     C93069   0.934  10.175   9.186 -0.0500  0.3929  0.5629
  675MOL0     C93070   0.872  10.207   9.300  0.3628  1.1216  0.0079
  675MOL0     O93071   0.909  10.143   9.417 -0.1965 -0.1717 -0.0562
  675MOL0     C93072   0.831  10.144   9.541 -0.6866 -0.3133 -0.2452
  675MOL0     C93073   0.702  10.063   9.528 -0.4931  0.2733  0.2126
  675MOL0     C93074   0.593  10.137   9.597  0.8213  0.7098  0.1138
  675MOL0     C93075   0.476  10.053   9.641 -0.1766 -1.0334 -0.0318
  675MOL0     C93076   0.515   9.964   9.754  0.7843  0.4174  0.7094
  675MOL0     C93077   0.539   9.897   9.850  0.0256 -0.3748 -0.3390
  675MOL0     C93078   0.773  10.303   9.293  0.1384 -0.0270  0.1107
  675MOL0     C93079   0.730  10.362   9.176 -0.6726 -1.0676  0.1803
  675MOL0     C93080   0.609  10.459   9.190 -0.3790 -0.0516  0.0629
  675MOL0     H93081   0.959  10.453   8.621  1.5795 -0.8499 -1.0856
  675MOL0     H93082   0.887  10.502   8.397  0.4116  0.7557  1.2294
  675MOL0     H93083   0.797  10.586   8.208  2.7379 -0.3666 -2.4900
  675MOL0     H93084   0.662  10.544   8.112 -0.3986  0.8338  0.7866
  675MOL0     H93085   0.852  10.439   8.029  0.5996 -0.3061 -0.2352
  675MOL0     H93086   0.876  10.349   8.186  1.1178  1.9630  0.3414
  675MOL0     H93087   0.694  10.213   8.144  4.1280 -0.4844  1.3953
  675MOL0     H93088   0.630  10.317   8.011 -0.5173 -0.9486 -0.4227
  675MOL0     H93089   0.814  10.264   7.879  1.2774  1.0084 -0.1771
  675MOL0     H93090   0.890  10.168   8.015 -0.9593 -0.1047  2.1714
  675MOL0     H93091   0.639  10.115   7.890 -0.4436  2.3522  2.9313
  675MOL0     H93092   0.732   9.996   7.985  1.0663  1.9624  0.9813
  675MOL0     H93093   0.833  10.088   7.703 -1.2997 -3.5434 -2.7440
  675MOL0     H93094   0.920  10.006   7.827 -0.8415  0.0128  1.6356
  675MOL0     H93095   0.680   9.949   7.658 -0.0185  0.5390  1.1777
  675MOL0     H93096   0.714   9.836   7.796 -1.1885  0.1273  0.3319
  675MOL0     H93097   0.923   9.849   7.574 -0.1929 -2.9102 -2.1543
  675MOL0     H93098   0.919   9.773   7.731 -2.1441 -2.0100  0.2629
  675MOL0     H93099   0.736   9.569   7.770  0.0421  0.3711  0.2662
  675MOL0     H93100   0.687   9.293   7.514  0.5603  0.2529  0.0095
  675MOL0     H93101   0.567   9.368   7.623 -0.8664 -0.3143 -0.7096
  675MOL0     H93102   0.830   9.333   7.762 -0.7163  1.9447 -1.2202
  675MOL0     H93103   0.675   9.254   7.802 -3.2042 -0.4739 -2.2544
  675MOL0     H93104   0.839   9.082   7.753  1.3744  0.0497 -0.1734
  675MOL0     H93105   0.755   9.084   7.604  2.8789 -1.9137 -0.2678
  675MOL0     H93106   0.982   9.087   7.529 -0.9205  0.3813 -1.5929
  675MOL0     H93107   0.942   9.249   7.525  1.0143  0.2818 -0.2804
  675MOL0     H93108   1.014   8.937   7.733  1.7279  1.2489 -3.6778
  675MOL0     H93109   1.194   8.672   7.734  1.2933  1.9647 -0.7523
  675MOL0     H93110   1.074   8.732   7.852  0.5265  0.9897  2.4937
  675MOL0     H93111   1.221   8.690   7.913  1.6072  1.6189 -0.2007
  675MOL0     H93112   1.670   8.783   8.082 -1.1491 -1.1221 -1.8356
  675MOL0     H93113   1.877   8.665   8.108 -1.0015  2.1815  0.6891
  675MOL0     H93114   2.159   8.670   7.735  1.1774  1.0909  2.4485
  675MOL0     H93115   2.207   8.517   7.816  1.8476  1.4351  2.1632
  675MOL0     H93116   1.967   8.423   7.767  1.9377 -0.9798 -0.5157
  675MOL0     H93117   1.940   8.563   7.654 -0.1234  0.6247  1.8386
  675MOL0     H93118   2.164   8.490   7.551 -2.4431  0.9089 -1.1347
  675MOL0     H93119   2.029   8.401   7.504 -0.1974 -2.9024  0.9724
  675MOL0     H93120   2.056   8.233   7.667  0.7908 -0.5699  0.0208
  675MOL0     H93121   2.201   8.311   7.733  1.6129 -0.9265 -0.7793
  675MOL0     H93122   2.151   8.215   7.450  0.1161 -1.4399  0.9030
  675MOL0     H93123   2.300   8.301   7.483 -1.1375 -1.2370 -3.0702
  675MOL0     H93124   2.228   8.028   7.602  0.4891 -0.0804  1.0477
  675MOL0     H93125   2.359   8.129   7.661 -2.1418 -0.3631  1.7832
  675MOL0     H93126   2.491   8.021   7.519 -0.6344 -0.9567  1.8479
  675MOL0     H93127   2.439   8.159   7.420 -3.8426 -0.2103 -0.8451
  675MOL0     H93128   2.454   7.948   7.299 -1.0898  1.2860 -2.5504
  675MOL0     H93129   2.300   8.037   7.281  1.7538  3.1507  0.8466
  675MOL0     H93130   1.979   8.794   7.706  0.7569 -0.8816  0.4434
  675MOL0     H93131   1.765   8.897   7.690 -0.9244  1.3554  2.5120
  675MOL0     H93132   1.452   9.126   7.839 -0.7448 -0.0825 -0.0644
  675MOL0     H93133   1.274   9.268   7.798  1.1257  0.3345  0.8538
  675MOL0     H93134   0.502  10.327   8.484 -0.4564 -0.5966 -1.0080
  675MOL0     H93135   0.585  10.264   8.700  0.5796  0.3200  1.3809
  675MOL0     H93136   0.974  10.220   8.974  0.4362 -1.5160  0.9621
  675MOL0     H93137   1.016  10.103   9.183  2.1255  2.7534 -1.7239
  675MOL0     H93138   0.896  10.112   9.622 -0.1354 -0.9088 -0.9107
  675MOL0     H93139   0.815  10.249   9.565 -0.2542 -0.3455  0.1899
  675MOL0     H93140   0.724   9.971   9.583 -0.5347  0.2359  0.1642
  675MOL0     H93141   0.673  10.040   9.425 -2.4696 -1.7465  1.1321
  675MOL0     H93142   0.628  10.188   9.687  1.0679 -1.6510  1.4546
  675MOL0     H93143   0.562  10.213   9.525  1.5622  1.0369  0.1324
  675MOL0     H93144   0.431  10.006   9.553 -2.9036  1.8630 -0.3870
  675MOL0     H93145   0.395  10.119   9.673  0.6523  0.8039 -1.5213
  675MOL0     H93146   0.568   9.836   9.933 -1.6422 -1.6006 -0.6005
  675MOL0     H93147   0.727  10.336   9.385 -2.5401 -0.1360 -1.0881
  675MOL0     H93148   0.646  10.562   9.196 -3.6435  1.4999 -2.6596
  675MOL0     H93149   0.538  10.456   9.107 -1.9656 -2.7589  1.3638
  675MOL0     H93150   0.550  10.443   9.281  0.0350 -0.4764  0.2618
  676MOL0     O93151   4.670   7.073   2.272 -0.2613 -0.2668  0.6642
  676MOL0     C93152   4.720   6.960   2.268  0.3896  0.5194  0.1337
  676MOL0     O93153   4.793   6.914   2.153  0.4654 -0.5253  0.3049
  676MOL0     C93154   4.812   6.782   2.132 -0.1732  1.3189  0.0099
  676MOL0     C93155   4.936   6.732   2.098 -0.6375  0.2546 -0.4211
  676MOL0     C93156   4.963   6.598   2.085  0.4540 -1.4951 -0.5303
  676MOL0     C93157   4.860   6.513   2.085  0.8597 -1.2682 -0.1797
  676MOL0     O93158   4.900   6.386   2.043 -0.1368 -0.3686  0.1080
  676MOL0     C93159   4.805   6.293   1.996  0.6328 -0.2460  0.8659
  676MOL0     C93160   4.881   6.190   1.919  0.4713  0.8043  0.5055
  676MOL0     C93161   4.802   6.064   1.867 -0.8944  0.3625 -0.1969
  676MOL0     C93162   4.813   5.945   1.963  0.3305 -0.3827 -0.7651
  676MOL0     C93163   4.720   5.840   1.914  0.6684 -0.1698 -0.6095
  676MOL0     C93164   4.589   5.868   1.968  0.1207  0.1857 -0.2345
  676MOL0     C93165   4.490   5.760   1.960  0.0432  0.1463  0.5794
  676MOL0     C93166   4.500   5.670   1.839  0.5104 -0.4674  0.4585
  676MOL0     N93167   4.382   5.595   1.803 -0.2206  0.1525  1.2586
  676MOL0     C93168   4.258   5.640   1.799  0.5536 -0.8483  0.4171
  676MOL0     C93169   4.179   5.548   1.750 -0.9502  0.6493 -0.0307
  676MOL0     C93170   4.036   5.558   1.709  0.0960  0.3165 -0.6573
  676MOL0     C93171   3.932   5.525   1.818  0.4490 -0.5518  0.2154
  676MOL0     C93172   3.796   5.487   1.744 -0.6068  0.0834  0.3242
  676MOL0     C93173   3.689   5.444   1.858 -0.1813 -0.1779 -0.5847
  676MOL0     O93174   3.754   5.349   1.945  0.5473 -0.4181 -0.4605
  676MOL0     C93175   3.707   5.367   2.074  0.2227  0.7089 -0.4615
  676MOL0     C93176   3.613   5.274   2.115 -0.2765  0.3974 -0.0497
  676MOL0     C93177   3.568   5.279   2.247  0.4720 -1.0071 -0.8041
  676MOL0     C93178   3.459   5.186   2.288 -0.8588  0.8510  0.4262
  676MOL0     C93179   3.612   5.379   2.344 -0.3857 -0.5168  0.4591
  676MOL0     C93180   3.577   5.398   2.489 -0.3458  0.2288  0.3742
  676MOL0     O93181   3.655   5.494   2.552  0.3759  0.1098  0.4805
  676MOL0     C93182   3.647   5.518   2.685  0.8957  1.2685 -0.4404
  676MOL0     C93183   3.629   5.415   2.776  0.7943  1.6816  0.7316
  676MOL0     C93184   3.604   5.444   2.909 -0.3671  0.0925 -0.1813
  676MOL0     C93185   3.606   5.569   2.964  0.9334 -0.2783  0.4099
  676MOL0     O93186   3.572   5.602   3.093 -0.1618  0.1339 -0.6315
  676MOL0     C93187   3.573   5.503   3.187 -0.4196 -1.0006 -0.3564
  676MOL0     C93188   3.631   5.578   3.311 -0.4737  0.8862  0.0458
  676MOL0     C93189   3.633   5.472   3.421  0.3600  0.5381  0.1226
  676MOL0     C93190   3.499   5.416   3.473 -0.3347 -0.8946  0.4053
  676MOL0     C93191   3.526   5.333   3.595  0.4781  0.5918  0.0504
  676MOL0     C93192   3.495   5.420   3.721 -1.1123  0.1543 -0.2742
  676MOL0     C93193   3.627   5.484   3.771  0.8880 -0.1482  0.1034
  676MOL0     C93194   3.596   5.620   3.829  0.1281 -0.3546 -0.8717
  676MOL0    Cl93195   3.444   5.611   3.933  0.1829  0.4325 -0.3959
  676MOL0     C93196   3.636   5.670   2.875  0.6129  0.3611  0.3114
  676MOL0     C93197   3.658   5.641   2.742  0.3980  1.1049  0.4313
  676MOL0     O93198   3.490   5.335   2.542  0.4287 -0.0187  0.4489
  676MOL0     C93199   3.714   5.466   2.297  0.5111  0.1749 -0.2010
  676MOL0     C93200   3.760   5.460   2.166 -0.4153  1.0271 -0.0246
  676MOL0     N93201   4.258   5.439   1.732  0.0601  0.0815 -0.2828
  676MOL0     N93202   4.384   5.467   1.767  0.7667 -0.0725  0.3130
  676MOL0     C93203   4.726   6.552   2.111  0.0276 -0.0190  0.7586
  676MOL0     C93204   4.707   6.690   2.138  0.1673  0.3023  0.4630
  676MOL0     C93205   4.715   6.874   2.380  0.2617 -0.3144 -0.7999
  676MOL0     C93206   4.581   6.843   2.426 -1.1402 -0.0611  0.2178
  676MOL0     C93207   4.568   6.746   2.531  0.3029 -0.0850  0.1311
  676MOL0     C93208   4.673   6.692   2.599 -0.9476 -0.0626  0.9059
  676MOL0     O93209   4.650   6.600   2.690 -0.3401  0.4949  0.1285
  676MOL0     C93210   4.575   6.478   2.658 -0.0972 -0.4573 -0.2112
  676MOL0     C93211   4.669   6.379   2.585  0.3169  0.3955 -0.3241
  676MOL0     C93212   4.589   6.270   2.507  0.4455 -0.6799  0.7078
  676MOL0     C93213   4.668   6.162   2.441 -0.0625 -0.1009  0.0878
  676MOL0     C93214   4.717   6.066   2.545  0.3847  0.3990 -0.1756
  676MOL0     C93215   4.738   6.001   2.653  0.4514 -0.8582  0.7744
  676MOL0     C93216   4.803   6.736   2.565 -0.6682  0.3679  0.3299
  676MOL0     C93217   4.825   6.816   2.450 -0.0832 -0.8464  0.0200
  676MOL0     C93218   4.972   6.846   2.424  0.3879 -0.6246  0.4833
  676MOL0     H93219   5.027   6.791   2.095 -0.1945 -0.4311 -0.6803
  676MOL0     H93220   5.066   6.568   2.068  0.6183 -1.1620 -0.1305
  676MOL0     H93221   4.715   6.329   1.945  0.3718 -1.7251  0.2251
  676MOL0     H93222   4.758   6.243   2.081 -1.4045  0.3422  0.1503
  676MOL0     H93223   4.922   6.247   1.836 -1.7504  2.0044  0.1678
  676MOL0     H93224   4.961   6.147   1.981 -0.8340  0.3284  1.9447
  676MOL0     H93225   4.697   6.095   1.869 -0.9540  0.1181  1.2942
  676MOL0     H93226   4.838   6.048   1.765  0.6671 -2.0642  0.6681
  676MOL0     H93227   4.916   5.910   1.946  0.7634  0.9421 -0.9709
  676MOL0     H93228   4.791   5.979   2.064 -1.4683 -0.6975 -1.0153
  676MOL0     H93229   4.750   5.739   1.941  0.3692 -1.0205 -3.1797
  676MOL0     H93230   4.722   5.841   1.805 -0.3957 -0.2966 -0.6412
  676MOL0     H93231   4.603   5.895   2.073  2.4258  0.7885 -0.6399
  676MOL0     H93232   4.546   5.956   1.918 -3.6583 -2.2642 -1.7391
  676MOL0     H93233   4.389   5.801   1.962 -0.9232 -2.0488 -0.6505
  676MOL0     H93234   4.518   5.701   2.048  0.0886 -1.9936 -0.8006
  676MOL0     H93235   4.534   5.738   1.760  1.0522 -0.6016  0.5700
  676MOL0     H93236   4.579   5.594   1.845  2.0804  1.1589  1.2364
  676MOL0     H93237   4.219   5.738   1.823 -0.4401 -0.7113 -1.5630
  676MOL0     H93238   4.024   5.482   1.631  1.4839 -1.3231  0.6580
  676MOL0     H93239   4.022   5.653   1.655  0.0321 -0.2444 -1.6483
  676MOL0     H93240   3.982   5.449   1.877  1.4947 -0.2853 -0.3133
  676MOL0     H93241   3.923   5.617   1.877 -1.4874 -1.0939  0.8652
  676MOL0     H93242   3.767   5.573   1.683  2.5554  0.6198 -0.6194
  676MOL0     H93243   3.807   5.401   1.677 -1.0233  0.5900 -0.4071
  676MOL0     H93244   3.650   5.534   1.908 -0.2623 -1.2036  1.2779
  676MOL0     H93245   3.600   5.394   1.819 -0.4818  0.8532 -1.2750
  676MOL0     H93246   3.573   5.198   2.048  0.2201 -1.1444  1.3358
  676MOL0     H93247   3.415   5.146   2.197  0.5128 -0.3623  0.2595
  676MOL0     H93248   3.381   5.233   2.348 -1.7380  0.4683 -0.4011
  676MOL0     H93249   3.499   5.105   2.349 -1.7245 -0.5194 -0.7699
  676MOL0     H93250   3.625   5.308   2.754  2.1638  1.4093  1.7302
  676MOL0     H93251   3.581   5.361   2.975  1.4546  1.6246  2.6143
  676MOL0     H93252   3.473   5.460   3.200 -1.0134  0.4855  0.2107
  676MOL0     H93253   3.662   5.441   3.175  0.6120 -0.4449  3.3120
  676MOL0     H93254   3.737   5.603   3.303 -0.6545  1.8669  0.5341
  676MOL0     H93255   3.565   5.663   3.331 -1.0150  0.0757  1.8921
  676MOL0     H93256   3.690   5.516   3.503  0.7951 -0.1892  0.2206
  676MOL0     H93257   3.696   5.388   3.390  0.4904  0.6212  0.1624
  676MOL0     H93258   3.444   5.367   3.392  1.9627 -1.5178 -0.8589
  676MOL0     H93259   3.435   5.502   3.496 -1.4616 -1.6727  0.2532
  676MOL0     H93260   3.452   5.252   3.593  1.0936  0.0388 -0.9437
  676MOL0     H93261   3.628   5.293   3.591  2.1507  4.5084 -1.9848
  676MOL0     H93262   3.459   5.363   3.807  0.1407 -1.8933 -1.0513
  676MOL0     H93263   3.422   5.499   3.698 -0.9262  0.4412  0.1080
  676MOL0     H93264   3.709   5.492   3.698  0.1492  0.3602 -0.6926
  676MOL0     H93265   3.662   5.409   3.841 -0.4534 -4.4743 -3.3855
  676MOL0     H93266   3.592   5.698   3.752 -0.2350 -2.0715 -2.6710
  676MOL0     H93267   3.677   5.658   3.893 -1.5067  3.8913 -0.9934
  676MOL0     H93268   3.634   5.772   2.912 -1.2714  0.5676 -0.2649
  676MOL0     H93269   3.668   5.716   2.664 -1.8048  1.3990  0.3633
  676MOL0     H93270   3.745   5.551   2.356  2.3632 -0.5191 -0.0895
  676MOL0     H93271   3.832   5.531   2.128 -0.3663  0.4895 -0.9628
  676MOL0     H93272   4.632   6.499   2.100 -2.4194  3.7490  1.9171
  676MOL0     H93273   4.608   6.729   2.160 -0.2145  1.5603 -2.8967
  676MOL0     H93274   4.496   6.899   2.388 -0.8203 -0.6440 -1.4192
  676MOL0     H93275   4.466   6.722   2.560  0.1153  0.8456  0.2840
  676MOL0     H93276   4.524   6.428   2.741 -3.3515 -0.2217 -1.9316
  676MOL0     H93277   4.493   6.501   2.589 -0.6959 -3.6555 -0.7079
  676MOL0     H93278   4.728   6.333   2.665 -3.7268 -0.5094  2.4651
  676MOL0     H93279   4.738   6.431   2.519  4.1990 -1.3835  1.9721
  676MOL0     H93280   4.509   6.234   2.573  1.0515  0.4389  2.1301
  676MOL0     H93281   4.544   6.327   2.425 -0.7249  0.8183  2.2959
  676MOL0     H93282   4.755   6.197   2.384  2.9542 -1.6120  3.3636
  676MOL0     H93283   4.603   6.103   2.375 -1.7186  3.6790 -1.9618
  676MOL0     H93284   4.744   5.931   2.734 -0.8372 -3.0246 -0.8702
  676MOL0     H93285   4.896   6.710   2.615  1.0392  1.7245 -1.9368
  676MOL0     H93286   5.029   6.754   2.407 -4.6388 -4.0622 -0.2067
  676MOL0     H93287   4.994   6.899   2.332  2.6059 -1.7091  0.3309
  676MOL0     H93288   5.008   6.915   2.501 -1.2357  0.2487  0.5049
  677MOL0     O93289   7.216   1.454   0.130 -0.7450  0.1234 -0.4090
  677MOL0     C93290   7.252   1.364   0.050 -0.3117 -0.2365 -0.8883
  677MOL0     O93291   7.321   1.253   0.088 -0.0363 -0.0124  1.2969
  677MOL0     C93292   7.334   1.229   0.218 -0.1125  0.4543 -0.3375
  677MOL0     C93293   7.245   1.129   0.271 -0.5909  0.5275  0.4891
  677MOL0     C93294   7.258   1.077   0.397  0.4359 -0.2698 -0.7070
  677MOL0     C93295   7.368   1.115   0.472 -0.3674  0.6751 -0.7863
  677MOL0     O93296   7.405   1.073   0.599  0.4984  0.0531 -0.3004
  677MOL0     C93297   7.292   1.049   0.687 -0.3595  0.1014 -0.5083
  677MOL0     C93298   7.325   1.107   0.828 -0.3326  0.9471  0.2052
  677MOL0     C93299   7.326   1.261   0.851  0.8735  0.5844  0.3209
  677MOL0     C93300   7.452   1.327   0.807 -0.8070 -0.2805 -0.9231
  677MOL0     C93301   7.468   1.473   0.866 -0.3391 -0.1172  0.3043
  677MOL0     C93302   7.398   1.579   0.774 -0.1178  0.8745 -0.0540
  677MOL0     C93303   7.452   1.715   0.809 -0.3675 -0.6242 -0.4272
  677MOL0     C93304   7.399   1.820   0.707  0.3287  0.4153 -0.1554
  677MOL0     N93305   7.402   1.950   0.761 -0.1048  0.1406  0.7009
  677MOL0     C93306   7.498   2.015   0.841 -0.0238 -0.7436  0.2507
  677MOL0     C93307   7.442   2.138   0.870 -0.3489 -0.9965 -0.1871
  677MOL0     C93308   7.519   2.248   0.938  0.7519 -0.0115 -0.4712
  677MOL0     C93309   7.570   2.349   0.831 -0.4758  0.8007 -0.4180
  677MOL0     C93310   7.469   2.449   0.777  0.1287  0.4505 -0.9441
  677MOL0     C93311   7.531   2.533   0.660 -0.4791 -0.1348 -0.5586
  677MOL0     O93312   7.594   2.444   0.562  0.2082 -0.4356  0.1969
  677MOL0     C93313   7.603   2.485   0.427  0.8498 -0.1484  0.1248
  677MOL0     C93314   7.530   2.414   0.324 -0.3841  0.3011  1.3298
  677MOL0     C93315   7.539   2.456   0.191  0.2148  0.7203  0.1118
  677MOL0     C93316   7.463   2.369   0.093 -0.0440  0.1699  0.4595
  677MOL0     C93317   7.605   2.578   0.155 -0.5459 -0.3633  1.1378
  677MOL0     C93318   7.608   2.632   0.019 -0.2572 -0.1567 -0.7844
  677MOL0     O93319   7.686   2.743   0.010  0.2042 -0.5230  0.5523
  677MOL0     C93320   7.722   2.792  -0.110  0.0745 -0.0570 -0.8555
  677MOL0     C93321   7.638   2.893  -0.169 -0.4732  0.2149 -0.2499
  677MOL0     C93322   7.665   2.944  -0.289  0.0817  0.8940 -0.3934
  677MOL0     C93323   7.784   2.905  -0.354  0.4812  0.1155 -1.0420
  677MOL0     O93324   7.834   2.964  -0.464 -1.0667 -0.0275  0.3659
  677MOL0     C93325   7.758   3.066  -0.531  0.1910  0.2676  0.4070
  677MOL0     C93326   7.824   3.118  -0.656 -0.8672 -0.3151 -0.0293
  677MOL0     C93327   7.723   3.184  -0.749  0.5135  0.3235 -0.4614
  677MOL0     C93328   7.804   3.259  -0.856 -0.0814 -0.6636 -0.3070
  677MOL0     C93329   7.709   3.336  -0.950  0.3012  0.4456  0.4191
  677MOL0     C93330   7.764   3.358  -1.085  0.9888  0.2225 -0.2228
  677MOL0     C93331   7.661   3.408  -1.184 -0.0830 -0.1195 -0.4780
  677MOL0     C93332   7.718   3.460  -1.312 -0.6376 -0.0284 -0.5306
  677MOL0    Cl93333   7.770   3.320  -1.414 -0.6732 -0.0828  0.2350
  677MOL0     C93334   7.870   2.814  -0.301  0.2671  0.2875 -0.2147
  677MOL0     C93335   7.833   2.748  -0.174 -0.1239 -0.4127 -0.0168
  677MOL0     O93336   7.537   2.588  -0.076 -0.3837  0.4564 -0.2437
  677MOL0     C93337   7.649   2.655   0.264 -1.1743 -0.4910 -0.6330
  677MOL0     C93338   7.659   2.610   0.398 -0.2985 -0.0531 -0.0969
  677MOL0     N93339   7.311   2.144   0.824 -0.0868  0.1414 -1.0929
  677MOL0     N93340   7.283   2.030   0.779  0.2020 -0.4266 -0.1154
  677MOL0     C93341   7.458   1.203   0.415  0.2054  0.0220 -1.0274
  677MOL0     C93342   7.448   1.263   0.293 -0.0266 -0.0437 -0.0403
  677MOL0     C93343   7.244   1.381  -0.100 -1.1036  0.0103 -0.6829
  677MOL0     C93344   7.366   1.366  -0.176 -0.9216  0.1001 -0.4341
  677MOL0     C93345   7.362   1.357  -0.315  0.5967 -0.6602  0.5418
  677MOL0     C93346   7.244   1.376  -0.388 -0.1445  0.5095 -0.0094
  677MOL0     O93347   7.269   1.371  -0.525 -0.0979  0.3425  0.7641
  677MOL0     C93348   7.153   1.374  -0.609 -0.6026  0.6115 -0.1052
  677MOL0     C93349   7.211   1.450  -0.728  1.0224  0.4904  0.4723
  677MOL0     C93350   7.219   1.602  -0.698  0.6457 -0.7099 -0.1982
  677MOL0     C93351   7.373   1.637  -0.669  0.2426 -0.8866 -0.7407
  677MOL0     C93352   7.466   1.646  -0.781  0.3400 -0.2245 -0.0700
  677MOL0     C93353   7.543   1.661  -0.866 -0.7717  2.2340  0.0707
  677MOL0     C93354   7.121   1.390  -0.313  0.1867 -0.3228 -0.6915
  677MOL0     C93355   7.124   1.397  -0.170 -0.3102  0.1206 -0.1774
  677MOL0     C93356   6.988   1.432  -0.107  0.9419 -0.0544  0.1480
  677MOL0     H93357   7.155   1.093   0.222  0.2743 -2.4950  0.9619
  677MOL0     H93358   7.190   1.007   0.445  0.1560 -0.5739 -1.5281
  677MOL0     H93359   7.272   0.943   0.704  2.5684 -0.3094  0.9870
  677MOL0     H93360   7.204   1.098   0.644  0.3432 -0.7930 -3.2278
  677MOL0     H93361   7.242   1.084   0.896 -1.2263  0.5436 -0.9840
  677MOL0     H93362   7.417   1.065   0.870 -1.0323 -0.5273  0.3114
  677MOL0     H93363   7.250   1.304   0.786  2.8697  1.3803 -1.6208
  677MOL0     H93364   7.310   1.267   0.959 -0.9437 -4.3374  0.5686
  677MOL0     H93365   7.528   1.255   0.840 -2.9017 -2.4041 -0.3992
  677MOL0     H93366   7.455   1.340   0.699  0.8377  1.6209 -0.6959
  677MOL0     H93367   7.574   1.487   0.887 -0.4706 -0.7958  1.4811
  677MOL0     H93368   7.422   1.489   0.963  0.4470  2.9383  0.2565
  677MOL0     H93369   7.425   1.560   0.669  2.9505  2.6866  0.2914
  677MOL0     H93370   7.291   1.567   0.790  0.1001 -3.3826 -0.5318
  677MOL0     H93371   7.560   1.720   0.799 -0.3756  2.8653  0.0727
  677MOL0     H93372   7.413   1.736   0.909 -2.6299 -1.6156 -1.0187
  677MOL0     H93373   7.462   1.819   0.617 -2.6491 -3.1782 -2.4728
  677MOL0     H93374   7.297   1.793   0.680  0.5496 -1.0501  0.4227
  677MOL0     H93375   7.598   1.978   0.862  0.2248 -1.4369 -1.8721
  677MOL0     H93376   7.609   2.205   0.985  1.0809  2.8191  1.7832
  677MOL0     H93377   7.456   2.308   1.004  0.9316 -0.7458  0.3862
  677MOL0     H93378   7.644   2.411   0.881 -2.2438  1.3292  1.6948
  677MOL0     H93379   7.609   2.294   0.745 -0.7376  1.6714 -1.1135
  677MOL0     H93380   7.383   2.389   0.746  0.5799 -0.3096 -0.7592
  677MOL0     H93381   7.432   2.525   0.847 -0.4553 -1.2224  0.6672
  677MOL0     H93382   7.455   2.601   0.621 -0.3330  1.4482  1.7284
  677MOL0     H93383   7.611   2.600   0.692  0.1154  0.9764 -4.0132
  677MOL0     H93384   7.469   2.327   0.346 -0.1132 -0.0875  0.5698
  677MOL0     H93385   7.438   2.273   0.140  2.9389 -1.9615 -1.9282
  677MOL0     H93386   7.524   2.337   0.008  3.0151 -2.3788  3.3383
  677MOL0     H93387   7.382   2.425   0.046 -0.2919 -0.6345 -0.0932
  677MOL0     H93388   7.549   2.927  -0.117 -0.1548 -1.6503  1.6928
  677MOL0     H93389   7.608   3.026  -0.331  0.5449  0.3321 -2.1933
  677MOL0     H93390   7.664   3.015  -0.553  1.0845 -1.4542  0.4157
  677MOL0     H93391   7.741   3.152  -0.466 -0.1971  1.8967 -1.7318
  677MOL0     H93392   7.893   3.196  -0.621 -2.2556  0.3126  1.4303
  677MOL0     H93393   7.884   3.046  -0.712  0.9754 -0.4763  1.9602
  677MOL0     H93394   7.657   3.251  -0.693 -0.9195 -1.3889 -0.0218
  677MOL0     H93395   7.664   3.105  -0.795  0.6009 -0.5018  0.8127
  677MOL0     H93396   7.870   3.192  -0.912  1.2512  0.7521 -0.4924
  677MOL0     H93397   7.867   3.341  -0.819 -1.8702  0.9149 -0.6373
  677MOL0     H93398   7.611   3.288  -0.955  0.2556  0.4559  1.1083
  677MOL0     H93399   7.689   3.438  -0.917 -0.4099  1.2437 -2.2372
  677MOL0     H93400   7.810   3.263  -1.114  3.7905 -0.3733  5.0319
  677MOL0     H93401   7.847   3.430  -1.080  0.0147  1.3850 -0.4205
  677MOL0     H93402   7.588   3.482  -1.150 -0.2448 -0.5551  0.1479
  677MOL0     H93403   7.592   3.325  -1.201  0.3408 -1.0310  1.9257
  677MOL0     H93404   7.804   3.527  -1.304  2.6858 -4.0697  1.0152
  677MOL0     H93405   7.630   3.511  -1.353 -3.6841 -2.8752  1.8924
  677MOL0     H93406   7.965   2.782  -0.340  0.9953 -0.5212  2.0485
  677MOL0     H93407   7.893   2.679  -0.116 -1.7002 -0.0893  2.1014
  677MOL0     H93408   7.707   2.745   0.252 -0.0669 -0.6861  2.3541
  677MOL0     H93409   7.708   2.664   0.478 -0.4766  3.3018 -2.0899
  677MOL0     H93410   7.548   1.230   0.469  2.1075 -4.6887 -1.4130
  677MOL0     H93411   7.522   1.331   0.251  0.1663  0.1958  0.6696
  677MOL0     H93412   7.467   1.357  -0.136  0.1875  2.4207 -2.4335
  677MOL0     H93413   7.456   1.337  -0.366 -0.3372 -2.9481 -0.3708
  677MOL0     H93414   7.122   1.269  -0.622 -0.3976 -0.1610  4.3483
  677MOL0     H93415   7.069   1.433  -0.572 -0.7381  0.5496 -0.3099
  677MOL0     H93416   7.145   1.426  -0.812  1.2623  0.8310  0.1889
  677MOL0     H93417   7.304   1.414  -0.772 -0.7323  1.1195 -4.3044
  677MOL0     H93418   7.188   1.651  -0.790 -1.5881 -0.2267  0.7480
  677MOL0     H93419   7.152   1.632  -0.617 -0.6336 -2.9788 -0.3178
  677MOL0     H93420   7.414   1.573  -0.591 -3.6568 -0.7283  1.7714
  677MOL0     H93421   7.375   1.738  -0.627  0.0048 -0.8421 -0.8356
  677MOL0     H93422   7.610   1.650  -0.949 -1.5363 -2.9530 -0.1789
  677MOL0     H93423   7.025   1.408  -0.361 -0.4596 -1.9944 -0.1024
  677MOL0     H93424   6.947   1.515  -0.164 -2.2790 -2.1482 -0.8474
  677MOL0     H93425   6.922   1.347  -0.125 -0.1871  0.4482  1.7338
  677MOL0     H93426   6.991   1.451   0.001 -0.9524 -0.3979  0.2913
  678MOL0     O93427  10.494   5.343   6.893 -0.3825 -1.1250  0.3760
  678MOL0     C93428  10.568   5.430   6.945 -0.0874  0.5044  0.0753
  678MOL0     O93429  10.658   5.410   7.037 -0.6500  0.4837  0.0911
  678MOL0     C93430  10.670   5.307   7.124 -0.8948 -0.0125  0.3823
  678MOL0     C93431  10.789   5.289   7.200 -0.2961  0.8066  0.1634
  678MOL0     C93432  10.817   5.180   7.282 -0.6867 -0.6979  0.5614
  678MOL0     C93433  10.719   5.085   7.290 -0.8438  0.6577 -0.6828
  678MOL0     O93434  10.730   4.985   7.383 -0.5440  0.1819  0.2915
  678MOL0     C93435  10.632   4.976   7.490 -0.1563  0.3130  0.0441
  678MOL0     C93436  10.657   4.851   7.572 -0.0856  0.3225  0.0297
  678MOL0     C93437  10.754   4.867   7.689 -0.6296 -0.9205  0.2335
  678MOL0     C93438  10.786   4.736   7.773  0.9031 -0.6467 -0.0559
  678MOL0     C93439  10.917   4.747   7.853 -0.0815  1.6027  0.5626
  678MOL0     C93440  10.905   4.853   7.948  0.1296  0.8444  1.0220
  678MOL0     C93441  11.038   4.855   8.033 -0.1134  0.1341  0.2948
  678MOL0     C93442  11.038   4.780   8.161  0.8268 -0.0127  0.2932
  678MOL0     N93443  11.167   4.795   8.218 -0.1936 -0.2232 -0.1840
  678MOL0     C93444  11.258   4.695   8.240 -0.1537 -0.2354 -0.9284
  678MOL0     C93445  11.360   4.767   8.297 -0.0958 -0.0528 -0.0990
  678MOL0     C93446  11.467   4.693   8.364 -0.1879 -0.1790  0.2335
  678MOL0     C93447  11.603   4.756   8.361 -1.2006 -1.1378 -0.4690
  678MOL0     C93448  11.663   4.730   8.220  0.3690  0.7542 -0.6895
  678MOL0     C93449  11.717   4.864   8.164  0.5735  0.0155 -0.8870
  678MOL0     O93450  11.835   4.888   8.232 -0.2537 -0.0292 -0.7021
  678MOL0     C93451  11.905   5.003   8.214  0.4113  0.2748  0.0967
  678MOL0     C93452  12.016   5.020   8.293  0.9071 -0.7375 -0.0496
  678MOL0     C93453  12.103   5.135   8.277 -0.3696  0.8440 -0.3626
  678MOL0     C93454  12.229   5.147   8.365 -0.1580  0.3061  0.5726
  678MOL0     C93455  12.076   5.230   8.181  1.0650 -0.0508  0.5461
  678MOL0     C93456  12.150   5.341   8.139 -1.0280 -0.7058 -0.1145
  678MOL0     O93457  12.124   5.403   8.018 -0.1509 -0.2882  0.1335
  678MOL0     C93458  12.186   5.515   7.975  0.4642  0.5123  0.1194
  678MOL0     C93459  12.220   5.631   8.048 -0.4727  0.0843 -0.4854
  678MOL0     C93460  12.278   5.747   7.990 -0.3531  0.1445  0.8629
  678MOL0     C93461  12.303   5.739   7.849  0.9603 -0.6868 -0.1827
  678MOL0     O93462  12.349   5.843   7.783 -0.1185 -0.2930  0.6365
  678MOL0     C93463  12.271   5.959   7.765 -0.3983 -0.4839  0.9707
  678MOL0     C93464  12.349   6.075   7.688 -0.6137  0.4150 -0.1970
  678MOL0     C93465  12.383   6.042   7.544 -0.1047  0.1551 -0.5802
  678MOL0     C93466  12.411   6.167   7.463  0.7552  0.6135 -0.8329
  678MOL0     C93467  12.461   6.123   7.322 -0.6321 -1.0774 -0.0924
  678MOL0     C93468  12.497   6.239   7.225 -0.4461 -0.3099  0.0721
  678MOL0     C93469  12.374   6.319   7.182  0.2850 -0.0868 -0.0127
  678MOL0     C93470  12.400   6.371   7.041 -0.8486  0.6246 -0.4612
  678MOL0    Cl93471  12.266   6.481   7.022  0.4292  0.3025  0.4956
  678MOL0     C93472  12.267   5.623   7.782  0.8614 -0.1787 -0.1747
  678MOL0     C93473  12.195   5.515   7.841 -0.5044 -0.5826  0.6572
  678MOL0     O93474  12.247   5.375   8.202  0.2675 -0.4872 -0.1296
  678MOL0     C93475  11.970   5.203   8.091  0.6769  0.0464 -0.9295
  678MOL0     C93476  11.882   5.094   8.111 -0.6360 -0.9193  0.4481
  678MOL0     N93477  11.353   4.905   8.296  0.2445 -0.4007  0.1783
  678MOL0     N93478  11.226   4.920   8.252  0.2521 -0.4468  0.5485
  678MOL0     C93479  10.596   5.091   7.222  0.4530  0.1784  0.2730
  678MOL0     C93480  10.575   5.201   7.140 -0.3005 -0.3941  0.0741
  678MOL0     C93481  10.570   5.563   6.879 -0.5210  0.1784 -0.2396
  678MOL0     C93482  10.473   5.586   6.775  0.0065  0.2258  0.2850
  678MOL0     C93483  10.464   5.708   6.722 -1.2547  0.8394 -0.3052
  678MOL0     C93484  10.537   5.822   6.769 -0.2406 -0.9119  0.7329
  678MOL0     O93485  10.511   5.942   6.699  0.7091  0.8286  0.5478
  678MOL0     C93486  10.596   6.051   6.722 -0.5417 -0.0967  0.0142
  678MOL0     C93487  10.545   6.184   6.662  0.0168 -0.6833  0.4179
  678MOL0     C93488  10.648   6.298   6.664  0.4614 -0.0829  0.2368
  678MOL0     C93489  10.626   6.414   6.571 -0.2277 -0.1105 -0.3815
  678MOL0     C93490  10.498   6.474   6.605 -0.5972 -0.6339 -0.1999
  678MOL0     C93491  10.390   6.491   6.652  0.3472  0.5589  0.3199
  678MOL0     C93492  10.639   5.796   6.866 -0.3539 -0.4762  0.3601
  678MOL0     C93493  10.660   5.674   6.924  1.2574  0.7782  0.5994
  678MOL0     C93494  10.759   5.674   7.032 -0.1188  0.4036 -0.3310
  678MOL0     H93495  10.867   5.365   7.199  1.2460 -0.7024  0.4467
  678MOL0     H93496  10.915   5.172   7.329 -0.7471 -2.0234  0.4945
  678MOL0     H93497  10.533   4.965   7.446  0.9295 -2.2196 -2.0310
  678MOL0     H93498  10.631   5.059   7.561 -2.2930 -0.4389  0.9518
  678MOL0     H93499  10.562   4.819   7.615  0.6198  0.6489  1.9002
  678MOL0     H93500  10.691   4.776   7.499  0.1252 -0.8144  1.2457
  678MOL0     H93501  10.842   4.909   7.639  0.0809  0.0112  2.1704
  678MOL0     H93502  10.719   4.951   7.749  1.1244 -1.9475  2.8459
  678MOL0     H93503  10.707   4.733   7.849  0.2801  0.6408 -0.6264
  678MOL0     H93504  10.773   4.650   7.707 -1.5170 -0.2370 -0.2198
  678MOL0     H93505  11.001   4.764   7.784  0.8567  4.1164  2.1860
  678MOL0     H93506  10.939   4.653   7.905 -1.4914  1.0402  0.1766
  678MOL0     H93507  10.896   4.943   7.886  2.2401  1.7901  2.0133
  678MOL0     H93508  10.819   4.839   8.015 -1.5668 -2.1506 -1.5031
  678MOL0     H93509  11.067   4.960   8.044  0.0899  0.0460  0.6023
  678MOL0     H93510  11.122   4.825   7.969 -1.5755 -1.6329 -0.8853
  678MOL0     H93511  10.964   4.830   8.224  2.5101  1.3090  1.3072
  678MOL0     H93512  11.003   4.677   8.152 -0.8467  0.6316 -1.2457
  678MOL0     H93513  11.252   4.590   8.215  1.1041 -0.3003 -1.0437
  678MOL0     H93514  11.469   4.591   8.324 -0.3856 -1.2973  2.8689
  678MOL0     H93515  11.440   4.678   8.469  0.1787  2.4121  0.7685
  678MOL0     H93516  11.608   4.860   8.397  0.5348 -1.1310 -0.6468
  678MOL0     H93517  11.661   4.698   8.433 -2.8171  1.0173  2.8639
  678MOL0     H93518  11.740   4.653   8.224  2.0879  2.4432  1.2163
  678MOL0     H93519  11.584   4.705   8.149 -1.1414  0.3355  1.0816
  678MOL0     H93520  11.738   4.870   8.057 -0.7632  1.8435 -1.1056
  678MOL0     H93521  11.646   4.948   8.164  0.1970 -0.2056 -3.3724
  678MOL0     H93522  12.037   4.937   8.361  0.3874 -1.0908 -0.3142
  678MOL0     H93523  12.322   5.117   8.315 -0.5101 -2.9871  1.6823
  678MOL0     H93524  12.220   5.092   8.459 -0.3010 -0.0231  0.3661
  678MOL0     H93525  12.229   5.251   8.399 -3.2433  0.2441  1.0340
  678MOL0     H93526  12.207   5.639   8.155 -0.6166 -1.2533 -0.3857
  678MOL0     H93527  12.303   5.839   8.040 -0.8646  0.6597  0.1912
  678MOL0     H93528  12.177   5.936   7.715  0.4292  1.7355 -1.8688
  678MOL0     H93529  12.235   6.006   7.857  2.3338  1.7358  1.0724
  678MOL0     H93530  12.282   6.161   7.700 -1.1822 -0.1457  0.8026
  678MOL0     H93531  12.445   6.093   7.737 -0.9890  0.4534  0.5261
  678MOL0     H93532  12.310   5.984   7.487  1.6541 -2.2432 -0.5097
  678MOL0     H93533  12.462   5.966   7.548 -1.2949 -1.0649  0.8873
  678MOL0     H93534  12.476   6.237   7.517 -1.9403  1.9961  0.8037
  678MOL0     H93535  12.315   6.220   7.458  0.6467  0.3812 -1.2616
  678MOL0     H93536  12.557   6.071   7.334  0.6839  1.2987  0.5060
  678MOL0     H93537  12.399   6.053   7.266  2.4603 -1.1079 -3.9000
  678MOL0     H93538  12.541   6.195   7.136  0.2782  0.8803 -0.1800
  678MOL0     H93539  12.577   6.290   7.280 -1.7523  1.4244  0.4583
  678MOL0     H93540  12.346   6.395   7.255  1.2698  0.1428  0.1366
  678MOL0     H93541  12.291   6.247   7.175  0.5148 -0.4458  0.8209
  678MOL0     H93542  12.390   6.288   6.971  3.0434  0.9209 -1.6139
  678MOL0     H93543  12.499   6.414   7.026  0.2862 -1.4639  0.4865
  678MOL0     H93544  12.280   5.613   7.675  0.9206 -2.1014 -0.0304
  678MOL0     H93545  12.151   5.437   7.780 -0.6395 -1.4835  1.8596
  678MOL0     H93546  11.931   5.275   8.020 -1.0875 -1.0901 -1.1818
  678MOL0     H93547  11.809   5.104   8.032  2.3297  2.7852 -2.2035
  678MOL0     H93548  10.512   5.023   7.231 -0.4087  1.0218 -0.9942
  678MOL0     H93549  10.492   5.191   7.070 -0.0343  4.7374 -1.3834
  678MOL0     H93550  10.416   5.500   6.741 -1.2799  2.1410 -2.8898
  678MOL0     H93551  10.389   5.723   6.644 -2.8504  2.7101  1.4694
  678MOL0     H93552  10.604   6.070   6.830 -2.1896 -2.5319  0.6399
  678MOL0     H93553  10.692   6.038   6.672 -0.5671  0.3163 -0.1523
  678MOL0     H93554  10.448   6.216   6.702  0.0353 -0.6583  0.4424
  678MOL0     H93555  10.538   6.173   6.554 -1.7525  0.8392  0.3228
  678MOL0     H93556  10.650   6.337   6.766 -3.5749  0.0815  0.4149
  678MOL0     H93557  10.746   6.253   6.644  0.0921 -0.7033 -0.2228
  678MOL0     H93558  10.644   6.390   6.465  1.6025 -1.1200  0.1086
  678MOL0     H93559  10.706   6.487   6.589 -1.1356  1.0667 -0.9870
  678MOL0     H93560  10.286   6.502   6.676  0.7099  1.7800  1.4502
  678MOL0     H93561  10.709   5.875   6.889 -1.7133  0.4001  1.6548
  678MOL0     H93562  10.714   5.645   7.127  0.5689 -0.6495 -0.3181
  678MOL0     H93563  10.838   5.601   7.012 -0.1249  0.4129 -0.3893
  678MOL0     H93564  10.818   5.764   7.053  1.7196 -1.0606  1.1763
  679MOL0     O93565   0.238   0.873   2.409 -0.6170  0.2785 -0.7344
  679MOL0     C93566   0.206   0.813   2.307 -1.0406  0.0048 -0.6594
  679MOL0     O93567   0.081   0.797   2.256 -0.0564 -0.3643 -0.2577
  679MOL0     C93568  -0.016   0.865   2.326 -0.5706  0.3913  0.4524
  679MOL0     C93569  -0.086   0.792   2.419 -0.1882 -0.0508 -0.1453
  679MOL0     C93570  -0.186   0.855   2.498 -0.1640 -0.3225 -0.3483
  679MOL0     C93571  -0.218   0.986   2.483  0.5382 -0.1648  0.2915
  679MOL0     O93572  -0.302   1.064   2.554  0.4056 -0.6886  0.0792
  679MOL0     C93573  -0.318   1.037   2.692  0.4857 -0.4531 -1.0578
  679MOL0     C93574  -0.368   1.166   2.754 -0.1157  0.5486 -0.1271
  679MOL0     C93575  -0.480   1.237   2.687 -0.3703  0.0244  0.5821
  679MOL0     C93576  -0.610   1.163   2.685 -0.3449 -0.4224  0.1952
  679MOL0     C93577  -0.717   1.251   2.621 -0.2437  0.4540 -0.0819
  679MOL0     C93578  -0.861   1.214   2.629 -2.3397 -0.7969  0.4386
  679MOL0     C93579  -0.897   1.097   2.546  0.3697  0.2540  0.5920
  679MOL0     C93580  -1.046   1.064   2.562  0.8354 -0.5921  1.4761
  679MOL0     N93581  -1.088   1.008   2.693  0.3315  0.1650  0.6204
  679MOL0     C93582  -1.014   0.938   2.781  0.0912  0.8359 -0.5819
  679MOL0     C93583  -1.065   0.960   2.901 -0.3979 -0.0306  1.1668
  679MOL0     C93584  -1.012   0.895   3.028 -0.5862  0.2685 -0.0722
  679MOL0     C93585  -1.070   0.764   3.039 -0.5679  0.1402 -0.9538
  679MOL0     C93586  -1.215   0.762   3.093  0.3849 -0.2410  0.2885
  679MOL0     C93587  -1.275   0.620   3.131  0.4304 -0.3993 -0.3544
  679MOL0     O93588  -1.326   0.605   3.265  0.2584 -0.6607  0.0880
  679MOL0     C93589  -1.452   0.556   3.285 -0.0088  0.4130  0.5268
  679MOL0     C93590  -1.562   0.559   3.193  0.7469 -0.3776 -0.7051
  679MOL0     C93591  -1.686   0.504   3.224 -0.5262 -0.0196  0.7518
  679MOL0     C93592  -1.782   0.496   3.101  0.4729  0.8604 -0.6876
  679MOL0     C93593  -1.703   0.458   3.353 -1.2161  0.8693  0.4583
  679MOL0     C93594  -1.830   0.383   3.386  0.2581  0.3845  0.4976
  679MOL0     O93595  -1.818   0.307   3.491 -0.5233  0.5811  0.3548
  679MOL0     C93596  -1.902   0.198   3.518  0.0030  0.0850  0.6980
  679MOL0     C93597  -1.951   0.175   3.650  0.7215 -0.6977 -0.7216
  679MOL0     C93598  -2.043   0.074   3.665  0.7921 -0.1234 -0.0929
  679MOL0     C93599  -2.081  -0.005   3.564 -0.7411  0.2962  0.0721
  679MOL0     O93600  -2.175  -0.106   3.566 -0.3559  0.7966  0.0780
  679MOL0     C93601  -2.281  -0.091   3.654  0.4555 -0.2659 -0.4566
  679MOL0     C93602  -2.416  -0.149   3.617  0.0988 -0.0100 -0.4325
  679MOL0     C93603  -2.407  -0.301   3.576 -1.1966 -0.0780 -0.0938
  679MOL0     C93604  -2.541  -0.358   3.518 -1.3832 -0.1168 -0.1464
  679MOL0     C93605  -2.513  -0.458   3.413  0.1945  0.1953  0.2117
  679MOL0     C93606  -2.646  -0.516   3.351 -0.6769 -0.7286  0.0605
  679MOL0     C93607  -2.614  -0.661   3.308 -0.2686 -0.2955  0.5348
  679MOL0     C93608  -2.625  -0.763   3.425 -0.5740 -0.9062 -0.0427
  679MOL0    Cl93609  -2.788  -0.811   3.445  0.1123  0.2457 -0.1026
  679MOL0     C93610  -2.024  -0.001   3.434 -0.1727  0.3541  0.7756
  679MOL0     C93611  -1.938   0.111   3.412  0.3158  0.4467  0.8106
  679MOL0     O93612  -1.933   0.398   3.323  0.2069 -0.0386 -0.2808
  679MOL0     C93613  -1.596   0.459   3.449 -0.5035 -0.9296 -0.9334
  679MOL0     C93614  -1.471   0.514   3.416  0.8840  0.9853  0.0875
  679MOL0     N93615  -1.177   1.040   2.881  0.0947 -0.6361  0.1219
  679MOL0     N93616  -1.192   1.061   2.759  0.4524  0.0299 -0.6289
  679MOL0     C93617  -0.155   1.060   2.381 -0.0701  0.5184 -0.1907
  679MOL0     C93618  -0.059   0.996   2.298 -0.8532 -0.0713 -0.8316
  679MOL0     C93619   0.317   0.796   2.203 -0.2091  0.5625 -1.0587
  679MOL0     C93620   0.290   0.787   2.068  0.0727  0.0350  0.0687
  679MOL0     C93621   0.378   0.764   1.962 -0.0692  0.3357  0.3181
  679MOL0     C93622   0.515   0.766   1.991  0.8812 -0.6113 -0.5032
  679MOL0     O93623   0.611   0.757   1.901 -0.0029 -0.0851 -0.1208
  679MOL0     C93624   0.643   0.877   1.837  0.7739  0.2026 -0.4398
  679MOL0     C93625   0.727   0.845   1.715  0.0546 -0.0654 -1.0374
  679MOL0     C93626   0.654   0.772   1.597 -0.0297  0.1292 -0.2615
  679MOL0     C93627   0.731   0.781   1.469 -0.2803  0.1437 -0.6505
  679MOL0     C93628   0.847   0.691   1.476  0.9013 -0.0607 -0.0963
  679MOL0     C93629   0.926   0.604   1.499 -0.3916 -0.6482  0.3456
  679MOL0     C93630   0.552   0.793   2.122 -0.2346  1.0213  0.7100
  679MOL0     C93631   0.459   0.796   2.225  0.2800 -0.2869  0.7435
  679MOL0     C93632   0.526   0.798   2.361 -0.5687  0.2644  0.2489
  679MOL0     H93633  -0.047   0.691   2.430  2.7405  1.1017  1.1643
  679MOL0     H93634  -0.251   0.798   2.564 -0.5163  1.0826  0.5594
  679MOL0     H93635  -0.229   1.000   2.743  0.6344 -0.0554 -1.0205
  679MOL0     H93636  -0.395   0.959   2.700  2.6139 -2.6851 -1.3776
  679MOL0     H93637  -0.406   1.127   2.849 -1.4745  1.4102 -0.2801
  679MOL0     H93638  -0.288   1.238   2.775  0.7946 -0.6124  0.4465
  679MOL0     H93639  -0.502   1.327   2.746 -0.2073 -0.3699  1.2557
  679MOL0     H93640  -0.450   1.277   2.589  1.0553  0.2794  1.0898
  679MOL0     H93641  -0.599   1.070   2.630 -0.3907  0.7329 -1.8682
  679MOL0     H93642  -0.636   1.139   2.788  2.6786  1.3201  1.5031
  679MOL0     H93643  -0.679   1.243   2.519  3.0314 -2.3759  1.1470
  679MOL0     H93644  -0.705   1.351   2.664  2.0567  0.3937 -0.4342
  679MOL0     H93645  -0.873   1.197   2.736  0.1460 -2.5055  0.5323
  679MOL0     H93646  -0.914   1.303   2.591 -1.0481  0.4367  1.4175
  679MOL0     H93647  -0.835   1.009   2.564  0.1066  0.0174  0.3501
  679MOL0     H93648  -0.889   1.124   2.440 -0.8214 -1.6555 -0.0396
  679MOL0     H93649  -1.112   1.150   2.552  0.7726 -0.8652 -1.1050
  679MOL0     H93650  -1.089   1.009   2.478 -1.6590  1.6103  1.2087
  679MOL0     H93651  -0.920   0.888   2.764 -0.1683  0.3066 -0.4896
  679MOL0     H93652  -1.042   0.953   3.116 -2.9636 -0.3090 -0.4221
  679MOL0     H93653  -0.904   0.889   3.015 -0.6417  1.5889 -1.4458
  679MOL0     H93654  -1.054   0.715   2.943 -1.3642 -0.0165 -1.0169
  679MOL0     H93655  -1.006   0.708   3.108 -0.4708  2.0791  0.6270
  679MOL0     H93656  -1.234   0.839   3.169  2.5356  2.0482 -1.3223
  679MOL0     H93657  -1.287   0.796   3.019 -0.5479  1.8962  2.0899
  679MOL0     H93658  -1.345   0.596   3.050 -1.5436  2.1669  0.4573
  679MOL0     H93659  -1.188   0.555   3.123  2.4170  2.0856 -0.1422
  679MOL0     H93660  -1.546   0.607   3.097 -0.8605  1.6179 -0.0499
  679MOL0     H93661  -1.772   0.577   3.028  2.1125  1.5662  0.2536
  679MOL0     H93662  -1.879   0.525   3.142  0.7432  0.7348  0.0668
  679MOL0     H93663  -1.785   0.402   3.047  2.4891  0.1037  0.3938
  679MOL0     H93664  -1.915   0.220   3.743  1.2052 -2.0251 -0.2343
  679MOL0     H93665  -2.073   0.038   3.762 -0.7554  0.5273 -0.2962
  679MOL0     H93666  -2.253  -0.141   3.747 -2.0634  2.1491  1.7979
  679MOL0     H93667  -2.293   0.016   3.673  2.9025  0.3644 -2.0248
  679MOL0     H93668  -2.498  -0.128   3.687 -2.4887  0.5813 -3.4437
  679MOL0     H93669  -2.442  -0.094   3.527  0.0153 -0.4144 -0.6590
  679MOL0     H93670  -2.375  -0.350   3.668 -2.4814  1.7617  1.4101
  679MOL0     H93671  -2.331  -0.324   3.501 -3.0088 -0.4818 -1.9209
  679MOL0     H93672  -2.591  -0.271   3.473  1.5916  1.4954 -0.6623
  679MOL0     H93673  -2.602  -0.399   3.598  1.0590  1.0528  2.4898
  679MOL0     H93674  -2.457  -0.413   3.331 -0.6429 -0.3431 -0.6774
  679MOL0     H93675  -2.456  -0.540   3.456 -0.8144 -1.2729 -1.1437
  679MOL0     H93676  -2.655  -0.450   3.264 -0.3423  0.3151  0.7936
  679MOL0     H93677  -2.727  -0.509   3.423 -0.4079  3.3764  0.2028
  679MOL0     H93678  -2.515  -0.661   3.262 -1.6902 -1.6059 -2.8822
  679MOL0     H93679  -2.693  -0.682   3.235  1.2564 -2.2223 -0.6485
  679MOL0     H93680  -2.588  -0.712   3.515  0.8132 -1.7799 -0.0788
  679MOL0     H93681  -2.559  -0.849   3.407  0.6378 -0.2887  1.1902
  679MOL0     H93682  -2.041  -0.079   3.361 -0.0742  1.4858 -0.5000
  679MOL0     H93683  -1.887   0.115   3.317 -0.3849 -1.7371  0.2898
  679MOL0     H93684  -1.604   0.409   3.545  3.8021  1.8072  1.1822
  679MOL0     H93685  -1.394   0.519   3.492  0.5642 -0.9280  0.5993
  679MOL0     H93686  -0.164   1.168   2.374  1.7961  0.8858  1.8356
  679MOL0     H93687  -0.011   1.043   2.213  0.8919 -1.9566 -0.9804
  679MOL0     H93688   0.185   0.805   2.047 -0.4964  1.7885  3.6178
  679MOL0     H93689   0.340   0.752   1.861 -0.9316  0.5509  0.6114
  679MOL0     H93690   0.553   0.930   1.801  0.1559 -2.3836 -3.0691
  679MOL0     H93691   0.701   0.937   1.908 -0.6416 -0.9518  1.8165
  679MOL0     H93692   0.820   0.796   1.746  1.1550 -0.7135 -4.8691
  679MOL0     H93693   0.746   0.946   1.678  0.9754  0.0845 -0.2072
  679MOL0     H93694   0.628   0.672   1.635  1.2256 -0.2669 -0.3698
  679MOL0     H93695   0.561   0.825   1.579  0.9810  2.3480  0.6499
  679MOL0     H93696   0.773   0.881   1.451  1.2868  0.4769  3.6601
  679MOL0     H93697   0.666   0.753   1.386 -4.0965  2.2281  1.3717
  679MOL0     H93698   0.991   0.523   1.523 -2.5548 -2.7199 -0.3424
  679MOL0     H93699   0.654   0.814   2.154  0.2043  0.2962 -0.1817
  679MOL0     H93700   0.473   0.728   2.426  1.1040  0.0042  1.4002
  679MOL0     H93701   0.624   0.751   2.349  0.1549  2.2387 -2.6793
  679MOL0     H93702   0.538   0.898   2.403 -2.3348  1.2452 -1.4323
  680MOL0     O93703   6.679   6.827   3.974  0.7855  0.1401  0.0585
  680MOL0     C93704   6.654   6.930   4.032 -0.1879 -0.5899  0.2187
  680MOL0     O93705   6.695   7.059   3.989 -0.5031  0.7536 -1.1196
  680MOL0     C93706   6.772   7.079   3.877 -0.4423  0.3560 -0.6680
  680MOL0     C93707   6.880   7.166   3.880 -0.2199 -0.0594 -0.4595
  680MOL0     C93708   6.968   7.175   3.772 -0.8562  0.3007  0.6990
  680MOL0     C93709   6.949   7.104   3.651  0.3441 -0.8260  0.1564
  680MOL0     O93710   7.042   7.098   3.554 -0.7374 -0.4769  0.2684
  680MOL0     C93711   7.117   7.218   3.524 -0.1480 -0.5249  0.9154
  680MOL0     C93712   7.198   7.211   3.393 -0.1385  0.0744  0.9177
  680MOL0     C93713   7.101   7.229   3.267 -0.0848 -1.2413  1.4728
  680MOL0     C93714   7.188   7.187   3.142  0.4686  0.0342  0.5518
  680MOL0     C93715   7.114   7.171   3.009 -0.4318 -0.7559 -0.0777
  680MOL0     C93716   7.082   7.287   2.917 -0.1944 -0.5104 -0.2421
  680MOL0     C93717   7.207   7.368   2.872  0.0494 -0.5401 -0.6011
  680MOL0     C93718   7.152   7.463   2.758 -0.4715  0.0039 -0.6051
  680MOL0     N93719   7.252   7.546   2.689 -0.0791 -0.1132  0.1098
  680MOL0     C93720   7.385   7.527   2.700  0.6046  0.4356 -0.1500
  680MOL0     C93721   7.434   7.590   2.591  0.1803 -0.7372 -0.4414
  680MOL0     C93722   7.579   7.613   2.566 -1.3780  0.6230  0.0883
  680MOL0     C93723   7.639   7.474   2.546 -0.6390  0.5769 -0.5821
  680MOL0     C93724   7.594   7.412   2.408  0.2811 -0.1410 -0.2589
  680MOL0     C93725   7.622   7.267   2.411  0.4302  0.1545 -0.3242
  680MOL0     O93726   7.602   7.231   2.266 -0.7535 -0.4725 -0.7508
  680MOL0     C93727   7.629   7.103   2.235 -0.5535 -0.1316  0.6673
  680MOL0     C93728   7.650   7.005   2.320 -0.3212 -0.4284 -0.5058
  680MOL0     C93729   7.693   6.878   2.295 -0.1262 -0.8159  0.1552
  680MOL0     C93730   7.719   6.772   2.395  0.0892  0.6702 -0.7495
  680MOL0     C93731   7.715   6.846   2.154 -0.5387 -0.0054  0.1278
  680MOL0     C93732   7.775   6.721   2.096 -0.3225 -1.0708  0.7408
  680MOL0     O93733   7.772   6.598   2.161 -0.3973  0.3057 -0.2482
  680MOL0     C93734   7.856   6.498   2.113  0.5582 -0.2208  0.3664
  680MOL0     C93735   7.972   6.471   2.184  1.2647 -0.6810 -0.2941
  680MOL0     C93736   8.057   6.366   2.154  0.1693 -0.1101  0.2987
  680MOL0     C93737   8.018   6.275   2.052 -0.5384 -0.0317 -0.2478
  680MOL0     O93738   8.085   6.157   2.051  0.0824  0.4414 -0.9410
  680MOL0     C93739   8.052   6.059   1.961 -0.6062  0.2149 -0.3666
  680MOL0     C93740   8.165   5.959   1.932  0.0398 -0.6472 -0.6738
  680MOL0     C93741   8.105   5.848   1.839 -0.4171 -0.7205 -0.1172
  680MOL0     C93742   8.206   5.733   1.838 -0.6055 -0.0812  0.3767
  680MOL0     C93743   8.165   5.606   1.756 -0.3309 -0.5036  1.3020
  680MOL0     C93744   8.096   5.636   1.624 -0.8669 -0.0060  0.0271
  680MOL0     C93745   8.063   5.503   1.556  0.4320 -0.8341  0.0352
  680MOL0     C93746   8.102   5.489   1.407  0.8731 -0.6651 -0.4563
  680MOL0    Cl93747   8.032   5.337   1.375 -0.0266  0.2420  0.1379
  680MOL0     C93748   7.898   6.300   1.980  0.0287 -0.4798 -0.3470
  680MOL0     C93749   7.816   6.414   2.015  0.2796 -0.9322  0.5320
  680MOL0     O93750   7.826   6.739   1.982  0.1830 -0.3682 -0.3591
  680MOL0     C93751   7.697   6.949   2.060 -0.3458 -0.2740  0.1683
  680MOL0     C93752   7.652   7.079   2.095  0.6736 -0.0532  0.4047
  680MOL0     N93753   7.331   7.630   2.507 -0.7345  0.3916 -0.1609
  680MOL0     N93754   7.222   7.612   2.578 -0.4832 -0.0329  0.8672
  680MOL0     C93755   6.833   7.021   3.645 -0.5889 -0.2267 -0.1020
  680MOL0     C93756   6.749   7.004   3.758  0.5784 -0.4989  0.0740
  680MOL0     C93757   6.566   6.909   4.146  0.7079  0.0459 -0.0702
  680MOL0     C93758   6.441   6.976   4.155 -0.5412  0.3871  0.8447
  680MOL0     C93759   6.355   6.957   4.262 -0.0920  0.3621 -0.3680
  680MOL0     C93760   6.402   6.868   4.362  0.7424 -0.1812  0.8723
  680MOL0     O93761   6.313   6.817   4.456 -0.0100  0.3027  0.2858
  680MOL0     C93762   6.268   6.687   4.425  0.5968  0.3012 -0.4301
  680MOL0     C93763   6.122   6.669   4.463  0.4585  1.1323  0.8387
  680MOL0     C93764   6.070   6.533   4.415 -0.6162  0.7363 -0.1276
  680MOL0     C93765   5.945   6.492   4.491  0.4823 -0.4438 -0.1141
  680MOL0     C93766   5.962   6.469   4.634  0.1104  0.6683 -0.0208
  680MOL0     C93767   5.968   6.429   4.740 -0.6268 -0.0580  0.0134
  680MOL0     C93768   6.522   6.807   4.360  0.4655  0.3432 -0.3961
  680MOL0     C93769   6.598   6.813   4.243 -0.0788  0.5774 -0.3952
  680MOL0     C93770   6.738   6.760   4.247  0.9603  0.2978 -1.1559
  680MOL0     H93771   6.906   7.233   3.961  1.1626 -0.7005 -0.3444
  680MOL0     H93772   7.058   7.233   3.789 -1.3560  0.8218  1.6884
  680MOL0     H93773   7.177   7.246   3.611 -0.9268  4.1862  0.2018
  680MOL0     H93774   7.060   7.309   3.507  0.8495 -0.5664 -4.2805
  680MOL0     H93775   7.268   7.295   3.384  1.7647 -1.4835  0.4864
  680MOL0     H93776   7.250   7.115   3.391 -1.9587 -0.9683  1.7285
  680MOL0     H93777   7.015   7.162   3.266  0.1546 -1.8499 -3.8399
  680MOL0     H93778   7.049   7.324   3.252 -2.1232 -2.3517  1.1185
  680MOL0     H93779   7.269   7.260   3.129 -1.9850  2.9969  0.7599
  680MOL0     H93780   7.240   7.096   3.174  3.6092  2.0832  1.8907
  680MOL0     H93781   7.012   7.138   3.033 -1.8217  2.4949 -0.9274
  680MOL0     H93782   7.160   7.105   2.935  0.5581  0.2130 -0.3412
  680MOL0     H93783   7.037   7.239   2.829 -3.1384  2.9528 -0.9089
  680MOL0     H93784   7.014   7.355   2.970  2.4937  0.4258  2.2961
  680MOL0     H93785   7.273   7.295   2.822  0.4893  0.5442 -1.6464
  680MOL0     H93786   7.251   7.429   2.951 -2.0150  2.6170 -1.6874
  680MOL0     H93787   7.109   7.396   2.684 -1.9528 -1.1238  1.1949
  680MOL0     H93788   7.079   7.529   2.807 -1.2048 -2.0321  1.1964
  680MOL0     H93789   7.443   7.496   2.786  2.9519 -0.8765 -2.0722
  680MOL0     H93790   7.625   7.667   2.650 -1.7760  4.0735 -1.7509
  680MOL0     H93791   7.598   7.676   2.479 -1.3200  0.2861 -0.1447
  680MOL0     H93792   7.749   7.479   2.543 -0.4003  1.0733  3.1914
  680MOL0     H93793   7.613   7.416   2.635 -0.5971  1.8225  0.2731
  680MOL0     H93794   7.488   7.419   2.380  0.1957 -0.4102 -0.0121
  680MOL0     H93795   7.651   7.458   2.327  1.6780 -2.1146 -0.4841
  680MOL0     H93796   7.723   7.258   2.452  1.0792  1.9373 -1.4115
  680MOL0     H93797   7.553   7.215   2.478 -0.7668  0.4094 -1.3202
  680MOL0     H93798   7.627   7.029   2.424  1.6437 -0.4724 -0.0085
  680MOL0     H93799   7.827   6.757   2.400 -0.2557 -2.3301  0.1228
  680MOL0     H93800   7.662   6.681   2.372 -0.4943  0.9602 -0.4592
  680MOL0     H93801   7.680   6.804   2.492 -1.3350 -0.4168 -0.9128
  680MOL0     H93802   8.001   6.517   2.278  0.9643  0.8189 -0.9078
  680MOL0     H93803   8.153   6.348   2.202  0.2974  0.1543  0.1434
  680MOL0     H93804   7.967   6.003   2.002  2.6462 -3.6859  1.7302
  680MOL0     H93805   8.026   6.090   1.860 -2.1558 -4.0329 -1.4914
  680MOL0     H93806   8.248   6.009   1.882 -0.2928  0.4116 -0.2039
  680MOL0     H93807   8.213   5.925   2.024 -0.0319 -1.5267 -0.9525
  680MOL0     H93808   8.084   5.889   1.740 -0.9947 -1.0085 -0.1185
  680MOL0     H93809   8.008   5.825   1.884  1.4081  0.5069  5.1019
  680MOL0     H93810   8.229   5.699   1.939 -0.9056  0.9744  0.8122
  680MOL0     H93811   8.293   5.767   1.781 -0.2556 -1.3748  0.0859
  680MOL0     H93812   8.259   5.552   1.742  1.2421  2.2524  0.3191
  680MOL0     H93813   8.105   5.545   1.823 -0.0944 -1.1672  0.9121
  680MOL0     H93814   8.159   5.701   1.562 -0.2417  2.5976  3.1217
  680MOL0     H93815   7.999   5.688   1.626 -1.4097 -0.6587 -3.4095
  680MOL0     H93816   7.955   5.489   1.573 -0.3493  2.4422 -1.5677
  680MOL0     H93817   8.116   5.426   1.613  4.5007  0.3353 -1.8385
  680MOL0     H93818   8.209   5.477   1.386  1.0071 -2.5684  1.0376
  680MOL0     H93819   8.060   5.573   1.351  1.1886 -0.0026  0.2878
  680MOL0     H93820   7.864   6.237   1.898 -2.4585  1.7305 -1.1340
  680MOL0     H93821   7.720   6.421   1.966  0.6080 -0.5356 -0.0607
  680MOL0     H93822   7.737   6.946   1.959 -0.3860 -0.0216  0.1433
  680MOL0     H93823   7.637   7.152   2.016 -2.8255 -0.6197  0.4032
  680MOL0     H93824   6.826   6.966   3.552 -1.1097 -1.0295  0.3978
  680MOL0     H93825   6.649   6.963   3.748  0.3533  0.0267  0.1428
  680MOL0     H93826   6.408   7.046   4.078  0.8732  0.6158  0.4164
  680MOL0     H93827   6.269   7.017   4.290 -1.6509 -2.4955  1.3876
  680MOL0     H93828   6.278   6.668   4.318 -2.3265  0.2540 -0.7872
  680MOL0     H93829   6.330   6.609   4.470 -0.4517  0.5632  1.5593
  680MOL0     H93830   6.056   6.745   4.419 -0.5742 -1.7920 -3.3082
  680MOL0     H93831   6.115   6.684   4.571 -1.9384 -0.8630  1.0582
  680MOL0     H93832   6.043   6.542   4.309 -1.1432  1.2002  0.0449
  680MOL0     H93833   6.155   6.466   4.401  0.5290  2.4846 -2.0858
  680MOL0     H93834   5.913   6.396   4.450 -0.0964  0.7191 -2.5375
  680MOL0     H93835   5.871   6.568   4.463  2.2562  1.1737 -0.6293
  680MOL0     H93836   5.964   6.374   4.832  0.1190 -1.1979 -0.6085
  680MOL0     H93837   6.551   6.738   4.439 -3.0042 -2.0645 -0.9718
  680MOL0     H93838   6.760   6.720   4.347 -0.3607 -0.5350 -1.1792
  680MOL0     H93839   6.760   6.684   4.171 -1.1816  0.7797 -2.3296
  680MOL0     H93840   6.811   6.841   4.238  0.4806  0.7216 -1.2367
  681MOL0     O93841   8.947  11.079   9.025  0.3943  0.6732 -0.1629
  681MOL0     C93842   8.996  11.042   9.127  0.7050  0.4437  0.4359
  681MOL0     O93843   8.937  11.041   9.249  0.5628  0.1513  0.3308
  681MOL0     C93844   8.826  11.113   9.284  0.0148 -0.7526 -0.1655
  681MOL0     C93845   8.764  11.220   9.217 -0.8316 -0.4163 -0.4778
  681MOL0     C93846   8.662  11.292   9.271  0.1938  0.7196 -0.7998
  681MOL0     C93847   8.616  11.267   9.402  0.0476  0.0811  0.1685
  681MOL0     O93848   8.508  11.332   9.469 -0.1218 -0.1848  0.3261
  681MOL0     C93849   8.419  11.414   9.388  0.1461  0.6631  0.0135
  681MOL0     C93850   8.313  11.486   9.473 -0.2075 -0.3763 -0.6652
  681MOL0     C93851   8.363  11.582   9.588  0.1651 -0.4279 -0.3536
  681MOL0     C93852   8.272  11.573   9.704  0.4348  0.2710 -0.8421
  681MOL0     C93853   8.267  11.698   9.791 -0.4461  0.1799  0.0484
  681MOL0     C93854   8.404  11.700   9.860  0.4212  0.5272 -0.2347
  681MOL0     C93855   8.422  11.815   9.971  0.2325 -0.5271  0.3535
  681MOL0     C93856   8.536  11.902   9.941 -0.2082 -0.1544  0.2933
  681MOL0     N93857   8.589  11.984  10.060 -0.7848  0.0639  0.3356
  681MOL0     C93858   8.716  12.012  10.084 -0.0662  0.7217 -0.2876
  681MOL0     C93859   8.718  12.089  10.200  0.4138  0.4440 -0.2328
  681MOL0     C93860   8.845  12.156  10.258  1.3645  0.6962  0.1016
  681MOL0     C93861   8.817  12.238  10.389 -0.7989  0.0795 -0.0729
  681MOL0     C93862   8.940  12.278  10.462 -0.5542 -0.4737 -0.1313
  681MOL0     C93863   8.918  12.386  10.555  0.4736 -0.6830 -0.0312
  681MOL0     O93864   9.015  12.376  10.651 -0.0446 -0.3992  0.4331
  681MOL0     C93865   9.056  12.490  10.718  0.0081  0.3766 -0.5123
  681MOL0     C93866   9.165  12.465  10.800 -0.4421 -0.3387 -0.3518
  681MOL0     C93867   9.228  12.556  10.879  0.1800 -0.7163  0.4348
  681MOL0     C93868   9.340  12.507  10.968 -1.5808  0.0346  0.7748
  681MOL0     C93869   9.189  12.689  10.873  0.6236 -0.5265  0.6549
  681MOL0     C93870   9.251  12.806  10.952  0.1784  0.5639  0.4484
  681MOL0     O93871   9.381  12.796  10.982 -0.0742 -0.0614 -0.0499
  681MOL0     C93872   9.453  12.905  11.030  0.1274  1.1514  0.2331
  681MOL0     C93873   9.477  13.022  10.956 -0.2786  0.0320 -1.4139
  681MOL0     C93874   9.538  13.127  11.017  0.7055 -0.3510  1.6033
  681MOL0     C93875   9.562  13.128  11.158  0.3927  0.1451  0.3415
  681MOL0     O93876   9.623  13.235  11.225 -0.4575  0.0007 -0.3455
  681MOL0     C93877   9.585  13.367  11.193  0.5195 -0.8857  0.5583
  681MOL0     C93878   9.665  13.452  11.292  1.2237  0.6514 -0.6029
  681MOL0     C93879   9.614  13.436  11.440 -0.5468 -0.3607 -0.6944
  681MOL0     C93880   9.551  13.567  11.493 -0.3991 -0.5815 -0.3350
  681MOL0     C93881   9.399  13.558  11.510 -0.2758 -0.2744  0.1800
  681MOL0     C93882   9.323  13.554  11.385 -0.1828  0.2483  0.3662
  681MOL0     C93883   9.181  13.560  11.429  0.6171 -0.1271  0.0446
  681MOL0     C93884   9.087  13.615  11.326  0.4037  0.8242 -0.5654
  681MOL0    Cl93885   8.934  13.643  11.407  0.2148 -0.0589  0.1318
  681MOL0     C93886   9.538  13.017  11.233 -0.0687 -0.5037  0.0535
  681MOL0     C93887   9.500  12.900  11.162  0.6923 -0.3670 -0.9706
  681MOL0     O93888   9.182  12.890  10.993  0.1839 -0.2136 -0.9498
  681MOL0     C93889   9.085  12.724  10.772  0.1695 -0.2161  0.0871
  681MOL0     C93890   9.023  12.622  10.703  0.8713 -0.2483  0.0281
  681MOL0     N93891   8.589  12.109  10.244 -0.3352  0.3302  0.1715
  681MOL0     N93892   8.517  12.044  10.153 -0.2662 -0.6865 -0.0570
  681MOL0     C93893   8.668  11.166   9.474  0.2443 -0.4770  0.7392
  681MOL0     C93894   8.776  11.095   9.417  0.4776  0.8023  0.7894
  681MOL0     C93895   9.122  10.972   9.121 -0.1974  0.2624  0.1138
  681MOL0     C93896   9.197  10.959   9.246 -1.0743 -0.8049 -0.0431
  681MOL0     C93897   9.325  10.896   9.252 -0.2052  0.0559 -0.0688
  681MOL0     C93898   9.377  10.831   9.134 -0.2009 -0.0956  0.0459
  681MOL0     O93899   9.497  10.772   9.128  0.3108  0.3417  0.2135
  681MOL0     C93900   9.577  10.784   9.240  0.0782  1.0971 -0.1718
  681MOL0     C93901   9.551  10.681   9.359  0.5432  0.2374  0.6751
  681MOL0     C93902   9.667  10.684   9.468  0.0020 -0.4385  0.5079
  681MOL0     C93903   9.806  10.626   9.415  0.4567 -0.8261  0.5842
  681MOL0     C93904   9.789  10.480   9.381  0.3744 -0.4612 -0.6772
  681MOL0     C93905   9.788  10.357   9.359  0.1469 -0.2740 -0.5435
  681MOL0     C93906   9.305  10.831   9.016  0.3214 -0.2110  0.6875
  681MOL0     C93907   9.179  10.898   9.004 -0.2075  0.8700  0.3053
  681MOL0     C93908   9.103  10.879   8.871  0.9204  0.2517  0.1215
  681MOL0     H93909   8.794  11.254   9.118 -2.4682  1.0742 -0.5148
  681MOL0     H93910   8.619  11.372   9.212 -2.9235 -1.0550 -1.1314
  681MOL0     H93911   8.371  11.355   9.310  0.8520  0.5035 -0.3035
  681MOL0     H93912   8.477  11.488   9.333 -1.5998  1.4056 -0.8931
  681MOL0     H93913   8.252  11.539   9.399 -1.1259 -2.2613 -1.3506
  681MOL0     H93914   8.239  11.416   9.513  0.3855 -0.7254 -0.1608
  681MOL0     H93915   8.463  11.549   9.617  0.2261  0.8271  0.9820
  681MOL0     H93916   8.364  11.686   9.554  0.9097  0.5075  2.3021
  681MOL0     H93917   8.173  11.569   9.657  0.6963 -0.3635 -1.3620
  681MOL0     H93918   8.285  11.482   9.763  0.6230  1.4479  1.0059
  681MOL0     H93919   8.184  11.700   9.861  2.0527 -0.2317  3.2511
  681MOL0     H93920   8.251  11.792   9.736 -3.6595 -0.2780  0.0352
  681MOL0     H93921   8.404  11.609   9.920  1.5780  0.0266 -0.9679
  681MOL0     H93922   8.490  11.706   9.793  1.2673  3.4618  0.9405
  681MOL0     H93923   8.418  11.784  10.076  1.7013 -0.2320  0.5142
  681MOL0     H93924   8.342  11.889   9.960  0.0780  0.0713  4.2226
  681MOL0     H93925   8.617  11.840   9.902  0.7067  2.6145 -2.7074
  681MOL0     H93926   8.506  11.965   9.857 -0.0379  0.3252  0.5874
  681MOL0     H93927   8.810  11.996  10.031 -0.2977 -0.5921 -0.3484
  681MOL0     H93928   8.888  12.221  10.182  3.8832  0.4808  1.2426
  681MOL0     H93929   8.906  12.066  10.273  0.7196  0.7335  4.2874
  681MOL0     H93930   8.754  12.323  10.361 -0.5630 -0.1781 -1.4279
  681MOL0     H93931   8.757  12.171  10.452  2.3050 -0.3478  2.7288
  681MOL0     H93932   8.972  12.190  10.517 -1.8002  1.3630  3.9407
  681MOL0     H93933   9.025  12.309  10.402  0.6406  2.1681  2.6161
  681MOL0     H93934   8.931  12.479  10.497 -1.6016 -1.8855 -2.6988
  681MOL0     H93935   8.820  12.374  10.602  0.0146  0.0451 -0.7478
  681MOL0     H93936   9.188  12.359  10.793  0.2492 -0.1284 -1.4722
  681MOL0     H93937   9.433  12.556  10.940 -1.0035 -3.1456 -4.0591
  681MOL0     H93938   9.358  12.401  10.947  1.6194  0.2079  2.1237
  681MOL0     H93939   9.314  12.516  11.074 -1.2980  2.2506  0.7022
  681MOL0     H93940   9.474  13.021  10.848 -0.0031  2.6498 -1.5125
  681MOL0     H93941   9.562  13.211  10.953 -0.3198 -0.3160  1.2381
  681MOL0     H93942   9.620  13.389  11.092 -0.2976 -1.5816  0.1041
  681MOL0     H93943   9.477  13.387  11.189  0.5119  0.0310  3.0834
  681MOL0     H93944   9.767  13.412  11.283  0.3668 -1.3455 -2.1998
  681MOL0     H93945   9.663  13.557  11.262  3.2018  1.6319  2.2038
  681MOL0     H93946   9.686  13.416  11.520 -2.6374  0.8762  1.6457
  681MOL0     H93947   9.542  13.354  11.445  1.8771 -2.5422  0.6050
  681MOL0     H93948   9.575  13.650  11.426  2.5824  0.5808  1.9135
  681MOL0     H93949   9.597  13.594  11.589 -0.5144  1.9395 -0.9126
  681MOL0     H93950   9.372  13.470  11.571  0.2137 -0.9816 -0.6036
  681MOL0     H93951   9.385  13.654  11.561 -0.7691  1.2231 -2.6056
  681MOL0     H93952   9.343  13.461  11.331  1.3891 -0.4163  1.9943
  681MOL0     H93953   9.353  13.638  11.321 -0.7785  0.0199 -0.2204
  681MOL0     H93954   9.172  13.626  11.516  4.2497 -2.2314  2.3103
  681MOL0     H93955   9.146  13.460  11.453 -1.1383  0.1727 -1.0480
  681MOL0     H93956   9.074  13.545  11.244 -0.1787  0.3101 -0.0398
  681MOL0     H93957   9.127  13.709  11.285 -1.3151  1.6615 -0.4288
  681MOL0     H93958   9.545  13.019  11.342  1.9328  2.2679 -0.0152
  681MOL0     H93959   9.490  12.809  11.219  3.5191 -0.4504 -0.4445
  681MOL0     H93960   9.075  12.824  10.733  0.5799 -0.5701 -0.9726
  681MOL0     H93961   8.950  12.654  10.630 -1.6549 -0.3755  2.3451
  681MOL0     H93962   8.636  11.153   9.577 -3.3707 -2.0740 -0.4021
  681MOL0     H93963   8.820  11.019   9.481  0.9387 -0.2638 -0.7352
  681MOL0     H93964   9.165  11.000   9.342 -1.7386 -1.5664  0.0665
  681MOL0     H93965   9.365  10.895   9.353 -2.3844  3.6977  0.9867
  681MOL0     H93966   9.678  10.760   9.206 -0.7424  1.4523 -3.1500
  681MOL0     H93967   9.570  10.887   9.275 -2.2681  0.8162  0.3262
  681MOL0     H93968   9.547  10.587   9.302 -0.8086  1.5515 -1.5865
  681MOL0     H93969   9.457  10.692   9.414  0.8603 -2.5442  1.9071
  681MOL0     H93970   9.697  10.786   9.493  0.6193 -0.1723 -1.1331
  681MOL0     H93971   9.632  10.619   9.548  0.7478 -2.8457 -0.9898
  681MOL0     H93972   9.880  10.649   9.492  0.8746  1.8590 -0.5226
  681MOL0     H93973   9.833  10.679   9.324 -1.3339 -3.3555 -1.5705
  681MOL0     H93974   9.787  10.251   9.340 -0.6337 -0.2221 -0.8291
  681MOL0     H93975   9.342  10.785   8.926 -4.7263 -0.2203 -1.7234
  681MOL0     H93976   9.103  10.970   8.811  1.4667  0.2560  0.1221
  681MOL0     H93977   9.143  10.796   8.812  3.1989  2.7792 -2.1869
  681MOL0     H93978   9.000  10.851   8.894  0.6073  0.9564 -0.3917
  682MOL0     O93979   8.557   8.024   5.039 -0.6214 -0.1154 -0.4090
  682MOL0     C93980   8.493   8.008   5.142 -0.5095 -1.1574 -0.3774
  682MOL0     O93981   8.520   8.065   5.264  0.8961  0.2508  0.8243
  682MOL0     C93982   8.651   8.058   5.302  0.0141  0.0187  0.1846
  682MOL0     C93983   8.712   8.164   5.375 -0.1312  0.2025 -0.7038
  682MOL0     C93984   8.833   8.153   5.435 -0.0637  0.0838  0.3270
  682MOL0     C93985   8.905   8.039   5.415 -0.6503  0.3692 -0.4044
  682MOL0     O93986   9.026   8.024   5.486  0.0919 -0.4681 -0.6522
  682MOL0     C93987   9.129   8.119   5.461 -0.5963  0.2135 -0.2501
  682MOL0     C93988   9.246   8.085   5.550  0.6263  0.9378 -0.1962
  682MOL0     C93989   9.236   8.128   5.705  0.3168  0.3197 -1.3314
  682MOL0     C93990   9.155   8.043   5.801  0.4131  0.4709  0.2109
  682MOL0     C93991   9.102   8.106   5.929 -0.3990  0.6158  0.1037
  682MOL0     C93992   9.210   8.175   6.011 -0.2609  0.5577 -0.4654
  682MOL0     C93993   9.149   8.219   6.149  0.4408 -0.2357 -1.0949
  682MOL0     C93994   9.251   8.261   6.246  0.2882  0.1135 -0.2207
  682MOL0     N93995   9.316   8.393   6.207 -0.3427 -0.3515  0.2438
  682MOL0     C93996   9.257   8.518   6.212  0.2032 -0.3843 -0.7349
  682MOL0     C93997   9.333   8.601   6.135  1.1923  0.2146 -0.2563
  682MOL0     C93998   9.310   8.742   6.103 -0.9774  0.5281  0.8756
  682MOL0     C93999   9.269   8.773   5.962 -0.2887 -0.9172  1.0698
  682MOL0     C94000   9.156   8.684   5.906 -0.4234 -0.4309  0.8126
  682MOL0     C94001   9.126   8.707   5.757  0.4490 -0.3574  0.1362
  682MOL0     O94002   9.047   8.831   5.741  0.0201 -0.4067  0.0833
  682MOL0     C94003   8.946   8.819   5.647  0.2804  0.1855  0.7457
  682MOL0     C94004   8.860   8.710   5.624  0.1202  0.6669 -0.0321
  682MOL0     C94005   8.769   8.712   5.518  0.3813  0.2877 -0.3607
  682MOL0     C94006   8.679   8.599   5.502 -0.3627 -1.3433 -1.2490
  682MOL0     C94007   8.765   8.822   5.427 -0.6849 -0.2005  0.1278
  682MOL0     C94008   8.699   8.820   5.289 -0.1368 -0.1443 -0.5833
  682MOL0     O94009   8.704   8.709   5.208 -0.1971  0.0056  0.7042
  682MOL0     C94010   8.628   8.693   5.093  0.1924  1.0773 -0.9172
  682MOL0     C94011   8.615   8.562   5.058  0.0239  0.6201 -0.8561
  682MOL0     C94012   8.532   8.522   4.952 -0.1582 -0.0369  0.7909
  682MOL0     C94013   8.454   8.617   4.878 -0.6451 -0.0659 -0.8491
  682MOL0     O94014   8.368   8.574   4.776 -0.7405 -0.2961 -0.2687
  682MOL0     C94015   8.243   8.633   4.745 -0.3225 -0.0581  0.4204
  682MOL0     C94016   8.165   8.521   4.667  0.1683  0.5040  0.3101
  682MOL0     C94017   8.044   8.576   4.584  0.8773  0.4228  0.1009
  682MOL0     C94018   7.980   8.479   4.483  0.3188  0.5352  0.1364
  682MOL0     C94019   7.849   8.524   4.427 -0.9644  0.6885  1.2631
  682MOL0     C94020   7.782   8.409   4.338  0.7647  0.2327  0.1908
  682MOL0     C94021   7.763   8.277   4.407 -0.2459 -0.7014 -0.6925
  682MOL0     C94022   7.700   8.288   4.546 -0.2536  1.4403 -1.1096
  682MOL0    Cl94023   7.657   8.135   4.612  0.6026  0.2556  0.4703
  682MOL0     C94024   8.472   8.750   4.908  0.0359  0.3861  0.0018
  682MOL0     C94025   8.566   8.789   5.015  0.0033 -0.1688 -0.4738
  682MOL0     O94026   8.639   8.930   5.273 -0.3292  0.4963 -0.8049
  682MOL0     C94027   8.859   8.932   5.448 -0.0362  0.1125 -0.6754
  682MOL0     C94028   8.940   8.933   5.566  0.8409 -0.7689  0.2955
  682MOL0     N94029   9.445   8.533   6.091 -0.0632 -0.1952 -0.3665
  682MOL0     N94030   9.437   8.411   6.144  0.7127 -0.7672 -0.5731
  682MOL0     C94031   8.864   7.935   5.332 -0.7942  0.6893  0.6719
  682MOL0     C94032   8.734   7.939   5.285  0.1173 -0.3481 -0.1405
  682MOL0     C94033   8.357   7.938   5.107 -0.2640 -0.0019  0.0551
  682MOL0     C94034   8.370   7.850   5.007  0.2075  0.5134 -0.9588
  682MOL0     C94035   8.264   7.770   4.975 -0.4307  0.0672 -0.1197
  682MOL0     C94036   8.140   7.777   5.044 -0.8964  0.5323  0.0464
  682MOL0     O94037   8.023   7.711   5.007 -0.7641 -0.0291  0.2814
  682MOL0     C94038   7.987   7.585   5.067  0.0563  0.7136  0.0540
  682MOL0     C94039   8.117   7.496   5.100  0.1013  0.1334  0.3343
  682MOL0     C94040   8.094   7.384   5.199  0.3568  0.3596 -0.7571
  682MOL0     C94041   8.097   7.430   5.343 -0.6667 -0.4362  0.0644
  682MOL0     C94042   8.234   7.443   5.404 -0.6024  0.6617 -0.3520
  682MOL0     C94043   8.347   7.429   5.450  0.0750  0.4498 -0.5574
  682MOL0     C94044   8.126   7.863   5.144  0.1568  0.0311 -0.1380
  682MOL0     C94045   8.231   7.955   5.176  0.8184  1.8435 -0.0058
  682MOL0     C94046   8.203   8.058   5.280  0.4515 -0.2856  0.4050
  682MOL0     H94047   8.672   8.265   5.386  1.7534  1.1469 -2.0366
  682MOL0     H94048   8.879   8.231   5.495  2.0240 -0.0584 -0.9631
  682MOL0     H94049   9.095   8.223   5.472  1.0406  0.5853  1.9127
  682MOL0     H94050   9.157   8.102   5.356 -0.7318  0.7925 -0.3845
  682MOL0     H94051   9.258   7.976   5.544  3.3380  1.2478 -2.1362
  682MOL0     H94052   9.336   8.134   5.513 -0.7393  3.1787 -0.7238
  682MOL0     H94053   9.338   8.131   5.743 -0.6448  1.8715  1.3844
  682MOL0     H94054   9.218   8.234   5.725 -0.3886 -0.0641  0.2364
  682MOL0     H94055   9.065   8.004   5.752 -0.2741 -1.3724  2.6798
  682MOL0     H94056   9.210   7.953   5.830 -2.5207 -0.8862  2.0576
  682MOL0     H94057   9.060   8.031   5.996 -1.9934  1.1197 -0.3012
  682MOL0     H94058   9.028   8.181   5.900  0.6633  0.8927 -2.1099
  682MOL0     H94059   9.298   8.115   6.035  1.2489  2.9015  0.2490
  682MOL0     H94060   9.248   8.263   5.957 -1.2599  0.2095 -1.7694
  682MOL0     H94061   9.097   8.136   6.196 -0.3121  1.1315  0.6198
  682MOL0     H94062   9.077   8.300   6.135  1.3654  1.4858  2.7395
  682MOL0     H94063   9.195   8.290   6.335  0.6652  0.8949 -0.2308
  682MOL0     H94064   9.321   8.182   6.275 -1.1069 -0.9552  0.3069
  682MOL0     H94065   9.167   8.548   6.265  0.3441 -0.6199 -0.3544
  682MOL0     H94066   9.403   8.796   6.124 -1.7854  3.1239 -1.5568
  682MOL0     H94067   9.239   8.797   6.165 -1.6566 -0.2077  0.7608
  682MOL0     H94068   9.250   8.880   5.947  1.9246 -0.5710  0.4102
  682MOL0     H94069   9.358   8.747   5.903  0.2856  1.9401  0.5420
  682MOL0     H94070   9.180   8.577   5.910  2.0920 -0.0667 -1.7157
  682MOL0     H94071   9.071   8.713   5.969  0.7190  4.0901  0.6287
  682MOL0     H94072   9.224   8.712   5.708  0.7932 -0.6736  0.7834
  682MOL0     H94073   9.074   8.616   5.727  3.1165 -2.2414  0.8312
  682MOL0     H94074   8.856   8.631   5.698 -0.2572 -0.2946 -1.0604
  682MOL0     H94075   8.677   8.534   5.591  0.7470 -2.3323 -1.9149
  682MOL0     H94076   8.702   8.530   5.420 -0.7903  0.1782 -2.6869
  682MOL0     H94077   8.583   8.649   5.491  0.9891  2.2017  1.1762
  682MOL0     H94078   8.656   8.493   5.131 -5.6719 -0.3378  1.9734
  682MOL0     H94079   8.517   8.422   4.914 -2.5937  0.8066 -0.6766
  682MOL0     H94080   8.185   8.667   4.831  0.4715 -2.2921  1.9349
  682MOL0     H94081   8.263   8.714   4.673 -0.5593 -1.3572 -1.1731
  682MOL0     H94082   8.232   8.473   4.595  4.1597 -0.3262  4.0809
  682MOL0     H94083   8.122   8.463   4.749  0.5923  0.9902  0.8830
  682MOL0     H94084   8.058   8.676   4.542  0.7297  0.8622  1.0797
  682MOL0     H94085   7.962   8.592   4.655  2.1541 -0.3372  1.8334
  682MOL0     H94086   7.968   8.390   4.545 -2.4921  1.1298  0.5836
  682MOL0     H94087   8.042   8.447   4.398  0.4165  1.7469 -0.2634
  682MOL0     H94088   7.778   8.570   4.497 -2.2026  3.2726 -1.4637
  682MOL0     H94089   7.856   8.599   4.347  0.2169  0.2807  0.9688
  682MOL0     H94090   7.855   8.391   4.258  0.6308  0.4398  0.0223
  682MOL0     H94091   7.684   8.439   4.301  0.9243 -0.2876 -0.6765
  682MOL0     H94092   7.854   8.220   4.426 -0.6959 -0.6426  2.0431
  682MOL0     H94093   7.698   8.219   4.341  1.7988 -0.1032 -3.4192
  682MOL0     H94094   7.611   8.352   4.543  0.0392  1.9427  0.1960
  682MOL0     H94095   7.769   8.339   4.614  3.0322 -4.2843  0.4413
  682MOL0     H94096   8.421   8.832   4.857 -0.7270 -0.0552  0.0329
  682MOL0     H94097   8.583   8.895   5.032  0.4087 -0.2813 -0.1569
  682MOL0     H94098   8.878   9.007   5.372  0.7742 -1.0840 -1.7129
  682MOL0     H94099   9.009   9.014   5.588 -0.0225 -0.2114  0.9952
  682MOL0     H94100   8.931   7.850   5.325 -1.6002  0.1347 -0.6525
  682MOL0     H94101   8.684   7.858   5.232  1.2807 -1.9125  1.0753
  682MOL0     H94102   8.456   7.842   4.941 -1.6539  1.6546 -3.7218
  682MOL0     H94103   8.271   7.703   4.890  0.2359 -0.2579  0.1892
  682MOL0     H94104   7.911   7.604   5.144  0.2496 -1.0053  0.7107
  682MOL0     H94105   7.940   7.524   4.990 -0.9256  0.8291  0.5344
  682MOL0     H94106   8.198   7.556   5.142  2.2731 -1.2479 -1.6054
  682MOL0     H94107   8.140   7.457   5.000 -0.3426  1.3459 -0.2668
  682MOL0     H94108   7.997   7.334   5.191 -0.1142  0.3940  2.9558
  682MOL0     H94109   8.172   7.307   5.192  0.1300 -0.1845  1.6770
  682MOL0     H94110   8.039   7.362   5.406 -1.9827  1.0342  0.4931
  682MOL0     H94111   8.048   7.528   5.342 -0.6829 -0.4411 -1.4552
  682MOL0     H94112   8.440   7.412   5.500 -1.2384  1.1633  2.3082
  682MOL0     H94113   8.031   7.874   5.197 -1.2091  0.8726 -2.5646
  682MOL0     H94114   8.097   8.061   5.308  0.4371 -0.2454  0.3505
  682MOL0     H94115   8.255   8.028   5.372  0.7812 -1.3709 -0.1250
  682MOL0     H94116   8.242   8.150   5.235  0.5215 -0.9241 -0.8738
  683MOL0     O94117   7.568  10.025   9.171 -0.2089 -0.0724 -0.0212
  683MOL0     C94118   7.534  10.108   9.087 -0.7979 -0.7769  0.0329
  683MOL0     O94119   7.493  10.077   8.957  0.8559 -0.7914 -0.2276
  683MOL0     C94120   7.500   9.942   8.925  0.3143 -0.1592 -0.3419
  683MOL0     C94121   7.388   9.889   8.852 -0.8215 -0.0056 -0.3831
  683MOL0     C94122   7.398   9.760   8.798 -0.0990  0.5380  0.1914
  683MOL0     C94123   7.511   9.681   8.812 -0.8865  1.3033 -0.0674
  683MOL0     O94124   7.512   9.544   8.780  0.3583  0.8055  0.3893
  683MOL0     C94125   7.529   9.517   8.644 -0.1954 -0.1174 -1.0362
  683MOL0     C94126   7.526   9.372   8.613 -0.6730  1.0462  0.6610
  683MOL0     C94127   7.556   9.342   8.464 -0.6262  0.0425  0.1979
  683MOL0     C94128   7.457   9.372   8.360  0.5886 -0.4856 -0.2870
  683MOL0     C94129   7.475   9.327   8.220 -0.6311  0.6422  0.6362
  683MOL0     C94130   7.442   9.171   8.208 -0.8224  0.3020  0.4037
  683MOL0     C94131   7.517   9.110   8.090 -0.6669 -0.7705  0.2952
  683MOL0     C94132   7.419   9.099   7.979  0.1901 -0.1450 -0.7466
  683MOL0     N94133   7.464   9.014   7.866 -0.0987  0.9700  0.1399
  683MOL0     C94134   7.472   8.879   7.883 -0.8323 -0.7225 -1.0335
  683MOL0     C94135   7.476   8.822   7.765  0.5093 -0.1199 -0.0777
  683MOL0     C94136   7.494   8.680   7.736  0.6614 -0.5338 -0.7363
  683MOL0     C94137   7.391   8.589   7.812 -0.5828 -0.4018 -0.5819
  683MOL0     C94138   7.248   8.630   7.789 -0.4663  0.3954  0.2218
  683MOL0     C94139   7.188   8.688   7.912  0.0277 -0.2730  0.3743
  683MOL0     O94140   7.050   8.726   7.882  0.3773 -0.2830 -0.5838
  683MOL0     C94141   6.963   8.751   7.988  0.1871 -1.3464 -0.0155
  683MOL0     C94142   6.889   8.641   8.034 -0.3797 -0.4495 -0.8535
  683MOL0     C94143   6.817   8.651   8.149  0.2369 -0.4341 -0.3833
  683MOL0     C94144   6.757   8.522   8.207  0.1445  0.1656 -0.4539
  683MOL0     C94145   6.799   8.776   8.213  0.0230 -0.3193 -0.1839
  683MOL0     C94146   6.720   8.797   8.340 -0.8356 -0.3037  0.6910
  683MOL0     O94147   6.628   8.707   8.378  0.6414 -0.3541  0.0550
  683MOL0     C94148   6.553   8.719   8.488  0.2187  0.0754  0.3530
  683MOL0     C94149   6.598   8.650   8.600  0.4157 -0.1904 -0.0847
  683MOL0     C94150   6.526   8.644   8.718  0.0110  0.2535  0.1250
  683MOL0     C94151   6.414   8.719   8.743 -0.1679 -0.5596  0.5053
  683MOL0     O94152   6.350   8.716   8.866  0.0062  0.1432  0.2140
  683MOL0     C94153   6.300   8.844   8.913  0.1254  0.5544 -0.2518
  683MOL0     C94154   6.143   8.858   8.905  0.3707 -0.1594  0.1023
  683MOL0     C94155   6.082   8.982   8.969  0.0540  0.4859  0.3092
  683MOL0     C94156   5.930   8.984   8.930 -0.9114 -0.5441  0.1765
  683MOL0     C94157   5.847   9.098   8.996  0.9686  0.2657  0.4652
  683MOL0     C94158   5.832   9.082   9.143  0.1379 -0.2192  0.5101
  683MOL0     C94159   5.733   9.193   9.179  0.6175  0.3689 -0.4228
  683MOL0     C94160   5.710   9.216   9.329 -0.8088 -0.7627  0.3579
  683MOL0    Cl94161   5.583   9.338   9.372 -0.2118 -0.0181  0.2926
  683MOL0     C94162   6.375   8.797   8.632  1.1450 -1.0885  0.7935
  683MOL0     C94163   6.448   8.808   8.509  0.6635 -0.3027 -0.0745
  683MOL0     O94164   6.758   8.904   8.395  0.1177 -0.4452 -0.2162
  683MOL0     C94165   6.865   8.882   8.155  0.1009  0.0728  0.6693
  683MOL0     C94166   6.951   8.877   8.044  1.0400  0.0519 -0.4478
  683MOL0     N94167   7.475   8.917   7.665  0.0679 -0.0480 -0.3897
  683MOL0     N94168   7.468   9.033   7.731 -0.6959  0.7418 -0.2574
  683MOL0     C94169   7.625   9.735   8.877  0.3656  0.2735  0.6750
  683MOL0     C94170   7.617   9.866   8.926 -0.3598  0.9010 -0.5160
  683MOL0     C94171   7.520  10.256   9.131 -0.2800 -0.5450  0.2114
  683MOL0     C94172   7.460  10.347   9.043  0.8092 -0.0399 -0.8030
  683MOL0     C94173   7.451  10.479   9.077  0.1083 -0.2538  0.0668
  683MOL0     C94174   7.499  10.526   9.198  0.2004 -0.6847 -0.5148
  683MOL0     O94175   7.499  10.662   9.226  0.2053 -0.4995  0.8877
  683MOL0     C94176   7.390  10.740   9.191  0.2276 -0.4691 -0.0171
  683MOL0     C94177   7.421  10.880   9.225  0.8370  0.9598 -0.6244
  683MOL0     C94178   7.467  10.912   9.365  0.0536  0.6842 -0.4633
  683MOL0     C94179   7.501  11.061   9.384  0.1181 -0.2746  0.2982
  683MOL0     C94180   7.598  11.070   9.493  0.8662 -1.1059  0.2784
  683MOL0     C94181   7.682  11.088   9.578 -0.0179  0.8888 -0.1262
  683MOL0     C94182   7.566  10.441   9.276  0.5347  0.7466 -0.8856
  683MOL0     C94183   7.561  10.307   9.257 -0.6794 -0.0765 -0.2769
  683MOL0     C94184   7.644  10.224   9.361 -0.5571  0.2568 -0.2520
  683MOL0     H94185   7.298   9.950   8.850 -0.3679  0.8711  2.2487
  683MOL0     H94186   7.306   9.717   8.760 -0.4977 -2.1976  3.6737
  683MOL0     H94187   7.624   9.554   8.604 -1.2414  0.0460 -3.5331
  683MOL0     H94188   7.453   9.569   8.585 -1.4150  3.4464  3.1149
  683MOL0     H94189   7.603   9.316   8.668 -2.6994 -3.3346 -0.4824
  683MOL0     H94190   7.430   9.325   8.637 -1.1810  0.1542 -2.6292
  683MOL0     H94191   7.638   9.404   8.425 -1.9105  0.0976 -2.7126
  683MOL0     H94192   7.575   9.235   8.454 -0.6711  0.1364 -1.1229
  683MOL0     H94193   7.361   9.344   8.405  0.3563 -1.4568 -1.3442
  683MOL0     H94194   7.443   9.479   8.345 -1.2097 -0.9821 -2.6839
  683MOL0     H94195   7.580   9.348   8.196 -1.3233  1.1510 -2.2363
  683MOL0     H94196   7.413   9.386   8.152 -2.3485 -2.9650 -1.2061
  683MOL0     H94197   7.477   9.123   8.300 -0.0555  1.1581  0.5760
  683MOL0     H94198   7.336   9.146   8.214  0.1004 -3.8436  3.8702
  683MOL0     H94199   7.572   9.016   8.100  0.4034 -0.5894 -2.8138
  683MOL0     H94200   7.598   9.179   8.067 -0.6906 -1.8205 -3.7368
  683MOL0     H94201   7.323   9.055   8.005 -0.3020  0.6515 -1.1933
  683MOL0     H94202   7.382   9.194   7.939 -1.3418 -0.8183 -0.9989
  683MOL0     H94203   7.478   8.830   7.980 -0.3244 -1.1161 -1.2616
  683MOL0     H94204   7.593   8.662   7.779 -0.0130 -1.0477  0.6960
  683MOL0     H94205   7.495   8.661   7.629 -1.0914 -0.6716 -0.7529
  683MOL0     H94206   7.414   8.491   7.768 -1.8744 -0.6131 -0.8108
  683MOL0     H94207   7.415   8.587   7.919 -1.5057  1.0216 -0.3253
  683MOL0     H94208   7.242   8.695   7.701  3.8978  0.2512 -0.3863
  683MOL0     H94209   7.199   8.534   7.770 -0.0473  0.3523 -0.6688
  683MOL0     H94210   7.189   8.606   7.984 -1.6197 -1.2975 -0.7087
  683MOL0     H94211   7.241   8.776   7.951 -1.9050  0.8800  0.5293
  683MOL0     H94212   6.902   8.541   7.995  1.7518  0.0308 -1.5323
  683MOL0     H94213   6.785   8.515   8.312 -4.2433  2.6151  1.1322
  683MOL0     H94214   6.799   8.442   8.145  1.6351  0.5659 -0.0183
  683MOL0     H94215   6.648   8.515   8.202 -0.0059 -1.5949  2.9111
  683MOL0     H94216   6.690   8.594   8.595  0.1586 -0.5320 -1.4996
  683MOL0     H94217   6.562   8.582   8.799 -0.4641  2.3250  2.0235
  683MOL0     H94218   6.317   8.863   9.020 -2.2489  1.9507 -0.0316
  683MOL0     H94219   6.348   8.930   8.864 -2.1209  1.2143 -1.4542
  683MOL0     H94220   6.114   8.854   8.799  0.8085  3.3564 -0.2651
  683MOL0     H94221   6.097   8.765   8.940  2.6737 -1.7228 -0.8199
  683MOL0     H94222   6.142   9.068   8.936 -0.0089 -0.2740 -2.0228
  683MOL0     H94223   6.079   8.957   9.075 -0.7702 -1.2708 -0.0901
  683MOL0     H94224   5.878   8.890   8.950 -1.6567 -0.3882 -0.9242
  683MOL0     H94225   5.925   8.997   8.822 -1.6217 -1.9022  0.0251
  683MOL0     H94226   5.903   9.188   8.970 -0.3717  0.7755 -0.8060
  683MOL0     H94227   5.746   9.118   8.958  1.4929  2.7768  0.1917
  683MOL0     H94228   5.931   9.098   9.188  1.1250  0.7219 -1.8401
  683MOL0     H94229   5.798   8.985   9.178  1.9688 -0.2950  2.2853
  683MOL0     H94230   5.643   9.160   9.127 -0.8675  0.5538  1.8782
  683MOL0     H94231   5.755   9.291   9.135 -1.0507  0.0789 -2.0235
  683MOL0     H94232   5.802   9.255   9.373 -0.0756 -2.2791  0.2233
  683MOL0     H94233   5.706   9.117   9.375 -0.3342 -0.5297  0.9087
  683MOL0     H94234   6.285   8.857   8.648  1.7461  0.7900 -2.0301
  683MOL0     H94235   6.420   8.878   8.431  3.5994  1.1806  0.0680
  683MOL0     H94236   6.858   8.984   8.192  1.2628  0.6951 -0.7334
  683MOL0     H94237   7.001   8.965   8.004 -1.1422  1.7923  0.4262
  683MOL0     H94238   7.715   9.676   8.890  1.0490  1.0733 -0.3130
  683MOL0     H94239   7.704   9.902   8.980 -0.1892 -0.8360  0.4379
  683MOL0     H94240   7.429  10.331   8.941 -3.5098  3.4905 -0.3680
  683MOL0     H94241   7.408  10.555   9.012  2.2904 -0.0300 -1.2049
  683MOL0     H94242   7.366  10.739   9.085  2.1119 -0.0385 -0.4985
  683MOL0     H94243   7.300  10.710   9.245 -1.5978 -0.4316 -2.8383
  683MOL0     H94244   7.330  10.937   9.205  0.2862  0.1088 -0.5791
  683MOL0     H94245   7.499  10.914   9.156  0.1886  1.0172 -1.3386
  683MOL0     H94246   7.395  10.873   9.438 -3.1444  1.6909 -2.8184
  683MOL0     H94247   7.559  10.854   9.375  0.2841  0.7322 -1.9967
  683MOL0     H94248   7.411  11.117   9.413  0.9280  0.4510  1.5125
  683MOL0     H94249   7.527  11.108   9.289 -1.8428 -0.5862 -0.4364
  683MOL0     H94250   7.737  11.115   9.665 -2.7070  0.7939  1.7274
  683MOL0     H94251   7.628  10.478   9.358 -1.3404  1.0111  0.4770
  683MOL0     H94252   7.578  10.139   9.380  0.3977 -0.2780  0.8003
  683MOL0     H94253   7.739  10.193   9.317  0.3860  1.7127  0.6541
  683MOL0     H94254   7.654  10.273   9.459  0.9311 -2.0529  0.8453
  684MOL0     O94255  10.028   0.399   1.113  0.5009  0.4033 -0.5055
  684MOL0     C94256  10.074   0.311   1.186 -0.4115  0.3190 -0.2566
  684MOL0     O94257  10.203   0.261   1.173  0.2897  0.7731  1.0138
  684MOL0     C94258  10.280   0.287   1.060 -0.0030  0.0550 -0.2195
  684MOL0     C94259  10.230   0.292   0.926  0.2995 -0.1347 -0.2107
  684MOL0     C94260  10.322   0.323   0.823 -0.7988  1.6774 -0.2278
  684MOL0     C94261  10.457   0.348   0.850  0.3373  0.8277 -0.5067
  684MOL0     O94262  10.546   0.376   0.747  0.2395 -0.4174  1.0063
  684MOL0     C94263  10.683   0.346   0.780  0.5312 -0.6376 -0.6481
  684MOL0     C94264  10.761   0.340   0.644  0.6760  0.4164 -0.2658
  684MOL0     C94265  10.898   0.270   0.675 -0.2030 -0.3597 -0.1024
  684MOL0     C94266  10.958   0.247   0.538 -0.6416 -0.0620  0.7721
  684MOL0     C94267  11.097   0.174   0.540  1.2557 -0.2296 -0.3172
  684MOL0     C94268  11.220   0.265   0.575  0.7240  0.7602  0.0451
  684MOL0     C94269  11.354   0.201   0.544 -0.2229 -0.5019 -0.1706
  684MOL0     C94270  11.483   0.278   0.594 -0.1776 -0.2224 -0.3310
  684MOL0     N94271  11.498   0.287   0.745  0.2219  0.4519  0.6965
  684MOL0     C94272  11.441   0.377   0.836 -0.0301 -0.0761 -0.0923
  684MOL0     C94273  11.494   0.339   0.952 -0.3165  0.7230  1.2591
  684MOL0     C94274  11.461   0.398   1.087 -0.8192 -0.1358  0.5988
  684MOL0     C94275  11.556   0.349   1.202 -0.2066 -0.5900  0.1307
  684MOL0     C94276  11.533   0.205   1.237 -0.2025 -0.6741  0.1756
  684MOL0     C94277  11.502   0.182   1.388  0.6712  0.8862 -0.3961
  684MOL0     O94278  11.602   0.212   1.484 -0.5358  0.2433 -0.7972
  684MOL0     C94279  11.564   0.194   1.622 -0.3403 -0.5162 -0.0588
  684MOL0     C94280  11.674   0.202   1.701 -0.3220  0.4267  0.5038
  684MOL0     C94281  11.673   0.162   1.840 -0.0243 -0.6049 -0.2378
  684MOL0     C94282  11.801   0.151   1.921 -0.2459  0.0274  0.1698
  684MOL0     C94283  11.547   0.134   1.899 -1.1562 -0.2340  0.2472
  684MOL0     C94284  11.537   0.088   2.036  0.2627  0.1802  0.3105
  684MOL0     O94285  11.433   0.141   2.100  0.6234  0.7247 -0.5167
  684MOL0     C94286  11.398   0.094   2.221 -0.0600 -0.0515  0.1100
  684MOL0     C94287  11.486   0.061   2.326  0.1073 -0.4537  0.2923
  684MOL0     C94288  11.436   0.019   2.451 -0.9571 -0.0996 -0.4405
  684MOL0     C94289  11.295   0.010   2.478 -0.1741  0.5765  0.1168
  684MOL0     O94290  11.239  -0.027   2.596  0.2058  0.5983 -0.0433
  684MOL0     C94291  11.300  -0.095   2.704  0.3385 -0.7360 -0.4874
  684MOL0     C94292  11.251  -0.063   2.842  1.2403 -1.0432  0.4537
  684MOL0     C94293  11.234   0.087   2.860 -1.2382 -1.0409 -0.7468
  684MOL0     C94294  11.361   0.154   2.913  0.0894  0.6192  0.2559
  684MOL0     C94295  11.335   0.307   2.900 -0.1172  0.8834 -1.1260
  684MOL0     C94296  11.383   0.370   2.769  0.1863  0.2940  0.1730
  684MOL0     C94297  11.302   0.348   2.647 -0.2609 -0.1352  0.1556
  684MOL0     C94298  11.348   0.424   2.530  0.8748 -0.6251 -0.3556
  684MOL0    Cl94299  11.519   0.386   2.505 -0.1843 -0.0094  0.2358
  684MOL0     C94300  11.209   0.049   2.378  0.1139 -0.2850 -0.5867
  684MOL0     C94301  11.261   0.095   2.251 -0.6858 -0.1044 -0.1152
  684MOL0     O94302  11.600  -0.010   2.070  0.4999  0.4781  0.8984
  684MOL0     C94303  11.437   0.137   1.814 -0.2684 -0.3166 -0.6245
  684MOL0     C94304  11.442   0.158   1.677  0.8408  0.3900  0.0403
  684MOL0     N94305  11.592   0.243   0.920  0.3136  0.3780  0.0707
  684MOL0     N94306  11.594   0.209   0.804  1.0302  0.4714  0.4792
  684MOL0     C94307  10.499   0.345   0.984 -0.2157  0.5981 -0.3526
  684MOL0     C94308  10.412   0.313   1.089  0.0052 -0.0727  0.0166
  684MOL0     C94309   9.990   0.274   1.302 -0.6348  0.4959  1.5205
  684MOL0     C94310  10.033   0.154   1.365 -0.5497  0.6052  0.6745
  684MOL0     C94311   9.965   0.102   1.471  0.5643 -0.2865  0.6681
  684MOL0     C94312   9.840   0.162   1.511 -1.1877  0.6014 -0.4887
  684MOL0     O94313   9.761   0.087   1.597 -0.2768 -0.9183 -0.4564
  684MOL0     C94314   9.645   0.157   1.652  0.2566 -0.3251 -0.3020
  684MOL0     C94315   9.563   0.072   1.738  0.4259  0.1137 -0.2632
  684MOL0     C94316   9.640  -0.005   1.851  0.1529 -1.3030  1.7526
  684MOL0     C94317   9.554  -0.066   1.958  0.6780  0.0250  0.2910
  684MOL0     C94318   9.624  -0.062   2.090 -0.2200  0.8039  0.8248
  684MOL0     C94319   9.650  -0.065   2.209 -0.4130  0.2120  0.3646
  684MOL0     C94320   9.798   0.287   1.452 -0.1994 -0.8505 -0.7175
  684MOL0     C94321   9.877   0.344   1.351  0.3180 -0.1535  0.3189
  684MOL0     C94322   9.850   0.489   1.313  0.1468  0.9397 -0.3581
  684MOL0     H94323  10.125   0.285   0.899  0.1142  0.6055  0.2863
  684MOL0     H94324  10.294   0.305   0.719  0.2729  1.4059 -0.4812
  684MOL0     H94325  10.673   0.247   0.825 -0.7843 -1.1005 -1.8694
  684MOL0     H94326  10.716   0.424   0.850  0.7978 -1.4138  0.1074
  684MOL0     H94327  10.702   0.279   0.574  2.9219  0.4566 -2.3271
  684MOL0     H94328  10.758   0.440   0.600  0.8786 -0.4677 -2.4358
  684MOL0     H94329  10.948   0.336   0.747 -3.3808  0.1705  1.8210
  684MOL0     H94330  10.883   0.180   0.736 -1.5271  0.1371  0.3495
  684MOL0     H94331  10.891   0.192   0.472  0.9047 -0.0523 -0.8971
  684MOL0     H94332  10.973   0.348   0.498  0.8577 -0.7875 -0.6223
  684MOL0     H94333  11.105   0.144   0.435 -5.3914  0.5115 -1.4875
  684MOL0     H94334  11.087   0.090   0.610 -0.3355  0.4750  0.3597
  684MOL0     H94335  11.211   0.357   0.517 -2.5667  1.6235  1.7027
  684MOL0     H94336  11.206   0.282   0.682 -2.2743 -0.3127 -0.0760
  684MOL0     H94337  11.351   0.192   0.436 -0.6222  1.2208 -0.3376
  684MOL0     H94338  11.357   0.107   0.600  2.1481  0.5144  1.6164
  684MOL0     H94339  11.570   0.218   0.565 -0.0607 -0.1592 -0.1157
  684MOL0     H94340  11.502   0.372   0.541  1.9973 -1.7950 -2.5395
  684MOL0     H94341  11.371   0.458   0.819  1.3590  2.2323  3.8908
  684MOL0     H94342  11.359   0.362   1.105 -1.7532  1.6431 -0.7839
  684MOL0     H94343  11.464   0.507   1.079  0.9046 -0.3304 -4.1556
  684MOL0     H94344  11.661   0.377   1.194 -0.9882  2.7611  0.0058
  684MOL0     H94345  11.519   0.410   1.285 -0.9210 -0.9144  0.0550
  684MOL0     H94346  11.458   0.165   1.168 -0.3460 -0.6658  0.3233
  684MOL0     H94347  11.624   0.151   1.210  1.5552  1.7768  0.8477
  684MOL0     H94348  11.406   0.220   1.427  1.4643 -0.7704  3.6445
  684MOL0     H94349  11.479   0.077   1.405 -0.2019  1.1417  0.1386
  684MOL0     H94350  11.762   0.240   1.651 -0.0333  0.8496  1.3242
  684MOL0     H94351  11.888   0.194   1.870 -1.1732  0.2539 -1.2975
  684MOL0     H94352  11.830   0.048   1.944 -3.1350 -0.4237  2.3310
  684MOL0     H94353  11.785   0.198   2.018 -0.9576 -3.7568  2.0889
  684MOL0     H94354  11.592   0.077   2.311  0.8487 -1.7350  3.2921
  684MOL0     H94355  11.509  -0.019   2.522 -2.2313  0.3056  1.1588
  684MOL0     H94356  11.281  -0.202   2.697  1.0562 -0.9099  0.0598
  684MOL0     H94357  11.407  -0.074   2.702  0.1606  0.1605 -1.2647
  684MOL0     H94358  11.155  -0.114   2.854 -0.7002  2.7336  2.9525
  684MOL0     H94359  11.312  -0.113   2.917 -1.1460 -3.4644  0.9435
  684MOL0     H94360  11.156   0.112   2.932  1.5929  3.7775  1.1090
  684MOL0     H94361  11.196   0.129   2.766 -0.8909  3.1478  0.7918
  684MOL0     H94362  11.443   0.126   2.846  0.1762  2.6839 -0.5955
  684MOL0     H94363  11.379   0.123   3.016 -2.3184  1.2395  0.9473
  684MOL0     H94364  11.237   0.342   2.931  1.5095  3.1195  2.0157
  684MOL0     H94365  11.394   0.348   2.982  1.2277 -1.2482 -0.9353
  684MOL0     H94366  11.481   0.325   2.750  0.1540 -1.1123  2.9960
  684MOL0     H94367  11.384   0.478   2.790 -0.0488 -0.2298  3.2885
  684MOL0     H94368  11.195   0.365   2.667 -0.6010 -1.2886 -0.5561
  684MOL0     H94369  11.317   0.243   2.620 -1.9820 -1.2224  2.9792
  684MOL0     H94370  11.333   0.530   2.553 -1.7236 -0.6779 -1.4396
  684MOL0     H94371  11.287   0.402   2.442 -0.4383  0.2430  0.3109
  684MOL0     H94372  11.101   0.051   2.385 -0.0130 -4.2515  1.0187
  684MOL0     H94373  11.177   0.126   2.191 -0.1015 -1.2992 -1.6268
  684MOL0     H94374  11.340   0.095   1.840 -0.9925  0.5591 -1.7934
  684MOL0     H94375  11.353   0.154   1.615  1.1195  1.5842 -0.4856
  684MOL0     H94376  10.601   0.358   1.018  0.0360 -4.1822  1.4054
  684MOL0     H94377  10.441   0.309   1.194  2.1493 -0.0410 -0.5383
  684MOL0     H94378  10.117   0.098   1.323  0.7507  1.5211  1.9742
  684MOL0     H94379   9.998   0.003   1.500  2.4160 -0.5383 -1.9381
  684MOL0     H94380   9.679   0.243   1.710  1.1968  0.8980 -2.5225
  684MOL0     H94381   9.575   0.191   1.574  1.4976  0.8422 -0.9423
  684MOL0     H94382   9.504  -0.002   1.684 -2.7761  1.0624  1.6558
  684MOL0     H94383   9.485   0.134   1.784  1.4521  0.0703  1.6882
  684MOL0     H94384   9.704  -0.084   1.813  2.0233  0.8897  0.0942
  684MOL0     H94385   9.707   0.065   1.901 -3.1918  2.4433  1.5261
  684MOL0     H94386   9.537  -0.170   1.929 -1.4915  0.6072 -0.7651
  684MOL0     H94387   9.459  -0.011   1.957  0.8924  0.3926 -1.1292
  684MOL0     H94388   9.678  -0.062   2.312  2.7148  1.8889 -0.4001
  684MOL0     H94389   9.706   0.332   1.489  0.1309 -2.2421  2.0841
  684MOL0     H94390   9.943   0.543   1.295  1.3983  0.0838  2.8620
  684MOL0     H94391   9.788   0.485   1.223 -0.0912  0.4475 -0.1772
  684MOL0     H94392   9.795   0.536   1.395 -2.4293 -1.9581 -0.2560
  685MOL0     O94393   8.703   6.063   5.708  0.2401  0.0820  0.2259
  685MOL0     C94394   8.693   6.179   5.675 -0.6105 -0.2071 -0.5934
  685MOL0     O94395   8.737   6.226   5.552 -0.3067 -0.3853 -0.3049
  685MOL0     C94396   8.811   6.151   5.476  0.4212  0.3516  0.1903
  685MOL0     C94397   8.757   6.062   5.385 -1.1019  0.3309 -0.0832
  685MOL0     C94398   8.840   5.985   5.304  0.6342 -0.0181 -0.1078
  685MOL0     C94399   8.979   6.004   5.308  0.4612  0.6364  0.8968
  685MOL0     O94400   9.059   5.937   5.230 -1.0966 -0.5044  0.0892
  685MOL0     C94401   9.027   5.801   5.210  0.0598  1.0480  0.2169
  685MOL0     C94402   9.156   5.730   5.163 -0.1222 -0.4401 -1.4142
  685MOL0     C94403   9.166   5.766   5.009  0.1253  1.1638 -0.0038
  685MOL0     C94404   9.293   5.707   4.945 -0.2154 -0.3881  0.2944
  685MOL0     C94405   9.313   5.766   4.802 -0.4566  0.8405  1.0590
  685MOL0     C94406   9.452   5.736   4.737 -0.5883 -0.5523 -0.5192
  685MOL0     C94407   9.435   5.605   4.666 -0.0477  0.9433  1.0169
  685MOL0     C94408   9.551   5.510   4.668 -0.1804  0.5272 -0.4974
  685MOL0     N94409   9.649   5.524   4.559  0.0606 -0.7435  0.0249
  685MOL0     C94410   9.619   5.531   4.423  0.6754  0.3673  0.4321
  685MOL0     C94411   9.737   5.497   4.361  0.2042 -0.8916 -0.0692
  685MOL0     C94412   9.748   5.463   4.220  0.0495 -0.3549  0.8014
  685MOL0     C94413   9.831   5.569   4.137  0.2283 -0.2339  0.1132
  685MOL0     C94414   9.819   5.544   3.988 -0.3249 -0.2668  0.5328
  685MOL0     C94415   9.954   5.520   3.921 -0.2188  0.0343  0.2161
  685MOL0     O94416  10.004   5.392   3.962  0.6695 -0.4857  0.4008
  685MOL0     C94417  10.096   5.327   3.882  0.0998 -0.0585  0.1872
  685MOL0     C94418  10.080   5.191   3.888 -0.0747  0.7953  0.5787
  685MOL0     C94419  10.163   5.095   3.828 -0.0016  0.9814  0.0227
  685MOL0     C94420  10.136   4.947   3.854  0.5024  0.3758  0.0573
  685MOL0     C94421  10.273   5.140   3.752 -0.8371  0.6516 -0.2155
  685MOL0     C94422  10.372   5.044   3.679  0.5213 -0.7370 -0.0090
  685MOL0     O94423  10.431   5.087   3.556  0.1006 -0.3600 -0.9181
  685MOL0     C94424  10.486   4.983   3.484  0.9113 -0.4939 -0.4802
  685MOL0     C94425  10.404   4.905   3.392  0.6487 -0.0393 -1.1154
  685MOL0     C94426  10.475   4.814   3.317  0.2497 -0.2763  0.7277
  685MOL0     C94427  10.618   4.779   3.327  0.5321  0.0545 -0.6169
  685MOL0     O94428  10.666   4.681   3.246 -0.2746 -0.5660  0.1086
  685MOL0     C94429  10.592   4.612   3.140 -0.6288 -0.2078 -0.2028
  685MOL0     C94430  10.681   4.509   3.076  1.0252  0.3229  0.0734
  685MOL0     C94431  10.807   4.574   3.009  0.7149  0.1467 -0.0147
  685MOL0     C94432  10.850   4.489   2.893  0.5830 -0.2785  0.3102
  685MOL0     C94433  10.973   4.541   2.819  0.3601 -0.5604  0.5585
  685MOL0     C94434  11.094   4.534   2.909 -0.1788  0.1422 -0.5364
  685MOL0     C94435  11.224   4.564   2.828 -0.4731  0.5992  0.0995
  685MOL0     C94436  11.219   4.694   2.752  0.6692 -1.0292 -0.9050
  685MOL0    Cl94437  11.371   4.737   2.688  0.4932  0.0098 -0.4605
  685MOL0     C94438  10.696   4.859   3.417  0.6527  0.0734 -0.0844
  685MOL0     C94439  10.628   4.958   3.496 -0.5001  0.6565  0.4707
  685MOL0     O94440  10.399   4.934   3.729  0.6270 -0.4878  0.7613
  685MOL0     C94441  10.290   5.275   3.743 -0.2247  0.1837 -0.4341
  685MOL0     C94442  10.211   5.370   3.808  0.3812 -0.2097  0.1876
  685MOL0     N94443   9.832   5.473   4.465  1.2812  1.0870  0.3899
  685MOL0     N94444   9.782   5.525   4.568 -0.2740 -0.6370 -0.3074
  685MOL0     C94445   9.039   6.094   5.404 -0.0334  1.1660  0.7045
  685MOL0     C94446   8.951   6.165   5.487  0.3075 -0.0392  0.5214
  685MOL0     C94447   8.635   6.280   5.776  0.7634 -0.3217 -0.0886
  685MOL0     C94448   8.673   6.415   5.756  0.3761  0.7543 -0.4845
  685MOL0     C94449   8.628   6.514   5.837  0.3235  0.9744 -0.1126
  685MOL0     C94450   8.532   6.489   5.937 -0.3955 -0.6107  0.0036
  685MOL0     O94451   8.470   6.598   5.990  0.8789  0.1782 -0.9156
  685MOL0     C94452   8.541   6.659   6.109 -0.2466  0.5061 -0.2882
  685MOL0     C94453   8.513   6.811   6.096  0.1375 -0.3441  0.2731
  685MOL0     C94454   8.575   6.900   6.207 -0.9439  0.3439  0.2701
  685MOL0     C94455   8.527   6.863   6.356  0.4250 -0.4845  0.7516
  685MOL0     C94456   8.565   6.970   6.444 -1.1011  0.5248 -0.3712
  685MOL0     C94457   8.580   7.065   6.518 -0.3897 -0.4495 -0.8320
  685MOL0     C94458   8.497   6.360   5.971 -0.1827 -0.1283  0.0967
  685MOL0     C94459   8.550   6.258   5.888 -0.6917  0.5018 -1.0047
  685MOL0     C94460   8.499   6.114   5.915 -0.1590 -0.9301  1.0715
  685MOL0     H94461   8.650   6.073   5.375 -0.9332  0.9340 -1.4222
  685MOL0     H94462   8.791   5.911   5.242 -3.2175  1.1584  1.2855
  685MOL0     H94463   8.950   5.785   5.134 -0.9798  2.7920  0.8440
  685MOL0     H94464   8.991   5.752   5.301 -0.1890 -0.1775 -0.5186
  685MOL0     H94465   9.237   5.778   5.219 -0.2036 -1.9274  0.0413
  685MOL0     H94466   9.158   5.624   5.191  0.3501 -0.2162 -0.5664
  685MOL0     H94467   9.076   5.722   4.964  1.1403  0.2169 -1.1762
  685MOL0     H94468   9.168   5.872   4.986 -0.8347  0.8664 -1.5780
  685MOL0     H94469   9.374   5.736   5.013 -0.3773  0.0537  0.3040
  685MOL0     H94470   9.284   5.599   4.936 -1.4758 -0.2380 -0.6320
  685MOL0     H94471   9.308   5.875   4.814 -1.1147  0.9820 -0.3614
  685MOL0     H94472   9.240   5.727   4.731  1.5768 -1.8375  0.2787
  685MOL0     H94473   9.479   5.817   4.668 -1.3945 -0.2759 -0.5152
  685MOL0     H94474   9.531   5.721   4.811 -1.4849 -2.3667  0.1268
  685MOL0     H94475   9.414   5.616   4.559 -0.7966  0.6815  1.1336
  685MOL0     H94476   9.356   5.551   4.718  0.0888  2.5957  3.0693
  685MOL0     H94477   9.593   5.515   4.769  1.5143  0.3511 -1.1520
  685MOL0     H94478   9.505   5.413   4.653 -5.7421  2.7381  0.0280
  685MOL0     H94479   9.528   5.513   4.368  2.0873 -2.0834 -1.3399
  685MOL0     H94480   9.651   5.450   4.173  1.0193 -1.5756 -0.9941
  685MOL0     H94481   9.809   5.373   4.209  0.8709  0.2829 -0.1460
  685MOL0     H94482   9.786   5.668   4.151 -2.3098 -1.2246 -0.3972
  685MOL0     H94483   9.935   5.562   4.171  0.4391 -2.6038 -0.8363
  685MOL0     H94484   9.753   5.461   3.964 -1.7784  1.6634 -2.6494
  685MOL0     H94485   9.766   5.628   3.944 -1.9571 -1.5425 -0.0317
  685MOL0     H94486   9.938   5.527   3.813  0.1439  3.7095  0.2716
  685MOL0     H94487  10.029   5.596   3.948  0.0879  1.3846 -3.7505
  685MOL0     H94488  10.008   5.151   3.958 -0.5796 -0.8687 -0.8134
  685MOL0     H94489  10.210   4.912   3.926  2.2936  2.5236 -0.6019
  685MOL0     H94490  10.140   4.890   3.761  1.2224 -0.1001  0.3674
  685MOL0     H94491  10.038   4.934   3.899  0.7647 -1.0939  0.2567
  685MOL0     H94492  10.296   4.906   3.388  0.4222 -3.4442  0.3238
  685MOL0     H94493  10.413   4.741   3.266  0.9250  0.5338 -1.3400
  685MOL0     H94494  10.508   4.563   3.189  0.3026 -1.8991 -0.2293
  685MOL0     H94495  10.554   4.684   3.067 -3.9720  0.5486  2.0490
  685MOL0     H94496  10.716   4.438   3.151  0.5193  0.3482  0.3379
  685MOL0     H94497  10.623   4.450   3.004  1.4364 -0.3349  0.2745
  685MOL0     H94498  10.893   4.588   3.075  1.3544  2.2632 -1.2048
  685MOL0     H94499  10.790   4.676   2.973 -0.2827  0.7556  2.0460
  685MOL0     H94500  10.767   4.474   2.823 -0.6502 -1.8009  1.9944
  685MOL0     H94501  10.878   4.390   2.929 -1.1568 -0.6335  0.7854
  685MOL0     H94502  10.997   4.478   2.733 -1.6620 -0.1605 -0.3441
  685MOL0     H94503  10.962   4.644   2.781  2.1068 -0.1046  1.1987
  685MOL0     H94504  11.107   4.430   2.940  2.0821  1.4826  3.7180
  685MOL0     H94505  11.095   4.612   2.985  0.6194  4.9969 -4.9486
  685MOL0     H94506  11.240   4.482   2.758  2.2497  0.6790  0.5419
  685MOL0     H94507  11.313   4.567   2.891 -0.5685 -1.1350  0.3531
  685MOL0     H94508  11.199   4.776   2.822  0.9842 -2.4401  0.8868
  685MOL0     H94509  11.150   4.691   2.667  1.4019  1.0256 -1.6503
  685MOL0     H94510  10.802   4.842   3.428  0.5422  0.5358  2.1260
  685MOL0     H94511  10.689   5.022   3.559 -0.5882  0.8304  0.3786
  685MOL0     H94512  10.371   5.319   3.686 -0.5327  0.1432 -0.9169
  685MOL0     H94513  10.223   5.478   3.802 -2.2705  0.1310 -0.4689
  685MOL0     H94514   9.146   6.099   5.393  0.3691 -2.0004  2.1477
  685MOL0     H94515   8.992   6.240   5.554  0.4073  0.5152 -0.1505
  685MOL0     H94516   8.748   6.436   5.680  0.8814  2.0190  0.3314
  685MOL0     H94517   8.675   6.612   5.830 -1.1357  1.6651 -0.8153
  685MOL0     H94518   8.489   6.635   6.202  0.7426  2.5866  0.8801
  685MOL0     H94519   8.649   6.642   6.112  0.1383  2.7402  0.1106
  685MOL0     H94520   8.407   6.831   6.078 -0.0029 -1.1058  0.1928
  685MOL0     H94521   8.568   6.824   6.002  0.0554 -1.9083 -0.0293
  685MOL0     H94522   8.684   6.891   6.215 -1.2426 -1.6227  4.1869
  685MOL0     H94523   8.543   7.003   6.187  1.8670  1.4197  0.8095
  685MOL0     H94524   8.576   6.771   6.389 -1.0200 -0.9728  1.6453
  685MOL0     H94525   8.418   6.848   6.357  0.4046 -0.4852  3.0635
  685MOL0     H94526   8.591   7.160   6.566  1.5655 -0.7903 -0.5010
  685MOL0     H94527   8.423   6.330   6.043  2.4727 -1.4137  2.4844
  685MOL0     H94528   8.585   6.064   5.963  0.5474  0.7431  1.6167
  685MOL0     H94529   8.415   6.110   5.985 -1.8010 -2.6343 -0.8656
  685MOL0     H94530   8.477   6.067   5.818  1.2364 -0.1946  0.3660
  686MOL0     O94531   8.971  10.247   2.362 -0.5372  0.8838 -0.4243
  686MOL0     C94532   8.863  10.214   2.307  0.3942 -0.8657 -0.2637
  686MOL0     O94533   8.776  10.126   2.369 -0.1980 -0.7910 -0.1448
  686MOL0     C94534   8.805  10.031   2.466  0.2176  0.0639  0.3470
  686MOL0     C94535   8.694   9.957   2.512 -0.0804 -0.0567  0.2876
  686MOL0     C94536   8.696   9.867   2.614  0.3224  1.0050 -0.3665
  686MOL0     C94537   8.826   9.833   2.672  0.1741 -0.0594  1.1052
  686MOL0     O94538   8.844   9.728   2.764  0.0397 -0.2272  0.2806
  686MOL0     C94539   8.741   9.625   2.759 -0.1906  0.3146  0.3092
  686MOL0     C94540   8.631   9.625   2.871 -0.1411 -0.5707  0.3890
  686MOL0     C94541   8.674   9.547   2.996 -0.5461  0.0469  0.4970
  686MOL0     C94542   8.811   9.608   3.061 -0.1890 -0.1705 -0.3772
  686MOL0     C94543   8.862   9.516   3.176  0.8664 -0.4994  0.7264
  686MOL0     C94544   9.009   9.535   3.214  1.1517  0.6967  0.0873
  686MOL0     C94545   9.039   9.474   3.353  0.9800 -0.2299 -0.1371
  686MOL0     C94546   8.981   9.335   3.371 -0.9527  0.3963 -0.3432
  686MOL0     N94547   9.022   9.286   3.500  0.1343  0.3767  0.7981
  686MOL0     C94548   8.946   9.281   3.616 -0.9032  0.5641  0.5827
  686MOL0     C94549   9.028   9.228   3.711  0.4184 -0.4449 -0.9256
  686MOL0     C94550   8.996   9.204   3.853 -0.4984 -0.4700 -0.7590
  686MOL0     C94551   8.974   9.056   3.876  0.0339 -0.1883 -0.5849
  686MOL0     C94552   9.104   8.973   3.894 -0.1782 -0.5566 -0.0858
  686MOL0     C94553   9.072   8.826   3.915  0.1078 -0.5302  0.0954
  686MOL0     O94554   8.996   8.790   4.030  0.6644 -0.1596 -0.4464
  686MOL0     C94555   8.883   8.711   3.994 -0.4443 -0.0683  1.1594
  686MOL0     C94556   8.757   8.767   3.971 -0.1808 -0.6220  0.5045
  686MOL0     C94557   8.651   8.689   3.926  1.3929  1.0919 -1.0264
  686MOL0     C94558   8.516   8.764   3.906  0.0416 -0.8463 -0.2057
  686MOL0     C94559   8.670   8.551   3.905  0.1640 -0.2613  0.4669
  686MOL0     C94560   8.559   8.463   3.866  0.2155  0.1392  0.1527
  686MOL0     O94561   8.593   8.339   3.802 -0.1452 -0.0057  0.2374
  686MOL0     C94562   8.495   8.253   3.765 -0.7719  0.1315 -0.4631
  686MOL0     C94563   8.509   8.119   3.786 -0.3191 -0.2364  0.3019
  686MOL0     C94564   8.414   8.035   3.729  0.3545  1.2136  0.5835
  686MOL0     C94565   8.296   8.080   3.661  0.2946 -0.1358  0.0957
  686MOL0     O94566   8.205   7.985   3.631  0.0883 -0.2038  0.5365
  686MOL0     C94567   8.084   8.017   3.556  0.6061 -1.0699  0.5268
  686MOL0     C94568   8.019   7.894   3.497 -0.4395 -0.3402 -0.1467
  686MOL0     C94569   7.934   7.810   3.589  0.2026  0.2653  0.4182
  686MOL0     C94570   8.013   7.774   3.717 -1.0409 -0.3500 -0.7691
  686MOL0     C94571   7.931   7.684   3.810  0.4105 -0.5114  0.6896
  686MOL0     C94572   7.814   7.758   3.863  0.4184  0.7152  0.0411
  686MOL0     C94573   7.849   7.882   3.938  0.7590  0.5455  0.5290
  686MOL0     C94574   7.718   7.928   3.989 -0.1166  0.4398  0.0213
  686MOL0    Cl94575   7.750   8.071   4.084  0.6766  0.0370  0.2365
  686MOL0     C94576   8.289   8.216   3.635  0.1953 -0.1580  0.2457
  686MOL0     C94577   8.386   8.300   3.687 -0.5933 -0.6672  0.7949
  686MOL0     O94578   8.442   8.498   3.898  0.1428 -0.0124 -0.8210
  686MOL0     C94579   8.803   8.499   3.921  0.2357  0.0905  0.2294
  686MOL0     C94580   8.902   8.581   3.973 -0.6118  0.8919  0.1932
  686MOL0     N94581   9.143   9.193   3.653 -0.1318  0.4917  0.5775
  686MOL0     N94582   9.143   9.226   3.529  0.2344  0.0520  0.1918
  686MOL0     C94583   8.938   9.899   2.619  0.7007 -0.1237 -1.5804
  686MOL0     C94584   8.932   9.997   2.522  0.4965  0.7696  0.5138
  686MOL0     C94585   8.839  10.252   2.170  0.3803 -0.5145 -0.5273
  686MOL0     C94586   8.949  10.296   2.096 -0.4070 -0.2768 -1.3142
  686MOL0     C94587   8.934  10.342   1.966 -0.4939 -0.1121 -0.9213
  686MOL0     C94588   8.807  10.342   1.911  0.8287  0.3528  0.1597
  686MOL0     O94589   8.784  10.377   1.787 -0.7687  0.1554  0.4510
  686MOL0     C94590   8.788  10.514   1.778 -0.2148  0.4087  0.4508
  686MOL0     C94591   8.789  10.572   1.631  0.1916 -0.0482  0.7545
  686MOL0     C94592   8.665  10.537   1.541 -0.3984  0.1819 -1.0260
  686MOL0     C94593   8.532  10.602   1.593 -0.6953 -0.4909 -0.3769
  686MOL0     C94594   8.539  10.734   1.638 -0.3327 -0.9807  0.0404
  686MOL0     C94595   8.558  10.847   1.678  0.2755  0.1379  0.2199
  686MOL0     C94596   8.701  10.276   1.978  0.0026 -0.4122  0.4739
  686MOL0     C94597   8.707  10.236   2.109  0.5194 -0.4802  0.0447
  686MOL0     C94598   8.580  10.192   2.175 -0.2582 -0.0193  0.0553
  686MOL0     H94599   8.594   9.977   2.475 -0.1772 -3.8773 -2.0058
  686MOL0     H94600   8.599   9.826   2.641  1.0974 -0.8953 -0.2508
  686MOL0     H94601   8.791   9.528   2.765 -0.1827  0.3071  0.1257
  686MOL0     H94602   8.689   9.622   2.662 -0.4179 -0.6087  0.4547
  686MOL0     H94603   8.621   9.730   2.901 -2.6452 -1.4287  3.0288
  686MOL0     H94604   8.536   9.586   2.833  2.1204 -2.3750 -4.2793
  686MOL0     H94605   8.588   9.555   3.064 -1.0040  1.6077 -0.2226
  686MOL0     H94606   8.687   9.443   2.964 -0.1192 -0.1456  1.2731
  686MOL0     H94607   8.893   9.610   2.989  2.1706 -1.5181  2.0773
  686MOL0     H94608   8.802   9.711   3.097 -1.5792  0.1129 -1.4399
  686MOL0     H94609   8.843   9.410   3.154  3.1339 -0.2362 -3.5084
  686MOL0     H94610   8.800   9.551   3.259  0.4864  2.8025 -0.8005
  686MOL0     H94611   9.066   9.481   3.138 -1.6099  0.5312 -2.0282
  686MOL0     H94612   9.046   9.638   3.213 -0.2398  1.3862  3.8421
  686MOL0     H94613   8.996   9.538   3.431  1.0420  0.1244 -0.3936
  686MOL0     H94614   9.147   9.471   3.370  0.6686 -0.5962  2.1138
  686MOL0     H94615   8.872   9.345   3.367 -0.7940  2.9955 -0.3578
  686MOL0     H94616   9.012   9.270   3.288 -0.9489  0.1213 -0.1251
  686MOL0     H94617   8.853   9.336   3.607  0.2741  2.2947 -3.1117
  686MOL0     H94618   8.899   9.246   3.880  0.6415  2.0282 -0.2382
  686MOL0     H94619   9.083   9.240   3.909 -0.3134 -0.1482 -1.2408
  686MOL0     H94620   8.922   9.050   3.972  1.9525  1.3408  0.6222
  686MOL0     H94621   8.906   9.014   3.801  2.1663 -3.2887 -0.9640
  686MOL0     H94622   9.151   8.977   3.795  0.3665  0.8180  0.2040
  686MOL0     H94623   9.169   9.017   3.970  0.3993 -1.3810 -0.0811
  686MOL0     H94624   9.026   8.786   3.824 -0.2808  0.0908  0.0142
  686MOL0     H94625   9.167   8.774   3.929  2.1177  3.0508  0.8731
  686MOL0     H94626   8.735   8.873   3.979  0.6910 -0.3751 -0.2099
  686MOL0     H94627   8.425   8.709   3.934 -1.5946 -0.3208 -3.7834
  686MOL0     H94628   8.512   8.780   3.798  0.9414 -0.8696 -0.2462
  686MOL0     H94629   8.514   8.858   3.961 -1.9746  1.0158 -3.1501
  686MOL0     H94630   8.597   8.082   3.838 -0.8410 -1.7182  0.1809
  686MOL0     H94631   8.426   7.927   3.732  0.5510  1.2059  3.8952
  686MOL0     H94632   8.003   8.063   3.614  0.9039  0.1690 -0.0214
  686MOL0     H94633   8.106   8.086   3.474  0.5541  0.6407  1.8884
  686MOL0     H94634   7.952   7.935   3.420 -0.6097  0.3523  0.3641
  686MOL0     H94635   8.091   7.826   3.450  1.4375  1.6963 -0.3880
  686MOL0     H94636   7.892   7.724   3.535 -1.0545  1.6810 -0.9444
  686MOL0     H94637   7.844   7.867   3.610 -2.4557 -4.1273  2.3796
  686MOL0     H94638   8.044   7.864   3.770 -0.3086 -0.4396 -1.0261
  686MOL0     H94639   8.105   7.721   3.689 -1.9795 -2.4154 -0.1849
  686MOL0     H94640   7.908   7.597   3.748 -3.4869  1.2777 -0.6998
  686MOL0     H94641   7.986   7.651   3.898  0.4794 -0.7398  0.5627
  686MOL0     H94642   7.764   7.682   3.924  1.3587 -1.2808 -1.5654
  686MOL0     H94643   7.753   7.791   3.778  0.5132 -1.5327 -0.9784
  686MOL0     H94644   7.885   7.956   3.866  2.4597 -0.2905  0.4840
  686MOL0     H94645   7.915   7.861   4.022 -0.1736  0.1227  1.1795
  686MOL0     H94646   7.677   7.858   4.063  4.8464 -2.0352  0.8399
  686MOL0     H94647   7.641   7.957   3.916  0.9299 -0.2355 -1.4001
  686MOL0     H94648   8.203   8.254   3.582  1.5056  2.4286 -0.1776
  686MOL0     H94649   8.368   8.406   3.675 -1.7343 -1.0248 -1.3100
  686MOL0     H94650   8.809   8.391   3.910  1.8972  0.2399 -0.6966
  686MOL0     H94651   9.000   8.538   3.988  1.0321  4.0631 -0.5685
  686MOL0     H94652   9.035   9.881   2.664  0.0281 -0.2583 -0.1281
  686MOL0     H94653   9.025  10.043   2.489  1.4129 -1.0791  0.4331
  686MOL0     H94654   9.046  10.285   2.143 -0.8659 -0.5641 -0.4116
  686MOL0     H94655   9.027  10.375   1.919  1.5903 -0.6023  2.4949
  686MOL0     H94656   8.703  10.549   1.838 -0.9135  0.1607 -0.3739
  686MOL0     H94657   8.881  10.560   1.812  1.3576  0.0388 -2.9420
  686MOL0     H94658   8.876  10.520   1.588 -0.5646 -0.2559 -0.5617
  686MOL0     H94659   8.807  10.679   1.629 -1.7922  0.3708  2.3604
  686MOL0     H94660   8.679  10.569   1.437 -2.4201  1.3765 -0.9851
  686MOL0     H94661   8.652  10.429   1.548  1.7820 -0.0482  0.3848
  686MOL0     H94662   8.486  10.540   1.671  0.4388 -0.2563  0.5108
  686MOL0     H94663   8.457  10.597   1.514 -1.9826 -3.5406  0.8560
  686MOL0     H94664   8.579  10.943   1.719  0.3564  0.8418 -1.4120
  686MOL0     H94665   8.611  10.256   1.921  0.8656  2.3892 -2.1100
  686MOL0     H94666   8.572  10.221   2.280  0.6925 -0.4538  0.2547
  686MOL0     H94667   8.496  10.232   2.118  0.7311  3.2083  0.6241
  686MOL0     H94668   8.586  10.083   2.173 -1.7652 -0.1318  0.4970
  687MOL0     O94669   4.936   0.959  11.195  0.5850 -1.2046  0.3196
  687MOL0     C94670   4.821   1.006  11.197 -0.0233 -0.2043 -0.9082
  687MOL0     O94671   4.776   1.128  11.163  0.1425 -0.4339 -0.3395
  687MOL0     C94672   4.861   1.223  11.106 -0.2259  0.2176 -0.1550
  687MOL0     C94673   4.945   1.193  11.002  0.3673 -0.5943  0.1162
  687MOL0     C94674   5.014   1.290  10.933  0.3244 -0.1404  0.8542
  687MOL0     C94675   4.997   1.429  10.968 -0.0304  0.7655  0.5846
  687MOL0     O94676   5.073   1.529  10.910 -0.1931  0.4975  0.8590
  687MOL0     C94677   5.123   1.511  10.770 -0.8536 -1.0054  0.7301
  687MOL0     C94678   5.165   1.649  10.700  0.2855  0.2073 -0.7430
  687MOL0     C94679   5.205   1.632  10.554  0.5521 -0.2116  0.3914
  687MOL0     C94680   5.250   1.762  10.486 -0.4886  0.6410  0.1434
  687MOL0     C94681   5.296   1.718  10.343 -0.1349 -0.8548 -0.5052
  687MOL0     C94682   5.403   1.818  10.299 -0.2658  0.6897  0.5739
  687MOL0     C94683   5.449   1.796  10.147  0.4995 -0.2558  0.1864
  687MOL0     C94684   5.571   1.698  10.132 -0.4818 -0.5095  0.3595
  687MOL0     N94685   5.634   1.694  10.002 -0.1120  0.5753 -0.0917
  687MOL0     C94686   5.647   1.588   9.919 -0.0151 -0.1301  0.9205
  687MOL0     C94687   5.735   1.616   9.818 -0.0268 -0.2110  0.1304
  687MOL0     C94688   5.770   1.530   9.702  0.4290 -0.6154 -0.7701
  687MOL0     C94689   5.703   1.555   9.567  1.0033 -0.1233  0.6963
  687MOL0     C94690   5.559   1.489   9.574 -0.3059  0.3550 -0.6109
  687MOL0     C94691   5.509   1.433   9.436 -0.4508  0.1028  0.1134
  687MOL0     O94692   5.435   1.534   9.376 -0.5437 -0.7650  0.4520
  687MOL0     C94693   5.378   1.510   9.251 -0.2890 -1.5956 -0.1781
  687MOL0     C94694   5.365   1.388   9.192  0.2249 -0.0906 -0.1080
  687MOL0     C94695   5.313   1.360   9.070 -0.2991  0.4117 -0.3501
  687MOL0     C94696   5.339   1.212   9.032 -0.4313 -0.8636  0.1974
  687MOL0     C94697   5.265   1.467   8.991  0.0507  0.5283 -0.4756
  687MOL0     C94698   5.209   1.452   8.856 -0.2556  0.0849  0.2132
  687MOL0     O94699   5.121   1.545   8.808  0.1903  0.4663 -0.5671
  687MOL0     C94700   5.102   1.554   8.670  0.0662  0.7303 -0.5599
  687MOL0     C94701   4.969   1.552   8.636 -0.0627  1.3452  0.3656
  687MOL0     C94702   4.922   1.559   8.501  0.6438  0.8452  1.4714
  687MOL0     C94703   5.019   1.554   8.397 -0.2879 -0.3738  0.1302
  687MOL0     O94704   4.972   1.544   8.268  0.0409 -0.2913  1.1450
  687MOL0     C94705   5.052   1.481   8.165  0.4663 -0.6508  0.2727
  687MOL0     C94706   5.092   1.335   8.186 -0.5799  0.8045  0.8003
  687MOL0     C94707   4.973   1.237   8.190  0.7976 -0.1232  0.3257
  687MOL0     C94708   4.915   1.231   8.331  0.6860  0.6978  0.2311
  687MOL0     C94709   4.837   1.101   8.346 -0.3176  0.2164 -1.2942
  687MOL0     C94710   4.771   1.100   8.488  0.7103 -0.4791  0.0484
  687MOL0     C94711   4.880   1.120   8.601 -1.0572  0.0748  0.0396
  687MOL0     C94712   4.843   1.040   8.723 -0.0864 -0.9989 -0.6300
  687MOL0    Cl94713   4.846   0.866   8.688 -0.3856  0.0334 -0.4554
  687MOL0     C94714   5.160   1.564   8.433 -0.0141  0.5003 -0.0056
  687MOL0     C94715   5.198   1.557   8.566 -0.3545 -1.4605  0.9614
  687MOL0     O94716   5.243   1.352   8.790 -0.1776  0.4937  0.5444
  687MOL0     C94717   5.267   1.595   9.050  0.0031 -0.0128 -0.6863
  687MOL0     C94718   5.320   1.613   9.177  0.1259  0.0255  0.6834
  687MOL0     N94719   5.766   1.749   9.828  0.2571 -0.0111  0.2088
  687MOL0     N94720   5.702   1.790   9.935  0.0328  0.2348 -0.6572
  687MOL0     C94721   4.894   1.460  11.059  0.3193 -0.1475 -0.0901
  687MOL0     C94722   4.841   1.355  11.137 -0.0004 -1.1306 -0.2138
  687MOL0     C94723   4.715   0.913  11.245 -0.5769  0.8082 -0.2070
  687MOL0     C94724   4.602   0.964  11.317 -0.4587  1.2218  1.0734
  687MOL0     C94725   4.514   0.874  11.384 -0.6774 -0.8130  0.4066
  687MOL0     C94726   4.530   0.735  11.369  0.4581  0.9064 -0.0991
  687MOL0     O94727   4.438   0.656  11.421 -0.3191  0.5298 -0.0209
  687MOL0     C94728   4.322   0.648  11.333  0.4790 -0.2117 -0.8482
  687MOL0     C94729   4.242   0.523  11.342  0.2186  0.6305 -0.3796
  687MOL0     C94730   4.151   0.496  11.219 -0.7788  0.3312 -0.4639
  687MOL0     C94731   4.059   0.618  11.179 -0.1775  0.2310  0.4424
  687MOL0     C94732   3.989   0.691  11.291  0.1578 -0.0177  0.5064
  687MOL0     C94733   3.920   0.746  11.378  0.1870 -0.4063  0.9677
  687MOL0     C94734   4.634   0.683  11.298 -0.4237  0.2800 -0.3804
  687MOL0     C94735   4.727   0.771  11.228 -0.7824  0.7905  0.1324
  687MOL0     C94736   4.823   0.703  11.133  0.2710 -0.6647  0.6209
  687MOL0     H94737   4.962   1.094  10.961  0.5951 -0.1963 -0.7734
  687MOL0     H94738   5.078   1.242  10.860 -3.2424 -1.4584 -1.6854
  687MOL0     H94739   5.049   1.466  10.703  0.9247 -1.4484 -1.0268
  687MOL0     H94740   5.211   1.446  10.770  0.8475  1.0975  3.2444
  687MOL0     H94741   5.083   1.721  10.692  1.5330  1.4454 -3.4074
  687MOL0     H94742   5.242   1.702  10.756 -0.1663  1.5841 -1.3876
  687MOL0     H94743   5.276   1.549  10.540 -2.5820 -2.7457 -1.9820
  687MOL0     H94744   5.114   1.606  10.500  0.6155  0.9656 -0.3119
  687MOL0     H94745   5.167   1.832  10.475  1.2697  2.7390 -0.6247
  687MOL0     H94746   5.338   1.804  10.537 -1.0285  1.9029  0.0793
  687MOL0     H94747   5.221   1.720  10.264 -0.4724  1.5825 -0.2014
  687MOL0     H94748   5.345   1.620  10.345  1.8164  0.0686  1.2142
  687MOL0     H94749   5.359   1.917  10.308  1.0659  1.3069  0.5793
  687MOL0     H94750   5.483   1.804  10.373 -0.2555  0.7633  0.5769
  687MOL0     H94751   5.478   1.896  10.112 -1.0008 -0.0130 -0.4443
  687MOL0     H94752   5.367   1.763  10.082  0.1818  0.9780 -0.0679
  687MOL0     H94753   5.649   1.750  10.188 -1.4077  2.8647 -1.2560
  687MOL0     H94754   5.550   1.606  10.188  1.1647  1.0987  3.9947
  687MOL0     H94755   5.611   1.487   9.935 -0.9848 -0.2779 -1.6660
  687MOL0     H94756   5.754   1.425   9.729  1.6839 -0.2868  1.4456
  687MOL0     H94757   5.877   1.550   9.691  0.0205  2.3265 -0.0970
  687MOL0     H94758   5.695   1.663   9.552 -0.2671 -0.1558  0.9558
  687MOL0     H94759   5.759   1.510   9.485  2.1927 -1.2343  2.0796
  687MOL0     H94760   5.574   1.401   9.637  0.8937  1.5158  0.7978
  687MOL0     H94761   5.487   1.557   9.620 -0.0049  1.1066 -1.2401
  687MOL0     H94762   5.596   1.399   9.378  1.0112  2.2084  0.9273
  687MOL0     H94763   5.452   1.340   9.442  3.8107 -2.8260 -0.2600
  687MOL0     H94764   5.403   1.307   9.252 -1.4328 -1.9290 -1.4267
  687MOL0     H94765   5.381   1.151   9.113 -0.2710 -1.9812 -0.7183
  687MOL0     H94766   5.414   1.216   8.954 -0.6246  1.6680  0.0373
  687MOL0     H94767   5.251   1.150   9.010 -0.5604 -0.7056  0.2643
  687MOL0     H94768   4.894   1.549   8.714  0.1386 -1.2707  0.5545
  687MOL0     H94769   4.815   1.552   8.482  1.3236 -4.0691 -3.2880
  687MOL0     H94770   4.995   1.483   8.072  0.1199 -3.5921  0.3543
  687MOL0     H94771   5.146   1.536   8.149  0.0215  0.6188  1.7551
  687MOL0     H94772   5.154   1.307   8.100  0.5531  2.1930  1.1314
  687MOL0     H94773   5.157   1.325   8.274 -0.4795 -1.0470  0.5590
  687MOL0     H94774   5.011   1.138   8.164  0.0362  0.0785 -1.7225
  687MOL0     H94775   4.895   1.260   8.117  1.9477  2.5298 -0.1631
  687MOL0     H94776   4.845   1.314   8.343  0.1393  0.1036  1.3718
  687MOL0     H94777   4.990   1.231   8.410  0.8196 -0.3279  0.1129
  687MOL0     H94778   4.762   1.088   8.267  0.6638 -1.4380 -2.0085
  687MOL0     H94779   4.910   1.020   8.334  1.8135  2.0408 -1.4325
  687MOL0     H94780   4.727   1.000   8.491 -0.1660 -0.1340 -0.9677
  687MOL0     H94781   4.694   1.177   8.500  0.3473 -0.9028  0.5067
  687MOL0     H94782   4.888   1.226   8.629  2.1780  0.1458 -0.8055
  687MOL0     H94783   4.979   1.083   8.573  0.1491 -0.0469  3.9006
  687MOL0     H94784   4.751   1.071   8.774 -0.8511  1.2324 -3.1692
  687MOL0     H94785   4.922   1.057   8.797  0.0602 -3.9296  0.0037
  687MOL0     H94786   5.221   1.568   8.344 -0.7547  0.1991 -0.5389
  687MOL0     H94787   5.305   1.560   8.588  0.2407 -0.9068 -1.7187
  687MOL0     H94788   5.235   1.674   8.983  0.2082 -1.0707 -2.0709
  687MOL0     H94789   5.305   1.710   9.223 -2.4389  0.2036 -0.3823
  687MOL0     H94790   4.874   1.563  11.086 -1.1115  0.0904 -1.7933
  687MOL0     H94791   4.788   1.401  11.220  0.3854 -0.3660 -0.3759
  687MOL0     H94792   4.582   1.069  11.335 -4.9417  0.1327  4.2035
  687MOL0     H94793   4.434   0.908  11.450 -1.1880  0.0507 -0.6258
  687MOL0     H94794   4.278   0.747  11.350  0.5621 -0.4723  1.0972
  687MOL0     H94795   4.357   0.657  11.229 -0.2306 -0.0353 -1.0774
  687MOL0     H94796   4.190   0.517  11.438 -0.7258 -2.7581 -0.9743
  687MOL0     H94797   4.315   0.441  11.346 -1.3900 -0.9666 -2.2252
  687MOL0     H94798   4.203   0.456  11.132 -1.6378 -2.1271  0.0758
  687MOL0     H94799   4.078   0.419  11.244 -2.9899  2.2198 -0.7768
  687MOL0     H94800   3.993   0.581  11.100  2.1313 -2.5309 -0.3363
  687MOL0     H94801   4.123   0.683  11.119  0.6889 -0.9887  0.0252
  687MOL0     H94802   3.859   0.799  11.448 -2.3876 -0.3917 -1.1183
  687MOL0     H94803   4.642   0.577  11.277 -1.5089  0.3621 -1.3437
  687MOL0     H94804   4.775   0.618  11.084  1.0302 -0.8956  0.2542
  687MOL0     H94805   4.852   0.771  11.052  0.1340  1.0537  1.9691
  687MOL0     H94806   4.913   0.681  11.191  0.9781  2.6246  0.9235
  688MOL0     O94807   4.855  11.528   0.171 -0.9531 -0.6240  0.3275
  688MOL0     C94808   4.842  11.484   0.286 -0.7597 -0.2595  0.9339
  688MOL0     O94809   4.825  11.563   0.397 -0.2443  0.3953 -0.5179
  688MOL0     C94810   4.837  11.704   0.407  0.5705  0.0096 -0.0383
  688MOL0     C94811   4.753  11.759   0.495  0.0504  0.0234  0.0288
  688MOL0     C94812   4.750  11.895   0.502  0.1119  0.6186 -1.0634
  688MOL0     C94813   4.825  11.980   0.430  0.0149 -0.5617  0.4285
  688MOL0     O94814   4.824  12.112   0.452 -0.0725 -0.5436  0.0835
  688MOL0     C94815   4.788  12.188   0.333  0.8922  0.3205 -0.3931
  688MOL0     C94816   4.645  12.214   0.347  0.8748 -0.1225 -0.4259
  688MOL0     C94817   4.617  12.354   0.292 -0.5684  0.0094  0.6973
  688MOL0     C94818   4.463  12.359   0.285  1.0355 -0.6090 -0.2058
  688MOL0     C94819   4.427  12.512   0.285  0.7278  0.1111 -0.1205
  688MOL0     C94820   4.275  12.526   0.261  0.3604 -0.7390 -0.2359
  688MOL0     C94821   4.223  12.486   0.113  0.9947  0.3011 -0.4656
  688MOL0     C94822   4.084  12.541   0.077  0.3985 -0.0374  0.2155
  688MOL0     N94823   3.972  12.484   0.154 -0.0005  0.3978  0.4735
  688MOL0     C94824   3.927  12.540   0.268  0.2121 -0.2820 -0.0294
  688MOL0     C94825   3.828  12.450   0.307 -0.7651 -0.5463 -0.6530
  688MOL0     C94826   3.735  12.459   0.427 -0.2820 -0.4789  0.7829
  688MOL0     C94827   3.581  12.429   0.411  0.5663  0.6233  0.7704
  688MOL0     C94828   3.492  12.487   0.523 -0.3493  0.2660  0.3810
  688MOL0     C94829   3.530  12.449   0.668 -0.4320 -0.1308 -0.1059
  688MOL0     O94830   3.552  12.305   0.685 -0.0632  0.0705 -0.1861
  688MOL0     C94831   3.595  12.245   0.802 -1.2059 -0.5943 -0.1150
  688MOL0     C94832   3.583  12.310   0.923 -0.5583 -0.5368 -0.4283
  688MOL0     C94833   3.642  12.260   1.046  1.0762  0.4554  0.3808
  688MOL0     C94834   3.611  12.341   1.173 -0.6807  0.6886 -0.2129
  688MOL0     C94835   3.720  12.147   1.039 -0.5978  0.1987 -0.8264
  688MOL0     C94836   3.787  12.079   1.152  0.7244  0.2608  0.1211
  688MOL0     O94837   3.753  12.115   1.278 -0.3733  0.2077  0.6523
  688MOL0     C94838   3.805  12.042   1.383 -0.6384  0.0507 -0.3572
  688MOL0     C94839   3.928  12.078   1.455  0.5889 -0.0098  0.6870
  688MOL0     C94840   3.979  11.995   1.551 -0.3915  0.5784 -0.1170
  688MOL0     C94841   3.910  11.887   1.606  0.1003 -1.0561  0.7099
  688MOL0     O94842   3.982  11.809   1.688 -0.3173 -0.6002 -0.0305
  688MOL0     C94843   3.906  11.725   1.765  0.0346 -0.4505  0.2805
  688MOL0     C94844   4.000  11.657   1.871 -0.4351 -0.8117  1.0537
  688MOL0     C94845   3.932  11.554   1.955  0.4586  0.5488  0.8908
  688MOL0     C94846   3.881  11.430   1.867  0.1803 -1.3514  0.5252
  688MOL0     C94847   3.855  11.293   1.939  0.3897 -0.3318  0.6591
  688MOL0     C94848   3.757  11.288   2.053  0.3425 -0.3230 -0.3626
  688MOL0     C94849   3.737  11.140   2.098 -1.4148 -0.1905  0.3624
  688MOL0     C94850   3.622  11.126   2.192 -0.1790 -0.6136  0.4411
  688MOL0    Cl94851   3.463  11.153   2.120 -0.3693 -0.0106  0.0039
  688MOL0     C94852   3.791  11.857   1.548 -0.0763  1.1733 -0.1164
  688MOL0     C94853   3.730  11.931   1.440  0.1481 -0.2508 -0.6269
  688MOL0     O94854   3.860  11.981   1.119 -0.0751  0.2637 -0.2109
  688MOL0     C94855   3.735  12.085   0.907 -1.5628  0.0080  0.6453
  688MOL0     C94856   3.671  12.131   0.796  0.6883 -0.2017  0.4374
  688MOL0     N94857   3.826  12.340   0.218  0.3035 -0.4182  0.4862
  688MOL0     N94858   3.919  12.361   0.139 -0.1088 -0.2512 -0.0953
  688MOL0     C94859   4.908  11.921   0.333  0.3451  0.3023  0.4172
  688MOL0     C94860   4.909  11.779   0.319  0.2545 -0.8304 -0.3316
  688MOL0     C94861   4.835  11.337   0.301 -0.2223 -0.1832 -0.1464
  688MOL0     C94862   4.819  11.292   0.432  0.4613  0.0960 -1.0752
  688MOL0     C94863   4.809  11.157   0.462 -0.6217  0.4186  0.0634
  688MOL0     C94864   4.819  11.065   0.355  0.6795  0.6634  0.0602
  688MOL0     O94865   4.829  10.932   0.391  0.0073  0.2271  0.1047
  688MOL0     C94866   4.768  10.834   0.302 -1.1470 -0.5660 -0.7153
  688MOL0     C94867   4.880  10.772   0.208  0.2215 -0.6740  0.0532
  688MOL0     C94868   4.820  10.655   0.139 -0.0242  0.4900 -0.2267
  688MOL0     C94869   4.904  10.592   0.028  0.1296 -0.0058  0.7390
  688MOL0     C94870   4.826  10.492  -0.045  0.2067  0.3745  0.7187
  688MOL0     C94871   4.751  10.418  -0.098  0.0462 -0.5329 -0.2005
  688MOL0     C94872   4.831  11.105   0.221 -0.0766  0.1302 -0.2033
  688MOL0     C94873   4.840  11.242   0.192  1.0783  0.5829  0.9494
  688MOL0     C94874   4.873  11.278   0.045  1.2200 -0.4534 -0.2162
  688MOL0     H94875   4.691  11.690   0.552 -1.4634  0.3102 -1.2053
  688MOL0     H94876   4.686  11.945   0.574  1.1346 -0.4244  0.6497
  688MOL0     H94877   4.804  12.136   0.238  1.6877  1.4244 -0.8916
  688MOL0     H94878   4.849  12.279   0.339  2.1864 -0.5847  0.7602
  688MOL0     H94879   4.586  12.137   0.299  0.1763  0.3702 -0.3794
  688MOL0     H94880   4.623  12.212   0.454  3.2381 -1.6472  0.1207
  688MOL0     H94881   4.662  12.435   0.351 -2.4048  0.7872  1.0920
  688MOL0     H94882   4.660  12.360   0.192 -2.1027  0.3920  0.0268
  688MOL0     H94883   4.429  12.306   0.196  1.2592 -0.7717 -0.1930
  688MOL0     H94884   4.414  12.311   0.370 -0.2558  0.8117 -0.1025
  688MOL0     H94885   4.484  12.568   0.210 -1.7198  0.6720 -1.6668
  688MOL0     H94886   4.454  12.567   0.376  0.0917  3.0302 -1.5710
  688MOL0     H94887   4.224  12.461   0.333  1.2019  1.2708  2.3119
  688MOL0     H94888   4.246  12.625   0.296  3.4956 -0.4957  2.1112
  688MOL0     H94889   4.226  12.378   0.096  4.0988  0.3189 -0.7417
  688MOL0     H94890   4.302  12.531   0.051  1.0152  2.2956  0.9107
  688MOL0     H94891   4.093  12.648   0.099 -1.1543  0.1226  0.2046
  688MOL0     H94892   4.063  12.524  -0.029 -0.6683  1.9358  0.0568
  688MOL0     H94893   3.958  12.629   0.321 -0.4259 -1.9806  3.5208
  688MOL0     H94894   3.746  12.562   0.464 -3.4400  0.5286 -0.7062
  688MOL0     H94895   3.776  12.398   0.509  3.7125 -3.4134 -2.9421
  688MOL0     H94896   3.536  12.457   0.315 -1.6308 -1.7333  1.0179
  688MOL0     H94897   3.567  12.321   0.402  4.0302  0.0679  0.7801
  688MOL0     H94898   3.480  12.595   0.512 -1.1772  0.1412 -0.0037
  688MOL0     H94899   3.406  12.421   0.504  0.6558 -1.0727  0.3265
  688MOL0     H94900   3.623  12.502   0.687 -0.8660  0.8812 -0.7103
  688MOL0     H94901   3.447  12.483   0.731 -0.6519  2.0221 -1.4365
  688MOL0     H94902   3.525  12.401   0.934 -1.3657 -1.0580 -0.3036
  688MOL0     H94903   3.587  12.446   1.152  0.9501  0.9942 -0.7516
  688MOL0     H94904   3.697  12.371   1.233 -1.8375 -0.2792  2.0278
  688MOL0     H94905   3.530  12.294   1.230  0.1395  1.7378  1.9260
  688MOL0     H94906   3.993  12.157   1.418  2.7837 -3.2471 -3.2575
  688MOL0     H94907   4.080  12.015   1.586  0.0995  0.4888 -1.4344
  688MOL0     H94908   3.826  11.780   1.814 -0.2812 -0.0348 -0.6687
  688MOL0     H94909   3.871  11.649   1.695 -1.9097  1.2573 -0.7161
  688MOL0     H94910   4.086  11.608   1.823  1.5717  0.5646  3.0138
  688MOL0     H94911   4.037  11.733   1.941  0.5299  1.8017 -2.0628
  688MOL0     H94912   3.857  11.594   2.023  1.8998 -1.1968  3.7114
  688MOL0     H94913   4.007  11.520   2.027 -1.7476 -1.1539  2.5307
  688MOL0     H94914   3.943  11.415   1.778 -1.6051  1.3692 -1.3369
  688MOL0     H94915   3.787  11.468   1.826  1.3497 -2.5844 -3.8798
  688MOL0     H94916   3.822  11.212   1.874 -3.8276 -1.0764  3.3594
  688MOL0     H94917   3.950  11.270   1.990  0.1155 -1.2414  0.7850
  688MOL0     H94918   3.667  11.336   2.014 -1.5695 -1.2772  2.5289
  688MOL0     H94919   3.794  11.346   2.138  0.5693  0.9847 -1.3368
  688MOL0     H94920   3.825  11.122   2.160  0.1574 -0.1126 -1.7363
  688MOL0     H94921   3.732  11.067   2.017  2.7311 -1.2020  0.8154
  688MOL0     H94922   3.630  11.207   2.265  1.2863  0.6029 -1.0016
  688MOL0     H94923   3.619  11.029   2.242  1.1913 -0.0888  1.6101
  688MOL0     H94924   3.752  11.761   1.580  4.2562 -0.6863  0.2342
  688MOL0     H94925   3.642  11.886   1.394  0.3321 -1.2389 -0.0492
  688MOL0     H94926   3.803  12.001   0.897  0.3141  1.6688 -1.7952
  688MOL0     H94927   3.679  12.100   0.692  0.2618  1.1956 -0.0273
  688MOL0     H94928   4.965  11.989   0.269 -1.5843  2.4962  0.8829
  688MOL0     H94929   4.969  11.734   0.240 -1.5827  0.3777 -2.5284
  688MOL0     H94930   4.827  11.364   0.512 -1.1580 -1.6524  0.7565
  688MOL0     H94931   4.802  11.131   0.567 -0.3392  0.9543  0.2184
  688MOL0     H94932   4.730  10.762   0.375  2.4659  1.9819  4.2993
  688MOL0     H94933   4.683  10.882   0.251  0.2215 -0.4641 -3.0568
  688MOL0     H94934   4.956  10.740   0.281 -1.5608  0.0638  2.3497
  688MOL0     H94935   4.920  10.842   0.134  0.2518 -2.9374 -2.2158
  688MOL0     H94936   4.800  10.581   0.217 -0.0983  1.1937  0.4396
  688MOL0     H94937   4.722  10.679   0.097  0.7696  4.6655 -0.1879
  688MOL0     H94938   4.990  10.535   0.066  1.1751 -0.3685 -1.9284
  688MOL0     H94939   4.941  10.668  -0.041 -0.9891  0.5295  0.7029
  688MOL0     H94940   4.700  10.332  -0.138 -0.7759 -0.8517  1.4470
  688MOL0     H94941   4.839  11.040   0.134 -0.2139 -1.9556  1.2657
  688MOL0     H94942   4.782  11.326   0.007  0.4922 -0.2598  1.6318
  688MOL0     H94943   4.962  11.339   0.028  1.8400 -1.6566 -1.4163
  688MOL0     H94944   4.887  11.194  -0.023 -0.3320 -0.4433 -0.5919
  689MOL0     O94945  10.991   3.910   3.902  0.1464  0.2632  0.8462
  689MOL0     C94946  10.927   3.996   3.850  0.6730 -0.4254  0.5843
  689MOL0     O94947  10.980   4.104   3.781  0.1447  0.0165 -0.8048
  689MOL0     C94948  11.113   4.107   3.767 -0.7076  0.2811  0.7474
  689MOL0     C94949  11.180   4.183   3.852 -0.2543  0.1305  0.1412
  689MOL0     C94950  11.322   4.200   3.861  0.2391 -0.3939  0.5980
  689MOL0     C94951  11.394   4.141   3.760  0.6818  0.2790 -0.4980
  689MOL0     O94952  11.533   4.156   3.762 -0.1727 -0.3951  0.3443
  689MOL0     C94953  11.614   4.161   3.644 -0.6174  0.6543  0.1431
  689MOL0     C94954  11.577   4.288   3.570 -0.1351  0.0685  0.0176
  689MOL0     C94955  11.604   4.404   3.653 -0.4920  0.0136  0.2925
  689MOL0     C94956  11.595   4.534   3.572  0.2336  0.1061  0.3922
  689MOL0     C94957  11.633   4.665   3.627 -0.5098 -0.5328 -0.6330
  689MOL0     C94958  11.531   4.706   3.734  0.9509 -0.7650  0.6938
  689MOL0     C94959  11.564   4.840   3.799 -0.6211 -0.0154  0.7955
  689MOL0     C94960  11.448   4.873   3.889  0.9338 -0.0110 -0.4759
  689MOL0     N94961  11.453   4.833   4.029  0.4450 -0.3409 -0.0595
  689MOL0     C94962  11.376   4.897   4.127  0.0438 -0.4181  0.9516
  689MOL0     C94963  11.389   4.823   4.236  0.2448  0.3647 -1.4667
  689MOL0     C94964  11.323   4.863   4.363  0.3898 -1.3887  0.3795
  689MOL0     C94965  11.432   4.888   4.466  0.2968 -0.8395  0.1968
  689MOL0     C94966  11.385   4.900   4.607  0.3538 -0.3020  0.1668
  689MOL0     C94967  11.495   4.896   4.711 -0.4103  0.4419  0.0150
  689MOL0     O94968  11.567   5.020   4.698  0.0640 -0.5302  0.3455
  689MOL0     C94969  11.522   5.138   4.758 -0.4572  0.6422 -0.8400
  689MOL0     C94970  11.604   5.252   4.740  0.6018  0.3737  0.0147
  689MOL0     C94971  11.586   5.380   4.800  0.3835  1.6389 -0.4190
  689MOL0     C94972  11.680   5.495   4.775 -0.8808  0.3961 -1.1473
  689MOL0     C94973  11.479   5.392   4.890 -0.2401  0.6176  0.5499
  689MOL0     C94974  11.462   5.509   4.980  1.2265  0.9629  0.2649
  689MOL0     O94975  11.562   5.585   5.022 -0.0981 -1.0094  0.0778
  689MOL0     C94976  11.527   5.711   5.061 -1.0223 -0.8483 -0.9119
  689MOL0     C94977  11.583   5.751   5.186 -0.3931  0.3772  0.4778
  689MOL0     C94978  11.539   5.856   5.250  0.8003 -0.1580 -0.0315
  689MOL0     C94979  11.447   5.943   5.194  0.7119 -1.1121 -0.0295
  689MOL0     O94980  11.429   6.067   5.242  0.0277  0.1900  0.4959
  689MOL0     C94981  11.535   6.136   5.311  0.0558 -0.4866 -0.6769
  689MOL0     C94982  11.662   6.144   5.213  0.3115  0.6588 -0.9991
  689MOL0     C94983  11.739   6.271   5.236 -0.1274  0.1239  0.6343
  689MOL0     C94984  11.823   6.279   5.363 -0.3811 -0.3153 -0.4995
  689MOL0     C94985  11.971   6.240   5.344  0.1472 -0.3369 -0.1764
  689MOL0     C94986  12.045   6.317   5.454 -0.1235 -0.4493  0.0472
  689MOL0     C94987  12.191   6.268   5.456  0.3337 -0.3216 -0.0764
  689MOL0     C94988  12.251   6.353   5.575  0.3553 -0.5052 -0.1359
  689MOL0    Cl94989  12.417   6.297   5.619  0.1174  0.3262 -0.1148
  689MOL0     C94990  11.389   5.912   5.076  0.6070  0.1815 -0.2212
  689MOL0     C94991  11.428   5.790   5.006  0.5301 -0.1386 -0.1795
  689MOL0     O94992  11.343   5.536   5.001  0.4858  0.1773 -0.8721
  689MOL0     C94993  11.394   5.282   4.908 -0.8161 -0.1265  0.3975
  689MOL0     C94994  11.414   5.162   4.835 -0.4740 -0.5693  0.2002
  689MOL0     N94995  11.471   4.719   4.209  0.9123 -0.1122 -0.4184
  689MOL0     N94996  11.499   4.721   4.086 -0.9251  0.1195  0.9591
  689MOL0     C94997  11.329   4.051   3.672 -0.7833 -0.0043  1.0904
  689MOL0     C94998  11.190   4.033   3.672  1.0252 -0.3998 -0.6723
  689MOL0     C94999  10.777   3.992   3.849 -0.1959  1.2550 -0.2778
  689MOL0     C95000  10.713   4.027   3.730 -0.8103  0.5446  0.2958
  689MOL0     C95001  10.578   4.027   3.715  1.2636  0.5988  0.2139
  689MOL0     C95002  10.495   3.990   3.821  0.0603  0.4390  0.6300
  689MOL0     O95003  10.363   4.001   3.804 -0.2936 -0.0860 -0.3905
  689MOL0     C95004  10.325   4.127   3.864 -0.7722  1.0898 -1.0236
  689MOL0     C95005  10.180   4.161   3.806 -0.9631  0.2110  0.3385
  689MOL0     C95006  10.127   4.105   3.672  0.1139 -0.1720  0.2041
  689MOL0     C95007   9.989   4.152   3.627 -0.3648  0.6877 -0.4816
  689MOL0     C95008   9.927   4.059   3.527 -0.1667 -0.3167 -0.1912
  689MOL0     C95009   9.867   3.976   3.463  0.6665  0.3968  1.2259
  689MOL0     C95010  10.556   3.957   3.943  0.6398 -0.0524 -0.4220
  689MOL0     C95011  10.699   3.967   3.963  0.3050  0.8692 -1.2177
  689MOL0     C95012  10.768   3.930   4.100 -0.2012  0.6140  0.1645
  689MOL0     H95013  11.117   4.216   3.935 -0.5858  1.3402 -0.5769
  689MOL0     H95014  11.363   4.271   3.932 -3.2238 -0.7274  3.1855
  689MOL0     H95015  11.590   4.084   3.571  0.1181  2.4991 -2.1625
  689MOL0     H95016  11.720   4.150   3.672 -0.7904 -0.3085  0.4385
  689MOL0     H95017  11.634   4.292   3.476  1.5353 -1.7446  0.8871
  689MOL0     H95018  11.473   4.275   3.538  0.5370  1.5375 -3.1600
  689MOL0     H95019  11.542   4.410   3.743 -1.1979  0.9336 -0.2391
  689MOL0     H95020  11.703   4.389   3.699 -1.4511  1.6280  3.1885
  689MOL0     H95021  11.669   4.530   3.492 -0.4736 -0.1354 -0.2590
  689MOL0     H95022  11.495   4.540   3.527 -0.3103 -0.3832  1.4923
  689MOL0     H95023  11.648   4.738   3.546  2.6549  0.6677  0.8363
  689MOL0     H95024  11.730   4.658   3.677 -0.4125  3.0318 -0.0002
  689MOL0     H95025  11.435   4.714   3.683  2.0411  2.4766 -1.1021
  689MOL0     H95026  11.521   4.630   3.812 -0.1980 -1.0359  0.2918
  689MOL0     H95027  11.572   4.914   3.719  2.0419 -0.2997  0.6934
  689MOL0     H95028  11.658   4.827   3.854  0.1111  0.7956 -0.2378
  689MOL0     H95029  11.453   4.982   3.895  3.4506 -0.0879  0.2674
  689MOL0     H95030  11.354   4.854   3.838 -2.6739  0.8139  5.0260
  689MOL0     H95031  11.327   4.994   4.119 -1.3598 -1.2374 -1.3038
  689MOL0     H95032  11.265   4.779   4.401 -0.5832 -0.2508  1.5296
  689MOL0     H95033  11.254   4.947   4.351 -2.2896 -3.7797 -2.3897
  689MOL0     H95034  11.512   4.814   4.453  2.0047  0.6807  1.4775
  689MOL0     H95035  11.481   4.977   4.425  1.6953 -2.1230 -1.0495
  689MOL0     H95036  11.330   4.994   4.598  1.9457  0.5348 -1.6629
  689MOL0     H95037  11.316   4.816   4.620  0.8969 -1.0323 -1.3328
  689MOL0     H95038  11.447   4.886   4.809 -2.3534 -2.4287 -1.0930
  689MOL0     H95039  11.561   4.810   4.695 -2.3415 -1.0593 -0.2945
  689MOL0     H95040  11.690   5.240   4.675  1.8185 -0.5787  1.7173
  689MOL0     H95041  11.752   5.516   4.854 -0.2309 -3.0582 -0.6528
  689MOL0     H95042  11.620   5.585   4.760 -0.8723  1.0609  2.1613
  689MOL0     H95043  11.746   5.477   4.689  3.2677 -3.4580  2.3433
  689MOL0     H95044  11.651   5.688   5.242 -0.3549  1.2217  1.4124
  689MOL0     H95045  11.572   5.884   5.349 -0.0015 -1.9595  0.7960
  689MOL0     H95046  11.497   6.238   5.322  0.2607 -0.2482 -2.0678
  689MOL0     H95047  11.561   6.093   5.408 -1.9428 -0.3273 -0.0307
  689MOL0     H95048  11.727   6.056   5.208 -1.7328 -0.9192 -1.0413
  689MOL0     H95049  11.612   6.168   5.119  0.8711  4.1594 -0.5280
  689MOL0     H95050  11.663   6.349   5.240  0.1077  0.7019 -2.8868
  689MOL0     H95051  11.804   6.290   5.150  0.8274  0.7882  1.4723
  689MOL0     H95052  11.791   6.210   5.441  0.6058  1.2146  1.3364
  689MOL0     H95053  11.821   6.382   5.400 -0.4184 -1.0331  1.6042
  689MOL0     H95054  11.983   6.132   5.356 -1.0850 -0.3847  0.8614
  689MOL0     H95055  12.002   6.273   5.244  0.6432  0.5544  0.2655
  689MOL0     H95056  11.989   6.294   5.545 -0.4318  0.1139  0.0079
  689MOL0     H95057  12.045   6.425   5.435  2.2464 -1.0919 -5.6413
  689MOL0     H95058  12.237   6.264   5.357  2.6072 -0.9821  0.9120
  689MOL0     H95059  12.192   6.161   5.479  0.4123 -0.5550 -1.1237
  689MOL0     H95060  12.190   6.327   5.662  2.7025  0.1444  1.8446
  689MOL0     H95061  12.250   6.460   5.553  0.1946 -0.1089  1.6381
  689MOL0     H95062  11.320   5.983   5.031  0.2689 -0.6744 -1.0991
  689MOL0     H95063  11.388   5.767   4.908 -4.2900  3.5415  0.5801
  689MOL0     H95064  11.309   5.273   4.975  0.3780 -3.6853  1.6827
  689MOL0     H95065  11.332   5.090   4.832 -1.4675  0.4200  2.0484
  689MOL0     H95066  11.397   3.999   3.605 -0.4834  3.6323 -1.7354
  689MOL0     H95067  11.154   3.964   3.596 -0.7907  0.1464 -0.3418
  689MOL0     H95068  10.765   4.050   3.637 -3.6026  0.0663 -1.5028
  689MOL0     H95069  10.529   4.061   3.624  0.9689 -1.8785 -0.6348
  689MOL0     H95070  10.322   4.120   3.974 -5.4848 -2.4576 -1.0740
  689MOL0     H95071  10.396   4.207   3.840  1.1571 -0.3905 -0.4880
  689MOL0     H95072  10.181   4.270   3.803  1.9208  0.2812  1.1141
  689MOL0     H95073  10.104   4.134   3.880 -2.7069  0.3743 -1.3425
  689MOL0     H95074  10.206   4.126   3.600  0.0684  0.9985  0.4781
  689MOL0     H95075  10.129   3.999   3.701 -1.7371  1.2765  8.1080
  689MOL0     H95076   9.986   4.254   3.588 -3.5608  0.9993  0.3029
  689MOL0     H95077   9.925   4.147   3.716  1.3835 -1.1187  0.7623
  689MOL0     H95078   9.803   3.901   3.421  1.8374 -0.1251  0.3116
  689MOL0     H95079  10.493   3.933   4.029  0.9028 -3.1949 -0.9751
  689MOL0     H95080  10.860   3.987   4.111  1.0438 -0.5909 -2.9473
  689MOL0     H95081  10.699   3.934   4.185  1.7612 -0.8130  1.9478
  689MOL0     H95082  10.792   3.825   4.079  1.6000  1.3335 -1.6857
  690MOL0     O95083   7.962   0.953   1.725  0.5369  0.0637  0.2530
  690MOL0     C95084   7.899   1.027   1.644 -0.7639  0.0325  0.0280
  690MOL0     O95085   7.951   1.075   1.527 -0.5022  0.8394  0.1423
  690MOL0     C95086   8.082   1.066   1.499 -0.2954  0.0444 -0.6262
  690MOL0     C95087   8.136   0.998   1.389  0.3011 -0.3073  0.0548
  690MOL0     C95088   8.272   1.003   1.353 -0.1789 -0.1426 -0.3903
  690MOL0     C95089   8.365   1.057   1.441 -0.2410  0.1169 -0.1723
  690MOL0     O95090   8.503   1.055   1.405 -0.4607 -0.0104  0.5920
  690MOL0     C95091   8.592   1.108   1.495 -0.4804 -0.4693  0.0358
  690MOL0     C95092   8.742   1.124   1.432 -0.3581  0.2830 -0.6011
  690MOL0     C95093   8.827   1.230   1.504 -0.3073 -0.1808  0.3477
  690MOL0     C95094   8.833   1.223   1.658  0.0140  0.0113 -0.1134
  690MOL0     C95095   8.908   1.330   1.719  0.5899 -0.5098  0.4519
  690MOL0     C95096   8.972   1.299   1.845 -0.2342 -0.0471  0.0912
  690MOL0     C95097   9.116   1.238   1.828 -0.5116 -0.0716  0.0599
  690MOL0     C95098   9.144   1.168   1.962 -0.7377 -0.0085  0.2091
  690MOL0     N95099   9.286   1.126   1.974  0.4398 -0.2782 -0.3971
  690MOL0     C95100   9.352   1.019   1.911  0.3745  0.3127 -0.1660
  690MOL0     C95101   9.472   1.017   1.976  0.5713  0.0461 -0.4523
  690MOL0     C95102   9.585   0.927   1.925  0.5748  0.7723  0.2936
  690MOL0     C95103   9.702   0.952   2.020 -0.1093 -0.3184 -0.5419
  690MOL0     C95104   9.825   0.864   1.984  0.8009 -0.2310  0.8095
  690MOL0     C95105   9.943   0.881   2.077  0.0330  0.6294  0.7053
  690MOL0     O95106  10.060   0.815   2.015  0.2245 -0.4698  0.6223
  690MOL0     C95107  10.178   0.862   2.065 -0.5953  0.6093 -0.5333
  690MOL0     C95108  10.260   0.767   2.134  0.4121 -0.2113  0.1885
  690MOL0     C95109  10.395   0.803   2.155 -0.8424  0.2843  0.2694
  690MOL0     C95110  10.480   0.702   2.221 -0.0968 -0.0249  0.2644
  690MOL0     C95111  10.443   0.937   2.121  0.0653 -0.2365 -0.1467
  690MOL0     C95112  10.569   1.002   2.165 -0.1837 -0.5867 -0.5713
  690MOL0     O95113  10.607   1.130   2.117  0.6461 -0.3752 -0.1901
  690MOL0     C95114  10.723   1.193   2.149  0.2321  0.0090 -0.0590
  690MOL0     C95115  10.836   1.125   2.192  0.7277  0.3628 -0.3213
  690MOL0     C95116  10.951   1.195   2.230 -0.4276  0.5852  0.7867
  690MOL0     C95117  10.940   1.341   2.240  0.6215  0.2554 -0.1224
  690MOL0     O95118  11.036   1.415   2.302 -0.0490 -0.1056 -0.0440
  690MOL0     C95119  11.176   1.394   2.271  0.3851  0.5879 -0.3539
  690MOL0     C95120  11.264   1.525   2.299  0.1199  0.4070 -0.5626
  690MOL0     C95121  11.207   1.639   2.201 -0.5393 -0.3852 -0.9727
  690MOL0     C95122  11.288   1.770   2.225  0.0297  0.1451  0.6297
  690MOL0     C95123  11.217   1.850   2.330  0.0170 -0.3253 -0.2399
  690MOL0     C95124  11.308   1.958   2.398  0.6587  0.1437  0.4758
  690MOL0     C95125  11.225   2.071   2.477 -0.3802  0.4363 -0.3770
  690MOL0     C95126  11.311   2.182   2.544  0.1800 -0.4384 -0.3524
  690MOL0    Cl95127  11.199   2.288   2.622  0.0750  0.2771 -0.2627
  690MOL0     C95128  10.814   1.403   2.224 -0.6068  0.1431 -0.4896
  690MOL0     C95129  10.712   1.328   2.165  0.2587  0.1078  0.0196
  690MOL0     O95130  10.633   0.939   2.239  0.0013  0.2722 -0.0683
  690MOL0     C95131  10.346   1.022   2.072 -0.4003 -0.6486 -0.0472
  690MOL0     C95132  10.220   0.984   2.034 -1.0557 -0.5953 -0.7221
  690MOL0     N95133   9.481   1.118   2.070  0.3861 -0.2028 -0.7599
  690MOL0     N95134   9.381   1.193   2.048 -0.9067  0.0949 -0.5043
  690MOL0     C95135   8.312   1.130   1.551  0.0024 -0.6974  0.1371
  690MOL0     C95136   8.174   1.150   1.571 -0.2289  0.1900 -0.2141
  690MOL0     C95137   7.760   1.069   1.683  0.7189 -0.1014  0.2505
  690MOL0     C95138   7.667   1.090   1.578 -0.1781  0.4639  0.2925
  690MOL0     C95139   7.539   1.132   1.601  0.5020 -1.1897 -0.1061
  690MOL0     C95140   7.496   1.170   1.730 -0.1767 -0.1115 -0.1849
  690MOL0     O95141   7.373   1.227   1.735 -0.5839  0.3092  0.8515
  690MOL0     C95142   7.329   1.271   1.859 -0.3172  0.3759 -0.4472
  690MOL0     C95143   7.180   1.244   1.867 -0.2509  0.3883 -0.2621
  690MOL0     C95144   7.118   1.127   1.789  0.6460 -0.0918  0.1375
  690MOL0     C95145   6.983   1.096   1.851  0.2030  0.4648 -0.4162
  690MOL0     C95146   6.892   1.206   1.816 -0.8240 -0.3726 -0.5206
  690MOL0     C95147   6.839   1.314   1.802  0.6805 -0.5227 -0.6580
  690MOL0     C95148   7.584   1.143   1.839 -0.2347 -1.3566 -0.2483
  690MOL0     C95149   7.714   1.090   1.817 -0.1617 -0.4867 -0.3234
  690MOL0     C95150   7.814   1.088   1.928 -0.0205 -0.0217 -0.1371
  690MOL0     H95151   8.058   0.955   1.326  1.7000 -0.9556 -1.3108
  690MOL0     H95152   8.292   0.948   1.262  0.0437 -1.9818  0.7293
  690MOL0     H95153   8.600   1.044   1.584  3.0421  1.6691  1.4534
  690MOL0     H95154   8.567   1.211   1.521  0.0044 -0.5036  0.6548
  690MOL0     H95155   8.783   1.023   1.416  3.9725  1.5105  1.2600
  690MOL0     H95156   8.727   1.156   1.329 -1.7538  2.6671  0.2641
  690MOL0     H95157   8.930   1.236   1.467 -0.7886  1.6504 -0.8639
  690MOL0     H95158   8.779   1.325   1.477  0.8774  0.1152 -0.8640
  690MOL0     H95159   8.734   1.239   1.700  1.1113 -1.3874  3.3441
  690MOL0     H95160   8.852   1.120   1.688 -3.9685 -1.3108 -1.4141
  690MOL0     H95161   8.839   1.408   1.753  0.5771  0.0967 -0.8869
  690MOL0     H95162   8.979   1.381   1.652 -1.1266  5.5769  2.5371
  690MOL0     H95163   8.984   1.384   1.914  0.0697 -0.7451  0.9207
  690MOL0     H95164   8.911   1.232   1.906 -0.4856  2.2928  2.6029
  690MOL0     H95165   9.188   1.320   1.816 -1.1970  0.8125  1.5601
  690MOL0     H95166   9.117   1.169   1.744  1.9185 -0.7623  0.5821
  690MOL0     H95167   9.117   1.238   2.042 -1.6906 -0.7468  0.5520
  690MOL0     H95168   9.073   1.087   1.983 -2.5309  1.0330 -1.4629
  690MOL0     H95169   9.315   0.953   1.833  0.5014  0.8587 -0.6887
  690MOL0     H95170   9.614   0.941   1.821 -0.4640 -1.9290 -0.4266
  690MOL0     H95171   9.552   0.824   1.939  0.2614  0.3054 -3.0602
  690MOL0     H95172   9.732   1.057   2.020 -2.2617  0.3495 -0.7186
  690MOL0     H95173   9.673   0.925   2.122  2.0609  2.5660  0.9973
  690MOL0     H95174   9.809   0.755   1.983  3.5830 -0.7164 -0.7160
  690MOL0     H95175   9.848   0.901   1.883  0.5629  2.1394  1.5708
  690MOL0     H95176   9.950   0.988   2.100  1.0986  0.7022  0.1009
  690MOL0     H95177   9.910   0.819   2.161 -3.0828  0.4682 -0.4964
  690MOL0     H95178  10.219   0.670   2.159 -1.8893  1.6188  4.6092
  690MOL0     H95179  10.581   0.698   2.178  0.0080  4.3062 -0.4069
  690MOL0     H95180  10.429   0.606   2.229  0.9718 -0.7026 -0.7558
  690MOL0     H95181  10.489   0.713   2.330 -0.8333 -2.3227  0.5941
  690MOL0     H95182  10.835   1.017   2.199  0.2747  0.3151 -1.0389
  690MOL0     H95183  11.051   1.158   2.250  0.7956  2.4361 -1.3933
  690MOL0     H95184  11.214   1.327   2.348 -0.7031 -1.1431 -1.2454
  690MOL0     H95185  11.200   1.340   2.179 -0.4655  0.3141 -0.4231
  690MOL0     H95186  11.252   1.557   2.403  0.3439 -1.6438  0.1453
  690MOL0     H95187  11.370   1.499   2.294 -0.3227 -1.8289  0.6065
  690MOL0     H95188  11.100   1.656   2.209 -0.5920 -0.4479 -1.5326
  690MOL0     H95189  11.216   1.600   2.099  3.2047 -0.9209 -0.5870
  690MOL0     H95190  11.291   1.818   2.126  2.2534 -2.1784 -0.5343
  690MOL0     H95191  11.391   1.743   2.249 -0.3492 -2.5743 -0.4780
  690MOL0     H95192  11.135   1.908   2.286  0.3001  0.3125  0.0676
  690MOL0     H95193  11.178   1.783   2.407  1.5819  0.5847  1.4134
  690MOL0     H95194  11.376   1.992   2.319 -0.7955 -0.4485 -1.0964
  690MOL0     H95195  11.369   1.909   2.474  2.8486  1.0674 -0.5845
  690MOL0     H95196  11.163   2.023   2.552  0.3703 -1.6898 -1.0616
  690MOL0     H95197  11.161   2.122   2.404 -1.3033  2.2886  1.6229
  690MOL0     H95198  11.376   2.227   2.469  0.7770 -2.9735 -1.4513
  690MOL0     H95199  11.379   2.140   2.620  2.2822  3.3279  0.1221
  690MOL0     H95200  10.799   1.508   2.244  1.4364  0.2748  0.6544
  690MOL0     H95201  10.612   1.368   2.151  1.5555  2.9853 -2.1655
  690MOL0     H95202  10.361   1.126   2.046 -3.9478  0.1007  0.3745
  690MOL0     H95203  10.164   1.060   1.981 -1.2768  0.4898  0.9619
  690MOL0     H95204   8.373   1.204   1.603 -1.9704  1.4033 -0.3818
  690MOL0     H95205   8.134   1.219   1.644 -3.3344  0.3107 -1.8488
  690MOL0     H95206   7.686   1.061   1.475 -1.5190 -1.6831  0.5912
  690MOL0     H95207   7.466   1.144   1.521 -1.1490  1.4420  1.6282
  690MOL0     H95208   7.374   1.216   1.941  0.9403 -0.2211 -1.5067
  690MOL0     H95209   7.345   1.378   1.877 -1.9067  1.0545 -2.5832
  690MOL0     H95210   7.129   1.335   1.832 -1.2160  0.2224  0.6517
  690MOL0     H95211   7.154   1.228   1.972 -3.5000  2.3103 -0.6286
  690MOL0     H95212   7.105   1.153   1.683 -0.6851 -1.2997 -0.0072
  690MOL0     H95213   7.181   1.038   1.790 -0.2934 -0.7760 -0.5174
  690MOL0     H95214   7.003   1.075   1.956  1.0299  1.8576 -0.2593
  690MOL0     H95215   6.944   1.002   1.812 -0.4407  0.3604  0.4606
  690MOL0     H95216   6.784   1.406   1.793  1.9617  0.2001 -1.3214
  690MOL0     H95217   7.558   1.166   1.942 -1.0154 -1.3307 -0.4494
  690MOL0     H95218   7.776   1.154   2.007 -0.0257  1.2977 -1.2087
  690MOL0     H95219   7.825   0.985   1.962 -1.5693 -0.0878  0.2562
  690MOL0     H95220   7.904   1.133   1.886 -1.5235  2.3315 -1.0318
  691MOL0     O95221   9.205   3.072   2.829  0.2826 -0.1286  0.0682
  691MOL0     C95222   9.185   2.973   2.898 -0.0989  0.5751  0.2583
  691MOL0     O95223   9.149   2.847   2.845 -0.3033 -0.8489  0.4811
  691MOL0     C95224   9.148   2.834   2.708  0.1043 -0.0110 -0.2780
  691MOL0     C95225   9.222   2.734   2.648  0.0359 -0.7732  0.0628
  691MOL0     C95226   9.212   2.718   2.503 -0.3639 -0.0554  0.2407
  691MOL0     C95227   9.128   2.804   2.429  0.0313 -0.5469 -0.0471
  691MOL0     O95228   9.114   2.781   2.297  0.4809 -0.5480 -0.4590
  691MOL0     C95229   9.224   2.844   2.231  0.7126  0.2981  0.5488
  691MOL0     C95230   9.200   2.815   2.081  0.2828 -0.3395 -0.2468
  691MOL0     C95231   9.248   2.921   1.982 -0.0919  0.6725  0.1644
  691MOL0     C95232   9.252   2.866   1.839  0.4554  0.2162 -0.6540
  691MOL0     C95233   9.314   2.968   1.736 -0.0722 -0.5989  0.0044
  691MOL0     C95234   9.467   2.991   1.771  0.2173  0.5091  0.0062
  691MOL0     C95235   9.522   3.132   1.728 -0.6984 -0.4541  0.2688
  691MOL0     C95236   9.679   3.150   1.725 -0.1859  0.3322 -0.0298
  691MOL0     N95237   9.763   3.118   1.832  0.5449  0.8235  0.6968
  691MOL0     C95238   9.893   3.082   1.814  0.1538  0.0249 -1.0729
  691MOL0     C95239   9.922   3.016   1.929 -0.8502 -0.3845 -1.1579
  691MOL0     C95240  10.036   2.930   1.951 -0.2832  1.2553 -0.7403
  691MOL0     C95241  10.060   2.838   1.829 -0.4175 -0.7737  0.1715
  691MOL0     C95242  10.129   2.706   1.862  1.2265  0.3457 -0.7222
  691MOL0     C95243  10.143   2.613   1.744 -0.5318  0.2543 -0.2921
  691MOL0     O95244  10.207   2.687   1.634 -0.4057  0.4101  0.4163
  691MOL0     C95245  10.228   2.595   1.532 -0.5873 -0.3878 -0.2266
  691MOL0     C95246  10.349   2.529   1.530  0.2181 -0.9745 -0.1951
  691MOL0     C95247  10.388   2.443   1.421 -0.5995 -0.5767 -0.5576
  691MOL0     C95248  10.506   2.363   1.454 -0.8173 -0.3676  0.1475
  691MOL0     C95249  10.295   2.427   1.313 -1.0556  0.9161 -0.2770
  691MOL0     C95250  10.311   2.335   1.203 -0.2163 -0.8536 -0.8243
  691MOL0     O95251  10.206   2.338   1.103 -0.1548  0.6205  0.8663
  691MOL0     C95252  10.220   2.273   0.981  0.0813 -0.1657 -0.3235
  691MOL0     C95253  10.092   2.234   0.928 -0.4499 -0.1962 -0.1841
  691MOL0     C95254  10.094   2.160   0.808 -0.1259  0.0293 -0.1908
  691MOL0     C95255  10.214   2.116   0.748  0.5512 -0.5585 -0.0245
  691MOL0     O95256  10.231   2.049   0.628 -0.1533 -0.1044 -0.1524
  691MOL0     C95257  10.123   2.008   0.549  0.6639  1.0238  0.0212
  691MOL0     C95258  10.136   1.872   0.487  0.2029 -0.5377  0.3982
  691MOL0     C95259  10.270   1.849   0.410 -0.4253 -0.4247  0.7097
  691MOL0     C95260  10.319   1.968   0.321  0.1408 -0.4618 -0.2709
  691MOL0     C95261  10.468   1.958   0.299 -0.2657  0.6205  0.0814
  691MOL0     C95262  10.521   1.821   0.233  1.1844  0.2734  0.3555
  691MOL0     C95263  10.678   1.816   0.212 -0.3653 -0.6228 -0.2717
  691MOL0     C95264  10.737   1.907   0.110 -0.0019 -0.5055  0.7120
  691MOL0    Cl95265  10.679   1.856  -0.053 -0.0641 -0.1702  0.0641
  691MOL0     C95266  10.337   2.155   0.815  0.4043 -0.3743 -0.0014
  691MOL0     C95267  10.340   2.241   0.920 -0.0051  1.1865 -0.0383
  691MOL0     O95268  10.396   2.249   1.205  0.5946 -0.1402  0.5267
  691MOL0     C95269  10.174   2.503   1.318  0.5547  0.5073  0.6507
  691MOL0     C95270  10.147   2.574   1.423 -0.3001  0.4976 -0.2246
  691MOL0     N95271   9.819   3.027   2.016  0.1362  0.0684  0.7860
  691MOL0     N95272   9.723   3.084   1.961  0.0002 -0.1708  0.1999
  691MOL0     C95273   9.058   2.906   2.498 -0.1839 -0.2060 -0.2279
  691MOL0     C95274   9.068   2.916   2.632 -0.5307 -1.0318 -0.7220
  691MOL0     C95275   9.202   2.997   3.043 -0.9471 -0.6524 -0.2647
  691MOL0     C95276   9.324   3.057   3.087 -0.7470 -0.9691 -0.7431
  691MOL0     C95277   9.348   3.080   3.226  0.1142 -0.9688 -0.2936
  691MOL0     C95278   9.253   3.036   3.321 -0.1628  0.1493 -0.1879
  691MOL0     O95279   9.280   3.060   3.454  0.0851  0.3300  0.4995
  691MOL0     C95280   9.174   3.058   3.554 -0.7262  0.4567 -0.6700
  691MOL0     C95281   9.098   3.189   3.558 -0.1563 -1.2570 -0.4888
  691MOL0     C95282   9.009   3.198   3.688 -0.3519  1.0133 -0.5395
  691MOL0     C95283   8.927   3.327   3.704  0.8130 -0.6522 -0.6720
  691MOL0     C95284   9.011   3.451   3.717  0.0542  0.2714  0.2477
  691MOL0     C95285   9.079   3.551   3.735 -0.7576 -0.5117 -0.3457
  691MOL0     C95286   9.131   2.994   3.276 -0.4679  0.1416 -0.6522
  691MOL0     C95287   9.103   2.982   3.141 -0.0345  0.7979  0.4590
  691MOL0     C95288   8.963   2.943   3.100 -0.1663 -0.2754  0.3220
  691MOL0     H95289   9.287   2.664   2.699 -3.5162 -2.0382  3.3005
  691MOL0     H95290   9.261   2.648   2.437 -2.0134  0.6041 -1.7738
  691MOL0     H95291   9.316   2.796   2.264 -0.4838 -1.7496  1.0373
  691MOL0     H95292   9.228   2.953   2.246  2.1895  0.1349  1.6009
  691MOL0     H95293   9.249   2.721   2.058 -0.8759 -1.1710  0.5653
  691MOL0     H95294   9.094   2.797   2.060 -0.3234  1.2980  1.1570
  691MOL0     H95295   9.165   2.993   1.986 -0.3995  0.2939  0.9101
  691MOL0     H95296   9.344   2.960   2.016  0.0712 -0.5653  1.2052
  691MOL0     H95297   9.311   2.773   1.837  0.6783  0.3649 -1.5225
  691MOL0     H95298   9.150   2.845   1.803  0.8732 -4.0434  0.0778
  691MOL0     H95299   9.264   3.066   1.732  0.5023 -0.2361  1.1235
  691MOL0     H95300   9.299   2.916   1.641 -1.1762  0.0655 -0.2091
  691MOL0     H95301   9.472   3.003   1.880  0.8619  0.4857 -0.0145
  691MOL0     H95302   9.525   2.904   1.739 -1.5076 -0.4384 -0.6343
  691MOL0     H95303   9.481   3.206   1.797 -2.4405  1.2418 -2.3676
  691MOL0     H95304   9.480   3.167   1.633 -1.1605 -0.6746  0.3929
  691MOL0     H95305   9.715   3.098   1.636 -1.5938 -1.0076  0.1540
  691MOL0     H95306   9.695   3.253   1.690 -0.2325 -0.0563 -1.2623
  691MOL0     H95307   9.938   3.067   1.716  4.0655 -1.3964  0.7419
  691MOL0     H95308  10.015   2.866   2.037  3.3016 -1.1879 -1.4740
  691MOL0     H95309  10.125   2.992   1.960  0.4888  0.0597  0.1740
  691MOL0     H95310   9.961   2.820   1.787 -0.3727 -1.0401  0.1742
  691MOL0     H95311  10.129   2.879   1.754 -3.5766  1.1641 -1.8928
  691MOL0     H95312  10.225   2.728   1.908  0.0358 -1.4500  3.1150
  691MOL0     H95313  10.068   2.659   1.940  0.1543  1.9271 -0.5646
  691MOL0     H95314  10.215   2.536   1.773 -0.9170  0.5822  1.7208
  691MOL0     H95315  10.043   2.573   1.723 -0.4491 -1.3073  1.8978
  691MOL0     H95316  10.409   2.557   1.616  2.1574 -1.0952 -1.4330
  691MOL0     H95317  10.476   2.263   1.486  0.9268 -0.7457  0.7399
  691MOL0     H95318  10.570   2.401   1.534 -1.2807  0.5835  0.0769
  691MOL0     H95319  10.566   2.358   1.362 -3.3721  2.7230 -1.9250
  691MOL0     H95320  10.001   2.285   0.957 -0.0067  1.3940 -1.4522
  691MOL0     H95321   9.996   2.145   0.765 -0.5977 -0.8862  1.1428
  691MOL0     H95322  10.028   2.008   0.602 -0.1180 -0.9849 -1.2673
  691MOL0     H95323  10.114   2.084   0.472 -0.4112  2.7863  1.7994
  691MOL0     H95324  10.139   1.812   0.578  2.4228 -2.4633 -0.8241
  691MOL0     H95325  10.054   1.853   0.418  1.7321 -0.1826 -1.6180
  691MOL0     H95326  10.258   1.754   0.357 -0.1035 -0.7239  1.1644
  691MOL0     H95327  10.343   1.822   0.487  3.4751  3.0788 -1.3848
  691MOL0     H95328  10.303   2.066   0.368 -1.8764  0.5694 -2.8275
  691MOL0     H95329  10.269   1.963   0.224 -2.5919 -1.1019  1.0718
  691MOL0     H95330  10.493   2.048   0.242  1.6089 -0.2871 -0.6297
  691MOL0     H95331  10.517   1.969   0.397 -3.0874  3.4300  1.3874
  691MOL0     H95332  10.475   1.801   0.136  1.7107  1.2528 -0.1089
  691MOL0     H95333  10.501   1.736   0.298  2.0694  1.8925  2.8790
  691MOL0     H95334  10.700   1.712   0.185  0.0497 -0.9398  1.2215
  691MOL0     H95335  10.724   1.826   0.311 -0.6408 -2.2147  0.0359
  691MOL0     H95336  10.846   1.914   0.114 -0.0838  2.8244  0.4620
  691MOL0     H95337  10.708   2.011   0.129 -1.3533 -0.2756 -2.1574
  691MOL0     H95338  10.429   2.138   0.760 -0.8578 -0.7419 -2.1029
  691MOL0     H95339  10.435   2.279   0.959  0.8739  0.8404 -1.7599
  691MOL0     H95340  10.096   2.493   1.243 -0.5137 -0.0033  1.8018
  691MOL0     H95341  10.065   2.646   1.422 -0.6572  0.1509 -3.3627
  691MOL0     H95342   8.988   2.978   2.457 -2.0995  0.2114  3.3303
  691MOL0     H95343   9.021   2.999   2.685 -0.2298 -1.8203  0.8559
  691MOL0     H95344   9.399   3.094   3.018  1.4907  2.2141  2.9852
  691MOL0     H95345   9.430   3.139   3.266 -2.9880  3.2774  0.5045
  691MOL0     H95346   9.111   2.969   3.544  0.3736 -0.6896  1.7022
  691MOL0     H95347   9.222   3.057   3.653  0.9221  0.7166 -1.4392
  691MOL0     H95348   9.045   3.194   3.462  3.0064  1.4783 -2.3122
  691MOL0     H95349   9.167   3.273   3.568  0.8475 -2.2398  1.4746
  691MOL0     H95350   8.946   3.110   3.676 -0.1335  0.8755 -0.6871
  691MOL0     H95351   9.066   3.185   3.781 -4.4195 -0.4515  1.9920
  691MOL0     H95352   8.869   3.322   3.797  2.1061 -1.3850  0.1385
  691MOL0     H95353   8.851   3.334   3.626 -1.1197 -4.2262  0.6476
  691MOL0     H95354   9.122   3.648   3.745 -2.3037 -0.0056  2.0480
  691MOL0     H95355   9.048   2.969   3.340 -1.0538  0.6610 -1.1976
  691MOL0     H95356   8.946   2.847   3.051  0.7778 -0.1773 -0.2256
  691MOL0     H95357   8.890   2.948   3.181  0.5396 -3.3884  1.3022
  691MOL0     H95358   8.931   3.014   3.023  3.7116  1.3720 -0.0180
  692MOL0     O95359   7.665  11.081   7.769  0.1919  0.0655  0.2023
  692MOL0     C95360   7.685  11.188   7.832  0.3693 -0.4280  0.3735
  692MOL0     O95361   7.803  11.208   7.894 -0.0066  0.2331 -0.0141
  692MOL0     C95362   7.921  11.207   7.818 -0.6363  0.3978 -0.3628
  692MOL0     C95363   7.932  11.178   7.683 -0.6452 -0.5654 -0.8021
  692MOL0     C95364   8.067  11.179   7.639  0.9121 -0.4181  0.7083
  692MOL0     C95365   8.179  11.191   7.722  0.5870  0.1964  0.0460
  692MOL0     O95366   8.301  11.209   7.659  0.3630  0.4052 -0.4263
  692MOL0     C95367   8.422  11.197   7.738  0.0290  0.2100  0.6576
  692MOL0     C95368   8.535  11.196   7.640 -0.8286  0.1717  0.0067
  692MOL0     C95369   8.549  11.052   7.590  0.3830  0.4350 -0.4634
  692MOL0     C95370   8.620  11.055   7.449  0.1534  0.5081  0.0049
  692MOL0     C95371   8.516  11.083   7.339  0.0327  0.3285 -0.6264
  692MOL0     C95372   8.590  11.109   7.213 -0.1362 -0.0095 -0.1072
  692MOL0     C95373   8.499  11.111   7.085  0.4936  0.0548  0.1982
  692MOL0     C95374   8.575  11.119   6.951  0.3016 -0.2082 -1.1532
  692MOL0     N95375   8.671  11.010   6.948  0.1214 -0.2481  0.1741
  692MOL0     C95376   8.804  11.023   6.931 -0.5262 -0.6246  0.1035
  692MOL0     C95377   8.869  10.912   6.957 -0.4199  0.8369 -0.1919
  692MOL0     C95378   9.010  10.867   6.939 -0.8077 -0.4097  0.1047
  692MOL0     C95379   9.113  10.982   6.934  0.3831  0.4236  0.1405
  692MOL0     C95380   9.132  11.055   7.067 -0.0166  0.2039  0.7283
  692MOL0     C95381   9.262  11.138   7.056  0.3158  0.0863  0.3112
  692MOL0     O95382   9.382  11.068   7.021 -0.2876 -0.1483  0.3615
  692MOL0     C95383   9.498  11.134   7.023  0.1249 -0.2460  0.7408
  692MOL0     C95384   9.599  11.063   6.977  0.2010  0.8603 -0.2102
  692MOL0     C95385   9.728  11.119   6.970 -0.4925  0.3477  0.5771
  692MOL0     C95386   9.835  11.026   6.953  0.4148  1.0361  0.7522
  692MOL0     C95387   9.756  11.265   6.989  0.4970  0.1867 -0.7757
  692MOL0     C95388   9.890  11.329   6.976  0.6725  0.1216 -0.4037
  692MOL0     O95389   9.886  11.456   7.023 -0.6564 -0.2528 -0.6707
  692MOL0     C95390  10.013  11.503   7.057 -0.3531 -0.1804 -0.0651
  692MOL0     C95391  10.054  11.623   6.988 -0.4181  0.5029 -0.8504
  692MOL0     C95392  10.168  11.696   7.027  0.7601  0.5023  1.0068
  692MOL0     C95393  10.238  11.653   7.141  0.0876 -0.5179  0.1813
  692MOL0     O95394  10.334  11.740   7.188 -0.3342  0.4289 -0.0463
  692MOL0     C95395  10.448  11.749   7.096 -0.2027 -0.9074 -0.8526
  692MOL0     C95396  10.581  11.763   7.176 -0.2524 -1.1197  0.0327
  692MOL0     C95397  10.623  11.638   7.256 -0.1243  0.7011 -0.1131
  692MOL0     C95398  10.774  11.637   7.252  0.3573  0.5314  0.4923
  692MOL0     C95399  10.837  11.507   7.313  1.1626 -0.6876  0.4527
  692MOL0     C95400  10.969  11.480   7.255 -0.2368 -0.0289  0.5665
  692MOL0     C95401  11.027  11.346   7.301  1.2338 -0.1667 -0.4397
  692MOL0     C95402  11.178  11.368   7.302 -0.1331  0.7847 -0.6687
  692MOL0    Cl95403  11.256  11.211   7.332 -0.2931 -0.0362  0.7545
  692MOL0     C95404  10.191  11.553   7.218  0.5120 -0.0698 -0.4365
  692MOL0     C95405  10.084  11.472   7.173  0.5751 -0.3177  0.1289
  692MOL0     O95406   9.987  11.275   6.926  0.8258  0.0040  0.7655
  692MOL0     C95407   9.639  11.342   7.031 -0.1668  1.4166  0.8783
  692MOL0     C95408   9.514  11.277   7.037 -0.3920 -0.5784  0.7436
  692MOL0     N95409   8.769  10.819   7.002 -0.4866  0.1242 -0.2319
  692MOL0     N95410   8.655  10.878   6.985  0.0368  0.0555  0.3668
  692MOL0     C95411   8.159  11.210   7.856 -0.2682 -0.0421  0.5473
  692MOL0     C95412   8.029  11.227   7.901 -0.6308  0.4390  0.5539
  692MOL0     C95413   7.571  11.284   7.829  0.7903  0.2479 -0.4880
  692MOL0     C95414   7.454  11.251   7.760 -0.4367 -0.1856 -0.1498
  692MOL0     C95415   7.348  11.347   7.749 -0.1459 -0.2745 -0.9049
  692MOL0     C95416   7.357  11.467   7.815  0.0361  0.3552 -0.3140
  692MOL0     O95417   7.251  11.557   7.829 -0.3169  0.1779  0.7150
  692MOL0     C95418   7.126  11.524   7.765 -0.3992  0.1553  0.5628
  692MOL0     C95419   7.028  11.638   7.805 -0.4623  0.1572 -0.5906
  692MOL0     C95420   7.005  11.622   7.958  1.5449  0.4291  0.2488
  692MOL0     C95421   6.913  11.736   8.016  0.0144 -0.2880 -0.4857
  692MOL0     C95422   6.951  11.876   7.996  0.2337  0.8666  0.0834
  692MOL0     C95423   6.998  11.992   7.990  0.4070 -0.6419 -0.3286
  692MOL0     C95424   7.475  11.498   7.887 -0.2782  0.3187 -0.0989
  692MOL0     C95425   7.584  11.413   7.888  0.6344  0.3176  0.1839
  692MOL0     C95426   7.705  11.461   7.970  0.1298 -0.1439  0.5390
  692MOL0     H95427   7.853  11.173   7.609 -0.7708 -0.9191 -0.6467
  692MOL0     H95428   8.075  11.152   7.534 -2.5502 -1.4794  0.5735
  692MOL0     H95429   8.422  11.105   7.798  2.1461 -0.4547 -0.2552
  692MOL0     H95430   8.439  11.289   7.795  1.3195  2.0528 -2.4738
  692MOL0     H95431   8.515  11.267   7.559 -1.0098 -0.4463 -0.4897
  692MOL0     H95432   8.623  11.235   7.693 -0.8470  1.0602 -0.5958
  692MOL0     H95433   8.605  10.994   7.664  0.0483  1.0189  0.2609
  692MOL0     H95434   8.452  11.002   7.586  0.6017  0.0335 -0.8110
  692MOL0     H95435   8.702  11.127   7.456  1.6291 -1.0725 -0.3574
  692MOL0     H95436   8.648  10.953   7.422 -2.1051 -0.8432  2.3143
  692MOL0     H95437   8.455  11.169   7.366 -1.1382 -1.0560  1.4830
  692MOL0     H95438   8.450  10.996   7.349 -2.7908  2.2523 -1.2150
  692MOL0     H95439   8.643  11.205   7.217  1.6327 -0.9361 -0.5041
  692MOL0     H95440   8.661  11.027   7.204 -2.3953 -2.2510  1.0805
  692MOL0     H95441   8.426  11.192   7.091  0.0318 -0.3454  0.1023
  692MOL0     H95442   8.438  11.021   7.070 -0.3168  0.7552 -0.8511
  692MOL0     H95443   8.506  11.101   6.868 -0.1874  2.4221 -1.3944
  692MOL0     H95444   8.627  11.213   6.934  0.2991 -0.1458 -0.8309
  692MOL0     H95445   8.852  11.115   6.900  1.9809 -1.0583  2.3440
  692MOL0     H95446   9.022  10.809   6.848 -0.8715  1.8467 -1.4382
  692MOL0     H95447   9.023  10.806   7.029 -2.0910  1.0647  1.3449
  692MOL0     H95448   9.202  10.928   6.900 -2.5344 -4.4372 -0.6941
  692MOL0     H95449   9.092  11.053   6.854 -1.7043  0.6842  0.8479
  692MOL0     H95450   9.050  11.126   7.078 -1.5452 -0.9976 -1.9246
  692MOL0     H95451   9.136  10.977   7.143  0.8025 -1.2802 -0.7699
  692MOL0     H95452   9.247  11.206   6.971 -0.4241  0.2175  0.5358
  692MOL0     H95453   9.272  11.196   7.147 -1.8434 -0.4866  0.9643
  692MOL0     H95454   9.585  10.957   6.958  0.4391  0.3279  2.2456
  692MOL0     H95455   9.852  11.018   6.845 -3.3218  0.4464  0.0831
  692MOL0     H95456   9.793  10.927   6.973  0.9646  0.3575 -1.1734
  692MOL0     H95457   9.923  11.045   7.015 -0.5914  2.0829  1.8935
  692MOL0     H95458   9.989  11.659   6.909 -1.0738  1.1141 -0.0468
  692MOL0     H95459  10.188  11.788   6.973 -1.3141 -1.4047 -3.5919
  692MOL0     H95460  10.454  11.662   7.029 -0.2432 -1.1358 -0.5603
  692MOL0     H95461  10.440  11.836   7.030 -1.0940 -0.5371 -0.2689
  692MOL0     H95462  10.654  11.798   7.103 -1.8442  2.8061  0.0701
  692MOL0     H95463  10.572  11.844   7.250  0.3532  0.4911 -1.5836
  692MOL0     H95464  10.593  11.548   7.201 -2.1570  0.5823  1.0851
  692MOL0     H95465  10.569  11.634   7.351  1.0946 -1.6987  0.5611
  692MOL0     H95466  10.814  11.733   7.287 -0.9611  1.4142 -0.3218
  692MOL0     H95467  10.803  11.643   7.147 -0.3016  0.1283  0.2834
  692MOL0     H95468  10.852  11.524   7.420  0.1726 -0.5149  0.5691
  692MOL0     H95469  10.764  11.427   7.300 -0.5923  0.8903  0.1027
  692MOL0     H95470  11.033  11.563   7.288 -0.2453 -0.5327  1.9166
  692MOL0     H95471  10.962  11.484   7.146  0.1923  0.2862  0.5487
  692MOL0     H95472  10.982  11.256   7.258 -0.7678 -0.6679  2.4138
  692MOL0     H95473  10.992  11.326   7.402 -2.7783 -0.6597 -1.7653
  692MOL0     H95474  11.205  11.436   7.382 -2.4790 -0.4362  1.2807
  692MOL0     H95475  11.208  11.407   7.204  0.6690  0.2692 -0.6434
  692MOL0     H95476  10.237  11.532   7.314  1.9937 -1.4784 -1.4229
  692MOL0     H95477  10.047  11.385   7.226 -1.6164  0.6114  0.2355
  692MOL0     H95478   9.634  11.449   7.047 -0.2986  1.1344  3.0509
  692MOL0     H95479   9.435  11.350   7.051 -0.8709 -0.2484 -2.6919
  692MOL0     H95480   8.247  11.213   7.920  0.4325 -0.9543 -0.3496
  692MOL0     H95481   8.013  11.231   8.008 -3.6381 -2.8477  0.4230
  692MOL0     H95482   7.437  11.149   7.729  0.4062 -0.5768  0.6272
  692MOL0     H95483   7.261  11.322   7.690 -0.8971 -1.0047  0.4541
  692MOL0     H95484   7.147  11.529   7.658 -0.9233  0.4207  0.4694
  692MOL0     H95485   7.101  11.419   7.785 -1.6008  0.0193 -1.3975
  692MOL0     H95486   6.927  11.628   7.763  1.0422 -1.3248 -4.2584
  692MOL0     H95487   7.069  11.736   7.778 -1.2078  0.3131 -1.1884
  692MOL0     H95488   6.952  11.527   7.971  0.4931  0.4067 -3.2434
  692MOL0     H95489   7.091  11.615   8.025  1.3772  2.4796  0.7337
  692MOL0     H95490   6.913  11.716   8.124  0.5539 -0.0864 -0.4443
  692MOL0     H95491   6.808  11.724   7.992 -1.2931  0.3654  3.9284
  692MOL0     H95492   7.023  12.096   7.994 -2.1629  0.1713 -2.3871
  692MOL0     H95493   7.493  11.593   7.936 -2.5922 -0.5429  2.6694
  692MOL0     H95494   7.806  11.447   7.931 -1.3713  0.0848 -4.0394
  692MOL0     H95495   7.703  11.570   7.982  1.9885  0.1554 -1.3372
  692MOL0     H95496   7.713  11.412   8.067 -2.3474 -1.7575  0.0284
  693MOL0     O95497   8.236   2.891   9.772  0.3249  0.3568  0.3983
  693MOL0     C95498   8.244   3.012   9.789  1.0316 -0.4224 -0.0164
  693MOL0     O95499   8.164   3.082   9.883 -0.6131  0.3056  0.1813
  693MOL0     C95500   8.060   3.005   9.944  1.1211 -1.1014 -0.2375
  693MOL0     C95501   8.092   2.898  10.040 -0.0112 -0.3765  0.3593
  693MOL0     C95502   7.988   2.832  10.124  0.2001  0.1029  0.0400
  693MOL0     C95503   7.862   2.879  10.127  1.2590  0.4174  0.1930
  693MOL0     O95504   7.783   2.817  10.230  0.5372 -0.5142  0.4317
  693MOL0     C95505   7.645   2.859  10.222 -0.5406  0.1362  0.4516
  693MOL0     C95506   7.568   2.741  10.282  0.6536  0.3740 -0.0850
  693MOL0     C95507   7.544   2.725  10.436 -1.1084  0.2368  0.4365
  693MOL0     C95508   7.454   2.837  10.494 -0.4031 -0.1421  0.7859
  693MOL0     C95509   7.445   2.825  10.648  0.1026  0.0019 -0.2607
  693MOL0     C95510   7.371   2.943  10.694 -0.1430  0.5050 -1.1575
  693MOL0     C95511   7.365   2.926  10.846 -0.4605 -0.6405  0.6323
  693MOL0     C95512   7.333   3.071  10.905  0.1069 -0.4209 -0.6942
  693MOL0     N95513   7.317   3.079  11.051 -0.4821 -0.7016 -0.5393
  693MOL0     C95514   7.285   2.983  11.142  0.4057 -0.6692 -0.8186
  693MOL0     C95515   7.304   3.043  11.265 -0.0376  0.7061  0.1743
  693MOL0     C95516   7.277   2.961  11.383  0.1564  1.0243  0.0659
  693MOL0     C95517   7.135   2.978  11.434 -0.0892 -0.2041  0.0216
  693MOL0     C95518   7.090   2.856  11.520  1.0042  0.3279 -0.7182
  693MOL0     C95519   6.947   2.865  11.579 -0.7336 -0.2638 -0.6337
  693MOL0     O95520   6.863   2.900  11.474  0.1454 -0.0040  0.4985
  693MOL0     C95521   6.776   2.808  11.422  0.2473 -0.4404 -0.0176
  693MOL0     C95522   6.669   2.866  11.352 -0.9922  0.2834  0.2697
  693MOL0     C95523   6.569   2.784  11.285  0.0191  0.7111 -0.2655
  693MOL0     C95524   6.484   2.859  11.195  0.0767  0.2082  0.4660
  693MOL0     C95525   6.572   2.645  11.302  0.3005  0.4010 -0.2487
  693MOL0     C95526   6.484   2.542  11.234 -0.4487  0.8348 -0.0552
  693MOL0     O95527   6.484   2.411  11.285  0.7899 -0.0123 -0.7310
  693MOL0     C95528   6.427   2.311  11.208  0.1362 -0.3096 -0.3312
  693MOL0     C95529   6.513   2.242  11.129  0.0777 -0.4623  0.5459
  693MOL0     C95530   6.463   2.160  11.028  0.5912  0.4124  0.3083
  693MOL0     C95531   6.329   2.139  11.002  0.0479 -0.4332 -0.1688
  693MOL0     O95532   6.273   2.084  10.896 -0.5666  0.2555 -0.3443
  693MOL0     C95533   6.320   1.961  10.856 -0.0586 -0.9254  0.2933
  693MOL0     C95534   6.236   1.852  10.905 -0.3449 -0.9617 -0.0948
  693MOL0     C95535   6.089   1.863  10.861  0.5259  0.2587 -0.2462
  693MOL0     C95536   6.016   1.732  10.885  0.7834 -0.3748 -0.2359
  693MOL0     C95537   6.041   1.629  10.780  0.2444 -0.0096 -0.3854
  693MOL0     C95538   5.983   1.654  10.637 -0.3550  0.2449  0.2578
  693MOL0     C95539   5.961   1.521  10.571 -0.0170  0.6850 -0.1657
  693MOL0     C95540   5.937   1.544  10.423 -0.1365 -0.3137  0.5440
  693MOL0    Cl95541   5.883   1.398  10.339  0.0966 -0.0135 -0.1408
  693MOL0     C95542   6.240   2.208  11.086 -0.5228 -0.1264  0.0897
  693MOL0     C95543   6.290   2.290  11.192 -0.4077 -0.3578 -0.1749
  693MOL0     O95544   6.426   2.573  11.134 -0.0415  0.0045 -0.6016
  693MOL0     C95545   6.684   2.586  11.370 -0.4429  0.2266 -0.1152
  693MOL0     C95546   6.773   2.668  11.435  0.5399 -0.2139 -0.1116
  693MOL0     N95547   7.351   3.166  11.250 -0.7405 -0.1101 -0.6261
  693MOL0     N95548   7.368   3.189  11.124 -1.0407  0.3625  0.1415
  693MOL0     C95549   7.834   2.994  10.048  0.1375  0.1476  0.0567
  693MOL0     C95550   7.929   3.054   9.956 -0.1655 -0.2689  0.0262
  693MOL0     C95551   8.337   3.096   9.712  0.5159 -0.6760  0.1731
  693MOL0     C95552   8.391   3.221   9.758 -0.1021  0.1048  0.3493
  693MOL0     C95553   8.474   3.300   9.681  0.3100 -0.0701 -1.1803
  693MOL0     C95554   8.526   3.244   9.565 -0.4939  0.1921 -0.5415
  693MOL0     O95555   8.623   3.311   9.487 -0.3450 -0.7407 -0.1910
  693MOL0     C95556   8.705   3.408   9.543  0.4389 -0.6827 -0.2295
  693MOL0     C95557   8.842   3.410   9.481 -0.1435 -0.6134 -0.4539
  693MOL0     C95558   8.846   3.388   9.331 -0.1418  0.9394  0.3344
  693MOL0     C95559   8.958   3.444   9.255  0.8135  0.9766  0.2400
  693MOL0     C95560   9.087   3.399   9.314 -0.8459  0.3811 -0.7019
  693MOL0     C95561   9.187   3.382   9.385  0.9033 -0.3659 -0.7413
  693MOL0     C95562   8.494   3.119   9.517 -0.3360  0.1314  0.4511
  693MOL0     C95563   8.396   3.047   9.587  0.1636  0.1896  0.2041
  693MOL0     C95564   8.346   2.910   9.513 -0.0816 -0.7881  0.7992
  693MOL0     H95565   8.189   2.850  10.035 -0.5277 -1.3795 -0.3451
  693MOL0     H95566   8.011   2.750  10.191 -2.8824 -1.7785 -1.0053
  693MOL0     H95567   7.607   2.864  10.120  0.1682 -0.1390  0.1656
  693MOL0     H95568   7.618   2.957  10.262  0.6804  0.8388 -0.3808
  693MOL0     H95569   7.470   2.738  10.234  0.6667  1.1432 -0.1870
  693MOL0     H95570   7.634   2.661  10.247  3.5847  2.1770  0.8905
  693MOL0     H95571   7.496   2.627  10.444  0.5789 -0.7809 -0.9580
  693MOL0     H95572   7.640   2.717  10.489  0.3677 -0.5391 -2.1286
  693MOL0     H95573   7.495   2.936  10.471 -0.6186 -0.1563  0.3357
  693MOL0     H95574   7.355   2.822  10.451  0.0098 -1.4577  0.2463
  693MOL0     H95575   7.546   2.831  10.690  0.7794  2.9545 -2.0216
  693MOL0     H95576   7.385   2.737  10.675  1.1076 -1.1060 -1.5102
  693MOL0     H95577   7.421   3.036  10.665 -0.1408  0.1059 -2.5219
  693MOL0     H95578   7.267   2.939  10.661 -0.8890 -3.3525  1.0173
  693MOL0     H95579   7.453   2.880  10.893 -1.5168  0.4699  3.9887
  693MOL0     H95580   7.282   2.860  10.874  0.4585 -2.6318 -1.0558
  693MOL0     H95581   7.410   3.142  10.873  1.8910 -0.5771  2.7768
  693MOL0     H95582   7.246   3.115  10.855  0.5185 -0.7343 -1.7122
  693MOL0     H95583   7.260   2.879  11.123 -0.9829 -0.2501 -1.4221
  693MOL0     H95584   7.348   2.977  11.465  0.7006 -0.4272 -0.0817
  693MOL0     H95585   7.302   2.855  11.366 -1.0362  0.4827  1.4268
  693MOL0     H95586   7.129   3.078  11.476  2.4166  0.0652 -0.1494
  693MOL0     H95587   7.062   2.979  11.352  0.1766 -2.0209 -0.2711
  693MOL0     H95588   7.083   2.769  11.454  2.6561 -0.9420  0.6752
  693MOL0     H95589   7.159   2.832  11.602  0.3200  2.7000  0.6532
  693MOL0     H95590   6.926   2.768  11.626 -4.1919  1.6152  2.1386
  693MOL0     H95591   6.953   2.948  11.650  2.2476  0.6045 -1.7523
  693MOL0     H95592   6.679   2.973  11.338  2.2301 -0.1345 -1.6239
  693MOL0     H95593   6.530   2.957  11.177  0.8757 -0.1182  0.6463
  693MOL0     H95594   6.382   2.859  11.234  0.5237 -0.3288  1.6936
  693MOL0     H95595   6.480   2.811  11.097  4.8239  0.9396 -0.3366
  693MOL0     H95596   6.619   2.256  11.145 -0.1714  0.1919  1.7653
  693MOL0     H95597   6.528   2.087  10.981  1.1002  0.2160  1.2735
  693MOL0     H95598   6.314   1.961  10.746  0.1672 -0.9541  0.2802
  693MOL0     H95599   6.422   1.937  10.887  0.1468 -1.2555 -0.5942
  693MOL0     H95600   6.276   1.756  10.873 -0.7579 -0.8272 -1.0447
  693MOL0     H95601   6.235   1.861  11.014  2.5880 -1.3401  0.0591
  693MOL0     H95602   6.080   1.875  10.753  0.3891  2.6477 -0.0341
  693MOL0     H95603   6.050   1.943  10.925  1.6599  0.7578 -0.1501
  693MOL0     H95604   5.908   1.752  10.889  0.4779 -1.9119  3.0443
  693MOL0     H95605   6.036   1.692  10.985  0.6004  0.2619  0.0602
  693MOL0     H95606   6.148   1.627  10.761 -0.1390  0.3489 -2.8503
  693MOL0     H95607   6.012   1.527  10.808  0.1387  0.6643  2.2034
  693MOL0     H95608   6.042   1.722  10.575  0.2464 -0.9403 -0.4963
  693MOL0     H95609   5.889   1.709  10.651 -0.8991 -0.3008 -1.0959
  693MOL0     H95610   5.878   1.470  10.621  0.1723 -1.0120 -1.4736
  693MOL0     H95611   6.058   1.470  10.570 -0.9202 -1.1168  0.2114
  693MOL0     H95612   6.017   1.601  10.375  0.7479 -1.4297  0.6388
  693MOL0     H95613   5.854   1.611  10.401 -0.1809 -1.2804 -2.9039
  693MOL0     H95614   6.133   2.205  11.071 -0.9976  1.9006  2.3908
  693MOL0     H95615   6.215   2.357  11.233 -0.8976 -0.9043 -0.1706
  693MOL0     H95616   6.683   2.478  11.375  0.2295  0.1108 -1.7587
  693MOL0     H95617   6.843   2.615  11.499  0.4116 -1.5753 -1.0609
  693MOL0     H95618   7.736   3.039  10.052 -0.2960 -0.8555  1.4699
  693MOL0     H95619   7.906   3.151   9.911  2.0750  0.0503 -0.5529
  693MOL0     H95620   8.356   3.272   9.848 -1.3603 -1.4626  0.8038
  693MOL0     H95621   8.504   3.398   9.715  4.6173 -1.8999  1.0665
  693MOL0     H95622   8.663   3.508   9.528 -0.9855 -0.9794  1.4303
  693MOL0     H95623   8.720   3.404   9.651 -0.3970  0.8032 -0.0284
  693MOL0     H95624   8.908   3.341   9.535  2.0053  2.7225  1.5066
  693MOL0     H95625   8.892   3.504   9.505  1.6344 -1.2868 -1.2723
  693MOL0     H95626   8.862   3.280   9.323  2.5206  1.3124 -0.3390
  693MOL0     H95627   8.756   3.413   9.273  0.7583  1.6314 -0.8051
  693MOL0     H95628   8.952   3.552   9.240  0.2196  0.8550 -0.4090
  693MOL0     H95629   8.956   3.402   9.154  3.1495 -1.3893  1.0627
  693MOL0     H95630   9.271   3.380   9.452  0.9434  0.8192 -0.7313
  693MOL0     H95631   8.536   3.081   9.425  4.6410  4.0302  0.6531
  693MOL0     H95632   8.404   2.884   9.424  1.1214  0.2318  1.2422
  693MOL0     H95633   8.354   2.830   9.586 -0.4687 -0.5671  1.0854
  693MOL0     H95634   8.245   2.939   9.482  0.4717  3.3577  2.2767
  694MOL0     O95635   4.499   7.918  10.846 -1.1813 -0.4496  0.8262
  694MOL0     C95636   4.420   7.941  10.940 -0.0713  0.0108  0.9500
  694MOL0     O95637   4.300   8.002  10.929  0.5486  0.4660 -0.6168
  694MOL0     C95638   4.242   7.991  10.805 -0.1547 -0.0308  0.0428
  694MOL0     C95639   4.206   7.868  10.746  0.2851 -0.8329  0.1385
  694MOL0     C95640   4.148   7.873  10.620  0.8711 -0.6360 -0.7925
  694MOL0     C95641   4.100   7.988  10.560  0.5290  0.1114  1.0176
  694MOL0     O95642   4.042   7.985  10.438  1.0066  0.3155  0.2263
  694MOL0     C95643   3.923   8.069  10.434  0.2370 -0.5266  1.0320
  694MOL0     C95644   3.816   8.011  10.336 -0.3592  0.0031 -0.0067
  694MOL0     C95645   3.758   7.876  10.378  0.2822 -0.5053  0.5942
  694MOL0     C95646   3.667   7.833  10.258 -0.0545 -0.9500  0.5124
  694MOL0     C95647   3.615   7.692  10.276  0.6301 -0.0615 -0.1494
  694MOL0     C95648   3.494   7.658  10.187 -0.3718 -0.6249  0.5089
  694MOL0     C95649   3.446   7.507  10.204  0.1465 -0.0107 -0.3261
  694MOL0     C95650   3.342   7.476  10.099 -0.7247 -0.7437 -0.0732
  694MOL0     N95651   3.217   7.535  10.146  0.6117  0.1870  0.3175
  694MOL0     C95652   3.170   7.662  10.109  0.2104 -0.5134  0.9556
  694MOL0     C95653   3.039   7.676  10.155  0.2016  0.1586  0.3925
  694MOL0     C95654   2.956   7.803  10.159  0.0073  0.2915  0.3344
  694MOL0     C95655   2.949   7.874  10.288  0.2063  0.5069  0.1585
  694MOL0     C95656   3.076   7.943  10.322 -0.2036  0.4374 -0.4912
  694MOL0     C95657   3.077   8.024  10.454  0.0609 -0.4994  0.6153
  694MOL0     O95658   3.009   7.965  10.562  0.4215  0.2784 -0.1460
  694MOL0     C95659   2.912   8.025  10.620 -0.4302  0.0188  0.3122
  694MOL0     C95660   2.914   8.133  10.700 -1.3132  0.6301 -0.4917
  694MOL0     C95661   2.787   8.186  10.743 -0.3934 -1.0929  0.2303
  694MOL0     C95662   2.816   8.306  10.831  0.6867 -0.2720  0.1835
  694MOL0     C95663   2.662   8.144  10.689 -0.4114  0.2063 -0.1872
  694MOL0     C95664   2.529   8.201  10.719 -0.7320 -0.5326  0.4434
  694MOL0     O95665   2.530   8.326  10.774 -0.2695  0.5370 -0.4690
  694MOL0     C95666   2.465   8.432  10.714  0.8681  0.3015  0.4496
  694MOL0     C95667   2.528   8.549  10.734  0.5424 -0.4677 -0.1710
  694MOL0     C95668   2.478   8.668  10.680 -0.5890 -0.1140  0.1145
  694MOL0     C95669   2.374   8.669  10.588 -0.5163  0.2756  0.3855
  694MOL0     O95670   2.339   8.788  10.542  0.4847  0.4771 -0.8032
  694MOL0     C95671   2.315   8.802  10.402 -0.3618  0.7617 -1.0627
  694MOL0     C95672   2.200   8.896  10.375  0.2048  1.0978 -0.2284
  694MOL0     C95673   2.069   8.849  10.431 -0.3115 -0.3469 -0.4049
  694MOL0     C95674   1.969   8.961  10.445  0.3884  0.1019  0.3791
  694MOL0     C95675   1.842   8.907  10.521  0.2952  0.5475  0.3681
  694MOL0     C95676   1.750   9.016  10.551 -0.2919  0.2969 -0.2099
  694MOL0     C95677   1.622   8.979  10.629 -0.3045  0.5079  0.9103
  694MOL0     C95678   1.549   8.864  10.559 -0.1961 -0.1899  0.4102
  694MOL0    Cl95679   1.474   8.903  10.391 -0.3935  0.0423 -0.2526
  694MOL0     C95680   2.309   8.544  10.559  0.4433  0.2418 -0.7395
  694MOL0     C95681   2.357   8.428  10.625 -0.3217 -0.2188  0.6641
  694MOL0     O95682   2.429   8.130  10.698  0.3536 -0.5047 -0.3173
  694MOL0     C95683   2.666   8.024  10.617  0.9170 -0.0514 -0.5599
  694MOL0     C95684   2.788   7.970  10.577  0.1655  1.1437  0.5744
  694MOL0     N95685   3.006   7.550  10.211 -1.2111 -0.7583  0.7638
  694MOL0     N95686   3.106   7.471  10.181  0.3589 -0.3946  0.1289
  694MOL0     C95687   4.132   8.110  10.623  0.6884  0.1044  0.4183
  694MOL0     C95688   4.207   8.111  10.741  0.5882 -0.4040 -0.0106
  694MOL0     C95689   4.465   7.921  11.080  0.9132 -0.3485  0.1447
  694MOL0     C95690   4.372   7.964  11.185 -0.5181  0.6291 -0.3193
  694MOL0     C95691   4.396   7.939  11.318  0.0014  0.3539  0.2010
  694MOL0     C95692   4.515   7.874  11.362 -0.1741 -0.5233 -0.0558
  694MOL0     O95693   4.541   7.855  11.495  0.3141 -0.0599  0.0838
  694MOL0     C95694   4.488   7.945  11.597 -1.0971  0.4104  0.0318
  694MOL0     C95695   4.602   7.940  11.699 -0.3344 -0.2393  0.0503
  694MOL0     C95696   4.614   7.806  11.773 -0.1983 -0.3145 -0.0294
  694MOL0     C95697   4.472   7.756  11.811  0.1638  0.0003  1.0411
  694MOL0     C95698   4.479   7.652  11.917 -0.0735  0.0458  0.6453
  694MOL0     C95699   4.494   7.560  11.999 -0.5117  0.2591  0.3481
  694MOL0     C95700   4.604   7.833  11.260  0.6613 -0.0391 -0.0168
  694MOL0     C95701   4.583   7.861  11.117  0.5848 -0.0321 -0.5121
  694MOL0     C95702   4.696   7.832  11.027  0.6587  0.2979 -0.5812
  694MOL0     H95703   4.219   7.775  10.801 -2.4111 -1.7990 -0.6893
  694MOL0     H95704   4.103   7.781  10.582 -0.0680 -0.4049 -0.2790
  694MOL0     H95705   3.946   8.169  10.394 -0.6833 -1.6218 -2.6357
  694MOL0     H95706   3.875   8.095  10.529 -2.1556 -0.9745  0.0193
  694MOL0     H95707   3.737   8.087  10.327 -0.2297  0.2333  0.6925
  694MOL0     H95708   3.851   8.006  10.233 -2.2122  0.5838 -0.7045
  694MOL0     H95709   3.836   7.803  10.400 -2.9542 -4.3609  0.3660
  694MOL0     H95710   3.706   7.888  10.473  2.9050  1.6213  1.9099
  694MOL0     H95711   3.585   7.902  10.237 -2.0463 -3.1804  0.5764
  694MOL0     H95712   3.724   7.835  10.165 -0.6495  0.8130  0.1364
  694MOL0     H95713   3.572   7.683  10.377 -1.6101 -3.6365 -1.2500
  694MOL0     H95714   3.698   7.621  10.267  0.2386 -0.4596 -0.6469
  694MOL0     H95715   3.417   7.729  10.220  1.0059 -0.0014  2.5690
  694MOL0     H95716   3.516   7.672  10.080 -0.9136 -1.3640  0.2889
  694MOL0     H95717   3.411   7.483  10.305 -0.7506  2.2613 -0.0272
  694MOL0     H95718   3.534   7.444  10.191  2.1091  2.3575  0.5986
  694MOL0     H95719   3.366   7.512   9.998 -1.0883 -1.5645 -0.4592
  694MOL0     H95720   3.321   7.369  10.088  2.5127 -1.4176 -0.9507
  694MOL0     H95721   3.230   7.731  10.051  0.3713 -0.5545  1.0719
  694MOL0     H95722   2.859   7.764  10.126  1.7875 -2.2252 -2.4303
  694MOL0     H95723   2.986   7.870  10.078 -0.3122 -1.0961 -0.9847
  694MOL0     H95724   2.875   7.954  10.278  2.0077  2.2729  0.3495
  694MOL0     H95725   2.927   7.798  10.363 -0.4063 -0.9018 -1.3893
  694MOL0     H95726   3.147   7.861  10.326  0.0975  0.6844 -0.7756
  694MOL0     H95727   3.106   8.018  10.248  0.0113 -0.0157 -0.8619
  694MOL0     H95728   3.178   8.054  10.482  0.2895 -1.1102  0.4648
  694MOL0     H95729   3.027   8.120  10.445 -0.1766 -0.3076  3.3244
  694MOL0     H95730   3.009   8.181  10.722 -1.9995  0.9469  2.0038
  694MOL0     H95731   2.791   8.280  10.934  1.1710 -0.3750  0.2764
  694MOL0     H95732   2.751   8.391  10.809 -1.1606 -0.9189  2.7395
  694MOL0     H95733   2.919   8.339  10.844  0.0279  1.8581  0.2558
  694MOL0     H95734   2.610   8.544  10.805  0.1859 -0.2887  0.2637
  694MOL0     H95735   2.523   8.766  10.694 -1.7029  0.4239  0.0299
  694MOL0     H95736   2.401   8.837  10.344 -0.1817  4.5587  1.1503
  694MOL0     H95737   2.287   8.704  10.362  1.8586 -0.3244 -0.1723
  694MOL0     H95738   2.241   8.987  10.419  2.1391 -0.9680  2.5794
  694MOL0     H95739   2.179   8.903  10.268 -0.6351 -0.3966 -0.1814
  694MOL0     H95740   2.103   8.823  10.532  1.3472  3.6159  0.2811
  694MOL0     H95741   2.025   8.768  10.373  4.0783 -1.0320 -3.3319
  694MOL0     H95742   1.938   8.999  10.347  0.5384  0.3936  0.4466
  694MOL0     H95743   2.023   9.035  10.503 -0.4357  2.3720 -1.5718
  694MOL0     H95744   1.803   8.833  10.451  3.3913  1.5819 -2.7738
  694MOL0     H95745   1.869   8.853  10.613  0.8414 -0.7742 -0.5325
  694MOL0     H95746   1.723   9.053  10.452 -0.0458 -0.6971 -0.6599
  694MOL0     H95747   1.808   9.095  10.599 -1.8575  2.4117 -1.6127
  694MOL0     H95748   1.559   9.068  10.619 -0.4943  0.2611 -0.2667
  694MOL0     H95749   1.638   8.969  10.737  2.0571  2.0787  0.7758
  694MOL0     H95750   1.462   8.852  10.625 -0.1853  1.3236  0.7268
  694MOL0     H95751   1.603   8.769  10.564  0.8850  0.3387 -0.6287
  694MOL0     H95752   2.236   8.529  10.480 -0.1705 -1.8006  0.1463
  694MOL0     H95753   2.304   8.339  10.592 -1.9807  0.6494  0.8662
  694MOL0     H95754   2.573   7.983  10.580 -0.5010  1.6735  0.9196
  694MOL0     H95755   2.785   7.877  10.522 -1.9908  0.3998  1.8310
  694MOL0     H95756   4.107   8.208  10.582 -0.0503 -1.5451 -3.6300
  694MOL0     H95757   4.244   8.209  10.772 -2.1414  1.1421 -1.3253
  694MOL0     H95758   4.276   8.009  11.161 -0.7192  0.3931  0.0206
  694MOL0     H95759   4.315   7.970  11.383 -0.6462 -0.3522 -0.2584
  694MOL0     H95760   4.491   8.050  11.563  0.8053  0.5685  0.6102
  694MOL0     H95761   4.384   7.927  11.628 -2.0704  3.3031 -1.1299
  694MOL0     H95762   4.586   8.024  11.767  1.2715  1.8871 -2.0714
  694MOL0     H95763   4.695   7.956  11.644  1.2570 -4.1656  1.1996
  694MOL0     H95764   4.661   7.736  11.703  0.7866  0.6114 -0.3190
  694MOL0     H95765   4.681   7.817  11.859 -2.2609  2.5936  1.3770
  694MOL0     H95766   4.437   7.714  11.716  2.9484  0.3367 -0.2397
  694MOL0     H95767   4.408   7.840  11.838 -0.1238  0.0271  0.3062
  694MOL0     H95768   4.493   7.471  12.059 -0.1083 -2.1354 -2.8820
  694MOL0     H95769   4.704   7.810  11.297  0.1649 -0.6135  1.0193
  694MOL0     H95770   4.734   7.926  10.986  0.0809  0.7213 -0.1696
  694MOL0     H95771   4.781   7.791  11.081 -2.0160 -0.3408  3.5562
  694MOL0     H95772   4.674   7.764  10.944 -0.1766 -1.3915  0.9727
  695MOL0     O95773   4.466   8.692   4.087  0.5395  0.4547  0.3833
  695MOL0     C95774   4.389   8.780   4.059 -0.7601 -0.8878  0.1111
  695MOL0     O95775   4.421   8.900   4.000 -0.4976 -0.3124  0.0582
  695MOL0     C95776   4.539   8.915   3.938  0.0868 -0.1792 -0.7844
  695MOL0     C95777   4.570   8.822   3.848 -0.2032  1.1084 -0.2376
  695MOL0     C95778   4.687   8.826   3.773 -1.0129 -0.3919 -0.4163
  695MOL0     C95779   4.774   8.936   3.775 -0.8492 -0.5662  0.5751
  695MOL0     O95780   4.875   8.963   3.684 -0.3703  0.8892  0.2772
  695MOL0     C95781   4.907   8.854   3.604 -0.6023 -0.0547  0.1884
  695MOL0     C95782   5.003   8.894   3.493 -0.0122 -0.5179  0.3289
  695MOL0     C95783   5.019   9.048   3.457  0.4686  0.1003  0.3661
  695MOL0     C95784   5.058   9.060   3.311  0.3847  0.5893 -0.7289
  695MOL0     C95785   5.079   9.206   3.264 -0.4706 -0.2479 -0.2114
  695MOL0     C95786   5.185   9.231   3.151  0.1690  0.1245 -0.9798
  695MOL0     C95787   5.152   9.135   3.037 -0.4477  0.3771  0.9871
  695MOL0     C95788   5.220   9.179   2.905 -0.5376  1.4819 -1.1292
  695MOL0     N95789   5.350   9.109   2.897  0.8019  0.1030  0.7505
  695MOL0     C95790   5.465   9.168   2.938 -0.5842  0.6480 -0.6068
  695MOL0     C95791   5.563   9.097   2.888  0.5432 -0.0462  0.8117
  695MOL0     C95792   5.713   9.112   2.887 -0.0695  0.6985 -0.0214
  695MOL0     C95793   5.788   8.988   2.929  0.1125 -0.4742 -0.5268
  695MOL0     C95794   5.937   8.988   2.886  0.1958  0.0909 -0.1491
  695MOL0     C95795   6.002   8.854   2.928  0.5393 -1.1098  0.1113
  695MOL0     O95796   6.144   8.845   2.914  0.0949  0.3018  0.1451
  695MOL0     C95797   6.221   8.860   3.029  0.0776  1.2268  0.0085
  695MOL0     C95798   6.221   8.983   3.094 -0.7414  1.0575 -0.3494
  695MOL0     C95799   6.277   8.988   3.225 -0.2129  0.0076  0.7122
  695MOL0     C95800   6.284   9.131   3.282  0.8119  0.1410  1.3384
  695MOL0     C95801   6.349   8.876   3.276  0.1058 -0.0947 -0.7299
  695MOL0     C95802   6.427   8.880   3.405 -0.0128  0.1059 -0.0344
  695MOL0     O95803   6.462   8.761   3.462  0.0822 -0.1542  0.0792
  695MOL0     C95804   6.524   8.776   3.576 -0.1013 -0.0358 -1.1186
  695MOL0     C95805   6.663   8.816   3.587  0.5921  0.6120 -0.2681
  695MOL0     C95806   6.718   8.840   3.710 -0.9167  0.3794 -0.5645
  695MOL0     C95807   6.646   8.830   3.826  1.0451  0.0972 -1.0876
  695MOL0     O95808   6.717   8.856   3.936 -0.5215  0.9244  0.0673
  695MOL0     C95809   6.708   8.769   4.050  0.2438  0.2474  0.5251
  695MOL0     C95810   6.715   8.848   4.180  0.2965  0.7416 -0.0248
  695MOL0     C95811   6.669   8.761   4.306 -0.6603  0.3206 -0.8402
  695MOL0     C95812   6.629   8.842   4.422 -0.4212  0.2258 -0.1955
  695MOL0     C95813   6.558   8.760   4.527  0.7119  0.1100 -0.6770
  695MOL0     C95814   6.409   8.733   4.508 -0.2348 -0.1441  0.7802
  695MOL0     C95815   6.347   8.662   4.620 -0.3189  1.0056  0.5091
  695MOL0     C95816   6.198   8.619   4.595 -0.0903 -0.0418  0.8053
  695MOL0    Cl95817   6.163   8.536   4.442  0.0386 -0.0045 -0.0697
  695MOL0     C95818   6.507   8.803   3.822 -0.7060  1.1007 -0.2381
  695MOL0     C95819   6.448   8.771   3.697 -0.3678 -0.5237  0.5770
  695MOL0     O95820   6.479   8.983   3.436 -0.0259 -0.3713  0.0737
  695MOL0     C95821   6.326   8.752   3.220 -0.0235  0.1138  0.3090
  695MOL0     C95822   6.262   8.738   3.094  0.3238 -0.0233  0.3365
  695MOL0     N95823   5.510   8.988   2.814  0.0681  0.2561 -0.7457
  695MOL0     N95824   5.381   9.005   2.821 -0.3235 -0.3609 -0.0306
  695MOL0     C95825   4.755   9.029   3.877 -1.1002  0.2170  0.1574
  695MOL0     C95826   4.632   9.020   3.951 -0.2433  0.2504  0.5575
  695MOL0     C95827   4.249   8.763   4.106  0.4332 -0.5940 -0.4291
  695MOL0     C95828   4.193   8.871   4.179  0.3573  0.6035 -0.4957
  695MOL0     C95829   4.050   8.863   4.219  0.4439 -0.4240  0.0891
  695MOL0     C95830   3.979   8.739   4.187  1.1109 -0.8213 -0.0544
  695MOL0     O95831   3.847   8.711   4.210 -0.8618  0.1034  0.3084
  695MOL0     C95832   3.763   8.812   4.264 -0.2490 -1.4151 -0.3077
  695MOL0     C95833   3.695   8.892   4.145  0.4626 -1.5319 -1.5777
  695MOL0     C95834   3.578   8.817   4.079 -0.3519 -0.2353  0.1394
  695MOL0     C95835   3.526   8.890   3.951 -0.6920  0.9738 -1.0589
  695MOL0     C95836   3.400   8.819   3.918 -0.9870  0.5659  0.2795
  695MOL0     C95837   3.298   8.759   3.884 -0.6275  1.3724  0.1684
  695MOL0     C95838   4.043   8.640   4.116  0.4226 -0.0236 -0.3973
  695MOL0     C95839   4.173   8.653   4.070 -0.0340  0.5868 -0.9515
  695MOL0     C95840   4.229   8.544   3.990 -0.0144  0.5683  0.3537
  695MOL0     H95841   4.514   8.729   3.841  0.4843  0.7346 -0.9587
  695MOL0     H95842   4.703   8.741   3.708 -1.8094 -0.5504 -0.4222
  695MOL0     H95843   4.817   8.824   3.549 -0.3402 -0.2353 -0.1422
  695MOL0     H95844   4.959   8.775   3.659 -0.4237 -0.9798 -1.2569
  695MOL0     H95845   5.107   8.866   3.512  0.0899 -1.4330 -1.3841
  695MOL0     H95846   4.967   8.847   3.401  1.8992 -0.7361 -0.3454
  695MOL0     H95847   4.924   9.102   3.463  0.9738  1.3954 -2.0986
  695MOL0     H95848   5.086   9.104   3.523 -0.5810  0.9413  0.7508
  695MOL0     H95849   5.154   9.011   3.293 -0.0496  0.9193 -4.9887
  695MOL0     H95850   4.990   9.007   3.244  1.2330  0.8381 -1.8263
  695MOL0     H95851   5.097   9.270   3.350 -2.0806 -1.0541  0.7684
  695MOL0     H95852   4.981   9.244   3.232  0.2145  2.5644  0.7713
  695MOL0     H95853   5.189   9.334   3.112  1.4801  1.2109  1.7855
  695MOL0     H95854   5.284   9.208   3.190  0.9001  1.8852 -1.6482
  695MOL0     H95855   5.046   9.133   3.009 -0.1009  0.8585 -0.4048
  695MOL0     H95856   5.172   9.029   3.054  0.1024 -0.3151 -2.9759
  695MOL0     H95857   5.168   9.146   2.814 -1.3972  1.9928 -0.8393
  695MOL0     H95858   5.236   9.287   2.904 -1.6733  1.7865  2.3356
  695MOL0     H95859   5.462   9.253   3.005 -1.2957  1.1442 -1.2428
  695MOL0     H95860   5.744   9.191   2.957 -0.0955  1.0385 -0.3891
  695MOL0     H95861   5.750   9.150   2.791  0.4621  0.1772 -0.0291
  695MOL0     H95862   5.780   8.979   3.038 -0.9090  2.6474 -0.2374
  695MOL0     H95863   5.732   8.902   2.891 -3.2412 -0.4229  3.5483
  695MOL0     H95864   5.945   8.992   2.777  1.0361 -1.3392 -0.1650
  695MOL0     H95865   5.985   9.070   2.941  1.0220  0.1041 -0.8783
  695MOL0     H95866   5.985   8.851   3.036  2.1366  1.6976  0.5374
  695MOL0     H95867   5.953   8.776   2.868  1.8470 -2.4780  0.7515
  695MOL0     H95868   6.187   9.074   3.044 -0.8871  1.1910 -0.0138
  695MOL0     H95869   6.387   9.169   3.278  1.4094 -1.4423  1.0315
  695MOL0     H95870   6.248   9.132   3.385  2.2622 -0.5210  1.8805
  695MOL0     H95871   6.227   9.202   3.222  0.3088  0.0993  1.7645
  695MOL0     H95872   6.722   8.830   3.497 -2.0833  0.4421 -2.1829
  695MOL0     H95873   6.823   8.867   3.705 -1.5408  2.9041 -4.1134
  695MOL0     H95874   6.609   8.722   4.045 -0.9847  2.8075 -1.7951
  695MOL0     H95875   6.782   8.689   4.049  0.3526  0.3396  1.2164
  695MOL0     H95876   6.813   8.892   4.197  0.8324 -0.7258  0.7845
  695MOL0     H95877   6.641   8.926   4.161  1.4406  1.5474 -1.3760
  695MOL0     H95878   6.755   8.696   4.326 -1.3981 -0.9619 -1.6549
  695MOL0     H95879   6.585   8.698   4.275  2.7017 -4.1682 -1.9528
  695MOL0     H95880   6.568   8.927   4.390  0.4173  0.3772 -1.4386
  695MOL0     H95881   6.719   8.889   4.462  0.1308 -1.7121  0.9657
  695MOL0     H95882   6.605   8.662   4.543 -1.4899 -0.7061  1.6389
  695MOL0     H95883   6.569   8.808   4.625 -0.0171 -1.2139  0.0938
  695MOL0     H95884   6.407   8.677   4.414 -1.1883  0.0936  0.6387
  695MOL0     H95885   6.356   8.823   4.473  0.6577 -0.0992 -0.5316
  695MOL0     H95886   6.336   8.721   4.712 -3.6188  1.6617 -0.1756
  695MOL0     H95887   6.402   8.571   4.644  1.4150  1.8334 -0.1435
  695MOL0     H95888   6.141   8.712   4.585 -0.8253 -0.6657 -1.2183
  695MOL0     H95889   6.154   8.566   4.680  0.6437  0.4999  1.5339
  695MOL0     H95890   6.446   8.794   3.911  0.1499  0.5192  0.3163
  695MOL0     H95891   6.344   8.743   3.685  0.1466 -2.6624  0.6391
  695MOL0     H95892   6.379   8.663   3.252 -1.8317 -1.0950  0.1362
  695MOL0     H95893   6.237   8.647   3.042 -2.6327  0.8488  0.0754
  695MOL0     H95894   4.826   9.109   3.892  0.7881 -0.5889 -3.3392
  695MOL0     H95895   4.616   9.102   4.020 -0.3778  2.2551 -1.7236
  695MOL0     H95896   4.249   8.960   4.205  0.6403  0.8922 -2.0352
  695MOL0     H95897   4.003   8.949   4.266  0.3871 -0.5331  0.2333
  695MOL0     H95898   3.686   8.785   4.337 -1.0790  1.4734 -0.0038
  695MOL0     H95899   3.821   8.879   4.327  2.2406 -2.3241 -1.5140
  695MOL0     H95900   3.768   8.913   4.066  0.5786 -0.5211 -1.2128
  695MOL0     H95901   3.677   8.991   4.187 -1.4857 -1.3803 -2.6479
  695MOL0     H95902   3.619   8.720   4.050  0.0438 -0.2832  0.8404
  695MOL0     H95903   3.497   8.807   4.152 -1.5989 -0.1845 -1.1843
  695MOL0     H95904   3.594   8.898   3.865 -0.0684  2.4434 -0.4545
  695MOL0     H95905   3.500   8.992   3.980  1.3688  1.6737 -1.5143
  695MOL0     H95906   3.200   8.717   3.869  0.2377 -0.1791 -1.5861
  695MOL0     H95907   3.992   8.545   4.103  0.4323 -0.5871  2.7110
  695MOL0     H95908   4.310   8.491   4.040 -1.3225 -1.2594  0.6376
  695MOL0     H95909   4.156   8.465   3.966  0.1789  0.6444 -0.5092
  695MOL0     H95910   4.269   8.588   3.898 -0.0634  0.2128  0.1577
  696MOL0     O95911   5.728   0.672   9.008 -0.0974 -0.4185  0.7415
  696MOL0     C95912   5.766   0.779   9.037  0.1428  0.0625 -0.1481
  696MOL0     O95913   5.831   0.811   9.147  0.8836  0.1457 -0.8365
  696MOL0     C95914   5.824   0.728   9.257 -0.5653 -0.1150 -0.2401
  696MOL0     C95915   5.931   0.659   9.296  0.3958  0.4254  0.6783
  696MOL0     C95916   5.925   0.592   9.424 -0.1828  0.1777  0.2377
  696MOL0     C95917   5.812   0.588   9.503 -0.1864  0.2614  0.1242
  696MOL0     O95918   5.817   0.512   9.616 -0.5013  0.0909  0.0650
  696MOL0     C95919   5.827   0.604   9.727 -0.2793  0.0088  1.0077
  696MOL0     C95920   5.899   0.540   9.846  0.1269  0.5963 -0.4691
  696MOL0     C95921   5.909   0.656   9.952  0.2662  0.1919  0.2882
  696MOL0     C95922   6.049   0.709   9.938  0.4195 -0.8795  1.7129
  696MOL0     C95923   6.078   0.839  10.024 -0.0384  0.6899 -0.1931
  696MOL0     C95924   6.001   0.969   9.999  0.1207  0.1033 -0.1855
  696MOL0     C95925   6.020   1.030   9.863  1.1482 -0.1985  0.2421
  696MOL0     C95926   5.937   1.162   9.842 -0.4383 -0.2705 -0.7148
  696MOL0     N95927   5.795   1.155   9.869  0.2015  0.9472  0.0620
  696MOL0     C95928   5.694   1.101   9.796  0.0194 -0.0319  0.9814
  696MOL0     C95929   5.587   1.120   9.880 -0.2362 -0.9436  0.1307
  696MOL0     C95930   5.452   1.082   9.851  0.8244  0.3016 -0.6804
  696MOL0     C95931   5.359   1.176   9.761 -0.3392  0.0418  0.3767
  696MOL0     C95932   5.357   1.312   9.827  0.9171  0.4968  0.5595
  696MOL0     C95933   5.246   1.330   9.927  0.0919 -0.3884 -0.7488
  696MOL0     O95934   5.219   1.469   9.966 -0.4866 -0.2109 -0.2933
  696MOL0     C95935   5.128   1.470  10.057 -0.3777  0.4734  0.3144
  696MOL0     C95936   4.995   1.501  10.018  0.9750  0.4759  0.3631
  696MOL0     C95937   4.889   1.503  10.116 -0.2724  0.3486  0.0439
  696MOL0     C95938   4.761   1.572  10.069 -0.3742 -0.9476 -0.7952
  696MOL0     C95939   4.925   1.481  10.253  0.5042  0.1376 -0.4156
  696MOL0     C95940   4.832   1.510  10.373 -0.1949 -0.6726 -0.0473
  696MOL0     O95941   4.883   1.518  10.498  0.0551 -0.1654  0.0210
  696MOL0     C95942   4.824   1.605  10.580 -0.1512 -0.8312  0.5799
  696MOL0     C95943   4.759   1.556  10.687 -0.2321  0.0662 -0.0989
  696MOL0     C95944   4.703   1.636  10.786 -0.1958 -0.0562  0.2940
  696MOL0     C95945   4.714   1.774  10.777  0.1885  0.9832 -0.2079
  696MOL0     O95946   4.679   1.855  10.884 -0.4558  0.1773 -0.2214
  696MOL0     C95947   4.544   1.855  10.926  0.6452 -0.6622 -0.4783
  696MOL0     C95948   4.539   1.824  11.076  0.3707  0.1401  0.5086
  696MOL0     C95949   4.394   1.833  11.121 -0.6141  0.5656 -0.3784
  696MOL0     C95950   4.381   1.820  11.268  1.6096  0.7140 -0.2400
  696MOL0     C95951   4.437   1.941  11.342 -0.3824 -0.4750 -0.3704
  696MOL0     C95952   4.421   1.932  11.499 -0.1765 -0.4086 -0.2759
  696MOL0     C95953   4.280   1.921  11.549  0.2968 -0.1462  1.1000
  696MOL0     C95954   4.214   2.064  11.547 -0.5116 -0.1301  0.1077
  696MOL0    Cl95955   4.036   2.039  11.545 -0.2822 -0.5630  0.0423
  696MOL0     C95956   4.778   1.825  10.660 -0.5651  0.2830 -1.1793
  696MOL0     C95957   4.829   1.743  10.559  0.0923  0.2656  0.2139
  696MOL0     O95958   4.716   1.522  10.348 -0.2074  0.3344  0.4979
  696MOL0     C95959   5.052   1.430  10.288  0.3093  0.1411  0.9272
  696MOL0     C95960   5.150   1.424  10.189 -0.1368 -0.1824 -0.3100
  696MOL0     N95961   5.622   1.202   9.989 -0.1349  0.3454 -1.0559
  696MOL0     N95962   5.742   1.228   9.977  0.1416  0.2447 -0.2413
  696MOL0     C95963   5.698   0.648   9.459 -0.0166 -0.5362 -0.4682
  696MOL0     C95964   5.708   0.724   9.337 -0.7284 -0.3582 -0.5519
  696MOL0     C95965   5.756   0.876   8.928 -0.3621  0.9838  0.0815
  696MOL0     C95966   5.779   1.005   8.971 -0.4373 -0.8703  0.0492
  696MOL0     C95967   5.757   1.109   8.885 -0.0749  0.4737 -0.1427
  696MOL0     C95968   5.733   1.099   8.748  0.6216  0.5357 -0.4410
  696MOL0     O95969   5.692   1.214   8.684  0.8111  0.2287  0.4291
  696MOL0     C95970   5.676   1.217   8.542 -0.4531 -0.1818 -0.1334
  696MOL0     C95971   5.543   1.149   8.506  0.4422  0.4616  0.0056
  696MOL0     C95972   5.425   1.248   8.489  0.1059 -0.2665 -0.0190
  696MOL0     C95973   5.290   1.168   8.513  1.0835 -0.1689  0.6627
  696MOL0     C95974   5.259   1.081   8.399  0.7054  0.5971  0.1422
  696MOL0     C95975   5.234   1.005   8.308 -0.2947  0.6440 -0.4692
  696MOL0     C95976   5.710   0.968   8.706 -0.9666 -0.3628  0.1857
  696MOL0     C95977   5.715   0.851   8.794 -0.1859 -0.1562  0.1086
  696MOL0     C95978   5.683   0.713   8.726  0.9009  0.0951  0.6074
  696MOL0     H95979   6.028   0.666   9.247 -0.1275  1.1046 -0.3058
  696MOL0     H95980   6.010   0.542   9.468  0.0070 -0.0818 -0.4155
  696MOL0     H95981   5.724   0.618   9.762 -0.6252 -3.1355  1.5085
  696MOL0     H95982   5.878   0.697   9.699  0.1687 -1.3919 -3.6256
  696MOL0     H95983   5.847   0.456   9.892 -0.4102  2.1981  2.0768
  696MOL0     H95984   6.002   0.512   9.825  1.1980  3.1412  0.8994
  696MOL0     H95985   5.854   0.743   9.915  2.6008  0.5278 -2.8392
  696MOL0     H95986   5.892   0.620  10.054 -1.7172 -2.6138 -0.9277
  696MOL0     H95987   6.122   0.634   9.969  0.7600 -1.0632  0.5188
  696MOL0     H95988   6.070   0.731   9.833  0.4738 -1.9236  1.4963
  696MOL0     H95989   6.184   0.857  10.006  0.0854  1.3076  1.0106
  696MOL0     H95990   6.080   0.812  10.130 -0.5542 -0.0463 -0.3630
  696MOL0     H95991   5.893   0.956  10.012  0.4088 -1.2760  1.0322
  696MOL0     H95992   6.019   1.042  10.077  0.8994 -0.1679 -0.1103
  696MOL0     H95993   5.995   0.969   9.776  3.0525  1.0743 -1.2941
  696MOL0     H95994   6.125   1.056   9.846  0.7455  1.3515 -0.0402
  696MOL0     H95995   5.987   1.233   9.909 -0.2596 -2.0931  1.1983
  696MOL0     H95996   5.941   1.184   9.735 -0.7034 -2.3816 -1.1988
  696MOL0     H95997   5.700   1.048   9.701  2.6335 -0.8260  1.5306
  696MOL0     H95998   5.405   1.070   9.948  1.0278 -1.1740 -0.7427
  696MOL0     H95999   5.448   0.984   9.802 -0.5546 -0.2956  0.5690
  696MOL0     H96000   5.415   1.188   9.667 -2.0608 -2.9305 -1.1652
  696MOL0     H96001   5.259   1.133   9.753 -0.7457  1.1021 -0.5180
  696MOL0     H96002   5.457   1.350   9.852  1.4498 -1.1888  1.1102
  696MOL0     H96003   5.319   1.384   9.754  2.5036  0.9841  0.1627
  696MOL0     H96004   5.153   1.295   9.882 -0.6653  1.1764 -0.4608
  696MOL0     H96005   5.265   1.263  10.012  2.2662 -2.7453 -2.9226
  696MOL0     H96006   4.971   1.546   9.922 -0.4230  0.7089  0.7977
  696MOL0     H96007   4.754   1.664  10.127  1.3847 -1.7083  0.7202
  696MOL0     H96008   4.679   1.506  10.098  0.6755 -1.2019  1.7893
  696MOL0     H96009   4.758   1.579   9.960  2.2493 -0.2557 -0.8946
  696MOL0     H96010   4.742   1.449  10.696 -0.2025 -0.2354 -2.8338
  696MOL0     H96011   4.654   1.595  10.874  2.0647 -0.2669  1.5460
  696MOL0     H96012   4.496   1.950  10.898 -0.9928 -1.2255  0.3702
  696MOL0     H96013   4.488   1.777  10.874 -0.4554 -0.0614 -0.2217
  696MOL0     H96014   4.567   1.719  11.076  0.2492  0.0981 -0.8972
  696MOL0     H96015   4.615   1.882  11.129  1.0873 -1.3569  1.1873
  696MOL0     H96016   4.328   1.759  11.074 -1.3970  1.8976 -1.4261
  696MOL0     H96017   4.359   1.928  11.080 -0.4012  0.3072 -1.1933
  696MOL0     H96018   4.426   1.729  11.309 -2.2034 -2.2560 -2.0100
  696MOL0     H96019   4.276   1.797  11.291  1.9430  2.3408  3.7495
  696MOL0     H96020   4.544   1.947  11.319 -0.1958 -0.9432  0.3308
  696MOL0     H96021   4.393   2.033  11.302  1.7018  1.0161  0.5913
  696MOL0     H96022   4.480   2.009  11.549  0.6922 -1.7971  0.9104
  696MOL0     H96023   4.467   1.838  11.532 -2.1169 -0.7732  1.6144
  696MOL0     H96024   4.284   1.871  11.646  3.0927 -4.2156 -0.7864
  696MOL0     H96025   4.219   1.850  11.492  0.3345  1.0162 -0.4858
  696MOL0     H96026   4.234   2.126  11.458 -1.4875 -0.9005 -0.6700
  696MOL0     H96027   4.241   2.120  11.637  1.4204  0.3116 -0.6780
  696MOL0     H96028   4.782   1.933  10.654  0.2775  0.2805 -0.8618
  696MOL0     H96029   4.880   1.793  10.477  1.0850 -2.1757 -0.7298
  696MOL0     H96030   5.061   1.409  10.394 -2.6676  0.4647  1.3472
  696MOL0     H96031   5.246   1.377  10.210 -0.6097 -1.3682 -0.7288
  696MOL0     H96032   5.604   0.617   9.503 -0.2449 -2.7702 -2.3156
  696MOL0     H96033   5.624   0.787   9.310 -0.7735  0.3728  1.1331
  696MOL0     H96034   5.810   1.028   9.072 -2.5708 -0.3050  0.6313
  696MOL0     H96035   5.751   1.210   8.924  1.0850 -0.3499  2.3778
  696MOL0     H96036   5.676   1.322   8.513 -3.5927  0.2334  0.9691
  696MOL0     H96037   5.760   1.173   8.488 -1.8446  0.3575 -2.8746
  696MOL0     H96038   5.529   1.058   8.565  2.1107 -0.3208 -0.7498
  696MOL0     H96039   5.560   1.110   8.405  0.6114  0.5156  0.0142
  696MOL0     H96040   5.429   1.331   8.561 -0.4219 -0.1726 -0.0961
  696MOL0     H96041   5.424   1.292   8.389 -0.5684  0.8707  0.4704
  696MOL0     H96042   5.215   1.246   8.527  2.4876  1.3335  0.1330
  696MOL0     H96043   5.288   1.106   8.603 -0.9961 -0.8440  0.2049
  696MOL0     H96044   5.237   0.947   8.218  2.1933 -1.1952  0.6932
  696MOL0     H96045   5.691   0.953   8.601 -1.9796 -0.1930  0.3323
  696MOL0     H96046   5.687   0.723   8.617  4.0152 -0.3339  0.5799
  696MOL0     H96047   5.762   0.645   8.761  2.2166  1.1389 -0.2387
  696MOL0     H96048   5.584   0.677   8.757  1.1821  0.7004  2.3424
  697MOL0     O96049   3.692   5.114   3.262 -0.5449 -0.3240  0.2013
  697MOL0     C96050   3.620   5.041   3.334 -1.0490  0.2340 -0.7346
  697MOL0     O96051   3.478   5.043   3.329 -0.7038 -0.7537  0.5413
  697MOL0     C96052   3.407   5.095   3.219 -0.5768 -0.7651 -0.1079
  697MOL0     C96053   3.290   5.173   3.237  0.8461 -0.0985 -0.3678
  697MOL0     C96054   3.214   5.227   3.134 -0.7476  1.0419 -0.4351
  697MOL0     C96055   3.257   5.207   3.001  0.2819  0.5526  0.4840
  697MOL0     O96056   3.184   5.240   2.883 -0.0412  0.5764  0.4944
  697MOL0     C96057   3.255   5.323   2.784  0.2553  0.0577 -0.8853
  697MOL0     C96058   3.178   5.450   2.764  0.9185  0.1059  0.3787
  697MOL0     C96059   3.165   5.521   2.895  1.0029 -0.0611 -0.3517
  697MOL0     C96060   3.012   5.524   2.938 -0.5701  0.5743  0.1912
  697MOL0     C96061   2.996   5.569   3.085  1.0455 -1.0120  0.8585
  697MOL0     C96062   2.845   5.560   3.133  0.0279 -0.8806 -0.6306
  697MOL0     C96063   2.853   5.593   3.279  0.1326 -1.1774  0.3820
  697MOL0     C96064   2.713   5.593   3.333  0.5612 -0.7908 -0.4068
  697MOL0     N96065   2.641   5.461   3.354  0.1045  0.1250 -0.4653
  697MOL0     C96066   2.529   5.443   3.439  0.5075 -0.1550  0.2838
  697MOL0     C96067   2.504   5.308   3.436 -0.2808 -0.1020 -0.4392
  697MOL0     C96068   2.408   5.216   3.521 -0.7369  0.0674  0.3563
  697MOL0     C96069   2.460   5.171   3.662 -0.7033 -0.0092  1.0620
  697MOL0     C96070   2.579   5.077   3.663 -0.2169  0.3186  0.4654
  697MOL0     C96071   2.600   5.006   3.794  0.3581 -0.3775  0.1812
  697MOL0     O96072   2.722   4.944   3.793  0.0026  0.2153 -0.4158
  697MOL0     C96073   2.769   4.869   3.903 -0.3861 -0.3310 -0.0739
  697MOL0     C96074   2.895   4.809   3.889 -0.5862 -0.0542 -0.6389
  697MOL0     C96075   2.958   4.748   4.004  0.3118  0.0183 -0.3318
  697MOL0     C96076   3.102   4.701   3.982 -0.5809  0.0534  0.8765
  697MOL0     C96077   2.892   4.743   4.133  0.2518  0.9396  0.8685
  697MOL0     C96078   2.933   4.650   4.254 -0.3632 -0.1341  0.5866
  697MOL0     O96079   2.862   4.676   4.367 -0.0619  0.8315 -0.1700
  697MOL0     C96080   2.873   4.599   4.480  0.3836  0.1619  0.8718
  697MOL0     C96081   2.995   4.557   4.526 -0.1645  0.3547  1.0198
  697MOL0     C96082   2.997   4.487   4.646 -0.0791 -0.2407  0.1605
  697MOL0     C96083   2.875   4.467   4.722 -0.0467 -0.1592  0.6858
  697MOL0     O96084   2.866   4.404   4.843  0.2634 -0.2262 -0.0073
  697MOL0     C96085   2.983   4.372   4.923 -0.0629 -0.0946 -0.5315
  697MOL0     C96086   3.034   4.235   4.892  0.2429 -1.1409  0.2233
  697MOL0     C96087   3.152   4.194   4.977 -0.4221 -1.2525 -0.7148
  697MOL0     C96088   3.209   4.063   4.928 -0.5489  0.6763  0.4610
  697MOL0     C96089   3.338   4.034   5.011  0.0896  0.1637 -0.4175
  697MOL0     C96090   3.315   4.017   5.162  0.6968  0.7996  0.0325
  697MOL0     C96091   3.361   4.118   5.265  0.7698 -0.4540 -0.4186
  697MOL0     C96092   3.326   4.096   5.410 -0.4479 -0.4629 -0.0410
  697MOL0    Cl96093   3.402   3.941   5.462  0.2202 -0.0807 -0.1394
  697MOL0     C96094   2.755   4.522   4.674 -0.3666  0.6619 -0.1786
  697MOL0     C96095   2.754   4.587   4.551  0.2203 -0.4567 -0.1028
  697MOL0     O96096   3.016   4.557   4.228  0.7347 -0.3645  0.0755
  697MOL0     C96097   2.781   4.821   4.145  0.3568 -0.3763 -0.1718
  697MOL0     C96098   2.714   4.864   4.032  0.6928 -0.2820  0.5500
  697MOL0     N96099   2.593   5.257   3.338  0.6644 -0.1976 -0.1421
  697MOL0     N96100   2.693   5.337   3.324  0.2330  0.0631 -0.2482
  697MOL0     C96101   3.374   5.131   2.980 -0.2537  0.3884 -0.3177
  697MOL0     C96102   3.454   5.084   3.082  0.4542 -0.1765  0.0032
  697MOL0     C96103   3.673   4.923   3.412  1.2740 -0.3141  0.8208
  697MOL0     C96104   3.576   4.817   3.456 -1.1198  0.2181 -0.3636
  697MOL0     C96105   3.623   4.723   3.555 -0.1778 -0.7366 -0.1121
  697MOL0     C96106   3.755   4.731   3.603  1.0744  0.2445  0.6222
  697MOL0     O96107   3.789   4.626   3.682  0.3020 -0.4965  0.0524
  697MOL0     C96108   3.918   4.617   3.743  0.1982  0.9529 -0.8963
  697MOL0     C96109   3.930   4.490   3.822  0.0508  0.6555  0.4786
  697MOL0     C96110   4.075   4.443   3.853 -0.8089  0.3696 -0.1176
  697MOL0     C96111   4.074   4.298   3.902  0.2034 -0.9447  0.7253
  697MOL0     C96112   3.984   4.279   4.023 -0.2455 -0.4565  0.3288
  697MOL0     C96113   3.918   4.278   4.128  0.4411 -0.1786  0.5871
  697MOL0     C96114   3.838   4.829   3.561 -0.1863 -0.5317 -0.2518
  697MOL0     C96115   3.803   4.924   3.470 -0.3035 -0.8137  0.2184
  697MOL0     C96116   3.910   5.020   3.438 -0.7947  0.2024 -0.6027
  697MOL0     H96117   3.242   5.173   3.334 -1.9853  1.2353 -1.6484
  697MOL0     H96118   3.127   5.288   3.157 -0.6644  1.0910 -0.2489
  697MOL0     H96119   3.265   5.256   2.698  1.1762 -0.7162 -0.1897
  697MOL0     H96120   3.354   5.355   2.819  0.4915 -1.4981 -0.0657
  697MOL0     H96121   3.232   5.515   2.696  1.4170 -0.6045  0.0901
  697MOL0     H96122   3.077   5.430   2.727  0.7191 -0.1996  1.0558
  697MOL0     H96123   3.225   5.480   2.976  0.2393 -0.0313  0.2391
  697MOL0     H96124   3.200   5.621   2.867  0.4094  0.0471 -0.7264
  697MOL0     H96125   2.949   5.583   2.872 -0.0237  0.1741 -0.7017
  697MOL0     H96126   2.984   5.418   2.934 -1.7049  0.7318 -6.0747
  697MOL0     H96127   3.027   5.674   3.088 -0.5273 -0.2126 -3.6424
  697MOL0     H96128   3.062   5.515   3.153  2.3864  0.2897  0.6290
  697MOL0     H96129   2.775   5.628   3.085 -2.2893 -3.4325 -1.1071
  697MOL0     H96130   2.808   5.459   3.116 -2.5470 -0.8059  3.2451
  697MOL0     H96131   2.897   5.691   3.299 -3.5097  0.8910 -0.7228
  697MOL0     H96132   2.907   5.511   3.326  1.0114 -0.9040 -0.1323
  697MOL0     H96133   2.724   5.647   3.428  2.6464  1.4347 -1.7856
  697MOL0     H96134   2.660   5.647   3.254 -0.4897 -4.5488 -2.5033
  697MOL0     H96135   2.472   5.518   3.494  0.3302  1.3811 -1.8520
  697MOL0     H96136   2.381   5.123   3.469  1.4529 -0.4699  0.0436
  697MOL0     H96137   2.315   5.272   3.530 -0.5658  0.1562  1.7498
  697MOL0     H96138   2.493   5.266   3.705  1.1291  0.1070 -0.4757
  697MOL0     H96139   2.377   5.130   3.720 -0.6554 -1.0785  0.4015
  697MOL0     H96140   2.571   5.003   3.583 -0.1901  1.5574 -0.7145
  697MOL0     H96141   2.663   5.141   3.636 -0.9263  1.4878  0.9314
  697MOL0     H96142   2.582   5.073   3.879 -1.5295  1.5351 -1.5825
  697MOL0     H96143   2.519   4.933   3.799 -1.9968  1.5450 -4.2269
  697MOL0     H96144   2.936   4.814   3.788 -1.4461  0.4216 -0.9673
  697MOL0     H96145   3.103   4.685   3.874 -0.7609 -0.1200  0.9006
  697MOL0     H96146   3.125   4.605   4.030 -1.9672 -0.9023 -0.2837
  697MOL0     H96147   3.183   4.770   4.010 -1.0958  1.1693 -0.2886
  697MOL0     H96148   3.085   4.573   4.469 -2.3419  2.0036 -2.2526
  697MOL0     H96149   3.085   4.451   4.697 -1.3662 -4.7279 -0.3157
  697MOL0     H96150   3.047   4.461   4.925 -2.0171  1.3954 -1.4243
  697MOL0     H96151   2.964   4.361   5.030 -0.5559  1.4808 -0.4270
  697MOL0     H96152   2.947   4.173   4.918  0.4661 -3.1120 -3.1710
  697MOL0     H96153   3.042   4.229   4.783 -1.8603  0.4497 -0.0764
  697MOL0     H96154   3.122   4.189   5.082  1.4863 -2.9388 -0.1711
  697MOL0     H96155   3.229   4.271   4.971 -3.7936  2.7995  2.2891
  697MOL0     H96156   3.250   4.088   4.829  1.6454  3.7761  1.9946
  697MOL0     H96157   3.132   3.986   4.929 -0.4673  0.5410  3.3017
  697MOL0     H96158   3.385   3.940   4.980 -0.5077 -0.3645  0.2309
  697MOL0     H96159   3.405   4.119   4.997  0.1638 -0.0286 -1.2775
  697MOL0     H96160   3.361   3.921   5.186 -1.1725 -0.9399 -2.7313
  697MOL0     H96161   3.206   4.011   5.160  0.6656  0.3301 -3.3022
  697MOL0     H96162   3.326   4.218   5.235 -0.7702 -1.3870 -1.9039
  697MOL0     H96163   3.470   4.112   5.259  0.7790 -1.0236  0.1782
  697MOL0     H96164   3.218   4.080   5.421 -0.4713 -0.6555 -0.5031
  697MOL0     H96165   3.352   4.186   5.466 -2.4414  0.5592 -0.6507
  697MOL0     H96166   2.675   4.509   4.747 -1.3398 -4.6487 -1.7618
  697MOL0     H96167   2.664   4.638   4.520  1.7009  2.2227 -0.3554
  697MOL0     H96168   2.740   4.837   4.244  3.6910 -0.9036  1.4530
  697MOL0     H96169   2.616   4.907   4.045  1.5539  1.4998  1.5186
  697MOL0     H96170   3.395   5.098   2.879 -0.9963 -0.2144 -0.2832
  697MOL0     H96171   3.535   5.015   3.062  0.3010 -0.4980  0.4728
  697MOL0     H96172   3.476   4.801   3.417  1.0756 -4.4307 -5.3290
  697MOL0     H96173   3.563   4.637   3.580 -1.2481 -0.3381 -1.2374
  697MOL0     H96174   4.002   4.622   3.673  0.8295 -1.6608 -0.4053
  697MOL0     H96175   3.929   4.712   3.797  0.6768  0.1571  0.4418
  697MOL0     H96176   3.883   4.406   3.770  2.3318 -2.0429  2.4632
  697MOL0     H96177   3.882   4.507   3.919 -1.1103 -1.2653  0.2900
  697MOL0     H96178   4.139   4.453   3.765  0.5951  2.2750  1.0529
  697MOL0     H96179   4.129   4.495   3.932 -1.4229 -0.8776  1.1831
  697MOL0     H96180   4.179   4.278   3.927  1.4512  2.1521 -1.3684
  697MOL0     H96181   4.048   4.235   3.816  0.6729  0.1789 -0.2708
  697MOL0     H96182   3.870   4.289   4.223 -2.3272  1.9714 -0.9074
  697MOL0     H96183   3.941   4.831   3.595  0.1486  2.1318 -1.2010
  697MOL0     H96184   3.934   5.029   3.332 -2.3087 -0.2585 -1.0141
  697MOL0     H96185   3.867   5.117   3.462 -1.6034  0.0435 -1.3557
  697MOL0     H96186   3.995   5.000   3.504 -0.7121  3.2776  0.3986
  698MOL0     O96187  10.687   3.815   2.964  0.3109  0.0220 -0.2146
  698MOL0     C96188  10.574   3.762   2.955  0.2343 -0.3870  0.2557
  698MOL0     O96189  10.526   3.666   3.037  0.4007 -0.6526 -0.2035
  698MOL0     C96190  10.601   3.611   3.133  0.0174 -0.0544 -0.9969
  698MOL0     C96191  10.570   3.634   3.265  0.4669 -0.1820  0.3735
  698MOL0     C96192  10.648   3.575   3.364 -0.1038 -0.1628  0.5840
  698MOL0     C96193  10.756   3.489   3.336 -0.0677 -0.0896  0.5664
  698MOL0     O96194  10.833   3.436   3.426 -0.1336  0.4125 -0.8162
  698MOL0     C96195  10.825   3.292   3.445  0.2374  0.2436 -0.6296
  698MOL0     C96196  10.814   3.256   3.591 -0.1600 -0.2517 -0.0726
  698MOL0     C96197  10.925   3.322   3.669 -0.2151  0.1233  0.4059
  698MOL0     C96198  10.932   3.263   3.812  0.5605 -0.9772 -0.9020
  698MOL0     C96199  11.026   3.141   3.822 -0.4436  0.6420  0.8432
  698MOL0     C96200  11.168   3.174   3.842  0.1124  1.1128 -0.4719
  698MOL0     C96201  11.276   3.071   3.824  0.5151  0.7217  0.4144
  698MOL0     C96202  11.297   3.014   3.678  0.7097 -0.0842 -0.6400
  698MOL0     N96203  11.397   2.899   3.666 -0.9751  0.0901  0.2084
  698MOL0     C96204  11.416   2.834   3.545  0.6031 -0.2017  0.5883
  698MOL0     C96205  11.468   2.717   3.582  0.2470  0.2566  0.3796
  698MOL0     C96206  11.504   2.611   3.486  0.9328  1.0811  0.4534
  698MOL0     C96207  11.474   2.470   3.535  1.0845 -0.2694  0.7776
  698MOL0     C96208  11.328   2.445   3.584 -0.0997  0.3294  0.8722
  698MOL0     C96209  11.228   2.430   3.470 -0.0229  0.4767  0.2013
  698MOL0     O96210  11.096   2.401   3.540 -0.2928  0.1232  0.4910
  698MOL0     C96211  11.000   2.493   3.537 -0.2388 -0.1314  0.1976
  698MOL0     C96212  11.017   2.630   3.514  0.2298 -0.1688  0.8754
  698MOL0     C96213  10.911   2.727   3.512  0.0990 -0.6605  1.1796
  698MOL0     C96214  10.949   2.872   3.480 -0.1605 -0.0189 -1.1039
  698MOL0     C96215  10.786   2.685   3.539 -0.3229  0.2545 -0.7983
  698MOL0     C96216  10.660   2.774   3.557  0.4941  0.1189  0.0486
  698MOL0     O96217  10.677   2.907   3.589  0.0564  0.2969  0.0646
  698MOL0     C96218  10.566   2.977   3.592  1.1251 -0.4609 -0.2714
  698MOL0     C96219  10.478   2.992   3.477 -0.3148 -1.2278 -0.0191
  698MOL0     C96220  10.362   3.066   3.489  0.6474  0.2145 -0.4460
  698MOL0     C96221  10.308   3.096   3.614  0.7289 -0.1528 -0.6011
  698MOL0     O96222  10.190   3.163   3.633  0.0472  0.7258  0.2195
  698MOL0     C96223  10.132   3.231   3.520  0.4171 -0.0587 -0.5758
  698MOL0     C96224  10.015   3.330   3.545 -1.0617  0.3691  0.3259
  698MOL0     C96225  10.048   3.442   3.648  0.1532  0.3067 -0.4535
  698MOL0     C96226   9.941   3.547   3.664  0.0249 -0.0966 -0.4138
  698MOL0     C96227   9.984   3.671   3.744 -0.2847 -0.8150 -0.0090
  698MOL0     C96228  10.018   3.652   3.886  0.2869 -0.9072 -1.2884
  698MOL0     C96229  10.060   3.782   3.954  0.1873 -0.6617  0.1523
  698MOL0     C96230   9.936   3.849   4.011 -0.3931 -0.3129  0.3581
  698MOL0    Cl96231   9.996   4.002   4.073  0.0427 -0.0317 -0.0299
  698MOL0     C96232  10.389   3.079   3.722 -0.5259 -0.2654 -0.5403
  698MOL0     C96233  10.519   3.023   3.719 -0.7623 -0.8942 -0.2811
  698MOL0     O96234  10.559   2.717   3.548  0.3415  0.1591 -0.8679
  698MOL0     C96235  10.771   2.544   3.554  0.7464 -0.1210  0.1248
  698MOL0     C96236  10.870   2.456   3.564  0.1661  0.5216 -0.7506
  698MOL0     N96237  11.489   2.710   3.716  0.0991 -0.2226 -0.0767
  698MOL0     N96238  11.438   2.811   3.767 -0.0114  0.0184 -0.1162
  698MOL0     C96239  10.793   3.473   3.205 -0.0036  0.2083 -0.0628
  698MOL0     C96240  10.721   3.545   3.107 -0.2487  1.2510  0.3497
  698MOL0     C96241  10.485   3.809   2.847 -0.2901 -0.4608 -0.6486
  698MOL0     C96242  10.343   3.800   2.877  0.6807  0.2457 -0.9614
  698MOL0     C96243  10.254   3.860   2.797  0.5115  0.3709 -0.5807
  698MOL0     C96244  10.293   3.924   2.678 -0.4848 -0.6641  0.4679
  698MOL0     O96245  10.189   3.979   2.605 -0.4288  0.3535  0.3335
  698MOL0     C96246  10.208   4.064   2.489  0.8871 -0.5901 -0.2997
  698MOL0     C96247  10.090   4.153   2.446  0.0858 -0.2418  0.3498
  698MOL0     C96248   9.973   4.056   2.419 -1.3216 -0.4106  0.5100
  698MOL0     C96249   9.867   4.129   2.325 -0.5733 -0.1021 -0.0962
  698MOL0     C96250   9.916   4.185   2.196 -0.7636 -0.1997 -0.0709
  698MOL0     C96251   9.957   4.252   2.103  0.3587  0.3028 -1.0346
  698MOL0     C96252  10.427   3.919   2.642 -0.8429  0.7740  0.3098
  698MOL0     C96253  10.524   3.874   2.730 -0.6944  1.2445 -0.0432
  698MOL0     C96254  10.665   3.902   2.689 -0.0232  0.7908 -0.0267
  698MOL0     H96255  10.491   3.699   3.303  1.7910  0.5338  2.0367
  698MOL0     H96256  10.630   3.598   3.469 -2.5876 -0.2738  0.2326
  698MOL0     H96257  10.902   3.234   3.393  1.6369  1.7865 -0.3691
  698MOL0     H96258  10.725   3.264   3.410 -1.7872  4.3922  1.1469
  698MOL0     H96259  10.722   3.290   3.638 -2.2487 -3.1764 -1.7343
  698MOL0     H96260  10.814   3.147   3.598 -1.7701 -0.6020 -3.4618
  698MOL0     H96261  11.020   3.309   3.615 -0.7058 -1.7238 -0.0753
  698MOL0     H96262  10.897   3.428   3.672 -4.2878 -0.7922  0.0212
  698MOL0     H96263  10.970   3.342   3.877  0.2157 -0.7342 -0.9924
  698MOL0     H96264  10.830   3.255   3.852  1.1858 -1.1028  0.7246
  698MOL0     H96265  11.016   3.102   3.720  1.5178  1.5253  0.2651
  698MOL0     H96266  10.995   3.082   3.909  0.4701  0.8968  1.3536
  698MOL0     H96267  11.191   3.257   3.775  0.8411  0.3021 -1.2626
  698MOL0     H96268  11.177   3.213   3.943 -1.3460  2.1345 -0.7097
  698MOL0     H96269  11.257   2.975   3.873 -2.1057 -0.0551 -1.8435
  698MOL0     H96270  11.372   3.119   3.841  0.6886  1.3638 -2.0669
  698MOL0     H96271  11.205   2.983   3.627 -0.7665  1.7056  0.7526
  698MOL0     H96272  11.323   3.103   3.620 -2.5989 -0.5814 -3.2116
  698MOL0     H96273  11.379   2.866   3.448  2.7339 -0.1637 -0.2472
  698MOL0     H96274  11.610   2.618   3.463  0.5873  0.6428 -1.3942
  698MOL0     H96275  11.453   2.623   3.390 -0.2945 -0.7248  0.8291
  698MOL0     H96276  11.499   2.403   3.453 -1.2836 -1.4612  0.9395
  698MOL0     H96277  11.549   2.455   3.613  2.5925  1.5062 -0.2613
  698MOL0     H96278  11.332   2.348   3.633 -1.4929  0.2012  0.7704
  698MOL0     H96279  11.284   2.520   3.650 -3.2001  0.9876 -1.7001
  698MOL0     H96280  11.214   2.516   3.405  0.7520 -1.0149 -2.0475
  698MOL0     H96281  11.255   2.351   3.399 -1.5567  2.2157 -2.4742
  698MOL0     H96282  11.119   2.663   3.499  0.6001 -1.6737 -0.1230
  698MOL0     H96283  11.047   2.868   3.431  1.1319  0.5022  1.2497
  698MOL0     H96284  10.969   2.939   3.565 -0.8245  0.5033 -1.3578
  698MOL0     H96285  10.877   2.929   3.422 -3.9629  0.8107  3.7792
  698MOL0     H96286  10.503   2.939   3.386 -0.9048 -2.3786  0.4655
  698MOL0     H96287  10.305   3.091   3.400 -0.6728 -1.6985 -0.1980
  698MOL0     H96288  10.200   3.286   3.455  0.3371 -0.9916 -1.4659
  698MOL0     H96289  10.092   3.154   3.454 -1.0521 -1.7234  2.0779
  698MOL0     H96290   9.980   3.362   3.447  0.8404 -1.2151 -0.9788
  698MOL0     H96291   9.928   3.275   3.580 -1.7746  1.1964 -0.1148
  698MOL0     H96292  10.136   3.494   3.610  1.1460 -1.0546 -0.1005
  698MOL0     H96293  10.070   3.401   3.747 -3.9679  1.5086  1.2117
  698MOL0     H96294   9.853   3.505   3.715  0.1647  0.6046  0.4122
  698MOL0     H96295   9.907   3.582   3.566 -1.1022 -0.4335 -0.1601
  698MOL0     H96296  10.073   3.711   3.695 -0.6905  0.8399  0.5325
  698MOL0     H96297   9.905   3.746   3.739 -0.5874 -1.1733 -0.7494
  698MOL0     H96298  10.108   3.591   3.901 -1.1360 -2.7848  0.1987
  698MOL0     H96299   9.931   3.612   3.939 -0.1901  1.6607  0.0253
  698MOL0     H96300  10.108   3.851   3.885  1.3766 -3.2480 -1.7802
  698MOL0     H96301  10.120   3.753   4.041  0.0918 -0.9660  0.1168
  698MOL0     H96302   9.911   3.781   4.093  2.1710 -1.4392  0.3032
  698MOL0     H96303   9.855   3.869   3.941  0.8545 -0.1686 -1.0986
  698MOL0     H96304  10.341   3.106   3.816  0.3317  0.3226 -0.2672
  698MOL0     H96305  10.583   3.015   3.806  1.7591  1.9788 -1.6756
  698MOL0     H96306  10.670   2.509   3.571  1.6409 -1.8285  2.3975
  698MOL0     H96307  10.857   2.348   3.572 -0.3381  0.4646 -2.0106
  698MOL0     H96308  10.889   3.424   3.190  1.1659  3.0754 -3.2237
  698MOL0     H96309  10.756   3.531   3.006  1.1572 -0.7361  1.0480
  698MOL0     H96310  10.298   3.759   2.967  0.9461 -0.8759 -1.3274
  698MOL0     H96311  10.149   3.855   2.825 -0.2283  0.2031 -3.1384
  698MOL0     H96312  10.293   4.130   2.511  0.5450 -0.3553  0.3572
  698MOL0     H96313  10.236   3.993   2.411 -1.8960 -1.0416 -0.9640
  698MOL0     H96314  10.118   4.205   2.354  1.1408 -3.2823 -1.1952
  698MOL0     H96315  10.053   4.228   2.515 -0.5348 -0.6844  0.5068
  698MOL0     H96316  10.004   3.960   2.377  0.0271 -0.2385  1.0687
  698MOL0     H96317   9.931   4.024   2.514 -0.4112  0.4854  1.2353
  698MOL0     H96318   9.810   4.206   2.378 -0.0306 -0.0620  0.4456
  698MOL0     H96319   9.802   4.048   2.291  0.5022 -0.4469 -1.4271
  698MOL0     H96320   9.980   4.301   2.011 -2.1298  0.3398 -1.7216
  698MOL0     H96321  10.468   3.957   2.549 -0.2979  1.0053  0.6364
  698MOL0     H96322  10.699   3.995   2.733 -1.0441  0.4963  1.4511
  698MOL0     H96323  10.732   3.821   2.718 -0.5844  1.0324  2.0402
  698MOL0     H96324  10.667   3.903   2.579 -1.0968 -1.3444 -0.1224
  699MOL0     O96325   1.560   0.302   1.694 -0.5006 -0.2130 -0.0879
  699MOL0     C96326   1.663   0.297   1.761  0.2427  0.3117  0.1885
  699MOL0     O96327   1.795   0.316   1.715 -0.4015  0.3374 -0.2722
  699MOL0     C96328   1.803   0.354   1.580 -0.0976  0.9590  0.1931
  699MOL0     C96329   1.884   0.469   1.547  0.1969  0.1024  0.6601
  699MOL0     C96330   1.910   0.503   1.413 -0.8460 -0.1026 -0.2870
  699MOL0     C96331   1.868   0.412   1.313 -0.4227  0.4371  0.3224
  699MOL0     O96332   1.906   0.450   1.192  0.3809 -0.7448  1.1854
  699MOL0     C96333   1.872   0.359   1.084 -0.1658 -0.3022  0.1220
  699MOL0     C96334   1.839   0.436   0.956  0.6393  0.5021  0.1671
  699MOL0     C96335   1.827   0.336   0.842 -0.3486  1.4176  0.5238
  699MOL0     C96336   1.677   0.323   0.810 -0.5160  0.0865  0.5884
  699MOL0     C96337   1.656   0.262   0.666  0.6559  0.7398 -0.4375
  699MOL0     C96338   1.675   0.369   0.561  0.6335 -0.0096  0.7637
  699MOL0     C96339   1.677   0.306   0.422 -0.0341  0.5065 -0.2841
  699MOL0     C96340   1.739   0.408   0.317 -0.2615  0.8777  0.4260
  699MOL0     N96341   1.665   0.536   0.321  0.1134 -1.3264 -0.4281
  699MOL0     C96342   1.531   0.551   0.338  0.2167 -1.2342  0.5317
  699MOL0     C96343   1.503   0.681   0.348 -0.1252 -0.0453 -0.4144
  699MOL0     C96344   1.363   0.737   0.362 -0.1030 -0.5362 -0.2011
  699MOL0     C96345   1.337   0.827   0.238  0.7785 -0.1749 -0.5367
  699MOL0     C96346   1.187   0.856   0.223  0.2637  0.6632  0.0496
  699MOL0     C96347   1.123   0.734   0.141 -0.4348  0.7501  0.3973
  699MOL0     O96348   0.992   0.768   0.099 -0.4174 -0.6095 -0.7761
  699MOL0     C96349   0.914   0.661   0.054  1.2481 -0.5968 -0.3221
  699MOL0     C96350   0.889   0.661  -0.080 -0.1387  0.4479  0.2477
  699MOL0     C96351   0.832   0.548  -0.147  1.4180 -1.0685  0.1612
  699MOL0     C96352   0.852   0.538  -0.300 -0.1006  0.1750 -0.1037
  699MOL0     C96353   0.777   0.447  -0.061 -0.3378 -0.7284 -0.2620
  699MOL0     C96354   0.692   0.339  -0.110 -0.8514 -0.4261 -0.1237
  699MOL0     O96355   0.596   0.316  -0.009  0.3328 -0.2432  0.1758
  699MOL0     C96356   0.500   0.215  -0.025 -0.9291 -0.4564  0.2078
  699MOL0     C96357   0.476   0.142   0.088  1.2761  0.2997 -0.3046
  699MOL0     C96358   0.371   0.049   0.087 -0.3714  0.3635  0.5134
  699MOL0     C96359   0.300   0.025  -0.029  0.7517 -0.1911  0.0600
  699MOL0     O96360   0.188  -0.057  -0.013 -0.2507 -0.2490  1.0653
  699MOL0     C96361   0.137  -0.108  -0.138  1.4083 -0.0733 -0.2687
  699MOL0     C96362   0.037  -0.220  -0.110 -0.4500  0.0435 -1.2868
  699MOL0     C96363  -0.064  -0.193   0.002  0.0489 -0.6209 -0.2319
  699MOL0     C96364  -0.158  -0.073  -0.030 -0.1604  0.0005 -0.0944
  699MOL0     C96365  -0.271  -0.045   0.078 -0.4899 -0.4197  0.1288
  699MOL0     C96366  -0.317   0.103   0.075 -0.3755 -0.1266 -0.2201
  699MOL0     C96367  -0.219   0.220   0.134  0.0377  0.1379  1.4246
  699MOL0     C96368  -0.183   0.314   0.014  0.1214 -0.1347  0.0633
  699MOL0    Cl96369  -0.322   0.433  -0.008 -0.7626  0.1533  0.1990
  699MOL0     C96370   0.323   0.102  -0.141  1.2166  0.8254 -0.6087
  699MOL0     C96371   0.426   0.189  -0.142 -0.5213  0.0255 -0.1674
  699MOL0     O96372   0.706   0.273  -0.215 -0.5387 -0.2833 -0.4433
  699MOL0     C96373   0.812   0.455   0.077 -0.7484 -0.4226  0.1205
  699MOL0     C96374   0.886   0.554   0.134  0.2775 -0.6852 -1.1109
  699MOL0     N96375   1.621   0.746   0.357  0.1356 -0.0876 -0.1236
  699MOL0     N96376   1.723   0.659   0.344  0.3732 -0.5241  0.1897
  699MOL0     C96377   1.806   0.288   1.340  0.7888 -0.3064  0.8081
  699MOL0     C96378   1.777   0.259   1.477 -0.0703 -0.9130 -0.0071
  699MOL0     C96379   1.645   0.249   1.899 -0.6208 -0.5875 -0.4025
  699MOL0     C96380   1.823   0.262   2.023  0.2215 -0.1487  0.0231
  699MOL0     C96381   1.804   0.221   2.231 -0.5562  0.5483 -0.1171
  699MOL0     C96382   1.622   0.164   2.313 -0.1525 -0.3410  0.4570
  699MOL0     O96383   1.603   0.154   2.447 -0.1488 -0.0167 -0.0177
  699MOL0     C96384   1.480   0.092   2.488  0.2324 -0.3188 -0.3892
  699MOL0     C96385   1.495   0.052   2.641 -0.2807  0.1493  0.0228
  699MOL0     C96386   1.495   0.186   2.722 -0.5175  0.2120  0.4994
  699MOL0     C96387   1.474   0.171   2.865  0.0450 -0.5863 -0.7054
  699MOL0     C96388   1.447   0.296   2.929  0.1549 -0.2100  0.3708
  699MOL0     C96389   1.425   0.402   2.985  0.2227  0.0178 -0.8600
  699MOL0     C96390   1.451   0.150   2.189 -1.0620  1.0543 -0.9774
  699MOL0     C96391   1.468   0.191   1.977 -0.5759  0.2295 -0.8285
  699MOL0     C96392   1.349   0.186   1.892  0.1554 -0.4153  0.8758
  699MOL0     H96393   1.924   0.530   1.627  0.7321  0.7330 -0.0807
  699MOL0     H96394   1.959   0.596   1.385 -1.6288 -0.2090 -2.1766
  699MOL0     H96395   1.776   0.313   1.106 -0.7136  0.8926  0.3071
  699MOL0     H96396   1.953   0.286   1.080  0.8489  0.8186 -1.9393
  699MOL0     H96397   1.747   0.492   0.973 -0.1490 -0.5921 -0.3540
  699MOL0     H96398   1.918   0.508   0.933  0.3225  0.8965  0.3102
  699MOL0     H96399   1.881   0.367   0.752  0.0799 -1.3943 -0.2748
  699MOL0     H96400   1.866   0.236   0.859 -2.0871  0.1036 -2.4062
  699MOL0     H96401   1.639   0.261   0.892 -0.8798 -0.3607  0.0907
  699MOL0     H96402   1.627   0.420   0.806  1.9318  1.3909 -0.1598
  699MOL0     H96403   1.551   0.233   0.654 -0.3306  4.1706 -1.2436
  699MOL0     H96404   1.713   0.169   0.659  2.2751  1.6768 -0.0315
  699MOL0     H96405   1.589   0.435   0.575  0.4844 -0.4243  1.9002
  699MOL0     H96406   1.760   0.436   0.573 -0.2148  1.4137 -0.6351
  699MOL0     H96407   1.583   0.264   0.384 -1.5448  2.6955  0.7727
  699MOL0     H96408   1.743   0.220   0.430  1.5028  1.4143 -2.2415
  699MOL0     H96409   1.847   0.418   0.327  0.4703 -1.6591 -2.9636
  699MOL0     H96410   1.711   0.369   0.219 -0.7226 -1.5290  1.4152
  699MOL0     H96411   1.456   0.472   0.333 -1.3468  0.2854 -1.9031
  699MOL0     H96412   1.349   0.793   0.455 -3.3860 -0.1014 -0.8426
  699MOL0     H96413   1.290   0.656   0.354 -1.4561  0.8252 -2.6664
  699MOL0     H96414   1.387   0.924   0.253 -0.6993  0.3294  1.6572
  699MOL0     H96415   1.369   0.782   0.144 -2.0084 -4.4091  0.2912
  699MOL0     H96416   1.140   0.865   0.321 -0.8156 -0.3678 -0.3480
  699MOL0     H96417   1.160   0.947   0.169  0.0985  0.9695  0.6485
  699MOL0     H96418   1.179   0.709   0.049 -0.7843 -0.3984  0.4839
  699MOL0     H96419   1.103   0.645   0.201 -0.0318 -1.0053 -1.9143
  699MOL0     H96420   0.921   0.741  -0.147  0.7053 -0.4355 -0.4275
  699MOL0     H96421   0.954   0.565  -0.327 -1.2774  1.6815 -3.7046
  699MOL0     H96422   0.778   0.598  -0.354 -1.5984 -0.7174  0.8738
  699MOL0     H96423   0.864   0.435  -0.336  0.5994 -0.1704  1.0666
  699MOL0     H96424   0.542   0.148   0.173  3.0710 -0.5987 -1.5516
  699MOL0     H96425   0.362  -0.003   0.182 -1.6702  0.2278  0.3348
  699MOL0     H96426   0.075  -0.029  -0.179 -2.4330 -2.4358  0.4888
  699MOL0     H96427   0.212  -0.130  -0.215  1.5070 -0.3981 -0.0855
  699MOL0     H96428  -0.003  -0.251  -0.207  2.6444  1.2715 -3.1119
  699MOL0     H96429   0.099  -0.307  -0.087  0.4328  0.6407 -1.3545
  699MOL0     H96430  -0.017  -0.169   0.098 -0.7914 -0.4712  0.1544
  699MOL0     H96431  -0.125  -0.283   0.015 -1.5494  0.5910  1.1176
  699MOL0     H96432  -0.209  -0.087  -0.126  0.2088  2.0018 -0.6255
  699MOL0     H96433  -0.092   0.013  -0.043 -0.1528 -0.2548 -1.9477
  699MOL0     H96434  -0.354  -0.113   0.063 -0.5840 -0.1769 -0.4690
  699MOL0     H96435  -0.238  -0.060   0.181  1.4461 -2.4015 -0.6924
  699MOL0     H96436  -0.405   0.110   0.140  1.9999  1.2256  3.1073
  699MOL0     H96437  -0.366   0.131  -0.019 -3.1853  4.0875  2.1769
  699MOL0     H96438  -0.126   0.174   0.169  0.3338  1.8233  2.9857
  699MOL0     H96439  -0.274   0.273   0.212 -0.9932  1.4676 -0.1416
  699MOL0     H96440  -0.157   0.263  -0.079 -2.7106 -0.5220 -0.6065
  699MOL0     H96441  -0.089   0.367   0.032  0.1358  0.8900 -2.5201
  699MOL0     H96442   0.261   0.105  -0.230  2.0553  5.9658 -1.3468
  699MOL0     H96443   0.443   0.236  -0.238 -1.4220 -1.5769 -1.1701
  699MOL0     H96444   0.787   0.377   0.148  2.4149 -1.5000  0.1929
  699MOL0     H96445   0.915   0.564   0.238 -2.6767  2.9060 -0.4093
  699MOL0     H96446   1.805   0.205   1.270 -1.5746  2.6113 -2.9705
  699MOL0     H96447   1.746   0.155   1.491  1.8944 -1.9077 -2.2973
  699MOL0     H96448   1.919   0.299   1.987 -0.1659  0.9974  0.1219
  699MOL0     H96449   1.888   0.235   2.299 -2.4546  3.1658  1.9014
  699MOL0     H96450   1.391   0.149   2.460 -0.7957 -1.2044  0.8861
  699MOL0     H96451   1.476  -0.005   2.437 -0.3217 -0.3538 -0.2892
  699MOL0     H96452   1.586  -0.008   2.648 -0.5042 -0.1184  0.7008
  699MOL0     H96453   1.408  -0.007   2.671 -2.3318  2.7528 -0.4147
  699MOL0     H96454   1.594   0.232   2.714 -0.3125  0.3343  2.8512
  699MOL0     H96455   1.409   0.240   2.681  2.3840  1.7597 -4.2887
  699MOL0     H96456   1.550   0.121   2.925 -1.0057  0.7129  1.8470
  699MOL0     H96457   1.379   0.118   2.883  0.0536  0.2130  2.0828
  699MOL0     H96458   1.394   0.496   3.025  0.1237 -0.6624  0.7267
  699MOL0     H96459   1.359   0.131   2.244  0.0764  1.9036  1.3632
  699MOL0     H96460   1.261   0.162   1.953  0.0418  1.2156  1.4325
  699MOL0     H96461   1.349   0.284   1.843  1.5598 -1.0644 -0.5043
  699MOL0     H96462   1.363   0.112   1.813  4.0259  0.1676  0.8191
  700MOL0     O96463  11.125  10.722   3.214 -0.2599 -0.8048 -0.4069
  700MOL0     C96464  11.064  10.828   3.249 -0.4714  0.1217  0.4023
  700MOL0     O96465  11.089  10.953   3.205  0.2552  0.0677  0.6161
  700MOL0     C96466  11.134  10.974   3.077  0.1807 -0.0836 -0.3468
  700MOL0     C96467  11.121  10.887   2.964  0.0823 -0.8894 -0.4533
  700MOL0     C96468  11.181  10.921   2.838  0.0662  0.2598 -0.3469
  700MOL0     C96469  11.268  11.030   2.828 -0.5773 -0.3656 -0.4429
  700MOL0     O96470  11.335  11.041   2.717  0.1273 -0.8558  0.6183
  700MOL0     C96471  11.469  11.036   2.716 -0.1125  0.1095 -0.2964
  700MOL0     C96472  11.524  10.888   2.708 -0.0618  0.9443  0.8984
  700MOL0     C96473  11.515  10.794   2.826 -0.3636  0.5565  0.6960
  700MOL0     C96474  11.571  10.872   2.949 -0.2499  0.0339  0.1061
  700MOL0     C96475  11.567  10.780   3.071  0.6522 -0.2186 -0.5129
  700MOL0     C96476  11.504  10.847   3.204 -0.5790  0.3269  0.4693
  700MOL0     C96477  11.499  10.752   3.321 -0.3103 -0.2757  0.4823
  700MOL0     C96478  11.385  10.786   3.428  0.0689 -0.3227 -0.6694
  700MOL0     N96479  11.400  10.913   3.490  0.0341  0.7569 -0.4122
  700MOL0     C96480  11.333  11.022   3.445 -0.0175  0.4901  0.0087
  700MOL0     C96481  11.385  11.116   3.527 -0.3423 -0.6757 -0.6462
  700MOL0     C96482  11.352  11.264   3.513 -1.1182 -0.4802  0.4703
  700MOL0     C96483  11.295  11.319   3.641  0.3633 -0.4590 -0.4239
  700MOL0     C96484  11.142  11.323   3.636  0.1545  0.7781  0.0085
  700MOL0     C96485  11.076  11.407   3.738  0.1212 -1.1941 -0.2965
  700MOL0     O96486  11.115  11.546   3.743 -0.8890 -0.3415  0.5943
  700MOL0     C96487  11.074  11.621   3.848 -0.3860  0.3042 -0.6571
  700MOL0     C96488  11.139  11.742   3.858 -0.0045  0.6030  0.4009
  700MOL0     C96489  11.101  11.849   3.953 -0.6177 -0.5867  0.5620
  700MOL0     C96490  11.174  11.986   3.941 -0.5235 -0.4423 -0.3541
  700MOL0     C96491  11.008  11.808   4.050 -0.3579  0.5952  0.0284
  700MOL0     C96492  10.946  11.900   4.150  0.0183 -0.2542 -0.2426
  700MOL0     O96493  11.029  12.001   4.192 -0.3211 -0.2571 -0.2818
  700MOL0     C96494  10.971  12.089   4.283 -0.5853 -0.6786 -0.3003
  700MOL0     C96495  10.945  12.051   4.415 -1.0220  0.2674  0.3793
  700MOL0     C96496  10.875  12.136   4.503 -0.6276 -0.8532 -1.2602
  700MOL0     C96497  10.838  12.263   4.469 -0.3370 -0.5811  0.3906
  700MOL0     O96498  10.752  12.347   4.540  0.0025 -0.3173 -0.5004
  700MOL0     C96499  10.708  12.312   4.672  0.4823 -0.7391  0.0232
  700MOL0     C96500  10.618  12.429   4.717  0.2067  0.3537 -0.3393
  700MOL0     C96501  10.512  12.380   4.807  0.7487  0.2609 -0.1561
  700MOL0     C96502  10.385  12.351   4.721  0.2224  0.3441  0.5172
  700MOL0     C96503  10.285  12.259   4.800 -0.8376 -0.5902 -0.1319
  700MOL0     C96504  10.135  12.292   4.774 -0.1069 -0.4022  0.6376
  700MOL0     C96505  10.030  12.203   4.841  0.2197 -0.3435  0.1897
  700MOL0     C96506   9.890  12.272   4.870  0.1422  0.0519  0.1196
  700MOL0    Cl96507   9.809  12.373   4.738  0.2020  0.3420  0.5457
  700MOL0     C96508  10.885  12.303   4.339 -0.0448 -1.4134  0.1832
  700MOL0     C96509  10.952  12.222   4.245  0.5839  0.1395 -0.2198
  700MOL0     O96510  10.829  11.884   4.189 -0.1404  0.1890  0.6750
  700MOL0     C96511  10.960  11.679   4.044  0.9890 -0.3146  0.0137
  700MOL0     C96512  10.977  11.585   3.945 -0.6608  0.5574  0.5015
  700MOL0     N96513  11.474  11.062   3.620  0.2061  0.3306 -1.2060
  700MOL0     N96514  11.489  10.935   3.596  0.3306 -0.2252 -0.8590
  700MOL0     C96515  11.279  11.110   2.941  1.3512 -0.4760 -0.0955
  700MOL0     C96516  11.219  11.089   3.059 -0.1916  0.7706 -0.2662
  700MOL0     C96517  10.961  10.802   3.360  0.1492 -0.0025  0.6432
  700MOL0     C96518  10.956  10.899   3.465  0.5211  0.4864 -0.9395
  700MOL0     C96519  10.873  10.883   3.582  0.1831  0.0585  0.9442
  700MOL0     C96520  10.780  10.775   3.580 -0.2769 -0.5350 -0.3452
  700MOL0     O96521  10.672  10.767   3.673 -0.0670  0.0071  0.0012
  700MOL0     C96522  10.678  10.844   3.795  0.9272  0.0166  0.5689
  700MOL0     C96523  10.564  10.798   3.889 -0.5548 -0.4623 -0.1625
  700MOL0     C96524  10.425  10.821   3.829 -0.1051  0.3698  0.2087
  700MOL0     C96525  10.314  10.731   3.896  0.1657  0.0967  0.0293
  700MOL0     C96526  10.294  10.767   4.039 -0.2347  0.4377  0.0666
  700MOL0     C96527  10.277  10.792   4.154 -0.5778  0.5553 -0.1209
  700MOL0     C96528  10.774  10.691   3.464 -0.7577  0.0006  0.6503
  700MOL0     C96529  10.867  10.696   3.357 -0.1644  0.0704 -0.8518
  700MOL0     C96530  10.872  10.580   3.267 -0.5735 -0.2741  0.4778
  700MOL0     H96531  11.060  10.798   2.981 -0.7152 -0.1080  0.9185
  700MOL0     H96532  11.155  10.856   2.755  0.5117 -0.2201 -0.1144
  700MOL0     H96533  11.513  11.097   2.796 -0.2276  1.4302 -1.1945
  700MOL0     H96534  11.485  11.094   2.624 -0.3130 -0.7126 -0.8564
  700MOL0     H96535  11.485  10.839   2.618  1.8542 -1.4449  1.2779
  700MOL0     H96536  11.630  10.904   2.687 -0.3839  1.8078 -0.2326
  700MOL0     H96537  11.407  10.777   2.828 -0.4887  1.0251 -0.7882
  700MOL0     H96538  11.574  10.703   2.816  0.2601  0.5800  3.3767
  700MOL0     H96539  11.668  10.916   2.924 -0.7343 -0.3563 -2.9175
  700MOL0     H96540  11.498  10.951   2.970 -0.5893 -0.1882 -0.2142
  700MOL0     H96541  11.671  10.747   3.086  0.8397 -1.0489 -3.1233
  700MOL0     H96542  11.513  10.692   3.036 -0.8195  0.1225  0.7809
  700MOL0     H96543  11.560  10.935   3.236 -1.6211  2.1858 -2.4492
  700MOL0     H96544  11.401  10.869   3.174 -0.3341  0.5668 -0.2238
  700MOL0     H96545  11.586  10.754   3.387 -0.8873 -1.0449  1.2920
  700MOL0     H96546  11.496  10.646   3.292  3.5063  0.4850 -4.0028
  700MOL0     H96547  11.288  10.792   3.378  0.5201  1.6809 -1.4126
  700MOL0     H96548  11.373  10.709   3.504 -7.2284 -0.4723 -1.2209
  700MOL0     H96549  11.265  11.037   3.361  1.6168  0.0025 -1.4489
  700MOL0     H96550  11.289  11.273   3.424 -2.5263 -1.7445  1.2915
  700MOL0     H96551  11.442  11.321   3.489 -0.0613 -2.6528 -1.0707
  700MOL0     H96552  11.333  11.269   3.731 -0.8878 -0.5840  0.0565
  700MOL0     H96553  11.323  11.424   3.650 -2.4133  0.6795 -3.2089
  700MOL0     H96554  11.107  11.346   3.535 -1.0855 -2.6946 -0.4864
  700MOL0     H96555  11.097  11.227   3.661 -2.7098  2.1800  0.5832
  700MOL0     H96556  10.969  11.388   3.735  0.2155 -1.6015 -1.6429
  700MOL0     H96557  11.114  11.366   3.833 -0.4759 -3.4762 -0.9771
  700MOL0     H96558  11.224  11.742   3.791  1.2668 -0.9560  1.9186
  700MOL0     H96559  11.103  12.062   3.973  1.0107  1.0872 -0.4576
  700MOL0     H96560  11.205  12.022   3.842 -0.4764 -0.6257 -0.4072
  700MOL0     H96561  11.254  11.987   4.015 -3.2968 -1.2004  2.9407
  700MOL0     H96562  10.981  11.950   4.431 -1.3404  0.2796  1.2863
  700MOL0     H96563  10.866  12.114   4.609  2.1467  0.2021 -0.7045
  700MOL0     H96564  10.656  12.217   4.673 -3.0319  0.9797 -1.5645
  700MOL0     H96565  10.781  12.306   4.753 -0.1793  0.8920  0.7858
  700MOL0     H96566  10.691  12.485   4.776  0.4542 -0.5628  0.2460
  700MOL0     H96567  10.579  12.492   4.636 -0.2377  0.7743  0.1962
  700MOL0     H96568  10.496  12.449   4.890  2.7944 -1.7994  2.1039
  700MOL0     H96569  10.544  12.289   4.858  1.7464  0.1538 -0.9549
  700MOL0     H96570  10.392  12.290   4.630  0.8899  0.0453  0.7608
  700MOL0     H96571  10.329  12.443   4.699 -0.9538 -0.4297  0.1862
  700MOL0     H96572  10.308  12.157   4.769  1.0372 -0.6315  1.2640
  700MOL0     H96573  10.299  12.270   4.908  1.1524  2.5794 -0.5814
  700MOL0     H96574  10.110  12.302   4.668 -1.5909  3.6124  1.1641
  700MOL0     H96575  10.122  12.396   4.805  1.2797  0.2702 -0.8788
  700MOL0     H96576  10.063  12.165   4.938  1.0371  0.1665  0.1208
  700MOL0     H96577  10.005  12.111   4.787 -1.4169 -0.5478  1.2108
  700MOL0     H96578   9.921  12.345   4.946  2.9561  1.6325 -2.3229
  700MOL0     H96579   9.814  12.201   4.902 -0.0172 -1.6554 -3.5396
  700MOL0     H96580  10.873  12.408   4.314 -2.2238 -1.3744  1.1680
  700MOL0     H96581  10.994  12.264   4.154  1.3655 -1.5845 -0.7064
  700MOL0     H96582  10.889  11.656   4.123  1.5701  2.0756  1.3476
  700MOL0     H96583  10.927  11.489   3.945 -1.7061  1.0848  1.0668
  700MOL0     H96584  11.348  11.194   2.941  3.6953 -2.2890  0.0345
  700MOL0     H96585  11.252  11.150   3.142  3.3629 -0.3382 -0.6802
  700MOL0     H96586  11.016  10.989   3.466  1.3508 -0.0295  1.0243
  700MOL0     H96587  10.881  10.948   3.669 -0.7916  1.6963 -0.1246
  700MOL0     H96588  10.775  10.828   3.842  2.2532  2.7692 -0.9093
  700MOL0     H96589  10.667  10.952   3.781  0.0716 -0.0096  0.9654
  700MOL0     H96590  10.574  10.866   3.975  1.3500 -0.7748 -0.1078
  700MOL0     H96591  10.577  10.700   3.934  2.0122  0.1398  0.5484
  700MOL0     H96592  10.404  10.928   3.824 -1.7507  0.0250 -2.3872
  700MOL0     H96593  10.428  10.793   3.723  1.6995  1.0264  0.0646
  700MOL0     H96594  10.337  10.626   3.873 -1.4820  0.0499 -1.6562
  700MOL0     H96595  10.219  10.747   3.845  0.6436 -0.9760 -1.2596
  700MOL0     H96596  10.258  10.825   4.255 -1.2942  2.1210 -0.7304
  700MOL0     H96597  10.704  10.608   3.466 -0.5934 -0.1429  0.5245
  700MOL0     H96598  10.799  10.501   3.287  0.0129 -1.0831 -0.5104
  700MOL0     H96599  10.846  10.608   3.165 -1.8023 -0.2411  0.7794
  700MOL0     H96600  10.966  10.525   3.273 -1.8681 -2.8976 -1.3009
  701MOL0     O96601   1.022   2.710   6.899 -0.7169  0.6936 -0.5786
  701MOL0     C96602   0.910   2.675   6.852 -1.1361 -0.5005 -0.3781
  701MOL0     O96603   0.892   2.572   6.768  0.7078 -0.5125 -0.3945
  701MOL0     C96604   1.004   2.508   6.720 -0.4176  0.0869  0.3245
  701MOL0     C96605   1.027   2.502   6.586  0.5895  0.3286  0.6891
  701MOL0     C96606   1.135   2.442   6.531  0.8949 -0.1046  0.3587
  701MOL0     C96607   1.235   2.386   6.610  0.1148  0.4059 -0.4959
  701MOL0     O96608   1.333   2.329   6.538 -0.4374  0.3966  0.5940
  701MOL0     C96609   1.376   2.201   6.594  0.9937 -0.7911 -0.2983
  701MOL0     C96610   1.409   2.129   6.463 -0.0009 -0.0537  0.8068
  701MOL0     C96611   1.293   2.093   6.372  2.1930  0.5389 -0.1742
  701MOL0     C96612   1.340   2.027   6.247  0.6882 -0.6430  0.6658
  701MOL0     C96613   1.233   2.005   6.134 -0.1421 -0.8840  0.0488
  701MOL0     C96614   1.112   1.925   6.183 -0.1400 -1.1536 -0.5024
  701MOL0     C96615   1.011   1.932   6.074 -0.5693 -0.2032 -0.2607
  701MOL0     C96616   0.914   1.821   6.093  0.4697  0.8277 -0.3317
  701MOL0     N96617   0.815   1.822   5.977 -0.3720 -0.4842  0.4131
  701MOL0     C96618   0.736   1.933   5.948  0.5512  0.3555 -0.5293
  701MOL0     C96619   0.649   1.896   5.857 -0.9410  0.7970  0.8150
  701MOL0     C96620   0.555   1.983   5.783 -0.9644  0.7227  0.2368
  701MOL0     C96621   0.597   2.130   5.782  0.4485  0.2742 -0.0985
  701MOL0     C96622   0.520   2.211   5.683 -0.7044 -0.4614 -0.5470
  701MOL0     C96623   0.373   2.214   5.722 -0.3336  0.0618 -0.0746
  701MOL0     O96624   0.309   2.114   5.639  0.1336 -0.8552  0.9299
  701MOL0     C96625   0.217   2.042   5.692 -0.5843  0.3284  1.0520
  701MOL0     C96626   0.199   2.016   5.827  0.5128  0.0574 -0.3629
  701MOL0     C96627   0.096   1.918   5.859 -0.2166 -0.5332 -1.2457
  701MOL0     C96628   0.075   1.922   6.007 -0.5392 -0.0512 -0.1253
  701MOL0     C96629   0.007   1.856   5.759 -0.1399 -0.9043  0.9943
  701MOL0     C96630  -0.113   1.776   5.789  0.0116  0.1279 -1.2779
  701MOL0     O96631  -0.160   1.787   5.917  0.5474  0.2706  0.1841
  701MOL0     C96632  -0.257   1.684   5.943  0.4397 -0.2289 -0.8488
  701MOL0     C96633  -0.221   1.560   6.000 -0.5259 -0.2100  0.4812
  701MOL0     C96634  -0.322   1.473   6.032  1.0170  0.8380 -0.5158
  701MOL0     C96635  -0.463   1.497   6.015 -0.4824 -0.2593  0.5477
  701MOL0     O96636  -0.547   1.403   6.059 -0.0712  0.6534  0.8451
  701MOL0     C96637  -0.677   1.422   6.043 -0.0434  0.5480 -0.1105
  701MOL0     C96638  -0.765   1.311   6.095  0.4685  0.1249 -0.2016
  701MOL0     C96639  -0.695   1.205   6.198  0.5935  0.6035 -0.2331
  701MOL0     C96640  -0.695   1.271   6.338 -0.7300  0.1311 -1.0198
  701MOL0     C96641  -0.623   1.185   6.448 -0.1758  0.6426 -0.2201
  701MOL0     C96642  -0.499   1.104   6.405  0.9398 -0.4629 -0.4291
  701MOL0     C96643  -0.426   1.049   6.522  0.0914 -0.7006 -0.6804
  701MOL0     C96644  -0.308   0.953   6.481 -0.3400  0.4900  0.0473
  701MOL0    Cl96645  -0.220   0.962   6.637 -0.2573  0.1724 -0.2909
  701MOL0     C96646  -0.486   1.622   5.957  0.0989  0.4654  0.6184
  701MOL0     C96647  -0.389   1.712   5.918 -0.1246 -0.3934 -0.0899
  701MOL0     O96648  -0.150   1.687   5.708 -0.7864  0.0562 -0.5637
  701MOL0     C96649   0.055   1.879   5.626  0.2022  0.0056  0.0502
  701MOL0     C96650   0.151   1.969   5.598 -0.7801 -0.6749  0.7227
  701MOL0     N96651   0.673   1.758   5.831 -0.8946  0.3482 -0.0812
  701MOL0     N96652   0.770   1.715   5.905  0.1304  0.0681  0.0790
  701MOL0     C96653   1.206   2.376   6.747 -0.1798  0.3932  0.0355
  701MOL0     C96654   1.095   2.438   6.803  0.0651  0.6760  0.9214
  701MOL0     C96655   0.794   2.748   6.907  0.3376  1.5471  0.9211
  701MOL0     C96656   0.666   2.687   6.862 -0.4455 -0.7574  0.4164
  701MOL0     C96657   0.541   2.748   6.896 -0.8899 -0.0817 -0.4485
  701MOL0     C96658   0.545   2.859   6.981  1.1383  0.2392  0.6887
  701MOL0     O96659   0.434   2.921   7.025 -0.4049 -0.2510  0.2707
  701MOL0     C96660   0.298   2.881   6.994 -0.2761 -0.8832  0.2455
  701MOL0     C96661   0.255   2.757   7.075  0.5373  0.0271  0.4609
  701MOL0     C96662   0.105   2.738   7.049 -0.1732 -0.5211 -0.0081
  701MOL0     C96663   0.025   2.702   7.179 -0.4509  0.1480 -0.6252
  701MOL0     C96664  -0.122   2.700   7.161 -0.1698  0.2925 -0.0885
  701MOL0     C96665  -0.244   2.679   7.167 -0.2153  0.7650 -0.9942
  701MOL0     C96666   0.666   2.913   7.020  0.0967  0.0663 -0.3263
  701MOL0     C96667   0.793   2.856   6.985  0.7636  0.3187  0.5408
  701MOL0     C96668   0.910   2.908   7.052 -0.0185 -0.8948  0.1268
  701MOL0     H96669   0.956   2.560   6.527  0.1336 -0.6494  0.2668
  701MOL0     H96670   1.137   2.452   6.423 -2.8348  1.2312  0.2750
  701MOL0     H96671   1.306   2.134   6.645 -1.3882  0.9194 -1.1348
  701MOL0     H96672   1.463   2.209   6.660  0.9624  2.1609 -0.4640
  701MOL0     H96673   1.475   2.191   6.401 -2.3017 -0.1745 -1.9502
  701MOL0     H96674   1.474   2.044   6.484  2.1863  1.3780  0.2567
  701MOL0     H96675   1.233   2.018   6.424 -1.1995  1.3942 -2.5539
  701MOL0     H96676   1.228   2.180   6.357  1.0371 -0.6753 -2.7555
  701MOL0     H96677   1.411   2.096   6.200 -0.5599 -0.1618 -0.5534
  701MOL0     H96678   1.393   1.935   6.273  0.3879 -0.2235  3.0025
  701MOL0     H96679   1.283   1.963   6.046 -0.4345 -1.5138  0.1740
  701MOL0     H96680   1.193   2.097   6.089 -0.8211 -2.5299 -3.0295
  701MOL0     H96681   1.137   1.821   6.207  1.4222 -0.7859 -0.4645
  701MOL0     H96682   1.075   1.975   6.272 -1.5726 -2.1692 -0.4862
  701MOL0     H96683   1.058   1.924   5.976 -0.0262  0.9742 -0.1162
  701MOL0     H96684   0.972   2.033   6.093 -0.4909 -0.5574  2.1022
  701MOL0     H96685   0.972   1.728   6.096  0.4781  0.8197  2.7179
  701MOL0     H96686   0.850   1.836   6.181 -3.7874 -3.7309 -2.1200
  701MOL0     H96687   0.741   2.031   5.994 -3.5097 -0.0968  1.3005
  701MOL0     H96688   0.461   1.979   5.839  0.4692  1.6505  2.9147
  701MOL0     H96689   0.548   1.937   5.684  1.7493  1.7832 -0.5561
  701MOL0     H96690   0.591   2.179   5.879  0.6001  0.9392 -0.4158
  701MOL0     H96691   0.703   2.144   5.759  0.3941  2.3280  0.7353
  701MOL0     H96692   0.562   2.311   5.675 -4.2296  1.6388  3.4560
  701MOL0     H96693   0.531   2.164   5.585 -0.3155 -0.3918 -0.5378
  701MOL0     H96694   0.364   2.187   5.827  0.2244 -4.0296 -0.8903
  701MOL0     H96695   0.325   2.307   5.690 -1.6245 -0.7886 -0.6973
  701MOL0     H96696   0.260   2.064   5.902 -0.4029  1.3778 -0.4267
  701MOL0     H96697   0.155   1.952   6.075 -0.5728  1.8537 -0.8561
  701MOL0     H96698   0.035   1.827   6.044 -1.0590 -0.3597 -1.4117
  701MOL0     H96699  -0.011   1.990   6.010 -0.3638  0.3177 -2.1412
  701MOL0     H96700  -0.116   1.551   6.024 -0.3330  1.5653  0.4237
  701MOL0     H96701  -0.297   1.376   6.076 -1.7083  0.1044 -0.4103
  701MOL0     H96702  -0.702   1.510   6.103 -1.0032 -0.3800  0.8791
  701MOL0     H96703  -0.706   1.447   5.940 -3.8816 -0.1836  0.6534
  701MOL0     H96704  -0.858   1.345   6.142 -0.8065 -2.7448 -0.4197
  701MOL0     H96705  -0.794   1.260   6.003  0.7968 -0.6832  0.1323
  701MOL0     H96706  -0.590   1.186   6.172  0.0205 -3.7194 -0.1917
  701MOL0     H96707  -0.747   1.110   6.211 -2.5601  2.2979  0.5588
  701MOL0     H96708  -0.799   1.289   6.368 -0.5414 -0.7200  0.2363
  701MOL0     H96709  -0.642   1.367   6.333  4.0112 -1.8902  2.2388
  701MOL0     H96710  -0.585   1.253   6.524  2.0009 -1.3963  0.6212
  701MOL0     H96711  -0.694   1.107   6.480 -0.1976  1.0837  0.8237
  701MOL0     H96712  -0.431   1.172   6.353  0.9750  0.4591  0.7790
  701MOL0     H96713  -0.540   1.026   6.340 -2.4805  1.1470 -0.4059
  701MOL0     H96714  -0.493   0.997   6.590 -0.7912  0.0999 -0.9236
  701MOL0     H96715  -0.386   1.138   6.572  1.9204 -2.1834  0.6478
  701MOL0     H96716  -0.235   0.982   6.405  0.9396 -0.2740  0.9421
  701MOL0     H96717  -0.340   0.850   6.459  0.2466  0.7713 -2.5157
  701MOL0     H96718  -0.590   1.654   5.957 -0.3650 -0.5315  4.5713
  701MOL0     H96719  -0.418   1.810   5.881 -1.7416 -0.4205  1.0104
  701MOL0     H96720   0.012   1.826   5.542  2.6047  1.2260 -2.0734
  701MOL0     H96721   0.176   1.979   5.493 -2.8908 -2.5566 -0.0370
  701MOL0     H96722   1.261   2.315   6.817 -0.7058  1.3231  1.2989
  701MOL0     H96723   1.103   2.430   6.911 -1.3464 -0.1435  1.0012
  701MOL0     H96724   0.659   2.600   6.798  1.2758  0.5601 -1.6958
  701MOL0     H96725   0.453   2.714   6.841 -1.0192 -0.3044 -0.1038
  701MOL0     H96726   0.234   2.965   7.022 -0.1826 -0.1069 -1.7312
  701MOL0     H96727   0.287   2.868   6.886 -1.9089 -0.6326  0.3525
  701MOL0     H96728   0.265   2.763   7.183  0.9825 -2.6263  0.6239
  701MOL0     H96729   0.296   2.669   7.025 -0.0749 -0.3351  0.5778
  701MOL0     H96730   0.057   2.829   7.010  2.0661  2.1785  2.9089
  701MOL0     H96731   0.080   2.647   6.994 -1.2275  0.7949 -1.8119
  701MOL0     H96732   0.059   2.761   7.265  4.1165 -2.0381 -0.6475
  701MOL0     H96733   0.058   2.602   7.209 -1.7853 -0.6950 -1.8680
  701MOL0     H96734  -0.350   2.675   7.182 -0.2027  2.2095 -0.3566
  701MOL0     H96735   0.673   2.990   7.096  0.5852 -0.8988  0.6445
  701MOL0     H96736   0.886   2.976   7.134  0.5060  0.0609 -0.4855
  701MOL0     H96737   0.973   2.833   7.100  4.1858  2.1356 -0.0703
  701MOL0     H96738   0.977   2.954   6.979 -0.0828 -1.6929 -0.4488
  702MOL0     O96739   9.741   9.640   6.744  0.0586  0.3376  0.0487
  702MOL0     C96740   9.635   9.590   6.704 -1.2224  0.7281 -0.5451
  702MOL0     O96741   9.600   9.592   6.573  0.0492  0.1744  0.8171
  702MOL0     C96742   9.674   9.659   6.480  0.3278  0.2609  0.7385
  702MOL0     C96743   9.786   9.599   6.425  0.0668  1.0821 -0.2633
  702MOL0     C96744   9.858   9.670   6.329  0.5995  0.0355  1.1294
  702MOL0     C96745   9.812   9.790   6.273  0.6835 -0.0173  0.4021
  702MOL0     O96746   9.858   9.849   6.155  0.2204 -0.0213  0.4629
  702MOL0     C96747   9.845   9.767   6.036 -0.1834  1.0403  0.3470
  702MOL0     C96748   9.827   9.871   5.923 -0.6356 -0.1500  0.7457
  702MOL0     C96749   9.881  10.015   5.940 -0.2491 -0.2910 -0.1778
  702MOL0     C96750  10.033  10.024   5.969  1.2678  0.5267  0.3225
  702MOL0     C96751  10.086  10.169   5.960 -0.5888 -0.6617 -0.7566
  702MOL0     C96752  10.236  10.169   6.005 -0.2674 -0.0657 -0.1263
  702MOL0     C96753  10.272  10.326   6.003 -0.7967 -0.1072 -0.2862
  702MOL0     C96754  10.385  10.339   6.112  1.0686  0.4167  0.0340
  702MOL0     N96755  10.420  10.474   6.165 -0.2571  0.4376 -0.6072
  702MOL0     C96756  10.465  10.572   6.079  0.9339  0.2960  0.1140
  702MOL0     C96757  10.530  10.657   6.173  1.2533 -0.2207 -0.2453
  702MOL0     C96758  10.622  10.769   6.133  0.3300  0.0280 -0.5051
  702MOL0     C96759  10.704  10.742   6.005 -0.6713  0.1502 -0.6799
  702MOL0     C96760  10.833  10.669   6.032  0.4264  0.1405  0.9482
  702MOL0     C96761  10.824  10.527   6.068  0.4114 -0.0233  0.1080
  702MOL0     O96762  10.954  10.480   6.115 -0.1848 -0.4056  0.2807
  702MOL0     C96763  10.956  10.367   6.188  0.6911  0.4842  0.1856
  702MOL0     C96764  10.852  10.277   6.202  0.2493  0.0364 -0.0038
  702MOL0     C96765  10.870  10.152   6.267  0.0218 -0.0740  0.3476
  702MOL0     C96766  10.747  10.062   6.271 -0.9882 -0.7734  0.9737
  702MOL0     C96767  10.992  10.117   6.327 -0.4627  0.3797  0.1520
  702MOL0     C96768  11.032   9.991   6.395 -0.1833  0.9891  0.0450
  702MOL0     O96769  11.165   9.958   6.401  0.2601 -0.1072  0.6246
  702MOL0     C96770  11.217   9.925   6.524 -0.3418  1.0320  1.5764
  702MOL0     C96771  11.183  10.004   6.634 -1.1877  0.0769 -0.0020
  702MOL0     C96772  11.243   9.972   6.756  0.7870 -0.0705 -0.7829
  702MOL0     C96773  11.342   9.886   6.784  0.4561 -0.4164  0.3030
  702MOL0     O96774  11.396   9.859   6.915  0.3625  0.7668  0.9004
  702MOL0     C96775  11.459   9.971   6.970  0.3411 -0.2943 -0.0795
  702MOL0     C96776  11.556   9.924   7.072  0.6762  1.1342  0.5504
  702MOL0     C96777  11.702   9.887   7.021 -0.0705 -0.5444 -0.5017
  702MOL0     C96778  11.805   9.888   7.127 -1.1050 -0.1605  0.2360
  702MOL0     C96779  11.799   9.757   7.206 -0.1923 -0.5753  0.4176
  702MOL0     C96780  11.891   9.739   7.326 -0.6791 -0.6581 -0.3591
  702MOL0     C96781  11.807   9.739   7.452  0.5815 -0.4854 -0.1297
  702MOL0     C96782  11.869   9.672   7.570  0.0770  0.3129 -0.2748
  702MOL0    Cl96783  11.985   9.788   7.648 -0.2119 -0.0943  0.1671
  702MOL0     C96784  11.388   9.825   6.666 -0.1820 -0.3099  0.1945
  702MOL0     C96785  11.329   9.844   6.540  0.1321 -0.0904  0.1082
  702MOL0     O96786  10.942   9.908   6.416  0.9875 -0.2494  0.8171
  702MOL0     C96787  11.092  10.217   6.310  0.2642  0.2925 -0.2091
  702MOL0     C96788  11.082  10.334   6.244  0.1814 -0.1375 -0.1037
  702MOL0     N96789  10.522  10.601   6.300 -0.1698 -0.6000  0.5643
  702MOL0     N96790  10.454  10.497   6.296 -0.5141 -0.1540  0.4079
  702MOL0     C96791   9.692   9.843   6.329 -0.3712  0.4405  0.1553
  702MOL0     C96792   9.627   9.778   6.433  1.0331 -0.1257 -0.5174
  702MOL0     C96793   9.544   9.510   6.796  0.9292  0.1044 -0.1401
  702MOL0     C96794   9.463   9.410   6.733 -1.0424 -0.0385  0.8514
  702MOL0     C96795   9.374   9.329   6.804  0.6000 -0.0325  0.7968
  702MOL0     C96796   9.363   9.340   6.946 -0.5788 -0.4693 -0.8521
  702MOL0     O96797   9.290   9.259   7.033  0.6988 -0.2972  0.5866
  702MOL0     C96798   9.201   9.160   6.974 -0.3222 -0.4686 -0.4088
  702MOL0     C96799   9.053   9.198   6.956  0.0189  0.2777  0.4045
  702MOL0     C96800   8.988   9.248   7.087 -0.3305 -0.3906 -0.2536
  702MOL0     C96801   8.839   9.265   7.047  0.0887  0.3593 -0.4904
  702MOL0     C96802   8.767   9.140   7.056 -0.4788  0.0275 -0.5482
  702MOL0     C96803   8.721   9.023   7.044  0.8177 -0.8729  0.1261
  702MOL0     C96804   9.448   9.437   7.012 -0.3712 -0.1065  0.2546
  702MOL0     C96805   9.531   9.520   6.935 -0.1039 -0.4147  0.3284
  702MOL0     C96806   9.614   9.620   7.016 -1.0926  0.1047  0.3676
  702MOL0     H96807   9.813   9.500   6.460  2.2952  1.8280  0.2758
  702MOL0     H96808   9.937   9.607   6.289 -0.5417 -0.8395  0.1698
  702MOL0     H96809   9.768   9.688   6.030  1.0503 -0.0828 -1.5559
  702MOL0     H96810   9.945   9.725   6.023  0.1222  1.3000  1.6970
  702MOL0     H96811   9.877   9.825   5.837 -1.2682  1.0581 -0.3004
  702MOL0     H96812   9.720   9.873   5.899 -0.3596 -2.9280 -1.1334
  702MOL0     H96813   9.864  10.071   5.847 -2.0924 -0.9530 -0.2749
  702MOL0     H96814   9.827  10.059   6.024 -2.9421 -0.5804 -1.6421
  702MOL0     H96815  10.051   9.983   6.069  1.1587  1.0397  0.5560
  702MOL0     H96816  10.088   9.956   5.904  0.8592 -0.5236  1.0467
  702MOL0     H96817  10.024  10.224   6.032 -1.5127 -0.5482 -1.6034
  702MOL0     H96818  10.074  10.224   5.866  1.9638  2.5369  0.5907
  702MOL0     H96819  10.258  10.133   6.106 -0.7070  1.1574  0.4275
  702MOL0     H96820  10.287  10.107   5.930 -0.3945  0.3793 -0.5847
  702MOL0     H96821  10.182  10.386   6.017 -0.6122  1.0694 -3.3096
  702MOL0     H96822  10.309  10.351   5.903  3.4381 -3.1923  0.2523
  702MOL0     H96823  10.378  10.278   6.203  0.2180  0.5007  0.0262
  702MOL0     H96824  10.479  10.300   6.070  0.2339 -0.7994 -0.7847
  702MOL0     H96825  10.453  10.581   5.972  1.8518  0.3860  0.0095
  702MOL0     H96826  10.684  10.794   6.219  0.8599 -0.6814 -0.6745
  702MOL0     H96827  10.549  10.844   6.099  3.0702  2.4260 -1.5545
  702MOL0     H96828  10.645  10.683   5.934 -1.3152  0.8050 -0.7038
  702MOL0     H96829  10.738  10.838   5.965 -1.2096  0.1460 -1.1660
  702MOL0     H96830  10.900  10.662   5.946 -2.0347 -0.4750 -1.0593
  702MOL0     H96831  10.878  10.719   6.118  1.9928  0.3772  0.0213
  702MOL0     H96832  10.761  10.512   6.156  0.1325 -1.2210 -0.2809
  702MOL0     H96833  10.790  10.457   5.992  0.5473 -2.1002  1.8477
  702MOL0     H96834  10.758  10.291   6.150  0.1263 -1.4166 -0.1979
  702MOL0     H96835  10.739  10.030   6.376 -0.8232 -0.2802  1.1408
  702MOL0     H96836  10.772   9.984   6.199 -0.0606 -1.1128  1.6469
  702MOL0     H96837  10.649  10.099   6.238 -0.0849  0.8886  0.0479
  702MOL0     H96838  11.109  10.083   6.632 -0.8218  0.4092 -1.0740
  702MOL0     H96839  11.207  10.022   6.846  2.1967 -2.7779  1.4115
  702MOL0     H96840  11.509  10.019   6.885 -1.1230 -1.5648 -1.7319
  702MOL0     H96841  11.381  10.029   7.021 -0.6870 -0.1473 -1.7424
  702MOL0     H96842  11.548   9.999   7.151 -1.5089  1.2134  0.3084
  702MOL0     H96843  11.511   9.832   7.111 -0.2785  1.8056  1.0452
  702MOL0     H96844  11.725   9.966   6.949  3.4343 -2.7815 -2.0773
  702MOL0     H96845  11.698   9.796   6.962 -3.0034  0.2021 -1.6232
  702MOL0     H96846  11.803   9.965   7.204 -1.8157  0.4934 -0.4095
  702MOL0     H96847  11.900   9.883   7.073 -1.0395  3.3527 -0.2448
  702MOL0     H96848  11.694   9.728   7.223 -1.3030  2.0247 -1.2873
  702MOL0     H96849  11.838   9.682   7.137 -0.0598 -1.4471  1.4194
  702MOL0     H96850  11.958   9.825   7.330 -1.2090 -0.1970 -1.2127
  702MOL0     H96851  11.957   9.653   7.308 -0.6766 -0.8837  0.6459
  702MOL0     H96852  11.720   9.675   7.432 -1.9274  2.5799  0.0870
  702MOL0     H96853  11.769   9.839   7.474  1.0098 -0.4837  0.6450
  702MOL0     H96854  11.928   9.583   7.546  1.6203  0.4358  2.6496
  702MOL0     H96855  11.796   9.649   7.647  2.4240 -0.3543  1.8802
  702MOL0     H96856  11.477   9.764   6.675  1.5835  1.9154 -0.9109
  702MOL0     H96857  11.357   9.802   6.444  1.2713  0.0258  0.3762
  702MOL0     H96858  11.183  10.186   6.360 -0.3637 -1.1506  0.1053
  702MOL0     H96859  11.170  10.397   6.240  2.7684 -3.2741  1.7110
  702MOL0     H96860   9.647   9.932   6.285 -1.5025 -1.4233 -2.7708
  702MOL0     H96861   9.536   9.814   6.480  0.5196 -3.5947  1.5209
  702MOL0     H96862   9.467   9.406   6.624 -1.0923 -2.1384  0.8795
  702MOL0     H96863   9.316   9.252   6.755 -0.3255  1.8097 -1.1761
  702MOL0     H96864   9.240   9.119   6.881 -0.3442  1.5640 -1.3601
  702MOL0     H96865   9.196   9.078   7.046  0.0433 -0.9856 -0.9629
  702MOL0     H96866   8.991   9.122   6.907  0.0368  0.0099  0.7929
  702MOL0     H96867   9.058   9.287   6.893 -0.4901 -1.9074 -2.9901
  702MOL0     H96868   9.011   9.178   7.167  3.6821 -1.6349 -2.2400
  702MOL0     H96869   9.028   9.345   7.119 -1.6658  0.2848 -0.5318
  702MOL0     H96870   8.825   9.306   6.946  1.0624  0.1346 -0.7285
  702MOL0     H96871   8.804   9.339   7.120  0.4369  0.4528 -0.4163
  702MOL0     H96872   8.682   8.924   7.031  0.1659 -0.3808 -2.1117
  702MOL0     H96873   9.455   9.463   7.117 -4.0296  2.4612  0.0570
  702MOL0     H96874   9.587   9.633   7.121  0.1943  1.1054  0.6125
  702MOL0     H96875   9.717   9.583   7.010 -1.0681  0.2066  0.1314
  702MOL0     H96876   9.608   9.715   6.962  1.4821 -0.4020 -0.9780
  703MOL0     O96877  11.204   9.560   4.154  0.4862 -0.0894  0.3901
  703MOL0     C96878  11.201   9.678   4.205  0.1155 -0.3641  0.6794
  703MOL0     O96879  11.307   9.731   4.289 -0.3978 -1.0597  0.5124
  703MOL0     C96880  11.384   9.634   4.352 -0.5337  0.6843 -0.0046
  703MOL0     C96881  11.520   9.626   4.335  0.7358  0.2509  0.0068
  703MOL0     C96882  11.604   9.536   4.411  0.0427  0.0102  0.8559
  703MOL0     C96883  11.549   9.457   4.506 -0.5750  0.0953 -0.1757
  703MOL0     O96884  11.644   9.364   4.551  0.1972 -0.0994 -0.1142
  703MOL0     C96885  11.594   9.295   4.664  0.3646  0.5902 -0.8507
  703MOL0     C96886  11.693   9.200   4.724 -0.6858 -0.0072 -0.3192
  703MOL0     C96887  11.789   9.276   4.815  0.5292  0.4092  0.0061
  703MOL0     C96888  11.904   9.180   4.856  0.0114 -0.1882 -0.2401
  703MOL0     C96889  11.993   9.224   4.972 -0.2646  0.3025 -0.8700
  703MOL0     C96890  12.135   9.158   4.978  0.1412 -0.2040  0.1299
  703MOL0     C96891  12.149   9.004   4.995 -0.1320  0.3096  0.4645
  703MOL0     C96892  12.038   8.938   5.081  0.3765 -0.7072  0.4649
  703MOL0     N96893  12.096   8.937   5.216 -0.3803 -0.4039  0.2728
  703MOL0     C96894  12.190   8.839   5.256  0.4529  1.1857  1.3439
  703MOL0     C96895  12.198   8.860   5.381 -0.5893  0.1016 -0.7809
  703MOL0     C96896  12.248   8.760   5.490  0.3471 -0.3673 -0.2098
  703MOL0     C96897  12.385   8.703   5.454  1.2008  0.2301 -0.0218
  703MOL0     C96898  12.439   8.650   5.594  0.5336 -0.0468  0.0254
  703MOL0     C96899  12.582   8.600   5.586 -0.2511  0.1651  0.0727
  703MOL0     O96900  12.690   8.694   5.582 -0.0588  0.2373  0.5123
  703MOL0     C96901  12.806   8.647   5.634  0.0386 -0.8351  0.0013
  703MOL0     C96902  12.824   8.649   5.773 -0.1780  0.8642 -0.1584
  703MOL0     C96903  12.936   8.618   5.828  0.5221 -0.3595  0.9562
  703MOL0     C96904  12.949   8.620   5.977 -0.2682 -0.0644  0.2953
  703MOL0     C96905  13.053   8.592   5.750  0.5613 -0.1182 -0.2173
  703MOL0     C96906  13.195   8.562   5.804 -0.3793 -0.1452 -0.5286
  703MOL0     O96907  13.285   8.485   5.730  0.0331 -0.1228 -0.2037
  703MOL0     C96908  13.421   8.459   5.758  0.1329 -0.5383  0.7515
  703MOL0     C96909  13.486   8.379   5.666  0.5567  0.3047 -0.8672
  703MOL0     C96910  13.619   8.345   5.672 -0.3260  0.6084  0.1032
  703MOL0     C96911  13.692   8.400   5.782 -0.1100 -0.1528 -1.2130
  703MOL0     O96912  13.829   8.391   5.792 -0.0612  0.5713  0.1240
  703MOL0     C96913  13.896   8.262   5.798  0.2477 -0.2892 -0.3943
  703MOL0     C96914  13.976   8.225   5.684 -0.7794 -0.6803  0.2521
  703MOL0     C96915  14.097   8.316   5.659 -0.0568  0.0490  0.3670
  703MOL0     C96916  14.201   8.265   5.553  0.3086  0.7137  0.4756
  703MOL0     C96917  14.332   8.341   5.574  0.3826  1.0235  1.4706
  703MOL0     C96918  14.409   8.335   5.442 -0.8288  0.6991  0.2388
  703MOL0     C96919  14.325   8.390   5.323 -0.0937  0.6862  0.2680
  703MOL0     C96920  14.429   8.469   5.231  0.3318 -0.7706 -0.3972
  703MOL0    Cl96921  14.548   8.358   5.164 -0.3259  0.3528  0.2532
  703MOL0     C96922  13.630   8.487   5.880  0.4264  0.1248  0.5945
  703MOL0     C96923  13.493   8.522   5.863  1.0255  0.3761  0.9855
  703MOL0     O96924  13.219   8.609   5.917  0.1682 -0.0014 -0.3783
  703MOL0     C96925  13.042   8.595   5.611  0.3421 -0.9984  0.2290
  703MOL0     C96926  12.927   8.622   5.555  0.2367 -0.3987  0.7765
  703MOL0     N96927  12.126   8.970   5.419  1.4175 -0.1220 -0.5476
  703MOL0     N96928  12.072   9.028   5.317  0.0202  0.0483 -0.3776
  703MOL0     C96929  11.408   9.473   4.531 -0.2507 -0.0134 -0.2906
  703MOL0     C96930  11.328   9.561   4.454 -0.4402  0.2575 -0.6061
  703MOL0     C96931  11.108   9.773   4.144  0.1940 -0.6484 -0.0815
  703MOL0     C96932  11.151   9.908   4.125  0.2256  0.7861  0.5454
  703MOL0     C96933  11.069  10.001   4.074 -0.1562 -0.8164 -0.0465
  703MOL0     C96934  10.944   9.970   4.031  0.3454  0.1381  0.1705
  703MOL0     O96935  10.858  10.068   3.970  0.0740 -0.3357  0.5038
  703MOL0     C96936  10.916  10.187   3.937  0.1530 -0.6903  0.4192
  703MOL0     C96937  10.839  10.273   3.844 -0.7153 -0.5504  0.6909
  703MOL0     C96938  10.683  10.292   3.882 -0.1469  0.8540  0.6559
  703MOL0     C96939  10.608  10.397   3.799 -0.2750  1.0142 -0.6587
  703MOL0     C96940  10.543  10.355   3.678  0.5759 -0.1779  0.9736
  703MOL0     C96941  10.496  10.342   3.569 -0.8656  0.1332 -0.1640
  703MOL0     C96942  10.899   9.844   4.054 -0.3314  0.1874 -0.0024
  703MOL0     C96943  10.984   9.740   4.110 -0.1927  0.4209  0.0676
  703MOL0     C96944  10.935   9.601   4.128  0.3834  0.3194  0.7592
  703MOL0     H96945  11.573   9.676   4.254  2.6977 -2.8111 -0.7913
  703MOL0     H96946  11.710   9.533   4.388  0.1274  1.9721  0.7841
  703MOL0     H96947  11.507   9.240   4.626  1.1819 -0.3133 -1.4565
  703MOL0     H96948  11.574   9.366   4.744  1.9791 -0.6828  0.7586
  703MOL0     H96949  11.640   9.116   4.772 -2.0254 -0.7299 -2.8851
  703MOL0     H96950  11.751   9.149   4.646 -0.5112 -0.5937  0.1789
  703MOL0     H96951  11.837   9.358   4.761  0.0643 -0.5714 -1.9730
  703MOL0     H96952  11.732   9.326   4.894  2.0246  3.0599 -0.4728
  703MOL0     H96953  11.858   9.087   4.894 -3.2518  1.6213  0.6700
  703MOL0     H96954  11.952   9.150   4.763 -0.2943  1.0952 -0.8381
  703MOL0     H96955  11.942   9.188   5.062 -0.3993 -2.7389 -2.0539
  703MOL0     H96956  12.013   9.332   4.972  1.6852 -0.0161  0.0951
  703MOL0     H96957  12.186   9.190   4.887 -0.8913  2.5246  0.4107
  703MOL0     H96958  12.193   9.198   5.062 -1.5697 -1.2228  1.8768
  703MOL0     H96959  12.243   8.967   5.036 -0.7834 -1.7920  0.2167
  703MOL0     H96960  12.130   8.948   4.903  2.9513  0.7122 -0.5334
  703MOL0     H96961  11.940   8.988   5.078  1.2423  1.4332  3.1095
  703MOL0     H96962  12.031   8.838   5.038  1.9194 -0.6233 -0.0381
  703MOL0     H96963  12.218   8.745   5.209 -0.6031  2.1023 -1.3502
  703MOL0     H96964  12.176   8.678   5.491  0.1114 -0.3069 -3.2687
  703MOL0     H96965  12.245   8.819   5.582  0.2083  0.2883 -0.6245
  703MOL0     H96966  12.382   8.616   5.388 -4.0101 -0.4486  0.7267
  703MOL0     H96967  12.454   8.785   5.432  0.9282  1.0890  2.0786
  703MOL0     H96968  12.442   8.735   5.663 -1.1841 -0.2897  0.4358
  703MOL0     H96969  12.379   8.567   5.633  1.4214 -0.2510  1.0325
  703MOL0     H96970  12.598   8.521   5.660 -3.7900  0.6509  1.5486
  703MOL0     H96971  12.594   8.548   5.490 -1.7936 -2.9776  1.4203
  703MOL0     H96972  12.737   8.678   5.832 -1.7563 -0.4025 -1.7426
  703MOL0     H96973  13.004   8.705   6.017 -0.2093 -1.5961  3.9104
  703MOL0     H96974  13.002   8.526   5.996 -1.4501 -0.3342  2.6318
  703MOL0     H96975  12.853   8.619   6.030 -0.8461  5.6134 -0.0970
  703MOL0     H96976  13.425   8.323   5.595  0.7931  1.5140 -2.0527
  703MOL0     H96977  13.669   8.281   5.600  2.6529  0.3958  2.1873
  703MOL0     H96978  13.966   8.265   5.881 -0.2835  1.7487  0.0307
  703MOL0     H96979  13.825   8.185   5.827 -0.5195  1.0390  1.4362
  703MOL0     H96980  14.022   8.127   5.703  0.5103 -0.0598  0.4056
  703MOL0     H96981  13.904   8.226   5.602  0.9541  1.6745 -1.3685
  703MOL0     H96982  14.151   8.325   5.754  1.7719 -0.0985 -0.6278
  703MOL0     H96983  14.060   8.411   5.619 -1.6044 -0.8143 -0.3402
  703MOL0     H96984  14.150   8.289   5.459 -2.5252 -1.8332  1.2053
  703MOL0     H96985  14.219   8.157   5.557 -4.2701 -0.2176  1.7897
  703MOL0     H96986  14.318   8.448   5.593 -2.5518  0.7239  1.4477
  703MOL0     H96987  14.385   8.295   5.658 -0.1161  1.5090  2.0721
  703MOL0     H96988  14.428   8.229   5.422 -0.5761  0.9384 -0.8821
  703MOL0     H96989  14.509   8.378   5.453 -0.5433  0.6713 -1.7943
  703MOL0     H96990  14.257   8.470   5.355  0.6606  1.6642 -0.5353
  703MOL0     H96991  14.271   8.314   5.266  3.0996 -1.5458 -0.0248
  703MOL0     H96992  14.473   8.554   5.283  1.0500 -0.5723 -1.3037
  703MOL0     H96993  14.373   8.502   5.143  0.4273 -1.9721 -0.9309
  703MOL0     H96994  13.684   8.529   5.964  0.9541 -0.1751  0.4175
  703MOL0     H96995  13.442   8.591   5.930 -0.0264 -0.6934  1.3108
  703MOL0     H96996  13.130   8.579   5.550 -0.2902  0.9716 -1.3071
  703MOL0     H96997  12.912   8.636   5.449  0.6472  4.1920  1.1268
  703MOL0     H96998  11.351   9.407   4.596 -0.3669  0.6213  0.2636
  703MOL0     H96999  11.221   9.574   4.470 -0.5507 -1.0360 -0.1361
  703MOL0     H97000  11.247   9.940   4.164  1.4646 -0.1800 -1.5446
  703MOL0     H97001  11.106  10.103   4.075 -3.0048  0.4380 -3.3411
  703MOL0     H97002  10.925  10.247   4.028  1.7374  0.0058 -0.1701
  703MOL0     H97003  11.015  10.178   3.891  0.8108  2.8696  0.8775
  703MOL0     H97004  10.856  10.227   3.746  1.1978  2.9802 -0.8045
  703MOL0     H97005  10.899  10.364   3.840  1.7600 -2.0797 -3.6200
  703MOL0     H97006  10.645  10.192   3.856  0.6977  1.1323 -1.8952
  703MOL0     H97007  10.677  10.309   3.990  3.3729 -0.5988  1.1926
  703MOL0     H97008  10.677  10.478   3.772 -2.3135  2.4535 -1.8713
  703MOL0     H97009  10.534  10.437   3.868 -0.8736 -0.2567 -0.5390
  703MOL0     H97010  10.454  10.330   3.471  1.0272  2.2301 -1.3220
  703MOL0     H97011  10.801   9.825   4.013  0.3094 -0.5612 -1.2596
  703MOL0     H97012  10.826   9.598   4.115  0.4257 -0.7307  0.5956
  703MOL0     H97013  10.967   9.535   4.047 -1.4321  0.3872 -0.0497
  703MOL0     H97014  10.951   9.579   4.234 -0.1682  1.0929  1.0152
  704MOL0     O97015   3.876   3.529   7.056  0.1190 -0.1471 -0.1305
  704MOL0     C97016   3.854   3.426   7.125  0.2727  0.0642 -0.0079
  704MOL0     O97017   3.886   3.411   7.261  0.4501  0.2165 -0.0634
  704MOL0     C97018   3.894   3.534   7.328  0.0201  1.2555  0.6938
  704MOL0     C97019   4.014   3.570   7.374  0.2627  0.4892  0.7505
  704MOL0     C97020   4.019   3.690   7.446 -0.2866 -0.1746  0.1416
  704MOL0     C97021   3.903   3.772   7.477  0.0072 -0.0034 -0.5939
  704MOL0     O97022   3.913   3.892   7.553  0.4913  0.8122 -0.1240
  704MOL0     C97023   4.036   3.951   7.592 -0.0691  0.1963 -0.7193
  704MOL0     C97024   4.027   4.092   7.639 -1.2410 -0.2111 -0.6418
  704MOL0     C97025   3.919   4.123   7.746 -0.8980 -0.3048  0.0710
  704MOL0     C97026   3.941   4.039   7.869 -0.3908 -0.4224 -0.1201
  704MOL0     C97027   3.861   4.105   7.985  1.5814 -0.0405 -0.2085
  704MOL0     C97028   3.806   4.005   8.081  1.5308  0.4121 -0.5963
  704MOL0     C97029   3.692   4.054   8.171 -0.0872  0.0068  0.4536
  704MOL0     C97030   3.562   4.034   8.099 -0.3017  0.1779 -0.3499
  704MOL0     N97031   3.498   3.908   8.133 -0.3430 -0.4994  0.6716
  704MOL0     C97032   3.532   3.789   8.080  0.2600 -0.4808  0.1616
  704MOL0     C97033   3.450   3.707   8.150  0.1966  0.8864  0.0177
  704MOL0     C97034   3.455   3.556   8.152  1.1027 -0.0995 -0.0680
  704MOL0     C97035   3.331   3.502   8.083  0.5764  0.6365  0.8888
  704MOL0     C97036   3.340   3.347   8.076  0.7587 -0.9845  0.2251
  704MOL0     C97037   3.273   3.290   7.949 -0.2783 -0.5821  0.0226
  704MOL0     O97038   3.148   3.347   7.925 -0.1537  0.2262  0.0330
  704MOL0     C97039   3.072   3.309   7.818 -0.4172  0.1247 -0.2364
  704MOL0     C97040   3.086   3.183   7.750  1.4865 -0.0318 -0.2292
  704MOL0     C97041   2.992   3.144   7.661 -0.6311 -0.4126  0.4376
  704MOL0     C97042   3.016   3.007   7.599 -0.6713  0.2641  0.0926
  704MOL0     C97043   2.883   3.227   7.626 -0.2350 -0.7064 -0.0114
  704MOL0     C97044   2.775   3.187   7.533  0.7529  0.0456  0.0957
  704MOL0     O97045   2.735   3.050   7.527  0.1395  0.8578  0.2071
  704MOL0     C97046   2.623   3.018   7.450 -0.1911 -0.6201  1.3038
  704MOL0     C97047   2.619   3.027   7.309  0.7174 -1.4055 -0.7165
  704MOL0     C97048   2.515   2.984   7.236 -0.2682 -0.1548 -0.6706
  704MOL0     C97049   2.399   2.923   7.292 -0.0389 -0.5366  0.3902
  704MOL0     O97050   2.292   2.868   7.226 -0.0407 -0.0408  0.1131
  704MOL0     C97051   2.280   2.889   7.085 -0.4911  0.2757 -0.3198
  704MOL0     C97052   2.135   2.873   7.040 -0.1666  0.6604  0.1030
  704MOL0     C97053   2.035   2.984   7.093  0.1422  0.2813 -0.2272
  704MOL0     C97054   1.883   2.939   7.074  0.6988  0.2397  0.4228
  704MOL0     C97055   1.850   2.941   6.910  0.1812  0.2525 -0.2391
  704MOL0     C97056   1.695   2.896   6.888 -0.0838 -0.7846 -0.5149
  704MOL0     C97057   1.679   2.881   6.736 -0.2460 -0.1804 -0.6203
  704MOL0     C97058   1.530   2.898   6.705  0.7019  0.2124  0.9299
  704MOL0    Cl97059   1.512   2.903   6.524  0.6284  0.2010 -0.0632
  704MOL0     C97060   2.401   2.908   7.427 -0.1231 -1.4553 -0.1588
  704MOL0     C97061   2.509   2.955   7.502  0.5159  0.6516 -0.9630
  704MOL0     O97062   2.729   3.274   7.458 -0.5101  1.2050  0.2217
  704MOL0     C97063   2.870   3.345   7.693 -0.3930 -0.9351  0.2491
  704MOL0     C97064   2.960   3.385   7.791  0.0952 -0.3171  0.3657
  704MOL0     N97065   3.364   3.785   8.236 -0.4789  1.0736 -0.5001
  704MOL0     N97066   3.393   3.902   8.223  0.4064 -0.1344 -1.1095
  704MOL0     C97067   3.777   3.726   7.436  0.4393 -0.4255  1.1708
  704MOL0     C97068   3.778   3.606   7.355 -0.6019 -0.4938 -0.4766
  704MOL0     C97069   3.822   3.298   7.054  0.1470  0.3555 -0.6859
  704MOL0     C97070   3.871   3.282   6.931 -0.2062  0.1072 -0.1039
  704MOL0     C97071   3.863   3.154   6.868 -0.1471  0.3680 -0.1305
  704MOL0     C97072   3.803   3.042   6.936  0.0623 -0.6980  0.7533
  704MOL0     O97073   3.813   2.906   6.903 -0.3566 -0.4159  0.4703
  704MOL0     C97074   3.871   2.874   6.778  0.0768 -0.1887 -0.8091
  704MOL0     C97075   3.926   2.733   6.776 -0.0336 -0.0685 -0.8114
  704MOL0     C97076   3.821   2.627   6.796  0.7096 -0.1718 -0.2387
  704MOL0     C97077   3.858   2.481   6.804  1.0924 -0.0687  0.3531
  704MOL0     C97078   3.923   2.431   6.676 -0.0957 -0.1490 -0.8742
  704MOL0     C97079   3.998   2.378   6.601 -0.5136  0.0636  0.5645
  704MOL0     C97080   3.744   3.066   7.057  1.0416  0.1120 -0.5437
  704MOL0     C97081   3.751   3.192   7.122  0.4474  0.7942  0.8547
  704MOL0     C97082   3.681   3.207   7.259  0.5674 -0.3310  0.5016
  704MOL0     H97083   4.107   3.515   7.366 -0.0251  0.2300 -3.7854
  704MOL0     H97084   4.119   3.712   7.482 -0.4172 -2.5956  2.2245
  704MOL0     H97085   4.106   3.944   7.508 -0.0873 -1.1686 -0.6418
  704MOL0     H97086   4.069   3.890   7.676 -0.7709  2.5400  1.3696
  704MOL0     H97087   4.122   4.136   7.672 -1.5248  0.0953 -0.2180
  704MOL0     H97088   3.995   4.143   7.548  0.1643 -3.1811 -2.9427
  704MOL0     H97089   3.908   4.228   7.773  2.4307  0.6421 -1.6748
  704MOL0     H97090   3.822   4.094   7.704  0.0068  0.6752 -2.9459
  704MOL0     H97091   3.903   3.938   7.852  0.2045 -0.5023 -1.0532
  704MOL0     H97092   4.049   4.046   7.886 -0.0134  1.2565 -2.6810
  704MOL0     H97093   3.771   4.158   7.952  0.6729 -2.3786 -1.7186
  704MOL0     H97094   3.924   4.171   8.046  0.6027  1.6925 -1.0011
  704MOL0     H97095   3.776   3.914   8.028 -0.7589  1.7496 -1.7167
  704MOL0     H97096   3.883   3.971   8.152  1.2327  0.3684 -0.2887
  704MOL0     H97097   3.710   4.159   8.195 -0.9600 -0.2507  2.4522
  704MOL0     H97098   3.691   4.006   8.269 -0.7769  2.0887  1.5341
  704MOL0     H97099   3.496   4.120   8.116  1.0396  1.3131 -0.6726
  704MOL0     H97100   3.564   4.024   7.990  0.2679 -0.4796 -0.2857
  704MOL0     H97101   3.609   3.765   8.007  0.7445 -0.1433  0.5586
  704MOL0     H97102   3.449   3.506   8.249 -3.6967 -1.8388 -0.9798
  704MOL0     H97103   3.545   3.515   8.105  2.5519  0.8051  1.8036
  704MOL0     H97104   3.234   3.532   8.125 -0.0465  0.5467 -0.4237
  704MOL0     H97105   3.334   3.533   7.978 -2.4689  1.0086  0.8134
  704MOL0     H97106   3.443   3.310   8.080  0.7479 -1.2315 -1.2734
  704MOL0     H97107   3.297   3.305   8.167 -2.4202 -1.2300 -1.2713
  704MOL0     H97108   3.336   3.313   7.863 -1.4078  2.9814 -0.0455
  704MOL0     H97109   3.259   3.185   7.974  1.6375 -0.2756  2.8060
  704MOL0     H97110   3.170   3.121   7.777  0.3336 -1.3005  0.5594
  704MOL0     H97111   3.110   2.956   7.623 -1.3560 -1.2365 -0.2328
  704MOL0     H97112   3.016   3.011   7.489  0.5196 -4.0201 -0.2574
  704MOL0     H97113   2.934   2.936   7.615 -1.0062  0.9328  1.4889
  704MOL0     H97114   2.708   3.069   7.263  0.8320  2.1276  2.3133
  704MOL0     H97115   2.518   2.991   7.128 -0.5109  2.0351 -0.5974
  704MOL0     H97116   2.309   2.993   7.067  0.4420 -0.4042 -3.3051
  704MOL0     H97117   2.346   2.822   7.028  1.0015  1.1764  0.2734
  704MOL0     H97118   2.122   2.879   6.931 -1.7324 -1.3028  0.1318
  704MOL0     H97119   2.097   2.772   7.055  0.0296  0.3865 -1.1065
  704MOL0     H97120   2.056   3.082   7.049  0.0468  0.3315 -0.1593
  704MOL0     H97121   2.058   2.994   7.199 -2.7564  2.1774  0.3270
  704MOL0     H97122   1.816   3.015   7.116 -3.0030 -0.3190 -3.6760
  704MOL0     H97123   1.860   2.842   7.117  2.0811 -0.8264 -1.1169
  704MOL0     H97124   1.872   3.032   6.855 -0.9881 -0.6779 -2.3949
  704MOL0     H97125   1.913   2.868   6.857 -0.8132 -2.6385  2.2371
  704MOL0     H97126   1.627   2.969   6.933  1.7160 -0.8899  2.6454
  704MOL0     H97127   1.680   2.801   6.940  1.6467 -0.1919  1.1936
  704MOL0     H97128   1.735   2.792   6.706  3.2074  0.9874  1.7707
  704MOL0     H97129   1.739   2.953   6.680  2.3459 -1.3437  0.4648
  704MOL0     H97130   1.490   2.991   6.747  1.9605  2.0934 -1.7405
  704MOL0     H97131   1.465   2.818   6.741 -0.5954  0.7217 -0.1804
  704MOL0     H97132   2.309   2.867   7.466  0.6864 -1.1620  2.2148
  704MOL0     H97133   2.511   2.917   7.603  3.3420 -0.3139 -1.2958
  704MOL0     H97134   2.776   3.395   7.674  0.5180  0.4774 -0.8062
  704MOL0     H97135   2.962   3.482   7.840  1.9272 -0.3835  0.5015
  704MOL0     H97136   3.684   3.776   7.461 -0.1462  0.2265 -1.8933
  704MOL0     H97137   3.683   3.564   7.320 -0.2363 -0.6843 -1.2676
  704MOL0     H97138   3.920   3.360   6.874  0.4685  1.3119  2.0388
  704MOL0     H97139   3.902   3.144   6.767 -2.3436 -2.9415 -0.8363
  704MOL0     H97140   3.796   2.891   6.699  0.7839  3.0642 -0.8943
  704MOL0     H97141   3.952   2.944   6.756  0.2953 -0.5985 -1.3338
  704MOL0     H97142   3.992   2.720   6.862  0.2642 -1.5450 -1.2362
  704MOL0     H97143   3.975   2.716   6.680  1.6244 -2.4335  0.3425
  704MOL0     H97144   3.772   2.652   6.891  1.6122 -1.7898  0.6920
  704MOL0     H97145   3.746   2.644   6.718  0.2700  0.3093  0.2794
  704MOL0     H97146   3.758   2.437   6.809  1.1221 -0.3303 -1.0395
  704MOL0     H97147   3.911   2.447   6.893  0.3129 -1.2772  0.3766
  704MOL0     H97148   4.072   2.339   6.534 -1.3571 -2.5739  1.0463
  704MOL0     H97149   3.692   2.991   7.115 -1.0502  0.4465 -1.8641
  704MOL0     H97150   3.637   3.306   7.268 -2.6875 -1.7619  2.1479
  704MOL0     H97151   3.603   3.130   7.266 -1.5120  0.7547 -5.2798
  704MOL0     H97152   3.761   3.192   7.333  1.9180  3.0692 -0.1116
  705MOL0     O97153   3.315  11.014   7.791  0.6835  0.1126  0.7423
  705MOL0     C97154   3.274  10.997   7.679 -0.8139  0.8667 -0.2705
  705MOL0     O97155   3.181  11.081   7.624 -0.7874 -0.5609  0.3558
  705MOL0     C97156   3.112  11.168   7.708  0.6443  0.7152  0.1001
  705MOL0     C97157   2.968  11.158   7.714 -0.4830  0.2399  0.2526
  705MOL0     C97158   2.894  11.252   7.786 -0.5736  0.1220  0.4488
  705MOL0     C97159   2.952  11.363   7.848  0.0957  0.1255 -0.4247
  705MOL0     O97160   2.875  11.468   7.897  0.4488 -0.2565  0.0892
  705MOL0     C97161   2.882  11.485   8.040 -0.6680  0.0034 -0.0213
  705MOL0     C97162   2.747  11.531   8.098  0.1694  0.3371  0.4350
  705MOL0     C97163   2.641  11.426   8.064 -0.7451  0.0492  0.3292
  705MOL0     C97164   2.535  11.437   8.179 -0.5053  0.2897  0.0875
  705MOL0     C97165   2.554  11.329   8.286  0.6845  0.9765 -0.7083
  705MOL0     C97166   2.456  11.335   8.411  0.7584 -0.5454 -0.2443
  705MOL0     C97167   2.315  11.278   8.397 -0.6538 -0.2314 -0.5263
  705MOL0     C97168   2.213  11.365   8.481  0.0859  0.0326 -0.3480
  705MOL0     N97169   2.159  11.481   8.413  0.2474  0.0101 -0.0889
  705MOL0     C97170   2.230  11.593   8.392 -0.6201  0.2867 -0.7053
  705MOL0     C97171   2.153  11.677   8.324 -0.3627  0.0897  0.1454
  705MOL0     C97172   2.190  11.813   8.280 -0.8489 -0.5022 -0.0237
  705MOL0     C97173   2.337  11.827   8.267 -0.8330  0.5394  0.2081
  705MOL0     C97174   2.380  11.972   8.233 -0.2885  0.0675  0.4718
  705MOL0     C97175   2.524  12.007   8.228  0.1565  0.1984 -0.2195
  705MOL0     O97176   2.612  11.931   8.145  0.4659  0.3993 -0.2844
  705MOL0     C97177   2.662  11.992   8.036  0.3571  0.7333  0.5915
  705MOL0     C97178   2.792  11.975   8.010  0.5628  0.2947 -0.3094
  705MOL0     C97179   2.858  12.059   7.920  0.3386  0.3075  0.1569
  705MOL0     C97180   3.008  12.038   7.904  0.1250  0.4838 -0.2359
  705MOL0     C97181   2.788  12.170   7.859 -0.5270  0.4513 -0.0832
  705MOL0     C97182   2.856  12.275   7.779  1.3655  0.2435  0.0085
  705MOL0     O97183   2.791  12.298   7.664 -0.0076 -0.1114  0.0557
  705MOL0     C97184   2.866  12.371   7.578 -0.0644 -0.4995  0.0086
  705MOL0     C97185   2.999  12.357   7.538 -0.1818 -0.2797 -0.3374
  705MOL0     C97186   3.064  12.453   7.457  0.5569  0.4144  0.7843
  705MOL0     C97187   2.980  12.546   7.391 -0.0673 -0.1257 -0.4473
  705MOL0     O97188   3.017  12.628   7.286 -0.0385  0.7229  1.0489
  705MOL0     C97189   3.083  12.551   7.180  0.0622 -1.1246 -0.5857
  705MOL0     C97190   3.129  12.637   7.054 -0.1656  1.4655  0.3730
  705MOL0     C97191   3.028  12.745   7.016 -0.2953  0.2991 -0.8019
  705MOL0     C97192   3.071  12.831   6.893  0.3980 -0.2957  0.2849
  705MOL0     C97193   2.989  12.965   6.882  0.2049 -0.1243 -0.4552
  705MOL0     C97194   2.980  13.022   6.736 -0.1591  1.0329 -0.2432
  705MOL0     C97195   2.943  13.167   6.735 -0.0071 -0.5343  0.6744
  705MOL0     C97196   2.894  13.207   6.589  0.0783  0.1711 -1.0229
  705MOL0    Cl97197   3.032  13.257   6.491 -0.2591  0.2135  0.3286
  705MOL0     C97198   2.848  12.557   7.431 -0.6867  0.5589 -0.3134
  705MOL0     C97199   2.794  12.477   7.525  0.5104  0.2906  0.4451
  705MOL0     O97200   2.955  12.337   7.825 -0.1163  0.7483  0.0573
  705MOL0     C97201   2.651  12.174   7.869  0.7910  0.4276 -0.4307
  705MOL0     C97202   2.592  12.088   7.962  0.5519  0.7576  0.7991
  705MOL0     N97203   2.041  11.599   8.284 -0.1635 -0.6031 -0.8813
  705MOL0     N97204   2.048  11.488   8.345 -0.2551  0.0475  0.9125
  705MOL0     C97205   3.092  11.369   7.856 -0.6077  0.2690 -0.4059
  705MOL0     C97206   3.164  11.272   7.789  1.1217  0.9654 -0.1614
  705MOL0     C97207   3.318  10.876   7.590 -0.0075  0.1141 -0.5123
  705MOL0     C97208   3.223  10.828   7.500 -0.0276 -0.7890 -0.4392
  705MOL0     C97209   3.232  10.709   7.435 -0.5854 -1.5470 -0.1555
  705MOL0     C97210   3.350  10.632   7.456  0.2565  0.0176 -0.2077
  705MOL0     O97211   3.338  10.506   7.398  1.0010  0.6396 -0.6479
  705MOL0     C97212   3.460  10.425   7.373  0.6231  0.7709 -0.0317
  705MOL0     C97213   3.466  10.313   7.481  0.3068  0.4699 -0.3179
  705MOL0     C97214   3.614  10.253   7.497  0.5967 -0.5782 -0.7289
  705MOL0     C97215   3.653  10.178   7.374 -0.5835 -0.7622  0.3197
  705MOL0     C97216   3.762  10.075   7.400  0.7116 -0.1786 -0.0705
  705MOL0     C97217   3.843   9.989   7.433  0.3375  0.5036  0.1266
  705MOL0     C97218   3.458  10.677   7.546  0.2065 -0.1983  1.2018
  705MOL0     C97219   3.441  10.816   7.594 -0.2554 -0.1640 -0.2634
  705MOL0     C97220   3.558  10.881   7.657 -1.0111 -0.4370  0.2637
  705MOL0     H97221   2.916  11.094   7.644 -1.7198  0.4547  0.9517
  705MOL0     H97222   2.786  11.241   7.786 -0.5201 -0.5429  1.5525
  705MOL0     H97223   2.957  11.561   8.065 -0.4251  0.6871 -2.5813
  705MOL0     H97224   2.916  11.399   8.099  0.3341 -0.4425 -1.2016
  705MOL0     H97225   2.762  11.564   8.201 -0.3226 -0.7679  0.8697
  705MOL0     H97226   2.714  11.624   8.051 -2.2571 -1.6887 -2.2267
  705MOL0     H97227   2.604  11.443   7.962  0.3997 -1.2172 -0.3216
  705MOL0     H97228   2.688  11.328   8.062  1.0778  0.8580  1.1370
  705MOL0     H97229   2.546  11.534   8.227 -0.9979 -0.1536  1.1326
  705MOL0     H97230   2.438  11.413   8.133  1.3042 -0.7174 -3.6315
  705MOL0     H97231   2.660  11.335   8.314  0.7248 -3.9137  1.1045
  705MOL0     H97232   2.536  11.238   8.228 -3.8831  2.1220 -1.5121
  705MOL0     H97233   2.509  11.285   8.493  0.3874  1.4539  1.3081
  705MOL0     H97234   2.453  11.438   8.449 -2.0141 -0.3921 -0.6453
  705MOL0     H97235   2.336  11.174   8.422  3.5187  0.3583 -0.8007
  705MOL0     H97236   2.280  11.281   8.293 -2.0290  3.7386 -0.1143
  705MOL0     H97237   2.129  11.303   8.514 -0.7408  1.4463  0.2763
  705MOL0     H97238   2.252  11.405   8.575 -1.2275 -1.0481  0.6962
  705MOL0     H97239   2.333  11.612   8.421 -1.3138  3.2172  0.1842
  705MOL0     H97240   2.152  11.881   8.357 -2.4896 -0.1895 -1.0592
  705MOL0     H97241   2.145  11.844   8.185  0.1409  3.3107  0.5707
  705MOL0     H97242   2.378  11.802   8.365  0.6273 -0.4531 -0.6198
  705MOL0     H97243   2.378  11.750   8.201  0.3354  0.1995  1.2903
  705MOL0     H97244   2.326  11.997   8.141 -0.3183 -1.6843 -0.0359
  705MOL0     H97245   2.325  12.030   8.307 -1.2731  0.0456 -0.2269
  705MOL0     H97246   2.527  12.113   8.202  1.0530  0.6067  1.3986
  705MOL0     H97247   2.557  11.989   8.330 -1.9059 -4.5425 -0.1228
  705MOL0     H97248   2.842  11.905   8.076  0.8684 -0.2629 -1.1124
  705MOL0     H97249   3.057  12.077   7.994  1.2535  0.3604 -0.7794
  705MOL0     H97250   3.052  12.096   7.822  2.3923 -0.8415 -0.0356
  705MOL0     H97251   3.022  11.933   7.876 -5.3349 -0.7329  0.4100
  705MOL0     H97252   3.078  12.285   7.559  0.5204 -0.2763 -2.6001
  705MOL0     H97253   3.171  12.445   7.443  0.5648 -2.7363  1.8981
  705MOL0     H97254   3.173  12.501   7.218  0.4577 -0.4853 -0.6739
  705MOL0     H97255   3.019  12.466   7.155 -0.7364 -0.9390  0.7291
  705MOL0     H97256   3.227  12.679   7.077 -0.3224  1.0934  1.7681
  705MOL0     H97257   3.143  12.564   6.973 -1.8140 -1.1843  2.3195
  705MOL0     H97258   3.013  12.809   7.103  1.8198  0.9642 -0.8506
  705MOL0     H97259   2.939  12.691   6.985  0.0884 -0.3764 -0.7443
  705MOL0     H97260   3.065  12.775   6.799 -5.2277  2.8394 -1.7161
  705MOL0     H97261   3.172  12.860   6.920  0.0921  0.8042  0.2688
  705MOL0     H97262   2.885  12.939   6.901  0.0176  0.6419 -0.4250
  705MOL0     H97263   3.026  13.028   6.963  1.4056 -2.1524  0.6544
  705MOL0     H97264   2.909  12.964   6.676 -1.3970  3.3039 -1.0804
  705MOL0     H97265   3.078  13.034   6.688  1.1418 -0.2364  1.9287
  705MOL0     H97266   3.022  13.237   6.760 -0.9303  0.6539  0.3668
  705MOL0     H97267   2.866  13.179   6.812  0.0801 -0.0294  0.6847
  705MOL0     H97268   2.822  13.287   6.609  2.2399  2.3791 -1.4542
  705MOL0     H97269   2.850  13.126   6.531 -1.4139  0.7226 -0.7040
  705MOL0     H97270   2.784  12.642   7.409 -0.7596  1.6924  3.4726
  705MOL0     H97271   2.700  12.498   7.576  0.0599  1.0883 -0.6819
  705MOL0     H97272   2.586  12.245   7.818  2.4284  3.0919  0.9339
  705MOL0     H97273   2.487  12.077   7.990  0.6210  0.5810  0.9928
  705MOL0     H97274   3.128  11.449   7.920 -1.4350 -1.4480  2.3906
  705MOL0     H97275   3.270  11.259   7.809  0.9124  0.3207  0.5809
  705MOL0     H97276   3.140  10.894   7.479 -0.4358 -0.8263  0.9268
  705MOL0     H97277   3.156  10.665   7.371  0.8271  0.3151 -3.3477
  705MOL0     H97278   3.449  10.374   7.276 -2.0992 -0.7395  0.9353
  705MOL0     H97279   3.543  10.495   7.368  0.2698  1.2104  0.1823
  705MOL0     H97280   3.395  10.232   7.469  2.0937 -1.6337  2.0707
  705MOL0     H97281   3.450  10.359   7.579 -0.3676  0.0065 -0.2047
  705MOL0     H97282   3.686  10.334   7.511  0.8846 -1.1678  1.7339
  705MOL0     H97283   3.619  10.197   7.591  0.4633 -2.6170 -1.8823
  705MOL0     H97284   3.689  10.258   7.310 -1.4223 -0.3588  0.3379
  705MOL0     H97285   3.575  10.128   7.316  1.3844 -0.7513 -2.5644
  705MOL0     H97286   3.920   9.915   7.446 -1.1824 -1.0696  0.6391
  705MOL0     H97287   3.549  10.624   7.571  1.8990  0.0341 -3.3816
  705MOL0     H97288   3.583  10.834   7.752 -1.4222  0.0563  0.6204
  705MOL0     H97289   3.635  10.867   7.581 -1.6413  1.7946 -0.8625
  705MOL0     H97290   3.548  10.988   7.676  0.7194 -0.2512  0.3124
  706MOL0     O97291   7.501   3.076   0.571  0.4992 -0.7601 -0.6855
  706MOL0     C97292   7.560   2.977   0.572  0.9567  0.7591  0.3629
  706MOL0     O97293   7.510   2.856   0.626  0.1378 -0.7905  0.5841
  706MOL0     C97294   7.433   2.863   0.740 -0.5313 -0.4804  1.1631
  706MOL0     C97295   7.298   2.836   0.738  0.2112 -0.2749 -0.2947
  706MOL0     C97296   7.228   2.840   0.860 -0.2838 -0.5311  0.0029
  706MOL0     C97297   7.296   2.861   0.980 -0.0094 -0.3709  0.4713
  706MOL0     O97298   7.235   2.883   1.099  0.1531  0.1701  0.5631
  706MOL0     C97299   7.103   2.950   1.106 -0.1677  1.0989 -0.2902
  706MOL0     C97300   7.079   2.968   1.255  1.2687 -0.2398  0.0330
  706MOL0     C97301   7.031   2.839   1.319 -0.1481 -0.3816 -0.6208
  706MOL0     C97302   7.008   2.860   1.468 -0.1467 -0.4198 -0.2013
  706MOL0     C97303   6.962   2.730   1.533 -1.1561  0.2692  0.4261
  706MOL0     C97304   6.863   2.747   1.655  0.2781  0.4433 -0.9103
  706MOL0     C97305   6.846   2.616   1.735 -0.0363  0.6272  0.8914
  706MOL0     C97306   6.746   2.658   1.852  0.0416 -0.6126 -0.4321
  706MOL0     N97307   6.740   2.547   1.943 -0.4003  0.3487  0.1145
  706MOL0     C97308   6.627   2.524   2.018  0.3154  0.0547 -0.2041
  706MOL0     C97309   6.649   2.396   2.063 -0.0701  0.1822 -0.4370
  706MOL0     C97310   6.552   2.303   2.132  0.1935 -1.1018  1.0598
  706MOL0     C97311   6.609   2.186   2.204  0.2853  0.4770  0.2026
  706MOL0     C97312   6.516   2.108   2.298  0.1560  0.3132 -0.0801
  706MOL0     C97313   6.417   2.184   2.389  0.0732 -0.8489  0.2067
  706MOL0     O97314   6.499   2.236   2.492  0.3774 -0.0617  0.0345
  706MOL0     C97315   6.427   2.293   2.599  0.0290  0.1746  0.7115
  706MOL0     C97316   6.312   2.368   2.593  0.3009  0.2031  0.3242
  706MOL0     C97317   6.248   2.420   2.705  0.2429  0.0024 -0.3323
  706MOL0     C97318   6.126   2.507   2.685  0.1199 -0.4556 -0.2908
  706MOL0     C97319   6.284   2.373   2.829 -0.6245  0.4342 -1.2309
  706MOL0     C97320   6.210   2.388   2.959 -0.1074 -0.4817  0.5881
  706MOL0     O97321   6.293   2.380   3.069 -0.4360  0.3476 -0.2310
  706MOL0     C97322   6.236   2.379   3.190  0.7503 -0.5281 -0.5721
  706MOL0     C97323   6.120   2.313   3.235 -0.4981 -0.1096  0.1689
  706MOL0     C97324   6.072   2.323   3.368 -0.7163  0.2199 -0.0869
  706MOL0     C97325   6.142   2.401   3.462  1.0846  0.4025  0.4536
  706MOL0     O97326   6.111   2.410   3.596 -0.1550 -0.7409 -0.3321
  706MOL0     C97327   5.975   2.435   3.638 -0.5217  0.6838  0.6748
  706MOL0     C97328   6.002   2.445   3.781 -0.6274 -0.3502 -0.1764
  706MOL0     C97329   5.880   2.490   3.863  1.2166 -0.3528 -0.0419
  706MOL0     C97330   5.881   2.423   4.004  0.6266 -0.8021  0.8591
  706MOL0     C97331   5.785   2.493   4.100 -0.4230  0.2319  0.4610
  706MOL0     C97332   5.785   2.417   4.235 -0.6570  0.1726  0.1024
  706MOL0     C97333   5.707   2.498   4.328  0.2940  0.0645 -0.1393
  706MOL0     C97334   5.697   2.451   4.481  0.2469  0.0228 -0.1799
  706MOL0    Cl97335   5.851   2.401   4.537 -0.1746  0.3648 -0.0065
  706MOL0     C97336   6.267   2.449   3.420 -0.4772  0.0010  0.0481
  706MOL0     C97337   6.313   2.443   3.284 -0.3819  0.1803 -0.8711
  706MOL0     O97338   6.095   2.414   2.950 -0.1461  0.6441 -0.7400
  706MOL0     C97339   6.397   2.287   2.841 -0.0383 -0.5433 -0.1345
  706MOL0     C97340   6.465   2.255   2.726 -0.5718 -0.2337  0.5482
  706MOL0     N97341   6.754   2.341   2.001 -0.2637 -0.2649  0.0546
  706MOL0     N97342   6.815   2.431   1.936  0.5386 -0.4574 -0.3184
  706MOL0     C97343   7.436   2.872   0.979  0.2634  1.5929 -0.8479
  706MOL0     C97344   7.505   2.877   0.857 -0.0807  0.4338 -0.0584
  706MOL0     C97345   7.682   2.963   0.486 -0.3641 -0.3626  0.0062
  706MOL0     C97346   7.789   2.899   0.554 -0.3511  0.9197  0.1373
  706MOL0     C97347   7.908   2.890   0.485 -0.6421 -0.2083  0.0900
  706MOL0     C97348   7.934   2.958   0.368 -0.6029 -0.0537 -0.1128
  706MOL0     O97349   8.056   2.940   0.306  0.0356 -0.5444  0.0006
  706MOL0     C97350   8.069   2.900   0.168 -0.1348  0.3065 -1.6272
  706MOL0     C97351   8.203   2.839   0.148  0.1399 -0.6369  0.1125
  706MOL0     C97352   8.224   2.796   0.003  0.0044 -0.2056  0.2373
  706MOL0     C97353   8.353   2.711  -0.007 -0.4543 -0.3754  0.3832
  706MOL0     C97354   8.469   2.781   0.044 -0.4044 -0.3777 -0.4115
  706MOL0     C97355   8.565   2.840   0.090  0.4456  0.3560  0.4372
  706MOL0     C97356   7.830   3.028   0.304  0.1059 -0.1104 -0.1209
  706MOL0     C97357   7.701   3.030   0.365  1.0976  0.6089  1.2019
  706MOL0     C97358   7.581   3.094   0.281  0.4133  0.3758 -1.2330
  706MOL0     H97359   7.249   2.817   0.643  2.5128 -0.3371 -1.5418
  706MOL0     H97360   7.120   2.838   0.849 -0.1406 -0.5569 -1.6985
  706MOL0     H97361   7.028   2.887   1.056  1.5919 -1.4405  0.0565
  706MOL0     H97362   7.100   3.050   1.062 -0.0731  2.0588  1.7798
  706MOL0     H97363   7.172   3.003   1.300  1.7543 -0.4256 -0.7981
  706MOL0     H97364   7.012   3.050   1.283  2.9405  0.6124  1.7466
  706MOL0     H97365   6.928   2.809   1.296 -0.3975 -1.1188  1.2948
  706MOL0     H97366   7.104   2.759   1.307  0.0605 -0.8365  2.7597
  706MOL0     H97367   7.103   2.882   1.519  0.1718 -1.6616 -0.2089
  706MOL0     H97368   6.932   2.936   1.483  0.3334  0.5594 -2.3281
  706MOL0     H97369   7.054   2.681   1.564 -1.1636 -0.3497 -0.5086
  706MOL0     H97370   6.922   2.662   1.457  1.6018 -3.6924  2.1969
  706MOL0     H97371   6.897   2.825   1.724 -1.0299  0.0593  0.2010
  706MOL0     H97372   6.765   2.766   1.612 -0.9751 -0.2076  1.4842
  706MOL0     H97373   6.945   2.581   1.766  0.1416  0.2886 -0.0166
  706MOL0     H97374   6.803   2.539   1.670  0.8019  1.7030 -1.0501
  706MOL0     H97375   6.770   2.744   1.914 -3.0132 -0.5546  0.8537
  706MOL0     H97376   6.642   2.677   1.825  0.1129  1.5750  0.6447
  706MOL0     H97377   6.540   2.589   2.025 -0.3890 -0.7121 -1.3516
  706MOL0     H97378   6.476   2.254   2.071  0.3110 -1.3353  1.0990
  706MOL0     H97379   6.501   2.371   2.201  0.6542 -0.3084  0.6276
  706MOL0     H97380   6.661   2.119   2.135  0.1602 -3.7541  3.7428
  706MOL0     H97381   6.688   2.215   2.274 -1.4400  0.7302  2.1266
  706MOL0     H97382   6.458   2.048   2.228  1.7483  1.2439 -2.3053
  706MOL0     H97383   6.588   2.055   2.362  3.0897  2.1592 -1.6560
  706MOL0     H97384   6.364   2.258   2.329 -0.0761 -2.7250 -2.1257
  706MOL0     H97385   6.342   2.115   2.430 -0.5225  0.4882  1.4292
  706MOL0     H97386   6.270   2.393   2.497  0.0974  1.2044  0.6547
  706MOL0     H97387   6.035   2.446   2.680 -2.0384  1.6608  5.2777
  706MOL0     H97388   6.143   2.570   2.598  1.2819 -0.7300 -0.2763
  706MOL0     H97389   6.121   2.575   2.771 -1.9653 -1.8913  0.8082
  706MOL0     H97390   6.061   2.256   3.164  0.1238  2.2500 -2.4328
  706MOL0     H97391   5.994   2.260   3.409 -1.0488  1.1994  0.8425
  706MOL0     H97392   5.943   2.535   3.607  0.2933  0.2934 -1.6531
  706MOL0     H97393   5.899   2.366   3.599 -1.6549  1.8315  0.7693
  706MOL0     H97394   6.057   2.363   3.828  0.8699  0.9248  0.4244
  706MOL0     H97395   6.080   2.517   3.808 -0.6586  0.1499 -1.3720
  706MOL0     H97396   5.785   2.468   3.814  0.7729 -0.2589  0.7515
  706MOL0     H97397   5.884   2.600   3.861  0.2923 -0.3240 -0.6696
  706MOL0     H97398   5.976   2.439   4.056 -0.1180  1.5413  1.5952
  706MOL0     H97399   5.848   2.319   3.989 -1.6650 -0.0885  0.4961
  706MOL0     H97400   5.816   2.598   4.110 -2.6913  0.9537  0.3318
  706MOL0     H97401   5.685   2.497   4.056 -0.5064  1.4793  0.7340
  706MOL0     H97402   5.886   2.401   4.273 -1.5100 -2.2526  1.6192
  706MOL0     H97403   5.738   2.321   4.213  0.4569  0.3030 -3.3349
  706MOL0     H97404   5.606   2.501   4.288 -0.8647  3.1522  2.4957
  706MOL0     H97405   5.754   2.597   4.324  2.8342 -1.0790 -3.5138
  706MOL0     H97406   5.627   2.372   4.511 -2.2806  2.0729 -0.2487
  706MOL0     H97407   5.666   2.538   4.541 -1.6920 -0.4902 -0.3523
  706MOL0     H97408   6.330   2.500   3.492  0.5941  1.5158 -1.8746
  706MOL0     H97409   6.411   2.477   3.253  0.0721  0.9230  1.1978
  706MOL0     H97410   6.425   2.228   2.928 -2.0590  1.6725  2.2223
  706MOL0     H97411   6.549   2.187   2.735  0.1757  0.7920  1.4949
  706MOL0     H97412   7.483   2.878   1.076 -0.4094  2.7039 -0.5634
  706MOL0     H97413   7.612   2.896   0.854  0.1965 -0.8825  0.6948
  706MOL0     H97414   7.781   2.851   0.651 -1.3358  0.9008  0.0511
  706MOL0     H97415   7.980   2.824   0.534  0.1826  0.6534  0.0741
  706MOL0     H97416   7.988   2.835   0.131  1.6862 -2.9759 -0.2677
  706MOL0     H97417   8.062   2.996   0.117  2.3506  2.1536  1.2043
  706MOL0     H97418   8.200   2.749   0.211 -0.4342  1.9881  4.2448
  706MOL0     H97419   8.278   2.905   0.192  0.5563 -1.4613  0.6715
  706MOL0     H97420   8.134   2.734  -0.011  0.2780 -0.4977 -0.2727
  706MOL0     H97421   8.225   2.870  -0.078 -2.3997 -0.4911 -0.1479
  706MOL0     H97422   8.370   2.686  -0.112  1.6592  0.1827  0.5346
  706MOL0     H97423   8.335   2.627   0.060  0.6702  0.6209  2.0225
  706MOL0     H97424   8.657   2.882   0.124 -1.1314  2.4254  2.4680
  706MOL0     H97425   7.840   3.069   0.204  1.0953 -2.5049 -1.0778
  706MOL0     H97426   7.542   3.181   0.335 -2.3031 -2.2812  1.4422
  706MOL0     H97427   7.609   3.104   0.175  1.0839  0.9452 -1.0139
  706MOL0     H97428   7.493   3.030   0.284 -1.3991  2.7510  0.1848
  707MOL0     O97429   1.892   4.781   6.257  0.4549 -0.0667  0.2647
  707MOL0     C97430   1.876   4.701   6.356  0.4662 -1.0389 -0.0497
  707MOL0     O97431   1.964   4.605   6.377 -0.1822  0.4514  0.6416
  707MOL0     C97432   2.029   4.547   6.271 -0.2169 -0.3335 -1.0932
  707MOL0     C97433   2.160   4.554   6.277 -1.0169 -0.2082  0.0860
  707MOL0     C97434   2.238   4.463   6.193  0.8598  0.0173 -1.4493
  707MOL0     C97435   2.170   4.368   6.117 -0.8285 -0.2865  0.7565
  707MOL0     O97436   2.237   4.267   6.051 -0.6516 -0.1221  0.3534
  707MOL0     C97437   2.306   4.173   6.138  0.4330 -0.1877 -0.3682
  707MOL0     C97438   2.368   4.055   6.062 -0.5686  0.4169  0.5333
  707MOL0     C97439   2.415   3.943   6.142 -0.2485 -0.4826  0.0702
  707MOL0     C97440   2.518   3.962   6.254  0.3646 -0.8699  0.3062
  707MOL0     C97441   2.658   3.952   6.200 -0.3369 -0.1746 -0.4230
  707MOL0     C97442   2.702   3.803   6.186 -0.3093  0.5904  0.1142
  707MOL0     C97443   2.843   3.783   6.126  0.6203  0.6529  0.6782
  707MOL0     C97444   2.850   3.836   5.986  0.5099 -0.3231  1.0062
  707MOL0     N97445   2.794   3.756   5.881 -0.8562  0.0991  0.3076
  707MOL0     C97446   2.834   3.633   5.826  0.3001  0.3474  0.6885
  707MOL0     C97447   2.733   3.595   5.737  0.2036  0.4676 -0.8613
  707MOL0     C97448   2.702   3.470   5.660  0.0777  0.9458  0.0362
  707MOL0     C97449   2.802   3.473   5.526  0.1832  0.8176 -1.0453
  707MOL0     C97450   2.763   3.369   5.429  0.3761 -1.5715  0.4132
  707MOL0     C97451   2.788   3.231   5.480  0.6840  0.1254 -1.0698
  707MOL0     O97452   2.779   3.145   5.365  0.0141  0.0058  0.0010
  707MOL0     C97453   2.849   3.030   5.369 -0.2888  0.0482  0.3547
  707MOL0     C97454   2.851   2.959   5.248  0.3965  0.0788 -0.1714
  707MOL0     C97455   2.929   2.837   5.246  0.0851  0.6156  0.7670
  707MOL0     C97456   2.912   2.762   5.117 -0.1384  0.2537  0.0096
  707MOL0     C97457   3.007   2.799   5.355 -0.3325  0.5130  0.2012
  707MOL0     C97458   3.101   2.681   5.353 -0.3936  0.4141  0.2307
  707MOL0     O97459   3.181   2.667   5.466  0.4077 -0.2586  1.3544
  707MOL0     C97460   3.291   2.592   5.456 -0.5323  0.4346  0.2930
  707MOL0     C97461   3.307   2.482   5.541  0.6181 -0.5412 -0.6002
  707MOL0     C97462   3.427   2.413   5.561  0.8248 -0.1491 -0.1255
  707MOL0     C97463   3.535   2.449   5.480 -0.1492 -0.1175  0.2284
  707MOL0     O97464   3.639   2.365   5.490  0.5404  0.4701  1.0138
  707MOL0     C97465   3.723   2.334   5.376  0.2744 -0.1538 -0.8948
  707MOL0     C97466   3.828   2.236   5.425  0.7704 -0.1440 -0.7383
  707MOL0     C97467   3.935   2.303   5.513 -0.3252  0.1570  0.7053
  707MOL0     C97468   4.016   2.189   5.587  0.3577  0.0016  0.0762
  707MOL0     C97469   4.134   2.141   5.505 -0.4750 -0.7088  0.3826
  707MOL0     C97470   4.202   2.009   5.557 -0.4592  0.2819 -0.1728
  707MOL0     C97471   4.334   2.039   5.630  0.2986  0.6297  0.5556
  707MOL0     C97472   4.389   1.903   5.696  0.8465 -0.6349  0.0776
  707MOL0    Cl97473   4.542   1.949   5.776  0.2272 -0.2766 -0.2279
  707MOL0     C97474   3.528   2.558   5.394 -0.8136 -0.6565 -0.1632
  707MOL0     C97475   3.406   2.630   5.378 -0.9277 -0.5226 -0.0568
  707MOL0     O97476   3.120   2.622   5.246  0.0947  0.4092  0.0616
  707MOL0     C97477   3.006   2.885   5.469  0.2223 -0.3001  0.3021
  707MOL0     C97478   2.920   2.988   5.481 -0.4391  0.9839 -0.1968
  707MOL0     N97479   2.647   3.700   5.732 -0.0336  0.4374 -0.4009
  707MOL0     N97480   2.683   3.795   5.814 -0.6009 -0.1876  0.5632
  707MOL0     C97481   2.033   4.384   6.096  0.4482 -0.4606  0.5013
  707MOL0     C97482   1.962   4.475   6.174  1.1217  1.0769  1.1462
  707MOL0     C97483   1.781   4.732   6.467 -0.6172  0.0467 -0.0359
  707MOL0     C97484   1.738   4.863   6.491  0.6817  0.7575  0.7923
  707MOL0     C97485   1.657   4.887   6.596 -0.6613 -0.7150  1.0662
  707MOL0     C97486   1.622   4.792   6.693 -0.4577 -0.9280  0.2551
  707MOL0     O97487   1.544   4.858   6.789  0.6432  0.1661 -0.4047
  707MOL0     C97488   1.430   4.787   6.837  0.3680 -0.1064  0.1922
  707MOL0     C97489   1.326   4.877   6.916  0.4353 -0.4965  0.3264
  707MOL0     C97490   1.234   4.825   7.012  0.0939 -0.5444 -0.3586
  707MOL0     C97491   1.185   4.957   7.084  0.3260  0.3909 -0.1942
  707MOL0     C97492   1.046   4.940   7.126  0.3651 -0.4308 -0.2429
  707MOL0     C97493   0.927   4.928   7.171  0.0127 -0.1757 -0.1984
  707MOL0     C97494   1.655   4.662   6.676 -0.0549  0.8894  0.3383
  707MOL0     C97495   1.737   4.629   6.566 -0.1095  0.0243 -0.0388
  707MOL0     C97496   1.786   4.489   6.570 -0.4297  0.0675  0.2610
  707MOL0     H97497   2.225   4.615   6.339  1.8304 -0.0387 -2.8151
  707MOL0     H97498   2.343   4.456   6.220  0.3522  3.1032  2.0383
  707MOL0     H97499   2.220   4.140   6.198 -2.4577  1.9578 -2.9611
  707MOL0     H97500   2.375   4.227   6.203  1.0088 -0.3721 -0.8280
  707MOL0     H97501   2.304   4.021   5.980 -0.4955 -0.3433  0.7874
  707MOL0     H97502   2.457   4.097   6.013 -2.0027  4.7114  1.1365
  707MOL0     H97503   2.329   3.905   6.198 -1.2592  1.8239  0.1629
  707MOL0     H97504   2.439   3.852   6.085 -1.0681 -0.3670 -0.4627
  707MOL0     H97505   2.493   4.064   6.287 -0.0689 -1.2408  1.1505
  707MOL0     H97506   2.498   3.887   6.331 -2.6901  0.0066  0.4892
  707MOL0     H97507   2.726   4.009   6.264  3.3396 -2.7036 -1.7693
  707MOL0     H97508   2.665   4.003   6.103  3.0079  1.4355  0.5293
  707MOL0     H97509   2.699   3.753   6.283  0.4750 -2.9495 -1.5573
  707MOL0     H97510   2.631   3.750   6.122  0.6604  0.4312 -0.8499
  707MOL0     H97511   2.857   3.676   6.112 -0.0619  1.0185 -5.4094
  707MOL0     H97512   2.919   3.828   6.190  0.0511 -0.3722  2.1223
  707MOL0     H97513   2.801   3.933   5.976  3.0151  0.8039 -2.9803
  707MOL0     H97514   2.953   3.847   5.950  0.5641  1.4926  1.6170
  707MOL0     H97515   2.913   3.567   5.862 -0.4461 -1.2332 -0.4556
  707MOL0     H97516   2.599   3.464   5.626  1.3274  1.5249 -4.5825
  707MOL0     H97517   2.726   3.382   5.721  0.2132 -1.3024 -3.0285
  707MOL0     H97518   2.798   3.573   5.481 -0.2708  2.3160  2.0347
  707MOL0     H97519   2.908   3.468   5.552  0.5571  2.5962 -2.0717
  707MOL0     H97520   2.658   3.378   5.397 -0.1802 -1.4070  2.2127
  707MOL0     H97521   2.821   3.373   5.336 -0.3212 -1.8296 -0.0452
  707MOL0     H97522   2.893   3.235   5.511 -0.0149  0.1841  1.5382
  707MOL0     H97523   2.727   3.199   5.565  1.0166 -2.5127 -1.7542
  707MOL0     H97524   2.785   2.992   5.170 -2.9876  0.2065  2.5173
  707MOL0     H97525   3.003   2.731   5.066 -1.1784 -1.7471 -0.7429
  707MOL0     H97526   2.859   2.810   5.034  1.0305  2.4270  0.4200
  707MOL0     H97527   2.856   2.670   5.133 -0.1919 -0.0050 -1.4987
  707MOL0     H97528   3.227   2.436   5.598  1.4775 -1.2471  0.0792
  707MOL0     H97529   3.440   2.332   5.631  0.9319  0.1211  0.1680
  707MOL0     H97530   3.667   2.283   5.297  1.6901 -1.3465 -1.1758
  707MOL0     H97531   3.773   2.422   5.335  0.6221  0.7863  1.3801
  707MOL0     H97532   3.773   2.157   5.475 -4.3241  3.4885  0.1420
  707MOL0     H97533   3.875   2.189   5.337  1.1198 -1.6296  0.1975
  707MOL0     H97534   3.875   2.351   5.591 -0.9519 -0.8563  0.8775
  707MOL0     H97535   4.001   2.370   5.458 -0.7594 -0.1348 -0.1885
  707MOL0     H97536   3.959   2.098   5.606  0.3213  0.1874  0.8954
  707MOL0     H97537   4.047   2.219   5.688 -1.9862 -0.7942  1.0827
  707MOL0     H97538   4.097   2.124   5.403 -1.5764  0.8968  0.4781
  707MOL0     H97539   4.196   2.231   5.503  0.8312 -1.5870  0.4986
  707MOL0     H97540   4.233   1.956   5.467 -1.4717  0.4568 -0.6358
  707MOL0     H97541   4.133   1.955   5.623  0.4205  1.8945  2.2069
  707MOL0     H97542   4.321   2.114   5.709  0.7454 -0.1653  1.4057
  707MOL0     H97543   4.407   2.071   5.556  1.0268 -0.7433  0.6556
  707MOL0     H97544   4.410   1.830   5.617  2.2371 -1.4851  1.2024
  707MOL0     H97545   4.309   1.877   5.765 -0.2405 -0.4886 -1.0895
  707MOL0     H97546   3.615   2.587   5.336  1.3792 -0.1185  3.1082
  707MOL0     H97547   3.404   2.712   5.307  4.3863  0.0571  0.0199
  707MOL0     H97548   3.069   2.864   5.555 -0.8132 -1.8310  0.7218
  707MOL0     H97549   2.919   3.039   5.577 -0.0420  0.2718  0.1985
  707MOL0     H97550   1.985   4.315   6.028 -1.7963  1.2162  0.2417
  707MOL0     H97551   1.854   4.467   6.175  1.2142 -0.7495  0.5548
  707MOL0     H97552   1.768   4.942   6.423 -0.2536  1.7014  1.4470
  707MOL0     H97553   1.614   4.986   6.609  0.8145  0.0676  0.1781
  707MOL0     H97554   1.386   4.725   6.759 -1.8048 -1.1810  2.1420
  707MOL0     H97555   1.462   4.714   6.912 -2.0981  2.1556  3.7909
  707MOL0     H97556   1.269   4.931   6.840  3.0025 -0.3007 -1.6117
  707MOL0     H97557   1.385   4.956   6.964 -0.7216 -0.2563  1.3975
  707MOL0     H97558   1.143   4.776   6.976  0.5129 -3.4969  2.1884
  707MOL0     H97559   1.286   4.749   7.072  0.5413 -1.2785 -1.6316
  707MOL0     H97560   1.180   5.050   7.026  0.4429  0.5460  0.0429
  707MOL0     H97561   1.254   4.973   7.168  3.1834  1.0755 -2.5415
  707MOL0     H97562   0.823   4.909   7.186 -0.2440  0.2831 -1.2909
  707MOL0     H97563   1.631   4.591   6.754  0.4017  0.0914 -0.2404
  707MOL0     H97564   1.732   4.430   6.645 -1.7256  1.1240  0.1991
  707MOL0     H97565   1.792   4.449   6.468  2.5327  1.5324 -0.2543
  707MOL0     H97566   1.887   4.485   6.614 -0.6611  1.7098  0.9944
  708MOL0     O97567   8.592   4.549   8.693 -0.2295  0.1271 -0.2603
  708MOL0     C97568   8.671   4.459   8.661 -0.0740  0.5630  0.1105
  708MOL0     O97569   8.742   4.372   8.751 -0.3293  0.5122  0.5606
  708MOL0     C97570   8.744   4.398   8.880 -0.5905  0.2978  1.0261
  708MOL0     C97571   8.763   4.520   8.941 -0.7797 -0.2775  0.9211
  708MOL0     C97572   8.759   4.530   9.081  0.2405 -0.2194 -0.3858
  708MOL0     C97573   8.753   4.418   9.163  0.2369  0.1859 -0.9336
  708MOL0     O97574   8.757   4.415   9.300 -0.8988 -0.4545 -1.1312
  708MOL0     C97575   8.770   4.543   9.363  0.6934 -0.8039  1.0247
  708MOL0     C97576   8.812   4.518   9.506  0.2831  0.0740 -0.2984
  708MOL0     C97577   8.833   4.642   9.595 -0.4981  0.5119 -0.0885
  708MOL0     C97578   8.842   4.595   9.741 -0.4523  0.2553  0.4730
  708MOL0     C97579   8.826   4.720   9.830  0.5631 -0.0004  0.7173
  708MOL0     C97580   8.814   4.702   9.987  0.2065  0.3474 -0.2147
  708MOL0     C97581   8.713   4.609  10.046  0.1768 -0.6211 -0.2610
  708MOL0     C97582   8.722   4.620  10.197 -0.3321  0.1892 -0.4358
  708MOL0     N97583   8.635   4.524  10.261  0.7603  0.5831  0.3332
  708MOL0     C97584   8.628   4.504  10.398 -0.4944  0.4823 -0.0239
  708MOL0     C97585   8.511   4.430  10.413 -0.0605  0.6071  0.4389
  708MOL0     C97586   8.459   4.369  10.539  0.3124  0.9379  0.6122
  708MOL0     C97587   8.325   4.427  10.591 -0.6307 -0.3420 -0.0194
  708MOL0     C97588   8.196   4.348  10.559 -0.0010 -0.2889 -0.3650
  708MOL0     C97589   8.083   4.385  10.645 -0.0779 -0.6268  0.5183
  708MOL0     O97590   7.964   4.318  10.608 -0.0036  0.3975 -0.2339
  708MOL0     C97591   7.908   4.225  10.694 -0.4554 -0.5042  0.4121
  708MOL0     C97592   7.771   4.189  10.696 -0.7192 -0.5606  0.9924
  708MOL0     C97593   7.712   4.102  10.785  0.4615 -0.2253 -0.3704
  708MOL0     C97594   7.566   4.070  10.761 -0.9527  0.4579  0.4758
  708MOL0     C97595   7.788   4.056  10.892 -0.5259  0.1224 -0.9726
  708MOL0     C97596   7.739   3.974  11.008  0.7254  0.4570  0.0782
  708MOL0     O97597   7.819   3.960  11.107  0.5429 -0.4811  0.1960
  708MOL0     C97598   7.784   3.919  11.232  0.6942 -0.6802 -0.1198
  708MOL0     C97599   7.654   3.949  11.285  0.4590 -0.4239 -0.6390
  708MOL0     C97600   7.615   3.900  11.412  0.3074  0.4055  0.4984
  708MOL0     C97601   7.711   3.839  11.493 -0.4432  0.2008 -0.2432
  708MOL0     O97602   7.684   3.788  11.616  0.5153  0.2522 -0.5051
  708MOL0     C97603   7.585   3.857  11.702  0.5578 -0.5253  0.1062
  708MOL0     C97604   7.621   4.003  11.736  0.6271  0.2006 -0.4077
  708MOL0     C97605   7.744   4.019  11.817 -0.5465 -0.1412  0.1581
  708MOL0     C97606   7.761   4.167  11.869 -0.0518 -0.6941  0.3292
  708MOL0     C97607   7.871   4.191  11.972 -0.7576 -0.0063  0.5090
  708MOL0     C97608   8.009   4.169  11.906  0.2847 -1.5725 -0.0620
  708MOL0     C97609   8.134   4.179  11.995  0.6053 -0.8289  0.2532
  708MOL0     C97610   8.261   4.181  11.909  1.0292  0.6770  0.6776
  708MOL0    Cl97611   8.400   4.152  12.009  0.3217 -0.1674  0.6069
  708MOL0     C97612   7.837   3.811  11.441  0.0790 -0.3299 -1.6220
  708MOL0     C97613   7.876   3.847  11.313  0.2892  1.0743 -0.4275
  708MOL0     O97614   7.624   3.926  11.004 -0.2492 -0.9152  0.1486
  708MOL0     C97615   7.932   4.088  10.899  0.4922 -0.2750 -0.6579
  708MOL0     C97616   7.981   4.172  10.807  0.2048  0.0961 -0.3513
  708MOL0     N97617   8.450   4.403  10.289 -0.6563 -0.0987 -0.5066
  708MOL0     N97618   8.538   4.452  10.200  0.3671  0.4739  0.3214
  708MOL0     C97619   8.744   4.298   9.105 -0.1350  0.0336 -0.1282
  708MOL0     C97620   8.742   4.289   8.964 -1.0125  0.1831  0.1905
  708MOL0     C97621   8.710   4.439   8.519 -0.2530  0.5716  0.2613
  708MOL0     C97622   8.711   4.305   8.483  0.1783  0.4080 -0.0184
  708MOL0     C97623   8.733   4.272   8.348  0.4957  0.2217  0.7266
  708MOL0     C97624   8.746   4.365   8.246 -0.7029 -0.5591  0.0790
  708MOL0     O97625   8.770   4.332   8.114 -0.8701 -0.4463 -0.5159
  708MOL0     C97626   8.768   4.195   8.063  0.3960  0.1982  0.4338
  708MOL0     C97627   8.617   4.157   8.045  0.1991 -0.2886  0.9320
  708MOL0     C97628   8.525   4.275   8.014 -0.0998 -0.4219  0.0557
  708MOL0     C97629   8.555   4.335   7.878  0.5165 -0.0970 -0.0190
  708MOL0     C97630   8.436   4.409   7.835 -0.1528  0.2690  0.4032
  708MOL0     C97631   8.340   4.474   7.790 -1.2223 -0.3536 -0.0781
  708MOL0     C97632   8.746   4.497   8.285  0.1918  0.0272  0.1391
  708MOL0     C97633   8.737   4.541   8.420 -0.4600 -0.1766  0.0123
  708MOL0     C97634   8.744   4.686   8.457  0.3984  0.1273  0.4290
  708MOL0     H97635   8.770   4.606   8.875  2.3851 -0.2633  1.1491
  708MOL0     H97636   8.762   4.626   9.132  1.5594 -1.1694  1.4257
  708MOL0     H97637   8.675   4.595   9.349  0.3406 -1.2502  1.7093
  708MOL0     H97638   8.851   4.603   9.321  0.7118 -0.4910  1.5090
  708MOL0     H97639   8.731   4.457   9.546  1.6561 -1.2770  0.5210
  708MOL0     H97640   8.909   4.469   9.496  0.0206 -0.5192  0.0780
  708MOL0     H97641   8.924   4.689   9.556 -0.1789 -0.7800 -0.9589
  708MOL0     H97642   8.757   4.716   9.569 -0.3569  0.6215 -0.1964
  708MOL0     H97643   8.754   4.534   9.763 -1.7579  1.4905 -1.0946
  708MOL0     H97644   8.934   4.539   9.761  1.1284  2.5871  0.1607
  708MOL0     H97645   8.735   4.772   9.799  0.7513 -0.3610 -0.5019
  708MOL0     H97646   8.905   4.792   9.807  0.2215  0.4021  0.7978
  708MOL0     H97647   8.904   4.657  10.031 -0.8974 -0.1915  1.6000
  708MOL0     H97648   8.806   4.800  10.036 -3.2729  0.1615 -0.1693
  708MOL0     H97649   8.733   4.503  10.029 -3.3828 -1.4257 -0.3106
  708MOL0     H97650   8.609   4.634  10.024 -1.0138 -2.0183  3.1846
  708MOL0     H97651   8.820   4.594  10.236 -0.7131 -2.6714 -1.1510
  708MOL0     H97652   8.700   4.722  10.231  0.6827 -0.5072  2.6080
  708MOL0     H97653   8.701   4.533  10.472 -1.3740  0.3847  0.9093
  708MOL0     H97654   8.528   4.381  10.623 -1.4528  2.0935  1.9831
  708MOL0     H97655   8.436   4.264  10.522  0.2710  0.6545  2.2430
  708MOL0     H97656   8.333   4.450  10.697  3.6410  1.0168 -0.4286
  708MOL0     H97657   8.316   4.522  10.537  0.9832  0.3247  0.8151
  708MOL0     H97658   8.175   4.361  10.452 -1.9771 -1.2392 -0.1377
  708MOL0     H97659   8.207   4.241  10.578 -1.4266 -0.2272  0.9835
  708MOL0     H97660   8.105   4.376  10.752 -2.2177  2.9546  1.4216
  708MOL0     H97661   8.059   4.491  10.645  0.6830 -0.4253  2.0446
  708MOL0     H97662   7.722   4.240  10.614  0.7593 -0.7008 -0.0173
  708MOL0     H97663   7.545   3.964  10.776  3.0328 -1.5109 -4.7329
  708MOL0     H97664   7.557   4.093  10.654 -1.0185 -0.9839  0.1486
  708MOL0     H97665   7.503   4.130  10.827  1.9953  3.9659  0.4258
  708MOL0     H97666   7.584   4.012  11.231 -0.9821 -1.4785 -0.0891
  708MOL0     H97667   7.513   3.927  11.437  0.1250  2.0294 -1.7352
  708MOL0     H97668   7.487   3.851  11.653 -0.5296 -0.6288  2.1864
  708MOL0     H97669   7.562   3.801  11.794 -1.3670  1.1432  0.7267
  708MOL0     H97670   7.641   4.056  11.642  0.2378  0.3042 -0.4351
  708MOL0     H97671   7.538   4.050  11.790  3.9027  4.6724  1.3271
  708MOL0     H97672   7.832   3.994  11.758  0.2112  2.9322 -0.1945
  708MOL0     H97673   7.739   3.952  11.904 -0.5326  0.7996  0.9028
  708MOL0     H97674   7.660   4.200  11.898 -0.2827  1.2621 -2.2869
  708MOL0     H97675   7.791   4.240  11.793 -0.1313 -0.7042  0.2878
  708MOL0     H97676   7.863   4.293  12.011 -2.5946 -1.1239  3.3460
  708MOL0     H97677   7.862   4.135  12.065  1.8387 -1.2569  0.0930
  708MOL0     H97678   8.017   4.252  11.835 -1.4410 -0.2587  1.1916
  708MOL0     H97679   8.022   4.071  11.860 -0.5255 -1.1834 -1.1688
  708MOL0     H97680   8.134   4.106  12.076  2.0002 -0.4558  0.6200
  708MOL0     H97681   8.130   4.276  12.044 -0.3345 -0.6939 -0.0622
  708MOL0     H97682   8.259   4.277  11.855 -1.0124  0.7294  0.7563
  708MOL0     H97683   8.256   4.100  11.835  1.3373 -0.0584  1.4577
  708MOL0     H97684   7.904   3.757  11.506  0.6936  3.2003  1.0032
  708MOL0     H97685   7.965   3.812  11.262  0.8956 -0.5374  1.5944
  708MOL0     H97686   7.992   4.070  10.987 -0.3740 -1.2631 -0.2531
  708MOL0     H97687   8.088   4.189  10.803  0.2905 -0.4549 -0.4946
  708MOL0     H97688   8.749   4.205   9.161  3.4775 -2.3389 -3.8480
  708MOL0     H97689   8.716   4.189   8.932  2.6719 -0.3983 -1.4732
  708MOL0     H97690   8.694   4.237   8.565  1.8243  0.6207  0.5195
  708MOL0     H97691   8.738   4.166   8.328 -1.9619  0.3084 -0.6679
  708MOL0     H97692   8.821   4.190   7.967 -1.3087 -1.8462 -0.4865
  708MOL0     H97693   8.819   4.130   8.135  3.8770  2.4565  0.2668
  708MOL0     H97694   8.585   4.119   8.143 -0.6521 -1.1186  0.3399
  708MOL0     H97695   8.598   4.079   7.971  1.2648 -0.1233  0.4657
  708MOL0     H97696   8.423   4.235   8.016  0.6099 -2.3118  0.7275
  708MOL0     H97697   8.525   4.357   8.087 -1.4285 -0.6318  0.3305
  708MOL0     H97698   8.594   4.262   7.807  0.0092 -1.0982  0.7126
  708MOL0     H97699   8.632   4.411   7.896 -0.4909  0.3497  3.0371
  708MOL0     H97700   8.260   4.540   7.764 -0.4314  0.5159 -0.3485
  708MOL0     H97701   8.765   4.572   8.209  1.4104  0.4672  0.8479
  708MOL0     H97702   8.764   4.736   8.362  1.7349 -2.2846 -0.6364
  708MOL0     H97703   8.648   4.726   8.490 -1.3089 -1.7827 -1.8222
  708MOL0     H97704   8.813   4.713   8.537  0.2851  0.3063  0.4669
  709MOL0     O97705   9.834   8.350  10.051  0.5686 -0.3180 -0.0173
  709MOL0     C97706   9.812   8.431  10.145 -0.4946  0.2784 -0.0833
  709MOL0     O97707   9.907   8.499  10.207  0.6048 -0.0122 -0.0714
  709MOL0     C97708  10.034   8.456  10.216  0.0069 -0.1330  0.5738
  709MOL0     C97709  10.088   8.327  10.202 -0.6389 -1.0164  0.0633
  709MOL0     C97710  10.228   8.303  10.232  0.5792 -0.3405  0.3336
  709MOL0     C97711  10.312   8.409  10.265  0.0666  0.2961  0.1736
  709MOL0     O97712  10.442   8.380  10.269  0.5745  1.1063  0.3459
  709MOL0     C97713  10.507   8.416  10.390  0.0670 -0.8155 -0.2350
  709MOL0     C97714  10.621   8.505  10.364  0.4670  0.5232  0.4035
  709MOL0     C97715  10.735   8.445  10.280  0.4267  0.1970  0.1399
  709MOL0     C97716  10.825   8.569  10.245 -0.3440  0.7121 -0.2381
  709MOL0     C97717  10.935   8.535  10.139  0.1980 -0.2985 -0.2717
  709MOL0     C97718  10.886   8.535   9.995 -0.1571  0.4249 -0.1180
  709MOL0     C97719  11.001   8.468   9.899  0.0926  0.7143 -0.3302
  709MOL0     C97720  10.970   8.490   9.751 -0.3285  0.8653 -0.1591
  709MOL0     N97721  11.080   8.435   9.667  0.0931  0.7709 -0.2568
  709MOL0     C97722  11.213   8.467   9.677  0.8165 -0.2812 -0.4629
  709MOL0     C97723  11.283   8.385   9.590  0.3923 -0.4582  0.0032
  709MOL0     C97724  11.423   8.405   9.542  0.9168 -0.6353 -0.4254
  709MOL0     C97725  11.512   8.276   9.563  0.8465  0.1804 -0.9262
  709MOL0     C97726  11.655   8.276   9.494  0.3746  0.3579  0.9529
  709MOL0     C97727  11.648   8.316   9.345 -0.7239 -0.0203 -0.0257
  709MOL0     O97728  11.569   8.212   9.272 -0.3917 -0.6064  0.6921
  709MOL0     C97729  11.650   8.147   9.180  0.1102  0.5115  0.2309
  709MOL0     C97730  11.675   8.211   9.064 -0.1247  0.6545 -0.2296
  709MOL0     C97731  11.757   8.156   8.964 -0.6308 -0.1523  0.0940
  709MOL0     C97732  11.793   8.235   8.850  0.1608 -0.4035 -0.0021
  709MOL0     C97733  11.812   8.025   8.984  0.4544 -0.2506 -0.7543
  709MOL0     C97734  11.933   7.971   8.909  0.6376  0.7254 -0.8203
  709MOL0     O97735  11.937   7.830   8.900  0.4044 -0.1544 -0.0249
  709MOL0     C97736  12.025   7.760   8.821 -0.4619  0.6571  0.6916
  709MOL0     C97737  12.090   7.812   8.708  0.3383  0.2021 -0.4598
  709MOL0     C97738  12.180   7.735   8.630 -0.2471  0.7399 -0.4695
  709MOL0     C97739  12.223   7.606   8.666 -1.3211 -0.3527 -0.3307
  709MOL0     O97740  12.325   7.551   8.588  0.8640  0.5126 -0.2627
  709MOL0     C97741  12.419   7.472   8.668 -0.0778 -0.7168 -1.1844
  709MOL0     C97742  12.552   7.463   8.591  0.5917  0.1225 -0.8660
  709MOL0     C97743  12.531   7.366   8.468 -0.1846 -0.0282 -1.2362
  709MOL0     C97744  12.639   7.391   8.362 -0.7013  0.2590  0.3293
  709MOL0     C97745  12.624   7.308   8.246 -0.7165 -0.1584  1.4186
  709MOL0     C97746  12.759   7.289   8.164 -0.8084  0.3004 -0.2948
  709MOL0     C97747  12.846   7.185   8.239 -0.4617 -0.0256 -0.2133
  709MOL0     C97748  12.976   7.168   8.158  1.3846 -0.3837  0.5901
  709MOL0    Cl97749  13.084   7.023   8.195  0.0813  0.1122  0.1553
  709MOL0     C97750  12.158   7.558   8.784 -1.1293  0.4383 -0.6156
  709MOL0     C97751  12.056   7.626   8.850  0.1854 -0.1529 -0.8164
  709MOL0     O97752  12.016   8.050   8.871 -0.8225  0.0783 -0.2410
  709MOL0     C97753  11.782   7.964   9.109 -0.1869  0.1322 -0.5760
  709MOL0     C97754  11.708   8.022   9.207  0.2354  0.1379 -0.7548
  709MOL0     N97755  11.188   8.298   9.531  0.2565  0.4028  0.4871
  709MOL0     N97756  11.076   8.310   9.590 -0.3976  0.3490  0.2146
  709MOL0     C97757  10.260   8.534  10.279  0.0853  0.9458  0.2082
  709MOL0     C97758  10.122   8.563  10.249 -0.4375 -0.3354 -0.4857
  709MOL0     C97759   9.673   8.440  10.207 -0.1835  0.4902  0.5545
  709MOL0     C97760   9.644   8.551  10.289  0.5186  0.1771 -0.0812
  709MOL0     C97761   9.519   8.563  10.351  0.0919 -0.2544 -0.3590
  709MOL0     C97762   9.414   8.462  10.335  0.0283 -0.8785 -0.1412
  709MOL0     O97763   9.291   8.478  10.396  0.3305  0.2664  0.1191
  709MOL0     C97764   9.252   8.596  10.458  0.2923 -0.4264  0.2488
  709MOL0     C97765   9.110   8.576  10.523  0.1980  0.0964  0.1089
  709MOL0     C97766   9.079   8.692  10.622  0.1286  0.8350 -0.4277
  709MOL0     C97767   9.023   8.810  10.534  0.0512  0.4618 -0.3442
  709MOL0     C97768   8.959   8.910  10.620  0.4137 -0.4338 -1.1329
  709MOL0     C97769   8.897   8.992  10.676  0.4114  0.0295  0.2482
  709MOL0     C97770   9.438   8.358  10.239  0.5605 -0.7893 -0.9510
  709MOL0     C97771   9.564   8.345  10.179  0.9885 -0.4431 -0.5820
  709MOL0     C97772   9.582   8.232  10.091 -0.0373 -0.0169  0.0922
  709MOL0     H97773  10.025   8.246  10.166 -3.4029  1.6897 -1.7187
  709MOL0     H97774  10.281   8.209  10.228  0.7199 -0.3140  1.3035
  709MOL0     H97775  10.545   8.331  10.447 -1.3736 -0.6949  0.9459
  709MOL0     H97776  10.450   8.481  10.456  2.5675  4.3712 -2.5714
  709MOL0     H97777  10.585   8.599  10.324  0.8487  1.3924  2.0089
  709MOL0     H97778  10.662   8.539  10.460 -1.9742 -0.9907  2.0994
  709MOL0     H97779  10.789   8.374  10.343  0.9213 -0.0505 -0.5581
  709MOL0     H97780  10.690   8.391  10.196  1.8981 -2.6585  1.0635
  709MOL0     H97781  10.762   8.646  10.200 -0.5741  0.2822 -0.6636
  709MOL0     H97782  10.871   8.597  10.340  0.4391 -3.2568  0.7713
  709MOL0     H97783  10.965   8.432  10.160  0.9435 -0.2945 -1.2926
  709MOL0     H97784  11.022   8.600  10.145  1.5221 -1.7898 -2.0800
  709MOL0     H97785  10.789   8.487   9.978 -0.5665  1.0659  0.3625
  709MOL0     H97786  10.885   8.637   9.955 -0.4289  0.2292 -0.6183
  709MOL0     H97787  11.003   8.362   9.928  1.2745  0.5608 -0.9070
  709MOL0     H97788  11.091   8.521   9.928  0.6604  2.1659 -4.1461
  709MOL0     H97789  10.873   8.446   9.724  0.1980 -0.0727 -0.5685
  709MOL0     H97790  10.967   8.596   9.725  2.4357  0.9299 -0.4628
  709MOL0     H97791  11.256   8.557   9.718 -2.4595  0.0752  2.7146
  709MOL0     H97792  11.471   8.471   9.615 -0.3276  0.1514 -0.2934
  709MOL0     H97793  11.420   8.447   9.442  3.5118 -1.9200 -1.1332
  709MOL0     H97794  11.520   8.268   9.672 -0.9788  1.9289 -0.6183
  709MOL0     H97795  11.459   8.184   9.537  0.6045  0.0793 -0.0997
  709MOL0     H97796  11.706   8.352   9.554  1.6427 -0.0609  0.4510
  709MOL0     H97797  11.713   8.185   9.513  0.7316  0.6034  1.0588
  709MOL0     H97798  11.606   8.416   9.350 -0.5767  0.1541 -1.5650
  709MOL0     H97799  11.749   8.317   9.302 -0.0153 -0.9300  1.5353
  709MOL0     H97800  11.619   8.303   9.047  0.8682  2.6799  5.3635
  709MOL0     H97801  11.888   8.284   8.873  2.4936 -3.6292 -1.9151
  709MOL0     H97802  11.721   8.314   8.828  2.5577  3.2199  3.6672
  709MOL0     H97803  11.813   8.183   8.756  3.2894  0.7501 -0.0964
  709MOL0     H97804  12.047   7.902   8.663 -0.8484 -0.1855 -0.1547
  709MOL0     H97805  12.205   7.783   8.536 -0.3085  0.9798 -0.3626
  709MOL0     H97806  12.443   7.533   8.756  1.8652 -0.8631 -1.5758
  709MOL0     H97807  12.386   7.372   8.699 -2.2961  0.8345  2.1925
  709MOL0     H97808  12.577   7.562   8.552  1.9776  0.5874  1.0847
  709MOL0     H97809  12.639   7.438   8.653  1.8975  2.6836 -1.5146
  709MOL0     H97810  12.434   7.371   8.419 -1.4657  2.5809  1.2870
  709MOL0     H97811  12.543   7.263   8.504  4.3394  0.7804  0.2231
  709MOL0     H97812  12.730   7.370   8.420 -0.5308 -1.3120 -0.4369
  709MOL0     H97813  12.648   7.494   8.327  0.3143  1.1428  2.9058
  709MOL0     H97814  12.593   7.207   8.275 -0.8911 -0.4418  0.2845
  709MOL0     H97815  12.554   7.351   8.174 -1.4689 -0.8056  1.7483
  709MOL0     H97816  12.812   7.385   8.157  3.2993 -1.8043 -0.8020
  709MOL0     H97817  12.729   7.256   8.064 -6.5025 -2.0203  1.7545
  709MOL0     H97818  12.796   7.088   8.238  0.6531 -0.6873  1.8111
  709MOL0     H97819  12.855   7.214   8.345  0.3300  1.3860 -0.6435
  709MOL0     H97820  13.030   7.262   8.173  0.6209  0.8791 -3.3706
  709MOL0     H97821  12.967   7.150   8.050  4.6062 -0.6045  0.2582
  709MOL0     H97822  12.200   7.469   8.829  0.5221  2.2198  1.5964
  709MOL0     H97823  12.006   7.578   8.933 -0.3022 -0.0570 -1.0549
  709MOL0     H97824  11.827   7.870   9.139 -0.8749  0.6795  2.5177
  709MOL0     H97825  11.674   7.966   9.293 -0.5822 -0.9940 -1.7663
  709MOL0     H97826  10.319   8.616  10.318  1.0265  0.4146 -0.0659
  709MOL0     H97827  10.076   8.660  10.265  0.1874  0.0767 -1.1013
  709MOL0     H97828   9.717   8.630  10.301  0.1253  0.7870 -1.5681
  709MOL0     H97829   9.476   8.650  10.399 -4.3457  0.2760 -4.5418
  709MOL0     H97830   9.321   8.622  10.539  1.9802 -2.2315 -0.4984
  709MOL0     H97831   9.242   8.671  10.380 -1.3097 -1.7135 -0.8586
  709MOL0     H97832   9.110   8.478  10.571  0.4892  0.8796  1.7641
  709MOL0     H97833   9.030   8.577  10.448 -0.4323  0.3530  0.7782
  709MOL0     H97834   9.006   8.658  10.695 -1.2019 -1.4040 -2.6712
  709MOL0     H97835   9.169   8.712  10.682 -0.5957 -0.7271  1.2523
  709MOL0     H97836   8.950   8.776  10.460  0.6271 -2.0084  0.1555
  709MOL0     H97837   9.110   8.852  10.481  2.2005 -0.7113  2.0386
  709MOL0     H97838   8.850   9.072  10.730  1.0588 -0.2985  1.3189
  709MOL0     H97839   9.358   8.287  10.217 -0.8300  0.2728  0.4667
  709MOL0     H97840   9.612   8.258   9.989 -2.4607 -0.1114 -0.7141
  709MOL0     H97841   9.650   8.160  10.137  0.4888 -0.1959 -0.9250
  709MOL0     H97842   9.484   8.183  10.083  0.7993 -1.4577 -2.7718
  710MOL0     O97843   6.445   5.313  10.704 -1.0172 -0.3328  0.1005
  710MOL0     C97844   6.461   5.303  10.581  0.8068 -0.3273 -0.0674
  710MOL0     O97845   6.404   5.393  10.496  1.4893 -0.5002  0.1086
  710MOL0     C97846   6.353   5.518  10.539 -0.7934 -0.3911  0.5041
  710MOL0     C97847   6.239   5.569  10.477  0.9291  1.1329  0.6872
  710MOL0     C97848   6.181   5.693  10.525  0.6160  0.4629  0.1632
  710MOL0     C97849   6.231   5.760  10.640 -0.9241 -0.3192  0.4251
  710MOL0     O97850   6.184   5.884  10.675 -0.1869 -0.1104  0.0728
  710MOL0     C97851   6.040   5.907  10.686 -0.9378  0.5661  0.1360
  710MOL0     C97852   6.008   6.040  10.740 -0.6737 -0.0879  0.3018
  710MOL0     C97853   6.078   6.079  10.873 -0.2103  0.1172 -0.5255
  710MOL0     C97854   6.013   6.205  10.939  0.1835 -0.2256  0.3715
  710MOL0     C97855   6.042   6.230  11.087  0.3989 -0.0401 -0.5048
  710MOL0     C97856   6.185   6.252  11.129 -0.5576 -0.3802  0.6466
  710MOL0     C97857   6.197   6.281  11.281 -0.6541 -0.6143  0.4915
  710MOL0     C97858   6.346   6.302  11.341  0.5015 -0.4669 -0.4254
  710MOL0     N97859   6.405   6.434  11.318  0.1608 -0.7534 -0.4797
  710MOL0     C97860   6.495   6.467  11.226 -0.3435 -0.8280 -0.0926
  710MOL0     C97861   6.503   6.607  11.240  0.1608 -0.5045  0.7806
  710MOL0     C97862   6.583   6.717  11.160  0.2218  0.5512 -0.0134
  710MOL0     C97863   6.609   6.840  11.252 -0.2903 -0.4261  0.6014
  710MOL0     C97864   6.734   6.920  11.209 -1.3802 -0.1907 -0.4607
  710MOL0     C97865   6.730   7.060  11.270 -0.5016 -0.1145  0.2682
  710MOL0     O97866   6.727   7.047  11.413  0.2704 -0.0646 -0.7402
  710MOL0     C97867   6.752   7.153  11.501 -0.2187  0.1210 -0.0730
  710MOL0     C97868   6.805   7.117  11.624  0.0742 -0.8605  0.7466
  710MOL0     C97869   6.845   7.214  11.717  0.0365 -0.1365 -0.1085
  710MOL0     C97870   6.898   7.162  11.854  0.8506  0.0580  0.9929
  710MOL0     C97871   6.832   7.351  11.689 -0.3282  0.5769 -0.5475
  710MOL0     C97872   6.888   7.454  11.777 -0.1932  0.6446 -0.7050
  710MOL0     O97873   7.001   7.433  11.849 -0.7491  0.8017  0.4331
  710MOL0     C97874   7.044   7.513  11.954  0.0771 -0.4058  0.6993
  710MOL0     C97875   6.954   7.562  12.046  0.4438  0.3364  0.7355
  710MOL0     C97876   6.995   7.659  12.137 -0.1080 -0.3040  0.1992
  710MOL0     C97877   7.119   7.720  12.128  0.4462  0.2511  0.4503
  710MOL0     O97878   7.150   7.841  12.190 -0.8808 -0.0884  0.4255
  710MOL0     C97879   7.049   7.891  12.273  0.0153 -0.9979  0.0536
  710MOL0     C97880   7.098   8.014  12.359 -0.1542 -0.0970 -0.7208
  710MOL0     C97881   7.122   8.144  12.281  0.2900 -0.3917 -0.6885
  710MOL0     C97882   7.005   8.202  12.192 -0.1023 -0.7969  0.2070
  710MOL0     C97883   7.034   8.337  12.121  0.1159 -0.7955  0.0677
  710MOL0     C97884   6.980   8.454  12.203  0.3759  1.5767 -0.2906
  710MOL0     C97885   6.995   8.580  12.124  0.3868 -0.6063 -0.2512
  710MOL0     C97886   6.958   8.717  12.192  0.2045 -0.2659  0.4266
  710MOL0    Cl97887   7.048   8.726  12.342 -0.0036  0.6989 -0.0672
  710MOL0     C97888   7.216   7.665  12.037  0.2164 -0.7205  0.0695
  710MOL0     C97889   7.178   7.561  11.957  0.3748 -0.1346  0.5038
  710MOL0     O97890   6.837   7.565  11.770 -0.4738 -0.5747  0.0662
  710MOL0     C97891   6.787   7.384  11.563  0.5641 -0.4842 -0.5467
  710MOL0     C97892   6.748   7.290  11.462 -0.1386  0.3100 -1.0363
  710MOL0     N97893   6.422   6.644  11.351 -0.1343 -0.8210 -0.5446
  710MOL0     N97894   6.373   6.538  11.399  0.4461  0.1921 -0.3148
  710MOL0     C97895   6.346   5.705  10.695 -0.2336  0.4985  0.2871
  710MOL0     C97896   6.405   5.589  10.641  0.5702 -0.4928 -0.7812
  710MOL0     C97897   6.524   5.176  10.518 -0.2976 -0.5745  0.8846
  710MOL0     C97898   6.468   5.129  10.393  0.4880 -0.3049 -1.3728
  710MOL0     C97899   6.532   5.022  10.339 -0.2722 -0.3721  0.0445
  710MOL0     C97900   6.637   4.948  10.393 -1.2966  0.1538  0.5829
  710MOL0     O97901   6.670   4.839  10.321 -0.1714 -0.2752  0.1010
  710MOL0     C97902   6.705   4.723  10.400 -1.2217 -0.6704  0.2157
  710MOL0     C97903   6.699   4.603  10.316 -0.2034  0.4130  0.3867
  710MOL0     C97904   6.555   4.578  10.268  1.3985  0.6719  0.3712
  710MOL0     C97905   6.545   4.590  10.112 -0.4805  0.7674 -0.4770
  710MOL0     C97906   6.648   4.496  10.050 -0.9366  0.2592 -0.8143
  710MOL0     C97907   6.710   4.399   9.998 -0.0784 -1.2123 -0.1878
  710MOL0     C97908   6.705   5.005  10.504  0.4175 -0.4615 -0.9632
  710MOL0     C97909   6.650   5.117  10.565 -0.8568 -0.0328  0.2534
  710MOL0     C97910   6.719   5.185  10.689  0.3955 -0.4375  0.1126
  710MOL0     H97911   6.192   5.512  10.397  3.0651 -0.8854  0.7369
  710MOL0     H97912   6.094   5.731  10.474  0.8765  0.9045  0.0430
  710MOL0     H97913   5.987   5.832  10.746  1.0297  1.8761  3.8452
  710MOL0     H97914   5.998   5.897  10.585 -1.7083  4.2286 -0.0430
  710MOL0     H97915   6.048   6.110  10.666 -2.0953  0.2465 -0.1920
  710MOL0     H97916   5.900   6.058  10.753 -0.8601 -0.4056 -0.7161
  710MOL0     H97917   6.079   5.991  10.939 -2.1982  0.6501  0.2911
  710MOL0     H97918   6.181   6.109  10.852 -0.5246  0.9488 -0.9123
  710MOL0     H97919   6.038   6.298  10.886 -0.9943 -1.0505 -1.7606
  710MOL0     H97920   5.904   6.206  10.931 -0.0357  3.2997  1.7077
  710MOL0     H97921   6.002   6.143  11.141  0.9564 -0.5854 -0.9589
  710MOL0     H97922   5.980   6.314  11.119  1.2371  1.9001 -3.5728
  710MOL0     H97923   6.240   6.162  11.102  2.6825  1.3225  0.9900
  710MOL0     H97924   6.226   6.329  11.062  1.3766  0.8505  3.0717
  710MOL0     H97925   6.154   6.197  11.335  1.5707 -1.6103  0.8496
  710MOL0     H97926   6.140   6.372  11.304  0.7321  0.5350 -0.4066
  710MOL0     H97927   6.333   6.302  11.450  2.4226  1.0802 -0.1335
  710MOL0     H97928   6.409   6.217  11.314 -2.2053 -3.6242  2.1933
  710MOL0     H97929   6.558   6.403  11.165 -1.1654 -1.2565 -0.5112
  710MOL0     H97930   6.528   6.758  11.075  0.2106 -0.0104 -0.2798
  710MOL0     H97931   6.678   6.678  11.125  2.4246  3.4772  2.1300
  710MOL0     H97932   6.525   6.910  11.247  0.4397  0.4122 -3.0242
  710MOL0     H97933   6.626   6.809  11.355  1.4293 -2.7857 -0.2962
  710MOL0     H97934   6.816   6.860  11.248 -0.9946 -0.8137 -2.1773
  710MOL0     H97935   6.749   6.925  11.101 -2.2213 -3.9076 -0.8849
  710MOL0     H97936   6.823   7.110  11.243 -1.9613  2.1619 -0.7552
  710MOL0     H97937   6.646   7.121  11.239 -1.2927 -0.8714  0.8620
  710MOL0     H97938   6.806   7.012  11.648  0.6562 -0.4193  2.8394
  710MOL0     H97939   6.840   7.075  11.887 -1.4066  2.1109  2.6744
  710MOL0     H97940   6.896   7.225  11.943  1.2709 -1.6221  2.2480
  710MOL0     H97941   7.006   7.157  11.837  0.4741 -0.4079 -1.7927
  710MOL0     H97942   6.855   7.517  12.052  0.4233  0.0419 -1.3254
  710MOL0     H97943   6.923   7.692  12.212 -0.5601 -3.9981  1.6171
  710MOL0     H97944   6.964   7.921  12.210  2.6864 -0.1457 -3.4718
  710MOL0     H97945   7.015   7.819  12.347 -0.8764  0.6153  1.2797
  710MOL0     H97946   7.024   8.035  12.437  1.1324 -0.6402  0.6887
  710MOL0     H97947   7.186   7.981  12.416 -0.9052 -0.1947  0.4192
  710MOL0     H97948   7.209   8.124  12.218 -0.0022 -4.6686 -0.0342
  710MOL0     H97949   7.145   8.226  12.349 -1.6795 -0.0074 -0.4230
  710MOL0     H97950   6.909   8.209  12.245 -1.4915  0.6698 -2.3069
  710MOL0     H97951   6.996   8.132  12.108  0.8030 -0.7306  0.0448
  710MOL0     H97952   7.134   8.361  12.084 -1.0221  1.9979 -1.4939
  710MOL0     H97953   6.969   8.326  12.034 -2.6089 -2.7949  2.1903
  710MOL0     H97954   7.039   8.466  12.294  1.4458  1.0880 -0.9010
  710MOL0     H97955   6.875   8.435  12.228  0.4810  0.0497 -0.9126
  710MOL0     H97956   6.933   8.566  12.035 -1.5950  0.3130  0.9276
  710MOL0     H97957   7.097   8.585  12.085  1.2097  0.3837  1.8665
  710MOL0     H97958   6.853   8.738  12.217 -0.1623 -1.6103  0.0983
  710MOL0     H97959   6.997   8.797  12.129  0.5550 -0.6077  0.2067
  710MOL0     H97960   7.319   7.699  12.043 -0.1454  0.1502  3.0858
  710MOL0     H97961   7.258   7.506  11.908 -0.6882 -1.2242 -0.0600
  710MOL0     H97962   6.775   7.490  11.543 -1.7217 -0.6660 -0.3305
  710MOL0     H97963   6.723   7.307  11.358  3.2611 -2.2697 -2.4643
  710MOL0     H97964   6.410   5.750  10.770  0.5589  1.1186 -0.7332
  710MOL0     H97965   6.495   5.555  10.691 -2.2031 -1.4384  4.1887
  710MOL0     H97966   6.374   5.174  10.362 -0.9344  1.5553  4.4941
  710MOL0     H97967   6.476   4.979  10.257 -2.7907 -0.8716  1.9159
  710MOL0     H97968   6.801   4.739  10.448 -0.0886 -1.1706 -1.7590
  710MOL0     H97969   6.631   4.719  10.480 -1.3673  1.0509  0.2161
  710MOL0     H97970   6.728   4.509  10.364  1.1997 -0.4658 -2.0508
  710MOL0     H97971   6.774   4.612  10.237 -1.9491  0.3606 -1.3510
  710MOL0     H97972   6.513   4.483  10.302 -0.6091  1.1830 -0.5358
  710MOL0     H97973   6.481   4.653  10.297  0.5462 -0.8181  2.1949
  710MOL0     H97974   6.578   4.685  10.071 -2.3762  0.7937 -2.1357
  710MOL0     H97975   6.450   4.557  10.068  0.2131 -1.9706 -0.1239
  710MOL0     H97976   6.758   4.321   9.942 -2.8025 -2.5578 -0.7943
  710MOL0     H97977   6.792   4.961  10.552  0.8083  1.7410  0.4692
  710MOL0     H97978   6.819   5.146  10.713  0.2536 -1.8348 -1.3837
  710MOL0     H97979   6.719   5.293  10.671 -1.1193 -0.1906  1.4455
  710MOL0     H97980   6.666   5.157  10.780 -0.5940  3.1037  0.7827
  711MOL0     O97981  10.359   8.554   4.820 -0.9557 -0.3006 -0.3217
  711MOL0     C97982  10.241   8.540   4.804 -0.2330 -0.4661 -0.5432
  711MOL0     O97983  10.179   8.451   4.717  0.6579 -0.4666  0.1925
  711MOL0     C97984  10.261   8.358   4.650  0.3420 -0.1908 -0.2174
  711MOL0     C97985  10.323   8.371   4.523 -0.4288 -0.2070  0.0006
  711MOL0     C97986  10.395   8.263   4.464  0.1785 -0.2853 -0.7918
  711MOL0     C97987  10.400   8.133   4.519 -0.8659  0.7420 -0.3648
  711MOL0     O97988  10.464   8.018   4.466  0.7673 -0.5151 -0.1923
  711MOL0     C97989  10.545   8.041   4.353 -0.3457 -0.4714 -0.3093
  711MOL0     C97990  10.480   8.065   4.212 -0.3938 -0.2524 -0.1767
  711MOL0     C97991  10.467   7.926   4.147 -0.3760  0.8092 -0.0141
  711MOL0     C97992  10.323   7.874   4.160 -0.1808  0.1850 -0.0643
  711MOL0     C97993  10.235   7.946   4.056  0.0972  0.3232  0.2967
  711MOL0     C97994  10.117   7.865   4.013  0.9310  0.0924  0.0946
  711MOL0     C97995  10.042   7.949   3.907  0.2378  0.7515  0.6160
  711MOL0     C97996   9.927   7.874   3.834 -0.6089  0.4170  0.2747
  711MOL0     N97997   9.839   7.793   3.919 -0.6176  0.0419  0.1183
  711MOL0     C97998   9.734   7.848   3.986  0.3007 -0.8282 -0.2799
  711MOL0     C97999   9.690   7.751   4.071  0.2236  0.2004  0.4087
  711MOL0     C98000   9.578   7.778   4.168 -0.2559  1.1411 -0.3114
  711MOL0     C98001   9.518   7.647   4.202  0.6588 -0.0769  0.2839
  711MOL0     C98002   9.394   7.655   4.292 -0.4315 -0.2603 -0.3320
  711MOL0     C98003   9.408   7.752   4.408 -0.1797 -0.5201  0.6389
  711MOL0     O98004   9.516   7.702   4.484 -0.5212  0.3859  0.0184
  711MOL0     C98005   9.503   7.604   4.585 -1.1683 -0.5095 -0.2387
  711MOL0     C98006   9.387   7.550   4.625 -0.3661 -0.4313 -0.9041
  711MOL0     C98007   9.377   7.452   4.722 -0.6125  0.2815  1.0641
  711MOL0     C98008   9.242   7.386   4.729 -0.8522 -0.3429 -0.6872
  711MOL0     C98009   9.490   7.413   4.797  0.0281 -0.3453 -0.6129
  711MOL0     C98010   9.499   7.310   4.894 -0.7925  0.4871  0.6678
  711MOL0     O98011   9.618   7.245   4.909 -0.6536  0.6051 -0.0415
  711MOL0     C98012   9.637   7.147   5.008 -0.7184  0.0655  0.3187
  711MOL0     C98013   9.567   7.134   5.128 -0.4834  0.1987  0.3911
  711MOL0     C98014   9.580   7.029   5.215  0.5963  0.3734  0.1607
  711MOL0     C98015   9.674   6.924   5.195  1.0192 -0.2930 -0.2121
  711MOL0     O98016   9.681   6.826   5.293 -0.8622  0.1003  0.7674
  711MOL0     C98017   9.778   6.723   5.273 -0.9993  0.0534  0.0595
  711MOL0     C98018   9.777   6.619   5.388  0.8953 -0.0045  0.2951
  711MOL0     C98019   9.672   6.509   5.369  0.2429  0.1756 -0.3030
  711MOL0     C98020   9.678   6.437   5.238 -0.0428 -0.0601 -0.6690
  711MOL0     C98021   9.626   6.291   5.247 -0.3706 -0.8489 -0.5312
  711MOL0     C98022   9.645   6.214   5.116  0.6429  0.3476 -0.4575
  711MOL0     C98023   9.600   6.067   5.130 -0.0024  0.0449 -0.2065
  711MOL0     C98024   9.447   6.039   5.168  0.6133 -0.4083  0.2552
  711MOL0    Cl98025   9.320   6.123   5.061  0.0197  0.0887 -0.2375
  711MOL0     C98026   9.747   6.930   5.075  0.1573  1.2466  1.3947
  711MOL0     C98027   9.724   7.039   4.988 -0.5200  0.5736  0.7444
  711MOL0     O98028   9.394   7.274   4.954  0.0368 -0.6064  0.1529
  711MOL0     C98029   9.608   7.471   4.755 -0.3960 -0.4640  0.5940
  711MOL0     C98030   9.613   7.564   4.653 -0.0280  0.5526  0.6591
  711MOL0     N98031   9.770   7.630   4.048  0.7143 -0.1095  0.3267
  711MOL0     N98032   9.848   7.662   3.957  0.5702  0.0216  0.8424
  711MOL0     C98033  10.340   8.125   4.645  0.6504 -0.2228 -0.2992
  711MOL0     C98034  10.274   8.229   4.705  0.7510 -1.3131 -0.0150
  711MOL0     C98035  10.134   8.614   4.893 -0.5126 -0.1156 -0.0346
  711MOL0     C98036  10.009   8.553   4.912  0.3872  0.7982 -0.7271
  711MOL0     C98037   9.916   8.596   5.013 -0.2040  0.5748 -0.0185
  711MOL0     C98038   9.949   8.712   5.098 -0.3147  0.3426  0.6952
  711MOL0     O98039   9.867   8.753   5.195 -0.4605 -0.0594 -0.4502
  711MOL0     C98040   9.742   8.813   5.138 -0.5538 -1.0756  0.5688
  711MOL0     C98041   9.645   8.863   5.248 -0.2190  0.2747 -0.1189
  711MOL0     C98042   9.604   8.741   5.331 -0.3248  0.2673 -0.5058
  711MOL0     C98043   9.526   8.768   5.458 -0.9832  0.1910  0.5229
  711MOL0     C98044   9.392   8.822   5.433  0.2416  0.7710 -0.4528
  711MOL0     C98045   9.282   8.878   5.417 -0.7638 -0.7001  0.1067
  711MOL0     C98046  10.073   8.775   5.068  0.0635  0.0522  0.4071
  711MOL0     C98047  10.164   8.728   4.973  0.2069 -0.5294 -0.6782
  711MOL0     C98048  10.307   8.784   4.973 -0.7565  0.8909 -0.4231
  711MOL0     H98049  10.320   8.460   4.460  1.8753 -0.7830 -1.0584
  711MOL0     H98050  10.445   8.301   4.376 -1.0223  2.9909 -0.2114
  711MOL0     H98051  10.619   7.961   4.344  0.4884  0.4221 -1.8381
  711MOL0     H98052  10.607   8.126   4.383 -1.3394  0.8127 -1.7411
  711MOL0     H98053  10.388   8.123   4.224 -1.2186 -0.9327 -2.6498
  711MOL0     H98054  10.540   8.133   4.151  1.7670 -0.6194  1.4297
  711MOL0     H98055  10.510   7.940   4.047  2.5613 -1.3055  0.8143
  711MOL0     H98056  10.531   7.851   4.194 -3.3303 -1.2613  1.0481
  711MOL0     H98057  10.329   7.765   4.152 -0.4478  0.3007 -2.2927
  711MOL0     H98058  10.274   7.904   4.253  2.2587  0.3980  1.2371
  711MOL0     H98059  10.297   7.970   3.969  0.8976  0.7038  0.9557
  711MOL0     H98060  10.200   8.034   4.111  0.9835  0.0590  1.3140
  711MOL0     H98061  10.147   7.768   3.970 -3.8450 -0.7201 -2.0641
  711MOL0     H98062  10.041   7.841   4.088 -0.1995  0.2738 -0.9604
  711MOL0     H98063  10.113   7.990   3.834 -0.2255  3.2037  1.4462
  711MOL0     H98064   9.988   8.028   3.960 -0.2192  1.1137 -0.3706
  711MOL0     H98065   9.869   7.941   3.769  0.5832 -0.5082 -1.8655
  711MOL0     H98066   9.965   7.803   3.759 -1.3698  3.8386 -3.7551
  711MOL0     H98067   9.711   7.953   3.974  0.2478 -0.7219  0.6957
  711MOL0     H98068   9.498   7.844   4.132 -0.0397  0.6590 -1.7690
  711MOL0     H98069   9.631   7.819   4.254 -0.9893 -0.0485  0.7224
  711MOL0     H98070   9.483   7.585   4.118  0.8429 -1.1580  0.9737
  711MOL0     H98071   9.589   7.587   4.259 -0.9378 -0.1222  2.3331
  711MOL0     H98072   9.320   7.709   4.233 -3.7942 -2.3417  1.6400
  711MOL0     H98073   9.367   7.554   4.326  0.0293 -0.0271  0.7612
  711MOL0     H98074   9.437   7.853   4.379  0.2606 -0.7097  0.4148
  711MOL0     H98075   9.316   7.750   4.467  0.7866 -4.6553  2.3994
  711MOL0     H98076   9.298   7.580   4.570 -0.4974 -1.5156 -1.2918
  711MOL0     H98077   9.206   7.377   4.832  0.0765  1.1996 -0.1873
  711MOL0     H98078   9.249   7.286   4.684  0.1434 -1.7266  2.2680
  711MOL0     H98079   9.168   7.449   4.679 -1.5532 -0.1108  0.6047
  711MOL0     H98080   9.487   7.197   5.165 -3.0067 -2.2394 -0.5243
  711MOL0     H98081   9.514   7.019   5.300 -2.3170 -1.1487 -2.0887
  711MOL0     H98082   9.762   6.671   5.178 -0.5703 -1.2159  0.6588
  711MOL0     H98083   9.874   6.773   5.260 -0.2895 -1.5101 -1.1615
  711MOL0     H98084   9.880   6.583   5.398  1.5321  1.6654  0.0195
  711MOL0     H98085   9.762   6.670   5.483  3.2739  1.6908 -0.1582
  711MOL0     H98086   9.576   6.557   5.386  1.9619  3.8256  0.0692
  711MOL0     H98087   9.689   6.430   5.443 -1.9440 -1.6847 -1.6632
  711MOL0     H98088   9.783   6.434   5.208  0.2936  0.3530  0.4066
  711MOL0     H98089   9.622   6.488   5.160 -0.7690 -0.1028 -0.1940
  711MOL0     H98090   9.680   6.247   5.332  2.7394  4.4172  0.6809
  711MOL0     H98091   9.520   6.304   5.272 -0.3281  1.9578 -1.5439
  711MOL0     H98092   9.746   6.223   5.075 -0.3373  1.2069 -2.8459
  711MOL0     H98093   9.575   6.256   5.043 -1.4141 -1.0137  0.6403
  711MOL0     H98094   9.653   6.017   5.211 -3.6859 -1.9386  1.2298
  711MOL0     H98095   9.625   6.029   5.030  0.6495  1.2994 -0.5500
  711MOL0     H98096   9.440   6.076   5.271  1.8069  0.9789 -0.1253
  711MOL0     H98097   9.442   5.930   5.163  0.8974 -0.4074 -0.0476
  711MOL0     H98098   9.826   6.861   5.048 -0.6747  0.9331 -0.3872
  711MOL0     H98099   9.782   7.041   4.896 -2.2166 -2.9340 -0.5936
  711MOL0     H98100   9.702   7.428   4.789  2.1491  0.9350 -3.8205
  711MOL0     H98101   9.715   7.593   4.631  0.9334 -1.3208  2.2865
  711MOL0     H98102  10.358   8.041   4.712  2.1745  1.0318  0.9573
  711MOL0     H98103  10.239   8.213   4.806 -0.3084  0.6988 -0.0170
  711MOL0     H98104   9.994   8.472   4.842  0.7956 -0.1956  0.2954
  711MOL0     H98105   9.820   8.547   5.028  0.5160 -0.3672  1.8817
  711MOL0     H98106   9.763   8.903   5.080  2.5929 -2.9596 -1.5150
  711MOL0     H98107   9.686   8.743   5.075 -0.4589 -1.9849  1.4726
  711MOL0     H98108   9.563   8.918   5.201  1.2960  2.6494 -0.1651
  711MOL0     H98109   9.697   8.946   5.298  1.5515 -0.3196 -0.8830
  711MOL0     H98110   9.528   8.695   5.268 -1.6054 -2.3728  2.6795
  711MOL0     H98111   9.695   8.684   5.354 -0.5609  0.0543 -0.0853
  711MOL0     H98112   9.580   8.836   5.524  1.7471 -2.0689  0.7995
  711MOL0     H98113   9.513   8.674   5.512  3.6685 -0.6983  0.4962
  711MOL0     H98114   9.181   8.914   5.407 -0.8423 -1.2706 -1.4403
  711MOL0     H98115  10.100   8.873   5.106  2.3745 -0.1465 -0.5464
  711MOL0     H98116  10.358   8.807   4.879  1.4307 -2.2099 -0.1750
  711MOL0     H98117  10.317   8.874   5.034  2.1426  1.2858 -1.3055
  711MOL0     H98118  10.367   8.707   5.022 -3.1960 -0.8616  0.0017
  712MOL0     O98119   5.930   1.956   0.783  0.4433 -0.0998  0.6423
  712MOL0     C98120   5.894   2.054   0.849  0.1276  0.2910  0.3275
  712MOL0     O98121   5.764   2.093   0.862  0.0293  0.4156  0.1660
  712MOL0     C98122   5.685   2.041   0.763  0.5983 -0.5676  0.8427
  712MOL0     C98123   5.623   1.918   0.769  0.0046 -0.8021 -0.2273
  712MOL0     C98124   5.562   1.855   0.655  0.5576  0.4509  0.2257
  712MOL0     C98125   5.557   1.925   0.533  0.6806 -1.2939  0.2895
  712MOL0     O98126   5.482   1.873   0.421  0.3636 -1.1671  0.6825
  712MOL0     C98127   5.468   1.731   0.408  1.0572 -0.6003  0.3780
  712MOL0     C98128   5.417   1.719   0.266 -0.1811  0.1668  1.0151
  712MOL0     C98129   5.370   1.575   0.242 -0.0416 -0.1162  0.4747
  712MOL0     C98130   5.353   1.544   0.098  1.4550  0.7191  0.1149
  712MOL0     C98131   5.332   1.390   0.089  0.2988 -0.3634 -0.1017
  712MOL0     C98132   5.326   1.352  -0.061 -0.6930 -0.5093  0.2994
  712MOL0     C98133   5.209   1.413  -0.136  0.0205  0.6948  0.2703
  712MOL0     C98134   5.180   1.347  -0.272  0.0932  0.5901 -0.2629
  712MOL0     N98135   5.302   1.363  -0.359 -0.1588 -0.0393  0.5745
  712MOL0     C98136   5.319   1.477  -0.434 -0.2285 -0.0828 -0.6456
  712MOL0     C98137   5.426   1.448  -0.512 -0.6021  0.3678 -1.0475
  712MOL0     C98138   5.481   1.550  -0.598 -0.2725 -0.0497  0.3276
  712MOL0     C98139   5.630   1.536  -0.647 -0.1542  0.1449  0.7848
  712MOL0     C98140   5.636   1.449  -0.771 -0.0268  0.6377  0.3763
  712MOL0     C98141   5.576   1.513  -0.899  0.0742  0.6125  0.4465
  712MOL0     O98142   5.600   1.425  -1.014  0.0042 -0.5503 -0.1474
  712MOL0     C98143   5.515   1.329  -1.064  0.3967  0.2229  0.1298
  712MOL0     C98144   5.416   1.266  -0.993 -1.3323 -0.0604  0.2835
  712MOL0     C98145   5.341   1.162  -1.057  0.6615  0.2933  0.6297
  712MOL0     C98146   5.239   1.090  -0.970 -0.6269  0.5805  0.4541
  712MOL0     C98147   5.357   1.123  -1.193  0.6536 -0.5021 -0.6274
  712MOL0     C98148   5.273   1.028  -1.264 -0.3075 -0.0985 -1.2277
  712MOL0     O98149   5.268   1.041  -1.399  0.6608  0.1604 -0.1729
  712MOL0     C98150   5.146   1.003  -1.462  0.5671  0.1038 -0.5041
  712MOL0     C98151   5.135   0.878  -1.525 -0.4964  0.5814 -1.1086
  712MOL0     C98152   5.022   0.836  -1.595 -0.3385  1.1044  0.0284
  712MOL0     C98153   4.912   0.918  -1.608  0.3240 -0.7917 -0.5144
  712MOL0     O98154   4.806   0.859  -1.673  0.1773 -0.0966  0.4036
  712MOL0     C98155   4.719   0.954  -1.753  0.2001  0.4305 -0.8951
  712MOL0     C98156   4.598   0.983  -1.673 -1.1550  0.9718 -1.2942
  712MOL0     C98157   4.507   0.870  -1.622  0.0435  0.9391 -0.0872
  712MOL0     C98158   4.415   0.906  -1.504 -0.3487 -0.1357  0.3038
  712MOL0     C98159   4.344   0.773  -1.455  0.0735 -0.1232 -0.5109
  712MOL0     C98160   4.201   0.743  -1.515 -0.2235 -0.2729  0.5797
  712MOL0     C98161   4.134   0.625  -1.442  0.4164 -0.9127  0.2492
  712MOL0     C98162   4.004   0.600  -1.514  0.3702  0.1613 -0.8358
  712MOL0    Cl98163   3.887   0.731  -1.518  0.3857 -0.4590  0.4927
  712MOL0     C98164   4.924   1.053  -1.553 -0.1332 -0.6585  0.3562
  712MOL0     C98165   5.044   1.097  -1.492 -0.6395 -0.3313 -0.0389
  712MOL0     O98166   5.208   0.952  -1.192  0.1792 -0.0118  0.4788
  712MOL0     C98167   5.454   1.202  -1.265 -0.3497  0.3426 -0.0999
  712MOL0     C98168   5.534   1.298  -1.201 -1.0499 -0.4993  0.0494
  712MOL0     N98169   5.474   1.323  -0.485 -0.4499  0.3733  0.3208
  712MOL0     N98170   5.388   1.262  -0.408 -0.4781 -0.3530 -0.2813
  712MOL0     C98171   5.605   2.060   0.534 -0.2059  1.3022  0.0659
  712MOL0     C98172   5.671   2.110   0.647 -0.0785 -0.5513  0.7684
  712MOL0     C98173   6.001   2.118   0.924 -0.4462 -0.8272 -0.0652
  712MOL0     C98174   6.132   2.056   0.931  0.6389 -0.1900  0.8892
  712MOL0     C98175   6.233   2.112   1.013  0.0928 -0.4031 -0.0236
  712MOL0     C98176   6.215   2.221   1.098 -0.2017  0.0321  0.4691
  712MOL0     O98177   6.329   2.264   1.165  0.5864 -0.1221 -0.2535
  712MOL0     C98178   6.335   2.405   1.179 -0.0052  0.5730 -0.3089
  712MOL0     C98179   6.474   2.443   1.211 -0.2741 -0.7362  0.4774
  712MOL0     C98180   6.511   2.595   1.246  0.8080  0.4468  0.5514
  712MOL0     C98181   6.651   2.613   1.302 -0.2929 -0.7267  0.4344
  712MOL0     C98182   6.648   2.749   1.360 -0.7815  0.8525  0.5684
  712MOL0     C98183   6.636   2.866   1.389  0.0732  0.6246 -0.0776
  712MOL0     C98184   6.093   2.290   1.082  0.2428 -0.3390  0.1217
  712MOL0     C98185   5.992   2.239   1.002  0.2813 -0.3157  0.0230
  712MOL0     C98186   5.862   2.322   1.000  0.3392 -0.2924  0.6030
  712MOL0     H98187   5.627   1.866   0.863  3.0861 -1.0507 -0.4223
  712MOL0     H98188   5.524   1.753   0.662  2.2458 -0.1438  1.3763
  712MOL0     H98189   5.402   1.679   0.477  2.0076 -1.9898  0.2693
  712MOL0     H98190   5.564   1.680   0.416 -0.1371 -3.0941 -0.3691
  712MOL0     H98191   5.339   1.794   0.251  0.2272  0.5423  0.7321
  712MOL0     H98192   5.497   1.740   0.195 -1.1076  0.6767  0.0992
  712MOL0     H98193   5.446   1.507   0.281  1.9611  2.6873  1.8441
  712MOL0     H98194   5.275   1.560   0.295 -0.1822  0.6106  0.4497
  712MOL0     H98195   5.277   1.608   0.053  1.5236  1.1856  0.6528
  712MOL0     H98196   5.447   1.570   0.047  1.3224 -0.8384 -1.0068
  712MOL0     H98197   5.254   1.344   0.151  3.2529 -3.8049  1.4131
  712MOL0     H98198   5.414   1.328   0.127  1.0454  0.8626  0.3607
  712MOL0     H98199   5.420   1.370  -0.115 -1.7003 -1.8717 -2.0531
  712MOL0     H98200   5.318   1.243  -0.074  1.3854 -0.9444  1.9353
  712MOL0     H98201   5.218   1.521  -0.154  0.3928  0.8692  1.4101
  712MOL0     H98202   5.130   1.381  -0.067  0.9093 -2.3922 -0.0078
  712MOL0     H98203   5.165   1.240  -0.256 -0.7384  0.1862 -3.1359
  712MOL0     H98204   5.088   1.376  -0.324 -1.2353 -0.4769  1.3901
  712MOL0     H98205   5.274   1.575  -0.429  4.8122  2.5771 -0.6824
  712MOL0     H98206   5.471   1.646  -0.547  2.0863 -0.3856  1.5608
  712MOL0     H98207   5.420   1.560  -0.688 -3.2411  2.9717  2.4548
  712MOL0     H98208   5.668   1.631  -0.685 -1.5569 -0.4471 -2.4574
  712MOL0     H98209   5.702   1.500  -0.573 -0.3055  0.6648  1.1852
  712MOL0     H98210   5.737   1.413  -0.792 -0.0355  0.5416  0.5002
  712MOL0     H98211   5.567   1.365  -0.760 -2.8678  2.7179 -0.1996
  712MOL0     H98212   5.468   1.522  -0.889  0.0449 -0.8260  1.8071
  712MOL0     H98213   5.626   1.605  -0.928  2.3867  0.7903  4.3760
  712MOL0     H98214   5.405   1.290  -0.887  0.4330 -2.4294  1.0857
  712MOL0     H98215   5.135   1.101  -1.001 -0.7179 -1.5397 -0.1572
  712MOL0     H98216   5.240   1.114  -0.864 -2.3826 -2.6492  1.3365
  712MOL0     H98217   5.249   0.982  -0.976  1.0211  0.7805 -3.0493
  712MOL0     H98218   5.225   0.817  -1.532 -0.8536  0.1212 -1.8723
  712MOL0     H98219   5.019   0.743  -1.650  0.4372  2.1874 -1.9481
  712MOL0     H98220   4.761   1.051  -1.779 -1.3541  1.2773 -0.4164
  712MOL0     H98221   4.691   0.911  -1.850  2.0691 -1.3529 -0.6992
  712MOL0     H98222   4.639   1.026  -1.581  0.5510 -0.5476 -1.2654
  712MOL0     H98223   4.535   1.067  -1.704 -1.2252  1.4468  0.0727
  712MOL0     H98224   4.570   0.785  -1.592  0.9973  1.5771 -0.2494
  712MOL0     H98225   4.442   0.838  -1.704  0.4574 -1.1107  0.3231
  712MOL0     H98226   4.334   0.974  -1.529 -2.0707 -1.9366  0.7580
  712MOL0     H98227   4.482   0.958  -1.434  1.6697  2.8410 -3.4625
  712MOL0     H98228   4.401   0.680  -1.464  0.0933  0.0065 -1.9084
  712MOL0     H98229   4.326   0.786  -1.348  0.3436 -2.9828 -0.0456
  712MOL0     H98230   4.211   0.745  -1.624  3.6051 -0.2984  0.8140
  712MOL0     H98231   4.138   0.827  -1.484 -1.1652 -1.4672  2.0408
  712MOL0     H98232   4.123   0.648  -1.336  3.0029  0.9645  0.2188
  712MOL0     H98233   4.202   0.539  -1.442 -0.6784 -1.7937  0.4592
  712MOL0     H98234   3.953   0.516  -1.466  1.1319  1.2682  2.1357
  712MOL0     H98235   4.024   0.556  -1.612  0.1192  2.3964 -1.9511
  712MOL0     H98236   4.845   1.127  -1.553 -1.1416 -1.5201  3.8927
  712MOL0     H98237   5.047   1.201  -1.460  0.6494  0.7487 -3.1857
  712MOL0     H98238   5.481   1.186  -1.369  0.3817  0.2111  0.1064
  712MOL0     H98239   5.615   1.348  -1.254 -0.6805  0.4234  1.4533
  712MOL0     H98240   5.601   2.129   0.450 -1.2224  1.3266  0.1211
  712MOL0     H98241   5.711   2.210   0.632 -2.0872  0.0248 -1.2788
  712MOL0     H98242   6.149   1.960   0.883 -0.7145 -0.4488  0.8746
  712MOL0     H98243   6.327   2.059   1.021  1.2525  0.8756 -3.2969
  712MOL0     H98244   6.288   2.437   1.085 -4.0333 -2.5511  0.3333
  712MOL0     H98245   6.263   2.451   1.248 -2.8626 -1.6225 -1.5792
  712MOL0     H98246   6.536   2.392   1.138 -1.5460  0.4392 -1.5287
  712MOL0     H98247   6.493   2.397   1.308 -0.0495  1.2168  1.4152
  712MOL0     H98248   6.495   2.647   1.151  0.4642 -0.8942 -0.1442
  712MOL0     H98249   6.436   2.634   1.316  1.9537  0.3076  1.9141
  712MOL0     H98250   6.723   2.603   1.220  0.6238  1.4972  0.8795
  712MOL0     H98251   6.684   2.556   1.390  1.1574 -1.1232 -0.3326
  712MOL0     H98252   6.651   2.967   1.421  5.6504  0.4252 -1.0150
  712MOL0     H98253   6.075   2.381   1.137  1.5024 -0.5348  0.9040
  712MOL0     H98254   5.865   2.427   1.033  0.2324  0.4473 -1.5762
  712MOL0     H98255   5.821   2.333   0.899  0.7805 -1.2655  0.3149
  712MOL0     H98256   5.801   2.270   1.075 -1.0148  1.4903  0.8145
  713MOL0     O98257   9.054   9.185   4.253 -0.0258  0.3230  0.4169
  713MOL0     C98258   9.027   9.068   4.276  0.5252 -0.0658 -0.1252
  713MOL0     O98259   9.122   8.975   4.323  0.1169  0.3369 -0.1439
  713MOL0     C98260   9.246   9.017   4.363 -0.1295  0.3590  1.2517
  713MOL0     C98261   9.364   8.952   4.322  0.7437  0.4075 -0.5411
  713MOL0     C98262   9.491   8.987   4.373 -1.4063  0.2935  0.4730
  713MOL0     C98263   9.504   9.104   4.450 -1.0805  0.5038 -0.0833
  713MOL0     O98264   9.628   9.149   4.464 -0.7004  0.6872  0.5454
  713MOL0     C98265   9.655   9.290   4.454  0.0091 -0.1175 -0.2186
  713MOL0     C98266   9.796   9.321   4.481  0.3355 -0.4897  1.1756
  713MOL0     C98267   9.890   9.234   4.390 -0.1937 -0.5082 -0.2147
  713MOL0     C98268   9.848   9.220   4.244  0.4798 -1.1505  0.0194
  713MOL0     C98269   9.943   9.152   4.142  0.3727 -0.2361  0.6631
  713MOL0     C98270   9.979   9.008   4.168  0.0517 -0.4180  0.3854
  713MOL0     C98271  10.091   8.966   4.072 -0.1822 -1.0632 -0.9271
  713MOL0     C98272  10.124   8.821   4.097 -0.0265  0.0154  0.0062
  713MOL0     N98273  10.179   8.789   4.225  0.5806  0.3280  0.4586
  713MOL0     C98274  10.282   8.846   4.291 -0.0867 -0.2749 -0.5213
  713MOL0     C98275  10.288   8.786   4.412  0.7146  0.9132  0.9219
  713MOL0     C98276  10.382   8.816   4.527  0.5760  0.4925 -0.2018
  713MOL0     C98277  10.517   8.755   4.496 -0.7497 -1.0544  0.0407
  713MOL0     C98278  10.596   8.728   4.632 -0.2077  0.9537  0.3504
  713MOL0     C98279  10.744   8.763   4.629 -0.3587 -0.3176 -0.8193
  713MOL0     O98280  10.765   8.908   4.596 -0.2631  0.0206  0.5137
  713MOL0     C98281  10.730   8.994   4.695 -0.3457  1.0345  0.0842
  713MOL0     C98282  10.695   8.964   4.831 -0.5154 -0.1202  1.0721
  713MOL0     C98283  10.645   9.068   4.915 -0.0937  0.0745  0.5223
  713MOL0     C98284  10.616   9.012   5.057  0.0219  0.3477  0.4985
  713MOL0     C98285  10.678   9.205   4.884 -0.5531 -0.0829 -0.7502
  713MOL0     C98286  10.660   9.317   4.981 -0.7226 -0.1687 -0.0918
  713MOL0     O98287  10.709   9.303   5.110 -0.7827 -0.8725  0.5078
  713MOL0     C98288  10.655   9.391   5.193  0.2865 -0.5955  0.8147
  713MOL0     C98289  10.550   9.359   5.267  0.4474 -0.0017 -0.7035
  713MOL0     C98290  10.483   9.437   5.357  0.4043 -0.3844  0.6951
  713MOL0     C98291  10.531   9.573   5.370  0.1789  0.2775  0.2002
  713MOL0     O98292  10.456   9.658   5.438 -0.8309 -0.3010 -0.1216
  713MOL0     C98293  10.382   9.767   5.366 -1.2618  0.2692 -0.0649
  713MOL0     C98294  10.238   9.774   5.416 -0.5395  0.6949 -0.4033
  713MOL0     C98295  10.144   9.666   5.348  0.7518 -0.2843  0.0737
  713MOL0     C98296  10.125   9.680   5.200  0.3325 -0.0640  1.2326
  713MOL0     C98297  10.022   9.583   5.134  0.8461 -1.0267 -0.5311
  713MOL0     C98298  10.001   9.603   4.986  0.2659 -0.4162 -0.4772
  713MOL0     C98299   9.883   9.530   4.936 -0.0251  0.4955  0.1953
  713MOL0     C98300   9.866   9.534   4.778 -0.5422  0.7684 -0.7622
  713MOL0    Cl98301   9.838   9.690   4.705  0.1804 -0.2773 -0.4834
  713MOL0     C98302  10.640   9.615   5.288 -0.1195 -0.2739  0.2740
  713MOL0     C98303  10.701   9.526   5.210 -0.0005  0.6165 -0.1695
  713MOL0     O98304  10.596   9.417   4.939  0.0476 -0.8166 -0.8257
  713MOL0     C98305  10.703   9.232   4.744 -0.7334 -0.6141 -0.3247
  713MOL0     C98306  10.733   9.124   4.657 -1.0831  0.6782  0.3303
  713MOL0     N98307  10.193   8.687   4.412 -0.4366  0.4390 -0.1537
  713MOL0     N98308  10.129   8.689   4.301 -0.2001  0.6984 -0.3313
  713MOL0     C98309   9.386   9.174   4.487  0.6272 -0.5299 -0.1290
  713MOL0     C98310   9.258   9.130   4.445 -0.7087 -0.4569 -0.6937
  713MOL0     C98311   8.880   9.023   4.254  0.6476  0.5478  0.2430
  713MOL0     C98312   8.840   8.891   4.295  0.3154  0.0967 -0.2951
  713MOL0     C98313   8.708   8.840   4.294 -0.3804 -0.7819 -0.2369
  713MOL0     C98314   8.604   8.926   4.259 -0.1681  0.1221  0.2670
  713MOL0     O98315   8.475   8.885   4.257  0.9842  0.0862  0.4888
  713MOL0     C98316   8.444   8.751   4.298  1.2336 -0.7138 -0.1375
  713MOL0     C98317   8.305   8.723   4.265 -0.7307  0.2305 -0.3978
  713MOL0     C98318   8.191   8.821   4.294  0.1457  0.5574 -1.4681
  713MOL0     C98319   8.076   8.802   4.188  0.1539 -1.1139 -0.7705
  713MOL0     C98320   7.939   8.838   4.239 -0.7522 -1.0118 -0.0066
  713MOL0     C98321   7.831   8.865   4.294 -0.3655 -0.1558 -0.0112
  713MOL0     C98322   8.639   9.057   4.217  0.2446  0.4974  0.7935
  713MOL0     C98323   8.772   9.108   4.220 -0.6077 -0.8723  1.0795
  713MOL0     C98324   8.789   9.259   4.179 -0.2697  0.4930  0.0145
  713MOL0     H98325   9.367   8.871   4.250  4.4357 -0.2692  0.1705
  713MOL0     H98326   9.579   8.927   4.352  0.2260  1.3406  3.6072
  713MOL0     H98327   9.597   9.338   4.533 -1.3025  0.9915 -1.7787
  713MOL0     H98328   9.622   9.331   4.358  1.6397 -1.7324 -1.5585
  713MOL0     H98329   9.800   9.426   4.449 -1.5040 -1.1929 -1.7435
  713MOL0     H98330   9.828   9.300   4.583  1.7682 -1.8716  0.4780
  713MOL0     H98331   9.994   9.269   4.391 -0.0170 -0.8625 -2.0303
  713MOL0     H98332   9.906   9.135   4.432  2.4570  0.9535  2.6848
  713MOL0     H98333   9.751   9.171   4.237 -1.2729  1.9950  0.4427
  713MOL0     H98334   9.835   9.324   4.211 -0.1725 -0.4773  2.1832
  713MOL0     H98335  10.035   9.211   4.146 -1.5318  3.1459  6.3104
  713MOL0     H98336   9.896   9.157   4.044  1.1463  4.4349  0.2956
  713MOL0     H98337  10.012   8.999   4.271 -0.8235  0.9546  0.8178
  713MOL0     H98338   9.891   8.943   4.174  0.9479 -1.6133  0.9333
  713MOL0     H98339  10.176   9.036   4.074 -2.7133  2.2144  0.3659
  713MOL0     H98340  10.051   8.974   3.971  1.9889 -1.1968 -1.8567
  713MOL0     H98341  10.027   8.770   4.098  0.3677 -0.8533  2.3407
  713MOL0     H98342  10.185   8.783   4.015 -1.4640 -1.9959 -0.2267
  713MOL0     H98343  10.339   8.932   4.258  0.3649  0.6408  2.3469
  713MOL0     H98344  10.330   8.769   4.611 -3.0238  2.7513 -0.9463
  713MOL0     H98345  10.384   8.925   4.537 -4.0634  1.4325 -4.7161
  713MOL0     H98346  10.493   8.657   4.456 -1.4525 -1.0483  0.4367
  713MOL0     H98347  10.568   8.810   4.415 -2.7241 -1.6491 -1.7101
  713MOL0     H98348  10.552   8.781   4.717 -0.9648  2.6053 -1.0175
  713MOL0     H98349  10.582   8.622   4.656  0.7589  0.8800  0.6186
  713MOL0     H98350  10.778   8.734   4.729 -2.7500  0.6608  0.3419
  713MOL0     H98351  10.779   8.686   4.559 -2.4741 -3.3767  1.2288
  713MOL0     H98352  10.711   8.862   4.864  1.5305 -0.1347  0.1631
  713MOL0     H98353  10.558   9.081   5.119  0.5753 -2.2857  4.3193
  713MOL0     H98354  10.705   8.998   5.120 -1.6023 -1.8991  2.4610
  713MOL0     H98355  10.564   8.916   5.054 -0.7770  0.8004 -2.5255
  713MOL0     H98356  10.509   9.260   5.254  0.1164  0.2009 -1.2306
  713MOL0     H98357  10.395   9.403   5.410  1.4631 -3.9916  0.4433
  713MOL0     H98358  10.423   9.866   5.388 -1.3535  0.1288  0.7840
  713MOL0     H98359  10.391   9.754   5.258 -0.0521  0.0584  0.0476
  713MOL0     H98360  10.239   9.765   5.526 -1.7142  0.3091 -0.4125
  713MOL0     H98361  10.197   9.871   5.388 -3.3294 -0.4693 -0.6683
  713MOL0     H98362  10.043   9.672   5.390 -0.7731 -2.1987 -3.0118
  713MOL0     H98363  10.181   9.565   5.369 -0.7764 -0.8532  0.0806
  713MOL0     H98364  10.221   9.650   5.156  0.5320  2.1380  0.0204
  713MOL0     H98365  10.099   9.782   5.169  2.3515  0.5434  1.3379
  713MOL0     H98366  10.056   9.479   5.142  0.1245 -1.5760 -3.2286
  713MOL0     H98367   9.929   9.592   5.192  0.9662 -2.5366 -0.0599
  713MOL0     H98368  10.089   9.570   4.931 -1.0609 -2.3022 -1.6168
  713MOL0     H98369   9.982   9.708   4.962 -0.3484 -0.4618 -0.2078
  713MOL0     H98370   9.786   9.568   4.968 -0.7370 -2.7628  2.3971
  713MOL0     H98371   9.903   9.428   4.968  0.6140 -0.7739 -3.6865
  713MOL0     H98372   9.797   9.455   4.750 -1.7587  1.0395  1.2323
  713MOL0     H98373   9.965   9.515   4.736  0.7454  4.1858  0.3624
  713MOL0     H98374  10.677   9.717   5.294  0.1743 -0.3704  0.0776
  713MOL0     H98375  10.796   9.541   5.159  0.3588  0.3942  0.4231
  713MOL0     H98376  10.713   9.336   4.713 -4.8190  0.8456  2.4441
  713MOL0     H98377  10.760   9.134   4.553  0.7756 -3.1853  0.2579
  713MOL0     H98378   9.395   9.272   4.533  2.6485 -0.3406 -0.8078
  713MOL0     H98379   9.169   9.181   4.479 -0.3690  0.5892 -1.3320
  713MOL0     H98380   8.920   8.826   4.328 -0.2056 -1.6413 -2.2519
  713MOL0     H98381   8.703   8.733   4.313 -0.7686 -0.5307  1.1835
  713MOL0     H98382   8.501   8.672   4.248  1.5702 -0.4111 -0.2362
  713MOL0     H98383   8.441   8.740   4.407  0.2887 -1.5289 -0.2313
  713MOL0     H98384   8.279   8.630   4.316 -0.4560 -0.0222 -0.7133
  713MOL0     H98385   8.299   8.697   4.159  0.0190 -3.9224  0.4134
  713MOL0     H98386   8.164   8.788   4.395  0.9464  1.6737 -0.8646
  713MOL0     H98387   8.212   8.928   4.299 -1.8601  1.0572 -2.9933
  713MOL0     H98388   8.074   8.694   4.173 -0.5636 -1.0769 -0.9797
  713MOL0     H98389   8.093   8.851   4.091 -2.4816 -1.0633 -1.2799
  713MOL0     H98390   7.740   8.905   4.334 -0.3617 -0.6207  0.4726
  713MOL0     H98391   8.556   9.118   4.181 -1.2570 -1.0682  1.4607
  713MOL0     H98392   8.868   9.267   4.103  1.8342  2.3905  2.2067
  713MOL0     H98393   8.699   9.312   4.148 -1.1845 -1.3783 -0.6425
  713MOL0     H98394   8.833   9.321   4.258  1.2241 -1.5870  0.8982
  714MOL0     O98395  11.477   8.174   5.111  0.2593 -0.5498 -0.0766
  714MOL0     C98396  11.479   8.063   5.061 -0.0095 -0.4833  0.8753
  714MOL0     O98397  11.387   7.966   5.088 -0.0721 -0.2671 -0.6637
  714MOL0     C98398  11.283   8.004   5.175 -0.0316 -0.7787 -0.5791
  714MOL0     C98399  11.296   8.021   5.315 -0.3085  0.3979  0.0118
  714MOL0     C98400  11.182   8.032   5.395 -1.2294  0.0291  0.6182
  714MOL0     C98401  11.053   8.038   5.341  0.3255  0.2912  0.4353
  714MOL0     O98402  10.940   8.044   5.427  0.1046  0.0571  0.6118
  714MOL0     C98403  10.806   8.003   5.377 -1.1615 -0.3545  0.1914
  714MOL0     C98404  10.765   7.882   5.457  0.1950  0.2645 -0.0264
  714MOL0     C98405  10.860   7.756   5.444 -0.6725  0.4016 -0.4649
  714MOL0     C98406  10.803   7.632   5.504  0.6365 -0.6639  0.0771
  714MOL0     C98407  10.883   7.507   5.491 -0.7974  0.8201  0.0205
  714MOL0     C98408  10.816   7.363   5.524 -0.7553 -0.3291 -0.0965
  714MOL0     C98409  10.708   7.340   5.416  0.1952 -0.4669  0.8646
  714MOL0     C98410  10.647   7.214   5.411  1.2219 -0.2341  0.4167
  714MOL0     N98411  10.542   7.204   5.309  0.5854 -0.7180 -0.1308
  714MOL0     C98412  10.410   7.204   5.341  0.5152 -0.0129 -0.7937
  714MOL0     C98413  10.348   7.242   5.223  0.4684 -0.4148 -1.1177
  714MOL0     C98414  10.203   7.279   5.220  0.8040  0.3936  0.0257
  714MOL0     C98415  10.175   7.425   5.191  0.4604 -0.8712 -0.4511
  714MOL0     C98416  10.033   7.468   5.186 -0.3171  0.9265 -0.2436
  714MOL0     C98417   9.977   7.445   5.047 -0.5206 -0.3900 -0.5499
  714MOL0     O98418   9.858   7.521   5.026  0.2856 -0.0782 -0.2928
  714MOL0     C98419   9.863   7.659   5.002 -0.0599  0.2813 -0.5096
  714MOL0     C98420   9.978   7.741   5.004 -0.0124 -0.0235 -0.1518
  714MOL0     C98421   9.977   7.884   4.993  0.3563  0.8320  0.5292
  714MOL0     C98422  10.107   7.966   5.001 -0.2017  0.0094 -0.5680
  714MOL0     C98423   9.851   7.940   4.957  0.2808 -0.0457  0.3862
  714MOL0     C98424   9.831   8.080   4.910  0.0391  0.8579 -0.3060
  714MOL0     O98425   9.747   8.094   4.799 -0.1102  0.4359  0.0421
  714MOL0     C98426   9.743   8.224   4.741 -0.5111 -0.1883 -1.0537
  714MOL0     C98427   9.857   8.291   4.687 -0.2791 -0.0520  0.6977
  714MOL0     C98428   9.843   8.409   4.619  0.0758  0.3075 -0.8141
  714MOL0     C98429   9.713   8.467   4.604  0.1187 -0.5050 -1.1106
  714MOL0     O98430   9.676   8.576   4.524  0.0227 -0.4358 -0.0673
  714MOL0     C98431   9.782   8.670   4.514 -0.1281 -0.1430 -0.0001
  714MOL0     C98432   9.814   8.750   4.639 -0.1854 -0.9834 -0.6106
  714MOL0     C98433   9.932   8.847   4.603  1.3446 -0.8289 -0.3079
  714MOL0     C98434   9.926   8.970   4.692 -0.0269  0.1311 -0.2274
  714MOL0     C98435  10.061   9.040   4.694  0.0891 -0.5569  0.1358
  714MOL0     C98436  10.106   9.106   4.825  1.1312  0.3576 -0.8909
  714MOL0     C98437  10.240   9.164   4.805  0.3831  0.0993  0.1027
  714MOL0     C98438  10.302   9.253   4.913  0.4805 -0.6172  0.8302
  714MOL0    Cl98439  10.308   9.177   5.073 -0.7781  0.5312  0.0722
  714MOL0     C98440   9.599   8.401   4.650 -0.3681 -0.2096  0.0875
  714MOL0     C98441   9.622   8.283   4.721 -0.4004 -0.0632 -0.0967
  714MOL0     O98442   9.889   8.174   4.961  0.4489 -0.3122  0.3953
  714MOL0     C98443   9.741   7.858   4.960  0.8613  0.7177  0.1009
  714MOL0     C98444   9.743   7.726   4.996  0.5044  0.3426  1.5850
  714MOL0     N98445  10.442   7.243   5.124  0.4603 -0.1035  0.0877
  714MOL0     N98446  10.559   7.230   5.174  0.3037 -0.5427  0.6011
  714MOL0     C98447  11.051   8.054   5.204 -0.4051  0.1382 -0.3704
  714MOL0     C98448  11.159   8.022   5.123  0.7167 -0.9320 -0.0335
  714MOL0     C98449  11.577   8.037   4.952 -0.6371  0.2863 -0.1302
  714MOL0     C98450  11.563   7.919   4.875  0.3274  0.1725 -0.2711
  714MOL0     C98451  11.629   7.888   4.767 -1.2020 -0.3157  0.6857
  714MOL0     C98452  11.715   7.988   4.721  0.0293  0.6656 -0.1880
  714MOL0     O98453  11.779   7.956   4.605 -0.3839 -0.6012 -0.7044
  714MOL0     C98454  11.714   8.025   4.495  0.3828 -0.4556 -0.3329
  714MOL0     C98455  11.630   7.935   4.404 -0.4574  0.3400 -0.2434
  714MOL0     C98456  11.719   7.832   4.333 -0.3582  0.1286  0.0668
  714MOL0     C98457  11.644   7.760   4.225  0.2429 -0.2777  0.1722
  714MOL0     C98458  11.607   7.855   4.116 -0.3684 -0.2170  0.3848
  714MOL0     C98459  11.556   7.915   4.017  0.0157  0.0073 -0.4294
  714MOL0     C98460  11.745   8.095   4.797 -1.2057 -0.2479  0.0960
  714MOL0     C98461  11.679   8.126   4.912 -0.6608  0.1917 -0.5380
  714MOL0     C98462  11.724   8.250   4.981 -0.0081  0.2776  1.1865
  714MOL0     H98463  11.396   8.034   5.355  1.4051  0.7476 -3.9839
  714MOL0     H98464  11.184   8.030   5.504 -2.4033 -0.2026  0.6545
  714MOL0     H98465  10.815   7.972   5.272  1.9633  0.1461  0.2271
  714MOL0     H98466  10.728   8.080   5.384 -1.3017 -0.6099  1.6936
  714MOL0     H98467  10.750   7.922   5.557  0.6293  0.3588  0.0007
  714MOL0     H98468  10.664   7.853   5.426 -0.1308 -0.3687  1.5265
  714MOL0     H98469  10.876   7.741   5.336 -2.7074  1.8246 -1.0418
  714MOL0     H98470  10.956   7.780   5.491 -0.1158 -0.8582 -0.9280
  714MOL0     H98471  10.780   7.648   5.610 -4.3495 -0.1822 -0.8341
  714MOL0     H98472  10.709   7.613   5.451 -0.4401  1.1313  1.2294
  714MOL0     H98473  10.957   7.515   5.571  1.2703  0.9698 -1.8049
  714MOL0     H98474  10.928   7.504   5.391 -1.5024 -0.4333 -0.2739
  714MOL0     H98475  10.897   7.290   5.514  0.9310  1.0891  2.3019
  714MOL0     H98476  10.774   7.359   5.625 -1.3325  1.3093 -0.2406
  714MOL0     H98477  10.749   7.363   5.318 -1.5813  3.2478  0.8208
  714MOL0     H98478  10.629   7.416   5.423  0.7366  0.3556 -1.1364
  714MOL0     H98479  10.734   7.152   5.388  0.9460  0.0579 -1.5714
  714MOL0     H98480  10.599   7.183   5.504 -2.3341 -1.6249 -1.6699
  714MOL0     H98481  10.370   7.195   5.442 -1.4479  1.5049 -1.3500
  714MOL0     H98482  10.157   7.259   5.317  1.7839  0.6060  0.5462
  714MOL0     H98483  10.152   7.212   5.151 -0.4904  0.4957  0.8518
  714MOL0     H98484  10.226   7.473   5.274  5.7347 -3.2147 -1.9333
  714MOL0     H98485  10.225   7.457   5.099  0.8025  0.9169  0.2988
  714MOL0     H98486   9.979   7.397   5.249  1.1946  1.1554  1.3718
  714MOL0     H98487  10.013   7.569   5.225 -3.1432  0.7687 -1.0754
  714MOL0     H98488  10.052   7.470   4.971 -0.0412  0.4024  0.1513
  714MOL0     H98489   9.955   7.339   5.033 -2.1435 -0.0477 -0.8067
  714MOL0     H98490  10.074   7.692   5.011  1.2609  2.4099  0.5187
  714MOL0     H98491  10.139   8.004   4.903  1.3073  0.0825 -0.0733
  714MOL0     H98492  10.174   7.896   5.051  0.6596  0.2408 -1.3696
  714MOL0     H98493  10.095   8.048   5.072 -1.7986 -0.9297  0.3104
  714MOL0     H98494   9.955   8.244   4.695 -0.5466 -0.7830 -0.1577
  714MOL0     H98495   9.927   8.454   4.566  0.1016  1.8365  0.4405
  714MOL0     H98496   9.868   8.622   4.468 -0.4021 -0.6136 -0.0256
  714MOL0     H98497   9.751   8.745   4.440  0.7539  2.2823  1.9278
  714MOL0     H98498   9.723   8.807   4.658 -0.4722 -2.0885  1.6788
  714MOL0     H98499   9.839   8.696   4.731 -0.8619  1.3990  1.0469
  714MOL0     H98500   9.910   8.882   4.502  0.1376 -3.5909 -1.0969
  714MOL0     H98501  10.028   8.795   4.608  1.4272 -0.5892  1.0644
  714MOL0     H98502   9.898   8.937   4.793 -0.8021  1.3567 -0.0107
  714MOL0     H98503   9.842   9.038   4.670 -1.4365 -0.3628  3.0576
  714MOL0     H98504  10.140   8.972   4.660 -0.0592  0.3393 -2.1934
  714MOL0     H98505  10.061   9.119   4.618  2.8670 -1.6394 -1.1244
  714MOL0     H98506  10.107   9.031   4.904  0.6887  0.6001 -0.6524
  714MOL0     H98507  10.032   9.182   4.850 -0.6967 -1.9173  1.1028
  714MOL0     H98508  10.245   9.229   4.718  1.8103  2.0653  1.5665
  714MOL0     H98509  10.305   9.081   4.776  0.4864  0.4325 -0.6435
  714MOL0     H98510  10.247   9.347   4.910 -2.2298 -2.0956  0.5458
  714MOL0     H98511  10.404   9.264   4.877 -0.6688  1.5457 -2.1455
  714MOL0     H98512   9.496   8.423   4.624  0.0211  0.6449 -0.7829
  714MOL0     H98513   9.537   8.217   4.732  0.5976 -1.6382 -1.4006
  714MOL0     H98514   9.647   7.914   4.957  0.0159 -0.4286  2.4220
  714MOL0     H98515   9.647   7.675   5.003  0.4180  0.5425  1.8666
  714MOL0     H98516  10.969   8.090   5.143  0.4496  4.5324  0.7172
  714MOL0     H98517  11.147   8.019   5.015  1.8379 -0.7628 -0.1706
  714MOL0     H98518  11.491   7.843   4.903  0.1174 -1.8713 -5.4016
  714MOL0     H98519  11.639   7.792   4.718  2.4429  0.8287 -1.1869
  714MOL0     H98520  11.651   8.108   4.528 -2.2350 -2.8386  1.0283
  714MOL0     H98521  11.787   8.073   4.430 -1.9295  0.5106 -2.3630
  714MOL0     H98522  11.586   8.002   4.329  0.5425  1.2512 -0.0385
  714MOL0     H98523  11.552   7.878   4.457 -0.0222 -3.0177 -2.8901
  714MOL0     H98524  11.815   7.860   4.290  1.1548 -3.3666  0.7894
  714MOL0     H98525  11.748   7.760   4.411 -1.6556  0.3696  0.7957
  714MOL0     H98526  11.554   7.720   4.271  1.3689 -0.8664  1.9544
  714MOL0     H98527  11.703   7.673   4.192 -2.5553 -2.7760  1.3234
  714MOL0     H98528  11.493   7.962   3.944  2.4746  0.9704 -2.0378
  714MOL0     H98529  11.822   8.162   4.761  0.2731 -1.1738  1.4278
  714MOL0     H98530  11.719   8.241   5.090 -4.7670  0.8917  1.2176
  714MOL0     H98531  11.831   8.266   4.967 -0.3567  0.9170 -1.0478
  714MOL0     H98532  11.668   8.334   4.939  2.1064  1.1007 -0.1155
  715MOL0     O98533  10.941   4.378   1.421  0.0072 -0.5563 -0.5898
  715MOL0     C98534  10.970   4.290   1.352 -1.0292  0.1839  0.5995
  715MOL0     O98535  10.934   4.276   1.222  1.3100  0.4491  0.0661
  715MOL0     C98536  10.884   4.387   1.149 -0.3198 -0.2757  1.0359
  715MOL0     C98537  10.776   4.372   1.063  0.2646  0.2947 -0.6768
  715MOL0     C98538  10.731   4.472   0.982  1.0086  0.4858  0.5715
  715MOL0     C98539  10.796   4.592   0.981 -0.5972  0.2520  0.4933
  715MOL0     O98540  10.754   4.691   0.893 -0.4690 -0.2240 -0.3370
  715MOL0     C98541  10.813   4.821   0.889  0.2878  0.1830  0.2008
  715MOL0     C98542  10.762   4.876   0.753  0.4715 -1.1033 -0.9588
  715MOL0     C98543  10.874   4.841   0.643  0.4917  0.0396  0.5580
  715MOL0     C98544  10.807   4.857   0.503 -0.0836  0.1768 -0.0983
  715MOL0     C98545  10.882   4.842   0.372 -0.0134 -0.3676 -0.0448
  715MOL0     C98546  10.787   4.836   0.247 -0.0153 -0.5472  0.2455
  715MOL0     C98547  10.854   4.897   0.125  0.2646  0.1141  0.6075
  715MOL0     C98548  10.759   4.908   0.005  0.0185 -0.3824 -0.2336
  715MOL0     N98549  10.816   5.004  -0.096 -0.3819  0.0886  0.3533
  715MOL0     C98550  10.880   4.968  -0.211  0.0170  0.8544  0.3656
  715MOL0     C98551  10.906   5.083  -0.279 -0.0536  1.0716 -0.8688
  715MOL0     C98552  10.982   5.076  -0.410  0.6258  0.3066 -0.3999
  715MOL0     C98553  11.119   5.029  -0.363 -0.0074  0.0467  0.2467
  715MOL0     C98554  11.221   5.063  -0.474 -0.1061 -0.2810 -0.1193
  715MOL0     C98555  11.279   4.945  -0.565 -0.4216 -0.1111 -0.5045
  715MOL0     O98556  11.381   4.877  -0.491  0.4462 -0.6699  0.4745
  715MOL0     C98557  11.350   4.773  -0.413 -0.6270 -0.6893  0.0616
  715MOL0     C98558  11.311   4.653  -0.460  0.5044 -0.5328 -0.8169
  715MOL0     C98559  11.292   4.544  -0.384 -0.6013  0.3014  0.2112
  715MOL0     C98560  11.252   4.420  -0.456  0.0361  0.2046  0.5778
  715MOL0     C98561  11.311   4.547  -0.242 -0.4148 -0.7257 -0.6827
  715MOL0     C98562  11.311   4.421  -0.161 -0.1527 -0.6664  0.6209
  715MOL0     O98563  11.266   4.432  -0.039 -0.7741 -0.3531 -0.3764
  715MOL0     C98564  11.266   4.309   0.029 -1.0639 -0.2439 -0.7218
  715MOL0     C98565  11.364   4.273   0.111 -0.3874 -0.0233  0.2778
  715MOL0     C98566  11.340   4.171   0.199 -0.4006  0.4525  0.9073
  715MOL0     C98567  11.228   4.086   0.185  0.2118  0.2066  0.1349
  715MOL0     O98568  11.216   3.985   0.276 -0.0249 -1.2202 -0.5875
  715MOL0     C98569  11.101   3.993   0.375 -0.2167  0.2788  0.0868
  715MOL0     C98570  11.129   3.873   0.469 -0.4238  0.3171 -0.2536
  715MOL0     C98571  11.007   3.840   0.545  0.1925 -0.3320 -0.0054
  715MOL0     C98572  11.027   3.697   0.589  0.0933  0.3026 -0.0142
  715MOL0     C98573  10.940   3.654   0.704  0.4387 -0.4390 -0.3816
  715MOL0     C98574  10.785   3.654   0.670 -0.3297 -0.4664 -1.0240
  715MOL0     C98575  10.749   3.577   0.550  0.5289  0.6167  0.1038
  715MOL0     C98576  10.589   3.590   0.534 -1.4418 -0.2344  0.6588
  715MOL0    Cl98577  10.542   3.762   0.534  0.2242 -0.1199 -0.1820
  715MOL0     C98578  11.137   4.114   0.085  0.3018  0.6606  0.8264
  715MOL0     C98579  11.148   4.230   0.012 -0.1933  0.4897 -0.4352
  715MOL0     O98580  11.367   4.327  -0.208  0.1576  1.1123 -0.8293
  715MOL0     C98581  11.357   4.680  -0.194 -0.4293 -0.4054 -1.6389
  715MOL0     C98582  11.368   4.794  -0.271  0.7019  0.0813 -0.4948
  715MOL0     N98583  10.861   5.185  -0.197  0.1994  0.4012 -0.3864
  715MOL0     N98584  10.792   5.132  -0.096  0.2613 -1.1807 -0.2532
  715MOL0     C98585  10.908   4.606   1.064  1.0013  0.0441  0.1209
  715MOL0     C98586  10.951   4.509   1.151  0.1362  0.1364 -0.2282
  715MOL0     C98587  11.041   4.171   1.410 -0.3263 -0.1477  0.5965
  715MOL0     C98588  11.009   4.045   1.357  0.6919  0.2117 -1.0237
  715MOL0     C98589  11.076   3.933   1.401  0.0966  1.1749  0.0362
  715MOL0     C98590  11.174   3.929   1.506  0.5427  0.2168  0.3842
  715MOL0     O98591  11.237   3.824   1.568  0.2516 -0.1137 -0.2211
  715MOL0     C98592  11.195   3.690   1.539  0.0640  0.5445  0.2068
  715MOL0     C98593  11.272   3.592   1.619  0.4844 -0.0096 -0.6403
  715MOL0     C98594  11.261   3.445   1.586  0.3880  0.0792 -0.7008
  715MOL0     C98595  11.325   3.375   1.706 -0.2148  0.4399 -0.1934
  715MOL0     C98596  11.463   3.337   1.686  0.3421  0.0542 -0.0676
  715MOL0     C98597  11.574   3.295   1.671  0.0359 -0.1680  0.1559
  715MOL0     C98598  11.203   4.056   1.560  0.3418 -0.1896 -1.4490
  715MOL0     C98599  11.137   4.173   1.517 -0.6045 -0.0139 -0.2550
  715MOL0     C98600  11.181   4.304   1.578 -0.2841  0.3388  1.0043
  715MOL0     H98601  10.721   4.279   1.077 -0.7317  0.9025 -0.4113
  715MOL0     H98602  10.639   4.446   0.930 -0.0903  4.5982  0.1125
  715MOL0     H98603  10.922   4.816   0.889  0.6945  4.3544  1.9586
  715MOL0     H98604  10.780   4.877   0.977 -0.6007 -1.5078  0.9764
  715MOL0     H98605  10.664   4.842   0.719  0.0148  1.5170 -2.4991
  715MOL0     H98606  10.757   4.985   0.765  0.6975 -0.7210 -3.7561
  715MOL0     H98607  10.950   4.916   0.664 -0.3096  1.3461 -0.9730
  715MOL0     H98608  10.929   4.747   0.649  1.2529 -0.0212 -3.9201
  715MOL0     H98609  10.727   4.782   0.511  0.1387 -0.0766 -0.2470
  715MOL0     H98610  10.766   4.958   0.500 -0.6545 -0.0283  0.4343
  715MOL0     H98611  10.934   4.745   0.377 -0.3648 -0.4972  3.0513
  715MOL0     H98612  10.953   4.924   0.359 -0.1497 -0.2443 -0.0015
  715MOL0     H98613  10.779   4.728   0.229 -1.3164 -0.8371  2.2604
  715MOL0     H98614  10.686   4.871   0.272 -0.8181 -2.1626 -0.5592
  715MOL0     H98615  10.943   4.841   0.095  0.1354  0.5904 -0.7099
  715MOL0     H98616  10.888   4.998   0.150  0.3488  0.4702 -0.8698
  715MOL0     H98617  10.767   4.813  -0.050  0.5795  0.7104 -2.1220
  715MOL0     H98618  10.658   4.935   0.038 -0.7274 -0.7679 -2.0968
  715MOL0     H98619  10.903   4.867  -0.245 -0.9253  0.3274  1.2296
  715MOL0     H98620  10.984   5.170  -0.466 -0.5646  0.5940  0.0123
  715MOL0     H98621  10.929   5.003  -0.472  0.7301  0.0016 -0.1340
  715MOL0     H98622  11.146   5.069  -0.265 -0.8165  0.4734  0.3033
  715MOL0     H98623  11.106   4.921  -0.358 -2.2114  0.2784  0.5984
  715MOL0     H98624  11.181   5.132  -0.549  1.2773 -2.5134 -3.1459
  715MOL0     H98625  11.298   5.124  -0.426  0.2435  0.9971 -2.1770
  715MOL0     H98626  11.197   4.881  -0.598 -1.6998  1.4208 -0.4188
  715MOL0     H98627  11.318   4.992  -0.656 -2.9855  3.4983  0.0657
  715MOL0     H98628  11.305   4.656  -0.569  3.0292  0.0836 -1.0073
  715MOL0     H98629  11.210   4.450  -0.553  0.6487 -0.7874 -0.0162
  715MOL0     H98630  11.172   4.367  -0.405  0.5851 -3.4890 -2.0252
  715MOL0     H98631  11.339   4.355  -0.468 -1.2589 -2.0102  2.4674
  715MOL0     H98632  11.456   4.329   0.127 -0.8796  1.3334 -1.3265
  715MOL0     H98633  11.419   4.147   0.269  0.1557  0.5010  0.3020
  715MOL0     H98634  11.108   4.087   0.429  2.0077  1.3644 -1.9316
  715MOL0     H98635  11.005   3.986   0.322  0.5539 -0.9325 -1.2364
  715MOL0     H98636  11.135   3.781   0.409  0.0055 -2.1726  3.3050
  715MOL0     H98637  11.220   3.871   0.530  0.1263 -3.6193 -0.9079
  715MOL0     H98638  10.921   3.831   0.478  1.5422 -0.9965 -1.7418
  715MOL0     H98639  10.988   3.904   0.631 -0.3734  2.4603 -2.0395
  715MOL0     H98640  11.131   3.688   0.623  0.0092 -0.2811  0.0956
  715MOL0     H98641  11.016   3.631   0.502 -0.1147  0.1091  0.1574
  715MOL0     H98642  10.986   3.561   0.739  0.4785  0.0765  1.0274
  715MOL0     H98643  10.950   3.717   0.793  0.8025 -1.3979  0.2795
  715MOL0     H98644  10.760   3.758   0.648  0.5005 -0.4721 -2.0901
  715MOL0     H98645  10.720   3.632   0.755  1.2996 -0.7171  0.1968
  715MOL0     H98646  10.780   3.473   0.567  1.3896  0.4619 -2.1030
  715MOL0     H98647  10.806   3.618   0.466  1.9753  0.0115  0.7586
  715MOL0     H98648  10.540   3.547   0.621 -3.6097  2.9390  1.1774
  715MOL0     H98649  10.537   3.561   0.443 -1.4373  3.7206 -0.8280
  715MOL0     H98650  11.044   4.058   0.089 -0.5005  1.9006  0.2283
  715MOL0     H98651  11.061   4.269  -0.038 -0.9334 -1.5222 -0.7910
  715MOL0     H98652  11.384   4.678  -0.089 -2.1479 -0.9985 -1.1727
  715MOL0     H98653  11.399   4.887  -0.225  2.6551 -1.1197  0.7092
  715MOL0     H98654  10.951   4.705   1.076 -1.0770  0.8070  2.0067
  715MOL0     H98655  11.031   4.531   1.221  1.5302 -1.8119 -1.1230
  715MOL0     H98656  10.942   4.028   1.273 -0.6045  0.4930 -0.0604
  715MOL0     H98657  11.070   3.847   1.336 -0.7416  1.3404 -0.1224
  715MOL0     H98658  11.088   3.671   1.533  0.3464 -1.2007  0.1557
  715MOL0     H98659  11.227   3.665   1.437 -2.6024 -1.2668 -0.2926
  715MOL0     H98660  11.243   3.613   1.722  0.9055  2.8771 -1.0087
  715MOL0     H98661  11.377   3.622   1.616  0.9893 -1.4357  1.0547
  715MOL0     H98662  11.155   3.419   1.575  1.1414 -2.5166 -3.3979
  715MOL0     H98663  11.314   3.410   1.496  2.3998  1.9209 -0.3171
  715MOL0     H98664  11.258   3.288   1.709  0.3695  0.0025  1.3090
  715MOL0     H98665  11.320   3.432   1.800  1.5972 -0.0483  0.2435
  715MOL0     H98666  11.672   3.258   1.650 -0.4409 -2.4699  1.5928
  715MOL0     H98667  11.271   4.056   1.645 -1.1534  0.7151 -0.1807
  715MOL0     H98668  11.290   4.296   1.588  0.0467 -1.2509 -2.4792
  715MOL0     H98669  11.154   4.399   1.532 -0.6343  0.8996  2.3269
  715MOL0     H98670  11.137   4.313   1.678  0.0940 -1.8981  1.4277
  716MOL0     O98671   3.896   2.698   7.558  0.6808  0.2942 -0.4280
  716MOL0     C98672   3.993   2.693   7.478  0.4920  0.1756 -0.0861
  716MOL0     O98673   3.993   2.619   7.365  0.5291 -0.1950  0.4132
  716MOL0     C98674   3.874   2.563   7.326  0.0864 -0.0744 -0.8569
  716MOL0     C98675   3.821   2.445   7.388 -0.0324 -0.0950 -0.1711
  716MOL0     C98676   3.699   2.398   7.346  1.2454 -0.3912 -0.1304
  716MOL0     C98677   3.623   2.465   7.250  0.0987  0.4129  0.1502
  716MOL0     O98678   3.511   2.416   7.186  1.3319 -0.4490 -0.3107
  716MOL0     C98679   3.452   2.285   7.229 -0.2229 -0.0327  0.1643
  716MOL0     C98680   3.354   2.238   7.128 -0.5470 -0.3479  0.2900
  716MOL0     C98681   3.431   2.207   6.998  0.1547  0.1797 -0.8126
  716MOL0     C98682   3.347   2.118   6.918  0.0545  0.3081 -0.7476
  716MOL0     C98683   3.394   2.111   6.777  0.0018 -0.0796  0.3007
  716MOL0     C98684   3.299   2.028   6.686  0.2088  0.4133 -0.3067
  716MOL0     C98685   3.330   2.037   6.541 -0.6918  0.8935  0.5214
  716MOL0     C98686   3.460   1.971   6.499  0.5100  0.2246 -0.4966
  716MOL0     N98687   3.473   1.825   6.538 -0.0957  0.1202 -0.8208
  716MOL0     C98688   3.448   1.720   6.454 -0.5979  0.8494 -0.1951
  716MOL0     C98689   3.490   1.611   6.527 -0.1848  0.3367 -0.1932
  716MOL0     C98690   3.493   1.474   6.474 -0.0011  0.8930  0.0161
  716MOL0     C98691   3.416   1.375   6.557  0.4364  0.4244 -0.1882
  716MOL0     C98692   3.418   1.228   6.526  0.5918  0.0312 -1.1907
  716MOL0     C98693   3.549   1.155   6.567 -0.4929 -0.0227 -0.0664
  716MOL0     O98694   3.665   1.207   6.488 -0.7558 -0.2355 -0.0645
  716MOL0     C98695   3.679   1.159   6.358  0.1907  0.1780  0.4977
  716MOL0     C98696   3.772   1.220   6.281 -0.0261  0.1577 -0.1644
  716MOL0     C98697   3.797   1.204   6.144 -0.9920 -0.3992  0.3134
  716MOL0     C98698   3.871   1.313   6.075 -0.2783 -0.6389  0.0802
  716MOL0     C98699   3.738   1.095   6.078  0.4656  0.4112 -0.7092
  716MOL0     C98700   3.754   1.049   5.935 -0.0794  0.4776 -0.0007
  716MOL0     O98701   3.718   0.919   5.904  0.3521 -0.3309  0.0667
  716MOL0     C98702   3.754   0.869   5.780  0.0104  0.0290 -0.0037
  716MOL0     C98703   3.672   0.797   5.705 -0.1013  0.6360 -0.3992
  716MOL0     C98704   3.710   0.749   5.582 -0.3099 -0.0349 -0.2953
  716MOL0     C98705   3.835   0.771   5.519 -0.3919 -0.2292  0.0753
  716MOL0     O98706   3.855   0.722   5.390  0.1439  0.1885  0.1727
  716MOL0     C98707   3.973   0.745   5.318  0.5330 -0.1619 -0.4092
  716MOL0     C98708   3.978   0.892   5.271  0.0206  0.3850 -0.4785
  716MOL0     C98709   4.132   0.914   5.232  0.4803 -0.1746 -0.8972
  716MOL0     C98710   4.174   1.053   5.278 -0.3518  0.5313 -0.1081
  716MOL0     C98711   4.321   1.080   5.293 -0.4853  0.5423 -0.0515
  716MOL0     C98712   4.358   1.183   5.402  0.4122  0.5189 -0.8477
  716MOL0     C98713   4.284   1.320   5.380  0.0858 -0.7809 -0.5091
  716MOL0     C98714   4.310   1.410   5.489  0.4218 -0.0240 -0.4927
  716MOL0    Cl98715   4.314   1.584   5.442  0.6169  0.2820  0.2557
  716MOL0     C98716   3.932   0.826   5.605  0.4940  0.6497 -0.5688
  716MOL0     C98717   3.888   0.878   5.730 -0.7547  0.2287  0.2055
  716MOL0     O98718   3.792   1.126   5.850  0.1061 -0.6199 -0.4180
  716MOL0     C98719   3.644   1.018   6.160  0.3999 -0.1852 -0.6001
  716MOL0     C98720   3.622   1.047   6.296  0.1870 -1.1478 -0.1346
  716MOL0     N98721   3.546   1.654   6.645  0.0337 -0.2398 -0.3841
  716MOL0     N98722   3.540   1.783   6.652 -0.0784  0.4594  0.0822
  716MOL0     C98723   3.676   2.578   7.188  0.1087 -0.7821 -0.5550
  716MOL0     C98724   3.803   2.619   7.221 -1.1842 -0.6915 -0.6232
  716MOL0     C98725   4.118   2.730   7.543  0.5328  0.7387  0.1868
  716MOL0     C98726   4.227   2.672   7.492 -0.6174 -0.0172  0.5658
  716MOL0     C98727   4.352   2.713   7.536  0.5485 -0.7471  0.2414
  716MOL0     C98728   4.376   2.793   7.646  1.1412  0.5276 -0.2577
  716MOL0     O98729   4.502   2.818   7.680  0.1375 -0.3498 -0.9127
  716MOL0     C98730   4.525   2.904   7.794 -0.4757 -0.6164  0.1243
  716MOL0     C98731   4.530   3.058   7.751  0.3662  0.3070 -0.4822
  716MOL0     C98732   4.553   3.143   7.876  0.1038 -0.8420  0.1358
  716MOL0     C98733   4.608   3.292   7.863 -0.3549  0.0828  0.0038
  716MOL0     C98734   4.733   3.279   7.789 -0.7569 -0.6176 -0.7945
  716MOL0     C98735   4.835   3.275   7.727  0.4244 -0.6411  0.0387
  716MOL0     C98736   4.260   2.839   7.709 -0.1959  0.2066  0.4039
  716MOL0     C98737   4.138   2.808   7.663 -0.6666  0.2482  0.1530
  716MOL0     C98738   4.032   2.864   7.749 -0.6194  0.0520  0.6141
  716MOL0     H98739   3.875   2.407   7.474  0.4832  1.7886  0.3789
  716MOL0     H98740   3.657   2.310   7.394 -1.1782  0.4098 -0.6141
  716MOL0     H98741   3.405   2.284   7.327  0.1685 -1.3597  0.3604
  716MOL0     H98742   3.537   2.217   7.235 -0.2678 -0.1410 -0.3663
  716MOL0     H98743   3.310   2.144   7.162 -0.6041 -0.2705  0.4296
  716MOL0     H98744   3.282   2.314   7.097  0.8760  1.5189  1.3237
  716MOL0     H98745   3.476   2.297   6.954  0.9514  1.8106  2.9452
  716MOL0     H98746   3.513   2.137   7.018 -0.0113 -0.6361 -2.7605
  716MOL0     H98747   3.344   2.015   6.955  0.7048  0.5430 -0.0265
  716MOL0     H98748   3.243   2.149   6.934  0.0612 -0.0962  0.1789
  716MOL0     H98749   3.495   2.069   6.773 -0.4095 -1.3071  1.9695
  716MOL0     H98750   3.399   2.212   6.734  3.3096  0.7533  2.2997
  716MOL0     H98751   3.267   1.928   6.716 -0.6980  0.5586 -0.7617
  716MOL0     H98752   3.200   2.074   6.685 -1.4594 -2.7180  2.6665
  716MOL0     H98753   3.341   2.142   6.513 -0.0906  0.1401 -2.3559
  716MOL0     H98754   3.251   1.995   6.479  1.0315 -3.1151  0.7161
  716MOL0     H98755   3.477   1.996   6.394  3.1531  2.8946  0.4241
  716MOL0     H98756   3.533   2.037   6.546 -3.0327  3.2974  1.2277
  716MOL0     H98757   3.399   1.719   6.357  1.1921 -0.4821 -1.1303
  716MOL0     H98758   3.594   1.432   6.465 -0.6684 -0.2953 -3.4636
  716MOL0     H98759   3.459   1.469   6.370 -3.0703  1.0686  0.9033
  716MOL0     H98760   3.440   1.378   6.663  0.5584 -1.6301 -0.1219
  716MOL0     H98761   3.309   1.393   6.545  1.0302  3.3790 -2.1693
  716MOL0     H98762   3.329   1.191   6.578  0.6659  1.2203 -0.1892
  716MOL0     H98763   3.405   1.232   6.417  1.5944  2.1599 -1.2839
  716MOL0     H98764   3.580   1.161   6.672  0.3046  1.3673 -0.3465
  716MOL0     H98765   3.541   1.048   6.545 -0.5979  0.2174 -1.2861
  716MOL0     H98766   3.826   1.305   6.321 -0.5775  0.6452 -0.4401
  716MOL0     H98767   3.796   1.374   6.024 -0.2356  0.1142  0.8946
  716MOL0     H98768   3.939   1.273   5.999  3.4160  2.6382  1.2903
  716MOL0     H98769   3.941   1.369   6.137  3.6753 -2.9396 -1.9166
  716MOL0     H98770   3.573   0.791   5.749  1.0630 -1.0450  2.2338
  716MOL0     H98771   3.629   0.710   5.520  0.7786  0.3287 -1.9913
  716MOL0     H98772   4.055   0.712   5.383 -0.5810 -0.3946  0.9065
  716MOL0     H98773   3.988   0.700   5.219 -0.1776 -0.0497 -0.5714
  716MOL0     H98774   3.932   0.896   5.171 -0.6836  1.4744 -0.1369
  716MOL0     H98775   3.940   0.955   5.352  2.4165 -0.5080  1.4528
  716MOL0     H98776   4.139   0.907   5.123 -0.1753  7.1536 -1.9369
  716MOL0     H98777   4.206   0.849   5.280  0.5372  0.2563 -0.4031
  716MOL0     H98778   4.122   1.070   5.373  1.1332  0.8221  0.6782
  716MOL0     H98779   4.134   1.122   5.203  0.5598  0.0230 -1.0803
  716MOL0     H98780   4.371   0.986   5.319 -1.9387 -0.8096 -1.8907
  716MOL0     H98781   4.365   1.099   5.195  2.0907  0.4431  1.0012
  716MOL0     H98782   4.467   1.191   5.401  0.3628  1.2307 -1.2476
  716MOL0     H98783   4.325   1.144   5.499  3.0617 -0.6074 -0.3110
  716MOL0     H98784   4.176   1.306   5.373 -0.1886  1.6346 -2.2803
  716MOL0     H98785   4.323   1.370   5.291  0.4757  2.6333  1.4280
  716MOL0     H98786   4.395   1.380   5.550 -0.2722 -1.7991 -0.3344
  716MOL0     H98787   4.220   1.398   5.550 -0.3410  2.0664 -1.0980
  716MOL0     H98788   4.037   0.839   5.580  0.3109  1.8868 -0.7297
  716MOL0     H98789   3.955   0.931   5.797 -0.8667  0.5880  0.0370
  716MOL0     H98790   3.596   0.930   6.118  0.9807 -0.9747  0.3536
  716MOL0     H98791   3.558   0.978   6.349  0.8584 -0.6647  1.3454
  716MOL0     H98792   3.622   2.635   7.113 -0.1872  0.1733  0.3542
  716MOL0     H98793   3.844   2.712   7.184 -3.7308 -0.3565 -2.9621
  716MOL0     H98794   4.243   2.599   7.414  1.2248 -0.2261  1.0867
  716MOL0     H98795   4.445   2.676   7.494  2.7251  2.5422  1.6745
  716MOL0     H98796   4.462   2.889   7.882  1.4103 -0.2513  1.6088
  716MOL0     H98797   4.624   2.881   7.833 -1.2682 -2.0734  1.3704
  716MOL0     H98798   4.432   3.083   7.708 -1.1533 -1.6347  1.6143
  716MOL0     H98799   4.613   3.073   7.682  2.8340 -0.0211  2.2041
  716MOL0     H98800   4.451   3.136   7.916  0.5448 -2.3871  1.0897
  716MOL0     H98801   4.610   3.088   7.952 -0.2642 -3.5783 -1.4532
  716MOL0     H98802   4.627   3.341   7.959 -1.2677  1.3507 -0.4334
  716MOL0     H98803   4.533   3.351   7.809  0.8904  0.8889 -0.8799
  716MOL0     H98804   4.922   3.270   7.665  0.3812  0.5609 -0.1562
  716MOL0     H98805   4.270   2.889   7.805 -0.6801  0.8907  0.1024
  716MOL0     H98806   3.981   2.789   7.811 -2.6285  0.3702 -0.5532
  716MOL0     H98807   4.077   2.939   7.815  2.8437 -3.9700  3.4096
  716MOL0     H98808   3.965   2.921   7.684  3.4281  0.6286 -3.5334
  717MOL0     O98809   3.639   0.928   8.722  0.0641 -0.2156  0.2395
  717MOL0     C98810   3.636   0.985   8.831 -0.3845 -0.0740 -0.3399
  717MOL0     O98811   3.552   1.087   8.860  0.6415  0.4104 -0.5707
  717MOL0     C98812   3.496   1.145   8.742  1.3328 -0.2554 -0.1431
  717MOL0     C98813   3.543   1.258   8.688 -0.4801  0.3121 -0.5952
  717MOL0     C98814   3.495   1.306   8.562  0.6085  0.1020  0.4290
  717MOL0     C98815   3.385   1.250   8.500 -0.4572 -0.3293 -1.1590
  717MOL0     O98816   3.347   1.310   8.386  0.1358 -0.0516  0.0215
  717MOL0     C98817   3.201   1.308   8.365 -1.3234  1.4813 -0.1577
  717MOL0     C98818   3.179   1.392   8.236 -0.4183 -0.5801  0.0717
  717MOL0     C98819   3.269   1.346   8.124 -0.1313 -0.3965 -0.3316
  717MOL0     C98820   3.209   1.225   8.057  0.0516  0.3856 -2.0850
  717MOL0     C98821   3.290   1.161   7.951  0.7761 -0.2008 -0.8468
  717MOL0     C98822   3.257   1.021   7.917 -0.0409 -0.4489  0.9678
  717MOL0     C98823   3.263   0.997   7.758  0.4806  0.0903  0.5448
  717MOL0     C98824   3.401   1.006   7.685 -0.0815 -0.1137 -0.0627
  717MOL0     N98825   3.488   0.887   7.710 -1.0555 -0.1595 -0.2760
  717MOL0     C98826   3.590   0.876   7.808  0.3707 -0.9569 -0.5844
  717MOL0     C98827   3.638   0.753   7.794  0.2360  0.6346 -0.3641
  717MOL0     C98828   3.746   0.697   7.880  0.2039  0.2111 -0.7048
  717MOL0     C98829   3.693   0.565   7.940  0.3426 -0.5914  0.6034
  717MOL0     C98830   3.809   0.480   7.977 -0.3160 -0.5340  0.3669
  717MOL0     C98831   3.764   0.348   8.042 -1.2303  0.1024  0.1120
  717MOL0     O98832   3.708   0.359   8.176  0.3854  0.2933  0.1283
  717MOL0     C98833   3.781   0.427   8.270  1.0135 -0.1051  0.5530
  717MOL0     C98834   3.710   0.522   8.336  0.2025  0.1553 -0.2408
  717MOL0     C98835   3.770   0.605   8.435  0.0056  0.5062  0.1439
  717MOL0     C98836   3.681   0.705   8.516 -0.4038  0.4119 -0.2681
  717MOL0     C98837   3.907   0.580   8.466 -1.0226 -0.8193 -0.0582
  717MOL0     C98838   3.981   0.643   8.586 -0.0074 -0.4074  0.4949
  717MOL0     O98839   4.119   0.652   8.581  0.1828  0.1743  0.0166
  717MOL0     C98840   4.195   0.680   8.695  0.3948 -0.4508  0.3475
  717MOL0     C98841   4.331   0.685   8.670  0.3410 -0.4162  0.1456
  717MOL0     C98842   4.427   0.719   8.761  0.4266 -0.6750 -0.6176
  717MOL0     C98843   4.393   0.765   8.889  0.3047 -0.8195 -0.2100
  717MOL0     O98844   4.493   0.812   8.972  0.2030 -0.9365  0.5741
  717MOL0     C98845   4.470   0.912   9.076 -0.0493 -0.5677  0.1207
  717MOL0     C98846   4.594   0.930   9.169  1.1338 -0.0722 -0.9957
  717MOL0     C98847   4.567   1.021   9.296  0.2109  0.8303  0.1309
  717MOL0     C98848   4.566   1.174   9.260 -0.2228  0.4942 -0.4192
  717MOL0     C98849   4.525   1.277   9.370 -0.3114  0.4445 -0.6017
  717MOL0     C98850   4.556   1.230   9.510 -0.1421  0.7036 -0.2248
  717MOL0     C98851   4.505   1.338   9.614  0.2037 -0.6169  0.4931
  717MOL0     C98852   4.615   1.430   9.670 -0.6020 -0.3927 -0.4758
  717MOL0    Cl98853   4.752   1.343   9.751  0.7267  0.0643 -0.6288
  717MOL0     C98854   4.251   0.768   8.919  0.5547  0.8640 -0.3928
  717MOL0     C98855   4.159   0.724   8.821  0.2991 -0.0688 -0.1976
  717MOL0     O98856   3.909   0.685   8.675 -0.9363 -0.5253 -0.1537
  717MOL0     C98857   3.979   0.483   8.390 -0.5639 -0.3954  0.3884
  717MOL0     C98858   3.922   0.413   8.288 -0.3121 -0.5804 -0.3633
  717MOL0     N98859   3.564   0.686   7.703  0.5179  0.0149  0.3377
  717MOL0     N98860   3.482   0.765   7.646 -0.9843 -0.6720  0.5835
  717MOL0     C98861   3.326   1.134   8.567 -0.5182 -0.6899  0.2262
  717MOL0     C98862   3.378   1.090   8.688 -0.8320 -0.5776  0.7369
  717MOL0     C98863   3.722   0.936   8.946  0.3561 -0.2818  0.4406
  717MOL0     C98864   3.768   0.796   8.948 -0.1990 -0.8042 -0.0109
  717MOL0     C98865   3.857   0.752   9.046  0.3205  0.3749 -0.3653
  717MOL0     C98866   3.895   0.832   9.147 -0.3992 -0.9210 -0.8071
  717MOL0     O98867   3.981   0.776   9.235 -0.0462 -0.6470  0.2024
  717MOL0     C98868   3.951   0.805   9.373 -0.8189 -0.0251 -0.2600
  717MOL0     C98869   4.034   0.723   9.470 -0.0345  0.5354  0.3155
  717MOL0     C98870   3.997   0.733   9.617 -0.5789 -0.9413 -0.5394
  717MOL0     C98871   3.882   0.643   9.660  1.0414  0.1508 -0.5439
  717MOL0     C98872   3.930   0.509   9.685  0.0754  0.2419  0.4647
  717MOL0     C98873   3.995   0.408   9.716  0.3812 -0.5265  0.3882
  717MOL0     C98874   3.846   0.968   9.154  1.1835  1.4409  0.3784
  717MOL0     C98875   3.760   1.019   9.054 -0.0541 -0.6564  0.5781
  717MOL0     C98876   3.724   1.161   9.067 -1.0551 -0.1828 -0.5235
  717MOL0     H98877   3.625   1.313   8.732  0.1445  1.7384 -3.2830
  717MOL0     H98878   3.541   1.395   8.521  3.1619 -0.7909  1.1822
  717MOL0     H98879   3.154   1.349   8.455  0.3608  0.7350  1.1203
  717MOL0     H98880   3.167   1.208   8.336  1.3561  0.9288 -1.6975
  717MOL0     H98881   3.076   1.386   8.199  0.7679 -0.0703 -3.8194
  717MOL0     H98882   3.193   1.498   8.263 -0.6559  0.0829 -2.1872
  717MOL0     H98883   3.257   1.422   8.047 -0.9553 -1.2562 -1.0765
  717MOL0     H98884   3.374   1.332   8.150 -0.0159  0.3357 -0.3956
  717MOL0     H98885   3.195   1.155   8.140  1.0671  1.5251 -0.8984
  717MOL0     H98886   3.118   1.264   8.010 -0.8890  1.6238  0.5451
  717MOL0     H98887   3.397   1.169   7.973  0.3528 -0.3609  1.4838
  717MOL0     H98888   3.257   1.225   7.868 -1.9775 -0.3698  0.0314
  717MOL0     H98889   3.341   0.960   7.954  3.2578  0.9301 -3.3808
  717MOL0     H98890   3.162   0.988   7.960 -1.1567  0.3749 -0.7550
  717MOL0     H98891   3.197   1.072   7.714 -1.8575 -1.9588  0.3479
  717MOL0     H98892   3.220   0.899   7.739  3.6937 -1.3289 -0.0621
  717MOL0     H98893   3.393   1.017   7.576  2.8140  0.9420 -0.2431
  717MOL0     H98894   3.449   1.095   7.726 -0.1643  0.4534 -1.1622
  717MOL0     H98895   3.613   0.958   7.876 -1.5723 -2.7174  2.4342
  717MOL0     H98896   3.771   0.770   7.957 -0.5889 -1.0594  0.8374
  717MOL0     H98897   3.836   0.679   7.820  0.1228  1.3564 -1.1995
  717MOL0     H98898   3.630   0.591   8.026  2.2925  5.6175  0.6656
  717MOL0     H98899   3.634   0.510   7.866 -0.0123 -0.9037  1.1130
  717MOL0     H98900   3.873   0.458   7.891  2.1247 -0.2963  2.0436
  717MOL0     H98901   3.874   0.530   8.049 -1.5430 -0.3704  1.4008
  717MOL0     H98902   3.686   0.314   7.973  0.9415 -2.5332 -1.1992
  717MOL0     H98903   3.836   0.267   8.029 -0.5914  0.8121 -0.8908
  717MOL0     H98904   3.609   0.537   8.299  0.3838 -1.1797 -1.3572
  717MOL0     H98905   3.725   0.805   8.509 -0.9494  0.5888 -1.4971
  717MOL0     H98906   3.673   0.659   8.615  0.6446  0.7381 -0.0174
  717MOL0     H98907   3.581   0.733   8.480 -0.4028  2.4819  1.1533
  717MOL0     H98908   4.366   0.672   8.567  3.1116  1.8410  0.6622
  717MOL0     H98909   4.530   0.725   8.726  0.3731  0.0762 -0.6613
  717MOL0     H98910   4.436   0.999   9.019 -0.2252  0.1878  1.3377
  717MOL0     H98911   4.381   0.887   9.134 -0.3071 -0.2491 -0.1299
  717MOL0     H98912   4.618   0.834   9.216  1.4776  1.4270  2.1523
  717MOL0     H98913   4.680   0.970   9.114  1.4239 -1.3902 -1.5358
  717MOL0     H98914   4.636   0.999   9.378  0.3733 -1.0938 -0.4741
  717MOL0     H98915   4.468   0.995   9.334  0.2547 -0.9946 -0.8900
  717MOL0     H98916   4.513   1.188   9.165 -0.7828 -3.6080 -0.9149
  717MOL0     H98917   4.671   1.200   9.247  0.4248 -0.5306  2.2280
  717MOL0     H98918   4.575   1.370   9.345 -1.1297  1.2842  0.7964
  717MOL0     H98919   4.417   1.292   9.361 -0.4818  1.4195  2.2420
  717MOL0     H98920   4.658   1.197   9.530 -0.8653 -0.4221  1.8973
  717MOL0     H98921   4.489   1.146   9.531  0.3117  0.1291 -1.0269
  717MOL0     H98922   4.471   1.271   9.694 -2.1189  0.7196  0.7340
  717MOL0     H98923   4.417   1.398   9.586 -0.0376 -0.7884  0.8691
  717MOL0     H98924   4.568   1.501   9.739 -2.0385 -1.0699 -0.7179
  717MOL0     H98925   4.665   1.490   9.594  1.5839 -0.5870  0.7116
  717MOL0     H98926   4.227   0.791   9.023 -0.8605 -1.6590 -0.0950
  717MOL0     H98927   4.055   0.732   8.853 -0.4251 -2.4041 -1.6904
  717MOL0     H98928   4.084   0.464   8.404 -0.7324 -0.1173  2.4025
  717MOL0     H98929   3.975   0.346   8.221 -1.3186 -0.8288 -0.9439
  717MOL0     H98930   3.235   1.092   8.526 -1.9679  3.4001 -1.2868
  717MOL0     H98931   3.331   1.000   8.726 -2.6481 -0.9990 -2.1539
  717MOL0     H98932   3.746   0.723   8.871 -2.1353 -1.1991  0.8507
  717MOL0     H98933   3.887   0.650   9.025  0.4459  0.6344 -1.5201
  717MOL0     H98934   3.962   0.911   9.398  0.5205  0.0842 -1.2110
  717MOL0     H98935   3.845   0.781   9.383 -1.5313  2.3678 -1.1495
  717MOL0     H98936   4.142   0.741   9.463  0.3064 -0.9652  1.2341
  717MOL0     H98937   4.029   0.618   9.439  2.3998  0.0554  1.3092
  717MOL0     H98938   4.091   0.719   9.671  0.0541  0.3217 -1.2578
  717MOL0     H98939   3.971   0.839   9.619 -0.5294 -0.8161 -2.9766
  717MOL0     H98940   3.808   0.633   9.580  0.7301 -0.5859 -0.1753
  717MOL0     H98941   3.835   0.674   9.754 -0.8064  0.4196 -1.5184
  717MOL0     H98942   4.051   0.318   9.725  2.9239  1.0610  1.6861
  717MOL0     H98943   3.876   1.036   9.232  1.1516  2.7001 -0.6818
  717MOL0     H98944   3.768   1.196   9.161 -1.6339  3.2294 -1.3714
  717MOL0     H98945   3.767   1.219   8.985 -2.0542  2.7116  0.8665
  717MOL0     H98946   3.616   1.170   9.083 -1.0374 -2.1122  1.1753
  718MOL0     O98947   9.558   1.421   4.928  0.2277 -0.3875 -0.0548
  718MOL0     C98948   9.535   1.312   4.979 -0.8468  0.1283 -0.1038
  718MOL0     O98949   9.580   1.271   5.093 -0.7510  0.3952 -0.2683
  718MOL0     C98950   9.686   1.338   5.155  0.8469  0.3329 -0.1043
  718MOL0     C98951   9.657   1.414   5.268  0.5384  0.3614 -0.0446
  718MOL0     C98952   9.756   1.483   5.339  0.8494  0.1683  0.3386
  718MOL0     C98953   9.889   1.483   5.287  0.5779 -0.5203  0.1755
  718MOL0     O98954   9.994   1.556   5.337 -0.0766  0.7600 -0.2698
  718MOL0     C98955   9.960   1.643   5.450 -0.0066  0.1642  0.6776
  718MOL0     C98956   9.913   1.770   5.399 -0.0695 -0.5482 -0.0854
  718MOL0     C98957   9.824   1.857   5.500 -0.7326  0.1613 -0.5146
  718MOL0     C98958   9.801   1.994   5.453  0.0935 -0.0392  0.9596
  718MOL0     C98959   9.695   2.063   5.542 -0.6800 -0.2995  0.0860
  718MOL0     C98960   9.671   2.201   5.471  0.2789  0.0529 -0.5841
  718MOL0     C98961   9.551   2.269   5.539 -0.2850  0.4339  0.6974
  718MOL0     C98962   9.514   2.388   5.470  0.1329  0.3752  1.2504
  718MOL0     N98963   9.391   2.450   5.526 -0.4300 -0.0889  0.1277
  718MOL0     C98964   9.358   2.584   5.505  0.2060  0.2828  0.3631
  718MOL0     C98965   9.231   2.592   5.563  0.2438  0.1695  0.3551
  718MOL0     C98966   9.156   2.726   5.575 -0.4391 -0.1258  0.1551
  718MOL0     C98967   9.021   2.722   5.507  0.0019 -0.4795  0.2582
  718MOL0     C98968   8.927   2.845   5.527 -0.6658  0.2591 -1.1941
  718MOL0     C98969   8.833   2.870   5.406 -0.2566  0.6119  0.8749
  718MOL0     O98970   8.749   2.756   5.378 -0.0825 -0.0562  0.5219
  718MOL0     C98971   8.628   2.745   5.442  0.1139 -0.3672 -0.3950
  718MOL0     C98972   8.519   2.679   5.370 -0.8996  0.1692 -0.2424
  718MOL0     C98973   8.394   2.657   5.420  0.0103  0.1900 -0.1180
  718MOL0     C98974   8.302   2.562   5.342 -0.2175 -0.1633  0.4491
  718MOL0     C98975   8.359   2.704   5.549 -1.3480  0.1171 -0.7720
  718MOL0     C98976   8.234   2.673   5.630 -0.0304 -0.4380  1.4171
  718MOL0     O98977   8.236   2.670   5.772  0.4026 -0.3990  0.0123
  718MOL0     C98978   8.117   2.654   5.840 -0.0210 -0.5889  0.3596
  718MOL0     C98979   8.043   2.766   5.886  0.1339 -0.5130 -0.1933
  718MOL0     C98980   7.927   2.736   5.954  0.1375 -0.9667 -0.5629
  718MOL0     C98981   7.869   2.608   5.956 -0.4189  0.6410 -0.0383
  718MOL0     O98982   7.748   2.581   6.017 -0.0409  0.5168 -0.5061
  718MOL0     C98983   7.755   2.594   6.164  0.5131 -0.0780  0.2517
  718MOL0     C98984   7.644   2.523   6.238 -0.3144  0.2982  0.4249
  718MOL0     C98985   7.620   2.377   6.203  0.1749 -0.0683 -0.7803
  718MOL0     C98986   7.744   2.295   6.177  0.2607 -0.0749  0.7890
  718MOL0     C98987   7.701   2.149   6.117 -0.8697  0.8856  0.0149
  718MOL0     C98988   7.835   2.058   6.123  0.3481  0.4956 -0.3692
  718MOL0     C98989   7.817   1.913   6.079 -0.2518 -0.4941  0.3860
  718MOL0     C98990   7.935   1.819   6.128  0.0971 -0.7764  0.4516
  718MOL0    Cl98991   7.920   1.664   6.054  0.2591  0.0981  0.2175
  718MOL0     C98992   7.933   2.505   5.901 -0.0453  0.6007  0.6872
  718MOL0     C98993   8.065   2.520   5.855  0.6973 -0.5060 -0.0386
  718MOL0     O98994   8.141   2.707   5.559 -0.4202 -0.6146 -0.0421
  718MOL0     C98995   8.461   2.785   5.617 -0.6012  0.5043  0.4351
  718MOL0     C98996   8.591   2.803   5.560 -0.0936 -0.1665  0.4000
  718MOL0     N98997   9.186   2.470   5.602 -0.5579 -0.6640 -0.5016
  718MOL0     N98998   9.281   2.387   5.581  0.1077  0.0059  0.2017
  718MOL0     C98999   9.919   1.400   5.173 -0.1234  0.1516 -0.2326
  718MOL0     C99000   9.818   1.333   5.106 -0.8265  0.3038 -1.1790
  718MOL0     C99001   9.444   1.237   4.884  0.4357  0.5075 -0.1865
  718MOL0     C99002   9.346   1.306   4.812 -0.4904 -0.0470 -0.6053
  718MOL0     C99003   9.261   1.231   4.731 -0.0395 -0.1438 -0.6660
  718MOL0     C99004   9.274   1.091   4.718 -0.5907 -0.0754 -0.1139
  718MOL0     O99005   9.182   1.040   4.631  0.3713 -0.0116 -0.1722
  718MOL0     C99006   9.191   0.906   4.568 -0.5545  0.1239 -0.3388
  718MOL0     C99007   9.306   0.923   4.468 -0.0625 -0.3279 -0.0878
  718MOL0     C99008   9.340   0.795   4.388  0.4729 -0.5781  0.4562
  718MOL0     C99009   9.217   0.747   4.303 -0.1486 -0.1470  0.4181
  718MOL0     C99010   9.254   0.714   4.171  0.0452  0.5129  0.2388
  718MOL0     C99011   9.275   0.704   4.053  0.1486  0.1419 -0.5232
  718MOL0     C99012   9.375   1.023   4.787  1.0713  0.3862 -0.4707
  718MOL0     C99013   9.457   1.093   4.877 -0.0497 -0.5060  0.4126
  718MOL0     C99014   9.563   1.015   4.945 -0.3926 -0.5004  0.7977
  718MOL0     H99015   9.559   1.421   5.314  2.1556  3.4233  3.5017
  718MOL0     H99016   9.715   1.551   5.413  0.4585  0.3657 -0.0551
  718MOL0     H99017  10.052   1.672   5.501  0.1829  0.0593  0.3955
  718MOL0     H99018   9.885   1.604   5.519 -0.4466 -3.7026 -1.6837
  718MOL0     H99019  10.002   1.831   5.378 -0.7776  0.9695  1.1257
  718MOL0     H99020   9.857   1.747   5.308 -1.6417  3.9231 -0.4845
  718MOL0     H99021   9.730   1.805   5.522 -1.9956  3.8270  4.4702
  718MOL0     H99022   9.872   1.876   5.596 -0.7553  2.4662 -0.9125
  718MOL0     H99023   9.892   2.054   5.459  0.1369  0.1541 -0.9203
  718MOL0     H99024   9.769   2.003   5.348 -0.2465  0.7938  1.1250
  718MOL0     H99025   9.733   2.079   5.643 -0.7784  0.2892  0.0333
  718MOL0     H99026   9.601   2.006   5.554 -0.8610 -0.0971 -0.3585
  718MOL0     H99027   9.761   2.263   5.467 -1.6023  3.3141  2.0660
  718MOL0     H99028   9.647   2.183   5.366  1.8038 -1.5657 -0.7031
  718MOL0     H99029   9.572   2.292   5.644  2.2381 -3.0243  1.1275
  718MOL0     H99030   9.474   2.192   5.538 -0.7931  0.8276  3.3860
  718MOL0     H99031   9.591   2.465   5.474  0.7491  0.1671 -2.4597
  718MOL0     H99032   9.509   2.369   5.362  2.9602 -0.4007  1.1744
  718MOL0     H99033   9.419   2.663   5.462 -1.2756  1.3637  0.1973
  718MOL0     H99034   9.225   2.802   5.539  0.6948 -1.1546  0.0868
  718MOL0     H99035   9.129   2.747   5.679 -0.9449 -2.1879  0.4962
  718MOL0     H99036   9.046   2.726   5.400 -1.5279  1.4056 -0.0857
  718MOL0     H99037   8.967   2.629   5.524  0.2008 -0.5323  0.5964
  718MOL0     H99038   8.877   2.830   5.623 -1.1432 -0.3210 -1.5279
  718MOL0     H99039   9.004   2.922   5.541 -0.4467 -0.2788  0.9949
  718MOL0     H99040   8.762   2.952   5.416 -1.8186 -0.5678 -0.0200
  718MOL0     H99041   8.901   2.882   5.320 -0.7343 -0.0518  0.3954
  718MOL0     H99042   8.536   2.649   5.267 -0.4647 -2.0039  0.4109
  718MOL0     H99043   8.200   2.600   5.350 -0.1062  0.2385 -0.0255
  718MOL0     H99044   8.312   2.458   5.375  5.0111  0.3202  1.2796
  718MOL0     H99045   8.320   2.569   5.234  0.3516  3.5023  0.6286
  718MOL0     H99046   8.072   2.868   5.865  0.9260 -0.6616  0.1537
  718MOL0     H99047   7.878   2.821   6.001  0.7166  0.4437 -2.3912
  718MOL0     H99048   7.846   2.554   6.211 -0.5146 -1.7712  0.8802
  718MOL0     H99049   7.735   2.701   6.174 -4.0230 -0.2346 -3.6315
  718MOL0     H99050   7.653   2.532   6.346  2.0945 -1.7762  0.5061
  718MOL0     H99051   7.549   2.570   6.210 -0.2521 -0.0838 -0.4706
  718MOL0     H99052   7.555   2.381   6.115 -2.5364 -0.7061  1.0674
  718MOL0     H99053   7.555   2.321   6.271  0.3779 -0.1754 -0.6744
  718MOL0     H99054   7.791   2.279   6.275 -0.4431  0.2959  1.1910
  718MOL0     H99055   7.815   2.347   6.112  1.8105  2.2215  4.0497
  718MOL0     H99056   7.620   2.099   6.170 -0.9672 -0.4605 -1.3373
  718MOL0     H99057   7.664   2.165   6.015  2.7233  1.1751 -1.4264
  718MOL0     H99058   7.864   2.063   6.229 -1.7575  3.3089  0.1936
  718MOL0     H99059   7.915   2.101   6.061 -0.7176  1.0692 -1.3843
  718MOL0     H99060   7.810   1.911   5.969  1.4635 -2.8757  0.2362
  718MOL0     H99061   7.727   1.865   6.119 -1.4310  1.3961  0.1509
  718MOL0     H99062   7.937   1.796   6.235  1.0089 -3.0628  0.0117
  718MOL0     H99063   8.024   1.871   6.092  0.0970 -1.8099 -1.1769
  718MOL0     H99064   7.890   2.407   5.883 -0.1169  1.1872 -3.3138
  718MOL0     H99065   8.121   2.437   5.813  3.4120  0.4891  1.3651
  718MOL0     H99066   8.434   2.807   5.720  2.1642 -1.9505  1.8209
  718MOL0     H99067   8.668   2.854   5.617  1.3299 -1.6109 -0.1435
  718MOL0     H99068  10.025   1.393   5.150 -0.0849 -1.3676  0.2971
  718MOL0     H99069   9.836   1.275   5.016  0.0020 -2.7998  0.8435
  718MOL0     H99070   9.336   1.414   4.819  1.2726  0.2128 -1.3197
  718MOL0     H99071   9.188   1.281   4.667 -0.7521  1.8478  1.5587
  718MOL0     H99072   9.220   0.826   4.636  3.0295  1.2173 -0.4026
  718MOL0     H99073   9.098   0.882   4.516 -0.3084  1.8280 -1.6586
  718MOL0     H99074   9.399   0.953   4.517  0.7827  0.0812 -1.8651
  718MOL0     H99075   9.272   1.007   4.407 -1.2784 -0.2261  0.6937
  718MOL0     H99076   9.406   0.835   4.311 -1.9209  0.2429 -1.3192
  718MOL0     H99077   9.376   0.721   4.460 -0.6966 -0.9419  0.7024
  718MOL0     H99078   9.123   0.804   4.309 -0.7943 -1.1741  0.4165
  718MOL0     H99079   9.175   0.651   4.334  0.1232  0.3829  2.6197
  718MOL0     H99080   9.274   0.696   3.946  1.3962  0.5360 -0.5900
  718MOL0     H99081   9.386   0.917   4.768 -1.3968 -0.0099 -0.0073
  718MOL0     H99082   9.582   0.919   4.896  0.0753  0.2064 -0.4487
  718MOL0     H99083   9.652   1.078   4.945 -0.8113  0.1477  2.8357
  718MOL0     H99084   9.546   0.995   5.051  4.9150  0.1295  2.0382
  719MOL0     O99085   8.329   1.509   8.561 -0.8616  0.7535  0.3819
  719MOL0     C99086   8.449   1.492   8.529 -0.0932 -0.2388  0.6357
  719MOL0     O99087   8.510   1.370   8.511 -0.4172 -0.6619 -0.3047
  719MOL0     C99088   8.430   1.256   8.527 -0.1069 -0.1591 -0.3712
  719MOL0     C99089   8.308   1.231   8.457 -0.6422 -0.4161 -0.2445
  719MOL0     C99090   8.257   1.101   8.472 -0.5569  0.3351  0.5617
  719MOL0     C99091   8.302   0.999   8.559  0.2125 -0.0424  0.3318
  719MOL0     O99092   8.239   0.879   8.577  0.1380 -0.0676 -0.2290
  719MOL0     C99093   8.155   0.834   8.469  0.7614  0.2027 -0.2574
  719MOL0     C99094   8.235   0.777   8.347 -0.5926  0.6378  0.3454
  719MOL0     C99095   8.333   0.662   8.387  1.2358  0.8907 -0.9483
  719MOL0     C99096   8.406   0.591   8.268  0.8724  0.5036 -0.2533
  719MOL0     C99097   8.517   0.492   8.309 -0.1936 -0.1725 -0.0938
  719MOL0     C99098   8.476   0.365   8.388  0.3815 -0.5833  0.0739
  719MOL0     C99099   8.610   0.284   8.416  0.4925  0.5700 -0.5538
  719MOL0     C99100   8.566   0.156   8.494 -0.0846  0.7625 -0.0380
  719MOL0     N99101   8.500   0.189   8.627 -0.9438 -0.3168 -0.3376
  719MOL0     C99102   8.531   0.300   8.709  0.3760 -0.0766 -0.1558
  719MOL0     C99103   8.431   0.308   8.801 -0.7213 -0.1395  0.6131
  719MOL0     C99104   8.408   0.403   8.920 -0.8001  0.4215 -0.6347
  719MOL0     C99105   8.433   0.549   8.892  0.2792  0.2222  0.4876
  719MOL0     C99106   8.334   0.602   8.785 -1.5189 -0.4605 -0.1582
  719MOL0     C99107   8.184   0.587   8.816 -0.2978  0.2424  0.3252
  719MOL0     O99108   8.170   0.621   8.956 -0.0147 -0.2876  0.5708
  719MOL0     C99109   8.121   0.748   8.978 -0.0642  1.0356 -0.2602
  719MOL0     C99110   8.125   0.871   8.912  0.4175 -1.5577  0.3359
  719MOL0     C99111   8.074   0.993   8.961  0.3467 -0.0128 -0.6570
  719MOL0     C99112   8.056   1.113   8.867  0.0976  0.9107  0.4242
  719MOL0     C99113   8.028   0.990   9.094  0.3326 -0.5601  0.2641
  719MOL0     C99114   7.979   1.106   9.169  0.4617 -0.1398  0.4689
  719MOL0     O99115   7.898   1.069   9.276 -0.4882 -0.7042 -0.3241
  719MOL0     C99116   7.861   1.178   9.363  0.5080  0.3519  0.0624
  719MOL0     C99117   7.724   1.196   9.385  0.3243  0.3760 -1.0877
  719MOL0     C99118   7.685   1.300   9.468  0.5256 -0.5923 -0.5692
  719MOL0     C99119   7.772   1.365   9.546 -0.2531  0.1181  0.3406
  719MOL0     O99120   7.738   1.464   9.632 -0.3742  0.6383 -0.0145
  719MOL0     C99121   7.606   1.501   9.655  0.6365  0.5543  0.5223
  719MOL0     C99122   7.615   1.601   9.769  0.4691  0.4252  0.2018
  719MOL0     C99123   7.491   1.704   9.758  0.1778 -0.1844 -0.3619
  719MOL0     C99124   7.363   1.639   9.824  0.4299 -0.3460 -0.0506
  719MOL0     C99125   7.237   1.708   9.778  0.2120 -0.6366  0.0497
  719MOL0     C99126   7.230   1.861   9.827  0.7844  0.0488  0.1392
  719MOL0     C99127   7.126   1.948   9.748 -0.8291 -0.5174  0.0357
  719MOL0     C99128   7.091   2.078   9.818  1.1070  0.9177  0.0058
  719MOL0    Cl99129   6.966   2.153   9.718  0.3248  0.1684 -0.0815
  719MOL0     C99130   7.909   1.324   9.540  0.0596  0.2311 -0.1317
  719MOL0     C99131   7.959   1.236   9.443  0.5746  1.0889  0.7416
  719MOL0     O99132   8.005   1.221   9.131 -0.9048  0.6078 -0.0186
  719MOL0     C99133   8.033   0.863   9.163  0.5752 -0.2145 -0.1849
  719MOL0     C99134   8.078   0.748   9.101 -0.0978  0.8566  0.1142
  719MOL0     N99135   8.347   0.206   8.785  0.1046  0.1637  0.0148
  719MOL0     N99136   8.390   0.138   8.686  0.1962  0.0910  0.4873
  719MOL0     C99137   8.425   1.032   8.619 -0.1015 -0.1697 -0.4997
  719MOL0     C99138   8.487   1.154   8.602 -0.5781 -0.0467  0.1529
  719MOL0     C99139   8.530   1.611   8.504 -0.1427  0.2779 -0.2216
  719MOL0     C99140   8.479   1.709   8.407  0.5974 -0.4665  0.1748
  719MOL0     C99141   8.560   1.819   8.371 -0.5721  0.1924 -0.0974
  719MOL0     C99142   8.685   1.845   8.428  0.2195 -0.6678 -0.2023
  719MOL0     O99143   8.763   1.955   8.397 -0.0352 -0.1000  0.5808
  719MOL0     C99144   8.714   2.063   8.320 -0.4901 -0.1522  0.1073
  719MOL0     C99145   8.714   2.171   8.418  0.3583 -0.2142 -0.0642
  719MOL0     C99146   8.838   2.217   8.490 -0.6543 -0.4571 -0.4210
  719MOL0     C99147   8.965   2.210   8.404  0.0383 -0.3130 -0.5523
  719MOL0     C99148   9.083   2.260   8.478  0.5562 -0.0090  0.1513
  719MOL0     C99149   9.168   2.319   8.521 -0.4264 -0.3978 -0.3727
  719MOL0     C99150   8.726   1.745   8.505 -0.5935  0.2040 -0.6171
  719MOL0     C99151   8.652   1.628   8.551 -0.1456 -0.4419 -0.0807
  719MOL0     C99152   8.722   1.544   8.642  0.0594 -0.3594 -0.0578
  719MOL0     H99153   8.262   1.309   8.397  1.5564  1.7768  0.7575
  719MOL0     H99154   8.158   1.106   8.427 -0.8495 -3.3777  0.4923
  719MOL0     H99155   8.092   0.915   8.431  1.5279  0.2911 -1.3642
  719MOL0     H99156   8.089   0.753   8.503  1.6115  0.7778  3.1811
  719MOL0     H99157   8.157   0.741   8.280 -0.8375  0.2890  0.8137
  719MOL0     H99158   8.291   0.858   8.300  1.9478 -1.0699  0.2318
  719MOL0     H99159   8.405   0.705   8.457  0.7396 -0.1943  0.2809
  719MOL0     H99160   8.280   0.585   8.444  1.9094  0.1174 -1.3523
  719MOL0     H99161   8.340   0.538   8.199 -0.3646  1.8352 -0.1471
  719MOL0     H99162   8.441   0.677   8.210 -1.5019  2.7171  1.3505
  719MOL0     H99163   8.586   0.548   8.373 -0.0098 -2.4449  1.8234
  719MOL0     H99164   8.576   0.462   8.222 -0.6844  0.0689 -0.5108
  719MOL0     H99165   8.441   0.406   8.483  2.4764  1.2486  0.1388
  719MOL0     H99166   8.392   0.313   8.342  0.8158 -0.9113 -0.3481
  719MOL0     H99167   8.695   0.332   8.464  0.3845 -1.1627  1.5533
  719MOL0     H99168   8.644   0.233   8.326  1.7870 -2.4268  1.4345
  719MOL0     H99169   8.487   0.104   8.439  0.8947 -1.6369  0.7283
  719MOL0     H99170   8.648   0.084   8.502  0.9877  1.9487  0.0009
  719MOL0     H99171   8.612   0.372   8.698 -0.5232  0.6276 -3.0592
  719MOL0     H99172   8.478   0.380   9.001  0.6573  3.9080 -0.7133
  719MOL0     H99173   8.305   0.394   8.956  0.2731 -0.6834  2.5246
  719MOL0     H99174   8.415   0.608   8.982  0.1830  0.3059  0.4136
  719MOL0     H99175   8.540   0.558   8.871  0.4233  0.1832  1.1913
  719MOL0     H99176   8.363   0.705   8.762  0.2769 -0.2603  2.5283
  719MOL0     H99177   8.354   0.549   8.691  1.2444 -1.2147  0.7717
  719MOL0     H99178   8.121   0.648   8.751  0.9946  2.6222  1.1551
  719MOL0     H99179   8.146   0.488   8.792  0.1321  0.0509  0.4124
  719MOL0     H99180   8.172   0.877   8.815  2.6921 -0.5342  1.4190
  719MOL0     H99181   7.957   1.153   8.892  0.0165 -0.5841  2.8182
  719MOL0     H99182   8.067   1.081   8.763 -0.6418  1.3448  0.2065
  719MOL0     H99183   8.142   1.179   8.875  1.3875  0.0390 -3.7269
  719MOL0     H99184   7.654   1.137   9.328 -1.7336  1.0258  0.6301
  719MOL0     H99185   7.577   1.306   9.479  0.1234 -0.8121 -3.6425
  719MOL0     H99186   7.584   1.554   9.562 -1.2183 -3.3771 -1.5349
  719MOL0     H99187   7.543   1.416   9.683  0.6123  0.4367  0.1132
  719MOL0     H99188   7.628   1.548   9.864  0.7676 -2.8976 -1.5134
  719MOL0     H99189   7.703   1.659   9.742  1.0383 -0.9498 -1.0149
  719MOL0     H99190   7.483   1.739   9.654  0.3646 -1.4724 -0.8323
  719MOL0     H99191   7.524   1.787   9.820  1.1932 -1.3593  0.7046
  719MOL0     H99192   7.385   1.652   9.930 -0.5844 -0.2914  0.1624
  719MOL0     H99193   7.358   1.531   9.809  2.3654 -0.6218  0.9852
  719MOL0     H99194   7.234   1.720   9.669  0.4632  0.6533  0.1742
  719MOL0     H99195   7.144   1.663   9.815 -0.6852  1.7323  0.8757
  719MOL0     H99196   7.331   1.903   9.818 -0.2019  2.3002 -1.3027
  719MOL0     H99197   7.197   1.878   9.929 -1.2707  2.7316 -0.8634
  719MOL0     H99198   7.034   1.888   9.756  0.2567 -2.6274 -2.0084
  719MOL0     H99199   7.160   1.957   9.645 -0.6486  0.8931  0.2042
  719MOL0     H99200   7.173   2.146   9.842 -0.9375  2.5696  2.9151
  719MOL0     H99201   7.054   2.044   9.915  3.5539 -0.6766  0.4881
  719MOL0     H99202   7.988   1.356   9.606 -0.0713 -1.1083  0.6960
  719MOL0     H99203   8.065   1.223   9.422  0.7520  1.1411  1.5695
  719MOL0     H99204   8.006   0.851   9.267 -2.4256 -1.3675 -1.0112
  719MOL0     H99205   8.062   0.658   9.159  0.3610  0.0637 -0.9385
  719MOL0     H99206   8.479   0.967   8.688 -0.0136 -0.2722 -0.6653
  719MOL0     H99207   8.589   1.168   8.634 -0.0124  1.1793 -2.0123
  719MOL0     H99208   8.377   1.710   8.369 -0.2850  2.4482  2.2717
  719MOL0     H99209   8.514   1.889   8.302 -1.5766 -0.9222 -0.5839
  719MOL0     H99210   8.786   2.084   8.240  2.2179  0.9879  2.6431
  719MOL0     H99211   8.613   2.053   8.279 -0.0327 -0.7719 -0.8996
  719MOL0     H99212   8.646   2.135   8.496 -1.4413  3.4932  0.2784
  719MOL0     H99213   8.655   2.252   8.374  0.1997 -0.8820 -1.1049
  719MOL0     H99214   8.827   2.320   8.527 -2.1247  0.0234 -2.0419
  719MOL0     H99215   8.862   2.153   8.575 -0.4216 -0.7700 -0.7174
  719MOL0     H99216   8.937   2.271   8.317 -0.9964 -0.4265 -0.3120
  719MOL0     H99217   8.990   2.110   8.368 -0.0417 -0.8773  0.8990
  719MOL0     H99218   9.249   2.368   8.572 -1.0200 -0.3090  0.5065
  719MOL0     H99219   8.816   1.768   8.563 -2.1174  0.4619  1.8021
  719MOL0     H99220   8.666   1.514   8.731  1.0138 -0.6591  0.4565
  719MOL0     H99221   8.753   1.448   8.601 -2.1959 -1.6289  0.9765
  719MOL0     H99222   8.810   1.591   8.687  2.1366 -0.6020 -3.5824
  720MOL0     O99223   1.122   7.345   0.791 -0.3806  0.0427 -0.3549
  720MOL0     C99224   1.237   7.301   0.780  0.0994 -0.7604 -0.2358
  720MOL0     O99225   1.284   7.223   0.678  0.7665 -0.3570  0.5896
  720MOL0     C99226   1.190   7.183   0.581 -0.2933  0.5669 -0.5691
  720MOL0     C99227   1.163   7.044   0.555  0.3403  0.1830 -0.5054
  720MOL0     C99228   1.067   7.011   0.461 -0.6724 -0.4621 -0.1641
  720MOL0     C99229   0.998   7.109   0.386  0.1308  0.5011 -0.2495
  720MOL0     O99230   0.893   7.072   0.296 -0.0936 -0.2355 -0.4469
  720MOL0     C99231   0.855   6.934   0.288 -0.5480 -0.5940 -0.3667
  720MOL0     C99232   0.755   6.932   0.173  0.7234  0.4086  0.0543
  720MOL0     C99233   0.691   6.789   0.151 -0.1567 -1.1492  0.0876
  720MOL0     C99234   0.653   6.786   0.004 -0.3085 -0.2069 -0.8432
  720MOL0     C99235   0.565   6.663  -0.011 -0.6267  0.2114  0.0167
  720MOL0     C99236   0.628   6.526   0.031 -0.1390 -0.5502  0.3683
  720MOL0     C99237   0.523   6.427  -0.002 -0.5933  1.1942 -0.0568
  720MOL0     C99238   0.546   6.286   0.069  0.3881 -0.3025 -0.3084
  720MOL0     N99239   0.549   6.307   0.214  0.3328 -0.2508  0.5896
  720MOL0     C99240   0.653   6.326   0.288 -0.3508  0.1734  0.4976
  720MOL0     C99241   0.614   6.355   0.419 -0.5013 -0.0580  1.1295
  720MOL0     C99242   0.700   6.399   0.542  0.2870  0.2543 -1.1300
  720MOL0     C99243   0.745   6.549   0.565  0.4600  0.6702  0.1901
  720MOL0     C99244   0.785   6.626   0.442 -0.9848  0.3671 -0.2194
  720MOL0     C99245   0.883   6.548   0.353 -1.2907 -0.5363 -0.8369
  720MOL0     O99246   0.989   6.635   0.316  0.1228  0.0815  0.1136
  720MOL0     C99247   1.105   6.572   0.281  0.4038  0.6502  0.1401
  720MOL0     C99248   1.228   6.617   0.339 -0.2450  0.0037  0.2364
  720MOL0     C99249   1.353   6.556   0.319  0.6870 -0.5756 -0.1429
  720MOL0     C99250   1.477   6.624   0.359 -0.4415  0.0474  0.5981
  720MOL0     C99251   1.353   6.435   0.244 -0.0216  0.3313 -0.2218
  720MOL0     C99252   1.469   6.367   0.188 -0.0791  0.2977 -1.3223
  720MOL0     O99253   1.486   6.387   0.056  0.0468 -0.0124  0.0736
  720MOL0     C99254   1.578   6.302  -0.002 -1.2202 -0.4643  0.7355
  720MOL0     C99255   1.675   6.370  -0.082 -0.5535 -0.1508  0.2853
  720MOL0     C99256   1.768   6.300  -0.158 -0.2073  0.1515 -0.8234
  720MOL0     C99257   1.775   6.155  -0.143 -0.8709 -0.1485  0.2025
  720MOL0     O99258   1.871   6.081  -0.215  0.2950  0.0314  0.0974
  720MOL0     C99259   2.007   6.115  -0.194 -0.4309  0.5066  0.3037
  720MOL0     C99260   2.078   6.007  -0.114  0.0748  0.0195  0.1016
  720MOL0     C99261   2.232   6.037  -0.117  0.3819 -0.0609  0.8528
  720MOL0     C99262   2.326   5.921  -0.129 -0.3109  0.1741 -0.2804
  720MOL0     C99263   2.298   5.801  -0.038 -0.8734 -0.8148 -0.4093
  720MOL0     C99264   2.280   5.829   0.114 -0.2866  0.0001  0.5484
  720MOL0     C99265   2.324   5.711   0.203 -0.2911 -0.3651  0.7328
  720MOL0     C99266   2.313   5.742   0.349  0.5397 -0.2197 -0.2938
  720MOL0    Cl99267   2.406   5.876   0.401 -0.5536  0.4687 -0.2380
  720MOL0     C99268   1.691   6.097  -0.053  0.4317 -0.1071 -0.4656
  720MOL0     C99269   1.582   6.162   0.011 -0.5945  0.1580 -0.8395
  720MOL0     O99270   1.532   6.293   0.267  0.4541 -0.4736 -0.6624
  720MOL0     C99271   1.238   6.382   0.196 -0.6310 -0.2009  0.4000
  720MOL0     C99272   1.114   6.450   0.212  0.7101  0.3152 -0.0825
  720MOL0     N99273   0.480   6.331   0.415 -0.1797 -1.0345  0.7006
  720MOL0     N99274   0.445   6.307   0.294  0.7092  0.1177  0.4394
  720MOL0     C99275   1.032   7.245   0.404  0.4775 -0.3841 -0.0723
  720MOL0     C99276   1.122   7.275   0.503  0.4864  0.2660  0.0275
  720MOL0     C99277   1.338   7.339   0.885 -0.1125 -0.5432 -0.0077
  720MOL0     C99278   1.460   7.267   0.883  0.3564 -0.8726  0.1145
  720MOL0     C99279   1.557   7.291   0.984 -0.4815 -0.4869  0.0676
  720MOL0     C99280   1.540   7.384   1.088  0.5469 -0.4189  0.7989
  720MOL0     O99281   1.632   7.425   1.179  0.1643 -0.0331  0.3285
  720MOL0     C99282   1.760   7.354   1.194  0.3042  0.0153 -0.9242
  720MOL0     C99283   1.742   7.244   1.289 -0.5789 -0.3716  0.3006
  720MOL0     C99284   1.758   7.274   1.437 -0.6047 -1.1310  0.2173
  720MOL0     C99285   1.785   7.157   1.522 -0.1450  0.4524 -1.1758
  720MOL0     C99286   1.671   7.060   1.526 -0.7426  0.0432 -0.7149
  720MOL0     C99287   1.589   6.979   1.544  0.0782  0.3657 -0.3207
  720MOL0     C99288   1.430   7.459   1.081 -0.7398 -0.2182  0.1260
  720MOL0     C99289   1.323   7.440   0.987 -0.8952  0.6434 -0.4313
  720MOL0     C99290   1.188   7.510   1.010  0.6141 -0.7737 -0.0836
  720MOL0     H99291   1.211   6.958   0.601 -0.2126  0.3908  0.4925
  720MOL0     H99292   1.042   6.906   0.450  0.3915 -0.6310 -1.1698
  720MOL0     H99293   0.794   6.898   0.372  0.8817  1.6950  1.7701
  720MOL0     H99294   0.934   6.862   0.265 -1.8482 -2.1403 -0.1834
  720MOL0     H99295   0.673   7.002   0.193  1.1067  0.5815  1.0689
  720MOL0     H99296   0.811   6.951   0.081 -1.6015 -1.5507 -1.8821
  720MOL0     H99297   0.765   6.710   0.167  0.0736 -0.9549 -0.0005
  720MOL0     H99298   0.613   6.767   0.224 -1.5427  1.7769 -0.3472
  720MOL0     H99299   0.594   6.873  -0.025 -0.8905 -0.7666 -1.3680
  720MOL0     H99300   0.737   6.765  -0.064  3.0328 -0.5372  3.0144
  720MOL0     H99301   0.531   6.650  -0.114  2.7110  1.3197 -1.3484
  720MOL0     H99302   0.480   6.671   0.058  0.5949 -0.7801  1.7153
  720MOL0     H99303   0.725   6.525  -0.019  0.7532  3.9066  1.5745
  720MOL0     H99304   0.645   6.527   0.139  2.0419 -0.4649  0.0605
  720MOL0     H99305   0.550   6.411  -0.107  1.5104 -1.4714  0.8040
  720MOL0     H99306   0.423   6.471   0.008 -1.2220  0.6360 -2.8224
  720MOL0     H99307   0.472   6.209   0.043  2.7134 -2.7092 -0.1386
  720MOL0     H99308   0.646   6.251   0.043  1.4724  2.8918 -0.9302
  720MOL0     H99309   0.757   6.322   0.256  0.5526  0.2975  3.2011
  720MOL0     H99310   0.792   6.339   0.544  0.2093  0.1284 -1.2693
  720MOL0     H99311   0.654   6.379   0.639  0.5365  0.5930 -0.9388
  720MOL0     H99312   0.667   6.597   0.624  0.7015  1.4066 -0.0802
  720MOL0     H99313   0.820   6.550   0.644  1.4781  0.9218 -0.7589
  720MOL0     H99314   0.695   6.650   0.384 -2.2283 -0.9066  1.0841
  720MOL0     H99315   0.828   6.721   0.475 -1.7456  0.6645 -0.0565
  720MOL0     H99316   0.925   6.460   0.404  1.4977 -0.4731 -2.8306
  720MOL0     H99317   0.830   6.516   0.263  0.3178 -0.9894 -1.6431
  720MOL0     H99318   1.214   6.708   0.395  0.2866  1.0019 -1.1790
  720MOL0     H99319   1.454   6.696   0.439 -2.4555 -0.9539  0.9894
  720MOL0     H99320   1.516   6.676   0.271 -4.3876  0.3365 -1.2139
  720MOL0     H99321   1.544   6.544   0.391  0.2334  0.2637 -0.2482
  720MOL0     H99322   1.661   6.476  -0.099  3.2997  0.2670 -1.1636
  720MOL0     H99323   1.834   6.343  -0.232  3.4277 -3.0292  0.2307
  720MOL0     H99324   2.056   6.113  -0.292 -1.9293  1.0438 -0.4975
  720MOL0     H99325   2.028   6.210  -0.142  2.6639 -1.6319  3.4125
  720MOL0     H99326   2.031   6.032  -0.019 -0.9183  2.4798 -0.9523
  720MOL0     H99327   2.035   5.912  -0.147 -1.4617  1.1021 -1.2012
  720MOL0     H99328   2.262   6.088  -0.024 -0.8599  1.4030  0.4927
  720MOL0     H99329   2.255   6.105  -0.200 -2.8042  1.6215  1.1706
  720MOL0     H99330   2.431   5.946  -0.115  0.3042 -1.9158 -0.7930
  720MOL0     H99331   2.323   5.884  -0.231  0.0515 -0.1236 -0.1856
  720MOL0     H99332   2.204   5.754  -0.070 -1.0763 -0.3995 -0.4255
  720MOL0     H99333   2.384   5.734  -0.042 -0.4113 -0.2341 -0.2395
  720MOL0     H99334   2.181   5.873   0.134 -0.9198 -2.1242  2.4745
  720MOL0     H99335   2.354   5.909   0.126 -0.0118 -0.4002  1.6436
  720MOL0     H99336   2.422   5.675   0.171 -0.5704 -0.6016  0.1403
  720MOL0     H99337   2.252   5.635   0.173  0.1527 -0.0276 -1.3397
  720MOL0     H99338   2.342   5.652   0.405 -0.6744 -0.0891  0.5835
  720MOL0     H99339   2.208   5.756   0.376 -0.4403  1.5313 -4.2914
  720MOL0     H99340   1.695   5.992  -0.023 -2.0404 -0.4008 -0.9599
  720MOL0     H99341   1.511   6.099   0.063  0.3698  0.6961  1.2162
  720MOL0     H99342   1.244   6.294   0.133  0.0085  1.1829 -1.5515
  720MOL0     H99343   1.019   6.416   0.171 -1.4667  1.7542  3.2903
  720MOL0     H99344   0.984   7.330   0.358  1.4107  1.8859  2.8069
  720MOL0     H99345   1.154   7.378   0.520 -1.5218  1.1244 -1.0204
  720MOL0     H99346   1.469   7.191   0.806 -1.5266  2.9918 -4.4314
  720MOL0     H99347   1.648   7.232   0.986  2.1985  3.2359  3.1964
  720MOL0     H99348   1.804   7.328   1.096  1.6850 -3.1950  0.4026
  720MOL0     H99349   1.830   7.424   1.242 -0.8260  1.2945 -1.0803
  720MOL0     H99350   1.821   7.177   1.254 -1.8060 -1.1683 -1.0886
  720MOL0     H99351   1.644   7.199   1.271 -0.7255  0.3192 -0.7650
  720MOL0     H99352   1.829   7.355   1.454 -1.3023 -0.3803 -0.3451
  720MOL0     H99353   1.660   7.321   1.453 -1.5020 -1.3784 -3.6134
  720MOL0     H99354   1.807   7.184   1.626  2.5552 -2.4566 -0.8280
  720MOL0     H99355   1.869   7.101   1.479  0.2884 -0.0886  0.3127
  720MOL0     H99356   1.522   6.896   1.551 -0.4670  0.7194 -1.2144
  720MOL0     H99357   1.432   7.539   1.154 -0.5979 -1.1635  1.1900
  720MOL0     H99358   1.105   7.441   1.026  0.3464 -0.0335  2.0693
  720MOL0     H99359   1.193   7.578   1.097  0.8440  1.5941 -1.8353
  720MOL0     H99360   1.159   7.565   0.920  0.7978  1.9139  1.3767
  721MOL0     O99361   2.481   5.669   9.555  0.3668  0.0302  0.3840
  721MOL0     C99362   2.587   5.678   9.492 -0.6639 -0.4326  0.4350
  721MOL0     O99363   2.603   5.762   9.382  0.3118 -0.5801  0.5285
  721MOL0     C99364   2.492   5.824   9.334 -0.5110 -0.3906 -0.2931
  721MOL0     C99365   2.433   5.933   9.405 -0.7443 -0.3614 -0.1843
  721MOL0     C99366   2.326   5.996   9.369 -0.5811 -0.9040  0.3154
  721MOL0     C99367   2.278   5.965   9.244  1.0581 -0.4259 -0.2364
  721MOL0     O99368   2.166   6.026   9.195  0.8753  0.4525 -0.7313
  721MOL0     C99369   2.059   5.963   9.258  0.1847 -0.7937  0.5083
  721MOL0     C99370   1.940   6.055   9.283  0.2652 -1.6797 -0.5503
  721MOL0     C99371   1.970   6.175   9.371  0.1232 -0.0990 -0.1798
  721MOL0     C99372   1.844   6.265   9.379  0.6236 -1.3527  0.2699
  721MOL0     C99373   1.885   6.409   9.410  0.2974 -0.3774 -0.8323
  721MOL0     C99374   1.774   6.509   9.446 -0.2549  0.9919 -1.0006
  721MOL0     C99375   1.660   6.530   9.342 -0.8408  0.3693 -0.1016
  721MOL0     C99376   1.549   6.611   9.398 -0.6640  0.0681  0.8240
  721MOL0     N99377   1.477   6.531   9.496  0.4607 -1.2514  0.6570
  721MOL0     C99378   1.473   6.558   9.628  0.1303 -0.3063 -0.3478
  721MOL0     C99379   1.376   6.483   9.686 -0.2775  0.5799 -0.0522
  721MOL0     C99380   1.361   6.494   9.835  0.5142 -0.2278  0.7733
  721MOL0     C99381   1.222   6.546   9.864  0.4510 -0.3110  1.1864
  721MOL0     C99382   1.107   6.445   9.820  0.7133 -0.3458  0.4676
  721MOL0     C99383   0.966   6.472   9.872 -0.0490 -0.1036 -0.5246
  721MOL0     O99384   0.929   6.603   9.821  0.9118 -0.0306 -0.0778
  721MOL0     C99385   0.814   6.664   9.870 -0.2399 -0.2908 -1.1435
  721MOL0     C99386   0.693   6.584   9.877  0.0146  0.5241  0.3367
  721MOL0     C99387   0.569   6.641   9.916 -0.6046  0.4093  0.7339
  721MOL0     C99388   0.453   6.553   9.927 -0.2090  0.4457  0.2491
  721MOL0     C99389   0.562   6.777   9.932 -0.6455 -0.7682  0.6071
  721MOL0     C99390   0.434   6.840   9.973  0.2761 -0.8822 -0.4966
  721MOL0     O99391   0.365   6.919   9.882 -1.0444  0.4836  0.9627
  721MOL0     C99392   0.273   7.001   9.934  0.2740  0.7178 -0.2484
  721MOL0     C99393   0.139   6.959   9.977 -0.2541 -0.4069  0.8844
  721MOL0     C99394   0.051   7.052  10.028 -0.3705  0.7278  0.3248
  721MOL0     C99395   0.080   7.192  10.038 -0.0456 -0.9477 -0.4069
  721MOL0     O99396  -0.009   7.268  10.110  0.0854 -0.3329  0.9248
  721MOL0     C99397   0.040   7.386  10.179  0.3495  0.3587  0.3458
  721MOL0     C99398  -0.043   7.385  10.306 -0.5655  0.4615  0.5025
  721MOL0     C99399  -0.004   7.484  10.405 -0.3196 -0.3431  0.3107
  721MOL0     C99400  -0.052   7.628  10.365 -0.4260  0.3838 -0.3040
  721MOL0     C99401  -0.003   7.732  10.459  0.7417 -0.5365 -0.5087
  721MOL0     C99402   0.150   7.775  10.455 -0.5343  0.5846  0.9548
  721MOL0     C99403   0.189   7.868  10.341 -0.9226  0.2316 -0.7701
  721MOL0     C99404   0.329   7.927  10.332 -1.5874  0.1271  0.7226
  721MOL0    Cl99405   0.345   8.070  10.444  0.4040  0.2592  0.1689
  721MOL0     C99406   0.205   7.234   9.987 -0.6836 -0.9010  0.3613
  721MOL0     C99407   0.296   7.146   9.932 -1.0528  0.6433 -0.4481
  721MOL0     O99408   0.409   6.828  10.095  0.1884 -0.2245  0.1239
  721MOL0     C99409   0.676   6.860   9.918  0.5988 -0.0315 -0.1800
  721MOL0     C99410   0.798   6.808   9.888  0.4946  1.0141  0.1847
  721MOL0     N99411   1.319   6.407   9.585 -0.5861  0.4074  0.3148
  721MOL0     N99412   1.370   6.442   9.470  0.6449 -0.3640  0.0614
  721MOL0     C99413   2.328   5.855   9.165  0.2375 -0.7567  0.8655
  721MOL0     C99414   2.432   5.782   9.216  0.2043  0.3620 -0.0682
  721MOL0     C99415   2.707   5.602   9.536  0.0754  0.3533  0.9190
  721MOL0     C99416   2.820   5.589   9.448  0.5487  1.7050  0.4458
  721MOL0     C99417   2.929   5.514   9.484  0.2853 -0.4867  0.2068
  721MOL0     C99418   2.929   5.439   9.594 -0.5048 -0.2221 -0.6185
  721MOL0     O99419   3.042   5.353   9.623  0.4505 -0.0709  0.1844
  721MOL0     C99420   3.046   5.273   9.742  0.2699 -0.0891 -0.7783
  721MOL0     C99421   3.140   5.345   9.844 -0.1614 -0.7367 -1.0572
  721MOL0     C99422   3.110   5.488   9.859  0.3258  0.1907  0.1115
  721MOL0     C99423   3.200   5.547   9.963 -0.6633 -0.3999  1.0301
  721MOL0     C99424   3.334   5.569   9.907 -0.3186 -0.2133 -0.2559
  721MOL0     C99425   3.439   5.595   9.850 -0.3844 -0.9172  0.4487
  721MOL0     C99426   2.820   5.451   9.682 -0.1019 -0.0211 -0.6909
  721MOL0     C99427   2.710   5.539   9.659 -0.1845 -0.0818 -0.8311
  721MOL0     C99428   2.617   5.557   9.765  1.1725 -0.0167 -1.1397
  721MOL0     H99429   2.467   5.946   9.507  2.7219 -1.6090 -1.0122
  721MOL0     H99430   2.279   6.072   9.431  0.0518 -1.0157  0.9458
  721MOL0     H99431   2.091   5.934   9.358  3.4577  1.7696  0.3764
  721MOL0     H99432   2.026   5.879   9.195 -0.6383 -0.8991  1.0674
  721MOL0     H99433   1.905   6.092   9.186 -3.5512  1.5801  1.7949
  721MOL0     H99434   1.867   5.982   9.319 -0.3670 -1.3346 -1.1267
  721MOL0     H99435   1.979   6.126   9.469 -0.6722  2.2317  1.1263
  721MOL0     H99436   2.068   6.220   9.354  0.5968 -0.2467  1.9056
  721MOL0     H99437   1.792   6.280   9.284  1.4443 -4.6597 -0.8445
  721MOL0     H99438   1.767   6.219   9.440 -2.3523  0.2490 -1.9910
  721MOL0     H99439   1.938   6.446   9.322  0.3393  3.0461  0.4682
  721MOL0     H99440   1.953   6.410   9.496 -2.6302 -0.3538  1.6472
  721MOL0     H99441   1.731   6.485   9.544 -0.9345  1.4487 -1.1766
  721MOL0     H99442   1.813   6.610   9.465  3.9376 -0.5173 -0.6175
  721MOL0     H99443   1.624   6.431   9.312  1.4223 -1.2963  2.2311
  721MOL0     H99444   1.712   6.575   9.258 -0.0112  1.1780  0.8270
  721MOL0     H99445   1.580   6.704   9.447  2.2818  0.7330 -1.9902
  721MOL0     H99446   1.480   6.630   9.316  1.4909  0.2889 -1.0403
  721MOL0     H99447   1.539   6.629   9.679  1.1396 -1.0814 -0.5410
  721MOL0     H99448   1.420   6.572   9.882  0.4200 -1.0925  2.3977
  721MOL0     H99449   1.383   6.403   9.892 -2.5029 -0.2667  2.0511
  721MOL0     H99450   1.213   6.562   9.972  0.6218  0.1632  1.1309
  721MOL0     H99451   1.202   6.640   9.813 -2.6727 -0.9117  1.1168
  721MOL0     H99452   1.092   6.440   9.712  0.0613  3.2925  0.2831
  721MOL0     H99453   1.134   6.341   9.844  2.2906 -0.5665 -1.9642
  721MOL0     H99454   0.900   6.394   9.832  1.0690 -3.2959  3.2885
  721MOL0     H99455   0.964   6.477   9.981 -0.4851  0.2864 -0.5484
  721MOL0     H99456   0.705   6.480   9.848 -2.7583  0.3283 -0.4877
  721MOL0     H99457   0.451   6.504  10.024  1.2929  2.2153  1.2315
  721MOL0     H99458   0.477   6.475   9.854  1.4662  2.5413 -1.6105
  721MOL0     H99459   0.357   6.595   9.897 -1.9694 -3.4578 -0.2184
  721MOL0     H99460   0.110   6.854   9.978  0.4078 -0.5940  1.5305
  721MOL0     H99461  -0.031   7.002  10.078  2.6916 -2.3880  2.7185
  721MOL0     H99462   0.147   7.384  10.202  0.4357  1.2132  0.0244
  721MOL0     H99463   0.026   7.479  10.124 -0.0204  0.0398 -0.1031
  721MOL0     H99464  -0.149   7.385  10.281 -0.9879 -2.2439  1.9662
  721MOL0     H99465  -0.023   7.288  10.353 -3.1327 -0.1338  0.5349
  721MOL0     H99466   0.105   7.480  10.408 -0.2808  0.5661  0.4771
  721MOL0     H99467  -0.038   7.458  10.506 -1.3727 -3.0593 -0.6644
  721MOL0     H99468  -0.162   7.626  10.369 -0.5135 -0.5635 -2.2330
  721MOL0     H99469  -0.030   7.644  10.260  0.6409 -1.3451 -0.3771
  721MOL0     H99470  -0.057   7.824  10.439 -0.2126 -1.7018 -3.9676
  721MOL0     H99471  -0.023   7.690  10.558 -1.1929 -0.7553 -0.9677
  721MOL0     H99472   0.210   7.683  10.449  0.1336  1.0318  0.6056
  721MOL0     H99473   0.174   7.829  10.547  1.5417 -0.3468  1.0143
  721MOL0     H99474   0.117   7.950  10.339 -0.8941  0.2484 -2.9944
  721MOL0     H99475   0.178   7.820  10.244  1.4819  0.5526 -1.2605
  721MOL0     H99476   0.345   7.961  10.229  1.6022 -0.6500  0.8507
  721MOL0     H99477   0.406   7.856  10.365 -1.3236  0.3950  0.6891
  721MOL0     H99478   0.234   7.333  10.019  0.6119 -1.4668  1.0178
  721MOL0     H99479   0.394   7.184   9.908  0.2599 -1.5917  0.9993
  721MOL0     H99480   0.681   6.966   9.943  0.9338 -0.0046 -0.3534
  721MOL0     H99481   0.886   6.871   9.879  0.0521  1.8335  1.4431
  721MOL0     H99482   2.284   5.824   9.071  0.8422  0.8182  0.0301
  721MOL0     H99483   2.491   5.704   9.169  0.0867  1.1994 -1.6950
  721MOL0     H99484   2.814   5.639   9.352 -0.6759  0.9881  0.1211
  721MOL0     H99485   3.015   5.507   9.418  2.1331 -1.6716  2.5925
  721MOL0     H99486   2.946   5.253   9.782 -0.2784  1.3266 -1.3662
  721MOL0     H99487   3.106   5.183   9.724  1.1816  0.3561 -0.0415
  721MOL0     H99488   3.245   5.338   9.817 -0.3599  2.2707 -3.1008
  721MOL0     H99489   3.124   5.302   9.944  3.0053  0.3030  0.0007
  721MOL0     H99490   3.121   5.544   9.766  0.5565  1.7361  1.0424
  721MOL0     H99491   3.005   5.491   9.893  0.3131  0.1434  0.0764
  721MOL0     H99492   3.219   5.486  10.051  0.0480 -2.6398 -0.5640
  721MOL0     H99493   3.158   5.642   9.998  0.6905  0.6542 -0.0600
  721MOL0     H99494   3.519   5.609   9.780 -1.9252 -5.0530 -2.4731
  721MOL0     H99495   2.818   5.404   9.780  0.4079  2.3716  0.5329
  721MOL0     H99496   2.520   5.511   9.742 -0.5540  2.9728 -0.3526
  721MOL0     H99497   2.663   5.511   9.853 -0.6435 -2.9190 -1.5690
  721MOL0     H99498   2.603   5.663   9.789  1.1309 -0.6102  1.9276
  722MOL0     O99499   6.884   9.775   2.572  0.1623 -0.2120  0.3791
  722MOL0     C99500   6.824   9.690   2.639  0.2509  0.8532  0.2242
  722MOL0     O99501   6.820   9.679   2.775 -0.0351 -0.1860  0.8787
  722MOL0     C99502   6.871   9.788   2.844  0.2614  0.8655  0.4303
  722MOL0     C99503   6.800   9.911   2.853  0.3764 -0.0596 -0.8585
  722MOL0     C99504   6.847  10.014   2.935  0.3079 -0.5036 -0.3436
  722MOL0     C99505   6.962   9.995   3.010 -0.4346  0.0867 -0.1074
  722MOL0     O99506   7.001  10.085   3.106  1.2034 -0.4835  0.6223
  722MOL0     C99507   7.058  10.038   3.234 -0.0880 -1.1781  0.4557
  722MOL0     C99508   7.096  10.150   3.325  0.5504 -0.3493 -0.1643
  722MOL0     C99509   7.145  10.109   3.467 -0.5271  0.9990 -0.2920
  722MOL0     C99510   7.284  10.064   3.447 -0.4691  0.6767 -0.0385
  722MOL0     C99511   7.346  10.032   3.575 -0.4328 -0.6101  0.7382
  722MOL0     C99512   7.500   9.996   3.572 -0.6590 -0.3472  0.1803
  722MOL0     C99513   7.606  10.109   3.572  0.0487 -0.2557 -0.6729
  722MOL0     C99514   7.747  10.065   3.620 -0.7758 -0.7958  0.7478
  722MOL0     N99515   7.810  10.188   3.641 -0.0801 -0.3316 -0.9680
  722MOL0     C99516   7.927  10.225   3.575 -0.4390 -0.2591 -0.7116
  722MOL0     C99517   7.947  10.354   3.613 -0.8006 -0.0226 -0.7229
  722MOL0     C99518   8.054  10.433   3.554  0.2232 -0.6174  0.1428
  722MOL0     C99519   8.156  10.477   3.666  0.2213 -0.1519 -0.6532
  722MOL0     C99520   8.225  10.615   3.654 -0.6467  0.0833 -0.5145
  722MOL0     C99521   8.303  10.641   3.527  0.0453 -0.1645  0.7499
  722MOL0     O99522   8.213  10.685   3.420  0.1195  0.8972  1.0150
  722MOL0     C99523   8.275  10.670   3.298 -0.6498  0.2946 -0.6250
  722MOL0     C99524   8.253  10.558   3.212  0.2154  1.0607 -0.7172
  722MOL0     C99525   8.313  10.552   3.081  0.5407 -0.6118 -0.6110
  722MOL0     C99526   8.281  10.428   3.002  0.1295  0.1324  0.1087
  722MOL0     C99527   8.388  10.668   3.038  0.0425 -0.5470 -0.3135
  722MOL0     C99528   8.428  10.672   2.904 -0.0144  0.9298  0.6106
  722MOL0     O99529   8.567  10.657   2.878  1.0075 -0.6320  0.2294
  722MOL0     C99530   8.632  10.744   2.779  0.6804  1.1179 -0.0707
  722MOL0     C99531   8.704  10.855   2.822 -0.4552  0.5638  0.9826
  722MOL0     C99532   8.756  10.947   2.726  0.0518  1.2228 -0.0231
  722MOL0     C99533   8.721  10.936   2.592 -1.1747 -0.5603  1.3496
  722MOL0     O99534   8.770  11.036   2.506  0.9081 -0.6606 -0.2894
  722MOL0     C99535   8.716  11.039   2.372  0.9488  0.0981 -0.1901
  722MOL0     C99536   8.560  11.068   2.363 -1.4906  0.7055 -0.1176
  722MOL0     C99537   8.523  11.115   2.220  0.0786 -0.4860 -0.6976
  722MOL0     C99538   8.546  11.268   2.205  0.2248  0.0995  0.5605
  722MOL0     C99539   8.518  11.319   2.062  0.7836  0.0447 -0.4939
  722MOL0     C99540   8.622  11.260   1.965  0.3271 -1.0950 -0.0502
  722MOL0     C99541   8.627  11.321   1.821  0.5135 -1.8255  0.7315
  722MOL0     C99542   8.495  11.311   1.742  0.0239  0.0300  0.1979
  722MOL0    Cl99543   8.417  11.147   1.732  0.1291 -0.8401 -0.0728
  722MOL0     C99544   8.640  10.819   2.552  0.5432 -0.1778  0.2142
  722MOL0     C99545   8.605  10.719   2.643  0.4116 -0.1816  0.1873
  722MOL0     O99546   8.338  10.700   2.820  0.1574 -0.9459 -0.6278
  722MOL0     C99547   8.405  10.780   3.116  0.3589 -0.3986 -0.1059
  722MOL0     C99548   8.352  10.777   3.248  0.4276 -0.8094 -0.9622
  722MOL0     N99549   7.851  10.396   3.702  0.6181  0.1457 -0.1107
  722MOL0     N99550   7.780  10.287   3.726 -0.0429  0.6813 -0.6890
  722MOL0     C99551   7.038   9.881   2.983 -0.2755 -0.1583  0.6442
  722MOL0     C99552   6.990   9.772   2.910 -0.4215 -0.2162  1.2822
  722MOL0     C99553   6.735   9.596   2.577  0.2018  0.4764  0.3456
  722MOL0     C99554   6.750   9.580   2.438  0.1201  0.7964 -0.6785
  722MOL0     C99555   6.656   9.507   2.364 -0.1709 -0.4683  0.2909
  722MOL0     C99556   6.544   9.457   2.427 -0.4518  0.2670 -0.1028
  722MOL0     O99557   6.431   9.394   2.373 -0.0803 -0.3851  0.3476
  722MOL0     C99558   6.417   9.382   2.229  0.6936 -0.0588  0.3707
  722MOL0     C99559   6.504   9.272   2.170 -0.3209  0.2298 -0.3752
  722MOL0     C99560   6.463   9.136   2.201  0.7977  0.8429  0.3869
  722MOL0     C99561   6.576   9.036   2.223 -0.3567  1.3963  0.7494
  722MOL0     C99562   6.661   9.008   2.103 -0.2237 -0.0676 -0.5869
  722MOL0     C99563   6.734   8.988   2.012  0.2224 -0.8698 -0.1838
  722MOL0     C99564   6.521   9.477   2.556  0.1394 -0.0953 -0.1971
  722MOL0     C99565   6.612   9.547   2.636 -0.8049 -0.1580  0.0631
  722MOL0     C99566   6.566   9.574   2.775 -1.0486  0.0945 -0.7056
  722MOL0     H99567   6.699   9.909   2.813 -0.3407  2.9580  0.5081
  722MOL0     H99568   6.785  10.102   2.950 -3.0816 -2.1662 -3.1170
  722MOL0     H99569   7.150   9.979   3.222 -0.7348 -2.3827  1.2025
  722MOL0     H99570   6.987   9.975   3.289  1.1747  0.1720  3.9020
  722MOL0     H99571   7.173  10.205   3.271 -0.2900 -1.2030 -2.3406
  722MOL0     H99572   7.009  10.214   3.342 -0.8085 -2.5399  1.8669
  722MOL0     H99573   7.141  10.196   3.533  1.1770  2.2343 -1.7202
  722MOL0     H99574   7.092  10.024   3.510 -0.0417 -0.2535 -2.0539
  722MOL0     H99575   7.296   9.982   3.376  2.8432  1.9836 -1.2308
  722MOL0     H99576   7.336  10.133   3.379 -3.7953  0.4571 -3.1320
  722MOL0     H99577   7.298   9.936   3.598 -1.6720 -0.7536 -2.0400
  722MOL0     H99578   7.334  10.114   3.646  0.5206 -0.3330  0.5960
  722MOL0     H99579   7.515   9.933   3.660 -0.3555 -0.5712 -0.0303
  722MOL0     H99580   7.514   9.934   3.483  0.3545  0.8121 -0.4972
  722MOL0     H99581   7.569  10.193   3.630 -1.0394 -1.6234  0.6916
  722MOL0     H99582   7.612  10.138   3.466 -4.0848 -2.2484 -1.6475
  722MOL0     H99583   7.744  10.017   3.719  0.8645 -2.1944  0.1693
  722MOL0     H99584   7.784  10.005   3.537  0.0777  1.6562 -0.7440
  722MOL0     H99585   7.979  10.177   3.493 -0.7540  0.1656 -1.1694
  722MOL0     H99586   8.012  10.520   3.502  0.2699 -1.3050 -1.0787
  722MOL0     H99587   8.102  10.374   3.476  0.8889 -0.7737  0.6609
  722MOL0     H99588   8.098  10.495   3.757 -1.1713 -3.3365 -0.7812
  722MOL0     H99589   8.230  10.401   3.690 -0.5099 -0.5346  0.4606
  722MOL0     H99590   8.152  10.696   3.660 -2.5056 -1.5239 -0.4172
  722MOL0     H99591   8.289  10.611   3.742 -0.4822 -2.3215 -0.6678
  722MOL0     H99592   8.362  10.731   3.547 -1.2235  1.2387 -1.3430
  722MOL0     H99593   8.366  10.562   3.487 -0.3038  1.3858 -3.3898
  722MOL0     H99594   8.192  10.473   3.243 -1.2640  1.0894 -3.2485
  722MOL0     H99595   8.205  10.454   2.928  0.6250 -2.0705 -1.2677
  722MOL0     H99596   8.247  10.344   3.063  0.8896 -0.7596 -0.6657
  722MOL0     H99597   8.378  10.418   2.952 -0.3366  2.1763 -1.3393
  722MOL0     H99598   8.715  10.885   2.926 -0.5406 -0.6279  1.3497
  722MOL0     H99599   8.815  11.033   2.752 -0.1729  0.7652  2.2292
  722MOL0     H99600   8.774  11.103   2.305  2.5725  0.0432  1.1061
  722MOL0     H99601   8.730  10.944   2.319 -2.2395 -0.1677 -0.7706
  722MOL0     H99602   8.504  10.979   2.392 -1.3120  0.5855 -0.1413
  722MOL0     H99603   8.542  11.150   2.433 -2.7837 -0.4101  0.9194
  722MOL0     H99604   8.416  11.093   2.220  0.1130 -0.6587 -0.5919
  722MOL0     H99605   8.570  11.058   2.140  0.5394 -1.4575  0.2351
  722MOL0     H99606   8.643  11.304   2.240  0.6069  0.3548 -0.6908
  722MOL0     H99607   8.468  11.297   2.276 -1.7910  0.7224 -1.7724
  722MOL0     H99608   8.413  11.299   2.036  0.6093 -0.5204  0.6137
  722MOL0     H99609   8.522  11.428   2.064  1.3123  0.0113  0.2339
  722MOL0     H99610   8.592  11.155   1.962  1.5512 -1.4648 -0.2557
  722MOL0     H99611   8.725  11.263   2.003 -0.2185  1.7452  1.5268
  722MOL0     H99612   8.698  11.275   1.751 -1.0554 -3.4338  0.0927
  722MOL0     H99613   8.653  11.427   1.831  2.5354 -2.3350  1.2080
  722MOL0     H99614   8.503  11.364   1.646 -1.2967 -0.7927 -0.3890
  722MOL0     H99615   8.422  11.369   1.799 -1.1423 -2.3822  1.2860
  722MOL0     H99616   8.631  10.797   2.445 -1.3558  0.8901  0.0993
  722MOL0     H99617   8.548  10.628   2.628 -0.4496  0.5178 -0.9760
  722MOL0     H99618   8.440  10.874   3.073 -1.8589  0.4459 -0.1992
  722MOL0     H99619   8.360  10.867   3.309 -3.6675  0.6217 -2.2067
  722MOL0     H99620   7.132   9.867   3.036  3.2940  4.7143 -3.4551
  722MOL0     H99621   7.037   9.678   2.885  1.1750  0.0196  3.1286
  722MOL0     H99622   6.832   9.630   2.389  2.0011 -2.4836 -1.1772
  722MOL0     H99623   6.665   9.498   2.257 -0.8399  0.9705  0.0850
  722MOL0     H99624   6.312   9.355   2.215  1.3650 -1.9326 -1.4840
  722MOL0     H99625   6.434   9.482   2.188 -1.1937  1.7619  3.5489
  722MOL0     H99626   6.608   9.290   2.201 -0.5876  0.6562  0.2904
  722MOL0     H99627   6.502   9.273   2.061  2.5739  1.6809 -0.5063
  722MOL0     H99628   6.393   9.135   2.285 -2.8673 -0.8131 -2.4374
  722MOL0     H99629   6.403   9.119   2.112  1.1138  2.4249 -0.1570
  722MOL0     H99630   6.540   8.938   2.255 -0.9227  0.9389 -1.1561
  722MOL0     H99631   6.637   9.095   2.292 -0.1917  3.6333 -1.1742
  722MOL0     H99632   6.777   8.984   1.915  0.6874 -1.4226  0.0419
  722MOL0     H99633   6.427   9.443   2.598  1.2000 -1.1174  1.4616
  722MOL0     H99634   6.468   9.537   2.807  0.4181 -2.4314  1.2096
  722MOL0     H99635   6.636   9.532   2.847 -1.0106  1.1433 -0.1166
  722MOL0     H99636   6.558   9.681   2.795  0.7510  0.2649 -0.7769
  723MOL0     O99637   0.917   1.618   7.235  0.1170  0.0072 -0.0074
  723MOL0     C99638   0.969   1.732   7.229 -0.2279 -0.5503  0.4842
  723MOL0     O99639   1.100   1.754   7.214 -0.4556  0.3028 -0.5869
  723MOL0     C99640   1.195   1.660   7.245 -0.1119  0.4887  1.2967
  723MOL0     C99641   1.282   1.609   7.148  0.3704 -0.2450 -0.1974
  723MOL0     C99642   1.384   1.521   7.188  0.1911 -0.7383  0.7360
  723MOL0     C99643   1.414   1.485   7.311  0.3046 -0.4595  0.6129
  723MOL0     O99644   1.527   1.405   7.330  0.3728 -0.1639 -0.2332
  723MOL0     C99645   1.535   1.316   7.439  0.4405 -0.2238  0.1137
  723MOL0     C99646   1.606   1.395   7.554 -0.1699  0.7570 -0.2535
  723MOL0     C99647   1.757   1.353   7.546  0.4696 -0.0566 -0.3424
  723MOL0     C99648   1.843   1.438   7.642 -0.3434 -0.5589  0.2100
  723MOL0     C99649   1.995   1.396   7.648  0.7624 -0.2603  0.3063
  723MOL0     C99650   2.082   1.470   7.753 -0.5397 -0.2299  0.3158
  723MOL0     C99651   2.111   1.610   7.699  0.4357  0.2670  0.0903
  723MOL0     C99652   2.237   1.669   7.764  0.1889 -0.6706  0.2579
  723MOL0     N99653   2.227   1.819   7.749  0.2654 -0.4097 -0.2392
  723MOL0     C99654   2.338   1.893   7.776  0.4492 -0.0681  0.2095
  723MOL0     C99655   2.297   2.023   7.764  0.6962 -0.6634 -0.4461
  723MOL0     C99656   2.367   2.150   7.797  0.0375 -0.0880  0.3402
  723MOL0     C99657   2.452   2.186   7.680  0.2523 -0.6363  0.2362
  723MOL0     C99658   2.578   2.104   7.655  0.2141  0.0661  1.2292
  723MOL0     C99659   2.694   2.130   7.754 -0.2497  0.2413 -0.1188
  723MOL0     O99660   2.667   2.066   7.877  0.3741  0.2350  0.1925
  723MOL0     C99661   2.668   2.124   8.000  0.5391  0.2246 -0.0546
  723MOL0     C99662   2.693   2.257   8.034  0.6432  0.1274 -0.2635
  723MOL0     C99663   2.682   2.294   8.171  0.2214 -0.0259 -0.3919
  723MOL0     C99664   2.707   2.446   8.212 -0.4174 -0.4537  0.1432
  723MOL0     C99665   2.666   2.196   8.270  0.2548 -0.4111 -0.6259
  723MOL0     C99666   2.666   2.222   8.419 -0.2902 -0.0291  1.1337
  723MOL0     O99667   2.566   2.159   8.482  0.2327 -0.1650 -0.5999
  723MOL0     C99668   2.585   2.143   8.619 -0.2776  1.3329  0.3098
  723MOL0     C99669   2.535   2.228   8.706 -0.4086 -0.0011  0.4633
  723MOL0     C99670   2.546   2.201   8.841 -0.5399  0.3706  0.3124
  723MOL0     C99671   2.601   2.084   8.890 -1.1830  0.5015 -0.5527
  723MOL0     O99672   2.607   2.046   9.023  1.3911  1.1502  0.0217
  723MOL0     C99673   2.540   2.132   9.109  0.7188  0.5125  0.1474
  723MOL0     C99674   2.544   2.063   9.251  0.3110  0.7176  0.2794
  723MOL0     C99675   2.441   1.942   9.260  0.1744  0.1903 -0.8140
  723MOL0     C99676   2.484   1.826   9.162 -0.1032 -0.5143  0.7077
  723MOL0     C99677   2.404   1.705   9.177 -0.1689 -0.7550 -0.0275
  723MOL0     C99678   2.444   1.627   9.307 -0.0689  0.0249  0.0742
  723MOL0     C99679   2.386   1.486   9.337 -0.4828 -0.8209  0.4534
  723MOL0     C99680   2.233   1.480   9.324  0.2353 -0.8420  0.0486
  723MOL0    Cl99681   2.181   1.319   9.271 -0.4460 -0.1065 -0.2605
  723MOL0     C99682   2.656   1.995   8.800  0.4006  0.0299 -0.3026
  723MOL0     C99683   2.646   2.021   8.660 -0.7090  0.0601  0.1492
  723MOL0     O99684   2.757   2.279   8.472  0.2488 -0.4846 -0.3491
  723MOL0     C99685   2.653   2.063   8.234  0.3501 -0.0819 -0.4056
  723MOL0     C99686   2.646   2.026   8.107  0.0755  0.9243  0.2535
  723MOL0     N99687   2.159   2.023   7.739 -0.4856 -0.1264  0.0373
  723MOL0     N99688   2.118   1.901   7.732  0.2056  0.4692 -0.3516
  723MOL0     C99689   1.325   1.533   7.407  0.2805 -0.3470 -0.4204
  723MOL0     C99690   1.217   1.616   7.376  0.8764 -0.0958 -0.7768
  723MOL0     C99691   0.880   1.845   7.177 -0.4435  0.0056 -1.2736
  723MOL0     C99692   0.925   1.911   7.066  0.1834 -0.2221  0.1145
  723MOL0     C99693   0.845   2.007   7.004  1.3587  0.1073  0.3297
  723MOL0     C99694   0.719   2.050   7.053  0.4751  0.2451 -1.0635
  723MOL0     O99695   0.630   2.137   6.995 -0.1793  0.0050 -0.0167
  723MOL0     C99696   0.659   2.192   6.866 -0.4472  0.6226  0.1341
  723MOL0     C99697   0.563   2.307   6.838  0.2542 -0.6372 -0.3232
  723MOL0     C99698   0.416   2.250   6.829  0.7106  0.5174  0.5475
  723MOL0     C99699   0.294   2.353   6.816 -0.3657 -0.0640  1.2250
  723MOL0     C99700   0.288   2.409   6.682  0.5230 -0.0254  0.1269
  723MOL0     C99701   0.285   2.445   6.567 -0.8601  0.4691  0.0063
  723MOL0     C99702   0.680   1.985   7.167 -0.5310  0.5784  0.0955
  723MOL0     C99703   0.756   1.883   7.231  0.4820 -1.3482 -0.1825
  723MOL0     C99704   0.715   1.828   7.366  0.6379  0.3408  0.0907
  723MOL0     H99705   1.281   1.654   7.049  3.1800 -0.1105 -0.2299
  723MOL0     H99706   1.450   1.480   7.112  2.0791  1.5710  1.0205
  723MOL0     H99707   1.586   1.224   7.410 -3.4114 -2.0789 -1.4496
  723MOL0     H99708   1.437   1.286   7.477  1.9446 -1.1782  3.6101
  723MOL0     H99709   1.595   1.502   7.534  1.3992  0.9207 -0.3436
  723MOL0     H99710   1.569   1.374   7.654  1.4108 -1.0997 -0.0088
  723MOL0     H99711   1.778   1.248   7.568 -0.4112  0.1024  1.4583
  723MOL0     H99712   1.783   1.372   7.441  0.3930  0.5013 -0.2681
  723MOL0     H99713   1.838   1.544   7.615 -0.2383 -0.3167  1.1072
  723MOL0     H99714   1.802   1.426   7.743  0.2724 -1.0413  0.4037
  723MOL0     H99715   2.037   1.393   7.548 -1.1452 -2.3161 -0.5238
  723MOL0     H99716   1.999   1.293   7.686 -0.7607 -1.6329 -2.8763
  723MOL0     H99717   2.042   1.456   7.854 -0.4619 -3.6002 -0.0250
  723MOL0     H99718   2.181   1.423   7.756  0.1535  0.9352 -1.9842
  723MOL0     H99719   2.030   1.674   7.736 -0.0494 -1.8641  3.1295
  723MOL0     H99720   2.121   1.601   7.591 -2.0598  2.1990 -0.3861
  723MOL0     H99721   2.241   1.657   7.872 -2.2287  0.2145  0.5244
  723MOL0     H99722   2.331   1.633   7.722 -0.3476 -3.1377  1.0102
  723MOL0     H99723   2.431   1.850   7.812 -0.2766 -1.3844  0.5680
  723MOL0     H99724   2.428   2.142   7.887 -0.4736 -2.0615  0.5607
  723MOL0     H99725   2.295   2.232   7.800 -0.4531 -0.3263 -2.4126
  723MOL0     H99726   2.384   2.180   7.595 -0.8264 -1.3284  1.1055
  723MOL0     H99727   2.473   2.292   7.693  1.0269 -0.6828 -0.5999
  723MOL0     H99728   2.546   1.999   7.652 -2.4959  0.7826 -3.1821
  723MOL0     H99729   2.604   2.132   7.553 -1.8328 -0.5783  0.4864
  723MOL0     H99730   2.787   2.082   7.724  0.6248  2.3922 -1.0402
  723MOL0     H99731   2.712   2.238   7.750 -3.2975  0.8712 -4.9978
  723MOL0     H99732   2.723   2.333   7.963 -0.2495  0.7266 -0.0197
  723MOL0     H99733   2.630   2.509   8.257  0.3419 -0.7338  1.9054
  723MOL0     H99734   2.739   2.484   8.114  1.9495 -5.5170 -1.3783
  723MOL0     H99735   2.794   2.461   8.277  0.0506 -3.5966  0.3704
  723MOL0     H99736   2.481   2.321   8.687  1.1778  1.9451  4.2232
  723MOL0     H99737   2.509   2.274   8.911 -2.3441  0.6351 -0.8428
  723MOL0     H99738   2.594   2.226   9.117  0.2308  0.6341  4.4045
  723MOL0     H99739   2.437   2.139   9.072  0.5946 -1.2937  0.0610
  723MOL0     H99740   2.647   2.036   9.274  0.8069 -0.3544 -2.8214
  723MOL0     H99741   2.513   2.138   9.326 -1.5344 -0.1857  0.4778
  723MOL0     H99742   2.341   1.982   9.240  0.5908  1.8102  0.0917
  723MOL0     H99743   2.430   1.907   9.363 -0.4320  1.5672 -0.3867
  723MOL0     H99744   2.593   1.818   9.169  0.1193  0.9096 -0.6282
  723MOL0     H99745   2.458   1.845   9.057  2.1253 -2.0892 -0.2330
  723MOL0     H99746   2.299   1.731   9.193 -0.6093 -2.3955 -0.0650
  723MOL0     H99747   2.411   1.641   9.088  1.0223  1.5461 -1.6808
  723MOL0     H99748   2.420   1.686   9.396  1.8540  0.8926  0.0469
  723MOL0     H99749   2.552   1.609   9.305  0.1109  0.7887  1.3869
  723MOL0     H99750   2.416   1.451   9.437 -3.8655  0.0070  1.8886
  723MOL0     H99751   2.436   1.433   9.255  2.0593  1.5810  0.3039
  723MOL0     H99752   2.200   1.549   9.246  0.6531 -0.2215  0.4149
  723MOL0     H99753   2.178   1.505   9.416 -1.9553 -0.9884 -1.1565
  723MOL0     H99754   2.698   1.909   8.850  0.8603  0.0836 -0.5904
  723MOL0     H99755   2.692   1.944   8.598 -4.2449 -1.4181 -0.8826
  723MOL0     H99756   2.654   1.978   8.302 -0.2254 -3.2375 -4.0114
  723MOL0     H99757   2.640   1.920   8.081 -2.1354  1.3568 -1.2946
  723MOL0     H99758   1.324   1.502   7.511  0.9917 -0.7077 -0.5103
  723MOL0     H99759   1.138   1.646   7.444 -0.4187  0.5831 -2.4917
  723MOL0     H99760   1.016   1.879   7.017 -0.3842 -0.6032 -0.7102
  723MOL0     H99761   0.889   2.039   6.911 -0.0660 -1.2947 -0.8956
  723MOL0     H99762   0.767   2.207   6.851 -0.5883 -1.2654 -4.7905
  723MOL0     H99763   0.626   2.114   6.797 -2.0909  1.7225 -0.3771
  723MOL0     H99764   0.571   2.361   6.743  1.1638 -1.3425 -0.6609
  723MOL0     H99765   0.562   2.383   6.917 -0.4259 -1.1790  0.2037
  723MOL0     H99766   0.411   2.177   6.748  2.0366 -0.3468  1.2044
  723MOL0     H99767   0.401   2.195   6.923  2.5960  0.5838  0.9329
  723MOL0     H99768   0.299   2.437   6.886  1.4977  1.9080 -1.1310
  723MOL0     H99769   0.197   2.308   6.841 -2.5617  4.5843  2.1171
  723MOL0     H99770   0.278   2.501   6.476 -0.0900  1.6793  0.6599
  723MOL0     H99771   0.592   2.013   7.223  0.5167  1.5592  1.3186
  723MOL0     H99772   0.683   1.724   7.359 -1.7165  0.9742  0.5543
  723MOL0     H99773   0.797   1.846   7.436 -0.6088  0.0715  1.6844
  723MOL0     H99774   0.626   1.868   7.415 -1.1749 -1.0035 -1.9224
  724MOL0     O99775   5.629   6.589   0.856  0.5712 -0.1244  0.3690
  724MOL0     C99776   5.563   6.646   0.942 -0.7491  0.4081 -1.4434
  724MOL0     O99777   5.431   6.681   0.927 -0.0378  0.3948 -0.2584
  724MOL0     C99778   5.367   6.658   0.808 -0.8768 -0.1994 -0.6173
  724MOL0     C99779   5.309   6.774   0.748 -0.0695 -0.7545  0.0897
  724MOL0     C99780   5.239   6.748   0.629  0.4192  0.0515  0.5100
  724MOL0     C99781   5.234   6.616   0.569  0.5650  0.2704  0.0385
  724MOL0     O99782   5.171   6.592   0.449  0.1832 -0.1352  0.5018
  724MOL0     C99783   5.134   6.709   0.371  0.0792 -0.0164  0.3856
  724MOL0     C99784   5.117   6.663   0.220 -0.3046 -0.9609 -0.7160
  724MOL0     C99785   4.978   6.625   0.162  0.6348  0.0169 -0.0657
  724MOL0     C99786   4.926   6.497   0.238 -0.3312 -0.4516  0.1260
  724MOL0     C99787   4.783   6.456   0.213 -0.0693 -0.1047 -0.8931
  724MOL0     C99788   4.771   6.394   0.081  0.2622 -0.2515 -0.1432
  724MOL0     C99789   4.623   6.385   0.034  0.8176 -0.3334 -0.2915
  724MOL0     C99790   4.584   6.276  -0.062  0.3918 -0.6243  0.8716
  724MOL0     N99791   4.459   6.318  -0.136 -0.1088 -0.5101  0.3531
  724MOL0     C99792   4.344   6.339  -0.072  0.9487 -0.4986  0.6592
  724MOL0     C99793   4.259   6.361  -0.162  0.6143 -0.2609  0.2095
  724MOL0     C99794   4.121   6.426  -0.152  0.2465 -0.4495 -0.4833
  724MOL0     C99795   4.006   6.325  -0.159 -0.1360  0.5290  0.6089
  724MOL0     C99796   3.976   6.310  -0.303  0.1758 -0.0547 -0.1415
  724MOL0     C99797   3.872   6.206  -0.321  0.4315  0.5665  0.4239
  724MOL0     O99798   3.849   6.153  -0.453 -0.0293  0.3746  0.4182
  724MOL0     C99799   3.952   6.083  -0.525  0.8277 -0.0367  0.1644
  724MOL0     C99800   4.072   6.027  -0.474  0.4774  0.3563 -0.2212
  724MOL0     C99801   4.165   5.980  -0.562 -0.3222  0.1189 -0.6005
  724MOL0     C99802   4.287   5.918  -0.493 -0.1325  0.0050 -0.2957
  724MOL0     C99803   4.144   5.974  -0.696 -0.4812 -0.1059 -0.5351
  724MOL0     C99804   4.254   5.933  -0.795 -0.6626 -0.0545 -0.1231
  724MOL0     O99805   4.384   5.913  -0.746  0.2210 -0.6660 -0.2059
  724MOL0     C99806   4.492   5.943  -0.824 -0.2394 -0.6129 -0.6107
  724MOL0     C99807   4.610   5.871  -0.802  0.9081  0.5047 -0.6247
  724MOL0     C99808   4.730   5.914  -0.863 -0.4788  0.1042  0.2924
  724MOL0     C99809   4.734   6.020  -0.960 -0.2396  0.4887  0.7869
  724MOL0     O99810   4.837   6.066  -1.028 -0.3615  0.8823 -0.3355
  724MOL0     C99811   4.962   6.070  -0.961 -0.0924 -0.0539 -0.2359
  724MOL0     C99812   5.059   6.101  -1.073  0.1058 -0.2152  0.3562
  724MOL0     C99813   5.193   6.155  -1.011 -0.0311 -0.0223 -0.1602
  724MOL0     C99814   5.285   6.223  -1.113  0.2511 -0.3080  0.8481
  724MOL0     C99815   5.252   6.362  -1.171  0.6198  0.3180  0.0333
  724MOL0     C99816   5.268   6.485  -1.073 -0.3250  0.3467 -0.4901
  724MOL0     C99817   5.241   6.615  -1.149 -0.0593 -0.3274 -0.2968
  724MOL0     C99818   5.242   6.740  -1.063  0.4481  0.5651  0.4904
  724MOL0    Cl99819   5.414   6.767  -0.999  0.0458 -0.1505 -0.0407
  724MOL0     C99820   4.616   6.088  -0.984 -0.6816 -0.5330 -0.9534
  724MOL0     C99821   4.503   6.054  -0.911 -0.1380 -1.8209 -0.1383
  724MOL0     O99822   4.226   5.940  -0.913 -0.2492  0.5442  0.1291
  724MOL0     C99823   4.021   6.018  -0.746 -0.3597 -0.7597  0.2736
  724MOL0     C99824   3.927   6.077  -0.666 -0.3962  0.3397  0.0243
  724MOL0     N99825   4.325   6.356  -0.285 -0.0726  0.1564  0.1116
  724MOL0     N99826   4.444   6.318  -0.264 -0.3962  1.1256  0.2483
  724MOL0     C99827   5.287   6.501   0.631 -0.4794  0.4080 -0.7523
  724MOL0     C99828   5.351   6.524   0.755 -0.4579 -0.0666 -0.6609
  724MOL0     C99829   5.642   6.707   1.062  0.3760  0.3361 -0.0463
  724MOL0     C99830   5.562   6.787   1.158 -0.1865 -0.0513 -0.2106
  724MOL0     C99831   5.620   6.831   1.279 -0.4708 -0.6779  0.5533
  724MOL0     C99832   5.751   6.799   1.317  0.9022 -0.0121  0.0016
  724MOL0     O99833   5.809   6.829   1.440  0.1228  0.0318 -0.2821
  724MOL0     C99834   5.729   6.850   1.558  0.3883  0.2846 -0.9454
  724MOL0     C99835   5.807   6.838   1.696  0.7067  0.0384 -0.2528
  724MOL0     C99836   5.911   6.949   1.703  0.7772 -0.0962 -1.6847
  724MOL0     C99837   5.873   7.089   1.655  0.0181  0.1950 -0.5014
  724MOL0     C99838   5.755   7.142   1.733  0.0019  0.1672  0.5242
  724MOL0     C99839   5.664   7.185   1.795 -0.7525  0.4642  0.3242
  724MOL0     C99840   5.830   6.730   1.221  0.6751  0.6455 -0.1017
  724MOL0     C99841   5.785   6.688   1.097  0.6572  0.3043  0.3044
  724MOL0     C99842   5.889   6.617   1.002  0.0173  0.1834  0.1489
  724MOL0     H99843   5.308   6.877   0.783  3.3852 -0.8867  0.9833
  724MOL0     H99844   5.198   6.836   0.583  1.2169  0.8996  1.3804
  724MOL0     H99845   5.221   6.776   0.372  1.9157 -2.1304 -2.6187
  724MOL0     H99846   5.040   6.750   0.410 -1.2836 -0.4061 -2.2435
  724MOL0     H99847   5.149   6.749   0.160 -2.2389  0.1367 -0.2461
  724MOL0     H99848   5.183   6.577   0.208  1.1097 -0.1833  0.9756
  724MOL0     H99849   4.909   6.710   0.163  0.8734  0.2263  1.5584
  724MOL0     H99850   4.992   6.595   0.058 -2.0392  1.4863 -0.9416
  724MOL0     H99851   4.986   6.410   0.209 -1.5061 -1.0177 -0.7111
  724MOL0     H99852   4.933   6.528   0.342  1.0394  3.7852 -1.0140
  724MOL0     H99853   4.717   6.540   0.235  1.8285  1.5559 -1.1945
  724MOL0     H99854   4.753   6.385   0.290  1.1980  0.6177  0.3214
  724MOL0     H99855   4.827   6.446   0.003 -2.0133  0.1000 -1.6136
  724MOL0     H99856   4.798   6.289   0.092  2.2493 -0.1386 -2.9232
  724MOL0     H99857   4.590   6.482  -0.004  1.3945  0.5035  1.2486
  724MOL0     H99858   4.563   6.376   0.125 -1.1169  2.4467 -1.1549
  724MOL0     H99859   4.661   6.270  -0.139 -2.2665  1.4577 -2.2122
  724MOL0     H99860   4.579   6.184  -0.003 -0.2159 -0.7260  0.6682
  724MOL0     H99861   4.326   6.339   0.035  0.7628  0.3189  0.6310
  724MOL0     H99862   4.120   6.488  -0.241  1.7391  0.9653  0.4277
  724MOL0     H99863   4.118   6.493  -0.065 -1.4153 -0.5142 -0.4510
  724MOL0     H99864   4.021   6.236  -0.098 -1.1032  1.4896  2.3283
  724MOL0     H99865   3.911   6.365  -0.123 -2.0537  0.1556 -3.4780
  724MOL0     H99866   3.926   6.401  -0.339 -1.0926 -1.4598 -2.1412
  724MOL0     H99867   4.061   6.280  -0.365 -0.1507 -1.7780  0.1996
  724MOL0     H99868   3.886   6.122  -0.252  1.6440 -0.3340 -0.8562
  724MOL0     H99869   3.777   6.250  -0.288  0.4435  0.8550  0.0778
  724MOL0     H99870   4.079   6.025  -0.366 -0.2890 -1.2782 -0.1681
  724MOL0     H99871   4.315   5.822  -0.536  1.1035 -0.1586  0.7967
  724MOL0     H99872   4.257   5.900  -0.389 -0.5683 -0.3031 -0.4714
  724MOL0     H99873   4.375   5.982  -0.491 -0.0596 -0.0979 -0.2105
  724MOL0     H99874   4.600   5.785  -0.737 -1.7397  0.5698 -0.8179
  724MOL0     H99875   4.817   5.855  -0.834 -0.1581  1.5131  2.4162
  724MOL0     H99876   4.953   6.144  -0.881  0.2100 -1.0021  0.6922
  724MOL0     H99877   4.996   5.978  -0.913 -2.5589 -0.6479  0.5069
  724MOL0     H99878   5.078   6.017  -1.141 -2.6896  0.3957 -1.3338
  724MOL0     H99879   5.012   6.173  -1.141 -0.4966  0.0956  1.0829
  724MOL0     H99880   5.247   6.078  -0.955 -1.4766 -2.5767 -2.1035
  724MOL0     H99881   5.169   6.236  -0.941 -0.5269  0.6492 -1.0788
  724MOL0     H99882   5.301   6.157  -1.199  1.5168  1.5957 -0.4458
  724MOL0     H99883   5.383   6.228  -1.065  0.8461 -3.2695  0.1424
  724MOL0     H99884   5.303   6.383  -1.265  0.1514  4.8656  0.5562
  724MOL0     H99885   5.148   6.374  -1.203  0.7738  0.1415 -0.5391
  724MOL0     H99886   5.369   6.479  -1.030  0.9078 -1.9573 -3.3833
  724MOL0     H99887   5.201   6.470  -0.988  1.6588 -1.7182  0.8605
  724MOL0     H99888   5.142   6.598  -1.191  0.3382 -1.7934 -0.7078
  724MOL0     H99889   5.318   6.638  -1.224  1.3373  1.8146  1.6748
  724MOL0     H99890   5.176   6.733  -0.976 -0.1141 -2.2204 -0.0653
  724MOL0     H99891   5.214   6.830  -1.117  0.4639  0.5268  0.4179
  724MOL0     H99892   4.617   6.166  -1.059  4.6425  0.1574 -0.5407
  724MOL0     H99893   4.420   6.123  -0.919  0.5358 -0.9661  0.1381
  724MOL0     H99894   3.994   6.017  -0.851  0.7999 -1.4435 -0.0462
  724MOL0     H99895   3.827   6.100  -0.701 -0.5251  0.7376  0.6468
  724MOL0     H99896   5.288   6.400   0.592 -1.7185  0.5619 -1.2484
  724MOL0     H99897   5.386   6.431   0.800 -2.0457 -0.6162 -0.5198
  724MOL0     H99898   5.462   6.823   1.134 -0.3982 -0.1877  0.4391
  724MOL0     H99899   5.541   6.878   1.336 -1.1780 -0.1631 -0.8145
  724MOL0     H99900   5.691   6.953   1.550  2.9012  1.1863 -2.3287
  724MOL0     H99901   5.648   6.778   1.573  2.5306 -1.6645  2.2610
  724MOL0     H99902   5.855   6.741   1.710 -3.7007 -2.0003  3.0440
  724MOL0     H99903   5.732   6.840   1.776  0.7141 -2.2893 -0.1320
  724MOL0     H99904   5.949   6.962   1.805 -0.9290 -3.1490 -0.5415
  724MOL0     H99905   5.995   6.907   1.647  2.4883 -1.1922  1.4517
  724MOL0     H99906   5.852   7.082   1.548 -0.4399  0.1276 -0.4096
  724MOL0     H99907   5.957   7.158   1.660  0.7489 -0.7330  0.9646
  724MOL0     H99908   5.571   7.221   1.833  0.4218  1.2911  2.6003
  724MOL0     H99909   5.929   6.694   1.246  0.7105  0.8256  0.0190
  724MOL0     H99910   5.960   6.569   1.070  1.5505 -2.0158 -2.7179
  724MOL0     H99911   5.849   6.532   0.946  0.2634 -0.5693  1.0873
  724MOL0     H99912   5.941   6.688   0.936  0.0994  3.2991  3.2659
  725MOL0     O99913   2.493  11.371   4.840 -0.2139  0.4680  0.1727
  725MOL0     C99914   2.493  11.293   4.747 -0.8143 -0.9943  0.1877
  725MOL0     O99915   2.385  11.244   4.673  0.0482  0.2226 -0.8002
  725MOL0     C99916   2.256  11.269   4.712  0.5717  0.7508 -0.1893
  725MOL0     C99917   2.161  11.171   4.694 -0.3975 -0.3422  0.3392
  725MOL0     C99918   2.023  11.181   4.720  0.5132 -0.2954  0.8130
  725MOL0     C99919   1.969  11.303   4.768 -0.6660  0.0301  1.3681
  725MOL0     O99920   1.846  11.312   4.818  0.3042  0.0997  0.4437
  725MOL0     C99921   1.761  11.426   4.790 -0.0650  0.6608  0.0098
  725MOL0     C99922   1.661  11.442   4.901 -0.7214  0.7864 -0.2332
  725MOL0     C99923   1.577  11.567   4.876 -0.1508  0.9599  0.5741
  725MOL0     C99924   1.494  11.601   4.994 -0.1717  0.1754 -0.7360
  725MOL0     C99925   1.431  11.738   4.987  0.0601 -0.2140  0.0356
  725MOL0     C99926   1.338  11.762   5.098 -0.0851 -0.8125 -0.7129
  725MOL0     C99927   1.258  11.892   5.096  0.8246  0.1367 -0.0813
  725MOL0     C99928   1.174  11.928   5.221 -1.2728 -0.2097  0.5420
  725MOL0     N99929   1.100  12.051   5.211  0.0758  0.3897 -0.3425
  725MOL0     C99930   1.011  12.083   5.115 -0.0905  0.8647 -0.2611
  725MOL0     C99931   0.954  12.192   5.154  0.2804  0.7512 -0.3249
  725MOL0     C99932   0.842  12.252   5.073 -0.3947 -0.7205  0.6722
  725MOL0     C99933   0.712  12.192   5.121  0.4627  0.1831  0.0773
  725MOL0     C99934   0.672  12.242   5.269  0.0669 -0.4374  0.2926
  725MOL0     C99935   0.619  12.380   5.263  0.1872 -0.3631  0.7609
  725MOL0     O99936   0.510  12.378   5.165 -0.1531  1.0525 -0.0287
  725MOL0     C99937   0.464  12.501   5.121  0.0067 -0.1288  0.4268
  725MOL0     C99938   0.440  12.617   5.198 -0.4551  0.8160  0.4273
  725MOL0     C99939   0.359  12.719   5.153 -0.2903 -0.3466  0.1455
  725MOL0     C99940   0.337  12.843   5.245  0.5427  0.9259  0.2566
  725MOL0     C99941   0.294  12.715   5.027 -0.8684  0.5927  0.9573
  725MOL0     C99942   0.204  12.826   4.979 -0.1980  0.3916 -0.6463
  725MOL0     O99943   0.228  12.904   4.867 -0.1314  0.8214  0.3584
  725MOL0     C99944   0.357  12.909   4.815 -1.1605 -0.0731  0.1625
  725MOL0     C99945   0.468  12.963   4.887  0.5233  0.2886  0.0211
  725MOL0     C99946   0.598  12.977   4.849  0.1994  0.1292 -0.0499
  725MOL0     C99947   0.626  12.947   4.712 -0.3041  0.3186 -0.3824
  725MOL0     O99948   0.755  12.963   4.665 -0.1693 -0.0499  0.4709
  725MOL0     C99949   0.797  12.927   4.530 -0.7488 -0.0859  0.1872
  725MOL0     C99950   0.922  13.001   4.477  0.3898  0.8064 -0.1230
  725MOL0     C99951   0.923  12.965   4.328  0.6420  1.0352  0.2421
  725MOL0     C99952   1.023  13.036   4.243 -0.6011 -0.2014 -0.5934
  725MOL0     C99953   1.032  12.962   4.107 -0.3882  0.0901  0.1818
  725MOL0     C99954   1.103  13.035   3.997 -0.5522  0.3285 -0.0016
  725MOL0     C99955   1.069  12.976   3.861  1.2470  0.1980 -0.2134
  725MOL0     C99956   1.162  13.039   3.763  0.5558  0.5290  0.0657
  725MOL0    Cl99957   1.117  12.976   3.609  0.5789  0.3376  0.1612
  725MOL0     C99958   0.520  12.884   4.639 -0.5425  0.0374 -0.4812
  725MOL0     C99959   0.389  12.877   4.683 -0.4978 -0.1885 -0.2505
  725MOL0     O99960   0.101  12.831   5.044  0.0731  0.3848 -0.0892
  725MOL0     C99961   0.301  12.594   4.958  0.2869  0.4093 -0.5331
  725MOL0     C99962   0.393  12.500   4.994 -0.2253 -0.2385 -0.7512
  725MOL0     N99963   1.006  12.244   5.275  0.0098  0.1944  0.2284
  725MOL0     N99964   1.102  12.155   5.301  0.6739  0.3954 -0.1956
  725MOL0     C99965   2.066  11.409   4.783 -0.0355 -0.2813  0.1117
  725MOL0     C99966   2.200  11.394   4.755 -0.7263  0.2380  0.8588
  725MOL0     C99967   2.626  11.241   4.709  1.0334 -0.4111  0.0648
  725MOL0     C99968   2.741  11.325   4.714  0.4309 -0.2207 -0.1344
  725MOL0     C99969   2.863  11.267   4.687  0.2319 -1.5692  0.1147
  725MOL0     C99970   2.877  11.136   4.647 -0.6605 -0.0249  0.4264
  725MOL0     O99971   2.999  11.082   4.608 -0.7419 -0.1794 -0.3124
  725MOL0     C99972   3.118  11.128   4.678  0.3123  0.0649 -0.6320
  725MOL0     C99973   3.242  11.062   4.626  0.8729  0.8116 -0.0513
  725MOL0     C99974   3.362  11.107   4.719 -0.1023  0.2645  0.2167
  725MOL0     C99975   3.491  11.022   4.691  0.1436  0.3365  1.0402
  725MOL0     C99976   3.558  11.074   4.568 -0.2469  0.3037  0.7200
  725MOL0     C99977   3.615  11.107   4.466  0.2124 -0.3591 -1.0284
  725MOL0     C99978   2.764  11.063   4.619  0.1512  0.5498 -0.3482
  725MOL0     C99979   2.633  11.108   4.647  0.4084 -0.0944  0.4421
  725MOL0     C99980   2.518  11.013   4.630 -0.5092  0.1295 -0.1789
  725MOL0     H99981   2.200  11.080   4.649  2.5795  0.9401  0.0830
  725MOL0     H99982   1.972  11.086   4.720 -1.3335  0.6508  1.6603
  725MOL0     H99983   1.701  11.410   4.700 -1.7307 -1.7944  1.4580
  725MOL0     H99984   1.816  11.521   4.787  0.4491  0.6028  3.5540
  725MOL0     H99985   1.602  11.351   4.915  1.1752 -0.7105 -1.3651
  725MOL0     H99986   1.716  11.454   4.995 -0.0319 -3.0064  0.0090
  725MOL0     H99987   1.642  11.650   4.846  0.9946 -0.0254  0.2958
  725MOL0     H99988   1.513  11.555   4.788  1.6900  1.5779 -0.8906
  725MOL0     H99989   1.417  11.525   5.013 -0.2815  0.7177  1.1246
  725MOL0     H99990   1.558  11.592   5.083  0.3043  0.2709 -1.0622
  725MOL0     H99991   1.393  11.745   4.885  1.2111  1.0151 -0.3427
  725MOL0     H99992   1.520  11.802   4.995 -1.3892  1.7940  1.0473
  725MOL0     H99993   1.270  11.676   5.099 -0.0113 -0.8746 -1.0720
  725MOL0     H99994   1.397  11.770   5.190  0.6627 -0.1150 -1.2434
  725MOL0     H99995   1.189  11.885   5.012  2.6053 -1.9564 -1.5057
  725MOL0     H99996   1.331  11.971   5.077  1.6926 -0.4944  0.5303
  725MOL0     H99997   1.112  11.841   5.244  2.5204 -3.7008 -1.1714
  725MOL0     H99998   1.244  11.938   5.305  0.1769  1.2502 -0.7670
  725MOL0     H99999   0.989  12.033   5.021 -0.4498 -0.9381  0.7130
  725MOL0     H    0   0.863  12.251   4.965  2.1045  0.7417  1.0653
  725MOL0     H    1   0.841  12.361   5.086 -0.1152 -0.7089  0.6176
  725MOL0     H    2   0.634  12.217   5.049  0.0645 -2.1234 -0.3737
  725MOL0     H    3   0.711  12.083   5.121 -1.7318  0.1495  2.0558
  725MOL0     H    4   0.588  12.183   5.306 -1.3891  0.7703 -0.9137
  725MOL0     H    5   0.764  12.231   5.327  0.8976 -1.7116 -1.2064
  725MOL0     H    6   0.586  12.414   5.362  6.0989  1.6848  2.4740
  725MOL0     H    7   0.696  12.454   5.238 -1.1964  1.6672  2.1421
  725MOL0     H    8   0.486  12.621   5.296 -1.9992  1.2509  1.1645
  725MOL0     H    9   0.255  12.830   5.317  2.8224 -1.1749  2.6989
  725MOL0     H   10   0.324  12.925   5.174  0.6520 -2.4496 -4.0938
  725MOL0     H   11   0.423  12.857   5.312 -0.2476 -0.5632  1.6799
  725MOL0     H   12   0.441  12.998   4.986 -0.5587  1.2535 -0.5900
  725MOL0     H   13   0.679  13.011   4.913  0.9240 -1.6745  0.0528
  725MOL0     H   14   0.816  12.819   4.536  3.2695  0.5063  0.9299
  725MOL0     H   15   0.712  12.938   4.463 -0.1590  3.5193 -0.1654
  725MOL0     H   16   0.914  13.110   4.486 -4.7621  0.7417 -0.7573
  725MOL0     H   17   1.013  12.969   4.529  0.2541 -2.3671 -1.6167
  725MOL0     H   18   0.826  12.987   4.283 -0.4553  0.3360  2.1301
  725MOL0     H   19   0.932  12.857   4.314 -2.1032  0.9997 -2.2679
  725MOL0     H   20   1.116  13.042   4.302 -2.5711  1.6800  2.6109
  725MOL0     H   21   0.984  13.138   4.235 -0.2087  0.0595  0.5197
  725MOL0     H   22   1.071  12.861   4.124 -1.5404 -0.2690  0.7801
  725MOL0     H   23   0.927  12.962   4.078 -0.0287  2.4016 -1.4456
  725MOL0     H   24   1.210  13.031   4.019 -0.1304 -2.2825 -2.1003
  725MOL0     H   25   1.076  13.141   3.993 -2.4414 -0.0696  1.1320
  725MOL0     H   26   0.969  13.005   3.826  2.8068  4.0023 -2.1782
  725MOL0     H   27   1.086  12.869   3.851 -1.2067 -0.1067 -2.2665
  725MOL0     H   28   1.264  13.004   3.779  0.0587 -1.5572 -1.0033
  725MOL0     H   29   1.164  13.147   3.779 -1.4525  0.3032  2.2584
  725MOL0     H   30   0.529  12.851   4.536  1.2528  0.4699 -0.4843
  725MOL0     H   31   0.313  12.848   4.611  0.8821 -0.5116 -1.6210
  725MOL0     H   32   0.245  12.580   4.866  1.0660 -0.3352 -0.9053
  725MOL0     H   33   0.396  12.407   4.938 -2.3833 -2.6598  2.7803
  725MOL0     H   34   2.039  11.506   4.824 -1.2655 -1.0331  1.1248
  725MOL0     H   35   2.262  11.483   4.752  0.8681 -0.7964  1.7422
  725MOL0     H   36   2.724  11.423   4.759  3.6551  0.6234 -0.4553
  725MOL0     H   37   2.950  11.325   4.717 -1.9213  1.1550  1.5949
  725MOL0     H   38   3.129  11.236   4.675  0.3827  0.0400 -1.7719
  725MOL0     H   39   3.113  11.095   4.783  0.2588 -0.8028 -0.8930
  725MOL0     H   40   3.243  11.086   4.519 -1.2173  1.0393 -0.0528
  725MOL0     H   41   3.230  10.953   4.625 -0.3888  0.9073 -2.2068
  725MOL0     H   42   3.358  11.216   4.708 -4.9794  0.2269 -0.9476
  725MOL0     H   43   3.327  11.084   4.821  0.7666 -0.0149  0.4588
  725MOL0     H   44   3.462  10.922   4.657 -0.5698  0.9769 -0.3378
  725MOL0     H   45   3.556  11.025   4.778 -0.6573  0.9078  1.6310
  725MOL0     H   46   3.666  11.134   4.375  0.9330  3.2853  0.2649
  725MOL0     H   47   2.787  10.960   4.596 -1.4217 -0.2621  1.5430
  725MOL0     H   48   2.561  10.913   4.630 -0.5227  0.1231  0.2343
  725MOL0     H   49   2.450  11.013   4.716  1.7987  0.0140  1.7267
  725MOL0     H   50   2.464  11.026   4.535 -1.8681 -1.4793  0.3263
  726MOL0     O   51   0.876   2.278   5.583  0.4400 -0.4824  0.0355
  726MOL0     C   52   0.975   2.334   5.539  0.5085  0.6703  0.0108
  726MOL0     O   53   0.975   2.447   5.470  0.0494 -0.2216 -0.2418
  726MOL0     C   54   0.851   2.518   5.449 -0.5918 -0.0747  0.5494
  726MOL0     C   55   0.742   2.539   5.528 -0.2211  0.0408  0.1616
  726MOL0     C   56   0.642   2.631   5.491  0.9282  0.1594 -0.1924
  726MOL0     C   57   0.650   2.695   5.364  0.4479 -0.0805 -0.1992
  726MOL0     O   58   0.540   2.781   5.342 -0.3183  0.1546 -1.0371
  726MOL0     C   59   0.560   2.886   5.245 -0.3387  0.6696  0.2990
  726MOL0     C   60   0.427   2.961   5.221  0.0238  0.0028  0.2908
  726MOL0     C   61   0.382   3.041   5.342  0.0078 -0.5881  0.2186
  726MOL0     C   62   0.473   3.157   5.367 -0.4812 -0.2521 -0.3939
  726MOL0     C   63   0.428   3.235   5.488 -0.2245 -0.8239 -0.5396
  726MOL0     C   64   0.541   3.325   5.519 -0.1877 -0.6948 -0.6096
  726MOL0     C   65   0.495   3.430   5.629  0.9798  0.3974  0.0492
  726MOL0     C   66   0.606   3.538   5.643  0.8279  0.5642 -0.7107
  726MOL0     N   67   0.553   3.627   5.744 -0.3348 -0.2736  0.0332
  726MOL0     C   68   0.570   3.589   5.880  0.1128 -0.2015 -0.2539
  726MOL0     C   69   0.509   3.685   5.950 -0.3278  0.2617  0.1503
  726MOL0     C   70   0.515   3.701   6.100  0.4912 -0.4523 -0.3837
  726MOL0     C   71   0.492   3.843   6.142 -0.4361 -0.8660 -0.6435
  726MOL0     C   72   0.591   3.953   6.091  0.2256  1.1885 -0.0323
  726MOL0     C   73   0.730   3.924   6.137 -0.2235 -0.0379 -1.7820
  726MOL0     O   74   0.718   3.920   6.287  0.0219  0.4676  0.7022
  726MOL0     C   75   0.833   3.943   6.352 -0.2806 -1.0068  0.5953
  726MOL0     C   76   0.924   4.044   6.320 -0.0432  0.5374 -0.8859
  726MOL0     C   77   1.060   4.049   6.375  0.1991 -0.3867 -0.3815
  726MOL0     C   78   1.157   4.155   6.319 -0.1490 -0.5393  0.1060
  726MOL0     C   79   1.099   3.946   6.468  0.2869  0.3215  0.1493
  726MOL0     C   80   1.233   3.923   6.527  0.0786 -0.0253  0.2931
  726MOL0     O   81   1.238   3.820   6.612  0.1319  0.1726  0.1768
  726MOL0     C   82   1.376   3.805   6.659  0.7600 -0.0058 -0.8656
  726MOL0     C   83   1.492   3.775   6.578 -0.1911  0.6543  0.6395
  726MOL0     C   84   1.614   3.750   6.637 -0.7148 -0.3396 -0.4563
  726MOL0     C   85   1.625   3.736   6.777 -0.0929 -0.0232  0.0153
  726MOL0     O   86   1.735   3.697   6.847  0.2372 -0.5221 -0.0020
  726MOL0     C   87   1.863   3.688   6.776 -0.0822  0.1240 -0.0459
  726MOL0     C   88   1.973   3.643   6.880  0.0089  0.8110 -0.5492
  726MOL0     C   89   1.934   3.537   6.987  0.7122 -0.6278 -0.9169
  726MOL0     C   90   1.869   3.407   6.932  0.0097 -0.0595 -0.0171
  726MOL0     C   91   1.849   3.300   7.036  0.3839 -0.2774 -1.0814
  726MOL0     C   92   1.800   3.358   7.176 -0.5138  0.4224  0.5844
  726MOL0     C   93   1.749   3.253   7.270  0.7472  0.0821  0.4268
  726MOL0     C   94   1.704   3.321   7.393  0.4906 -0.2947 -0.0366
  726MOL0    Cl   95   1.615   3.200   7.481 -0.2289  0.4764 -0.0907
  726MOL0     C   96   1.509   3.754   6.858 -0.0019 -0.0763  0.1281
  726MOL0     C   97   1.391   3.796   6.803  0.2556  0.3839 -0.1834
  726MOL0     O   98   1.324   4.000   6.491  0.5878  0.3460  0.4655
  726MOL0     C   99   0.993   3.851   6.505  0.6557 -0.0999  0.4562
  726MOL0     C  100   0.870   3.854   6.448  0.4519 -0.3462 -0.3002
  726MOL0     N  101   0.432   3.765   5.862 -0.1260 -0.2703  0.6445
  726MOL0     N  102   0.459   3.724   5.743 -0.4071  0.1991  0.4297
  726MOL0     C  103   0.753   2.678   5.284 -0.1702  0.8917 -0.7824
  726MOL0     C  104   0.851   2.588   5.327  1.2814 -0.0584 -0.5666
  726MOL0     C  105   1.106   2.266   5.577 -0.0484 -0.0468  0.5247
  726MOL0     C  106   1.210   2.274   5.477  0.2356  0.1278 -0.7122
  726MOL0     C  107   1.337   2.231   5.506 -0.7014 -0.4459  0.3130
  726MOL0     C  108   1.369   2.193   5.641 -0.0838 -0.3439  0.3649
  726MOL0     O  109   1.498   2.149   5.673 -0.0549  0.2050 -0.4764
  726MOL0     C  110   1.603   2.243   5.663  0.2544  0.0746  0.6838
  726MOL0     C  111   1.628   2.315   5.804  1.1105  0.5713  0.1858
  726MOL0     C  112   1.697   2.212   5.891  0.0743 -0.8355 -0.3841
  726MOL0     C  113   1.620   2.090   5.924  0.3379  1.3330  1.2315
  726MOL0     C  114   1.668   2.019   6.041  0.0498  0.4912 -0.8743
  726MOL0     C  115   1.713   1.982   6.148  0.4678  0.6943  0.0619
  726MOL0     C  116   1.260   2.176   5.730  0.6838 -0.0317  0.0738
  726MOL0     C  117   1.131   2.222   5.707  0.5904 -0.4268  0.8938
  726MOL0     C  118   1.022   2.212   5.816 -0.1567  0.2674  1.0812
  726MOL0     H  119   0.740   2.485   5.621 -1.3662 -0.2166  0.0004
  726MOL0     H  120   0.553   2.654   5.549  0.6394 -0.2254 -0.4768
  726MOL0     H  121   0.592   2.835   5.154  0.8707  0.0846  1.0343
  726MOL0     H  122   0.644   2.951   5.270 -1.2978  2.4921 -1.0036
  726MOL0     H  123   0.449   3.020   5.132  1.2966 -1.2011 -0.2301
  726MOL0     H  124   0.355   2.885   5.188  1.9187 -1.7478  0.0246
  726MOL0     H  125   0.285   3.081   5.313  0.4259  1.6216  1.5752
  726MOL0     H  126   0.372   2.983   5.435 -0.5335 -0.7588  0.0530
  726MOL0     H  127   0.575   3.121   5.383 -0.8273 -1.3515 -0.5367
  726MOL0     H  128   0.470   3.221   5.279 -1.5899 -0.4140 -0.4822
  726MOL0     H  129   0.417   3.158   5.565  2.6806 -0.2540  0.5507
  726MOL0     H  130   0.329   3.282   5.483  0.6928  1.1737 -0.9038
  726MOL0     H  131   0.620   3.258   5.554  0.9084  0.0427 -1.5624
  726MOL0     H  132   0.577   3.376   5.429 -1.0285  1.2364  0.0752
  726MOL0     H  133   0.484   3.375   5.723  1.2096 -1.4655 -0.9615
  726MOL0     H  134   0.406   3.483   5.593  0.0961 -1.0793  0.0053
  726MOL0     H  135   0.702   3.496   5.676  1.0511  1.6069  0.0092
  726MOL0     H  136   0.629   3.589   5.549  0.9739  1.6208 -0.1163
  726MOL0     H  137   0.633   3.509   5.918 -2.7842 -2.2883  0.4625
  726MOL0     H  138   0.608   3.674   6.152 -0.3473 -1.2807  0.7464
  726MOL0     H  139   0.436   3.643   6.148 -0.1208  0.6523 -0.0171
  726MOL0     H  140   0.395   3.870   6.099  0.2536 -1.7178 -2.8423
  726MOL0     H  141   0.484   3.849   6.251  0.5520 -0.0813 -0.5933
  726MOL0     H  142   0.586   3.962   5.982 -1.9809  3.3974  0.1646
  726MOL0     H  143   0.549   4.047   6.130  1.8831  1.9572 -0.0141
  726MOL0     H  144   0.771   3.829   6.103 -3.5312 -1.6611 -1.6494
  726MOL0     H  145   0.795   4.006   6.104 -0.6638  0.3956 -1.5879
  726MOL0     H  146   0.891   4.119   6.249 -1.1560  0.1860 -0.7491
  726MOL0     H  147   1.231   4.108   6.253  1.6093 -0.9174  2.2153
  726MOL0     H  148   1.211   4.207   6.398 -2.5105 -0.5275  1.7968
  726MOL0     H  149   1.116   4.229   6.249  3.1343 -1.9069 -3.6723
  726MOL0     H  150   1.491   3.769   6.470  2.0013  0.7337  0.5726
  726MOL0     H  151   1.698   3.721   6.575 -1.0735  1.0294 -1.6167
  726MOL0     H  152   1.857   3.618   6.692 -2.8549 -1.4774  1.3063
  726MOL0     H  153   1.887   3.785   6.733 -1.5373  0.0804 -1.0569
  726MOL0     H  154   2.055   3.606   6.818  0.0814  2.3367 -1.4277
  726MOL0     H  155   2.009   3.736   6.925  1.5639 -0.2890  0.5540
  726MOL0     H  156   1.859   3.588   7.048 -2.3444 -1.2157 -3.8321
  726MOL0     H  157   2.014   3.502   7.053 -2.0551 -1.7719  2.1077
  726MOL0     H  158   1.939   3.373   6.854 -2.1440  0.6185 -2.3969
  726MOL0     H  159   1.777   3.427   6.876 -1.5814 -4.9219  0.4310
  726MOL0     H  160   1.775   3.226   7.006 -1.1404  0.5412  0.4841
  726MOL0     H  161   1.948   3.255   7.047 -0.0185 -0.8958  0.2381
  726MOL0     H  162   1.717   3.425   7.151 -1.5492 -1.4251 -1.3522
  726MOL0     H  163   1.886   3.407   7.222  0.4198 -1.2904  0.7210
  726MOL0     H  164   1.833   3.185   7.282 -0.8021 -1.7908  1.3206
  726MOL0     H  165   1.677   3.189   7.217  1.5674 -0.1027 -0.4888
  726MOL0     H  166   1.625   3.395   7.372 -0.5996 -1.8075 -1.6138
  726MOL0     H  167   1.779   3.381   7.445 -1.1883  1.9438 -0.0293
  726MOL0     H  168   1.509   3.741   6.966 -1.3185  2.2088  0.4703
  726MOL0     H  169   1.309   3.823   6.868 -1.5215  0.4244 -2.3304
  726MOL0     H  170   1.004   3.761   6.564 -0.3248 -1.9129 -1.9407
  726MOL0     H  171   0.801   3.777   6.484  3.2491 -2.1899  1.5552
  726MOL0     H  172   0.759   2.713   5.181 -2.1063 -1.5578 -1.8250
  726MOL0     H  173   0.934   2.560   5.262  2.2058 -0.9499  0.9494
  726MOL0     H  174   1.176   2.304   5.378 -1.5710  0.6852  0.0272
  726MOL0     H  175   1.415   2.233   5.431 -2.6903  0.0154 -1.8793
  726MOL0     H  176   1.695   2.193   5.631  0.5185  0.9427  0.0650
  726MOL0     H  177   1.588   2.327   5.596  4.0613  0.2916 -0.1389
  726MOL0     H  178   1.534   2.346   5.851  0.6926  0.8887 -0.8308
  726MOL0     H  179   1.699   2.396   5.786  1.2899 -0.0474 -2.2638
  726MOL0     H  180   1.788   2.175   5.842 -1.1528 -1.6763 -2.1417
  726MOL0     H  181   1.723   2.264   5.984  1.6993 -0.1488 -1.1810
  726MOL0     H  182   1.623   2.026   5.835 -3.2861  0.7527  1.3822
  726MOL0     H  183   1.518   2.128   5.934 -0.3017  0.7244 -1.9226
  726MOL0     H  184   1.747   1.957   6.246  0.4331  1.9511  0.4228
  726MOL0     H  185   1.279   2.137   5.829  1.3268 -0.3172 -0.1571
  726MOL0     H  186   1.052   2.151   5.901  3.2973  2.4973  1.6973
  726MOL0     H  187   0.994   2.313   5.849 -2.5719 -0.8438  2.7285
  726MOL0     H  188   0.934   2.156   5.784 -0.1660 -0.8158  2.8824
  727MOL0     O  189   2.828  10.295   9.218 -0.9013  0.5111 -0.2574
  727MOL0     C  190   2.777  10.335   9.315  0.0949  0.1871 -0.0097
  727MOL0     O  191   2.658  10.290   9.359  0.0871  0.4273  0.2204
  727MOL0     C  192   2.577  10.220   9.277  0.6768  0.0674  0.0497
  727MOL0     C  193   2.562  10.227   9.136 -0.1718 -0.4708 -0.0251
  727MOL0     C  194   2.476  10.138   9.071 -0.4146  0.6287  0.3267
  727MOL0     C  195   2.393  10.051   9.136  0.1700 -0.5355 -0.4595
  727MOL0     O  196   2.315   9.966   9.055 -0.0555  0.5528  0.1447
  727MOL0     C  197   2.196   9.905   9.107 -0.3543 -0.6403  0.5481
  727MOL0     C  198   2.105   9.823   9.003  0.2969  0.3983  0.8308
  727MOL0     C  199   2.190   9.739   8.906  0.3464  0.0222 -0.8891
  727MOL0     C  200   2.097   9.649   8.808  0.2315 -0.6361 -0.0976
  727MOL0     C  201   2.125   9.507   8.772  0.2681 -0.3543  0.0054
  727MOL0     C  202   2.008   9.407   8.755 -0.8798 -0.6997 -0.5257
  727MOL0     C  203   2.030   9.289   8.666 -1.4393  0.9639 -0.4093
  727MOL0     C  204   2.145   9.200   8.727  0.2168 -0.2825 -0.6090
  727MOL0     N  205   2.107   9.109   8.839 -0.2580  0.0651  0.3390
  727MOL0     C  206   2.053   8.988   8.808  0.8751 -0.9577  0.3205
  727MOL0     C  207   2.024   8.931   8.928  0.4294 -0.2016 -0.7987
  727MOL0     C  208   1.960   8.795   8.943  0.0511  0.0272 -0.0565
  727MOL0     C  209   2.037   8.685   8.865 -0.3112 -0.0620  0.0190
  727MOL0     C  210   2.172   8.663   8.937 -0.3434 -0.0890 -0.2507
  727MOL0     C  211   2.277   8.601   8.830  0.2197  0.2859  0.1047
  727MOL0     O  212   2.307   8.707   8.736  0.4254 -0.3681  0.4283
  727MOL0     C  213   2.352   8.659   8.618 -0.5894  0.3120 -0.0271
  727MOL0     C  214   2.268   8.677   8.507 -0.2257  1.8007 -0.1537
  727MOL0     C  215   2.311   8.640   8.375  0.6482 -0.0687  0.3072
  727MOL0     C  216   2.207   8.673   8.271  0.3630  0.1022 -0.5431
  727MOL0     C  217   2.443   8.590   8.355 -0.4325 -0.5421 -0.4298
  727MOL0     C  218   2.496   8.569   8.222  1.2591  0.2729 -0.1503
  727MOL0     O  219   2.421   8.483   8.134  0.0968 -0.4012 -0.5205
  727MOL0     C  220   2.449   8.487   7.994  0.4162 -0.6128 -1.3384
  727MOL0     C  221   2.438   8.601   7.914  0.3144  0.7349 -0.0937
  727MOL0     C  222   2.463   8.587   7.773  0.8264  0.5292 -0.2193
  727MOL0     C  223   2.500   8.461   7.716 -0.5871 -0.4042  1.0543
  727MOL0     O  224   2.529   8.470   7.583 -0.4927  0.4403 -0.7525
  727MOL0     C  225   2.656   8.413   7.549  0.9490 -0.4649  0.6130
  727MOL0     C  226   2.697   8.448   7.406 -0.0603  0.6932 -0.6290
  727MOL0     C  227   2.622   8.366   7.306  0.2794  0.5905 -0.1376
  727MOL0     C  228   2.649   8.425   7.167 -0.0320 -0.0496  0.1978
  727MOL0     C  229   2.555   8.346   7.069  0.6184 -0.1351 -1.0345
  727MOL0     C  230   2.569   8.382   6.921  0.1305  0.5009 -0.4826
  727MOL0     C  231   2.448   8.333   6.842 -0.5202 -0.6483 -0.2492
  727MOL0     C  232   2.487   8.297   6.701  0.8162 -0.1375  1.1467
  727MOL0    Cl  233   2.585   8.145   6.717 -0.4651 -0.1395  0.1482
  727MOL0     C  234   2.512   8.351   7.800  1.5837 -0.7958 -0.2973
  727MOL0     C  235   2.479   8.367   7.932  0.2579 -0.3927  0.1989
  727MOL0     O  236   2.616   8.604   8.206 -0.3618  0.2775 -0.2178
  727MOL0     C  237   2.523   8.571   8.472 -0.0230  0.1535  1.9416
  727MOL0     C  238   2.473   8.601   8.605 -1.2160  0.9280  0.6093
  727MOL0     N  239   2.057   9.028   9.025  0.5388 -0.3655 -0.0223
  727MOL0     N  240   2.111   9.132   8.972 -0.4061  0.1982  1.0023
  727MOL0     C  241   2.391  10.058   9.278  0.1954 -0.0037  0.5400
  727MOL0     C  242   2.486  10.135   9.347  0.2306  0.1169  0.8596
  727MOL0     C  243   2.846  10.424   9.399 -0.0177 -0.0957 -0.9645
  727MOL0     C  244   2.833  10.405   9.534  0.5770 -0.2935  0.7439
  727MOL0     C  245   2.905  10.477   9.628 -0.9993 -0.7640  0.8478
  727MOL0     C  246   3.004  10.567   9.582 -1.1225  0.0186  0.0383
  727MOL0     O  247   3.090  10.646   9.659  0.3478  0.5164 -0.1361
  727MOL0     C  248   3.063  10.662   9.799 -0.6193 -0.1789 -0.7901
  727MOL0     C  249   3.183  10.670   9.887 -0.0734  0.5272 -0.6888
  727MOL0     C  250   3.276  10.788   9.869  0.3209 -1.3864 -0.4154
  727MOL0     C  251   3.226  10.913   9.933 -0.2699 -0.2386  0.0102
  727MOL0     C  252   3.273  10.918  10.077  0.3715  0.9389  0.1114
  727MOL0     C  253   3.292  10.919  10.194 -0.2552  1.0025 -0.0029
  727MOL0     C  254   3.022  10.583   9.448 -0.4076 -0.1964  0.5919
  727MOL0     C  255   2.951  10.518   9.350  0.3267  0.2655 -0.5820
  727MOL0     C  256   2.977  10.557   9.207 -0.5183 -0.6155 -0.5195
  727MOL0     H  257   2.610  10.301   9.072  2.0505 -2.7475 -1.1348
  727MOL0     H  258   2.486  10.131   8.963  1.0779 -0.1402  0.4883
  727MOL0     H  259   2.144   9.981   9.168 -1.3100 -0.7892 -0.0624
  727MOL0     H  260   2.230   9.830   9.179 -2.0895 -2.9545 -0.9141
  727MOL0     H  261   2.046   9.762   9.073  0.7082 -0.7593  0.2078
  727MOL0     H  262   2.050   9.889   8.936 -3.2189 -0.0270  3.0708
  727MOL0     H  263   2.251   9.814   8.854 -2.8927  3.1640 -0.5855
  727MOL0     H  264   2.252   9.668   8.960  1.1230 -1.3817 -3.4524
  727MOL0     H  265   1.997   9.654   8.853  0.6550 -0.9074  0.9020
  727MOL0     H  266   2.099   9.708   8.716 -1.3495  0.6811  0.6417
  727MOL0     H  267   2.205   9.471   8.837  2.0081  0.0153 -1.8367
  727MOL0     H  268   2.161   9.514   8.669 -2.8760  0.7482 -1.1229
  727MOL0     H  269   1.959   9.369   8.845 -0.1974 -0.6924 -0.1444
  727MOL0     H  270   1.929   9.466   8.709 -0.2918 -0.9360 -1.9025
  727MOL0     H  271   2.059   9.318   8.565 -0.0856 -0.2056 -0.3787
  727MOL0     H  272   1.936   9.232   8.668 -1.6291  1.2912  0.1723
  727MOL0     H  273   2.182   9.131   8.651  2.7481 -2.1112  2.0466
  727MOL0     H  274   2.233   9.260   8.756 -0.0689 -0.2892  0.2942
  727MOL0     H  275   2.039   8.949   8.707 -1.3574  1.0578 -0.2515
  727MOL0     H  276   1.858   8.803   8.905  0.3173  2.7319 -0.3964
  727MOL0     H  277   1.956   8.761   9.047  0.6970  1.5649  0.5053
  727MOL0     H  278   1.978   8.593   8.865 -0.8771  0.2139  2.5787
  727MOL0     H  279   2.042   8.729   8.765  0.9570 -0.3656 -0.0741
  727MOL0     H  280   2.224   8.751   8.975  2.1828  1.0708 -5.4867
  727MOL0     H  281   2.161   8.592   9.020 -0.4082  0.3873  0.1472
  727MOL0     H  282   2.372   8.570   8.874  0.5365 -1.4078 -1.6300
  727MOL0     H  283   2.238   8.514   8.777  0.4795 -0.1956  0.6979
  727MOL0     H  284   2.173   8.729   8.509 -1.0296  0.3455  0.2645
  727MOL0     H  285   2.198   8.610   8.182  0.1601  1.0706 -1.2260
  727MOL0     H  286   2.210   8.777   8.237 -0.4238 -0.6518 -3.1895
  727MOL0     H  287   2.106   8.672   8.315  0.3334 -0.3819 -0.6179
  727MOL0     H  288   2.402   8.698   7.946 -0.5564  0.2870  0.3405
  727MOL0     H  289   2.449   8.660   7.694  1.4233 -1.0105 -1.8116
  727MOL0     H  290   2.728   8.452   7.621 -0.8410  1.1587  1.5958
  727MOL0     H  291   2.644   8.305   7.564  0.7820 -1.0448 -2.8816
  727MOL0     H  292   2.677   8.554   7.389  0.5647  0.6492 -1.7125
  727MOL0     H  293   2.805   8.438   7.390  0.0635  0.8107  0.1011
  727MOL0     H  294   2.514   8.358   7.319  0.1010 -0.0856 -1.8418
  727MOL0     H  295   2.661   8.264   7.298  0.5912  0.8056 -1.7002
  727MOL0     H  296   2.754   8.417   7.136 -0.0126  2.5725 -0.6472
  727MOL0     H  297   2.621   8.530   7.154  3.1499  0.6423 -2.2837
  727MOL0     H  298   2.559   8.239   7.090 -3.6016 -0.3018 -0.2550
  727MOL0     H  299   2.453   8.371   7.101 -0.7186 -3.0900 -2.5525
  727MOL0     H  300   2.657   8.328   6.884 -0.2502  0.0037 -0.6689
  727MOL0     H  301   2.566   8.491   6.914 -1.5437  0.4348 -1.4000
  727MOL0     H  302   2.371   8.410   6.848 -1.2747 -1.5004  2.0470
  727MOL0     H  303   2.399   8.249   6.893 -2.4245  0.9142  0.6169
  727MOL0     H  304   2.539   8.386   6.664 -0.6092  0.9944  1.7842
  727MOL0     H  305   2.393   8.273   6.652 -0.1151  1.5049  2.0602
  727MOL0     H  306   2.529   8.249   7.767 -2.3493 -1.9708  0.7055
  727MOL0     H  307   2.488   8.285   8.003  0.8090 -1.6719 -1.2838
  727MOL0     H  308   2.621   8.528   8.453 -0.6200  0.5472 -3.4810
  727MOL0     H  309   2.538   8.598   8.692 -0.1413  1.8100 -0.1300
  727MOL0     H  310   2.311  10.006   9.330  2.2130 -3.3165  0.6397
  727MOL0     H  311   2.489  10.126   9.455 -1.4473 -1.5232  0.8238
  727MOL0     H  312   2.766  10.330   9.575  0.5155 -1.6722 -1.6767
  727MOL0     H  313   2.893  10.471   9.735  1.0809  1.9763  1.3425
  727MOL0     H  314   3.014  10.757   9.819 -1.6791 -0.9680  0.5117
  727MOL0     H  315   2.999  10.578   9.829 -2.7308  1.2857 -1.0069
  727MOL0     H  316   3.249  10.587   9.863 -0.0161  0.6922 -1.1038
  727MOL0     H  317   3.162  10.658   9.994  2.6696 -0.4860 -0.2026
  727MOL0     H  318   3.370  10.757   9.917  1.0531 -0.3566 -1.1245
  727MOL0     H  319   3.287  10.819   9.765 -1.6485  0.5905 -0.0945
  727MOL0     H  320   3.117  10.913   9.923 -0.3278 -1.2020  0.5774
  727MOL0     H  321   3.261  11.005   9.885  0.8004 -1.1481 -1.0071
  727MOL0     H  322   3.315  10.930  10.298 -2.7106  2.6523  0.4392
  727MOL0     H  323   3.097  10.654   9.413 -0.9189  0.4095  0.7047
  727MOL0     H  324   2.890  10.539   9.143 -0.8009  1.2418 -0.7053
  727MOL0     H  325   3.004  10.663   9.201  0.4356 -0.6330  2.0265
  727MOL0     H  326   3.061  10.496   9.174  0.4639  0.1102  0.5749
  728MOL0     O  327   5.976   4.081   4.429  0.5418 -0.1957 -0.5364
  728MOL0     C  328   6.052   4.064   4.523 -0.4610  0.9457  0.3079
  728MOL0     O  329   6.088   3.938   4.578 -0.1483  0.6697 -0.1563
  728MOL0     C  330   6.027   3.826   4.524 -0.1783 -0.1794 -0.4920
  728MOL0     C  331   6.043   3.790   4.392 -0.0829 -1.0044  0.6370
  728MOL0     C  332   5.969   3.687   4.340 -0.7673  0.3245 -0.1148
  728MOL0     C  333   5.881   3.614   4.422 -0.8864 -0.2542  0.6565
  728MOL0     O  334   5.795   3.520   4.361  0.0126  0.3157  0.0352
  728MOL0     C  335   5.791   3.393   4.431 -0.3637  0.2443  0.3865
  728MOL0     C  336   5.794   3.278   4.339 -0.9585  0.1259 -0.5269
  728MOL0     C  337   5.656   3.232   4.292 -0.3018 -1.1411  0.2238
  728MOL0     C  338   5.576   3.163   4.406 -0.1953 -0.0552  0.4028
  728MOL0     C  339   5.448   3.103   4.356 -0.1530  0.4444 -0.4018
  728MOL0     C  340   5.342   3.201   4.303  0.5047 -0.3453  0.6193
  728MOL0     C  341   5.208   3.144   4.319  1.0463 -0.0432 -0.1522
  728MOL0     C  342   5.103   3.238   4.257  0.6140 -0.6122  0.8297
  728MOL0     N  343   4.966   3.188   4.278  0.2829  0.1860 -0.3954
  728MOL0     C  344   4.892   3.146   4.184 -0.3771  1.1072  0.5578
  728MOL0     C  345   4.761   3.125   4.234 -0.1272 -0.9983 -0.5652
  728MOL0     C  346   4.629   3.092   4.186 -0.0287  0.1984  0.2304
  728MOL0     C  347   4.621   2.958   4.112 -0.2552 -0.2753 -0.3908
  728MOL0     C  348   4.482   2.914   4.057 -0.2730 -0.7438 -0.1316
  728MOL0     C  349   4.383   2.895   4.170  0.1149  0.0046  0.4411
  728MOL0     O  350   4.434   2.798   4.267  1.1100  0.1914  0.9779
  728MOL0     C  351   4.352   2.713   4.332  0.3672 -0.1245 -0.3324
  728MOL0     C  352   4.212   2.737   4.351  0.3069  0.1923  0.8819
  728MOL0     C  353   4.131   2.641   4.414 -0.5744 -0.5229  1.6743
  728MOL0     C  354   3.988   2.683   4.440 -0.6031 -0.3928  1.2530
  728MOL0     C  355   4.182   2.511   4.445 -0.5158 -0.0520  0.1772
  728MOL0     C  356   4.101   2.403   4.523  0.2118  0.2001 -0.0987
  728MOL0     O  357   4.137   2.268   4.496  0.1829 -0.2252  0.0312
  728MOL0     C  358   4.074   2.162   4.547  0.4889 -0.1280  0.2904
  728MOL0     C  359   3.935   2.138   4.523 -0.3943  0.3228  0.8070
  728MOL0     C  360   3.877   2.016   4.557 -0.6153 -0.9227  0.1192
  728MOL0     C  361   3.957   1.922   4.634 -0.2812  1.3542 -0.1244
  728MOL0     O  362   3.889   1.811   4.683 -0.6638  0.3563  0.0934
  728MOL0     C  363   3.962   1.711   4.751  0.2017  0.1177 -0.1970
  728MOL0     C  364   3.856   1.614   4.811  0.3011 -0.7450  0.2220
  728MOL0     C  365   3.914   1.536   4.932 -0.1482  0.1091 -0.1820
  728MOL0     C  366   4.008   1.426   4.885  0.4982 -0.1717  0.0012
  728MOL0     C  367   4.045   1.317   4.987 -0.2645 -0.4430  0.3422
  728MOL0     C  368   4.111   1.201   4.909 -0.0478  0.1586  0.0408
  728MOL0     C  369   4.012   1.113   4.825  0.2768 -0.8416  0.0082
  728MOL0     C  370   4.070   0.975   4.796  0.1595 -0.1227  0.6226
  728MOL0    Cl  371   4.232   0.967   4.724 -0.0135 -0.1301  0.1887
  728MOL0     C  372   4.100   1.945   4.650  1.2583  1.1520  0.8133
  728MOL0     C  373   4.148   2.057   4.609  0.3859 -0.2315 -0.3103
  728MOL0     O  374   4.005   2.438   4.593 -1.0342  0.6827  0.0276
  728MOL0     C  375   4.318   2.495   4.418  0.7547 -0.3654  0.1453
  728MOL0     C  376   4.401   2.598   4.377 -0.2589 -0.3725 -0.6549
  728MOL0     N  377   4.773   3.178   4.363 -0.1806  0.4169  0.0048
  728MOL0     N  378   4.898   3.207   4.391  0.5162  0.0120  0.0564
  728MOL0     C  379   5.873   3.656   4.558 -0.0231  0.6124 -0.5542
  728MOL0     C  380   5.939   3.765   4.607 -0.2465 -0.2009 -0.1300
  728MOL0     C  381   6.102   4.185   4.594  0.3898  0.2689 -0.8447
  728MOL0     C  382   6.245   4.173   4.639  0.6950  0.2371 -0.3580
  728MOL0     C  383   6.312   4.287   4.687 -0.5021  0.4622 -0.0833
  728MOL0     C  384   6.246   4.407   4.693  0.5437  0.1020 -0.2928
  728MOL0     O  385   6.320   4.506   4.751  1.0607 -0.4525  0.0130
  728MOL0     C  386   6.275   4.639   4.728 -1.1754  0.8205  0.3152
  728MOL0     C  387   6.403   4.728   4.750  0.3526 -1.2432  0.0289
  728MOL0     C  388   6.445   4.719   4.898 -0.0411 -0.2293  0.5448
  728MOL0     C  389   6.531   4.840   4.935 -0.5503  0.5746  0.9158
  728MOL0     C  390   6.651   4.870   4.855 -0.6945  0.2201 -0.1283
  728MOL0     C  391   6.754   4.882   4.792  0.6088  0.2546 -0.5412
  728MOL0     C  392   6.110   4.411   4.665  0.3349 -0.0263  0.4866
  728MOL0     C  393   6.041   4.311   4.602  0.2408  0.5063 -0.8569
  728MOL0     C  394   5.909   4.345   4.537 -0.2963  0.1290  0.0337
  728MOL0     H  395   6.100   3.860   4.331  0.0901 -1.0682  0.7234
  728MOL0     H  396   5.974   3.676   4.232  0.8675 -0.0327 -0.0271
  728MOL0     H  397   5.697   3.395   4.486 -1.9767  1.7036 -2.2029
  728MOL0     H  398   5.872   3.386   4.504 -2.5301  0.3249  2.9702
  728MOL0     H  399   5.861   3.297   4.254 -1.4910  1.1235 -0.7343
  728MOL0     H  400   5.839   3.199   4.400  1.7898  1.2304 -0.9881
  728MOL0     H  401   5.603   3.319   4.252  1.6867  0.8694  1.7148
  728MOL0     H  402   5.665   3.160   4.211  0.6942  0.0977 -0.8066
  728MOL0     H  403   5.637   3.086   4.454 -2.6172 -2.3958  0.0243
  728MOL0     H  404   5.550   3.236   4.483  1.4819  2.4866 -1.3031
  728MOL0     H  405   5.406   3.040   4.434  0.3202 -0.2599 -0.7014
  728MOL0     H  406   5.481   3.033   4.278 -1.7426 -1.3159  0.4255
  728MOL0     H  407   5.346   3.303   4.343 -0.7869 -0.2589  0.5625
  728MOL0     H  408   5.358   3.227   4.198  0.0918 -1.0877  0.3687
  728MOL0     H  409   5.187   3.127   4.425 -1.7512  2.1065 -0.2567
  728MOL0     H  410   5.202   3.041   4.283  0.3876 -0.0589 -0.0080
  728MOL0     H  411   5.101   3.331   4.315  0.1678 -0.0310 -0.0953
  728MOL0     H  412   5.118   3.256   4.150 -2.2810  2.2387  0.7462
  728MOL0     H  413   4.925   3.130   4.082 -0.2532  0.7475  0.6548
  728MOL0     H  414   4.578   3.162   4.119  0.7934  0.2980 -0.3180
  728MOL0     H  415   4.560   3.079   4.270 -2.4024  2.6780 -1.1738
  728MOL0     H  416   4.688   2.974   4.028 -0.8710  0.7052 -0.7157
  728MOL0     H  417   4.666   2.878   4.172 -0.7926 -0.9237 -0.8411
  728MOL0     H  418   4.452   2.999   3.995  0.1350 -0.0127  0.6594
  728MOL0     H  419   4.493   2.825   3.995  0.6132  0.3483 -1.5954
  728MOL0     H  420   4.352   2.992   4.209  3.0045  1.2131 -0.0466
  728MOL0     H  421   4.292   2.844   4.136  1.9496 -2.1449 -1.4885
  728MOL0     H  422   4.170   2.829   4.309  1.1171 -0.4779 -1.5548
  728MOL0     H  423   3.916   2.602   4.449 -0.4595 -0.7804 -0.6085
  728MOL0     H  424   3.959   2.755   4.362  1.6145  0.2700  0.9650
  728MOL0     H  425   3.990   2.743   4.531 -1.8697  3.1731 -0.8259
  728MOL0     H  426   3.883   2.210   4.461  1.6175  0.6989 -0.5613
  728MOL0     H  427   3.771   2.007   4.534 -0.2504  2.5351 -4.5762
  728MOL0     H  428   4.035   1.662   4.686 -0.0658  0.9565 -1.1540
  728MOL0     H  429   4.024   1.756   4.829 -1.4935  2.4863 -0.1143
  728MOL0     H  430   3.780   1.678   4.856  0.4140 -0.5876  0.1919
  728MOL0     H  431   3.797   1.563   4.734 -1.1717  2.6109 -1.0731
  728MOL0     H  432   3.843   1.502   5.008  1.6352 -0.0076  1.4926
  728MOL0     H  433   3.973   1.609   4.989 -2.2578  0.8480  1.1684
  728MOL0     H  434   4.100   1.473   4.849  1.7091 -0.7720  2.1462
  728MOL0     H  435   3.977   1.382   4.790 -0.7788  1.0224 -0.1702
  728MOL0     H  436   4.122   1.347   5.059 -0.1552 -3.2919  1.5322
  728MOL0     H  437   3.967   1.273   5.049  0.4707 -0.4181  1.3027
  728MOL0     H  438   4.156   1.137   4.986 -3.0342 -0.2560  1.6110
  728MOL0     H  439   4.189   1.238   4.843 -0.0427  1.1072  0.5608
  728MOL0     H  440   3.992   1.167   4.731 -0.9860  1.0678  1.3035
  728MOL0     H  441   3.913   1.112   4.871 -0.4536  1.1326 -1.3775
  728MOL0     H  442   4.011   0.926   4.719 -0.4412 -1.4886  1.8957
  728MOL0     H  443   4.069   0.921   4.891  2.4986  0.3881  1.0063
  728MOL0     H  444   4.163   1.879   4.707  1.2655  0.3742 -0.0643
  728MOL0     H  445   4.254   2.078   4.607  0.0675  1.5150 -1.5780
  728MOL0     H  446   4.371   2.409   4.457  1.3150 -0.4309 -0.7276
  728MOL0     H  447   4.505   2.577   4.355 -0.3694  0.8119 -2.4776
  728MOL0     H  448   5.809   3.605   4.629 -2.4952  0.2922 -2.8692
  728MOL0     H  449   5.930   3.802   4.709  5.7143 -3.0168  1.8767
  728MOL0     H  450   6.306   4.085   4.624  1.5023  0.6997  0.1161
  728MOL0     H  451   6.416   4.274   4.713 -0.0133 -0.7566 -2.3429
  728MOL0     H  452   6.233   4.657   4.628  0.9621 -3.2112 -1.5571
  728MOL0     H  453   6.203   4.658   4.808  1.4506  2.1538  2.5671
  728MOL0     H  454   6.370   4.829   4.724  0.6606 -0.6594  1.7862
  728MOL0     H  455   6.483   4.702   4.680 -0.2678 -1.7797 -0.4949
  728MOL0     H  456   6.352   4.710   4.955  0.7367 -3.9296  1.4651
  728MOL0     H  457   6.502   4.626   4.911  0.0268  0.0514  2.5667
  728MOL0     H  458   6.561   4.818   5.038  2.3811 -1.5368 -0.2388
  728MOL0     H  459   6.467   4.929   4.932 -1.3814  0.2473  4.2908
  728MOL0     H  460   6.847   4.873   4.738  0.4431 -2.7596 -0.5087
  728MOL0     H  461   6.071   4.512   4.666 -0.0536 -0.1784  0.7773
  728MOL0     H  462   5.827   4.324   4.606  1.1677 -1.4195  1.4093
  728MOL0     H  463   5.914   4.453   4.519  2.3230  0.0601 -0.0713
  728MOL0     H  464   5.904   4.306   4.435  3.8274 -0.2447 -0.2121
  729MOL0     O  465   7.495   5.471   1.421 -0.1061 -0.1869 -0.1739
  729MOL0     C  466   7.497   5.552   1.327 -0.4571 -0.2556 -0.5332
  729MOL0     O  467   7.404   5.572   1.233  0.3365  0.3144  0.0326
  729MOL0     C  468   7.297   5.488   1.246  0.8982  0.1275 -0.4899
  729MOL0     C  469   7.298   5.361   1.193 -0.3712 -0.0651  0.3211
  729MOL0     C  470   7.187   5.282   1.196  0.1938  0.6034 -1.2079
  729MOL0     C  471   7.068   5.321   1.265 -0.2097  0.5255  0.1983
  729MOL0     O  472   6.968   5.231   1.286 -0.6775 -0.1824 -0.3750
  729MOL0     C  473   6.839   5.273   1.247  0.3823  0.0157  0.3121
  729MOL0     C  474   6.744   5.155   1.259  0.0930  0.6397  0.4592
  729MOL0     C  475   6.603   5.169   1.206  0.6681 -0.7002  0.3318
  729MOL0     C  476   6.592   5.221   1.058 -0.4960 -0.3681 -0.3363
  729MOL0     C  477   6.640   5.107   0.967 -0.0048 -0.0577 -0.1297
  729MOL0     C  478   6.642   5.149   0.816 -0.6634  0.2650 -0.8547
  729MOL0     C  479   6.727   5.048   0.734  0.6613  0.4544 -0.1822
  729MOL0     C  480   6.716   5.082   0.585 -0.2987  0.9487  0.8695
  729MOL0     N  481   6.812   4.993   0.509 -0.2942 -0.2130 -0.1931
  729MOL0     C  482   6.805   4.852   0.501  0.5988 -0.3875 -0.7894
  729MOL0     C  483   6.897   4.823   0.398  0.2724 -0.2647 -0.4307
  729MOL0     C  484   6.923   4.680   0.347  0.4272 -0.0593 -0.0522
  729MOL0     C  485   6.922   4.573   0.456 -0.7610  1.1621  0.5866
  729MOL0     C  486   6.995   4.448   0.400  0.1188  0.6544  0.6816
  729MOL0     C  487   6.960   4.400   0.262 -0.0302  0.4165  0.9615
  729MOL0     O  488   6.818   4.418   0.221  0.0268  0.2859 -0.2924
  729MOL0     C  489   6.770   4.401   0.098  0.2106  0.2155  0.2749
  729MOL0     C  490   6.626   4.418   0.063 -1.2439 -0.0032 -0.7626
  729MOL0     C  491   6.577   4.418  -0.075 -0.7404  0.4875 -0.3060
  729MOL0     C  492   6.443   4.483  -0.094 -0.9393 -0.4126  1.2153
  729MOL0     C  493   6.662   4.364  -0.179  0.3440 -1.0559 -0.0448
  729MOL0     C  494   6.613   4.339  -0.308 -0.9690  0.0989  0.1479
  729MOL0     O  495   6.478   4.325  -0.325 -0.8697  0.2410  1.0071
  729MOL0     C  496   6.449   4.308  -0.457 -0.5437  0.4625  0.5358
  729MOL0     C  497   6.377   4.193  -0.505 -0.5141 -0.1393 -0.3838
  729MOL0     C  498   6.311   4.189  -0.630  0.0784 -0.5611  0.2927
  729MOL0     C  499   6.335   4.298  -0.718 -0.7708 -0.2353 -0.0513
  729MOL0     O  500   6.298   4.306  -0.844 -0.1260  0.4655 -0.0229
  729MOL0     C  501   6.264   4.185  -0.915  0.4392  0.0609  0.7955
  729MOL0     C  502   6.393   4.117  -0.951 -0.5581  0.2555  0.3918
  729MOL0     C  503   6.492   4.216  -1.009 -0.6881 -0.4856 -0.5600
  729MOL0     C  504   6.615   4.146  -1.068  0.1644 -0.7284  0.0936
  729MOL0     C  505   6.697   4.242  -1.149  0.1428 -0.3729 -0.8106
  729MOL0     C  506   6.831   4.182  -1.200  0.6814 -0.3831 -1.3372
  729MOL0     C  507   6.910   4.306  -1.259 -0.8232  0.7947 -0.2938
  729MOL0     C  508   7.000   4.387  -1.167 -0.7095  0.1786  0.1234
  729MOL0    Cl  509   7.113   4.285  -1.075 -0.0371  0.1050 -0.0451
  729MOL0     C  510   6.400   4.411  -0.672 -0.3007 -0.2180 -0.0371
  729MOL0     C  511   6.455   4.415  -0.546 -0.8416 -0.5874 -0.4166
  729MOL0     O  512   6.694   4.311  -0.392  0.3773  0.4979  0.3511
  729MOL0     C  513   6.797   4.332  -0.140 -1.0732 -0.8379 -0.6410
  729MOL0     C  514   6.850   4.350  -0.008  0.4637 -0.5029 -0.2062
  729MOL0     N  515   6.949   4.933   0.346  1.0532  0.1247 -0.0394
  729MOL0     N  516   6.899   5.037   0.410  0.0070  0.0856  0.2976
  729MOL0     C  517   7.064   5.452   1.313 -0.2652  0.7327  0.1348
  729MOL0     C  518   7.174   5.541   1.295  0.4578  0.2245 -0.2891
  729MOL0     C  519   7.620   5.637   1.311  0.2010 -0.7732 -0.2484
  729MOL0     C  520   7.664   5.698   1.429  0.1004  0.3583 -0.5001
  729MOL0     C  521   7.797   5.748   1.430 -0.8053 -0.3969 -0.0135
  729MOL0     C  522   7.877   5.768   1.323  0.4225 -0.6050 -1.4192
  729MOL0     O  523   7.989   5.841   1.335 -0.0417  0.2652 -0.3967
  729MOL0     C  524   7.981   5.972   1.400 -0.6598  0.1036  0.1135
  729MOL0     C  525   7.917   6.081   1.301 -0.8597  0.3427  0.5837
  729MOL0     C  526   7.756   6.080   1.308  1.0495  0.6266  0.0466
  729MOL0     C  527   7.690   6.182   1.212 -0.2513  0.2273 -1.1967
  729MOL0     C  528   7.729   6.162   1.070 -0.1121  0.5475  0.0374
  729MOL0     C  529   7.743   6.154   0.944 -0.0564 -0.0604  0.2306
  729MOL0     C  530   7.826   5.713   1.201  0.4291 -0.3521  1.0274
  729MOL0     C  531   7.697   5.647   1.195 -1.0582  0.8425  0.4265
  729MOL0     C  532   7.668   5.573   1.065  0.3012 -0.6213  0.3892
  729MOL0     H  533   7.386   5.315   1.148  0.4866  0.8358  1.0328
  729MOL0     H  534   7.196   5.179   1.163 -0.3168 -0.6380  2.1661
  729MOL0     H  535   6.844   5.301   1.141  0.4323  2.2854  0.8542
  729MOL0     H  536   6.791   5.349   1.309  1.8086  0.3679  1.0384
  729MOL0     H  537   6.790   5.078   1.197 -1.0392  1.2927 -1.2839
  729MOL0     H  538   6.740   5.124   1.364  0.4253  0.9500  0.5664
  729MOL0     H  539   6.575   5.064   1.211  2.8369 -1.5010 -2.1589
  729MOL0     H  540   6.541   5.232   1.270  1.2943 -0.8773  1.1218
  729MOL0     H  541   6.490   5.255   1.040 -0.5193  0.3327  0.9426
  729MOL0     H  542   6.646   5.315   1.044  0.3872 -1.1196 -2.1715
  729MOL0     H  543   6.567   5.026   0.977 -3.1861  2.8856  3.0178
  729MOL0     H  544   6.744   5.085   0.993  0.8577  3.0211 -0.6298
  729MOL0     H  545   6.538   5.151   0.781 -1.9465 -3.8892  1.9577
  729MOL0     H  546   6.686   5.248   0.806 -0.3987  0.4003  1.3473
  729MOL0     H  547   6.711   4.941   0.755  0.4225  0.4062 -0.5825
  729MOL0     H  548   6.835   5.056   0.750  1.0684 -0.4996 -2.1500
  729MOL0     H  549   6.608   5.079   0.567 -0.8455 -0.9595  3.8474
  729MOL0     H  550   6.735   5.189   0.568  1.2898  0.6583  0.7194
  729MOL0     H  551   6.746   4.783   0.561 -0.2725  0.2268 -0.9300
  729MOL0     H  552   7.027   4.677   0.313  1.1357  1.3405  1.7946
  729MOL0     H  553   6.853   4.662   0.266  4.2159 -0.7652 -3.5079
  729MOL0     H  554   6.986   4.604   0.540  2.7060 -0.0696 -1.3944
  729MOL0     H  555   6.817   4.550   0.475 -0.8394  0.5839 -0.4490
  729MOL0     H  556   7.104   4.456   0.404  0.3359  0.6403 -2.4167
  729MOL0     H  557   6.962   4.364   0.461 -0.4077 -2.7459 -3.7851
  729MOL0     H  558   7.032   4.452   0.198  2.0935 -2.4130  0.8431
  729MOL0     H  559   6.983   4.293   0.253  1.1288  0.5450  2.1741
  729MOL0     H  560   6.554   4.460   0.133  0.2431 -1.7969  2.0167
  729MOL0     H  561   6.404   4.535  -0.006  1.5082  0.6266  1.7775
  729MOL0     H  562   6.378   4.398  -0.113 -0.0451 -0.4002 -2.8811
  729MOL0     H  563   6.442   4.542  -0.186 -1.2919  0.4406  1.7592
  729MOL0     H  564   6.364   4.111  -0.435  0.7387 -1.6302 -1.8067
  729MOL0     H  565   6.258   4.100  -0.664  0.4312 -1.1790  1.3192
  729MOL0     H  566   6.205   4.120  -0.849 -1.4969 -2.6081 -3.1634
  729MOL0     H  567   6.205   4.216  -1.001 -0.3635  0.6117  1.5315
  729MOL0     H  568   6.430   4.055  -0.869 -1.2258  0.9761  1.2609
  729MOL0     H  569   6.361   4.049  -1.030 -0.1432 -0.8129  1.1222
  729MOL0     H  570   6.526   4.287  -0.933 -0.8898 -0.9626 -0.0133
  729MOL0     H  571   6.455   4.279  -1.091  1.6120 -1.9565 -2.8875
  729MOL0     H  572   6.586   4.055  -1.123 -0.1902 -0.2147 -0.5862
  729MOL0     H  573   6.675   4.116  -0.982 -2.6920 -2.3810  1.6780
  729MOL0     H  574   6.639   4.265  -1.240  1.2237  0.1984 -1.3770
  729MOL0     H  575   6.719   4.330  -1.087  1.2934 -1.4814  0.4118
  729MOL0     H  576   6.822   4.103  -1.275  1.5409 -1.6161 -0.1988
  729MOL0     H  577   6.889   4.141  -1.116 -1.0020  0.7949  0.4936
  729MOL0     H  578   6.848   4.382  -1.308 -0.4820  1.7559  0.7294
  729MOL0     H  579   6.974   4.280  -1.345  0.3729  0.9690  0.5141
  729MOL0     H  580   6.932   4.450  -1.109 -1.1665 -1.5566  1.6008
  729MOL0     H  581   7.071   4.445  -1.226 -0.5299  1.9442  1.9671
  729MOL0     H  582   6.399   4.497  -0.738 -1.4307 -0.4012 -0.2788
  729MOL0     H  583   6.523   4.496  -0.523  1.9517 -3.0476  0.5803
  729MOL0     H  584   6.866   4.307  -0.220  0.8926 -1.4209  1.1480
  729MOL0     H  585   6.955   4.329   0.009  0.6421  0.6040  0.1355
  729MOL0     H  586   6.980   5.477   1.376 -0.6649 -1.5551  0.5968
  729MOL0     H  587   7.174   5.646   1.322  2.5957  0.4223 -0.8633
  729MOL0     H  588   7.607   5.700   1.521  1.2265 -0.6820  0.2476
  729MOL0     H  589   7.812   5.774   1.535 -1.8908 -3.5428  1.0278
  729MOL0     H  590   7.916   5.969   1.488 -2.2716  1.5578 -0.9618
  729MOL0     H  591   8.082   5.999   1.434  0.0225 -2.4013  0.2267
  729MOL0     H  592   7.958   6.068   1.201 -2.4877  1.1427 -0.2324
  729MOL0     H  593   7.969   6.171   1.336  0.9077 -0.5269  0.2919
  729MOL0     H  594   7.710   5.987   1.275 -3.9036  2.5402  0.6567
  729MOL0     H  595   7.733   6.096   1.413 -1.4354 -1.9064  0.0020
  729MOL0     H  596   7.710   6.279   1.258 -2.7018 -0.4864  1.6662
  729MOL0     H  597   7.582   6.180   1.227  0.0874 -1.4989  1.8941
  729MOL0     H  598   7.747   6.162   0.837 -0.0441  0.0868  0.2419
  729MOL0     H  599   7.892   5.717   1.115 -1.0845  2.6455 -0.1713
  729MOL0     H  600   7.640   5.653   0.996  0.8860 -0.4849  0.2971
  729MOL0     H  601   7.758   5.531   1.017 -1.0525  0.9414 -4.0359
  729MOL0     H  602   7.598   5.489   1.064  0.9138 -1.1712  1.7557
  730MOL0     O  603   3.436   8.738  10.237 -0.1678  0.8994  0.0194
  730MOL0     C  604   3.476   8.827  10.309  1.0357 -0.1750  0.3370
  730MOL0     O  605   3.469   8.832  10.447 -0.1645 -0.3766 -0.8172
  730MOL0     C  606   3.417   8.724  10.513  0.0458  0.0761  0.4442
  730MOL0     C  607   3.302   8.745  10.593 -0.1260 -0.4156 -0.6914
  730MOL0     C  608   3.243   8.638  10.671 -0.3224  0.4013 -0.1202
  730MOL0     C  609   3.297   8.505  10.654  0.9928 -0.6701 -0.5918
  730MOL0     O  610   3.240   8.399  10.730  0.9195 -0.2822  0.6527
  730MOL0     C  611   3.332   8.312  10.800  0.0148 -0.3485  1.2240
  730MOL0     C  612   3.263   8.251  10.918 -0.1383  0.1760 -0.8543
  730MOL0     C  613   3.351   8.144  10.994  0.4271  0.2752  0.4081
  730MOL0     C  614   3.271   8.083  11.109  0.0162  0.6522 -0.0525
  730MOL0     C  615   3.360   7.989  11.194  0.2112 -0.3415  0.5784
  730MOL0     C  616   3.286   7.923  11.303  0.0490 -0.4592  0.3945
  730MOL0     C  617   3.376   7.835  11.400 -0.5227 -0.8508  0.1372
  730MOL0     C  618   3.320   7.791  11.536  0.4411  0.5156  0.7284
  730MOL0     N  619   3.240   7.889  11.598  0.8979  0.2966  0.0185
  730MOL0     C  620   3.105   7.927  11.564 -0.2284  0.2582 -0.8020
  730MOL0     C  621   3.080   8.044  11.629 -0.5473 -0.2988  0.2169
  730MOL0     C  622   2.964   8.138  11.612 -0.4115  0.6266 -0.7508
  730MOL0     C  623   2.961   8.189  11.470 -1.6325  0.1488  1.2128
  730MOL0     C  624   3.067   8.307  11.432 -0.5086 -0.2129  0.2287
  730MOL0     C  625   3.037   8.388  11.308  0.2175  0.3038  1.2157
  730MOL0     O  626   3.147   8.478  11.284 -0.1915  0.2739  0.2394
  730MOL0     C  627   3.136   8.576  11.190  0.6688  0.9827  0.4048
  730MOL0     C  628   3.032   8.594  11.089 -0.4579  0.9540 -1.0542
  730MOL0     C  629   3.039   8.712  11.006 -0.4047  0.0303  0.1708
  730MOL0     C  630   2.919   8.725  10.911  0.4251  0.2553 -0.0857
  730MOL0     C  631   3.149   8.798  11.006 -0.4813 -0.9481 -0.6316
  730MOL0     C  632   3.163   8.920  10.916  0.5451  0.0586 -0.1857
  730MOL0     O  633   3.292   8.969  10.913  0.3846  0.3187 -0.0843
  730MOL0     C  634   3.346   9.067  10.830  0.2967 -0.4858 -0.3474
  730MOL0     C  635   3.273   9.178  10.768  0.4235  0.7173 -0.0351
  730MOL0     C  636   3.345   9.271  10.692  0.1657 -0.2879 -0.4892
  730MOL0     C  637   3.491   9.269  10.695  0.6322  0.4109  0.4340
  730MOL0     O  638   3.581   9.343  10.623  0.6474 -0.8841  0.0482
  730MOL0     C  639   3.542   9.474  10.598 -1.2244 -0.0836 -0.5897
  730MOL0     C  640   3.655   9.549  10.529 -0.2799 -0.0423 -0.2973
  730MOL0     C  641   3.784   9.571  10.620  0.1394  0.0690  0.8435
  730MOL0     C  642   3.821   9.727  10.612 -0.2288 -0.4430  0.5258
  730MOL0     C  643   3.862   9.777  10.469  0.4845 -0.1826  0.9838
  730MOL0     C  644   3.942   9.669  10.389 -0.7038  0.6532  0.2251
  730MOL0     C  645   3.976   9.717  10.246  0.5868  0.0124  0.3261
  730MOL0     C  646   4.124   9.764  10.257  0.5372 -0.1420 -0.0318
  730MOL0    Cl  647   4.169   9.834  10.103  0.0816  0.4497  0.3793
  730MOL0     C  648   3.553   9.167  10.765  0.2381 -0.2008  0.0363
  730MOL0     C  649   3.483   9.061  10.823  0.1568  0.8041 -0.2834
  730MOL0     O  650   3.059   8.971  10.866 -0.2464  0.9927  0.1645
  730MOL0     C  651   3.242   8.785  11.109  0.4456  1.6261 -1.4045
  730MOL0     C  652   3.237   8.669  11.195 -0.0137  0.7350  0.5085
  730MOL0     N  653   3.196   8.082  11.691  0.4609  0.5932  0.0446
  730MOL0     N  654   3.287   7.989  11.679 -0.0702 -0.3442  0.7352
  730MOL0     C  655   3.412   8.492  10.573  0.9189  0.1793 -0.0265
  730MOL0     C  656   3.472   8.594  10.504 -0.2513 -0.2854  0.2049
  730MOL0     C  657   3.530   8.948  10.233  0.5732 -0.0762 -0.2318
  730MOL0     C  658   3.599   9.041  10.314  1.5652  0.2590 -0.8271
  730MOL0     C  659   3.626   9.175  10.268  0.4120  0.8342  0.0464
  730MOL0     C  660   3.583   9.206  10.137  0.2698 -0.2928 -0.3299
  730MOL0     O  661   3.609   9.341  10.113 -0.4518 -0.3746 -0.5083
  730MOL0     C  662   3.498   9.417  10.045 -0.3907 -0.4073 -0.5608
  730MOL0     C  663   3.491   9.571  10.077  0.4557 -0.5092 -0.0436
  730MOL0     C  664   3.625   9.642  10.058 -0.1781 -0.1049  0.0798
  730MOL0     C  665   3.653   9.655   9.899  0.2509 -0.5449  0.0153
  730MOL0     C  666   3.770   9.738   9.878  0.2851 -0.2233  0.1769
  730MOL0     C  667   3.879   9.798   9.874  0.9050 -1.2197  0.3643
  730MOL0     C  668   3.517   9.114  10.049 -0.2818 -0.6049 -0.1655
  730MOL0     C  669   3.495   8.986  10.100  0.4882 -0.0935 -0.4847
  730MOL0     C  670   3.430   8.894  10.002 -0.0358  0.0890  0.0227
  730MOL0     H  671   3.254   8.841  10.586 -0.5477 -0.5683 -0.0242
  730MOL0     H  672   3.156   8.663  10.732 -2.1704 -2.5686 -1.2777
  730MOL0     H  673   3.414   8.377  10.830 -1.2960  0.9148  2.2133
  730MOL0     H  674   3.363   8.234  10.730 -3.4540  0.8960 -2.0429
  730MOL0     H  675   3.237   8.335  10.983  1.4152  1.6314 -2.0461
  730MOL0     H  676   3.168   8.207  10.887  0.7064 -1.9328 -0.6385
  730MOL0     H  677   3.402   8.081  10.921  2.7642  1.4142  0.9834
  730MOL0     H  678   3.431   8.198  11.046 -0.0015  1.1276  0.2061
  730MOL0     H  679   3.223   8.151  11.179  0.5947  1.9086 -0.8412
  730MOL0     H  680   3.191   8.023  11.065 -0.1411  0.7689  0.0731
  730MOL0     H  681   3.454   8.040  11.218  2.2821 -1.5576 -3.9702
  730MOL0     H  682   3.400   7.913  11.126 -0.2347 -1.8890  1.9642
  730MOL0     H  683   3.246   8.013  11.350  1.6690  0.8887 -0.6785
  730MOL0     H  684   3.203   7.866  11.261  1.4250 -3.1176  1.0047
  730MOL0     H  685   3.463   7.898  11.422 -0.4119 -0.2157 -1.9678
  730MOL0     H  686   3.394   7.746  11.339 -2.9635 -1.4693  0.2306
  730MOL0     H  687   3.265   7.697  11.526 -1.2923  1.4904  0.6040
  730MOL0     H  688   3.395   7.751  11.605 -1.1045 -3.2427  0.4707
  730MOL0     H  689   3.060   7.893  11.472 -0.6459 -0.5907 -0.3064
  730MOL0     H  690   2.976   8.222  11.680  2.3957  0.9661 -1.5722
  730MOL0     H  691   2.874   8.082  11.640 -0.5476  1.6155  0.9491
  730MOL0     H  692   2.996   8.123  11.390 -0.3764  1.1765  0.8744
  730MOL0     H  693   2.862   8.229  11.446 -0.6800  0.7824 -2.2900
  730MOL0     H  694   3.079   8.366  11.524  1.6699 -1.7582  1.0198
  730MOL0     H  695   3.164   8.259  11.419  1.9143  3.7721  1.6922
  730MOL0     H  696   3.021   8.307  11.237  1.9821  0.5605  0.4695
  730MOL0     H  697   2.947   8.450  11.314 -0.1037  0.3800 -2.2791
  730MOL0     H  698   2.942   8.533  11.093  0.8127 -0.9787  2.6547
  730MOL0     H  699   2.855   8.636  10.912 -1.2506  1.4221  0.9289
  730MOL0     H  700   2.943   8.747  10.806 -1.2433 -0.3621 -0.6429
  730MOL0     H  701   2.851   8.805  10.942 -1.1577 -0.1736 -2.1594
  730MOL0     H  702   3.166   9.171  10.751  0.6728 -0.0082 -1.4399
  730MOL0     H  703   3.287   9.347  10.640 -2.9051 -2.7707 -1.0211
  730MOL0     H  704   3.446   9.478  10.547 -4.5403 -2.7645  4.5804
  730MOL0     H  705   3.532   9.527  10.694  2.7015  0.3916 -0.2503
  730MOL0     H  706   3.674   9.492  10.438 -2.4062 -0.9597 -0.2270
  730MOL0     H  707   3.607   9.644  10.504  1.3219  0.9031  0.0671
  730MOL0     H  708   3.866   9.507  10.585 -0.3574  0.5619 -1.3975
  730MOL0     H  709   3.760   9.539  10.722  1.1343 -1.1362  0.7226
  730MOL0     H  710   3.896   9.746  10.689 -1.3542 -4.1135  2.7869
  730MOL0     H  711   3.731   9.784  10.637 -0.7580 -0.2945 -1.5511
  730MOL0     H  712   3.776   9.813  10.413  1.0903  1.2363  0.9123
  730MOL0     H  713   3.917   9.871  10.485 -0.4059  0.6803 -0.7744
  730MOL0     H  714   3.873   9.586  10.374  1.2237 -1.1263  0.7227
  730MOL0     H  715   4.035   9.635  10.436 -0.5290 -0.0671 -0.6054
  730MOL0     H  716   3.904   9.792  10.213 -0.5838 -1.8387 -1.5923
  730MOL0     H  717   3.961   9.638  10.171 -1.3744 -0.5596  1.2658
  730MOL0     H  718   4.187   9.677  10.274  1.9723  1.1717  1.8270
  730MOL0     H  719   4.138   9.832  10.341 -1.9115 -1.2517  1.3792
  730MOL0     H  720   3.660   9.159  10.753 -0.0107 -0.9282 -2.2042
  730MOL0     H  721   3.548   8.983  10.862 -0.9908  1.4799  3.3583
  730MOL0     H  722   3.323   8.854  11.130  0.1919  0.9797  2.3887
  730MOL0     H  723   3.316   8.640  11.263  0.1803  0.4231  0.1532
  730MOL0     H  724   3.451   8.392  10.554 -0.2990 -0.3346  0.1200
  730MOL0     H  725   3.564   8.590  10.446  0.8655  2.6491  1.6168
  730MOL0     H  726   3.638   9.026  10.414 -3.5750  4.1967  2.3295
  730MOL0     H  727   3.704   9.232  10.317  3.9261 -2.7224 -0.9180
  730MOL0     H  728   3.505   9.400   9.937 -0.6600  0.3864 -0.7053
  730MOL0     H  729   3.408   9.362  10.073  1.1756 -3.0805 -0.4930
  730MOL0     H  730   3.449   9.577  10.178 -1.7667 -0.1747 -0.9385
  730MOL0     H  731   3.413   9.610  10.011 -1.7564 -0.2826  2.5334
  730MOL0     H  732   3.626   9.741  10.105  1.3624  0.6585 -1.4083
  730MOL0     H  733   3.715   9.598  10.103 -0.3261 -3.0921 -2.2165
  730MOL0     H  734   3.576   9.719   9.856  0.8185 -0.9297 -1.6327
  730MOL0     H  735   3.661   9.560   9.845 -2.0946 -0.1902 -1.0552
  730MOL0     H  736   3.965   9.859   9.858  0.4707 -0.5880  0.4138
  730MOL0     H  737   3.493   9.154   9.951 -0.2006 -0.5286 -0.1536
  730MOL0     H  738   3.484   8.800   9.988 -0.8857 -0.1561 -2.1669
  730MOL0     H  739   3.323   8.884  10.022 -0.0640 -1.4715 -0.7327
  730MOL0     H  740   3.426   8.933   9.900 -1.0976  1.4204  0.5422
  731MOL0     O  741   5.264   6.923   2.485  0.1746  0.4939  0.1501
  731MOL0     C  742   5.377   6.908   2.532  0.1661 -0.2290  0.5444
  731MOL0     O  743   5.401   6.819   2.630  0.5127 -0.4581  0.2365
  731MOL0     C  744   5.294   6.751   2.682 -0.0681 -0.4433 -0.5975
  731MOL0     C  745   5.267   6.630   2.625  0.8773 -0.2169 -0.1744
  731MOL0     C  746   5.154   6.557   2.671  0.3365 -0.2674  0.9484
  731MOL0     C  747   5.077   6.601   2.786  0.1388  1.0257 -0.9727
  731MOL0     O  748   4.977   6.518   2.845 -0.8761 -0.4466  0.1429
  731MOL0     C  749   4.866   6.575   2.912  0.6116 -0.3068 -0.6358
  731MOL0     C  750   4.797   6.444   2.942  0.6186  0.0965 -0.4868
  731MOL0     C  751   4.683   6.468   3.044 -0.4550  0.3778  0.2989
  731MOL0     C  752   4.738   6.515   3.178 -0.6772 -0.7265 -0.3718
  731MOL0     C  753   4.682   6.415   3.296 -0.1539 -0.2458  0.2971
  731MOL0     C  754   4.680   6.492   3.434  0.7968 -1.4283 -0.6849
  731MOL0     C  755   4.813   6.502   3.500 -0.2749 -0.2574  0.6578
  731MOL0     C  756   4.835   6.368   3.563 -1.9071  0.9638 -0.2529
  731MOL0     N  757   4.947   6.378   3.650  0.1754 -0.4588 -0.5528
  731MOL0     C  758   4.950   6.418   3.785  0.9801 -0.4594  1.1677
  731MOL0     C  759   5.082   6.386   3.819 -0.6351 -0.1188  0.4575
  731MOL0     C  760   5.141   6.405   3.962  0.0866  0.0101  0.6547
  731MOL0     C  761   5.065   6.321   4.057 -0.6176 -0.2261  0.3756
  731MOL0     C  762   5.119   6.341   4.209 -0.1628 -0.2737 -0.2065
  731MOL0     C  763   5.081   6.223   4.297  0.2513 -0.3582  0.6165
  731MOL0     O  764   4.935   6.220   4.309  0.2501  0.0956  0.5096
  731MOL0     C  765   4.878   6.102   4.336  0.1498 -1.2043  0.1600
  731MOL0     C  766   4.798   6.035   4.243 -0.3547  0.2068 -0.4480
  731MOL0     C  767   4.726   5.920   4.280  0.1472  0.3146  0.6947
  731MOL0     C  768   4.651   5.852   4.167 -0.0822 -0.7831  0.2740
  731MOL0     C  769   4.727   5.885   4.416 -0.3615 -0.3429  0.5099
  731MOL0     C  770   4.655   5.776   4.464 -0.2777  0.0217  0.3989
  731MOL0     O  771   4.559   5.798   4.556 -0.2541 -0.0013  0.5727
  731MOL0     C  772   4.536   5.715   4.663  0.0296  0.8165  0.2910
  731MOL0     C  773   4.428   5.631   4.678 -1.5248  0.1852 -0.0941
  731MOL0     C  774   4.413   5.558   4.808  0.8826  0.1526 -0.3559
  731MOL0     C  775   4.498   5.569   4.922 -0.2885 -0.9099 -0.0378
  731MOL0     O  776   4.488   5.489   5.039  0.6698 -0.1119 -0.2137
  731MOL0     C  777   4.600   5.465   5.123 -0.6646 -0.8818  0.8300
  731MOL0     C  778   4.561   5.391   5.244  0.8472  0.7889  1.0587
  731MOL0     C  779   4.662   5.397   5.358  0.6546 -0.5780 -1.1105
  731MOL0     C  780   4.798   5.351   5.322 -1.2722  0.0432 -1.3976
  731MOL0     C  781   4.810   5.201   5.290 -0.7825  1.0815  0.2988
  731MOL0     C  782   4.927   5.129   5.356  0.5067 -0.3702  0.0752
  731MOL0     C  783   4.923   4.980   5.309  0.5706 -0.5055 -0.0275
  731MOL0     C  784   5.004   4.972   5.184 -0.7628 -0.3206  0.0339
  731MOL0    Cl  785   5.184   4.989   5.211 -0.2118 -0.4910  0.0319
  731MOL0     C  786   4.598   5.668   4.900 -0.3654  0.3656  0.6194
  731MOL0     C  787   4.615   5.736   4.779 -0.0558 -0.4190 -0.6908
  731MOL0     O  788   4.686   5.661   4.429 -0.3464 -0.0734  0.3369
  731MOL0     C  789   4.806   5.951   4.508  0.2853 -0.2466  1.0682
  731MOL0     C  790   4.882   6.059   4.468  0.3452 -0.3083 -0.1012
  731MOL0     N  791   5.151   6.331   3.707  0.2995  0.1503 -0.1795
  731MOL0     N  792   5.073   6.323   3.611  0.5651 -0.1704  0.1824
  731MOL0     C  793   5.108   6.727   2.832 -0.1376  0.7909  0.2544
  731MOL0     C  794   5.213   6.798   2.790 -0.2685  0.5638  0.2724
  731MOL0     C  795   5.491   6.964   2.460 -0.5514 -0.5099  0.2585
  731MOL0     C  796   5.679   6.969   2.551 -0.9438 -0.7214  0.5858
  731MOL0     C  797   5.836   7.077   2.467 -0.5868  0.0545  0.1259
  731MOL0     C  798   5.807   7.173   2.277 -0.1566 -0.0730  0.0746
  731MOL0     O  799   5.916   7.224   2.208  0.0852  0.1830  0.0918
  731MOL0     C  800   5.904   7.273   2.078  0.3114  0.2725  0.7184
  731MOL0     C  801   6.033   7.339   2.022 -0.1049 -0.0240  0.1335
  731MOL0     C  802   6.010   7.409   1.893 -0.3520  0.4581 -0.4279
  731MOL0     C  803   5.907   7.524   1.899 -0.9331  0.7022  0.5195
  731MOL0     C  804   5.952   7.629   1.987 -0.5794 -0.3301 -0.6315
  731MOL0     C  805   5.968   7.721   2.069  0.4705 -0.1833  0.6388
  731MOL0     C  806   5.614   7.166   2.181 -0.0207 -0.3175 -0.8193
  731MOL0     C  807   5.459   7.061   2.275 -0.4266  0.3309 -0.6450
  731MOL0     C  808   5.319   7.061   2.208 -0.3073  0.0844 -0.5412
  731MOL0     H  809   5.318   6.600   2.534  0.9960  0.1807 -0.2418
  731MOL0     H  810   5.114   6.474   2.614  2.9968 -0.3844 -0.9654
  731MOL0     H  811   4.808   6.647   2.854 -1.2444 -2.1094 -1.1336
  731MOL0     H  812   4.903   6.628   3.000  2.0714 -2.2294 -0.0206
  731MOL0     H  813   4.767   6.391   2.851  2.9486 -0.0334 -1.2453
  731MOL0     H  814   4.869   6.374   2.986 -0.2596 -0.0551  0.7957
  731MOL0     H  815   4.608   6.537   3.005 -1.3921 -1.8859 -2.2357
  731MOL0     H  816   4.625   6.375   3.041  1.7831 -1.0951  0.2299
  731MOL0     H  817   4.847   6.511   3.176 -0.5834  1.1177 -2.5442
  731MOL0     H  818   4.716   6.620   3.195  3.9253  0.4057 -0.0081
  731MOL0     H  819   4.740   6.324   3.312  0.9114  0.8402  3.7047
  731MOL0     H  820   4.577   6.392   3.275  0.4751 -2.1786 -0.9227
  731MOL0     H  821   4.639   6.592   3.414  1.3222 -1.1535 -0.4382
  731MOL0     H  822   4.609   6.434   3.493 -0.4456 -0.1362 -0.8409
  731MOL0     H  823   4.809   6.575   3.582 -3.7854  0.0861  0.3249
  731MOL0     H  824   4.891   6.526   3.428  0.2370 -0.1841  1.2224
  731MOL0     H  825   4.748   6.344   3.624 -1.1118 -0.4815  0.3469
  731MOL0     H  826   4.858   6.291   3.488 -0.2290 -0.9781  2.0955
  731MOL0     H  827   4.868   6.454   3.846 -1.4938 -0.9724 -1.6398
  731MOL0     H  828   5.139   6.512   3.981 -2.7832  0.9181 -3.4340
  731MOL0     H  829   5.241   6.361   3.960  0.2074  0.2639  1.1019
  731MOL0     H  830   4.963   6.361   4.069  0.0224  1.2657  1.1706
  731MOL0     H  831   5.057   6.213   4.042 -1.2952  0.0057 -1.0711
  731MOL0     H  832   5.228   6.350   4.204 -0.1629 -0.5365 -4.1474
  731MOL0     H  833   5.068   6.429   4.249 -1.3132 -0.0135 -2.1304
  731MOL0     H  834   5.132   6.140   4.249  0.0928 -1.8018  2.7873
  731MOL0     H  835   5.129   6.225   4.395  2.4143  0.0119 -0.4083
  731MOL0     H  836   4.801   6.072   4.141  0.8000  0.3019 -0.3890
  731MOL0     H  837   4.693   5.876   4.069 -2.6348 -2.5829 -1.3907
  731MOL0     H  838   4.545   5.874   4.155  0.2160  0.6656  0.1605
  731MOL0     H  839   4.667   5.746   4.192 -1.3291 -0.7269  1.4549
  731MOL0     H  840   4.362   5.619   4.593 -2.3758  2.9684  0.0500
  731MOL0     H  841   4.333   5.485   4.813  1.8127 -0.7799  2.0913
  731MOL0     H  842   4.680   5.412   5.070 -0.8955  0.5730 -1.0599
  731MOL0     H  843   4.644   5.558   5.159 -0.6993 -0.1673 -0.9061
  731MOL0     H  844   4.465   5.429   5.280 -0.0997  0.3158 -0.8566
  731MOL0     H  845   4.543   5.286   5.220  0.7776  1.1943 -0.8287
  731MOL0     H  846   4.628   5.347   5.449  1.2570  0.9234 -0.0147
  731MOL0     H  847   4.676   5.500   5.393 -0.9201 -0.8956  0.5931
  731MOL0     H  848   4.857   5.363   5.414  0.6574 -1.3804 -2.3913
  731MOL0     H  849   4.832   5.414   5.240 -2.0329 -0.5755 -2.2017
  731MOL0     H  850   4.725   5.140   5.321  0.8880 -0.8586  1.3583
  731MOL0     H  851   4.824   5.195   5.182  1.5333  3.1495  0.3930
  731MOL0     H  852   4.911   5.148   5.463 -2.3908 -0.2097 -0.3238
  731MOL0     H  853   5.020   5.178   5.326 -0.6300  0.9614 -1.4179
  731MOL0     H  854   4.821   4.943   5.296  0.9612 -0.6249 -4.1518
  731MOL0     H  855   4.964   4.915   5.387  1.8479  0.3676  0.0650
  731MOL0     H  856   4.976   5.058   5.123  0.0179  1.0134  1.4754
  731MOL0     H  857   4.981   4.879   5.131 -1.1797  0.1362 -0.5945
  731MOL0     H  858   4.686   5.677   4.962 -1.7011 -1.4162  2.9249
  731MOL0     H  859   4.694   5.810   4.780 -1.2308  0.8890 -0.6803
  731MOL0     H  860   4.809   5.922   4.613 -2.0622 -4.9686  0.0924
  731MOL0     H  861   4.928   6.105   4.554 -0.3609  1.8553 -0.8186
  731MOL0     H  862   5.047   6.788   2.897  0.1102  2.2479 -0.8238
  731MOL0     H  863   5.233   6.899   2.826  0.6635  0.7802 -0.7734
  731MOL0     H  864   5.683   6.929   2.652 -0.1446 -1.9818  0.0824
  731MOL0     H  865   5.937   7.077   2.507 -1.7239  0.6498  3.2101
  731MOL0     H  866   5.878   7.193   2.009  1.2115 -1.0902  1.9047
  731MOL0     H  867   5.814   7.336   2.071  1.2417  1.4370 -3.2305
  731MOL0     H  868   6.107   7.258   2.019  0.8275  0.8419 -1.3070
  731MOL0     H  869   6.074   7.410   2.094  3.3553 -2.7460  1.1340
  731MOL0     H  870   6.104   7.437   1.846 -1.6613  3.1860 -1.7220
  731MOL0     H  871   5.968   7.335   1.825 -0.6725  0.1009  0.1519
  731MOL0     H  872   5.815   7.480   1.941 -0.5514  0.7471  1.4436
  731MOL0     H  873   5.891   7.553   1.795  1.0548 -1.5766 -0.5160
  731MOL0     H  874   6.006   7.789   2.142  2.3274 -0.1607 -0.2776
  731MOL0     H  875   5.607   7.211   2.082 -1.1942  1.0547 -0.1428
  731MOL0     H  876   5.305   7.124   2.119 -2.8099  1.7601  0.9106
  731MOL0     H  877   5.290   6.960   2.177  1.9223 -0.0436 -2.5072
  731MOL0     H  878   5.250   7.087   2.288  0.2041 -0.0605 -0.0496
  732MOL0     O  879   8.669   3.178   3.953  0.7955 -0.4670 -0.0100
  732MOL0     C  880   8.625   3.114   4.051  0.5290 -0.3669 -0.1076
  732MOL0     O  881   8.574   3.174   4.166  0.1252  0.8385 -0.5478
  732MOL0     C  882   8.605   3.303   4.193 -0.5263 -0.4393  0.2526
  732MOL0     C  883   8.692   3.328   4.301  0.3497  0.0487  0.8831
  732MOL0     C  884   8.707   3.463   4.355 -0.4947 -0.7768 -0.9678
  732MOL0     C  885   8.645   3.572   4.285 -0.4628 -0.7133  0.0824
  732MOL0     O  886   8.690   3.711   4.314 -0.3248  0.6792 -0.5365
  732MOL0     C  887   8.588   3.812   4.327  0.2116 -0.2807  0.0191
  732MOL0     C  888   8.633   3.931   4.233  0.0079  0.2948  0.9100
  732MOL0     C  889   8.726   4.033   4.291 -0.3552  0.5291  0.4646
  732MOL0     C  890   8.654   4.147   4.355  0.3014 -0.1395 -0.4888
  732MOL0     C  891   8.755   4.243   4.418  0.2711 -0.7415  0.1930
  732MOL0     C  892   8.826   4.191   4.550  0.1541  0.3415  0.6586
  732MOL0     C  893   8.909   4.300   4.626 -0.0176  0.2954 -0.8174
  732MOL0     C  894   8.972   4.263   4.766 -0.3848  0.8171 -0.1215
  732MOL0     N  895   8.873   4.276   4.875  0.0814 -0.1721  0.5522
  732MOL0     C  896   8.840   4.398   4.927 -0.3909  1.0802  0.4645
  732MOL0     C  897   8.779   4.351   5.046  0.3472 -0.2186  0.1145
  732MOL0     C  898   8.719   4.443   5.145  0.2395  0.1677  0.0028
  732MOL0     C  899   8.797   4.476   5.268 -0.2468  0.1538  0.6396
  732MOL0     C  900   8.807   4.352   5.358  0.4337  0.0132 -0.3964
  732MOL0     C  901   8.670   4.295   5.410  0.4331  0.9587 -0.0931
  732MOL0     O  902   8.688   4.209   5.515  0.3369  0.4695 -0.3883
  732MOL0     C  903   8.715   4.073   5.494 -0.5380  0.7105 -0.1276
  732MOL0     C  904   8.707   3.983   5.607 -1.1065 -0.4049  0.6868
  732MOL0     C  905   8.712   3.843   5.586  0.7690  0.5844  0.0139
  732MOL0     C  906   8.716   3.763   5.714 -0.2811 -0.4486 -0.4054
  732MOL0     C  907   8.731   3.790   5.458  0.5954 -0.8330  0.7403
  732MOL0     C  908   8.769   3.645   5.432 -0.2343  0.1539 -0.3298
  732MOL0     O  909   8.844   3.613   5.314 -0.3897  0.5500  0.3296
  732MOL0     C  910   8.879   3.482   5.298 -0.2250  0.1362  0.4287
  732MOL0     C  911   9.004   3.464   5.242 -0.3002 -0.2634  0.2632
  732MOL0     C  912   9.056   3.340   5.203  0.4907 -0.6355 -1.1512
  732MOL0     C  913   8.975   3.222   5.233 -0.5166  0.3467 -0.2889
  732MOL0     O  914   9.001   3.095   5.196 -0.2355  0.8474 -0.6733
  732MOL0     C  915   9.131   3.085   5.119  0.0772 -0.1626  0.3902
  732MOL0     C  916   9.175   2.944   5.089 -0.4858 -0.0966  0.8393
  732MOL0     C  917   9.269   2.929   4.972  0.0175  0.5708 -0.6189
  732MOL0     C  918   9.262   2.778   4.928 -0.2109 -0.6632 -0.6153
  732MOL0     C  919   9.355   2.750   4.809 -0.0236 -0.3739 -0.3138
  732MOL0     C  920   9.277   2.778   4.676 -1.1983 -0.1208  0.0407
  732MOL0     C  921   9.350   2.717   4.547  0.5684 -0.3083  0.4888
  732MOL0     C  922   9.338   2.563   4.552  0.3832 -0.1169 -0.3217
  732MOL0    Cl  923   9.418   2.504   4.407 -0.2728 -0.0747 -0.1846
  732MOL0     C  924   8.858   3.240   5.294  0.3570 -0.7668  0.1986
  732MOL0     C  925   8.807   3.366   5.328  0.2231 -0.8101  0.2574
  732MOL0     O  926   8.732   3.564   5.515 -0.4503  1.1316  0.5065
  732MOL0     C  927   8.737   3.879   5.351  0.4319 -0.1465  0.3021
  732MOL0     C  928   8.726   4.017   5.372 -0.1401  0.0548  0.4645
  732MOL0     N  929   8.777   4.221   5.051 -0.7303  0.1544  0.1832
  732MOL0     N  930   8.841   4.178   4.950  0.0900 -0.3460 -0.0659
  732MOL0     C  931   8.554   3.546   4.184 -0.5592  0.0446  0.3410
  732MOL0     C  932   8.540   3.415   4.135  0.0064  0.0521  0.3925
  732MOL0     C  933   8.632   2.968   4.026  0.0062  0.0124 -0.2898
  732MOL0     C  934   8.722   2.924   3.932 -0.4599 -0.3147  0.8876
  732MOL0     C  935   8.745   2.793   3.913  0.6309  0.3384  0.1056
  732MOL0     C  936   8.667   2.692   3.975 -0.5453 -0.3572  0.9819
  732MOL0     O  937   8.664   2.557   3.947 -0.6935  0.0484 -1.2776
  732MOL0     C  938   8.727   2.520   3.833 -0.0373 -0.1500  0.4427
  732MOL0     C  939   8.713   2.368   3.812  1.7826 -0.7365  1.1733
  732MOL0     C  940   8.766   2.288   3.930 -0.5892 -0.2645 -0.2932
  732MOL0     C  941   8.788   2.142   3.886 -0.4499 -0.5227 -0.7047
  732MOL0     C  942   8.852   2.075   3.996  0.1634  0.2949  0.0737
  732MOL0     C  943   8.920   2.018   4.077 -0.5311  0.1037  1.2741
  732MOL0     C  944   8.584   2.737   4.072  0.8678  0.1107  0.0795
  732MOL0     C  945   8.548   2.876   4.093 -0.3052  0.1369 -0.4104
  732MOL0     C  946   8.433   2.913   4.179  0.2838 -0.2949  0.3944
  732MOL0     H  947   8.739   3.252   4.362 -2.3394 -1.6597  0.9618
  732MOL0     H  948   8.771   3.492   4.437 -0.3293 -3.2346 -0.1446
  732MOL0     H  949   8.595   3.836   4.434 -0.0800 -2.4011  0.5610
  732MOL0     H  950   8.486   3.776   4.314 -0.4969  1.6301 -0.0548
  732MOL0     H  951   8.683   3.879   4.151 -0.5796 -0.4840  1.0365
  732MOL0     H  952   8.546   3.974   4.184  0.3924 -1.2138 -1.2718
  732MOL0     H  953   8.791   3.980   4.362 -2.8728 -4.1174 -0.2493
  732MOL0     H  954   8.796   4.072   4.216  1.8221  0.2203  2.2365
  732MOL0     H  955   8.607   4.205   4.275 -0.0378 -0.8723 -0.8301
  732MOL0     H  956   8.583   4.116   4.433  2.6947  1.8636  2.7431
  732MOL0     H  957   8.702   4.334   4.448  1.0545 -0.3328  0.3632
  732MOL0     H  958   8.830   4.279   4.347  0.6209  1.7679  1.7194
  732MOL0     H  959   8.744   4.140   4.600  0.1490  0.0109  0.3162
  732MOL0     H  960   8.899   4.115   4.523 -0.9686 -0.8325  0.8475
  732MOL0     H  961   8.850   4.392   4.635 -1.8601 -0.8955 -0.1087
  732MOL0     H  962   8.995   4.331   4.566  0.5061  0.3490 -0.0587
  732MOL0     H  963   9.003   4.158   4.761  2.3286  1.5940 -1.8690
  732MOL0     H  964   9.061   4.322   4.790  0.3756 -1.1776  2.5372
  732MOL0     H  965   8.845   4.499   4.887  1.7162  0.3806 -1.1837
  732MOL0     H  966   8.627   4.396   5.181 -0.8379  1.9599 -0.3245
  732MOL0     H  967   8.681   4.535   5.101 -1.0725 -0.1708  0.3701
  732MOL0     H  968   8.890   4.515   5.227 -2.2708  2.6021 -2.0600
  732MOL0     H  969   8.744   4.564   5.307 -1.3224 -0.7409  1.2500
  732MOL0     H  970   8.863   4.272   5.310 -1.4487 -0.9413 -1.1205
  732MOL0     H  971   8.869   4.375   5.445  0.7864  0.6855 -0.8108
  732MOL0     H  972   8.610   4.379   5.446 -0.8802  1.7430 -3.7240
  732MOL0     H  973   8.615   4.248   5.329  1.2946 -0.4188  0.0944
  732MOL0     H  974   8.704   4.031   5.704 -1.7814 -1.1910  1.0785
  732MOL0     H  975   8.813   3.713   5.715  0.6924  1.2990 -1.6491
  732MOL0     H  976   8.623   3.707   5.729  0.1623 -1.4884 -1.4030
  732MOL0     H  977   8.724   3.831   5.799  0.4299 -1.5714  0.4449
  732MOL0     H  978   9.066   3.551   5.223 -0.5304  0.3278  2.0163
  732MOL0     H  979   9.146   3.338   5.142  1.1737 -0.1339 -0.1761
  732MOL0     H  980   9.095   3.123   5.023  0.2116  1.9124  1.1261
  732MOL0     H  981   9.215   3.143   5.159  0.4244  0.3270 -0.9851
  732MOL0     H  982   9.220   2.894   5.174 -0.3848  1.2887  1.6288
  732MOL0     H  983   9.085   2.890   5.057 -0.3470 -0.5051  1.1303
  732MOL0     H  984   9.360   2.963   5.023 -0.6442 -0.9403  1.7795
  732MOL0     H  985   9.256   2.998   4.889  0.3811 -0.9605 -1.9881
  732MOL0     H  986   9.162   2.753   4.891  1.0563 -3.4604 -2.4672
  732MOL0     H  987   9.291   2.729   5.021 -1.1024  1.9032  1.1318
  732MOL0     H  988   9.446   2.811   4.814 -0.8828  0.8877  0.5785
  732MOL0     H  989   9.369   2.642   4.816  1.2406 -0.3035 -1.4325
  732MOL0     H  990   9.266   2.886   4.674 -1.0486  0.0271  2.9410
  732MOL0     H  991   9.178   2.732   4.666 -1.0493 -0.2247 -1.1103
  732MOL0     H  992   9.455   2.744   4.535 -0.3475  2.0987 -4.6293
  732MOL0     H  993   9.292   2.751   4.461 -1.7741 -1.0058  1.6758
  732MOL0     H  994   9.237   2.523   4.563  0.0698  0.1343 -2.0064
  732MOL0     H  995   9.390   2.527   4.641 -1.9920 -1.6425  0.5475
  732MOL0     H  996   8.795   3.154   5.318 -1.4738  0.7672  1.1574
  732MOL0     H  997   8.704   3.384   5.359  0.8092 -1.0318  2.4914
  732MOL0     H  998   8.748   3.833   5.253  0.3412 -2.8363  1.4484
  732MOL0     H  999   8.733   4.073   5.280  2.3578 -0.7206  0.0963
  732MOL0     H 1000   8.505   3.628   4.134  0.2169 -1.5341 -3.3651
  732MOL0     H 1001   8.480   3.397   4.047  1.2777  0.7828 -0.6581
  732MOL0     H 1002   8.790   2.985   3.874  1.8814 -1.0101  2.7041
  732MOL0     H 1003   8.808   2.765   3.830 -1.1216  0.0630 -1.1922
  732MOL0     H 1004   8.681   2.558   3.741 -1.1323 -0.2643  0.9212
  732MOL0     H 1005   8.834   2.544   3.839 -0.6408  2.6527  1.7117
  732MOL0     H 1006   8.768   2.340   3.721  0.5671 -3.1795  1.0982
  732MOL0     H 1007   8.605   2.352   3.804  1.8836 -1.0566  0.3862
  732MOL0     H 1008   8.856   2.341   3.963 -2.2386  1.4175  1.7610
  732MOL0     H 1009   8.696   2.281   4.013  1.3088 -0.9951  1.3193
  732MOL0     H 1010   8.855   2.131   3.801 -0.7360 -5.1457 -0.5926
  732MOL0     H 1011   8.691   2.108   3.848 -0.2857  1.4427 -3.0645
  732MOL0     H 1012   8.978   1.975   4.156  0.0231 -2.3388 -0.3578
  732MOL0     H 1013   8.526   2.665   4.129 -0.2821  1.3743  0.5479
  732MOL0     H 1014   8.351   2.844   4.205 -0.3027 -0.0003 -0.6413
  732MOL0     H 1015   8.480   2.942   4.274  0.6949  2.1937 -0.5122
  732MOL0     H 1016   8.380   2.997   4.134 -1.6161 -1.2924  0.6561
  733MOL0     O 1017   9.924   5.447   6.594  0.2389 -0.0810 -0.7233
  733MOL0     C 1018   9.979   5.551   6.631  0.2965 -0.0222  0.9349
  733MOL0     O 1019  10.055   5.567   6.748 -0.2377 -0.4225 -0.3678
  733MOL0     C 1020  10.096   5.446   6.809 -0.4242 -0.2942  0.9186
  733MOL0     C 1021  10.154   5.336   6.737 -0.6453 -1.0820  0.4752
  733MOL0     C 1022  10.200   5.222   6.795  0.2934  0.5268 -0.3777
  733MOL0     C 1023  10.204   5.215   6.935  0.6873 -0.6522 -0.3748
  733MOL0     O 1024  10.232   5.091   6.980  0.1664 -0.3365  0.2852
  733MOL0     C 1025  10.212   5.068   7.122  0.1229  0.4299 -0.1492
  733MOL0     C 1026  10.229   4.916   7.145  0.6703 -0.4545  0.5436
  733MOL0     C 1027  10.199   4.869   7.288  0.8297 -0.4648 -0.4688
  733MOL0     C 1028  10.218   4.711   7.303 -0.1566 -0.7244  0.2795
  733MOL0     C 1029  10.180   4.670   7.449 -0.2593  0.5870  0.5995
  733MOL0     C 1030  10.235   4.545   7.502 -0.4274 -0.0524  0.2896
  733MOL0     C 1031  10.378   4.504   7.467  0.5084  0.2394 -0.5580
  733MOL0     C 1032  10.444   4.401   7.563  0.0881  0.6499 -0.1756
  733MOL0     N 1033  10.415   4.267   7.499 -0.0693  0.1018  0.1612
  733MOL0     C 1034  10.456   4.221   7.375  0.7211  0.1043  0.1090
  733MOL0     C 1035  10.389   4.102   7.359 -1.0240 -0.7653  0.3779
  733MOL0     C 1036  10.391   4.024   7.228  0.0651  0.1975 -0.1047
  733MOL0     C 1037  10.284   3.911   7.232  1.4178 -0.0987  0.0351
  733MOL0     C 1038  10.288   3.814   7.112  0.3196 -0.1200 -0.8313
  733MOL0     C 1039  10.171   3.713   7.127 -0.7869 -0.4417  0.3852
  733MOL0     O 1040  10.202   3.601   7.203 -0.5469 -0.5515 -0.0838
  733MOL0     C 1041  10.098   3.520   7.201  0.3606  1.0193 -0.0546
  733MOL0     C 1042  10.085   3.440   7.086  0.7955  1.0967 -0.4228
  733MOL0     C 1043   9.967   3.356   7.066 -0.1829 -0.5720 -0.2635
  733MOL0     C 1044   9.961   3.270   6.945 -0.2410 -0.1961  0.1774
  733MOL0     C 1045   9.862   3.354   7.166 -0.1567  0.1247  0.6298
  733MOL0     C 1046   9.739   3.267   7.152 -0.1806  0.1692  0.1687
  733MOL0     O 1047   9.681   3.248   7.269 -0.2808  0.2441  0.0035
  733MOL0     C 1048   9.586   3.161   7.279 -0.1767 -1.0051 -1.0410
  733MOL0     C 1049   9.454   3.197   7.247  0.7574 -0.5695 -0.0603
  733MOL0     C 1050   9.344   3.125   7.264  0.1685  1.0130 -0.3202
  733MOL0     C 1051   9.355   3.004   7.327 -0.5601  0.0707 -0.8130
  733MOL0     O 1052   9.246   2.931   7.367  0.1237 -0.4361  0.6497
  733MOL0     C 1053   9.261   2.787   7.370 -1.5926  1.3681  0.3153
  733MOL0     C 1054   9.126   2.714   7.366 -0.0721 -0.8457  0.8239
  733MOL0     C 1055   9.052   2.768   7.239 -0.2533  0.0214 -0.4702
  733MOL0     C 1056   8.952   2.670   7.175  0.3657  0.0789 -0.3562
  733MOL0     C 1057   8.897   2.712   7.041  0.0901 -1.1977  0.1941
  733MOL0     C 1058   8.784   2.608   7.005 -1.5985 -0.2544  0.5403
  733MOL0     C 1059   8.750   2.634   6.858  0.3072 -0.4404 -0.3323
  733MOL0     C 1060   8.663   2.515   6.801  0.9261  0.1809  0.4145
  733MOL0    Cl 1061   8.761   2.381   6.756 -0.4429  0.2563 -0.1585
  733MOL0     C 1062   9.493   2.967   7.379  0.0744 -0.7003  0.0016
  733MOL0     C 1063   9.601   3.034   7.343  0.5032 -0.6699  1.1910
  733MOL0     O 1064   9.697   3.212   7.045 -0.2252  0.6157 -0.0528
  733MOL0     C 1065   9.877   3.441   7.272 -0.0363 -0.5064 -0.4547
  733MOL0     C 1066   9.991   3.519   7.290  0.0270 -0.1462  0.6066
  733MOL0     N 1067  10.309   4.085   7.467 -0.6362  1.0341 -0.0321
  733MOL0     N 1068  10.325   4.181   7.548  0.8684 -0.6878  1.4056
  733MOL0     C 1069  10.169   5.334   7.011  0.5305 -0.4246  0.2053
  733MOL0     C 1070  10.103   5.442   6.950 -0.3057  0.2907 -0.1440
  733MOL0     C 1071   9.982   5.666   6.545  0.9239 -0.0232 -0.4571
  733MOL0     C 1072  10.081   5.765   6.560 -0.2668  0.8838  0.2147
  733MOL0     C 1073  10.069   5.896   6.505 -1.0423  0.5014  0.2309
  733MOL0     C 1074   9.967   5.934   6.418  0.1583 -0.1624 -0.4584
  733MOL0     O 1075   9.967   6.053   6.352  0.7361  0.3576 -0.0456
  733MOL0     C 1076   9.931   6.163   6.440  0.3919  0.4177 -1.0575
  733MOL0     C 1077  10.041   6.220   6.530 -0.5508  0.1003 -0.9699
  733MOL0     C 1078  10.010   6.359   6.572 -0.8176 -0.6478  0.1352
  733MOL0     C 1079  10.068   6.456   6.466  0.1839  0.2449 -0.0117
  733MOL0     C 1080  10.003   6.584   6.482  0.2767  0.4898  0.2994
  733MOL0     C 1081   9.958   6.694   6.460  1.7351  0.6852 -0.2967
  733MOL0     C 1082   9.870   5.841   6.408  0.1730  0.6089 -0.1151
  733MOL0     C 1083   9.872   5.711   6.460 -1.1277  0.1447 -0.0479
  733MOL0     C 1084   9.762   5.633   6.426  0.5155  0.0620  0.2732
  733MOL0     H 1085  10.147   5.341   6.629  0.3406 -0.8591  0.4059
  733MOL0     H 1086  10.240   5.139   6.739  2.2954  1.4188 -0.3694
  733MOL0     H 1087  10.116   5.107   7.155  0.7956  1.3815  0.7496
  733MOL0     H 1088  10.289   5.117   7.182  1.1819 -2.1089  0.6876
  733MOL0     H 1089  10.159   4.857   7.085  1.0180 -2.7527  2.2529
  733MOL0     H 1090  10.330   4.887   7.116  0.8404  1.1796 -0.6223
  733MOL0     H 1091  10.266   4.927   7.353  1.0508 -1.1951 -0.0306
  733MOL0     H 1092  10.098   4.885   7.327  1.1650 -1.6006  0.9475
  733MOL0     H 1093  10.159   4.658   7.227 -0.0096  0.0749 -0.4079
  733MOL0     H 1094  10.324   4.692   7.284 -0.0316 -0.6217  0.8449
  733MOL0     H 1095  10.070   4.674   7.444 -0.5187 -2.3858  2.0989
  733MOL0     H 1096  10.206   4.745   7.524 -1.2137 -1.6232  3.3184
  733MOL0     H 1097  10.227   4.554   7.611  0.0898  1.2205  0.2369
  733MOL0     H 1098  10.174   4.463   7.462  1.0936 -1.3376  0.4644
  733MOL0     H 1099  10.436   4.597   7.477  3.1484 -1.4919  1.5480
  733MOL0     H 1100  10.381   4.456   7.369 -2.5610 -4.1581  1.2065
  733MOL0     H 1101  10.553   4.408   7.568  0.0460  0.5380  1.2321
  733MOL0     H 1102  10.407   4.401   7.666  2.2416  1.2150  0.6412
  733MOL0     H 1103  10.519   4.264   7.298  1.1634 -2.2255 -0.9423
  733MOL0     H 1104  10.488   3.973   7.240 -0.4037 -0.5623  0.5994
  733MOL0     H 1105  10.381   4.079   7.135  0.2285 -2.0121 -1.4965
  733MOL0     H 1106  10.298   3.854   7.324 -0.1006  0.7731  0.8624
  733MOL0     H 1107  10.184   3.955   7.228  0.0609 -2.4110  3.6305
  733MOL0     H 1108  10.271   3.883   7.029 -2.9282  1.2194  0.7217
  733MOL0     H 1109  10.383   3.760   7.115 -1.2424 -3.0546  1.2306
  733MOL0     H 1110  10.084   3.772   7.157 -1.7860 -1.9285  0.5131
  733MOL0     H 1111  10.149   3.680   7.025 -2.4472  0.8486  0.3040
  733MOL0     H 1112  10.161   3.447   7.008 -0.8011 -0.0216 -2.1532
  733MOL0     H 1113   9.872   3.301   6.891 -3.0350 -0.2087  4.3361
  733MOL0     H 1114   9.948   3.171   6.990 -0.1901 -0.7977 -1.0937
  733MOL0     H 1115  10.054   3.272   6.887  0.4364  3.0177  1.1663
  733MOL0     H 1116   9.431   3.293   7.203 -1.8018 -0.8622  0.5007
  733MOL0     H 1117   9.245   3.163   7.240  0.4423  1.8771 -0.1219
  733MOL0     H 1118   9.327   2.782   7.283  3.2180  2.4835  3.4537
  733MOL0     H 1119   9.329   2.761   7.452  2.9827  2.4027 -2.7342
  733MOL0     H 1120   9.148   2.609   7.347 -4.3963 -1.6579 -0.8988
  733MOL0     H 1121   9.066   2.715   7.457  2.4342 -1.2040  2.5898
  733MOL0     H 1122   9.127   2.782   7.161  1.5671 -0.9948  1.0097
  733MOL0     H 1123   9.004   2.862   7.270  0.2877 -0.0912  0.7550
  733MOL0     H 1124   8.877   2.653   7.252  0.7620  0.8749  0.2222
  733MOL0     H 1125   9.006   2.577   7.160  1.2533  0.4924  0.1963
  733MOL0     H 1126   8.848   2.810   7.044 -0.1513 -1.3066 -0.1054
  733MOL0     H 1127   8.987   2.717   6.979 -0.2363 -1.2670 -0.2923
  733MOL0     H 1128   8.697   2.625   7.069 -0.5219  1.6632  1.5747
  733MOL0     H 1129   8.827   2.507   7.015 -0.8123  0.1044  0.9181
  733MOL0     H 1130   8.837   2.640   6.792 -1.0169  1.8098 -2.0033
  733MOL0     H 1131   8.703   2.731   6.840  1.0891 -0.4334 -2.6680
  733MOL0     H 1132   8.604   2.547   6.715 -0.8734 -0.0572  1.5213
  733MOL0     H 1133   8.602   2.474   6.882  1.3421 -0.5425  0.3751
  733MOL0     H 1134   9.511   2.885   7.448 -0.0443 -0.5700  0.1866
  733MOL0     H 1135   9.700   2.998   7.371  1.5016  2.1071  1.5327
  733MOL0     H 1136   9.805   3.446   7.353 -0.5470  0.9769 -0.9550
  733MOL0     H 1137   9.987   3.594   7.369 -0.9237  0.1449  0.2922
  733MOL0     H 1138  10.165   5.329   7.120 -1.8231 -0.6037  0.1550
  733MOL0     H 1139  10.062   5.520   7.014  1.1292  0.6725  0.3514
  733MOL0     H 1140  10.165   5.737   6.622 -1.7056  1.0343  2.3504
  733MOL0     H 1141  10.146   5.972   6.516 -1.7993  1.3360 -0.0074
  733MOL0     H 1142   9.890   6.244   6.378 -1.1089  2.5495  2.3813
  733MOL0     H 1143   9.851   6.137   6.510  1.0597  2.3456  0.5470
  733MOL0     H 1144  10.138   6.222   6.479  0.1924  1.3224  0.4036
  733MOL0     H 1145  10.056   6.159   6.619 -0.0760 -1.4308 -2.0657
  733MOL0     H 1146   9.902   6.372   6.583 -0.6421  0.9682  0.1278
  733MOL0     H 1147  10.054   6.385   6.669 -3.1500  3.2723  0.3407
  733MOL0     H 1148  10.048   6.412   6.368 -1.7532  1.5482 -0.2586
  733MOL0     H 1149  10.176   6.474   6.467 -0.1156  2.5103 -1.2459
  733MOL0     H 1150   9.918   6.790   6.434 -2.6242 -1.3680 -2.1488
  733MOL0     H 1151   9.780   5.864   6.351 -0.8250  1.6385  1.7735
  733MOL0     H 1152   9.673   5.675   6.379 -0.3391  0.6632  2.3123
  733MOL0     H 1153   9.783   5.550   6.358  3.4305  2.3250 -1.9065
  733MOL0     H 1154   9.720   5.592   6.518  1.4404 -2.9505 -0.5384
  734MOL0     O 1155   4.083   7.422   3.211 -0.4035 -1.0893  0.0992
  734MOL0     C 1156   4.086   7.421   3.084 -1.3240 -0.5226 -0.6008
  734MOL0     O 1157   4.202   7.408   3.006  0.0670 -0.2177  0.1939
  734MOL0     C 1158   4.325   7.409   3.057  0.1587  0.4420  0.0889
  734MOL0     C 1159   4.412   7.305   3.022 -0.3597 -0.7040  1.1885
  734MOL0     C 1160   4.548   7.307   3.067  0.6131 -0.6838 -0.1621
  734MOL0     C 1161   4.579   7.404   3.164 -0.3205  0.6745  0.0384
  734MOL0     O 1162   4.707   7.427   3.201 -0.1773 -0.5896 -0.1851
  734MOL0     C 1163   4.798   7.332   3.245  0.0682 -0.7214  0.1635
  734MOL0     C 1164   4.757   7.269   3.377  0.1522 -0.1360 -0.5617
  734MOL0     C 1165   4.725   7.381   3.474  0.4000 -0.0753  0.6176
  734MOL0     C 1166   4.740   7.329   3.619  0.2819 -0.0917  0.5725
  734MOL0     C 1167   4.893   7.302   3.665  1.0494  0.0538  0.9140
  734MOL0     C 1168   4.902   7.241   3.804 -1.5608 -0.7644 -0.3433
  734MOL0     C 1169   5.042   7.274   3.872  0.0835  0.3251  0.1058
  734MOL0     C 1170   5.163   7.235   3.802  0.0460 -0.3913 -0.3775
  734MOL0     N 1171   5.164   7.088   3.812  0.2028  0.5992 -0.0032
  734MOL0     C 1172   5.131   6.991   3.714  0.8760  1.0786  0.1401
  734MOL0     C 1173   5.148   6.876   3.779  0.7842  0.0047  1.2691
  734MOL0     C 1174   5.120   6.745   3.722  0.4242  0.2554 -0.2511
  734MOL0     C 1175   5.246   6.670   3.672  0.0584 -1.0563  0.3447
  734MOL0     C 1176   5.383   6.748   3.671  0.0110  0.0751  0.7879
  734MOL0     C 1177   5.483   6.663   3.576  0.3927  0.4480 -0.3635
  734MOL0     O 1178   5.605   6.723   3.553 -0.0140 -0.0467  0.0896
  734MOL0     C 1179   5.664   6.706   3.424  0.7337  0.0459  0.4800
  734MOL0     C 1180   5.755   6.804   3.387 -0.1099  0.8271 -0.2876
  734MOL0     C 1181   5.818   6.785   3.269  0.2388 -1.0927  0.2479
  734MOL0     C 1182   5.911   6.905   3.238 -1.0284  0.3413 -0.0907
  734MOL0     C 1183   5.806   6.674   3.186 -0.5659  0.2302 -0.2567
  734MOL0     C 1184   5.875   6.661   3.054 -0.2614  0.0049 -0.6470
  734MOL0     O 1185   5.884   6.768   2.972 -0.4438 -0.0031  0.3098
  734MOL0     C 1186   5.922   6.742   2.845  0.4233 -0.7811  0.5305
  734MOL0     C 1187   5.853   6.658   2.765  0.5088  0.3631  0.0252
  734MOL0     C 1188   5.900   6.638   2.640  0.8728  0.5039  0.3101
  734MOL0     C 1189   6.012   6.706   2.582  0.5736 -0.1839  0.7075
  734MOL0     O 1190   6.058   6.667   2.453 -0.3233  1.0365 -0.0240
  734MOL0     C 1191   6.202   6.680   2.427  0.2454  0.0422 -0.0918
  734MOL0     C 1192   6.269   6.553   2.488 -0.4741 -1.1695 -0.1813
  734MOL0     C 1193   6.211   6.419   2.448 -0.6605  0.5371 -0.0220
  734MOL0     C 1194   6.200   6.397   2.299 -0.7483  0.1224 -0.2997
  734MOL0     C 1195   6.144   6.258   2.250 -0.1957  0.6488 -0.5754
  734MOL0     C 1196   6.155   6.232   2.094 -0.0621  0.8388  0.3817
  734MOL0     C 1197   6.120   6.084   2.055 -0.7711 -0.0505  1.0212
  734MOL0     C 1198   6.110   6.072   1.901  0.0769 -0.8475  0.1552
  734MOL0    Cl 1199   6.101   5.901   1.853  0.0390  0.2357 -0.0985
  734MOL0     C 1200   6.077   6.798   2.668  0.0459  0.1217  0.3875
  734MOL0     C 1201   6.031   6.817   2.799  0.4805 -0.2353  0.1295
  734MOL0     O 1202   5.925   6.547   3.039 -0.5997 -0.0797  0.0260
  734MOL0     C 1203   5.710   6.579   3.224  0.1288  0.3043 -0.7060
  734MOL0     C 1204   5.636   6.593   3.345 -0.1985 -0.4406  0.1028
  734MOL0     N 1205   5.196   6.893   3.906 -0.4988  0.4199  0.6006
  734MOL0     N 1206   5.204   7.014   3.928 -0.3433 -0.4463  0.8794
  734MOL0     C 1207   4.490   7.489   3.213  0.2196 -0.6103  0.6079
  734MOL0     C 1208   4.362   7.505   3.148  0.0133  0.1668 -1.1358
  734MOL0     C 1209   3.956   7.406   3.020 -0.0024  0.3826 -1.2939
  734MOL0     C 1210   3.950   7.327   2.903  0.1298 -0.4746  0.2597
  734MOL0     C 1211   3.832   7.293   2.842  0.3357  0.2319 -0.3592
  734MOL0     C 1212   3.713   7.336   2.912  0.2362  0.3188 -0.4306
  734MOL0     O 1213   3.588   7.300   2.862  0.1910 -0.7751  0.2964
  734MOL0     C 1214   3.503   7.410   2.822 -0.5079 -0.3424 -0.4228
  734MOL0     C 1215   3.449   7.367   2.681 -0.4276 -0.2257  1.0502
  734MOL0     C 1216   3.328   7.452   2.641  0.0316  0.0279  0.4881
  734MOL0     C 1217   3.373   7.587   2.582  0.2704  0.7544 -0.3293
  734MOL0     C 1218   3.270   7.650   2.504 -0.0827  0.4599  0.7336
  734MOL0     C 1219   3.172   7.698   2.448  0.1742 -0.0883  0.3227
  734MOL0     C 1220   3.714   7.418   3.022 -0.2429  0.5092 -0.6770
  734MOL0     C 1221   3.838   7.453   3.073  0.2553  0.3816  0.4326
  734MOL0     C 1222   3.830   7.548   3.189  0.1310 -0.6278 -0.1701
  734MOL0     H 1223   4.361   7.236   2.956 -2.5904  2.0020 -0.1280
  734MOL0     H 1224   4.613   7.228   3.032 -0.8667 -1.8202 -0.4383
  734MOL0     H 1225   4.894   7.383   3.262  1.9697 -4.0515  0.2524
  734MOL0     H 1226   4.804   7.256   3.167 -1.9010 -0.6633 -0.0909
  734MOL0     H 1227   4.667   7.211   3.355  0.5209 -0.2461 -1.8768
  734MOL0     H 1228   4.835   7.201   3.412  1.2579 -0.5883 -3.5576
  734MOL0     H 1229   4.782   7.473   3.465 -1.5467  1.0493 -1.4221
  734MOL0     H 1230   4.625   7.419   3.452  1.1531  1.5635 -0.0988
  734MOL0     H 1231   4.707   7.408   3.687  0.9501  0.4518  0.2723
  734MOL0     H 1232   4.684   7.235   3.628  0.0413  0.2214  3.1735
  734MOL0     H 1233   4.943   7.399   3.652  0.6842  0.1778  0.4054
  734MOL0     H 1234   4.940   7.236   3.592  0.8251 -1.1114  1.7938
  734MOL0     H 1235   4.841   7.313   3.859  0.0979  4.0381 -4.0200
  734MOL0     H 1236   4.885   7.134   3.812 -0.2730 -1.0275 -0.8751
  734MOL0     H 1237   5.052   7.247   3.978 -1.7918  4.1270  1.4222
  734MOL0     H 1238   5.039   7.382   3.890 -1.0321  0.0413  2.0162
  734MOL0     H 1239   5.178   7.264   3.697  1.4294 -0.2327 -0.1521
  734MOL0     H 1240   5.243   7.270   3.867  0.3408 -1.3446 -0.2175
  734MOL0     H 1241   5.102   6.989   3.609 -1.9817 -2.5174  0.7632
  734MOL0     H 1242   5.049   6.740   3.640  2.7467 -1.0439 -2.3303
  734MOL0     H 1243   5.084   6.679   3.801 -0.3324  2.3407  1.2392
  734MOL0     H 1244   5.261   6.589   3.744  1.3222 -1.7261 -0.6281
  734MOL0     H 1245   5.238   6.624   3.573  0.1540 -1.3444  0.4687
  734MOL0     H 1246   5.377   6.842   3.614  4.4878 -0.1374 -0.4593
  734MOL0     H 1247   5.434   6.777   3.763  1.5924  3.8450 -1.0377
  734MOL0     H 1248   5.506   6.566   3.619 -1.0502  0.8150  1.3706
  734MOL0     H 1249   5.431   6.635   3.483 -0.2248 -1.4494  0.5092
  734MOL0     H 1250   5.778   6.886   3.453  3.2142  0.2822 -0.6390
  734MOL0     H 1251   6.011   6.868   3.261 -1.2078 -0.2684 -0.2826
  734MOL0     H 1252   5.893   6.993   3.302  1.5598  0.1456  1.0135
  734MOL0     H 1253   5.910   6.936   3.133  0.8815 -0.3771 -0.3534
  734MOL0     H 1254   5.770   6.596   2.797  0.3628  0.1569 -0.7284
  734MOL0     H 1255   5.851   6.573   2.569 -1.5070  1.3401  1.0955
  734MOL0     H 1256   6.217   6.674   2.319  0.5769  1.9071 -0.1695
  734MOL0     H 1257   6.244   6.773   2.466 -1.6810  0.7065  0.4984
  734MOL0     H 1258   6.373   6.549   2.452  0.0268  1.6992  0.7460
  734MOL0     H 1259   6.295   6.560   2.594  2.0910 -2.3230 -0.6462
  734MOL0     H 1260   6.111   6.416   2.492 -0.8151 -0.3857 -0.4251
  734MOL0     H 1261   6.263   6.338   2.499  1.6827  2.1965  0.3866
  734MOL0     H 1262   6.294   6.420   2.248  2.0796 -3.1412  2.9413
  734MOL0     H 1263   6.126   6.469   2.262  0.2387  0.2831 -2.0647
  734MOL0     H 1264   6.200   6.175   2.294 -0.8315 -1.4677 -3.4972
  734MOL0     H 1265   6.041   6.251   2.286  0.0172 -1.7841 -0.2883
  734MOL0     H 1266   6.251   6.266   2.054 -1.9301  4.8663 -1.1939
  734MOL0     H 1267   6.090   6.305   2.046  0.3313  2.4068  2.1194
  734MOL0     H 1268   6.019   6.056   2.084 -0.3935 -0.1220  2.2931
  734MOL0     H 1269   6.190   6.016   2.105 -0.0529  0.3038  0.5275
  734MOL0     H 1270   6.210   6.100   1.865  1.2416 -1.6488  2.5772
  734MOL0     H 1271   6.031   6.138   1.862  0.6133  0.0709  0.5769
  734MOL0     H 1272   6.157   6.859   2.627 -1.0937  1.5944  0.2717
  734MOL0     H 1273   6.085   6.882   2.867 -1.0173  3.1096 -1.6261
  734MOL0     H 1274   5.699   6.494   3.157  1.5931  0.7177 -1.5292
  734MOL0     H 1275   5.566   6.511   3.357 -0.1024 -0.2506  2.6041
  734MOL0     H 1276   4.507   7.561   3.292 -1.4937  0.7019 -0.1664
  734MOL0     H 1277   4.295   7.584   3.179  2.8732  2.4473 -0.2432
  734MOL0     H 1278   4.033   7.292   2.843 -1.5590 -1.5137 -1.6129
  734MOL0     H 1279   3.818   7.238   2.750 -0.0696 -0.4408  0.0875
  734MOL0     H 1280   3.422   7.437   2.891 -0.8743 -1.0046 -0.5773
  734MOL0     H 1281   3.571   7.495   2.811  1.3802 -1.8445 -0.8760
  734MOL0     H 1282   3.417   7.263   2.676 -0.2452 -0.2064 -1.5215
  734MOL0     H 1283   3.537   7.369   2.616 -1.2862  1.3887 -0.1382
  734MOL0     H 1284   3.282   7.393   2.561  0.1907  1.5857 -0.7970
  734MOL0     H 1285   3.260   7.463   2.726  0.1315 -3.2343  1.0987
  734MOL0     H 1286   3.460   7.562   2.520  2.8224  1.6116  2.6330
  734MOL0     H 1287   3.414   7.646   2.665  1.7836  1.6876 -1.6683
  734MOL0     H 1288   3.084   7.733   2.397  0.4590 -0.4205 -0.4222
  734MOL0     H 1289   3.624   7.454   3.071 -0.0140 -0.3393  0.3958
  734MOL0     H 1290   3.908   7.625   3.188  1.6431 -2.0912  0.8312
  734MOL0     H 1291   3.734   7.599   3.180  0.9028  0.8591 -0.3241
  734MOL0     H 1292   3.831   7.494   3.284  2.4420  1.0180  0.8468
  735MOL0     O 1293   2.637   9.569   4.255  0.3937  0.2168 -0.1826
  735MOL0     C 1294   2.760   9.556   4.266  0.2334  0.0387  0.7506
  735MOL0     O 1295   2.842   9.522   4.159  0.2668 -0.2206  0.9545
  735MOL0     C 1296   2.782   9.493   4.041 -0.1032 -0.4166  0.1835
  735MOL0     C 1297   2.764   9.587   3.951  0.7658 -0.2658  0.0209
  735MOL0     C 1298   2.709   9.569   3.826 -0.5993  0.1989 -0.3073
  735MOL0     C 1299   2.658   9.446   3.788 -0.2386 -0.2596 -0.2455
  735MOL0     O 1300   2.590   9.418   3.672 -1.3763  0.1653 -0.1199
  735MOL0     C 1301   2.519   9.522   3.593 -0.8849  0.3896 -0.3550
  735MOL0     C 1302   2.511   9.480   3.447 -0.5493 -0.0458 -0.0852
  735MOL0     C 1303   2.648   9.468   3.397  0.0985 -0.1485 -0.1132
  735MOL0     C 1304   2.651   9.437   3.244 -0.2889  0.0443 -0.8782
  735MOL0     C 1305   2.779   9.412   3.173  0.5285 -0.2569 -0.3818
  735MOL0     C 1306   2.766   9.386   3.021 -0.3722 -0.5344 -0.1756
  735MOL0     C 1307   2.909   9.382   2.959 -0.8375 -0.4385  0.3081
  735MOL0     C 1308   2.943   9.252   2.886 -0.9253 -0.0569  0.7136
  735MOL0     N 1309   2.867   9.240   2.764  1.3336 -0.3683 -0.1589
  735MOL0     C 1310   2.777   9.140   2.734 -0.0557  0.1748 -0.4830
  735MOL0     C 1311   2.747   9.156   2.604  0.6766  0.6030  0.5843
  735MOL0     C 1312   2.684   9.037   2.526 -0.4037 -0.2466 -0.1217
  735MOL0     C 1313   2.691   9.056   2.378 -0.0782  0.1118 -0.6999
  735MOL0     C 1314   2.660   8.916   2.310  0.1358  0.9465  0.9150
  735MOL0     C 1315   2.649   8.932   2.153  0.4994 -0.0964  0.1530
  735MOL0     O 1316   2.541   9.033   2.138  0.7186  1.3334  0.2693
  735MOL0     C 1317   2.410   8.987   2.150 -0.8847  0.0677 -1.0127
  735MOL0     C 1318   2.353   8.884   2.078 -0.1121 -0.1413  0.8146
  735MOL0     C 1319   2.219   8.850   2.075  0.8031  0.7314  0.6452
  735MOL0     C 1320   2.172   8.725   1.995 -0.4951 -0.0075 -0.1117
  735MOL0     C 1321   2.134   8.931   2.151 -0.3323  0.4086  0.1558
  735MOL0     C 1322   1.991   8.917   2.178  0.6501  0.4822 -0.4329
  735MOL0     O 1323   1.939   8.797   2.160  0.7700  0.8165  0.2860
  735MOL0     C 1324   1.799   8.770   2.157  1.1162  0.0109 -1.2573
  735MOL0     C 1325   1.769   8.648   2.215  0.2652  0.2037  0.1635
  735MOL0     C 1326   1.641   8.595   2.208  0.1641 -0.4819  1.0390
  735MOL0     C 1327   1.533   8.679   2.158  0.4958  0.6188 -0.0407
  735MOL0     O 1328   1.407   8.636   2.139  0.1947  0.6257  0.2359
  735MOL0     C 1329   1.366   8.510   2.188  1.1747 -0.5678  0.1559
  735MOL0     C 1330   1.225   8.476   2.129 -0.5956 -1.2883 -0.1140
  735MOL0     C 1331   1.158   8.375   2.212 -0.0678  0.8540  0.0307
  735MOL0     C 1332   1.025   8.335   2.164 -0.1146  0.4802 -0.5297
  735MOL0     C 1333   1.019   8.271   2.021 -0.3116 -0.7134  0.2348
  735MOL0     C 1334   0.875   8.208   1.995 -0.0878 -0.2282  0.4817
  735MOL0     C 1335   0.880   8.105   1.877  0.0389 -0.0304 -0.0476
  735MOL0     C 1336   0.881   8.175   1.738 -0.5650 -0.4119 -0.3181
  735MOL0    Cl 1337   0.834   8.046   1.620  0.0972 -0.3364  0.3856
  735MOL0     C 1338   1.568   8.806   2.106  0.1464  0.6441  0.6533
  735MOL0     C 1339   1.699   8.852   2.108 -0.4299 -0.1087  0.5751
  735MOL0     O 1340   1.929   9.017   2.209  0.1452  0.3504 -0.3793
  735MOL0     C 1341   2.193   9.043   2.219  0.9448 -0.3896 -0.0456
  735MOL0     C 1342   2.326   9.073   2.214 -0.7270  0.0352 -0.5226
  735MOL0     N 1343   2.798   9.271   2.552  0.1965 -0.0080 -0.1669
  735MOL0     N 1344   2.865   9.326   2.656  0.6829  0.1063  0.4440
  735MOL0     C 1345   2.663   9.339   3.879 -0.5997 -0.2699  0.0788
  735MOL0     C 1346   2.735   9.363   4.000 -0.3184 -0.6959 -0.9257
  735MOL0     C 1347   2.830   9.567   4.389  0.2929  0.2497 -0.5127
  735MOL0     C 1348   2.938   9.479   4.410  0.0662 -0.2950  1.0719
  735MOL0     C 1349   3.015   9.490   4.525  0.6683 -0.1526 -0.2991
  735MOL0     C 1350   2.977   9.572   4.630  0.3767  0.7291  0.1307
  735MOL0     O 1351   3.037   9.586   4.754 -0.4386 -0.0080  0.2969
  735MOL0     C 1352   3.143   9.482   4.787 -0.2406 -0.4054 -0.0054
  735MOL0     C 1353   3.276   9.534   4.751 -0.3980  0.5225 -0.0038
  735MOL0     C 1354   3.392   9.436   4.788 -0.0099  1.3667  0.1988
  735MOL0     C 1355   3.418   9.396   4.931  0.0961 -0.1554  0.4358
  735MOL0     C 1356   3.326   9.291   4.977 -0.2183 -0.7143  0.3149
  735MOL0     C 1357   3.247   9.217   5.022 -0.2289  0.8030  0.1362
  735MOL0     C 1358   2.867   9.654   4.611  0.1871  0.2232  0.2483
  735MOL0     C 1359   2.788   9.655   4.494 -0.3204 -0.9237 -0.1201
  735MOL0     C 1360   2.661   9.726   4.491  0.6550  0.3378 -0.0672
  735MOL0     H 1361   2.805   9.684   3.978  1.7758 -0.5921 -0.3261
  735MOL0     H 1362   2.693   9.660   3.770 -3.6684  0.9817  1.5941
  735MOL0     H 1363   2.570   9.619   3.593  1.4785 -0.7369  1.1878
  735MOL0     H 1364   2.427   9.543   3.649 -0.9781 -0.9143  0.0282
  735MOL0     H 1365   2.458   9.386   3.427  2.6146 -1.9519 -0.1625
  735MOL0     H 1366   2.462   9.565   3.398  2.1551  1.9087  0.3650
  735MOL0     H 1367   2.708   9.558   3.417 -3.4513  2.6540 -0.8723
  735MOL0     H 1368   2.687   9.384   3.455  3.1864  1.9878  1.1853
  735MOL0     H 1369   2.587   9.351   3.222 -0.1680  0.2913 -2.3661
  735MOL0     H 1370   2.605   9.524   3.195 -1.6792  0.4698  1.0832
  735MOL0     H 1371   2.839   9.335   3.223  1.4636  0.4004 -0.4731
  735MOL0     H 1372   2.822   9.512   3.176 -2.0742  0.9689 -1.2329
  735MOL0     H 1373   2.702   9.301   2.992  1.2597 -2.0385  0.4738
  735MOL0     H 1374   2.710   9.472   2.982 -0.4519  0.6518  2.3291
  735MOL0     H 1375   2.988   9.393   3.034 -0.6557 -0.2501  0.0913
  735MOL0     H 1376   2.909   9.473   2.898 -0.9520  0.5740  1.7494
  735MOL0     H 1377   3.047   9.259   2.852 -1.5165  1.2954 -0.9405
  735MOL0     H 1378   2.920   9.171   2.956 -2.6459  1.1442  1.6055
  735MOL0     H 1379   2.765   9.053   2.798  0.8759 -0.3800 -1.0355
  735MOL0     H 1380   2.578   9.022   2.549 -0.7819  1.2483 -0.7871
  735MOL0     H 1381   2.742   8.952   2.563 -2.4838 -2.2220 -1.0912
  735MOL0     H 1382   2.632   9.143   2.349  1.6113  1.8007  0.6460
  735MOL0     H 1383   2.796   9.079   2.357  0.4375 -0.4603  1.0365
  735MOL0     H 1384   2.734   8.840   2.336 -0.1955  0.1696 -0.3532
  735MOL0     H 1385   2.561   8.883   2.344  0.4180 -1.2771 -0.2200
  735MOL0     H 1386   2.743   8.976   2.116  0.1632 -0.1116 -0.7563
  735MOL0     H 1387   2.632   8.841   2.095  0.3977 -0.0503  0.1099
  735MOL0     H 1388   2.418   8.839   2.003  0.8727  0.5379  1.2468
  735MOL0     H 1389   2.075   8.753   1.953 -1.3641 -1.2682  0.9577
  735MOL0     H 1390   2.165   8.634   2.055  1.7016 -0.1221  0.0496
  735MOL0     H 1391   2.239   8.694   1.914  1.7165  0.0615  1.6189
  735MOL0     H 1392   1.851   8.601   2.269  0.1368  0.9413  1.0308
  735MOL0     H 1393   1.624   8.491   2.233  0.0766 -0.9136 -0.7007
  735MOL0     H 1394   1.436   8.435   2.150  1.0059 -1.2162  1.1092
  735MOL0     H 1395   1.371   8.507   2.297  1.8795  1.4699  0.2280
  735MOL0     H 1396   1.169   8.569   2.140 -0.3007 -1.1981  0.7428
  735MOL0     H 1397   1.224   8.454   2.022 -0.6668  0.3108 -0.4687
  735MOL0     H 1398   1.141   8.415   2.312  2.6249  2.4022 -0.0385
  735MOL0     H 1399   1.216   8.283   2.222 -1.4291  0.2267  5.5404
  735MOL0     H 1400   0.964   8.425   2.168 -0.9767 -0.1067 -0.2502
  735MOL0     H 1401   0.983   8.264   2.236 -0.8331  0.4602 -0.9679
  735MOL0     H 1402   1.044   8.340   1.939  4.2934  0.0218  1.9914
  735MOL0     H 1403   1.085   8.184   2.015  1.0705  0.3379 -0.4036
  735MOL0     H 1404   0.807   8.289   1.968  2.2032  1.6591 -0.0321
  735MOL0     H 1405   0.847   8.163   2.090  1.3178  0.2640  1.1569
  735MOL0     H 1406   0.787   8.048   1.884  0.8243 -1.6057 -1.7746
  735MOL0     H 1407   0.968   8.042   1.892 -0.3285 -1.1527 -2.2726
  735MOL0     H 1408   0.983   8.212   1.727 -1.1792  2.3154  1.8567
  735MOL0     H 1409   0.814   8.260   1.720 -1.0647 -1.1643 -2.2789
  735MOL0     H 1410   1.491   8.860   2.052  1.5355  1.4052 -0.6794
  735MOL0     H 1411   1.727   8.955   2.090 -1.7025  0.8817  3.5920
  735MOL0     H 1412   2.128   9.118   2.263 -1.1988 -1.5756 -1.0105
  735MOL0     H 1413   2.372   9.166   2.246 -3.2004  0.9915  0.5298
  735MOL0     H 1414   2.617   9.243   3.856  0.7737 -1.0553  0.4988
  735MOL0     H 1415   2.754   9.276   4.062  0.2298  0.2087  0.2034
  735MOL0     H 1416   2.977   9.416   4.331  0.4513  0.0682  0.9700
  735MOL0     H 1417   3.106   9.431   4.535  0.1751 -1.2549 -1.8063
  735MOL0     H 1418   3.127   9.465   4.894 -1.7202  3.5817  0.5920
  735MOL0     H 1419   3.119   9.380   4.753 -1.9035  0.6447 -2.2638
  735MOL0     H 1420   3.295   9.628   4.802  0.7712  0.6751 -0.6887
  735MOL0     H 1421   3.292   9.553   4.645  1.0702 -2.1835 -0.3576
  735MOL0     H 1422   3.388   9.343   4.732  1.8176  1.4186 -0.0844
  735MOL0     H 1423   3.487   9.481   4.757  0.3171  0.4210 -0.2121
  735MOL0     H 1424   3.431   9.478   5.003  2.7967 -1.4539  1.5612
  735MOL0     H 1425   3.514   9.343   4.926  0.7326  0.9731  0.2414
  735MOL0     H 1426   3.194   9.152   5.089 -0.2430  1.9685  1.2946
  735MOL0     H 1427   2.841   9.717   4.695  0.6992  1.0831 -0.2235
  735MOL0     H 1428   2.666   9.798   4.573 -0.4279  0.7424 -0.3475
  735MOL0     H 1429   2.647   9.783   4.399  2.5713 -0.8951 -1.1872
  735MOL0     H 1430   2.575   9.661   4.509  0.6564 -0.0897 -1.4863
  736MOL0     O 1431   6.982   1.185   3.965  1.0181 -0.7300 -0.3019
  736MOL0     C 1432   6.954   1.297   3.939  0.5000 -1.3694 -0.2226
  736MOL0     O 1433   6.831   1.351   3.961  0.5100 -0.2900 -0.4430
  736MOL0     C 1434   6.725   1.268   3.991 -0.1842  0.5372  0.5320
  736MOL0     C 1435   6.700   1.163   3.898  0.0806  0.1846 -0.8600
  736MOL0     C 1436   6.590   1.087   3.913 -0.1757  0.3003  0.5531
  736MOL0     C 1437   6.494   1.124   4.005 -0.2232 -0.5273  0.9367
  736MOL0     O 1438   6.372   1.056   4.004 -0.2320 -0.1115  0.3339
  736MOL0     C 1439   6.272   1.105   4.094  0.5813  1.0172 -0.4492
  736MOL0     C 1440   6.153   1.005   4.101 -0.8121  0.1465 -0.7880
  736MOL0     C 1441   6.040   1.043   4.197  0.0239  0.7214  0.3974
  736MOL0     C 1442   6.081   1.054   4.344 -0.7103 -0.8465 -0.6957
  736MOL0     C 1443   5.968   1.068   4.446 -0.2513  1.0330 -0.3501
  736MOL0     C 1444   6.019   1.090   4.589 -0.4591 -0.2082  0.1888
  736MOL0     C 1445   5.906   1.082   4.693 -0.6950  0.8200 -0.1828
  736MOL0     C 1446   5.873   0.939   4.734 -0.2735 -0.1420 -0.4677
  736MOL0     N 1447   5.769   0.950   4.835 -0.8013 -0.5783 -1.0478
  736MOL0     C 1448   5.656   1.026   4.838  0.0215  0.1663 -0.9944
  736MOL0     C 1449   5.605   1.000   4.961  0.4159  0.1029 -0.3917
  736MOL0     C 1450   5.478   1.049   5.014 -0.1008  0.4144 -0.2513
  736MOL0     C 1451   5.357   1.056   4.919 -0.0167 -0.4572  0.3863
  736MOL0     C 1452   5.309   0.914   4.878 -0.0772  0.0846  0.0249
  736MOL0     C 1453   5.187   0.924   4.786 -0.4502  0.4932  0.4915
  736MOL0     O 1454   5.166   1.051   4.717  0.4207 -0.5412  0.1704
  736MOL0     C 1455   5.232   1.060   4.595  0.0804 -0.0054  0.3380
  736MOL0     C 1456   5.182   1.148   4.502 -0.0224 -1.3209  0.0820
  736MOL0     C 1457   5.245   1.171   4.376  0.9618 -0.1225  0.2516
  736MOL0     C 1458   5.175   1.272   4.280  0.4565 -0.5097  0.4507
  736MOL0     C 1459   5.360   1.097   4.341  0.2800  0.9792  0.3846
  736MOL0     C 1460   5.443   1.127   4.220 -0.4666 -0.1566 -0.3884
  736MOL0     O 1461   5.558   1.048   4.205 -0.3852  0.5672 -0.6467
  736MOL0     C 1462   5.652   1.075   4.116 -0.5451 -0.6071  0.6709
  736MOL0     C 1463   5.673   1.205   4.051 -0.2017  0.5751  0.3043
  736MOL0     C 1464   5.759   1.222   3.946 -0.8671 -0.2488 -0.3863
  736MOL0     C 1465   5.826   1.108   3.895 -0.1775 -0.0579 -0.3644
  736MOL0     O 1466   5.898   1.136   3.782 -0.1946  0.2832  0.3727
  736MOL0     C 1467   5.937   1.026   3.700 -0.4509 -0.3488  0.8670
  736MOL0     C 1468   6.064   0.958   3.741 -0.5434 -0.2796 -0.3762
  736MOL0     C 1469   6.105   0.857   3.638 -0.1938 -0.1700  0.9243
  736MOL0     C 1470   6.240   0.797   3.671 -0.2554  0.7508 -0.4002
  736MOL0     C 1471   6.316   0.743   3.552 -0.3612  0.3288 -0.8061
  736MOL0     C 1472   6.452   0.674   3.601  0.1723  0.2787 -0.4178
  736MOL0     C 1473   6.537   0.609   3.492 -0.5801  0.2007 -0.2973
  736MOL0     C 1474   6.477   0.484   3.434 -0.8070 -0.3874  0.6243
  736MOL0    Cl 1475   6.486   0.341   3.534  0.4409  0.2974  0.0781
  736MOL0     C 1476   5.811   0.980   3.959  0.0730 -0.4137 -0.0903
  736MOL0     C 1477   5.729   0.963   4.074 -0.1859  0.5742  0.1271
  736MOL0     O 1478   5.396   1.204   4.136  0.4362 -0.2151  0.2202
  736MOL0     C 1479   5.400   0.999   4.439 -0.1760 -0.4571 -0.2092
  736MOL0     C 1480   5.342   0.987   4.560 -0.1812  0.6452  0.1903
  736MOL0     N 1481   5.684   0.907   5.023  0.5724 -0.2389  0.3631
  736MOL0     N 1482   5.791   0.885   4.953 -0.3349  0.5621  0.1985
  736MOL0     C 1483   6.521   1.226   4.099  0.1007 -0.3906 -0.2249
  736MOL0     C 1484   6.630   1.310   4.073  0.5327 -0.8215 -0.0665
  736MOL0     C 1485   7.059   1.374   3.866 -0.0695  0.4974  0.3442
  736MOL0     C 1486   7.030   1.456   3.758  0.8750  0.2910 -0.4267
  736MOL0     C 1487   7.131   1.524   3.689  0.0393 -0.5151  0.1698
  736MOL0     C 1488   7.264   1.514   3.725  1.1020 -0.4038 -0.0476
  736MOL0     O 1489   7.362   1.576   3.664 -0.8793 -0.3676  0.4661
  736MOL0     C 1490   7.341   1.600   3.523  0.5812  0.3138 -0.8465
  736MOL0     C 1491   7.474   1.607   3.437 -0.1602 -0.6408 -0.0264
  736MOL0     C 1492   7.575   1.709   3.497  0.9213 -0.1290  0.4027
  736MOL0     C 1493   7.519   1.853   3.475  0.2144  0.5174 -0.2395
  736MOL0     C 1494   7.613   1.955   3.519 -0.3287  0.8932 -0.3645
  736MOL0     C 1495   7.671   2.059   3.539  0.4222 -0.1065 -0.8506
  736MOL0     C 1496   7.289   1.422   3.828  0.4759 -0.3217 -0.1790
  736MOL0     C 1497   7.191   1.367   3.902  0.5526 -0.5817 -0.0265
  736MOL0     C 1498   7.248   1.310   4.026 -0.4437 -0.4383 -0.7140
  736MOL0     H 1499   6.776   1.131   3.828  1.0050 -2.6003  1.2290
  736MOL0     H 1500   6.573   1.018   3.831 -0.6540  3.1225 -1.8559
  736MOL0     H 1501   6.230   1.202   4.066  1.8645  1.2463 -1.6709
  736MOL0     H 1502   6.304   1.102   4.199 -0.0932  0.3932 -0.2532
  736MOL0     H 1503   6.100   0.998   4.006 -2.1349  1.3142 -0.1834
  736MOL0     H 1504   6.196   0.908   4.124  1.4079  1.4836  1.1686
  736MOL0     H 1505   5.992   1.130   4.151  0.3175 -0.4714 -2.3382
  736MOL0     H 1506   5.974   0.956   4.189 -2.1957  2.4360 -1.5352
  736MOL0     H 1507   6.132   0.959   4.364 -1.5861 -1.7250 -2.4023
  736MOL0     H 1508   6.155   1.134   4.349 -1.1303 -0.2152  6.8936
  736MOL0     H 1509   5.917   0.971   4.439  1.2005  0.2500 -0.3674
  736MOL0     H 1510   5.912   1.157   4.414 -2.3552 -0.1686 -0.2070
  736MOL0     H 1511   6.104   1.029   4.622  1.2001  1.8389 -0.1187
  736MOL0     H 1512   6.061   1.191   4.595 -0.7482  0.2449 -3.4359
  736MOL0     H 1513   5.818   1.130   4.652  0.7448  1.6374 -2.5044
  736MOL0     H 1514   5.937   1.130   4.787 -2.0838  2.7155 -0.6354
  736MOL0     H 1515   5.836   0.886   4.646 -2.8644  2.8349 -1.3545
  736MOL0     H 1516   5.970   0.903   4.771  0.5132  0.4072 -1.9001
  736MOL0     H 1517   5.618   1.100   4.769 -2.0286 -2.7200 -3.1552
  736MOL0     H 1518   5.492   1.147   5.061 -1.5155 -0.8524  3.1335
  736MOL0     H 1519   5.456   0.982   5.098 -0.5601 -1.1791 -1.5950
  736MOL0     H 1520   5.278   1.116   4.965  0.7469  0.2844  0.7636
  736MOL0     H 1521   5.400   1.110   4.834 -1.3431  2.2238  1.3240
  736MOL0     H 1522   5.396   0.868   4.830  1.0804  1.1631  1.0061
  736MOL0     H 1523   5.280   0.862   4.970  2.5232 -0.6320  0.5264
  736MOL0     H 1524   5.196   0.850   4.707 -0.6174  2.4318 -1.4227
  736MOL0     H 1525   5.098   0.892   4.841  0.7152 -2.3727  0.8878
  736MOL0     H 1526   5.098   1.207   4.537  0.6716 -0.5992  0.5836
  736MOL0     H 1527   5.243   1.348   4.240 -1.1023 -0.4265 -2.2948
  736MOL0     H 1528   5.092   1.325   4.326 -0.9539 -3.1089  1.1397
  736MOL0     H 1529   5.127   1.211   4.203 -0.6447  0.7536  0.1189
  736MOL0     H 1530   5.601   1.285   4.061 -3.3183 -2.0827  0.9097
  736MOL0     H 1531   5.769   1.314   3.889 -2.7876  0.0295 -0.3392
  736MOL0     H 1532   5.863   0.946   3.708 -0.3169 -0.2510  4.4942
  736MOL0     H 1533   5.938   1.052   3.593  1.7942 -0.1749  0.8687
  736MOL0     H 1534   6.130   1.044   3.753  1.1825 -1.4236 -1.3662
  736MOL0     H 1535   6.050   0.902   3.834 -1.0789  0.4045 -0.0356
  736MOL0     H 1536   6.095   0.909   3.543 -0.9233 -0.9198  0.5841
  736MOL0     H 1537   6.032   0.777   3.622 -1.5721  1.6187 -2.7577
  736MOL0     H 1538   6.228   0.725   3.752  1.9198  3.1646  2.2594
  736MOL0     H 1539   6.307   0.871   3.715  1.6473 -1.1767  0.1211
  736MOL0     H 1540   6.247   0.689   3.486  1.6972 -0.1428 -2.7158
  736MOL0     H 1541   6.340   0.831   3.491 -0.8433  0.3700 -0.9372
  736MOL0     H 1542   6.411   0.597   3.667 -0.8286  1.2570  0.1402
  736MOL0     H 1543   6.518   0.743   3.652  0.9337  0.6836 -1.8864
  736MOL0     H 1544   6.636   0.579   3.527 -1.5555 -0.2706  2.2145
  736MOL0     H 1545   6.549   0.676   3.406  0.4134 -0.1837 -0.4769
  736MOL0     H 1546   6.525   0.467   3.337 -0.9192  0.3307  0.4353
  736MOL0     H 1547   6.370   0.494   3.414 -0.5933 -2.0148 -1.7924
  736MOL0     H 1548   5.874   0.897   3.927 -0.4658 -0.8152 -0.1217
  736MOL0     H 1549   5.726   0.865   4.122 -3.4719  0.8145  0.6854
  736MOL0     H 1550   5.490   0.941   4.428 -0.2815 -0.5781 -0.4545
  736MOL0     H 1551   5.394   0.922   4.630 -0.2912 -1.5404 -1.6714
  736MOL0     H 1552   6.452   1.261   4.174 -2.2727 -0.2386 -2.3315
  736MOL0     H 1553   6.635   1.399   4.134 -0.9673 -1.3735  0.8921
  736MOL0     H 1554   6.925   1.466   3.731  1.3563  0.4398 -2.4618
  736MOL0     H 1555   7.096   1.601   3.622 -0.4515 -0.5803  0.3520
  736MOL0     H 1556   7.264   1.533   3.481 -0.0966  0.4873  0.0838
  736MOL0     H 1557   7.300   1.701   3.517 -1.3392 -0.4292 -1.0848
  736MOL0     H 1558   7.459   1.638   3.333  4.3594 -0.5969 -0.8377
  736MOL0     H 1559   7.520   1.508   3.429 -1.6999 -1.2648 -2.1283
  736MOL0     H 1560   7.596   1.685   3.601 -0.4940 -0.2755  0.6682
  736MOL0     H 1561   7.669   1.710   3.441  0.4083  1.6862 -0.4883
  736MOL0     H 1562   7.423   1.879   3.520 -1.4255 -0.8148 -2.7575
  736MOL0     H 1563   7.489   1.861   3.370  2.6313  0.2848 -1.0060
  736MOL0     H 1564   7.699   2.155   3.579  2.4811 -1.0774  0.1968
  736MOL0     H 1565   7.393   1.402   3.852  1.0815  0.2112 -2.1573
  736MOL0     H 1566   7.215   1.206   4.036 -1.0169 -0.3627 -1.7394
  736MOL0     H 1567   7.357   1.311   4.030 -0.4479 -0.9674 -0.4255
  736MOL0     H 1568   7.208   1.376   4.104  2.3351  0.1726  0.2828
  737MOL0     O 1569   6.190   3.332  10.663 -0.5327 -0.1177  0.7931
  737MOL0     C 1570   6.100   3.257  10.631 -0.1984 -0.2764 -0.6699
  737MOL0     O 1571   6.021   3.275  10.529 -0.0440 -0.5440 -0.0797
  737MOL0     C 1572   6.054   3.356  10.423  0.1339 -1.4711 -0.1826
  737MOL0     C 1573   6.158   3.361  10.334 -0.5590 -0.8675 -0.0101
  737MOL0     C 1574   6.168   3.453  10.231 -0.2963  0.6118 -0.0988
  737MOL0     C 1575   6.078   3.558  10.217 -0.2125 -0.3275  0.1933
  737MOL0     O 1576   6.108   3.651  10.115 -0.3628  0.2561  0.8100
  737MOL0     C 1577   6.001   3.719  10.062 -0.9444 -0.3470  0.2831
  737MOL0     C 1578   6.058   3.777   9.929 -0.5598  0.7390 -0.4414
  737MOL0     C 1579   5.974   3.730   9.813  0.2030 -0.5228 -0.6190
  737MOL0     C 1580   6.047   3.753   9.687 -0.5665 -0.1339 -0.3319
  737MOL0     C 1581   5.944   3.763   9.567 -0.5729  0.0136 -0.1745
  737MOL0     C 1582   6.022   3.803   9.435  0.3889  0.2404 -0.2657
  737MOL0     C 1583   6.094   3.696   9.362  0.1341  0.7569 -0.3110
  737MOL0     C 1584   6.006   3.569   9.320  1.5290  0.1158 -0.4327
  737MOL0     N 1585   6.046   3.519   9.186 -0.6498 -1.1479 -0.2718
  737MOL0     C 1586   6.103   3.388   9.163 -0.2903 -0.8445  0.5687
  737MOL0     C 1587   6.132   3.389   9.034  0.0040 -1.0165 -0.1379
  737MOL0     C 1588   6.186   3.262   8.969 -0.0119  0.6501 -0.0376
  737MOL0     C 1589   6.245   3.303   8.839  0.9268  0.1594  0.3528
  737MOL0     C 1590   6.303   3.184   8.754 -0.8537 -0.7407 -0.5844
  737MOL0     C 1591   6.421   3.130   8.829 -1.4335 -0.0736 -0.1681
  737MOL0     O 1592   6.507   3.237   8.869 -0.0041  0.1686  0.4619
  737MOL0     C 1593   6.595   3.215   8.971  0.2617 -0.4984 -0.7809
  737MOL0     C 1594   6.630   3.091   9.021 -0.3363 -0.1819  0.0592
  737MOL0     C 1595   6.740   3.077   9.109  0.4532  0.0841 -0.2717
  737MOL0     C 1596   6.786   2.938   9.143  0.1903  0.8651 -0.2435
  737MOL0     C 1597   6.809   3.194   9.143  0.0602 -0.7567  0.5220
  737MOL0     C 1598   6.922   3.187   9.247  0.4061  0.0104 -0.2777
  737MOL0     O 1599   6.984   3.301   9.277 -0.4649  0.6659  0.1327
  737MOL0     C 1600   7.095   3.306   9.350  0.0993  0.9763 -0.0555
  737MOL0     C 1601   7.210   3.346   9.279  0.4618 -0.3766  0.8029
  737MOL0     C 1602   7.332   3.357   9.335  0.5385 -0.7200 -0.0048
  737MOL0     C 1603   7.352   3.332   9.474  0.5138  0.5672  0.2377
  737MOL0     O 1604   7.466   3.352   9.536 -0.4283  0.6330 -0.4280
  737MOL0     C 1605   7.579   3.317   9.453  0.0264 -0.1109 -0.4281
  737MOL0     C 1606   7.713   3.350   9.526  0.1374  0.3782 -0.0653
  737MOL0     C 1607   7.829   3.290   9.449  0.3519 -0.4348 -0.0121
  737MOL0     C 1608   7.961   3.312   9.533  0.5192 -0.2011 -0.3907
  737MOL0     C 1609   8.094   3.279   9.468 -0.4133 -0.5867  0.3613
  737MOL0     C 1610   8.133   3.387   9.365 -0.5261 -0.3320  0.3669
  737MOL0     C 1611   8.268   3.352   9.306 -0.4511 -0.8253 -0.6383
  737MOL0     C 1612   8.378   3.466   9.331  1.2944 -0.5067 -0.5492
  737MOL0    Cl 1613   8.332   3.600   9.212 -0.2399  0.1823  0.2169
  737MOL0     C 1614   7.245   3.292   9.553  0.1080  0.2402  0.4641
  737MOL0     C 1615   7.113   3.280   9.493  0.1817  0.9872  1.6707
  737MOL0     O 1616   6.971   3.085   9.285  0.7571  0.2239  0.3411
  737MOL0     C 1617   6.781   3.314   9.090 -0.1970  0.2175 -0.2338
  737MOL0     C 1618   6.676   3.322   9.010  0.5062  0.2710 -0.5868
  737MOL0     N 1619   6.102   3.520   8.985 -0.2305 -0.3552  0.7009
  737MOL0     N 1620   6.059   3.597   9.076  1.0634 -0.6450  0.4844
  737MOL0     C 1621   5.969   3.556  10.303 -0.6661  0.2526  0.5457
  737MOL0     C 1622   5.950   3.449  10.402 -1.1960  0.4514  0.2726
  737MOL0     C 1623   6.081   3.118  10.703 -0.4044  0.0297  0.2714
  737MOL0     C 1624   6.003   3.027  10.632 -0.0136  0.3175 -0.2608
  737MOL0     C 1625   5.983   2.903  10.690 -0.1822 -0.7698  0.0141
  737MOL0     C 1626   6.044   2.873  10.806 -1.2781  0.4405 -0.8844
  737MOL0     O 1627   6.022   2.751  10.860  0.0751 -1.6217  0.5711
  737MOL0     C 1628   6.113   2.689  10.957 -0.1036 -0.2294 -0.0145
  737MOL0     C 1629   6.108   2.534  10.945 -0.1110  1.0099  0.2777
  737MOL0     C 1630   6.119   2.475  10.807  0.2477 -0.0881  0.1097
  737MOL0     C 1631   5.995   2.502  10.714  0.3756 -0.0278 -0.2563
  737MOL0     C 1632   5.869   2.441  10.751 -0.2957  0.3118  0.2056
  737MOL0     C 1633   5.765   2.382  10.771 -0.0274  0.7832  0.1025
  737MOL0     C 1634   6.112   2.959  10.887 -0.5785 -0.1341 -0.3974
  737MOL0     C 1635   6.130   3.094  10.840  0.8935  0.7775  0.1423
  737MOL0     C 1636   6.198   3.195  10.934  0.0707  0.1867  0.7437
  737MOL0     H 1637   6.243   3.295  10.347 -1.0088 -1.3150  0.7169
  737MOL0     H 1638   6.248   3.454  10.157  0.1856  2.2971  0.3917
  737MOL0     H 1639   5.979   3.805  10.125  4.2564  0.0022  2.0223
  737MOL0     H 1640   5.908   3.662  10.051 -0.1650 -1.6191  0.1185
  737MOL0     H 1641   6.057   3.885   9.940 -1.3822  0.7826 -0.8896
  737MOL0     H 1642   6.163   3.747   9.918 -0.8116  0.0362 -1.0247
  737MOL0     H 1643   5.959   3.622   9.818  2.3020 -0.8227  0.2934
  737MOL0     H 1644   5.882   3.788   9.821  3.0372  4.2595  1.6322
  737MOL0     H 1645   6.094   3.852   9.687 -1.5484  0.4077  2.2459
  737MOL0     H 1646   6.129   3.682   9.678 -0.8495 -0.7606  1.7091
  737MOL0     H 1647   5.873   3.842   9.594  1.7720  1.5576  1.8413
  737MOL0     H 1648   5.896   3.665   9.566 -1.4849  0.4426 -1.1648
  737MOL0     H 1649   5.947   3.848   9.369 -1.5468 -3.3430 -0.7936
  737MOL0     H 1650   6.077   3.886   9.480 -1.9782  0.2423  2.9379
  737MOL0     H 1651   6.186   3.662   9.411 -0.3645  0.9405  0.7851
  737MOL0     H 1652   6.131   3.742   9.270 -0.4755  1.7334 -0.0826
  737MOL0     H 1653   6.014   3.497   9.402 -1.1793 -2.5564 -2.2728
  737MOL0     H 1654   5.905   3.608   9.306  0.2429 -3.0090 -0.7032
  737MOL0     H 1655   6.109   3.307   9.234 -0.0002  0.0806  1.6264
  737MOL0     H 1656   6.102   3.192   8.969 -2.4602  3.3771 -1.0797
  737MOL0     H 1657   6.262   3.222   9.037 -0.5687  1.9342  1.4000
  737MOL0     H 1658   6.165   3.338   8.773 -0.8633  0.4672  2.5729
  737MOL0     H 1659   6.325   3.377   8.856  3.3867 -2.1071 -0.5567
  737MOL0     H 1660   6.235   3.101   8.732  0.9539 -2.5331  0.2722
  737MOL0     H 1661   6.344   3.211   8.656 -0.4895 -1.5784 -0.6689
  737MOL0     H 1662   6.380   3.082   8.919  1.8124 -2.4982  0.1918
  737MOL0     H 1663   6.464   3.052   8.766 -0.5463 -1.8656  2.4692
  737MOL0     H 1664   6.578   3.004   8.981  1.9998 -1.1069 -1.1193
  737MOL0     H 1665   6.791   2.923   9.252 -0.3847  0.3852 -0.2748
  737MOL0     H 1666   6.881   2.909   9.098  0.2112 -1.8371  1.3014
  737MOL0     H 1667   6.713   2.865   9.106  1.1191 -0.1628 -0.0934
  737MOL0     H 1668   7.201   3.371   9.174 -4.9207  1.3651  1.4035
  737MOL0     H 1669   7.407   3.399   9.270 -0.3811  1.4724  0.2238
  737MOL0     H 1670   7.583   3.215   9.414  1.5681  0.3063 -1.4522
  737MOL0     H 1671   7.575   3.386   9.368 -2.3636  0.3786  0.0218
  737MOL0     H 1672   7.741   3.455   9.528  0.4159  0.2953  0.5286
  737MOL0     H 1673   7.716   3.311   9.628  1.6716 -1.4035 -0.7199
  737MOL0     H 1674   7.839   3.330   9.348  2.6084  0.4391  0.4984
  737MOL0     H 1675   7.800   3.186   9.430  0.3005 -0.6696  1.3026
  737MOL0     H 1676   7.951   3.258   9.627 -1.9676 -0.6204 -0.8274
  737MOL0     H 1677   7.968   3.420   9.553  4.3753 -0.7787  2.5743
  737MOL0     H 1678   8.166   3.281   9.551  0.5368  1.8509 -0.4024
  737MOL0     H 1679   8.111   3.182   9.420  2.2628 -0.1014  0.1559
  737MOL0     H 1680   8.143   3.482   9.419  1.1890 -0.3932  0.2076
  737MOL0     H 1681   8.073   3.393   9.274  1.0453  2.1159 -0.6377
  737MOL0     H 1682   8.267   3.345   9.197  0.8627  0.4289 -0.7559
  737MOL0     H 1683   8.317   3.259   9.336  1.1501  0.2274  0.1216
  737MOL0     H 1684   8.475   3.425   9.302  2.1473  2.6016 -2.5799
  737MOL0     H 1685   8.367   3.509   9.431 -1.1464  0.4939 -1.1582
  737MOL0     H 1686   7.250   3.299   9.661 -0.8611 -1.5945  0.6789
  737MOL0     H 1687   7.035   3.259   9.566 -0.8492  0.3968  0.4438
  737MOL0     H 1688   6.844   3.397   9.122  0.4029 -1.3258  2.9141
  737MOL0     H 1689   6.665   3.411   8.949 -0.8178  2.0507  2.0784
  737MOL0     H 1690   5.891   3.631  10.306 -1.3622 -0.4712  1.5723
  737MOL0     H 1691   5.863   3.441  10.465 -1.1105  1.5081  0.5419
  737MOL0     H 1692   5.970   3.047  10.531  2.1883 -1.9803 -1.5277
  737MOL0     H 1693   5.934   2.829  10.629  2.4484 -4.6206  2.1160
  737MOL0     H 1694   6.210   2.739  10.951 -1.1522  2.1986  1.6065
  737MOL0     H 1695   6.074   2.716  11.056  0.1981  1.8178 -0.4043
  737MOL0     H 1696   6.009   2.512  10.986 -0.9882  2.7644 -0.7811
  737MOL0     H 1697   6.195   2.494  10.998 -0.3411  1.2185  0.8152
  737MOL0     H 1698   6.206   2.515  10.755  0.5237  2.7039  2.4586
  737MOL0     H 1699   6.133   2.367  10.820 -1.3600 -0.2833  0.4910
  737MOL0     H 1700   6.017   2.458  10.615  0.1525 -4.0634  1.2812
  737MOL0     H 1701   5.970   2.608  10.714 -1.1358 -0.3159  2.3976
  737MOL0     H 1702   5.671   2.336  10.794  0.4640 -0.3176 -0.0137
  737MOL0     H 1703   6.136   2.926  10.987  1.3679 -2.2365 -1.4640
  737MOL0     H 1704   6.135   3.283  10.950  0.3777  0.9828 -1.9071
  737MOL0     H 1705   6.225   3.148  11.029 -1.7164  0.2660  1.3337
  737MOL0     H 1706   6.282   3.234  10.877 -3.8171  2.0284 -4.5804
  738MOL0     O 1707   3.673   9.036   1.255  0.0775  0.0907 -0.2728
  738MOL0     C 1708   3.662   9.157   1.272 -0.4458 -0.3381 -0.8762
  738MOL0     O 1709   3.579   9.234   1.198  0.7743  0.9061 -0.1214
  738MOL0     C 1710   3.511   9.183   1.090  0.9091 -0.5204 -0.1993
  738MOL0     C 1711   3.435   9.066   1.106 -0.7534  0.9733  0.1675
  738MOL0     C 1712   3.362   9.010   0.994  0.1859 -0.2666  0.5139
  738MOL0     C 1713   3.367   9.082   0.864  0.0486 -0.1321 -1.1357
  738MOL0     O 1714   3.274   9.052   0.765  0.2449  0.1003 -0.0111
  738MOL0     C 1715   3.251   9.128   0.650  0.9057 -0.6817  0.7142
  738MOL0     C 1716   3.116   9.089   0.584 -0.3306 -0.4576  0.9180
  738MOL0     C 1717   3.063   9.197   0.490 -0.0826 -0.2645 -0.5523
  738MOL0     C 1718   2.938   9.155   0.411  0.7083 -0.0361  0.7351
  738MOL0     C 1719   2.883   9.271   0.319  0.3993  0.3461 -0.2806
  738MOL0     C 1720   2.784   9.207   0.213  0.7740  0.0329  0.6604
  738MOL0     C 1721   2.766   9.294   0.088  0.4993  0.7133 -0.5342
  738MOL0     C 1722   2.679   9.409   0.115 -0.0644 -0.2884  0.7090
  738MOL0     N 1723   2.688   9.496  -0.000  0.1635  0.0200  0.2260
  738MOL0     C 1724   2.628   9.616  -0.005 -0.2682 -0.0467 -0.4217
  738MOL0     C 1725   2.680   9.675  -0.111  0.2678  0.4286 -0.9219
  738MOL0     C 1726   2.641   9.811  -0.147  0.3793  0.7440  0.3988
  738MOL0     C 1727   2.517   9.808  -0.231 -0.3718 -0.3102  0.0928
  738MOL0     C 1728   2.478   9.953  -0.280 -0.2213 -0.4405 -0.4896
  738MOL0     C 1729   2.463  10.057  -0.177 -0.4029  0.2096  0.2486
  738MOL0     O 1730   2.407  10.014  -0.051 -0.2049 -0.0719  0.0670
  738MOL0     C 1731   2.417  10.095   0.061  1.3872 -0.1500  0.0152
  738MOL0     C 1732   2.400  10.239   0.051  0.1692  0.7370 -0.8193
  738MOL0     C 1733   2.401  10.321   0.162 -0.4904 -1.0074 -0.2029
  738MOL0     C 1734   2.375  10.473   0.139 -0.4907  0.3239 -0.8274
  738MOL0     C 1735   2.426  10.260   0.293 -0.1472 -0.6072 -0.9393
  738MOL0     C 1736   2.418  10.339   0.421 -0.7996 -0.0822 -1.4214
  738MOL0     O 1737   2.490  10.292   0.529 -0.6238  0.7420  0.2993
  738MOL0     C 1738   2.522  10.391   0.621  0.3959 -0.1054  1.0228
  738MOL0     C 1739   2.416  10.430   0.705 -0.3912 -0.7469  0.6067
  738MOL0     C 1740   2.429  10.542   0.789  0.3642  0.8494 -0.4136
  738MOL0     C 1741   2.550  10.612   0.801  0.4076 -0.2581 -1.0965
  738MOL0     O 1742   2.565  10.711   0.908  0.1865 -0.1788  0.7055
  738MOL0     C 1743   2.694  10.729   0.963 -1.1720 -0.7304 -0.0768
  738MOL0     C 1744   2.691  10.843   1.059 -0.0023 -0.7535  0.6165
  738MOL0     C 1745   2.830  10.870   1.101 -0.2619 -0.8005  0.4626
  738MOL0     C 1746   2.911  10.956   1.002  0.0067 -0.4565 -0.2522
  738MOL0     C 1747   3.051  10.988   1.051 -1.2815 -0.3586 -0.5183
  738MOL0     C 1748   3.130  11.039   0.926  0.4665 -0.0560  0.2863
  738MOL0     C 1749   3.260  11.102   0.965  0.1713 -0.7985 -1.3952
  738MOL0     C 1750   3.240  11.241   1.025  0.0585  0.6540 -0.1915
  738MOL0    Cl 1751   3.398  11.296   1.089  0.3015 -0.7621 -0.0708
  738MOL0     C 1752   2.650  10.572   0.713 -0.1039  0.2502  0.1032
  738MOL0     C 1753   2.644  10.470   0.616  0.3982 -0.7048 -0.1389
  738MOL0     O 1754   2.354  10.440   0.426 -0.3572  0.3078  0.1594
  738MOL0     C 1755   2.434  10.125   0.302  0.4171  0.4006  0.5437
  738MOL0     C 1756   2.420  10.042   0.185  0.2427  0.1722 -0.0033
  738MOL0     N 1757   2.779   9.597  -0.159 -0.0224 -0.2737 -0.7331
  738MOL0     N 1758   2.776   9.484  -0.102  0.5188  0.9764  0.6627
  738MOL0     C 1759   3.437   9.203   0.856 -0.6262 -0.1268 -0.4733
  738MOL0     C 1760   3.510   9.257   0.967  0.5275 -0.4249  0.1972
  738MOL0     C 1761   3.750   9.226   1.370  0.6943 -0.2595  0.1641
  738MOL0     C 1762   3.876   9.175   1.385  0.6965 -0.7529 -0.6544
  738MOL0     C 1763   3.982   9.255   1.434  0.1143 -0.6054 -0.6686
  738MOL0     C 1764   3.962   9.394   1.470 -0.8754  0.1706  0.6773
  738MOL0     O 1765   4.065   9.480   1.510 -0.3765 -0.5155  0.4179
  738MOL0     C 1766   4.184   9.420   1.558 -0.4036 -0.2447 -0.7896
  738MOL0     C 1767   4.301   9.384   1.459  0.3713  0.0149 -0.7291
  738MOL0     C 1768   4.440   9.435   1.519  0.9440 -0.3597  0.4562
  738MOL0     C 1769   4.548   9.385   1.428 -0.0178 -0.0203  0.2181
  738MOL0     C 1770   4.595   9.260   1.482 -0.2051  0.1384 -0.6557
  738MOL0     C 1771   4.637   9.158   1.522 -0.2779  0.9560  0.0716
  738MOL0     C 1772   3.827   9.436   1.475 -0.8560  0.0579 -0.1107
  738MOL0     C 1773   3.727   9.351   1.433 -0.2046 -0.5594 -0.2799
  738MOL0     C 1774   3.594   9.424   1.427  0.6470 -1.3360  0.5041
  738MOL0     H 1775   3.432   9.017   1.203 -2.2832 -0.0079 -0.3430
  738MOL0     H 1776   3.296   8.923   1.003  1.4608 -1.5727 -1.7629
  738MOL0     H 1777   3.338   9.115   0.585  0.7408  1.6567 -0.0884
  738MOL0     H 1778   3.247   9.235   0.673  0.4075 -0.4210 -0.4820
  738MOL0     H 1779   3.129   8.993   0.533  1.0387 -0.3171  0.9508
  738MOL0     H 1780   3.043   9.074   0.664 -1.5949 -1.5084 -0.3684
  738MOL0     H 1781   3.032   9.277   0.559  1.0509 -1.8646  1.9679
  738MOL0     H 1782   3.141   9.226   0.419 -0.6190  3.5705  0.2206
  738MOL0     H 1783   2.969   9.069   0.350  1.7262 -0.7587  2.1984
  738MOL0     H 1784   2.860   9.110   0.473 -0.0250 -0.2577 -0.3029
  738MOL0     H 1785   2.974   9.315   0.276  1.5175  0.1195  1.7480
  738MOL0     H 1786   2.832   9.342   0.385  3.2091  0.2623  2.1736
  738MOL0     H 1787   2.832   9.115   0.179 -0.6194 -0.6709  0.5194
  738MOL0     H 1788   2.694   9.176   0.267  0.2787  2.6075  1.4858
  738MOL0     H 1789   2.736   9.233   0.003 -0.4846  2.1280 -1.2354
  738MOL0     H 1790   2.868   9.329   0.070  1.1197  0.3142  1.8741
  738MOL0     H 1791   2.582   9.360   0.128  2.5809 -5.9908  1.8449
  738MOL0     H 1792   2.709   9.472   0.199  1.1511 -0.6236  0.5487
  738MOL0     H 1793   2.562   9.663   0.067  2.5783  1.9007  1.1026
  738MOL0     H 1794   2.723   9.856  -0.203 -1.1091  2.1598 -0.7586
  738MOL0     H 1795   2.632   9.868  -0.054 -0.8466  2.4094 -0.6649
  738MOL0     H 1796   2.536   9.745  -0.318  1.8867  2.1863 -1.3561
  738MOL0     H 1797   2.434   9.760  -0.177 -1.5100  1.1800 -0.2743
  738MOL0     H 1798   2.576   9.974  -0.325  1.4890 -0.3072  2.9426
  738MOL0     H 1799   2.394   9.948  -0.350 -0.2390 -3.0778 -0.3996
  738MOL0     H 1800   2.562  10.101  -0.169 -1.1426  1.8190  1.1696
  738MOL0     H 1801   2.394  10.135  -0.212 -0.8292 -0.1910  0.1805
  738MOL0     H 1802   2.379  10.279  -0.047 -0.7595  3.9147  0.5693
  738MOL0     H 1803   2.402  10.504   0.037  1.7071 -1.2273 -0.7856
  738MOL0     H 1804   2.433  10.538   0.205  1.1621  0.3086 -2.2098
  738MOL0     H 1805   2.269  10.501   0.147 -0.1757  2.7123 -3.3815
  738MOL0     H 1806   2.327  10.369   0.704 -1.8233  1.2421  1.4547
  738MOL0     H 1807   2.347  10.558   0.857 -1.0091 -0.1492 -1.7518
  738MOL0     H 1808   2.708  10.633   1.013 -2.3031 -1.6789 -1.4819
  738MOL0     H 1809   2.765  10.744   0.881 -2.2083 -2.5687 -1.3884
  738MOL0     H 1810   2.648  10.931   1.009  0.3706 -0.9209 -0.0199
  738MOL0     H 1811   2.636  10.808   1.146  0.2226 -0.9060  0.6971
  738MOL0     H 1812   2.891  10.780   1.108  1.6487  0.1629 -2.2278
  738MOL0     H 1813   2.825  10.914   1.201  0.6176 -1.1166  0.6587
  738MOL0     H 1814   2.871  11.056   0.983  0.6142 -0.3171 -0.8455
  738MOL0     H 1815   2.909  10.901   0.908  1.1538 -3.9535  1.6061
  738MOL0     H 1816   3.033  11.074   1.115  2.8660  0.8856 -0.7488
  738MOL0     H 1817   3.101  10.910   1.108 -0.1221  0.3680 -0.5135
  738MOL0     H 1818   3.079  11.110   0.860 -0.3320 -1.1853 -0.3469
  738MOL0     H 1819   3.148  10.951   0.863  1.4490  2.5732 -3.4359
  738MOL0     H 1820   3.331  11.100   0.881 -0.4351 -0.0603 -1.9370
  738MOL0     H 1821   3.311  11.045   1.044 -1.7213  0.3780  0.8063
  738MOL0     H 1822   3.168  11.230   1.106  3.1844 -1.5095  2.5460
  738MOL0     H 1823   3.206  11.310   0.948  0.9377  1.9881  0.5799
  738MOL0     H 1824   2.742  10.631   0.709 -0.9403  1.5888 -0.0709
  738MOL0     H 1825   2.724  10.449   0.545 -0.1284 -0.7309 -0.7281
  738MOL0     H 1826   2.452  10.069   0.393 -0.1779  1.5728  1.4067
  738MOL0     H 1827   2.433   9.934   0.190 -1.6546 -0.1700 -1.2029
  738MOL0     H 1828   3.427   9.273   0.774  1.2687  4.1646  2.6133
  738MOL0     H 1829   3.560   9.352   0.951 -0.2136 -0.2195 -1.0428
  738MOL0     H 1830   3.894   9.071   1.362  1.6267 -0.3325 -1.9963
  738MOL0     H 1831   4.078   9.204   1.437  0.0858 -0.6220  0.7232
  738MOL0     H 1832   4.232   9.497   1.620  1.2900 -1.3221 -0.7030
  738MOL0     H 1833   4.148   9.339   1.622 -0.7959 -0.1686 -0.9084
  738MOL0     H 1834   4.268   9.431   1.366 -2.1698  1.2566  0.7309
  738MOL0     H 1835   4.309   9.275   1.458  1.0256  0.0398  0.3254
  738MOL0     H 1836   4.423   9.542   1.525  0.3096 -0.0246 -4.0722
  738MOL0     H 1837   4.455   9.393   1.619 -2.9823  2.4739  2.4661
  738MOL0     H 1838   4.635   9.450   1.442  0.1370 -0.6100  2.3296
  738MOL0     H 1839   4.515   9.388   1.324 -1.0853 -1.8419  0.4769
  738MOL0     H 1840   4.691   9.066   1.532  2.4803  1.9938 -3.3030
  738MOL0     H 1841   3.800   9.536   1.507 -0.8633  0.0333 -0.0414
  738MOL0     H 1842   3.508   9.360   1.408 -0.4375  0.6917 -1.8429
  738MOL0     H 1843   3.576   9.479   1.520 -0.6228  2.4439 -1.7944
  738MOL0     H 1844   3.599   9.501   1.350  1.8565 -0.0809  1.7847
  739MOL0     O 1845   7.375   7.948   7.764 -0.1455 -0.6655  0.5362
  739MOL0     C 1846   7.382   7.830   7.743  0.5381  1.1782 -0.7590
  739MOL0     O 1847   7.285   7.739   7.770  0.4607  0.1164  0.0559
  739MOL0     C 1848   7.153   7.770   7.791  0.7493 -1.0408  0.4156
  739MOL0     C 1849   7.123   7.860   7.895 -0.0214 -0.5089  0.0780
  739MOL0     C 1850   6.987   7.908   7.907 -0.4523  0.1271  0.5980
  739MOL0     C 1851   6.885   7.859   7.823 -0.2053 -0.0717 -0.5347
  739MOL0     O 1852   6.758   7.904   7.843  0.0027 -1.0238 -0.2677
  739MOL0     C 1853   6.658   7.817   7.796  0.2448 -0.1609  0.1051
  739MOL0     C 1854   6.518   7.868   7.830  0.7812 -0.1922  0.9586
  739MOL0     C 1855   6.484   7.843   7.977  0.1755  0.8492 -0.0904
  739MOL0     C 1856   6.363   7.737   7.989  0.1406 -0.2132  0.6670
  739MOL0     C 1857   6.318   7.726   8.133  0.1529  0.3892  0.0858
  739MOL0     C 1858   6.413   7.674   8.239 -0.7325  0.4864 -0.2125
  739MOL0     C 1859   6.514   7.564   8.194  0.7755 -0.5610 -0.5129
  739MOL0     C 1860   6.624   7.545   8.295 -0.3446  0.1553 -0.5471
  739MOL0     N 1861   6.758   7.511   8.237  0.0903 -0.6040  0.1158
  739MOL0     C 1862   6.799   7.548   8.115 -0.6155 -0.2331  0.5350
  739MOL0     C 1863   6.931   7.504   8.112  0.5233 -0.7896 -0.5338
  739MOL0     C 1864   7.027   7.506   7.996  0.0787  0.0487  0.7173
  739MOL0     C 1865   7.002   7.386   7.912 -0.1130  0.3146 -0.7032
  739MOL0     C 1866   7.117   7.360   7.811  0.4378 -0.4079  0.1239
  739MOL0     C 1867   7.254   7.342   7.868 -0.3216 -0.7667 -1.0300
  739MOL0     O 1868   7.343   7.333   7.758  0.0487 -0.0482  0.0737
  739MOL0     C 1869   7.442   7.240   7.760  0.0105  0.1629  0.0128
  739MOL0     C 1870   7.543   7.247   7.852  0.0840 -0.4119  0.2916
  739MOL0     C 1871   7.655   7.168   7.849  0.5219 -0.1220  0.0060
  739MOL0     C 1872   7.762   7.211   7.949 -0.6326 -1.0032  0.0720
  739MOL0     C 1873   7.664   7.056   7.760  0.6904 -0.7192  0.3365
  739MOL0     C 1874   7.772   6.961   7.758  0.2296  0.3472  0.8192
  739MOL0     O 1875   7.725   6.833   7.727 -0.4205  0.0808 -0.4315
  739MOL0     C 1876   7.806   6.723   7.705  0.5998  0.3858 -0.8325
  739MOL0     C 1877   7.950   6.731   7.687 -0.2559  0.1354 -0.4313
  739MOL0     C 1878   8.018   6.618   7.687  0.0306 -0.2902 -0.1371
  739MOL0     C 1879   7.954   6.490   7.680  0.5677 -0.8606  0.1029
  739MOL0     O 1880   8.035   6.380   7.684 -0.7764  0.4596  0.1934
  739MOL0     C 1881   7.979   6.249   7.695  0.2747 -1.0193  0.4437
  739MOL0     C 1882   8.080   6.138   7.719  0.4344 -0.2402  0.3801
  739MOL0     C 1883   8.181   6.182   7.828 -0.3522 -0.9955 -0.2825
  739MOL0     C 1884   8.243   6.063   7.909  1.0999 -0.2290 -0.8911
  739MOL0     C 1885   8.329   5.964   7.831 -0.0440  0.0143  0.7787
  739MOL0     C 1886   8.410   6.022   7.713  0.0597  0.2045  0.0276
  739MOL0     C 1887   8.500   5.915   7.657 -1.7327 -0.5315  0.6148
  739MOL0     C 1888   8.430   5.830   7.546  0.6985 -0.0652  0.6315
  739MOL0    Cl 1889   8.545   5.732   7.455  0.1764 -0.5383  0.4820
  739MOL0     C 1890   7.819   6.487   7.691 -0.1087  0.9017  0.3758
  739MOL0     C 1891   7.739   6.600   7.694 -0.5665  0.1350 -0.9036
  739MOL0     O 1892   7.879   6.991   7.786  0.5776  0.1124 -0.8003
  739MOL0     C 1893   7.556   7.046   7.660 -0.2461  0.9751 -0.4481
  739MOL0     C 1894   7.451   7.137   7.662  0.5162  0.6266  0.2801
  739MOL0     N 1895   6.961   7.449   8.237  0.2725  0.0114 -0.2907
  739MOL0     N 1896   6.850   7.456   8.315  0.0255  0.4503 -0.1815
  739MOL0     C 1897   6.921   7.776   7.712  0.8859 -0.2921  0.7472
  739MOL0     C 1898   7.049   7.735   7.695  0.3457  0.2907 -0.1557
  739MOL0     C 1899   7.508   7.761   7.720  0.4613  0.0252  0.0081
  739MOL0     C 1900   7.543   7.634   7.777  0.0136 -0.7701  0.5921
  739MOL0     C 1901   7.663   7.568   7.747  0.4825 -0.0812  0.8590
  739MOL0     C 1902   7.757   7.631   7.664 -0.5507  0.1404  0.3545
  739MOL0     O 1903   7.893   7.602   7.655 -0.2603  0.4612  0.0242
  739MOL0     C 1904   7.944   7.486   7.719 -0.3050 -0.3991 -1.3452
  739MOL0     C 1905   7.955   7.367   7.623 -0.0564 -0.4061  0.3003
  739MOL0     C 1906   7.840   7.348   7.526 -0.7569  0.1617  0.8115
  739MOL0     C 1907   7.872   7.230   7.432 -0.5908 -0.2155 -0.4588
  739MOL0     C 1908   7.750   7.204   7.360 -0.8144 -0.0630  0.5045
  739MOL0     C 1909   7.644   7.197   7.300  0.2202 -0.0389  0.4997
  739MOL0     C 1910   7.725   7.754   7.615  0.4856 -0.7558 -0.7603
  739MOL0     C 1911   7.605   7.824   7.633 -0.4241 -0.2298  1.2266
  739MOL0     C 1912   7.584   7.946   7.546 -0.3772  0.1533 -0.4040
  739MOL0     H 1913   7.202   7.899   7.959 -1.7209 -0.7979  2.4719
  739MOL0     H 1914   6.968   7.979   7.987 -0.0564  0.2955  0.5412
  739MOL0     H 1915   6.676   7.721   7.846  0.2075  1.5154  3.5752
  739MOL0     H 1916   6.659   7.799   7.688 -1.6282 -1.5398  0.2615
  739MOL0     H 1917   6.507   7.975   7.809  0.4089 -0.4865 -0.3915
  739MOL0     H 1918   6.446   7.816   7.767  1.0123  1.1222 -0.4354
  739MOL0     H 1919   6.568   7.803   8.035 -2.0468  0.0473  2.7757
  739MOL0     H 1920   6.463   7.940   8.023  1.0906  1.1483 -0.2744
  739MOL0     H 1921   6.272   7.761   7.932  0.7811 -1.2302 -0.8210
  739MOL0     H 1922   6.396   7.638   7.959  0.8549 -0.0082  0.7708
  739MOL0     H 1923   6.233   7.656   8.132 -0.2653  0.7561  2.5891
  739MOL0     H 1924   6.282   7.826   8.159  0.0448  0.1633  0.8352
  739MOL0     H 1925   6.470   7.759   8.278  0.7970  0.3965 -2.1095
  739MOL0     H 1926   6.361   7.624   8.321 -2.0233 -0.0863 -1.3239
  739MOL0     H 1927   6.555   7.586   8.095 -1.1079 -0.3446 -1.2920
  739MOL0     H 1928   6.467   7.468   8.172  0.4988 -0.2595 -1.2709
  739MOL0     H 1929   6.639   7.631   8.360 -1.1514 -0.8132  0.9752
  739MOL0     H 1930   6.592   7.471   8.368  0.2796  2.3842  2.1280
  739MOL0     H 1931   6.754   7.602   8.032  0.2473  0.4141  0.4759
  739MOL0     H 1932   7.127   7.497   8.039 -0.2382 -3.3652  0.9942
  739MOL0     H 1933   7.021   7.599   7.939 -0.9664 -0.3971  0.0617
  739MOL0     H 1934   6.993   7.297   7.974 -0.6793  1.8128  1.4686
  739MOL0     H 1935   6.904   7.390   7.862 -0.6879  0.8438  0.4432
  739MOL0     H 1936   7.088   7.277   7.745 -1.0205  0.5700 -0.5153
  739MOL0     H 1937   7.121   7.443   7.739 -0.0739 -0.8321 -0.4134
  739MOL0     H 1938   7.280   7.434   7.920 -2.4344 -1.5995  1.7338
  739MOL0     H 1939   7.244   7.266   7.946  0.5829 -1.9383 -2.0249
  739MOL0     H 1940   7.530   7.326   7.925  2.9719  0.6902 -0.2720
  739MOL0     H 1941   7.761   7.131   8.023 -2.4594 -0.8167  0.3108
  739MOL0     H 1942   7.735   7.305   7.998  2.1510  0.7535 -1.4942
  739MOL0     H 1943   7.862   7.233   7.912 -0.8354 -3.3722 -2.1296
  739MOL0     H 1944   8.018   6.815   7.684  2.3604 -1.8746 -1.6569
  739MOL0     H 1945   8.126   6.611   7.682  0.3557 -1.3617  4.1064
  739MOL0     H 1946   7.914   6.244   7.783 -1.2702 -1.1585 -0.6788
  739MOL0     H 1947   7.933   6.217   7.601 -3.0026 -0.0251  1.5815
  739MOL0     H 1948   8.024   6.047   7.740 -2.3851  0.6126 -2.5746
  739MOL0     H 1949   8.135   6.115   7.627  1.0676 -2.3558  1.2324
  739MOL0     H 1950   8.141   6.256   7.897  1.9753  0.4217 -0.3391
  739MOL0     H 1951   8.268   6.229   7.780 -0.1489 -0.2248  0.8192
  739MOL0     H 1952   8.169   6.012   7.973  1.6418 -0.1620 -0.1951
  739MOL0     H 1953   8.305   6.113   7.984  1.6632  0.0982 -1.5782
  739MOL0     H 1954   8.401   5.925   7.904 -0.1254 -0.3254  0.6810
  739MOL0     H 1955   8.266   5.879   7.803  0.8387 -1.0229  1.8097
  739MOL0     H 1956   8.461   6.116   7.736 -1.0880  0.5978  1.0816
  739MOL0     H 1957   8.338   6.057   7.638 -1.5448  1.3236  1.9662
  739MOL0     H 1958   8.540   5.859   7.742 -4.0933 -0.9535  1.5026
  739MOL0     H 1959   8.574   5.965   7.593 -2.0145  1.4548  1.7754
  739MOL0     H 1960   8.377   5.906   7.488 -1.2250  0.3966  2.8814
  739MOL0     H 1961   8.354   5.760   7.580 -0.6064  1.6965  1.4872
  739MOL0     H 1962   7.754   6.400   7.696 -0.8030  1.2493 -1.4656
  739MOL0     H 1963   7.632   6.584   7.704 -0.6519 -0.0003 -1.8787
  739MOL0     H 1964   7.550   6.963   7.591 -0.5686 -0.5795  1.3585
  739MOL0     H 1965   7.365   7.116   7.600  1.0897 -0.2825 -0.2378
  739MOL0     H 1966   6.858   7.738   7.633  2.0949 -2.2112  0.6318
  739MOL0     H 1967   7.071   7.662   7.617 -1.4959  0.2763 -0.6949
  739MOL0     H 1968   7.468   7.572   7.825 -1.1037 -1.5659 -1.9721
  739MOL0     H 1969   7.691   7.473   7.791  1.7145 -0.3596 -0.4378
  739MOL0     H 1970   8.048   7.507   7.745 -0.5827 -0.8996  0.2997
  739MOL0     H 1971   7.892   7.459   7.812 -0.8152  2.2332 -0.7884
  739MOL0     H 1972   7.972   7.276   7.682 -2.7395 -0.8686  0.4541
  739MOL0     H 1973   8.048   7.372   7.565 -0.5998 -0.1236 -0.5620
  739MOL0     H 1974   7.759   7.313   7.590  0.2337  1.9203  3.1805
  739MOL0     H 1975   7.834   7.442   7.471  0.5925  0.6766  1.4838
  739MOL0     H 1976   7.900   7.142   7.492 -1.8480 -0.2260  0.1400
  739MOL0     H 1977   7.951   7.258   7.362  0.4430  1.9913  1.4423
  739MOL0     H 1978   7.552   7.184   7.246  0.2069  1.3935  0.1465
  739MOL0     H 1979   7.799   7.812   7.561 -1.2580  3.3504  0.7493
  739MOL0     H 1980   7.554   8.038   7.598 -3.2993  0.2663 -2.1112
  739MOL0     H 1981   7.677   7.963   7.490  0.7959  0.6718  1.5893
  739MOL0     H 1982   7.494   7.938   7.485 -1.1074 -2.0113  0.8643
  740MOL0     O 1983   8.753  11.296   6.744 -0.1041 -0.4746 -0.1562
  740MOL0     C 1984   8.736  11.342   6.633  0.1721  0.2672  0.3961
  740MOL0     O 1985   8.638  11.422   6.581  0.9913  1.3437 -0.2034
  740MOL0     C 1986   8.551  11.475   6.666  0.1599  1.0776 -0.8255
  740MOL0     C 1987   8.535  11.615   6.674 -0.1472 -0.0851 -0.0360
  740MOL0     C 1988   8.445  11.669   6.760  0.7994 -0.0452  0.8744
  740MOL0     C 1989   8.361  11.589   6.838 -0.5958  1.0248 -0.6169
  740MOL0     O 1990   8.246  11.638   6.898  0.1290 -0.3885  0.3641
  740MOL0     C 1991   8.232  11.777   6.932  0.6457 -0.0035 -0.6297
  740MOL0     C 1992   8.136  11.834   6.823  0.4392  0.0335  0.4727
  740MOL0     C 1993   8.121  11.985   6.820 -0.7057 -0.0955 -0.2777
  740MOL0     C 1994   8.038  12.022   6.947 -0.3772  0.5293  0.6617
  740MOL0     C 1995   8.044  12.172   6.987 -0.0654  0.1245 -0.2291
  740MOL0     C 1996   7.930  12.212   7.087 -0.2494  0.1483 -0.2696
  740MOL0     C 1997   7.793  12.221   7.027 -0.1764 -0.3325  0.4151
  740MOL0     C 1998   7.767  12.351   6.945  1.0752 -0.7776  0.3890
  740MOL0     N 1999   7.805  12.353   6.804  0.0653 -1.1717  0.4181
  740MOL0     C 2000   7.728  12.307   6.700  0.1209  0.8855 -0.3114
  740MOL0     C 2001   7.780  12.355   6.589 -0.5809 -0.7010  0.2642
  740MOL0     C 2002   7.743  12.338   6.448 -0.9887 -0.7024  0.0167
  740MOL0     C 2003   7.802  12.442   6.348 -0.2603 -0.6175  0.3293
  740MOL0     C 2004   7.751  12.420   6.206  0.4338 -1.0778 -0.3463
  740MOL0     C 2005   7.791  12.533   6.101  1.3563 -0.1229  0.2866
  740MOL0     O 2006   7.711  12.511   5.976  0.1468  0.5373  0.5211
  740MOL0     C 2007   7.595  12.588   5.956  0.5212 -0.6024  0.0709
  740MOL0     C 2008   7.525  12.644   6.060  1.0997  0.1255  1.4036
  740MOL0     C 2009   7.404  12.717   6.021 -0.7935 -0.0680 -0.6379
  740MOL0     C 2010   7.330  12.768   6.141 -0.2759  0.4507 -0.1882
  740MOL0     C 2011   7.360  12.722   5.891 -0.4124 -0.1295  0.6771
  740MOL0     C 2012   7.231  12.787   5.844  0.3439  0.0972 -0.6382
  740MOL0     O 2013   7.192  12.758   5.719 -1.3298  0.4414 -0.4905
  740MOL0     C 2014   7.070  12.798   5.690  0.2494 -0.2704 -0.2413
  740MOL0     C 2015   6.977  12.693   5.659 -0.8290  0.4325  0.5431
  740MOL0     C 2016   6.846  12.727   5.615  0.4617 -0.7962  0.2648
  740MOL0     C 2017   6.807  12.862   5.610  1.1223  0.4864 -0.4203
  740MOL0     O 2018   6.671  12.892   5.581 -0.5117 -0.0337 -0.1932
  740MOL0     C 2019   6.624  12.867   5.447 -0.2480 -0.7508  0.1914
  740MOL0     C 2020   6.536  12.992   5.395 -0.8982  0.1937  0.1491
  740MOL0     C 2021   6.404  13.008   5.475  0.3318 -0.4225 -1.3266
  740MOL0     C 2022   6.301  12.897   5.458 -0.8886 -1.0409  0.0295
  740MOL0     C 2023   6.168  12.951   5.522  0.9704  0.6238  0.2559
  740MOL0     C 2024   6.048  12.861   5.491 -0.4280  0.6631  0.9573
  740MOL0     C 2025   5.917  12.902   5.554 -0.2526 -0.2108 -0.4429
  740MOL0     C 2026   5.803  12.844   5.471  0.2406  1.1464  0.9368
  740MOL0    Cl 2027   5.782  12.676   5.489 -0.0674  0.0153  0.1931
  740MOL0     C 2028   6.907  12.957   5.628 -0.6642 -0.3215  0.7841
  740MOL0     C 2029   7.031  12.923   5.658 -0.1211 -0.2938 -0.0844
  740MOL0     O 2030   7.175  12.859   5.924 -0.6944 -0.0025  0.3998
  740MOL0     C 2031   7.428  12.641   5.794 -0.3632 -0.2936 -0.7462
  740MOL0     C 2032   7.546  12.583   5.822 -0.6376  0.3142  0.3116
  740MOL0     N 2033   7.899  12.428   6.620  0.2782  0.6985 -0.2565
  740MOL0     N 2034   7.903  12.437   6.753  0.5859  0.4928 -0.0629
  740MOL0     C 2035   8.389  11.458   6.834 -0.0441  0.4588 -1.1233
  740MOL0     C 2036   8.475  11.391   6.747  0.7586 -0.2102 -0.1752
  740MOL0     C 2037   8.844  11.313   6.545 -0.8026 -0.2895 -0.1233
  740MOL0     C 2038   8.889  11.182   6.539 -0.7274  0.2229  0.0228
  740MOL0     C 2039   8.992  11.139   6.456  0.3594  0.4743 -0.6968
  740MOL0     C 2040   9.059  11.239   6.371 -0.4103 -0.5911 -0.6309
  740MOL0     O 2041   9.164  11.195   6.301 -0.1629 -0.7632  0.1662
  740MOL0     C 2042   9.234  11.289   6.213 -0.5586  0.2312 -0.8529
  740MOL0     C 2043   9.347  11.216   6.138  0.6543  0.0584 -0.6584
  740MOL0     C 2044   9.470  11.265   6.209 -0.6581 -1.4225  1.0693
  740MOL0     C 2045   9.596  11.206   6.140 -0.6981  0.6992 -0.4044
  740MOL0     C 2046   9.625  11.063   6.154 -0.4965  0.7987 -0.6234
  740MOL0     C 2047   9.646  10.947   6.162 -0.0963  0.9972  0.0828
  740MOL0     C 2048   9.018  11.373   6.389  0.3839 -0.3545  0.5685
  740MOL0     C 2049   8.913  11.407   6.473 -0.6837 -0.4803 -0.1267
  740MOL0     C 2050   8.893  11.557   6.497 -0.4141 -0.5863  0.5216
  740MOL0     H 2051   8.600  11.680   6.617  0.9184 -0.4734  0.7118
  740MOL0     H 2052   8.443  11.778   6.762  0.8848  0.0867 -1.9271
  740MOL0     H 2053   8.324  11.837   6.929  0.9822 -0.5292 -1.6423
  740MOL0     H 2054   8.198  11.785   7.035 -1.2759  1.1171 -1.2985
  740MOL0     H 2055   8.177  11.811   6.724 -0.7199  1.7769 -0.4541
  740MOL0     H 2056   8.037  11.789   6.831 -1.4514  3.5560 -0.8716
  740MOL0     H 2057   8.219  12.033   6.820 -1.7931  2.7871 -4.7824
  740MOL0     H 2058   8.067  12.027   6.734  3.7239  0.6219 -3.0447
  740MOL0     H 2059   7.939  11.988   6.916  0.3119 -0.4479 -0.5457
  740MOL0     H 2060   8.062  11.966   7.038 -1.5644  0.3607  0.8934
  740MOL0     H 2061   8.045  12.226   6.892  2.0631 -0.5248 -0.6330
  740MOL0     H 2062   8.141  12.185   7.036  0.4055  0.4656 -1.2267
  740MOL0     H 2063   7.931  12.135   7.165  0.5604  0.1562 -0.2564
  740MOL0     H 2064   7.959  12.309   7.129  1.5805  0.3688 -1.8835
  740MOL0     H 2065   7.731  12.230   7.117  0.3300 -1.2006  0.8644
  740MOL0     H 2066   7.771  12.137   6.960 -0.4751  0.9957 -1.2037
  740MOL0     H 2067   7.661  12.376   6.944  1.3961  0.8495 -2.1150
  740MOL0     H 2068   7.819  12.435   6.994  2.3119 -2.3814  1.9554
  740MOL0     H 2069   7.641  12.242   6.701 -0.6310  1.8612  1.0591
  740MOL0     H 2070   7.635  12.347   6.430 -1.2222  1.2089  1.9719
  740MOL0     H 2071   7.778  12.238   6.421 -0.8486 -0.4978 -0.5580
  740MOL0     H 2072   7.780  12.541   6.388  0.5158 -1.2032  2.3508
  740MOL0     H 2073   7.910  12.427   6.335 -0.6583 -1.9504 -2.1932
  740MOL0     H 2074   7.795  12.324   6.179  3.3377 -0.9138  3.0587
  740MOL0     H 2075   7.644  12.396   6.201  0.5293 -2.0859  1.5980
  740MOL0     H 2076   7.772  12.630   6.147 -1.4912 -0.5831  0.2358
  740MOL0     H 2077   7.897  12.527   6.076  0.2914 -1.5504 -5.0860
  740MOL0     H 2078   7.566  12.662   6.159 -0.2171  1.2981  1.7840
  740MOL0     H 2079   7.338  12.877   6.141 -1.4586  0.5887  1.9231
  740MOL0     H 2080   7.373  12.737   6.237 -1.3481 -0.9421 -0.1346
  740MOL0     H 2081   7.225  12.736   6.137 -0.3318  0.5121  0.6077
  740MOL0     H 2082   7.008  12.590   5.669 -0.8960 -0.0567 -2.9972
  740MOL0     H 2083   6.765  12.657   5.599 -0.8191  0.8869 -1.0582
  740MOL0     H 2084   6.709  12.866   5.379  0.3393  2.8166  0.6722
  740MOL0     H 2085   6.580  12.768   5.432  0.1947 -1.1220  1.2420
  740MOL0     H 2086   6.601  13.079   5.407  1.3240 -1.4406  0.4882
  740MOL0     H 2087   6.506  12.984   5.290  3.4172  0.8370 -1.3117
  740MOL0     H 2088   6.357  13.101   5.445 -1.7424 -0.9226  0.1830
  740MOL0     H 2089   6.440  13.016   5.578  0.5357  1.2441 -1.5086
  740MOL0     H 2090   6.342  12.809   5.508  0.7992  0.1437  0.8309
  740MOL0     H 2091   6.284  12.860   5.357 -0.4779 -3.7586  0.8815
  740MOL0     H 2092   6.184  12.960   5.630 -2.2725 -0.8663  0.9843
  740MOL0     H 2093   6.140  13.052   5.489  2.1516  0.1962 -2.2922
  740MOL0     H 2094   6.072  12.758   5.520 -3.5849 -0.9513 -1.4539
  740MOL0     H 2095   6.030  12.857   5.383  0.6999 -0.4074  0.7912
  740MOL0     H 2096   5.901  13.009   5.570 -3.3390 -0.8032  1.2332
  740MOL0     H 2097   5.912  12.861   5.656  0.2026 -0.7098 -0.6135
  740MOL0     H 2098   5.813  12.869   5.365 -3.0688  0.4617  0.3600
  740MOL0     H 2099   5.718  12.905   5.503 -1.0381 -0.2376  0.2670
  740MOL0     H 2100   6.883  13.061   5.607  1.0189  1.0872  4.7362
  740MOL0     H 2101   7.098  13.007   5.669  0.1864 -0.5246 -0.1921
  740MOL0     H 2102   7.395  12.630   5.691 -1.5456 -1.5506 -0.2631
  740MOL0     H 2103   7.611  12.539   5.747  0.6360  0.9106  1.0259
  740MOL0     H 2104   8.328  11.393   6.897  0.7846  0.3955 -0.3748
  740MOL0     H 2105   8.497  11.285   6.742  0.2268 -0.4604  1.8051
  740MOL0     H 2106   8.836  11.114   6.606 -4.0252  1.4178 -1.1678
  740MOL0     H 2107   9.033  11.039   6.459  0.1078  0.3953  1.9646
  740MOL0     H 2108   9.158  11.326   6.143 -2.7047 -2.1265  0.0559
  740MOL0     H 2109   9.284  11.372   6.263 -1.1885  0.1452 -0.0539
  740MOL0     H 2110   9.355  11.239   6.032 -3.1977  1.4006 -0.8437
  740MOL0     H 2111   9.333  11.107   6.145  1.6570 -0.3844 -3.9814
  740MOL0     H 2112   9.474  11.374   6.203 -0.7670 -1.4432  0.5758
  740MOL0     H 2113   9.460  11.237   6.315 -1.0857 -0.9194  1.1637
  740MOL0     H 2114   9.686  11.254   6.179 -0.8749  2.0857 -1.6386
  740MOL0     H 2115   9.591  11.229   6.033  1.3439  0.7732 -0.5123
  740MOL0     H 2116   9.671  10.843   6.163 -1.2668  0.7033  1.3468
  740MOL0     H 2117   9.083  11.442   6.335 -3.9318  2.3436 -1.8313
  740MOL0     H 2118   8.954  11.623   6.435  0.1031 -2.2196 -0.7732
  740MOL0     H 2119   8.788  11.569   6.469 -0.0981 -2.2615 -1.6939
  740MOL0     H 2120   8.911  11.578   6.603 -1.7283 -2.2484  1.1236
  741MOL0     O 2121   4.265   2.392   6.286 -0.0100 -0.1936  0.6166
  741MOL0     C 2122   4.337   2.310   6.232  0.1952  0.8297 -0.2339
  741MOL0     O 2123   4.285   2.211   6.155  0.0624 -0.0896  0.6260
  741MOL0     C 2124   4.156   2.190   6.124  0.1825 -0.3328  0.1140
  741MOL0     C 2125   4.034   2.234   6.190 -0.0774 -0.0459  0.0388
  741MOL0     C 2126   3.910   2.189   6.143 -0.9945 -0.7831 -0.0964
  741MOL0     C 2127   3.897   2.122   6.029 -0.8262 -0.0493 -0.4895
  741MOL0     O 2128   3.778   2.067   5.985  0.5744  0.8917  0.1535
  741MOL0     C 2129   3.675   2.157   5.940  0.3787  0.6802 -0.0685
  741MOL0     C 2130   3.626   2.151   5.798  0.2804  0.6348 -0.7238
  741MOL0     C 2131   3.589   2.010   5.754 -0.0442  0.0638  0.1996
  741MOL0     C 2132   3.537   2.017   5.616  0.4380  0.1046  1.6325
  741MOL0     C 2133   3.528   1.883   5.549  0.5222  0.6986  0.1038
  741MOL0     C 2134   3.595   1.860   5.420 -0.4515 -1.3323 -1.6370
  741MOL0     C 2135   3.681   1.740   5.412 -0.1901 -0.2003  0.4349
  741MOL0     C 2136   3.731   1.717   5.268 -0.6250 -1.1362  0.2743
  741MOL0     N 2137   3.832   1.819   5.223 -0.1492  0.2488 -0.2117
  741MOL0     C 2138   3.821   1.866   5.096  0.7693 -0.8303 -0.1116
  741MOL0     C 2139   3.936   1.944   5.094  0.6081 -0.1183 -0.5855
  741MOL0     C 2140   3.998   2.031   4.991 -0.2535 -0.7041 -0.4532
  741MOL0     C 2141   3.899   2.128   4.932 -0.1520  0.1006  0.5547
  741MOL0     C 2142   3.797   2.191   5.025  0.1647 -0.1821 -0.2861
  741MOL0     C 2143   3.736   2.315   4.960  0.0347  0.3279  0.1772
  741MOL0     O 2144   3.648   2.384   5.053 -0.1231 -0.0715  0.3501
  741MOL0     C 2145   3.583   2.486   4.997 -0.1151  0.3437 -0.5186
  741MOL0     C 2146   3.625   2.580   4.903 -0.7449  0.5310 -0.0149
  741MOL0     C 2147   3.562   2.698   4.877 -0.2475 -0.1334 -0.5019
  741MOL0     C 2148   3.637   2.783   4.777 -0.1978  0.4708 -0.5546
  741MOL0     C 2149   3.443   2.733   4.938 -0.7869 -0.2683 -0.4472
  741MOL0     C 2150   3.372   2.855   4.909  0.0190 -0.4754  0.2064
  741MOL0     O 2151   3.234   2.840   4.898 -0.3847 -0.4025  0.6099
  741MOL0     C 2152   3.170   2.934   4.819 -0.0470  0.6107 -0.6405
  741MOL0     C 2153   3.052   3.002   4.870  0.3304 -0.9276 -0.3201
  741MOL0     C 2154   2.986   3.096   4.791  0.3226 -0.6672  0.9885
  741MOL0     C 2155   3.027   3.124   4.656  0.1180  0.3888  1.0625
  741MOL0     O 2156   2.962   3.213   4.578  0.2087  0.1030 -0.7551
  741MOL0     C 2157   2.823   3.238   4.619  0.3641 -0.4966 -0.0287
  741MOL0     C 2158   2.762   3.325   4.512 -0.7692 -0.5444 -0.2586
  741MOL0     C 2159   2.611   3.351   4.532  0.1197  0.6160  0.5750
  741MOL0     C 2160   2.572   3.425   4.661  0.0766  0.7180  0.9636
  741MOL0     C 2161   2.421   3.460   4.647  0.0360  0.5064 -0.8126
  741MOL0     C 2162   2.399   3.565   4.754 -0.4195  0.2062  1.1260
  741MOL0     C 2163   2.259   3.609   4.780 -0.6084  0.6973 -0.1905
  741MOL0     C 2164   2.244   3.746   4.859 -0.4944 -0.2357 -0.6154
  741MOL0    Cl 2165   2.097   3.751   4.960 -0.1677  0.2284 -0.1468
  741MOL0     C 2166   3.144   3.065   4.611  0.2075 -0.0099 -0.1796
  741MOL0     C 2167   3.210   2.969   4.689 -0.0403  0.6823  0.1964
  741MOL0     O 2168   3.437   2.963   4.882  0.3614  0.9176 -0.1527
  741MOL0     C 2169   3.392   2.647   5.036 -0.7974  0.4464  0.4076
  741MOL0     C 2170   3.467   2.524   5.058  0.0771 -0.4417 -0.3081
  741MOL0     N 2171   3.994   1.945   5.232 -0.2595  0.0950 -0.4932
  741MOL0     N 2172   3.922   1.873   5.303 -0.6198 -0.5034 -0.3259
  741MOL0     C 2173   4.014   2.098   5.948  0.2070  0.5092  0.5178
  741MOL0     C 2174   4.136   2.133   5.996 -1.3018  0.2832  0.0981
  741MOL0     C 2175   4.483   2.344   6.234  0.8427 -0.0710  0.5028
  741MOL0     C 2176   4.525   2.403   6.349 -0.7373 -0.6783  0.4431
  741MOL0     C 2177   4.663   2.424   6.373  0.6666 -1.3444  0.3244
  741MOL0     C 2178   4.758   2.382   6.283 -0.2146  0.4013  0.0395
  741MOL0     O 2179   4.889   2.385   6.324 -0.7916 -0.0155 -0.7108
  741MOL0     C 2180   4.994   2.363   6.234 -0.1496  0.3793 -0.0756
  741MOL0     C 2181   5.128   2.427   6.269  0.2724  0.2734  0.0095
  741MOL0     C 2182   5.185   2.387   6.407  0.0363  1.3140  0.0382
  741MOL0     C 2183   5.317   2.458   6.450  0.7614  0.8644 -0.3093
  741MOL0     C 2184   5.414   2.458   6.336 -0.0769 -0.1391  0.8757
  741MOL0     C 2185   5.465   2.475   6.231 -0.0254  0.3603 -0.2256
  741MOL0     C 2186   4.716   2.332   6.152  0.2125  0.0129 -0.5934
  741MOL0     C 2187   4.575   2.305   6.130  0.2638 -0.2954 -0.4706
  741MOL0     C 2188   4.536   2.238   6.002  0.8166  0.1299  0.8681
  741MOL0     H 2189   4.053   2.299   6.275  1.3098  1.4764 -1.3691
  741MOL0     H 2190   3.828   2.221   6.206  0.6955 -1.0616  2.3738
  741MOL0     H 2191   3.714   2.257   5.959 -1.3293  0.8396  3.2725
  741MOL0     H 2192   3.591   2.148   6.009  1.6356 -2.2049  1.2280
  741MOL0     H 2193   3.545   2.225   5.799 -1.5185 -1.2144 -0.0174
  741MOL0     H 2194   3.700   2.185   5.726  0.7943 -1.7609 -1.4388
  741MOL0     H 2195   3.688   1.965   5.762  0.8809  2.2819  2.4511
  741MOL0     H 2196   3.528   1.964   5.832 -1.0678 -2.1922 -1.7854
  741MOL0     H 2197   3.446   2.076   5.598  1.2217  0.3844 -2.1229
  741MOL0     H 2198   3.621   2.073   5.574  0.5400 -1.6574 -0.6682
  741MOL0     H 2199   3.428   1.843   5.535  1.7958 -3.2931  1.2179
  741MOL0     H 2200   3.566   1.811   5.622  0.7889  1.2274  0.5017
  741MOL0     H 2201   3.510   1.858   5.351 -1.8644 -1.9387  0.0369
  741MOL0     H 2202   3.659   1.944   5.393  0.6540 -2.2073 -1.8286
  741MOL0     H 2203   3.625   1.651   5.442  2.4234 -1.4742  1.8111
  741MOL0     H 2204   3.764   1.755   5.481 -0.2117  0.1165  0.3948
  741MOL0     H 2205   3.796   1.629   5.272 -1.0574 -1.4285  2.5940
  741MOL0     H 2206   3.650   1.696   5.198  0.3508  0.8595 -1.5857
  741MOL0     H 2207   3.749   1.846   5.018 -1.5194 -0.0731  1.7063
  741MOL0     H 2208   4.050   1.970   4.917  3.0763  2.9461 -1.4324
  741MOL0     H 2209   4.082   2.089   5.030  0.3080 -0.0159 -2.5720
  741MOL0     H 2210   3.955   2.197   4.869  0.4267 -0.4315  0.4878
  741MOL0     H 2211   3.840   2.069   4.862  0.3670 -3.2734  2.7403
  741MOL0     H 2212   3.714   2.124   5.050  0.4668 -0.0055  1.2478
  741MOL0     H 2213   3.850   2.224   5.115  0.9118 -3.0576  0.4250
  741MOL0     H 2214   3.812   2.386   4.927  0.5312 -1.6481 -3.5185
  741MOL0     H 2215   3.675   2.287   4.874  0.4801 -1.0213  0.2726
  741MOL0     H 2216   3.724   2.573   4.861 -0.7143  0.2086  0.1094
  741MOL0     H 2217   3.664   2.885   4.806  0.1841  0.1821  0.1246
  741MOL0     H 2218   3.574   2.795   4.688  0.3261  2.0639 -0.7480
  741MOL0     H 2219   3.731   2.734   4.751 -1.3736 -1.2326 -1.8402
  741MOL0     H 2220   3.020   2.958   4.965  0.7869 -3.2513 -1.1627
  741MOL0     H 2221   2.893   3.131   4.834  1.1386  2.9813  0.0841
  741MOL0     H 2222   2.758   3.151   4.634  0.6938 -0.4629  1.8442
  741MOL0     H 2223   2.825   3.288   4.717 -2.5433 -0.5087  0.1147
  741MOL0     H 2224   2.813   3.421   4.499  2.2022 -2.1777 -1.9927
  741MOL0     H 2225   2.787   3.266   4.423 -2.1010 -1.4564 -0.0636
  741MOL0     H 2226   2.550   3.261   4.525 -0.6191  1.1399  0.2022
  741MOL0     H 2227   2.579   3.400   4.441  2.2723 -0.7498 -1.0344
  741MOL0     H 2228   2.630   3.516   4.643  0.9282 -0.1818 -1.2679
  741MOL0     H 2229   2.606   3.373   4.751  2.9467 -0.2486 -0.5499
  741MOL0     H 2230   2.397   3.499   4.548 -2.6644 -0.3817 -0.6003
  741MOL0     H 2231   2.363   3.368   4.658 -2.7202  2.4291  2.6768
  741MOL0     H 2232   2.459   3.652   4.724  0.9843 -1.8434 -2.7336
  741MOL0     H 2233   2.439   3.523   4.847  2.9607  0.7770  0.0828
  741MOL0     H 2234   2.229   3.519   4.836  2.5572 -0.3822 -0.0155
  741MOL0     H 2235   2.206   3.614   4.684  2.9094  0.0006 -2.3380
  741MOL0     H 2236   2.241   3.830   4.788  0.3568 -1.1309 -1.7610
  741MOL0     H 2237   2.325   3.754   4.932 -2.5091 -1.9934  1.9798
  741MOL0     H 2238   3.167   3.095   4.509  1.9581 -1.8800 -0.4044
  741MOL0     H 2239   3.293   2.920   4.639 -0.3621  2.2417 -1.9866
  741MOL0     H 2240   3.305   2.672   5.097  0.6437  0.8357  2.3932
  741MOL0     H 2241   3.436   2.457   5.137  0.1930  0.6692  0.7165
  741MOL0     H 2242   4.006   2.057   5.848 -0.3159  0.0732  0.7300
  741MOL0     H 2243   4.233   2.117   5.949 -1.6054 -0.5534 -0.2560
  741MOL0     H 2244   4.457   2.414   6.433 -3.0132  0.5260 -1.4320
  741MOL0     H 2245   4.707   2.466   6.463  1.2912  2.2452 -1.4696
  741MOL0     H 2246   5.009   2.256   6.221 -0.7609  0.3905 -0.9488
  741MOL0     H 2247   4.967   2.399   6.134 -0.1755 -0.8376 -0.5181
  741MOL0     H 2248   5.127   2.535   6.257  0.6510  0.0123 -3.3898
  741MOL0     H 2249   5.188   2.389   6.186 -4.5839 -1.1467 -3.2780
  741MOL0     H 2250   5.105   2.418   6.476  1.7571  5.6589  0.4087
  741MOL0     H 2251   5.202   2.279   6.412  0.5680  1.4238  0.7339
  741MOL0     H 2252   5.369   2.406   6.532  0.5618  1.4543  0.1953
  741MOL0     H 2253   5.299   2.562   6.478  2.0840  0.7242  1.2325
  741MOL0     H 2254   5.512   2.463   6.135  1.5154 -0.2407  0.5777
  741MOL0     H 2255   4.784   2.304   6.072  0.7772  0.4435 -0.2770
  741MOL0     H 2256   4.429   2.223   5.982  1.2115 -3.0641  0.6123
  741MOL0     H 2257   4.582   2.280   5.912 -1.3386 -0.4986 -0.6158
  741MOL0     H 2258   4.569   2.134   6.005  0.7926 -0.0485 -2.2051
  742MOL0     O 2259  10.707   9.847   3.594  0.9781 -0.4540  0.7399
  742MOL0     C 2260  10.688   9.962   3.566 -0.4178 -0.6233 -0.7043
  742MOL0     O 2261  10.565  10.020   3.559  0.1144 -0.3854 -0.7100
  742MOL0     C 2262  10.451   9.944   3.573 -0.4536  0.5566  0.5645
  742MOL0     C 2263  10.404   9.852   3.474 -0.3606  0.0127 -0.3583
  742MOL0     C 2264  10.297   9.770   3.503  0.0942 -0.1135 -1.2431
  742MOL0     C 2265  10.228   9.772   3.625 -1.4385 -0.0493  0.9824
  742MOL0     O 2266  10.123   9.683   3.646  0.4224  0.6032  0.1749
  742MOL0     C 2267  10.061   9.679   3.774  0.3056  0.1824 -0.3692
  742MOL0     C 2268   9.941   9.580   3.775  0.2550 -0.0534 -0.5706
  742MOL0     C 2269   9.965   9.455   3.697 -0.4787 -0.1525 -0.3663
  742MOL0     C 2270  10.084   9.382   3.754  0.9273  0.7363 -0.5921
  742MOL0     C 2271  10.142   9.277   3.650  0.6294 -0.4891 -0.6027
  742MOL0     C 2272  10.281   9.220   3.690 -0.2204  0.1088  0.0495
  742MOL0     C 2273  10.399   9.311   3.706  0.5741 -0.2312  0.4792
  742MOL0     C 2274  10.428   9.395   3.583 -0.3258 -0.5121 -0.9130
  742MOL0     N 2275  10.421   9.324   3.462 -0.2261 -0.9471  0.4509
  742MOL0     C 2276  10.471   9.208   3.422  0.5150  0.6233 -0.1722
  742MOL0     C 2277  10.469   9.201   3.288 -0.4386 -0.4136 -0.3004
  742MOL0     C 2278  10.513   9.079   3.214 -0.2784 -0.3438  0.1609
  742MOL0     C 2279  10.609   9.118   3.099 -0.8134  0.1134 -0.5351
  742MOL0     C 2280  10.643   8.998   3.011  0.8904 -0.2978  0.0606
  742MOL0     C 2281  10.547   8.996   2.889 -0.5928  0.3625 -0.2512
  742MOL0     O 2282  10.571   9.112   2.807 -0.4093 -0.6395 -0.1925
  742MOL0     C 2283  10.663   9.095   2.699 -0.2781  0.7142  0.1364
  742MOL0     C 2284  10.724   8.981   2.654 -0.6291 -0.6324  0.0426
  742MOL0     C 2285  10.809   8.983   2.549 -0.5830 -0.2503 -0.0374
  742MOL0     C 2286  10.854   8.848   2.507 -0.0894  0.7164 -0.1545
  742MOL0     C 2287  10.836   9.104   2.484 -1.5844 -0.2729 -1.4931
  742MOL0     C 2288  10.938   9.125   2.373  0.0877  0.0458 -0.0780
  742MOL0     O 2289  10.947   9.255   2.331  0.2208 -0.0355 -0.0472
  742MOL0     C 2290  11.055   9.303   2.267  0.0282  0.2467 -0.1870
  742MOL0     C 2291  11.026   9.405   2.182  1.1431 -0.7121 -0.0025
  742MOL0     C 2292  11.122   9.480   2.122 -1.0674  0.0668  0.1861
  742MOL0     C 2293  11.255   9.447   2.125  0.8758 -0.0963  0.1533
  742MOL0     O 2294  11.347   9.516   2.061 -0.3331 -0.7303 -0.5591
  742MOL0     C 2295  11.441   9.444   1.982 -0.2752  0.0987  1.2484
  742MOL0     C 2296  11.440   9.486   1.827 -0.8915  0.5988 -1.0134
  742MOL0     C 2297  11.315   9.443   1.754  0.0372  0.8674  0.5383
  742MOL0     C 2298  11.305   9.511   1.612  0.2738  0.0597 -0.1761
  742MOL0     C 2299  11.206   9.465   1.508  0.1899 -0.4877 -0.9637
  742MOL0     C 2300  11.236   9.329   1.443  0.0894 -0.2345  0.0135
  742MOL0     C 2301  11.164   9.294   1.313  0.0885  0.4457  0.6353
  742MOL0     C 2302  11.010   9.318   1.312  1.2223  0.3843  0.4898
  742MOL0    Cl 2303  10.937   9.168   1.386 -0.0651  0.1218 -0.2919
  742MOL0     C 2304  11.293   9.340   2.212  0.2258  0.7161 -1.2153
  742MOL0     C 2305  11.190   9.268   2.285  0.5199 -0.0660 -0.1868
  742MOL0     O 2306  11.012   9.035   2.329  0.1579 -0.1695 -0.7155
  742MOL0     C 2307  10.774   9.217   2.533  0.6878  0.1548 -1.0925
  742MOL0     C 2308  10.686   9.217   2.637 -1.0239  0.1250 -0.5028
  742MOL0     N 2309  10.416   9.327   3.245 -0.4879  0.0141  0.0050
  742MOL0     N 2310  10.385   9.389   3.353 -0.3032  0.0551  0.4442
  742MOL0     C 2311  10.271   9.864   3.718  0.3346 -0.3417  0.7547
  742MOL0     C 2312  10.380   9.951   3.695  0.5442  0.5484  0.3584
  742MOL0     C 2313  10.799  10.053   3.531 -0.8990 -0.0977 -0.8569
  742MOL0     C 2314  10.770  10.151   3.447  0.2400 -0.7071  0.3167
  742MOL0     C 2315  10.865  10.235   3.402  0.1057 -0.9198  0.2785
  742MOL0     C 2316  11.001  10.225   3.444  0.1535 -0.3763  0.1519
  742MOL0     O 2317  11.076  10.326   3.399 -0.7480 -0.5124  0.3529
  742MOL0     C 2318  11.211  10.352   3.431 -0.2472 -0.4003 -0.0051
  742MOL0     C 2319  11.226  10.415   3.569 -0.3314  0.2116 -0.0772
  742MOL0     C 2320  11.135  10.540   3.602 -0.4616 -0.1825 -1.5497
  742MOL0     C 2321  11.159  10.578   3.746  0.0572  1.0349 -0.8550
  742MOL0     C 2322  11.293  10.641   3.760 -0.1636  1.1097 -0.4211
  742MOL0     C 2323  11.404  10.687   3.769  0.4477 -0.2503  0.4407
  742MOL0     C 2324  11.035  10.121   3.533 -0.4522 -0.0408  0.0823
  742MOL0     C 2325  10.938  10.032   3.577  0.2814 -0.2599 -0.2772
  742MOL0     C 2326  10.983   9.916   3.668  0.3242  0.0581  0.5691
  742MOL0     H 2327  10.454   9.835   3.378  0.5314 -1.0031  0.2612
  742MOL0     H 2328  10.258   9.695   3.435 -1.3753  1.1216 -1.8165
  742MOL0     H 2329  10.013   9.772   3.804  3.2071  1.2151  1.5488
  742MOL0     H 2330  10.139   9.649   3.846 -1.9863  0.6093  2.4600
  742MOL0     H 2331   9.914   9.548   3.876  0.3887  1.8853  0.1099
  742MOL0     H 2332   9.854   9.637   3.739  1.3647  1.8651 -0.3012
  742MOL0     H 2333   9.870   9.401   3.698 -0.3436 -0.4485 -1.8349
  742MOL0     H 2334   9.982   9.481   3.592 -0.1275 -0.9529 -0.5079
  742MOL0     H 2335  10.173   9.439   3.782  1.9870 -0.9387 -0.4276
  742MOL0     H 2336  10.047   9.316   3.834 -2.4272 -2.3666 -4.2773
  742MOL0     H 2337  10.159   9.333   3.557  3.6027 -1.1944 -0.5686
  742MOL0     H 2338  10.067   9.201   3.625 -1.1590  0.8890  0.3427
  742MOL0     H 2339  10.270   9.160   3.781 -0.2643  1.1510  0.7531
  742MOL0     H 2340  10.298   9.134   3.625 -0.5048 -1.5895  2.1112
  742MOL0     H 2341  10.489   9.257   3.737  3.2093  2.9249 -1.0481
  742MOL0     H 2342  10.370   9.385   3.782 -1.4862  2.8131 -2.9354
  742MOL0     H 2343  10.345   9.466   3.582 -0.6453 -0.8752 -1.5775
  742MOL0     H 2344  10.521   9.453   3.586 -1.1423  1.2252 -4.2056
  742MOL0     H 2345  10.501   9.123   3.483 -1.6305  0.5310  0.8301
  742MOL0     H 2346  10.423   9.029   3.178 -0.4356 -1.3548  1.8812
  742MOL0     H 2347  10.572   9.019   3.284 -1.3214  0.5977  1.9197
  742MOL0     H 2348  10.565   9.199   3.039  3.4022  2.8589 -0.3278
  742MOL0     H 2349  10.708   9.149   3.131 -1.6552  1.9490  0.4285
  742MOL0     H 2350  10.740   9.020   2.965  0.2900 -3.3042 -3.0647
  742MOL0     H 2351  10.653   8.909   3.073 -2.2731  1.4699  3.5452
  742MOL0     H 2352  10.550   8.901   2.835 -1.2514 -0.0766  0.4647
  742MOL0     H 2353  10.449   9.010   2.936  0.0044 -1.6690  1.7898
  742MOL0     H 2354  10.717   8.885   2.704  0.5962 -0.0489  1.3814
  742MOL0     H 2355  10.962   8.862   2.502  0.2222 -1.1513  0.4414
  742MOL0     H 2356  10.807   8.814   2.414  4.1017 -1.8850 -1.5912
  742MOL0     H 2357  10.836   8.772   2.584  1.2138  0.3137 -0.2282
  742MOL0     H 2358  10.923   9.438   2.169  1.6046  0.5973 -0.5298
  742MOL0     H 2359  11.097   9.574   2.075  2.6026  2.3472  2.2777
  742MOL0     H 2360  11.545   9.462   2.011 -0.0448  0.8685  0.0032
  742MOL0     H 2361  11.415   9.338   1.984  0.0013  0.0228  0.7998
  742MOL0     H 2362  11.467   9.591   1.827  2.7131 -0.2192 -0.9447
  742MOL0     H 2363  11.527   9.435   1.784 -1.1031 -1.3057  0.6630
  742MOL0     H 2364  11.235   9.459   1.827  1.0122 -1.5256  2.2766
  742MOL0     H 2365  11.316   9.334   1.746 -1.6824  0.7776  1.0368
  742MOL0     H 2366  11.402   9.509   1.560  0.7592  3.3122  0.4341
  742MOL0     H 2367  11.292   9.618   1.630  0.9688  0.2207 -0.5878
  742MOL0     H 2368  11.114   9.454   1.566  1.1765  0.5642  0.8953
  742MOL0     H 2369  11.179   9.533   1.426  0.1467  1.4785  0.6021
  742MOL0     H 2370  11.225   9.248   1.514 -0.6654  0.9236  1.2686
  742MOL0     H 2371  11.341   9.331   1.412 -0.4669  0.3522 -2.0139
  742MOL0     H 2372  11.192   9.197   1.271  0.6295  1.4219 -1.4121
  742MOL0     H 2373  11.212   9.361   1.241  1.4211  0.3966  1.4584
  742MOL0     H 2374  10.968   9.358   1.219 -3.1392  1.5640  2.7086
  742MOL0     H 2375  10.975   9.397   1.380 -1.8457 -0.9164  0.5804
  742MOL0     H 2376  11.397   9.313   2.229  0.1653 -0.3691 -2.4089
  742MOL0     H 2377  11.218   9.202   2.367  4.5317  2.5354  0.8901
  742MOL0     H 2378  10.790   9.315   2.491  1.0509  0.5420 -0.0723
  742MOL0     H 2379  10.644   9.312   2.671  1.5489  2.3962 -3.1425
  742MOL0     H 2380  10.212   9.884   3.807  2.5396  0.9051  2.0246
  742MOL0     H 2381  10.407  10.031   3.763  0.7014  0.1564  0.7569
  742MOL0     H 2382  10.671  10.168   3.404  1.9722  0.2745 -3.7414
  742MOL0     H 2383  10.831  10.317   3.340 -0.6992 -0.5276  1.2062
  742MOL0     H 2384  11.277  10.265   3.439  1.4484  0.8479  0.2448
  742MOL0     H 2385  11.249  10.425   3.359  0.0274  0.2285  0.7602
  742MOL0     H 2386  11.327  10.455   3.572 -0.0056 -0.3541 -1.9686
  742MOL0     H 2387  11.204  10.328   3.631  1.7859 -1.7891 -1.9594
  742MOL0     H 2388  11.163  10.632   3.550  2.1616 -0.7551 -1.2977
  742MOL0     H 2389  11.029  10.519   3.582 -1.1146 -0.0117  1.3251
  742MOL0     H 2390  11.150  10.481   3.796 -5.0170  1.3606 -0.7029
  742MOL0     H 2391  11.080  10.646   3.779  0.9564  1.9005 -0.4200
  742MOL0     H 2392  11.498  10.740   3.766  1.6107 -2.0372  2.3984
  742MOL0     H 2393  11.139  10.113   3.566 -1.1255  0.5206  2.5333
  742MOL0     H 2394  11.019   9.833   3.607  0.5271 -0.7056  1.6932
  742MOL0     H 2395  11.055   9.961   3.737  1.5374  0.5455 -0.9575
  742MOL0     H 2396  10.901   9.872   3.727 -2.3361  0.7153 -2.3821
  743MOL0     O 2397   9.788   2.096   8.257  0.1081  0.0218  0.6321
  743MOL0     C 2398   9.884   2.111   8.176  1.0164 -0.6889 -0.4748
  743MOL0     O 2399   9.951   2.013   8.113 -0.0078  1.1867 -0.5939
  743MOL0     C 2400   9.892   1.892   8.095 -0.0697  1.4728  0.3417
  743MOL0     C 2401   9.861   1.804   8.198  0.6144  0.3708  0.3814
  743MOL0     C 2402   9.823   1.673   8.179  0.9064  0.0722  0.2347
  743MOL0     C 2403   9.801   1.629   8.048 -0.8014 -0.1750  0.3074
  743MOL0     O 2404   9.763   1.499   8.006 -0.1730 -0.2258 -0.5618
  743MOL0     C 2405   9.749   1.392   8.108  0.5281 -0.2639 -0.2689
  743MOL0     C 2406   9.702   1.268   8.032 -0.6000 -0.6987  0.0958
  743MOL0     C 2407   9.670   1.159   8.131 -0.0585  0.4631 -0.9786
  743MOL0     C 2408   9.566   1.198   8.236  0.2687  0.5142 -0.5277
  743MOL0     C 2409   9.539   1.083   8.343  0.0087  0.4987  0.0402
  743MOL0     C 2410   9.510   0.937   8.291  0.8542 -1.4504 -0.0917
  743MOL0     C 2411   9.410   0.874   8.392  0.0656  0.7236 -0.3436
  743MOL0     C 2412   9.396   0.724   8.375  0.3356 -0.4989 -0.0302
  743MOL0     N 2413   9.529   0.648   8.382 -0.1907  0.2614  1.1023
  743MOL0     C 2414   9.644   0.681   8.454 -1.1796  0.6334 -0.5338
  743MOL0     C 2415   9.738   0.589   8.423  0.1752  0.1145  1.0697
  743MOL0     C 2416   9.884   0.600   8.461  0.0993 -0.2128  0.2350
  743MOL0     C 2417   9.960   0.467   8.440 -0.6348  0.5175 -0.7480
  743MOL0     C 2418  10.104   0.479   8.513  1.5660 -0.3369  0.5701
  743MOL0     C 2419  10.196   0.395   8.435 -0.7327  1.0605  0.1815
  743MOL0     O 2420  10.323   0.396   8.503  0.1230 -0.5003  0.7684
  743MOL0     C 2421  10.405   0.509   8.506  0.0534 -0.7013 -1.0376
  743MOL0     C 2422  10.469   0.536   8.625 -0.4026  0.7297  0.6121
  743MOL0     C 2423  10.544   0.655   8.642 -0.0598 -0.5414  0.9420
  743MOL0     C 2424  10.593   0.685   8.775  0.0707  0.4157 -0.3138
  743MOL0     C 2425  10.549   0.752   8.535  0.4700 -0.5896 -0.8348
  743MOL0     C 2426  10.624   0.872   8.526 -0.9624  0.0480 -0.7469
  743MOL0     O 2427  10.581   0.983   8.477 -0.0830 -0.2066  0.3295
  743MOL0     C 2428  10.664   1.090   8.474 -0.1489  0.7810  0.1062
  743MOL0     C 2429  10.698   1.136   8.345 -0.0029 -0.8431 -0.8546
  743MOL0     C 2430  10.769   1.256   8.337  0.5183 -0.5452 -0.6800
  743MOL0     C 2431  10.815   1.331   8.452  1.2513 -0.8035  0.2263
  743MOL0     O 2432  10.888   1.448   8.456  0.0629 -0.3252  1.0362
  743MOL0     C 2433  10.934   1.497   8.326 -0.1143  0.9285 -0.1190
  743MOL0     C 2434  11.067   1.426   8.288 -0.0473 -0.6102  0.3282
  743MOL0     C 2435  11.181   1.447   8.384 -0.4128  0.0864 -0.6695
  743MOL0     C 2436  11.320   1.448   8.309 -0.2282 -0.0830  0.6703
  743MOL0     C 2437  11.431   1.495   8.388 -0.1886 -0.0199  0.4723
  743MOL0     C 2438  11.464   1.410   8.510  0.2100  0.2508 -0.4205
  743MOL0     C 2439  11.589   1.466   8.576 -0.2368 -0.8008 -0.0263
  743MOL0     C 2440  11.546   1.600   8.651  0.3718 -0.1347 -0.1696
  743MOL0    Cl 2441  11.690   1.710   8.670  0.2264  0.4277 -0.8354
  743MOL0     C 2442  10.758   1.292   8.576 -0.8641  1.2797  0.1220
  743MOL0     C 2443  10.689   1.171   8.588 -0.6465 -0.4057 -0.1424
  743MOL0     O 2444  10.735   0.861   8.581 -0.3122 -0.1370 -0.2731
  743MOL0     C 2445  10.474   0.724   8.415 -0.1644  0.0025  1.1018
  743MOL0     C 2446  10.419   0.592   8.400 -0.3039 -0.0019 -0.1395
  743MOL0     N 2447   9.685   0.494   8.328 -0.2787  0.3678  1.1741
  743MOL0     N 2448   9.567   0.542   8.302  0.0914  0.6112 -0.0075
  743MOL0     C 2449   9.832   1.720   7.951 -0.1629  0.0792  0.8542
  743MOL0     C 2450   9.877   1.849   7.973  0.4433  1.0686  0.4750
  743MOL0     C 2451   9.927   2.246   8.127 -0.1334 -0.0044 -0.4958
  743MOL0     C 2452   9.867   2.359   8.195 -0.8814  0.6939 -0.0339
  743MOL0     C 2453   9.886   2.491   8.160 -0.6035  0.6841 -0.2720
  743MOL0     C 2454   9.952   2.524   8.041  0.3797  0.1803  0.2794
  743MOL0     O 2455   9.978   2.647   7.997 -0.5810 -0.2480  0.2354
  743MOL0     C 2456   9.932   2.761   8.069 -0.1301  0.0249 -0.5829
  743MOL0     C 2457   9.956   2.887   7.978  0.8704  1.3724 -0.2264
  743MOL0     C 2458  10.096   2.938   8.004  0.0321 -0.2826  0.2892
  743MOL0     C 2459  10.126   3.067   7.920 -0.9628  0.1232  1.0433
  743MOL0     C 2460  10.124   3.194   7.993 -0.3718  0.8793 -0.1718
  743MOL0     C 2461  10.119   3.290   8.055  0.1167  0.5897 -0.7235
  743MOL0     C 2462   9.992   2.414   7.961 -0.4937  0.3893 -1.4341
  743MOL0     C 2463   9.994   2.281   8.001  0.2957  0.2348 -0.0516
  743MOL0     C 2464  10.067   2.180   7.917  0.6556 -0.2196 -0.5191
  743MOL0     H 2465   9.864   1.833   8.303 -3.1738  1.3902  0.3268
  743MOL0     H 2466   9.807   1.600   8.258 -2.0779 -1.5514 -1.6887
  743MOL0     H 2467   9.672   1.425   8.178 -0.3159 -1.6488 -0.5013
  743MOL0     H 2468   9.844   1.376   8.159 -0.1117 -1.3822  0.6091
  743MOL0     H 2469   9.617   1.296   7.969 -1.1499  1.9551  1.8561
  743MOL0     H 2470   9.786   1.249   7.965  1.2880  0.4141  2.0231
  743MOL0     H 2471   9.631   1.068   8.085  0.7234 -0.0972 -0.5621
  743MOL0     H 2472   9.764   1.130   8.180  1.0045  0.3336 -2.9886
  743MOL0     H 2473   9.601   1.282   8.296 -0.5158 -0.3393  1.1901
  743MOL0     H 2474   9.470   1.229   8.193  0.3655  1.3482 -0.1578
  743MOL0     H 2475   9.452   1.129   8.390  0.3848  1.3759 -0.0828
  743MOL0     H 2476   9.619   1.072   8.417 -0.0496 -1.9273 -0.1779
  743MOL0     H 2477   9.469   0.935   8.189  4.6963 -1.6342 -1.8010
  743MOL0     H 2478   9.602   0.878   8.281  2.3393  0.7957 -0.3809
  743MOL0     H 2479   9.315   0.927   8.385  0.5313  2.7376  4.4945
  743MOL0     H 2480   9.437   0.883   8.498 -0.0722  1.0753 -0.3388
  743MOL0     H 2481   9.322   0.692   8.449  1.1131 -0.4748  0.7658
  743MOL0     H 2482   9.352   0.713   8.275  0.8204  1.4974 -0.5051
  743MOL0     H 2483   9.666   0.750   8.534  0.4843 -0.3190 -0.1178
  743MOL0     H 2484   9.888   0.628   8.566 -2.4428 -0.1414  0.3714
  743MOL0     H 2485   9.930   0.678   8.400  0.5878  0.5398  1.5391
  743MOL0     H 2486   9.899   0.386   8.482 -1.9599  2.3673  1.0426
  743MOL0     H 2487   9.989   0.442   8.337  1.4519 -2.1076  0.3598
  743MOL0     H 2488  10.138   0.583   8.509 -1.3932  0.7239  0.4205
  743MOL0     H 2489  10.098   0.446   8.617  1.1174  4.2967  2.2341
  743MOL0     H 2490  10.151   0.295   8.432  3.1279 -0.8137 -0.2143
  743MOL0     H 2491  10.201   0.426   8.330  0.7126  1.4056  0.3461
  743MOL0     H 2492  10.453   0.463   8.704  1.3111  1.5819  1.8275
  743MOL0     H 2493  10.703   0.688   8.778  0.0266  2.6196  0.4600
  743MOL0     H 2494  10.561   0.605   8.843 -0.4096 -1.0133 -2.1342
  743MOL0     H 2495  10.558   0.781   8.812 -0.7080  0.0287 -0.0276
  743MOL0     H 2496  10.667   1.085   8.254 -2.7559 -0.9949  0.0830
  743MOL0     H 2497  10.797   1.281   8.235  0.5741  0.2614 -0.4763
  743MOL0     H 2498  10.856   1.483   8.251  0.8591 -2.0345 -0.7004
  743MOL0     H 2499  10.955   1.604   8.335  0.4291  1.0699 -2.5766
  743MOL0     H 2500  11.039   1.321   8.274  2.0941 -1.2928  0.7762
  743MOL0     H 2501  11.102   1.466   8.192 -1.7862  1.5809  0.5069
  743MOL0     H 2502  11.178   1.366   8.457  0.1814  3.4243  3.4368
  743MOL0     H 2503  11.166   1.544   8.432 -2.9170 -1.4528  1.9938
  743MOL0     H 2504  11.316   1.507   8.216 -1.9337 -0.5995  0.3786
  743MOL0     H 2505  11.341   1.349   8.266 -1.0648 -0.1898  0.4912
  743MOL0     H 2506  11.518   1.489   8.321  1.1047 -3.1094  2.1991
  743MOL0     H 2507  11.419   1.602   8.402  2.3722  0.4689 -0.4949
  743MOL0     H 2508  11.478   1.306   8.479 -2.1772 -0.2386 -0.0943
  743MOL0     H 2509  11.377   1.407   8.576  0.1038  1.1999 -0.5003
  743MOL0     H 2510  11.667   1.486   8.503  3.0240 -3.6892  2.3176
  743MOL0     H 2511  11.619   1.398   8.657  1.6883  3.7508  3.5184
  743MOL0     H 2512  11.495   1.581   8.745 -0.3584  2.9212  0.1513
  743MOL0     H 2513  11.467   1.652   8.597 -0.9608  0.0419  1.8641
  743MOL0     H 2514  10.792   1.348   8.662  0.2343 -0.1001  0.6328
  743MOL0     H 2515  10.658   1.128   8.683 -1.5803  0.5965  0.0283
  743MOL0     H 2516  10.476   0.789   8.328 -0.6330 -0.7008  0.5599
  743MOL0     H 2517  10.362   0.570   8.311 -2.4950  2.1917  0.6246
  743MOL0     H 2518   9.808   1.688   7.850  1.9556  1.3859 -0.1457
  743MOL0     H 2519   9.894   1.924   7.897  1.9553 -3.0585 -3.7628
  743MOL0     H 2520   9.826   2.345   8.294 -0.0346 -0.7977  0.1259
  743MOL0     H 2521   9.863   2.556   8.244 -0.1734  0.9013 -0.3161
  743MOL0     H 2522   9.824   2.748   8.080  0.2909 -2.6348  1.3376
  743MOL0     H 2523   9.975   2.760   8.170 -1.5350 -1.9100  0.0557
  743MOL0     H 2524   9.886   2.962   8.015  0.2534  0.4288  0.5696
  743MOL0     H 2525   9.946   2.860   7.872  1.9490  2.7902 -0.7275
  743MOL0     H 2526  10.135   2.960   8.104  1.0842 -0.8197  0.0090
  743MOL0     H 2527  10.166   2.864   7.964  2.0075  2.5942 -2.0970
  743MOL0     H 2528  10.061   3.082   7.833  0.0196  0.9338  0.4277
  743MOL0     H 2529  10.232   3.073   7.892 -0.6309 -0.2999  2.1141
  743MOL0     H 2530  10.149   3.372   8.118 -1.1936  0.1135  0.5742
  743MOL0     H 2531  10.053   2.433   7.873 -0.6770  3.3914 -1.0238
  743MOL0     H 2532  10.000   2.119   7.856  1.7514 -3.4330  1.2365
  743MOL0     H 2533  10.132   2.235   7.848 -2.9319  1.4237 -2.8782
  743MOL0     H 2534  10.119   2.107   7.980 -1.4435 -1.7698 -0.4944
  744MOL0     O 2535   7.831   6.213   4.654 -0.3572  0.9189  0.6253
  744MOL0     C 2536   7.803   6.159   4.545 -0.3548  0.1261  0.5921
  744MOL0     O 2537   7.775   6.022   4.527  0.1418  0.0858 -0.0774
  744MOL0     C 2538   7.755   5.971   4.403 -0.0109 -0.2108  0.2093
  744MOL0     C 2539   7.856   5.923   4.316 -0.1068  0.1357  1.0808
  744MOL0     C 2540   7.812   5.858   4.196 -0.0298  0.3445 -0.4423
  744MOL0     C 2541   7.683   5.827   4.178 -0.2673 -0.1086  0.0792
  744MOL0     O 2542   7.662   5.725   4.087  0.5262 -0.3217 -0.0958
  744MOL0     C 2543   7.614   5.775   3.962 -0.1553  0.0860  0.0141
  744MOL0     C 2544   7.611   5.647   3.869  0.6532 -0.2557  0.1006
  744MOL0     C 2545   7.755   5.607   3.838 -0.0612 -0.3930 -0.1495
  744MOL0     C 2546   7.810   5.664   3.709  0.7288 -0.1025  0.5142
  744MOL0     C 2547   7.943   5.605   3.666  0.4322  0.5708 -0.5777
  744MOL0     C 2548   7.988   5.664   3.538  0.4276 -0.3072  0.7422
  744MOL0     C 2549   7.947   5.583   3.424  0.6984  0.6317 -0.1468
  744MOL0     C 2550   8.028   5.602   3.296  0.5615 -0.3256  0.8780
  744MOL0     N 2551   8.163   5.557   3.301 -0.1571 -0.0524 -0.0535
  744MOL0     C 2552   8.210   5.437   3.360 -1.1066  0.2920  0.1624
  744MOL0     C 2553   8.344   5.436   3.322  0.3798  0.3146 -0.3889
  744MOL0     C 2554   8.458   5.346   3.373  0.1318 -0.8147  0.9446
  744MOL0     C 2555   8.483   5.217   3.296 -0.4522  0.5665 -0.1420
  744MOL0     C 2556   8.593   5.130   3.363  0.0207  0.1149  0.3813
  744MOL0     C 2557   8.656   5.038   3.260 -0.9768  0.9890  0.1565
  744MOL0     O 2558   8.773   4.969   3.320  0.3342 -0.2221  0.1257
  744MOL0     C 2559   8.764   4.839   3.371 -0.0847 -0.0661 -0.4079
  744MOL0     C 2560   8.893   4.781   3.381 -0.1352  0.1870  1.0784
  744MOL0     C 2561   8.909   4.642   3.400 -0.2211 -0.9554  0.5225
  744MOL0     C 2562   9.051   4.604   3.402  0.8717  0.0274 -0.5249
  744MOL0     C 2563   8.800   4.562   3.415 -0.3699 -0.2781 -0.1396
  744MOL0     C 2564   8.807   4.415   3.441 -1.0483 -0.0232  0.1110
  744MOL0     O 2565   8.684   4.346   3.421  0.1452 -0.2517 -0.8396
  744MOL0     C 2566   8.666   4.223   3.470 -0.1047  0.7890 -0.5184
  744MOL0     C 2567   8.629   4.128   3.377 -0.3212  0.3175  0.8909
  744MOL0     C 2568   8.614   3.996   3.423  0.4354 -0.6314  1.2822
  744MOL0     C 2569   8.644   3.958   3.553 -0.0150  0.4532 -0.7182
  744MOL0     O 2570   8.617   3.827   3.588  1.1631 -0.2389  0.3736
  744MOL0     C 2571   8.641   3.721   3.501 -0.2026  1.3595 -0.1118
  744MOL0     C 2572   8.689   3.597   3.571 -1.1912  0.1195  0.1058
  744MOL0     C 2573   8.592   3.546   3.691 -0.2893  0.0300  0.3324
  744MOL0     C 2574   8.482   3.469   3.617  0.8751 -0.0245 -0.4293
  744MOL0     C 2575   8.376   3.423   3.713 -0.5359 -0.5529  1.1138
  744MOL0     C 2576   8.262   3.350   3.636 -0.5716  0.0787 -0.0052
  744MOL0     C 2577   8.153   3.324   3.734  0.5344 -0.3882  0.3337
  744MOL0     C 2578   8.195   3.231   3.844  0.2949  1.5666 -0.1792
  744MOL0    Cl 2579   8.043   3.186   3.932  0.6481 -0.0060 -0.3100
  744MOL0     C 2580   8.693   4.057   3.643 -0.3410  0.0299  0.1579
  744MOL0     C 2581   8.698   4.186   3.599  0.2047 -0.7559 -0.6883
  744MOL0     O 2582   8.901   4.364   3.499 -0.1647 -0.2055  0.6059
  744MOL0     C 2583   8.670   4.625   3.411  0.8918  0.3683 -0.1662
  744MOL0     C 2584   8.646   4.760   3.393 -0.4553  0.5727 -0.7557
  744MOL0     N 2585   8.364   5.538   3.247 -0.5736  0.3186  0.2223
  744MOL0     N 2586   8.264   5.611   3.231 -0.0870 -0.0323  0.9403
  744MOL0     C 2587   7.586   5.874   4.260 -0.2703  0.1899 -0.3486
  744MOL0     C 2588   7.620   5.948   4.366 -0.3775 -0.2008  0.3360
  744MOL0     C 2589   7.813   6.249   4.424  0.2033 -0.5272 -0.1912
  744MOL0     C 2590   7.932   6.255   4.345 -0.3613 -0.0097 -0.2523
  744MOL0     C 2591   7.940   6.336   4.233  0.0563  0.0077 -0.0844
  744MOL0     C 2592   7.825   6.413   4.184 -0.3675 -0.0069 -0.9947
  744MOL0     O 2593   7.837   6.482   4.063  0.1604  0.5184  0.1315
  744MOL0     C 2594   7.718   6.527   3.991  0.1283 -0.4032 -0.0690
  744MOL0     C 2595   7.687   6.673   4.042 -0.3500 -1.0253  0.2231
  744MOL0     C 2596   7.551   6.727   3.985 -0.2907 -0.4548 -0.3295
  744MOL0     C 2597   7.522   6.878   4.025  0.9090  0.1447 -0.3196
  744MOL0     C 2598   7.404   6.930   3.953 -0.3840 -0.2461  0.4338
  744MOL0     C 2599   7.303   6.968   3.904  0.3884 -0.2204  0.3207
  744MOL0     C 2600   7.701   6.400   4.263 -0.5580 -0.1501  1.4454
  744MOL0     C 2601   7.701   6.323   4.377  0.8715  0.6467 -0.4563
  744MOL0     C 2602   7.568   6.329   4.454 -0.9264 -0.3054  0.0894
  744MOL0     H 2603   7.960   5.947   4.335 -0.0845 -1.1806  2.8586
  744MOL0     H 2604   7.890   5.808   4.140  0.9784 -1.0412  2.0450
  744MOL0     H 2605   7.678   5.846   3.908  1.5259 -3.3991 -2.9783
  744MOL0     H 2606   7.514   5.816   3.976 -1.1203 -0.0900 -4.7901
  744MOL0     H 2607   7.562   5.569   3.928  0.9395  0.7615  1.7402
  744MOL0     H 2608   7.551   5.670   3.781  1.1371  3.5874  0.5924
  744MOL0     H 2609   7.812   5.628   3.929 -1.4755 -2.3814  1.3073
  744MOL0     H 2610   7.767   5.501   3.814  1.3523 -0.3076  0.1263
  744MOL0     H 2611   7.743   5.649   3.624  0.0326  1.6235  0.7256
  744MOL0     H 2612   7.813   5.772   3.725 -3.0065  0.3613 -0.9159
  744MOL0     H 2613   7.926   5.497   3.664  0.0462  0.6130  0.2199
  744MOL0     H 2614   8.014   5.625   3.746  1.0128  1.6899 -1.3556
  744MOL0     H 2615   7.955   5.769   3.536 -2.3148 -1.0480  2.4830
  744MOL0     H 2616   8.097   5.668   3.535  0.3899  0.6544 -1.1464
  744MOL0     H 2617   7.842   5.599   3.397  0.3960 -1.8239 -0.6383
  744MOL0     H 2618   7.956   5.480   3.458  1.9036  0.7183 -0.1765
  744MOL0     H 2619   7.983   5.541   3.217  0.8233 -0.1478  0.5890
  744MOL0     H 2620   8.021   5.709   3.272 -0.3945 -0.5002  0.3280
  744MOL0     H 2621   8.169   5.358   3.422 -3.8188  0.4906 -1.2498
  744MOL0     H 2622   8.436   5.333   3.479 -2.6404  0.3112  0.6027
  744MOL0     H 2623   8.552   5.402   3.364  1.4213 -2.9192  0.5771
  744MOL0     H 2624   8.389   5.165   3.274 -0.8982  0.9241  0.9055
  744MOL0     H 2625   8.527   5.247   3.200  1.2757 -0.1340  0.3941
  744MOL0     H 2626   8.670   5.201   3.395 -1.9222  0.4143  5.2856
  744MOL0     H 2627   8.542   5.082   3.447 -4.2747  1.3872 -1.2035
  744MOL0     H 2628   8.589   4.959   3.225 -0.3945  0.6944 -0.3081
  744MOL0     H 2629   8.698   5.086   3.171 -2.1970 -0.2422 -1.1300
  744MOL0     H 2630   8.973   4.847   3.351  0.6806 -0.3186  2.0684
  744MOL0     H 2631   9.063   4.514   3.340 -0.2389 -1.0844  0.8143
  744MOL0     H 2632   9.079   4.582   3.505 -1.0897 -1.1301 -0.1967
  744MOL0     H 2633   9.115   4.687   3.369  1.1801 -1.1789 -3.2738
  744MOL0     H 2634   8.614   4.168   3.277  1.5631 -0.3720  0.2862
  744MOL0     H 2635   8.571   3.920   3.358 -2.5758  0.1233  2.2118
  744MOL0     H 2636   8.551   3.689   3.447 -0.4271  0.9268  0.4986
  744MOL0     H 2637   8.728   3.743   3.440 -0.1924 -1.1673 -1.1446
  744MOL0     H 2638   8.712   3.519   3.498  1.1338 -1.9866  2.8408
  744MOL0     H 2639   8.786   3.607   3.620 -1.8185 -4.5085  2.8956
  744MOL0     H 2640   8.553   3.634   3.742 -3.2872 -0.2478 -1.2267
  744MOL0     H 2641   8.635   3.476   3.763  0.9475 -0.7654 -1.1222
  744MOL0     H 2642   8.529   3.374   3.592 -1.0225 -1.0373 -0.3375
  744MOL0     H 2643   8.435   3.514   3.529 -1.0929  1.7137  1.3954
  744MOL0     H 2644   8.422   3.366   3.794  1.0331 -0.5725  0.2428
  744MOL0     H 2645   8.327   3.515   3.749  3.7091  3.4293 -2.0067
  744MOL0     H 2646   8.289   3.253   3.593 -1.7001  0.0580 -0.7019
  744MOL0     H 2647   8.226   3.407   3.550  2.9969 -2.3725 -3.4925
  744MOL0     H 2648   8.084   3.270   3.668  0.6472  0.0450 -0.1405
  744MOL0     H 2649   8.090   3.407   3.766 -1.1641 -0.5126 -2.3804
  744MOL0     H 2650   8.257   3.282   3.919 -1.1875  2.6967  0.3370
  744MOL0     H 2651   8.257   3.154   3.798  2.0571  2.4643  0.5748
  744MOL0     H 2652   8.698   4.034   3.749 -2.6390 -3.5124 -0.3333
  744MOL0     H 2653   8.743   4.256   3.669  0.3389 -0.2725 -1.2527
  744MOL0     H 2654   8.585   4.561   3.430  0.2710 -0.0182 -3.5807
  744MOL0     H 2655   8.542   4.790   3.384 -1.0082 -0.9377  0.1652
  744MOL0     H 2656   7.482   5.862   4.235 -0.1649  0.1650 -0.7818
  744MOL0     H 2657   7.540   5.995   4.422 -0.8198  0.8978 -1.1374
  744MOL0     H 2658   8.016   6.194   4.377  1.6580  2.5849 -0.2962
  744MOL0     H 2659   8.034   6.336   4.179  0.4266 -2.3582  0.4404
  744MOL0     H 2660   7.726   6.529   3.882 -1.6622  0.6848 -0.2123
  744MOL0     H 2661   7.630   6.468   4.015  0.0690 -2.0093 -3.6502
  744MOL0     H 2662   7.763   6.740   4.001 -0.9673 -0.7764 -0.5344
  744MOL0     H 2663   7.699   6.678   4.151 -0.0899  0.0635  0.1569
  744MOL0     H 2664   7.556   6.723   3.876  2.7850 -0.1739 -0.2799
  744MOL0     H 2665   7.469   6.670   4.030 -0.1241 -0.8381 -0.5136
  744MOL0     H 2666   7.609   6.938   3.999  2.1432 -0.4115  2.1789
  744MOL0     H 2667   7.519   6.886   4.135  4.4995  1.4810 -0.1888
  744MOL0     H 2668   7.218   6.999   3.847  0.6659 -1.1055 -0.6150
  744MOL0     H 2669   7.608   6.444   4.229  0.7046  2.9522  1.6562
  744MOL0     H 2670   7.552   6.244   4.522 -3.7392  0.5606  0.6431
  744MOL0     H 2671   7.563   6.428   4.501  1.1947  1.3803 -2.8814
  744MOL0     H 2672   7.480   6.304   4.394  0.5717 -2.7304 -1.2807
  745MOL0     O 2673   7.103   7.053   5.952 -0.0871 -0.0273 -0.3099
  745MOL0     C 2674   7.027   7.024   5.865  0.1814 -0.5813  0.0287
  745MOL0     O 2675   7.067   6.969   5.746  0.0311 -0.0738 -0.2911
  745MOL0     C 2676   7.174   6.894   5.716 -0.5207  0.2031  0.2174
  745MOL0     C 2677   7.181   6.853   5.578  0.0100 -0.0425  0.3780
  745MOL0     C 2678   7.296   6.782   5.531 -0.3273  0.8965 -0.1796
  745MOL0     C 2679   7.393   6.741   5.617  0.1965 -0.2766 -1.2563
  745MOL0     O 2680   7.501   6.677   5.568  0.0618  0.8068  1.1004
  745MOL0     C 2681   7.622   6.655   5.648  0.1199 -0.0296 -0.0634
  745MOL0     C 2682   7.740   6.639   5.552  0.0638 -0.1593 -0.1649
  745MOL0     C 2683   7.726   6.514   5.464  0.4604  1.1407  0.2233
  745MOL0     C 2684   7.837   6.528   5.360  0.2569 -0.1259 -0.3163
  745MOL0     C 2685   7.845   6.380   5.309 -0.2187 -0.5113  0.0117
  745MOL0     C 2686   7.940   6.372   5.186  0.0794  0.4979  0.0333
  745MOL0     C 2687   7.943   6.225   5.131  0.5484  0.3786  0.5951
  745MOL0     C 2688   8.021   6.205   5.000  0.8315 -0.0163  0.0213
  745MOL0     N 2689   8.009   6.064   4.967 -0.6286 -1.0615 -0.3349
  745MOL0     C 2690   7.907   6.003   4.892 -0.2647  0.7265 -0.6749
  745MOL0     C 2691   7.941   5.867   4.907  0.3501 -0.3678 -0.6134
  745MOL0     C 2692   7.868   5.740   4.881 -0.1913 -0.2552 -0.3010
  745MOL0     C 2693   7.888   5.711   4.734 -0.4308 -0.4410  0.0618
  745MOL0     C 2694   7.859   5.554   4.701 -0.7575 -0.0517 -0.0180
  745MOL0     C 2695   7.918   5.519   4.563 -0.2452  0.0170  0.0166
  745MOL0     O 2696   8.004   5.404   4.562 -0.8560  0.2815 -0.0850
  745MOL0     C 2697   7.947   5.288   4.600 -0.3260 -0.3712  0.6530
  745MOL0     C 2698   8.040   5.190   4.611 -0.7570 -0.3805 -0.8333
  745MOL0     C 2699   8.011   5.061   4.657 -0.0662  0.2860  0.9102
  745MOL0     C 2700   8.135   4.964   4.680  0.4643  0.7846 -0.2688
  745MOL0     C 2701   7.868   5.023   4.682 -0.1501 -0.4782  0.2411
  745MOL0     C 2702   7.819   4.885   4.722  0.9074 -0.3661 -0.0790
  745MOL0     O 2703   7.681   4.876   4.719  0.1165  0.0233 -0.2024
  745MOL0     C 2704   7.622   4.769   4.784 -0.1269 -0.2188  1.1725
  745MOL0     C 2705   7.563   4.795   4.903  0.0346 -1.3408 -0.5107
  745MOL0     C 2706   7.485   4.692   4.966  0.1588 -0.6725 -0.0557
  745MOL0     C 2707   7.459   4.569   4.900  0.2349 -0.0991 -0.7352
  745MOL0     O 2708   7.384   4.483   4.979 -0.3507  0.1704 -0.3153
  745MOL0     C 2709   7.430   4.351   4.988  0.0139  0.1802 -0.2527
  745MOL0     C 2710   7.320   4.260   5.054 -0.8332  0.1566  0.1012
  745MOL0     C 2711   7.362   4.115   5.088  0.1033 -0.9001  0.5731
  745MOL0     C 2712   7.477   4.103   5.193  0.9868  0.2589  0.3336
  745MOL0     C 2713   7.579   3.996   5.151  0.4197 -0.2479 -0.7981
  745MOL0     C 2714   7.520   3.848   5.134  0.7357 -0.0037 -0.2536
  745MOL0     C 2715   7.626   3.742   5.083 -0.5966 -0.2765  0.2815
  745MOL0     C 2716   7.565   3.612   5.062 -0.4154  0.2352  0.2959
  745MOL0    Cl 2717   7.681   3.479   5.072 -0.1249 -0.4849  0.0833
  745MOL0     C 2718   7.529   4.542   4.782 -0.0599 -0.4635  0.0520
  745MOL0     C 2719   7.611   4.639   4.725  0.0422 -0.0402  1.0397
  745MOL0     O 2720   7.893   4.801   4.767  0.2732  0.2044  0.0747
  745MOL0     C 2721   7.775   5.138   4.682 -0.8166 -0.2617 -0.1816
  745MOL0     C 2722   7.814   5.262   4.636 -0.6658 -0.4535  0.3629
  745MOL0     N 2723   8.056   5.857   4.983  0.4404  0.7829 -0.8062
  745MOL0     N 2724   8.103   5.974   5.013 -0.4802 -0.1930 -1.0702
  745MOL0     C 2725   7.378   6.772   5.755 -0.0431 -0.1478  0.2377
  745MOL0     C 2726   7.265   6.841   5.801 -0.7702  0.5774 -0.0940
  745MOL0     C 2727   6.882   7.069   5.869  0.6945  0.9756  0.5197
  745MOL0     C 2728   6.792   7.017   5.778  0.3827  1.0127 -0.2536
  745MOL0     C 2729   6.660   7.055   5.770  0.8093 -0.2371  0.1305
  745MOL0     C 2730   6.611   7.161   5.849  0.4876  0.5259 -0.4300
  745MOL0     O 2731   6.487   7.210   5.820  0.0287 -0.6342  0.2777
  745MOL0     C 2732   6.431   7.322   5.892 -0.9070 -0.1914  0.1260
  745MOL0     C 2733   6.332   7.393   5.801 -0.0008  0.3867  0.7669
  745MOL0     C 2734   6.263   7.499   5.894 -0.5575  0.0289 -0.3262
  745MOL0     C 2735   6.136   7.553   5.822  0.2498  0.3372  0.3304
  745MOL0     C 2736   6.087   7.670   5.895  0.3680 -0.2702  1.2488
  745MOL0     C 2737   6.049   7.779   5.939  0.1762  0.2469  0.6338
  745MOL0     C 2738   6.696   7.210   5.955  0.4446 -0.6845 -0.5016
  745MOL0     C 2739   6.827   7.163   5.965 -0.4340  0.6268 -0.0087
  745MOL0     C 2740   6.910   7.228   6.074  0.1504  0.4666 -0.3314
  745MOL0     H 2741   7.093   6.855   5.515  1.4387 -0.2622 -1.7376
  745MOL0     H 2742   7.298   6.748   5.427 -0.4308 -0.2037  0.1626
  745MOL0     H 2743   7.627   6.559   5.701 -0.4866 -0.2445 -0.3897
  745MOL0     H 2744   7.643   6.747   5.703  0.9826  1.1542 -2.2715
  745MOL0     H 2745   7.744   6.728   5.488  5.9939 -0.2749 -0.4926
  745MOL0     H 2746   7.839   6.629   5.597  1.0618  1.2512 -1.9074
  745MOL0     H 2747   7.724   6.423   5.525  0.6892 -0.4441 -2.0104
  745MOL0     H 2748   7.629   6.511   5.414  0.6106 -0.7816 -0.0176
  745MOL0     H 2749   7.806   6.596   5.281  0.3195  0.5542  0.2421
  745MOL0     H 2750   7.917   6.558   5.429  1.3042 -0.8105 -1.2001
  745MOL0     H 2751   7.746   6.341   5.281  0.7219 -0.2394 -4.6206
  745MOL0     H 2752   7.900   6.330   5.389  1.8004 -1.0791 -1.6242
  745MOL0     H 2753   7.904   6.446   5.114 -3.1361  1.1151  2.0539
  745MOL0     H 2754   8.037   6.406   5.221 -0.1866  1.9537 -0.5950
  745MOL0     H 2755   7.840   6.208   5.095  0.2991  2.9583 -0.1168
  745MOL0     H 2756   7.978   6.153   5.205  1.8817 -0.8982 -1.1919
  745MOL0     H 2757   7.968   6.266   4.926 -4.0621  1.7888  4.3946
  745MOL0     H 2758   8.126   6.233   5.017  1.1393  0.2851 -2.1252
  745MOL0     H 2759   7.826   6.047   4.835  0.6367  2.4635 -0.6570
  745MOL0     H 2760   7.765   5.757   4.912 -0.3254  0.1547 -0.9616
  745MOL0     H 2761   7.907   5.660   4.945 -1.9331 -0.8320  0.0929
  745MOL0     H 2762   7.816   5.773   4.681  1.9333  1.6661 -0.9204
  745MOL0     H 2763   7.988   5.742   4.701 -1.6551  4.3221  0.2046
  745MOL0     H 2764   7.898   5.494   4.783  1.7733  2.0418  0.4470
  745MOL0     H 2765   7.750   5.541   4.698 -1.3497  3.7748 -0.9380
  745MOL0     H 2766   7.843   5.520   4.484  1.7557  1.3089 -2.0096
  745MOL0     H 2767   7.980   5.602   4.530  1.0808 -1.8600 -2.5816
  745MOL0     H 2768   8.142   5.216   4.584 -1.0765  3.0760  0.6699
  745MOL0     H 2769   8.219   4.992   4.615  0.2138  2.4668  0.0802
  745MOL0     H 2770   8.111   4.859   4.665 -4.5767  1.8844 -1.9902
  745MOL0     H 2771   8.176   4.977   4.781 -2.6789  1.6814  1.0305
  745MOL0     H 2772   7.562   4.897   4.941 -2.1183 -1.2931 -0.5814
  745MOL0     H 2773   7.433   4.708   5.061  0.0465  0.6617 -0.3205
  745MOL0     H 2774   7.463   4.300   4.897  0.5333 -2.5968  1.3765
  745MOL0     H 2775   7.517   4.342   5.053  2.1316 -2.3246 -3.1467
  745MOL0     H 2776   7.300   4.315   5.147  3.1908 -0.3550  1.4692
  745MOL0     H 2777   7.229   4.271   4.994 -1.3970 -0.7660  0.7593
  745MOL0     H 2778   7.377   4.069   4.990 -0.4677  0.8908 -0.4045
  745MOL0     H 2779   7.275   4.060   5.123  0.5517 -0.7683  1.9593
  745MOL0     H 2780   7.435   4.082   5.292  0.9529  1.9200  0.7004
  745MOL0     H 2781   7.529   4.198   5.204  1.8948 -0.0720 -0.9482
  745MOL0     H 2782   7.609   4.028   5.051  0.9294  1.5542 -0.1176
  745MOL0     H 2783   7.668   3.984   5.214  1.4473 -1.1932 -2.3561
  745MOL0     H 2784   7.438   3.853   5.061  0.1675  0.1412  0.3844
  745MOL0     H 2785   7.474   3.811   5.226 -1.8541 -0.5747 -1.6843
  745MOL0     H 2786   7.712   3.724   5.148  0.2085 -0.4278 -0.8068
  745MOL0     H 2787   7.659   3.779   4.985  1.5045 -0.8438  0.7340
  745MOL0     H 2788   7.511   3.613   4.966 -0.5598  1.6181  0.3727
  745MOL0     H 2789   7.502   3.597   5.150  0.4413 -1.0229  0.7105
  745MOL0     H 2790   7.534   4.451   4.724 -0.8724  0.9212 -2.3256
  745MOL0     H 2791   7.667   4.625   4.633  1.4710 -1.2417  2.0478
  745MOL0     H 2792   7.679   5.128   4.731 -0.0663 -0.1780  1.3862
  745MOL0     H 2793   7.730   5.328   4.617 -1.7222 -2.2868 -1.9029
  745MOL0     H 2794   7.453   6.735   5.824  2.6690  5.2797  0.6879
  745MOL0     H 2795   7.265   6.849   5.909  0.3353 -1.7641  0.1597
  745MOL0     H 2796   6.821   6.942   5.705  3.8051 -0.2014  2.0786
  745MOL0     H 2797   6.584   7.004   5.714  0.5821 -1.6648  1.6671
  745MOL0     H 2798   6.378   7.286   5.981 -3.0839  0.9565 -0.6479
  745MOL0     H 2799   6.512   7.384   5.930 -0.1297 -1.4504  0.6056
  745MOL0     H 2800   6.263   7.312   5.775 -0.3510 -0.3644  3.7207
  745MOL0     H 2801   6.372   7.433   5.707  3.3299 -3.8119  0.1069
  745MOL0     H 2802   6.234   7.441   5.983  0.0332 -1.4994 -1.0948
  745MOL0     H 2803   6.332   7.575   5.931 -0.4573 -1.1190  2.1085
  745MOL0     H 2804   6.058   7.477   5.823  0.3557  0.2241  0.1380
  745MOL0     H 2805   6.170   7.574   5.720  0.6748 -0.1600  0.3648
  745MOL0     H 2806   6.013   7.867   5.989 -2.1915  0.7827 -1.7863
  745MOL0     H 2807   6.650   7.294   6.007  0.4050  0.5624 -2.4609
  745MOL0     H 2808   6.927   7.156   6.154 -1.1902  0.7144  0.1847
  745MOL0     H 2809   7.008   7.259   6.035  0.1376  0.5624 -0.2886
  745MOL0     H 2810   6.869   7.311   6.132  0.8912  1.1956 -0.8065
  746MOL0     O 2811   2.126   1.421   2.215  0.2737 -0.0093  0.1331
  746MOL0     C 2812   2.244   1.447   2.221  0.5545  0.3285  0.8943
  746MOL0     O 2813   2.310   1.471   2.343  0.3039  0.0841 -0.2320
  746MOL0     C 2814   2.241   1.429   2.459  0.6767 -0.2219  0.9766
  746MOL0     C 2815   2.151   1.329   2.477 -0.3539  0.7890  0.9481
  746MOL0     C 2816   2.079   1.302   2.594  0.4552 -0.0024 -0.5767
  746MOL0     C 2817   2.117   1.367   2.706  0.8511  0.5462 -0.7265
  746MOL0     O 2818   2.061   1.338   2.821 -0.3970  0.5548 -0.2132
  746MOL0     C 2819   2.068   1.201   2.870  0.1209 -0.6991  0.4339
  746MOL0     C 2820   1.985   1.192   3.001  0.3356  0.6431  0.1429
  746MOL0     C 2821   2.002   1.062   3.063  0.3119 -0.2237 -0.5071
  746MOL0     C 2822   1.949   1.047   3.200  0.3614 -0.4886 -0.2281
  746MOL0     C 2823   1.797   1.004   3.201 -0.2580  0.5523 -0.3978
  746MOL0     C 2824   1.747   1.016   3.341  0.4183 -0.2426  0.0088
  746MOL0     C 2825   1.808   0.936   3.456 -0.3592  0.3759  0.7561
  746MOL0     C 2826   1.723   0.939   3.586  0.3295  0.4915  0.8464
  746MOL0     N 2827   1.705   1.084   3.636  0.1077  0.5357 -0.0688
  746MOL0     C 2828   1.790   1.182   3.612  0.5081 -0.3946  1.0680
  746MOL0     C 2829   1.740   1.291   3.672  0.2647 -0.3187  0.5250
  746MOL0     C 2830   1.820   1.429   3.665  0.1368 -0.0170 -0.1698
  746MOL0     C 2831   1.879   1.464   3.526 -0.4033 -0.1924  0.5330
  746MOL0     C 2832   1.764   1.474   3.425  0.8042  0.0833 -0.1501
  746MOL0     C 2833   1.794   1.542   3.295  0.1851  0.0282 -0.2589
  746MOL0     O 2834   1.917   1.485   3.242  0.0537 -0.8679  0.0366
  746MOL0     C 2835   1.996   1.567   3.169  0.5106  0.1157  0.1468
  746MOL0     C 2836   2.070   1.664   3.236 -0.8471 -0.1056 -0.3662
  746MOL0     C 2837   2.147   1.762   3.170 -1.2941  0.3228 -0.2605
  746MOL0     C 2838   2.231   1.859   3.249  0.0695  0.4848 -0.1131
  746MOL0     C 2839   2.152   1.758   3.022  0.2513  0.1413  0.3730
  746MOL0     C 2840   2.216   1.859   2.941  0.9672 -0.1280  0.6143
  746MOL0     O 2841   2.341   1.901   2.964 -0.2508 -0.0846  0.9061
  746MOL0     C 2842   2.385   2.011   2.890  0.4554  0.9607 -0.4426
  746MOL0     C 2843   2.321   2.135   2.908  0.2454 -0.7115  0.3679
  746MOL0     C 2844   2.363   2.245   2.830 -0.4702  0.3126  0.6357
  746MOL0     C 2845   2.477   2.228   2.739 -0.5140 -0.2223 -0.0393
  746MOL0     O 2846   2.542   2.321   2.661 -1.5266 -0.5715  0.0814
  746MOL0     C 2847   2.493   2.455   2.661 -0.1299 -0.6093  0.1864
  746MOL0     C 2848   2.549   2.544   2.549  0.2991  0.3675  0.2165
  746MOL0     C 2849   2.468   2.676   2.561 -0.2624  0.8678  0.0303
  746MOL0     C 2850   2.535   2.793   2.485 -0.8508 -0.4341  0.1993
  746MOL0     C 2851   2.419   2.880   2.429  0.5794  0.9414 -0.2037
  746MOL0     C 2852   2.463   3.021   2.396 -0.0278 -0.2886  0.0245
  746MOL0     C 2853   2.495   3.111   2.517  0.6240 -0.9139 -0.0648
  746MOL0     C 2854   2.477   3.252   2.460 -0.1908  0.5336  0.8480
  746MOL0    Cl 2855   2.589   3.358   2.560  0.2043  0.0331 -0.2300
  746MOL0     C 2856   2.533   2.102   2.715  0.6126  0.4335 -0.1302
  746MOL0     C 2857   2.489   1.993   2.798  0.3286  0.3301 -0.3889
  746MOL0     O 2858   2.160   1.874   2.829 -0.1381 -0.5850  0.9741
  746MOL0     C 2859   2.059   1.666   2.960  1.0076 -0.2226  0.0202
  746MOL0     C 2860   1.990   1.571   3.030  1.3059  0.7312  0.1008
  746MOL0     N 2861   1.623   1.259   3.743  0.7814 -0.3179  0.8228
  746MOL0     N 2862   1.606   1.131   3.709 -0.3857  0.1654  0.0103
  746MOL0     C 2863   2.215   1.466   2.690  0.2014 -0.1983 -1.5284
  746MOL0     C 2864   2.279   1.490   2.571  0.2457  0.1105  0.3503
  746MOL0     C 2865   2.308   1.462   2.093  0.2494 -1.0509 -0.6304
  746MOL0     C 2866   2.265   1.381   1.987 -0.1959 -0.7581  0.3432
  746MOL0     C 2867   2.318   1.392   1.858  0.4435 -0.4941  0.2765
  746MOL0     C 2868   2.426   1.483   1.836  0.1978 -0.1616  0.3669
  746MOL0     O 2869   2.481   1.493   1.713 -0.0816  0.8147 -0.4403
  746MOL0     C 2870   2.619   1.452   1.702 -0.3367 -0.4308 -0.4577
  746MOL0     C 2871   2.621   1.297   1.685 -0.0855 -0.1507 -0.9495
  746MOL0     C 2872   2.548   1.238   1.557  0.1164 -0.5423  0.0349
  746MOL0     C 2873   2.610   1.290   1.426  0.3221  1.1086  0.0905
  746MOL0     C 2874   2.744   1.237   1.401 -0.4966  0.0957  0.0458
  746MOL0     C 2875   2.856   1.193   1.391  0.6186  1.3700  0.1861
  746MOL0     C 2876   2.471   1.560   1.946 -0.5644  0.1852 -0.9285
  746MOL0     C 2877   2.408   1.564   2.068 -0.2805  0.0487  0.6133
  746MOL0     C 2878   2.442   1.675   2.170  1.2518  0.2744 -0.0178
  746MOL0     H 2879   2.127   1.260   2.396  0.2907 -1.7525  2.8083
  746MOL0     H 2880   2.000   1.228   2.605  1.1275 -0.6427  0.0543
  746MOL0     H 2881   2.172   1.173   2.889  0.3419  0.0831  0.4050
  746MOL0     H 2882   2.025   1.134   2.795 -0.3324  3.4900 -3.4715
  746MOL0     H 2883   2.029   1.268   3.067  2.1394 -0.1329 -0.1041
  746MOL0     H 2884   1.878   1.209   2.985  0.4789  1.0635 -0.4231
  746MOL0     H 2885   1.953   0.990   2.998 -0.9817 -0.2394  0.4549
  746MOL0     H 2886   2.105   1.025   3.074 -0.2184 -1.7427 -0.4501
  746MOL0     H 2887   2.015   0.982   3.259  4.6472  1.6692 -2.1664
  746MOL0     H 2888   1.955   1.143   3.252 -1.2990 -0.7427  0.4971
  746MOL0     H 2889   1.775   0.903   3.167  0.9186  0.3312 -0.5505
  746MOL0     H 2890   1.756   1.073   3.127  1.3581 -0.3626 -2.2364
  746MOL0     H 2891   1.752   1.122   3.366 -0.2780  0.6119 -3.0555
  746MOL0     H 2892   1.642   0.987   3.335 -0.4948  2.8675 -4.7224
  746MOL0     H 2893   1.914   0.960   3.466 -0.7415  1.7295  1.9494
  746MOL0     H 2894   1.818   0.831   3.425  1.9092  1.2639 -1.8672
  746MOL0     H 2895   1.628   0.895   3.556  1.7983 -0.7226 -2.5531
  746MOL0     H 2896   1.772   0.871   3.656  0.9827  1.1796  1.0702
  746MOL0     H 2897   1.878   1.172   3.550 -1.4698  0.5181 -2.1343
  746MOL0     H 2898   1.894   1.431   3.744 -2.5408 -0.2954  2.5215
  746MOL0     H 2899   1.748   1.506   3.693 -0.5958 -1.4350  2.1263
  746MOL0     H 2900   1.917   1.566   3.533 -0.3789 -0.2374  1.1440
  746MOL0     H 2901   1.952   1.394   3.484 -0.4362 -0.0330  0.2068
  746MOL0     H 2902   1.747   1.369   3.401 -0.1794  0.2739 -0.3501
  746MOL0     H 2903   1.673   1.518   3.468 -0.5393 -0.7913 -1.9550
  746MOL0     H 2904   1.718   1.517   3.220  1.1370 -0.1933 -1.1619
  746MOL0     H 2905   1.791   1.649   3.319  1.0467  0.2154 -0.9418
  746MOL0     H 2906   2.065   1.676   3.343  0.3747  0.4059 -0.3521
  746MOL0     H 2907   2.331   1.871   3.205  0.1755 -3.2389 -1.1652
  746MOL0     H 2908   2.240   1.837   3.356 -2.2645 -3.4491 -0.5724
  746MOL0     H 2909   2.181   1.956   3.243  0.6449  0.9583  1.9846
  746MOL0     H 2910   2.233   2.129   2.971 -0.9492 -1.7042 -1.3269
  746MOL0     H 2911   2.315   2.342   2.834 -1.9280 -0.3293 -0.3410
  746MOL0     H 2912   2.384   2.456   2.651 -0.0757 -3.7056 -1.8997
  746MOL0     H 2913   2.519   2.490   2.762  0.3119 -0.4591  0.0231
  746MOL0     H 2914   2.655   2.548   2.574  0.1921  1.4050  0.5591
  746MOL0     H 2915   2.536   2.493   2.453 -0.5028  1.9536 -0.5394
  746MOL0     H 2916   2.442   2.680   2.668 -4.1339 -3.1331 -0.4683
  746MOL0     H 2917   2.374   2.656   2.510  0.3159 -2.2097 -0.0162
  746MOL0     H 2918   2.594   2.754   2.401  3.0515  0.8633  2.0983
  746MOL0     H 2919   2.591   2.867   2.543  0.9710 -0.0839 -1.8999
  746MOL0     H 2920   2.375   2.831   2.341  2.3102 -0.6094 -0.2837
  746MOL0     H 2921   2.342   2.892   2.506  1.5713  1.0740  0.8010
  746MOL0     H 2922   2.381   3.058   2.335 -2.4529 -0.0237  3.1971
  746MOL0     H 2923   2.554   3.014   2.336  0.5416 -0.5663  0.9024
  746MOL0     H 2924   2.599   3.090   2.546  0.4633 -0.6034  0.7748
  746MOL0     H 2925   2.438   3.097   2.609 -2.2211  0.3197 -1.5105
  746MOL0     H 2926   2.371   3.276   2.464 -0.6337  0.5791 -4.2534
  746MOL0     H 2927   2.510   3.264   2.356  1.0010 -0.3584  1.0978
  746MOL0     H 2928   2.612   2.088   2.641 -0.7379  1.4340 -1.8231
  746MOL0     H 2929   2.539   1.897   2.796  0.6581  0.4891  0.1066
  746MOL0     H 2930   2.064   1.656   2.852 -0.2925 -3.7558  0.1805
  746MOL0     H 2931   1.914   1.513   2.980  0.8786  1.8222 -0.5679
  746MOL0     H 2932   2.233   1.516   2.784 -2.0817 -1.8713 -0.0945
  746MOL0     H 2933   2.354   1.568   2.572 -0.7234  1.1094  2.7414
  746MOL0     H 2934   2.194   1.301   2.004  1.1543 -2.7618 -2.6194
  746MOL0     H 2935   2.282   1.321   1.785 -0.4590 -1.5786  1.7420
  746MOL0     H 2936   2.651   1.498   1.608 -1.4833  5.3161  1.5192
  746MOL0     H 2937   2.693   1.496   1.770 -0.3288  2.6066 -2.2738
  746MOL0     H 2938   2.576   1.274   1.782 -1.7904 -0.7342 -1.8360
  746MOL0     H 2939   2.725   1.264   1.679  1.3526  3.8570 -1.0427
  746MOL0     H 2940   2.553   1.129   1.563  3.1396 -0.4500  1.0710
  746MOL0     H 2941   2.445   1.269   1.573  0.1888  0.1796 -0.8333
  746MOL0     H 2942   2.601   1.399   1.426  0.4712  1.1258 -0.5669
  746MOL0     H 2943   2.556   1.240   1.344 -1.1239 -1.8653  2.6209
  746MOL0     H 2944   2.961   1.171   1.387  0.4973  0.8587 -0.3015
  746MOL0     H 2945   2.558   1.621   1.925 -0.9561  1.1220  0.0339
  746MOL0     H 2946   2.468   1.646   2.272 -1.2293  0.2011  0.6715
  746MOL0     H 2947   2.518   1.739   2.124  1.9724 -0.6408 -0.1338
  746MOL0     H 2948   2.355   1.742   2.175 -0.4862 -1.8465 -0.2304
  747MOL0     O 2949   0.031  11.424   1.549  0.9288  0.4559  0.3385
  747MOL0     C 2950   0.129  11.359   1.605 -0.3629  0.8738 -0.4405
  747MOL0     O 2951   0.115  11.258   1.696 -0.1115  0.3070 -0.0925
  747MOL0     C 2952  -0.016  11.226   1.726  0.0550 -0.4755  0.1688
  747MOL0     C 2953  -0.063  11.236   1.857  0.2858 -0.8440  0.0320
  747MOL0     C 2954  -0.193  11.196   1.899 -0.0914  0.3023  0.2192
  747MOL0     C 2955  -0.274  11.129   1.801  0.0143 -0.4871 -0.1787
  747MOL0     O 2956  -0.402  11.084   1.824 -0.5126 -0.8486  0.7899
  747MOL0     C 2957  -0.462  11.123   1.950  0.6879 -0.6973 -0.0391
  747MOL0     C 2958  -0.612  11.095   1.955  0.4440 -0.8949 -0.0785
  747MOL0     C 2959  -0.708  11.177   1.873 -0.2155 -0.4562  0.4579
  747MOL0     C 2960  -0.669  11.203   1.731  0.5552 -1.2137  0.1706
  747MOL0     C 2961  -0.683  11.097   1.618  0.6922  0.3500  0.1463
  747MOL0     C 2962  -0.652  11.159   1.484  0.2078 -0.4946  0.6766
  747MOL0     C 2963  -0.764  11.266   1.443  0.1157  0.2184 -0.2454
  747MOL0     C 2964  -0.737  11.315   1.295  0.8662 -0.2531 -0.2353
  747MOL0     N 2965  -0.853  11.387   1.236  0.2818  0.4678 -0.4168
  747MOL0     C 2966  -0.978  11.335   1.200 -0.0540  1.3769  0.4083
  747MOL0     C 2967  -1.042  11.436   1.155  0.0198  0.1190  0.6768
  747MOL0     C 2968  -1.193  11.436   1.117  0.6336  0.4206  0.4395
  747MOL0     C 2969  -1.260  11.298   1.104 -0.3535 -0.4052  0.0350
  747MOL0     C 2970  -1.342  11.285   0.972  1.3605 -0.7260  0.1191
  747MOL0     C 2971  -1.462  11.390   0.968  0.4195 -0.3196  0.6061
  747MOL0     O 2972  -1.545  11.365   1.086 -0.5112  0.3641 -0.9525
  747MOL0     C 2973  -1.642  11.465   1.108 -0.5394 -0.3979 -0.5178
  747MOL0     C 2974  -1.682  11.554   1.017 -0.0795 -0.4683  1.2128
  747MOL0     C 2975  -1.789  11.643   1.037  0.5955  0.0638  0.9565
  747MOL0     C 2976  -1.810  11.740   0.918  0.1194  0.3976  0.0339
  747MOL0     C 2977  -1.862  11.641   1.161  0.2120 -0.1267  0.9683
  747MOL0     C 2978  -1.981  11.731   1.184  0.2434  0.2285  0.6617
  747MOL0     O 2979  -2.035  11.809   1.090  0.5810  0.2000  0.4274
  747MOL0     C 2980  -2.111  11.909   1.130 -0.5597 -0.6302  1.0752
  747MOL0     C 2981  -2.213  11.934   1.046  1.4153  0.8578 -0.2841
  747MOL0     C 2982  -2.292  12.052   1.065  0.2682  0.0052  0.2245
  747MOL0     C 2983  -2.270  12.128   1.175  0.0196 -0.6275  0.4326
  747MOL0     O 2984  -2.357  12.227   1.219 -0.4238 -0.0423  0.4914
  747MOL0     C 2985  -2.492  12.181   1.211  0.3633  0.7509 -0.1157
  747MOL0     C 2986  -2.572  12.256   1.313  0.0593 -0.6062  0.6753
  747MOL0     C 2987  -2.594  12.190   1.448  0.6886 -0.2419 -0.5033
  747MOL0     C 2988  -2.709  12.259   1.530 -0.5307 -1.1198  0.1465
  747MOL0     C 2989  -2.760  12.194   1.662 -0.2553  0.4413 -0.0808
  747MOL0     C 2990  -2.815  12.055   1.632 -0.3078  0.6132  0.8912
  747MOL0     C 2991  -2.865  12.001   1.764 -0.3976 -0.4408 -0.3589
  747MOL0     C 2992  -2.931  11.853   1.750  0.4405 -1.2901 -0.2634
  747MOL0    Cl 2993  -2.817  11.748   1.676  0.2643 -0.8276  0.1902
  747MOL0     C 2994  -2.169  12.113   1.260  0.1668 -0.1054 -0.0867
  747MOL0     C 2995  -2.089  12.001   1.247  0.2313  0.6279 -0.4701
  747MOL0     O 2996  -2.031  11.710   1.299 -0.2082  0.6680  0.4858
  747MOL0     C 2997  -1.830  11.540   1.252  0.2518  0.3825 -0.1069
  747MOL0     C 2998  -1.727  11.449   1.222  0.6160 -0.2949 -0.5287
  747MOL0     N 2999  -0.962  11.549   1.151  0.0418 -0.0795  1.3152
  747MOL0     N 3000  -0.850  11.518   1.200  0.0228  0.4781  0.2710
  747MOL0     C 3001  -0.226  11.121   1.675 -0.6361  0.8524  1.4664
  747MOL0     C 3002  -0.100  11.170   1.634 -0.3021  0.1116  0.3528
  747MOL0     C 3003   0.273  11.403   1.592 -0.8666 -0.9641 -0.1938
  747MOL0     C 3004   0.354  11.384   1.706 -0.5822  0.2480 -1.2821
  747MOL0     C 3005   0.495  11.415   1.710  0.7722  0.2920 -0.1070
  747MOL0     C 3006   0.546  11.472   1.596  0.6434 -0.3236 -0.3896
  747MOL0     O 3007   0.675  11.494   1.594  0.3565 -0.4169 -0.6517
  747MOL0     C 3008   0.766  11.489   1.701 -0.2352  0.6578 -0.7132
  747MOL0     C 3009   0.844  11.361   1.686  1.2740  0.9952 -0.2436
  747MOL0     C 3010   0.970  11.352   1.767 -0.3319  0.0448  0.6223
  747MOL0     C 3011   1.093  11.414   1.693 -0.4235 -0.3606 -0.4578
  747MOL0     C 3012   1.081  11.561   1.675  0.5502  0.1689 -0.5156
  747MOL0     C 3013   1.073  11.681   1.650 -0.1261  0.3161 -0.2206
  747MOL0     C 3014   0.472  11.491   1.479  0.0187 -0.9755 -0.0684
  747MOL0     C 3015   0.337  11.457   1.476 -0.1417 -0.3420 -0.5990
  747MOL0     C 3016   0.254  11.479   1.351 -0.4779 -0.6709 -0.4863
  747MOL0     H 3017   0.000  11.264   1.940  0.0114  2.8233 -0.8083
  747MOL0     H 3018  -0.225  11.208   2.002 -2.8818  0.8711 -0.6471
  747MOL0     H 3019  -0.452  11.232   1.959  1.4203 -0.6677 -1.0508
  747MOL0     H 3020  -0.408  11.067   2.026 -0.0071  1.3831  2.1139
  747MOL0     H 3021  -0.646  10.995   1.926 -2.3231  0.5009 -2.2185
  747MOL0     H 3022  -0.645  11.118   2.057 -1.2503 -0.3163 -0.7178
  747MOL0     H 3023  -0.801  11.120   1.875  1.2681 -3.0875 -0.0149
  747MOL0     H 3024  -0.718  11.272   1.927  1.3320  1.1090 -1.7911
  747MOL0     H 3025  -0.744  11.279   1.705  1.0909 -1.6580 -3.1667
  747MOL0     H 3026  -0.574  11.257   1.724 -0.6876  0.9262 -1.7398
  747MOL0     H 3027  -0.783  11.054   1.622  0.3186  1.1600 -0.2959
  747MOL0     H 3028  -0.609  11.022   1.648 -0.6831 -0.4206  1.7003
  747MOL0     H 3029  -0.551  11.201   1.479  0.4348 -0.9584 -4.7624
  747MOL0     H 3030  -0.650  11.075   1.413 -0.6430  1.7258 -2.1691
  747MOL0     H 3031  -0.778  11.350   1.512  1.2322 -2.0755  3.0128
  747MOL0     H 3032  -0.858  11.214   1.459 -1.3888  2.8576  0.0795
  747MOL0     H 3033  -0.645  11.375   1.293  0.0450  1.1695  1.6601
  747MOL0     H 3034  -0.714  11.216   1.255  1.1198  0.2163 -1.2741
  747MOL0     H 3035  -1.011  11.234   1.225  1.5934  0.8725  0.6667
  747MOL0     H 3036  -1.189  11.487   1.020  0.6726  0.5556  0.5118
  747MOL0     H 3037  -1.251  11.501   1.182  2.4946  1.6610  0.9422
  747MOL0     H 3038  -1.191  11.213   1.111  0.1593  0.0973  1.3173
  747MOL0     H 3039  -1.323  11.281   1.192 -4.5737 -0.0241 -2.5932
  747MOL0     H 3040  -1.291  11.306   0.877  0.6151  1.1860  0.0940
  747MOL0     H 3041  -1.389  11.187   0.966 -1.9679  0.5595  2.3479
  747MOL0     H 3042  -1.428  11.494   0.974 -4.0986  1.4745 -0.7369
  747MOL0     H 3043  -1.507  11.378   0.869  0.4509 -0.5649  0.6224
  747MOL0     H 3044  -1.640  11.551   0.918 -0.9010 -0.6577  0.8589
  747MOL0     H 3045  -1.882  11.708   0.843  0.9675  1.9152 -1.4963
  747MOL0     H 3046  -1.714  11.755   0.868  0.0433 -3.5893 -1.6327
  747MOL0     H 3047  -1.834  11.843   0.947  1.1531 -0.0999  3.0960
  747MOL0     H 3048  -2.225  11.875   0.956  2.7561  0.8959 -0.5162
  747MOL0     H 3049  -2.377  12.058   0.999 -0.5879  3.4022  1.4458
  747MOL0     H 3050  -2.525  12.219   1.114 -0.8505  5.5094  1.8826
  747MOL0     H 3051  -2.505  12.073   1.221 -2.2988  0.8655 -1.4923
  747MOL0     H 3052  -2.532  12.357   1.324  1.5950 -1.1828  0.6586
  747MOL0     H 3053  -2.668  12.274   1.265  0.0570  0.5375  1.0837
  747MOL0     H 3054  -2.503  12.208   1.506  1.2307 -2.1646 -0.6710
  747MOL0     H 3055  -2.603  12.081   1.436 -0.0381 -0.6452  2.6446
  747MOL0     H 3056  -2.788  12.277   1.456  1.1338 -1.6000 -1.8583
  747MOL0     H 3057  -2.666  12.358   1.546 -2.4563 -0.4072  1.1758
  747MOL0     H 3058  -2.680  12.183   1.736 -1.0491 -2.0578  0.4986
  747MOL0     H 3059  -2.839  12.265   1.688 -1.1527  0.0158 -1.5361
  747MOL0     H 3060  -2.748  11.982   1.586 -0.5737  0.4744  0.7212
  747MOL0     H 3061  -2.904  12.059   1.568 -0.3707 -0.4170  0.9017
  747MOL0     H 3062  -2.931  12.072   1.814  1.1179 -0.2520  1.4786
  747MOL0     H 3063  -2.781  11.982   1.832 -0.4162 -1.1402 -0.5195
  747MOL0     H 3064  -3.031  11.844   1.707 -0.9117 -3.2363  2.9502
  747MOL0     H 3065  -2.943  11.813   1.851  2.4278 -0.3032  0.4203
  747MOL0     H 3066  -2.161  12.203   1.320 -0.5586  3.1088 -4.3177
  747MOL0     H 3067  -1.995  11.997   1.301  1.5378 -1.7392 -2.6789
  747MOL0     H 3068  -1.887  11.527   1.344  0.1661  1.9175  0.0934
  747MOL0     H 3069  -1.699  11.390   1.309  0.0687 -1.6008 -1.2113
  747MOL0     H 3070  -0.285  11.063   1.605  2.0177 -2.4322  1.6919
  747MOL0     H 3071  -0.062  11.144   1.536 -0.4147 -3.1570  1.0396
  747MOL0     H 3072   0.321  11.335   1.797 -0.7023  0.0960 -1.4053
  747MOL0     H 3073   0.549  11.378   1.796  2.9887  0.2236 -1.4707
  747MOL0     H 3074   0.823  11.582   1.692 -0.6493  0.7745 -2.2202
  747MOL0     H 3075   0.712  11.487   1.796 -0.6595 -0.5255 -0.9642
  747MOL0     H 3076   0.861  11.354   1.578  1.1397 -0.4707 -0.1882
  747MOL0     H 3077   0.779  11.279   1.714  2.5811 -0.2015 -0.5900
  747MOL0     H 3078   0.958  11.410   1.859 -0.8243 -3.8381  3.2726
  747MOL0     H 3079   0.987  11.248   1.797 -0.4459 -0.4794 -0.9977
  747MOL0     H 3080   1.097  11.366   1.595 -4.1968 -1.1977 -0.3864
  747MOL0     H 3081   1.187  11.410   1.749  0.6908  2.8007 -1.9024
  747MOL0     H 3082   1.074  11.786   1.626  0.9204  0.4981  0.5205
  747MOL0     H 3083   0.519  11.540   1.394 -0.4394  2.1008  1.3204
  747MOL0     H 3084   0.175  11.548   1.382  0.3474  0.1095 -0.0723
  747MOL0     H 3085   0.309  11.521   1.267  1.2285  1.1521  1.4175
  747MOL0     H 3086   0.214  11.387   1.309 -2.9739  0.4811 -0.8068
  748MOL0     O 3087  11.103   6.613  10.583 -0.2646 -0.0304  0.2611
  748MOL0     C 3088  11.104   6.650  10.698  0.1465 -0.3738  0.1611
  748MOL0     O 3089  11.144   6.578  10.801  0.4059  0.2895 -0.4050
  748MOL0     C 3090  11.200   6.457  10.776  0.1706  0.4857 -0.5102
  748MOL0     C 3091  11.135   6.337  10.796  0.1914 -0.8154 -0.4087
  748MOL0     C 3092  11.187   6.210  10.764  0.9972  0.0468  0.7449
  748MOL0     C 3093  11.316   6.198  10.709 -0.0358  0.5193  0.8549
  748MOL0     O 3094  11.360   6.067  10.687 -0.6012 -1.1083  0.1538
  748MOL0     C 3095  11.481   6.040  10.614  0.5520  0.1554  0.1568
  748MOL0     C 3096  11.460   6.035  10.462  0.6029  0.1021 -1.1531
  748MOL0     C 3097  11.591   6.011  10.380 -0.1500 -0.0611 -0.9824
  748MOL0     C 3098  11.698   6.112  10.411  0.4699 -0.2356 -0.3096
  748MOL0     C 3099  11.836   6.070  10.357 -0.6270  0.5046  0.1538
  748MOL0     C 3100  11.931   6.182  10.387 -0.3556  0.3777  0.4867
  748MOL0     C 3101  12.069   6.134  10.320  0.2631  0.0477 -0.2763
  748MOL0     C 3102  12.132   6.263  10.264  0.2686 -0.6767  0.1761
  748MOL0     N 3103  12.258   6.224  10.207 -0.2874  0.7172  1.0823
  748MOL0     C 3104  12.371   6.186  10.274 -0.3693 -0.1733 -0.0887
  748MOL0     C 3105  12.469   6.177  10.182 -0.1085  0.5927  0.0018
  748MOL0     C 3106  12.614   6.134  10.193  0.3547 -0.2815  0.4917
  748MOL0     C 3107  12.713   6.256  10.189 -0.3837  0.2203  0.4363
  748MOL0     C 3108  12.854   6.216  10.227  0.1549  0.2491  0.2122
  748MOL0     C 3109  12.911   6.108  10.141 -0.2909  0.1392  0.7823
  748MOL0     O 3110  13.054   6.073  10.166 -0.3770 -0.0223 -0.7012
  748MOL0     C 3111  13.146   6.075  10.070  0.3573  0.5889  0.3463
  748MOL0     C 3112  13.154   6.159   9.959  0.4214  0.4719  0.2980
  748MOL0     C 3113  13.263   6.146   9.862  0.2687 -0.1877  0.1733
  748MOL0     C 3114  13.256   6.234   9.737  0.5060 -0.4135  0.6041
  748MOL0     C 3115  13.368   6.065   9.892  0.4159  0.9948 -0.2587
  748MOL0     C 3116  13.489   6.054   9.816  0.2943 -0.2441 -0.0719
  748MOL0     O 3117  13.603   6.072   9.897 -0.5760 -0.1570 -0.0608
  748MOL0     C 3118  13.722   6.059   9.841 -0.4141 -0.6663 -0.1873
  748MOL0     C 3119  13.775   5.939   9.783  0.1075  0.3261 -0.0852
  748MOL0     C 3120  13.910   5.933   9.749  1.0550  0.3792 -0.5777
  748MOL0     C 3121  13.996   6.045   9.755  1.0290  0.9716  0.6591
  748MOL0     O 3122  14.123   6.021   9.713 -0.7920 -0.1474  0.6421
  748MOL0     C 3123  14.212   6.130   9.745 -0.6036 -0.1601  0.4662
  748MOL0     C 3124  14.340   6.078   9.678  0.1880  0.8888 -0.3186
  748MOL0     C 3125  14.391   5.939   9.739  0.7615  1.2926  0.5783
  748MOL0     C 3126  14.406   5.965   9.889  0.1441  1.0197  0.0059
  748MOL0     C 3127  14.497   5.855   9.942 -0.4297 -0.2441 -0.6696
  748MOL0     C 3128  14.463   5.821  10.090  0.2628  1.1096  0.9173
  748MOL0     C 3129  14.336   5.727  10.091 -0.4235  0.3342 -0.1709
  748MOL0     C 3130  14.298   5.659  10.221 -0.3008 -0.3231  0.0578
  748MOL0    Cl 3131  14.234   5.779  10.336  0.2726 -0.1937 -0.2771
  748MOL0     C 3132  13.940   6.161   9.803  0.6159  0.5146  0.4944
  748MOL0     C 3133  13.812   6.169   9.854 -0.1796 -1.0121 -0.0233
  748MOL0     O 3134  13.489   6.031   9.695 -0.3145 -0.0558 -0.7797
  748MOL0     C 3135  13.368   5.993  10.013 -0.3151 -0.4128 -0.5588
  748MOL0     C 3136  13.249   5.990  10.102 -0.0299 -1.0627  1.1182
  748MOL0     N 3137  12.415   6.201  10.059  0.2289 -0.7725  0.1342
  748MOL0     N 3138  12.287   6.233  10.072 -0.4124  1.2188 -1.1687
  748MOL0     C 3139  11.385   6.322  10.694 -0.5204  0.5036 -1.0352
  748MOL0     C 3140  11.323   6.444  10.719  0.1024 -0.2704 -0.3453
  748MOL0     C 3141  11.017   6.778  10.720  0.3757  0.9636 -0.1966
  748MOL0     C 3142  11.006   6.862  10.600  0.8166 -0.4275  0.7960
  748MOL0     C 3143  10.933   6.981  10.619 -0.3752 -0.7640 -0.8911
  748MOL0     C 3144  10.870   7.010  10.741 -1.2719  0.6053 -0.2661
  748MOL0     O 3145  10.790   7.122  10.751 -0.9103  0.0610  0.1758
  748MOL0     C 3146  10.790   7.231  10.663  0.0245 -0.3785  0.2188
  748MOL0     C 3147  10.686   7.343  10.713  0.5336 -0.2855  0.3051
  748MOL0     C 3148  10.669   7.446  10.607  0.7374  0.2561  0.3079
  748MOL0     C 3149  10.561   7.409  10.494  0.8626  1.0046  0.1943
  748MOL0     C 3150  10.427   7.460  10.509 -0.1536 -0.4659 -0.5388
  748MOL0     C 3151  10.309   7.490  10.514  0.0367 -0.1819 -0.2133
  748MOL0     C 3152  10.868   6.907  10.835 -0.6114  0.5714 -0.2679
  748MOL0     C 3153  10.935   6.784  10.827  0.1133 -0.7799 -0.7765
  748MOL0     C 3154  10.926   6.692  10.941  0.5817 -0.2344 -0.6148
  748MOL0     H 3155  11.029   6.341  10.820  0.4055 -2.7682  1.1867
  748MOL0     H 3156  11.126   6.120  10.768  1.4927 -0.3342  0.0982
  748MOL0     H 3157  11.497   5.936  10.643  0.7868 -0.2610 -1.3650
  748MOL0     H 3158  11.565   6.102  10.648  2.1733 -1.0588 -1.4334
  748MOL0     H 3159  11.387   5.957  10.435  1.6843 -1.4313  0.1536
  748MOL0     H 3160  11.436   6.137  10.431 -0.3755  1.0092  2.1761
  748MOL0     H 3161  11.626   5.908  10.394  2.9914  1.3110  4.0602
  748MOL0     H 3162  11.557   6.041  10.281 -2.1248 -1.1020 -0.6630
  748MOL0     H 3163  11.663   6.213  10.384  0.3830  0.0492  0.8398
  748MOL0     H 3164  11.723   6.104  10.517 -0.4352  0.2553 -0.0418
  748MOL0     H 3165  11.834   6.049  10.249  2.0949 -0.3733  0.1945
  748MOL0     H 3166  11.872   5.979  10.406 -1.2804 -0.5087 -1.1859
  748MOL0     H 3167  11.893   6.271  10.336  1.8382  0.1426 -1.7475
  748MOL0     H 3168  11.947   6.202  10.493 -0.7982  2.2998  0.2195
  748MOL0     H 3169  12.064   6.060  10.240  0.7074 -1.0500  0.6797
  748MOL0     H 3170  12.127   6.083  10.398  0.1562  0.6293  0.1911
  748MOL0     H 3171  12.068   6.326  10.202  2.5517  2.9045  1.1515
  748MOL0     H 3172  12.157   6.315  10.356 -1.3754 -2.0466  1.4662
  748MOL0     H 3173  12.385   6.159  10.379 -2.9804  0.7706  0.5977
  748MOL0     H 3174  12.643   6.055  10.124 -1.4583 -1.3382  0.8879
  748MOL0     H 3175  12.636   6.086  10.289  1.2355 -0.8155  0.0356
  748MOL0     H 3176  12.724   6.304  10.092 -0.6670  2.7692  1.5994
  748MOL0     H 3177  12.679   6.335  10.256 -0.7440  0.9145 -0.5429
  748MOL0     H 3178  12.912   6.308  10.240 -3.0646  2.3030  1.3920
  748MOL0     H 3179  12.868   6.164  10.322 -1.3159 -0.8745 -0.1459
  748MOL0     H 3180  12.851   6.017  10.141  0.3576 -0.3297 -1.1800
  748MOL0     H 3181  12.894   6.148  10.040  1.8931 -0.0352  0.2925
  748MOL0     H 3182  13.069   6.226   9.949 -1.7989 -1.7137  2.9169
  748MOL0     H 3183  13.179   6.312   9.744 -1.8172 -2.5848  0.7055
  748MOL0     H 3184  13.242   6.162   9.656 -4.9128 -1.5835  2.1920
  748MOL0     H 3185  13.346   6.291   9.710 -0.6335 -0.0445 -2.8681
  748MOL0     H 3186  13.711   5.852   9.777 -1.1094  1.2356 -0.7518
  748MOL0     H 3187  13.949   5.838   9.712  0.8872 -0.0669  0.3581
  748MOL0     H 3188  14.177   6.216   9.686  4.9129  0.5376 -2.4287
  748MOL0     H 3189  14.222   6.143   9.853 -0.1736  1.8244  0.2265
  748MOL0     H 3190  14.303   6.064   9.577 -0.3800  1.1638 -0.1536
  748MOL0     H 3191  14.425   6.147   9.671  0.7655  0.3008  0.5740
  748MOL0     H 3192  14.482   5.905   9.689 -0.9015 -2.0084 -0.4471
  748MOL0     H 3193  14.326   5.853   9.719  1.3906  1.1779 -1.1255
  748MOL0     H 3194  14.309   5.957   9.938 -0.2933 -1.5879 -1.0882
  748MOL0     H 3195  14.445   6.063   9.918 -1.7186  1.0839  2.6205
  748MOL0     H 3196  14.477   5.759   9.894 -3.3997 -0.8857  1.5911
  748MOL0     H 3197  14.603   5.884   9.942 -0.4336 -0.1970  0.6062
  748MOL0     H 3198  14.440   5.919  10.132 -0.1551  1.8352 -0.9015
  748MOL0     H 3199  14.544   5.780  10.150  0.6495 -0.5995 -0.6668
  748MOL0     H 3200  14.336   5.656  10.008  0.2567 -0.5443  0.5563
  748MOL0     H 3201  14.246   5.779  10.058 -3.3582 -3.0640  1.6759
  748MOL0     H 3202  14.388   5.616  10.265 -0.1437 -0.6664 -0.5993
  748MOL0     H 3203  14.221   5.582  10.203 -0.5268  0.1737 -1.2074
  748MOL0     H 3204  13.993   6.255   9.808  0.1953  0.8604 -1.1045
  748MOL0     H 3205  13.784   6.264   9.900  0.6264 -0.3937 -0.7730
  748MOL0     H 3206  13.455   5.932  10.036 -1.0736  0.4708  7.5014
  748MOL0     H 3207  13.252   5.916  10.182  2.0953  1.3039  3.4444
  748MOL0     H 3208  11.473   6.324  10.631 -0.2553 -0.8974 -0.7432
  748MOL0     H 3209  11.375   6.535  10.693 -1.5211  0.4674 -1.1626
  748MOL0     H 3210  11.061   6.838  10.510 -0.4604 -0.8855  0.1162
  748MOL0     H 3211  10.918   7.047  10.534 -0.1985 -1.1005 -1.1872
  748MOL0     H 3212  10.892   7.263  10.639  0.4930 -3.4588 -2.6707
  748MOL0     H 3213  10.745   7.200  10.568  0.0987  1.8532 -0.6204
  748MOL0     H 3214  10.739   7.401  10.789 -2.2662  1.9863  0.6453
  748MOL0     H 3215  10.600   7.295  10.760 -0.1161 -1.7126 -2.1311
  748MOL0     H 3216  10.629   7.533  10.661 -2.0737 -0.6148 -0.2373
  748MOL0     H 3217  10.765   7.454  10.554  0.3590  1.1932 -0.2523
  748MOL0     H 3218  10.546   7.301  10.503  3.2920  0.4871 -1.1074
  748MOL0     H 3219  10.598   7.434  10.394 -1.7239 -2.1621 -1.7347
  748MOL0     H 3220  10.203   7.506  10.518  0.0851  0.0139  0.4320
  748MOL0     H 3221  10.813   6.925  10.927  0.3517 -1.7971  0.8788
  748MOL0     H 3222  10.935   6.589  10.904 -0.4800 -0.6268  0.1698
  748MOL0     H 3223  11.006   6.719  11.009  1.7812 -2.2375 -1.1496
  748MOL0     H 3224  10.834   6.707  10.998 -0.1346 -0.4990 -1.6696
  749MOL0     O 3225   0.279   3.193  11.506 -0.1162 -0.4720  0.4125
  749MOL0     C 3226   0.344   3.249  11.596 -0.3912  1.0020  0.0973
  749MOL0     O 3227   0.305   3.357  11.672 -0.3003 -0.1743 -0.2955
  749MOL0     C 3228   0.183   3.421  11.648  0.2047 -0.0017 -0.9404
  749MOL0     C 3229   0.185   3.562  11.679 -0.1268  0.3435  0.5729
  749MOL0     C 3230   0.067   3.637  11.651  0.1686 -0.0310 -0.3853
  749MOL0     C 3231  -0.043   3.584  11.581  0.6164 -0.3247  0.1565
  749MOL0     O 3232  -0.155   3.650  11.536  0.2196 -0.0856 -0.5801
  749MOL0     C 3233  -0.146   3.790  11.500  0.2955  0.1396  0.4530
  749MOL0     C 3234  -0.034   3.807  11.397 -0.5071  0.1802  0.4464
  749MOL0     C 3235  -0.072   3.937  11.311  0.6017  0.6446  0.0664
  749MOL0     C 3236   0.032   3.961  11.196 -0.9553 -0.4330  0.2051
  749MOL0     C 3237  -0.012   4.079  11.114  0.0040  0.4352  0.0466
  749MOL0     C 3238  -0.055   4.041  10.969 -0.1131 -0.5620  0.0474
  749MOL0     C 3239  -0.099   4.161  10.881  0.2570 -0.7318  0.0528
  749MOL0     C 3240  -0.109   4.126  10.738 -0.2168 -0.5010  0.5422
  749MOL0     N 3241  -0.131   4.254  10.667 -0.3763 -0.1020  0.3180
  749MOL0     C 3242  -0.250   4.305  10.644 -0.8825  0.5445  0.8155
  749MOL0     C 3243  -0.236   4.441  10.611 -0.0265  0.3854 -0.1472
  749MOL0     C 3244  -0.340   4.555  10.595  0.4154 -0.2149  0.6538
  749MOL0     C 3245  -0.435   4.555  10.717 -0.3052 -0.3559  0.2918
  749MOL0     C 3246  -0.575   4.617  10.711  0.3998 -0.2654  0.0941
  749MOL0     C 3247  -0.662   4.573  10.830  0.3287  0.1808 -1.1915
  749MOL0     O 3248  -0.606   4.611  10.953  0.7016  0.5220 -0.6241
  749MOL0     C 3249  -0.647   4.549  11.064 -0.3984 -0.2085  0.6352
  749MOL0     C 3250  -0.740   4.437  11.075  0.2904 -0.4729  0.2110
  749MOL0     C 3251  -0.769   4.372  11.190 -0.5805  0.2180 -0.6735
  749MOL0     C 3252  -0.861   4.249  11.175 -0.0322 -0.2080 -0.5974
  749MOL0     C 3253  -0.713   4.418  11.311 -0.2464 -0.0749  0.6973
  749MOL0     C 3254  -0.725   4.355  11.449 -0.2623  0.9212  0.0668
  749MOL0     O 3255  -0.729   4.438  11.549 -0.0378  0.3093 -0.1515
  749MOL0     C 3256  -0.742   4.379  11.668  0.7198  0.8170 -0.1428
  749MOL0     C 3257  -0.835   4.290  11.712  0.1591  0.0615  0.2230
  749MOL0     C 3258  -0.834   4.240  11.844 -0.4425  0.3093  0.2998
  749MOL0     C 3259  -0.742   4.292  11.946 -0.3035 -0.1040  0.3637
  749MOL0     O 3260  -0.765   4.244  12.069  0.5069  0.3051  1.3190
  749MOL0     C 3261  -0.671   4.275  12.167 -0.9463 -1.2860 -0.2788
  749MOL0     C 3262  -0.719   4.232  12.305  0.6776 -0.5067 -0.5074
  749MOL0     C 3263  -0.764   4.080  12.305 -1.3707  0.0076  0.8091
  749MOL0     C 3264  -0.822   4.045  12.438  0.5255  0.4504 -0.0693
  749MOL0     C 3265  -0.859   3.893  12.465 -0.4374 -0.4504 -0.1525
  749MOL0     C 3266  -0.937   3.867  12.599  0.2725  0.1907  0.5293
  749MOL0     C 3267  -0.865   3.928  12.715  0.0917  0.2150 -1.2604
  749MOL0     C 3268  -0.896   3.853  12.842 -0.3560  0.0954 -0.1551
  749MOL0    Cl 3269  -0.814   3.696  12.843  0.2755  0.3181 -0.4356
  749MOL0     C 3270  -0.661   4.404  11.904 -0.3301 -0.4466  0.5559
  749MOL0     C 3271  -0.662   4.434  11.768 -0.1566 -0.0220 -0.1373
  749MOL0     O 3272  -0.707   4.235  11.455 -0.1373 -0.4279  0.3666
  749MOL0     C 3273  -0.633   4.539  11.308 -0.0234 -0.6080 -0.0837
  749MOL0     C 3274  -0.603   4.598  11.186 -0.4318  0.3578  0.0878
  749MOL0     N 3275  -0.103   4.466  10.612  0.7557 -0.3741  0.1526
  749MOL0     N 3276  -0.040   4.365  10.651  0.3562 -0.9181  0.8095
  749MOL0     C 3277  -0.050   3.446  11.565  0.1439  0.0176  0.1783
  749MOL0     C 3278   0.058   3.369  11.598 -0.2034 -0.4862 -0.5398
  749MOL0     C 3279   0.482   3.184  11.629  0.3522 -0.0657  0.1332
  749MOL0     C 3280   0.569   3.274  11.689  0.3480  0.1877 -0.2128
  749MOL0     C 3281   0.703   3.235  11.714 -0.5757  0.4584 -0.1436
  749MOL0     C 3282   0.760   3.104  11.684 -0.4014 -1.1718  0.1778
  749MOL0     O 3283   0.891   3.063  11.715 -0.1964  0.3643 -0.5567
  749MOL0     C 3284   0.968   3.145  11.805  0.3661 -0.9721 -0.9191
  749MOL0     C 3285   1.106   3.086  11.833  0.9250  0.0990  0.5295
  749MOL0     C 3286   1.197   3.100  11.713 -0.0702 -0.0622  0.6208
  749MOL0     C 3287   1.224   2.969  11.639  0.4466 -0.0402  0.4760
  749MOL0     C 3288   1.291   3.004  11.517  0.0045  0.5011 -0.1800
  749MOL0     C 3289   1.332   3.021  11.410 -0.5793 -1.0675  0.4385
  749MOL0     C 3290   0.670   3.020  11.618  0.7110 -0.0375 -0.0391
  749MOL0     C 3291   0.537   3.050  11.605  0.5928  0.1096  0.2999
  749MOL0     C 3292   0.450   2.949  11.540  0.9558 -0.1628 -0.1522
  749MOL0     H 3293   0.260   3.617  11.736 -0.6851  2.8961 -1.0030
  749MOL0     H 3294   0.058   3.744  11.665 -0.6298 -0.2200  0.6859
  749MOL0     H 3295  -0.125   3.856  11.585  2.8600  0.3253 -0.2199
  749MOL0     H 3296  -0.244   3.823  11.467 -0.2317 -0.0304  1.7905
  749MOL0     H 3297   0.067   3.826  11.435 -0.2433  0.2928 -0.3003
  749MOL0     H 3298  -0.029   3.723  11.327 -2.7256 -0.8022  1.3717
  749MOL0     H 3299  -0.167   3.925  11.258  0.1395 -0.7541  1.1428
  749MOL0     H 3300  -0.081   4.017  11.385  3.2598 -0.2725  1.5188
  749MOL0     H 3301   0.129   3.984  11.241 -1.4967  1.5576  0.4723
  749MOL0     H 3302   0.046   3.876  11.129  2.1438  0.2181 -0.1407
  749MOL0     H 3303   0.079   4.140  11.114  0.1538  0.9421  6.4989
  749MOL0     H 3304  -0.089   4.144  11.156 -1.4710  0.5741 -2.6221
  749MOL0     H 3305   0.024   3.988  10.914  0.5861  0.7053 -0.2132
  749MOL0     H 3306  -0.147   3.983  10.977 -1.6034  1.6013 -0.6441
  749MOL0     H 3307  -0.029   4.244  10.895 -1.1126  0.1206  2.3489
  749MOL0     H 3308  -0.198   4.195  10.910  0.6574  0.9040 -0.3756
  749MOL0     H 3309  -0.023   4.067  10.704 -0.3800 -0.7342  0.5372
  749MOL0     H 3310  -0.198   4.064  10.726 -1.5902  1.4695  0.1279
  749MOL0     H 3311  -0.344   4.250  10.644  0.7856 -2.4965  1.5667
  749MOL0     H 3312  -0.394   4.534  10.502  0.3970  3.2578 -0.2417
  749MOL0     H 3313  -0.280   4.645  10.581 -0.4157  0.1757 -0.6018
  749MOL0     H 3314  -0.453   4.457  10.761 -0.2166  0.7731  3.0530
  749MOL0     H 3315  -0.390   4.616  10.796  2.8324  1.7932 -2.8690
  749MOL0     H 3316  -0.577   4.725  10.726 -2.4718 -0.1747 -0.3741
  749MOL0     H 3317  -0.630   4.587  10.621 -2.2370 -0.4097  1.6632
  749MOL0     H 3318  -0.763   4.614  10.816  0.7781  1.1563 -1.6914
  749MOL0     H 3319  -0.672   4.467  10.808  1.8634  0.3864 -3.1395
  749MOL0     H 3320  -0.790   4.408  10.983 -0.9898  1.4710  0.2434
  749MOL0     H 3321  -0.944   4.257  11.246  2.4426 -0.7849  2.6023
  749MOL0     H 3322  -0.800   4.163  11.204 -0.8083 -1.0655 -1.4613
  749MOL0     H 3323  -0.897   4.238  11.073 -1.5744 -3.4797  0.1509
  749MOL0     H 3324  -0.909   4.258  11.639  2.7151 -0.5899 -2.2572
  749MOL0     H 3325  -0.889   4.149  11.867  1.3297 -0.1316  3.2771
  749MOL0     H 3326  -0.576   4.228  12.141  0.2371  0.3143  0.8920
  749MOL0     H 3327  -0.654   4.383  12.180  0.1951 -1.4899  0.0757
  749MOL0     H 3328  -0.644   4.252  12.381 -0.6968 -2.7924  1.5911
  749MOL0     H 3329  -0.806   4.295  12.322  1.3057 -0.2558  2.1167
  749MOL0     H 3330  -0.669   4.027  12.300 -1.1912  0.4203 -0.8299
  749MOL0     H 3331  -0.825   4.053  12.218 -1.1451 -1.0436  0.9652
  749MOL0     H 3332  -0.919   4.095  12.442 -0.3453 -1.2175  2.5231
  749MOL0     H 3333  -0.748   4.080  12.511  1.3568 -1.8727  0.2915
  749MOL0     H 3334  -0.910   3.855  12.376  1.7161 -2.9808 -0.4521
  749MOL0     H 3335  -0.766   3.835  12.468  1.3530  2.1991 -1.2586
  749MOL0     H 3336  -0.946   3.758  12.605 -1.4449  0.3866  3.1984
  749MOL0     H 3337  -1.033   3.918  12.594  0.9641  1.4284 -2.1695
  749MOL0     H 3338  -0.895   4.033  12.723 -0.3483 -0.0478  1.7848
  749MOL0     H 3339  -0.757   3.936  12.707 -0.1164  2.6404 -2.4859
  749MOL0     H 3340  -1.004   3.851  12.859  0.0091  0.3101  2.6911
  749MOL0     H 3341  -0.858   3.918  12.921 -1.4570  1.3366 -0.6212
  749MOL0     H 3342  -0.591   4.442  11.978 -2.0774 -1.0260  2.6061
  749MOL0     H 3343  -0.595   4.508  11.725  1.6954 -3.4293 -3.8258
  749MOL0     H 3344  -0.607   4.591  11.400  0.9182 -1.4207  0.1266
  749MOL0     H 3345  -0.534   4.682  11.184  0.5736 -0.4115 -3.1311
  749MOL0     H 3346  -0.137   3.395  11.525  1.8397 -0.5917 -3.0732
  749MOL0     H 3347   0.056   3.261  11.582 -3.4253 -0.6891  0.4561
  749MOL0     H 3348   0.535   3.376  11.703 -2.4681 -0.4156 -1.9259
  749MOL0     H 3349   0.773   3.301  11.766  1.6498 -1.9764  0.1644
  749MOL0     H 3350   0.960   3.247  11.766  0.5908 -0.5002  0.2221
  749MOL0     H 3351   0.918   3.145  11.902 -0.1593 -2.6640 -1.1603
  749MOL0     H 3352   1.091   2.982  11.862 -1.4798 -0.1980 -1.4902
  749MOL0     H 3353   1.150   3.135  11.921 -0.3557 -0.5127  1.5372
  749MOL0     H 3354   1.140   3.169  11.650  1.1052  1.7659  1.4950
  749MOL0     H 3355   1.293   3.147  11.737 -0.2894  1.2734 -0.9096
  749MOL0     H 3356   1.131   2.926  11.600  1.6396 -0.8488 -1.6860
  749MOL0     H 3357   1.271   2.883  11.687  0.7538  0.2436  0.6865
  749MOL0     H 3358   1.388   3.030  11.319  0.6795 -2.6032  1.0208
  749MOL0     H 3359   0.697   2.923  11.576 -1.5142 -0.8329  0.2502
  749MOL0     H 3360   0.434   2.968  11.433 -0.8101 -0.1174  0.0919
  749MOL0     H 3361   0.488   2.847  11.554 -1.4423 -0.7933  2.6972
  749MOL0     H 3362   0.349   2.956  11.580  1.3217 -0.7317  0.8884
  750MOL0     O 3363   0.039   4.961   6.824 -0.2354 -0.8132 -0.8415
  750MOL0     C 3364  -0.026   4.869   6.776 -0.2459  0.2517  0.7108
  750MOL0     O 3365   0.025   4.762   6.708 -0.5798  0.4912  0.8977
  750MOL0     C 3366   0.151   4.745   6.675  0.2663 -0.2745 -0.4138
  750MOL0     C 3367   0.232   4.845   6.622  1.2020  0.6133 -0.1705
  750MOL0     C 3368   0.347   4.809   6.558 -0.1364  0.3490  1.5456
  750MOL0     C 3369   0.398   4.670   6.580  0.1554 -1.0659 -0.0608
  750MOL0     O 3370   0.527   4.651   6.542  0.7768 -1.0443 -0.0297
  750MOL0     C 3371   0.623   4.592   6.630 -0.0439  0.7357  0.5692
  750MOL0     C 3372   0.763   4.611   6.556 -0.3343 -0.1802 -0.3859
  750MOL0     C 3373   0.871   4.554   6.643  0.0919  0.1010 -0.8119
  750MOL0     C 3374   0.997   4.618   6.608  0.2212  0.5208  0.2500
  750MOL0     C 3375   1.122   4.558   6.677 -0.5707  0.8615 -0.2325
  750MOL0     C 3376   1.162   4.432   6.589  0.0555 -0.2747 -0.6755
  750MOL0     C 3377   1.297   4.375   6.642 -0.6886  0.0960  0.5214
  750MOL0     C 3378   1.276   4.280   6.761  0.3895  0.2595 -0.2603
  750MOL0     N 3379   1.413   4.250   6.817  0.2009  0.2150  0.1159
  750MOL0     C 3380   1.507   4.179   6.757 -0.0897 -0.8272 -0.7497
  750MOL0     C 3381   1.611   4.171   6.849  0.5039  0.0607  0.2431
  750MOL0     C 3382   1.746   4.108   6.820  0.4037  0.0706  0.3015
  750MOL0     C 3383   1.838   4.098   6.943 -0.0942 -0.3504 -0.6326
  750MOL0     C 3384   1.823   3.973   7.020  1.2739 -0.6192 -0.1378
  750MOL0     C 3385   1.909   3.976   7.150  0.1399 -0.2507  0.5649
  750MOL0     O 3386   2.047   3.944   7.114  0.1429  0.1338  0.7923
  750MOL0     C 3387   2.138   3.941   7.218 -0.1440  0.1157 -0.2347
  750MOL0     C 3388   2.182   4.053   7.286  0.5528  0.1895  0.1183
  750MOL0     C 3389   2.278   4.042   7.385 -0.2021  0.9130  0.1862
  750MOL0     C 3390   2.311   4.161   7.469 -0.8315 -0.7386  0.5875
  750MOL0     C 3391   2.354   3.920   7.395 -1.6435 -0.5035 -0.5742
  750MOL0     C 3392   2.472   3.903   7.471  0.1072 -0.8891  0.2809
  750MOL0     O 3393   2.485   3.791   7.551 -0.1445 -1.2429  0.0802
  750MOL0     C 3394   2.605   3.777   7.627  0.3313  0.7969 -0.8521
  750MOL0     C 3395   2.714   3.700   7.579  0.2007 -1.7310  0.0480
  750MOL0     C 3396   2.843   3.694   7.640  0.1839 -0.6609 -0.4689
  750MOL0     C 3397   2.863   3.777   7.751 -0.1095  0.1578 -0.5068
  750MOL0     O 3398   2.993   3.781   7.799 -1.0481  0.6462 -0.4922
  750MOL0     C 3399   3.013   3.817   7.934  1.2835  0.1297  0.1430
  750MOL0     C 3400   2.958   3.714   8.028  0.2818 -0.1635 -0.8801
  750MOL0     C 3401   2.979   3.746   8.178 -0.0717  0.4159  0.9294
  750MOL0     C 3402   2.884   3.865   8.211 -0.1548 -0.4329 -0.5023
  750MOL0     C 3403   2.940   3.961   8.323 -0.3507 -0.5278  0.1743
  750MOL0     C 3404   2.961   3.891   8.452  0.4662 -0.2518  0.1957
  750MOL0     C 3405   3.108   3.920   8.512  0.7715  0.2952 -1.0482
  750MOL0     C 3406   3.147   3.848   8.639  0.5055 -1.0411  0.2475
  750MOL0    Cl 3407   3.020   3.862   8.767  0.1779  0.0315 -0.2821
  750MOL0     C 3408   2.752   3.831   7.815 -0.3657 -0.3607  0.8706
  750MOL0     C 3409   2.630   3.846   7.750  0.3752  0.5077  0.3329
  750MOL0     O 3410   2.567   3.982   7.457  0.2319 -0.6788 -0.2245
  750MOL0     C 3411   2.312   3.806   7.325  0.0729 -0.5854  0.8149
  750MOL0     C 3412   2.209   3.821   7.236  0.3956 -0.3778 -0.7610
  750MOL0     N 3413   1.575   4.257   6.948  0.3628  0.1484 -0.0910
  750MOL0     N 3414   1.458   4.305   6.930 -0.6659 -0.3391 -0.0769
  750MOL0     C 3415   0.323   4.574   6.654  0.0135  0.2782  0.5067
  750MOL0     C 3416   0.196   4.615   6.695 -0.2014  0.2028  0.5169
  750MOL0     C 3417  -0.169   4.875   6.774  0.7553  0.0773  0.1371
  750MOL0     C 3418  -0.233   4.991   6.721 -0.0912 -0.2595 -0.4835
  750MOL0     C 3419  -0.370   5.007   6.727  0.3385 -0.6352  0.2607
  750MOL0     C 3420  -0.445   4.901   6.782 -0.0355 -0.6854  0.3261
  750MOL0     O 3421  -0.573   4.910   6.781  0.4584  0.4265 -0.1593
  750MOL0     C 3422  -0.631   5.015   6.866  0.1606 -0.1409  0.1716
  750MOL0     C 3423  -0.736   4.963   6.973 -0.5993  0.3211 -0.1402
  750MOL0     C 3424  -0.853   4.880   6.929 -0.4002 -0.4557 -0.6479
  750MOL0     C 3425  -0.949   4.960   6.838  0.1057  0.0620  0.0492
  750MOL0     C 3426  -1.071   4.878   6.814  0.0319 -0.4618 -1.0140
  750MOL0     C 3427  -1.174   4.807   6.810 -0.1352 -0.1061 -0.0696
  750MOL0     C 3428  -0.391   4.791   6.836 -0.1652  0.7683 -0.3618
  750MOL0     C 3429  -0.256   4.778   6.832 -0.7596  0.5225  0.7008
  750MOL0     C 3430  -0.202   4.650   6.897 -0.0326  0.3600  0.0610
  750MOL0     H 3431   0.195   4.946   6.610  3.2385  1.2675 -1.3856
  750MOL0     H 3432   0.421   4.880   6.524  0.9843  0.0675  3.2427
  750MOL0     H 3433   0.595   4.487   6.637 -0.3434  0.7187 -0.6431
  750MOL0     H 3434   0.628   4.628   6.734  2.3181  1.1514  0.3622
  750MOL0     H 3435   0.758   4.561   6.459  0.2709  1.6658 -1.4332
  750MOL0     H 3436   0.779   4.720   6.558  1.9208 -0.4459  2.2007
  750MOL0     H 3437   0.854   4.578   6.749 -0.1069 -3.3720  0.0541
  750MOL0     H 3438   0.881   4.446   6.634  0.5352  0.0678 -0.0023
  750MOL0     H 3439   1.014   4.618   6.500 -0.2180 -1.8819  0.1167
  750MOL0     H 3440   1.005   4.724   6.632  2.6315  0.8136 -1.5160
  750MOL0     H 3441   1.110   4.541   6.785 -4.4288  0.8443 -0.5205
  750MOL0     H 3442   1.202   4.633   6.675  1.3229 -1.0253  0.5025
  750MOL0     H 3443   1.085   4.354   6.585  2.7285 -3.2504  0.9446
  750MOL0     H 3444   1.185   4.467   6.489  0.2260  1.3958 -0.0736
  750MOL0     H 3445   1.374   4.449   6.668 -0.0400  0.2923 -1.7480
  750MOL0     H 3446   1.338   4.316   6.559 -1.4889 -0.0328  0.2143
  750MOL0     H 3447   1.218   4.319   6.845  1.3929  1.1692  0.0345
  750MOL0     H 3448   1.232   4.188   6.721  0.6691 -0.0250  0.0727
  750MOL0     H 3449   1.499   4.133   6.659 -0.7138 -0.5738 -0.8235
  750MOL0     H 3450   1.792   4.179   6.751 -2.8969  0.0513 -2.1799
  750MOL0     H 3451   1.740   4.012   6.769  1.3900  1.4078 -2.5431
  750MOL0     H 3452   1.938   4.098   6.900 -0.1469 -0.0382 -0.7583
  750MOL0     H 3453   1.832   4.187   7.007 -1.9350 -1.8365  1.4417
  750MOL0     H 3454   1.720   3.957   7.052  0.3940  0.2796 -2.3261
  750MOL0     H 3455   1.854   3.890   6.957 -0.8416 -0.1735 -1.8854
  750MOL0     H 3456   1.896   4.070   7.203 -5.0089 -0.1026 -0.4617
  750MOL0     H 3457   1.868   3.898   7.216 -1.5018 -0.4569 -0.6175
  750MOL0     H 3458   2.119   4.142   7.277 -0.0596 -0.2646 -0.1809
  750MOL0     H 3459   2.415   4.192   7.472 -0.3429 -2.0663 -1.0403
  750MOL0     H 3460   2.288   4.143   7.575 -0.9177 -2.4288  0.3076
  750MOL0     H 3461   2.265   4.252   7.427  0.2003  0.5769  2.1797
  750MOL0     H 3462   2.692   3.646   7.487 -0.2283  0.2489 -1.0545
  750MOL0     H 3463   2.934   3.669   7.587  1.7938  3.7095 -0.1907
  750MOL0     H 3464   3.120   3.823   7.956  2.0987 -4.7271 -1.4576
  750MOL0     H 3465   2.968   3.917   7.941 -0.1002 -0.5381  1.3617
  750MOL0     H 3466   2.850   3.699   8.019  0.5217 -1.0145 -3.2542
  750MOL0     H 3467   2.999   3.617   7.997  0.2970 -0.8848  1.2834
  750MOL0     H 3468   3.082   3.778   8.195 -0.0363  0.4278  0.6963
  750MOL0     H 3469   2.961   3.655   8.235  0.7147 -0.8281 -0.7131
  750MOL0     H 3470   2.793   3.821   8.253 -0.8229  2.7026  1.7304
  750MOL0     H 3471   2.856   3.934   8.131 -1.4445  0.8992  1.0212
  750MOL0     H 3472   3.037   4.003   8.294  0.0570 -1.3819  0.2758
  750MOL0     H 3473   2.874   4.046   8.339 -0.7349 -0.3580 -2.0085
  750MOL0     H 3474   2.950   3.783   8.445 -0.5399 -0.1281 -0.2080
  750MOL0     H 3475   2.896   3.936   8.527  1.1774 -0.8898  1.2177
  750MOL0     H 3476   3.128   4.027   8.521  2.2916 -0.0572  0.2566
  750MOL0     H 3477   3.194   3.894   8.451  0.7530 -0.2805 -0.8357
  750MOL0     H 3478   3.244   3.883   8.676  0.3525 -1.1324  0.7413
  750MOL0     H 3479   3.170   3.742   8.630  0.5461 -0.9769 -0.4506
  750MOL0     H 3480   2.753   3.882   7.910 -0.2991  1.2404  0.0487
  750MOL0     H 3481   2.548   3.893   7.802  0.1240 -1.5363  1.8748
  750MOL0     H 3482   2.356   3.709   7.345 -0.4583 -0.5133  2.4596
  750MOL0     H 3483   2.151   3.750   7.177 -1.4698 -0.2984  0.8754
  750MOL0     H 3484   0.367   4.476   6.671  2.7768  1.4294  0.5440
  750MOL0     H 3485   0.132   4.547   6.751  0.2932 -0.9172 -0.2226
  750MOL0     H 3486  -0.165   5.069   6.688 -2.0177  2.9959  2.4938
  750MOL0     H 3487  -0.397   5.103   6.684  0.2047 -0.1259  1.4568
  750MOL0     H 3488  -0.559   5.075   6.922 -0.4322  1.2510 -0.4988
  750MOL0     H 3489  -0.689   5.076   6.796 -0.3818 -2.3730 -1.4362
  750MOL0     H 3490  -0.770   5.050   7.030 -0.8750  1.6809 -2.2436
  750MOL0     H 3491  -0.677   4.913   7.050 -3.0128  0.7958  2.1606
  750MOL0     H 3492  -0.823   4.786   6.882 -0.1886 -0.0177 -1.4077
  750MOL0     H 3493  -0.907   4.860   7.022  0.4062  0.2626 -0.0089
  750MOL0     H 3494  -0.898   4.987   6.745  0.4190  0.4570  0.3311
  750MOL0     H 3495  -0.975   5.055   6.885 -2.7324 -0.9335  0.6888
  750MOL0     H 3496  -1.252   4.739   6.783  0.0314 -0.7156  0.9237
  750MOL0     H 3497  -0.464   4.719   6.872 -1.2252  0.2425 -3.2854
  750MOL0     H 3498  -0.202   4.567   6.826 -0.5193 -1.1392  1.7424
  750MOL0     H 3499  -0.099   4.665   6.932 -0.6091 -1.5090  2.9352
  750MOL0     H 3500  -0.258   4.622   6.987  2.6819  0.0582  1.7702
  751MOL0     O 3501   7.352   3.654  10.238  0.5328  0.0413 -0.3734
  751MOL0     C 3502   7.376   3.707  10.129 -0.6531  0.0077 -0.6401
  751MOL0     O 3503   7.430   3.644  10.019  0.3903  0.6442 -0.2991
  751MOL0     C 3504   7.447   3.502  10.014  0.0144 -0.3530 -0.1899
  751MOL0     C 3505   7.519   3.452   9.900 -0.6668 -0.1139 -0.5857
  751MOL0     C 3506   7.541   3.312   9.885 -0.3790 -0.4553 -0.1156
  751MOL0     C 3507   7.479   3.224   9.976  1.3046  0.2109  0.2945
  751MOL0     O 3508   7.485   3.086   9.968  0.2004 -0.1047  0.2579
  751MOL0     C 3509   7.392   3.031   9.874 -0.1614  0.0585 -0.5893
  751MOL0     C 3510   7.427   3.061   9.728  0.6188 -0.7126  0.5718
  751MOL0     C 3511   7.577   3.019   9.698 -0.2259 -0.4715 -0.8702
  751MOL0     C 3512   7.587   2.864   9.731 -0.3823 -0.6118  0.3126
  751MOL0     C 3513   7.713   2.817   9.661 -0.5661 -0.6493  0.3773
  751MOL0     C 3514   7.758   2.678   9.708  0.1088 -0.5604 -0.4022
  751MOL0     C 3515   7.855   2.672   9.829 -1.4623 -0.5989  0.1430
  751MOL0     C 3516   8.000   2.704   9.792  0.1789  1.0039  0.5845
  751MOL0     N 3517   8.050   2.624   9.679  0.3673 -1.2288  0.0159
  751MOL0     C 3518   8.070   2.679   9.551  0.3191 -0.3834 -0.2359
  751MOL0     C 3519   8.113   2.572   9.478  0.9775  0.1476  0.6974
  751MOL0     C 3520   8.146   2.578   9.327  0.6820  0.0869 -0.3956
  751MOL0     C 3521   8.298   2.563   9.318 -0.1104  0.0260  0.8897
  751MOL0     C 3522   8.338   2.582   9.171  0.5213 -0.2782  1.1034
  751MOL0     C 3523   8.490   2.566   9.157 -0.1534 -0.5288 -0.4286
  751MOL0     O 3524   8.528   2.565   9.015  0.0280 -0.8043 -0.7022
  751MOL0     C 3525   8.658   2.541   8.994 -0.1472 -0.3122 -0.4033
  751MOL0     C 3526   8.716   2.584   8.873  0.2845  0.2267  0.4550
  751MOL0     C 3527   8.841   2.548   8.837  0.3836  0.7368 -0.0860
  751MOL0     C 3528   8.879   2.581   8.695 -0.2885 -0.3436  0.5818
  751MOL0     C 3529   8.927   2.491   8.937  0.3276 -0.3079 -0.0056
  751MOL0     C 3530   9.079   2.463   8.922  0.6867  0.2661 -0.6565
  751MOL0     O 3531   9.148   2.424   9.034  0.2465  0.3832  0.1277
  751MOL0     C 3532   9.278   2.403   9.022 -1.1188  0.1316  0.0434
  751MOL0     C 3533   9.326   2.297   8.949  0.9692 -0.1075  1.1085
  751MOL0     C 3534   9.463   2.272   8.937  0.0826 -0.3456  0.4187
  751MOL0     C 3535   9.558   2.357   9.001 -0.0700  0.9133 -0.3834
  751MOL0     O 3536   9.695   2.325   8.987 -0.3585 -0.1077 -0.0232
  751MOL0     C 3537   9.802   2.411   9.040  0.2090 -0.0050  0.1745
  751MOL0     C 3538   9.935   2.322   9.012 -0.0397  0.5637  1.6767
  751MOL0     C 3539  10.038   2.368   9.122  0.6594 -0.5716 -0.6759
  751MOL0     C 3540  10.066   2.519   9.135 -0.8363  0.2080  0.1596
  751MOL0     C 3541  10.184   2.550   9.222 -0.2527 -0.7572 -0.1817
  751MOL0     C 3542  10.215   2.706   9.237  0.5420  0.4365  0.6741
  751MOL0     C 3543  10.116   2.756   9.346 -0.2479 -0.4171  0.1059
  751MOL0     C 3544  10.135   2.910   9.365 -0.5153  0.4442  0.6046
  751MOL0    Cl 3545  10.070   2.954   9.515  0.5688  0.2635  0.2696
  751MOL0     C 3546   9.503   2.458   9.084 -0.1270  0.2129 -0.5561
  751MOL0     C 3547   9.366   2.477   9.102  0.0974 -0.1972  0.0942
  751MOL0     O 3548   9.130   2.479   8.815  0.1090 -0.4079 -0.0652
  751MOL0     C 3549   8.870   2.438   9.058  0.0642 -0.0477 -0.8559
  751MOL0     C 3550   8.743   2.470   9.085  0.4025  0.5165  0.5430
  751MOL0     N 3551   8.110   2.460   9.558  0.1577 -1.3478 -0.3935
  751MOL0     N 3552   8.075   2.493   9.676  0.0716 -0.3961 -0.4616
  751MOL0     C 3553   7.399   3.273  10.077  0.2719  0.5001  0.4715
  751MOL0     C 3554   7.375   3.406  10.094  0.7290 -0.1747 -0.0381
  751MOL0     C 3555   7.374   3.854  10.117 -1.1038  0.2327  0.2788
  751MOL0     C 3556   7.369   3.907   9.985  0.4264 -0.2420  0.4050
  751MOL0     C 3557   7.355   4.042   9.956  0.3160 -0.9386 -0.4067
  751MOL0     C 3558   7.347   4.131  10.065  0.5269  0.9508  1.5446
  751MOL0     O 3559   7.351   4.263  10.031  0.0124 -0.0508 -0.7736
  751MOL0     C 3560   7.306   4.365  10.119  0.0780 -0.2087  0.7275
  751MOL0     C 3561   7.399   4.404  10.231  1.2300 -0.2080  0.4798
  751MOL0     C 3562   7.544   4.416  10.171 -0.6626 -1.0563  0.1520
  751MOL0     C 3563   7.559   4.529  10.060  0.3401  0.4148 -0.4360
  751MOL0     C 3564   7.482   4.649  10.084  0.0907  0.6164  0.2126
  751MOL0     C 3565   7.441   4.764  10.100 -0.4594 -0.9375  0.0038
  751MOL0     C 3566   7.343   4.080  10.191 -0.2731 -0.9207  0.1227
  751MOL0     C 3567   7.345   3.947  10.225 -0.3083  0.1878 -0.4995
  751MOL0     C 3568   7.347   3.903  10.378 -0.3316 -0.7418  0.5173
  751MOL0     H 3569   7.565   3.515   9.824 -0.1453 -1.2994 -1.2827
  751MOL0     H 3570   7.597   3.276   9.801  1.5764  0.3694  0.7677
  751MOL0     H 3571   7.291   3.070   9.888 -0.4247 -0.6548 -0.4513
  751MOL0     H 3572   7.377   2.923   9.883 -1.9568  0.3326  0.1269
  751MOL0     H 3573   7.357   3.013   9.658 -0.0075  2.6922 -1.3235
  751MOL0     H 3574   7.414   3.166   9.701 -4.2638 -1.8339 -2.9683
  751MOL0     H 3575   7.613   3.055   9.601 -1.2620  2.5654 -0.2411
  751MOL0     H 3576   7.648   3.062   9.769  1.3343 -0.8196 -2.1826
  751MOL0     H 3577   7.606   2.844   9.837 -1.1479  1.0331  0.7862
  751MOL0     H 3578   7.500   2.809   9.695 -1.6785  1.9024 -0.5490
  751MOL0     H 3579   7.792   2.886   9.690 -2.1689  0.6205  1.9457
  751MOL0     H 3580   7.693   2.814   9.553  1.2376  2.2471 -0.1416
  751MOL0     H 3581   7.667   2.635   9.751 -0.6394 -1.2267 -2.5262
  751MOL0     H 3582   7.797   2.630   9.618 -3.4013 -0.3816 -2.1803
  751MOL0     H 3583   7.870   2.569   9.864  0.2135 -1.2135 -2.1537
  751MOL0     H 3584   7.815   2.741   9.904  0.7389  0.4651  0.4294
  751MOL0     H 3585   8.012   2.804   9.749  1.8706 -0.5819 -3.0495
  751MOL0     H 3586   8.063   2.683   9.878  0.1817 -1.5880  0.0358
  751MOL0     H 3587   8.039   2.774   9.509 -0.8069 -0.6414 -0.0175
  751MOL0     H 3588   8.098   2.669   9.289 -0.3424 -1.0706 -1.9897
  751MOL0     H 3589   8.095   2.494   9.280  0.5111 -0.0215 -0.0176
  751MOL0     H 3590   8.359   2.624   9.384  1.1717 -0.4467  0.1865
  751MOL0     H 3591   8.319   2.459   9.344  1.3906  0.3203  0.9482
  751MOL0     H 3592   8.285   2.509   9.109  3.0429 -1.7792  0.5770
  751MOL0     H 3593   8.312   2.683   9.141 -1.3122 -1.3956 -1.4034
  751MOL0     H 3594   8.536   2.649   9.210 -1.0094  0.7707 -1.6558
  751MOL0     H 3595   8.520   2.476   9.211  2.4325 -0.1256 -1.0918
  751MOL0     H 3596   8.638   2.628   8.811 -0.4370  0.6039  1.5872
  751MOL0     H 3597   8.904   2.492   8.636  0.5614  0.6044 -0.5531
  751MOL0     H 3598   8.969   2.643   8.693  0.1926 -1.0481 -0.2815
  751MOL0     H 3599   8.791   2.626   8.649  1.2286 -2.5261 -5.4809
  751MOL0     H 3600   9.263   2.222   8.903  2.4176 -0.8911  0.3412
  751MOL0     H 3601   9.510   2.188   8.888 -0.8397 -1.2636  1.0546
  751MOL0     H 3602   9.798   2.510   8.993  1.9023 -0.2159 -0.4888
  751MOL0     H 3603   9.776   2.426   9.145 -1.2309  5.4880 -0.6427
  751MOL0     H 3604   9.918   2.217   9.037 -2.8961  0.7482  0.9451
  751MOL0     H 3605   9.971   2.323   8.909 -3.4854 -2.6311  0.1822
  751MOL0     H 3606  10.135   2.324   9.097  2.9767  2.6741  1.7116
  751MOL0     H 3607   9.999   2.328   9.216 -0.0643 -0.6331 -0.9938
  751MOL0     H 3608   9.971   2.545   9.184 -0.2038  3.1041 -0.0117
  751MOL0     H 3609  10.066   2.576   9.042  2.2043 -1.2278 -0.8577
  751MOL0     H 3610  10.172   2.502   9.320  0.6804  0.5564  0.6071
  751MOL0     H 3611  10.266   2.496   9.173 -0.2835  0.2472 -1.3770
  751MOL0     H 3612  10.218   2.744   9.134  2.4075 -0.2586  0.4318
  751MOL0     H 3613  10.318   2.711   9.273  1.7379  0.2838 -2.4033
  751MOL0     H 3614  10.157   2.708   9.435  2.8083  0.8013 -0.4966
  751MOL0     H 3615  10.014   2.721   9.326  0.8636 -2.9298 -1.7170
  751MOL0     H 3616  10.081   2.969   9.291 -0.3715  0.9894  0.9244
  751MOL0     H 3617  10.241   2.935   9.370 -0.5564  1.1618 -1.3306
  751MOL0     H 3618   9.583   2.501   9.144  1.0628  0.2205 -2.0848
  751MOL0     H 3619   9.339   2.570   9.151 -1.7882  0.6978 -2.4232
  751MOL0     H 3620   8.930   2.378   9.126  0.9371 -2.0959 -3.2452
  751MOL0     H 3621   8.701   2.436   9.179 -1.0186 -0.1481 -0.2975
  751MOL0     H 3622   7.350   3.203  10.144  1.5286 -2.4456 -1.5128
  751MOL0     H 3623   7.323   3.427  10.187  0.3411 -1.2094 -0.0140
  751MOL0     H 3624   7.363   3.848   9.895  0.5288  1.2933 -0.6385
  751MOL0     H 3625   7.351   4.094   9.860 -2.5527 -0.2387 -0.0054
  751MOL0     H 3626   7.287   4.453  10.056  2.3673 -0.9955 -1.1878
  751MOL0     H 3627   7.209   4.334  10.159 -0.5028 -0.9070 -1.1324
  751MOL0     H 3628   7.403   4.340  10.320  2.4407  2.8800  2.8569
  751MOL0     H 3629   7.364   4.501  10.266  1.0668 -0.5617  1.3186
  751MOL0     H 3630   7.616   4.451  10.246  1.5200 -2.7629 -1.0315
  751MOL0     H 3631   7.591   4.328  10.128 -0.5796 -0.2545 -1.4652
  751MOL0     H 3632   7.526   4.484   9.966 -1.0927  3.7672 -1.7093
  751MOL0     H 3633   7.666   4.551  10.060  0.3627  0.5826 -2.9945
  751MOL0     H 3634   7.404   4.861  10.125  0.2231 -0.1940 -1.7072
  751MOL0     H 3635   7.332   4.157  10.268  1.6661 -1.0567  0.5879
  751MOL0     H 3636   7.442   3.856  10.403 -0.0596  0.4102  1.7462
  751MOL0     H 3637   7.349   3.987  10.448  1.9630 -1.6563  1.6598
  751MOL0     H 3638   7.261   3.841  10.408 -0.0963 -0.9083  0.8520
  752MOL0     O 3639   9.835  10.483  10.116  0.1534  0.1556 -0.6000
  752MOL0     C 3640   9.854  10.479  10.237 -1.0057 -0.4478 -0.2432
  752MOL0     O 3641   9.795  10.399  10.328 -0.8295  0.0031 -0.0602
  752MOL0     C 3642   9.720  10.293  10.285 -0.7074  0.7162  0.5525
  752MOL0     C 3643   9.591  10.271  10.346  0.2259 -0.3803  0.0843
  752MOL0     C 3644   9.512  10.161  10.305 -0.8320  0.6278  0.0636
  752MOL0     C 3645   9.565  10.074  10.212  0.6265  0.5197  0.7256
  752MOL0     O 3646   9.510   9.955  10.183 -0.3081  0.5639  0.1269
  752MOL0     C 3647   9.402   9.962  10.087  0.8714  0.2710 -0.0318
  752MOL0     C 3648   9.349   9.815  10.048 -0.4692 -0.7531 -0.0483
  752MOL0     C 3649   9.257   9.809   9.921  0.9149 -0.6011 -0.6864
  752MOL0     C 3650   9.111   9.775   9.966  0.2413  0.0658 -0.6015
  752MOL0     C 3651   9.022   9.796   9.842 -0.6693  0.5625  0.0837
  752MOL0     C 3652   8.877   9.775   9.883  0.4065 -0.6344 -0.8159
  752MOL0     C 3653   8.777   9.823   9.776 -0.4638  0.2128  0.0926
  752MOL0     C 3654   8.637   9.786   9.822 -0.5425  0.2644 -0.2798
  752MOL0     N 3655   8.525   9.846   9.742 -0.2304 -0.1469  0.8519
  752MOL0     C 3656   8.540   9.942   9.642 -0.1401 -0.0251 -0.1120
  752MOL0     C 3657   8.424   9.930   9.570 -1.2018  0.6696  0.8835
  752MOL0     C 3658   8.387  10.003   9.447 -0.2250 -0.7324 -0.1378
  752MOL0     C 3659   8.413   9.907   9.326  0.1358  0.6716 -0.6159
  752MOL0     C 3660   8.550   9.834   9.321 -0.1250 -0.4856  0.1702
  752MOL0     C 3661   8.590   9.772   9.183  0.1659 -0.8392 -0.0895
  752MOL0     O 3662   8.508   9.663   9.145 -0.3751 -0.6263 -0.4233
  752MOL0     C 3663   8.549   9.603   9.027 -0.2018  0.1775 -0.0292
  752MOL0     C 3664   8.675   9.613   8.963  0.1635  0.4886 -0.0193
  752MOL0     C 3665   8.728   9.525   8.866 -0.0059 -0.6720 -0.0521
  752MOL0     C 3666   8.862   9.563   8.809  0.0143  0.6980  0.3903
  752MOL0     C 3667   8.645   9.431   8.807  0.3775 -0.2539  0.1174
  752MOL0     C 3668   8.676   9.332   8.698  0.0502  0.1066  0.8120
  752MOL0     O 3669   8.580   9.274   8.620  0.7994  0.2802 -0.1693
  752MOL0     C 3670   8.585   9.185   8.521 -0.2957  0.6249 -0.6421
  752MOL0     C 3671   8.510   9.200   8.407  0.3360 -0.4941  0.4880
  752MOL0     C 3672   8.533   9.107   8.295  0.3067  0.1471 -0.5615
  752MOL0     C 3673   8.623   9.006   8.305  0.1532  0.2553 -0.1809
  752MOL0     O 3674   8.645   8.919   8.203  0.3652 -0.4693  0.2881
  752MOL0     C 3675   8.626   8.971   8.070  1.0351  0.1627 -0.1359
  752MOL0     C 3676   8.697   8.883   7.969 -0.1699 -0.2246 -0.0720
  752MOL0     C 3677   8.678   8.930   7.830 -0.0331  0.2328  0.0210
  752MOL0     C 3678   8.710   8.826   7.725 -0.2646  0.5367  0.2378
  752MOL0     C 3679   8.642   8.884   7.605 -0.3646  0.1273 -0.0251
  752MOL0     C 3680   8.695   8.798   7.491 -0.8270  0.7829  0.0845
  752MOL0     C 3681   8.642   8.839   7.354 -0.3631  0.4375  0.4406
  752MOL0     C 3682   8.489   8.791   7.348  0.2432 -0.8419 -0.2126
  752MOL0    Cl 3683   8.427   8.823   7.170  0.1524  0.0035  0.1014
  752MOL0     C 3684   8.682   8.995   8.428 -0.1812  0.8152 -0.6196
  752MOL0     C 3685   8.675   9.084   8.528 -0.1833  0.2616 -0.2955
  752MOL0     O 3686   8.794   9.304   8.688  0.1054  0.4106 -0.1762
  752MOL0     C 3687   8.510   9.419   8.869  0.1147 -0.9057  1.2066
  752MOL0     C 3688   8.473   9.497   8.975  0.2046  0.0106  0.7303
  752MOL0     N 3689   8.349   9.821   9.609 -0.0575 -0.1236 -0.2896
  752MOL0     N 3690   8.408   9.774   9.714 -0.1327 -0.1321  1.1502
  752MOL0     C 3691   9.688  10.101  10.142  0.6116  0.4043 -0.2304
  752MOL0     C 3692   9.763  10.213  10.176  0.0703 -0.7407  0.0084
  752MOL0     C 3693   9.949  10.579  10.291 -0.1500 -0.3807  0.2534
  752MOL0     C 3694  10.063  10.601  10.208  0.4783 -0.9271  0.9436
  752MOL0     C 3695  10.174  10.674  10.241  0.3783 -0.0143  0.2677
  752MOL0     C 3696  10.171  10.737  10.370  0.6390  0.3310 -0.8857
  752MOL0     O 3697  10.268  10.816  10.414  0.4090 -0.0736  0.4891
  752MOL0     C 3698  10.368  10.856  10.317  0.4926 -1.0059  0.2348
  752MOL0     C 3699  10.436  10.985  10.378 -0.1574 -0.4590  0.6622
  752MOL0     C 3700  10.554  10.947  10.465 -0.8518  0.2774 -0.8551
  752MOL0     C 3701  10.632  11.057  10.533 -0.4800  0.0090  0.0626
  752MOL0     C 3702  10.759  11.012  10.597 -0.3921  0.8734 -0.5344
  752MOL0     C 3703  10.867  11.001  10.649  0.0920 -1.4056 -0.0259
  752MOL0     C 3704  10.053  10.720  10.458 -0.6213 -0.1153  0.6019
  752MOL0     C 3705   9.943  10.640  10.416 -0.1399 -0.2135 -1.2031
  752MOL0     C 3706   9.833  10.619  10.525  0.3839 -0.5798  0.3713
  752MOL0     H 3707   9.563  10.340  10.425 -0.2209 -2.6329  2.0199
  752MOL0     H 3708   9.412  10.140  10.342 -1.5611 -2.3708 -3.1239
  752MOL0     H 3709   9.440  10.011   9.997  2.0263  2.2650  1.4569
  752MOL0     H 3710   9.325  10.025  10.131  0.3085  1.7834 -2.9392
  752MOL0     H 3711   9.431   9.748  10.019 -0.6160  0.3098 -3.3349
  752MOL0     H 3712   9.296   9.780  10.138  0.3232 -2.0213 -0.0491
  752MOL0     H 3713   9.245   9.913   9.887 -1.8062 -1.2522 -1.9759
  752MOL0     H 3714   9.295   9.743   9.842  2.0076 -2.3510  1.2099
  752MOL0     H 3715   9.108   9.670   9.998  1.0241  0.2084 -0.0312
  752MOL0     H 3716   9.078   9.833  10.053 -1.0886  0.4126 -1.2992
  752MOL0     H 3717   9.053   9.722   9.767 -2.2889 -2.6495  2.3886
  752MOL0     H 3718   9.034   9.896   9.799  2.9219 -1.6191 -5.0323
  752MOL0     H 3719   8.854   9.669   9.903 -1.8848 -0.2899 -1.3080
  752MOL0     H 3720   8.867   9.846   9.965 -2.2318  1.8790 -3.0739
  752MOL0     H 3721   8.808   9.769   9.686  0.4928 -0.8216  0.9928
  752MOL0     H 3722   8.785   9.929   9.752 -0.0235 -0.3325 -2.4042
  752MOL0     H 3723   8.618   9.678   9.824  2.5746 -0.3782 -0.9730
  752MOL0     H 3724   8.625   9.827   9.922  3.0575 -1.0248  0.8456
  752MOL0     H 3725   8.616  10.018   9.627 -0.8529  0.8393  0.5204
  752MOL0     H 3726   8.445  10.096   9.454 -2.7733  0.9159  0.5052
  752MOL0     H 3727   8.279  10.022   9.452 -0.2910 -1.4136  1.4317
  752MOL0     H 3728   8.331   9.835   9.323 -0.4516  1.2978  0.0832
  752MOL0     H 3729   8.404   9.967   9.235 -1.6979 -0.0489 -0.9388
  752MOL0     H 3730   8.629   9.902   9.352 -1.2327 -0.5872  3.6147
  752MOL0     H 3731   8.564   9.760   9.401 -1.3833 -1.3544 -0.3687
  752MOL0     H 3732   8.579   9.847   9.105 -2.5590 -0.8337  0.2304
  752MOL0     H 3733   8.698   9.752   9.192  0.8795  2.6825  0.8844
  752MOL0     H 3734   8.745   9.682   9.009  0.1242  1.1587 -0.9110
  752MOL0     H 3735   8.909   9.636   8.875  0.4586 -0.4547  1.3907
  752MOL0     H 3736   8.835   9.613   8.716 -1.0238  0.3371  0.4783
  752MOL0     H 3737   8.927   9.480   8.783 -0.7878 -0.6575  2.4247
  752MOL0     H 3738   8.428   9.270   8.396 -1.2318 -2.3772 -0.4579
  752MOL0     H 3739   8.470   9.135   8.211  1.3107  2.0488 -0.7342
  752MOL0     H 3740   8.518   8.971   8.052  1.1028  1.0894 -0.6351
  752MOL0     H 3741   8.658   9.075   8.060  2.7799 -0.1586  1.5777
  752MOL0     H 3742   8.798   8.877   8.010 -0.6759 -1.7265  1.0257
  752MOL0     H 3743   8.643   8.788   7.971 -2.6696  1.0502 -1.4299
  752MOL0     H 3744   8.726   9.027   7.818 -1.8130  1.4989  2.2987
  752MOL0     H 3745   8.572   8.956   7.825  0.5450  2.5770 -1.4091
  752MOL0     H 3746   8.676   8.724   7.745 -0.3656  0.7245  1.0402
  752MOL0     H 3747   8.819   8.817   7.722 -0.4235 -2.7741  0.9883
  752MOL0     H 3748   8.534   8.864   7.601  0.0309 -2.1082 -1.4194
  752MOL0     H 3749   8.669   8.987   7.582  1.3867 -0.7074 -2.0511
  752MOL0     H 3750   8.673   8.691   7.504  3.7006 -0.5027 -1.0096
  752MOL0     H 3751   8.804   8.806   7.488 -0.9110  1.7823 -0.6211
  752MOL0     H 3752   8.682   8.782   7.270  2.0927  0.8195  1.2912
  752MOL0     H 3753   8.643   8.947   7.339  6.2973  0.5059 -1.6502
  752MOL0     H 3754   8.424   8.852   7.412  0.7295 -0.3823 -0.1464
  752MOL0     H 3755   8.470   8.689   7.382 -1.5921 -0.8700 -1.1872
  752MOL0     H 3756   8.746   8.918   8.470  0.5524  3.0738  2.7910
  752MOL0     H 3757   8.737   9.082   8.617  1.2325 -0.7616 -1.2647
  752MOL0     H 3758   8.452   9.335   8.833  1.2883 -2.7960  3.4343
  752MOL0     H 3759   8.376   9.497   9.024 -0.3215 -1.1957 -0.2447
  752MOL0     H 3760   9.708  10.029  10.063  0.0552  1.3013 -1.1993
  752MOL0     H 3761   9.860  10.233  10.131  0.1280  3.7572  1.7101
  752MOL0     H 3762  10.059  10.551  10.112 -1.3076  1.3873 -0.2879
  752MOL0     H 3763  10.251  10.687  10.165  0.8530 -0.7889  0.6042
  752MOL0     H 3764  10.439  10.777  10.290  1.4855  0.9099 -3.5062
  752MOL0     H 3765  10.319  10.886  10.224  3.5572 -1.0275 -1.5358
  752MOL0     H 3766  10.371  11.050  10.438  2.0985  0.2612  2.4894
  752MOL0     H 3767  10.476  11.046  10.297  1.6827  0.3654  2.1326
  752MOL0     H 3768  10.508  10.887  10.545  0.1313 -1.7017 -1.7048
  752MOL0     H 3769  10.633  10.889  10.416  0.2713 -0.1079  1.2681
  752MOL0     H 3770  10.584  11.101  10.621  3.2409  0.7796  1.9116
  752MOL0     H 3771  10.665  11.140  10.470  3.2456  1.4140  3.4306
  752MOL0     H 3772  10.967  10.988  10.684  0.9311 -1.8697 -2.3895
  752MOL0     H 3773  10.047  10.769  10.555 -1.3540  1.4250 -0.1790
  752MOL0     H 3774   9.742  10.606  10.467  1.6878 -2.0374 -1.4594
  752MOL0     H 3775   9.844  10.532  10.591 -3.8900 -1.0968  0.6818
  752MOL0     H 3776   9.825  10.708  10.588 -1.2814  0.2138 -0.8776
  753MOL0     O 3777   0.839   7.997   7.050  0.1236 -0.3608 -0.1641
  753MOL0     C 3778   0.797   7.893   7.006 -1.3505 -0.2689 -0.2037
  753MOL0     O 3779   0.782   7.867   6.875 -1.3416  0.7298  0.7766
  753MOL0     C 3780   0.782   7.969   6.780  0.7416 -0.8785 -0.5300
  753MOL0     C 3781   0.680   7.962   6.688  0.0969 -0.4035 -0.6542
  753MOL0     C 3782   0.676   8.052   6.579  0.2293 -0.3502 -0.3936
  753MOL0     C 3783   0.769   8.159   6.562  0.5286 -0.5811  0.7040
  753MOL0     O 3784   0.727   8.247   6.463 -0.1572  0.1141  0.2853
  753MOL0     C 3785   0.800   8.366   6.456  0.2294 -0.4947 -0.1265
  753MOL0     C 3786   0.821   8.398   6.306  0.1514 -0.3628  1.3388
  753MOL0     C 3787   0.712   8.416   6.197 -1.0256  0.2041 -0.2274
  753MOL0     C 3788   0.603   8.314   6.202 -0.4405  0.3109  0.3168
  753MOL0     C 3789   0.507   8.338   6.081  0.2813  0.0459 -0.4875
  753MOL0     C 3790   0.428   8.216   6.034  0.5617 -0.2988 -0.1612
  753MOL0     C 3791   0.326   8.167   6.139  0.1888 -0.3263 -0.1970
  753MOL0     C 3792   0.245   8.051   6.075 -0.5554 -0.0179  0.5738
  753MOL0     N 3793   0.318   7.924   6.078 -0.0828  0.0719 -0.8764
  753MOL0     C 3794   0.348   7.854   6.196 -0.8816 -0.2426 -0.7596
  753MOL0     C 3795   0.366   7.724   6.146 -0.0964 -0.3014  0.1536
  753MOL0     C 3796   0.385   7.595   6.218 -0.2545 -0.4351 -0.7891
  753MOL0     C 3797   0.533   7.568   6.242  0.5981  0.4763 -0.9677
  753MOL0     C 3798   0.565   7.419   6.274  0.6837  0.6812  0.7646
  753MOL0     C 3799   0.543   7.335   6.151 -0.4718 -0.6712 -0.4968
  753MOL0     O 3800   0.613   7.215   6.159 -0.2641 -0.1522 -0.1735
  753MOL0     C 3801   0.592   7.131   6.056  0.2254  0.5845  0.1695
  753MOL0     C 3802   0.650   6.999   6.056 -0.2946  0.6069 -0.3708
  753MOL0     C 3803   0.656   6.910   5.948  2.2001  0.7617  0.0561
  753MOL0     C 3804   0.732   6.791   5.978  0.2228 -0.0016 -0.0800
  753MOL0     C 3805   0.581   6.945   5.831 -0.5776 -0.6568 -0.3162
  753MOL0     C 3806   0.572   6.862   5.703 -0.5693  0.0073 -0.2849
  753MOL0     O 3807   0.536   6.932   5.579 -0.7629  0.4192 -0.0058
  753MOL0     C 3808   0.467   6.869   5.476  0.0728 -0.8910  1.1359
  753MOL0     C 3809   0.455   6.946   5.351  0.2852 -0.1321 -0.4757
  753MOL0     C 3810   0.379   6.895   5.245  0.4001  0.4893  0.7562
  753MOL0     C 3811   0.316   6.769   5.246 -0.5966  0.1244  0.6738
  753MOL0     O 3812   0.254   6.713   5.145 -1.3658  0.1797 -0.4221
  753MOL0     C 3813   0.259   6.782   5.015  0.6910  0.0629 -0.2936
  753MOL0     C 3814   0.223   6.688   4.897  0.6133 -0.8324  0.0863
  753MOL0     C 3815   0.082   6.635   4.910 -0.6910 -0.8427  0.9554
  753MOL0     C 3816   0.053   6.535   4.797 -0.2119  0.8556 -0.8620
  753MOL0     C 3817  -0.083   6.471   4.808 -0.4662 -0.3441  0.1117
  753MOL0     C 3818  -0.088   6.364   4.917  0.0105  0.9811  0.3225
  753MOL0     C 3819  -0.216   6.282   4.928 -0.3459  0.1899  0.1701
  753MOL0     C 3820  -0.300   6.335   5.035 -1.0727 -0.2484  0.7464
  753MOL0    Cl 3821  -0.460   6.268   4.999 -0.0375 -0.4973 -0.0487
  753MOL0     C 3822   0.328   6.690   5.366 -0.4127  0.6172  0.2541
  753MOL0     C 3823   0.395   6.743   5.479 -0.2210 -0.0787  0.4331
  753MOL0     O 3824   0.588   6.735   5.717 -0.0279 -1.0500  0.9899
  753MOL0     C 3825   0.519   7.070   5.829  0.4192  0.6359 -0.4521
  753MOL0     C 3826   0.518   7.158   5.939 -0.8682 -0.9879  1.2792
  753MOL0     N 3827   0.357   7.724   6.007 -0.6295  0.5853 -1.3446
  753MOL0     N 3828   0.327   7.843   5.965  0.0827 -0.2085 -0.3723
  753MOL0     C 3829   0.873   8.175   6.656  0.2860 -0.8482 -0.1644
  753MOL0     C 3830   0.874   8.082   6.767  0.1828 -0.1275 -0.0796
  753MOL0     C 3831   0.770   7.782   7.106 -0.2758 -0.3038 -0.0911
  753MOL0     C 3832   0.789   7.807   7.241 -0.6513  0.1877 -0.7752
  753MOL0     C 3833   0.767   7.707   7.341 -0.5066 -0.3091 -0.6997
  753MOL0     C 3834   0.732   7.581   7.299 -0.4436  0.3372  0.2462
  753MOL0     O 3835   0.702   7.481   7.388  0.4954 -0.8172 -0.6750
  753MOL0     C 3836   0.778   7.480   7.513 -0.7730  0.3330  0.6579
  753MOL0     C 3837   0.687   7.535   7.639 -0.5222 -0.4884  0.4649
  753MOL0     C 3838   0.579   7.436   7.666 -0.5935 -0.8109  0.0453
  753MOL0     C 3839   0.507   7.475   7.791 -0.6743  0.3292 -1.8369
  753MOL0     C 3840   0.409   7.376   7.848 -0.0198 -0.5126  0.2071
  753MOL0     C 3841   0.340   7.290   7.899  0.5279 -0.3686 -0.3327
  753MOL0     C 3842   0.699   7.555   7.167 -0.7972  0.2979 -0.4703
  753MOL0     C 3843   0.727   7.654   7.069  0.4951 -0.3614 -0.2099
  753MOL0     C 3844   0.717   7.613   6.928 -0.0106 -0.3644  0.0270
  753MOL0     H 3845   0.604   7.884   6.685 -0.1315 -0.1714 -2.8562
  753MOL0     H 3846   0.602   8.049   6.500 -0.0804 -2.6614 -0.0749
  753MOL0     H 3847   0.904   8.358   6.487  0.1692  1.2804  0.6712
  753MOL0     H 3848   0.751   8.451   6.504 -0.2216 -0.4721 -0.6064
  753MOL0     H 3849   0.882   8.489   6.310 -0.4001  0.0092  1.3068
  753MOL0     H 3850   0.892   8.318   6.283  1.9560  0.6676  3.0055
  753MOL0     H 3851   0.660   8.508   6.223 -1.4080  1.0214 -3.5011
  753MOL0     H 3852   0.752   8.433   6.097  2.0016  2.1035  1.1757
  753MOL0     H 3853   0.645   8.213   6.202 -1.9030 -0.3661  2.1664
  753MOL0     H 3854   0.545   8.312   6.295 -0.0918  0.3970  0.5384
  753MOL0     H 3855   0.567   8.368   5.995  1.6471 -3.1449 -0.7874
  753MOL0     H 3856   0.447   8.427   6.104  3.2366  2.7892 -2.5279
  753MOL0     H 3857   0.359   8.241   5.953 -1.9417  0.8028  2.1565
  753MOL0     H 3858   0.502   8.137   6.016  0.0255 -0.8130 -0.1426
  753MOL0     H 3859   0.253   8.242   6.173  0.3915 -1.5900  3.5138
  753MOL0     H 3860   0.387   8.127   6.221  1.1971 -2.0989 -1.7531
  753MOL0     H 3861   0.148   8.048   6.126 -0.1620  0.0074  1.3212
  753MOL0     H 3862   0.220   8.084   5.973 -0.4017  2.0543  1.1600
  753MOL0     H 3863   0.356   7.894   6.296  1.4080  0.3607 -1.1364
  753MOL0     H 3864   0.338   7.513   6.162 -1.2419  0.5306 -1.4039
  753MOL0     H 3865   0.359   7.611   6.323 -3.0616  0.5375 -1.5393
  753MOL0     H 3866   0.605   7.605   6.168  1.7488  2.5042  1.0282
  753MOL0     H 3867   0.563   7.629   6.327 -1.3097  0.6061 -0.3552
  753MOL0     H 3868   0.671   7.404   6.297  0.7043 -3.5583 -1.0904
  753MOL0     H 3869   0.490   7.387   6.347  0.3704 -0.0221  0.1500
  753MOL0     H 3870   0.435   7.318   6.143 -1.4955  3.5088  1.5686
  753MOL0     H 3871   0.576   7.400   6.069  4.2751 -1.6148  0.3633
  753MOL0     H 3872   0.710   6.972   6.142  0.8158  2.3575 -0.5423
  753MOL0     H 3873   0.675   6.698   5.976 -0.8168  0.6269 -1.0607
  753MOL0     H 3874   0.792   6.787   6.070 -0.0733 -2.2938  0.0480
  753MOL0     H 3875   0.806   6.786   5.897 -0.3978  0.6933 -0.7124
  753MOL0     H 3876   0.497   7.046   5.357 -0.3235  0.0633  0.9247
  753MOL0     H 3877   0.364   6.958   5.158 -1.0139 -2.5897 -1.3841
  753MOL0     H 3878   0.178   6.855   5.009 -0.9280 -1.7190 -1.0247
  753MOL0     H 3879   0.351   6.836   4.991  0.0991  0.7589 -1.0541
  753MOL0     H 3880   0.224   6.744   4.803 -0.2389  0.0547  0.5871
  753MOL0     H 3881   0.291   6.603   4.887  2.9380  0.8400  0.8767
  753MOL0     H 3882   0.010   6.717   4.901 -0.1035 -0.5757 -2.5352
  753MOL0     H 3883   0.070   6.592   5.010 -1.6189  3.9375  3.1943
  753MOL0     H 3884   0.132   6.461   4.780 -0.7745  0.4640 -1.8158
  753MOL0     H 3885   0.062   6.585   4.701  0.1318 -0.8146 -1.7302
  753MOL0     H 3886  -0.170   6.536   4.824 -1.1469 -1.2824  0.3309
  753MOL0     H 3887  -0.112   6.429   4.711  0.3918  0.2322 -0.4057
  753MOL0     H 3888  -0.062   6.405   5.014  1.0225 -0.6405  0.7833
  753MOL0     H 3889  -0.007   6.295   4.890 -0.3655  0.9034 -0.6391
  753MOL0     H 3890  -0.187   6.178   4.943 -1.0335  0.0590  0.6680
  753MOL0     H 3891  -0.263   6.297   4.831  1.1615  0.9267 -0.4773
  753MOL0     H 3892  -0.310   6.444   5.031  1.2808  0.0534  1.5235
  753MOL0     H 3893  -0.262   6.307   5.134  4.4988 -0.0960 -1.0455
  753MOL0     H 3894   0.300   6.587   5.383  0.4913  0.6506  2.3083
  753MOL0     H 3895   0.400   6.682   5.568  3.5782 -1.0521 -0.2674
  753MOL0     H 3896   0.482   7.096   5.730 -1.9304 -0.7020  0.0027
  753MOL0     H 3897   0.474   7.255   5.921  2.1240  0.2245 -0.3565
  753MOL0     H 3898   0.942   8.258   6.661 -2.0157  1.1593 -0.3744
  753MOL0     H 3899   0.955   8.083   6.839  1.1528  2.2238 -1.1124
  753MOL0     H 3900   0.831   7.899   7.281 -0.2496 -1.1521  2.1602
  753MOL0     H 3901   0.770   7.743   7.443  1.9843  0.4307 -0.9653
  753MOL0     H 3902   0.811   7.379   7.540 -0.8924  0.9047  3.2022
  753MOL0     H 3903   0.872   7.535   7.508  1.4108 -3.1176 -0.3543
  753MOL0     H 3904   0.642   7.633   7.621  0.6524  0.5833  2.8171
  753MOL0     H 3905   0.748   7.545   7.729 -0.1600  0.5920  0.1168
  753MOL0     H 3906   0.503   7.431   7.588 -0.4896 -0.6244 -0.0678
  753MOL0     H 3907   0.616   7.337   7.694 -0.6190 -0.4894  1.2792
  753MOL0     H 3908   0.462   7.573   7.776  0.2249  0.6260 -2.7240
  753MOL0     H 3909   0.582   7.500   7.867  0.7082 -0.0531 -3.0239
  753MOL0     H 3910   0.288   7.217   7.958 -3.6508  3.5131  1.4064
  753MOL0     H 3911   0.677   7.453   7.138  2.2309 -0.2106 -1.2990
  753MOL0     H 3912   0.639   7.670   6.876 -1.0940 -0.9346  0.9523
  753MOL0     H 3913   0.813   7.631   6.880 -1.8484  4.4322 -2.4482
  753MOL0     H 3914   0.695   7.506   6.921  0.6131 -0.7780  3.0204
  754MOL0     O 3915   4.458   3.328   8.114  0.1348 -0.7592 -0.9212
  754MOL0     C 3916   4.400   3.439   8.122  0.7681  0.8424  0.0327
  754MOL0     O 3917   4.302   3.493   8.032 -0.8055  0.3472 -0.4504
  754MOL0     C 3918   4.247   3.406   7.935  0.5091  0.8252 -0.1969
  754MOL0     C 3919   4.261   3.450   7.807  0.0720  0.3324  0.8881
  754MOL0     C 3920   4.200   3.379   7.698  0.5586 -0.0208 -0.0900
  754MOL0     C 3921   4.131   3.258   7.719 -1.1981 -0.5758 -0.1932
  754MOL0     O 3922   4.073   3.166   7.629 -0.0731 -0.1974 -0.4984
  754MOL0     C 3923   4.104   3.183   7.494 -0.2868  0.3860  0.0982
  754MOL0     C 3924   4.059   3.068   7.416  0.3081  0.8331 -0.8511
  754MOL0     C 3925   4.067   3.100   7.264 -0.7203  0.9490  0.1845
  754MOL0     C 3926   4.181   3.018   7.199  0.2478 -0.5991 -0.0142
  754MOL0     C 3927   4.135   2.877   7.151 -0.0938 -0.1334  0.5970
  754MOL0     C 3928   4.266   2.810   7.092  0.3032  0.4422  0.2141
  754MOL0     C 3929   4.245   2.661   7.076 -1.0249 -0.4563  0.6219
  754MOL0     C 3930   4.353   2.572   7.017  0.1802 -0.2808  0.2965
  754MOL0     N 3931   4.309   2.425   7.003 -0.8765 -0.1538  0.7837
  754MOL0     C 3932   4.235   2.355   6.910 -0.3269 -0.4795 -1.1188
  754MOL0     C 3933   4.265   2.227   6.931 -0.3326 -0.2144  1.0365
  754MOL0     C 3934   4.220   2.107   6.846 -1.0194 -0.4934  0.6454
  754MOL0     C 3935   4.264   1.976   6.913 -0.8164  0.2302 -1.5066
  754MOL0     C 3936   4.198   1.854   6.855  0.7241 -0.5343 -0.3852
  754MOL0     C 3937   4.258   1.808   6.728 -1.2241  1.1923 -0.1745
  754MOL0     O 3938   4.180   1.700   6.670  0.4564  0.4038 -0.5073
  754MOL0     C 3939   4.068   1.731   6.597 -0.3772 -0.7989 -0.2475
  754MOL0     C 3940   3.995   1.861   6.601 -0.4499 -0.3681  0.7519
  754MOL0     C 3941   3.890   1.881   6.512  0.6752 -0.8894 -1.6304
  754MOL0     C 3942   3.827   2.019   6.527 -0.0513  0.2272  0.0805
  754MOL0     C 3943   3.849   1.783   6.426  0.3882  0.0092  0.5061
  754MOL0     C 3944   3.754   1.800   6.313  0.3517  0.7260 -0.0576
  754MOL0     O 3945   3.712   1.687   6.260  0.5738 -0.5636  0.8901
  754MOL0     C 3946   3.635   1.677   6.145  0.5868  0.6953  2.1332
  754MOL0     C 3947   3.623   1.546   6.093 -0.5368  0.0586  0.8590
  754MOL0     C 3948   3.546   1.511   5.979 -0.0674 -0.5425 -1.0308
  754MOL0     C 3949   3.467   1.611   5.911  0.5938  0.9541 -0.0564
  754MOL0     O 3950   3.396   1.595   5.791 -0.2449  0.8948 -0.5002
  754MOL0     C 3951   3.325   1.471   5.771 -0.1864  0.6450 -0.3225
  754MOL0     C 3952   3.246   1.476   5.642 -0.3611 -0.2534 -0.5357
  754MOL0     C 3953   3.334   1.525   5.536  0.3925  0.2215 -0.1180
  754MOL0     C 3954   3.292   1.473   5.403 -0.5074  0.0242  0.3865
  754MOL0     C 3955   3.412   1.501   5.307  0.8971  0.1020  0.1772
  754MOL0     C 3956   3.372   1.430   5.177  0.1392 -0.2334 -0.5412
  754MOL0     C 3957   3.483   1.436   5.073 -1.3264  0.5877  0.4563
  754MOL0     C 3958   3.487   1.324   4.973 -0.4083  0.3162  0.1530
  754MOL0    Cl 3959   3.613   1.337   4.856 -0.0461  0.0414 -0.5975
  754MOL0     C 3960   3.468   1.732   5.969  1.0892  0.0471 -0.6020
  754MOL0     C 3961   3.562   1.775   6.072  0.4025 -0.8313  0.0574
  754MOL0     O 3962   3.718   1.913   6.281 -0.2858 -0.1232  0.1323
  754MOL0     C 3963   3.924   1.665   6.419  0.1369 -0.3662 -0.0716
  754MOL0     C 3964   4.022   1.634   6.506 -1.2677 -0.1411 -0.4167
  754MOL0     N 3965   4.349   2.217   7.042 -0.4354  0.3438  0.7234
  754MOL0     N 3966   4.370   2.339   7.082  0.2248  0.8013  1.2183
  754MOL0     C 3967   4.120   3.215   7.848 -0.0128 -0.4379  0.7443
  754MOL0     C 3968   4.187   3.279   7.956  0.0418  0.2714  0.3406
  754MOL0     C 3969   4.446   3.522   8.236 -0.0401  0.9659 -0.1561
  754MOL0     C 3970   4.338   3.563   8.319 -0.1467 -0.7821 -0.3037
  754MOL0     C 3971   4.366   3.652   8.420  0.3356 -0.8372 -0.2440
  754MOL0     C 3972   4.497   3.704   8.446  0.0160 -0.1067  0.3370
  754MOL0     O 3973   4.518   3.790   8.548  0.6439 -0.4141 -0.3184
  754MOL0     C 3974   4.632   3.872   8.530  1.1218 -0.4973 -0.6959
  754MOL0     C 3975   4.640   3.964   8.408  0.4437  0.1929  0.8469
  754MOL0     C 3976   4.777   4.044   8.411 -0.3800  0.1909  0.8961
  754MOL0     C 3977   4.789   4.119   8.281  0.6002  0.6835  0.5954
  754MOL0     C 3978   4.918   4.174   8.260 -0.3360  0.6665  0.2518
  754MOL0     C 3979   5.029   4.213   8.247  0.2568 -0.0987 -0.7120
  754MOL0     C 3980   4.605   3.651   8.369  0.3764 -0.4658  0.2985
  754MOL0     C 3981   4.586   3.556   8.266  0.1945  0.0933  0.7153
  754MOL0     C 3982   4.711   3.483   8.206  0.2742 -0.0685 -0.0168
  754MOL0     H 3983   4.327   3.535   7.791  0.7338 -0.7163 -2.9977
  754MOL0     H 3984   4.206   3.430   7.602  2.9516  1.1057  0.5793
  754MOL0     H 3985   4.213   3.197   7.488 -0.3202  0.2184 -1.1837
  754MOL0     H 3986   4.058   3.278   7.463  0.8339  1.0047  0.2471
  754MOL0     H 3987   4.126   2.984   7.435  0.1510  0.7333 -0.7310
  754MOL0     H 3988   3.956   3.047   7.446  0.1203  2.4181 -0.2998
  754MOL0     H 3989   3.970   3.066   7.227  0.1189 -1.2959 -0.1215
  754MOL0     H 3990   4.081   3.205   7.237 -0.5652  0.4179 -2.0071
  754MOL0     H 3991   4.203   3.074   7.107 -0.6645 -0.0364  0.0886
  754MOL0     H 3992   4.266   3.018   7.267  0.4980  1.0587 -0.2775
  754MOL0     H 3993   4.050   2.884   7.083  0.9025  0.6439 -0.6194
  754MOL0     H 3994   4.101   2.821   7.238 -0.3314 -0.0383  0.5648
  754MOL0     H 3995   4.279   2.846   6.989 -1.0282 -1.9110 -0.8462
  754MOL0     H 3996   4.356   2.835   7.149  1.3585  1.1567 -1.6551
  754MOL0     H 3997   4.167   2.646   7.002  0.8129  0.5081 -1.6378
  754MOL0     H 3998   4.214   2.637   7.178 -0.1287 -0.2828  0.9492
  754MOL0     H 3999   4.385   2.597   6.916  0.4159 -2.4272 -0.2096
  754MOL0     H 4000   4.446   2.590   7.072  0.0173  1.7359  0.0005
  754MOL0     H 4001   4.168   2.396   6.834  0.7393  2.3805 -0.6696
  754MOL0     H 4002   4.260   2.117   6.744 -0.4835 -1.7376  0.7132
  754MOL0     H 4003   4.112   2.116   6.832 -0.8093 -1.5209 -2.3508
  754MOL0     H 4004   4.373   1.971   6.905 -0.2694  3.1374  1.6552
  754MOL0     H 4005   4.252   1.987   7.021 -0.5624 -2.4688 -1.1428
  754MOL0     H 4006   4.211   1.777   6.932 -1.5835  0.9726  1.6605
  754MOL0     H 4007   4.091   1.872   6.843  0.6252 -0.4873  0.5139
  754MOL0     H 4008   4.277   1.893   6.661 -2.3465  3.3137  2.0491
  754MOL0     H 4009   4.354   1.766   6.756 -1.5576 -0.5977 -1.5312
  754MOL0     H 4010   4.025   1.953   6.651 -1.5062  0.8658 -0.7827
  754MOL0     H 4011   3.722   2.005   6.554  0.4475  0.5000  2.3659
  754MOL0     H 4012   3.840   2.083   6.440 -0.2498 -0.5615 -0.5446
  754MOL0     H 4013   3.857   2.074   6.617  1.6730  1.1590 -0.9882
  754MOL0     H 4014   3.678   1.476   6.155  0.8629  2.0417  1.9694
  754MOL0     H 4015   3.545   1.412   5.935  0.9323 -0.4924 -1.2009
  754MOL0     H 4016   3.397   1.391   5.756 -2.2479 -1.1730 -1.0664
  754MOL0     H 4017   3.256   1.454   5.855 -0.9028  2.8300 -0.4064
  754MOL0     H 4018   3.223   1.370   5.625 -1.5071 -0.6544  2.8115
  754MOL0     H 4019   3.154   1.535   5.648 -2.7333 -3.7629  0.4404
  754MOL0     H 4020   3.433   1.486   5.563 -1.1382 -5.5013 -1.5106
  754MOL0     H 4021   3.337   1.634   5.522  1.7049  0.4654  1.7201
  754MOL0     H 4022   3.204   1.532   5.379 -1.6423 -1.1504  1.4853
  754MOL0     H 4023   3.275   1.365   5.413 -1.8341  0.1767 -0.0063
  754MOL0     H 4024   3.425   1.610   5.307  0.9898  0.0962 -0.8745
  754MOL0     H 4025   3.501   1.455   5.353 -0.0271 -4.1040 -1.7560
  754MOL0     H 4026   3.290   1.492   5.139  2.2096  1.1076 -3.1358
  754MOL0     H 4027   3.335   1.330   5.201  0.6055  0.0265  1.4681
  754MOL0     H 4028   3.582   1.435   5.121 -0.9516  0.8554 -0.2877
  754MOL0     H 4029   3.482   1.534   5.025  0.6442 -0.4730 -2.0582
  754MOL0     H 4030   3.389   1.311   4.924 -1.0141  2.5649  0.6320
  754MOL0     H 4031   3.501   1.234   5.033  0.0606 -0.1096 -0.5714
  754MOL0     H 4032   3.394   1.808   5.947 -2.8798 -1.7154  4.7268
  754MOL0     H 4033   3.560   1.882   6.092 -1.2495 -0.8922  0.3578
  754MOL0     H 4034   3.903   1.585   6.349  0.2445  0.5612 -1.1869
  754MOL0     H 4035   4.090   1.551   6.484  1.2817  1.8519 -0.5379
  754MOL0     H 4036   4.055   3.134   7.880 -0.1716 -0.7839 -0.4156
  754MOL0     H 4037   4.186   3.233   8.054  0.9652  0.9201  0.6782
  754MOL0     H 4038   4.240   3.523   8.296 -0.3288  0.0645 -1.0773
  754MOL0     H 4039   4.285   3.683   8.484  2.3813 -0.9563  2.6123
  754MOL0     H 4040   4.623   3.939   8.615 -0.5096  2.3595 -2.9487
  754MOL0     H 4041   4.716   3.805   8.550  1.7788  0.4879 -0.1281
  754MOL0     H 4042   4.552   4.029   8.409 -0.5467 -1.1043  2.5378
  754MOL0     H 4043   4.628   3.900   8.320 -2.0681 -2.3035  2.8252
  754MOL0     H 4044   4.784   4.110   8.498 -0.1403  2.2651 -0.6284
  754MOL0     H 4045   4.857   3.970   8.413 -3.8241 -4.0398 -0.8571
  754MOL0     H 4046   4.710   4.193   8.267 -1.0152 -1.1476 -0.5554
  754MOL0     H 4047   4.783   4.044   8.201 -0.3288  0.6624  0.6652
  754MOL0     H 4048   5.132   4.239   8.229  0.7004 -1.5369 -0.3200
  754MOL0     H 4049   4.708   3.680   8.386  0.2970  0.0463 -0.0842
  754MOL0     H 4050   4.727   3.535   8.111 -1.6495  0.9400  0.1649
  754MOL0     H 4051   4.799   3.497   8.269 -0.5996  2.8080  0.7466
  754MOL0     H 4052   4.703   3.375   8.195 -1.3700 -0.4751  3.6677
  755MOL0     O 4053   8.941   8.034   6.551  0.0505 -0.0845  0.2503
  755MOL0     C 4054   8.919   8.074   6.663 -0.1260  0.6215 -0.2073
  755MOL0     O 4055   8.983   8.169   6.731  0.3404  0.0523 -0.5323
  755MOL0     C 4056   9.094   8.231   6.688  0.1714  0.2121 -0.2346
  755MOL0     C 4057   9.204   8.157   6.642  0.8723  0.4412 -0.3345
  755MOL0     C 4058   9.299   8.230   6.601 -1.4868  0.3243  0.0914
  755MOL0     C 4059   9.310   8.367   6.594  0.5608 -0.1362  0.7344
  755MOL0     O 4060   9.417   8.424   6.540 -0.1373 -0.2266 -0.6424
  755MOL0     C 4061   9.427   8.568   6.531  0.7815  0.3789 -0.4878
  755MOL0     C 4062   9.552   8.614   6.452 -0.1659  0.2217 -0.6302
  755MOL0     C 4063   9.538   8.755   6.419 -0.3959 -0.5577  0.6083
  755MOL0     C 4064   9.650   8.820   6.328 -0.0486 -0.3403  0.2214
  755MOL0     C 4065   9.782   8.786   6.373 -0.4228 -0.3551  0.5227
  755MOL0     C 4066   9.893   8.844   6.299  0.3475 -0.6463  0.5627
  755MOL0     C 4067  10.020   8.828   6.386 -0.5715  0.2224  0.3438
  755MOL0     C 4068  10.127   8.934   6.333 -0.4473 -0.1960 -0.5449
  755MOL0     N 4069  10.171   8.877   6.206 -0.1221  0.2287 -0.1589
  755MOL0     C 4070  10.234   8.768   6.173 -0.0031  0.2412  0.1983
  755MOL0     C 4071  10.268   8.767   6.043  0.1552 -0.4481  0.3758
  755MOL0     C 4072  10.360   8.673   5.958  0.0437 -0.3931 -0.1354
  755MOL0     C 4073  10.318   8.532   5.960  0.0610  0.6719 -0.0011
  755MOL0     C 4074  10.375   8.444   6.069  0.7354  0.1829 -0.0372
  755MOL0     C 4075  10.343   8.296   6.066 -0.1359  0.2921 -0.5109
  755MOL0     O 4076  10.203   8.268   6.115  0.6185 -0.2177  0.6731
  755MOL0     C 4077  10.095   8.276   6.018  0.3935 -1.4734 -0.8310
  755MOL0     C 4078   9.980   8.358   6.049 -0.4888  0.2248 -0.1296
  755MOL0     C 4079   9.873   8.359   5.958  0.3573  0.1347 -1.2955
  755MOL0     C 4080   9.762   8.454   5.994 -0.5013  0.5580  0.4641
  755MOL0     C 4081   9.873   8.280   5.843  0.3087  0.5952 -0.3911
  755MOL0     C 4082   9.751   8.270   5.756 -0.4076 -0.1977  0.2759
  755MOL0     O 4083   9.674   8.384   5.742  0.9024  0.0648 -0.1768
  755MOL0     C 4084   9.569   8.396   5.657  1.2177 -0.7616 -0.1512
  755MOL0     C 4085   9.451   8.444   5.712 -1.0694 -0.0014  0.0688
  755MOL0     C 4086   9.331   8.458   5.639  0.3366  0.5514  1.0404
  755MOL0     C 4087   9.337   8.410   5.506  0.5591 -0.0279 -0.2478
  755MOL0     O 4088   9.235   8.411   5.416  0.4194 -0.5514  0.1518
  755MOL0     C 4089   9.146   8.517   5.441 -0.1189  1.0608 -0.8559
  755MOL0     C 4090   9.114   8.585   5.306  0.5862 -0.1928 -0.5306
  755MOL0     C 4091   9.005   8.505   5.230  0.2287 -0.3056 -0.3292
  755MOL0     C 4092   9.043   8.380   5.155 -0.0960 -0.5434  0.1334
  755MOL0     C 4093   8.928   8.330   5.071 -1.0371 -1.1655 -0.7470
  755MOL0     C 4094   8.940   8.190   5.010 -0.2605  0.3711  0.5772
  755MOL0     C 4095   8.816   8.142   4.940  0.0236 -0.0088  1.2481
  755MOL0     C 4096   8.771   8.205   4.804 -0.9394 -0.3661 -0.0978
  755MOL0    Cl 4097   8.875   8.194   4.676  0.0496  0.3529  0.2440
  755MOL0     C 4098   9.456   8.372   5.448 -0.5066 -0.9312  0.9165
  755MOL0     C 4099   9.577   8.369   5.520  0.6778 -0.3544  0.9832
  755MOL0     O 4100   9.744   8.161   5.701  0.1449  0.6143  0.3241
  755MOL0     C 4101   9.988   8.196   5.820 -0.1137 -0.0108  1.3756
  755MOL0     C 4102  10.103   8.195   5.903 -0.0349 -0.4358  0.9097
  755MOL0     N 4103  10.207   8.882   5.986 -0.1705  0.6909  0.6186
  755MOL0     N 4104  10.152   8.945   6.085  0.2757  0.6789  0.7116
  755MOL0     C 4105   9.188   8.439   6.631 -0.3633  0.5635 -0.5607
  755MOL0     C 4106   9.086   8.369   6.691 -0.1411 -0.4303  0.3526
  755MOL0     C 4107   8.806   8.022   6.734 -0.4395  0.2110 -0.1210
  755MOL0     C 4108   8.751   8.094   6.839  0.2763  0.5494  0.2606
  755MOL0     C 4109   8.638   8.053   6.910  0.0734 -0.5358 -1.7450
  755MOL0     C 4110   8.577   7.939   6.887 -0.0305  0.3843 -0.1552
  755MOL0     O 4111   8.463   7.899   6.952 -0.0228  0.3235 -0.1367
  755MOL0     C 4112   8.355   7.993   6.965 -1.2588 -0.5817 -0.0598
  755MOL0     C 4113   8.216   7.928   6.967  0.2821 -0.3906 -1.3563
  755MOL0     C 4114   8.204   7.842   7.093 -0.8648 -0.0154  0.1203
  755MOL0     C 4115   8.083   7.746   7.101 -0.1337  0.2415  0.4157
  755MOL0     C 4116   8.084   7.689   7.235 -0.0776 -0.1931 -0.5961
  755MOL0     C 4117   8.064   7.624   7.329  0.4753 -0.1846  0.3774
  755MOL0     C 4118   8.633   7.853   6.801 -0.5087 -0.1142 -0.1378
  755MOL0     C 4119   8.741   7.890   6.717 -0.8947  1.0279  0.0065
  755MOL0     C 4120   8.788   7.785   6.620 -0.5492 -0.4056  0.2523
  755MOL0     H 4121   9.209   8.049   6.633 -1.9490  0.4073 -2.8342
  755MOL0     H 4122   9.391   8.183   6.567 -1.9901 -0.3358 -0.3759
  755MOL0     H 4123   9.434   8.610   6.632 -0.6963  0.0162 -0.2178
  755MOL0     H 4124   9.335   8.594   6.480  0.6933  2.8524  0.7661
  755MOL0     H 4125   9.634   8.603   6.524 -0.4783 -0.1170 -0.3206
  755MOL0     H 4126   9.565   8.553   6.363 -2.5841 -0.4367 -0.5771
  755MOL0     H 4127   9.450   8.758   6.354  2.1222  0.4688 -3.0784
  755MOL0     H 4128   9.533   8.818   6.509 -0.4974  1.6367 -0.8699
  755MOL0     H 4129   9.635   8.783   6.226 -1.8255  2.5252 -0.6797
  755MOL0     H 4130   9.650   8.929   6.331  1.1590 -0.3010 -0.7225
  755MOL0     H 4131   9.793   8.679   6.358  0.2346 -0.1231 -0.8641
  755MOL0     H 4132   9.785   8.804   6.481 -1.4962 -2.3121  0.9212
  755MOL0     H 4133   9.895   8.808   6.196  0.2621 -0.5806  0.5377
  755MOL0     H 4134   9.876   8.952   6.307  0.4533 -0.7342  2.8600
  755MOL0     H 4135  10.063   8.729   6.365  0.5725  0.4675  1.3744
  755MOL0     H 4136   9.996   8.836   6.492 -1.8518 -1.5873  0.2367
  755MOL0     H 4137  10.090   9.036   6.319  0.4866  0.2500  0.1562
  755MOL0     H 4138  10.213   8.947   6.399 -0.5472 -0.1582 -0.4227
  755MOL0     H 4139  10.266   8.698   6.249 -2.1702 -1.3044 -0.2049
  755MOL0     H 4140  10.450   8.664   6.018 -1.6410 -2.7729  2.3017
  755MOL0     H 4141  10.381   8.714   5.858 -2.7519  1.4290 -0.0933
  755MOL0     H 4142  10.209   8.536   5.952 -0.0038  1.6204  1.1760
  755MOL0     H 4143  10.352   8.487   5.866 -0.9629  3.4867 -1.8440
  755MOL0     H 4144  10.484   8.453   6.075  0.8354 -1.0068  0.1309
  755MOL0     H 4145  10.337   8.480   6.166 -0.8453 -0.0834 -0.5292
  755MOL0     H 4146  10.366   8.270   5.962  0.7875 -2.3325  0.2937
  755MOL0     H 4147  10.410   8.233   6.124 -1.4932  0.2792  1.1289
  755MOL0     H 4148   9.974   8.414   6.141 -2.1770  1.2027 -0.7879
  755MOL0     H 4149   9.669   8.397   5.993 -0.5539  0.6444 -0.2506
  755MOL0     H 4150   9.750   8.531   5.917  2.2911  1.9268  1.2320
  755MOL0     H 4151   9.776   8.498   6.094 -2.9082 -0.6229  1.3839
  755MOL0     H 4152   9.449   8.476   5.816 -2.8021  1.5728 -0.3876
  755MOL0     H 4153   9.230   8.476   5.675 -2.5795 -3.8021 -3.5361
  755MOL0     H 4154   9.061   8.477   5.498  1.6557  0.8769  1.8364
  755MOL0     H 4155   9.198   8.599   5.493  2.2177 -1.0328  0.3108
  755MOL0     H 4156   9.079   8.687   5.321  1.3215 -0.0602  0.3505
  755MOL0     H 4157   9.207   8.578   5.250  1.1305  0.0580  0.3254
  755MOL0     H 4158   8.949   8.574   5.167  0.1092  0.2991  0.4105
  755MOL0     H 4159   8.939   8.483   5.315  0.2396  0.7937 -0.0134
  755MOL0     H 4160   9.078   8.310   5.231  4.2082 -0.0122 -1.1066
  755MOL0     H 4161   9.127   8.406   5.089  1.6350  3.3161  3.4141
  755MOL0     H 4162   8.835   8.322   5.127 -0.6376 -0.0132  0.1205
  755MOL0     H 4163   8.919   8.399   4.986 -1.9039 -1.9912 -1.3379
  755MOL0     H 4164   8.944   8.110   5.084 -0.5488  0.0327  0.2299
  755MOL0     H 4165   9.033   8.180   4.952 -0.6589 -2.5682  0.3079
  755MOL0     H 4166   8.735   8.162   5.011  0.3515 -0.1489  1.6644
  755MOL0     H 4167   8.830   8.039   4.906  1.9248  1.1154 -1.7826
  755MOL0     H 4168   8.752   8.309   4.832  1.2250 -0.2976  1.3223
  755MOL0     H 4169   8.680   8.150   4.777 -1.6479  0.2766  0.8732
  755MOL0     H 4170   9.477   8.347   5.344  0.2123  3.3734 -0.1456
  755MOL0     H 4171   9.663   8.321   5.474 -0.8456 -1.7340 -0.5797
  755MOL0     H 4172   9.983   8.147   5.724  1.6291  3.4254 -0.6568
  755MOL0     H 4173  10.187   8.133   5.877  0.7310  0.5665  0.9243
  755MOL0     H 4174   9.178   8.547   6.639 -4.3003  0.1529  3.3354
  755MOL0     H 4175   9.005   8.425   6.737  0.9845  1.5845 -0.0091
  755MOL0     H 4176   8.782   8.198   6.849  0.2384  0.6834 -0.9524
  755MOL0     H 4177   8.599   8.118   6.988 -0.3995 -2.1365 -0.5955
  755MOL0     H 4178   8.362   8.053   7.057 -3.5314 -0.4609  0.1099
  755MOL0     H 4179   8.348   8.058   6.877 -2.6701  0.7008  0.9204
  755MOL0     H 4180   8.198   7.870   6.876  2.5039 -1.0981 -1.4043
  755MOL0     H 4181   8.144   8.009   6.977  0.0338 -0.7856  0.5367
  755MOL0     H 4182   8.289   7.773   7.098 -1.6304 -1.0288 -0.5123
  755MOL0     H 4183   8.205   7.908   7.180 -1.5166 -1.6584  1.4179
  755MOL0     H 4184   8.091   7.672   7.020  0.4413  0.6977  0.0438
  755MOL0     H 4185   7.995   7.808   7.085  1.3881  2.6517  0.8297
  755MOL0     H 4186   8.043   7.564   7.415  1.7662 -1.5779 -0.2244
  755MOL0     H 4187   8.592   7.756   6.776 -4.1397  1.7532 -2.2128
  755MOL0     H 4188   8.792   7.826   6.518 -1.5018 -1.3291 -0.1789
  755MOL0     H 4189   8.895   7.763   6.621 -0.6624 -0.9709  0.5378
  755MOL0     H 4190   8.724   7.696   6.617  1.0915 -1.6091 -0.0109
  756MOL0     O 4191   8.012   2.280   4.363 -0.1742 -0.8248  0.2856
  756MOL0     C 4192   8.008   2.192   4.448  0.0909  0.9949 -0.1007
  756MOL0     O 4193   7.922   2.084   4.437  1.0074  0.4864 -0.5283
  756MOL0     C 4194   7.843   2.048   4.334  0.1322 -1.4276  0.2155
  756MOL0     C 4195   7.859   2.104   4.209  0.2675 -0.0905  1.0293
  756MOL0     C 4196   7.789   2.056   4.098 -0.3671  0.5102 -0.2517
  756MOL0     C 4197   7.690   1.961   4.111 -0.5587 -0.2223 -0.5779
  756MOL0     O 4198   7.606   1.940   4.006 -0.8997 -0.3400 -0.3251
  756MOL0     C 4199   7.466   1.962   4.040 -1.0235  0.0379  0.3840
  756MOL0     C 4200   7.381   1.943   3.912 -0.1625 -0.1540  0.8906
  756MOL0     C 4201   7.285   1.829   3.926  0.8377  0.3503  0.6375
  756MOL0     C 4202   7.191   1.849   4.047 -1.4909  0.3495 -0.0970
  756MOL0     C 4203   7.090   1.736   4.067 -0.3585  0.3023  0.1807
  756MOL0     C 4204   7.032   1.739   4.211  0.6525  0.0571  0.3830
  756MOL0     C 4205   6.933   1.628   4.232  0.6222  0.7569 -0.3621
  756MOL0     C 4206   6.879   1.635   4.371  1.1839 -0.1316 -0.5383
  756MOL0     N 4207   6.762   1.552   4.402 -0.0537  0.2414 -0.3522
  756MOL0     C 4208   6.751   1.418   4.437 -0.0251  0.0494 -0.5447
  756MOL0     C 4209   6.622   1.393   4.455  0.4442 -0.4989 -0.5279
  756MOL0     C 4210   6.566   1.265   4.466 -0.0202  0.0286 -0.4458
  756MOL0     C 4211   6.533   1.233   4.612  0.0173  0.7021  0.2082
  756MOL0     C 4212   6.431   1.112   4.609  0.5175 -0.5252 -0.7766
  756MOL0     C 4213   6.356   1.108   4.752  0.4623 -0.1900  0.4891
  756MOL0     O 4214   6.455   1.086   4.856 -0.0049 -0.2307  1.0930
  756MOL0     C 4215   6.402   1.068   4.981 -0.1513 -0.4827 -1.2966
  756MOL0     C 4216   6.274   1.066   5.028  0.3708  0.0917 -0.8955
  756MOL0     C 4217   6.244   1.033   5.162  0.1319 -0.4619 -0.3963
  756MOL0     C 4218   6.098   1.002   5.199  0.3163 -0.2118 -0.8452
  756MOL0     C 4219   6.351   1.007   5.261  0.1705 -0.9626  0.4212
  756MOL0     C 4220   6.345   0.984   5.399  0.3550  0.6862  0.0600
  756MOL0     O 4221   6.456   1.005   5.472 -0.1920  0.3077  0.7213
  756MOL0     C 4222   6.456   0.980   5.608 -0.5024 -0.1484 -0.5013
  756MOL0     C 4223   6.554   0.891   5.662  0.0934 -0.3918  0.7233
  756MOL0     C 4224   6.572   0.863   5.796 -0.7289  0.7095 -0.2894
  756MOL0     C 4225   6.482   0.924   5.890 -0.1869 -0.3712  0.5384
  756MOL0     O 4226   6.467   0.889   6.020 -0.7061 -0.4962 -0.1399
  756MOL0     C 4227   6.392   0.767   6.038 -0.2671  0.7287  0.1139
  756MOL0     C 4228   6.375   0.724   6.183 -0.1905  0.0405  0.5277
  756MOL0     C 4229   6.277   0.824   6.262 -0.3585 -0.3170 -0.4135
  756MOL0     C 4230   6.320   0.820   6.414 -0.1810 -0.7635 -0.3204
  756MOL0     C 4231   6.229   0.910   6.502 -0.3009  0.2323  0.1887
  756MOL0     C 4232   6.087   0.864   6.506 -0.3749  0.7348  0.5146
  756MOL0     C 4233   6.018   0.926   6.622  0.2696 -0.0983 -0.2924
  756MOL0     C 4234   5.872   0.899   6.606  0.8100  0.1009 -0.0211
  756MOL0    Cl 4235   5.823   0.991   6.459  0.4914 -0.2874  0.1167
  756MOL0     C 4236   6.374   1.004   5.834 -0.5621 -0.1684 -1.1925
  756MOL0     C 4237   6.379   1.041   5.696 -0.7494  0.6817  0.3595
  756MOL0     O 4238   6.233   0.955   5.442 -0.2268 -0.4121 -0.3092
  756MOL0     C 4239   6.484   1.015   5.213 -0.4669  0.4481  0.8066
  756MOL0     C 4240   6.499   1.038   5.079 -0.6457  0.0370 -0.4498
  756MOL0     N 4241   6.554   1.510   4.425 -1.0825  0.9074 -0.1528
  756MOL0     N 4242   6.637   1.601   4.383 -0.6817  0.0011 -0.1933
  756MOL0     C 4243   7.678   1.901   4.242  0.1966 -0.2648 -0.1377
  756MOL0     C 4244   7.758   1.943   4.345 -0.0355  0.5448  1.1013
  756MOL0     C 4245   8.094   2.190   4.571  0.2110 -0.3381  0.7717
  756MOL0     C 4246   8.105   2.075   4.650  0.4963 -0.1435  0.6169
  756MOL0     C 4247   8.198   2.068   4.754  0.6513 -0.9279 -0.5931
  756MOL0     C 4248   8.281   2.179   4.788 -0.1448 -0.1055 -1.0482
  756MOL0     O 4249   8.390   2.165   4.871  0.3628 -0.2321  0.1190
  756MOL0     C 4250   8.406   2.069   4.974 -0.0449  0.1665 -0.3923
  756MOL0     C 4251   8.525   2.114   5.054 -0.2367 -0.3797  0.0285
  756MOL0     C 4252   8.499   2.227   5.149  0.3437  0.3998  0.2209
  756MOL0     C 4253   8.629   2.263   5.225  0.3870 -0.5252 -0.3518
  756MOL0     C 4254   8.703   2.330   5.124 -1.4772 -0.5275 -0.3600
  756MOL0     C 4255   8.779   2.384   5.043 -0.8128  0.4178  0.7955
  756MOL0     C 4256   8.264   2.298   4.717 -1.1854 -0.1545  0.7954
  756MOL0     C 4257   8.174   2.309   4.605  0.0169 -0.4644  0.4161
  756MOL0     C 4258   8.188   2.435   4.520  0.5915 -0.7192 -0.3643
  756MOL0     H 4259   7.929   2.184   4.189 -0.0150  0.0205  0.4362
  756MOL0     H 4260   7.803   2.113   4.008 -1.9014  0.8199 -0.3199
  756MOL0     H 4261   7.456   2.063   4.082  0.4381 -0.9768  3.4775
  756MOL0     H 4262   7.448   1.886   4.117 -0.7515 -0.4006  0.0184
  756MOL0     H 4263   7.347   2.038   3.870  0.7036  0.1065  0.7525
  756MOL0     H 4264   7.440   1.906   3.827  1.1884 -2.2965  2.6380
  756MOL0     H 4265   7.224   1.816   3.835  0.2746 -0.9423  1.1658
  756MOL0     H 4266   7.345   1.738   3.936  2.3433  0.3220 -5.0666
  756MOL0     H 4267   7.242   1.857   4.144  0.9521 -1.1453 -1.1625
  756MOL0     H 4268   7.140   1.943   4.024  0.1524  1.4156  0.4562
  756MOL0     H 4269   7.149   1.646   4.050 -1.4376 -0.4736  0.4195
  756MOL0     H 4270   7.010   1.735   3.992 -2.5972 -0.5046  2.4366
  756MOL0     H 4271   7.117   1.730   4.279  0.3922  0.6221  0.7845
  756MOL0     H 4272   6.981   1.834   4.226  1.1896  0.2048  1.3565
  756MOL0     H 4273   6.987   1.534   4.218  0.1181  0.8579 -3.7592
  756MOL0     H 4274   6.850   1.631   4.161  1.6574 -1.3238 -1.7416
  756MOL0     H 4275   6.962   1.612   4.438  0.0059 -0.1923  0.9512
  756MOL0     H 4276   6.846   1.739   4.384  1.8606  0.0735 -0.4418
  756MOL0     H 4277   6.833   1.348   4.446  0.1333  0.1404 -1.1965
  756MOL0     H 4278   6.624   1.183   4.424 -1.2780 -0.2029 -1.8116
  756MOL0     H 4279   6.470   1.272   4.414 -0.4351 -2.3204 -0.0912
  756MOL0     H 4280   6.623   1.213   4.670  1.9870  2.9305 -1.8725
  756MOL0     H 4281   6.475   1.301   4.676  0.7160 -1.1637  2.9942
  756MOL0     H 4282   6.351   1.122   4.535 -0.4505  0.9738  0.4105
  756MOL0     H 4283   6.486   1.022   4.582  0.7295 -0.8630  0.6724
  756MOL0     H 4284   6.303   1.203   4.756  0.3528  0.0763 -3.5159
  756MOL0     H 4285   6.285   1.025   4.755 -0.7219  0.8238  1.1580
  756MOL0     H 4286   6.207   1.094   4.948  1.9069 -1.5492 -2.8599
  756MOL0     H 4287   6.096   0.908   5.255  0.7154  0.1926 -0.1354
  756MOL0     H 4288   6.029   0.989   5.115 -1.8305  3.1993  0.1489
  756MOL0     H 4289   6.064   1.081   5.267  1.5525 -0.1499 -0.2708
  756MOL0     H 4290   6.606   0.846   5.578 -2.2463 -0.9275 -0.4963
  756MOL0     H 4291   6.640   0.791   5.840 -0.6337  1.2810  0.5295
  756MOL0     H 4292   6.295   0.769   5.988 -2.5964 -3.4924  3.6350
  756MOL0     H 4293   6.446   0.683   5.993 -0.6923 -2.1529  4.3481
  756MOL0     H 4294   6.344   0.620   6.196 -2.9527  0.8583  0.9314
  756MOL0     H 4295   6.472   0.733   6.233 -0.2377 -1.0650  0.8568
  756MOL0     H 4296   6.173   0.793   6.251 -0.5700  1.1261 -3.2688
  756MOL0     H 4297   6.281   0.926   6.224  0.6382 -0.5834 -1.0851
  756MOL0     H 4298   6.418   0.864   6.437 -0.8358  0.0933  0.9424
  756MOL0     H 4299   6.330   0.720   6.456  2.7536  0.5868  2.7894
  756MOL0     H 4300   6.273   0.919   6.602  0.0831  0.3535  0.0099
  756MOL0     H 4301   6.230   1.003   6.445 -0.0229 -1.7666 -3.3652
  756MOL0     H 4302   6.094   0.760   6.541  2.2730  1.2667  1.7897
  756MOL0     H 4303   6.036   0.876   6.410 -0.4532 -0.1229  0.4412
  756MOL0     H 4304   6.027   1.035   6.624  1.7411 -0.1445 -2.0563
  756MOL0     H 4305   6.055   0.888   6.718  2.4531 -0.8831 -1.3807
  756MOL0     H 4306   5.822   0.937   6.696  2.5216 -0.3831  1.1752
  756MOL0     H 4307   5.839   0.795   6.600 -2.7902  1.1626 -0.8899
  756MOL0     H 4308   6.289   1.044   5.887 -0.7245 -1.3973 -0.5029
  756MOL0     H 4309   6.308   1.118   5.668 -0.8526  0.2636 -0.5624
  756MOL0     H 4310   6.571   0.994   5.274 -0.4970 -0.2958  0.6022
  756MOL0     H 4311   6.595   1.007   5.041  1.7035 -0.4866  4.9458
  756MOL0     H 4312   7.603   1.825   4.261 -0.2798 -0.1103 -1.2961
  756MOL0     H 4313   7.736   1.903   4.443 -2.9688 -0.2089  0.2455
  756MOL0     H 4314   8.044   1.987   4.630 -0.2039 -0.2195  2.8520
  756MOL0     H 4315   8.199   1.969   4.798 -0.7011 -0.3945  0.6952
  756MOL0     H 4316   8.316   2.069   5.035 -0.8558  0.4668 -1.5568
  756MOL0     H 4317   8.408   1.974   4.920  0.5632  0.2868 -0.5946
  756MOL0     H 4318   8.612   2.149   4.997 -0.1891  1.1294  0.9734
  756MOL0     H 4319   8.556   2.027   5.111  0.7730 -0.6509 -0.9052
  756MOL0     H 4320   8.457   2.312   5.093  0.2126 -1.0093 -1.9455
  756MOL0     H 4321   8.429   2.203   5.229  0.2406  3.6076  1.2608
  756MOL0     H 4322   8.680   2.172   5.257  2.1999 -0.5029 -2.8366
  756MOL0     H 4323   8.604   2.323   5.313  2.2249  0.2226 -0.2891
  756MOL0     H 4324   8.839   2.417   4.961 -1.6070 -1.6062 -0.6887
  756MOL0     H 4325   8.341   2.375   4.727  0.1240 -1.5618  2.1912
  756MOL0     H 4326   8.088   2.467   4.488  0.8463 -1.2501 -1.7372
  756MOL0     H 4327   8.243   2.517   4.568  1.5153 -1.6485  0.2133
  756MOL0     H 4328   8.229   2.416   4.421 -0.2733 -2.5418 -0.4140
  757MOL0     O 4329   3.343  10.479   2.242  0.0493  0.0140  0.8296
  757MOL0     C 4330   3.453  10.416   2.236  0.1062  0.2929 -0.3167
  757MOL0     O 4331   3.516  10.352   2.337  0.0590  0.2542 -0.5146
  757MOL0     C 4332   3.449  10.335   2.452  0.9074 -0.1854 -0.9545
  757MOL0     C 4333   3.480  10.408   2.574 -0.9936  0.0271  0.9302
  757MOL0     C 4334   3.413  10.381   2.692  0.5784 -0.1580 -0.1877
  757MOL0     C 4335   3.307  10.285   2.698  0.0494  0.4536  1.0557
  757MOL0     O 4336   3.229  10.257   2.806 -0.1063 -0.2353  0.4567
  757MOL0     C 4337   3.296  10.256   2.931 -1.2072 -0.5492  0.9833
  757MOL0     C 4338   3.190  10.245   3.042  0.2788  0.9743 -0.6492
  757MOL0     C 4339   3.052  10.255   2.994  0.3210 -0.3490 -0.1108
  757MOL0     C 4340   2.951  10.257   3.110 -0.2226 -0.2293 -0.3396
  757MOL0     C 4341   2.796  10.239   3.069  0.1435  0.5835  0.5786
  757MOL0     C 4342   2.733  10.360   3.005 -0.3271  0.1669 -0.1484
  757MOL0     C 4343   2.701  10.482   3.105  0.7915 -0.6606 -0.2847
  757MOL0     C 4344   2.574  10.549   3.060 -0.2825  0.6281 -0.8990
  757MOL0     N 4345   2.581  10.609   2.929  0.7807 -0.8274  0.4113
  757MOL0     C 4346   2.475  10.634   2.838  0.2311  0.2328 -0.5043
  757MOL0     C 4347   2.531  10.700   2.730  1.2648 -0.1208 -1.0370
  757MOL0     C 4348   2.457  10.736   2.608  0.2110 -0.0330  1.3544
  757MOL0     C 4349   2.407  10.612   2.531  1.9460  0.3726 -0.2413
  757MOL0     C 4350   2.516  10.510   2.476 -0.1719  0.9296 -0.1151
  757MOL0     C 4351   2.554  10.391   2.579  0.1130 -1.2520 -0.4107
  757MOL0     O 4352   2.438  10.310   2.592  0.5337  0.2951 -0.5194
  757MOL0     C 4353   2.416  10.277   2.717  0.4409  0.0268 -0.6368
  757MOL0     C 4354   2.306  10.332   2.784  0.2830  0.2331  0.2784
  757MOL0     C 4355   2.271  10.289   2.909 -0.5058  0.8143 -0.0315
  757MOL0     C 4356   2.151  10.361   2.975 -1.0714  0.2297  0.2879
  757MOL0     C 4357   2.357  10.193   2.977 -0.6238 -0.4143 -0.2843
  757MOL0     C 4358   2.334  10.154   3.115  0.4920 -0.6554 -0.5125
  757MOL0     O 4359   2.306  10.251   3.209  0.5063  0.1530 -0.5996
  757MOL0     C 4360   2.261  10.221   3.334  0.1552 -0.1958  0.4183
  757MOL0     C 4361   2.177  10.112   3.352  0.3282 -0.1903 -0.7699
  757MOL0     C 4362   2.106  10.101   3.474 -1.2024 -0.0422  0.4494
  757MOL0     C 4363   2.121  10.192   3.579  0.1719  0.6658  0.9089
  757MOL0     O 4364   2.057  10.164   3.698  0.0875 -0.0682 -0.5885
  757MOL0     C 4365   2.116  10.238   3.815 -0.1583  0.1449 -0.7620
  757MOL0     C 4366   2.025  10.210   3.932  0.4469 -1.2379  0.3968
  757MOL0     C 4367   1.881  10.275   3.938 -0.4297 -0.1661 -0.3828
  757MOL0     C 4368   1.894  10.426   3.942  1.1890 -0.2970 -0.5655
  757MOL0     C 4369   1.758  10.496   3.955 -0.6337  0.6128 -0.0497
  757MOL0     C 4370   1.785  10.641   3.978  0.0468  0.1733  0.5592
  757MOL0     C 4371   1.662  10.722   3.978 -1.0563  0.4273 -0.3961
  757MOL0     C 4372   1.617  10.773   3.842 -0.6118  0.3640  0.7252
  757MOL0    Cl 4373   1.457  10.852   3.849  0.2845  0.3244  0.2466
  757MOL0     C 4374   2.198  10.306   3.551  0.5293 -0.9244  0.0275
  757MOL0     C 4375   2.269  10.318   3.434 -0.0724  0.1298 -0.2364
  757MOL0     O 4376   2.353  10.033   3.144  0.2191 -0.1382 -0.1050
  757MOL0     C 4377   2.468  10.136   2.907 -0.4891  0.5493 -1.0309
  757MOL0     C 4378   2.494  10.178   2.777  0.2553  0.1468 -0.5701
  757MOL0     N 4379   2.662  10.725   2.767 -0.2552  0.2292  0.0146
  757MOL0     N 4380   2.691  10.670   2.881  0.2275 -0.8582 -0.1276
  757MOL0     C 4381   3.272  10.226   2.577  0.2441 -0.8270  0.0018
  757MOL0     C 4382   3.345  10.249   2.467  0.3909 -0.6754  0.1407
  757MOL0     C 4383   3.529  10.405   2.112 -0.1263  0.3672  0.6788
  757MOL0     C 4384   3.598  10.284   2.092 -0.1168  0.9972  0.3827
  757MOL0     C 4385   3.654  10.255   1.969  0.1631 -0.3011 -0.2542
  757MOL0     C 4386   3.663  10.344   1.862  0.0288  0.8363 -0.6875
  757MOL0     O 4387   3.713  10.304   1.742  0.0723  0.0083 -0.5679
  757MOL0     C 4388   3.819  10.209   1.719 -0.5776 -0.2864 -0.1046
  757MOL0     C 4389   3.942  10.233   1.807  0.3399 -0.0823 -0.1414
  757MOL0     C 4390   4.033  10.331   1.733  0.3815  0.5004 -0.0564
  757MOL0     C 4391   4.156  10.370   1.812 -0.3255  0.8390  0.4852
  757MOL0     C 4392   4.213  10.491   1.756 -0.3628 -0.5716 -0.4599
  757MOL0     C 4393   4.264  10.597   1.730  0.6554  0.0849 -0.3301
  757MOL0     C 4394   3.596  10.467   1.888  0.3677  0.2893 -0.1529
  757MOL0     C 4395   3.539  10.507   2.011  0.3273  0.3971  0.0306
  757MOL0     C 4396   3.471  10.646   2.020 -0.8903 -0.4792  0.2902
  757MOL0     H 4397   3.564  10.476   2.569  0.9621 -2.3738 -2.7101
  757MOL0     H 4398   3.446  10.436   2.780  1.3297  0.0906 -0.6135
  757MOL0     H 4399   3.347  10.350   2.953  1.6750 -1.7257 -0.1093
  757MOL0     H 4400   3.363  10.172   2.950 -1.2006 -0.6632  0.4734
  757MOL0     H 4401   3.212  10.155   3.101  0.6877  0.9443 -0.8481
  757MOL0     H 4402   3.218  10.327   3.109  3.3226  1.3971 -2.2313
  757MOL0     H 4403   3.050  10.349   2.938  0.1803 -0.6945 -0.6945
  757MOL0     H 4404   3.009  10.176   2.932 -1.0268  0.8882 -0.8078
  757MOL0     H 4405   2.973  10.177   3.182 -0.4562 -2.0271 -2.1571
  757MOL0     H 4406   2.959  10.348   3.170  1.6013 -2.1341  2.5189
  757MOL0     H 4407   2.725  10.208   3.146  0.2342 -3.8459 -0.8633
  757MOL0     H 4408   2.784  10.163   2.991  0.8634  2.4898 -1.5016
  757MOL0     H 4409   2.800  10.387   2.923  1.2936 -1.3276  0.6006
  757MOL0     H 4410   2.646  10.317   2.954 -0.8723 -0.5293  1.3114
  757MOL0     H 4411   2.788  10.548   3.113  0.2178  0.2036 -1.0747
  757MOL0     H 4412   2.683  10.448   3.208 -1.2024 -1.7588 -0.9631
  757MOL0     H 4413   2.493  10.479   3.085  0.8598  0.1731  2.0232
  757MOL0     H 4414   2.565  10.634   3.129  2.2256 -1.7423  2.7388
  757MOL0     H 4415   2.371  10.608   2.857  0.9821 -2.0847  0.7514
  757MOL0     H 4416   2.535  10.776   2.543 -0.5866  3.4459  2.3567
  757MOL0     H 4417   2.372  10.804   2.616 -1.0566 -0.8263 -2.7824
  757MOL0     H 4418   2.341  10.557   2.599  0.1918  0.1015 -2.0579
  757MOL0     H 4419   2.351  10.644   2.442  0.9373 -1.2126 -0.2225
  757MOL0     H 4420   2.471  10.460   2.390  0.8449 -0.6268  0.2128
  757MOL0     H 4421   2.603  10.559   2.431 -0.1906  1.5168  0.4742
  757MOL0     H 4422   2.643  10.342   2.539  1.6984  0.6250  0.6544
  757MOL0     H 4423   2.567  10.448   2.671 -3.1015 -3.0763  1.3631
  757MOL0     H 4424   2.231  10.392   2.733 -3.7665 -4.2401  0.1824
  757MOL0     H 4425   2.058  10.310   2.947 -0.9831  0.6033 -0.7486
  757MOL0     H 4426   2.139  10.464   2.940 -1.1333  0.4861  1.0559
  757MOL0     H 4427   2.164  10.370   3.083 -0.5276 -0.9441  0.3366
  757MOL0     H 4428   2.140  10.056   3.266  0.6691  0.5502 -1.4142
  757MOL0     H 4429   2.043  10.015   3.498 -1.9490 -0.1526 -1.6648
  757MOL0     H 4430   2.217  10.208   3.844  0.3311  2.4767  0.1751
  757MOL0     H 4431   2.119  10.345   3.793  1.8750  0.3237  0.1478
  757MOL0     H 4432   2.005  10.102   3.936 -3.5933 -0.9443 -3.4037
  757MOL0     H 4433   2.063  10.252   4.025 -0.3686  1.2235 -0.3000
  757MOL0     H 4434   1.828  10.247   4.029  0.8202  0.2923  0.5172
  757MOL0     H 4435   1.848  10.241   3.840  1.1559 -1.9021 -0.3785
  757MOL0     H 4436   1.931  10.466   3.847 -0.2223  1.2528 -0.5136
  757MOL0     H 4437   1.951  10.454   4.030 -1.2822  2.3596  0.3558
  757MOL0     H 4438   1.693  10.493   3.867  0.9662  2.3398 -1.3820
  757MOL0     H 4439   1.707  10.442   4.036  1.8918 -1.9744 -0.0211
  757MOL0     H 4440   1.863  10.676   3.911 -0.0896  0.1944  0.4103
  757MOL0     H 4441   1.826  10.652   4.079  0.8098  0.6802  0.2036
  757MOL0     H 4442   1.686  10.806   4.044  2.8423 -0.5304 -0.3741
  757MOL0     H 4443   1.584  10.664   4.027 -0.5196  0.8850  1.0481
  757MOL0     H 4444   1.600  10.691   3.772 -0.6749 -0.0500  1.2201
  757MOL0     H 4445   1.688  10.834   3.786 -0.4624 -1.9310 -1.7716
  757MOL0     H 4446   2.190  10.393   3.616 -1.2775 -0.6519 -0.4960
  757MOL0     H 4447   2.334  10.401   3.406  1.9846 -1.2261  0.2238
  757MOL0     H 4448   2.530  10.053   2.940 -2.4710 -0.5581  0.0967
  757MOL0     H 4449   2.573  10.137   2.717 -1.1283 -0.3398 -2.1244
  757MOL0     H 4450   3.190  10.155   2.578 -0.1778 -0.3401 -0.0008
  757MOL0     H 4451   3.321  10.197   2.375  1.5737  4.0251 -3.1778
  757MOL0     H 4452   3.597  10.206   2.167 -1.0744 -2.4801 -2.9506
  757MOL0     H 4453   3.700  10.157   1.976 -0.4413 -0.8906 -3.1315
  757MOL0     H 4454   3.785  10.109   1.748 -0.5212 -0.1044  0.5970
  757MOL0     H 4455   3.843  10.212   1.612 -0.5233 -0.7947 -0.1111
  757MOL0     H 4456   3.991  10.136   1.823  2.1365  0.8297  0.1187
  757MOL0     H 4457   3.921  10.275   1.905 -2.6737  1.7304 -1.4409
  757MOL0     H 4458   4.081  10.278   1.649  0.4593  0.5435 -0.0395
  757MOL0     H 4459   3.981  10.416   1.688  1.4225  0.5464 -1.2434
  757MOL0     H 4460   4.222  10.289   1.781  0.1376  1.6409 -0.6733
  757MOL0     H 4461   4.135  10.378   1.919 -1.0604  0.5661  0.3672
  757MOL0     H 4462   4.307  10.690   1.697 -1.4687  1.9337  1.7418
  757MOL0     H 4463   3.598  10.530   1.800  0.9217 -0.6206 -0.8113
  757MOL0     H 4464   3.492  10.702   2.112 -0.3414  2.7226 -1.6464
  757MOL0     H 4465   3.512  10.715   1.945 -1.8752  0.2488  0.4044
  757MOL0     H 4466   3.362  10.645   2.022 -0.8968 -1.1765  2.0638
  758MOL0     O 4467  11.202   8.332   4.332  0.1277 -1.1029  0.2036
  758MOL0     C 4468  11.263   8.329   4.438 -0.1627 -0.6411  0.2444
  758MOL0     O 4469  11.328   8.437   4.500 -0.4810  0.1275  0.4686
  758MOL0     C 4470  11.333   8.561   4.439 -0.2420 -0.0306 -0.3823
  758MOL0     C 4471  11.313   8.668   4.520 -1.1382  0.6656 -0.8537
  758MOL0     C 4472  11.319   8.790   4.479  0.3932  0.0530  0.3722
  758MOL0     C 4473  11.355   8.814   4.340  0.0800 -0.0321 -0.8134
  758MOL0     O 4474  11.375   8.934   4.284 -0.5761  0.3197 -0.7567
  758MOL0     C 4475  11.427   9.039   4.354 -0.4608 -0.3305 -0.5848
  758MOL0     C 4476  11.511   9.126   4.262  0.2675 -0.4135  0.5107
  758MOL0     C 4477  11.448   9.196   4.148  0.4654 -0.2818  0.1154
  758MOL0     C 4478  11.546   9.277   4.061 -0.7720  1.0257 -0.2827
  758MOL0     C 4479  11.500   9.404   3.995  0.4563 -0.6783 -0.0945
  758MOL0     C 4480  11.621   9.454   3.910  0.3709 -0.3210 -0.0125
  758MOL0     C 4481  11.589   9.591   3.851  0.4373 -0.0626 -0.7176
  758MOL0     C 4482  11.465   9.598   3.756  0.8541  0.4147  0.2253
  758MOL0     N 4483  11.444   9.740   3.711  0.1939  0.7936  0.5446
  758MOL0     C 4484  11.396   9.836   3.794 -0.2891  0.1608 -0.4823
  758MOL0     C 4485  11.399   9.951   3.720 -0.9813 -0.7277  0.6958
  758MOL0     C 4486  11.356  10.095   3.741 -0.0847 -0.2549  0.3861
  758MOL0     C 4487  11.454  10.157   3.843  0.8523  0.9466  1.2123
  758MOL0     C 4488  11.409  10.299   3.886 -0.5954  0.5194 -0.4147
  758MOL0     C 4489  11.503  10.363   3.991  0.0001 -0.3996  0.6067
  758MOL0     O 4490  11.547  10.287   4.100  0.4195 -0.4174 -0.6194
  758MOL0     C 4491  11.468  10.261   4.210  0.2063 -0.1781 -0.3506
  758MOL0     C 4492  11.530  10.162   4.298 -0.0059 -0.4564  0.0237
  758MOL0     C 4493  11.479  10.119   4.415 -0.2735  0.3158  0.7375
  758MOL0     C 4494  11.548   9.995   4.480 -0.2939 -0.4141 -0.0644
  758MOL0     C 4495  11.374  10.190   4.470 -0.9686 -0.9213 -1.0631
  758MOL0     C 4496  11.330  10.163   4.607  0.2235  0.2604  0.8433
  758MOL0     O 4497  11.429  10.128   4.701  0.7840 -0.1766  0.1451
  758MOL0     C 4498  11.387  10.128   4.840  0.6578  0.0618  0.3775
  758MOL0     C 4499  11.477  10.178   4.934 -0.2225  0.1892 -0.6637
  758MOL0     C 4500  11.454  10.160   5.073 -0.6115  0.1191 -0.3064
  758MOL0     C 4501  11.333  10.107   5.123  0.4474 -0.7480 -0.5853
  758MOL0     O 4502  11.284  10.094   5.254 -0.2441  0.0398 -0.1310
  758MOL0     C 4503  11.374  10.125   5.370  0.2802  0.0234 -0.2403
  758MOL0     C 4504  11.393  10.275   5.409  0.2233 -0.0944 -0.3308
  758MOL0     C 4505  11.261  10.353   5.435  1.3109  0.0849 -0.5987
  758MOL0     C 4506  11.271  10.483   5.506  0.7172 -0.7364  0.6307
  758MOL0     C 4507  11.143  10.532   5.568  0.1697  0.5343  0.9419
  758MOL0     C 4508  11.008  10.500   5.490  0.4902 -0.1127 -0.3409
  758MOL0     C 4509  10.899  10.588   5.536  0.7229 -0.6255 -0.1679
  758MOL0     C 4510  10.901  10.735   5.509 -0.3057 -0.3721  0.5869
  758MOL0    Cl 4511  11.000  10.797   5.371  0.0875  0.0081 -0.0081
  758MOL0     C 4512  11.249  10.048   5.028 -0.2850 -0.2945 -0.3434
  758MOL0     C 4513  11.266  10.063   4.888  0.3008 -0.0189 -0.0543
  758MOL0     O 4514  11.211  10.193   4.631  0.1286  0.1986  0.1238
  758MOL0     C 4515  11.315  10.288   4.387 -0.1971 -0.5648  0.0264
  758MOL0     C 4516  11.351  10.324   4.253 -0.1777  0.2375  0.0626
  758MOL0     N 4517  11.461   9.920   3.592 -0.1719 -0.3932 -0.0947
  758MOL0     N 4518  11.476   9.792   3.589  0.2606  0.1437  0.8713
  758MOL0     C 4519  11.374   8.711   4.257 -0.5625  0.4715  1.1539
  758MOL0     C 4520  11.370   8.583   4.304 -0.6926  0.9606  0.3527
  758MOL0     C 4521  11.281   8.188   4.495 -0.3697 -0.6588  0.2021
  758MOL0     C 4522  11.263   8.084   4.401 -0.5884 -0.1240  0.0354
  758MOL0     C 4523  11.273   7.953   4.448 -0.4940 -0.7492  0.1917
  758MOL0     C 4524  11.303   7.922   4.585  0.5702 -0.2044  0.4491
  758MOL0     O 4525  11.322   7.793   4.644 -0.3747 -0.6244 -0.3898
  758MOL0     C 4526  11.334   7.680   4.564  0.1943 -0.3817  0.2024
  758MOL0     C 4527  11.350   7.559   4.647 -0.2165 -0.5022  0.3266
  758MOL0     C 4528  11.473   7.557   4.731  0.1872 -0.7480 -0.5392
  758MOL0     C 4529  11.527   7.418   4.780 -0.6298  0.0304 -0.0156
  758MOL0     C 4530  11.438   7.349   4.873  0.1738 -0.0358  0.1485
  758MOL0     C 4531  11.368   7.289   4.949 -0.0237  0.2195 -0.4332
  758MOL0     C 4532  11.322   8.028   4.676 -0.0357  0.3769 -0.3674
  758MOL0     C 4533  11.314   8.163   4.629  0.4223 -0.1438  0.2271
  758MOL0     C 4534  11.335   8.281   4.730  0.2165  0.1752 -0.1835
  758MOL0     H 4535  11.297   8.644   4.625  1.8087  1.0656 -0.2272
  758MOL0     H 4536  11.287   8.865   4.550 -0.5151 -4.1812  5.0610
  758MOL0     H 4537  11.487   8.994   4.433  1.8335  0.4447 -1.7952
  758MOL0     H 4538  11.343   9.091   4.401  2.9909  2.1063  3.6686
  758MOL0     H 4539  11.558   9.201   4.326 -0.7031  2.6782 -2.1603
  758MOL0     H 4540  11.591   9.066   4.217 -1.0773 -1.1166 -1.0770
  758MOL0     H 4541  11.400   9.119   4.086 -0.3570 -0.9470  1.5248
  758MOL0     H 4542  11.369   9.268   4.172 -0.4459  0.0181 -3.3079
  758MOL0     H 4543  11.621   9.322   4.127 -0.4028  2.8822 -1.8864
  758MOL0     H 4544  11.608   9.218   3.993  1.0306 -0.0817  2.1602
  758MOL0     H 4545  11.465   9.479   4.066  1.0945  0.7043 -1.2042
  758MOL0     H 4546  11.418   9.378   3.928 -0.7273 -0.3150  1.1641
  758MOL0     H 4547  11.714   9.479   3.961  0.2153 -0.5707  0.4019
  758MOL0     H 4548  11.643   9.383   3.829 -0.1011 -0.0807 -0.3574
  758MOL0     H 4549  11.669   9.628   3.787 -0.5833  3.1468 -0.3105
  758MOL0     H 4550  11.587   9.660   3.936  0.0364 -0.7007 -0.1954
  758MOL0     H 4551  11.479   9.529   3.672 -0.4694 -0.4859  0.7155
  758MOL0     H 4552  11.370   9.557   3.791 -0.2077 -0.0870 -2.9767
  758MOL0     H 4553  11.349   9.819   3.890 -0.4429  0.6249 -0.4721
  758MOL0     H 4554  11.258  10.101   3.789 -1.1583  1.3737 -1.8233
  758MOL0     H 4555  11.353  10.151   3.647  0.4220 -1.0009 -0.0834
  758MOL0     H 4556  11.472  10.096   3.932 -0.1322  1.6030  1.8825
  758MOL0     H 4557  11.551  10.157   3.794 -0.3224  0.7481 -1.3047
  758MOL0     H 4558  11.400  10.368   3.801  4.3834  0.1332 -1.5543
  758MOL0     H 4559  11.311  10.283   3.930  0.1523 -2.3151  0.4076
  758MOL0     H 4560  11.595  10.390   3.939  1.9445 -2.4050  2.7617
  758MOL0     H 4561  11.462  10.459   4.024 -0.8176 -0.5124 -0.0454
  758MOL0     H 4562  11.618  10.112   4.257  0.0156 -1.3221  1.0645
  758MOL0     H 4563  11.629  10.037   4.540 -0.7027  1.9032 -0.9954
  758MOL0     H 4564  11.588   9.922   4.410  2.9329 -0.3191  1.5075
  758MOL0     H 4565  11.482   9.945   4.552 -0.3910  1.1824  1.0337
  758MOL0     H 4566  11.565  10.233   4.903  2.1933 -3.3749 -0.7149
  758MOL0     H 4567  11.522  10.198   5.149 -0.5123  0.2332 -0.4501
  758MOL0     H 4568  11.345  10.064   5.457 -1.1686 -0.5123 -1.0680
  758MOL0     H 4569  11.471  10.079   5.352  1.4453  1.3784  2.1447
  758MOL0     H 4570  11.450  10.269   5.503  1.0651 -1.3671 -0.8936
  758MOL0     H 4571  11.445  10.331   5.331  0.2360  1.0587  0.4798
  758MOL0     H 4572  11.196  10.284   5.490  2.2993  0.1097  0.6304
  758MOL0     H 4573  11.212  10.364   5.337  1.6272 -0.8553 -0.8752
  758MOL0     H 4574  11.311  10.556   5.435 -0.6623  0.4429  1.0209
  758MOL0     H 4575  11.343  10.472   5.588 -0.0446 -2.3418  1.1249
  758MOL0     H 4576  11.138  10.487   5.668  0.1398 -3.0204 -0.4914
  758MOL0     H 4577  11.158  10.639   5.580 -3.0632  1.4326 -1.5452
  758MOL0     H 4578  10.978  10.397   5.512  2.4453 -0.5823  0.3222
  758MOL0     H 4579  11.023  10.499   5.381  0.1658 -1.2434 -0.3936
  758MOL0     H 4580  10.878  10.569   5.642 -1.7187 -2.1790 -0.8325
  758MOL0     H 4581  10.816  10.548   5.476  1.8019 -0.6674 -1.6999
  758MOL0     H 4582  10.951  10.788   5.591 -0.3267  1.6946 -0.6621
  758MOL0     H 4583  10.805  10.784   5.493  0.7446  1.6362  0.1535
  758MOL0     H 4584  11.157  10.004   5.063  0.9582 -1.4295  1.7253
  758MOL0     H 4585  11.195  10.018   4.820 -0.0970 -0.8221  0.8757
  758MOL0     H 4586  11.236  10.350   4.427 -0.0431  0.4611 -1.1913
  758MOL0     H 4587  11.303  10.401   4.193  1.0047 -0.9677 -2.5909
  758MOL0     H 4588  11.417   8.723   4.158  1.8281 -1.0354  1.9092
  758MOL0     H 4589  11.396   8.492   4.250 -1.4294  2.1652 -2.1722
  758MOL0     H 4590  11.254   8.105   4.294  0.1066  2.3597  0.3951
  758MOL0     H 4591  11.251   7.872   4.379 -2.2314  0.5450 -0.8892
  758MOL0     H 4592  11.249   7.670   4.496 -1.3455 -3.0810  2.3501
  758MOL0     H 4593  11.425   7.701   4.507  0.3532  1.0526  0.9333
  758MOL0     H 4594  11.338   7.470   4.585  0.7643 -0.1243 -0.4407
  758MOL0     H 4595  11.267   7.567   4.718  0.6574  2.7530  1.1618
  758MOL0     H 4596  11.557   7.608   4.681  0.5435 -0.3413  0.4573
  758MOL0     H 4597  11.455   7.621   4.817  1.5365  0.3675 -1.0435
  758MOL0     H 4598  11.622   7.420   4.833 -0.0753 -0.5401 -0.9511
  758MOL0     H 4599  11.546   7.353   4.694 -2.1964 -1.6910  0.8631
  758MOL0     H 4600  11.304   7.223   5.004  0.9394 -1.2276 -0.9566
  758MOL0     H 4601  11.341   8.004   4.780  0.3279  2.1183 -0.0012
  758MOL0     H 4602  11.348   8.231   4.827 -3.8174 -0.0243  0.4408
  758MOL0     H 4603  11.423   8.336   4.695  0.9465  1.4607  3.2747
  758MOL0     H 4604  11.253   8.352   4.728  1.4526  1.6378 -1.8586
  759MOL0     O 4605   4.634   4.102   5.752  0.5058 -0.4750 -0.1280
  759MOL0     C 4606   4.551   4.027   5.786  1.4490 -0.1888  0.0418
  759MOL0     O 4607   4.561   3.888   5.808  0.8142  0.4854  0.0794
  759MOL0     C 4608   4.657   3.818   5.738 -0.4279  0.2405 -0.6048
  759MOL0     C 4609   4.613   3.719   5.646 -0.0848 -0.3462 -0.2103
  759MOL0     C 4610   4.695   3.643   5.575  0.5604 -0.4478  0.1722
  759MOL0     C 4611   4.831   3.659   5.586 -0.4907  0.2168  0.4138
  759MOL0     O 4612   4.908   3.574   5.501  1.6534 -0.6784  0.5004
  759MOL0     C 4613   5.003   3.496   5.569 -0.3433  0.0100  0.1210
  759MOL0     C 4614   4.944   3.357   5.605 -0.5183  0.2375  0.5467
  759MOL0     C 4615   5.041   3.246   5.607 -0.2623  0.0546 -0.4139
  759MOL0     C 4616   5.090   3.213   5.465  0.3733  0.0261 -0.0075
  759MOL0     C 4617   5.136   3.064   5.454  0.6363 -0.9496 -0.2116
  759MOL0     C 4618   5.158   3.031   5.307  0.4007 -0.7518 -0.5348
  759MOL0     C 4619   5.210   2.894   5.294 -0.3184  0.2493  0.1048
  759MOL0     C 4620   5.241   2.861   5.137  0.6714 -0.0586  0.2199
  759MOL0     N 4621   5.326   2.737   5.137  0.1782 -0.7141  1.1053
  759MOL0     C 4622   5.459   2.732   5.103  0.1712 -0.2079 -0.8798
  759MOL0     C 4623   5.489   2.603   5.136  0.2407  0.1177  0.1007
  759MOL0     C 4624   5.625   2.551   5.111  0.4631 -0.2849 -0.7224
  759MOL0     C 4625   5.718   2.571   5.236  0.3194  0.4905 -0.4609
  759MOL0     C 4626   5.666   2.479   5.339 -0.2120  0.5751  0.4465
  759MOL0     C 4627   5.668   2.334   5.305  0.1795 -0.3027 -0.9759
  759MOL0     O 4628   5.794   2.291   5.235 -0.0173 -0.4597 -0.1705
  759MOL0     C 4629   5.920   2.297   5.292  0.7805 -0.6978 -0.0710
  759MOL0     C 4630   6.027   2.301   5.199 -0.5620  0.0720 -0.1275
  759MOL0     C 4631   6.159   2.285   5.236  0.7094 -0.1425 -0.6384
  759MOL0     C 4632   6.256   2.282   5.123 -0.0817  0.6791 -0.1514
  759MOL0     C 4633   6.193   2.271   5.369 -0.0190 -0.4808 -0.3110
  759MOL0     C 4634   6.337   2.234   5.411 -0.6276 -1.1395  0.9269
  759MOL0     O 4635   6.411   2.177   5.312 -0.1245  0.0802  0.4346
  759MOL0     C 4636   6.543   2.147   5.337  0.2416  0.1249 -0.3990
  759MOL0     C 4637   6.639   2.204   5.254 -0.0604  0.0448 -0.1519
  759MOL0     C 4638   6.775   2.176   5.263 -0.0109 -0.2020 -0.3769
  759MOL0     C 4639   6.829   2.095   5.368 -0.1203  0.9181 -0.1183
  759MOL0     O 4640   6.960   2.071   5.393  0.2759  0.0588 -0.5232
  759MOL0     C 4641   7.043   2.188   5.398  0.0560 -0.0113 -0.5930
  759MOL0     C 4642   7.186   2.146   5.371  0.6456  0.3577  0.3519
  759MOL0     C 4643   7.209   2.081   5.234  0.3754  0.1505  0.0266
  759MOL0     C 4644   7.170   2.182   5.125 -0.7427  0.4757 -0.4524
  759MOL0     C 4645   7.246   2.149   4.996 -0.4521  0.4887 -1.4480
  759MOL0     C 4646   7.389   2.209   5.001 -0.4837  0.2861  0.0814
  759MOL0     C 4647   7.478   2.163   4.884 -0.1836 -0.4433 -0.0085
  759MOL0     C 4648   7.522   2.018   4.898  0.0257  0.2648  0.1132
  759MOL0    Cl 4649   7.628   1.986   5.023  0.3236  0.2720  0.1408
  759MOL0     C 4650   6.732   2.024   5.453 -0.1158  0.2641  0.6820
  759MOL0     C 4651   6.588   2.055   5.437  0.1728 -0.7538 -0.8265
  759MOL0     O 4652   6.384   2.282   5.513  0.0087  0.6088  0.6955
  759MOL0     C 4653   6.093   2.285   5.470 -0.1015 -0.6140 -0.1574
  759MOL0     C 4654   5.958   2.301   5.428  0.1123 -0.1559  0.5065
  759MOL0     N 4655   5.372   2.532   5.163 -0.0766  0.1950 -0.6968
  759MOL0     N 4656   5.278   2.612   5.160  0.0001  0.3288  0.8811
  759MOL0     C 4657   4.886   3.759   5.671 -0.1305  0.0867 -0.3140
  759MOL0     C 4658   4.801   3.832   5.753  0.0186 -0.0674  1.1662
  759MOL0     C 4659   4.412   4.091   5.815 -0.0801 -0.3663  0.5074
  759MOL0     C 4660   4.304   4.009   5.764 -0.9145  0.5385  0.2332
  759MOL0     C 4661   4.177   4.061   5.756 -0.6061 -0.1559  0.6614
  759MOL0     C 4662   4.142   4.195   5.802 -0.3698  0.8907  0.5165
  759MOL0     O 4663   4.014   4.243   5.779 -0.3328  0.0102 -0.0302
  759MOL0     C 4664   3.986   4.386   5.782 -0.4413  0.2781 -1.0645
  759MOL0     C 4665   3.866   4.426   5.700 -0.1542  0.2253 -0.0676
  759MOL0     C 4666   3.838   4.574   5.714  0.1747  0.0235 -0.5384
  759MOL0     C 4667   3.751   4.625   5.830 -0.1811  0.5001  0.5255
  759MOL0     C 4668   3.621   4.555   5.832  0.4538 -0.1111  0.1154
  759MOL0     C 4669   3.511   4.497   5.838  0.1138 -1.1249  0.1272
  759MOL0     C 4670   4.248   4.268   5.865  0.2767  0.4472  0.5697
  759MOL0     C 4671   4.376   4.217   5.872 -0.3078  0.1338  0.8364
  759MOL0     C 4672   4.495   4.291   5.938  0.5387  0.2069  0.1271
  759MOL0     H 4673   4.509   3.702   5.621 -1.7592  0.2367  5.0774
  759MOL0     H 4674   4.670   3.572   5.498  3.9394 -2.5396  0.7804
  759MOL0     H 4675   5.039   3.542   5.661 -0.5824  0.2613  0.0871
  759MOL0     H 4676   5.089   3.481   5.503 -1.4037  0.0366 -1.3310
  759MOL0     H 4677   4.907   3.375   5.707  1.9637  1.2001  1.3714
  759MOL0     H 4678   4.874   3.328   5.527  1.4303 -2.7045 -0.2468
  759MOL0     H 4679   5.123   3.273   5.674 -2.3435 -0.1716  2.4159
  759MOL0     H 4680   5.006   3.151   5.648  0.9574 -1.4276 -2.6118
  759MOL0     H 4681   5.018   3.236   5.386  2.2839 -0.1078 -1.8949
  759MOL0     H 4682   5.177   3.279   5.450  1.2825 -1.3403 -0.9609
  759MOL0     H 4683   5.061   2.994   5.492  1.1198 -1.1335  0.4137
  759MOL0     H 4684   5.220   3.045   5.520  0.5271  1.7804  0.8023
  759MOL0     H 4685   5.058   3.034   5.263 -1.5196 -5.6831  2.6540
  759MOL0     H 4686   5.217   3.111   5.261 -1.2244 -0.3725 -2.0748
  759MOL0     H 4687   5.121   2.834   5.316  0.0287  0.2966  1.6973
  759MOL0     H 4688   5.305   2.877   5.344  1.2408  0.4956 -2.5806
  759MOL0     H 4689   5.146   2.849   5.084  0.3968 -1.7198  1.0321
  759MOL0     H 4690   5.290   2.943   5.083 -2.7398  0.5370 -2.2557
  759MOL0     H 4691   5.531   2.806   5.071  2.9834 -3.3805 -2.6202
  759MOL0     H 4692   5.670   2.616   5.035 -0.0468 -0.6295 -1.3314
  759MOL0     H 4693   5.631   2.455   5.059  0.6157 -0.0067 -1.2223
  759MOL0     H 4694   5.812   2.531   5.196 -0.5288 -0.1921 -1.8461
  759MOL0     H 4695   5.724   2.675   5.271 -3.7374  0.4139  0.9544
  759MOL0     H 4696   5.721   2.483   5.433 -0.0109  0.9329  0.3153
  759MOL0     H 4697   5.562   2.505   5.361 -0.4280 -0.1946  0.3661
  759MOL0     H 4698   5.652   2.269   5.392 -2.5827  0.3227 -0.9216
  759MOL0     H 4699   5.589   2.312   5.233  1.1464  0.7712 -2.4029
  759MOL0     H 4700   6.001   2.317   5.095 -2.8282 -0.1857  0.3545
  759MOL0     H 4701   6.201   2.316   5.035  0.4944 -0.4485 -0.9780
  759MOL0     H 4702   6.282   2.178   5.099 -1.4470 -0.3399  2.3897
  759MOL0     H 4703   6.347   2.336   5.153  1.5884 -2.8340  1.7497
  759MOL0     H 4704   6.590   2.265   5.178  0.7740  1.1429  0.1632
  759MOL0     H 4705   6.843   2.214   5.188  1.7418  0.7797  1.6063
  759MOL0     H 4706   7.004   2.264   5.331 -1.8052  0.9065  1.4137
  759MOL0     H 4707   7.042   2.230   5.499  2.9705  0.3592 -0.6055
  759MOL0     H 4708   7.252   2.230   5.392  2.1806  0.0078 -2.5797
  759MOL0     H 4709   7.196   2.064   5.443  1.2342  0.0601 -0.0607
  759MOL0     H 4710   7.142   1.996   5.222 -0.8526  1.1180 -0.2117
  759MOL0     H 4711   7.312   2.046   5.226  0.1088 -0.8013  0.6253
  759MOL0     H 4712   7.194   2.277   5.174 -0.6052 -2.1118  5.4155
  759MOL0     H 4713   7.061   2.175   5.116 -1.0375 -2.5391  2.8524
  759MOL0     H 4714   7.231   2.044   4.973  0.5717  0.3437 -1.4690
  759MOL0     H 4715   7.186   2.188   4.913 -2.6443 -4.0034 -2.2463
  759MOL0     H 4716   7.441   2.182   5.093  3.6757 -1.7292 -2.5111
  759MOL0     H 4717   7.394   2.318   4.991  4.3954  0.1244 -2.3257
  759MOL0     H 4718   7.563   2.226   4.857  0.0558 -0.1418  1.3924
  759MOL0     H 4719   7.415   2.168   4.794  1.1292 -3.2200 -1.2084
  759MOL0     H 4720   7.577   1.998   4.806  1.5111 -0.1813  1.0495
  759MOL0     H 4721   7.435   1.953   4.909  0.1256  0.3591  1.8266
  759MOL0     H 4722   6.763   1.945   5.521  2.4447  0.9856  0.4573
  759MOL0     H 4723   6.524   1.998   5.504  2.0779 -4.1072 -1.6221
  759MOL0     H 4724   6.121   2.264   5.573  1.7862 -4.1583 -1.2425
  759MOL0     H 4725   5.885   2.295   5.508 -1.6127  1.6825 -0.8021
  759MOL0     H 4726   4.993   3.776   5.661  0.2471 -1.1920  1.0365
  759MOL0     H 4727   4.834   3.906   5.826 -2.0679  0.6972  1.4054
  759MOL0     H 4728   4.323   3.912   5.718 -2.4699 -0.8791  2.3515
  759MOL0     H 4729   4.095   4.001   5.718  0.1811 -0.8534  0.0315
  759MOL0     H 4730   3.973   4.407   5.889 -0.3924 -1.7818 -0.6065
  759MOL0     H 4731   4.076   4.435   5.746  0.6636 -1.3985 -0.6989
  759MOL0     H 4732   3.784   4.359   5.729  0.0555 -1.8475 -3.7002
  759MOL0     H 4733   3.902   4.404   5.599  3.8491  1.9421  0.7821
  759MOL0     H 4734   3.935   4.624   5.726  0.6658 -0.9385 -0.4609
  759MOL0     H 4735   3.787   4.599   5.621  0.7210 -1.3509 -1.2256
  759MOL0     H 4736   3.740   4.734   5.826  3.1594  0.8982 -0.3101
  759MOL0     H 4737   3.800   4.595   5.923 -1.7354 -0.3009  1.1195
  759MOL0     H 4738   3.415   4.451   5.850 -1.4893  2.0996  1.0733
  759MOL0     H 4739   4.229   4.363   5.913  1.2919  2.5441 -2.8659
  759MOL0     H 4740   4.562   4.335   5.864  2.1469 -0.4408  1.1561
  759MOL0     H 4741   4.449   4.369   5.999 -0.9275 -2.1442  2.2421
  759MOL0     H 4742   4.547   4.232   6.015 -0.6882  3.4034  3.7284
  760MOL0     O 4743   1.157   4.007   5.153  0.1792 -0.0602 -0.4375
  760MOL0     C 4744   1.230   4.100   5.118  0.7770  0.2002  0.1542
  760MOL0     O 4745   1.273   4.120   4.988 -0.4277 -0.1345 -0.7105
  760MOL0     C 4746   1.238   4.022   4.899 -0.7887 -0.2934  0.5891
  760MOL0     C 4747   1.259   3.881   4.915 -0.0882  0.2253  0.8849
  760MOL0     C 4748   1.234   3.792   4.804  0.2170 -0.0740  0.2138
  760MOL0     C 4749   1.190   3.842   4.682  0.1503 -0.6105 -0.1243
  760MOL0     O 4750   1.147   3.753   4.587 -0.8930  0.6863  0.3758
  760MOL0     C 4751   1.019   3.786   4.528 -0.1109 -0.3824  0.0061
  760MOL0     C 4752   0.909   3.696   4.579  0.2146  0.0275 -0.0258
  760MOL0     C 4753   0.956   3.546   4.560 -0.5668 -0.1434  0.9782
  760MOL0     C 4754   0.832   3.446   4.563 -0.9052  0.6523 -0.0945
  760MOL0     C 4755   0.875   3.307   4.592  0.0113  0.9156 -0.0463
  760MOL0     C 4756   0.950   3.244   4.472 -0.4879 -0.1722  0.3867
  760MOL0     C 4757   0.974   3.097   4.481  0.1834  0.9160 -0.6214
  760MOL0     C 4758   1.060   3.045   4.609  0.4526 -0.6635  0.4711
  760MOL0     N 4759   1.124   2.910   4.581 -0.4078 -0.1612 -0.4777
  760MOL0     C 4760   1.080   2.784   4.603  0.1995 -0.8070 -0.0704
  760MOL0     C 4761   1.185   2.708   4.586 -0.8544  1.5189  0.3920
  760MOL0     C 4762   1.167   2.559   4.582 -0.3178 -0.9280  0.2688
  760MOL0     C 4763   1.248   2.483   4.683 -0.3736 -0.2851 -0.2792
  760MOL0     C 4764   1.248   2.321   4.680  0.3750  0.6972 -0.2463
  760MOL0     C 4765   1.117   2.252   4.668  0.8937 -0.6231 -0.3446
  760MOL0     O 4766   1.047   2.288   4.546 -0.7968 -0.1896  0.3630
  760MOL0     C 4767   1.081   2.215   4.436 -1.0179  0.2862  0.7361
  760MOL0     C 4768   1.033   2.087   4.416  0.3852  0.8809  0.1534
  760MOL0     C 4769   1.069   2.013   4.305 -0.2164  0.4530  0.0019
  760MOL0     C 4770   1.005   1.874   4.318  0.1591 -0.3414  0.4496
  760MOL0     C 4771   1.155   2.065   4.202  0.4057 -0.4175  0.0150
  760MOL0     C 4772   1.196   1.992   4.083 -0.5313  0.0204  0.0756
  760MOL0     O 4773   1.299   2.044   4.003 -0.5354 -0.2436  0.6305
  760MOL0     C 4774   1.342   1.975   3.890  0.2487  0.7409  0.1690
  760MOL0     C 4775   1.476   1.954   3.878 -0.3934 -0.6951 -0.4929
  760MOL0     C 4776   1.529   1.879   3.774  0.3354 -1.0098 -0.0534
  760MOL0     C 4777   1.444   1.830   3.679 -0.3341  0.5663  0.4540
  760MOL0     O 4778   1.504   1.750   3.588 -0.4713 -0.3190  0.7469
  760MOL0     C 4779   1.436   1.741   3.463 -0.0185  0.8661  0.4835
  760MOL0     C 4780   1.425   1.860   3.376 -0.4036 -0.2771 -0.3514
  760MOL0     C 4781   1.338   1.825   3.254  0.4312 -0.5640  0.0328
  760MOL0     C 4782   1.191   1.839   3.290 -0.4876  0.0919 -0.5570
  760MOL0     C 4783   1.114   1.807   3.166  1.1626 -0.0704  0.2148
  760MOL0     C 4784   1.113   1.648   3.138  0.6268  0.3331  0.3263
  760MOL0     C 4785   1.023   1.606   3.018 -0.6414  0.7658 -0.0777
  760MOL0     C 4786   1.050   1.663   2.875  0.3459 -0.5808  0.5039
  760MOL0    Cl 4787   1.232   1.661   2.818  0.2557  0.2859 -0.3850
  760MOL0     C 4788   1.308   1.860   3.684  0.5425  0.0878  0.7999
  760MOL0     C 4789   1.252   1.932   3.787 -0.3917  0.6438  0.5673
  760MOL0     O 4790   1.135   1.891   4.056  1.0831  0.4950  0.1839
  760MOL0     C 4791   1.207   2.196   4.228 -0.2414  0.5796  0.9586
  760MOL0     C 4792   1.173   2.267   4.347  0.0460  0.1590 -0.0499
  760MOL0     N 4793   1.299   2.779   4.543  0.5559  0.2442 -0.4368
  760MOL0     N 4794   1.255   2.898   4.538  0.5056  0.8828  0.9284
  760MOL0     C 4795   1.174   3.981   4.672 -0.5569  0.4725  0.9552
  760MOL0     C 4796   1.201   4.066   4.772 -1.0511 -0.4464  0.3154
  760MOL0     C 4797   1.265   4.193   5.222 -0.8114  0.3741  0.3258
  760MOL0     C 4798   1.371   4.279   5.190  0.1964 -0.5048  0.2726
  760MOL0     C 4799   1.425   4.371   5.277  0.4577 -0.6622 -0.3744
  760MOL0     C 4800   1.360   4.381   5.400 -0.1225 -0.0120  0.2899
  760MOL0     O 4801   1.410   4.464   5.503 -0.3245  0.9763 -0.1783
  760MOL0     C 4802   1.549   4.443   5.519  0.3796  0.0341 -0.6039
  760MOL0     C 4803   1.557   4.428   5.672 -0.1988 -0.4132 -0.2298
  760MOL0     C 4804   1.475   4.315   5.734  0.3211  0.1439  0.3807
  760MOL0     C 4805   1.475   4.328   5.887 -0.0874  0.1757 -0.7034
  760MOL0     C 4806   1.603   4.293   5.941  0.2056 -0.1166  0.2540
  760MOL0     C 4807   1.716   4.251   5.953 -0.8151 -0.7099  0.4166
  760MOL0     C 4808   1.244   4.307   5.430  0.4064  0.9124 -0.2623
  760MOL0     C 4809   1.198   4.202   5.344  0.5804 -0.0065  0.5495
  760MOL0     C 4810   1.075   4.132   5.386 -0.1941  0.0490 -0.0038
  760MOL0     H 4811   1.288   3.838   5.010 -1.6125  1.1076  1.7784
  760MOL0     H 4812   1.246   3.684   4.809  1.4497  0.0510  0.3630
  760MOL0     H 4813   1.026   3.772   4.419  0.0495 -0.5379  0.0355
  760MOL0     H 4814   0.990   3.891   4.536  3.9791  0.8496  1.6266
  760MOL0     H 4815   0.887   3.730   4.680 -4.1756 -2.4140  0.0752
  760MOL0     H 4816   0.814   3.716   4.529 -1.7942 -1.3438  3.0045
  760MOL0     H 4817   0.990   3.536   4.456  1.0286  1.3200  1.3285
  760MOL0     H 4818   1.031   3.518   4.635 -1.4645 -4.2764  0.5958
  760MOL0     H 4819   0.762   3.485   4.637 -2.0419  0.9821 -1.3098
  760MOL0     H 4820   0.774   3.450   4.471  1.0049 -1.0118 -1.4702
  760MOL0     H 4821   0.795   3.236   4.618 -1.4253  2.4130 -0.2603
  760MOL0     H 4822   0.928   3.306   4.688  0.5196  0.5102 -0.3253
  760MOL0     H 4823   0.877   3.258   4.392  0.4527  0.4684 -0.3879
  760MOL0     H 4824   1.048   3.290   4.456  0.0033 -1.4126 -0.2384
  760MOL0     H 4825   1.031   3.054   4.398  2.0271  0.3016  0.8953
  760MOL0     H 4826   0.880   3.042   4.484  0.3918  0.5837  2.3799
  760MOL0     H 4827   1.138   3.121   4.623  0.7112 -1.1365  1.8039
  760MOL0     H 4828   0.995   3.041   4.697  0.6977 -2.1751  0.6031
  760MOL0     H 4829   0.980   2.753   4.629  0.1171  0.2468  0.9488
  760MOL0     H 4830   1.192   2.526   4.481 -1.4644 -1.7807  0.2529
  760MOL0     H 4831   1.064   2.540   4.614 -0.4584  1.1915  1.2866
  760MOL0     H 4832   1.354   2.508   4.681 -0.1860 -0.8794  1.2402
  760MOL0     H 4833   1.214   2.520   4.780  2.4862  1.5870  0.1079
  760MOL0     H 4834   1.308   2.294   4.593 -0.3786 -0.2679 -0.4779
  760MOL0     H 4835   1.288   2.272   4.769 -1.3738  2.3029  1.5139
  760MOL0     H 4836   1.123   2.143   4.657 -2.9128 -0.8815 -1.3413
  760MOL0     H 4837   1.051   2.282   4.749 -0.8277 -3.6451 -0.4732
  760MOL0     H 4838   0.956   2.049   4.482 -0.3756 -0.2971 -1.3529
  760MOL0     H 4839   0.984   1.837   4.217 -0.1096 -1.4049  0.8757
  760MOL0     H 4840   0.915   1.873   4.380  2.3146 -0.1683  3.8604
  760MOL0     H 4841   1.080   1.806   4.359  1.7436  0.4946 -0.9435
  760MOL0     H 4842   1.540   1.992   3.957  1.2347 -1.0215 -1.5981
  760MOL0     H 4843   1.636   1.867   3.777  0.5187 -0.1451 -2.0169
  760MOL0     H 4844   1.506   1.677   3.408 -1.0787  0.9576 -1.0314
  760MOL0     H 4845   1.341   1.687   3.472 -0.7788  2.0572 -0.0765
  760MOL0     H 4846   1.387   1.948   3.427 -0.8832 -1.0571  0.6822
  760MOL0     H 4847   1.514   1.883   3.317  1.0091 -2.3840  0.8262
  760MOL0     H 4848   1.367   1.737   3.195  0.4253  1.6868 -3.6780
  760MOL0     H 4849   1.344   1.899   3.174  1.7675 -1.4966 -0.7833
  760MOL0     H 4850   1.177   1.943   3.322  0.9440  0.1694 -0.1057
  760MOL0     H 4851   1.159   1.770   3.369 -0.3464  1.4988  0.7601
  760MOL0     H 4852   1.009   1.820   3.196  0.2447 -0.9930 -2.3683
  760MOL0     H 4853   1.128   1.862   3.073  0.5598 -2.7734 -1.5885
  760MOL0     H 4854   1.075   1.597   3.226  0.2277 -0.0850 -0.0841
  760MOL0     H 4855   1.214   1.611   3.118 -0.3024 -1.9672 -0.3889
  760MOL0     H 4856   0.919   1.629   3.045 -0.3886  1.9007 -0.0045
  760MOL0     H 4857   1.031   1.498   3.003 -0.6647  0.3733  2.3019
  760MOL0     H 4858   1.041   1.772   2.872  0.1521 -0.4654  2.9910
  760MOL0     H 4859   0.983   1.611   2.806 -1.9008  1.5847  0.9021
  760MOL0     H 4860   1.249   1.827   3.599 -0.6680  0.4222  1.4908
  760MOL0     H 4861   1.146   1.958   3.784 -0.8159 -1.0313 -0.4343
  760MOL0     H 4862   1.264   2.246   4.150 -3.1496  0.1323 -1.6560
  760MOL0     H 4863   1.213   2.367   4.362 -0.7485  0.2840  1.4205
  760MOL0     H 4864   1.131   4.023   4.581  3.6743  1.4496 -0.8107
  760MOL0     H 4865   1.185   4.172   4.755 -0.9356 -0.7735 -2.2201
  760MOL0     H 4866   1.422   4.264   5.096 -1.9187  0.5044 -1.1115
  760MOL0     H 4867   1.511   4.433   5.252 -1.7318  3.0986  0.5957
  760MOL0     H 4868   1.581   4.351   5.470  0.0217 -0.1115 -0.5710
  760MOL0     H 4869   1.604   4.529   5.482 -0.0961 -0.5124 -2.7186
  760MOL0     H 4870   1.535   4.522   5.722 -1.0874 -0.6022 -0.2474
  760MOL0     H 4871   1.663   4.413   5.697 -0.2654 -0.0006  0.2946
  760MOL0     H 4872   1.372   4.316   5.698  2.0913 -2.9692 -6.4839
  760MOL0     H 4873   1.512   4.229   5.677 -0.4420  0.1020 -0.0650
  760MOL0     H 4874   1.399   4.258   5.922  0.9691 -0.8514 -0.3848
  760MOL0     H 4875   1.445   4.426   5.925  0.5598 -0.2226  0.9514
  760MOL0     H 4876   1.809   4.203   5.974 -0.6822 -0.9303 -0.6071
  760MOL0     H 4877   1.197   4.326   5.526 -1.9878  1.8134 -1.5452
  760MOL0     H 4878   0.997   4.144   5.310 -0.1876  1.7434  0.2099
  760MOL0     H 4879   1.094   4.025   5.400 -0.7169  0.0180  0.5031
  760MOL0     H 4880   1.033   4.166   5.481 -1.4826 -1.4143  0.0036
  761MOL0     O 4881   1.684   7.395   2.253 -0.2130  0.3141  0.3082
  761MOL0     C 4882   1.693   7.514   2.287  0.7505  0.2765  0.3127
  761MOL0     O 4883   1.589   7.592   2.333 -0.4572  0.4475  0.3371
  761MOL0     C 4884   1.477   7.525   2.368  0.4467  0.3884 -0.7013
  761MOL0     C 4885   1.471   7.480   2.500 -0.5051 -0.0232  0.4690
  761MOL0     C 4886   1.366   7.403   2.542  0.2236 -0.5291 -0.5700
  761MOL0     C 4887   1.269   7.367   2.442 -0.1133  0.2472  0.0278
  761MOL0     O 4888   1.168   7.283   2.484  0.4179 -0.2556 -0.1170
  761MOL0     C 4889   1.121   7.182   2.388  0.1336  0.1280 -0.2651
  761MOL0     C 4890   1.031   7.074   2.457  0.3750 -0.7135 -0.3692
  761MOL0     C 4891   1.106   6.986   2.554 -0.4385  0.5326  0.0444
  761MOL0     C 4892   1.017   6.860   2.587 -0.5294  0.5554  0.1656
  761MOL0     C 4893   1.064   6.773   2.703  0.7313  0.3546 -0.6825
  761MOL0     C 4894   0.951   6.669   2.752  0.3978 -1.2506  0.7654
  761MOL0     C 4895   0.985   6.580   2.865 -0.6083 -0.6087  0.5739
  761MOL0     C 4896   1.081   6.465   2.839  0.1858 -1.5250 -0.7293
  761MOL0     N 4897   1.151   6.420   2.960  0.4135 -0.7718 -0.1550
  761MOL0     C 4898   1.260   6.484   3.022  0.4577 -0.5501 -0.1805
  761MOL0     C 4899   1.301   6.403   3.125 -0.1953  0.2699  0.6044
  761MOL0     C 4900   1.398   6.421   3.232 -0.8479  0.2627 -0.3744
  761MOL0     C 4901   1.339   6.378   3.366 -0.0916  0.4720 -0.2064
  761MOL0     C 4902   1.456   6.356   3.459 -0.4388 -0.2103 -0.6987
  761MOL0     C 4903   1.418   6.310   3.601 -0.2072 -0.3808  0.1425
  761MOL0     O 4904   1.481   6.381   3.707 -0.6836 -0.2128  1.4368
  761MOL0     C 4905   1.420   6.383   3.829 -0.3307 -0.1083  0.3293
  761MOL0     C 4906   1.344   6.270   3.865 -0.1384 -0.3847 -0.8026
  761MOL0     C 4907   1.292   6.262   3.993 -0.7552 -0.2726  0.3116
  761MOL0     C 4908   1.201   6.147   4.024 -0.3705  0.0274 -0.6946
  761MOL0     C 4909   1.328   6.372   4.080  0.6385  0.5729 -1.4782
  761MOL0     C 4910   1.258   6.384   4.218 -0.2935 -0.1238 -0.3549
  761MOL0     O 4911   1.319   6.451   4.320 -0.7773  0.3550  0.0430
  761MOL0     C 4912   1.239   6.498   4.426  0.8257 -0.0568 -0.1021
  761MOL0     C 4913   1.171   6.408   4.521 -1.1194  0.0108  0.0890
  761MOL0     C 4914   1.103   6.453   4.630 -0.5620  0.9520  0.6899
  761MOL0     C 4915   1.095   6.597   4.646 -0.5081  0.0411  0.4531
  761MOL0     O 4916   1.030   6.649   4.756 -0.2433 -0.0922  0.5939
  761MOL0     C 4917   1.105   6.725   4.851 -0.1755 -0.1684 -0.2786
  761MOL0     C 4918   1.040   6.693   4.988  0.5490  0.8086  0.9819
  761MOL0     C 4919   1.127   6.742   5.108  0.1579  0.2205 -0.3577
  761MOL0     C 4920   1.160   6.894   5.094 -0.2168  1.1512 -0.5598
  761MOL0     C 4921   1.245   6.946   5.223 -0.8803  0.5665 -0.2895
  761MOL0     C 4922   1.274   7.092   5.208 -0.6493 -0.4438  0.1832
  761MOL0     C 4923   1.376   7.140   5.308  0.3353  0.4259 -1.0081
  761MOL0     C 4924   1.445   7.265   5.264  0.6079 -0.2323 -0.3261
  761MOL0    Cl 4925   1.313   7.386   5.249 -0.7799  0.0427 -0.1935
  761MOL0     C 4926   1.161   6.682   4.559 -0.4973  0.3213  0.4620
  761MOL0     C 4927   1.228   6.636   4.444 -0.5459 -0.0289  0.6451
  761MOL0     O 4928   1.143   6.343   4.224 -0.0696 -0.0084 -0.3447
  761MOL0     C 4929   1.410   6.477   4.047 -0.1106  0.6043 -1.0416
  761MOL0     C 4930   1.453   6.481   3.919 -0.1310  0.1726 -0.0280
  761MOL0     N 4931   1.211   6.298   3.131  0.0818 -0.0083  0.1759
  761MOL0     N 4932   1.134   6.305   3.032  0.5338  0.1463  0.8874
  761MOL0     C 4933   1.270   7.421   2.315  0.9738 -0.0964  0.4708
  761MOL0     C 4934   1.371   7.502   2.282 -0.3545 -0.1633 -0.5658
  761MOL0     C 4935   1.824   7.577   2.293 -0.0963 -0.3913 -0.6017
  761MOL0     C 4936   1.924   7.510   2.367  0.8007  0.9229  0.1188
  761MOL0     C 4937   2.049   7.561   2.386 -0.2931  0.4272  0.3254
  761MOL0     C 4938   2.082   7.687   2.346 -0.4924  0.0180  0.7688
  761MOL0     O 4939   2.202   7.725   2.386 -0.3326  0.1902  1.0845
  761MOL0     C 4940   2.234   7.870   2.384 -0.2117 -0.3405 -0.1840
  761MOL0     C 4941   2.389   7.883   2.411  0.3111 -0.4653  0.0557
  761MOL0     C 4942   2.450   8.012   2.442  0.5287 -0.0896 -0.0921
  761MOL0     C 4943   2.438   8.047   2.592 -0.0172  0.2136 -0.8990
  761MOL0     C 4944   2.522   8.166   2.624  0.0305  0.6762  0.1500
  761MOL0     C 4945   2.578   8.270   2.654  1.1284 -0.0160 -0.7486
  761MOL0     C 4946   1.986   7.766   2.274  1.1302  0.2089  0.0847
  761MOL0     C 4947   1.860   7.706   2.247  0.2520  1.2741  0.4466
  761MOL0     C 4948   1.773   7.799   2.173  0.1165 -0.7502 -0.3846
  761MOL0     H 4949   1.555   7.505   2.562  0.4960  2.6497 -1.7590
  761MOL0     H 4950   1.371   7.368   2.645 -0.1492 -0.1472 -0.4184
  761MOL0     H 4951   1.201   7.139   2.328  0.0800 -0.2606 -0.0640
  761MOL0     H 4952   1.058   7.233   2.314  1.9193 -0.1975 -2.1026
  761MOL0     H 4953   0.944   7.121   2.502 -0.3957 -3.0223  0.6936
  761MOL0     H 4954   0.987   7.014   2.377  0.8576 -0.1846 -1.0501
  761MOL0     H 4955   1.202   6.964   2.506 -1.5372 -1.9628 -1.1970
  761MOL0     H 4956   1.123   7.046   2.644 -0.8799 -0.2789  0.6885
  761MOL0     H 4957   0.916   6.895   2.609 -1.6426 -2.9835  1.3837
  761MOL0     H 4958   1.006   6.800   2.496  4.1887 -0.6160  0.0696
  761MOL0     H 4959   1.079   6.848   2.782 -1.4628 -1.1639  1.3238
  761MOL0     H 4960   1.150   6.711   2.674 -1.6976 -3.6792 -0.0537
  761MOL0     H 4961   0.870   6.732   2.791  2.2000  1.1555  0.8360
  761MOL0     H 4962   0.921   6.615   2.662 -1.5363 -0.8630  1.1426
  761MOL0     H 4963   0.887   6.545   2.899 -1.6094  1.0356 -0.4662
  761MOL0     H 4964   1.023   6.644   2.944  2.2018  4.8071 -4.3816
  761MOL0     H 4965   1.010   6.401   2.785 -2.7056  3.0687 -3.0055
  761MOL0     H 4966   1.157   6.491   2.765  2.5081 -3.5240  0.7873
  761MOL0     H 4967   1.300   6.584   3.004 -0.3381 -0.4070 -1.2510
  761MOL0     H 4968   1.445   6.519   3.244  0.0330  0.2168 -2.9990
  761MOL0     H 4969   1.477   6.348   3.214 -1.1706  0.0510 -0.9418
  761MOL0     H 4970   1.270   6.448   3.415 -0.6598 -1.4055  1.8719
  761MOL0     H 4971   1.287   6.282   3.358 -2.1395  1.5146  0.0189
  761MOL0     H 4972   1.516   6.276   3.413  0.2365 -0.2245  0.1834
  761MOL0     H 4973   1.522   6.443   3.454 -2.0512  1.1279  0.3466
  761MOL0     H 4974   1.309   6.321   3.605 -0.0204  1.4142  2.7420
  761MOL0     H 4975   1.442   6.204   3.618 -0.4516 -0.1580  2.0352
  761MOL0     H 4976   1.321   6.183   3.804 -2.2489  0.7320 -1.7144
  761MOL0     H 4977   1.235   6.110   4.121  1.2959  1.0909 -0.8385
  761MOL0     H 4978   1.213   6.065   3.953  2.6867 -1.4022  1.2480
  761MOL0     H 4979   1.095   6.174   4.032 -1.3323 -3.2468 -1.0486
  761MOL0     H 4980   1.175   6.300   4.510 -0.1978  0.2966 -3.8515
  761MOL0     H 4981   1.057   6.378   4.693  1.8014  1.2489  2.9272
  761MOL0     H 4982   1.203   6.675   4.851 -0.7892 -1.4272 -0.6562
  761MOL0     H 4983   1.108   6.833   4.837 -0.4989 -0.1371 -0.1132
  761MOL0     H 4984   0.946   6.748   4.989  1.5428  2.6205  0.7188
  761MOL0     H 4985   1.031   6.585   4.994  0.7106  0.7603  0.4099
  761MOL0     H 4986   1.217   6.680   5.116  1.2866  0.9751 -4.7758
  761MOL0     H 4987   1.067   6.734   5.199 -0.4576  2.6652 -0.4606
  761MOL0     H 4988   1.064   6.945   5.109 -1.2211 -0.2549 -1.9152
  761MOL0     H 4989   1.208   6.922   4.999  0.5516  0.6010 -0.3450
  761MOL0     H 4990   1.191   6.946   5.318  1.7044  2.8790  1.3310
  761MOL0     H 4991   1.343   6.897   5.229 -0.2921  1.8284  1.0376
  761MOL0     H 4992   1.177   7.140   5.224 -2.0277 -1.5905 -3.6757
  761MOL0     H 4993   1.301   7.104   5.103 -1.5171  2.9016  0.2197
  761MOL0     H 4994   1.454   7.066   5.325 -2.2712 -2.3545 -0.1219
  761MOL0     H 4995   1.332   7.159   5.407 -0.9812 -0.9124 -1.2895
  761MOL0     H 4996   1.485   7.254   5.163  3.1029  1.9239  0.3278
  761MOL0     H 4997   1.530   7.296   5.326  1.3196  0.1001 -1.4415
  761MOL0     H 4998   1.166   6.787   4.587 -1.9474  0.1392  1.5486
  761MOL0     H 4999   1.292   6.703   4.386  0.6216 -0.1838  1.7044
  761MOL0     H 5000   1.430   6.558   4.117  1.6046  1.7164 -2.7214
  761MOL0     H 5001   1.507   6.558   3.864 -2.5855 -0.5346 -3.8313
  761MOL0     H 5002   1.196   7.411   2.236  1.5827  1.8139 -0.4137
  761MOL0     H 5003   1.368   7.528   2.177  1.3015 -0.2891 -0.6715
  761MOL0     H 5004   1.894   7.411   2.398 -1.2865  0.0864 -3.8772
  761MOL0     H 5005   2.124   7.507   2.442  0.9938 -0.0687 -1.7413
  761MOL0     H 5006   2.208   7.903   2.283 -3.0648  0.6143  0.7414
  761MOL0     H 5007   2.173   7.927   2.455 -1.6906 -0.3284 -1.3933
  761MOL0     H 5008   2.444   7.854   2.322 -0.2827  0.4236 -0.6193
  761MOL0     H 5009   2.418   7.812   2.489  1.8646  1.3896  1.2506
  761MOL0     H 5010   2.557   7.998   2.424  0.7263 -1.0489  1.5769
  761MOL0     H 5011   2.410   8.082   2.369 -0.6847 -0.3416  0.3081
  761MOL0     H 5012   2.462   7.963   2.658  1.2973  2.1967  1.2636
  761MOL0     H 5013   2.332   8.069   2.607 -0.4408 -1.2642 -1.5568
  761MOL0     H 5014   2.632   8.362   2.666 -3.0786  2.5434  0.6105
  761MOL0     H 5015   1.990   7.874   2.261 -0.0616  0.2393 -0.1444
  761MOL0     H 5016   1.687   7.741   2.138 -2.0368  2.3124 -0.4739
  761MOL0     H 5017   1.727   7.873   2.239  3.7867 -0.0050  1.6041
  761MOL0     H 5018   1.819   7.850   2.088  1.4748  1.0567  1.3549
  762MOL0     O 5019   4.200   3.216   4.299  0.0667 -0.1092 -0.7384
  762MOL0     C 5020   4.175   3.234   4.185 -0.2924 -0.1077  0.1330
  762MOL0     O 5021   4.234   3.333   4.101 -0.0993 -0.2931 -0.0870
  762MOL0     C 5022   4.347   3.395   4.147  1.2827  0.4577  0.1692
  762MOL0     C 5023   4.369   3.430   4.279  0.4289 -1.1567  0.2032
  762MOL0     C 5024   4.485   3.507   4.310 -0.1940  0.4724  0.5791
  762MOL0     C 5025   4.580   3.532   4.201 -0.4936 -0.1378 -0.4354
  762MOL0     O 5026   4.705   3.588   4.228 -0.1413 -0.2414  0.1421
  762MOL0     C 5027   4.826   3.539   4.168  0.0896 -0.6240  0.2401
  762MOL0     C 5028   4.946   3.627   4.210 -1.0086  0.0857  0.3565
  762MOL0     C 5029   4.972   3.575   4.359  0.3233  0.3134  0.7762
  762MOL0     C 5030   5.118   3.607   4.395 -0.9502  0.0421  0.8133
  762MOL0     C 5031   5.156   3.558   4.536 -1.0257 -0.5012  0.6839
  762MOL0     C 5032   5.313   3.564   4.552  0.0332  0.2712  0.1004
  762MOL0     C 5033   5.369   3.709   4.530  0.0557  0.2307 -0.3618
  762MOL0     C 5034   5.515   3.711   4.569 -0.0185 -0.5021 -0.5065
  762MOL0     N 5035   5.553   3.674   4.712 -0.3404  0.5124 -0.7213
  762MOL0     C 5036   5.501   3.737   4.822  0.0547  1.0391  0.3797
  762MOL0     C 5037   5.514   3.639   4.920  0.7234  0.0454  0.0360
  762MOL0     C 5038   5.480   3.653   5.064  0.5701  0.1277 -0.7832
  762MOL0     C 5039   5.608   3.680   5.151 -0.2740 -1.0696 -0.0865
  762MOL0     C 5040   5.654   3.826   5.128  0.2678  0.6778  0.4597
  762MOL0     C 5041   5.734   3.862   5.253  0.2736  0.4262 -0.4529
  762MOL0     O 5042   5.761   3.996   5.229 -0.8122 -0.4071  0.1373
  762MOL0     C 5043   5.839   4.054   5.321 -0.2913  0.8716 -0.1537
  762MOL0     C 5044   5.895   3.984   5.433 -0.9130 -0.0168  0.1606
  762MOL0     C 5045   5.989   4.043   5.515  0.6950  0.1028 -0.3302
  762MOL0     C 5046   6.040   3.953   5.622 -0.4622  0.0841  0.6882
  762MOL0     C 5047   6.032   4.177   5.494 -0.5634  0.4304 -1.1111
  762MOL0     C 5048   6.113   4.251   5.598 -0.0618 -0.4261 -0.1517
  762MOL0     O 5049   6.166   4.365   5.546  1.5186  0.3229  0.2704
  762MOL0     C 5050   6.266   4.428   5.614  0.7848 -0.1531  0.6271
  762MOL0     C 5051   6.238   4.552   5.665 -0.4503  0.7355 -0.4226
  762MOL0     C 5052   6.344   4.634   5.709 -0.2072 -0.8210 -0.9481
  762MOL0     C 5053   6.479   4.597   5.694 -0.2596 -0.5742  0.3309
  762MOL0     O 5054   6.573   4.677   5.751  0.1539  0.2312 -0.7972
  762MOL0     C 5055   6.719   4.664   5.731 -0.6610  0.1194 -0.1824
  762MOL0     C 5056   6.761   4.709   5.589 -1.1226  0.9044 -0.4071
  762MOL0     C 5057   6.726   4.849   5.540 -0.3435 -0.2551  0.2367
  762MOL0     C 5058   6.775   4.854   5.394  0.7870  0.4195 -0.6115
  762MOL0     C 5059   6.752   4.996   5.342 -1.1248 -0.1563 -0.2110
  762MOL0     C 5060   6.886   5.073   5.341  0.2705 -0.0049 -0.0459
  762MOL0     C 5061   6.865   5.216   5.294 -0.8106 -0.2648 -0.7812
  762MOL0     C 5062   6.991   5.272   5.236  0.3294  0.8494  0.3715
  762MOL0    Cl 5063   7.018   5.207   5.075 -0.0750 -0.2142  0.3736
  762MOL0     C 5064   6.503   4.465   5.653  0.8934  0.2385  0.4300
  762MOL0     C 5065   6.395   4.384   5.596 -0.3730 -0.5483 -0.0730
  762MOL0     O 5066   6.146   4.198   5.706  0.2535  0.3792 -0.5995
  762MOL0     C 5067   5.978   4.247   5.385 -0.4129 -0.0614 -0.5238
  762MOL0     C 5068   5.888   4.186   5.305  0.4334  0.3774 -0.1566
  762MOL0     N 5069   5.578   3.522   4.872 -0.8002  0.9918  0.4201
  762MOL0     N 5070   5.586   3.548   4.740 -0.3628  0.2901  0.5703
  762MOL0     C 5071   4.544   3.509   4.068  0.1051 -0.1778  0.3121
  762MOL0     C 5072   4.429   3.427   4.038 -0.1186 -0.1090  0.0526
  762MOL0     C 5073   4.094   3.124   4.118  0.3423  0.5427  0.4750
  762MOL0     C 5074   4.136   3.079   3.995 -0.8768 -0.4155 -0.3978
  762MOL0     C 5075   4.087   2.963   3.944 -0.1633  0.9716  0.4004
  762MOL0     C 5076   3.988   2.891   4.010  0.0236 -0.1808  0.5411
  762MOL0     O 5077   3.930   2.770   3.960  0.1019 -0.7636  0.0071
  762MOL0     C 5078   3.920   2.736   3.821 -0.6454 -0.4932 -0.1673
  762MOL0     C 5079   3.782   2.784   3.764  0.2168  0.9370  0.5922
  762MOL0     C 5080   3.775   2.935   3.759 -0.5163 -0.2046 -0.5718
  762MOL0     C 5081   3.642   2.980   3.698 -0.3938 -0.1489 -0.2352
  762MOL0     C 5082   3.651   3.113   3.639 -0.5864 -0.7814 -0.2541
  762MOL0     C 5083   3.666   3.229   3.600  0.3749  0.1834  0.4952
  762MOL0     C 5084   3.925   2.945   4.120 -0.2761  1.2220  0.9431
  762MOL0     C 5085   3.975   3.066   4.169 -0.0467  0.1522 -0.2056
  762MOL0     C 5086   3.902   3.129   4.286  0.0421 -0.0625 -0.7061
  762MOL0     H 5087   4.302   3.425   4.364  1.9885  3.1886  1.9464
  762MOL0     H 5088   4.502   3.546   4.410  2.6122  0.8040  0.0612
  762MOL0     H 5089   4.822   3.550   4.060 -1.1286  1.1411  0.4211
  762MOL0     H 5090   4.829   3.430   4.183  0.1415 -0.3089  3.2091
  762MOL0     H 5091   5.034   3.608   4.148 -1.4467  2.3433 -1.0592
  762MOL0     H 5092   4.920   3.733   4.200  1.6063  0.6761 -1.0955
  762MOL0     H 5093   4.918   3.633   4.433 -1.5533 -0.8766  0.4169
  762MOL0     H 5094   4.950   3.472   4.389 -0.1192  1.1166  3.3950
  762MOL0     H 5095   5.176   3.551   4.321 -2.2614 -1.8492  1.1502
  762MOL0     H 5096   5.136   3.713   4.374 -2.4039 -0.1032 -1.5764
  762MOL0     H 5097   5.121   3.456   4.553  3.4157 -2.5360 -0.6364
  762MOL0     H 5098   5.099   3.612   4.612 -3.3647  0.9253 -1.9191
  762MOL0     H 5099   5.338   3.523   4.651  1.0974 -0.4092 -0.4342
  762MOL0     H 5100   5.354   3.492   4.481 -0.2405  0.4533 -0.2418
  762MOL0     H 5101   5.307   3.780   4.585 -0.9276 -1.2827  0.5845
  762MOL0     H 5102   5.367   3.723   4.422  2.4695  1.8646 -0.2571
  762MOL0     H 5103   5.562   3.644   4.497 -0.8431  2.0260 -3.6603
  762MOL0     H 5104   5.544   3.814   4.546  0.9691 -0.6792 -0.1000
  762MOL0     H 5105   5.467   3.840   4.827 -5.4261 -0.4059 -0.7300
  762MOL0     H 5106   5.443   3.559   5.107 -0.2589  0.6216 -0.3850
  762MOL0     H 5107   5.404   3.731   5.074  2.3667  1.9201 -0.6757
  762MOL0     H 5108   5.593   3.666   5.259  1.5027  0.4922  0.4179
  762MOL0     H 5109   5.683   3.605   5.125 -0.3462 -1.1720 -0.0029
  762MOL0     H 5110   5.720   3.819   5.041 -1.6616 -1.1801 -0.9511
  762MOL0     H 5111   5.573   3.899   5.111 -0.4840 -0.5430 -1.5523
  762MOL0     H 5112   5.679   3.856   5.347  0.6141  0.9880 -0.2174
  762MOL0     H 5113   5.825   3.802   5.257  0.2181  0.3634 -0.1721
  762MOL0     H 5114   5.876   3.877   5.443  1.3084 -0.4806  0.1103
  762MOL0     H 5115   5.985   3.972   5.715 -1.8971  4.0003 -0.7286
  762MOL0     H 5116   6.145   3.984   5.623 -0.1645 -0.6243 -1.6598
  762MOL0     H 5117   6.025   3.852   5.583 -1.0902  0.0241  1.0618
  762MOL0     H 5118   6.136   4.585   5.652  0.3166  3.4596 -0.1617
  762MOL0     H 5119   6.325   4.736   5.739  0.3807 -1.2847  1.1621
  762MOL0     H 5120   6.763   4.737   5.799 -0.2516 -0.0963 -0.2146
  762MOL0     H 5121   6.760   4.565   5.753  1.8118  0.5099 -2.4363
  762MOL0     H 5122   6.868   4.698   5.570 -0.4211 -0.3045  3.3886
  762MOL0     H 5123   6.699   4.642   5.528 -0.5300  0.3236 -0.3773
  762MOL0     H 5124   6.784   4.925   5.593  1.0683 -1.0368 -0.1435
  762MOL0     H 5125   6.621   4.879   5.548 -0.1653  0.8678 -1.2195
  762MOL0     H 5126   6.715   4.790   5.329 -2.7840  2.2218  0.6352
  762MOL0     H 5127   6.880   4.827   5.375  0.3763 -0.7180 -1.3718
  762MOL0     H 5128   6.704   4.999   5.244  0.1885  3.0945 -0.9104
  762MOL0     H 5129   6.684   5.049   5.409 -0.2637 -1.5303  1.8481
  762MOL0     H 5130   6.945   5.017   5.266  0.8080 -1.7888  1.6195
  762MOL0     H 5131   6.941   5.077   5.435 -1.0830 -0.3359  0.7860
  762MOL0     H 5132   6.837   5.274   5.381 -1.1931  0.3883 -1.3312
  762MOL0     H 5133   6.782   5.212   5.222 -1.7918 -2.1253  0.3825
  762MOL0     H 5134   7.074   5.230   5.293  0.5353 -0.3200 -0.7435
  762MOL0     H 5135   6.993   5.381   5.242  0.5444  0.7688  2.1387
  762MOL0     H 5136   6.604   4.433   5.630  1.0099  1.3199 -0.6800
  762MOL0     H 5137   6.419   4.283   5.565  0.9767 -0.2452 -0.0684
  762MOL0     H 5138   5.998   4.353   5.373  2.6325 -0.6092 -1.1728
  762MOL0     H 5139   5.833   4.234   5.225  0.4492 -2.2749 -1.8601
  762MOL0     H 5140   4.616   3.533   3.991 -1.3058  1.3847 -0.5936
  762MOL0     H 5141   4.418   3.383   3.939 -0.5187 -0.3505  0.2032
  762MOL0     H 5142   4.208   3.136   3.937 -1.0252  1.8616  1.5327
  762MOL0     H 5143   4.123   2.925   3.849 -3.0810  3.6193 -1.9998
  762MOL0     H 5144   4.000   2.784   3.764 -0.9470  2.6310  1.8543
  762MOL0     H 5145   3.922   2.626   3.820 -3.8907 -0.6707  1.1568
  762MOL0     H 5146   3.695   2.744   3.817 -0.0722  0.4578 -0.2281
  762MOL0     H 5147   3.776   2.758   3.658 -0.8511 -2.0526  1.2836
  762MOL0     H 5148   3.800   2.974   3.858 -1.7410  0.7864 -0.6172
  762MOL0     H 5149   3.855   2.969   3.692 -1.7112  0.4137 -1.7521
  762MOL0     H 5150   3.572   2.987   3.782  1.9164  5.2177  1.6438
  762MOL0     H 5151   3.607   2.907   3.624 -1.0273  1.0151 -1.1328
  762MOL0     H 5152   3.664   3.330   3.564 -1.3879 -0.0944 -0.2770
  762MOL0     H 5153   3.838   2.895   4.160  0.2062 -2.5757 -2.0385
  762MOL0     H 5154   3.964   3.181   4.359  1.2951 -0.0015 -1.7869
  762MOL0     H 5155   3.819   3.198   4.265  0.4167  0.3444 -0.8461
  762MOL0     H 5156   3.849   3.053   4.345  1.5203 -0.9552 -0.4801
  763MOL0     O 5157   7.841   6.638  10.984  1.2693 -0.0128 -0.0949
  763MOL0     C 5158   7.888   6.609  10.877  0.4100  0.3887 -0.7903
  763MOL0     O 5159   7.936   6.486  10.841  0.8992 -0.0925 -0.2726
  763MOL0     C 5160   7.948   6.381  10.929  0.0197  0.0288  0.3915
  763MOL0     C 5161   7.891   6.258  10.886 -0.2312  0.0684 -0.7008
  763MOL0     C 5162   7.882   6.144  10.967 -0.1804 -0.0397  0.7128
  763MOL0     C 5163   7.946   6.149  11.091 -0.3265 -0.1308  0.9890
  763MOL0     O 5164   7.948   6.047  11.175 -0.0036  0.3066  0.2256
  763MOL0     C 5165   7.849   5.934  11.175 -0.8933 -0.9999  0.2028
  763MOL0     C 5166   7.819   5.902  11.327  0.0839 -0.8578  0.0540
  763MOL0     C 5167   7.696   5.975  11.370  0.6546  0.1770 -0.3740
  763MOL0     C 5168   7.656   5.959  11.515  0.7380  0.5871  0.3510
  763MOL0     C 5169   7.542   6.057  11.553 -0.1948 -0.0919  0.2587
  763MOL0     C 5170   7.513   6.062  11.700 -0.3047 -0.4761 -0.2259
  763MOL0     C 5171   7.510   5.930  11.767  0.1436 -0.2371 -0.3235
  763MOL0     C 5172   7.403   5.834  11.712 -0.1849 -0.5091 -0.0611
  763MOL0     N 5173   7.435   5.695  11.724 -0.6276  0.4103 -0.6493
  763MOL0     C 5174   7.412   5.610  11.830 -0.0353 -0.1136  0.3331
  763MOL0     C 5175   7.460   5.493  11.793 -0.2221  0.4675  0.7099
  763MOL0     C 5176   7.443   5.366  11.882  0.1186  0.1917  0.4345
  763MOL0     C 5177   7.511   5.244  11.816  0.4400 -0.5496  0.2689
  763MOL0     C 5178   7.554   5.136  11.908 -0.0328 -0.0771 -0.4942
  763MOL0     C 5179   7.433   5.072  11.987  0.2786 -0.9942 -0.7424
  763MOL0     O 5180   7.453   4.934  12.008  0.2356  0.3936  0.9993
  763MOL0     C 5181   7.385   4.877  12.113 -0.5054  0.3063  0.0196
  763MOL0     C 5182   7.449   4.844  12.236  0.1714 -0.1808 -0.8420
  763MOL0     C 5183   7.379   4.830  12.354 -0.4596  0.3375  0.0610
  763MOL0     C 5184   7.461   4.800  12.477 -0.1938 -0.7351 -0.0680
  763MOL0     C 5185   7.236   4.825  12.352 -1.1900 -0.1491 -0.5640
  763MOL0     C 5186   7.163   4.808  12.470  0.7982  0.2932 -0.1590
  763MOL0     O 5187   7.181   4.896  12.573 -0.9658 -0.2852  0.4883
  763MOL0     C 5188   7.160   4.843  12.698  0.1892  0.2817 -0.3290
  763MOL0     C 5189   7.225   4.717  12.748 -0.1289 -0.1593 -1.6521
  763MOL0     C 5190   7.185   4.664  12.871  0.9411  0.5597  0.0044
  763MOL0     C 5191   7.113   4.738  12.958 -0.0862 -0.2525 -1.3332
  763MOL0     O 5192   7.099   4.689  13.087  0.6103 -0.0112 -0.5522
  763MOL0     C 5193   7.159   4.763  13.197 -0.6060 -0.0975 -0.2942
  763MOL0     C 5194   7.315   4.766  13.212  0.7614  0.2499  0.2898
  763MOL0     C 5195   7.348   4.746  13.356  0.1967  0.3958  0.0841
  763MOL0     C 5196   7.498   4.770  13.398  0.5645 -0.1647 -0.0290
  763MOL0     C 5197   7.515   4.736  13.549 -0.4606  0.2438  0.2852
  763MOL0     C 5198   7.405   4.769  13.648  0.9652  0.2171 -0.0755
  763MOL0     C 5199   7.382   4.914  13.672  0.3126 -0.0568  0.0112
  763MOL0     C 5200   7.257   4.940  13.757 -1.0468 -0.4455  0.5521
  763MOL0    Cl 5201   7.111   4.913  13.673 -0.1220  0.3846 -0.0778
  763MOL0     C 5202   7.059   4.861  12.915  0.4304  1.2935  0.0801
  763MOL0     C 5203   7.082   4.911  12.791 -0.3847 -0.6150  0.1071
  763MOL0     O 5204   7.074   4.720  12.464 -0.2667  0.3655  0.4294
  763MOL0     C 5205   7.172   4.860  12.237 -0.2207 -0.7007  0.2416
  763MOL0     C 5206   7.242   4.878  12.117 -0.7460 -0.2428  0.3140
  763MOL0     N 5207   7.501   5.502  11.663 -0.4023 -0.1199  0.3860
  763MOL0     N 5208   7.497   5.628  11.624 -0.1029 -0.4785  0.5658
  763MOL0     C 5209   8.013   6.261  11.132 -0.4765  0.3851 -0.2368
  763MOL0     C 5210   8.010   6.377  11.054  0.1587 -0.5222  0.2909
  763MOL0     C 5211   7.904   6.717  10.786 -0.0945  0.0258 -0.0389
  763MOL0     C 5212   7.866   6.851  10.828  1.0734  0.0261  0.2908
  763MOL0     C 5213   7.889   6.959  10.750 -0.1723 -0.4163 -0.5002
  763MOL0     C 5214   7.959   6.934  10.627  0.1591 -0.6864 -0.2613
  763MOL0     O 5215   7.966   7.054  10.557 -0.1372 -0.8114  0.2928
  763MOL0     C 5216   8.064   7.070  10.463 -1.1086  0.0971  0.2587
  763MOL0     C 5217   8.102   7.215  10.444  0.3507 -0.0288 -0.4239
  763MOL0     C 5218   8.159   7.259  10.572  1.0285  0.5321 -0.1557
  763MOL0     C 5219   8.174   7.403  10.576 -0.1138 -0.6120  0.4503
  763MOL0     C 5220   8.267   7.452  10.475 -0.0143 -1.5186  0.2126
  763MOL0     C 5221   8.363   7.507  10.414 -0.6858 -0.3767 -0.2323
  763MOL0     C 5222   7.983   6.805  10.574  0.0494  0.4518  0.5124
  763MOL0     C 5223   7.957   6.698  10.654 -0.7559 -0.5905 -0.0434
  763MOL0     C 5224   7.969   6.572  10.586 -0.0354  0.5833  0.4478
  763MOL0     H 5225   7.842   6.256  10.789  1.8759 -0.6491 -1.8142
  763MOL0     H 5226   7.835   6.052  10.935 -0.5678  0.2699  0.3790
  763MOL0     H 5227   7.903   5.844  11.145  0.4844 -0.7301  1.7723
  763MOL0     H 5228   7.757   5.949  11.117 -0.5764 -0.8667 -0.2679
  763MOL0     H 5229   7.801   5.797  11.348  0.4175 -0.8840  0.2100
  763MOL0     H 5230   7.899   5.931  11.395  0.8429  0.2665 -1.2526
  763MOL0     H 5231   7.708   6.082  11.352  1.9476  0.3307  1.1699
  763MOL0     H 5232   7.621   5.934  11.302  1.2175  0.0602 -0.9321
  763MOL0     H 5233   7.628   5.856  11.537  0.5257 -0.4001 -3.8366
  763MOL0     H 5234   7.740   6.002  11.571 -0.0253  0.8407  1.3303
  763MOL0     H 5235   7.457   6.024  11.492  1.3943  0.2377 -2.2781
  763MOL0     H 5236   7.567   6.159  11.522  3.9043 -0.4056  1.9409
  763MOL0     H 5237   7.596   6.119  11.740  0.0756 -1.5945  0.6254
  763MOL0     H 5238   7.417   6.115  11.692 -0.0502  0.4822  2.2865
  763MOL0     H 5239   7.503   5.942  11.876 -0.2616  2.0047 -0.5575
  763MOL0     H 5240   7.614   5.896  11.760  0.7709  1.6481 -0.7794
  763MOL0     H 5241   7.302   5.855  11.747 -0.6807 -3.8520  0.8517
  763MOL0     H 5242   7.408   5.851  11.604  0.3348 -2.1090 -0.3169
  763MOL0     H 5243   7.373   5.629  11.929  2.9860  1.4842  1.3696
  763MOL0     H 5244   7.339   5.332  11.893 -0.6181  1.2043 -2.4123
  763MOL0     H 5245   7.485   5.391  11.979  0.7669  3.1507 -0.5278
  763MOL0     H 5246   7.440   5.210  11.740  1.2643  0.0358 -0.8045
  763MOL0     H 5247   7.602   5.265  11.759  1.1112 -4.8027 -0.5412
  763MOL0     H 5248   7.617   5.064  11.854 -0.3724 -1.6660  1.1410
  763MOL0     H 5249   7.630   5.173  11.977  0.8900  1.6072 -2.3023
  763MOL0     H 5250   7.426   5.124  12.083 -3.1121  1.0796 -1.9184
  763MOL0     H 5251   7.341   5.085  11.929  0.9664 -2.6430 -2.3057
  763MOL0     H 5252   7.557   4.845  12.243  0.0597  0.4500  3.2305
  763MOL0     H 5253   7.429   4.872  12.553 -0.2906  0.3848 -1.1435
  763MOL0     H 5254   7.570   4.811  12.469 -0.4671  0.6151 -3.0837
  763MOL0     H 5255   7.434   4.698  12.505  0.1858 -1.3741 -1.8603
  763MOL0     H 5256   7.288   4.660  12.680 -1.1791 -1.8311 -1.2723
  763MOL0     H 5257   7.214   4.567  12.910  2.5384  0.0367 -2.2914
  763MOL0     H 5258   7.127   4.867  13.190 -1.7259 -0.5421 -2.7432
  763MOL0     H 5259   7.116   4.716  13.286  2.4783  0.5287  1.7096
  763MOL0     H 5260   7.355   4.680  13.157 -1.7475 -1.3359  0.7914
  763MOL0     H 5261   7.347   4.861  13.168 -4.5514  1.2524 -2.2016
  763MOL0     H 5262   7.324   4.644  13.387  1.8699 -0.0689 -0.0628
  763MOL0     H 5263   7.284   4.819  13.406  1.4537  2.2988 -0.9678
  763MOL0     H 5264   7.526   4.876  13.393 -1.4850  0.4444  0.2189
  763MOL0     H 5265   7.563   4.705  13.340  0.7981  1.1720 -1.3227
  763MOL0     H 5266   7.531   4.627  13.551 -0.2235  0.2815  0.7250
  763MOL0     H 5267   7.605   4.786  13.587 -1.2064  1.6469  0.2282
  763MOL0     H 5268   7.423   4.723  13.746 -0.0082 -2.0202 -0.8650
  763MOL0     H 5269   7.309   4.725  13.617  1.4053  0.4974 -1.9566
  763MOL0     H 5270   7.372   4.961  13.574 -0.0379 -2.0751 -0.9764
  763MOL0     H 5271   7.469   4.957  13.723  0.7933 -1.1348  0.1515
  763MOL0     H 5272   7.255   5.046  13.784 -0.0366 -0.7849  2.0981
  763MOL0     H 5273   7.271   4.894  13.855  2.9687  0.9150  0.8270
  763MOL0     H 5274   6.987   4.905  12.984 -0.1075  0.1891  0.2540
  763MOL0     H 5275   7.019   4.993  12.759 -0.4233 -0.9350 -0.6544
  763MOL0     H 5276   7.064   4.867  12.242 -0.2606 -1.9750  3.0242
  763MOL0     H 5277   7.193   4.911  12.027  0.7446  2.3321  0.3364
  763MOL0     H 5278   8.063   6.238  11.225 -3.0447 -2.3021  0.6351
  763MOL0     H 5279   8.058   6.469  11.085  0.3769 -0.8500  0.9372
  763MOL0     H 5280   7.814   6.876  10.920  0.4061 -0.9521  0.1906
  763MOL0     H 5281   7.854   7.059  10.774 -0.5578 -0.7256  0.2302
  763MOL0     H 5282   8.149   7.004  10.481 -1.3319 -0.9241 -2.0680
  763MOL0     H 5283   8.024   7.025  10.372  0.7457 -1.7248  0.2802
  763MOL0     H 5284   8.014   7.280  10.433  0.5004  0.2218 -0.1323
  763MOL0     H 5285   8.173   7.221  10.361  0.2227 -2.7289 -0.8285
  763MOL0     H 5286   8.105   7.216  10.657  1.7528 -1.5160 -0.6626
  763MOL0     H 5287   8.265   7.230  10.575  2.1341  3.6900 -2.8169
  763MOL0     H 5288   8.222   7.432  10.670  1.4418  2.1978 -1.0738
  763MOL0     H 5289   8.076   7.452  10.581 -1.1514 -2.6940  3.7584
  763MOL0     H 5290   8.443   7.563  10.369 -1.1114  0.0221 -0.5012
  763MOL0     H 5291   8.008   6.785  10.470 -0.2468 -1.6830  0.8171
  763MOL0     H 5292   7.897   6.500  10.626  0.8894 -0.4897  0.2262
  763MOL0     H 5293   7.936   6.575  10.482  2.1573 -2.1744 -0.4446
  763MOL0     H 5294   8.067   6.523  10.582  0.4526  1.5665  0.0551
  764MOL0     O 5295   7.918   8.449   1.650  0.0377 -0.0277 -0.6746
  764MOL0     C 5296   7.885   8.546   1.725 -0.5710  0.8374  0.7256
  764MOL0     O 5297   7.947   8.594   1.829 -0.6140  1.0356 -0.9735
  764MOL0     C 5298   8.080   8.561   1.835 -1.0719 -0.0213  0.6243
  764MOL0     C 5299   8.180   8.630   1.766 -0.5159  0.0846 -0.2897
  764MOL0     C 5300   8.312   8.612   1.792 -1.0926 -0.9507  0.5088
  764MOL0     C 5301   8.359   8.507   1.883  0.4749 -0.0186 -0.2934
  764MOL0     O 5302   8.498   8.488   1.903  1.6944 -0.5608 -0.3552
  764MOL0     C 5303   8.556   8.357   1.912  0.1258 -0.3156 -0.0774
  764MOL0     C 5304   8.709   8.366   1.933 -0.3190  0.5901  0.1359
  764MOL0     C 5305   8.772   8.455   1.826  0.1106  0.3634  0.1626
  764MOL0     C 5306   8.819   8.584   1.888 -0.4710 -0.7182 -0.0304
  764MOL0     C 5307   8.945   8.574   1.977  0.0213  0.7251 -0.0085
  764MOL0     C 5308   8.983   8.698   2.067 -0.2399 -0.2214 -0.2449
  764MOL0     C 5309   9.131   8.672   2.115  0.3366 -0.4497  0.4105
  764MOL0     C 5310   9.189   8.796   2.185  0.0977 -0.5401  1.1081
  764MOL0     N 5311   9.118   8.811   2.312  1.4899 -0.5370 -0.8146
  764MOL0     C 5312   9.027   8.917   2.351 -0.5598 -0.4443  0.3430
  764MOL0     C 5313   8.994   8.888   2.482 -0.3586  0.0628  0.4051
  764MOL0     C 5314   8.908   8.973   2.564  0.1055  0.4943 -0.0424
  764MOL0     C 5315   8.994   9.074   2.636  0.4414 -0.0728  1.3116
  764MOL0     C 5316   9.064   9.019   2.764  1.0390  0.5236 -0.2101
  764MOL0     C 5317   9.169   9.107   2.808  0.4453  0.5820  0.1635
  764MOL0     O 5318   9.117   9.234   2.827 -0.0879 -0.4893 -0.1497
  764MOL0     C 5319   9.211   9.329   2.850  0.3897  0.0266  1.0257
  764MOL0     C 5320   9.162   9.462   2.849 -0.1490 -0.2653  0.5559
  764MOL0     C 5321   9.243   9.576   2.860 -1.2194 -0.5185  0.4035
  764MOL0     C 5322   9.181   9.717   2.865 -0.3084  0.0194 -0.3652
  764MOL0     C 5323   9.385   9.545   2.871  0.7741 -0.3230  0.1626
  764MOL0     C 5324   9.491   9.643   2.851 -0.0941  0.3845 -0.6198
  764MOL0     O 5325   9.606   9.614   2.790  0.1355  0.1803  0.1019
  764MOL0     C 5326   9.726   9.688   2.776  0.1779  0.4922  0.4355
  764MOL0     C 5327   9.736   9.825   2.789 -2.1179  0.4681 -1.1521
  764MOL0     C 5328   9.860   9.873   2.798 -0.6141  0.6520 -0.3433
  764MOL0     C 5329   9.986   9.794   2.777 -0.2772  0.0824 -0.5382
  764MOL0     O 5330  10.111   9.842   2.786 -0.2341  0.7114  0.1951
  764MOL0     C 5331  10.146   9.969   2.826 -0.1497  0.0846  0.1557
  764MOL0     C 5332  10.290   9.994   2.778  0.7212 -0.7459  0.0418
  764MOL0     C 5333  10.386   9.894   2.856  0.7077 -0.4511 -0.1627
  764MOL0     C 5334  10.528   9.947   2.848  0.6053 -0.4848 -1.2006
  764MOL0     C 5335  10.597   9.935   2.713 -0.6533  0.0426 -0.1965
  764MOL0     C 5336  10.581   9.797   2.647 -0.0368  0.3200 -0.0236
  764MOL0     C 5337  10.706   9.757   2.561  0.3349 -0.2109  0.0247
  764MOL0     C 5338  10.696   9.600   2.532  1.2748 -0.0783  0.5994
  764MOL0    Cl 5339  10.828   9.545   2.418  0.1211 -0.0689 -0.4279
  764MOL0     C 5340   9.963   9.665   2.736  0.2830  0.7502  0.3690
  764MOL0     C 5341   9.841   9.610   2.735  0.4587 -0.3805 -0.5194
  764MOL0     O 5342   9.465   9.755   2.882 -0.3310  0.8113 -0.0724
  764MOL0     C 5343   9.433   9.420   2.868  0.0388 -0.3636 -0.0919
  764MOL0     C 5344   9.347   9.313   2.856 -0.1779 -0.2581  1.3644
  764MOL0     N 5345   9.068   8.780   2.525  1.2225 -0.8210  0.3662
  764MOL0     N 5346   9.139   8.727   2.424  0.1301 -0.6945 -0.0515
  764MOL0     C 5347   8.266   8.432   1.950 -0.7175 -0.8887 -1.0051
  764MOL0     C 5348   8.127   8.465   1.924  0.7178  0.6390  1.1100
  764MOL0     C 5349   7.762   8.616   1.690  0.3775  0.3879 -0.2962
  764MOL0     C 5350   7.661   8.650   1.793  0.0070 -0.6803 -0.4440
  764MOL0     C 5351   7.545   8.719   1.758 -0.5800  0.0728 -0.1675
  764MOL0     C 5352   7.517   8.759   1.629 -0.3972  0.0258  0.4066
  764MOL0     O 5353   7.400   8.829   1.604  0.3805 -0.2863  0.2199
  764MOL0     C 5354   7.401   8.953   1.530  0.3794  0.6048 -0.3655
  764MOL0     C 5355   7.450   9.075   1.600  0.1858  0.0375 -0.8814
  764MOL0     C 5356   7.369   9.083   1.737 -0.1988  0.2122  0.2722
  764MOL0     C 5357   7.407   9.192   1.842 -0.7227  0.6039  0.1020
  764MOL0     C 5358   7.512   9.288   1.806 -0.4259 -0.4137  0.0458
  764MOL0     C 5359   7.609   9.352   1.773  0.9267 -1.3764 -0.2511
  764MOL0     C 5360   7.601   8.722   1.527 -0.4046  0.0634 -1.0035
  764MOL0     C 5361   7.721   8.660   1.557 -0.3414 -0.2892  0.4815
  764MOL0     C 5362   7.810   8.640   1.438  0.1284 -0.1880  0.6778
  764MOL0     H 5363   8.152   8.702   1.690 -0.1166  1.5565  0.9124
  764MOL0     H 5364   8.385   8.678   1.745 -1.5210 -0.5889  0.3452
  764MOL0     H 5365   8.527   8.306   1.820  2.1263 -2.7251  0.5269
  764MOL0     H 5366   8.507   8.305   1.995 -1.3945 -2.7498 -2.3701
  764MOL0     H 5367   8.723   8.405   2.034 -0.1121  0.4515  0.1619
  764MOL0     H 5368   8.748   8.263   1.931  0.7282  0.9376  1.1327
  764MOL0     H 5369   8.851   8.394   1.781 -2.7035 -4.4987  1.1613
  764MOL0     H 5370   8.695   8.467   1.749  2.0639 -0.4120 -2.0492
  764MOL0     H 5371   8.837   8.652   1.805  1.4847 -0.3413  0.6402
  764MOL0     H 5372   8.747   8.627   1.957  3.9888  2.6432  3.1586
  764MOL0     H 5373   9.033   8.570   1.912 -1.0345  0.1433 -1.4590
  764MOL0     H 5374   8.930   8.492   2.047  1.4699  3.9902  4.6040
  764MOL0     H 5375   8.969   8.798   2.026 -3.1476 -0.5868 -0.3502
  764MOL0     H 5376   8.924   8.677   2.157 -0.5635 -1.3000 -0.6842
  764MOL0     H 5377   9.198   8.662   2.030  2.8742 -0.3913  2.2741
  764MOL0     H 5378   9.147   8.582   2.176 -2.5047  0.1162  2.1981
  764MOL0     H 5379   9.293   8.773   2.210 -0.4316 -3.7189  0.8454
  764MOL0     H 5380   9.188   8.882   2.117  1.5351 -0.2419  1.4258
  764MOL0     H 5381   9.002   9.002   2.289  1.7721  0.1362  0.0963
  764MOL0     H 5382   8.848   8.909   2.629  0.3757  1.6116  1.3543
  764MOL0     H 5383   8.840   9.013   2.489 -2.1745 -0.8420  1.2161
  764MOL0     H 5384   9.067   9.120   2.570  0.9875 -2.3693  0.2083
  764MOL0     H 5385   8.930   9.161   2.651  2.4435  1.5965  0.5815
  764MOL0     H 5386   8.991   8.989   2.840  0.8825  1.3816 -0.0172
  764MOL0     H 5387   9.108   8.920   2.745 -0.5258 -0.2776  0.1388
  764MOL0     H 5388   9.211   9.055   2.895 -4.7087 -0.5520  2.3039
  764MOL0     H 5389   9.244   9.112   2.729  0.6083 -2.7252 -0.0067
  764MOL0     H 5390   9.058   9.484   2.825  0.3383  2.4371  0.5198
  764MOL0     H 5391   9.211   9.771   2.775 -0.0606  0.3273 -0.1011
  764MOL0     H 5392   9.206   9.775   2.955 -0.9061 -1.0832  0.5390
  764MOL0     H 5393   9.071   9.712   2.866 -0.4794  2.3359  0.7302
  764MOL0     H 5394   9.647   9.883   2.810 -0.4763  3.1355 -1.0925
  764MOL0     H 5395   9.878   9.976   2.828 -0.8055  0.4509  0.4841
  764MOL0     H 5396  10.098  10.048   2.768  2.0809  1.4368  0.0322
  764MOL0     H 5397  10.129   9.991   2.932 -0.2319  2.3626 -0.2827
  764MOL0     H 5398  10.298   9.978   2.670 -3.5207 -0.9435 -0.4174
  764MOL0     H 5399  10.311  10.099   2.800  0.5662 -0.0576 -2.7580
  764MOL0     H 5400  10.389   9.797   2.807  2.4969 -0.6387  0.2262
  764MOL0     H 5401  10.369   9.879   2.963  3.1300 -0.4282  0.2907
  764MOL0     H 5402  10.591   9.895   2.922 -0.3080 -1.3598 -1.0193
  764MOL0     H 5403  10.535  10.054   2.869  2.3901 -0.2574 -2.7026
  764MOL0     H 5404  10.566  10.015   2.645  1.6736  0.4573 -0.8376
  764MOL0     H 5405  10.703   9.956   2.728 -0.7333  2.5179 -2.4647
  764MOL0     H 5406  10.489   9.791   2.588  0.5773  1.5935 -1.1666
  764MOL0     H 5407  10.578   9.719   2.724  2.9168  1.0431  0.9619
  764MOL0     H 5408  10.790   9.778   2.628  0.9959 -0.8472 -0.5827
  764MOL0     H 5409  10.707   9.813   2.467 -1.9089  2.3268  1.3969
  764MOL0     H 5410  10.600   9.570   2.490  2.4908 -0.7372 -1.9227
  764MOL0     H 5411  10.699   9.537   2.622 -0.1528 -3.3731 -1.4801
  764MOL0     H 5412  10.045   9.599   2.712  0.9823  2.6595 -3.1965
  764MOL0     H 5413   9.824   9.507   2.707 -0.8898 -0.8286  1.7262
  764MOL0     H 5414   9.539   9.400   2.879 -0.0798 -2.8727 -2.4796
  764MOL0     H 5415   9.402   9.221   2.842  0.2488  0.2921 -0.8609
  764MOL0     H 5416   8.290   8.342   2.007 -0.1245  0.9211  1.8480
  764MOL0     H 5417   8.053   8.397   1.964  0.4361 -2.8796 -4.3031
  764MOL0     H 5418   7.671   8.648   1.901 -1.2946 -2.5476 -0.3034
  764MOL0     H 5419   7.470   8.745   1.832 -2.2700  3.8260 -2.8843
  764MOL0     H 5420   7.442   8.938   1.430 -0.7576  3.3516 -1.3371
  764MOL0     H 5421   7.295   8.976   1.513  1.0080  3.6377 -0.7209
  764MOL0     H 5422   7.436   9.165   1.539  0.3890  0.5049 -0.2618
  764MOL0     H 5423   7.558   9.060   1.612 -0.2343 -2.5550  0.3536
  764MOL0     H 5424   7.266   9.106   1.709 -0.5648  0.7229  1.9479
  764MOL0     H 5425   7.353   8.989   1.790 -0.5313  0.7321  1.1117
  764MOL0     H 5426   7.425   9.161   1.945  0.1194 -0.6196 -0.3856
  764MOL0     H 5427   7.316   9.244   1.873 -1.8712 -2.0823  1.5817
  764MOL0     H 5428   7.697   9.410   1.750  0.9754 -1.2890  0.1551
  764MOL0     H 5429   7.584   8.744   1.422 -0.6874  3.6053 -0.3387
  764MOL0     H 5430   7.821   8.733   1.382  2.5185 -0.1634  1.0773
  764MOL0     H 5431   7.913   8.618   1.467  0.5468  1.0950  0.2468
  764MOL0     H 5432   7.780   8.562   1.367  0.1968  0.8470 -0.5225
  765MOL0     O 5433   7.688   5.427   2.546 -0.8815 -0.1708 -0.5269
  765MOL0     C 5434   7.651   5.474   2.439 -0.8440  0.5031  0.3736
  765MOL0     O 5435   7.573   5.406   2.349  0.5319  0.1868  0.2771
  765MOL0     C 5436   7.543   5.273   2.383  0.5477 -0.1288  1.3834
  765MOL0     C 5437   7.645   5.174   2.363  0.1002  0.0891 -0.5284
  765MOL0     C 5438   7.617   5.036   2.404  0.3891  0.3657 -0.3430
  765MOL0     C 5439   7.505   4.999   2.473  0.0379 -0.2556  0.1010
  765MOL0     O 5440   7.478   4.871   2.508 -0.1742 -0.7191 -0.0639
  765MOL0     C 5441   7.580   4.765   2.496  0.7099 -0.2324 -0.1983
  765MOL0     C 5442   7.554   4.689   2.627  0.6657 -1.0140  0.3088
  765MOL0     C 5443   7.628   4.752   2.753  0.4886  0.1482  0.1804
  765MOL0     C 5444   7.590   4.696   2.886  0.0417 -0.9939 -0.3103
  765MOL0     C 5445   7.667   4.737   3.016  1.2452  0.4170 -0.2469
  765MOL0     C 5446   7.816   4.710   3.008 -0.6269  0.4256 -0.5679
  765MOL0     C 5447   7.848   4.558   2.989  0.1168  0.6064  0.1311
  765MOL0     C 5448   7.799   4.466   3.102  0.1153  0.1833  0.0711
  765MOL0     N 5449   7.859   4.486   3.238 -0.4502  0.4659  0.3059
  765MOL0     C 5450   7.984   4.452   3.279 -0.8380 -1.0621 -0.6194
  765MOL0     C 5451   7.992   4.470   3.410 -0.0068  0.3996  0.3172
  765MOL0     C 5452   8.109   4.465   3.501 -0.0639 -0.1265 -0.0845
  765MOL0     C 5453   8.132   4.332   3.570 -0.4997  0.1745  0.6019
  765MOL0     C 5454   8.038   4.302   3.689  0.0307  0.3649 -0.1793
  765MOL0     C 5455   7.907   4.225   3.638 -0.2688 -0.2641 -0.0649
  765MOL0     O 5456   7.923   4.085   3.591  0.4303  0.2098  0.5012
  765MOL0     C 5457   7.961   4.001   3.689 -0.6269  0.9059  0.1289
  765MOL0     C 5458   8.100   3.970   3.694  0.1180 -0.3959  0.7185
  765MOL0     C 5459   8.149   3.882   3.794 -0.4891 -2.1848  0.0731
  765MOL0     C 5460   8.295   3.884   3.817 -0.5533  0.0296  0.1456
  765MOL0     C 5461   8.059   3.808   3.881  0.6254  0.7507 -0.3486
  765MOL0     C 5462   8.099   3.734   4.005 -0.0863 -0.4714  0.9318
  765MOL0     O 5463   8.003   3.659   4.061  0.1373 -0.0470 -0.4495
  765MOL0     C 5464   8.037   3.590   4.178 -0.6761  0.8301 -0.1708
  765MOL0     C 5465   8.111   3.476   4.152 -0.7866  0.4490  0.5677
  765MOL0     C 5466   8.174   3.410   4.256  0.5746  0.3873  0.0700
  765MOL0     C 5467   8.144   3.448   4.395 -0.8452  0.0348  0.0059
  765MOL0     O 5468   8.218   3.393   4.497 -0.6137  0.3963 -0.6874
  765MOL0     C 5469   8.327   3.306   4.471 -0.6022 -1.4332  0.3043
  765MOL0     C 5470   8.375   3.228   4.590 -0.0842 -0.0493  0.9931
  765MOL0     C 5471   8.275   3.132   4.652 -0.0886 -0.0090  0.6404
  765MOL0     C 5472   8.337   3.048   4.759  0.7674  0.1802  0.7626
  765MOL0     C 5473   8.248   2.928   4.788 -0.0870 -0.0980 -0.3168
  765MOL0     C 5474   8.321   2.830   4.884 -0.0102  0.2316  0.7461
  765MOL0     C 5475   8.282   2.688   4.859  0.8659 -0.1164 -0.8344
  765MOL0     C 5476   8.369   2.587   4.951 -0.4131 -0.5657  0.9747
  765MOL0    Cl 5477   8.542   2.581   4.892  0.3966  0.2272  0.4376
  765MOL0     C 5478   8.044   3.550   4.413  0.8700  0.8168 -0.8667
  765MOL0     C 5479   7.996   3.623   4.309 -0.3578 -0.4635  0.3947
  765MOL0     O 5480   8.209   3.751   4.048 -0.7529 -0.2294 -0.0533
  765MOL0     C 5481   7.916   3.832   3.858 -0.2903  0.7570 -1.1723
  765MOL0     C 5482   7.870   3.924   3.763  0.3652 -1.0627 -0.9852
  765MOL0     N 5483   7.864   4.523   3.452  0.4861 -0.1254 -0.1877
  765MOL0     N 5484   7.790   4.528   3.348  0.2564 -0.2211  0.0784
  765MOL0     C 5485   7.408   5.099   2.490 -0.2045  0.0525 -0.6522
  765MOL0     C 5486   7.428   5.238   2.454  0.3713 -0.3403 -0.3313
  765MOL0     C 5487   7.657   5.618   2.409 -0.4935 -0.3874  0.1283
  765MOL0     C 5488   7.773   5.676   2.452  0.2150  0.4309  0.5237
  765MOL0     C 5489   7.788   5.820   2.453 -0.1373 -0.0717  0.2523
  765MOL0     C 5490   7.687   5.897   2.405 -0.1065  0.5723  0.6618
  765MOL0     O 5491   7.694   6.035   2.411 -0.0084 -0.2908 -0.9872
  765MOL0     C 5492   7.784   6.095   2.327 -0.0815 -0.3142 -0.2903
  765MOL0     C 5493   7.860   6.191   2.417 -0.3283  0.7141  0.0111
  765MOL0     C 5494   7.794   6.328   2.464 -0.3407  0.0003 -0.1860
  765MOL0     C 5495   7.873   6.416   2.566  0.0477 -0.4132  0.6833
  765MOL0     C 5496   7.911   6.349   2.689 -0.2823  0.5922  0.1486
  765MOL0     C 5497   7.942   6.306   2.797 -0.5460  0.8256 -0.2010
  765MOL0     C 5498   7.569   5.841   2.353  0.0535 -0.0807 -0.5681
  765MOL0     C 5499   7.558   5.701   2.348  0.8198 -0.5596  0.0710
  765MOL0     C 5500   7.432   5.643   2.278 -0.1954  0.0945 -0.2970
  765MOL0     H 5501   7.731   5.212   2.308 -0.3532  4.4931  1.3884
  765MOL0     H 5502   7.687   4.965   2.360  1.0434  0.4160  0.5803
  765MOL0     H 5503   7.686   4.789   2.488  0.9265 -0.2009  2.0136
  765MOL0     H 5504   7.550   4.705   2.410 -2.0687  1.4808 -0.5589
  765MOL0     H 5505   7.447   4.703   2.642  0.5550  2.9960 -2.4736
  765MOL0     H 5506   7.586   4.585   2.623 -1.7419 -1.8350  1.1201
  765MOL0     H 5507   7.737   4.742   2.751  0.6392  1.3518  1.0935
  765MOL0     H 5508   7.610   4.860   2.752 -0.7232 -0.0425 -0.5436
  765MOL0     H 5509   7.484   4.714   2.905  0.3056 -0.5051  0.7784
  765MOL0     H 5510   7.601   4.587   2.881 -0.4734 -1.0558 -0.1682
  765MOL0     H 5511   7.615   4.674   3.089 -0.2781 -1.3093 -2.6481
  765MOL0     H 5512   7.640   4.837   3.049  1.7701  0.2337  0.7589
  765MOL0     H 5513   7.863   4.781   2.940  2.1086 -0.0022  0.7319
  765MOL0     H 5514   7.866   4.738   3.101 -3.5245  0.3253  1.1555
  765MOL0     H 5515   7.956   4.543   2.986  0.1278  0.8523 -0.9325
  765MOL0     H 5516   7.807   4.525   2.893  0.9414  3.1885 -1.2101
  765MOL0     H 5517   7.691   4.480   3.109 -0.1071 -0.9925 -0.6999
  765MOL0     H 5518   7.807   4.359   3.080 -0.6001  0.2932 -0.7869
  765MOL0     H 5519   8.073   4.427   3.222  1.7625  1.2283  2.1036
  765MOL0     H 5520   8.096   4.546   3.573  2.2769 -0.4805  0.8367
  765MOL0     H 5521   8.198   4.485   3.440 -1.6030 -2.5709 -3.4550
  765MOL0     H 5522   8.124   4.251   3.497  1.5390  1.0143 -0.6376
  765MOL0     H 5523   8.237   4.343   3.599  0.0596 -1.4663 -0.6706
  765MOL0     H 5524   8.093   4.237   3.758  1.7846  1.9223 -0.0343
  765MOL0     H 5525   8.011   4.385   3.755  1.5026 -2.0985  3.8836
  765MOL0     H 5526   7.833   4.221   3.719  1.1899 -1.2276  1.2945
  765MOL0     H 5527   7.859   4.288   3.563 -1.9422 -0.4276  0.8194
  765MOL0     H 5528   8.161   4.035   3.633  0.1226 -1.1892 -0.1517
  765MOL0     H 5529   8.352   3.942   3.744  0.9705 -0.2743  1.0474
  765MOL0     H 5530   8.349   3.791   3.832  0.2709  0.5217  0.2930
  765MOL0     H 5531   8.313   3.939   3.910 -2.0382  2.1901 -0.7474
  765MOL0     H 5532   8.125   3.440   4.050 -0.0693 -0.9039  1.1180
  765MOL0     H 5533   8.241   3.328   4.230  0.3075  0.0105  0.5324
  765MOL0     H 5534   8.293   3.231   4.399 -0.7829 -0.2909 -0.8459
  765MOL0     H 5535   8.406   3.365   4.424 -3.1982 -0.4384 -3.3065
  765MOL0     H 5536   8.468   3.185   4.554  0.5805  2.9087 -1.2292
  765MOL0     H 5537   8.412   3.293   4.669  0.3838  0.0890  0.6604
  765MOL0     H 5538   8.216   3.082   4.575 -0.5951  0.9679  0.3914
  765MOL0     H 5539   8.201   3.188   4.709  0.7011  0.6828  1.0172
  765MOL0     H 5540   8.340   3.100   4.855 -2.0382 -0.3191  1.2025
  765MOL0     H 5541   8.443   3.021   4.749  0.2254 -2.1033  0.5439
  765MOL0     H 5542   8.156   2.967   4.833 -1.3307 -0.8995 -2.0765
  765MOL0     H 5543   8.220   2.871   4.699 -1.4884 -4.0703  2.3597
  765MOL0     H 5544   8.320   2.864   4.988  1.6570 -1.7889  1.4820
  765MOL0     H 5545   8.428   2.839   4.865 -0.0790  1.7189  0.9436
  765MOL0     H 5546   8.298   2.651   4.757  2.5619 -1.6282 -0.0619
  765MOL0     H 5547   8.181   2.680   4.902  2.2441 -0.8868  2.5634
  765MOL0     H 5548   8.309   2.495   4.948 -3.2376  1.1786  0.4079
  765MOL0     H 5549   8.371   2.615   5.056  1.2907  0.7309  0.6469
  765MOL0     H 5550   8.016   3.579   4.514 -1.3541 -1.2749 -0.7955
  765MOL0     H 5551   7.941   3.716   4.324 -1.7131 -1.1068 -0.3985
  765MOL0     H 5552   7.842   3.794   3.927  1.5961 -1.7764 -0.3632
  765MOL0     H 5553   7.764   3.948   3.763 -0.6522 -4.3104  3.1436
  765MOL0     H 5554   7.317   5.075   2.544  1.3095  3.4907  4.1856
  765MOL0     H 5555   7.349   5.310   2.474 -0.9813 -1.1477 -2.4471
  765MOL0     H 5556   7.850   5.616   2.499  0.8192  1.5783  1.0308
  765MOL0     H 5557   7.865   5.886   2.492 -1.8860  1.2706  1.6310
  765MOL0     H 5558   7.853   6.027   2.276  0.1811  1.0877 -1.9247
  765MOL0     H 5559   7.730   6.152   2.251 -0.6393 -0.1878  0.2023
  765MOL0     H 5560   7.949   6.219   2.360  0.3316  0.7407  1.0210
  765MOL0     H 5561   7.893   6.132   2.503 -1.8863 -0.5185 -0.1827
  765MOL0     H 5562   7.786   6.390   2.374  4.3713 -0.4271 -1.1567
  765MOL0     H 5563   7.699   6.297   2.508 -1.9896 -0.5487 -3.7967
  765MOL0     H 5564   7.810   6.499   2.597  2.6006  0.9214  2.7272
  765MOL0     H 5565   7.956   6.450   2.504 -1.7051 -0.5138 -1.8445
  765MOL0     H 5566   7.952   6.254   2.891  0.3579  2.6420  0.7536
  765MOL0     H 5567   7.491   5.907   2.317 -1.7712 -1.7596  0.1432
  765MOL0     H 5568   7.380   5.725   2.228  0.7808  0.3966 -0.8527
  765MOL0     H 5569   7.441   5.563   2.204  0.0370 -0.6511  0.5255
  765MOL0     H 5570   7.362   5.604   2.352 -1.3866 -1.4368 -2.1235
  766MOL0     O 5571   7.442   9.488   5.665  0.6610  0.5408 -0.3374
  766MOL0     C 5572   7.392   9.587   5.606 -0.0007  0.2682  0.1934
  766MOL0     O 5573   7.293   9.589   5.513 -0.5436 -0.5074  0.3727
  766MOL0     C 5574   7.228   9.474   5.488 -0.1544 -0.0850  0.2830
  766MOL0     C 5575   7.131   9.430   5.577 -0.4941  0.5076 -0.3215
  766MOL0     C 5576   7.072   9.307   5.552 -0.0772  0.1652  0.6513
  766MOL0     C 5577   7.101   9.228   5.449 -1.1691 -0.2846  0.1174
  766MOL0     O 5578   7.035   9.107   5.427  0.9760 -0.4270  0.1286
  766MOL0     C 5579   6.925   9.138   5.327  0.4626 -0.2658 -0.2734
  766MOL0     C 5580   6.851   9.019   5.287 -0.3938 -0.5093 -0.2934
  766MOL0     C 5581   6.786   8.938   5.403 -0.5007 -0.4391 -0.0803
  766MOL0     C 5582   6.779   8.787   5.359  0.5470 -0.2926  0.4055
  766MOL0     C 5583   6.711   8.706   5.460 -0.2973  0.3757 -0.8045
  766MOL0     C 5584   6.564   8.728   5.455  0.5833 -0.9405 -0.0758
  766MOL0     C 5585   6.489   8.610   5.521  0.1612  0.2076 -0.4911
  766MOL0     C 5586   6.338   8.613   5.501  0.0753  0.0059 -0.2243
  766MOL0     N 5587   6.276   8.650   5.634  0.8595 -0.1492  0.7299
  766MOL0     C 5588   6.236   8.774   5.677 -0.0436 -0.3903 -0.0556
  766MOL0     C 5589   6.159   8.751   5.786  0.0217 -1.0373  0.3476
  766MOL0     C 5590   6.077   8.848   5.862 -0.6863 -0.5713  1.1717
  766MOL0     C 5591   5.998   8.939   5.764  0.6197 -0.7412  0.5662
  766MOL0     C 5592   5.855   8.903   5.744  0.1683 -0.8234  0.0185
  766MOL0     C 5593   5.793   8.974   5.633  0.6799  0.1310  0.1468
  766MOL0     O 5594   5.807   9.117   5.650 -0.0051 -1.1660  0.1787
  766MOL0     C 5595   5.773   9.198   5.548  0.1788 -0.2053  0.0878
  766MOL0     C 5596   5.751   9.326   5.590  0.1695 -0.0838 -0.8434
  766MOL0     C 5597   5.707   9.425   5.499  1.1304 -0.2090  0.4078
  766MOL0     C 5598   5.688   9.558   5.568  0.3126 -0.8486  0.0041
  766MOL0     C 5599   5.681   9.390   5.366  0.2398 -0.5705  0.0491
  766MOL0     C 5600   5.597   9.471   5.270  0.7225 -0.0346 -0.3372
  766MOL0     O 5601   5.626   9.482   5.136 -0.2093 -0.5307 -0.2106
  766MOL0     C 5602   5.534   9.560   5.068 -0.3166 -0.5295 -0.1427
  766MOL0     C 5603   5.410   9.501   5.032 -0.0316 -1.0940  0.0326
  766MOL0     C 5604   5.311   9.584   4.968 -0.6148  0.4184 -0.4485
  766MOL0     C 5605   5.343   9.714   4.924  0.4755  0.5878 -0.3242
  766MOL0     O 5606   5.246   9.790   4.863 -0.3224 -0.0331 -0.6783
  766MOL0     C 5607   5.241   9.789   4.716  0.7715  0.2407  0.0248
  766MOL0     C 5608   5.350   9.879   4.654 -0.4826 -0.4070 -0.1265
  766MOL0     C 5609   5.300   9.966   4.531  0.3783  0.2611  0.0679
  766MOL0     C 5610   5.318   9.897   4.396 -0.0119  0.1390 -0.1060
  766MOL0     C 5611   5.294   9.998   4.282  0.4129  0.5717  0.6012
  766MOL0     C 5612   5.295   9.908   4.158  0.2796 -0.0013  0.5105
  766MOL0     C 5613   5.268   9.984   4.019  0.3461 -0.2713 -0.0498
  766MOL0     C 5614   5.233   9.885   3.905  0.7507 -0.4312 -0.5293
  766MOL0    Cl 5615   5.065   9.840   3.941  0.0551  0.3112 -0.0501
  766MOL0     C 5616   5.465   9.773   4.980  0.1065 -0.0828 -0.0640
  766MOL0     C 5617   5.556   9.697   5.051 -0.7273 -0.4145 -1.2011
  766MOL0     O 5618   5.497   9.517   5.326  0.0419  0.5649  0.2097
  766MOL0     C 5619   5.712   9.262   5.312 -0.6680 -0.6738  0.2667
  766MOL0     C 5620   5.752   9.159   5.411  0.2552  0.7149 -0.0182
  766MOL0     N 5621   6.150   8.616   5.810 -0.3215 -0.3305  0.1432
  766MOL0     N 5622   6.226   8.560   5.722  0.6176  0.2640 -0.5979
  766MOL0     C 5623   7.188   9.277   5.346  0.1214 -0.4273 -0.3072
  766MOL0     C 5624   7.246   9.398   5.374  0.0709 -1.2207 -0.4343
  766MOL0     C 5625   7.468   9.708   5.640 -0.4418 -1.3002  0.3118
  766MOL0     C 5626   7.544   9.708   5.757 -0.1562 -0.4743  0.2113
  766MOL0     C 5627   7.602   9.824   5.813 -0.2274 -0.3327  0.4931
  766MOL0     C 5628   7.596   9.944   5.747  0.5601 -0.1349  1.2387
  766MOL0     O 5629   7.651  10.058   5.798 -1.3807  0.1823  0.2491
  766MOL0     C 5630   7.775  10.039   5.872  0.3949 -0.9036 -0.0134
  766MOL0     C 5631   7.740  10.046   6.021  0.1875  0.1526 -0.4712
  766MOL0     C 5632   7.667  10.177   6.061 -0.1781 -0.0964  0.0775
  766MOL0     C 5633   7.648  10.172   6.218 -0.0927  0.3526  0.8691
  766MOL0     C 5634   7.503  10.135   6.240  0.4021 -0.5955 -0.4800
  766MOL0     C 5635   7.381  10.106   6.245 -0.2447  0.4294  0.4017
  766MOL0     C 5636   7.518   9.953   5.630 -0.4958  0.0927 -0.2259
  766MOL0     C 5637   7.457   9.840   5.571 -0.1214 -0.5145  1.2997
  766MOL0     C 5638   7.373   9.876   5.450  0.2137 -0.6085  0.4660
  766MOL0     H 5639   7.106   9.490   5.664  1.0768 -1.7510  1.8421
  766MOL0     H 5640   7.000   9.275   5.626  2.7593 -1.7735  2.7685
  766MOL0     H 5641   6.961   9.181   5.233 -3.0972  0.4800 -1.4455
  766MOL0     H 5642   6.857   9.214   5.367  0.7193 -0.1577 -0.0366
  766MOL0     H 5643   6.773   9.051   5.218 -1.9448 -1.1184  1.1113
  766MOL0     H 5644   6.927   8.963   5.231 -0.9822 -1.0892 -0.5242
  766MOL0     H 5645   6.829   8.952   5.502 -1.7973 -0.6438  0.5324
  766MOL0     H 5646   6.690   8.988   5.420 -0.3671 -0.2373  0.0953
  766MOL0     H 5647   6.741   8.766   5.258  0.6731  1.6756 -0.1030
  766MOL0     H 5648   6.886   8.767   5.360  0.7915  0.9457  1.1540
  766MOL0     H 5649   6.758   8.716   5.558  0.0472 -2.6965 -0.5704
  766MOL0     H 5650   6.735   8.601   5.441  0.9033  1.0611 -3.6034
  766MOL0     H 5651   6.547   8.822   5.508 -2.6902  0.7955 -3.7361
  766MOL0     H 5652   6.527   8.748   5.354  0.0115 -0.1680  0.2806
  766MOL0     H 5653   6.502   8.605   5.630  2.2486 -1.5432 -0.7403
  766MOL0     H 5654   6.520   8.508   5.494  1.4845  0.3753  0.2687
  766MOL0     H 5655   6.315   8.682   5.420  0.9949  0.7958  0.1770
  766MOL0     H 5656   6.313   8.509   5.475  1.4147 -1.5365  3.7893
  766MOL0     H 5657   6.253   8.877   5.647 -2.2045 -0.5161 -1.9513
  766MOL0     H 5658   6.157   8.901   5.914  0.2774  2.0972 -2.5968
  766MOL0     H 5659   5.998   8.800   5.922  1.1951 -2.2879  2.3946
  766MOL0     H 5660   6.009   9.039   5.807  0.5377 -0.5468  0.1358
  766MOL0     H 5661   6.037   8.940   5.662 -2.5552  0.0301 -0.7633
  766MOL0     H 5662   5.852   8.796   5.721 -0.6928 -1.3182  2.1775
  766MOL0     H 5663   5.795   8.918   5.835  1.1253  0.8501  0.4027
  766MOL0     H 5664   5.853   8.947   5.546  3.4674 -1.6400  2.4288
  766MOL0     H 5665   5.689   8.946   5.616  0.8744 -0.2170 -0.4955
  766MOL0     H 5666   5.776   9.355   5.692  2.2434 -2.0103 -0.7038
  766MOL0     H 5667   5.713   9.553   5.674 -0.8624  0.4004  0.3661
  766MOL0     H 5668   5.586   9.596   5.559 -0.4741 -2.5179  1.3115
  766MOL0     H 5669   5.759   9.620   5.512 -1.8384 -0.0494 -2.0176
  766MOL0     H 5670   5.378   9.400   5.057 -1.1878 -0.3186  1.9175
  766MOL0     H 5671   5.211   9.546   4.949 -0.3659 -0.5113  0.0353
  766MOL0     H 5672   5.267   9.690   4.677  0.5315  0.8051 -1.6624
  766MOL0     H 5673   5.142   9.821   4.685 -0.0187  0.3407  2.4572
  766MOL0     H 5674   5.394   9.944   4.729  2.0223 -1.9425 -0.1634
  766MOL0     H 5675   5.435   9.819   4.620  0.1649  0.4641 -0.0748
  766MOL0     H 5676   5.350  10.063   4.530  0.0078  0.4719  1.1345
  766MOL0     H 5677   5.194   9.981   4.554 -0.6650 -0.9515 -3.3284
  766MOL0     H 5678   5.246   9.816   4.410 -0.7487  1.1505  2.5851
  766MOL0     H 5679   5.418   9.859   4.377  0.5045  1.8745 -1.1163
  766MOL0     H 5680   5.196  10.047   4.285 -0.3504 -0.9422  1.5643
  766MOL0     H 5681   5.374  10.073   4.276  3.1749 -2.2538 -0.5806
  766MOL0     H 5682   5.218   9.835   4.184  0.6190 -0.7669 -0.5835
  766MOL0     H 5683   5.387   9.854   4.133  0.3050 -0.2156  1.0563
  766MOL0     H 5684   5.367  10.027   4.001  1.1141 -2.7419 -2.2957
  766MOL0     H 5685   5.188  10.059   4.025  0.0328 -0.6875  1.4499
  766MOL0     H 5686   5.290   9.793   3.920  2.4500  0.8419  1.4426
  766MOL0     H 5687   5.238   9.930   3.805 -0.6880 -0.0957 -0.4626
  766MOL0     H 5688   5.467   9.881   4.979 -1.7852 -0.0090 -0.3949
  766MOL0     H 5689   5.644   9.740   5.097 -1.1006 -1.0955  0.2141
  766MOL0     H 5690   5.709   9.241   5.205 -0.1332 -1.5372  0.4135
  766MOL0     H 5691   5.802   9.068   5.379  0.2486  1.4131 -2.2092
  766MOL0     H 5692   7.229   9.224   5.260  2.2973 -0.0974  0.4566
  766MOL0     H 5693   7.319   9.428   5.299  2.8593  0.4972  2.7024
  766MOL0     H 5694   7.551   9.619   5.818 -1.4551 -0.9300 -0.2578
  766MOL0     H 5695   7.661   9.809   5.902 -0.9135  0.5852  1.1199
  766MOL0     H 5696   7.835   9.950   5.849  0.2064 -0.5262 -2.1163
  766MOL0     H 5697   7.844  10.121   5.851  1.2453 -1.3758  0.8473
  766MOL0     H 5698   7.830  10.035   6.082  0.2901  0.6168 -0.5321
  766MOL0     H 5699   7.673   9.969   6.060  0.3313  1.3949  2.5462
  766MOL0     H 5700   7.743  10.251   6.033  0.0979 -0.8453 -1.2318
  766MOL0     H 5701   7.576  10.191   6.002  0.0928  1.0770 -0.0849
  766MOL0     H 5702   7.653  10.273   6.261 -1.6014 -0.4855  3.2303
  766MOL0     H 5703   7.718  10.107   6.271 -2.2438 -1.0999  2.0927
  766MOL0     H 5704   7.279  10.072   6.246 -0.1060 -0.0037 -0.0004
  766MOL0     H 5705   7.526  10.049   5.579  0.3052  0.5364  0.7156
  766MOL0     H 5706   7.274   9.831   5.462 -1.2291  2.4738  1.1661
  766MOL0     H 5707   7.355   9.983   5.438 -0.4589 -0.9390 -1.8604
  766MOL0     H 5708   7.428   9.853   5.358  2.3672 -2.1692  2.0232
  767MOL0     O 5709   2.065  11.419   4.213 -0.4619  0.3532 -0.3900
  767MOL0     C 5710   2.097  11.497   4.302 -0.1300 -0.0399  0.3661
  767MOL0     O 5711   2.010  11.575   4.370 -0.3048  0.2866  0.1782
  767MOL0     C 5712   1.894  11.592   4.305 -0.2888 -0.0408  1.1810
  767MOL0     C 5713   1.782  11.529   4.357 -1.3701  0.0576  0.0404
  767MOL0     C 5714   1.653  11.536   4.290  0.3946  0.3147  0.2041
  767MOL0     C 5715   1.632  11.623   4.184 -0.2205  0.2677 -0.0147
  767MOL0     O 5716   1.508  11.623   4.120 -0.5037 -0.8933  1.0004
  767MOL0     C 5717   1.481  11.743   4.052  0.8681 -0.1107 -0.2524
  767MOL0     C 5718   1.350  11.732   3.986 -0.5982  0.5567 -0.6626
  767MOL0     C 5719   1.238  11.772   4.081 -0.5558  0.2916  0.2654
  767MOL0     C 5720   1.090  11.732   4.040 -0.2192 -0.4837  0.1846
  767MOL0     C 5721   0.982  11.840   4.083  0.4015  0.0938 -0.6033
  767MOL0     C 5722   0.878  11.830   3.976  0.1404  0.0660 -0.2109
  767MOL0     C 5723   0.774  11.939   3.975 -1.0813  0.3133  0.2167
  767MOL0     C 5724   0.820  12.090   3.974 -0.6573 -0.6697 -1.0755
  767MOL0     N 5725   0.710  12.184   3.937  0.6418  0.1860  0.2646
  767MOL0     C 5726   0.728  12.308   3.886 -1.0454  0.4447 -0.3171
  767MOL0     C 5727   0.619  12.341   3.810  0.8837  0.0454 -0.2176
  767MOL0     C 5728   0.586  12.477   3.765  1.1735 -0.8659 -0.2394
  767MOL0     C 5729   0.565  12.494   3.613 -0.0361  0.4154 -1.1549
  767MOL0     C 5730   0.585  12.640   3.561 -0.3941  0.9848  0.4771
  767MOL0     C 5731   0.568  12.647   3.414 -0.1910 -0.2684  0.3633
  767MOL0     O 5732   0.438  12.600   3.380 -0.5453  0.1189  0.3069
  767MOL0     C 5733   0.336  12.687   3.418  0.4628  0.7058 -0.6096
  767MOL0     C 5734   0.338  12.825   3.421 -0.6618  0.1144 -0.1963
  767MOL0     C 5735   0.225  12.902   3.460 -0.2951 -0.2158  0.6191
  767MOL0     C 5736   0.245  13.052   3.467 -0.2865  0.4790  0.2943
  767MOL0     C 5737   0.101  12.835   3.485 -0.7544  0.6667 -0.9602
  767MOL0     C 5738  -0.023  12.908   3.522 -1.5419  0.0659 -0.5875
  767MOL0     O 5739  -0.143  12.894   3.456  0.3954  0.5442  0.3259
  767MOL0     C 5740  -0.239  12.972   3.505 -0.6610  0.5422 -1.4011
  767MOL0     C 5741  -0.270  13.092   3.455 -0.8511 -0.7597 -0.0218
  767MOL0     C 5742  -0.379  13.168   3.505 -0.0177 -0.1445 -0.1950
  767MOL0     C 5743  -0.481  13.122   3.591  0.2494 -0.3548  0.0970
  767MOL0     O 5744  -0.604  13.189   3.623  0.2945 -0.0405 -0.2365
  767MOL0     C 5745  -0.594  13.327   3.657 -1.7873  0.0570  0.0517
  767MOL0     C 5746  -0.728  13.390   3.625 -0.2244 -0.0713 -0.9707
  767MOL0     C 5747  -0.781  13.369   3.479 -0.1738 -0.6834 -0.4232
  767MOL0     C 5748  -0.682  13.430   3.374  0.4193  0.6610  0.3581
  767MOL0     C 5749  -0.757  13.453   3.237  0.8229 -0.0691  0.4554
  767MOL0     C 5750  -0.854  13.574   3.247  0.0970  0.5758  1.8276
  767MOL0     C 5751  -0.887  13.627   3.102 -0.1852  0.0100 -0.1530
  767MOL0     C 5752  -0.981  13.748   3.112  0.6535  0.8187 -0.2377
  767MOL0    Cl 5753  -0.896  13.871   3.212  0.0164 -0.1062  0.1737
  767MOL0     C 5754  -0.442  13.003   3.643  0.8009  0.0167  0.6236
  767MOL0     C 5755  -0.334  12.929   3.603  0.0737 -0.6472 -0.3573
  767MOL0     O 5756  -0.003  12.978   3.624  0.4087  0.6305  0.2156
  767MOL0     C 5757   0.098  12.700   3.479  0.0244 -0.6245 -0.1912
  767MOL0     C 5758   0.216  12.625   3.444  0.3988  0.9280  0.4711
  767MOL0     N 5759   0.529  12.236   3.831 -0.2215  0.6024  0.4464
  767MOL0     N 5760   0.583  12.147   3.898 -0.4853  0.1849  0.1067
  767MOL0     C 5761   1.752  11.688   4.133 -0.0607 -0.9018 -0.1336
  767MOL0     C 5762   1.883  11.670   4.193 -0.4442  0.0428  0.9044
  767MOL0     C 5763   2.232  11.488   4.362  0.8385  0.2979 -0.4595
  767MOL0     C 5764   2.288  11.608   4.411 -0.2571  0.0413 -0.1360
  767MOL0     C 5765   2.417  11.611   4.453  0.5405 -0.6365  0.1494
  767MOL0     C 5766   2.496  11.500   4.443  0.8465  0.2400 -0.9269
  767MOL0     O 5767   2.627  11.512   4.481  0.5710 -0.0881  0.0318
  767MOL0     C 5768   2.709  11.443   4.388  0.0162 -1.2938  0.2620
  767MOL0     C 5769   2.852  11.485   4.402  0.6194  0.5943  0.0812
  767MOL0     C 5770   2.888  11.586   4.298 -0.7623 -0.2592  1.0112
  767MOL0     C 5771   3.027  11.651   4.299 -0.4139  0.4011 -0.4182
  767MOL0     C 5772   3.128  11.553   4.271 -0.4395 -0.3525  0.4789
  767MOL0     C 5773   3.205  11.461   4.238 -0.0830  0.0581 -0.2254
  767MOL0     C 5774   2.435  11.380   4.419 -0.3994 -0.7234  0.6142
  767MOL0     C 5775   2.302  11.364   4.380 -0.7076 -1.2221  0.1902
  767MOL0     C 5776   2.253  11.221   4.360 -0.0383 -0.6171 -1.1838
  767MOL0     H 5777   1.800  11.478   4.450 -0.7048  0.4055  0.1063
  767MOL0     H 5778   1.561  11.491   4.325  0.2520  0.1894 -0.3247
  767MOL0     H 5779   1.550  11.764   3.970  0.4526  1.2350 -0.2721
  767MOL0     H 5780   1.490  11.820   4.128 -1.3968  0.1178 -0.1649
  767MOL0     H 5781   1.353  11.791   3.894 -0.6290  1.0230 -0.3666
  767MOL0     H 5782   1.331  11.631   3.949  4.1461  0.0060 -2.3756
  767MOL0     H 5783   1.256  11.741   4.184 -3.4367 -1.0123  0.4667
  767MOL0     H 5784   1.226  11.881   4.076 -3.2385  0.0711  0.2753
  767MOL0     H 5785   1.096  11.722   3.931  0.9856  2.6892 -0.1581
  767MOL0     H 5786   1.063  11.637   4.086  0.0662 -1.4338 -1.5267
  767MOL0     H 5787   1.023  11.941   4.081  1.5452 -0.2490  1.8831
  767MOL0     H 5788   0.954  11.815   4.185  2.1004  0.2551 -0.0787
  767MOL0     H 5789   0.936  11.840   3.883  2.3478 -1.3704  0.9243
  767MOL0     H 5790   0.830  11.732   3.982  0.2246 -0.1240 -1.9188
  767MOL0     H 5791   0.704  11.919   4.057 -2.4071 -0.4886 -1.0499
  767MOL0     H 5792   0.714  11.911   3.888  2.7447 -1.1067 -2.2225
  767MOL0     H 5793   0.848  12.116   4.076 -1.9330  1.9871 -1.3142
  767MOL0     H 5794   0.911  12.103   3.916  1.9659 -0.5086  2.7250
  767MOL0     H 5795   0.819  12.365   3.898  0.0607 -1.5285  1.3942
  767MOL0     H 5796   0.668  12.544   3.794 -0.7484  0.2112  3.3234
  767MOL0     H 5797   0.488  12.514   3.796  1.5924  0.5065 -0.4771
  767MOL0     H 5798   0.647  12.435   3.570  1.1684  0.4213  0.9743
  767MOL0     H 5799   0.468  12.453   3.584 -1.0602  2.3553 -0.5897
  767MOL0     H 5800   0.514  12.712   3.603 -3.0162  0.3857 -2.5769
  767MOL0     H 5801   0.693  12.659   3.568  0.7430 -1.6535 -4.7772
  767MOL0     H 5802   0.596  12.749   3.388  3.2425 -0.8146  1.4516
  767MOL0     H 5803   0.650  12.589   3.371 -2.9237 -3.4135 -1.0829
  767MOL0     H 5804   0.433  12.868   3.390  0.7635 -1.6884  1.3562
  767MOL0     H 5805   0.149  13.105   3.458 -0.3111  0.1100 -3.0284
  767MOL0     H 5806   0.301  13.084   3.379 -0.9876 -0.9384 -0.7033
  767MOL0     H 5807   0.298  13.078   3.559  0.7885  1.2690 -0.5179
  767MOL0     H 5808  -0.210  13.146   3.383  1.2140  0.4159  2.3944
  767MOL0     H 5809  -0.386  13.267   3.460 -2.8005  0.2137  0.8419
  767MOL0     H 5810  -0.575  13.334   3.765 -3.1790 -1.6759  0.4620
  767MOL0     H 5811  -0.507  13.376   3.613 -0.9372 -0.2480  1.3297
  767MOL0     H 5812  -0.795  13.336   3.693  1.7872 -2.6977 -0.9373
  767MOL0     H 5813  -0.727  13.499   3.634  0.0452  0.0432 -2.2530
  767MOL0     H 5814  -0.878  13.418   3.468  1.6813  3.6823  0.5309
  767MOL0     H 5815  -0.787  13.260   3.466 -0.2136 -0.8426  0.7877
  767MOL0     H 5816  -0.597  13.364   3.355 -1.2416 -1.6434  0.4430
  767MOL0     H 5817  -0.639  13.521   3.417  2.5463 -0.8462  1.6345
  767MOL0     H 5818  -0.680  13.480   3.164  1.3340  1.3557  1.4729
  767MOL0     H 5819  -0.810  13.365   3.201  1.1537 -0.9354  1.9736
  767MOL0     H 5820  -0.810  13.657   3.304  0.2064  0.4491  1.9295
  767MOL0     H 5821  -0.952  13.545   3.286 -1.0082 -3.7976 -3.1631
  767MOL0     H 5822  -0.942  13.554   3.042 -0.6354  0.0941  0.1505
  767MOL0     H 5823  -0.793  13.657   3.055 -0.6999  1.0804 -0.5327
  767MOL0     H 5824  -1.071  13.724   3.168 -0.1337  2.3791 -0.7838
  767MOL0     H 5825  -1.013  13.793   3.018 -2.5487  0.5253  0.5922
  767MOL0     H 5826  -0.502  12.947   3.714 -0.2219  0.2544 -0.0296
  767MOL0     H 5827  -0.307  12.830   3.639  3.6785  0.6983  1.0993
  767MOL0     H 5828   0.004  12.647   3.482 -0.3643 -0.2776 -3.0513
  767MOL0     H 5829   0.197  12.521   3.420 -1.4273  1.5017 -0.7906
  767MOL0     H 5830   1.756  11.743   4.039  2.3247 -0.7774 -0.0245
  767MOL0     H 5831   1.976  11.717   4.163 -0.4306 -1.4677 -1.8465
  767MOL0     H 5832   2.227  11.698   4.415 -1.3542 -0.6439 -0.9994
  767MOL0     H 5833   2.464  11.706   4.475 -0.3757  0.1099 -0.9521
  767MOL0     H 5834   2.709  11.334   4.394  0.1918 -1.2357  1.6635
  767MOL0     H 5835   2.669  11.473   4.291 -0.1246  1.1440  1.0160
  767MOL0     H 5836   2.922  11.401   4.393 -2.6553 -2.2936 -0.7298
  767MOL0     H 5837   2.853  11.534   4.499 -2.3134 -0.4230  0.7362
  767MOL0     H 5838   2.882  11.528   4.205 -2.4222 -0.7027  1.3631
  767MOL0     H 5839   2.807  11.659   4.291 -2.6359 -2.3500 -0.4765
  767MOL0     H 5840   3.047  11.698   4.396  0.3524  0.2193 -0.4807
  767MOL0     H 5841   3.039  11.721   4.216 -0.4208 -2.0803 -2.6277
  767MOL0     H 5842   3.265  11.377   4.210  2.4280  2.0234 -1.1172
  767MOL0     H 5843   2.493  11.288   4.421  0.6068 -0.1561 -0.7980
  767MOL0     H 5844   2.150  11.202   4.392  0.3466 -1.5808 -0.4816
  767MOL0     H 5845   2.250  11.225   4.251  1.5270  3.4221 -1.2425
  767MOL0     H 5846   2.322  11.156   4.413 -1.1299  0.0254  1.1807
  768MOL0     O 5847   2.953   7.210   0.325  0.2795  0.1634 -0.2377
  768MOL0     C 5848   2.950   7.093   0.295 -0.8051 -0.2252  0.7066
  768MOL0     O 5849   2.867   7.052   0.199 -0.3638 -0.1042  0.0866
  768MOL0     C 5850   2.771   7.132   0.130  0.0784 -0.2661 -1.0181
  768MOL0     C 5851   2.710   7.251   0.180 -0.2463  0.3652  0.5370
  768MOL0     C 5852   2.617   7.326   0.110 -0.2168  0.9072  0.1554
  768MOL0     C 5853   2.567   7.282  -0.014  0.2028  0.3165  0.0133
  768MOL0     O 5854   2.477   7.346  -0.098 -0.6105 -0.6083  0.6275
  768MOL0     C 5855   2.480   7.497  -0.096 -0.1735  0.2784  0.5809
  768MOL0     C 5856   2.489   7.564  -0.239 -0.0147  0.3939  0.4219
  768MOL0     C 5857   2.617   7.520  -0.331  0.1644  0.1891 -0.9444
  768MOL0     C 5858   2.606   7.385  -0.393 -0.2395  0.7393 -0.0255
  768MOL0     C 5859   2.713   7.367  -0.506 -0.3789  0.4796  0.0457
  768MOL0     C 5860   2.857   7.368  -0.460 -0.3648  0.1045 -0.9485
  768MOL0     C 5861   2.903   7.271  -0.361 -0.1170 -0.4221 -0.6009
  768MOL0     C 5862   2.886   7.125  -0.405 -1.0146 -0.1531 -0.0029
  768MOL0     N 5863   2.962   7.028  -0.326 -0.4535  0.0837  0.0062
  768MOL0     C 5864   3.090   6.997  -0.336  0.0015  0.0699  1.0014
  768MOL0     C 5865   3.108   6.886  -0.261 -0.3909  0.8373  0.0635
  768MOL0     C 5866   3.228   6.797  -0.230  0.1187  0.5239 -0.0667
  768MOL0     C 5867   3.349   6.894  -0.195  0.7353  0.1358  0.5152
  768MOL0     C 5868   3.416   6.878  -0.059 -0.1915 -0.5317 -0.7276
  768MOL0     C 5869   3.339   6.959   0.049 -0.1675  0.3129  0.4464
  768MOL0     O 5870   3.356   7.103   0.029 -0.3148  0.1014  1.0163
  768MOL0     C 5871   3.262   7.191   0.067 -0.3728  0.2661 -1.2146
  768MOL0     C 5872   3.297   7.299   0.148 -0.1843 -0.0638  0.3816
  768MOL0     C 5873   3.215   7.403   0.172  0.1718  0.6000  0.9841
  768MOL0     C 5874   3.263   7.503   0.269  0.1908 -0.5304 -0.6960
  768MOL0     C 5875   3.093   7.410   0.094 -0.1132 -0.0467  0.5903
  768MOL0     C 5876   2.995   7.521   0.101 -0.5062 -0.3932 -0.2510
  768MOL0     O 5877   2.882   7.505   0.039 -0.3579 -0.3144  0.1105
  768MOL0     C 5878   2.805   7.613   0.034 -0.7048  0.0888 -0.2018
  768MOL0     C 5879   2.710   7.657   0.128  0.0585 -0.7754 -1.0403
  768MOL0     C 5880   2.634   7.776   0.115 -0.6252  0.2317 -0.0649
  768MOL0     C 5881   2.655   7.861  -0.001  0.7337 -0.8083 -0.4499
  768MOL0     O 5882   2.571   7.975  -0.021 -0.1986  0.2399 -0.6652
  768MOL0     C 5883   2.444   7.983   0.029  0.1014 -0.1431  0.2095
  768MOL0     C 5884   2.344   7.888  -0.034  0.2839  0.2525 -0.0961
  768MOL0     C 5885   2.214   7.891   0.035  0.2828 -0.7030  0.6179
  768MOL0     C 5886   2.128   8.012  -0.023  0.4964  0.0904 -0.5037
  768MOL0     C 5887   2.023   8.052   0.080 -0.4528 -0.4383 -0.1212
  768MOL0     C 5888   2.083   8.134   0.195 -0.1495  0.4945  0.0330
  768MOL0     C 5889   1.966   8.182   0.293 -0.2032 -0.9126  0.6613
  768MOL0     C 5890   2.007   8.238   0.424  0.4999  0.7712  0.0382
  768MOL0    Cl 5891   2.100   8.392   0.409 -0.5091 -0.2892 -0.0691
  768MOL0     C 5892   2.740   7.824  -0.095  0.2359  0.6316  0.5156
  768MOL0     C 5893   2.814   7.699  -0.082  0.2020 -1.1022 -0.3595
  768MOL0     O 5894   3.026   7.617   0.166 -0.5697  0.6714 -0.0272
  768MOL0     C 5895   3.052   7.292   0.021 -0.4967 -0.0665  0.4149
  768MOL0     C 5896   3.145   7.190   0.003  0.1683 -0.0346 -0.1324
  768MOL0     N 5897   2.986   6.852  -0.210  0.3942  0.1430 -0.5535
  768MOL0     N 5898   2.897   6.931  -0.258 -0.4192 -0.2150 -0.2678
  768MOL0     C 5899   2.614   7.156  -0.054  0.6465 -0.3985  0.4157
  768MOL0     C 5900   2.717   7.090   0.006  0.1750  0.5762 -0.2892
  768MOL0     C 5901   3.050   7.000   0.346  0.1730  0.5313 -0.2595
  768MOL0     C 5902   3.050   6.872   0.300 -0.4015 -0.0246  0.6894
  768MOL0     C 5903   3.139   6.776   0.339  0.7174 -0.8102  0.1580
  768MOL0     C 5904   3.233   6.809   0.434  0.2201  0.8157  0.0480
  768MOL0     O 5905   3.317   6.705   0.472 -0.2865 -0.7893 -0.5393
  768MOL0     C 5906   3.456   6.728   0.459  0.2670 -0.3051 -0.0113
  768MOL0     C 5907   3.486   6.690   0.314  0.1049 -0.0427  0.2444
  768MOL0     C 5908   3.637   6.682   0.288  0.6117 -0.0725 -0.2812
  768MOL0     C 5909   3.696   6.820   0.229  0.0559  0.0705 -0.7907
  768MOL0     C 5910   3.664   6.927   0.323 -0.0132  0.4173 -0.0585
  768MOL0     C 5911   3.637   7.011   0.408 -0.2149  0.4948  0.9387
  768MOL0     C 5912   3.252   6.944   0.472  0.3959  0.6765  0.3376
  768MOL0     C 5913   3.148   7.032   0.445 -1.0601  0.3565  0.8440
  768MOL0     C 5914   3.165   7.174   0.500 -0.2025 -0.9212  0.5739
  768MOL0     H 5915   2.737   7.295   0.275 -1.7362  1.0142  0.6876
  768MOL0     H 5916   2.566   7.408   0.160 -1.8278 -0.8443  1.5268
  768MOL0     H 5917   2.583   7.524  -0.071  0.7926  0.8938 -3.3591
  768MOL0     H 5918   2.402   7.551  -0.041 -0.1085  0.4120  0.5437
  768MOL0     H 5919   2.396   7.548  -0.295  0.8642 -0.2005 -0.9483
  768MOL0     H 5920   2.488   7.672  -0.223 -2.7110  1.4277 -4.5161
  768MOL0     H 5921   2.617   7.592  -0.414 -2.1930  0.7810 -0.4954
  768MOL0     H 5922   2.715   7.521  -0.282 -0.9856  2.1868  1.5011
  768MOL0     H 5923   2.607   7.309  -0.315  0.7696  0.2311 -0.5112
  768MOL0     H 5924   2.508   7.381  -0.442 -1.0440 -3.1113  1.5859
  768MOL0     H 5925   2.694   7.440  -0.584 -1.3102  2.6929  2.2106
  768MOL0     H 5926   2.700   7.271  -0.557 -4.5834  0.7830  0.1644
  768MOL0     H 5927   2.910   7.334  -0.550 -0.8780 -2.5604 -0.3257
  768MOL0     H 5928   2.908   7.462  -0.437 -0.2470 -0.0725 -0.4817
  768MOL0     H 5929   2.857   7.290  -0.263 -0.9224  0.0824 -1.0661
  768MOL0     H 5930   3.012   7.281  -0.355 -0.1388 -0.2223 -0.5377
  768MOL0     H 5931   2.779   7.105  -0.396 -1.1732 -0.1536 -1.5834
  768MOL0     H 5932   2.920   7.125  -0.510 -2.3793  0.6064 -0.4678
  768MOL0     H 5933   3.173   7.053  -0.379  0.8036 -2.6316 -1.2835
  768MOL0     H 5934   3.267   6.729  -0.307 -0.0675  0.5768 -0.2088
  768MOL0     H 5935   3.200   6.739  -0.142 -0.3733  1.2654  0.2796
  768MOL0     H 5936   3.423   6.874  -0.274 -0.9109  0.0453 -1.0689
  768MOL0     H 5937   3.304   6.993  -0.207 -1.7226 -1.1205 -1.6181
  768MOL0     H 5938   3.408   6.771  -0.036 -2.6071 -0.2099  0.2090
  768MOL0     H 5939   3.524   6.896  -0.067  0.2100 -2.2822  0.1219
  768MOL0     H 5940   3.233   6.937   0.035 -0.0634  0.0779  0.0131
  768MOL0     H 5941   3.373   6.939   0.151  1.1845 -1.4314 -0.2895
  768MOL0     H 5942   3.400   7.306   0.182 -0.2645 -0.3072  0.6813
  768MOL0     H 5943   3.194   7.558   0.335  1.3384 -1.8328  1.7210
  768MOL0     H 5944   3.311   7.580   0.207  1.1178 -0.2193  0.3756
  768MOL0     H 5945   3.328   7.456   0.343  1.1808 -1.4330 -2.0858
  768MOL0     H 5946   2.687   7.604   0.220  0.6675  0.6262 -0.0373
  768MOL0     H 5947   2.564   7.795   0.195  0.6956 -2.5440  1.9410
  768MOL0     H 5948   2.442   7.967   0.138 -1.2955 -3.5561 -0.1959
  768MOL0     H 5949   2.406   8.082   0.003 -1.0252 -0.3220  1.0785
  768MOL0     H 5950   2.328   7.899  -0.142 -2.0960 -2.4479 -0.1477
  768MOL0     H 5951   2.390   7.789  -0.023  2.4970  1.3232  0.8550
  768MOL0     H 5952   2.227   7.913   0.141  1.9774  1.6540 -0.0070
  768MOL0     H 5953   2.155   7.799   0.032 -2.0864  0.7108  0.3388
  768MOL0     H 5954   2.082   7.991  -0.120  0.3412 -0.6623 -0.2798
  768MOL0     H 5955   2.190   8.101  -0.038 -0.8229  1.3762  1.1772
  768MOL0     H 5956   1.956   8.121   0.028 -0.9782  0.6945  1.9579
  768MOL0     H 5957   1.964   7.966   0.114  1.0680 -1.4816 -0.0285
  768MOL0     H 5958   2.144   8.215   0.155  3.6736 -1.5239  1.2428
  768MOL0     H 5959   2.157   8.080   0.255 -1.6637  0.3471  1.8614
  768MOL0     H 5960   1.919   8.093   0.336 -1.2679 -0.2881  0.8414
  768MOL0     H 5961   1.902   8.253   0.241  0.6501 -0.8749 -0.3682
  768MOL0     H 5962   2.071   8.170   0.481  0.7336 -0.5013 -1.6733
  768MOL0     H 5963   1.917   8.254   0.483  0.2485 -0.8358  0.1214
  768MOL0     H 5964   2.754   7.877  -0.188  0.4846 -0.2840  0.0174
  768MOL0     H 5965   2.883   7.687  -0.166 -0.2559  1.8259 -1.2535
  768MOL0     H 5966   2.955   7.278  -0.027 -0.1153 -1.8494  0.0743
  768MOL0     H 5967   3.122   7.101  -0.054  0.2554  1.1912 -2.1852
  768MOL0     H 5968   2.583   7.111  -0.148  3.7596  2.1439 -2.0461
  768MOL0     H 5969   2.756   6.997  -0.035 -0.0284 -0.6485  2.0575
  768MOL0     H 5970   2.984   6.843   0.219 -2.4656 -0.5285  2.4821
  768MOL0     H 5971   3.140   6.681   0.286 -2.0060  0.6880 -2.9732
  768MOL0     H 5972   3.494   6.828   0.481 -2.2232  1.3931 -2.6296
  768MOL0     H 5973   3.500   6.666   0.538  0.7022  0.2794  0.2113
  768MOL0     H 5974   3.435   6.768   0.257  0.9386  0.8292  0.6618
  768MOL0     H 5975   3.450   6.588   0.298 -0.7160  0.3104 -0.2173
  768MOL0     H 5976   3.694   6.649   0.374  0.5513 -0.5895 -0.4371
  768MOL0     H 5977   3.659   6.606   0.213  4.7661  0.4454  0.2023
  768MOL0     H 5978   3.648   6.839   0.133  2.7226 -1.6352 -2.6024
  768MOL0     H 5979   3.805   6.818   0.219 -0.0672  1.0920 -2.7476
  768MOL0     H 5980   3.603   7.082   0.480  0.0068  0.2920  1.2400
  768MOL0     H 5981   3.342   6.964   0.528 -0.1603 -2.9978  2.8542
  768MOL0     H 5982   3.210   7.233   0.419 -0.1120  0.6038  1.6832
  768MOL0     H 5983   3.074   7.225   0.535 -0.6514 -1.2423 -0.0953
  768MOL0     H 5984   3.223   7.180   0.592  1.7651 -0.4950 -0.6242
  769MOL0     O 5985  10.241   8.792  11.205  0.1249 -0.2632  0.0510
  769MOL0     C 5986  10.150   8.867  11.223  0.0101  0.0617  0.5435
  769MOL0     O 5987  10.031   8.825  11.248  0.5052 -0.3133 -0.0511
  769MOL0     C 5988  10.004   8.693  11.217  0.1605 -0.3453 -0.6364
  769MOL0     C 5989   9.932   8.626  11.315  0.4922  0.7984  0.1249
  769MOL0     C 5990   9.878   8.501  11.290  0.5033 -0.3599 -0.8315
  769MOL0     C 5991   9.899   8.450  11.160  0.0149  0.5619  0.1779
  769MOL0     O 5992   9.848   8.322  11.131  0.5239 -0.4550 -0.1902
  769MOL0     C 5993   9.935   8.222  11.085  0.0279 -0.1914 -0.4892
  769MOL0     C 5994   9.852   8.113  11.023  0.1670 -0.9310 -1.0294
  769MOL0     C 5995   9.917   8.033  10.913  0.2833 -0.2220 -0.4831
  769MOL0     C 5996  10.061   7.983  10.956 -0.6551 -0.0667  0.3406
  769MOL0     C 5997  10.119   7.883  10.851 -0.6380 -1.0257 -0.0945
  769MOL0     C 5998  10.082   7.732  10.896 -0.2690  0.9221  0.7107
  769MOL0     C 5999  10.134   7.680  11.030 -0.0472 -0.3186  0.6132
  769MOL0     C 6000  10.167   7.529  11.046 -0.6179 -0.1544 -1.1121
  769MOL0     N 6001  10.039   7.443  11.043 -0.1811 -0.1982 -0.7579
  769MOL0     C 6002  10.026   7.329  10.973  0.4114  0.5099 -0.0946
  769MOL0     C 6003   9.900   7.283  11.009  0.4966  0.2082 -0.4216
  769MOL0     C 6004   9.825   7.159  10.972 -0.1616 -0.2269  0.6299
  769MOL0     C 6005   9.923   7.047  11.016  0.2108  0.9974  0.2502
  769MOL0     C 6006   9.865   6.911  10.971 -0.5718 -0.3144  0.2192
  769MOL0     C 6007   9.953   6.820  10.888  0.2490 -0.1746 -0.7162
  769MOL0     O 6008  10.083   6.809  10.947 -0.5162  0.1630  0.8518
  769MOL0     C 6009  10.183   6.735  10.884 -0.9177 -0.8910 -0.5630
  769MOL0     C 6010  10.322   6.761  10.915  0.1787  0.2708 -1.0775
  769MOL0     C 6011  10.426   6.706  10.841 -0.4603  0.1261 -0.1204
  769MOL0     C 6012  10.569   6.741  10.872 -0.3219 -0.4399 -0.2699
  769MOL0     C 6013  10.393   6.614  10.743 -0.1572  0.4655 -0.1201
  769MOL0     C 6014  10.488   6.533  10.666 -0.1710 -0.2722 -0.3732
  769MOL0     O 6015  10.574   6.456  10.743 -0.0817  0.0981  0.1972
  769MOL0     C 6016  10.667   6.366  10.676  0.7259 -0.5690  0.5902
  769MOL0     C 6017  10.798   6.405  10.629  0.0868  0.4613 -0.5236
  769MOL0     C 6018  10.875   6.315  10.553  0.4358  1.0292  0.8682
  769MOL0     C 6019  10.836   6.181  10.541 -0.0978  0.6758  0.1642
  769MOL0     O 6020  10.911   6.083  10.477 -0.6644 -0.0610  0.2677
  769MOL0     C 6021  11.017   6.126  10.393 -0.4205  0.2160 -0.5425
  769MOL0     C 6022  11.055   6.011  10.302 -0.0947 -0.0537  0.2449
  769MOL0     C 6023  10.991   5.873  10.327 -0.6559  0.0197 -0.7837
  769MOL0     C 6024  11.077   5.772  10.247  0.0446  0.0993  0.9368
  769MOL0     C 6025  11.030   5.640  10.271  0.1102  0.8299  0.6787
  769MOL0     C 6026  11.069   5.585  10.406 -0.1784  0.0152 -0.5878
  769MOL0     C 6027  11.036   5.436  10.418 -0.0073 -0.4593 -0.9936
  769MOL0     C 6028  11.145   5.342  10.364 -0.0282 -1.1483  0.1106
  769MOL0    Cl 6029  11.108   5.174  10.363 -0.2447 -0.3807 -0.0630
  769MOL0     C 6030  10.721   6.139  10.604 -0.0458  0.0399  1.5450
  769MOL0     C 6031  10.632   6.237  10.663  0.4677  1.1265  0.5568
  769MOL0     O 6032  10.459   6.526  10.543  0.1126  0.8050  0.2577
  769MOL0     C 6033  10.256   6.580  10.717 -0.3342 -0.1356 -0.4548
  769MOL0     C 6034  10.152   6.646  10.782 -0.8508 -0.5418  0.1300
  769MOL0     N 6035   9.842   7.383  11.081  0.0073 -0.6659 -0.4552
  769MOL0     N 6036   9.931   7.470  11.117  0.3068  0.2738 -0.2550
  769MOL0     C 6037   9.971   8.509  11.063 -0.5193 -0.5148 -0.2748
  769MOL0     C 6038  10.027   8.636  11.090  0.6855  0.9945 -0.4018
  769MOL0     C 6039  10.175   9.010  11.232 -0.1025 -0.2336 -0.2092
  769MOL0     C 6040  10.090   9.081  11.312 -0.6420  0.0757 -0.0951
  769MOL0     C 6041  10.092   9.230  11.318  0.4915  0.1644 -0.2912
  769MOL0     C 6042  10.189   9.293  11.242  0.1168  0.3244  0.7433
  769MOL0     O 6043  10.212   9.430  11.234 -0.1882  0.0692 -0.7317
  769MOL0     C 6044  10.149   9.524  11.316 -1.0412 -0.9037  0.0729
  769MOL0     C 6045  10.261   9.625  11.362 -1.0388  0.3562 -0.4022
  769MOL0     C 6046  10.202   9.773  11.370 -0.7373  0.0139  0.7277
  769MOL0     C 6047  10.107   9.786  11.493 -0.2244 -0.9674 -0.5732
  769MOL0     C 6048   9.966   9.744  11.476 -0.1215  0.6765  0.0266
  769MOL0     C 6049   9.862   9.685  11.445 -0.3765  0.4665  0.2640
  769MOL0     C 6050  10.280   9.221  11.171 -0.2540  0.6007 -0.2051
  769MOL0     C 6051  10.271   9.083  11.157  0.1334 -0.6673  0.0442
  769MOL0     C 6052  10.373   9.015  11.066  0.2141 -0.3802 -0.1587
  769MOL0     H 6053   9.899   8.670  11.408  0.7898 -0.6360  0.9352
  769MOL0     H 6054   9.826   8.446  11.368  0.8225  2.9089  1.9391
  769MOL0     H 6055   9.963   8.178  11.181 -2.9968 -0.8200  0.2169
  769MOL0     H 6056  10.013   8.259  11.017 -2.1189  1.7284 -2.0705
  769MOL0     H 6057   9.826   8.055  11.112  2.4456  2.5340  2.1985
  769MOL0     H 6058   9.764   8.169  10.992  2.4313  5.4247  2.1941
  769MOL0     H 6059   9.858   7.944  10.888 -1.3836  0.5191  0.6149
  769MOL0     H 6060   9.939   8.101  10.831  0.4989  1.0418  0.5914
  769MOL0     H 6061  10.135   8.063  10.964  0.3898 -0.8491 -1.0156
  769MOL0     H 6062  10.043   7.932  11.051  3.1775 -2.1986  0.1119
  769MOL0     H 6063  10.228   7.893  10.853 -0.7851  1.0200 -0.0435
  769MOL0     H 6064  10.091   7.919  10.751 -0.1659 -1.2527 -0.3114
  769MOL0     H 6065   9.972   7.729  10.896 -0.3781  2.3160 -1.5967
  769MOL0     H 6066  10.120   7.659  10.824 -4.4224 -1.1258  0.2658
  769MOL0     H 6067  10.070   7.717  11.110  0.0272 -0.5407  0.7771
  769MOL0     H 6068  10.228   7.734  11.045 -0.3149  0.4385 -0.3059
  769MOL0     H 6069  10.235   7.494  10.968 -0.1253  1.2540 -1.3491
  769MOL0     H 6070  10.225   7.531  11.138 -0.7911  1.8938 -0.9844
  769MOL0     H 6071  10.095   7.290  10.899  2.5526  0.8818  1.6313
  769MOL0     H 6072   9.826   7.157  10.863  0.4065  0.6103  0.6142
  769MOL0     H 6073   9.724   7.149  11.013  1.0599  2.6153  5.0937
  769MOL0     H 6074  10.016   7.064  10.961 -0.3382 -1.1833 -1.4874
  769MOL0     H 6075   9.943   7.042  11.123 -1.1791 -1.4819  0.4776
  769MOL0     H 6076   9.839   6.855  11.062 -0.3838 -1.6096 -0.5027
  769MOL0     H 6077   9.778   6.931  10.908  2.4330  1.7372 -3.6883
  769MOL0     H 6078   9.905   6.721  10.886 -0.3943  0.1095 -0.0750
  769MOL0     H 6079   9.957   6.865  10.789 -1.3417 -0.7306 -1.0726
  769MOL0     H 6080  10.345   6.819  11.005 -5.1542  0.2502  0.6205
  769MOL0     H 6081  10.602   6.696  10.966  0.8143  2.4984  0.8755
  769MOL0     H 6082  10.584   6.847  10.897  1.8992 -0.4984 -1.1246
  769MOL0     H 6083  10.638   6.707  10.794  0.2892  0.9335 -0.3657
  769MOL0     H 6084  10.840   6.503  10.652 -0.2980  0.3161  0.8613
  769MOL0     H 6085  10.975   6.348  10.528 -0.1036  2.1095  0.0625
  769MOL0     H 6086  10.984   6.205  10.325 -3.0782 -2.3704 -2.4964
  769MOL0     H 6087  11.110   6.152  10.444  0.5413  1.2716 -2.7199
  769MOL0     H 6088  11.032   6.042  10.199 -1.9293 -2.3616 -0.1250
  769MOL0     H 6089  11.163   5.996  10.313 -0.4123 -1.1600  2.3060
  769MOL0     H 6090  10.889   5.875  10.287 -0.1462 -0.3668 -2.1541
  769MOL0     H 6091  10.982   5.861  10.436 -1.6150  0.9179 -0.7474
  769MOL0     H 6092  11.179   5.775  10.285  0.7137  1.2352 -0.8437
  769MOL0     H 6093  11.084   5.799  10.141  0.7183 -3.3782 -0.0359
  769MOL0     H 6094  10.923   5.637  10.249  1.0027  0.4570 -5.0894
  769MOL0     H 6095  11.077   5.578  10.194 -1.8864  0.7413 -0.5607
  769MOL0     H 6096  11.014   5.640  10.482  0.7743  1.8125 -1.1504
  769MOL0     H 6097  11.177   5.598  10.417 -0.1357  0.1318 -1.0945
  769MOL0     H 6098  10.937   5.412  10.377 -1.1481 -0.9564  1.7857
  769MOL0     H 6099  11.022   5.412  10.524  1.0182  0.3419 -0.6595
  769MOL0     H 6100  11.232   5.357  10.428 -1.1189 -0.5307  1.5023
  769MOL0     H 6101  11.165   5.380  10.264 -0.5712 -0.2690  0.3208
  769MOL0     H 6102  10.692   6.035  10.590  1.2592 -0.2430  0.8561
  769MOL0     H 6103  10.534   6.207  10.698 -0.6271  1.4398 -2.0345
  769MOL0     H 6104  10.222   6.507  10.644  1.0828 -1.4499  0.1407
  769MOL0     H 6105  10.046   6.633  10.764 -1.3928  2.6069  0.4792
  769MOL0     H 6106   9.984   8.468  10.964  0.0391 -0.4937 -0.2102
  769MOL0     H 6107  10.081   8.692  11.014 -0.6608  0.1794 -2.0227
  769MOL0     H 6108  10.022   9.028  11.377 -0.0318 -3.0258 -1.8193
  769MOL0     H 6109  10.023   9.284  11.382 -0.2620 -2.3967  1.1986
  769MOL0     H 6110  10.074   9.578  11.257  0.2602 -0.5090 -1.2845
  769MOL0     H 6111  10.102   9.477  11.403 -2.7923 -2.8593 -1.8023
  769MOL0     H 6112  10.351   9.611  11.301 -0.6181  0.3172  0.2193
  769MOL0     H 6113  10.297   9.603  11.463  1.0485  1.2643 -0.8832
  769MOL0     H 6114  10.285   9.844  11.365 -0.2134 -0.6530 -2.4264
  769MOL0     H 6115  10.146   9.786  11.277  0.5255 -0.0668 -0.0723
  769MOL0     H 6116  10.119   9.890  11.525 -1.6383  0.1115 -3.2332
  769MOL0     H 6117  10.141   9.726  11.578 -0.8180 -0.9141 -0.2899
  769MOL0     H 6118   9.770   9.646  11.408  1.3618 -2.1806 -1.6128
  769MOL0     H 6119  10.352   9.275  11.111  0.9912  0.1092  0.8168
  769MOL0     H 6120  10.331   8.931  11.011 -2.0026 -1.8441  3.4019
  769MOL0     H 6121  10.437   9.082  11.007 -0.9061  0.1551 -0.8082
  769MOL0     H 6122  10.445   8.961  11.127  2.3978  0.5783 -1.7472
  770MOL0     O 6123   7.102   8.341   5.472 -0.1124  0.5303  0.6229
  770MOL0     C 6124   7.022   8.333   5.566 -0.2658 -0.7001 -0.6144
  770MOL0     O 6125   6.997   8.432   5.664 -0.0962  0.6307 -0.7486
  770MOL0     C 6126   7.067   8.551   5.659  0.0825 -0.3572 -0.6089
  770MOL0     C 6127   7.071   8.614   5.785 -1.1082 -0.4109 -0.5150
  770MOL0     C 6128   7.162   8.716   5.811 -0.2090 -0.5092 -0.6323
  770MOL0     C 6129   7.214   8.782   5.705  0.1541 -0.8700  0.8960
  770MOL0     O 6130   7.281   8.897   5.711  0.3981  0.7138  0.1926
  770MOL0     C 6131   7.339   8.933   5.832  0.1327  0.7187 -0.1611
  770MOL0     C 6132   7.463   9.018   5.809 -0.4973 -1.2198  0.5754
  770MOL0     C 6133   7.479   9.138   5.888 -0.0954 -0.1817  0.2500
  770MOL0     C 6134   7.615   9.208   5.869  1.0277  0.6460 -0.8407
  770MOL0     C 6135   7.640   9.337   5.955 -0.0849 -0.3647 -0.6359
  770MOL0     C 6136   7.787   9.381   5.970  0.3566  0.0105  0.2255
  770MOL0     C 6137   7.805   9.493   6.075 -0.5837 -0.1033  0.3380
  770MOL0     C 6138   7.956   9.525   6.073  1.0281 -0.4994  0.0694
  770MOL0     N 6139   7.974   9.648   6.150 -0.6127 -0.9180 -0.3042
  770MOL0     C 6140   8.028   9.662   6.273  0.6726  0.0792  0.7045
  770MOL0     C 6141   8.029   9.788   6.312 -0.0172 -0.6875  0.0303
  770MOL0     C 6142   8.064   9.850   6.440 -0.5369 -0.6455 -0.3314
  770MOL0     C 6143   8.117   9.989   6.408  0.4830  0.0829 -0.0090
  770MOL0     C 6144   8.177  10.070   6.530 -0.0838  0.4257 -0.3274
  770MOL0     C 6145   8.089  10.085   6.657  0.4502 -0.7534  0.3100
  770MOL0     O 6146   7.976  10.171   6.621  0.0912  0.2070 -0.1470
  770MOL0     C 6147   7.887  10.206   6.723 -1.1266  0.1514  0.4117
  770MOL0     C 6148   7.787  10.308   6.708 -0.1432 -0.3538 -0.0574
  770MOL0     C 6149   7.689  10.333   6.806 -0.8078 -0.1200 -0.2493
  770MOL0     C 6150   7.582  10.435   6.771  0.5653  0.1265 -0.6197
  770MOL0     C 6151   7.704  10.259   6.933  0.2579 -0.8603 -0.2490
  770MOL0     C 6152   7.601  10.261   7.049  1.1471 -0.1257  0.6290
  770MOL0     O 6153   7.618  10.210   7.166  0.4958 -0.1627  0.7119
  770MOL0     C 6154   7.533  10.239   7.266 -0.1673 -0.7126  0.3620
  770MOL0     C 6155   7.513  10.376   7.317 -0.0719 -0.0521 -0.8118
  770MOL0     C 6156   7.427  10.395   7.432 -0.3837  0.1506  0.4060
  770MOL0     C 6157   7.347  10.294   7.476  0.0043  0.6091 -0.1633
  770MOL0     O 6158   7.250  10.319   7.575 -0.5397  0.0682 -0.4052
  770MOL0     C 6159   7.220  10.211   7.670 -0.0644  0.8273 -0.3280
  770MOL0     C 6160   7.114  10.251   7.779 -0.3646 -0.0989 -0.2700
  770MOL0     C 6161   7.175  10.247   7.927 -0.7642 -0.0708 -1.0507
  770MOL0     C 6162   7.104  10.348   8.027  0.1827 -0.0969 -0.1915
  770MOL0     C 6163   7.155  10.328   8.169  0.8210  0.2251 -0.9886
  770MOL0     C 6164   7.045  10.338   8.278  0.5216 -1.0534 -0.5123
  770MOL0     C 6165   6.960  10.468   8.256  0.9169  0.0138 -0.0673
  770MOL0     C 6166   6.912  10.533   8.388  0.1158 -0.5728  0.3888
  770MOL0    Cl 6167   6.820  10.687   8.346 -0.3351 -0.7527 -0.0117
  770MOL0     C 6168   7.353  10.168   7.408 -0.3945  0.3377 -0.1619
  770MOL0     C 6169   7.447  10.140   7.309  0.5287  0.5349 -0.5480
  770MOL0     O 6170   7.491  10.304   7.017  0.0465 -0.5543  0.8276
  770MOL0     C 6171   7.811  10.166   6.952  0.8033 -0.2188 -0.5287
  770MOL0     C 6172   7.906  10.148   6.856  0.1239 -0.3811  0.3853
  770MOL0     N 6173   7.985   9.856   6.204 -0.0820  0.2261  0.0072
  770MOL0     N 6174   7.957   9.776   6.098 -0.7737 -0.4697 -0.5632
  770MOL0     C 6175   7.189   8.734   5.577 -0.4802  0.0091 -0.2325
  770MOL0     C 6176   7.130   8.614   5.550 -0.5798  0.0988  0.0891
  770MOL0     C 6177   6.947   8.214   5.565  0.3981  1.0067  0.5186
  770MOL0     C 6178   7.021   8.088   5.563  1.0791 -0.3968 -0.5660
  770MOL0     C 6179   6.943   7.966   5.558 -1.0599  0.3047  0.1672
  770MOL0     C 6180   6.805   7.964   5.569 -0.0669 -0.0759 -0.4130
  770MOL0     O 6181   6.739   7.850   5.567  0.0186 -0.8742 -0.7662
  770MOL0     C 6182   6.667   7.830   5.443 -0.5408 -0.1496 -0.0785
  770MOL0     C 6183   6.611   7.691   5.435 -0.0945  0.1774  0.0641
  770MOL0     C 6184   6.518   7.683   5.310  0.5416  0.8048 -0.0859
  770MOL0     C 6185   6.526   7.530   5.260  0.0099 -0.5870  0.6193
  770MOL0     C 6186   6.458   7.521   5.133 -0.7134 -0.0030  0.4451
  770MOL0     C 6187   6.416   7.526   5.020  0.1098  0.0266  0.6874
  770MOL0     C 6188   6.731   8.082   5.586  0.1479  1.4229  0.2737
  770MOL0     C 6189   6.806   8.207   5.583  0.6359 -0.9178  0.5574
  770MOL0     C 6190   6.716   8.333   5.589  0.0833  0.3744 -0.3202
  770MOL0     H 6191   7.019   8.574   5.871  1.2951  2.7755  2.7104
  770MOL0     H 6192   7.171   8.742   5.916  3.5816  1.5745 -1.2565
  770MOL0     H 6193   7.362   8.841   5.887 -3.0281  1.5857  2.9848
  770MOL0     H 6194   7.269   8.990   5.895  1.0021  1.8419 -0.1863
  770MOL0     H 6195   7.552   8.954   5.815  0.2342 -0.9976 -4.2654
  770MOL0     H 6196   7.454   9.050   5.705 -1.5222  1.7943  1.4796
  770MOL0     H 6197   7.396   9.204   5.861  0.8783  0.1422 -2.1055
  770MOL0     H 6198   7.473   9.102   5.992  1.8652  0.1748  0.5199
  770MOL0     H 6199   7.690   9.135   5.898 -1.1936 -2.4492 -2.3042
  770MOL0     H 6200   7.641   9.241   5.768  2.4383 -0.8390 -0.9991
  770MOL0     H 6201   7.601   9.317   6.055 -4.1646 -0.7326 -2.1165
  770MOL0     H 6202   7.591   9.424   5.911 -1.4219 -0.2217  1.0452
  770MOL0     H 6203   7.857   9.300   5.992  0.4336 -1.0513 -3.3857
  770MOL0     H 6204   7.820   9.424   5.875  2.0330 -0.6718  0.4629
  770MOL0     H 6205   7.756   9.467   6.170 -0.2487  2.0154  1.1339
  770MOL0     H 6206   7.755   9.582   6.037  0.3694  0.7015  0.9212
  770MOL0     H 6207   8.000   9.439   6.123  1.7719  0.1909  0.6213
  770MOL0     H 6208   7.994   9.538   5.971 -0.1227  0.5912 -0.2487
  770MOL0     H 6209   8.064   9.580   6.333  1.8140 -0.0390 -0.1067
  770MOL0     H 6210   8.141   9.785   6.484 -0.1312 -0.4394 -0.7296
  770MOL0     H 6211   7.971   9.855   6.498 -0.9252 -1.4276 -0.8665
  770MOL0     H 6212   8.193   9.977   6.330  0.4216 -0.3521 -0.0051
  770MOL0     H 6213   8.040  10.051   6.363 -1.1595 -1.6259  0.3197
  770MOL0     H 6214   8.270  10.024   6.563 -0.4138  1.1650  1.7588
  770MOL0     H 6215   8.203  10.172   6.500  2.2519  0.2844  1.0191
  770MOL0     H 6216   8.058   9.984   6.682  2.1331 -1.7689 -1.3939
  770MOL0     H 6217   8.150  10.139   6.731 -2.3645  3.1829  0.0861
  770MOL0     H 6218   7.773  10.346   6.607  1.4578  2.2732  0.6002
  770MOL0     H 6219   7.619  10.537   6.785 -2.0194  0.8513  1.6574
  770MOL0     H 6220   7.480  10.418   6.806 -0.6386 -1.3053 -4.2613
  770MOL0     H 6221   7.554  10.413   6.667  1.6031  0.1882 -0.9208
  770MOL0     H 6222   7.568  10.464   7.288  2.6463 -0.5569  2.2378
  770MOL0     H 6223   7.419  10.491   7.481  1.4353  0.2100  0.6745
  770MOL0     H 6224   7.169  10.138   7.607 -1.6167  0.7128  1.0225
  770MOL0     H 6225   7.316  10.176   7.710 -0.7235 -1.3647 -0.5294
  770MOL0     H 6226   7.083  10.355   7.762  0.7481  0.6591  1.9657
  770MOL0     H 6227   7.020  10.196   7.777 -1.7803  2.1685 -0.1214
  770MOL0     H 6228   7.278  10.285   7.921 -0.7622 -0.2130 -2.0627
  770MOL0     H 6229   7.184  10.148   7.973  2.0315  1.4399  2.1570
  770MOL0     H 6230   6.999  10.316   8.022  0.6371 -1.6270 -0.6210
  770MOL0     H 6231   7.098  10.450   7.989 -1.2707  0.2970  1.0333
  770MOL0     H 6232   7.200  10.229   8.182 -1.1254 -1.1450 -3.6277
  770MOL0     H 6233   7.228  10.405   8.194  1.4080 -1.7293  4.7436
  770MOL0     H 6234   7.086  10.340   8.379 -1.6103  1.9468  0.4369
  770MOL0     H 6235   6.968  10.261   8.271 -0.4902 -0.1117  0.0520
  770MOL0     H 6236   6.875  10.450   8.190  1.6750 -0.1913 -1.0067
  770MOL0     H 6237   7.024  10.534   8.196  0.7545  2.0556  1.8653
  770MOL0     H 6238   6.994  10.565   8.453 -2.1388  2.1342  2.1485
  770MOL0     H 6239   6.845  10.465   8.443  1.4772 -1.9853  0.3716
  770MOL0     H 6240   7.284  10.087   7.430  1.2025 -1.3945 -1.2581
  770MOL0     H 6241   7.461  10.039   7.271  1.1361  0.3567  0.1192
  770MOL0     H 6242   7.818  10.106   7.043 -2.6329 -3.4911 -2.1500
  770MOL0     H 6243   7.996  10.093   6.881 -0.0079 -0.0446  1.6969
  770MOL0     H 6244   7.240   8.792   5.500  0.1653  2.9937  2.2405
  770MOL0     H 6245   7.123   8.580   5.448 -2.3570 -0.9260  0.5018
  770MOL0     H 6246   7.128   8.096   5.547  0.7688  1.5728 -1.9503
  770MOL0     H 6247   7.007   7.878   5.551  1.9941  2.4215 -0.8543
  770MOL0     H 6248   6.591   7.907   5.425  1.0868  2.7377  3.7187
  770MOL0     H 6249   6.736   7.838   5.359  1.9547  0.9400  1.9370
  770MOL0     H 6250   6.546   7.649   5.513  1.4044  0.2270  1.3987
  770MOL0     H 6251   6.697   7.625   5.423  0.5528  1.3626 -2.2643
  770MOL0     H 6252   6.415   7.710   5.335 -0.1577 -0.8841 -1.0043
  770MOL0     H 6253   6.555   7.745   5.228  0.5751 -1.5431 -1.9461
  770MOL0     H 6254   6.470   7.462   5.325  1.1753 -3.1711 -0.8913
  770MOL0     H 6255   6.630   7.499   5.246  1.0484  0.9641  3.9932
  770MOL0     H 6256   6.365   7.534   4.926 -3.5348 -0.0399  2.4607
  770MOL0     H 6257   6.624   8.069   5.593  0.2542 -0.2963 -0.9182
  770MOL0     H 6258   6.763   8.421   5.634 -0.6519  1.2929 -1.2999
  770MOL0     H 6259   6.681   8.362   5.490 -2.6489 -1.4250  0.0425
  770MOL0     H 6260   6.624   8.303   5.639 -0.0806  0.7188 -0.4091
  771MOL0     O 6261   5.196   5.684   9.382 -0.4638 -0.2287  0.1999
  771MOL0     C 6262   5.146   5.782   9.430  0.2433  0.1442 -0.8830
  771MOL0     O 6263   5.213   5.880   9.492 -0.1926  0.1715  0.6300
  771MOL0     C 6264   5.328   5.835   9.562  0.0683 -0.1990  0.1442
  771MOL0     C 6265   5.450   5.828   9.485 -0.5632 -0.0465 -0.1454
  771MOL0     C 6266   5.565   5.783   9.557 -0.6718  0.1229 -0.1624
  771MOL0     C 6267   5.562   5.748   9.694 -0.4928 -0.4579  0.8495
  771MOL0     O 6268   5.663   5.694   9.772  0.2559 -0.5375  0.5789
  771MOL0     C 6269   5.762   5.611   9.701 -0.0896 -0.3593 -0.2366
  771MOL0     C 6270   5.882   5.706   9.688  0.8540 -1.3995 -0.6683
  771MOL0     C 6271   5.973   5.657   9.577 -0.4462  0.3463 -0.4981
  771MOL0     C 6272   6.015   5.514   9.595 -0.7990  0.5268 -0.3369
  771MOL0     C 6273   6.115   5.481   9.485  0.6648 -0.8395 -0.0226
  771MOL0     C 6274   6.050   5.435   9.351  0.3209  0.6421 -0.0011
  771MOL0     C 6275   6.154   5.418   9.238 -0.1322 -0.5464 -0.1630
  771MOL0     C 6276   6.149   5.289   9.154  0.3337  0.0143 -0.5459
  771MOL0     N 6277   6.174   5.164   9.234 -0.1063 -0.3568  1.3367
  771MOL0     C 6278   6.272   5.146   9.331  1.3418  0.6225 -0.6259
  771MOL0     C 6279   6.262   5.013   9.362  0.7259 -0.5156  0.0668
  771MOL0     C 6280   6.336   4.928   9.458  0.8254  0.6813 -0.8241
  771MOL0     C 6281   6.442   4.849   9.381  0.2188 -1.3008 -0.1785
  771MOL0     C 6282   6.565   4.836   9.465 -0.3092 -0.7531 -0.3966
  771MOL0     C 6283   6.674   4.746   9.413  0.5606  0.3983 -0.7185
  771MOL0     O 6284   6.625   4.610   9.421 -0.4249 -0.0607 -0.3906
  771MOL0     C 6285   6.621   4.535   9.302 -0.2661  0.6083 -0.1297
  771MOL0     C 6286   6.622   4.590   9.172 -0.5847 -0.7596 -0.3455
  771MOL0     C 6287   6.622   4.508   9.061 -0.9154 -0.0434  0.0152
  771MOL0     C 6288   6.625   4.578   8.928  0.7899  0.7115 -0.1309
  771MOL0     C 6289   6.626   4.369   9.071  0.5596  0.4314  0.6150
  771MOL0     C 6290   6.633   4.261   8.960  0.6472 -1.1443 -0.2846
  771MOL0     O 6291   6.589   4.305   8.838  0.3901 -0.3534 -0.4591
  771MOL0     C 6292   6.566   4.212   8.741  0.1869  1.1388 -0.2158
  771MOL0     C 6293   6.658   4.189   8.634 -0.3733 -0.0906 -0.3092
  771MOL0     C 6294   6.617   4.115   8.521  0.3182  0.1137 -0.3945
  771MOL0     C 6295   6.504   4.039   8.519 -0.1754  0.1840  0.2116
  771MOL0     O 6296   6.495   3.938   8.417  0.2241  0.3538  0.6664
  771MOL0     C 6297   6.480   3.802   8.460 -0.2992  0.9823 -0.2346
  771MOL0     C 6298   6.573   3.715   8.380  0.2540  1.0886 -0.4617
  771MOL0     C 6299   6.533   3.568   8.408 -0.3169  0.0620 -0.4061
  771MOL0     C 6300   6.635   3.478   8.469 -0.5140  0.1007  0.1889
  771MOL0     C 6301   6.731   3.538   8.581  0.0615 -0.3387  0.7963
  771MOL0     C 6302   6.778   3.427   8.662  0.1913  0.4340 -0.3523
  771MOL0     C 6303   6.882   3.485   8.769 -1.1408  0.2296 -0.0860
  771MOL0     C 6304   7.025   3.524   8.717 -1.2657 -0.3648 -0.4482
  771MOL0    Cl 6305   7.144   3.486   8.853  0.4237 -0.0687  0.1552
  771MOL0     C 6306   6.425   4.038   8.626  0.5224 -0.2271  0.1012
  771MOL0     C 6307   6.450   4.129   8.731 -0.8284 -0.5763 -0.0971
  771MOL0     O 6308   6.690   4.151   8.980 -0.0359 -0.2392  0.9522
  771MOL0     C 6309   6.628   4.315   9.199  0.1181  0.5010 -0.3892
  771MOL0     C 6310   6.617   4.395   9.319 -0.0374 -0.0852 -0.1033
  771MOL0     N 6311   6.166   4.955   9.283  1.2769 -1.1211 -1.3548
  771MOL0     N 6312   6.101   5.046   9.211 -0.7015 -0.3740 -0.3898
  771MOL0     C 6313   5.438   5.764   9.758  0.0778 -0.7414 -0.4445
  771MOL0     C 6314   5.322   5.814   9.699 -0.2785  0.2860  0.5989
  771MOL0     C 6315   5.001   5.797   9.414 -0.0970  0.3428  1.0028
  771MOL0     C 6316   4.948   5.925   9.431 -0.0949 -0.0681  0.2685
  771MOL0     C 6317   4.835   5.967   9.387 -0.6434 -0.8458  0.3886
  771MOL0     C 6318   4.742   5.879   9.330  0.3574 -0.4709  0.5732
  771MOL0     O 6319   4.609   5.904   9.297  0.2196 -0.1179 -0.1702
  771MOL0     C 6320   4.577   6.005   9.199 -0.6112  0.5698 -0.7778
  771MOL0     C 6321   4.533   5.929   9.073 -0.3062  0.5060 -0.0054
  771MOL0     C 6322   4.493   6.031   8.970 -0.0587  0.3988 -1.0545
  771MOL0     C 6323   4.370   6.113   9.013  0.5252  0.4043  0.2523
  771MOL0     C 6324   4.324   6.188   8.888  0.4897  1.7771 -1.5029
  771MOL0     C 6325   4.291   6.248   8.789 -0.9415  0.3040  0.5287
  771MOL0     C 6326   4.785   5.745   9.318 -0.1303  0.3481  1.0096
  771MOL0     C 6327   4.914   5.703   9.353 -0.3360 -0.0223 -0.1056
  771MOL0     C 6328   4.952   5.569   9.311 -0.5586  0.0815  0.2380
  771MOL0     H 6329   5.450   5.831   9.376 -2.7643 -1.7324 -0.2597
  771MOL0     H 6330   5.661   5.791   9.507 -0.7815  0.2575 -0.3518
  771MOL0     H 6331   5.733   5.583   9.600 -0.8309  0.1246 -0.1702
  771MOL0     H 6332   5.774   5.523   9.765  0.8563  0.7505  1.1838
  771MOL0     H 6333   5.847   5.808   9.672 -0.3619 -1.5911  0.4926
  771MOL0     H 6334   5.921   5.709   9.790 -2.0595 -1.7326  0.5718
  771MOL0     H 6335   5.923   5.662   9.480 -0.3392  1.5681 -0.5061
  771MOL0     H 6336   6.061   5.722   9.585  1.7736 -2.5249  0.1145
  771MOL0     H 6337   6.079   5.513   9.684  0.4205 -0.2228 -1.1875
  771MOL0     H 6338   5.929   5.449   9.612 -1.2482  0.8950 -1.1787
  771MOL0     H 6339   6.183   5.406   9.526  2.6364  2.5847  3.8301
  771MOL0     H 6340   6.171   5.574   9.470  1.0531 -1.3247 -1.6434
  771MOL0     H 6341   5.996   5.340   9.357  1.6292 -0.0402  3.7088
  771MOL0     H 6342   5.971   5.503   9.319 -1.0889 -1.1693 -0.5926
  771MOL0     H 6343   6.253   5.423   9.284  0.7742 -0.1313 -2.0661
  771MOL0     H 6344   6.159   5.507   9.175 -0.3463 -0.4947 -0.1074
  771MOL0     H 6345   6.054   5.286   9.101 -0.6241 -0.2687  1.0958
  771MOL0     H 6346   6.234   5.293   9.085  1.8164 -3.8094  0.7632
  771MOL0     H 6347   6.337   5.222   9.371  1.5795 -0.2263  0.6369
  771MOL0     H 6348   6.268   4.856   9.506  5.0333 -3.2639  0.0107
  771MOL0     H 6349   6.383   4.989   9.536 -0.4503  1.2846 -0.5050
  771MOL0     H 6350   6.401   4.751   9.355 -1.3446  0.0755 -3.4192
  771MOL0     H 6351   6.458   4.900   9.286 -2.9694  2.1292  0.8949
  771MOL0     H 6352   6.603   4.936   9.488  3.6647 -1.7926 -1.6470
  771MOL0     H 6353   6.529   4.788   9.557 -1.3085 -1.8057 -1.3021
  771MOL0     H 6354   6.698   4.782   9.313 -1.6964 -1.1756 -1.9078
  771MOL0     H 6355   6.768   4.747   9.470  0.8417  2.4378 -1.1484
  771MOL0     H 6356   6.620   4.694   9.142  2.3450 -0.2651  0.7806
  771MOL0     H 6357   6.536   4.558   8.867  0.0971  0.9421  0.7996
  771MOL0     H 6358   6.702   4.527   8.869  0.0323 -1.1156  0.3760
  771MOL0     H 6359   6.645   4.685   8.937 -2.6343  1.5258 -0.8890
  771MOL0     H 6360   6.753   4.240   8.636 -1.3020  1.7639 -0.7088
  771MOL0     H 6361   6.694   4.098   8.446 -0.2697  2.6083 -1.6574
  771MOL0     H 6362   6.521   3.783   8.559  1.7352 -0.1007 -1.2033
  771MOL0     H 6363   6.375   3.771   8.458 -0.1791  0.5544 -2.0638
  771MOL0     H 6364   6.537   3.741   8.280  0.3400 -1.3214 -1.1951
  771MOL0     H 6365   6.680   3.729   8.398  1.0946 -1.8373 -2.3532
  771MOL0     H 6366   6.504   3.524   8.312  0.5809  3.9656 -2.6780
  771MOL0     H 6367   6.445   3.568   8.472  0.4672  0.0881  0.7069
  771MOL0     H 6368   6.702   3.452   8.386 -1.4274 -4.0198  0.5349
  771MOL0     H 6369   6.583   3.387   8.498  1.5722 -0.6225  1.9256
  771MOL0     H 6370   6.814   3.588   8.530  2.1241 -2.8420  1.4930
  771MOL0     H 6371   6.689   3.616   8.646 -1.4182 -0.4407  0.0037
  771MOL0     H 6372   6.819   3.346   8.602 -2.4503 -1.6377  0.4425
  771MOL0     H 6373   6.693   3.376   8.707  2.0142 -2.1995  0.3227
  771MOL0     H 6374   6.886   3.412   8.850 -1.0364  1.4452  1.0529
  771MOL0     H 6375   6.835   3.572   8.815 -0.7451 -0.9826  2.8413
  771MOL0     H 6376   7.048   3.629   8.697  0.0254 -0.1917  1.7430
  771MOL0     H 6377   7.045   3.465   8.627  2.5474 -0.9504  0.6248
  771MOL0     H 6378   6.342   3.969   8.618 -0.2798  0.6591  0.5535
  771MOL0     H 6379   6.384   4.133   8.818 -0.4483  1.9634  0.1444
  771MOL0     H 6380   6.625   4.207   9.204 -4.0407  0.4355 -0.7239
  771MOL0     H 6381   6.607   4.334   9.409  0.8242  0.9310  0.7163
  771MOL0     H 6382   5.443   5.744   9.865  3.0374  0.6887 -0.1961
  771MOL0     H 6383   5.232   5.834   9.757  0.9159 -0.8092  2.9517
  771MOL0     H 6384   5.017   6.001   9.468  1.6562 -0.6129 -1.7118
  771MOL0     H 6385   4.807   6.072   9.393  0.2140 -0.6918  2.7065
  771MOL0     H 6386   4.500   6.076   9.232 -1.9080 -1.6361  1.1939
  771MOL0     H 6387   4.674   6.052   9.184  0.2184 -0.6145  0.6416
  771MOL0     H 6388   4.447   5.866   9.097  1.4847 -1.5717  1.3988
  771MOL0     H 6389   4.625   5.884   9.034  0.2362 -0.2958  2.0954
  771MOL0     H 6390   4.577   6.097   8.946  1.5013 -1.9086 -2.2390
  771MOL0     H 6391   4.481   5.978   8.875 -1.3197 -0.6057 -0.3643
  771MOL0     H 6392   4.387   6.183   9.095  1.4212 -0.9582  1.2690
  771MOL0     H 6393   4.286   6.050   9.043 -0.0021  0.6008 -0.7759
  771MOL0     H 6394   4.245   6.296   8.705 -1.7208  1.3700  1.5316
  771MOL0     H 6395   4.712   5.673   9.283 -1.5513  1.3435  1.8365
  771MOL0     H 6396   4.864   5.512   9.281 -1.6295  2.6924 -1.9601
  771MOL0     H 6397   5.012   5.581   9.220  0.2801  0.3760  0.8158
  771MOL0     H 6398   5.009   5.517   9.389 -0.8539 -0.2285  0.2509
  772MOL0     O 6399   3.703  11.426   2.533  0.4208 -0.5757 -1.1348
  772MOL0     C 6400   3.593  11.398   2.482 -0.7979  0.3350  0.6195
  772MOL0     O 6401   3.499  11.325   2.533  0.3501 -0.5058  1.1988
  772MOL0     C 6402   3.528  11.232   2.628 -0.3099 -0.0893  0.1487
  772MOL0     C 6403   3.440  11.222   2.740 -0.0883 -1.0790 -0.2688
  772MOL0     C 6404   3.471  11.129   2.842 -0.1297 -0.5158 -0.9522
  772MOL0     C 6405   3.583  11.049   2.828  1.1876  0.1187  0.0159
  772MOL0     O 6406   3.596  10.956   2.924 -0.2374  0.1724  0.1673
  772MOL0     C 6407   3.734  10.907   2.958  1.0460  0.0274 -1.0297
  772MOL0     C 6408   3.851  10.995   3.007  0.0038 -0.5278  0.2214
  772MOL0     C 6409   3.956  10.913   3.081  0.6014  0.3934  0.7351
  772MOL0     C 6410   4.093  10.992   3.119  0.4338 -0.1853  0.2737
  772MOL0     C 6411   4.152  11.084   3.002  0.3081 -0.1975  0.3809
  772MOL0     C 6412   4.293  11.140   3.044 -0.0044 -0.1058  0.2479
  772MOL0     C 6413   4.340  11.263   2.958  0.5808 -0.0412  0.5452
  772MOL0     C 6414   4.461  11.333   3.017  0.0951 -0.3019  0.5492
  772MOL0     N 6415   4.519  11.420   2.919  0.5181  0.1875  0.3211
  772MOL0     C 6416   4.476  11.546   2.903  0.2889 -0.1684  0.0887
  772MOL0     C 6417   4.561  11.601   2.810  0.7378 -1.3976  0.0368
  772MOL0     C 6418   4.538  11.738   2.746 -0.1424 -0.0141 -0.3639
  772MOL0     C 6419   4.487  11.734   2.596 -0.0749 -0.3301 -0.5031
  772MOL0     C 6420   4.571  11.663   2.498 -0.1146  0.8522 -0.5913
  772MOL0     C 6421   4.500  11.678   2.362  0.5777 -0.3221  0.5377
  772MOL0     O 6422   4.591  11.626   2.265  0.0619 -0.6001  0.2878
  772MOL0     C 6423   4.543  11.618   2.137 -0.6988  0.1797  0.3888
  772MOL0     C 6424   4.637  11.574   2.043  0.1325  0.4529  0.0609
  772MOL0     C 6425   4.605  11.568   1.906 -0.3820  0.2877  0.5701
  772MOL0     C 6426   4.711  11.501   1.824 -0.2528 -0.1490  0.0853
  772MOL0     C 6427   4.475  11.601   1.865 -0.0546 -0.1248  0.0236
  772MOL0     C 6428   4.425  11.596   1.733  1.1079  0.2329  0.2408
  772MOL0     O 6429   4.502  11.653   1.635 -0.7900  0.0005 -0.4700
  772MOL0     C 6430   4.452  11.666   1.510 -1.1460 -0.3989 -0.3405
  772MOL0     C 6431   4.319  11.675   1.474  0.4155 -0.1754  0.1323
  772MOL0     C 6432   4.284  11.670   1.336 -0.0251  0.5705  0.1767
  772MOL0     C 6433   4.380  11.663   1.235  0.8219  1.6203 -0.9572
  772MOL0     O 6434   4.326  11.664   1.105  0.3632 -0.0699 -0.0987
  772MOL0     C 6435   4.417  11.700   0.999 -0.0473 -0.1934 -0.1209
  772MOL0     C 6436   4.338  11.747   0.875  0.1859 -0.2507  0.1213
  772MOL0     C 6437   4.247  11.875   0.902 -0.6900  0.1137  0.8164
  772MOL0     C 6438   4.157  11.881   0.771 -1.6816  0.5965  0.2632
  772MOL0     C 6439   4.085  12.017   0.758 -0.4297 -0.0317 -0.7101
  772MOL0     C 6440   3.983  12.025   0.645 -0.4336  0.0586  0.3927
  772MOL0     C 6441   4.045  12.018   0.506 -0.1431 -0.4340  0.1089
  772MOL0     C 6442   4.130  12.134   0.451  0.5586 -0.9767 -0.4770
  772MOL0    Cl 6443   4.310  12.101   0.480  0.0085  0.0673  0.3243
  772MOL0     C 6444   4.509  11.633   1.268 -0.2621  0.7000 -0.8704
  772MOL0     C 6445   4.547  11.637   1.408 -0.5195  0.6470  0.6542
  772MOL0     O 6446   4.316  11.542   1.717 -0.6669  0.0461  0.0198
  772MOL0     C 6447   4.383  11.644   1.960  0.1303 -0.6610  0.1765
  772MOL0     C 6448   4.413  11.648   2.095  1.2010 -0.4862  0.5825
  772MOL0     N 6449   4.659  11.505   2.786  0.2826 -0.7662 -0.3706
  772MOL0     N 6450   4.635  11.400   2.852  0.4591  0.1431 -0.1970
  772MOL0     C 6451   3.667  11.059   2.716  0.6136  0.0912 -0.1366
  772MOL0     C 6452   3.636  11.141   2.614  0.4445  0.6507  0.5037
  772MOL0     C 6453   3.552  11.465   2.350  0.4436  1.1841 -1.0500
  772MOL0     C 6454   3.425  11.431   2.292  0.7605 -0.3091  0.1289
  772MOL0     C 6455   3.377  11.485   2.176  0.3637 -0.5879  0.3965
  772MOL0     C 6456   3.448  11.577   2.106 -0.5267 -0.3114  1.4273
  772MOL0     O 6457   3.401  11.644   1.997  0.0811  0.1309  0.2695
  772MOL0     C 6458   3.491  11.700   1.907  0.5454 -0.3702 -0.9885
  772MOL0     C 6459   3.394  11.710   1.782 -0.1209 -0.4529  0.1375
  772MOL0     C 6460   3.434  11.829   1.690  0.1100 -0.4876  0.5867
  772MOL0     C 6461   3.350  11.816   1.559  0.1900  0.8514 -0.6061
  772MOL0     C 6462   3.401  11.708   1.469  0.2753  0.0847 -0.6957
  772MOL0     C 6463   3.444  11.615   1.399  0.5780 -0.1041 -0.4317
  772MOL0     C 6464   3.579  11.609   2.156 -0.2513  0.3497  0.4603
  772MOL0     C 6465   3.627  11.556   2.274 -0.8685  0.3758  0.4294
  772MOL0     C 6466   3.769  11.597   2.314 -0.2689 -0.0259 -0.8458
  772MOL0     H 6467   3.345  11.274   2.740 -0.1477 -1.1551 -1.8909
  772MOL0     H 6468   3.411  11.114   2.931 -0.1356  2.1936 -0.4391
  772MOL0     H 6469   3.755  10.841   2.873 -4.4141 -0.9359 -1.9824
  772MOL0     H 6470   3.713  10.849   3.049  2.8379 -4.0542 -2.9322
  772MOL0     H 6471   3.894  11.037   2.916 -2.9557 -0.4709 -1.2774
  772MOL0     H 6472   3.803  11.069   3.072 -2.8003  0.4711 -2.6898
  772MOL0     H 6473   3.914  10.866   3.171 -4.7315 -3.1050 -2.9942
  772MOL0     H 6474   3.982  10.833   3.011  0.3187  2.0191 -1.3302
  772MOL0     H 6475   4.081  11.046   3.214 -1.6686 -0.1974  0.0603
  772MOL0     H 6476   4.171  10.919   3.141  0.2927  0.0747  1.7437
  772MOL0     H 6477   4.101  11.181   3.001 -2.1673 -1.3739 -2.4661
  772MOL0     H 6478   4.147  11.028   2.908  2.7349  0.7813 -0.3961
  772MOL0     H 6479   4.272  11.176   3.146  1.6058  0.1765  0.5030
  772MOL0     H 6480   4.372  11.064   3.046 -1.3443 -1.6623 -1.8902
  772MOL0     H 6481   4.265  11.342   2.949  0.1618 -0.6132 -1.5644
  772MOL0     H 6482   4.350  11.224   2.856 -2.5906 -0.9205  0.4647
  772MOL0     H 6483   4.437  11.395   3.104  3.8243  1.2703  0.6275
  772MOL0     H 6484   4.534  11.259   3.050  2.1509  0.1165 -2.6095
  772MOL0     H 6485   4.394  11.594   2.956  2.9798  1.7647  2.7713
  772MOL0     H 6486   4.632  11.790   2.766 -1.2196  0.8595  3.2672
  772MOL0     H 6487   4.458  11.790   2.799  0.9038  0.2374  1.0493
  772MOL0     H 6488   4.395  11.675   2.588 -1.5894  1.6762  1.0844
  772MOL0     H 6489   4.470  11.836   2.562 -1.8387  0.3073  2.0420
  772MOL0     H 6490   4.676  11.695   2.500  0.0526  0.3453  2.6022
  772MOL0     H 6491   4.574  11.560   2.536  0.7208  0.9114 -0.4820
  772MOL0     H 6492   4.407  11.621   2.371  1.9933 -2.5888  2.1499
  772MOL0     H 6493   4.475  11.782   2.340  2.3147  0.1611  0.7402
  772MOL0     H 6494   4.740  11.562   2.075  1.4070 -2.7869 -4.2418
  772MOL0     H 6495   4.760  11.424   1.883 -2.3691 -0.8761  1.0000
  772MOL0     H 6496   4.792  11.570   1.799 -2.9427  2.7183 -1.5128
  772MOL0     H 6497   4.677  11.455   1.730  1.5179  0.6572 -1.0055
  772MOL0     H 6498   4.252  11.696   1.557  0.2692 -0.4298  0.0787
  772MOL0     H 6499   4.180  11.679   1.308  0.8701  2.1218 -3.0434
  772MOL0     H 6500   4.480  11.785   1.027 -1.3602  0.8881 -0.3530
  772MOL0     H 6501   4.480  11.612   0.983  1.1430  0.6524 -0.2376
  772MOL0     H 6502   4.421  11.776   0.811  1.0670  2.9072  2.4559
  772MOL0     H 6503   4.278  11.666   0.832  1.8186 -1.6340  0.3024
  772MOL0     H 6504   4.320  11.957   0.903 -0.9903  0.4376 -0.7936
  772MOL0     H 6505   4.188  11.889   0.993 -2.6524 -0.9609 -0.2423
  772MOL0     H 6506   4.090  11.797   0.752  1.9209 -2.4964 -0.0446
  772MOL0     H 6507   4.222  11.870   0.684 -0.1691 -1.2622  1.5279
  772MOL0     H 6508   4.039  12.037   0.856 -1.4966 -1.0740 -0.9669
  772MOL0     H 6509   4.170  12.085   0.761  0.6125 -1.0603  4.8111
  772MOL0     H 6510   3.918  12.113   0.653  0.0722  0.3299  1.8913
  772MOL0     H 6511   3.926  11.933   0.634  2.5235 -1.5616 -5.6008
  772MOL0     H 6512   3.963  11.998   0.437 -1.5889  2.5893  0.7765
  772MOL0     H 6513   4.093  11.922   0.487 -0.8627 -0.2680 -2.9631
  772MOL0     H 6514   4.101  12.232   0.490 -0.1374 -0.8081 -1.3830
  772MOL0     H 6515   4.121  12.133   0.342 -0.7742 -0.0408 -0.4078
  772MOL0     H 6516   4.592  11.620   1.199  3.2267  2.6857  2.5766
  772MOL0     H 6517   4.649  11.609   1.429 -0.5267 -1.6143 -1.8535
  772MOL0     H 6518   4.289  11.673   1.914  1.7652  1.0405 -2.3471
  772MOL0     H 6519   4.331  11.686   2.156 -2.0741 -3.0004 -1.8927
  772MOL0     H 6520   3.749  10.990   2.700 -1.2510 -2.0094 -1.3878
  772MOL0     H 6521   3.706  11.140   2.530  2.0627 -0.8887  1.7772
  772MOL0     H 6522   3.354  11.368   2.344  0.7261 -0.5425 -0.1932
  772MOL0     H 6523   3.278  11.460   2.140  0.1821  0.0023  0.4686
  772MOL0     H 6524   3.516  11.800   1.944  1.9609 -0.3676 -1.8700
  772MOL0     H 6525   3.578  11.638   1.887 -0.4066 -1.8039 -0.8636
  772MOL0     H 6526   3.292  11.717   1.821  2.2938 -0.3471  8.0819
  772MOL0     H 6527   3.404  11.615   1.728 -0.5010  0.1344 -0.9959
  772MOL0     H 6528   3.417  11.932   1.723  1.3598  1.0443 -3.1068
  772MOL0     H 6529   3.539  11.819   1.661  0.1950  0.5303  0.5236
  772MOL0     H 6530   3.364  11.915   1.515 -0.7083  0.6045 -1.4578
  772MOL0     H 6531   3.244  11.803   1.582  0.5635  0.5534  1.1115
  772MOL0     H 6532   3.473  11.541   1.327  0.2812  1.5223 -2.3148
  772MOL0     H 6533   3.653  11.667   2.102  0.7788 -2.7126 -1.6120
  772MOL0     H 6534   3.814  11.653   2.231  0.3403  0.9078  0.0974
  772MOL0     H 6535   3.775  11.656   2.406 -0.9742 -0.2549 -0.6439
  772MOL0     H 6536   3.834  11.513   2.340  1.4420  1.7663  1.0418
  773MOL0     O 6537   5.463   8.390   8.417  0.1602  0.2256  0.0569
  773MOL0     C 6538   5.498   8.489   8.362 -0.3414 -0.4557  0.3704
  773MOL0     O 6539   5.457   8.618   8.394  0.6612 -0.6770  0.5804
  773MOL0     C 6540   5.431   8.647   8.523 -0.1185  0.8564  0.1952
  773MOL0     C 6541   5.534   8.701   8.601 -0.0669  0.1081  0.0965
  773MOL0     C 6542   5.515   8.718   8.742  0.9641  0.1709  0.9725
  773MOL0     C 6543   5.394   8.658   8.802 -0.1505  0.6645  0.7203
  773MOL0     O 6544   5.370   8.649   8.936  0.1909 -0.1125 -1.1015
  773MOL0     C 6545   5.474   8.695   9.023  0.1288  0.8325  0.5252
  773MOL0     C 6546   5.432   8.658   9.169 -0.6918 -0.1543  0.3081
  773MOL0     C 6547   5.410   8.507   9.200 -0.4751  1.1007 -0.3809
  773MOL0     C 6548   5.363   8.498   9.346  0.0034 -0.3137 -0.3500
  773MOL0     C 6549   5.377   8.364   9.408 -0.1672  0.1491  0.4977
  773MOL0     C 6550   5.267   8.356   9.507 -0.8797 -0.8284  0.5626
  773MOL0     C 6551   5.270   8.454   9.620 -0.0450  1.2175 -0.3639
  773MOL0     C 6552   5.177   8.410   9.727  0.1008  0.2803 -0.2641
  773MOL0     N 6553   5.215   8.293   9.805  0.5760 -0.7164  0.3767
  773MOL0     C 6554   5.283   8.293   9.920  0.2212 -0.6676 -0.2607
  773MOL0     C 6555   5.315   8.163   9.943 -0.2658  0.5626  0.4962
  773MOL0     C 6556   5.379   8.109  10.073 -0.4727 -0.9169  0.3519
  773MOL0     C 6557   5.293   8.166  10.191 -0.6126 -0.0008 -0.3281
  773MOL0     C 6558   5.364   8.109  10.316 -0.7125  0.3116 -0.5987
  773MOL0     C 6559   5.314   8.144  10.454  0.2830  1.2260  0.0243
  773MOL0     O 6560   5.367   8.271  10.496 -0.6118  0.2476  0.0888
  773MOL0     C 6561   5.315   8.340  10.607  0.1488 -0.4494  0.7232
  773MOL0     C 6562   5.210   8.294  10.684  0.1546  0.7298 -0.1453
  773MOL0     C 6563   5.146   8.372  10.782 -0.6398 -0.8948 -0.9075
  773MOL0     C 6564   5.031   8.316  10.862  0.1581  1.0860 -0.0462
  773MOL0     C 6565   5.196   8.502  10.810 -0.4114  0.1089 -0.0998
  773MOL0     C 6566   5.130   8.607  10.907  0.0886  0.6373 -1.1620
  773MOL0     O 6567   5.008   8.582  10.967  0.5933 -0.6452 -0.4863
  773MOL0     C 6568   5.011   8.615  11.106  0.0553  0.6120  0.1876
  773MOL0     C 6569   5.047   8.525  11.205  0.1411  0.2162 -0.2375
  773MOL0     C 6570   5.007   8.549  11.338 -1.1231  0.1172  0.4133
  773MOL0     C 6571   4.964   8.678  11.374 -0.8099 -0.3412 -0.3761
  773MOL0     O 6572   4.925   8.695  11.509  0.3981  0.3559  0.4281
  773MOL0     C 6573   4.876   8.828  11.540 -0.1159  0.7668  0.0644
  773MOL0     C 6574   4.858   8.816  11.693  0.4351 -0.1705  0.1511
  773MOL0     C 6575   4.831   8.951  11.759 -0.0159  0.3707  0.0427
  773MOL0     C 6576   4.767   8.927  11.896  0.5242  0.8770 -0.2538
  773MOL0     C 6577   4.741   9.064  11.952  0.0362  0.2532 -0.0373
  773MOL0     C 6578   4.682   9.065  12.088  0.7055  0.5996  0.1279
  773MOL0     C 6579   4.657   9.204  12.153 -0.1196 -0.3837 -0.3460
  773MOL0     C 6580   4.600   9.198  12.294  0.2460  0.9552  0.3518
  773MOL0    Cl 6581   4.415   9.181  12.270 -0.0787 -0.3070  0.2352
  773MOL0     C 6582   4.955   8.777  11.272  0.1637  0.0228 -0.0684
  773MOL0     C 6583   4.963   8.738  11.138 -0.4837 -0.5615  0.0438
  773MOL0     O 6584   5.195   8.701  10.931 -1.1342 -0.6261  0.0121
  773MOL0     C 6585   5.307   8.552  10.731  0.3488  1.0695 -0.4513
  773MOL0     C 6586   5.360   8.475  10.631 -0.0497 -0.3030 -0.7772
  773MOL0     N 6587   5.256   8.081   9.847  0.5862 -0.2742 -0.1197
  773MOL0     N 6588   5.198   8.162   9.764 -0.1994 -0.8669  0.0319
  773MOL0     C 6589   5.297   8.597   8.726 -0.2580 -0.0845  0.3577
  773MOL0     C 6590   5.314   8.602   8.585 -0.9306  0.6462  0.4938
  773MOL0     C 6591   5.586   8.468   8.243 -0.0263  0.0322 -0.1007
  773MOL0     C 6592   5.599   8.585   8.158  0.6411  0.8146 -0.5178
  773MOL0     C 6593   5.679   8.576   8.038  0.3007  0.0624 -0.4267
  773MOL0     C 6594   5.740   8.456   8.011 -0.8457  0.5144  0.0033
  773MOL0     O 6595   5.806   8.436   7.887  0.2119  0.2667  0.3533
  773MOL0     C 6596   5.720   8.448   7.771  0.1161  0.1002 -1.1331
  773MOL0     C 6597   5.794   8.544   7.676  0.2239  0.4922  0.8849
  773MOL0     C 6598   5.698   8.570   7.552  0.0831  0.3231 -0.1229
  773MOL0     C 6599   5.765   8.678   7.468 -0.3509 -0.6511 -0.1922
  773MOL0     C 6600   5.881   8.623   7.400 -0.5291  0.9353  0.4804
  773MOL0     C 6601   5.982   8.593   7.345  0.0536 -0.4261  0.1268
  773MOL0     C 6602   5.734   8.352   8.095 -0.3000  0.0669 -0.3292
  773MOL0     C 6603   5.667   8.348   8.214  0.1247 -0.0822 -0.0150
  773MOL0     C 6604   5.690   8.230   8.321 -0.4403 -0.0216  0.5080
  773MOL0     H 6605   5.623   8.730   8.547  0.3468 -2.4794 -0.7331
  773MOL0     H 6606   5.589   8.771   8.801 -0.1989  1.4886  1.3089
  773MOL0     H 6607   5.485   8.803   9.013  2.3812  0.6788  0.8145
  773MOL0     H 6608   5.573   8.651   9.006  0.0957  0.6702  0.7569
  773MOL0     H 6609   5.501   8.712   9.234 -0.5709  1.5507 -1.1829
  773MOL0     H 6610   5.332   8.704   9.173 -2.0704 -2.7441 -1.5020
  773MOL0     H 6611   5.340   8.455   9.134 -2.0799 -1.6282  3.1141
  773MOL0     H 6612   5.512   8.468   9.190 -0.4670  0.3941  1.9620
  773MOL0     H 6613   5.431   8.558   9.408 -0.0365 -1.2383  0.6277
  773MOL0     H 6614   5.267   8.549   9.359  0.4765  0.4829  0.0708
  773MOL0     H 6615   5.481   8.359   9.441 -0.7761 -2.8647  2.2605
  773MOL0     H 6616   5.357   8.294   9.327  0.3049  2.2695 -1.5904
  773MOL0     H 6617   5.176   8.362   9.445 -1.0123 -4.5182  0.1516
  773MOL0     H 6618   5.277   8.252   9.539  0.3553 -1.2996 -1.1848
  773MOL0     H 6619   5.226   8.544   9.576 -2.9651  1.2256  2.1970
  773MOL0     H 6620   5.375   8.471   9.647  0.6434 -1.1164 -1.3199
  773MOL0     H 6621   5.167   8.497   9.793  0.4318  1.6089 -1.8783
  773MOL0     H 6622   5.073   8.392   9.696 -0.2129 -1.7779  1.7364
  773MOL0     H 6623   5.315   8.375   9.983  0.2675 -1.7077  1.1378
  773MOL0     H 6624   5.480   8.149  10.071 -0.7496 -0.2119 -0.1727
  773MOL0     H 6625   5.386   8.000  10.075 -1.8193 -1.1085 -1.8596
  773MOL0     H 6626   5.282   8.275  10.188 -0.0414  0.1088  1.0535
  773MOL0     H 6627   5.194   8.119  10.185 -1.1959  1.3231 -1.7103
  773MOL0     H 6628   5.362   8.000  10.306 -1.8228  0.4216 -1.8975
  773MOL0     H 6629   5.464   8.155  10.319 -0.5922 -0.0024  0.7369
  773MOL0     H 6630   5.205   8.145  10.458  0.3180  0.0901  2.2649
  773MOL0     H 6631   5.347   8.066  10.522 -2.5166  2.1034  2.5982
  773MOL0     H 6632   5.175   8.192  10.679 -1.9042  1.0673  3.7783
  773MOL0     H 6633   5.055   8.331  10.968 -0.6078 -1.1982  0.5137
  773MOL0     H 6634   5.030   8.208  10.845 -0.7192  1.2077 -0.8261
  773MOL0     H 6635   4.940   8.373  10.844 -0.6758  0.0263  0.6449
  773MOL0     H 6636   5.102   8.436  11.173  1.5222  1.7524 -2.4564
  773MOL0     H 6637   5.027   8.478  11.418  3.7065 -2.3250 -2.4705
  773MOL0     H 6638   4.944   8.905  11.503 -0.1201  1.1221  0.7718
  773MOL0     H 6639   4.780   8.847  11.492 -0.9454 -1.4208  0.7265
  773MOL0     H 6640   4.776   8.744  11.706  0.1389  0.3554  1.3532
  773MOL0     H 6641   4.949   8.776  11.738  2.3389  0.6493 -2.7241
  773MOL0     H 6642   4.760   9.009  11.699 -0.3432  0.6702  0.7073
  773MOL0     H 6643   4.925   9.006  11.767  0.0679 -0.0491  2.9970
  773MOL0     H 6644   4.840   8.875  11.959  0.1021 -0.8974 -1.1337
  773MOL0     H 6645   4.681   8.860  11.882  1.1468 -0.5963  2.3046
  773MOL0     H 6646   4.836   9.119  11.949  3.1563 -4.4928 -0.3335
  773MOL0     H 6647   4.676   9.116  11.882 -0.9535 -0.5754  0.2415
  773MOL0     H 6648   4.748   9.031  12.168  0.0832 -0.9337  0.0179
  773MOL0     H 6649   4.590   9.005  12.091  2.1663 -1.7933 -0.5122
  773MOL0     H 6650   4.588   9.268  12.097 -1.1515 -1.4109 -0.2807
  773MOL0     H 6651   4.753   9.256  12.156 -1.4116  2.1496  0.3231
  773MOL0     H 6652   4.616   9.294  12.344  1.5063  0.1638  1.5439
  773MOL0     H 6653   4.641   9.117  12.356 -0.6751 -0.1297 -0.4096
  773MOL0     H 6654   4.924   8.878  11.297 -0.1092  0.3046 -1.4934
  773MOL0     H 6655   4.916   8.797  11.060 -1.6628 -2.0802 -0.4423
  773MOL0     H 6656   5.334   8.655  10.750  0.8664  0.8989 -0.2556
  773MOL0     H 6657   5.436   8.534  10.580 -0.5862  0.2807 -0.9138
  773MOL0     H 6658   5.210   8.557   8.778  1.7040 -1.4390  2.7939
  773MOL0     H 6659   5.233   8.566   8.522  1.5104 -3.3048 -0.7388
  773MOL0     H 6660   5.562   8.683   8.186 -0.0212  0.7606 -1.1685
  773MOL0     H 6661   5.680   8.666   7.977 -0.0987  1.6381  1.7541
  773MOL0     H 6662   5.692   8.349   7.733  1.6759  0.0824 -2.3174
  773MOL0     H 6663   5.621   8.489   7.794 -0.0657 -1.5019  1.2705
  773MOL0     H 6664   5.888   8.499   7.643  1.0066  0.3441  3.1088
  773MOL0     H 6665   5.824   8.634   7.730 -1.0407 -0.2293  2.9113
  773MOL0     H 6666   5.682   8.481   7.490  2.0612  0.8762 -1.5162
  773MOL0     H 6667   5.607   8.611   7.597  2.2557  2.4946  2.6384
  773MOL0     H 6668   5.787   8.758   7.538 -4.2219 -0.2828  0.7985
  773MOL0     H 6669   5.692   8.710   7.394  2.0327  0.0396 -2.4147
  773MOL0     H 6670   6.081   8.589   7.306  0.1389 -0.0186  0.2890
  773MOL0     H 6671   5.789   8.260   8.076  2.1633  0.8320  2.4046
  773MOL0     H 6672   5.608   8.203   8.389  0.4151 -3.7895  0.2761
  773MOL0     H 6673   5.737   8.138   8.285  0.7694  0.2687  1.2580
  773MOL0     H 6674   5.764   8.280   8.385  1.2922  1.6592 -2.6169
  774MOL0     O 6675  10.858   8.789   3.505  0.9624  0.0397 -0.3895
  774MOL0     C 6676  10.848   8.893   3.443  0.4395 -0.1033  0.9477
  774MOL0     O 6677  10.767   9.005   3.486  0.1837  0.7894 -0.2881
  774MOL0     C 6678  10.708   8.999   3.612 -0.1213  0.3287 -0.0875
  774MOL0     C 6679  10.618   8.898   3.662 -0.8236 -0.0357  0.2922
  774MOL0     C 6680  10.594   8.901   3.801  0.6943 -0.3478 -0.3397
  774MOL0     C 6681  10.640   9.008   3.881 -0.4555 -1.3939  0.1745
  774MOL0     O 6682  10.600   8.995   4.014  0.4705  0.0723  1.1850
  774MOL0     C 6683  10.684   9.046   4.111  0.9558 -0.4561  0.3197
  774MOL0     C 6684  10.588   9.082   4.227  0.4611 -0.5571 -0.2228
  774MOL0     C 6685  10.471   9.179   4.191  0.5388  0.0184 -0.0638
  774MOL0     C 6686  10.386   9.224   4.310 -0.1767  0.2870 -0.5417
  774MOL0     C 6687  10.448   9.306   4.434 -0.5894 -0.7034 -0.6217
  774MOL0     C 6688  10.451   9.456   4.403  0.2642 -0.9697  0.8125
  774MOL0     C 6689  10.561   9.541   4.470 -0.4560 -0.5072 -0.4245
  774MOL0     C 6690  10.692   9.512   4.397  0.1324  0.7746 -0.7434
  774MOL0     N 6691  10.797   9.592   4.461 -0.3833  0.9009 -0.4059
  774MOL0     C 6692  10.840   9.712   4.417  0.3040 -0.2173 -0.6579
  774MOL0     C 6693  10.948   9.741   4.494 -0.4688 -0.0337  0.1651
  774MOL0     C 6694  11.047   9.856   4.500  0.0062 -0.7400  0.1000
  774MOL0     C 6695  11.000   9.974   4.423 -0.5951 -0.2570 -0.5908
  774MOL0     C 6696  10.910  10.069   4.505 -0.2843 -0.0124  0.9882
  774MOL0     C 6697  10.772  10.017   4.531 -0.1324 -0.5936 -0.2758
  774MOL0     O 6698  10.693  10.123   4.591  0.3301  0.3798 -0.2008
  774MOL0     C 6699  10.554  10.111   4.585  0.2687 -0.2088  0.5821
  774MOL0     C 6700  10.490  10.000   4.541  0.1178  0.3062 -1.3444
  774MOL0     C 6701  10.352   9.983   4.553  0.0690  0.3218 -0.4016
  774MOL0     C 6702  10.283   9.852   4.531  0.1414  0.0746  0.2859
  774MOL0     C 6703  10.278  10.096   4.623 -0.1845  0.6584  1.1902
  774MOL0     C 6704  10.126  10.097   4.640 -0.1002  0.4469  0.2667
  774MOL0     O 6705  10.067  10.194   4.712 -0.2229 -0.0771  0.4059
  774MOL0     C 6706   9.945  10.172   4.761 -0.8472 -1.0085  0.5716
  774MOL0     C 6707   9.845  10.279   4.782 -0.0879  0.0814  0.1988
  774MOL0     C 6708   9.717  10.255   4.830 -0.2417 -0.6173 -0.3870
  774MOL0     C 6709   9.680  10.133   4.879 -0.1620 -0.4084 -0.3760
  774MOL0     O 6710   9.572  10.098   4.938  0.2581 -0.2565 -0.2476
  774MOL0     C 6711   9.489  10.204   4.988 -0.0672  0.1520  0.0338
  774MOL0     C 6712   9.364  10.158   5.061  0.2942 -0.0637 -0.3926
  774MOL0     C 6713   9.386  10.055   5.177  0.6541  0.2748 -0.4495
  774MOL0     C 6714   9.284  10.066   5.280  0.3861 -0.4130  0.7989
  774MOL0     C 6715   9.288   9.954   5.383  1.2618  0.7314  0.0341
  774MOL0     C 6716   9.234   9.818   5.352  0.4763 -0.7757  0.7051
  774MOL0     C 6717   9.083   9.832   5.307  0.6963  0.6104 -0.3349
  774MOL0     C 6718   8.998   9.719   5.254 -0.1478  0.2579 -0.5226
  774MOL0    Cl 6719   9.021   9.679   5.083 -0.2952  0.0834  0.0644
  774MOL0     C 6720   9.778  10.028   4.874 -0.1991  0.4687  0.7155
  774MOL0     C 6721   9.904  10.052   4.818  0.2201  0.1896  0.4215
  774MOL0     O 6722  10.067  10.009   4.574  0.2065 -0.5756  0.2027
  774MOL0     C 6723  10.341  10.203   4.670 -0.4426 -0.1194  0.0334
  774MOL0     C 6724  10.484  10.216   4.646 -0.6770  0.1223  0.0334
  774MOL0     N 6725  10.960   9.641   4.581 -0.2342 -0.2000 -0.6247
  774MOL0     N 6726  10.876   9.553   4.566  0.9327 -0.5270  0.3994
  774MOL0     C 6727  10.726   9.106   3.833  0.3762 -0.2743  0.6929
  774MOL0     C 6728  10.751   9.100   3.697  0.1341 -0.8070  0.1545
  774MOL0     C 6729  10.910   8.913   3.305 -0.5604  0.7344  0.0161
  774MOL0     C 6730  10.913   9.046   3.248 -0.3018  0.1913 -0.8753
  774MOL0     C 6731  10.973   9.069   3.120 -0.2184 -0.1185 -0.1028
  774MOL0     C 6732  11.016   8.961   3.042  0.0664 -0.2546 -0.0856
  774MOL0     O 6733  11.077   8.965   2.924  0.0422  0.3199 -0.2753
  774MOL0     C 6734  11.055   9.082   2.836 -0.0664 -0.2539 -0.1261
  774MOL0     C 6735  11.155   9.200   2.852 -1.1865 -0.5494  0.0400
  774MOL0     C 6736  11.255   9.201   2.741  0.4070 -0.7909  0.8040
  774MOL0     C 6737  11.340   9.071   2.744 -0.0322  0.4598  0.3447
  774MOL0     C 6738  11.321   8.999   2.614 -0.8689 -0.7961  0.7174
  774MOL0     C 6739  11.291   8.974   2.498 -0.5566 -0.0153 -0.5708
  774MOL0     C 6740  11.009   8.835   3.096 -0.1483 -0.1370  0.0211
  774MOL0     C 6741  10.954   8.807   3.219 -0.0552 -1.0166 -0.0708
  774MOL0     C 6742  10.949   8.660   3.255 -0.3020  0.2684  0.0379
  774MOL0     H 6743  10.580   8.825   3.591  1.0864 -0.2522 -0.5920
  774MOL0     H 6744  10.541   8.824   3.855  1.9284  0.1987  1.7471
  774MOL0     H 6745  10.724   9.144   4.082  0.9798 -0.2149  1.1593
  774MOL0     H 6746  10.767   8.985   4.148  0.1649 -2.6519 -1.3264
  774MOL0     H 6747  10.563   8.982   4.263 -0.8831 -0.5711 -1.1330
  774MOL0     H 6748  10.654   9.141   4.292  1.1070 -1.6280  0.1164
  774MOL0     H 6749  10.524   9.263   4.145  1.2694 -0.2051  0.3556
  774MOL0     H 6750  10.407   9.132   4.116 -3.7955  1.9764  2.0280
  774MOL0     H 6751  10.309   9.289   4.267 -0.9946 -0.3181  0.0056
  774MOL0     H 6752  10.339   9.136   4.353  3.3435 -1.2459  0.5129
  774MOL0     H 6753  10.545   9.260   4.454 -1.5693 -2.7059 -0.2774
  774MOL0     H 6754  10.389   9.294   4.525  2.9674  2.0070  2.3422
  774MOL0     H 6755  10.465   9.462   4.294  1.4643 -2.8981  0.8260
  774MOL0     H 6756  10.353   9.505   4.409 -0.5511 -1.8789 -2.7963
  774MOL0     H 6757  10.573   9.513   4.575  4.3927 -0.6417 -0.8097
  774MOL0     H 6758  10.555   9.649   4.450  0.9002 -0.1744  0.8037
  774MOL0     H 6759  10.722   9.407   4.399  1.2280  1.0420  2.0504
  774MOL0     H 6760  10.683   9.536   4.291  2.6118  4.8194 -0.2744
  774MOL0     H 6761  10.801   9.775   4.338  0.9102  0.8342 -0.1371
  774MOL0     H 6762  11.148   9.828   4.469 -0.3185 -0.5873 -1.1825
  774MOL0     H 6763  11.057   9.886   4.604  1.9865 -1.5861  0.2077
  774MOL0     H 6764  11.084  10.038   4.394 -1.5373  1.3225 -0.0061
  774MOL0     H 6765  10.951   9.949   4.329 -2.9659 -2.4441  1.0682
  774MOL0     H 6766  10.959  10.100   4.598  3.0727 -2.7080  0.3027
  774MOL0     H 6767  10.885  10.163   4.456 -0.0412  0.9480  2.6055
  774MOL0     H 6768  10.740  10.001   4.428  0.4687  0.2797 -0.6115
  774MOL0     H 6769  10.771   9.926   4.592  1.5356 -0.9541 -0.7229
  774MOL0     H 6770  10.549   9.919   4.499 -1.1771  0.1750 -3.0150
  774MOL0     H 6771  10.200   9.875   4.463 -1.0609  0.5552  1.8521
  774MOL0     H 6772  10.252   9.810   4.627  0.6151 -2.4054 -0.5757
  774MOL0     H 6773  10.352   9.778   4.490 -0.8783 -0.0519 -1.3003
  774MOL0     H 6774   9.873  10.373   4.735  0.0551 -0.8897 -1.7878
  774MOL0     H 6775   9.660  10.347   4.838  1.8974  0.8639 -1.4511
  774MOL0     H 6776   9.536  10.269   5.063  0.4917  0.3728 -0.4988
  774MOL0     H 6777   9.456  10.259   4.899  1.4246  0.4191 -0.3749
  774MOL0     H 6778   9.318  10.253   5.091  0.2666  0.2057 -1.2314
  774MOL0     H 6779   9.293  10.110   4.993  0.1687 -3.1291  1.7156
  774MOL0     H 6780   9.482  10.072   5.228  0.2728  0.6791  0.1441
  774MOL0     H 6781   9.365   9.954   5.140 -0.2326 -0.4797  1.9293
  774MOL0     H 6782   9.194  10.062   5.218  1.0622 -3.3813 -0.1534
  774MOL0     H 6783   9.288  10.163   5.329 -3.7466 -1.5709  3.9672
  774MOL0     H 6784   9.395   9.941   5.405  1.9305 -1.3690 -3.5714
  774MOL0     H 6785   9.235   9.980   5.475 -2.0699 -1.0350 -1.2342
  774MOL0     H 6786   9.243   9.744   5.433  0.6612 -3.3913 -1.5420
  774MOL0     H 6787   9.301   9.785   5.271 -0.0880 -0.3546  0.0543
  774MOL0     H 6788   9.076   9.907   5.228 -1.4760  1.0207  0.2054
  774MOL0     H 6789   9.026   9.874   5.390  0.1541 -1.0900  0.1987
  774MOL0     H 6790   8.897   9.755   5.275  0.7333  1.9051  1.2402
  774MOL0     H 6791   9.019   9.629   5.313 -0.4441 -0.6813 -1.8128
  774MOL0     H 6792   9.756   9.931   4.918  1.1994 -0.4949 -0.5894
  774MOL0     H 6793   9.981   9.976   4.810 -0.9749 -0.9051 -1.3458
  774MOL0     H 6794  10.304  10.294   4.717  1.8908  0.8889  0.0941
  774MOL0     H 6795  10.533  10.313   4.652  0.1372 -0.0542 -2.4557
  774MOL0     H 6796  10.780   9.181   3.890 -1.4518 -0.1620  2.3887
  774MOL0     H 6797  10.837   9.158   3.664  1.3855 -2.8922 -0.4304
  774MOL0     H 6798  10.883   9.128   3.311 -0.3008  0.6693 -1.4869
  774MOL0     H 6799  10.983   9.170   3.080 -2.0487  0.1178 -0.0154
  774MOL0     H 6800  11.059   9.032   2.739  0.4856  2.1484 -1.4335
  774MOL0     H 6801  10.954   9.123   2.849  0.2163 -0.3536  3.2405
  774MOL0     H 6802  11.196   9.210   2.953 -0.4649  0.7213 -0.3559
  774MOL0     H 6803  11.091   9.287   2.835 -1.3762 -0.5596  0.6735
  774MOL0     H 6804  11.210   9.223   2.644 -1.1124 -3.8012  0.7197
  774MOL0     H 6805  11.321   9.284   2.769 -1.0121 -0.0372  2.1374
  774MOL0     H 6806  11.297   9.007   2.821  1.3596  0.1615  0.9067
  774MOL0     H 6807  11.447   9.079   2.764 -0.0399 -1.8393  1.6035
  774MOL0     H 6808  11.276   8.941   2.397 -1.7556  0.9190 -0.7179
  774MOL0     H 6809  11.029   8.754   3.026 -0.3417  0.8143 -1.1696
  774MOL0     H 6810  11.000   8.644   3.350 -0.8699  2.1535  0.7137
  774MOL0     H 6811  10.844   8.634   3.271 -0.5277  0.9134 -0.3415
  774MOL0     H 6812  10.962   8.587   3.175 -0.2454  0.2237  0.0877
  775MOL0     O 6813   0.790   5.554   4.962  0.2913  0.0640  0.3498
  775MOL0     C 6814   0.886   5.528   4.887  0.1097 -0.8203 -0.6379
  775MOL0     O 6815   0.883   5.542   4.752  0.0003  0.5425  0.2431
  775MOL0     C 6816   0.769   5.591   4.675 -0.4228 -1.0456 -0.7771
  775MOL0     C 6817   0.648   5.644   4.726  0.0599  0.2823 -0.4125
  775MOL0     C 6818   0.542   5.666   4.635  0.1285 -0.7967 -0.0919
  775MOL0     C 6819   0.554   5.654   4.497  0.6007  0.0334  0.5498
  775MOL0     O 6820   0.453   5.649   4.408  0.6596  0.3909  0.3212
  775MOL0     C 6821   0.318   5.635   4.443 -0.1903  0.1860  0.3027
  775MOL0     C 6822   0.236   5.616   4.329  0.5801  0.2279 -0.3021
  775MOL0     C 6823   0.259   5.732   4.231  0.0643 -0.0771  0.6471
  775MOL0     C 6824   0.153   5.729   4.137 -1.0191 -0.1641  0.6898
  775MOL0     C 6825   0.140   5.864   4.051 -1.1875  0.0771 -0.5296
  775MOL0     C 6826   0.227   5.865   3.921 -0.2378  0.9993 -0.0538
  775MOL0     C 6827   0.215   5.996   3.853  0.6816  0.6315  0.4610
  775MOL0     C 6828   0.316   5.997   3.737 -0.1971  0.9254  0.0294
  775MOL0     N 6829   0.329   6.134   3.678 -1.1275  0.3462 -0.3789
  775MOL0     C 6830   0.413   6.235   3.724  0.0963  1.4117  0.4967
  775MOL0     C 6831   0.391   6.338   3.635  0.2189 -0.0205 -0.0482
  775MOL0     C 6832   0.464   6.469   3.633  0.9024  0.3904  0.2654
  775MOL0     C 6833   0.354   6.577   3.639  0.5532 -1.1254  0.4835
  775MOL0     C 6834   0.441   6.705   3.651  0.3528 -0.2514 -1.4930
  775MOL0     C 6835   0.358   6.837   3.632  0.3657 -0.6582 -0.3318
  775MOL0     O 6836   0.443   6.952   3.657 -0.9423 -0.3766 -0.2010
  775MOL0     C 6837   0.368   7.063   3.674 -0.5764 -0.5441  0.2156
  775MOL0     C 6838   0.405   7.135   3.786 -0.2942  0.5629 -0.0345
  775MOL0     C 6839   0.362   7.264   3.817  1.6006  0.5524 -0.3673
  775MOL0     C 6840   0.437   7.338   3.932 -0.0041  0.4487  0.4384
  775MOL0     C 6841   0.258   7.325   3.733 -0.1413  0.1684 -0.4392
  775MOL0     C 6842   0.200   7.463   3.757  0.0502  0.6914  0.9008
  775MOL0     O 6843   0.140   7.515   3.644 -0.5664  0.1115  0.1027
  775MOL0     C 6844   0.101   7.650   3.634 -0.8437 -0.1728 -1.1907
  775MOL0     C 6845   0.020   7.681   3.524  0.2415  0.1607  1.0321
  775MOL0     C 6846  -0.027   7.810   3.497 -0.0931 -0.0688  0.1646
  775MOL0     C 6847   0.025   7.921   3.560 -0.2135  1.2701 -0.4072
  775MOL0     O 6848   0.014   8.058   3.528 -0.2540  0.1417  0.3199
  775MOL0     C 6849  -0.040   8.087   3.394 -0.2575  0.7249 -0.9534
  775MOL0     C 6850  -0.025   8.233   3.373 -0.0450  0.0774  0.3503
  775MOL0     C 6851   0.121   8.289   3.387  1.2206  0.5183 -0.4910
  775MOL0     C 6852   0.213   8.241   3.281 -0.7943 -0.6221 -0.0683
  775MOL0     C 6853   0.353   8.308   3.283  0.0350 -0.4601 -1.1767
  775MOL0     C 6854   0.372   8.441   3.210 -0.5988 -0.6456  0.3520
  775MOL0     C 6855   0.498   8.513   3.257  0.8207 -0.4822  0.6593
  775MOL0     C 6856   0.528   8.644   3.186  0.8011 -0.6149  0.0420
  775MOL0    Cl 6857   0.562   8.624   3.003  0.3526  0.2186  0.0280
  775MOL0     C 6858   0.110   7.896   3.672  0.5431 -0.6277  0.5806
  775MOL0     C 6859   0.136   7.764   3.711 -0.2903 -0.9075 -0.3337
  775MOL0     O 6860   0.214   7.515   3.866 -0.1189  0.2259 -0.1983
  775MOL0     C 6861   0.216   7.246   3.614 -0.8822 -0.6058 -0.9367
  775MOL0     C 6862   0.267   7.111   3.585  0.2721 -0.8085 -0.3387
  775MOL0     N 6863   0.299   6.296   3.541 -0.5159  0.6582  1.0286
  775MOL0     N 6864   0.273   6.172   3.565 -0.1219 -0.0169 -0.1204
  775MOL0     C 6865   0.680   5.621   4.443  0.2344  0.1504  0.0517
  775MOL0     C 6866   0.784   5.587   4.534 -0.3167  0.6159 -0.0830
  775MOL0     C 6867   1.007   5.493   4.960  0.1089 -0.2828  0.1788
  775MOL0     C 6868   1.006   5.469   5.098  0.5277 -0.0677  1.1006
  775MOL0     C 6869   1.120   5.452   5.171  0.2917 -0.1029 -0.3280
  775MOL0     C 6870   1.247   5.455   5.119 -0.4896 -0.4288 -0.1980
  775MOL0     O 6871   1.367   5.446   5.180 -0.4310 -0.5191  0.2657
  775MOL0     C 6872   1.363   5.403   5.311 -0.0649  0.9115  0.6082
  775MOL0     C 6873   1.499   5.333   5.336  0.2501 -1.1254 -0.8874
  775MOL0     C 6874   1.487   5.228   5.453 -1.5039 -0.7727 -0.8460
  775MOL0     C 6875   1.624   5.200   5.529  0.8168 -0.7379  0.3723
  775MOL0     C 6876   1.702   5.321   5.553  0.3650 -0.0020  0.4150
  775MOL0     C 6877   1.737   5.429   5.597  0.4637 -0.2194  0.0126
  775MOL0     C 6878   1.253   5.497   4.983 -0.2282  1.1765 -0.6480
  775MOL0     C 6879   1.138   5.503   4.905 -0.3848  0.3581  0.4149
  775MOL0     C 6880   1.165   5.520   4.754 -0.6321  0.4514 -0.1747
  775MOL0     H 6881   0.629   5.663   4.832  0.1148 -1.4868 -0.0584
  775MOL0     H 6882   0.442   5.682   4.675  0.2020 -4.1358  1.7599
  775MOL0     H 6883   0.277   5.721   4.496 -1.7440 -0.8289  0.8189
  775MOL0     H 6884   0.298   5.550   4.509  1.3085  2.0129  3.3455
  775MOL0     H 6885   0.271   5.519   4.293  0.3429 -1.0408  2.6030
  775MOL0     H 6886   0.133   5.613   4.367  0.7247 -0.1303  0.0597
  775MOL0     H 6887   0.261   5.828   4.282 -0.7205 -0.5348  1.5883
  775MOL0     H 6888   0.359   5.728   4.188  0.6527  3.3933  1.4327
  775MOL0     H 6889   0.166   5.643   4.071 -0.9398  0.0309  0.4525
  775MOL0     H 6890   0.054   5.731   4.184 -2.8434 -1.9019 -2.7255
  775MOL0     H 6891   0.164   5.945   4.121 -0.1044 -0.8595  0.2252
  775MOL0     H 6892   0.036   5.883   4.023 -2.4540  1.3086  4.1305
  775MOL0     H 6893   0.332   5.859   3.950 -0.3750 -0.4925  0.2248
  775MOL0     H 6894   0.211   5.793   3.840 -1.2978  2.1589 -0.9145
  775MOL0     H 6895   0.221   6.071   3.932 -1.7791 -0.7494  2.0845
  775MOL0     H 6896   0.124   6.010   3.794  0.2285  3.7290  1.7215
  775MOL0     H 6897   0.415   5.983   3.780  0.3215  2.1361 -0.7085
  775MOL0     H 6898   0.296   5.932   3.652  1.9489  1.4451 -0.9482
  775MOL0     H 6899   0.474   6.243   3.812  1.9754  2.5864 -0.8433
  775MOL0     H 6900   0.516   6.474   3.536 -1.6646  1.0873 -1.1571
  775MOL0     H 6901   0.538   6.477   3.714  2.4808 -2.1414 -0.8105
  775MOL0     H 6902   0.287   6.573   3.552  0.1551  2.4481  0.4394
  775MOL0     H 6903   0.300   6.570   3.734 -0.8260  0.2592 -0.1378
  775MOL0     H 6904   0.465   6.722   3.756 -0.6391  0.2325 -1.3326
  775MOL0     H 6905   0.530   6.712   3.587  2.1338  1.1862  0.9736
  775MOL0     H 6906   0.332   6.851   3.526 -1.2369  2.1271  0.3320
  775MOL0     H 6907   0.267   6.855   3.690 -0.6295  1.0024 -2.2516
  775MOL0     H 6908   0.476   7.091   3.855  2.4474  3.4540 -0.8219
  775MOL0     H 6909   0.518   7.273   3.964  0.3949 -0.6573 -2.5097
  775MOL0     H 6910   0.376   7.356   4.021  0.8468 -1.6025  1.4890
  775MOL0     H 6911   0.479   7.428   3.886 -2.3013  0.9621 -0.8176
  775MOL0     H 6912  -0.003   7.592   3.466 -0.7140  2.2608 -2.0536
  775MOL0     H 6913  -0.104   7.817   3.421 -2.3452 -0.9688  2.2355
  775MOL0     H 6914   0.019   8.039   3.316 -0.0157 -0.5828 -0.0019
  775MOL0     H 6915  -0.140   8.052   3.367  0.3257  0.2082 -2.5784
  775MOL0     H 6916  -0.063   8.265   3.275 -3.8307 -0.5447  1.4399
  775MOL0     H 6917  -0.093   8.285   3.442  1.7317  0.0973  2.1574
  775MOL0     H 6918   0.156   8.271   3.489  1.9807  0.2940 -0.7830
  775MOL0     H 6919   0.111   8.398   3.380  0.8204  0.4736 -0.5846
  775MOL0     H 6920   0.167   8.258   3.183  0.4286 -0.6121 -0.6545
  775MOL0     H 6921   0.231   8.135   3.301  0.6190 -0.0595  1.9548
  775MOL0     H 6922   0.354   8.340   3.387 -2.7545 -1.2631 -0.8080
  775MOL0     H 6923   0.426   8.231   3.258 -1.4051 -2.3270  0.0637
  775MOL0     H 6924   0.284   8.504   3.224  0.5516  0.6990  1.7629
  775MOL0     H 6925   0.369   8.421   3.102 -0.7519 -1.3660  0.4810
  775MOL0     H 6926   0.589   8.453   3.249  1.0933  0.1536 -1.5008
  775MOL0     H 6927   0.478   8.539   3.361 -0.3826  1.0858  0.0694
  775MOL0     H 6928   0.614   8.688   3.237  1.5153 -1.3847 -0.4798
  775MOL0     H 6929   0.450   8.721   3.186  1.2504 -0.1317 -1.2409
  775MOL0     H 6930   0.154   7.978   3.728 -0.4764  1.3868 -1.3856
  775MOL0     H 6931   0.189   7.746   3.804  0.0943 -0.4722 -0.4593
  775MOL0     H 6932   0.139   7.289   3.552 -0.3172 -1.6651 -2.4349
  775MOL0     H 6933   0.231   7.063   3.495 -0.9784  1.1003 -0.9216
  775MOL0     H 6934   0.694   5.610   4.336  0.9216  0.2986  0.1246
  775MOL0     H 6935   0.882   5.563   4.495  0.6951  1.1622  1.9762
  775MOL0     H 6936   0.917   5.485   5.158  0.5459  0.7335  0.9190
  775MOL0     H 6937   1.099   5.440   5.277 -2.8057  0.6044 -0.7558
  775MOL0     H 6938   1.349   5.500   5.359  0.1173  2.9445 -3.1193
  775MOL0     H 6939   1.285   5.329   5.331  1.8893 -2.3283 -2.5441
  775MOL0     H 6940   1.573   5.412   5.346 -0.8199  0.0275 -1.7475
  775MOL0     H 6941   1.534   5.283   5.245  0.7902 -0.5477 -0.9964
  775MOL0     H 6942   1.406   5.257   5.520 -1.8038  1.8968 -2.1899
  775MOL0     H 6943   1.458   5.133   5.408 -0.2691 -2.2305  1.2560
  775MOL0     H 6944   1.677   5.129   5.465 -3.9119 -1.9883 -2.6272
  775MOL0     H 6945   1.598   5.157   5.627 -0.9985 -1.4080 -0.3579
  775MOL0     H 6946   1.773   5.529   5.614 -2.2640  1.0089 -0.7911
  775MOL0     H 6947   1.347   5.505   4.929 -1.0749  0.8178 -2.2471
  775MOL0     H 6948   1.086   5.484   4.688 -2.2459  1.3813  1.1836
  775MOL0     H 6949   1.191   5.621   4.720  0.4191  0.7745  1.4577
  775MOL0     H 6950   1.258   5.466   4.735  1.5903  4.0471 -0.4026
  776MOL0     O 6951   7.395   1.595   8.682  0.5506  0.1069  0.3753
  776MOL0     C 6952   7.516   1.581   8.705  0.5046  0.3077  0.3097
  776MOL0     O 6953   7.575   1.463   8.670 -0.3684  0.1937 -0.0695
  776MOL0     C 6954   7.513   1.372   8.586 -0.0602  0.1041 -0.9726
  776MOL0     C 6955   7.507   1.242   8.635  0.8741 -0.5904 -0.0904
  776MOL0     C 6956   7.453   1.150   8.552 -0.4340  0.3510 -0.5551
  776MOL0     C 6957   7.391   1.176   8.435  0.7519 -0.0432  1.4863
  776MOL0     O 6958   7.346   1.064   8.358  0.6582 -0.2634 -0.8531
  776MOL0     C 6959   7.247   1.091   8.259  0.6468  1.0483 -0.5847
  776MOL0     C 6960   7.206   0.970   8.187 -0.2177  1.1622 -1.5289
  776MOL0     C 6961   7.111   1.022   8.080 -1.0130 -0.5966  0.4833
  776MOL0     C 6962   7.039   0.901   8.019 -1.1374  0.3101  0.1123
  776MOL0     C 6963   6.944   0.944   7.898 -0.7931 -0.1525 -0.4798
  776MOL0     C 6964   6.888   0.820   7.811 -1.1894 -0.4119 -1.1593
  776MOL0     C 6965   6.796   0.873   7.705  0.4821  0.2162 -0.2746
  776MOL0     C 6966   6.761   0.766   7.602 -0.0885 -0.1857  0.2279
  776MOL0     N 6967   6.642   0.686   7.618 -0.5593 -0.4578 -0.4985
  776MOL0     C 6968   6.621   0.603   7.724 -0.0310  0.6330  0.4074
  776MOL0     C 6969   6.512   0.523   7.683 -0.1078  0.8027  0.2783
  776MOL0     C 6970   6.446   0.414   7.765  0.0696  0.1830 -0.0066
  776MOL0     C 6971   6.429   0.284   7.689 -0.0168  0.0388  0.2052
  776MOL0     C 6972   6.568   0.212   7.668  0.7871 -0.0859 -0.5533
  776MOL0     C 6973   6.653   0.265   7.554  0.3060  0.8860 -0.1135
  776MOL0     O 6974   6.786   0.213   7.535 -0.0037  0.2945 -0.2876
  776MOL0     C 6975   6.867   0.281   7.450 -0.0365 -0.2956 -0.1353
  776MOL0     C 6976   7.005   0.248   7.459  0.8337 -0.4700  0.2531
  776MOL0     C 6977   7.101   0.301   7.373  0.6467  0.5692 -0.3659
  776MOL0     C 6978   7.250   0.281   7.414  0.3307  0.0340 -0.1890
  776MOL0     C 6979   7.069   0.382   7.263  0.2737  0.5905 -0.1301
  776MOL0     C 6980   7.156   0.442   7.164  0.3446 -0.2131 -0.1237
  776MOL0     O 6981   7.105   0.554   7.095  0.4406 -0.9022  0.3195
  776MOL0     C 6982   7.175   0.607   6.991 -0.5409 -1.0217  0.7532
  776MOL0     C 6983   7.166   0.557   6.865  0.8486  0.2792  0.2315
  776MOL0     C 6984   7.247   0.602   6.757  0.9234  0.3817  0.4700
  776MOL0     C 6985   7.323   0.713   6.782 -0.7690  0.2112  0.6473
  776MOL0     O 6986   7.401   0.773   6.680 -0.1153 -0.3742  0.7602
  776MOL0     C 6987   7.329   0.857   6.578 -0.4238 -0.4736 -0.3032
  776MOL0     C 6988   7.265   0.985   6.622  1.1219 -0.2647  0.9078
  776MOL0     C 6989   7.175   1.046   6.507 -0.3209 -0.4810 -0.1183
  776MOL0     C 6990   7.139   1.197   6.535  0.0309 -1.0806 -0.8252
  776MOL0     C 6991   7.048   1.238   6.417 -0.0125  0.4279 -0.2507
  776MOL0     C 6992   7.057   1.382   6.385  0.3403  1.0615 -0.0694
  776MOL0     C 6993   7.004   1.402   6.247  1.0138 -0.2148  0.1792
  776MOL0     C 6994   6.875   1.475   6.222 -1.1224 -0.7007 -0.0429
  776MOL0    Cl 6995   6.908   1.650   6.271  0.5259 -0.2712  0.0814
  776MOL0     C 6996   7.336   0.765   6.907 -0.8511  0.7385  0.6073
  776MOL0     C 6997   7.253   0.714   7.015 -0.8847  0.5073  0.7236
  776MOL0     O 6998   7.262   0.385   7.132  0.2138  0.3120 -0.0828
  776MOL0     C 6999   6.935   0.428   7.266  0.3844  0.2828  0.7748
  776MOL0     C 7000   6.836   0.382   7.356  0.8851  0.9765  0.3049
  776MOL0     N 7001   6.474   0.556   7.555  0.0568 -0.5078  1.0788
  776MOL0     N 7002   6.549   0.665   7.520  0.1373  0.7068  0.1130
  776MOL0     C 7003   7.392   1.304   8.390 -0.2559 -0.1884  0.3315
  776MOL0     C 7004   7.460   1.401   8.462 -0.0147 -0.2702  0.3322
  776MOL0     C 7005   7.602   1.682   8.779  0.0642  0.0976  0.4530
  776MOL0     C 7006   7.711   1.635   8.845 -0.4594  1.1342 -0.4077
  776MOL0     C 7007   7.806   1.729   8.898  1.1163 -0.2753  0.5770
  776MOL0     C 7008   7.783   1.871   8.885 -0.2909 -0.4365 -0.2781
  776MOL0     O 7009   7.866   1.963   8.945 -0.4047  0.1811  0.3577
  776MOL0     C 7010   7.968   1.907   9.036 -0.5044  0.2749 -0.2471
  776MOL0     C 7011   8.063   2.012   9.097 -0.3231  0.2602  0.8305
  776MOL0     C 7012   8.010   2.098   9.209  0.4958  0.0036  0.0925
  776MOL0     C 7013   8.104   2.215   9.225  0.2722  0.6975 -1.2829
  776MOL0     C 7014   8.244   2.178   9.223  0.1377 -0.6586  0.4385
  776MOL0     C 7015   8.357   2.143   9.213 -0.3618  0.1499  0.1196
  776MOL0     C 7016   7.684   1.913   8.797 -0.0803 -0.0026  0.3145
  776MOL0     C 7017   7.585   1.815   8.751 -0.6340 -0.1141  0.1437
  776MOL0     C 7018   7.462   1.866   8.677  0.1475 -1.0049 -0.1803
  776MOL0     H 7019   7.549   1.228   8.733 -0.2731 -0.4813  0.4355
  776MOL0     H 7020   7.450   1.049   8.591  3.5676 -0.4082 -1.7635
  776MOL0     H 7021   7.276   1.160   8.180  0.9175  3.4425  1.4720
  776MOL0     H 7022   7.168   1.140   8.316  0.2103  2.4241 -2.2941
  776MOL0     H 7023   7.289   0.913   8.145  0.4567  1.5522 -0.7577
  776MOL0     H 7024   7.146   0.905   8.252  1.8431  1.8074  1.2358
  776MOL0     H 7025   7.036   1.094   8.114 -1.8455 -1.4888  0.5627
  776MOL0     H 7026   7.163   1.078   8.001 -1.7864  0.4293  0.6837
  776MOL0     H 7027   7.112   0.833   7.975 -1.9034  1.3187 -2.9682
  776MOL0     H 7028   6.989   0.848   8.102  0.5254  1.3596  1.8582
  776MOL0     H 7029   6.996   1.009   7.827 -0.6083  3.2016  2.4780
  776MOL0     H 7030   6.861   1.001   7.940  1.0119  3.2466 -1.1946
  776MOL0     H 7031   6.963   0.755   7.765 -1.0944 -0.4960 -0.8860
  776MOL0     H 7032   6.830   0.759   7.881  0.4949  0.5841  1.2361
  776MOL0     H 7033   6.834   0.966   7.662 -2.2287  1.1802 -0.7518
  776MOL0     H 7034   6.702   0.903   7.753  0.4710  1.4471 -1.0330
  776MOL0     H 7035   6.747   0.808   7.502 -1.3696 -1.3934 -0.1329
  776MOL0     H 7036   6.839   0.690   7.589 -1.4921 -1.4776 -1.0368
  776MOL0     H 7037   6.677   0.595   7.817 -0.2235  1.3152  0.5880
  776MOL0     H 7038   6.350   0.461   7.791 -1.4233 -0.6694 -3.3546
  776MOL0     H 7039   6.509   0.400   7.853  0.6974 -0.2657 -0.5200
  776MOL0     H 7040   6.368   0.216   7.751 -2.2448  1.5620 -0.2007
  776MOL0     H 7041   6.380   0.281   7.591 -0.5735 -1.0526  0.4978
  776MOL0     H 7042   6.626   0.241   7.755  0.0791  0.8252 -0.3768
  776MOL0     H 7043   6.568   0.102   7.670  2.1191 -0.0960  1.5525
  776MOL0     H 7044   6.607   0.257   7.456  2.7263  0.0941 -1.2520
  776MOL0     H 7045   6.667   0.372   7.573 -0.0702  0.8913  0.1490
  776MOL0     H 7046   7.045   0.183   7.536  0.1250 -1.9881 -0.6071
  776MOL0     H 7047   7.315   0.346   7.356  1.2948  0.4803  1.3211
  776MOL0     H 7048   7.284   0.178   7.397  1.9473  0.1557  1.9202
  776MOL0     H 7049   7.260   0.314   7.518 -2.0891 -0.2728  0.2192
  776MOL0     H 7050   7.102   0.469   6.866  0.0274  0.8328  2.4477
  776MOL0     H 7051   7.241   0.555   6.659  1.5383 -0.3697  0.7781
  776MOL0     H 7052   7.399   0.864   6.493  0.9532 -1.1937  0.7167
  776MOL0     H 7053   7.242   0.803   6.541  0.2697 -1.5897 -0.3679
  776MOL0     H 7054   7.188   0.980   6.699  0.8183 -1.3509  0.5437
  776MOL0     H 7055   7.347   1.045   6.663 -0.8845  4.2161 -0.9467
  776MOL0     H 7056   7.079   0.999   6.488  0.5789 -1.5718 -2.3332
  776MOL0     H 7057   7.239   1.050   6.417 -0.4433  1.4931 -0.1657
  776MOL0     H 7058   7.231   1.256   6.539 -0.8140  0.2113  1.4389
  776MOL0     H 7059   7.085   1.209   6.629 -0.4636 -0.9319 -1.1249
  776MOL0     H 7060   7.096   1.190   6.331 -0.3091 -4.7795  2.1069
  776MOL0     H 7061   6.945   1.202   6.428  0.2149  0.4782  3.0274
  776MOL0     H 7062   7.160   1.416   6.400  0.8793 -1.2649  2.2691
  776MOL0     H 7063   7.003   1.444   6.457 -1.4598 -0.6136  0.1017
  776MOL0     H 7064   6.985   1.307   6.196  2.2197  0.8184 -2.3542
  776MOL0     H 7065   7.083   1.454   6.192  3.2186  2.0208  4.8529
  776MOL0     H 7066   6.803   1.428   6.289 -1.6103 -0.3556 -0.3175
  776MOL0     H 7067   6.845   1.468   6.117  1.1524  1.0449 -0.9034
  776MOL0     H 7068   7.407   0.847   6.900 -1.5053  1.1688 -1.9952
  776MOL0     H 7069   7.255   0.761   7.113 -0.9435  2.7517 -0.2679
  776MOL0     H 7070   6.912   0.508   7.196  2.4377  2.2507  2.2028
  776MOL0     H 7071   6.735   0.420   7.358 -0.8681 -3.1628  2.0531
  776MOL0     H 7072   7.332   1.326   8.303 -2.3895 -2.7301  1.0415
  776MOL0     H 7073   7.464   1.505   8.431  0.9932  0.4558  2.6309
  776MOL0     H 7074   7.721   1.528   8.860 -0.8429  1.0636 -0.6483
  776MOL0     H 7075   7.886   1.694   8.962 -0.3981  0.8162  3.2057
  776MOL0     H 7076   7.923   1.856   9.122 -2.8530  0.7663 -1.0974
  776MOL0     H 7077   8.025   1.840   8.972 -2.0454  1.2202 -2.7771
  776MOL0     H 7078   8.107   2.073   9.017  1.8414 -0.1375  1.6330
  776MOL0     H 7079   8.142   1.949   9.139 -2.1365 -1.7968  1.3715
  776MOL0     H 7080   7.909   2.138   9.197  0.4980 -0.0157  0.0011
  776MOL0     H 7081   8.001   2.044   9.303  0.7144  3.4424  2.2495
  776MOL0     H 7082   8.078   2.262   9.321  1.2924 -1.3105  0.0613
  776MOL0     H 7083   8.086   2.290   9.148 -0.0568  0.1211 -1.7691
  776MOL0     H 7084   8.455   2.107   9.192 -1.9780 -3.2128 -2.7373
  776MOL0     H 7085   7.658   2.019   8.794  0.0556  0.0120 -0.3324
  776MOL0     H 7086   7.468   1.975   8.671  2.6931 -0.9273  1.9692
  776MOL0     H 7087   7.462   1.822   8.577  1.5922  1.3783 -1.3023
  776MOL0     H 7088   7.368   1.832   8.721 -0.3691  0.9886  0.3449
  777MOL0     O 7089   6.526   9.727  10.436 -0.5286 -0.0958 -0.2198
  777MOL0     C 7090   6.488   9.811  10.526 -1.1528  0.3888 -0.0873
  777MOL0     O 7091   6.363   9.824  10.582  0.3518 -0.0870  0.7322
  777MOL0     C 7092   6.265   9.746  10.519 -0.1166 -0.2463  0.3087
  777MOL0     C 7093   6.142   9.812  10.493 -0.5072  0.2376  0.5339
  777MOL0     C 7094   6.033   9.734  10.459  0.3189 -0.4151  0.5025
  777MOL0     C 7095   6.044   9.600  10.439  0.7256 -0.3711  0.2582
  777MOL0     O 7096   5.941   9.525  10.386  0.6415  0.2736  0.6747
  777MOL0     C 7097   5.835   9.586  10.307 -0.9232  0.2087 -0.1785
  777MOL0     C 7098   5.748   9.482  10.232 -0.8864  0.7510  0.0945
  777MOL0     C 7099   5.642   9.568  10.166  0.8033 -0.2929  0.4576
  777MOL0     C 7100   5.574   9.472  10.073 -0.2173 -0.0094  0.0484
  777MOL0     C 7101   5.460   9.546  10.002 -0.2287 -0.1223 -0.4276
  777MOL0     C 7102   5.415   9.461   9.880  0.1518 -0.9032  0.0900
  777MOL0     C 7103   5.337   9.524   9.769  0.9237  0.3083  0.1964
  777MOL0     C 7104   5.426   9.582   9.664 -0.1126  0.8837 -1.0561
  777MOL0     N 7105   5.381   9.696   9.592 -0.1853  0.4389 -0.7602
  777MOL0     C 7106   5.438   9.758   9.483 -0.5249  0.3001  0.5312
  777MOL0     C 7107   5.348   9.853   9.448 -0.8442 -0.3252  0.7627
  777MOL0     C 7108   5.362   9.963   9.343  0.1163  0.3011  0.4765
  777MOL0     C 7109   5.438   9.935   9.221  0.1105 -0.5940  0.2350
  777MOL0     C 7110   5.384   9.817   9.140 -1.0604  0.1796 -0.0642
  777MOL0     C 7111   5.254   9.843   9.067 -0.1315  0.7104  0.0271
  777MOL0     O 7112   5.283   9.951   8.974  0.6129  0.3762 -0.3932
  777MOL0     C 7113   5.183   9.955   8.871 -0.3553 -0.1275 -0.8056
  777MOL0     C 7114   5.053   9.896   8.873 -0.4450  0.6831 -0.1115
  777MOL0     C 7115   4.968   9.885   8.758  0.0143 -1.2228 -0.1120
  777MOL0     C 7116   4.832   9.835   8.771 -0.7847  1.1128 -0.5586
  777MOL0     C 7117   5.006   9.960   8.644 -1.2735 -0.9215  0.3336
  777MOL0     C 7118   4.918   9.981   8.532  0.4308  0.7235  0.2684
  777MOL0     O 7119   4.888  10.110   8.504  0.2193 -0.2495  0.3286
  777MOL0     C 7120   4.832  10.128   8.382 -0.3505  0.0670 -0.1572
  777MOL0     C 7121   4.904  10.108   8.262  0.2620 -0.8624 -0.0057
  777MOL0     C 7122   4.832  10.103   8.134  0.4630  0.2075 -0.2895
  777MOL0     C 7123   4.697  10.137   8.129  0.1068 -0.5782  0.3470
  777MOL0     O 7124   4.639  10.149   8.004 -0.0816 -0.0048  0.2469
  777MOL0     C 7125   4.504  10.115   7.990 -0.4679 -0.0408 -1.0337
  777MOL0     C 7126   4.471  10.123   7.843  0.2378 -0.1346 -0.2604
  777MOL0     C 7127   4.323  10.098   7.804  0.3058  0.3942 -0.2052
  777MOL0     C 7128   4.303  10.109   7.655  0.0555 -0.0562  0.1333
  777MOL0     C 7129   4.336   9.974   7.589  0.6439 -0.1076  0.3487
  777MOL0     C 7130   4.340   9.997   7.440  0.1926 -0.0814 -0.3919
  777MOL0     C 7131   4.369   9.863   7.375  0.3742  0.2532  0.4202
  777MOL0     C 7132   4.317   9.855   7.231  0.0515  0.3445 -0.4033
  777MOL0    Cl 7133   4.380   9.694   7.187  0.4985 -0.2939  0.2807
  777MOL0     C 7134   4.633  10.190   8.241  0.1311  0.0878 -0.5757
  777MOL0     C 7135   4.704  10.185   8.367  0.2082  0.2947 -0.9120
  777MOL0     O 7136   4.869   9.881   8.471  0.1870 -0.4740  0.1658
  777MOL0     C 7137   5.131  10.029   8.646  1.1130  0.0967 -0.0907
  777MOL0     C 7138   5.222  10.015   8.750 -0.0902 -0.1829 -0.3129
  777MOL0     N 7139   5.234   9.837   9.524  0.5428  0.9389 -0.4246
  777MOL0     N 7140   5.254   9.739   9.609 -0.3641  0.0662 -0.2502
  777MOL0     C 7141   6.158   9.532  10.483  1.0959  0.2907 -0.0351
  777MOL0     C 7142   6.270   9.607  10.515  0.6207  0.5225 -0.0154
  777MOL0     C 7143   6.594   9.900  10.580  0.7520 -0.1658 -0.4362
  777MOL0     C 7144   6.561   9.980  10.698 -0.4500  0.5402  0.1460
  777MOL0     C 7145   6.657  10.050  10.763  0.6869 -0.9478 -0.2468
  777MOL0     C 7146   6.787  10.039  10.728 -0.0659  0.2873  0.4770
  777MOL0     O 7147   6.874  10.114  10.804  0.8724  0.1159  0.0805
  777MOL0     C 7148   7.022  10.118  10.785 -0.5800  0.6890  0.4615
  777MOL0     C 7149   7.105   9.986  10.817  0.2829 -0.9395 -0.1107
  777MOL0     C 7150   7.114   9.953  10.966  0.1396 -0.0647  0.6015
  777MOL0     C 7151   7.179   9.811  10.997  0.3335 -0.3444  0.7230
  777MOL0     C 7152   7.324   9.804  10.968  1.0524  0.8814 -0.4286
  777MOL0     C 7153   7.448   9.801  10.963  0.5493 -0.6063  0.4046
  777MOL0     C 7154   6.821   9.974  10.610  0.5904  0.6949  0.8733
  777MOL0     C 7155   6.721   9.906  10.528  0.3306 -0.7129 -0.8293
  777MOL0     C 7156   6.775   9.855  10.392  0.2734  0.3957  0.0625
  777MOL0     H 7157   6.132   9.918  10.513 -2.2419  0.1296  0.3912
  777MOL0     H 7158   5.940   9.788  10.444 -1.1166 -2.3773  1.9082
  777MOL0     H 7159   5.885   9.638  10.225 -0.7612  1.0193  0.4222
  777MOL0     H 7160   5.773   9.661  10.356 -0.4942 -0.7976  2.0586
  777MOL0     H 7161   5.813   9.426  10.165  0.5594 -0.2252  2.1844
  777MOL0     H 7162   5.708   9.405  10.299  0.9269 -0.9265 -0.6519
  777MOL0     H 7163   5.583   9.616  10.245  5.6298  1.1693  3.6475
  777MOL0     H 7164   5.687   9.638  10.095 -2.1921 -0.6787 -1.9873
  777MOL0     H 7165   5.652   9.430  10.009  1.0290  0.8540  0.9508
  777MOL0     H 7166   5.533   9.384  10.125  0.2122 -0.6705 -0.7055
  777MOL0     H 7167   5.494   9.645   9.970  1.0125 -1.0679 -2.2299
  777MOL0     H 7168   5.377   9.565  10.070  1.2218  1.3655  1.0250
  777MOL0     H 7169   5.502   9.407   9.842  0.4864 -0.1484 -0.2317
  777MOL0     H 7170   5.349   9.384   9.922  0.8419 -0.0722  2.9668
  777MOL0     H 7171   5.279   9.603   9.816 -0.2490 -0.5261  0.1802
  777MOL0     H 7172   5.266   9.454   9.725 -0.5209  1.7644  0.1370
  777MOL0     H 7173   5.510   9.626   9.720 -0.9347  4.4691 -2.3623
  777MOL0     H 7174   5.452   9.503   9.594  2.8694  1.4413 -0.7126
  777MOL0     H 7175   5.537   9.741   9.443 -1.2556 -3.3338 -0.0388
  777MOL0     H 7176   5.414  10.043   9.398  0.6348 -0.7007  1.4884
  777MOL0     H 7177   5.266  10.007   9.314 -1.1144 -1.9346  0.9547
  777MOL0     H 7178   5.434  10.021   9.154 -0.6408 -0.1527  0.8316
  777MOL0     H 7179   5.543   9.919   9.249 -0.8025 -2.3439  3.0800
  777MOL0     H 7180   5.454   9.785   9.063 -0.9631 -0.2535  0.2036
  777MOL0     H 7181   5.386   9.735   9.212  2.7620 -0.5669 -0.7960
  777MOL0     H 7182   5.234   9.747   9.020 -1.0837  0.9546 -0.0946
  777MOL0     H 7183   5.181   9.880   9.141  3.7124  1.9701  3.6211
  777MOL0     H 7184   5.017   9.862   8.969  1.4074 -1.3746 -0.0863
  777MOL0     H 7185   4.764   9.919   8.754 -2.5642 -0.2634 -0.5911
  777MOL0     H 7186   4.829   9.800   8.874  0.1565  1.4687 -0.4054
  777MOL0     H 7187   4.819   9.750   8.703 -2.2905  1.5690 -0.8997
  777MOL0     H 7188   5.011  10.096   8.256  0.5252  0.6539  1.0357
  777MOL0     H 7189   4.894  10.112   8.046  2.6790 -1.1036  1.0217
  777MOL0     H 7190   4.481  10.017   8.030 -0.7431  1.7261  3.7538
  777MOL0     H 7191   4.433  10.182   8.039  3.7434  4.3547 -0.1259
  777MOL0     H 7192   4.496  10.220   7.799  2.4823  0.4371  2.0011
  777MOL0     H 7193   4.520  10.041   7.791  0.1648  0.1388 -0.7694
  777MOL0     H 7194   4.271  10.187   7.840  2.6045  2.1269 -0.9825
  777MOL0     H 7195   4.290  10.004   7.851  0.0511  0.6850  0.2090
  777MOL0     H 7196   4.360  10.193   7.613 -0.9238  0.5253 -0.0646
  777MOL0     H 7197   4.198  10.125   7.630 -0.3350  0.0348  1.7589
  777MOL0     H 7198   4.427   9.920   7.616  0.6009 -0.9380 -1.0667
  777MOL0     H 7199   4.252   9.908   7.616 -1.1343  3.2354  4.0240
  777MOL0     H 7200   4.423  10.065   7.420  0.6345  0.6289  3.2287
  777MOL0     H 7201   4.247  10.037   7.400 -1.4557 -3.8962 -0.8668
  777MOL0     H 7202   4.314   9.778   7.416  0.3700 -0.8620 -1.7627
  777MOL0     H 7203   4.475   9.838   7.380  0.8830  2.3737  1.0232
  777MOL0     H 7204   4.360   9.928   7.162 -0.9707  2.5694  1.1971
  777MOL0     H 7205   4.210   9.872   7.243  0.1342 -0.1612  1.1909
  777MOL0     H 7206   4.538  10.241   8.229  1.3424  2.0251 -2.7621
  777MOL0     H 7207   4.659  10.225   8.458 -2.1604  0.5607 -2.1114
  777MOL0     H 7208   5.173  10.082   8.561 -0.6542  3.2043  0.8099
  777MOL0     H 7209   5.315  10.070   8.740 -0.0632  0.2714  1.9315
  777MOL0     H 7210   6.162   9.424  10.491 -0.5674  0.3731  3.3873
  777MOL0     H 7211   6.360   9.559  10.552  0.8456  2.0807  1.5687
  777MOL0     H 7212   6.466   9.961  10.747  0.1251 -0.4839  0.9037
  777MOL0     H 7213   6.623  10.098  10.854 -3.0724 -0.0100 -1.9161
  777MOL0     H 7214   7.048  10.140  10.681 -0.5233 -2.0252 -0.1938
  777MOL0     H 7215   7.057  10.201  10.846  0.1178 -0.0628  1.0953
  777MOL0     H 7216   7.204  10.022  10.788 -0.5371  0.1373 -1.7061
  777MOL0     H 7217   7.076   9.900  10.756 -1.4786  1.5802 -3.1584
  777MOL0     H 7218   7.182  10.030  11.003  1.4163 -1.6859  1.8154
  777MOL0     H 7219   7.016   9.953  11.015  0.8566 -3.3689  2.3389
  777MOL0     H 7220   7.122   9.733  10.947 -0.0891  0.3258  0.1400
  777MOL0     H 7221   7.177   9.795  11.105 -0.3996 -1.6608  0.5377
  777MOL0     H 7222   7.548   9.791  10.927 -0.1547 -2.3908 -1.2946
  777MOL0     H 7223   6.927   9.962  10.593  0.6928 -0.1604  1.9966
  777MOL0     H 7224   6.837   9.935  10.351  1.6732  0.9904  3.0914
  777MOL0     H 7225   6.825   9.759  10.408  0.0877  0.7174  3.0095
  777MOL0     H 7226   6.699   9.825  10.318 -2.2085 -0.7456  2.8635
  778MOL0     O 7227   9.238   3.424   2.429  0.0079  0.3450  0.5404
  778MOL0     C 7228   9.235   3.310   2.485 -0.0136 -0.4323  0.0900
  778MOL0     O 7229   9.127   3.268   2.550 -0.4781  1.5999 -0.1737
  778MOL0     C 7230   9.036   3.351   2.603 -0.4312  0.4169 -0.8795
  778MOL0     C 7231   8.902   3.310   2.606 -0.6812 -0.4070 -0.1868
  778MOL0     C 7232   8.811   3.376   2.700 -0.8511 -0.7142  0.1621
  778MOL0     C 7233   8.850   3.494   2.772 -0.3745 -0.2296 -0.5339
  778MOL0     O 7234   8.759   3.560   2.847  0.3074 -0.2036 -0.3417
  778MOL0     C 7235   8.797   3.684   2.917 -0.7767  0.9163  0.8319
  778MOL0     C 7236   8.865   3.645   3.051  0.0350  0.1939  1.3698
  778MOL0     C 7237   8.890   3.744   3.166 -0.1789  0.3157  1.2664
  778MOL0     C 7238   8.963   3.868   3.127  0.3263  0.2120 -0.4673
  778MOL0     C 7239   8.949   3.978   3.229  0.2877  0.3436 -0.5790
  778MOL0     C 7240   9.012   3.932   3.364 -0.7890 -1.2811  0.2567
  778MOL0     C 7241   9.040   4.052   3.454  0.0880 -0.2043 -0.1264
  778MOL0     C 7242   9.080   3.988   3.589 -0.0807  0.2247  0.0942
  778MOL0     N 7243   9.041   4.065   3.708 -1.0368  0.4139 -0.3825
  778MOL0     C 7244   9.066   4.200   3.742  0.4804  0.8315 -0.2424
  778MOL0     C 7245   9.030   4.214   3.876  0.6401  0.2451 -0.0806
  778MOL0     C 7246   9.062   4.324   3.972  0.0449  1.0244 -0.4506
  778MOL0     C 7247   8.956   4.431   3.975 -0.2929  0.2181  0.2775
  778MOL0     C 7248   8.970   4.525   3.861  0.1937  0.2094  0.2967
  778MOL0     C 7249   8.852   4.623   3.849  0.4438 -0.0850  0.3837
  778MOL0     O 7250   8.722   4.561   3.822 -0.2828 -0.6557  0.3871
  778MOL0     C 7251   8.615   4.634   3.770 -0.5877 -0.1272 -1.1705
  778MOL0     C 7252   8.619   4.782   3.790  0.2962  0.6787 -0.5581
  778MOL0     C 7253   8.506   4.851   3.740  0.0291  0.0406 -1.0846
  778MOL0     C 7254   8.508   5.004   3.765 -1.3309 -0.4242  0.2418
  778MOL0     C 7255   8.390   4.779   3.697  0.3998 -0.3410  0.0599
  778MOL0     C 7256   8.277   4.862   3.656  0.9289  0.9551 -0.3129
  778MOL0     O 7257   8.161   4.836   3.728  0.9032 -0.0917  0.2185
  778MOL0     C 7258   8.065   4.930   3.725 -0.1201  0.3718 -0.0892
  778MOL0     C 7259   8.051   5.025   3.821  0.0423 -0.5056  0.4223
  778MOL0     C 7260   7.960   5.133   3.806  0.1140 -0.5781  0.2499
  778MOL0     C 7261   7.882   5.150   3.686  0.0222  0.0358 -0.9992
  778MOL0     O 7262   7.826   5.270   3.678  0.9124 -0.6278 -0.3799
  778MOL0     C 7263   7.698   5.287   3.605 -0.2770  0.5045  0.6451
  778MOL0     C 7264   7.594   5.190   3.649 -0.2153 -0.2021  0.2797
  778MOL0     C 7265   7.515   5.242   3.763 -1.4034 -0.5007  0.2705
  778MOL0     C 7266   7.436   5.138   3.833 -0.4460 -0.1259  1.0273
  778MOL0     C 7267   7.394   5.176   3.969 -0.2571 -0.2024 -0.6953
  778MOL0     C 7268   7.275   5.277   3.982 -0.5903  0.2149 -0.4947
  778MOL0     C 7269   7.227   5.306   4.123 -0.1134 -0.7687 -0.0840
  778MOL0     C 7270   7.333   5.390   4.204 -0.3342  1.1671  0.9071
  778MOL0    Cl 7271   7.361   5.557   4.137 -0.1372  0.0340  0.3877
  778MOL0     C 7272   7.891   5.049   3.596  0.6767  0.9147 -0.4055
  778MOL0     C 7273   7.979   4.941   3.614 -0.5780 -0.2345 -0.3816
  778MOL0     O 7274   8.288   4.947   3.570  0.1882  0.4364 -0.0720
  778MOL0     C 7275   8.387   4.639   3.687  0.5111  0.6970 -0.6216
  778MOL0     C 7276   8.501   4.570   3.719 -1.5726  0.4829 -0.0124
  778MOL0     N 7277   8.981   4.084   3.909  0.1360 -0.4456 -0.3654
  778MOL0     N 7278   8.985   4.007   3.805  0.1690  0.5110  0.5782
  778MOL0     C 7279   8.976   3.539   2.748  0.4305 -1.0940  1.2436
  778MOL0     C 7280   9.066   3.473   2.670 -0.1768  0.8250  0.6847
  778MOL0     C 7281   9.353   3.226   2.464  0.4845 -0.5501 -0.0041
  778MOL0     C 7282   9.351   3.093   2.517  0.2464  0.7058 -1.0796
  778MOL0     C 7283   9.461   3.001   2.515 -0.0737 -0.4690  0.1031
  778MOL0     C 7284   9.580   3.044   2.460 -0.0710  0.8601  1.0904
  778MOL0     O 7285   9.688   2.963   2.460 -0.0193  0.2120  0.8664
  778MOL0     C 7286   9.816   3.008   2.408  0.0337  0.5927 -1.3288
  778MOL0     C 7287   9.915   2.891   2.448  0.4786 -0.7452  0.0084
  778MOL0     C 7288  10.057   2.926   2.392  0.0183  0.8475  0.1062
  778MOL0     C 7289  10.159   2.809   2.427  0.0475  0.5068 -0.2210
  778MOL0     C 7290  10.123   2.691   2.350  0.5478 -0.2030 -0.3361
  778MOL0     C 7291  10.082   2.602   2.273  0.2087 -0.5187 -0.5339
  778MOL0     C 7292   9.585   3.169   2.403 -0.0707 -0.1651 -0.4732
  778MOL0     C 7293   9.475   3.264   2.402  0.5281 -0.2860  0.5784
  778MOL0     C 7294   9.492   3.397   2.320 -0.1981  0.4365 -0.5286
  778MOL0     H 7295   8.862   3.224   2.554  1.8989 -1.7269 -0.1498
  778MOL0     H 7296   8.711   3.338   2.711 -0.5342 -1.9752 -1.0516
  778MOL0     H 7297   8.710   3.747   2.937  0.8033  3.8103 -0.6267
  778MOL0     H 7298   8.862   3.741   2.850  1.8876  0.4234  2.8381
  778MOL0     H 7299   8.812   3.561   3.095 -1.2826 -1.5350 -2.9832
  778MOL0     H 7300   8.958   3.597   3.021 -0.6354  0.1867 -0.8711
  778MOL0     H 7301   8.788   3.765   3.198 -1.8166 -0.8218 -2.5531
  778MOL0     H 7302   8.934   3.690   3.250  2.3004 -4.3435 -2.5205
  778MOL0     H 7303   9.067   3.846   3.103  0.2198 -0.6137 -0.2049
  778MOL0     H 7304   8.909   3.906   3.040  0.3965 -1.2139 -1.1491
  778MOL0     H 7305   8.844   3.995   3.253  0.3449  0.6416 -0.5290
  778MOL0     H 7306   9.005   4.067   3.197  3.4504 -1.3244 -0.0884
  778MOL0     H 7307   8.938   3.868   3.412 -1.5317 -0.9965 -0.4747
  778MOL0     H 7308   9.108   3.882   3.349 -0.0892 -0.5326  1.9778
  778MOL0     H 7309   8.959   4.125   3.461  2.0261  2.4381 -2.6530
  778MOL0     H 7310   9.128   4.112   3.427  0.1936 -0.4124 -0.2419
  778MOL0     H 7311   9.052   3.883   3.589 -1.0157  0.3880 -2.6606
  778MOL0     H 7312   9.189   3.982   3.593 -0.0288  0.7183 -0.3670
  778MOL0     H 7313   9.096   4.280   3.674 -1.8473  2.6277  0.6993
  778MOL0     H 7314   9.164   4.358   3.954  1.0220 -2.2788 -1.9926
  778MOL0     H 7315   9.062   4.272   4.069 -1.4574 -1.4057 -1.6315
  778MOL0     H 7316   8.855   4.389   3.980  0.9802 -3.3880 -0.9876
  778MOL0     H 7317   8.964   4.486   4.069  0.3797  2.2546 -0.9106
  778MOL0     H 7318   9.057   4.592   3.864  0.2376  0.3123 -1.7467
  778MOL0     H 7319   8.972   4.457   3.775  1.8942 -2.2814  2.1614
  778MOL0     H 7320   8.853   4.680   3.942 -0.7689  3.2196 -1.4470
  778MOL0     H 7321   8.878   4.685   3.762 -1.4059 -1.1317 -0.9883
  778MOL0     H 7322   8.702   4.832   3.839 -1.0554  0.6941  1.8682
  778MOL0     H 7323   8.433   5.062   3.710 -0.3962  4.5067  3.4918
  778MOL0     H 7324   8.607   5.047   3.747  0.6984 -4.5147  0.3799
  778MOL0     H 7325   8.478   5.026   3.868 -0.9435  1.7686 -0.0601
  778MOL0     H 7326   8.122   5.019   3.903  0.6969 -1.3872 -0.1810
  778MOL0     H 7327   7.971   5.202   3.889 -1.7922 -1.0789  0.9751
  778MOL0     H 7328   7.662   5.390   3.617 -0.2772  0.5440  0.3330
  778MOL0     H 7329   7.717   5.272   3.498 -2.2789 -0.4228  0.3753
  778MOL0     H 7330   7.528   5.172   3.564 -0.1695 -0.2921  0.2639
  778MOL0     H 7331   7.643   5.095   3.672 -0.8580 -0.7372 -0.5034
  778MOL0     H 7332   7.444   5.308   3.712  0.8788 -0.4142 -3.2047
  778MOL0     H 7333   7.585   5.297   3.827 -0.8111 -2.3873  1.2916
  778MOL0     H 7334   7.497   5.048   3.851  0.1497 -0.0632 -0.5033
  778MOL0     H 7335   7.347   5.104   3.780 -1.1847 -0.1360  2.2377
  778MOL0     H 7336   7.355   5.086   4.017 -2.6102  1.3563  0.5104
  778MOL0     H 7337   7.478   5.218   4.026 -1.6690  0.0010  1.3239
  778MOL0     H 7338   7.193   5.234   3.923 -0.6602  2.0586 -1.8001
  778MOL0     H 7339   7.320   5.365   3.935  1.6701 -0.8712 -0.4993
  778MOL0     H 7340   7.211   5.216   4.183  4.9271 -0.5772  2.0014
  778MOL0     H 7341   7.135   5.366   4.126  0.6045  0.3862 -0.3887
  778MOL0     H 7342   7.427   5.335   4.192 -1.0140  0.1573  0.0278
  778MOL0     H 7343   7.303   5.389   4.309 -0.5770 -0.5412  0.8559
  778MOL0     H 7344   7.831   5.036   3.506 -1.9359 -0.6672  1.4201
  778MOL0     H 7345   7.989   4.862   3.540  1.5408 -0.2639 -0.1291
  778MOL0     H 7346   8.299   4.579   3.667  0.7970  0.4945 -1.3128
  778MOL0     H 7347   8.501   4.461   3.720 -3.4307  0.3412 -3.4294
  778MOL0     H 7348   9.026   3.622   2.797  0.3327 -0.4368  0.2451
  778MOL0     H 7349   9.170   3.500   2.688  0.0251  1.3343 -1.0631
  778MOL0     H 7350   9.252   3.082   2.561  1.9212  1.7132  3.6054
  778MOL0     H 7351   9.466   2.908   2.571  4.7965 -0.4554  0.1219
  778MOL0     H 7352   9.812   3.040   2.304 -0.8515  0.5679 -1.3095
  778MOL0     H 7353   9.845   3.095   2.468 -0.3658 -0.6904  0.8368
  778MOL0     H 7354   9.879   2.796   2.407  3.1905 -2.7524  1.8757
  778MOL0     H 7355   9.913   2.889   2.557  4.0910  2.0269  0.3138
  778MOL0     H 7356  10.038   2.909   2.285  4.7273 -1.9291 -0.5670
  778MOL0     H 7357  10.097   3.024   2.419  0.8821  1.1954 -2.1903
  778MOL0     H 7358  10.146   2.785   2.533  0.2050  4.2785  0.7836
  778MOL0     H 7359  10.263   2.842   2.416  0.2695  0.3265  1.1103
  778MOL0     H 7360  10.057   2.526   2.202 -2.5470 -1.2348  1.0255
  778MOL0     H 7361   9.665   3.197   2.335  0.2934 -1.9839 -0.8646
  778MOL0     H 7362   9.406   3.425   2.259  0.1805  1.6559 -0.5225
  778MOL0     H 7363   9.503   3.481   2.390 -1.0459 -0.3120  0.5347
  778MOL0     H 7364   9.584   3.375   2.265 -0.2390  0.1604 -0.4857
  779MOL0     O 7365   0.129   3.863   0.371  0.2187 -0.6727  0.4547
  779MOL0     C 7366   0.048   3.927   0.439 -0.3493 -1.1368  0.5223
  779MOL0     O 7367  -0.054   3.870   0.507 -0.4967  0.0734 -1.0334
  779MOL0     C 7368  -0.064   3.736   0.505 -1.2071  0.0973  0.8000
  779MOL0     C 7369  -0.108   3.672   0.387  0.1347 -0.1767  0.1709
  779MOL0     C 7370  -0.102   3.533   0.387  0.4284  0.2790 -1.1128
  779MOL0     C 7371  -0.090   3.451   0.504 -0.2926 -0.5835 -0.1496
  779MOL0     O 7372  -0.088   3.318   0.512  0.3421  0.0906  0.7774
  779MOL0     C 7373  -0.034   3.252   0.397 -0.0308  0.3211  0.6304
  779MOL0     C 7374   0.046   3.131   0.442  0.3476 -0.2853  0.6935
  779MOL0     C 7375   0.096   3.066   0.312  0.0055  0.0810 -0.2868
  779MOL0     C 7376   0.192   2.952   0.353  0.8654  0.2298  0.6930
  779MOL0     C 7377   0.119   2.830   0.299  0.6001  0.3830  0.6310
  779MOL0     C 7378   0.180   2.704   0.358  0.5100 -1.0012 -0.5327
  779MOL0     C 7379   0.322   2.692   0.306  0.5504 -0.3467  1.0151
  779MOL0     C 7380   0.428   2.698   0.411 -0.0146  0.1840  0.5738
  779MOL0     N 7381   0.557   2.674   0.354 -1.7988  0.2672  1.0904
  779MOL0     C 7382   0.659   2.769   0.342 -0.7376  0.4377  0.0536
  779MOL0     C 7383   0.777   2.699   0.318  0.7845  0.7241 -0.8567
  779MOL0     C 7384   0.914   2.773   0.306  1.3958  0.5539 -0.0732
  779MOL0     C 7385   1.027   2.675   0.347 -0.3381  0.1338 -0.2532
  779MOL0     C 7386   0.998   2.627   0.496  0.0305 -0.1025  0.5410
  779MOL0     C 7387   1.127   2.634   0.573  0.5945  0.6860 -0.0402
  779MOL0     O 7388   1.142   2.757   0.649 -0.0391  0.3268  0.3139
  779MOL0     C 7389   1.267   2.797   0.678  0.2834 -1.1186  1.5439
  779MOL0     C 7390   1.299   2.924   0.648 -0.1117 -0.7609 -0.6276
  779MOL0     C 7391   1.418   2.985   0.706  0.1819 -0.2906 -0.7076
  779MOL0     C 7392   1.430   3.131   0.677 -0.2397  0.5587 -0.3302
  779MOL0     C 7393   1.500   2.907   0.791 -0.4612 -0.4262  0.4125
  779MOL0     C 7394   1.629   2.956   0.845 -0.1031 -0.1492 -0.8241
  779MOL0     O 7395   1.668   3.076   0.813 -0.2315  0.0102 -0.1434
  779MOL0     C 7396   1.781   3.137   0.872 -0.1037 -0.7318 -0.1846
  779MOL0     C 7397   1.867   3.219   0.801 -0.4012  0.0414  0.2785
  779MOL0     C 7398   1.941   3.322   0.862  0.4114  0.7774 -0.5038
  779MOL0     C 7399   1.961   3.325   0.997  1.0350  0.1216 -0.7769
  779MOL0     O 7400   2.050   3.412   1.043 -0.5403 -0.0319  0.3475
  779MOL0     C 7401   2.127   3.397   1.159  1.0840 -0.6816  0.6158
  779MOL0     C 7402   2.161   3.533   1.225 -0.1583 -0.0422 -0.2293
  779MOL0     C 7403   2.040   3.610   1.273 -0.6297  0.6930 -0.8941
  779MOL0     C 7404   2.076   3.724   1.371 -0.1088 -0.4791 -0.6233
  779MOL0     C 7405   1.946   3.805   1.394  0.5891  0.8101 -0.5509
  779MOL0     C 7406   1.949   3.913   1.502 -0.7631 -0.0632 -0.1130
  779MOL0     C 7407   1.835   4.011   1.524 -0.0443  0.9409  0.7921
  779MOL0     C 7408   1.872   4.126   1.611  0.7975 -0.0929 -0.3774
  779MOL0    Cl 7409   1.944   4.072   1.767  0.5516  0.1078  0.0238
  779MOL0     C 7410   1.892   3.223   1.075  0.0074 -0.4812  0.1786
  779MOL0     C 7411   1.802   3.127   1.011  0.3087  0.4814  0.4219
  779MOL0     O 7412   1.691   2.880   0.918  0.3553  0.4646 -0.1770
  779MOL0     C 7413   1.465   2.774   0.812 -0.1572 -0.2726  0.1118
  779MOL0     C 7414   1.354   2.720   0.759  0.2871  0.6038 -0.8293
  779MOL0     N 7415   0.741   2.565   0.332 -0.3639 -0.0913 -0.6608
  779MOL0     N 7416   0.618   2.552   0.357 -0.1471 -0.5560 -0.1875
  779MOL0     C 7417  -0.063   3.525   0.629  0.7557  0.0874  0.0422
  779MOL0     C 7418  -0.055   3.667   0.619 -0.7015  0.5056 -0.1430
  779MOL0     C 7419   0.052   4.072   0.449  0.1789  0.4082 -0.0680
  779MOL0     C 7420  -0.023   4.137   0.553  0.6278 -0.2820 -0.9686
  779MOL0     C 7421  -0.025   4.274   0.569  0.4659 -0.3633 -0.8253
  779MOL0     C 7422   0.041   4.355   0.479 -0.3878  0.4070  0.6600
  779MOL0     O 7423   0.050   4.488   0.495  0.0802 -0.6130 -0.2514
  779MOL0     C 7424   0.083   4.578   0.389 -0.8116 -1.4325  0.4890
  779MOL0     C 7425   0.101   4.712   0.454 -0.0184 -0.8222 -0.8790
  779MOL0     C 7426   0.125   4.828   0.353  0.4952  0.1797 -0.1104
  779MOL0     C 7427   0.054   4.957   0.401  0.0552 -0.1740  0.2235
  779MOL0     C 7428   0.115   5.029   0.510 -0.0059 -1.0403 -0.7158
  779MOL0     C 7429   0.169   5.088   0.605  0.3765 -0.1410  0.7509
  779MOL0     C 7430   0.117   4.293   0.384 -0.4282  0.1874  0.1207
  779MOL0     C 7431   0.126   4.152   0.357  0.2018 -0.8858 -0.4794
  779MOL0     C 7432   0.222   4.099   0.253  0.3706  0.8842  0.0620
  779MOL0     H 7433  -0.129   3.729   0.297 -0.5421 -0.3420  0.2117
  779MOL0     H 7434  -0.106   3.491   0.287  2.9162 -2.8407 -0.0510
  779MOL0     H 7435   0.035   3.312   0.337 -0.2534  0.4214  0.4738
  779MOL0     H 7436  -0.110   3.215   0.328  0.7154 -0.1963  0.0651
  779MOL0     H 7437   0.120   3.161   0.517 -0.9810 -1.7119  2.6582
  779MOL0     H 7438  -0.020   3.070   0.504 -2.7789  2.2478  0.1262
  779MOL0     H 7439   0.006   3.038   0.257 -0.7252 -1.2975  1.5053
  779MOL0     H 7440   0.136   3.143   0.245  2.1092 -0.1535  0.6063
  779MOL0     H 7441   0.293   2.958   0.311  0.9732 -0.8850  0.7500
  779MOL0     H 7442   0.193   2.943   0.462  1.0324  0.4740  0.7116
  779MOL0     H 7443   0.124   2.833   0.190 -0.1866 -0.1026  0.5717
  779MOL0     H 7444   0.014   2.816   0.327  0.8743 -2.2908  0.6319
  779MOL0     H 7445   0.174   2.717   0.466  0.9247  4.5127 -0.8826
  779MOL0     H 7446   0.108   2.625   0.332 -0.1819 -0.3145 -0.7449
  779MOL0     H 7447   0.341   2.756   0.219  1.2381  0.4773  1.7506
  779MOL0     H 7448   0.326   2.587   0.276  0.6580 -0.7016  2.2093
  779MOL0     H 7449   0.430   2.800   0.450 -1.4022  1.1606 -1.7195
  779MOL0     H 7450   0.420   2.615   0.483  1.3606 -0.9813 -0.5658
  779MOL0     H 7451   0.649   2.876   0.354 -2.8762  0.2350  0.3662
  779MOL0     H 7452   0.921   2.860   0.372  0.7797  0.6265 -0.0961
  779MOL0     H 7453   0.926   2.813   0.205 -0.8973 -1.5509 -1.3143
  779MOL0     H 7454   1.028   2.588   0.280 -2.8667 -2.0753  2.3289
  779MOL0     H 7455   1.120   2.731   0.335  0.1483 -0.6392 -0.1765
  779MOL0     H 7456   0.923   2.681   0.554 -0.0465 -1.9828  2.2970
  779MOL0     H 7457   0.952   2.528   0.493  0.2778 -0.2031 -2.3011
  779MOL0     H 7458   1.134   2.546   0.637 -2.2317  0.1980 -0.2519
  779MOL0     H 7459   1.208   2.623   0.500 -1.2830 -2.4805 -1.9029
  779MOL0     H 7460   1.234   2.994   0.596  2.6160  1.7028 -0.9184
  779MOL0     H 7461   1.360   3.162   0.599 -1.1977  0.4239  0.4574
  779MOL0     H 7462   1.529   3.161   0.642  2.0090 -2.5596  2.6517
  779MOL0     H 7463   1.395   3.194   0.759  1.2742 -0.3081  1.0389
  779MOL0     H 7464   1.859   3.200   0.694 -1.2479  0.6219  0.2281
  779MOL0     H 7465   2.010   3.366   0.792  0.1045 -0.7392 -1.8275
  779MOL0     H 7466   2.067   3.335   1.227 -0.2193 -2.8757 -2.3242
  779MOL0     H 7467   2.216   3.336   1.141 -1.3389 -3.9996 -1.3375
  779MOL0     H 7468   2.224   3.514   1.312 -1.8890  0.9007  1.3056
  779MOL0     H 7469   2.213   3.598   1.154 -1.2077  0.3735 -0.6394
  779MOL0     H 7470   1.981   3.534   1.325  1.9822 -1.2203 -0.5348
  779MOL0     H 7471   1.986   3.649   1.187  0.0534  1.4257 -1.0051
  779MOL0     H 7472   2.159   3.780   1.325  1.2180 -3.3458 -2.0333
  779MOL0     H 7473   2.107   3.675   1.464 -2.6836 -1.9590 -0.4698
  779MOL0     H 7474   1.916   3.845   1.297 -0.3619  0.1991 -0.5158
  779MOL0     H 7475   1.868   3.739   1.432  0.1210  2.5186  1.6702
  779MOL0     H 7476   2.036   3.975   1.478 -2.2332  0.8857 -3.6855
  779MOL0     H 7477   1.964   3.860   1.596 -2.0997 -2.4762 -1.1441
  779MOL0     H 7478   1.746   3.952   1.549  0.9731 -1.3665 -0.6955
  779MOL0     H 7479   1.807   4.058   1.429 -2.5365 -0.9560  0.4549
  779MOL0     H 7480   1.773   4.167   1.632 -0.9794 -3.9573 -0.4535
  779MOL0     H 7481   1.938   4.199   1.563  0.1793  1.4577  1.0533
  779MOL0     H 7482   1.903   3.239   1.182  2.2254  2.0490 -0.3121
  779MOL0     H 7483   1.754   3.064   1.085  1.3050  1.2463  1.7702
  779MOL0     H 7484   1.528   2.711   0.874 -0.9244  1.5624  2.9562
  779MOL0     H 7485   1.325   2.620   0.789  0.7084  1.1426  1.5617
  779MOL0     H 7486  -0.038   3.475   0.722  4.4485 -0.6862 -1.1871
  779MOL0     H 7487  -0.028   3.717   0.712  0.2294 -1.2094  0.5450
  779MOL0     H 7488  -0.075   4.086   0.633  1.4012 -1.9521 -1.4903
  779MOL0     H 7489  -0.094   4.301   0.648 -1.3696  4.4892 -3.6810
  779MOL0     H 7490   0.175   4.549   0.338  0.8473 -0.6658  2.8478
  779MOL0     H 7491  -0.008   4.572   0.330 -2.0065  0.2854  2.0429
  779MOL0     H 7492   0.195   4.709   0.512  1.4183  0.2390 -3.0399
  779MOL0     H 7493   0.017   4.730   0.522  1.3609  3.7280 -0.0480
  779MOL0     H 7494   0.232   4.848   0.341  0.3489 -0.4870 -3.4284
  779MOL0     H 7495   0.091   4.800   0.253  1.5264  0.0366 -0.4289
  779MOL0     H 7496  -0.053   4.944   0.418  0.4018 -2.0283  1.2214
  779MOL0     H 7497   0.059   5.018   0.311  0.6053  0.1658  0.4790
  779MOL0     H 7498   0.219   5.136   0.686  1.0141  0.3758  0.0680
  779MOL0     H 7499   0.158   4.350   0.301 -0.7336 -0.2093 -0.3063
  779MOL0     H 7500   0.174   4.026   0.188 -2.3849  1.4908  1.2897
  779MOL0     H 7501   0.262   4.179   0.189  0.5160 -1.5913 -3.1960
  779MOL0     H 7502   0.301   4.046   0.307 -0.4064 -0.9048 -0.4773
  780MOL0     O 7503   8.256   7.824  10.366 -0.4984  0.2423 -0.4401
  780MOL0     C 7504   8.290   7.930  10.418  0.3710  0.1265  0.0174
  780MOL0     O 7505   8.254   7.969  10.544 -0.0603  0.3733  0.2655
  780MOL0     C 7506   8.150   7.920  10.615  0.4038  0.1149  0.1701
  780MOL0     C 7507   8.061   7.813  10.576 -0.8620 -0.8022  0.0418
  780MOL0     C 7508   7.948   7.781  10.648 -0.1386  0.4146 -0.1595
  780MOL0     C 7509   7.925   7.841  10.765  0.0472  0.6054  0.7189
  780MOL0     O 7510   7.811   7.794  10.826  0.2721 -0.0949 -0.1552
  780MOL0     C 7511   7.747   7.873  10.927 -0.1933 -0.3570 -0.4005
  780MOL0     C 7512   7.635   7.788  10.990  0.1104 -0.3211  0.5468
  780MOL0     C 7513   7.570   7.893  11.090  0.3941  0.3126  0.3260
  780MOL0     C 7514   7.481   7.834  11.197 -0.8138  0.4178 -0.1376
  780MOL0     C 7515   7.549   7.815  11.333  0.7803 -0.4900  0.5602
  780MOL0     C 7516   7.649   7.709  11.340  0.3528 -0.3946 -0.5107
  780MOL0     C 7517   7.600   7.566  11.338  0.0709  0.5535 -0.4071
  780MOL0     C 7518   7.721   7.478  11.316  0.5960  0.2419  0.0761
  780MOL0     N 7519   7.688   7.331  11.333  0.0339  0.2728  0.3170
  780MOL0     C 7520   7.669   7.260  11.454  0.0848 -0.5638  0.1875
  780MOL0     C 7521   7.649   7.136  11.416 -0.4461  0.7126  0.7062
  780MOL0     C 7522   7.616   7.033  11.529  0.1441  0.1131  0.5646
  780MOL0     C 7523   7.729   7.015  11.632  0.5821  0.1535 -0.8506
  780MOL0     C 7524   7.846   6.938  11.579  0.8446 -0.0323 -0.5001
  780MOL0     C 7525   7.942   6.895  11.682  1.0402  0.1739 -0.4802
  780MOL0     O 7526   8.013   7.001  11.746 -0.1979 -0.0726  0.6859
  780MOL0     C 7527   8.115   7.053  11.669  0.3137 -0.5473 -0.3462
  780MOL0     C 7528   8.096   7.175  11.601 -0.4144  0.9090 -1.1690
  780MOL0     C 7529   8.192   7.240  11.523  0.5204  1.2251 -0.0406
  780MOL0     C 7530   8.145   7.350  11.434 -0.3483 -0.6834 -0.1705
  780MOL0     C 7531   8.320   7.173  11.511  0.2577  0.5566 -0.4150
  780MOL0     C 7532   8.439   7.226  11.434  0.4246 -0.7411 -0.0060
  780MOL0     O 7533   8.554   7.163  11.425 -0.4562 -0.2220 -0.1098
  780MOL0     C 7534   8.669   7.203  11.370  0.2873 -0.9938  0.5495
  780MOL0     C 7535   8.779   7.115  11.370 -0.3740  0.1979 -0.1733
  780MOL0     C 7536   8.902   7.146  11.303 -0.4529  0.5144 -0.2547
  780MOL0     C 7537   8.926   7.272  11.239 -0.5956  0.5682  0.1033
  780MOL0     O 7538   9.051   7.312  11.190 -0.2423  0.9025 -0.6314
  780MOL0     C 7539   9.169   7.245  11.238 -0.8076 -0.3002 -0.3792
  780MOL0     C 7540   9.290   7.306  11.163  1.1144  1.1989  0.1542
  780MOL0     C 7541   9.361   7.428  11.232 -0.1380 -0.5264 -0.7194
  780MOL0     C 7542   9.479   7.475  11.152 -0.3861  0.5511 -0.8523
  780MOL0     C 7543   9.591   7.555  11.236 -0.2794  0.3403  0.3159
  780MOL0     C 7544   9.576   7.702  11.206  0.1806 -0.1957  0.4664
  780MOL0     C 7545   9.684   7.797  11.259 -0.4269 -0.1129 -0.1916
  780MOL0     C 7546   9.822   7.756  11.224  0.0653  1.2249  0.9274
  780MOL0    Cl 7547   9.940   7.879  11.275  0.0832 -0.4915 -0.3353
  780MOL0     C 7548   8.822   7.357  11.236  0.4000  0.2849 -0.2638
  780MOL0     C 7549   8.699   7.323  11.299  0.0980 -0.1474 -0.8407
  780MOL0     O 7550   8.420   7.336  11.387  0.0152 -0.2956 -0.1167
  780MOL0     C 7551   8.331   7.048  11.576  0.0825  0.3558 -0.2851
  780MOL0     C 7552   8.233   6.990  11.651 -0.1114 -0.2493 -0.5369
  780MOL0     N 7553   7.648   7.127  11.277 -0.3301  0.1282 -0.6338
  780MOL0     N 7554   7.687   7.239  11.234 -0.8414 -0.4651 -0.7451
  780MOL0     C 7555   8.009   7.945  10.806  0.0149  0.0338 -0.8342
  780MOL0     C 7556   8.124   7.985  10.731 -0.7106 -0.3044 -0.3022
  780MOL0     C 7557   8.369   8.024  10.333  0.3575 -0.1703  0.3290
  780MOL0     C 7558   8.342   8.160  10.337 -0.5003 -0.4516 -0.2224
  780MOL0     C 7559   8.415   8.244  10.253  0.0409  0.1039 -1.0689
  780MOL0     C 7560   8.503   8.202  10.167 -0.2451  0.6223 -0.8739
  780MOL0     O 7561   8.557   8.300  10.087  0.3866 -0.6427 -0.3957
  780MOL0     C 7562   8.551   8.272   9.946 -0.1080 -0.2660 -0.0209
  780MOL0     C 7563   8.583   8.399   9.868 -0.0060 -0.4343  0.6909
  780MOL0     C 7564   8.560   8.375   9.717 -0.1779 -0.6873 -0.1283
  780MOL0     C 7565   8.573   8.510   9.640  0.1435 -0.3291 -0.2307
  780MOL0     C 7566   8.710   8.558   9.636 -1.1908 -0.8060 -0.3200
  780MOL0     C 7567   8.826   8.607   9.652 -0.2997 -0.0948  0.5506
  780MOL0     C 7568   8.542   8.068  10.168 -0.5435 -0.1163 -0.3264
  780MOL0     C 7569   8.472   7.975  10.253 -0.0030  0.2306  0.2214
  780MOL0     C 7570   8.520   7.832  10.242 -0.6674 -0.1364  0.4718
  780MOL0     H 7571   8.086   7.755  10.487 -0.3038  2.3605 -2.0130
  780MOL0     H 7572   7.877   7.704  10.619 -0.8785  1.6414 -1.7727
  780MOL0     H 7573   7.702   7.956  10.872 -4.3686 -2.8397 -1.1632
  780MOL0     H 7574   7.818   7.900  11.005  0.1001  3.0966 -1.6863
  780MOL0     H 7575   7.570   7.743  10.914 -1.1284  0.3761  1.1532
  780MOL0     H 7576   7.674   7.705  11.051  0.3205  1.6813  3.3526
  780MOL0     H 7577   7.637   7.964  11.140 -0.8950  1.5414  0.3621
  780MOL0     H 7578   7.512   7.952  11.018 -1.2030 -1.7777 -0.2091
  780MOL0     H 7579   7.401   7.906  11.216 -2.5665 -1.2303 -0.9214
  780MOL0     H 7580   7.429   7.746  11.158 -3.5013  2.7129 -2.1641
  780MOL0     H 7581   7.467   7.792  11.402  1.3182  0.7684  1.6732
  780MOL0     H 7582   7.592   7.913  11.358 -1.3168  0.7032 -0.2316
  780MOL0     H 7583   7.714   7.730  11.255  0.4817  0.5014 -0.1993
  780MOL0     H 7584   7.707   7.720  11.432  1.5651 -0.1027 -1.2949
  780MOL0     H 7585   7.520   7.546  11.266 -0.7978  2.1493  0.0695
  780MOL0     H 7586   7.554   7.537  11.433 -0.9985 -3.2013 -1.8867
  780MOL0     H 7587   7.762   7.494  11.215 -1.0766  0.2096 -0.6423
  780MOL0     H 7588   7.787   7.501  11.400 -1.0839 -1.1500  1.8747
  780MOL0     H 7589   7.660   7.304  11.553  1.3983  0.3304 -0.0590
  780MOL0     H 7590   7.572   6.943  11.487 -0.7067  1.0244 -0.5580
  780MOL0     H 7591   7.526   7.072  11.577 -0.4365  0.1575 -0.5321
  780MOL0     H 7592   7.760   7.107  11.683 -2.7060  0.6747  0.5045
  780MOL0     H 7593   7.681   6.966  11.718  0.1233 -0.5799 -1.5141
  780MOL0     H 7594   7.810   6.847  11.530  1.4208 -1.1530  1.0318
  780MOL0     H 7595   7.903   6.996  11.507  0.2820  2.1940  0.7715
  780MOL0     H 7596   7.879   6.833  11.748 -0.7162 -0.2152 -2.4277
  780MOL0     H 7597   8.015   6.825  11.641  1.5193 -0.1635  0.8774
  780MOL0     H 7598   8.004   7.231  11.613  0.3681  1.8062  1.3424
  780MOL0     H 7599   8.150   7.317  11.330  2.8237 -4.0386  0.8309
  780MOL0     H 7600   8.219   7.430  11.444 -1.3553  0.0217  2.4781
  780MOL0     H 7601   8.045   7.389  11.452 -0.7062 -1.9507  0.6989
  780MOL0     H 7602   8.769   7.017  11.415 -0.7162  0.7461  0.9693
  780MOL0     H 7603   8.988   7.082  11.319  0.3086  2.0162  2.2081
  780MOL0     H 7604   9.186   7.257  11.345  0.5674  3.7295 -0.8812
  780MOL0     H 7605   9.168   7.139  11.211  0.7672 -0.0552 -1.5439
  780MOL0     H 7606   9.358   7.223  11.145 -2.1235 -1.2750 -1.8530
  780MOL0     H 7607   9.242   7.342  11.071 -0.4377  1.1859  0.9177
  780MOL0     H 7608   9.396   7.404  11.332  0.4813  0.9818 -0.5520
  780MOL0     H 7609   9.280   7.501  11.238 -0.2691 -0.7731  0.9505
  780MOL0     H 7610   9.450   7.527  11.060 -0.1769  3.7457  0.7443
  780MOL0     H 7611   9.530   7.387  11.113 -2.5713  0.0397 -2.7375
  780MOL0     H 7612   9.565   7.534  11.341 -2.5332 -0.0682 -0.2672
  780MOL0     H 7613   9.688   7.508  11.219 -0.2193  0.2058  0.9943
  780MOL0     H 7614   9.479   7.746  11.231  0.6098  3.1840 -2.7781
  780MOL0     H 7615   9.574   7.719  11.098  2.1204  0.5748  0.5120
  780MOL0     H 7616   9.683   7.791  11.369 -1.1851  1.5251 -0.0739
  780MOL0     H 7617   9.657   7.900  11.235  1.8853  0.9164  1.1930
  780MOL0     H 7618   9.823   7.748  11.115  3.4495 -1.6901  0.9897
  780MOL0     H 7619   9.858   7.660  11.264  1.0071 -0.3330 -3.1376
  780MOL0     H 7620   8.839   7.446  11.177  2.0484  1.5286  1.9266
  780MOL0     H 7621   8.619   7.395  11.287 -0.2700 -0.5573 -0.8700
  780MOL0     H 7622   8.427   6.998  11.574 -1.4475 -2.9174  1.3076
  780MOL0     H 7623   8.245   6.896  11.704  1.9798 -0.6442 -1.6186
  780MOL0     H 7624   7.980   8.001  10.894  0.8502 -1.6486  0.5964
  780MOL0     H 7625   8.184   8.065  10.772  0.4520 -1.3699  0.1377
  780MOL0     H 7626   8.277   8.212  10.407  1.0085 -0.2849  1.1229
  780MOL0     H 7627   8.386   8.348  10.266 -1.8125 -0.5897  0.9510
  780MOL0     H 7628   8.625   8.197   9.919  0.2813  0.9424 -2.5569
  780MOL0     H 7629   8.463   8.215   9.914  0.3085  0.7616 -3.2708
  780MOL0     H 7630   8.683   8.436   9.895  0.2119 -1.3307  1.1259
  780MOL0     H 7631   8.516   8.479   9.901 -3.5889 -2.9281  0.0108
  780MOL0     H 7632   8.633   8.303   9.680  3.1961  2.1732  0.4662
  780MOL0     H 7633   8.459   8.333   9.724 -0.1258 -0.6123  1.5298
  780MOL0     H 7634   8.507   8.576   9.696  0.0841 -1.6034  1.2389
  780MOL0     H 7635   8.544   8.499   9.535  1.9125 -2.0283 -0.5989
  780MOL0     H 7636   8.920   8.657   9.666 -1.1771  1.4911  0.9793
  780MOL0     H 7637   8.635   8.035  10.122 -1.2498 -4.7005  1.0250
  780MOL0     H 7638   8.506   7.776  10.335  2.5728 -0.5278  0.8402
  780MOL0     H 7639   8.480   7.789  10.150  0.3464  2.6581 -1.4128
  780MOL0     H 7640   8.628   7.835  10.222 -0.7594 -2.5512 -0.7451
  781MOL0     O 7641   1.489   1.161   0.468  0.1880  0.5511  0.2130
  781MOL0     C 7642   1.580   1.213   0.530 -0.3703  0.4900 -0.3227
  781MOL0     O 7643   1.589   1.345   0.541  0.3771 -0.4120  0.1696
  781MOL0     C 7644   1.499   1.444   0.489 -1.1222 -0.0966 -0.2626
  781MOL0     C 7645   1.512   1.577   0.550  0.3643 -0.6047 -0.6113
  781MOL0     C 7646   1.425   1.677   0.507 -0.8286  0.2097 -0.4990
  781MOL0     C 7647   1.324   1.657   0.409 -0.0386  0.3279  0.1381
  781MOL0     O 7648   1.252   1.774   0.379 -0.3132 -0.6047 -0.4515
  781MOL0     C 7649   1.221   1.805   0.244  0.2254  0.1100 -0.1478
  781MOL0     C 7650   1.076   1.852   0.240 -0.2096  0.2385  0.7036
  781MOL0     C 7651   0.982   1.727   0.283 -0.5585  0.1992  0.9097
  781MOL0     C 7652   0.837   1.766   0.281  0.5473 -0.0522 -0.0799
  781MOL0     C 7653   0.745   1.654   0.233 -0.8732 -0.5890 -0.3997
  781MOL0     C 7654   0.697   1.571   0.349 -0.2968 -0.3089 -0.1316
  781MOL0     C 7655   0.625   1.446   0.305  0.2571 -0.8524 -0.0745
  781MOL0     C 7656   0.713   1.328   0.272 -0.5478 -0.1107  1.2486
  781MOL0     N 7657   0.797   1.289   0.379  0.4229 -0.1840 -0.1560
  781MOL0     C 7658   0.930   1.306   0.401 -0.0016 -0.7916  0.3072
  781MOL0     C 7659   0.952   1.248   0.523 -0.4440 -0.7251 -0.4101
  781MOL0     C 7660   1.086   1.248   0.599 -0.9986  0.2477 -1.2314
  781MOL0     C 7661   1.067   1.306   0.741 -0.4335  0.5961 -0.2137
  781MOL0     C 7662   1.199   1.353   0.819  0.2651 -0.2982 -0.8299
  781MOL0     C 7663   1.296   1.246   0.851 -0.6629  0.1982  0.6529
  781MOL0     O 7664   1.248   1.147   0.937  0.5331  0.2231 -0.5205
  781MOL0     C 7665   1.341   1.126   1.029 -0.6630 -0.1584  0.9871
  781MOL0     C 7666   1.455   1.054   0.992  0.4847  0.2446 -0.2437
  781MOL0     C 7667   1.558   1.018   1.090  0.6119  0.0871 -1.5204
  781MOL0     C 7668   1.666   0.924   1.052 -0.4158  0.0091 -0.8214
  781MOL0     C 7669   1.539   1.061   1.229 -0.0053  0.4830  0.6023
  781MOL0     C 7670   1.616   1.023   1.349 -0.4574 -0.0572  0.3173
  781MOL0     O 7671   1.671   0.894   1.358 -0.2592  0.4717  0.1267
  781MOL0     C 7672   1.714   0.848   1.483  0.2400 -0.3189  0.5377
  781MOL0     C 7673   1.656   0.735   1.540 -0.4162  0.0400 -0.0104
  781MOL0     C 7674   1.699   0.685   1.663 -0.1127  0.1194 -0.2035
  781MOL0     C 7675   1.784   0.755   1.742  0.0383  0.4551  0.2194
  781MOL0     O 7676   1.821   0.697   1.860  0.9431  0.2967 -0.5068
  781MOL0     C 7677   1.940   0.722   1.925  0.0930  0.2036  0.5380
  781MOL0     C 7678   1.919   0.654   2.063 -0.5174 -1.5621  0.5041
  781MOL0     C 7679   2.045   0.644   2.148  0.0966 -0.6371  0.5924
  781MOL0     C 7680   2.013   0.591   2.288 -0.6582  1.0665 -0.2580
  781MOL0     C 7681   2.150   0.579   2.370 -0.0392  0.3287  0.7115
  781MOL0     C 7682   2.199   0.711   2.420  0.5721  0.2817 -0.0666
  781MOL0     C 7683   2.152   0.742   2.566  0.9079  0.0289  0.4558
  781MOL0     C 7684   2.239   0.854   2.620  0.5651  1.3886  0.2259
  781MOL0    Cl 7685   2.212   0.852   2.794 -0.4961 -0.1976  0.2870
  781MOL0     C 7686   1.851   0.864   1.685  1.1435 -0.6235  0.5790
  781MOL0     C 7687   1.823   0.898   1.552 -0.1198 -0.1214 -0.0086
  781MOL0     O 7688   1.633   1.112   1.438 -0.0893  0.7148  0.3076
  781MOL0     C 7689   1.418   1.141   1.258  0.3890 -0.0201 -0.3718
  781MOL0     C 7690   1.332   1.185   1.155  0.5127  0.7701 -0.4728
  781MOL0     N 7691   0.829   1.209   0.574  0.9809 -0.3094 -0.1325
  781MOL0     N 7692   0.739   1.230   0.479 -0.4647  0.0916 -0.4814
  781MOL0     C 7693   1.317   1.535   0.348 -0.2064  0.1829  0.0673
  781MOL0     C 7694   1.404   1.433   0.390 -0.7401  0.4114  0.2600
  781MOL0     C 7695   1.702   1.133   0.576 -0.1576 -0.1453 -0.7643
  781MOL0     C 7696   1.733   1.018   0.506  0.8941 -0.7045  0.0378
  781MOL0     C 7697   1.837   0.941   0.546 -0.1261  0.1409  0.9315
  781MOL0     C 7698   1.905   0.966   0.655 -0.7664 -0.6616 -0.0656
  781MOL0     O 7699   2.003   0.876   0.691  0.3190 -0.7085 -0.1827
  781MOL0     C 7700   2.123   0.922   0.755  0.1413  0.0885  0.0550
  781MOL0     C 7701   2.238   0.815   0.754 -0.6432 -0.4046 -0.6607
  781MOL0     C 7702   2.217   0.685   0.841 -0.7306  0.4911 -0.4737
  781MOL0     C 7703   2.232   0.724   0.991  0.1414  0.2643  0.0529
  781MOL0     C 7704   2.106   0.761   1.052  0.4703  0.9804  0.3009
  781MOL0     C 7705   1.986   0.774   1.088 -0.6599  0.9245  0.4243
  781MOL0     C 7706   1.874   1.066   0.745  0.1463  0.2367 -0.8254
  781MOL0     C 7707   1.770   1.159   0.701  0.8392 -0.4552 -1.1268
  781MOL0     C 7708   1.741   1.272   0.791  0.4020 -0.0934 -0.4299
  781MOL0     H 7709   1.592   1.589   0.622  2.1454 -0.5279 -2.4985
  781MOL0     H 7710   1.434   1.771   0.561 -2.8364  0.2272 -0.1288
  781MOL0     H 7711   1.235   1.722   0.175 -2.4642  1.3870 -2.4005
  781MOL0     H 7712   1.292   1.882   0.211  1.5239  0.1178  2.3930
  781MOL0     H 7713   1.056   1.939   0.304 -0.8687 -0.5202  1.5649
  781MOL0     H 7714   1.052   1.886   0.139  0.7020  0.8871  0.6892
  781MOL0     H 7715   1.002   1.647   0.212  0.4203  0.1087  1.2682
  781MOL0     H 7716   1.006   1.702   0.387  0.0625 -2.2210  0.2427
  781MOL0     H 7717   0.807   1.797   0.382  2.4748  1.4092  0.0957
  781MOL0     H 7718   0.816   1.849   0.213  1.7172  0.8151  0.5742
  781MOL0     H 7719   0.796   1.590   0.160  2.9898  1.6750  0.0567
  781MOL0     H 7720   0.659   1.702   0.185 -1.6325  0.6916  2.1104
  781MOL0     H 7721   0.782   1.545   0.413 -1.0693 -2.3883  0.1362
  781MOL0     H 7722   0.635   1.635   0.411 -1.7648 -1.9155  0.1332
  781MOL0     H 7723   0.554   1.480   0.228 -0.3301  0.5367  1.0271
  781MOL0     H 7724   0.556   1.423   0.386  0.7576 -1.5866  0.1567
  781MOL0     H 7725   0.646   1.249   0.237 -1.3068 -0.0825  2.5721
  781MOL0     H 7726   0.772   1.369   0.190  1.3080  2.3379  3.6262
  781MOL0     H 7727   0.995   1.357   0.330 -1.5084 -1.4824 -1.6597
  781MOL0     H 7728   1.159   1.312   0.549  0.6547  0.1145  0.8774
  781MOL0     H 7729   1.117   1.143   0.599  0.8166  0.7347  0.3992
  781MOL0     H 7730   1.000   1.393   0.740 -1.1375  0.0747  0.4435
  781MOL0     H 7731   1.017   1.233   0.805 -2.7370  2.8549  0.7312
  781MOL0     H 7732   1.245   1.438   0.768 -2.0164  2.3117  1.1720
  781MOL0     H 7733   1.176   1.393   0.918 -1.0680  1.9257 -1.9541
  781MOL0     H 7734   1.343   1.215   0.757 -0.1098  0.5656  0.8051
  781MOL0     H 7735   1.382   1.296   0.898 -0.9487  0.5103  0.8480
  781MOL0     H 7736   1.467   1.019   0.890  2.8865 -2.3799  0.8195
  781MOL0     H 7737   1.753   0.973   1.098  1.6449 -4.1350  0.1400
  781MOL0     H 7738   1.678   0.906   0.945  1.9996 -3.4553 -0.1322
  781MOL0     H 7739   1.654   0.826   1.098 -3.5744 -1.1041 -3.6217
  781MOL0     H 7740   1.585   0.677   1.481  0.1922 -0.8071  0.0656
  781MOL0     H 7741   1.661   0.589   1.696  1.2842 -0.1509  0.7302
  781MOL0     H 7742   2.019   0.673   1.866 -1.4081 -0.3104 -1.1222
  781MOL0     H 7743   1.954   0.830   1.937 -1.0546  0.3691  0.5111
  781MOL0     H 7744   1.838   0.705   2.115 -1.9334 -0.0608 -2.8725
  781MOL0     H 7745   1.881   0.555   2.037 -1.4296 -1.2683  0.7065
  781MOL0     H 7746   2.099   0.738   2.158  0.2381 -0.7318  0.7177
  781MOL0     H 7747   2.111   0.571   2.102 -0.7909  0.7177 -3.1942
  781MOL0     H 7748   1.975   0.491   2.266 -0.3979  0.6349  1.1109
  781MOL0     H 7749   1.941   0.647   2.350  0.4421 -0.3967  2.5257
  781MOL0     H 7750   2.147   0.501   2.446 -0.8807 -0.9764 -0.5899
  781MOL0     H 7751   2.207   0.532   2.289 -2.0250  2.1794 -1.9869
  781MOL0     H 7752   2.167   0.801   2.368  0.7405  0.7259  0.5798
  781MOL0     H 7753   2.307   0.696   2.424  0.9882  0.8317 -4.5665
  781MOL0     H 7754   2.165   0.652   2.626  0.1853  0.8533  1.8968
  781MOL0     H 7755   2.046   0.766   2.554  1.0750  0.1014 -1.2096
  781MOL0     H 7756   2.209   0.945   2.567  0.9173 -0.0326 -2.5513
  781MOL0     H 7757   2.347   0.851   2.603  0.6612  0.6624  0.8987
  781MOL0     H 7758   1.921   0.930   1.736 -2.2522  1.9972  2.3209
  781MOL0     H 7759   1.863   0.992   1.515 -1.2081  1.7203  3.1256
  781MOL0     H 7760   1.401   1.181   1.357  2.4101  1.6683 -0.6491
  781MOL0     H 7761   1.239   1.239   1.172 -0.9167 -1.7055  0.0042
  781MOL0     H 7762   1.258   1.519   0.259  2.7656  0.9430 -2.1785
  781MOL0     H 7763   1.402   1.340   0.333  1.7834  0.6759 -0.3584
  781MOL0     H 7764   1.678   1.004   0.414 -0.2284 -0.6415  0.6834
  781MOL0     H 7765   1.865   0.861   0.478 -1.1888 -0.4552  1.1680
  781MOL0     H 7766   2.168   1.013   0.713  1.0354  0.8233  2.3974
  781MOL0     H 7767   2.089   0.951   0.855  0.1959 -0.1286  0.1360
  781MOL0     H 7768   2.330   0.861   0.789  0.6685 -3.3079  0.0340
  781MOL0     H 7769   2.254   0.783   0.651 -0.2593 -1.6178 -0.2444
  781MOL0     H 7770   2.115   0.646   0.831 -0.9095  0.9953 -0.6223
  781MOL0     H 7771   2.289   0.614   0.800  0.1551  0.5247  0.9723
  781MOL0     H 7772   2.291   0.815   1.005 -4.6335  3.8761 -0.7547
  781MOL0     H 7773   2.271   0.635   1.041 -2.2651 -0.4806  0.7353
  781MOL0     H 7774   1.883   0.785   1.117 -2.4024 -2.7997 -3.1572
  781MOL0     H 7775   1.930   1.074   0.837 -0.4910 -5.3210  0.4478
  781MOL0     H 7776   1.756   1.360   0.728  3.6977 -0.6565 -0.6462
  781MOL0     H 7777   1.644   1.280   0.841  1.2327  2.0936  1.0391
  781MOL0     H 7778   1.813   1.275   0.874  2.3190 -2.2486 -1.8952
  782MOL0     O 7779  10.167   6.535   5.534  0.1332  0.0639  0.3422
  782MOL0     C 7780  10.236   6.554   5.638  0.0175 -0.4922 -0.1330
  782MOL0     O 7781  10.242   6.681   5.699 -0.2911  0.6214 -0.3246
  782MOL0     C 7782  10.160   6.778   5.648  0.4637  0.2268 -0.2825
  782MOL0     C 7783  10.190   6.843   5.525 -0.5409  0.0653  0.1135
  782MOL0     C 7784  10.105   6.948   5.475 -0.1284  0.5664  1.3976
  782MOL0     C 7785   9.991   6.979   5.536  0.0967 -0.0424  0.5934
  782MOL0     O 7786   9.911   7.071   5.482 -0.5982 -0.5087 -0.5388
  782MOL0     C 7787   9.781   7.085   5.522 -0.1704 -0.2000 -0.0577
  782MOL0     C 7788   9.730   7.212   5.463  0.1863  1.0031  0.0174
  782MOL0     C 7789   9.790   7.324   5.551 -0.6205 -0.9658  0.4135
  782MOL0     C 7790   9.676   7.393   5.634 -0.8181  0.1509  0.5136
  782MOL0     C 7791   9.719   7.525   5.691 -0.5080  0.2053 -0.2913
  782MOL0     C 7792   9.597   7.605   5.741  0.6776  0.0405  0.6761
  782MOL0     C 7793   9.664   7.716   5.815 -0.3770  0.2653 -0.1678
  782MOL0     C 7794   9.568   7.821   5.863  1.2197 -0.4655 -0.6899
  782MOL0     N 7795   9.613   7.884   5.987 -0.0089 -0.2213 -0.4402
  782MOL0     C 7796   9.711   7.974   6.018  0.1995 -0.3834 -0.9933
  782MOL0     C 7797   9.732   7.979   6.152 -0.3006 -0.4463  0.8001
  782MOL0     C 7798   9.810   8.064   6.245  0.8917 -0.6499 -0.1710
  782MOL0     C 7799   9.719   8.122   6.366 -0.1164 -1.1097 -0.0775
  782MOL0     C 7800   9.779   8.252   6.419  0.0698 -0.3660  0.4864
  782MOL0     C 7801   9.923   8.252   6.447 -0.6205  0.0813 -0.7737
  782MOL0     O 7802   9.957   8.362   6.526 -0.3293 -0.1526  0.0736
  782MOL0     C 7803  10.082   8.409   6.515 -0.0805  0.2783 -0.7103
  782MOL0     C 7804  10.112   8.528   6.579  0.6542  1.3471 -1.2736
  782MOL0     C 7805  10.239   8.580   6.575 -0.1735  0.5327  0.5569
  782MOL0     C 7806  10.249   8.705   6.656  0.4219  0.7112 -0.1620
  782MOL0     C 7807  10.348   8.517   6.508  0.6853 -0.6032 -0.4641
  782MOL0     C 7808  10.479   8.583   6.517 -0.1970  1.3379  0.1298
  782MOL0     O 7809  10.473   8.719   6.508 -1.4823 -0.2359 -0.2408
  782MOL0     C 7810  10.596   8.785   6.490 -1.0172  0.5827  0.4759
  782MOL0     C 7811  10.608   8.868   6.382 -0.0912 -0.7778  0.4581
  782MOL0     C 7812  10.723   8.953   6.360  0.4536  0.0139 -0.0047
  782MOL0     C 7813  10.834   8.936   6.442 -0.0921 -0.0952 -0.6569
  782MOL0     O 7814  10.935   9.028   6.430 -0.3711  0.5836  0.0845
  782MOL0     C 7815  11.032   9.047   6.530  0.3471  0.0958 -0.8057
  782MOL0     C 7816  11.153   8.956   6.529  1.2240 -0.5750  0.3240
  782MOL0     C 7817  11.235   8.955   6.655  0.4352 -0.1207 -0.0371
  782MOL0     C 7818  11.357   8.872   6.638 -0.3564 -0.2857  0.1347
  782MOL0     C 7819  11.422   8.828   6.764  0.5672 -0.1780 -0.5097
  782MOL0     C 7820  11.528   8.712   6.752  0.2207 -0.0484  0.4603
  782MOL0     C 7821  11.664   8.749   6.690  0.1065 -0.2426 -0.4819
  782MOL0     C 7822  11.745   8.629   6.642  0.5899 -0.0159  0.4452
  782MOL0    Cl 7823  11.884   8.684   6.539  0.2735  0.0851 -0.0934
  782MOL0     C 7824  10.826   8.841   6.547  0.5874 -0.2253  0.1280
  782MOL0     C 7825  10.708   8.777   6.577  0.3628  0.8282  1.0891
  782MOL0     O 7826  10.574   8.507   6.513  0.5131  0.5266  0.5950
  782MOL0     C 7827  10.326   8.392   6.452  0.2902 -0.4189  0.4028
  782MOL0     C 7828  10.194   8.343   6.454  0.0196  0.5955  0.2153
  782MOL0     N 7829   9.638   7.891   6.201 -0.1826  0.4870 -0.0927
  782MOL0     N 7830   9.565   7.840   6.106 -0.1439 -0.2888  0.1810
  782MOL0     C 7831   9.962   6.900   5.645  0.1261 -0.3784 -0.3734
  782MOL0     C 7832  10.041   6.814   5.714 -0.7401  0.1089 -0.8551
  782MOL0     C 7833  10.330   6.447   5.687 -0.0900 -0.2690 -0.3878
  782MOL0     C 7834  10.425   6.482   5.783  0.8559 -0.1561  0.6385
  782MOL0     C 7835  10.519   6.385   5.827  0.3898 -0.3407 -0.7313
  782MOL0     C 7836  10.506   6.252   5.792  0.3333  0.0532  0.6541
  782MOL0     O 7837  10.590   6.153   5.828 -0.1920  0.0402 -0.0723
  782MOL0     C 7838  10.695   6.173   5.922  0.5744 -0.3701  1.4302
  782MOL0     C 7839  10.780   6.053   5.934 -1.1817  0.6677 -0.4900
  782MOL0     C 7840  10.926   6.095   5.972  0.2512  0.2822 -0.2391
  782MOL0     C 7841  11.007   5.978   6.008  0.2031  0.4523 -0.1057
  782MOL0     C 7842  11.134   6.019   6.072  0.0897  0.3615 -0.7019
  782MOL0     C 7843  11.244   6.042   6.115 -0.4286  0.8303  0.1411
  782MOL0     C 7844  10.405   6.214   5.704 -0.0602 -1.4663  0.4413
  782MOL0     C 7845  10.312   6.311   5.654  0.2215  0.1233  0.5333
  782MOL0     C 7846  10.189   6.253   5.583 -1.3844 -0.1997 -0.6959
  782MOL0     H 7847  10.283   6.819   5.473 -1.7507 -0.3596 -1.9529
  782MOL0     H 7848  10.134   6.989   5.379  0.7482 -1.0035  0.9423
  782MOL0     H 7849   9.768   7.090   5.630  0.0862 -2.5861  0.1391
  782MOL0     H 7850   9.724   7.001   5.482 -1.0823  1.0221 -1.4382
  782MOL0     H 7851   9.769   7.219   5.361  0.3868 -1.2113 -0.0966
  782MOL0     H 7852   9.621   7.203   5.468  0.3278 -2.9179 -0.7834
  782MOL0     H 7853   9.868   7.289   5.619  1.2152  0.9518 -0.5819
  782MOL0     H 7854   9.837   7.399   5.486 -1.1260 -1.2513 -0.3014
  782MOL0     H 7855   9.591   7.406   5.566  1.5823  0.4156 -2.6814
  782MOL0     H 7856   9.639   7.324   5.710 -0.1452 -0.2118  0.5157
  782MOL0     H 7857   9.778   7.599   5.635 -1.0362  1.3038  0.5645
  782MOL0     H 7858   9.781   7.507   5.779  2.0758  1.4501 -1.7355
  782MOL0     H 7859   9.533   7.644   5.660  1.9444 -0.1498 -0.4475
  782MOL0     H 7860   9.541   7.548   5.815  0.1304 -0.3902 -0.0479
  782MOL0     H 7861   9.730   7.763   5.741 -0.8343  1.4529  0.1672
  782MOL0     H 7862   9.721   7.670   5.897  3.4613 -2.4839 -3.9332
  782MOL0     H 7863   9.541   7.901   5.793 -3.4155 -1.2168 -0.0348
  782MOL0     H 7864   9.472   7.771   5.880  0.9684 -0.2111 -1.3137
  782MOL0     H 7865   9.772   8.030   5.948 -0.1535 -0.4929 -1.3913
  782MOL0     H 7866   9.852   8.141   6.181 -1.2581  0.0297 -0.8442
  782MOL0     H 7867   9.889   8.013   6.302 -0.0452 -2.1761 -0.1700
  782MOL0     H 7868   9.620   8.141   6.323 -0.2948  0.1096  0.8156
  782MOL0     H 7869   9.707   8.044   6.442  0.8063  0.1702  1.4474
  782MOL0     H 7870   9.759   8.341   6.359  2.1044 -0.0770  0.1440
  782MOL0     H 7871   9.723   8.271   6.510  0.6661 -0.0187  0.7834
  782MOL0     H 7872   9.943   8.167   6.513  0.3653 -1.3450 -2.8153
  782MOL0     H 7873   9.985   8.241   6.357  2.1911 -0.2736  1.0534
  782MOL0     H 7874  10.035   8.579   6.637  0.4169  0.5606 -0.8823
  782MOL0     H 7875  10.160   8.725   6.717  0.4701 -1.2965  0.6595
  782MOL0     H 7876  10.264   8.786   6.584  2.2818 -0.9549 -1.7617
  782MOL0     H 7877  10.328   8.703   6.732 -0.9266  0.0980  1.2925
  782MOL0     H 7878  10.534   8.881   6.304  2.5307  3.5821 -1.6986
  782MOL0     H 7879  10.721   9.031   6.284  1.8361  0.1973  0.1236
  782MOL0     H 7880  11.059   9.153   6.523 -1.4468  0.6109 -0.3178
  782MOL0     H 7881  10.984   9.035   6.628 -0.8417  1.3529 -1.2071
  782MOL0     H 7882  11.118   8.852   6.524  2.5604 -1.1657  2.2685
  782MOL0     H 7883  11.221   8.976   6.446  0.2854  3.1546  0.2679
  782MOL0     H 7884  11.173   8.925   6.740  2.1109  0.6483  1.5045
  782MOL0     H 7885  11.262   9.056   6.684 -0.1179  0.5075 -1.6042
  782MOL0     H 7886  11.437   8.923   6.584  1.0819 -2.9159 -0.4021
  782MOL0     H 7887  11.332   8.778   6.588 -2.8967  0.6865 -0.5862
  782MOL0     H 7888  11.465   8.919   6.806 -1.8721  0.4822  0.7647
  782MOL0     H 7889  11.341   8.802   6.833 -0.7722  1.7729 -1.2410
  782MOL0     H 7890  11.485   8.628   6.696  0.3900  1.0080 -1.3285
  782MOL0     H 7891  11.545   8.675   6.853 -0.1324 -1.8913 -0.1120
  782MOL0     H 7892  11.726   8.802   6.762  0.7400 -0.0124 -1.1929
  782MOL0     H 7893  11.640   8.802   6.598 -5.7676 -2.9447 -0.9877
  782MOL0     H 7894  11.676   8.557   6.595  1.7178 -4.1673  4.3415
  782MOL0     H 7895  11.774   8.575   6.733 -2.1605  1.6122  2.4660
  782MOL0     H 7896  10.907   8.814   6.615 -1.4115 -0.6051  2.5178
  782MOL0     H 7897  10.709   8.703   6.657 -1.5254 -1.4216 -0.7978
  782MOL0     H 7898  10.408   8.353   6.393 -0.2552  0.9122 -1.3202
  782MOL0     H 7899  10.178   8.251   6.399 -0.6706  1.1115 -0.4642
  782MOL0     H 7900   9.866   6.930   5.686 -0.8007  0.0946 -2.7288
  782MOL0     H 7901  10.000   6.769   5.803  0.6559  0.7895  0.1620
  782MOL0     H 7902  10.429   6.580   5.829  0.2765 -1.0918  2.7768
  782MOL0     H 7903  10.599   6.415   5.895  0.0783 -2.1441  0.4856
  782MOL0     H 7904  10.765   6.251   5.889  0.8917  0.1277  3.1692
  782MOL0     H 7905  10.660   6.194   6.023 -0.1115 -1.7612  1.5021
  782MOL0     H 7906  10.787   5.996   5.841 -2.5345 -3.9584  1.9576
  782MOL0     H 7907  10.742   5.988   6.013 -0.1411 -0.6626 -1.0494
  782MOL0     H 7908  10.983   6.134   5.886 -0.2711  0.8216 -0.3468
  782MOL0     H 7909  10.925   6.173   6.048  1.1157  2.5539 -2.4101
  782MOL0     H 7910  11.031   5.923   5.917  1.4752  1.7790 -0.6070
  782MOL0     H 7911  10.952   5.914   6.079  0.6042  2.4609  2.1278
  782MOL0     H 7912  11.332   6.050   6.176  0.7271  0.8099 -1.4606
  782MOL0     H 7913  10.381   6.110   5.688 -0.1400 -1.8147  2.5782
  782MOL0     H 7914  10.095   6.274   5.635 -1.5596  0.3658 -1.2322
  782MOL0     H 7915  10.190   6.303   5.486  1.6631  2.0420  0.3605
  782MOL0     H 7916  10.188   6.144   5.575  0.6911 -0.2866 -0.2124
  783MOL0     O 7917   5.633  11.192   1.090 -0.3614 -0.0786  0.1911
  783MOL0     C 7918   5.645  11.075   1.123 -0.4714 -0.0166 -0.3386
  783MOL0     O 7919   5.548  10.996   1.182 -0.4317  0.5122  0.1586
  783MOL0     C 7920   5.424  11.048   1.212  0.2276 -1.1201  0.0587
  783MOL0     C 7921   5.328  10.959   1.261 -0.7961  0.7400 -0.3875
  783MOL0     C 7922   5.196  10.990   1.297 -0.4210 -1.0303  0.1618
  783MOL0     C 7923   5.152  11.124   1.288 -0.5109 -0.3041 -0.6124
  783MOL0     O 7924   5.029  11.176   1.333  0.0282 -0.3503 -0.2626
  783MOL0     C 7925   5.000  11.149   1.473  0.5270  0.6337 -0.4593
  783MOL0     C 7926   5.014  11.277   1.550  0.1917  0.3912  0.3396
  783MOL0     C 7927   5.029  11.237   1.698 -0.5892  0.1787 -0.2681
  783MOL0     C 7928   5.043  11.349   1.799 -0.7218  0.0901  0.3140
  783MOL0     C 7929   5.006  11.299   1.945  0.3450 -0.5039 -0.8820
  783MOL0     C 7930   5.075  11.183   2.002 -0.0570 -0.9540  0.8989
  783MOL0     C 7931   5.208  11.223   2.065  0.8296 -0.3670  0.2517
  783MOL0     C 7932   5.202  11.300   2.192  0.2763 -0.7233 -0.6773
  783MOL0     N 7933   5.142  11.222   2.309 -0.4523 -0.5250 -0.6671
  783MOL0     C 7934   5.194  11.105   2.361 -0.4291  1.2878  1.3006
  783MOL0     C 7935   5.126  11.092   2.477  0.4067 -0.4783  0.0509
  783MOL0     C 7936   5.154  10.976   2.565  1.0479  0.1238  0.0951
  783MOL0     C 7937   5.284  10.988   2.639 -0.2132 -0.4489 -0.1208
  783MOL0     C 7938   5.297  10.860   2.727  0.5410  0.1748  0.2661
  783MOL0     C 7939   5.421  10.870   2.822  0.0784 -0.6696  0.2584
  783MOL0     O 7940   5.425  10.749   2.891  0.8063  0.4991 -0.5491
  783MOL0     C 7941   5.497  10.729   2.998  1.1054  0.1237 -0.0956
  783MOL0     C 7942   5.632  10.742   2.982  0.1428 -0.3595  0.1636
  783MOL0     C 7943   5.713  10.716   3.095 -0.0220 -0.7272 -0.1666
  783MOL0     C 7944   5.863  10.702   3.065  0.5028 -0.6008  0.4787
  783MOL0     C 7945   5.656  10.680   3.223  0.6140 -0.0361 -0.5014
  783MOL0     C 7946   5.739  10.649   3.351  0.2797 -0.3245 -0.1029
  783MOL0     O 7947   5.660  10.606   3.461  0.3563  0.0037 -0.9631
  783MOL0     C 7948   5.725  10.574   3.570 -0.1976  0.1807 -1.2662
  783MOL0     C 7949   5.693  10.662   3.671 -0.7362  0.3551 -0.1745
  783MOL0     C 7950   5.723  10.615   3.797 -1.0467 -0.2656 -0.4197
  783MOL0     C 7951   5.817  10.513   3.823  0.7648 -0.5016  0.2755
  783MOL0     O 7952   5.867  10.482   3.947  0.2840 -0.4359  0.4425
  783MOL0     C 7953   5.864  10.592   4.040 -0.2023  0.4115 -0.3287
  783MOL0     C 7954   5.925  10.541   4.170 -0.0844 -0.4695  0.1225
  783MOL0     C 7955   6.032  10.641   4.212  0.1250 -0.8559 -0.2316
  783MOL0     C 7956   5.980  10.783   4.254 -0.3196  0.0490  0.6725
  783MOL0     C 7957   6.077  10.862   4.334 -0.5424 -0.0213 -0.1810
  783MOL0     C 7958   6.201  10.892   4.261  0.2109 -0.4445 -0.2347
  783MOL0     C 7959   6.292  10.987   4.334 -0.0525  0.4977 -0.7764
  783MOL0     C 7960   6.417  11.019   4.247  0.3093  0.1801 -0.2937
  783MOL0    Cl 7961   6.564  10.955   4.315  0.0619  0.5901  0.2656
  783MOL0     C 7962   5.858  10.436   3.721  0.1082 -0.2914 -0.0077
  783MOL0     C 7963   5.810  10.467   3.588 -0.2801 -0.0904 -0.2894
  783MOL0     O 7964   5.863  10.654   3.343 -0.5448 -0.1475 -0.8712
  783MOL0     C 7965   5.517  10.668   3.230  0.5206 -0.1199 -0.7127
  783MOL0     C 7966   5.437  10.695   3.124  0.5505  0.1556  0.1727
  783MOL0     N 7967   5.037  11.194   2.495 -0.6218  0.6821  0.4928
  783MOL0     N 7968   5.043  11.266   2.389  0.5140 -0.1740 -0.1789
  783MOL0     C 7969   5.245  11.224   1.247  0.2526  0.7975 -0.2687
  783MOL0     C 7970   5.375  11.187   1.212  0.2554  0.1517  1.2000
  783MOL0     C 7971   5.790  11.027   1.103  0.1748  0.2118  0.2612
  783MOL0     C 7972   5.799  10.886   1.108  0.4119  0.6061  0.2739
  783MOL0     C 7973   5.913  10.815   1.062 -0.2740 -0.3743  0.0111
  783MOL0     C 7974   6.026  10.884   1.008 -0.1995 -0.1040 -0.1368
  783MOL0     O 7975   6.138  10.825   0.952 -0.2301 -0.3646 -0.3253
  783MOL0     C 7976   6.243  10.797   1.040  0.5573 -0.3558 -0.4010
  783MOL0     C 7977   6.220  10.680   1.132 -0.0877  0.3420 -0.4547
  783MOL0     C 7978   6.193  10.553   1.048 -0.4804  1.8146 -0.0036
  783MOL0     C 7979   6.109  10.445   1.130  0.0133 -0.2836  0.6412
  783MOL0     C 7980   6.186  10.391   1.245  0.3634  0.9556 -0.1350
  783MOL0     C 7981   6.252  10.349   1.330  0.1699 -0.5680 -0.2461
  783MOL0     C 7982   6.016  11.028   1.027 -0.4614 -0.0878  0.4774
  783MOL0     C 7983   5.902  11.097   1.060 -0.0164 -0.7661 -0.6910
  783MOL0     C 7984   5.901  11.247   1.060  0.2136 -0.1604  0.1017
  783MOL0     H 7985   5.355  10.856   1.283  0.9825  1.8130  3.3668
  783MOL0     H 7986   5.123  10.917   1.329  0.0090 -0.7881  1.7463
  783MOL0     H 7987   5.062  11.071   1.517  0.2849  0.8960  0.3627
  783MOL0     H 7988   4.901  11.103   1.473  1.0627 -0.5871 -1.4809
  783MOL0     H 7989   5.103  11.330   1.515  0.0080  2.0429  2.2467
  783MOL0     H 7990   4.934  11.351   1.540 -0.8234 -0.6468  0.5692
  783MOL0     H 7991   4.932  11.189   1.712 -0.4682  0.3197  1.1689
  783MOL0     H 7992   5.101  11.158   1.722  0.6763  0.9776 -1.3242
  783MOL0     H 7993   5.150  11.373   1.800 -1.4995  4.3425  0.8816
  783MOL0     H 7994   4.989  11.436   1.762  1.0247  0.1675 -2.3989
  783MOL0     H 7995   4.899  11.281   1.935 -0.0068  1.6798 -1.6470
  783MOL0     H 7996   5.022  11.386   2.010 -1.3240  0.6413 -1.9101
  783MOL0     H 7997   5.011  11.129   2.072 -0.0317 -2.8332 -0.4340
  783MOL0     H 7998   5.080  11.107   1.923 -2.8222 -1.9521  1.5899
  783MOL0     H 7999   5.261  11.284   1.993  0.0383 -0.8807 -0.7907
  783MOL0     H 8000   5.262  11.130   2.086  1.5359  0.3847  2.0520
  783MOL0     H 8001   5.306  11.329   2.210  0.7030 -1.7354 -1.4294
  783MOL0     H 8002   5.141  11.391   2.186  1.0731  0.2482  3.1220
  783MOL0     H 8003   5.285  11.060   2.324 -0.0048  3.8297 -1.0270
  783MOL0     H 8004   5.163  10.885   2.504  1.6465  0.2027  0.0586
  783MOL0     H 8005   5.068  10.975   2.632  1.2080  1.7688  0.3519
  783MOL0     H 8006   5.363  11.000   2.564 -0.7744 -0.5913 -0.7434
  783MOL0     H 8007   5.295  11.079   2.699  0.9707  2.6200 -4.5172
  783MOL0     H 8008   5.208  10.854   2.791 -0.7433  1.1650 -1.3104
  783MOL0     H 8009   5.291  10.765   2.673  1.2482 -0.7089  1.6891
  783MOL0     H 8010   5.516  10.902   2.779  0.8207 -0.4399  1.9959
  783MOL0     H 8011   5.388  10.950   2.890 -1.3189 -0.8223 -0.2047
  783MOL0     H 8012   5.674  10.776   2.888 -2.6931  0.7942 -0.8139
  783MOL0     H 8013   5.925  10.771   3.122  2.1382  0.7891 -2.6937
  783MOL0     H 8014   5.891  10.716   2.960  0.6802 -0.7031  0.5114
  783MOL0     H 8015   5.897  10.601   3.092  0.6130 -1.0456 -1.2116
  783MOL0     H 8016   5.626  10.745   3.649 -1.9051 -0.0730  1.5417
  783MOL0     H 8017   5.682  10.671   3.880 -1.6414  0.4871 -1.2054
  783MOL0     H 8018   5.922  10.679   4.007 -0.2220  0.9418  0.9901
  783MOL0     H 8019   5.763  10.628   4.062  0.7208  1.9205  1.6864
  783MOL0     H 8020   5.856  10.529   4.254  3.0103 -0.7696  2.8214
  783MOL0     H 8021   5.973  10.445   4.147  0.6240 -0.4141  1.3149
  783MOL0     H 8022   6.113  10.649   4.139  1.4761  0.0417  1.2919
  783MOL0     H 8023   6.084  10.595   4.297  0.2558  2.7049  1.8502
  783MOL0     H 8024   5.896  10.764   4.322  2.0806 -2.5179  3.1713
  783MOL0     H 8025   5.942  10.833   4.164  0.3210 -1.6919 -0.6288
  783MOL0     H 8026   6.017  10.949   4.362  1.5298  0.8527  2.0062
  783MOL0     H 8027   6.111  10.801   4.419 -0.5460 -0.8806 -0.7867
  783MOL0     H 8028   6.173  10.935   4.164 -0.3499  0.4236  0.3027
  783MOL0     H 8029   6.249  10.797   4.235  0.2871 -0.5482  0.2744
  783MOL0     H 8030   6.318  10.939   4.429 -0.8612  2.7283  0.6620
  783MOL0     H 8031   6.242  11.083   4.354 -1.7216 -0.2855 -1.0686
  783MOL0     H 8032   6.414  11.124   4.216 -2.1591  0.1227 -0.4670
  783MOL0     H 8033   6.396  10.960   4.158 -3.5680  0.8014  0.0101
  783MOL0     H 8034   5.910  10.341   3.721  1.4593  0.4282  0.6507
  783MOL0     H 8035   5.829  10.405   3.502  3.8757 -0.7631  0.9065
  783MOL0     H 8036   5.456  10.642   3.316  3.2120 -2.6133  0.6417
  783MOL0     H 8037   5.330  10.680   3.116  0.6400 -0.0401 -0.7500
  783MOL0     H 8038   5.215  11.328   1.238  2.0180  1.1705 -2.5478
  783MOL0     H 8039   5.433  11.266   1.166 -0.9843  2.3386  3.1542
  783MOL0     H 8040   5.713  10.829   1.139  1.5356  0.3575  3.2994
  783MOL0     H 8041   5.911  10.707   1.072 -0.3538 -0.2063  2.3147
  783MOL0     H 8042   6.329  10.784   0.975 -0.5025  1.1213 -2.1970
  783MOL0     H 8043   6.262  10.877   1.113  0.6957 -2.3999  1.9293
  783MOL0     H 8044   6.137  10.693   1.202  1.0975  2.0995  0.7157
  783MOL0     H 8045   6.303  10.669   1.202 -0.9307  1.6170  0.8009
  783MOL0     H 8046   6.119  10.576   0.971 -0.1496 -0.6653 -1.1671
  783MOL0     H 8047   6.276  10.512   0.990  0.4685  2.8736  0.5665
  783MOL0     H 8048   6.079  10.366   1.061 -1.4437  2.0875 -1.5986
  783MOL0     H 8049   6.019  10.496   1.164 -0.0615  1.7327 -2.2455
  783MOL0     H 8050   6.305  10.295   1.406  1.6049  0.9658 -0.1141
  783MOL0     H 8051   6.104  11.088   1.006  0.2698 -0.4021  2.3723
  783MOL0     H 8052   6.000  11.287   1.086  0.5808  0.2053 -1.7558
  783MOL0     H 8053   5.875  11.284   0.961 -3.9922  0.6595  1.2885
  783MOL0     H 8054   5.830  11.292   1.131 -0.7551 -0.2005 -0.8229
  784MOL0     O 8055   9.393  10.176  11.482  0.1389  0.2437 -0.4954
  784MOL0     C 8056   9.322  10.149  11.573 -0.5340 -0.0337  0.1413
  784MOL0     O 8057   9.362  10.100  11.698  0.3247 -0.8206 -0.0618
  784MOL0     C 8058   9.483  10.044  11.718 -0.7034 -0.2598 -0.3286
  784MOL0     C 8059   9.558   9.959  11.643 -0.2204  0.7998 -0.3254
  784MOL0     C 8060   9.676   9.897  11.688 -0.6661 -0.1358  0.2482
  784MOL0     C 8061   9.731   9.919  11.817 -0.0222  0.3350 -0.1198
  784MOL0     O 8062   9.835   9.863  11.878 -0.1389 -0.1735  0.3302
  784MOL0     C 8063   9.911   9.763  11.812 -0.2083 -0.2018  0.2318
  784MOL0     C 8064   9.974   9.680  11.924  0.8492  0.7682  0.4547
  784MOL0     C 8065  10.072   9.589  11.880 -1.0010  0.3304 -0.4255
  784MOL0     C 8066  10.017   9.468  11.810  0.1543 -0.2326  0.2266
  784MOL0     C 8067  10.136   9.365  11.789  0.8304 -0.6393 -0.0953
  784MOL0     C 8068  10.223   9.397  11.670  0.2805  0.8057  0.6367
  784MOL0     C 8069  10.334   9.297  11.659  0.1339  0.2902 -0.6443
  784MOL0     C 8070  10.427   9.303  11.536  0.9307  0.1351 -0.4034
  784MOL0     N 8071  10.529   9.198  11.532 -0.0988 -0.6576 -0.5978
  784MOL0     C 8072  10.534   9.105  11.436 -0.1435 -0.1223 -0.8589
  784MOL0     C 8073  10.647   9.035  11.467 -0.0336 -0.2130  0.3966
  784MOL0     C 8074  10.703   8.916  11.390  0.2145 -0.7470  0.1019
  784MOL0     C 8075  10.615   8.793  11.431 -0.6218  0.4049 -0.4040
  784MOL0     C 8076  10.676   8.666  11.377  0.3284  0.8587 -0.3630
  784MOL0     C 8077  10.778   8.602  11.470  0.7527  0.4240 -0.5436
  784MOL0     O 8078  10.862   8.703  11.527  0.2807  0.1133 -0.8984
  784MOL0     C 8079  10.955   8.661  11.623 -0.0645  0.7467  0.4578
  784MOL0     C 8080  11.010   8.535  11.632  0.4596 -0.1006 -1.1515
  784MOL0     C 8081  11.112   8.506  11.726 -0.2699 -0.3188  0.9621
  784MOL0     C 8082  11.182   8.371  11.739 -0.3563 -0.1337  0.1587
  784MOL0     C 8083  11.154   8.617  11.812 -0.0728  0.5626  0.7560
  784MOL0     C 8084  11.260   8.601  11.910 -0.1814 -0.2087 -0.6496
  784MOL0     O 8085  11.323   8.723  11.931  0.5409 -0.5291 -0.0875
  784MOL0     C 8086  11.419   8.716  12.023  0.0338 -0.8930  0.5495
  784MOL0     C 8087  11.401   8.676  12.163  1.4805 -0.1481  0.4957
  784MOL0     C 8088  11.499   8.692  12.251 -0.2492 -0.1263 -0.3641
  784MOL0     C 8089  11.627   8.722  12.209 -0.0518 -0.8620  0.4369
  784MOL0     O 8090  11.737   8.715  12.286  0.2633 -0.1355  0.2439
  784MOL0     C 8091  11.752   8.581  12.345 -0.4639 -0.1029  0.3459
  784MOL0     C 8092  11.887   8.566  12.416  0.2234  0.3130 -0.5732
  784MOL0     C 8093  11.905   8.423  12.472  1.2600 -0.7759 -0.3999
  784MOL0     C 8094  11.881   8.315  12.369  0.2645  0.1062 -0.3938
  784MOL0     C 8095  11.935   8.181  12.424  1.1934 -0.0188 -0.2561
  784MOL0     C 8096  11.908   8.068  12.336 -0.5066  0.6892  0.5904
  784MOL0     C 8097  11.959   7.938  12.406  1.2788  0.2159  0.9540
  784MOL0     C 8098  11.960   7.814  12.304 -0.3128 -0.7432 -0.9130
  784MOL0    Cl 8099  11.815   7.816  12.212  0.1257  0.9016  0.0564
  784MOL0     C 8100  11.654   8.756  12.081 -0.4810  0.2893  0.4091
  784MOL0     C 8101  11.545   8.769  11.987  0.3267  0.2157  0.5925
  784MOL0     O 8102  11.274   8.501  11.979 -0.6921  0.8038  0.7608
  784MOL0     C 8103  11.094   8.747  11.803  0.3563  0.0627  0.4528
  784MOL0     C 8104  11.007   8.766  11.697  0.1842  0.1658  0.1017
  784MOL0     N 8105  10.707   9.087  11.582  0.7967 -0.6016  0.1042
  784MOL0     N 8106  10.624   9.180  11.628  0.1934  0.2008 -0.1563
  784MOL0     C 8107   9.669  10.011  11.889 -0.1144 -0.7896 -0.0422
  784MOL0     C 8108   9.549  10.077  11.841 -0.0628 -0.4877 -0.0232
  784MOL0     C 8109   9.175  10.160  11.554  1.1109 -0.1330 -0.2918
  784MOL0     C 8110   9.094  10.064  11.612  0.3659 -0.4593 -0.4599
  784MOL0     C 8111   8.965  10.046  11.561 -0.0574 -1.0647  0.0108
  784MOL0     C 8112   8.915  10.132  11.471  0.9289 -0.2437  0.5244
  784MOL0     O 8113   8.788  10.100  11.437  0.1650 -0.0451  0.0732
  784MOL0     C 8114   8.753  10.078  11.299  0.6422 -0.2699  0.3381
  784MOL0     C 8115   8.701   9.932  11.302 -0.1895  0.2426  0.3115
  784MOL0     C 8116   8.572   9.899  11.379 -0.1519 -0.3850  0.2241
  784MOL0     C 8117   8.443   9.964  11.322  0.2167 -0.6578  0.1706
  784MOL0     C 8118   8.392   9.903  11.202 -0.3986  0.1110 -0.3330
  784MOL0     C 8119   8.346   9.845  11.105  0.1332  0.1560 -0.2467
  784MOL0     C 8120   8.990  10.232  11.409  0.2274 -0.1102  0.2460
  784MOL0     C 8121   9.114  10.248  11.456 -0.0106  0.8560 -0.4637
  784MOL0     C 8122   9.197  10.354  11.382 -0.4761 -0.4276 -0.4700
  784MOL0     H 8123   9.538   9.933  11.539  4.2984 -1.4218 -0.9070
  784MOL0     H 8124   9.713   9.812  11.632 -2.0438 -0.4836 -0.1648
  784MOL0     H 8125   9.987   9.796  11.741 -0.7580 -3.8933 -2.3585
  784MOL0     H 8126   9.833   9.704  11.762 -0.2537 -0.2708  0.3854
  784MOL0     H 8127  10.028   9.749  11.990  0.3450  1.4116  0.2029
  784MOL0     H 8128   9.896   9.635  11.986 -1.3784  3.5561 -0.1151
  784MOL0     H 8129  10.147   9.651  11.831  1.0040 -1.1120  0.6420
  784MOL0     H 8130  10.113   9.545  11.971 -1.2950 -0.0344 -0.4661
  784MOL0     H 8131   9.941   9.422  11.873  1.5046 -2.9290  0.0399
  784MOL0     H 8132   9.973   9.497  11.715  2.7465 -0.1760 -1.0585
  784MOL0     H 8133  10.077   9.274  11.774  0.2915 -0.1615 -0.9927
  784MOL0     H 8134  10.202   9.363  11.877 -1.9332 -2.2744  2.1032
  784MOL0     H 8135  10.165   9.382  11.578  4.3633 -2.2851 -1.7759
  784MOL0     H 8136  10.269   9.495  11.678  0.8611  0.4515  1.7301
  784MOL0     H 8137  10.299   9.194  11.660  1.8788 -0.3490  0.4999
  784MOL0     H 8138  10.395   9.303  11.750 -1.6198 -0.8321  0.6525
  784MOL0     H 8139  10.371   9.298  11.442 -2.8143 -1.7708  1.7199
  784MOL0     H 8140  10.474   9.402  11.535 -2.5593  2.0044 -3.1272
  784MOL0     H 8141  10.457   9.091  11.361  0.2462 -1.1762 -1.0697
  784MOL0     H 8142  10.810   8.910  11.408  0.0624  1.0967  1.9197
  784MOL0     H 8143  10.694   8.927  11.281 -1.4052  0.7493  0.3382
  784MOL0     H 8144  10.601   8.785  11.540 -1.7148 -3.0814 -0.6424
  784MOL0     H 8145  10.524   8.816  11.376  0.4594 -2.4639 -3.7588
  784MOL0     H 8146  10.598   8.590  11.384  0.5412  0.7454  0.9193
  784MOL0     H 8147  10.714   8.684  11.275  2.0652  1.0748  0.2867
  784MOL0     H 8148  10.736   8.538  11.548  1.4570 -1.3281 -1.5342
  784MOL0     H 8149  10.834   8.528  11.412 -1.2453  0.8302 -3.1671
  784MOL0     H 8150  10.980   8.460  11.560 -1.0917  1.9858 -2.7768
  784MOL0     H 8151  11.291   8.381  11.745 -0.4746  0.5563  1.5258
  784MOL0     H 8152  11.148   8.302  11.662 -0.1659 -0.4774  0.3804
  784MOL0     H 8153  11.158   8.331  11.838  0.6752 -1.2727 -0.0336
  784MOL0     H 8154  11.304   8.648  12.203  0.0030 -0.0567 -2.7448
  784MOL0     H 8155  11.479   8.672  12.356 -2.3890 -0.0450 -0.7260
  784MOL0     H 8156  11.668   8.566  12.412 -2.7070 -1.1414 -2.4775
  784MOL0     H 8157  11.742   8.500  12.273 -0.2051 -0.9425  1.2379
  784MOL0     H 8158  11.971   8.580  12.348  1.9822 -0.8838  1.2456
  784MOL0     H 8159  11.893   8.633  12.502 -0.0495 -0.6476  0.2090
  784MOL0     H 8160  11.841   8.406  12.559  1.9410  1.1466  0.5457
  784MOL0     H 8161  12.004   8.413  12.519  1.0797 -1.4851 -0.1526
  784MOL0     H 8162  11.926   8.340  12.272  0.8510  2.9346  0.5099
  784MOL0     H 8163  11.776   8.295  12.349  0.6522 -1.6316 -0.8503
  784MOL0     H 8164  12.039   8.187  12.455  0.9995 -1.3609  0.7527
  784MOL0     H 8165  11.873   8.170  12.514  3.1119  1.6890  1.3648
  784MOL0     H 8166  11.948   8.079  12.235 -0.2397 -3.1305  0.1352
  784MOL0     H 8167  11.801   8.054  12.314 -0.6091 -2.8932  2.5948
  784MOL0     H 8168  11.892   7.907  12.487 -0.9237 -0.6726 -1.0911
  784MOL0     H 8169  12.056   7.955  12.454  2.4738 -0.5597 -1.0413
  784MOL0     H 8170  11.970   7.721  12.360  1.5369  0.1614  0.3564
  784MOL0     H 8171  12.046   7.822  12.236  1.6928  3.2405  1.7014
  784MOL0     H 8172  11.750   8.793  12.046 -1.8030  1.7622 -1.9376
  784MOL0     H 8173  11.555   8.811  11.888 -2.9482 -0.5434 -0.1603
  784MOL0     H 8174  11.136   8.834  11.853  2.1750 -0.4730 -0.0727
  784MOL0     H 8175  10.961   8.861  11.673 -0.1509  0.0708  0.3625
  784MOL0     H 8176   9.700  10.046  11.987 -3.2519 -2.0765  1.5196
  784MOL0     H 8177   9.509  10.147  11.914  3.1313 -0.4859  1.9569
  784MOL0     H 8178   9.123  10.005  11.699  1.6338  0.8619  0.0588
  784MOL0     H 8179   8.903   9.963  11.594  1.3603 -2.3454 -0.4137
  784MOL0     H 8180   8.679  10.140  11.247  1.1837  0.0305 -0.0747
  784MOL0     H 8181   8.849  10.081  11.247 -0.1035 -1.4051 -1.1957
  784MOL0     H 8182   8.779   9.871  11.348  1.2928  2.9035  1.5430
  784MOL0     H 8183   8.700   9.905  11.196  0.2168  0.1840  0.3190
  784MOL0     H 8184   8.558   9.792  11.395 -0.2656 -0.6287 -1.3406
  784MOL0     H 8185   8.579   9.954  11.473  1.2085  2.2784 -1.2956
  784MOL0     H 8186   8.443  10.071  11.301 -1.4477 -0.8895 -1.2526
  784MOL0     H 8187   8.365   9.947  11.397 -1.9429 -1.6079 -2.1448
  784MOL0     H 8188   8.303   9.808  11.014 -0.0323  3.1949 -1.5438
  784MOL0     H 8189   8.943  10.302  11.340 -0.9281  2.6728  3.6154
  784MOL0     H 8190   9.132  10.426  11.331 -2.1197  0.8992  3.1900
  784MOL0     H 8191   9.256  10.402  11.460  0.8851 -0.6625 -1.3237
  784MOL0     H 8192   9.261  10.299  11.313 -2.4754 -1.4682 -1.5884
  785MOL0     O 8193  11.524   4.569   9.265 -0.0157  0.2895  0.1138
  785MOL0     C 8194  11.594   4.565   9.168  0.5676 -0.5264  0.4602
  785MOL0     O 8195  11.548   4.509   9.044  0.0025 -0.3319 -0.0546
  785MOL0     C 8196  11.421   4.451   9.037 -0.6155 -0.3268 -0.0232
  785MOL0     C 8197  11.312   4.501   8.973 -0.0785  0.1264  0.7709
  785MOL0     C 8198  11.191   4.439   8.975 -0.1369  0.0090  0.3441
  785MOL0     C 8199  11.175   4.324   9.047 -0.1183  1.2336  0.2638
  785MOL0     O 8200  11.058   4.254   9.029 -0.1805  1.4967  0.2273
  785MOL0     C 8201  11.010   4.199   9.146  0.7454 -0.0289  0.6063
  785MOL0     C 8202  10.861   4.212   9.131 -0.6955 -0.3902 -0.0593
  785MOL0     C 8203  10.816   4.355   9.172  0.4354 -0.3947  0.0165
  785MOL0     C 8204  10.658   4.386   9.154 -0.3224  1.0100  0.3563
  785MOL0     C 8205  10.604   4.516   9.203 -0.0107  0.7418  0.1993
  785MOL0     C 8206  10.608   4.515   9.356  0.3133  0.2015  0.7031
  785MOL0     C 8207  10.546   4.640   9.423  0.1937  0.5290 -0.4161
  785MOL0     C 8208  10.569   4.643   9.581 -0.9359 -0.3281 -0.0459
  785MOL0     N 8209  10.705   4.672   9.621  0.5477  0.0852 -0.0068
  785MOL0     C 8210  10.756   4.793   9.644 -0.7751 -0.9499  0.6252
  785MOL0     C 8211  10.875   4.772   9.690  0.0834  0.6506  0.1976
  785MOL0     C 8212  10.973   4.883   9.735  0.1326  0.2250  0.6951
  785MOL0     C 8213  11.025   4.874   9.882 -1.2845 -0.4105  0.6760
  785MOL0     C 8214  10.918   4.879   9.987  0.2646  0.4055  1.0809
  785MOL0     C 8215  10.986   4.870  10.128  0.4517 -0.7477  0.2840
  785MOL0     O 8216  10.890   4.821  10.216 -0.1345  0.1055 -0.1751
  785MOL0     C 8217  10.907   4.879  10.342  1.1192  0.5627  0.0114
  785MOL0     C 8218  11.026   4.892  10.424  0.0884 -0.5426  0.0844
  785MOL0     C 8219  11.011   4.948  10.552 -0.4830  0.8359  0.5468
  785MOL0     C 8220  11.139   4.940  10.635  0.2334 -0.6923 -0.3395
  785MOL0     C 8221  10.893   4.999  10.598  0.3292  0.9646 -0.2665
  785MOL0     C 8222  10.878   5.064  10.727  0.3960 -0.1632  0.7647
  785MOL0     O 8223  10.759   5.138  10.746 -0.3441  0.7399  0.1025
  785MOL0     C 8224  10.757   5.237  10.843 -0.1538 -0.1127 -0.7679
  785MOL0     C 8225  10.656   5.235  10.938  0.5733  0.0702 -0.6590
  785MOL0     C 8226  10.648   5.339  11.029 -0.5325 -0.6551 -0.0790
  785MOL0     C 8227  10.731   5.456  11.029  0.1254  0.6403 -0.0084
  785MOL0     O 8228  10.728   5.561  11.112 -0.0251 -0.7187 -0.5293
  785MOL0     C 8229  10.698   5.526  11.244  0.5000  0.1424 -0.4826
  785MOL0     C 8230  10.744   5.637  11.343 -0.6675 -0.7946 -0.5173
  785MOL0     C 8231  10.641   5.761  11.327 -0.4053  0.5280  1.1302
  785MOL0     C 8232  10.680   5.885  11.422  0.3273  0.1710 -0.1249
  785MOL0     C 8233  10.606   6.015  11.393  0.2990 -0.5482  0.2131
  785MOL0     C 8234  10.668   6.133  11.470  0.8359 -0.0912 -0.6696
  785MOL0     C 8235  10.587   6.272  11.446  0.3099 -0.5237 -0.1601
  785MOL0     C 8236  10.438   6.267  11.439 -0.5144  0.7999 -0.3109
  785MOL0    Cl 8237  10.353   6.210  11.590  0.1064  0.2058  0.0191
  785MOL0     C 8238  10.832   5.454  10.929  0.3571 -0.1554  0.2503
  785MOL0     C 8239  10.840   5.346  10.848  0.4711  0.0226  0.7351
  785MOL0     O 8240  10.968   5.066  10.809 -0.0186  0.7359 -0.3582
  785MOL0     C 8241  10.777   4.974  10.518  0.9185  0.3519  0.8595
  785MOL0     C 8242  10.783   4.906  10.400  0.2528 -0.3101  0.6507
  785MOL0     N 8243  10.897   4.637   9.702 -0.6526  0.3507  0.0285
  785MOL0     N 8244  10.784   4.575   9.673 -0.0457 -0.0186 -0.3178
  785MOL0     C 8245  11.282   4.268   9.122  0.3807 -0.1617  0.2449
  785MOL0     C 8246  11.407   4.327   9.112  0.3036 -0.7345 -0.3042
  785MOL0     C 8247  11.737   4.610   9.174  0.9358  0.0499  0.0570
  785MOL0     C 8248  11.830   4.548   9.087 -0.8648 -0.8643  0.0632
  785MOL0     C 8249  11.964   4.575   9.090  0.1311 -0.5584 -0.3407
  785MOL0     C 8250  12.019   4.654   9.192  0.1793  0.2112  0.2157
  785MOL0     O 8251  12.160   4.665   9.201 -0.8466  0.1107 -0.7450
  785MOL0     C 8252  12.208   4.780   9.281 -0.1085 -0.7168  0.2280
  785MOL0     C 8253  12.240   4.746   9.423  0.4962  0.0159  0.2419
  785MOL0     C 8254  12.308   4.863   9.503 -0.0996 -0.0763 -0.3980
  785MOL0     C 8255  12.219   4.988   9.517  0.9734  0.5318  0.0895
  785MOL0     C 8256  12.089   4.963   9.592  0.1063  0.8684 -0.2321
  785MOL0     C 8257  11.980   4.962   9.645 -0.3400  0.0442 -0.9193
  785MOL0     C 8258  11.928   4.712   9.286  0.6738 -0.2235  0.0765
  785MOL0     C 8259  11.790   4.693   9.269 -1.2736 -0.1480  0.3658
  785MOL0     C 8260  11.696   4.765   9.368  0.3251 -0.8553 -0.3091
  785MOL0     H 8261  11.335   4.594   8.922 -0.6309  1.1449  2.3117
  785MOL0     H 8262  11.106   4.466   8.912 -0.5473 -0.9440  0.4622
  785MOL0     H 8263  11.035   4.250   9.239 -2.4433  1.8473  0.5798
  785MOL0     H 8264  11.037   4.093   9.142  2.0614  0.3365 -2.5499
  785MOL0     H 8265  10.833   4.201   9.026  0.3096 -1.2629 -0.2559
  785MOL0     H 8266  10.815   4.130   9.187  0.4674 -1.8722 -1.1823
  785MOL0     H 8267  10.843   4.387   9.273  0.2929 -1.8493  0.5388
  785MOL0     H 8268  10.864   4.424   9.103 -0.0284 -1.7318 -1.7307
  785MOL0     H 8269  10.645   4.393   9.046 -0.7237  0.7754  0.3907
  785MOL0     H 8270  10.590   4.313   9.200 -2.3150  3.1161  0.9252
  785MOL0     H 8271  10.498   4.528   9.178 -0.4173 -1.7324  0.4991
  785MOL0     H 8272  10.674   4.594   9.170 -0.3842  0.0741 -2.3956
  785MOL0     H 8273  10.572   4.418   9.391  0.0525  0.4376  1.1006
  785MOL0     H 8274  10.711   4.524   9.390  1.3503  3.6599 -2.6596
  785MOL0     H 8275  10.438   4.625   9.413  0.3220  0.6250 -2.0753
  785MOL0     H 8276  10.588   4.732   9.382  2.3244  0.2934  1.0697
  785MOL0     H 8277  10.514   4.728   9.622  0.6649  0.9341 -0.4135
  785MOL0     H 8278  10.532   4.550   9.625 -4.0245  1.4171  1.3770
  785MOL0     H 8279  10.712   4.887   9.611 -0.4993 -0.3077  1.9820
  785MOL0     H 8280  10.920   4.979   9.733  0.3767  0.3455  0.0260
  785MOL0     H 8281  11.050   4.878   9.658 -0.4720 -0.9809  0.1393
  785MOL0     H 8282  11.075   4.778   9.892 -2.8638 -1.3476  0.0010
  785MOL0     H 8283  11.092   4.958   9.900 -1.0474  0.0932 -2.0411
  785MOL0     H 8284  10.858   4.969   9.974 -2.8320 -1.3900  1.7731
  785MOL0     H 8285  10.847   4.797   9.975 -0.3253  0.9073  1.1185
  785MOL0     H 8286  11.073   4.804  10.116  0.2494 -0.6709 -2.0738
  785MOL0     H 8287  11.021   4.970  10.157  1.0752 -1.0898  0.7282
  785MOL0     H 8288  11.126   4.862  10.393  0.6523  0.1061  1.1989
  785MOL0     H 8289  11.176   5.041  10.658 -0.9547 -0.2446 -0.2926
  785MOL0     H 8290  11.217   4.889  10.578  2.8595  1.6189  0.9410
  785MOL0     H 8291  11.122   4.893  10.732  1.6883  0.3448  0.4542
  785MOL0     H 8292  10.578   5.161  10.937  2.5197 -2.1318  0.4780
  785MOL0     H 8293  10.556   5.331  11.086 -1.2341  3.3036 -0.4024
  785MOL0     H 8294  10.592   5.519  11.271  0.4649  2.9531  0.4076
  785MOL0     H 8295  10.739   5.432  11.283  0.9769  2.0240  4.1830
  785MOL0     H 8296  10.749   5.598  11.445  2.7000 -1.4753 -0.8415
  785MOL0     H 8297  10.844   5.670  11.313 -0.6856  1.8071  1.8746
  785MOL0     H 8298  10.536   5.731  11.338 -0.5678 -1.6395 -3.7003
  785MOL0     H 8299  10.639   5.794  11.222  1.2004  0.6256  1.1097
  785MOL0     H 8300  10.786   5.908  11.409  1.1634 -2.2837  1.5609
  785MOL0     H 8301  10.665   5.850  11.525 -1.6998 -0.0715 -0.4567
  785MOL0     H 8302  10.612   6.038  11.286  1.5458 -0.1308  0.3619
  785MOL0     H 8303  10.500   5.998  11.415 -0.0982  0.1340 -1.1030
  785MOL0     H 8304  10.768   6.146  11.429 -0.6736  0.9635 -4.5055
  785MOL0     H 8305  10.673   6.111  11.577 -1.2274 -2.2523 -0.9317
  785MOL0     H 8306  10.612   6.315  11.348 -0.9099 -1.8301 -1.1021
  785MOL0     H 8307  10.619   6.332  11.531  1.4004 -1.7256  0.3172
  785MOL0     H 8308  10.411   6.193  11.363 -3.1727 -2.4130  3.2661
  785MOL0     H 8309  10.397   6.363  11.408 -0.0493  1.1223  0.0555
  785MOL0     H 8310  10.905   5.535  10.927  0.0887  0.0767 -0.2345
  785MOL0     H 8311  10.907   5.358  10.764 -2.7440  1.2231 -1.9077
  785MOL0     H 8312  10.674   4.997  10.546 -1.7082 -3.3234 -4.1347
  785MOL0     H 8313  10.687   4.886  10.353 -0.7728  1.6308  1.7953
  785MOL0     H 8314  11.271   4.176   9.178  0.3055 -2.2991 -2.9633
  785MOL0     H 8315  11.494   4.281   9.158  0.8180  2.4884  2.3099
  785MOL0     H 8316  11.795   4.464   9.028  0.0414 -2.7758  2.1044
  785MOL0     H 8317  12.019   4.505   9.028 -1.8340 -0.1147 -2.7300
  785MOL0     H 8318  12.294   4.821   9.227 -2.4151  0.2288 -3.0488
  785MOL0     H 8319  12.131   4.858   9.286  1.9805  1.4579  0.4978
  785MOL0     H 8320  12.309   4.661   9.412 -0.8452 -0.8114 -2.9443
  785MOL0     H 8321  12.148   4.712   9.471 -0.9622  1.5903 -1.3018
  785MOL0     H 8322  12.341   4.839   9.604 -3.3246  0.3605  0.8950
  785MOL0     H 8323  12.401   4.889   9.453  0.4859  1.0626  1.2018
  785MOL0     H 8324  12.199   5.042   9.424  3.8029  0.0578 -0.8918
  785MOL0     H 8325  12.284   5.049   9.581  0.7916  1.6579 -0.7730
  785MOL0     H 8326  11.886   4.948   9.694  0.1914  1.3896  0.5984
  785MOL0     H 8327  11.972   4.756   9.375 -0.5478 -1.3254  1.2771
  785MOL0     H 8328  11.611   4.806   9.313  1.2262 -0.0376 -1.1457
  785MOL0     H 8329  11.671   4.702   9.453  1.5624  1.0586  1.5975
  785MOL0     H 8330  11.747   4.852   9.412  0.7579 -0.6030 -1.2562
  786MOL0     O 8331   7.297   5.926   6.558  0.2320 -0.3695 -0.8272
  786MOL0     C 8332   7.369   6.025   6.544  0.2160  0.4707 -0.3305
  786MOL0     O 8333   7.347   6.118   6.451  0.3626  0.3859 -0.5893
  786MOL0     C 8334   7.266   6.087   6.346 -0.0497 -0.4503  0.1215
  786MOL0     C 8335   7.276   5.963   6.280  0.6715 -0.4468  0.2557
  786MOL0     C 8336   7.193   5.939   6.167 -0.5795  0.6553  0.2541
  786MOL0     C 8337   7.116   6.043   6.104 -0.2786  0.1098 -0.3609
  786MOL0     O 8338   7.022   6.031   6.006 -0.2566 -0.4472 -0.0077
  786MOL0     C 8339   6.992   5.896   5.961 -0.6102  0.4484  0.1440
  786MOL0     C 8340   6.891   5.916   5.850  0.0789 -0.1006 -0.5952
  786MOL0     C 8341   6.918   6.001   5.731  0.7807 -0.2133  0.5858
  786MOL0     C 8342   6.800   6.024   5.633  0.2849  0.1843  0.0335
  786MOL0     C 8343   6.845   6.091   5.503  0.0110 -0.1292  0.2001
  786MOL0     C 8344   6.890   6.237   5.527 -0.9505  0.8965  0.1293
  786MOL0     C 8345   6.941   6.301   5.392  0.1550 -0.0675 -1.0633
  786MOL0     C 8346   6.978   6.444   5.435  0.3044 -0.0897 -0.5202
  786MOL0     N 8347   7.019   6.521   5.314 -0.4591  0.3224 -0.4957
  786MOL0     C 8348   7.136   6.503   5.254 -0.0904 -0.3648 -0.1096
  786MOL0     C 8349   7.166   6.606   5.171 -0.0806  0.1141  0.0436
  786MOL0     C 8350   7.292   6.602   5.081  0.0358  0.1094  1.0359
  786MOL0     C 8351   7.426   6.551   5.155  0.2577  0.1699 -0.0265
  786MOL0     C 8352   7.551   6.551   5.068  0.2837 -0.5237 -0.6152
  786MOL0     C 8353   7.572   6.437   4.959  0.0332  0.4241 -0.1773
  786MOL0     O 8354   7.456   6.404   4.889  0.3367  0.6281  0.9841
  786MOL0     C 8355   7.422   6.270   4.844  0.2951  0.0347 -0.9591
  786MOL0     C 8356   7.494   6.150   4.853 -0.6393  0.0002 -0.2105
  786MOL0     C 8357   7.451   6.034   4.795 -0.6225 -0.0874 -0.9154
  786MOL0     C 8358   7.547   5.916   4.785  0.2080 -0.9061  0.4211
  786MOL0     C 8359   7.329   6.032   4.726 -0.5405  0.6454  0.3504
  786MOL0     C 8360   7.270   5.908   4.663 -0.7861  0.5111  0.1385
  786MOL0     O 8361   7.355   5.827   4.584 -0.6786 -0.5150 -0.3745
  786MOL0     C 8362   7.341   5.692   4.567  0.1465 -0.1800 -0.7943
  786MOL0     C 8363   7.437   5.631   4.489 -0.7215  0.6761 -0.6058
  786MOL0     C 8364   7.452   5.488   4.496 -0.3542  0.1593 -0.6260
  786MOL0     C 8365   7.386   5.412   4.595  0.3172  0.6026 -0.2398
  786MOL0     O 8366   7.430   5.283   4.596  0.5993 -0.4046 -0.3178
  786MOL0     C 8367   7.348   5.197   4.677 -0.4874 -0.3535 -0.1622
  786MOL0     C 8368   7.397   5.053   4.702 -0.4022 -0.4961 -0.3713
  786MOL0     C 8369   7.281   4.959   4.722  0.6181  1.0579  0.0259
  786MOL0     C 8370   7.226   4.944   4.864 -0.2853 -0.3251  0.1566
  786MOL0     C 8371   7.150   4.815   4.894  0.5022  0.6262 -0.3868
  786MOL0     C 8372   7.103   4.824   5.041  0.1521  0.4066 -0.5614
  786MOL0     C 8373   7.010   4.707   5.075 -0.0794  0.5048 -0.0110
  786MOL0     C 8374   7.090   4.582   5.113  0.4367  0.1584 -0.2752
  786MOL0    Cl 8375   6.988   4.440   5.170 -0.4884  0.1112 -0.1957
  786MOL0     C 8376   7.297   5.476   4.677  0.3446  0.1122  0.1118
  786MOL0     C 8377   7.260   5.614   4.655 -0.3950  0.8056  0.3610
  786MOL0     O 8378   7.146   5.903   4.660  1.1371 -0.1114  0.0891
  786MOL0     C 8379   7.256   6.143   4.724 -0.0357  0.6390  0.5200
  786MOL0     C 8380   7.301   6.258   4.774 -0.1247 -0.9719  0.3370
  786MOL0     N 8381   7.050   6.685   5.172 -0.6239 -0.5892  0.5045
  786MOL0     N 8382   6.972   6.644   5.265  0.2880  0.2872  0.2389
  786MOL0     C 8383   7.122   6.164   6.167  0.0880  0.2034  1.1579
  786MOL0     C 8384   7.187   6.185   6.288 -0.1566  0.0740 -0.4197
  786MOL0     C 8385   7.480   6.058   6.636 -0.5195 -0.1618 -0.0085
  786MOL0     C 8386   7.599   6.115   6.582  0.5703  0.1778 -0.4272
  786MOL0     C 8387   7.710   6.148   6.661 -0.2522  0.1065  0.0201
  786MOL0     C 8388   7.701   6.136   6.806  0.3628 -0.3323  0.0447
  786MOL0     O 8389   7.796   6.179   6.902  0.0082 -0.2289  0.2715
  786MOL0     C 8390   7.932   6.216   6.856 -0.2322  0.4346 -0.4900
  786MOL0     C 8391   8.013   6.081   6.816  0.2811 -0.2853 -0.2798
  786MOL0     C 8392   8.164   6.111   6.812 -1.4173  0.7875 -0.3536
  786MOL0     C 8393   8.228   6.004   6.725  0.2909 -0.0245  0.1923
  786MOL0     C 8394   8.371   6.019   6.738  0.8169 -0.0159 -0.2742
  786MOL0     C 8395   8.487   6.028   6.745 -0.7081 -0.5333  1.1502
  786MOL0     C 8396   7.568   6.100   6.859  0.1561 -0.3398  0.5235
  786MOL0     C 8397   7.470   6.044   6.775  0.4118 -1.2215  0.5180
  786MOL0     C 8398   7.350   5.992   6.842  0.3733 -0.1990  0.3203
  786MOL0     H 8399   7.338   5.888   6.328  2.9055  2.3734  2.0856
  786MOL0     H 8400   7.190   5.837   6.129 -3.1859  1.0732 -0.9395
  786MOL0     H 8401   6.948   5.836   6.041  0.0136  0.3223  0.4024
  786MOL0     H 8402   7.090   5.861   5.927 -0.2271  0.2271  1.4244
  786MOL0     H 8403   6.867   5.816   5.815  0.1619 -1.3525  2.5829
  786MOL0     H 8404   6.799   5.955   5.896  1.3464  2.0626  0.2419
  786MOL0     H 8405   6.942   6.101   5.768 -0.1999  0.3181 -0.1699
  786MOL0     H 8406   7.005   5.958   5.680  0.8636 -0.8361  1.2396
  786MOL0     H 8407   6.773   5.924   5.600 -0.3574  0.3906 -0.0826
  786MOL0     H 8408   6.722   6.083   5.682  2.7366  1.5535  2.6220
  786MOL0     H 8409   6.756   6.093   5.438 -0.4656  0.2981  0.8535
  786MOL0     H 8410   6.920   6.025   5.459 -2.4207 -1.8463 -1.7051
  786MOL0     H 8411   6.803   6.287   5.570 -2.7195 -2.1741  0.3845
  786MOL0     H 8412   6.971   6.247   5.599 -0.3751  0.8044 -0.4993
  786MOL0     H 8413   6.856   6.304   5.322 -1.9374 -1.6448  1.2407
  786MOL0     H 8414   7.022   6.238   5.354 -1.0664 -1.6735 -1.1070
  786MOL0     H 8415   6.896   6.497   5.484 -1.1700  0.0457 -2.9703
  786MOL0     H 8416   7.060   6.438   5.507  0.8586 -0.1635 -1.1507
  786MOL0     H 8417   7.199   6.416   5.269 -1.0024 -1.1421 -0.6831
  786MOL0     H 8418   7.304   6.705   5.045 -1.0112 -0.0464  0.1837
  786MOL0     H 8419   7.286   6.532   4.998 -0.0418 -0.0950  1.2134
  786MOL0     H 8420   7.454   6.620   5.235 -1.6594 -1.1649  1.9229
  786MOL0     H 8421   7.405   6.453   5.199  2.6223 -0.0489  0.7120
  786MOL0     H 8422   7.559   6.654   5.031 -0.7270  0.4948  1.7855
  786MOL0     H 8423   7.630   6.540   5.143  0.9702 -1.0235 -1.3893
  786MOL0     H 8424   7.643   6.484   4.889  2.2145  0.2056  1.7574
  786MOL0     H 8425   7.628   6.356   5.006 -0.5112 -0.3917 -0.9270
  786MOL0     H 8426   7.591   6.148   4.902  0.3098 -1.4470 -2.0272
  786MOL0     H 8427   7.583   5.894   4.684 -0.3096 -0.2074  0.0762
  786MOL0     H 8428   7.500   5.821   4.813 -1.5258  0.3004  1.8772
  786MOL0     H 8429   7.632   5.938   4.851 -1.5120  3.1304  1.6377
  786MOL0     H 8430   7.497   5.696   4.426  0.9061  1.4269  1.5799
  786MOL0     H 8431   7.520   5.437   4.429  1.9227 -2.3353  3.1490
  786MOL0     H 8432   7.343   5.232   4.781  0.5949 -0.0721 -0.1985
  786MOL0     H 8433   7.249   5.183   4.631  0.0506 -2.5176 -0.7581
  786MOL0     H 8434   7.464   5.008   4.629  0.8195 -4.0269  2.5883
  786MOL0     H 8435   7.456   5.049   4.794  0.1761 -1.6870 -0.7743
  786MOL0     H 8436   7.313   4.858   4.696 -0.5227 -0.2865  3.4207
  786MOL0     H 8437   7.195   4.983   4.658  0.0374 -2.6528 -0.7991
  786MOL0     H 8438   7.168   5.036   4.875 -0.0208  0.4577 -3.5719
  786MOL0     H 8439   7.315   4.945   4.928 -0.6416 -0.9642  0.6749
  786MOL0     H 8440   7.060   4.789   4.838 -1.8422  2.1444  2.4109
  786MOL0     H 8441   7.225   4.736   4.887 -1.3965 -1.1665 -2.1771
  786MOL0     H 8442   7.044   4.915   5.057  1.2422  0.8710  1.0130
  786MOL0     H 8443   7.184   4.831   5.114 -0.3501 -0.2434  0.0714
  786MOL0     H 8444   6.945   4.679   4.992  0.6171 -0.1280 -0.3479
  786MOL0     H 8445   6.934   4.729   5.151 -0.9476  2.0234 -1.2686
  786MOL0     H 8446   7.165   4.606   5.190 -0.9002 -1.5517  1.7042
  786MOL0     H 8447   7.148   4.550   5.026  0.3960 -2.3003  0.4918
  786MOL0     H 8448   7.237   5.418   4.746  0.3353 -2.2978 -1.7982
  786MOL0     H 8449   7.181   5.656   4.716 -1.6547  1.0013 -1.3193
  786MOL0     H 8450   7.157   6.135   4.680  0.3074 -4.4858  0.0088
  786MOL0     H 8451   7.246   6.351   4.768 -0.2500 -0.8985  2.2401
  786MOL0     H 8452   7.088   6.259   6.127  1.9378 -0.5438 -2.6182
  786MOL0     H 8453   7.200   6.285   6.328  1.1939  0.7183 -2.3277
  786MOL0     H 8454   7.614   6.123   6.475 -1.7626  1.6056 -0.7037
  786MOL0     H 8455   7.793   6.190   6.605 -0.5782  0.4026 -0.2475
  786MOL0     H 8456   7.924   6.290   6.775 -2.6226  0.7780 -0.0121
  786MOL0     H 8457   7.982   6.259   6.943 -0.9196 -1.0461  0.6760
  786MOL0     H 8458   7.984   6.046   6.716  1.0115  0.7751 -0.8789
  786MOL0     H 8459   7.984   6.000   6.884  2.2183 -0.3442  0.5178
  786MOL0     H 8460   8.179   6.210   6.768  0.0745  1.6293  1.8705
  786MOL0     H 8461   8.207   6.116   6.913 -2.4087  1.9735  0.0430
  786MOL0     H 8462   8.192   6.010   6.622 -1.1514  1.3883  0.7426
  786MOL0     H 8463   8.207   5.903   6.762  1.1447 -0.2793  0.0092
  786MOL0     H 8464   8.593   6.029   6.728 -0.7497  1.0750  0.8879
  786MOL0     H 8465   7.540   6.124   6.961 -1.3742  1.3184 -0.2344
  786MOL0     H 8466   7.269   6.056   6.806  0.1978  1.6137  3.5475
  786MOL0     H 8467   7.338   5.888   6.809  3.8509  0.0085 -2.1772
  786MOL0     H 8468   7.349   6.011   6.950  0.2717  1.8369 -0.0012
  787MOL0     O 8469   1.542  10.168   4.846 -0.3129 -0.0199 -0.6267
  787MOL0     C 8470   1.650  10.221   4.853  0.0192 -0.8988  0.0582
  787MOL0     O 8471   1.670  10.360   4.854 -0.4654  0.3668 -0.9145
  787MOL0     C 8472   1.592  10.443   4.921  1.4497  0.0871 -0.6597
  787MOL0     C 8473   1.523  10.395   5.034  0.2873  0.5284  0.2999
  787MOL0     C 8474   1.419  10.464   5.096  0.7120 -0.1132 -0.3191
  787MOL0     C 8475   1.402  10.599   5.062  0.8112  1.1704  0.9152
  787MOL0     O 8476   1.312  10.667   5.133 -0.2771 -0.1405 -0.4718
  787MOL0     C 8477   1.317  10.805   5.131 -0.0771  0.0895  0.2643
  787MOL0     C 8478   1.241  10.864   5.251  0.2168  0.2777 -0.1115
  787MOL0     C 8479   1.098  10.933   5.241 -0.2510 -0.3828  0.3926
  787MOL0     C 8480   0.988  10.828   5.213 -0.1439  0.7895 -0.1406
  787MOL0     C 8481   0.867  10.891   5.151  0.5310 -0.4170  0.2858
  787MOL0     C 8482   0.787  10.981   5.244 -0.0291 -0.2267 -0.0280
  787MOL0     C 8483   0.680  11.063   5.175 -0.6735 -0.3719  0.4607
  787MOL0     C 8484   0.750  11.185   5.101  0.1229  0.7485  0.4634
  787MOL0     N 8485   0.639  11.261   5.039  0.1277 -0.7525  0.4536
  787MOL0     C 8486   0.559  11.220   4.942 -0.2264 -0.8030  0.1262
  787MOL0     C 8487   0.469  11.319   4.925 -0.3934  0.2703 -0.4096
  787MOL0     C 8488   0.333  11.300   4.848 -0.0333 -0.0799 -1.0150
  787MOL0     C 8489   0.222  11.243   4.931  0.2523 -0.3397  0.3307
  787MOL0     C 8490   0.104  11.246   4.838  0.4091  0.2735 -0.1002
  787MOL0     C 8491  -0.022  11.195   4.913 -0.4094  0.1970 -0.2432
  787MOL0     O 8492  -0.068  11.295   5.013 -0.6482  0.6200  0.4813
  787MOL0     C 8493  -0.206  11.302   5.048 -0.9363 -0.7564  0.7360
  787MOL0     C 8494  -0.304  11.207   5.008 -0.0235  0.3820 -0.3079
  787MOL0     C 8495  -0.443  11.218   5.027 -0.3918  0.6282 -0.4307
  787MOL0     C 8496  -0.524  11.103   5.014 -0.0367  0.4008 -0.1483
  787MOL0     C 8497  -0.491  11.345   5.073  0.6617 -0.7827  0.3046
  787MOL0     C 8498  -0.628  11.384   5.082  0.9492 -0.0815 -0.5625
  787MOL0     O 8499  -0.711  11.324   4.996  0.4040  0.2299  0.8293
  787MOL0     C 8500  -0.842  11.363   4.961  0.1851  0.2107  0.1433
  787MOL0     C 8501  -0.915  11.271   4.881  0.2940 -0.0970  0.1285
  787MOL0     C 8502  -1.043  11.299   4.847  0.3727 -0.5509 -0.7414
  787MOL0     C 8503  -1.106  11.424   4.888 -0.1105  0.4261  0.2638
  787MOL0     O 8504  -1.224  11.471   4.841  0.6494  0.5702 -0.0307
  787MOL0     C 8505  -1.330  11.372   4.820 -0.1081  0.3463  0.4806
  787MOL0     C 8506  -1.364  11.289   4.943 -0.2459  0.5774  0.3758
  787MOL0     C 8507  -1.425  11.383   5.058 -0.3562  0.0765  0.1068
  787MOL0     C 8508  -1.495  11.297   5.165 -0.2441  1.1609 -0.2196
  787MOL0     C 8509  -1.566  11.367   5.271 -0.3666 -0.9181 -0.0463
  787MOL0     C 8510  -1.627  11.279   5.377 -0.2749  0.0154 -0.1310
  787MOL0     C 8511  -1.715  11.354   5.481  0.0064  0.0100 -0.6608
  787MOL0     C 8512  -1.662  11.488   5.542  0.3720 -0.1587 -1.6416
  787MOL0    Cl 8513  -1.538  11.462   5.661 -0.1813 -0.8993  0.1069
  787MOL0     C 8514  -1.026  11.525   4.950 -0.0791 -0.0851  0.4981
  787MOL0     C 8515  -0.896  11.493   4.985  1.1971  0.5348 -0.7857
  787MOL0     O 8516  -0.663  11.469   5.160 -0.1813 -0.1300 -0.9816
  787MOL0     C 8517  -0.399  11.443   5.101 -0.2263  0.7939 -0.1189
  787MOL0     C 8518  -0.255  11.418   5.098  1.0529 -0.2892 -0.2308
  787MOL0     N 8519   0.498  11.420   5.004 -0.8250  0.3197  1.1005
  787MOL0     N 8520   0.601  11.387   5.073  0.7306  0.2118  1.0490
  787MOL0     C 8521   1.470  10.646   4.950  0.7736  0.1373  0.0656
  787MOL0     C 8522   1.557  10.567   4.881  0.4021 -0.4076 -0.2520
  787MOL0     C 8523   1.776  10.146   4.826 -0.1442 -0.0440  0.1653
  787MOL0     C 8524   1.896  10.222   4.803  0.1840 -0.3114  0.8549
  787MOL0     C 8525   2.013  10.167   4.765  0.8753 -0.6194  0.2168
  787MOL0     C 8526   2.031  10.028   4.745  0.3870 -0.6117 -0.5567
  787MOL0     O 8527   2.142   9.965   4.714  0.5368  0.1272  0.2787
  787MOL0     C 8528   2.271  10.030   4.691  1.0160 -0.2395  0.1481
  787MOL0     C 8529   2.375   9.947   4.764 -0.1872 -0.3657  0.3331
  787MOL0     C 8530   2.521  10.005   4.746 -0.4276 -0.4336  0.0390
  787MOL0     C 8531   2.610   9.967   4.871  1.1763 -0.0197 -0.1314
  787MOL0     C 8532   2.744  10.018   4.840  0.5395  0.2285 -0.4799
  787MOL0     C 8533   2.853  10.039   4.799  0.2197  0.1348 -0.0753
  787MOL0     C 8534   1.927   9.948   4.768 -0.0545 -0.5680  0.2663
  787MOL0     C 8535   1.799  10.004   4.798  0.6945 -0.5054 -0.1610
  787MOL0     C 8536   1.695   9.899   4.827 -0.2519  0.1715  0.1180
  787MOL0     H 8537   1.558  10.299   5.071  0.4681 -0.0754 -1.3260
  787MOL0     H 8538   1.377  10.430   5.191  1.4937  3.5508  1.5261
  787MOL0     H 8539   1.271  10.853   5.044  2.5616  1.1124 -0.6615
  787MOL0     H 8540   1.422  10.834   5.126  0.3789 -1.4318  0.5533
  787MOL0     H 8541   1.230  10.782   5.322  0.7504 -1.5889 -2.0743
  787MOL0     H 8542   1.315  10.932   5.294 -0.5586  0.0449  1.6693
  787MOL0     H 8543   1.074  10.974   5.340  1.9588  0.1650  0.7503
  787MOL0     H 8544   1.088  11.008   5.162  2.1967 -0.1119  0.2628
  787MOL0     H 8545   1.026  10.758   5.139  0.7858  3.2503 -2.1352
  787MOL0     H 8546   0.952  10.774   5.301  1.3461  0.2920  0.1874
  787MOL0     H 8547   0.800  10.808   5.128 -0.8997  0.7595  0.0235
  787MOL0     H 8548   0.878  10.937   5.052 -0.5946 -1.4077 -0.3379
  787MOL0     H 8549   0.742  10.910   5.315  2.1125 -1.0990  0.5190
  787MOL0     H 8550   0.844  11.057   5.298 -0.6693 -0.8385  1.5882
  787MOL0     H 8551   0.609  11.099   5.251 -1.6622  1.4757 -1.2533
  787MOL0     H 8552   0.624  10.996   5.109 -0.9340 -0.8009  1.1042
  787MOL0     H 8553   0.811  11.245   5.170 -0.2498 -0.8611  2.2686
  787MOL0     H 8554   0.808  11.148   5.016 -2.0567 -4.2444  0.8171
  787MOL0     H 8555   0.562  11.122   4.895  0.4675 -1.0082  0.5927
  787MOL0     H 8556   0.357  11.238   4.761 -1.9621 -1.4455 -0.6472
  787MOL0     H 8557   0.302  11.402   4.825  1.5753  0.5100 -0.7030
  787MOL0     H 8558   0.270  11.153   4.970  1.4375  0.1903  0.1438
  787MOL0     H 8559   0.203  11.309   5.016  2.6390  0.7240  0.1238
  787MOL0     H 8560   0.089  11.351   4.812  1.6303  0.6206  0.5123
  787MOL0     H 8561   0.114  11.197   4.741 -2.4430 -0.5241 -0.1023
  787MOL0     H 8562  -0.100  11.188   4.837  0.0928 -0.2415 -0.7327
  787MOL0     H 8563   0.006  11.095   4.947 -2.5353 -0.8390 -1.3690
  787MOL0     H 8564  -0.273  11.109   4.973  2.6620  1.0788 -0.0686
  787MOL0     H 8565  -0.467  11.010   5.011  2.1905  1.7392 -1.2143
  787MOL0     H 8566  -0.584  11.119   4.923  0.1991  1.7752 -0.0732
  787MOL0     H 8567  -0.608  11.092   5.084 -0.7863 -2.5069 -1.3398
  787MOL0     H 8568  -0.870  11.177   4.851 -2.3149 -2.0889  2.0045
  787MOL0     H 8569  -1.090  11.219   4.792  1.0401  0.0784 -2.2890
  787MOL0     H 8570  -1.421  11.413   4.776  0.6802  0.6745 -0.8796
  787MOL0     H 8571  -1.279  11.311   4.745  0.7337 -0.3106  1.5459
  787MOL0     H 8572  -1.435  11.211   4.915 -1.0228  1.6109 -0.6392
  787MOL0     H 8573  -1.274  11.241   4.980  0.6885  2.8637  1.2695
  787MOL0     H 8574  -1.497  11.444   5.003  0.9927  0.0486 -1.7815
  787MOL0     H 8575  -1.360  11.450   5.115  3.1388 -1.1214 -2.1507
  787MOL0     H 8576  -1.427  11.226   5.214  0.6535 -0.1640 -3.1583
  787MOL0     H 8577  -1.575  11.248   5.109 -1.0849  3.7390 -1.4348
  787MOL0     H 8578  -1.490  11.431   5.318 -0.3789 -1.0377  0.1386
  787MOL0     H 8579  -1.644  11.431   5.230  2.1019  1.5828 -1.2243
  787MOL0     H 8580  -1.543  11.232   5.429 -1.7026 -2.2283  0.2847
  787MOL0     H 8581  -1.684  11.194   5.338 -1.1163  0.3378  0.3480
  787MOL0     H 8582  -1.744  11.282   5.558  1.4955  2.0650  2.0021
  787MOL0     H 8583  -1.800  11.377   5.416 -2.6771 -0.0499  2.6134
  787MOL0     H 8584  -1.744  11.538   5.595 -0.7221 -2.1638 -1.3719
  787MOL0     H 8585  -1.639  11.562   5.465 -1.1168  1.7761 -0.3365
  787MOL0     H 8586  -1.054  11.628   4.971  2.2632  0.7463 -0.1847
  787MOL0     H 8587  -0.831  11.568   5.029  1.5626  0.4234 -1.1286
  787MOL0     H 8588  -0.437  11.543   5.120  1.5644  0.6982  5.9942
  787MOL0     H 8589  -0.194  11.500   5.134  0.4200  1.3712 -2.7086
  787MOL0     H 8590   1.443  10.739   4.900  0.3979 -0.1388 -0.2458
  787MOL0     H 8591   1.604  10.608   4.792  0.5972 -1.6081 -0.7207
  787MOL0     H 8592   1.905  10.330   4.811  2.0044 -0.4778  1.3988
  787MOL0     H 8593   2.091  10.238   4.739  0.0879  0.6979  1.2899
  787MOL0     H 8594   2.284  10.047   4.584 -2.7976 -3.1507 -0.9999
  787MOL0     H 8595   2.291  10.127   4.738  2.0632 -0.9073  1.1388
  787MOL0     H 8596   2.380   9.845   4.723  0.7508  0.8194 -2.8361
  787MOL0     H 8597   2.334   9.953   4.865 -2.9764 -0.0916 -0.7348
  787MOL0     H 8598   2.565   9.964   4.654  0.1929  1.0483 -0.3449
  787MOL0     H 8599   2.518  10.114   4.747 -2.0410 -0.4462 -0.4351
  787MOL0     H 8600   2.607   9.858   4.880 -1.2170  0.0888  1.4197
  787MOL0     H 8601   2.564  10.012   4.960 -0.7472 -0.1690 -1.0022
  787MOL0     H 8602   2.953  10.064   4.771 -0.2659  2.2071 -0.0769
  787MOL0     H 8603   1.937   9.841   4.751 -0.8076 -0.5123 -0.6047
  787MOL0     H 8604   1.596   9.934   4.798  0.2122  0.5057 -1.1747
  787MOL0     H 8605   1.702   9.808   4.767 -2.1180  0.6480 -0.9142
  787MOL0     H 8606   1.698   9.881   4.934  2.0525  0.0029  0.0903
  788MOL0     O 8607   5.398   3.165  10.038  0.1013 -0.4119  0.3411
  788MOL0     C 8608   5.395   3.158  10.162 -0.6265 -0.0778 -0.2681
  788MOL0     O 8609   5.456   3.062  10.239 -0.2335  0.1491 -0.7851
  788MOL0     C 8610   5.559   2.986  10.194  0.0582  0.0250 -0.2175
  788MOL0     C 8611   5.599   2.876  10.269  0.7881  0.4311 -0.1152
  788MOL0     C 8612   5.690   2.780  10.220  0.1371 -0.1900 -0.0698
  788MOL0     C 8613   5.759   2.805  10.101 -0.2467 -0.7833 -0.4537
  788MOL0     O 8614   5.847   2.703  10.075  0.8488 -0.2011  0.5706
  788MOL0     C 8615   5.913   2.708   9.949 -0.3102 -1.6792 -0.5661
  788MOL0     C 8616   5.829   2.649   9.838  0.2499  0.6019  0.6215
  788MOL0     C 8617   5.774   2.510   9.872  0.4740 -0.1026 -0.0727
  788MOL0     C 8618   5.714   2.442   9.753 -0.7370 -1.1036 -0.6890
  788MOL0     C 8619   5.605   2.348   9.791 -1.0482  0.9489 -0.6332
  788MOL0     C 8620   5.659   2.206   9.838 -0.3267  0.7374 -0.3360
  788MOL0     C 8621   5.551   2.121   9.912 -0.3204  0.3923 -0.2415
  788MOL0     C 8622   5.424   2.106   9.829  0.6126  0.9834 -0.7158
  788MOL0     N 8623   5.442   2.062   9.693  0.3621  0.9301 -0.1916
  788MOL0     C 8624   5.544   1.976   9.648 -0.0671  0.1739  0.0554
  788MOL0     C 8625   5.546   2.000   9.512 -0.4733  0.5598 -1.0247
  788MOL0     C 8626   5.642   1.970   9.394 -0.1904 -0.2963  0.5626
  788MOL0     C 8627   5.582   1.861   9.312 -0.0108  0.7241 -0.4700
  788MOL0     C 8628   5.696   1.783   9.232  0.5743  0.0959  0.5662
  788MOL0     C 8629   5.740   1.851   9.098 -0.4479  0.4857  0.0808
  788MOL0     O 8630   5.871   1.794   9.066 -0.1715  0.6978  0.4667
  788MOL0     C 8631   5.935   1.826   8.944  0.4108 -0.2467 -1.0915
  788MOL0     C 8632   5.891   1.902   8.832  1.1127  0.3360  0.3083
  788MOL0     C 8633   5.966   1.920   8.724  0.4925  0.1688  1.3215
  788MOL0     C 8634   5.899   1.993   8.613 -0.3641 -0.4675 -0.2708
  788MOL0     C 8635   6.098   1.861   8.704  1.3979  0.2278  0.0688
  788MOL0     C 8636   6.200   1.886   8.595  0.1681  0.0374 -0.2046
  788MOL0     O 8637   6.176   1.972   8.502  0.6240 -0.0638  0.7058
  788MOL0     C 8638   6.267   1.973   8.402  0.0961 -0.5770  0.2501
  788MOL0     C 8639   6.278   1.877   8.298 -1.0776 -0.2762  0.0953
  788MOL0     C 8640   6.376   1.894   8.196 -0.0901 -0.1916 -0.0796
  788MOL0     C 8641   6.465   1.999   8.208  0.4725  0.2615 -0.4931
  788MOL0     O 8642   6.558   2.011   8.108  0.0650 -0.0826 -0.1612
  788MOL0     C 8643   6.684   1.965   8.146 -0.8063 -0.5006  0.2134
  788MOL0     C 8644   6.778   1.941   8.032 -0.7120 -0.9276  0.0384
  788MOL0     C 8645   6.723   1.834   7.933 -0.3272  0.0529 -1.1908
  788MOL0     C 8646   6.785   1.847   7.788 -0.2719 -0.1130 -0.6567
  788MOL0     C 8647   6.720   1.739   7.701 -0.2522  0.0970 -0.3052
  788MOL0     C 8648   6.739   1.585   7.746  0.2273 -0.2215  0.4970
  788MOL0     C 8649   6.884   1.554   7.783 -0.6177 -0.7868 -0.5523
  788MOL0     C 8650   6.904   1.404   7.817 -0.5603  0.8376 -0.0886
  788MOL0    Cl 8651   6.888   1.392   7.990 -0.1660  0.2483 -0.1107
  788MOL0     C 8652   6.455   2.089   8.312  0.5061 -0.6933 -1.4939
  788MOL0     C 8653   6.352   2.085   8.406  0.3676 -0.1301 -0.3054
  788MOL0     O 8654   6.305   1.827   8.601  0.0455  0.1445  0.0485
  788MOL0     C 8655   6.136   1.770   8.813 -1.0998  0.1397  0.4103
  788MOL0     C 8656   6.053   1.755   8.925  0.1931 -0.3356 -0.1173
  788MOL0     N 8657   5.427   2.065   9.485  0.2150  0.2162 -1.0570
  788MOL0     N 8658   5.368   2.117   9.588 -0.5384 -0.9395 -0.5395
  788MOL0     C 8659   5.723   2.918  10.024 -0.1240 -0.0150 -0.2831
  788MOL0     C 8660   5.633   3.004  10.076  0.8239 -0.1959  0.0055
  788MOL0     C 8661   5.326   3.263  10.243  0.4407  0.5583  0.6872
  788MOL0     C 8662   5.362   3.291  10.378 -0.5827 -0.5626 -0.9062
  788MOL0     C 8663   5.310   3.396  10.452 -0.5285  0.3711  0.1118
  788MOL0     C 8664   5.222   3.484  10.384  0.6288  0.5298  0.2152
  788MOL0     O 8665   5.169   3.591  10.437  0.4279 -0.5701  0.7122
  788MOL0     C 8666   5.198   3.634  10.572 -0.5096 -0.6211 -0.4072
  788MOL0     C 8667   5.330   3.715  10.543 -0.1386  0.2970 -0.1745
  788MOL0     C 8668   5.324   3.840  10.456  0.3751  1.0044  0.9578
  788MOL0     C 8669   5.367   3.810  10.302  0.3196  0.3660 -0.9292
  788MOL0     C 8670   5.513   3.795  10.284 -0.5669  0.5942 -0.0628
  788MOL0     C 8671   5.626   3.780  10.249 -0.4244 -1.1550 -0.1323
  788MOL0     C 8672   5.171   3.445  10.251 -0.1685  0.3244 -0.5151
  788MOL0     C 8673   5.217   3.338  10.181 -0.5104 -0.0860  0.0371
  788MOL0     C 8674   5.156   3.309  10.050  0.3771  0.8795  0.4566
  788MOL0     H 8675   5.556   2.840  10.362  1.7106 -0.1898  0.0949
  788MOL0     H 8676   5.722   2.697  10.282  3.6138 -0.7904 -2.3665
  788MOL0     H 8677   6.000   2.644   9.969  0.5350  0.4902  3.8686
  788MOL0     H 8678   5.943   2.809   9.919 -1.7549 -0.6357  1.3087
  788MOL0     H 8679   5.758   2.730   9.821 -1.0653 -0.3497  1.2946
  788MOL0     H 8680   5.890   2.639   9.748 -3.4479  3.1799 -2.4501
  788MOL0     H 8681   5.862   2.449   9.895  0.3095 -1.1816 -2.0636
  788MOL0     H 8682   5.707   2.522   9.957  1.1269  0.9524  0.3093
  788MOL0     H 8683   5.673   2.520   9.688 -2.7284 -0.2434  1.4844
  788MOL0     H 8684   5.791   2.400   9.687 -0.7023 -0.4998 -1.0351
  788MOL0     H 8685   5.544   2.329   9.702 -0.8201  0.1770 -0.6326
  788MOL0     H 8686   5.541   2.397   9.865 -2.7045  0.9949 -2.0231
  788MOL0     H 8687   5.714   2.156   9.757  2.2456  2.1775  0.4038
  788MOL0     H 8688   5.734   2.228   9.915 -0.4865  1.2339 -0.3203
  788MOL0     H 8689   5.527   2.172  10.006 -2.1399 -0.2961 -0.3007
  788MOL0     H 8690   5.605   2.029   9.934  4.2133  2.5812 -0.8507
  788MOL0     H 8691   5.356   2.038   9.882  1.2308  0.6475 -0.3471
  788MOL0     H 8692   5.366   2.199   9.834 -0.0307  0.5704 -0.3827
  788MOL0     H 8693   5.617   1.917   9.703  0.0521  2.0935  2.0871
  788MOL0     H 8694   5.737   1.951   9.445 -1.0542 -0.6186  2.1273
  788MOL0     H 8695   5.648   2.063   9.336 -0.0519  0.7249  2.1532
  788MOL0     H 8696   5.543   1.792   9.387  1.1004  1.1354  0.5239
  788MOL0     H 8697   5.503   1.886   9.240  0.1876 -0.8108 -1.2430
  788MOL0     H 8698   5.779   1.777   9.303  1.1449 -1.9376 -0.2150
  788MOL0     H 8699   5.669   1.680   9.209  0.7619  0.4375 -1.2968
  788MOL0     H 8700   5.662   1.833   9.023 -0.6124  2.0319 -0.1588
  788MOL0     H 8701   5.760   1.957   9.112 -0.4255  0.2026  2.7358
  788MOL0     H 8702   5.792   1.945   8.846  0.6989 -0.4936  0.0361
  788MOL0     H 8703   5.794   2.011   8.639  0.0211 -1.5733  2.2322
  788MOL0     H 8704   5.896   1.926   8.526 -3.5898 -1.2991  0.3372
  788MOL0     H 8705   5.951   2.086   8.588  0.4336  0.1108  3.1545
  788MOL0     H 8706   6.196   1.807   8.287 -1.9571 -0.1962  4.2246
  788MOL0     H 8707   6.379   1.828   8.110  1.0421  0.7808 -0.8205
  788MOL0     H 8708   6.722   2.047   8.207 -0.5492  2.5333 -3.6040
  788MOL0     H 8709   6.685   1.872   8.204 -1.1930  0.2487  1.4387
  788MOL0     H 8710   6.817   2.035   7.993 -2.4822  0.7707  2.1128
  788MOL0     H 8711   6.864   1.896   8.084 -1.8135 -1.1411  1.7413
  788MOL0     H 8712   6.615   1.848   7.922 -0.8477 -2.3247  0.2419
  788MOL0     H 8713   6.753   1.739   7.977  3.7411  1.3051 -0.8852
  788MOL0     H 8714   6.893   1.835   7.796 -0.5861 -2.4994  1.2272
  788MOL0     H 8715   6.764   1.949   7.754  2.3244 -0.2891 -3.1062
  788MOL0     H 8716   6.612   1.755   7.707 -0.3893 -0.8089 -0.1942
  788MOL0     H 8717   6.763   1.748   7.601  0.9821  1.1658  0.2868
  788MOL0     H 8718   6.711   1.522   7.662  1.9946 -1.4962  0.8231
  788MOL0     H 8719   6.675   1.549   7.827  1.8662  0.8401  2.3724
  788MOL0     H 8720   6.916   1.616   7.868 -1.3490 -0.3998 -0.5525
  788MOL0     H 8721   6.949   1.593   7.703 -0.9818  0.9527 -0.0409
  788MOL0     H 8722   6.998   1.370   7.774 -0.6995  0.5946 -0.2025
  788MOL0     H 8723   6.835   1.332   7.773  1.9519 -1.8282  0.0849
  788MOL0     H 8724   6.519   2.178   8.313 -4.1713  3.0756  0.6327
  788MOL0     H 8725   6.343   2.155   8.488 -4.4837  0.5865 -1.1980
  788MOL0     H 8726   6.234   1.723   8.806  1.5950  4.2724  4.7782
  788MOL0     H 8727   6.088   1.704   9.014  1.4603  2.2495  0.9487
  788MOL0     H 8728   5.772   2.934   9.929 -2.0092  0.9456 -1.1406
  788MOL0     H 8729   5.607   3.094  10.020  0.1701 -1.9679 -2.7658
  788MOL0     H 8730   5.444   3.237  10.426  0.3879  1.6972  0.1125
  788MOL0     H 8731   5.349   3.409  10.553  0.8320 -1.4525 -0.1282
  788MOL0     H 8732   5.115   3.693  10.613  1.0791 -0.7288  3.3683
  788MOL0     H 8733   5.215   3.551  10.642 -1.5249 -0.2157  0.3490
  788MOL0     H 8734   5.404   3.642  10.509  1.3367  2.3762 -1.6222
  788MOL0     H 8735   5.366   3.750  10.641 -1.1646 -0.7862  0.6217
  788MOL0     H 8736   5.222   3.876  10.442 -0.1642 -1.1306 -1.3412
  788MOL0     H 8737   5.394   3.921  10.479  2.1243  0.2285 -1.3216
  788MOL0     H 8738   5.332   3.899  10.250 -0.5841  0.9356  0.5804
  788MOL0     H 8739   5.313   3.727  10.255  2.4462 -1.4831 -0.3091
  788MOL0     H 8740   5.731   3.775  10.225  0.0347  2.2668  0.5653
  788MOL0     H 8741   5.089   3.501  10.208 -3.1130 -2.3857  1.1189
  788MOL0     H 8742   5.127   3.204  10.049 -1.5926  1.3943 -0.5242
  788MOL0     H 8743   5.061   3.360  10.034 -0.2667 -0.4354 -0.0963
  788MOL0     H 8744   5.227   3.327   9.968  0.2625 -2.3310 -0.4838
  789MOL0     O 8745   5.619   7.289   0.670  0.6906 -0.6939  0.1905
  789MOL0     C 8746   5.701   7.382   0.671  0.2291  0.2074  0.1132
  789MOL0     O 8747   5.779   7.413   0.568  0.0223  0.0642  0.1006
  789MOL0     C 8748   5.735   7.378   0.445 -0.2947 -0.0888 -0.1217
  789MOL0     C 8749   5.782   7.270   0.365 -0.2742  0.9550  0.4119
  789MOL0     C 8750   5.734   7.245   0.236 -0.3733  0.2729  0.0096
  789MOL0     C 8751   5.635   7.325   0.178 -0.2960 -0.0146  0.4320
  789MOL0     O 8752   5.583   7.278   0.058 -0.3298 -0.6267  0.3473
  789MOL0     C 8753   5.586   7.386  -0.045  0.0248  0.3628  0.0129
  789MOL0     C 8754   5.715   7.363  -0.132 -0.4620 -0.0654 -0.5464
  789MOL0     C 8755   5.845   7.425  -0.055 -0.6769 -0.0556  0.0798
  789MOL0     C 8756   5.970   7.446  -0.140  0.6964 -0.6290 -0.0330
  789MOL0     C 8757   6.088   7.510  -0.062 -0.1698 -0.7056 -1.0216
  789MOL0     C 8758   6.092   7.669  -0.066  0.4374 -0.8790  0.1626
  789MOL0     C 8759   6.200   7.719   0.035  0.8274 -0.5159 -0.2848
  789MOL0     C 8760   6.147   7.733   0.170 -0.2788 -0.4620  0.1600
  789MOL0     N 8761   6.264   7.761   0.248 -0.3996  0.4546 -0.1657
  789MOL0     C 8762   6.361   7.678   0.290  0.8531 -0.4017 -0.0807
  789MOL0     C 8763   6.458   7.755   0.349  0.1646  0.2744 -0.1926
  789MOL0     C 8764   6.592   7.706   0.401  0.4682 -1.5623 -0.2026
  789MOL0     C 8765   6.643   7.775   0.526 -0.2812 -0.1135 -0.1598
  789MOL0     C 8766   6.533   7.792   0.646  0.1107 -0.6276 -0.8053
  789MOL0     C 8767   6.612   7.812   0.785 -0.0145 -0.6339  0.8268
  789MOL0     O 8768   6.717   7.921   0.781 -0.0410 -0.2834 -0.1724
  789MOL0     C 8769   6.746   7.987   0.896 -0.2645 -0.1948 -1.2083
  789MOL0     C 8770   6.756   8.125   0.910  0.4588 -0.0436 -0.3537
  789MOL0     C 8771   6.797   8.191   1.025  0.3091 -0.8029 -0.3230
  789MOL0     C 8772   6.813   8.344   1.012 -0.3896 -0.2423  0.4196
  789MOL0     C 8773   6.823   8.107   1.139 -0.3729 -0.6289 -0.0698
  789MOL0     C 8774   6.850   8.160   1.274 -1.3711  0.0815 -0.0689
  789MOL0     O 8775   6.892   8.288   1.287  0.0520  0.9430  0.7713
  789MOL0     C 8776   6.907   8.347   1.405 -0.7248  0.8253 -0.1895
  789MOL0     C 8777   7.032   8.409   1.432 -0.4697 -0.5939 -0.6576
  789MOL0     C 8778   7.059   8.469   1.560 -0.7348 -0.4087  0.1675
  789MOL0     C 8779   6.952   8.475   1.657  0.4086  0.5315 -0.2964
  789MOL0     O 8780   6.962   8.538   1.779 -0.0357  0.2960 -0.0154
  789MOL0     C 8781   7.072   8.630   1.810  0.1232  0.0193  0.0713
  789MOL0     C 8782   7.032   8.722   1.920  0.4771 -0.6922 -0.5040
  789MOL0     C 8783   7.140   8.808   1.973 -0.5368  0.0502 -0.5174
  789MOL0     C 8784   7.093   8.888   2.094 -0.1259  1.0523  0.4266
  789MOL0     C 8785   7.076   9.043   2.085  0.0509 -0.2473  0.8517
  789MOL0     C 8786   7.007   9.097   2.223 -0.3182 -0.6986  0.4576
  789MOL0     C 8787   7.114   9.106   2.337  0.4715  0.4291  0.2909
  789MOL0     C 8788   7.056   9.137   2.471 -0.6428 -0.1447  0.3457
  789MOL0    Cl 8789   6.909   9.247   2.478 -0.7201  0.0271  0.2257
  789MOL0     C 8790   6.827   8.429   1.626  0.1134  0.8692 -0.2698
  789MOL0     C 8791   6.807   8.359   1.502  0.1193 -0.1062 -1.2566
  789MOL0     O 8792   6.817   8.096   1.371  0.7116  0.9555 -0.3911
  789MOL0     C 8793   6.816   7.970   1.124  0.9072 -0.3617 -0.4153
  789MOL0     C 8794   6.781   7.905   1.007 -1.1629  0.2927  0.6868
  789MOL0     N 8795   6.406   7.881   0.349 -0.2613 -0.6461  0.6558
  789MOL0     N 8796   6.294   7.885   0.285  0.2652 -1.2426  0.6024
  789MOL0     C 8797   5.573   7.427   0.257 -0.2932  1.0487  0.6049
  789MOL0     C 8798   5.623   7.447   0.385  0.9633  0.3187  0.6950
  789MOL0     C 8799   5.698   7.475   0.786 -0.9477 -0.3786  1.1045
  789MOL0     C 8800   5.568   7.525   0.832 -0.4210 -1.3902  0.3589
  789MOL0     C 8801   5.566   7.618   0.937 -0.9716  0.4958  0.5847
  789MOL0     C 8802   5.685   7.671   0.991  0.3089  0.0407 -0.2660
  789MOL0     O 8803   5.671   7.768   1.086 -0.8039  0.5032 -0.1944
  789MOL0     C 8804   5.744   7.886   1.043  0.1020  0.0931 -0.0734
  789MOL0     C 8805   5.725   8.003   1.131 -0.3414 -0.2616 -0.1117
  789MOL0     C 8806   5.785   7.968   1.263  0.1249 -0.5126 -0.6663
  789MOL0     C 8807   5.937   7.998   1.279 -1.1230 -0.5118 -0.5734
  789MOL0     C 8808   6.025   7.905   1.200 -0.0056  0.2839 -1.7795
  789MOL0     C 8809   6.106   7.829   1.149  0.3826 -0.1226  0.1911
  789MOL0     C 8810   5.806   7.609   0.956 -0.1524 -0.4229  0.9707
  789MOL0     C 8811   5.821   7.508   0.852 -1.0494 -0.0093 -0.6105
  789MOL0     C 8812   5.964   7.466   0.811 -0.1913 -0.5598  0.2204
  789MOL0     H 8813   5.856   7.210   0.418  0.5725  0.0460 -1.6958
  789MOL0     H 8814   5.763   7.162   0.172 -0.2563  1.7150 -1.8911
  789MOL0     H 8815   5.578   7.488  -0.007  0.3999  0.4790 -0.2222
  789MOL0     H 8816   5.493   7.359  -0.097  1.4005 -2.6461 -1.1508
  789MOL0     H 8817   5.722   7.255  -0.141  3.0741 -0.0204  0.0910
  789MOL0     H 8818   5.683   7.409  -0.226 -0.8040 -0.3219 -0.5559
  789MOL0     H 8819   5.835   7.527  -0.018 -1.5309  1.1411 -3.1302
  789MOL0     H 8820   5.884   7.348   0.013 -4.0399 -1.8063  0.2209
  789MOL0     H 8821   5.998   7.347  -0.177  1.0634 -1.0739  1.3960
  789MOL0     H 8822   5.948   7.512  -0.225  1.5250 -0.5281 -0.1709
  789MOL0     H 8823   6.182   7.466  -0.094  0.1290 -0.8312 -0.0121
  789MOL0     H 8824   6.071   7.483   0.043  2.2544 -0.8259 -0.6039
  789MOL0     H 8825   6.110   7.701  -0.169 -2.3542  1.7893  0.3494
  789MOL0     H 8826   5.996   7.717  -0.047  0.6006 -0.6882  0.5186
  789MOL0     H 8827   6.232   7.820   0.008 -1.1237  0.4575  0.8234
  789MOL0     H 8828   6.287   7.652   0.043 -0.3663 -2.1762 -0.5591
  789MOL0     H 8829   6.085   7.823   0.172 -0.0824 -0.2352 -2.0600
  789MOL0     H 8830   6.096   7.639   0.193 -1.3357 -0.1168 -0.7204
  789MOL0     H 8831   6.363   7.569   0.295  0.7188 -0.3519  2.0783
  789MOL0     H 8832   6.664   7.712   0.319 -0.4654 -0.5892 -0.9802
  789MOL0     H 8833   6.585   7.600   0.426  0.8694 -1.8002 -1.0650
  789MOL0     H 8834   6.736   7.739   0.570 -0.8900  0.7431  1.9554
  789MOL0     H 8835   6.664   7.879   0.497 -2.5372  1.4275  3.1273
  789MOL0     H 8836   6.471   7.878   0.621  0.2841 -0.8166 -1.9347
  789MOL0     H 8837   6.469   7.703   0.649 -0.2522 -0.3866 -1.2079
  789MOL0     H 8838   6.539   7.839   0.862  1.0822  2.2839  0.9471
  789MOL0     H 8839   6.644   7.712   0.817 -0.8991 -0.7817  1.3075
  789MOL0     H 8840   6.728   8.177   0.819 -0.6164  0.2463  0.1186
  789MOL0     H 8841   6.790   8.388   0.915  0.2302 -0.5651  0.1226
  789MOL0     H 8842   6.920   8.361   1.021 -0.4737 -0.5472  2.3490
  789MOL0     H 8843   6.760   8.398   1.091  0.9027  2.5373 -0.4958
  789MOL0     H 8844   7.119   8.399   1.368 -0.0542 -1.1244 -0.0207
  789MOL0     H 8845   7.155   8.515   1.581 -0.7653 -0.2863  0.0398
  789MOL0     H 8846   7.165   8.578   1.837  1.1665  0.7201 -1.9554
  789MOL0     H 8847   7.100   8.692   1.724  3.0044  2.3361  2.4439
  789MOL0     H 8848   6.963   8.797   1.880 -0.5080 -0.6212  1.1864
  789MOL0     H 8849   6.975   8.658   1.989  1.0342 -1.6282 -0.9022
  789MOL0     H 8850   7.177   8.879   1.898 -0.1334 -0.0454 -0.4117
  789MOL0     H 8851   7.228   8.747   1.995 -1.5936 -1.2224  0.3019
  789MOL0     H 8852   7.172   8.887   2.170 -0.2254 -0.7400  0.5672
  789MOL0     H 8853   7.008   8.846   2.148 -0.0443  0.8673  0.4125
  789MOL0     H 8854   7.171   9.097   2.087 -0.9004  1.6006 -0.9835
  789MOL0     H 8855   7.009   9.077   2.006  1.2430  1.3022  0.4625
  789MOL0     H 8856   6.920   9.036   2.248 -1.7369  0.7268 -0.8034
  789MOL0     H 8857   6.969   9.199   2.214 -0.4017 -0.5981  1.7477
  789MOL0     H 8858   7.182   9.189   2.313  2.1245 -1.2310 -1.0716
  789MOL0     H 8859   7.171   9.012   2.343 -1.7269 -1.1531 -1.9282
  789MOL0     H 8860   7.132   9.185   2.533 -0.3105  0.4242 -0.4891
  789MOL0     H 8861   7.025   9.041   2.513  0.8824 -0.7921  0.0634
  789MOL0     H 8862   6.740   8.449   1.688  0.8363  0.3639  0.9522
  789MOL0     H 8863   6.704   8.336   1.477 -0.7396 -0.9647  2.5576
  789MOL0     H 8864   6.832   7.898   1.204  0.8334 -1.2518 -1.1855
  789MOL0     H 8865   6.792   7.798   0.999  0.7404  0.5936 -2.1569
  789MOL0     H 8866   5.480   7.475   0.228 -1.3227 -0.1947  1.6567
  789MOL0     H 8867   5.558   7.518   0.436  0.7842  1.4224 -0.9794
  789MOL0     H 8868   5.471   7.496   0.791 -0.9317  0.4804  0.1855
  789MOL0     H 8869   5.468   7.658   0.961 -1.3542  1.8856 -2.8076
  789MOL0     H 8870   5.850   7.864   1.028 -0.6241 -2.2951 -2.4176
  789MOL0     H 8871   5.695   7.914   0.949  0.2936  1.1020  0.1151
  789MOL0     H 8872   5.618   8.025   1.131 -0.2791  0.3380  2.1148
  789MOL0     H 8873   5.783   8.090   1.100 -1.5908  0.7702  0.3325
  789MOL0     H 8874   5.725   8.027   1.333 -1.6204 -0.0842 -2.4501
  789MOL0     H 8875   5.783   7.863   1.293 -0.0161 -0.3664 -0.1596
  789MOL0     H 8876   5.958   8.007   1.386  0.4473 -1.6082 -0.7650
  789MOL0     H 8877   5.963   8.093   1.232  2.6913 -1.2434 -0.2819
  789MOL0     H 8878   6.173   7.762   1.099 -0.0247  2.7951 -4.9308
  789MOL0     H 8879   5.899   7.633   1.005  0.9614 -4.3830  1.1859
  789MOL0     H 8880   6.025   7.468   0.901 -1.2596  2.6925  1.0274
  789MOL0     H 8881   5.934   7.368   0.774 -0.3776 -0.7952  0.9810
  789MOL0     H 8882   6.002   7.540   0.739  1.3063 -0.5266  1.0276
  790MOL0     O 8883   1.996   1.199   1.880  0.4881  0.0807 -0.2053
  790MOL0     C 8884   1.880   1.223   1.838 -1.2794 -0.1215  0.5327
  790MOL0     O 8885   1.848   1.304   1.731  0.6469 -0.7165 -0.0699
  790MOL0     C 8886   1.937   1.363   1.650 -0.9267  0.2942  0.0902
  790MOL0     C 8887   2.036   1.445   1.702  0.8897 -0.0028  0.5423
  790MOL0     C 8888   2.124   1.517   1.612  0.4426  0.2481  0.2497
  790MOL0     C 8889   2.137   1.480   1.479 -0.5724  0.9170  0.7116
  790MOL0     O 8890   2.231   1.499   1.383 -0.3893 -0.0305  0.4979
  790MOL0     C 8891   2.306   1.627   1.389 -0.3753 -0.9259 -0.1112
  790MOL0     C 8892   2.411   1.642   1.278  0.1202 -0.2939  0.7285
  790MOL0     C 8893   2.340   1.618   1.140  0.4129 -0.8997 -0.1265
  790MOL0     C 8894   2.435   1.623   1.016  0.7374 -0.2720  0.3750
  790MOL0     C 8895   2.519   1.494   1.001  0.0604 -0.3747 -0.7448
  790MOL0     C 8896   2.651   1.525   0.915 -0.0809  0.2266  0.2430
  790MOL0     C 8897   2.749   1.408   0.908  0.3166  0.1683  0.3108
  790MOL0     C 8898   2.811   1.386   1.048 -0.2728  0.6392 -0.2935
  790MOL0     N 8899   2.904   1.275   1.048  0.0452  0.0457 -0.3345
  790MOL0     C 8900   2.890   1.140   1.086  0.5660 -0.0247  0.4772
  790MOL0     C 8901   3.002   1.076   1.050  1.2165 -0.0033  0.2635
  790MOL0     C 8902   3.039   0.931   1.060 -0.4362  0.7626 -0.3233
  790MOL0     C 8903   2.959   0.865   1.169 -0.3014 -0.2225  0.4304
  790MOL0     C 8904   3.007   0.727   1.218 -0.2061 -0.4032 -0.2019
  790MOL0     C 8905   3.132   0.739   1.294  0.6552 -0.3081 -0.0118
  790MOL0     O 8906   3.175   0.611   1.339 -0.0152 -0.0439 -0.1529
  790MOL0     C 8907   3.201   0.623   1.471 -0.7381 -0.0201 -0.5074
  790MOL0     C 8908   3.328   0.671   1.498  0.3844 -0.2272 -0.3053
  790MOL0     C 8909   3.366   0.694   1.629  0.2720 -0.3516 -0.2857
  790MOL0     C 8910   3.510   0.740   1.649 -0.1300  0.4371 -1.0083
  790MOL0     C 8911   3.276   0.660   1.735  0.4067  0.4559 -0.3792
  790MOL0     C 8912   3.317   0.665   1.874 -0.7278 -0.2595 -0.2497
  790MOL0     O 8913   3.262   0.569   1.960 -1.4056  0.1034 -0.2539
  790MOL0     C 8914   3.294   0.555   2.094 -0.3609 -0.1924  0.3499
  790MOL0     C 8915   3.286   0.423   2.145  0.0225  0.0355  1.1850
  790MOL0     C 8916   3.301   0.392   2.276  0.3143  0.1566  0.7713
  790MOL0     C 8917   3.324   0.504   2.362 -0.0155  0.4284 -0.8675
  790MOL0     O 8918   3.331   0.465   2.490 -0.6294  0.2280 -0.6943
  790MOL0     C 8919   3.350   0.562   2.604 -0.6454 -0.6419  0.1071
  790MOL0     C 8920   3.503   0.611   2.614 -0.2092  0.1596 -0.7385
  790MOL0     C 8921   3.519   0.713   2.722 -0.2918 -0.0589 -0.4122
  790MOL0     C 8922   3.663   0.764   2.714 -0.1284 -0.5854 -0.1410
  790MOL0     C 8923   3.719   0.812   2.853 -0.8087 -0.3922  0.2123
  790MOL0     C 8924   3.872   0.833   2.842  0.1779  0.3546  0.3950
  790MOL0     C 8925   3.939   0.919   2.954  0.3354  0.2929  0.4902
  790MOL0     C 8926   3.957   0.843   3.086 -1.5757 -0.0879  0.2052
  790MOL0    Cl 8927   4.129   0.864   3.136 -0.3391  0.1715  0.0169
  790MOL0     C 8928   3.338   0.637   2.317 -0.4207 -0.3320  1.1408
  790MOL0     C 8929   3.314   0.661   2.181 -0.1888  1.4357  0.8876
  790MOL0     O 8930   3.390   0.758   1.916  0.1711 -0.1128 -0.6640
  790MOL0     C 8931   3.146   0.613   1.699 -0.2607  0.4463  0.0500
  790MOL0     C 8932   3.115   0.583   1.567 -0.3459  0.0665 -0.3663
  790MOL0     N 8933   3.082   1.180   0.996 -0.5554  0.3468  0.5864
  790MOL0     N 8934   3.035   1.290   1.021 -0.4027  0.0291  0.5408
  790MOL0     C 8935   2.046   1.381   1.436  0.2168 -0.9247 -0.4447
  790MOL0     C 8936   1.938   1.339   1.516  0.4283  1.0142  0.3481
  790MOL0     C 8937   1.780   1.143   1.896  1.2270  0.0190 -0.8091
  790MOL0     C 8938   1.665   1.111   1.821  0.2845  1.1099 -0.0881
  790MOL0     C 8939   1.560   1.027   1.865 -0.0602  0.2445  0.1163
  790MOL0     C 8940   1.566   0.978   1.994  0.1142 -0.1832 -0.8324
  790MOL0     O 8941   1.467   0.898   2.040  0.4568 -0.5617 -0.5288
  790MOL0     C 8942   1.486   0.768   1.986 -0.1683  0.1790 -0.6012
  790MOL0     C 8943   1.440   0.665   2.087 -0.2802  0.4256  0.3995
  790MOL0     C 8944   1.476   0.522   2.049  0.2884  0.2242  0.3906
  790MOL0     C 8945   1.584   0.449   2.145 -0.1912 -0.6148  0.5430
  790MOL0     C 8946   1.615   0.302   2.124 -0.2036 -0.1869  0.4325
  790MOL0     C 8947   1.656   0.114   2.089 -0.4022 -0.5227  0.3100
  790MOL0     C 8948   1.679   0.999   2.069  0.5071 -0.2243 -0.5015
  790MOL0     C 8949   1.792   1.070   2.022 -0.1081 -0.4202 -0.1913
  790MOL0     C 8950   1.899   1.101   2.127 -0.5173  0.2061 -0.2558
  790MOL0     H 8951   2.030   1.464   1.809 -1.4373  0.0851  0.4504
  790MOL0     H 8952   2.205   1.578   1.651  0.1401  1.0160 -0.3149
  790MOL0     H 8953   2.360   1.640   1.483 -2.2069  4.2264  0.5742
  790MOL0     H 8954   2.249   1.720   1.378 -0.3676 -1.1010 -2.0003
  790MOL0     H 8955   2.472   1.732   1.290  2.3702 -1.7764  0.9479
  790MOL0     H 8956   2.476   1.556   1.295 -0.9330 -1.1231  0.6600
  790MOL0     H 8957   2.301   1.516   1.145  1.6479 -1.3865 -0.2435
  790MOL0     H 8958   2.256   1.688   1.131  0.6517 -0.4896  0.7486
  790MOL0     H 8959   2.367   1.636   0.931  1.3808  1.6500  0.1042
  790MOL0     H 8960   2.505   1.707   1.017  0.3050  0.1607 -1.7081
  790MOL0     H 8961   2.451   1.439   0.936 -0.6456  0.2483 -0.5381
  790MOL0     H 8962   2.534   1.442   1.096  0.6704  3.4531  1.4615
  790MOL0     H 8963   2.628   1.536   0.809 -1.3516 -1.0870  0.3425
  790MOL0     H 8964   2.707   1.613   0.945  0.8745  0.0285 -0.9188
  790MOL0     H 8965   2.826   1.440   0.838  0.5189  1.0191  0.9140
  790MOL0     H 8966   2.702   1.318   0.866 -0.8588  2.0138 -2.6844
  790MOL0     H 8967   2.869   1.475   1.073  0.8791 -0.1715  0.0377
  790MOL0     H 8968   2.739   1.367   1.128  0.6933 -1.2036  0.2042
  790MOL0     H 8969   2.799   1.091   1.120  1.8484 -2.4855  0.6047
  790MOL0     H 8970   3.145   0.925   1.087 -1.0808 -1.2001  2.1929
  790MOL0     H 8971   3.030   0.879   0.964  2.4182 -1.2127  0.3502
  790MOL0     H 8972   2.950   0.926   1.259  1.4751 -1.3061  1.3957
  790MOL0     H 8973   2.858   0.854   1.127 -0.7382  1.9670  0.7586
  790MOL0     H 8974   2.930   0.681   1.280 -3.8953  1.2391 -3.1063
  790MOL0     H 8975   3.019   0.668   1.127  0.8410  0.0754 -0.3834
  790MOL0     H 8976   3.211   0.775   1.227 -0.1309 -1.7497 -1.8166
  790MOL0     H 8977   3.117   0.814   1.373  0.0047 -1.0885  0.6227
  790MOL0     H 8978   3.394   0.698   1.416 -0.6046  3.1194 -0.1809
  790MOL0     H 8979   3.496   0.840   1.689 -1.5969 -0.2230  0.2232
  790MOL0     H 8980   3.558   0.734   1.551  0.9061  4.4053 -0.9090
  790MOL0     H 8981   3.568   0.684   1.724 -1.2117  0.6068 -0.0238
  790MOL0     H 8982   3.271   0.350   2.067  1.2282  1.6382 -0.6502
  790MOL0     H 8983   3.297   0.287   2.302 -0.6822 -0.0111 -0.0245
  790MOL0     H 8984   3.286   0.649   2.591 -0.9781 -1.0410 -1.0304
  790MOL0     H 8985   3.322   0.517   2.700 -0.8900  0.5266  0.5968
  790MOL0     H 8986   3.573   0.531   2.638  1.7386  2.4565  1.9861
  790MOL0     H 8987   3.517   0.657   2.516  0.0502  3.1238  0.5843
  790MOL0     H 8988   3.503   0.669   2.821 -0.6778  3.3390  1.1659
  790MOL0     H 8989   3.448   0.795   2.713 -0.4736  0.0322  1.3884
  790MOL0     H 8990   3.656   0.850   2.648 -0.0928 -0.4432  0.0408
  790MOL0     H 8991   3.734   0.693   2.669  0.6972  0.8447 -1.1523
  790MOL0     H 8992   3.676   0.911   2.870 -1.0866  0.2810 -3.4958
  790MOL0     H 8993   3.695   0.746   2.937  0.6128 -1.2093  0.0108
  790MOL0     H 8994   3.881   0.900   2.756 -0.2196  1.1322  0.9559
  790MOL0     H 8995   3.930   0.742   2.826  1.0521  1.3357 -2.8262
  790MOL0     H 8996   3.873   1.003   2.976 -0.0097 -0.1475  1.1718
  790MOL0     H 8997   4.035   0.946   2.910  0.2273 -0.2578 -0.1171
  790MOL0     H 8998   3.928   0.738   3.073  2.1360 -0.8701 -3.7938
  790MOL0     H 8999   3.888   0.891   3.157 -0.8486 -0.1278  0.9581
  790MOL0     H 9000   3.367   0.723   2.377  0.8148  2.1099 -2.6194
  790MOL0     H 9001   3.304   0.766   2.154 -0.4428  1.0454 -0.6269
  790MOL0     H 9002   3.073   0.589   1.775 -0.1476 -0.5158 -0.1300
  790MOL0     H 9003   3.017   0.552   1.530 -1.2799 -0.2569  2.1661
  790MOL0     H 9004   2.068   1.330   1.343 -1.2839 -0.4438 -1.1011
  790MOL0     H 9005   1.870   1.265   1.476  0.1063  0.0376  2.5448
  790MOL0     H 9006   1.663   1.150   1.719  2.2133  1.6548  0.0377
  790MOL0     H 9007   1.471   1.004   1.809 -0.0050 -1.0776  0.5392
  790MOL0     H 9008   1.421   0.759   1.899 -2.5953  0.1319  1.1333
  790MOL0     H 9009   1.592   0.756   1.961 -0.2323  1.4963 -1.5810
  790MOL0     H 9010   1.332   0.683   2.089  0.1400  3.8616 -1.0439
  790MOL0     H 9011   1.475   0.696   2.185 -1.3096 -1.5686  1.4633
  790MOL0     H 9012   1.393   0.451   2.045  1.3398 -1.1007  1.1249
  790MOL0     H 9013   1.512   0.516   1.946 -2.8921  1.6910 -0.9093
  790MOL0     H 9014   1.543   0.451   2.247  0.5896 -1.4007  0.8892
  790MOL0     H 9015   1.671   0.514   2.130 -1.9221  1.3265 -1.9006
  790MOL0     H 9016   1.661   0.009   2.068 -1.6999 -0.3251 -1.1554
  790MOL0     H 9017   1.677   0.956   2.168  0.0506  0.9857  0.0409
  790MOL0     H 9018   1.883   1.047   2.221 -2.3600 -1.4813 -1.4649
  790MOL0     H 9019   1.999   1.077   2.089  0.5013  2.6380  0.6902
  790MOL0     H 9020   1.895   1.205   2.161 -0.4553 -0.3360  1.5028
  791MOL0     O 9021   0.419   2.135  10.825 -0.0035 -0.4718  0.9213
  791MOL0     C 9022   0.375   2.204  10.920  0.6688 -0.2489  0.3236
  791MOL0     O 9023   0.426   2.325  10.959  0.5325 -0.2933 -0.2204
  791MOL0     C 9024   0.561   2.347  10.954  0.8460  0.4453  0.1129
  791MOL0     C 9025   0.619   2.391  10.846 -0.5209 -0.3866 -0.0323
  791MOL0     C 9026   0.758   2.408  10.833  0.0037 -0.5590 -0.4564
  791MOL0     C 9027   0.837   2.374  10.948 -0.1037  0.7226  0.5606
  791MOL0     O 9028   0.974   2.386  10.950  0.2614 -0.1224 -0.5461
  791MOL0     C 9029   1.032   2.508  10.892  0.6858  0.0165  0.0507
  791MOL0     C 9030   1.177   2.513  10.891 -0.3866  0.1791 -0.9388
  791MOL0     C 9031   1.249   2.398  10.809  0.2039 -0.1211 -0.6499
  791MOL0     C 9032   1.393   2.436  10.796  0.0328  0.2619  0.3990
  791MOL0     C 9033   1.444   2.417  10.655  0.9525  0.3355 -0.5337
  791MOL0     C 9034   1.593   2.453  10.655  0.2254  0.7655  0.5171
  791MOL0     C 9035   1.658   2.433  10.511 -0.9890  0.0411  0.3584
  791MOL0     C 9036   1.578   2.481  10.381 -0.5789 -0.0722 -0.0369
  791MOL0     N 9037   1.659   2.465  10.259  0.4524 -0.0907 -0.5623
  791MOL0     C 9038   1.788   2.509  10.238 -0.7610 -0.1805  0.6392
  791MOL0     C 9039   1.808   2.494  10.108 -0.0273  0.5571 -0.1275
  791MOL0     C 9040   1.933   2.538  10.038  0.0800  0.4590 -0.4831
  791MOL0     C 9041   1.942   2.693  10.021 -0.2097  0.9204 -0.3334
  791MOL0     C 9042   1.844   2.764   9.919  0.3564  0.5917  0.8642
  791MOL0     C 9043   1.815   2.688   9.778  0.0113  0.3419 -0.4153
  791MOL0     O 9044   1.909   2.744   9.680 -0.4709  0.7779 -0.0487
  791MOL0     C 9045   1.915   2.696   9.552 -0.5354  0.0118 -0.4612
  791MOL0     C 9046   2.001   2.758   9.467  0.1633  0.9655  0.2040
  791MOL0     C 9047   2.023   2.703   9.342 -1.0590  1.4768 -0.2857
  791MOL0     C 9048   2.114   2.782   9.245  0.4374 -0.4118 -0.0035
  791MOL0     C 9049   1.969   2.571   9.305  0.0816 -0.3208  0.3364
  791MOL0     C 9050   1.992   2.494   9.190 -0.3045 -0.2494 -0.3200
  791MOL0     O 9051   2.005   2.561   9.078  0.1751 -0.4336 -0.6243
  791MOL0     C 9052   2.062   2.516   8.958  0.2556  0.5029 -0.2253
  791MOL0     C 9053   2.148   2.406   8.953 -0.2305  0.4884  0.9664
  791MOL0     C 9054   2.185   2.359   8.831 -0.6934 -0.4524  1.0424
  791MOL0     C 9055   2.147   2.425   8.707  0.0520  0.2786 -0.6448
  791MOL0     O 9056   2.189   2.364   8.594  0.5985 -0.5624  0.1940
  791MOL0     C 9057   2.135   2.406   8.461  0.4953  0.0426 -0.0138
  791MOL0     C 9058   2.247   2.472   8.383 -0.1819 -0.4406 -0.4282
  791MOL0     C 9059   2.202   2.461   8.235 -0.1173 -0.4519  0.6187
  791MOL0     C 9060   2.308   2.502   8.136 -0.8312  0.0771 -0.1269
  791MOL0     C 9061   2.258   2.514   7.995  0.3996 -0.2911 -0.4323
  791MOL0     C 9062   2.349   2.593   7.902  0.3645 -0.4545  0.4098
  791MOL0     C 9063   2.493   2.539   7.874 -0.5104  0.4998 -0.5320
  791MOL0     C 9064   2.552   2.610   7.751  0.8360 -0.0986  0.4867
  791MOL0    Cl 9065   2.717   2.558   7.721  0.0423 -0.1296  0.2376
  791MOL0     C 9066   2.061   2.538   8.715 -0.5932 -0.5028 -0.0696
  791MOL0     C 9067   2.025   2.587   8.839 -0.1278  0.6746 -0.3519
  791MOL0     O 9068   1.989   2.368   9.202 -0.6858  0.0076 -0.1265
  791MOL0     C 9069   1.870   2.522   9.392 -1.1331 -0.1758  0.0587
  791MOL0     C 9070   1.855   2.579   9.516 -0.1520  0.7798  0.0022
  791MOL0     N 9071   1.696   2.435  10.045 -0.3015 -0.0404  0.4134
  791MOL0     N 9072   1.611   2.411  10.144 -0.2303 -0.5473  1.0304
  791MOL0     C 9073   0.767   2.329  11.061 -0.2836 -1.4638  0.4692
  791MOL0     C 9074   0.631   2.330  11.064  1.0761  0.5849 -0.9805
  791MOL0     C 9075   0.246   2.184  10.989 -0.1697 -0.7218  1.0663
  791MOL0     C 9076   0.237   2.186  11.125  0.0963 -0.5596  0.1938
  791MOL0     C 9077   0.127   2.150  11.198  0.6133  0.7196  0.4636
  791MOL0     C 9078   0.012   2.113  11.127 -0.5886 -0.2409  0.3446
  791MOL0     O 9079  -0.113   2.077  11.178  0.8834 -0.4386 -0.0597
  791MOL0     C 9080  -0.145   2.055  11.318  0.2446  0.3385 -0.1705
  791MOL0     C 9081  -0.290   2.031  11.337  0.4075 -0.5595 -0.3702
  791MOL0     C 9082  -0.311   1.889  11.290  0.2429 -0.3422 -0.0545
  791MOL0     C 9083  -0.457   1.843  11.316 -0.2799 -0.6123  0.1857
  791MOL0     C 9084  -0.557   1.911  11.222  0.4247 -0.2333  1.1050
  791MOL0     C 9085  -0.631   1.967  11.155  1.1359 -0.0394 -0.6775
  791MOL0     C 9086   0.017   2.092  10.987  0.5744  0.6904 -0.4183
  791MOL0     C 9087   0.133   2.129  10.923  0.0869  1.0787  0.7911
  791MOL0     C 9088   0.129   2.115  10.779  0.1661 -0.0018  0.1079
  791MOL0     H 9089   0.556   2.425  10.765  1.4992 -1.3235 -2.1166
  791MOL0     H 9090   0.812   2.452  10.749  1.5392 -2.6937 -0.7006
  791MOL0     H 9091   0.978   2.597  10.926  1.0692  0.0817  0.4950
  791MOL0     H 9092   1.020   2.502  10.784  0.1983 -0.1262  0.1102
  791MOL0     H 9093   1.210   2.611  10.856 -0.1961  0.3881 -0.1899
  791MOL0     H 9094   1.199   2.499  10.997 -1.2803 -1.8595 -0.9684
  791MOL0     H 9095   1.235   2.297  10.847 -2.6337 -0.0499 -1.3224
  791MOL0     H 9096   1.213   2.397  10.706  2.2533  0.8417 -1.4469
  791MOL0     H 9097   1.411   2.540  10.824  2.8093 -0.1658  0.4847
  791MOL0     H 9098   1.454   2.371  10.860 -1.9507 -3.2558 -0.9810
  791MOL0     H 9099   1.397   2.483  10.581  3.3184 -0.0036 -2.4605
  791MOL0     H 9100   1.434   2.311  10.631 -1.3687 -0.0580  1.7507
  791MOL0     H 9101   1.614   2.559  10.674  0.4292  0.6167  1.1220
  791MOL0     H 9102   1.653   2.399  10.728 -1.0037  1.7501  2.3398
  791MOL0     H 9103   1.664   2.324  10.503 -0.3957 -0.2559  3.4741
  791MOL0     H 9104   1.758   2.477  10.511 -0.9418  0.0404 -2.0201
  791MOL0     H 9105   1.487   2.420  10.376 -0.4261 -1.2022  5.0030
  791MOL0     H 9106   1.540   2.583  10.390  0.1368  0.3831 -1.8711
  791MOL0     H 9107   1.859   2.557  10.305 -0.3889 -1.6360  1.3126
  791MOL0     H 9108   1.946   2.491   9.940  3.9714  2.1220 -0.9510
  791MOL0     H 9109   2.014   2.493  10.096 -3.0105 -4.5830  0.5332
  791MOL0     H 9110   1.922   2.738  10.118  1.5122  1.5384 -0.2158
  791MOL0     H 9111   2.043   2.719   9.988  0.3994 -2.0354 -1.1098
  791MOL0     H 9112   1.740   2.767   9.955 -0.9237 -3.3496 -1.7683
  791MOL0     H 9113   1.893   2.860   9.905  4.9958 -1.5550  0.7098
  791MOL0     H 9114   1.836   2.584   9.802  0.7057  0.6075  0.1609
  791MOL0     H 9115   1.712   2.700   9.742  0.3877 -1.4402 -2.2281
  791MOL0     H 9116   2.051   2.851   9.489 -0.7135  1.3230  0.7401
  791MOL0     H 9117   2.132   2.886   9.272  1.9313 -0.8004  0.6059
  791MOL0     H 9118   2.080   2.788   9.141 -2.8637  2.0636  1.0600
  791MOL0     H 9119   2.213   2.736   9.243  0.7348  0.2345 -1.1312
  791MOL0     H 9120   2.191   2.362   9.043 -0.5532 -1.9461 -0.0046
  791MOL0     H 9121   2.257   2.279   8.817 -0.0150  0.1211  1.2121
  791MOL0     H 9122   2.102   2.313   8.414 -1.9433  1.2905 -0.8949
  791MOL0     H 9123   2.049   2.473   8.472  1.0445  0.6496  0.7650
  791MOL0     H 9124   2.268   2.575   8.413 -1.5597  0.2417 -1.6589
  791MOL0     H 9125   2.341   2.417   8.394 -0.9510 -1.2108  5.3243
  791MOL0     H 9126   2.108   2.514   8.218 -0.0364 -0.3965  0.3451
  791MOL0     H 9127   2.183   2.356   8.210  0.0574  0.1417 -2.3353
  791MOL0     H 9128   2.398   2.441   8.134 -0.4663  0.6226 -1.4515
  791MOL0     H 9129   2.341   2.600   8.171  0.0440  0.4103 -1.8179
  791MOL0     H 9130   2.228   2.416   7.955 -3.4328  0.3868  0.3858
  791MOL0     H 9131   2.166   2.570   8.012  0.8447  0.4055 -0.3249
  791MOL0     H 9132   2.342   2.697   7.936 -0.6825 -0.6489  0.8333
  791MOL0     H 9133   2.297   2.603   7.806  1.7579 -1.0818 -0.4428
  791MOL0     H 9134   2.488   2.432   7.852  0.1939  0.7488 -2.0373
  791MOL0     H 9135   2.566   2.554   7.955 -0.4460  0.4219 -0.5764
  791MOL0     H 9136   2.550   2.718   7.767  1.6662 -0.1509  1.0162
  791MOL0     H 9137   2.496   2.594   7.658  2.2028  3.7400 -1.2155
  791MOL0     H 9138   2.017   2.590   8.630  2.0449 -1.1350 -1.9522
  791MOL0     H 9139   1.959   2.671   8.856 -1.9655 -0.6222 -0.6959
  791MOL0     H 9140   1.810   2.434   9.373 -2.3124  0.1681  1.9401
  791MOL0     H 9141   1.786   2.519   9.573 -1.0846 -0.8875 -2.6839
  791MOL0     H 9142   0.825   2.329  11.152 -0.8632  1.0221  0.9167
  791MOL0     H 9143   0.576   2.297  11.151 -0.8087 -0.1450 -2.3631
  791MOL0     H 9144   0.311   2.235  11.187  1.2715  0.9366 -2.2549
  791MOL0     H 9145   0.119   2.154  11.306 -1.5818 -0.1969  0.3872
  791MOL0     H 9146  -0.092   1.971  11.364 -1.9019 -0.3633  1.1728
  791MOL0     H 9147  -0.116   2.145  11.372  2.4872  0.8032 -1.9931
  791MOL0     H 9148  -0.345   2.098  11.270  1.6555  0.2039 -0.6615
  791MOL0     H 9149  -0.327   2.035  11.440 -0.9827 -0.1246 -0.8628
  791MOL0     H 9150  -0.295   1.876  11.182  0.6014 -0.0142 -0.0437
  791MOL0     H 9151  -0.244   1.827  11.350  1.5898 -0.0982 -1.2594
  791MOL0     H 9152  -0.492   1.849  11.419  2.7571 -1.3412  1.3876
  791MOL0     H 9153  -0.467   1.738  11.284 -0.3528 -0.3438 -0.7154
  791MOL0     H 9154  -0.704   2.003  11.086 -0.4023 -2.7945 -0.6179
  791MOL0     H 9155  -0.073   2.046  10.946  2.6961 -2.4733 -1.9225
  791MOL0     H 9156   0.183   2.194  10.726 -0.6179  1.0848  0.8690
  791MOL0     H 9157   0.163   2.016  10.749 -1.1513 -0.8658  1.3491
  791MOL0     H 9158   0.024   2.114  10.749 -0.3128  0.1590  1.6523
  792MOL0     O 9159   8.292   0.631   4.081  0.3673  0.5060 -0.5077
  792MOL0     C 9160   8.361   0.676   3.986 -0.3545 -0.2870 -0.2009
  792MOL0     O 9161   8.385   0.611   3.865 -0.5743  0.0176  0.1711
  792MOL0     C 9162   8.350   0.483   3.866 -0.4662  0.3534  0.2682
  792MOL0     C 9163   8.232   0.443   3.804  0.7907  0.4188  0.5170
  792MOL0     C 9164   8.202   0.310   3.795  0.3965  0.3506  0.2185
  792MOL0     C 9165   8.287   0.218   3.854 -0.8457  0.6797 -0.5819
  792MOL0     O 9166   8.261   0.083   3.822 -0.7408 -0.3635  0.2429
  792MOL0     C 9167   8.312  -0.017   3.902 -0.4312  0.0605  0.3264
  792MOL0     C 9168   8.303  -0.144   3.825 -1.1022  0.1580 -0.1711
  792MOL0     C 9169   8.158  -0.196   3.838 -0.3005  0.3024  0.3944
  792MOL0     C 9170   8.152  -0.327   3.756 -0.0863 -0.0540  0.0492
  792MOL0     C 9171   8.009  -0.393   3.777  0.4246 -0.0357  0.2869
  792MOL0     C 9172   7.908  -0.339   3.669 -0.5757  0.5926  0.6821
  792MOL0     C 9173   7.794  -0.443   3.659 -0.3558  0.0770 -0.1295
  792MOL0     C 9174   7.668  -0.380   3.604  0.1017 -0.0685  0.1087
  792MOL0     N 9175   7.566  -0.484   3.586 -0.7613  0.2215  0.5378
  792MOL0     C 9176   7.589  -0.618   3.554 -0.0818  0.5100 -1.0932
  792MOL0     C 9177   7.460  -0.669   3.541 -0.1276 -0.8391 -0.0964
  792MOL0     C 9178   7.416  -0.800   3.489 -0.5882  0.0462  0.2590
  792MOL0     C 9179   7.362  -0.885   3.600 -0.5231  0.3983 -0.0228
  792MOL0     C 9180   7.252  -0.981   3.550  0.3152 -0.3634  0.6378
  792MOL0     C 9181   7.267  -1.057   3.427 -0.3140  0.0993 -0.7714
  792MOL0     O 9182   7.205  -0.974   3.330  0.6328  0.0917 -0.1135
  792MOL0     C 9183   7.206  -1.037   3.207  0.0083 -0.0377  0.1174
  792MOL0     C 9184   7.082  -1.031   3.138  0.1772 -0.0400 -0.3706
  792MOL0     C 9185   7.079  -1.088   3.011 -0.3638  0.6360 -0.4203
  792MOL0     C 9186   6.941  -1.096   2.943 -0.1220  0.3875  0.9510
  792MOL0     C 9187   7.194  -1.142   2.947 -0.8761  0.2802 -0.0836
  792MOL0     C 9188   7.199  -1.191   2.803  0.3564  0.5303  0.1960
  792MOL0     O 9189   7.292  -1.284   2.784  0.5149  0.0509 -0.2574
  792MOL0     C 9190   7.298  -1.354   2.659 -0.6797  0.2960  0.9729
  792MOL0     C 9191   7.259  -1.488   2.663 -0.2716  0.0378 -0.2637
  792MOL0     C 9192   7.257  -1.560   2.548  0.1142  0.6970 -0.0266
  792MOL0     C 9193   7.298  -1.500   2.429  0.7346  0.3092  0.4756
  792MOL0     O 9194   7.289  -1.584   2.317  0.4832 -0.3121  0.4601
  792MOL0     C 9195   7.244  -1.525   2.197 -0.0759  0.0779  0.5871
  792MOL0     C 9196   7.198  -1.621   2.087 -0.4074 -0.0210 -0.0358
  792MOL0     C 9197   7.065  -1.677   2.145  0.8402  0.1200 -0.7747
  792MOL0     C 9198   6.968  -1.697   2.032  0.9515 -0.1841  0.0884
  792MOL0     C 9199   6.833  -1.748   2.081 -0.7699  0.7010 -0.8422
  792MOL0     C 9200   6.723  -1.746   1.973 -0.5636 -0.2048  0.1731
  792MOL0     C 9201   6.591  -1.762   2.031 -0.1796  0.0895 -0.1930
  792MOL0     C 9202   6.513  -1.850   1.937  0.1824 -0.1808 -0.5248
  792MOL0    Cl 9203   6.343  -1.779   1.934 -0.1413  0.0712 -0.4576
  792MOL0     C 9204   7.349  -1.366   2.430 -0.4307  0.4712 -0.2206
  792MOL0     C 9205   7.341  -1.292   2.546 -0.7481 -0.8644 -0.1820
  792MOL0     O 9206   7.141  -1.124   2.717 -0.0092  0.9334  0.1311
  792MOL0     C 9207   7.313  -1.151   3.029 -0.4744  0.1915  0.7236
  792MOL0     C 9208   7.321  -1.095   3.153 -0.0568 -1.0042  0.3906
  792MOL0     N 9209   7.376  -0.563   3.574  0.9200  0.4322 -0.0914
  792MOL0     N 9210   7.428  -0.456   3.607 -1.4046  0.0281  0.4371
  792MOL0     C 9211   8.402   0.265   3.924  0.0645 -0.2463 -1.3659
  792MOL0     C 9212   8.432   0.400   3.934  1.0811 -0.1571  0.0194
  792MOL0     C 9213   8.443   0.800   4.010  0.3571  0.6527  0.5340
  792MOL0     C 9214   8.515   0.853   3.905 -0.0717  0.0044  0.8216
  792MOL0     C 9215   8.594   0.971   3.920 -1.0360 -0.3582 -0.3444
  792MOL0     C 9216   8.596   1.034   4.044  0.4983 -0.1633 -1.0646
  792MOL0     O 9217   8.669   1.149   4.052  0.8247  0.6777  0.2814
  792MOL0     C 9218   8.656   1.227   4.163 -0.2729  0.0496 -0.6744
  792MOL0     C 9219   8.536   1.319   4.142 -0.4202  0.4911  1.3918
  792MOL0     C 9220   8.526   1.430   4.239 -0.1069 -0.0490 -0.2885
  792MOL0     C 9221   8.390   1.503   4.219  0.2913 -0.7658 -0.4028
  792MOL0     C 9222   8.409   1.597   4.102  0.0850  0.3912  0.0740
  792MOL0     C 9223   8.414   1.680   4.016 -0.3289  0.4168  0.1847
  792MOL0     C 9224   8.511   0.983   4.144 -0.6956  0.8091 -0.2534
  792MOL0     C 9225   8.433   0.871   4.131 -0.2480 -0.2767  0.8991
  792MOL0     C 9226   8.364   0.832   4.259 -0.3461  0.2442  0.2503
  792MOL0     H 9227   8.167   0.513   3.753 -0.9567 -1.1770  0.4204
  792MOL0     H 9228   8.120   0.267   3.738  2.2875 -0.9517 -1.6360
  792MOL0     H 9229   8.254  -0.026   3.995 -1.5448  0.6633 -0.2837
  792MOL0     H 9230   8.416   0.001   3.932  0.2381 -1.6434 -0.8166
  792MOL0     H 9231   8.334  -0.131   3.721 -1.7813  2.1698 -0.1648
  792MOL0     H 9232   8.376  -0.211   3.871  2.7068  3.7518 -0.2783
  792MOL0     H 9233   8.142  -0.223   3.943  2.1195 -1.5183  0.3785
  792MOL0     H 9234   8.082  -0.126   3.803 -1.9519 -2.6824 -2.6119
  792MOL0     H 9235   8.171  -0.328   3.648 -1.2409 -1.5333 -0.1815
  792MOL0     H 9236   8.218  -0.404   3.797 -0.2870 -0.4611 -0.3723
  792MOL0     H 9237   7.971  -0.380   3.879  3.0962 -0.3705  1.4120
  792MOL0     H 9238   8.007  -0.503   3.773 -1.9340 -0.0286 -0.0106
  792MOL0     H 9239   7.880  -0.237   3.695  0.5136  0.8550  0.8739
  792MOL0     H 9240   7.959  -0.340   3.573  1.5759 -0.9035  1.7359
  792MOL0     H 9241   7.767  -0.485   3.756  1.1083 -3.2043 -1.0043
  792MOL0     H 9242   7.833  -0.524   3.597  0.6253 -0.6057  1.3162
  792MOL0     H 9243   7.617  -0.308   3.668  0.9591  0.4868  0.1958
  792MOL0     H 9244   7.690  -0.328   3.510  0.1286  0.1591  0.2395
  792MOL0     H 9245   7.683  -0.671   3.560 -0.5531 -0.2103  0.7502
  792MOL0     H 9246   7.498  -0.851   3.438 -0.7669  1.0491 -1.0958
  792MOL0     H 9247   7.339  -0.780   3.414  0.2420 -0.4191 -0.7475
  792MOL0     H 9248   7.443  -0.945   3.644  0.1340 -0.4706 -2.2772
  792MOL0     H 9249   7.330  -0.817   3.679 -0.9535  1.9889 -1.5234
  792MOL0     H 9250   7.251  -1.061   3.625 -0.7630 -2.4063 -1.4193
  792MOL0     H 9251   7.151  -0.940   3.555  0.6433  1.1773 -2.8839
  792MOL0     H 9252   7.374  -1.069   3.408 -0.4531  1.0365 -2.4105
  792MOL0     H 9253   7.204  -1.146   3.431  2.7270 -2.1944 -0.7931
  792MOL0     H 9254   6.996  -0.984   3.184  1.5112  0.2607  1.9355
  792MOL0     H 9255   6.870  -1.042   3.007  0.7362  2.6121  0.1453
  792MOL0     H 9256   6.913  -1.201   2.939  0.8323  0.1212  1.0952
  792MOL0     H 9257   6.939  -1.060   2.839  1.8805  0.6896  0.9864
  792MOL0     H 9258   7.223  -1.533   2.755  3.1641 -2.4900  0.0155
  792MOL0     H 9259   7.222  -1.663   2.546 -2.7498  1.5691  0.6393
  792MOL0     H 9260   7.177  -1.442   2.221 -2.3792 -0.4284 -3.1928
  792MOL0     H 9261   7.331  -1.485   2.146  0.7664 -0.8310  1.2824
  792MOL0     H 9262   7.187  -1.572   1.990 -1.5626 -0.8893 -0.3571
  792MOL0     H 9263   7.266  -1.705   2.071 -2.0395 -1.3841  0.0109
  792MOL0     H 9264   7.024  -1.603   2.214  2.3807  0.0831  0.2397
  792MOL0     H 9265   7.082  -1.767   2.205  0.2075  2.2249  2.8547
  792MOL0     H 9266   7.005  -1.763   1.953  3.7344  2.4422 -1.0193
  792MOL0     H 9267   6.954  -1.600   1.983 -0.2543 -1.3536 -1.9995
  792MOL0     H 9268   6.842  -1.849   2.122  0.5793  0.7444 -1.0028
  792MOL0     H 9269   6.807  -1.679   2.161 -0.5404 -0.6966  0.4810
  792MOL0     H 9270   6.752  -1.823   1.901  2.9948  2.0852 -1.1307
  792MOL0     H 9271   6.720  -1.648   1.923 -1.6063 -0.2703  0.0990
  792MOL0     H 9272   6.547  -1.668   2.066 -2.1495 -0.9009  0.1392
  792MOL0     H 9273   6.608  -1.824   2.120 -0.6518 -2.2713 -1.6622
  792MOL0     H 9274   6.510  -1.950   1.982  0.0537 -1.7840 -3.7880
  792MOL0     H 9275   6.555  -1.867   1.837 -3.8112 -1.6932 -2.1802
  792MOL0     H 9276   7.392  -1.309   2.348  0.5118  2.6836  1.6961
  792MOL0     H 9277   7.379  -1.191   2.537  1.4441 -1.5120  1.0575
  792MOL0     H 9278   7.405  -1.188   2.985 -1.9057 -2.8899  0.0511
  792MOL0     H 9279   7.411  -1.107   3.213 -0.2750 -1.8540  0.5551
  792MOL0     H 9280   8.471   0.204   3.982  0.0585  0.2775 -0.7939
  792MOL0     H 9281   8.516   0.451   3.979  2.6530 -0.1223 -2.7600
  792MOL0     H 9282   8.511   0.832   3.798  1.8620  1.3389  0.4402
  792MOL0     H 9283   8.639   1.021   3.835 -0.8935 -1.6115 -1.0312
  792MOL0     H 9284   8.653   1.167   4.255  1.3593 -2.2096 -1.9828
  792MOL0     H 9285   8.748   1.285   4.166 -0.1189 -0.1657 -1.1286
  792MOL0     H 9286   8.450   1.251   4.135 -0.7996  1.0309  0.6109
  792MOL0     H 9287   8.549   1.362   4.042 -1.1872  0.3015  1.1966
  792MOL0     H 9288   8.520   1.383   4.338  1.2167  1.4293  0.5332
  792MOL0     H 9289   8.616   1.490   4.249  1.6048 -2.7842  2.5872
  792MOL0     H 9290   8.379   1.552   4.316  3.2698 -0.1608 -0.2849
  792MOL0     H 9291   8.299   1.443   4.210 -0.2256  0.0889 -1.0542
  792MOL0     H 9292   8.432   1.752   3.939  3.3622 -0.8310 -0.3393
  792MOL0     H 9293   8.509   1.032   4.240 -0.1543  0.2955  0.0247
  792MOL0     H 9294   8.259   0.809   4.240  0.4355 -0.2472 -5.1457
  792MOL0     H 9295   8.404   0.739   4.300  1.7037  1.5177  1.3254
  792MOL0     H 9296   8.373   0.914   4.331  1.4271 -0.3071  0.6852
  793MOL0     O 9297  10.720  10.512   9.622  0.3548 -0.5064  0.2039
  793MOL0     C 9298  10.804  10.510   9.712  0.7858 -0.2159  0.4817
  793MOL0     O 9299  10.844  10.407   9.790  0.4848 -0.4117 -0.2680
  793MOL0     C 9300  10.806  10.285   9.759 -0.0687  0.3939  1.0240
  793MOL0     C 9301  10.672  10.235   9.792 -0.2621  0.2022  0.5143
  793MOL0     C 9302  10.658  10.091   9.779  0.0415 -0.4470  0.2348
  793MOL0     C 9303  10.755  10.004   9.739  0.1593  0.5660  0.7368
  793MOL0     O 9304  10.752   9.870   9.723  0.0984 -0.8983 -0.1217
  793MOL0     C 9305  10.701   9.803   9.838 -0.8823  0.2960 -0.3681
  793MOL0     C 9306  10.744   9.663   9.841 -0.5058  1.3072  0.1922
  793MOL0     C 9307  10.886   9.641   9.905  0.2767  0.6942  0.0884
  793MOL0     C 9308  10.994   9.722   9.826 -1.7638  0.5547  0.3995
  793MOL0     C 9309  11.137   9.696   9.874  0.0598 -0.0817  0.5983
  793MOL0     C 9310  11.227   9.809   9.811 -0.2058 -0.0327 -0.3960
  793MOL0     C 9311  11.371   9.759   9.797 -0.3287 -0.3041  0.0805
  793MOL0     C 9312  11.438   9.715   9.929  0.3454 -0.6408  0.0912
  793MOL0     N 9313  11.506   9.827   9.990  0.2700 -0.2900 -0.0589
  793MOL0     C 9314  11.643   9.850  10.000  0.4086  0.3324  0.0857
  793MOL0     C 9315  11.656   9.953  10.082 -1.1715  0.3831 -0.1705
  793MOL0     C 9316  11.788  10.018  10.130  0.5279  0.5459  0.1966
  793MOL0     C 9317  11.806  10.155  10.062 -0.8374 -0.1088 -0.1713
  793MOL0     C 9318  11.698  10.252  10.104 -0.1046  0.4142 -0.3583
  793MOL0     C 9319  11.710  10.386  10.044  0.1606 -0.2929  0.7924
  793MOL0     O 9320  11.666  10.366   9.912 -0.5557  0.2739  0.6864
  793MOL0     C 9321  11.740  10.435   9.817  0.2895 -0.2057 -0.4955
  793MOL0     C 9322  11.800  10.556   9.847  0.5423 -0.4089  0.4008
  793MOL0     C 9323  11.868  10.634   9.750 -0.4642  0.6023  0.8593
  793MOL0     C 9324  11.902  10.779   9.782 -0.3545  0.0232  0.1435
  793MOL0     C 9325  11.920  10.568   9.629 -0.4341 -0.4449 -0.7141
  793MOL0     C 9326  12.023  10.631   9.531  0.3715 -1.1865 -0.5442
  793MOL0     O 9327  11.995  10.759   9.494 -0.5384  0.5839 -0.1307
  793MOL0     C 9328  12.078  10.820   9.402  0.7440  0.3595 -0.3165
  793MOL0     C 9329  12.157  10.930   9.429  0.5534  0.3158  0.1991
  793MOL0     C 9330  12.234  10.989   9.335 -1.0043 -0.2336  0.9856
  793MOL0     C 9331  12.228  10.948   9.208  0.5190  0.2267  1.3224
  793MOL0     O 9332  12.276  11.034   9.113  0.3694 -0.0042  0.3905
  793MOL0     C 9333  12.374  10.960   9.026  0.0312  0.6797 -0.0995
  793MOL0     C 9334  12.483  11.052   8.994  1.1635  0.3400  0.4484
  793MOL0     C 9335  12.592  10.997   8.901 -0.1011 -0.2767  0.0573
  793MOL0     C 9336  12.595  11.072   8.759 -0.4973 -0.2668 -0.5632
  793MOL0     C 9337  12.728  11.034   8.693  0.1105 -0.1137  0.2262
  793MOL0     C 9338  12.756  11.114   8.557  0.7539 -0.0136  0.7554
  793MOL0     C 9339  12.867  11.064   8.474 -0.7421  0.5842  1.3558
  793MOL0     C 9340  12.896  11.134   8.342 -0.1769  1.1507 -0.6870
  793MOL0    Cl 9341  12.765  11.089   8.216 -0.1961 -0.1034  0.5033
  793MOL0     C 9342  12.141  10.840   9.170 -0.3575  0.3047 -0.1903
  793MOL0     C 9343  12.070  10.776   9.269  0.9683  1.1465  0.9037
  793MOL0     O 9344  12.123  10.568   9.497  0.0049 -0.6637 -0.7336
  793MOL0     C 9345  11.866  10.442   9.605 -0.6963  0.9246  0.5310
  793MOL0     C 9346  11.774  10.376   9.697  0.3376 -0.2522  0.2620
  793MOL0     N 9347  11.529   9.992  10.128 -0.0575  0.2473 -0.4575
  793MOL0     N 9348  11.442   9.920  10.067  0.3751  0.1029  0.1572
  793MOL0     C 9349  10.886  10.054   9.707 -0.1726  0.2784 -0.4905
  793MOL0     C 9350  10.903  10.197   9.706 -0.6976  0.1627 -0.1362
  793MOL0     C 9351  10.881  10.639   9.737 -0.1005  0.5896  0.4397
  793MOL0     C 9352  10.964  10.636   9.848 -0.1827 -0.2372  0.0687
  793MOL0     C 9353  11.025  10.760   9.886  0.2206  0.8379 -0.1999
  793MOL0     C 9354  11.021  10.875   9.809  0.6222  0.0451 -0.2887
  793MOL0     O 9355  11.090  10.984   9.847  0.5663 -0.1668 -0.0432
  793MOL0     C 9356  11.214  11.018   9.777  0.6006 -0.3627 -0.3534
  793MOL0     C 9357  11.272  11.143   9.841  0.1635 -0.2058  0.2907
  793MOL0     C 9358  11.314  11.123   9.992 -0.7754 -0.7151 -0.3306
  793MOL0     C 9359  11.365  11.260  10.052  0.2469 -0.2047  0.7588
  793MOL0     C 9360  11.491  11.301   9.994 -0.1274 -0.4600 -0.3055
  793MOL0     C 9361  11.602  11.343   9.971  0.2470 -0.1873 -0.4194
  793MOL0     C 9362  10.954  10.861   9.690 -0.3287  0.6935  0.3928
  793MOL0     C 9363  10.872  10.752   9.657 -0.7441  0.6430  0.3811
  793MOL0     C 9364  10.792  10.761   9.528  0.4892 -0.0150 -0.7937
  793MOL0     H 9365  10.593  10.305   9.815 -1.0531 -0.4074 -0.2828
  793MOL0     H 9366  10.562  10.045   9.802  0.9892 -1.5813  2.1749
  793MOL0     H 9367  10.592   9.796   9.841 -0.9190  0.9810 -0.0618
  793MOL0     H 9368  10.733   9.855   9.929 -1.5018  2.0799 -1.1272
  793MOL0     H 9369  10.684   9.582   9.884  1.0023 -0.0929 -0.2258
  793MOL0     H 9370  10.745   9.627   9.737 -1.0527  0.6520  0.4043
  793MOL0     H 9371  10.876   9.670  10.010  0.0961  1.8016 -0.2240
  793MOL0     H 9372  10.902   9.534   9.889  1.8945  1.2449 -2.6231
  793MOL0     H 9373  10.992   9.704   9.718  2.0479 -1.2476  0.4555
  793MOL0     H 9374  10.969   9.824   9.858  1.0533  0.8932  1.8479
  793MOL0     H 9375  11.178   9.601   9.838  2.5366  1.8647 -2.1532
  793MOL0     H 9376  11.132   9.702   9.984  2.9507  1.0887  0.7660
  793MOL0     H 9377  11.182   9.830   9.714  0.9262 -2.3234 -1.4910
  793MOL0     H 9378  11.215   9.896   9.876 -2.9259  0.1621 -1.0586
  793MOL0     H 9379  11.432   9.832   9.742  1.2881 -2.0844 -0.6194
  793MOL0     H 9380  11.366   9.669   9.734 -3.1929  1.1140 -1.9760
  793MOL0     H 9381  11.376   9.662  10.001  1.1203 -2.6040 -0.6350
  793MOL0     H 9382  11.518   9.648   9.899  2.5947  1.0607  1.9239
  793MOL0     H 9383  11.722   9.793   9.953 -0.7337 -2.0269  0.9035
  793MOL0     H 9384  11.875   9.954  10.114  0.4092 -0.1246  1.9218
  793MOL0     H 9385  11.771  10.039  10.236 -0.0714  1.5179 -0.0825
  793MOL0     H 9386  11.897  10.199  10.105 -1.2322  1.6801 -1.0713
  793MOL0     H 9387  11.807  10.145   9.953  0.0454  1.2099 -0.3090
  793MOL0     H 9388  11.598  10.217  10.076  0.8885 -2.4835 -0.5507
  793MOL0     H 9389  11.698  10.273  10.211  1.4753  2.1609 -0.6454
  793MOL0     H 9390  11.633  10.449  10.090 -0.5480  1.2639 -2.2874
  793MOL0     H 9391  11.816  10.414  10.050  0.2547 -0.2602 -0.7446
  793MOL0     H 9392  11.781  10.616   9.936  2.1939  2.9801 -1.3270
  793MOL0     H 9393  11.878  10.802   9.887  0.7985  0.4455  0.3346
  793MOL0     H 9394  11.833  10.829   9.714  1.4062 -0.1088 -1.8360
  793MOL0     H 9395  12.005  10.811   9.763 -0.4364 -0.6455 -1.6131
  793MOL0     H 9396  12.154  10.950   9.535  1.6230 -3.8434  1.1971
  793MOL0     H 9397  12.298  11.073   9.358  2.3136 -2.3434  0.0931
  793MOL0     H 9398  12.414  10.871   9.076 -3.8302  0.0455  2.2801
  793MOL0     H 9399  12.322  10.932   8.935  0.6431  1.8149 -0.8266
  793MOL0     H 9400  12.442  11.143   8.948 -0.4186 -1.0716 -1.0729
  793MOL0     H 9401  12.522  11.076   9.093 -1.8901 -0.0654  1.8360
  793MOL0     H 9402  12.583  10.890   8.881 -2.1221 -0.2558  0.7173
  793MOL0     H 9403  12.691  11.014   8.945 -0.0012 -0.3227 -0.1453
  793MOL0     H 9404  12.599  11.181   8.767  1.2743 -0.2427 -1.4276
  793MOL0     H 9405  12.514  11.034   8.696 -0.4449 -1.3255 -0.0220
  793MOL0     H 9406  12.813  11.047   8.761 -0.6460 -1.1341  1.3979
  793MOL0     H 9407  12.715  10.931   8.657 -1.1963  0.7748 -2.0491
  793MOL0     H 9408  12.772  11.220   8.576  2.0187 -0.2536  1.1191
  793MOL0     H 9409  12.663  11.107   8.499  1.5102 -3.7050 -0.3092
  793MOL0     H 9410  12.867  10.957   8.451  4.2472  0.7943 -0.8854
  793MOL0     H 9411  12.955  11.073   8.539 -0.8565  3.7162  1.2164
  793MOL0     H 9412  13.001  11.124   8.312 -0.4807 -0.2980 -1.3334
  793MOL0     H 9413  12.886  11.243   8.338 -0.5389  1.1787  0.6333
  793MOL0     H 9414  12.136  10.797   9.071  1.4572  1.2106 -0.7235
  793MOL0     H 9415  12.003  10.693   9.249  0.8057  1.3560  0.5409
  793MOL0     H 9416  11.883  10.386   9.514 -2.6239 -0.5338  1.0050
  793MOL0     H 9417  11.723  10.287   9.660  0.5275  1.1663 -3.9120
  793MOL0     H 9418  10.958   9.976   9.683 -0.5648  0.4348 -2.2700
  793MOL0     H 9419  11.000  10.242   9.689 -2.5796  6.3391  2.6522
  793MOL0     H 9420  10.961  10.551   9.915  0.5996 -0.5620 -0.3035
  793MOL0     H 9421  11.071  10.754   9.984  0.4638  2.1568 -0.2199
  793MOL0     H 9422  11.285  10.937   9.794 -0.4526 -1.5171 -1.2471
  793MOL0     H 9423  11.195  11.029   9.669  1.5172 -3.9260 -0.9950
  793MOL0     H 9424  11.215  11.236   9.828 -2.4317 -1.7019  0.2820
  793MOL0     H 9425  11.366  11.164   9.789  0.2692  1.5101  1.0928
  793MOL0     H 9426  11.237  11.082  10.057 -0.8282  2.2832  1.6920
  793MOL0     H 9427  11.407  11.066   9.997 -0.2813 -0.2186 -2.5165
  793MOL0     H 9428  11.377  11.260  10.161  1.8952  3.9607  0.7829
  793MOL0     H 9429  11.298  11.345  10.035  3.3914  1.7034 -4.1728
  793MOL0     H 9430  11.690  11.403   9.964 -1.4875  2.4399 -2.1646
  793MOL0     H 9431  10.956  10.941   9.617  0.3000 -1.8723 -2.6274
  793MOL0     H 9432  10.827  10.852   9.477  1.3319  1.0917  1.6405
  793MOL0     H 9433  10.812  10.679   9.458 -1.2057  1.3643 -3.0359
  793MOL0     H 9434  10.685  10.762   9.548  0.7224 -3.5018  1.5260
  794MOL0     O 9435   1.603   0.005   3.426  0.3976 -0.1453  0.2503
  794MOL0     C 9436   1.547   0.091   3.364 -0.1629 -0.4006 -0.4659
  794MOL0     O 9437   1.516   0.080   3.236  0.3182  0.0207 -0.6917
  794MOL0     C 9438   1.574  -0.021   3.158 -0.1304 -1.3536  0.0438
  794MOL0     C 9439   1.699   0.000   3.097  0.4101  0.7953  0.0032
  794MOL0     C 9440   1.748  -0.098   3.011 -0.1571 -0.0647 -0.5432
  794MOL0     C 9441   1.673  -0.217   2.997 -0.1997  0.6869 -0.1241
  794MOL0     O 9442   1.740  -0.310   2.922  0.5141 -0.3964 -0.0417
  794MOL0     C 9443   1.786  -0.428   2.978  0.4948 -0.7414  0.6626
  794MOL0     C 9444   1.942  -0.434   2.962 -0.7025  0.4426  0.2672
  794MOL0     C 9445   1.988  -0.461   2.818 -0.0257 -1.0641 -0.5329
  794MOL0     C 9446   1.958  -0.599   2.754  0.0220 -0.7466 -0.2225
  794MOL0     C 9447   2.061  -0.698   2.799 -0.5254 -0.4310  0.0021
  794MOL0     C 9448   2.062  -0.816   2.701 -0.0225  0.4882  1.1801
  794MOL0     C 9449   1.923  -0.888   2.709 -1.0220 -0.3080 -0.2239
  794MOL0     C 9450   1.927  -1.011   2.619  0.4758 -0.8661  0.2326
  794MOL0     N 9451   1.939  -0.970   2.485 -0.7218 -0.3687 -0.4917
  794MOL0     C 9452   2.058  -0.981   2.415  0.0323  1.2933  0.4298
  794MOL0     C 9453   2.028  -0.953   2.287  0.2058  0.1679  0.1531
  794MOL0     C 9454   2.121  -0.969   2.172  0.4888 -0.7092 -0.0582
  794MOL0     C 9455   2.038  -0.947   2.044 -0.4168  0.0521 -0.4583
  794MOL0     C 9456   2.109  -1.008   1.927  0.0234  0.1007  0.3051
  794MOL0     C 9457   2.256  -0.961   1.916  0.4839  0.6002  0.8321
  794MOL0     O 9458   2.303  -1.008   1.777  0.6681 -0.4903  0.3019
  794MOL0     C 9459   2.436  -0.976   1.740  0.2513  0.0454 -0.3827
  794MOL0     C 9460   2.442  -0.892   1.633 -0.2665  0.3041  0.9765
  794MOL0     C 9461   2.574  -0.855   1.589  0.2149  0.2248  0.2354
  794MOL0     C 9462   2.566  -0.755   1.470  0.4248  0.9231  0.5239
  794MOL0     C 9463   2.693  -0.916   1.649 -0.4322 -0.5052 -0.1753
  794MOL0     C 9464   2.831  -0.883   1.607  0.6246 -0.7409 -0.2837
  794MOL0     O 9465   2.844  -0.802   1.502 -0.7943 -0.8270 -0.8809
  794MOL0     C 9466   2.970  -0.771   1.456 -0.0918 -0.3780 -0.5268
  794MOL0     C 9467   3.040  -0.663   1.497 -0.5317 -0.4913 -0.3007
  794MOL0     C 9468   3.167  -0.627   1.444 -0.1668 -0.2739  0.9554
  794MOL0     C 9469   3.234  -0.713   1.360 -0.3088 -0.7803  0.0816
  794MOL0     O 9470   3.365  -0.679   1.325  0.3543  0.5336 -0.3275
  794MOL0     C 9471   3.443  -0.779   1.253 -0.5080 -0.5804 -0.0776
  794MOL0     C 9472   3.588  -0.730   1.257 -0.6016 -0.7206  0.1594
  794MOL0     C 9473   3.623  -0.618   1.163  0.3013  1.1584  0.2074
  794MOL0     C 9474   3.598  -0.647   1.009  0.0737  0.1976 -0.3501
  794MOL0     C 9475   3.678  -0.552   0.918  0.1616 -0.0343  0.2373
  794MOL0     C 9476   3.634  -0.415   0.918  0.6989  0.1291 -0.3075
  794MOL0     C 9477   3.706  -0.315   0.823  0.5723 -0.5809  0.4389
  794MOL0     C 9478   3.642  -0.180   0.814  1.7022 -0.7030 -0.2451
  794MOL0    Cl 9479   3.470  -0.214   0.757  0.0133 -0.3358 -0.2179
  794MOL0     C 9480   3.167  -0.835   1.320 -0.2473 -0.5691 -0.3269
  794MOL0     C 9481   3.047  -0.864   1.379 -0.3376 -0.0162  0.8661
  794MOL0     O 9482   2.916  -0.915   1.684  0.1527  0.1014 -0.3790
  794MOL0     C 9483   2.672  -1.012   1.750 -0.2178  0.0899 -0.0452
  794MOL0     C 9484   2.551  -1.046   1.791  0.2434  0.3154 -0.7061
  794MOL0     N 9485   1.892  -0.928   2.284  0.1409 -0.2357 -0.3322
  794MOL0     N 9486   1.840  -0.942   2.405  0.1865 -0.0445 -0.3942
  794MOL0     C 9487   1.539  -0.239   3.053 -0.0536  0.2660  0.4927
  794MOL0     C 9488   1.493  -0.135   3.131  0.2581 -0.4303  0.7285
  794MOL0     C 9489   1.516   0.221   3.441 -0.2335 -0.0329  0.1022
  794MOL0     C 9490   1.442   0.315   3.367 -0.2271  1.0755  0.6450
  794MOL0     C 9491   1.378   0.419   3.439  0.3302 -0.2471  0.3902
  794MOL0     C 9492   1.424   0.448   3.567 -0.3994 -0.2138 -0.3619
  794MOL0     O 9493   1.374   0.566   3.616  0.4040 -0.5317  0.1957
  794MOL0     C 9494   1.258   0.548   3.690  0.3747 -0.4298 -0.6495
  794MOL0     C 9495   1.295   0.592   3.835  0.0545 -0.3368  0.0323
  794MOL0     C 9496   1.174   0.598   3.933 -0.1312  0.9080  0.0720
  794MOL0     C 9497   1.228   0.648   4.065  0.1167 -0.5858 -0.3143
  794MOL0     C 9498   1.122   0.653   4.166 -0.0737  0.8721 -0.0622
  794MOL0     C 9499   1.035   0.671   4.254 -0.2806  0.0776 -0.3881
  794MOL0     C 9500   1.508   0.362   3.634  0.6312 -0.5421  0.0666
  794MOL0     C 9501   1.544   0.240   3.581 -0.2354  0.9604 -0.3328
  794MOL0     C 9502   1.625   0.145   3.670 -0.2755 -0.1167  1.6318
  794MOL0     H 9503   1.752   0.089   3.130 -0.3099  0.7400  1.4288
  794MOL0     H 9504   1.842  -0.075   2.963 -1.4732  3.5083 -1.8001
  794MOL0     H 9505   1.737  -0.515   2.931 -2.4883  0.5813  1.1186
  794MOL0     H 9506   1.757  -0.434   3.083 -2.0036  0.6466  0.1218
  794MOL0     H 9507   1.985  -0.341   3.001 -0.3749  0.4867 -0.1912
  794MOL0     H 9508   1.992  -0.515   3.018  0.4390 -0.2815 -1.7094
  794MOL0     H 9509   1.939  -0.383   2.760 -0.1142 -0.8351 -0.1549
  794MOL0     H 9510   2.096  -0.448   2.807 -0.0805 -1.3543 -1.4546
  794MOL0     H 9511   1.852  -0.621   2.773 -0.1487  0.5299  0.4005
  794MOL0     H 9512   1.973  -0.594   2.646  0.6134 -0.0169 -0.1165
  794MOL0     H 9513   2.034  -0.733   2.900 -3.6489  2.2648  0.2786
  794MOL0     H 9514   2.160  -0.652   2.800  1.9261 -5.0577  1.0074
  794MOL0     H 9515   2.073  -0.773   2.601 -1.3717  1.6852  1.5105
  794MOL0     H 9516   2.144  -0.887   2.714 -1.1166 -1.4049 -1.3103
  794MOL0     H 9517   1.841  -0.828   2.669 -1.4688 -0.5171  0.3806
  794MOL0     H 9518   1.887  -0.926   2.804  0.5405  1.6058  1.2228
  794MOL0     H 9519   2.021  -1.055   2.654 -0.1913 -1.4517  1.3508
  794MOL0     H 9520   1.834  -1.062   2.649  0.6712  0.2008  2.8868
  794MOL0     H 9521   2.154  -1.018   2.448 -0.0875  0.7648  0.1984
  794MOL0     H 9522   2.169  -1.066   2.157 -0.0996 -0.6887 -2.3499
  794MOL0     H 9523   2.198  -0.891   2.180 -1.1391  1.0370 -0.8213
  794MOL0     H 9524   1.948  -1.008   2.041 -0.7095  0.4807 -2.9210
  794MOL0     H 9525   2.013  -0.842   2.024 -1.5107 -0.4141 -1.6639
  794MOL0     H 9526   2.120  -1.116   1.941  4.2841  0.4694  1.3422
  794MOL0     H 9527   2.048  -0.992   1.838 -2.8839  0.6846  2.2874
  794MOL0     H 9528   2.257  -0.851   1.923  1.7792  0.6726 -0.0044
  794MOL0     H 9529   2.317  -1.020   1.985  2.2851 -0.8436 -1.8101
  794MOL0     H 9530   2.352  -0.852   1.587 -1.1175 -3.6148 -1.1827
  794MOL0     H 9531   2.459  -0.743   1.449  0.1000  0.0644  1.5784
  794MOL0     H 9532   2.602  -0.799   1.377 -1.1401 -2.1306  1.2592
  794MOL0     H 9533   2.624  -0.662   1.482  1.2382  0.5593 -0.4714
  794MOL0     H 9534   3.000  -0.586   1.562 -0.8727 -0.0064 -1.0720
  794MOL0     H 9535   3.215  -0.538   1.481  0.8901 -0.0294 -0.8649
  794MOL0     H 9536   3.437  -0.861   1.324  0.6923  1.1015  2.0936
  794MOL0     H 9537   3.398  -0.792   1.154 -2.6455  2.1941  0.3982
  794MOL0     H 9538   3.609  -0.687   1.355  0.4443 -0.2721 -0.2448
  794MOL0     H 9539   3.650  -0.816   1.231 -0.2415 -1.6367  3.6281
  794MOL0     H 9540   3.733  -0.616   1.161  0.3835 -0.3713 -2.3132
  794MOL0     H 9541   3.569  -0.528   1.192  0.2292  0.3724  2.6889
  794MOL0     H 9542   3.492  -0.638   0.983 -0.0285 -1.1585 -0.4706
  794MOL0     H 9543   3.634  -0.746   0.981  1.6124  1.1955 -2.1564
  794MOL0     H 9544   3.785  -0.555   0.940 -0.1377 -0.6431  1.6896
  794MOL0     H 9545   3.659  -0.585   0.815  0.0884  0.7556 -0.0096
  794MOL0     H 9546   3.645  -0.367   1.015 -1.3025 -1.8201  0.9747
  794MOL0     H 9547   3.525  -0.415   0.912  0.6938 -0.3911 -0.2874
  794MOL0     H 9548   3.720  -0.352   0.721 -3.4620 -1.3230 -0.0149
  794MOL0     H 9549   3.801  -0.300   0.876  0.3196 -1.4070  1.1563
  794MOL0     H 9550   3.694  -0.120   0.738 -0.2761  3.6041  1.4499
  794MOL0     H 9551   3.641  -0.133   0.913 -3.5470 -2.9071  1.0514
  794MOL0     H 9552   3.217  -0.913   1.263  0.8043 -1.6520  1.9498
  794MOL0     H 9553   2.985  -0.945   1.342  0.9498 -1.2210  1.2771
  794MOL0     H 9554   2.759  -1.064   1.788 -2.2205 -2.5866  1.1361
  794MOL0     H 9555   2.546  -1.123   1.868 -0.9618  0.1563 -0.9138
  794MOL0     H 9556   1.477  -0.325   3.028  1.0480 -0.8051  1.3867
  794MOL0     H 9557   1.394  -0.137   3.174 -0.4252  0.6792 -0.7110
  794MOL0     H 9558   1.414   0.295   3.264 -0.3827  0.4798  0.8005
  794MOL0     H 9559   1.306   0.487   3.395  1.2931  1.8923  1.9247
  794MOL0     H 9560   1.173   0.606   3.653  0.9621 -0.2592 -1.7635
  794MOL0     H 9561   1.229   0.443   3.697  1.6841 -0.7776 -0.0713
  794MOL0     H 9562   1.334   0.694   3.838  3.0848 -1.4083  2.5119
  794MOL0     H 9563   1.362   0.520   3.882  1.3362  0.0104 -1.2182
  794MOL0     H 9564   1.094   0.651   3.880 -0.4211 -2.0085 -2.7030
  794MOL0     H 9565   1.135   0.496   3.940  0.3105  0.7699  0.5800
  794MOL0     H 9566   1.287   0.738   4.047  3.0994 -2.5376 -1.1064
  794MOL0     H 9567   1.306   0.573   4.083  0.5839 -0.2450 -0.9113
  794MOL0     H 9568   0.971   0.659   4.339  2.0991 -0.9536  1.3662
  794MOL0     H 9569   1.538   0.393   3.733  2.3382 -2.0550  0.0732
  794MOL0     H 9570   1.733   0.150   3.655 -0.0955 -1.8049  2.1524
  794MOL0     H 9571   1.621   0.168   3.777 -1.6633 -2.5347  2.1768
  794MOL0     H 9572   1.592   0.041   3.663  0.5721 -0.5680  3.6273
  795MOL0     O 9573   3.132   7.734   2.835 -0.0533 -0.0224  0.0193
  795MOL0     C 9574   3.127   7.645   2.918  0.9391  1.1968 -0.2097
  795MOL0     O 9575   3.022   7.550   2.916  0.3721 -0.0683  0.3502
  795MOL0     C 9576   2.947   7.558   2.798 -0.2092 -0.5895 -0.0574
  795MOL0     C 9577   2.965   7.487   2.684 -0.1345  0.1540  0.3112
  795MOL0     C 9578   2.882   7.498   2.574 -1.1345  0.4765 -0.0475
  795MOL0     C 9579   2.791   7.602   2.574 -0.0916  0.4800 -0.2128
  795MOL0     O 9580   2.712   7.631   2.464 -0.9899  0.1501 -0.2982
  795MOL0     C 9581   2.792   7.644   2.337  1.1372  0.0980 -0.0551
  795MOL0     C 9582   2.709   7.705   2.224 -0.2107 -0.6897 -0.0255
  795MOL0     C 9583   2.796   7.787   2.126 -0.9233 -0.2275 -0.0509
  795MOL0     C 9584   2.725   7.862   2.011 -0.4104  1.0692  0.3902
  795MOL0     C 9585   2.827   7.899   1.894 -0.1086 -0.6975 -0.1491
  795MOL0     C 9586   2.808   8.054   1.865  0.4728 -0.0521  0.1198
  795MOL0     C 9587   2.873   8.138   1.981 -0.1198 -0.1789 -0.4149
  795MOL0     C 9588   2.855   8.293   1.972 -0.4150  0.0042  0.2478
  795MOL0     N 9589   2.920   8.371   2.075  0.1090  0.5181 -0.3664
  795MOL0     C 9590   2.847   8.439   2.170 -0.1384 -0.1724 -0.2686
  795MOL0     C 9591   2.942   8.505   2.234 -0.1237 -1.1363 -0.2713
  795MOL0     C 9592   2.952   8.590   2.359  0.0498 -0.6107  0.0806
  795MOL0     C 9593   2.883   8.514   2.476  0.7980 -0.1158 -0.7103
  795MOL0     C 9594   2.965   8.402   2.525 -0.8873 -0.5309 -0.1937
  795MOL0     C 9595   3.081   8.435   2.628  0.6199 -0.0554 -0.8837
  795MOL0     O 9596   3.018   8.482   2.751 -0.1944  0.2103 -0.4428
  795MOL0     C 9597   3.091   8.508   2.864  0.8457 -0.0986 -0.3056
  795MOL0     C 9598   3.232   8.524   2.859  0.1987 -0.3684 -0.7543
  795MOL0     C 9599   3.307   8.550   2.974  0.7061 -0.6217  0.9681
  795MOL0     C 9600   3.454   8.586   2.959 -0.4071  0.0339  0.0782
  795MOL0     C 9601   3.247   8.559   3.096  0.6395 -0.1189 -0.0860
  795MOL0     C 9602   3.319   8.583   3.223  0.1670 -0.0390 -1.1337
  795MOL0     O 9603   3.293   8.496   3.331  0.7008  0.2227 -0.2881
  795MOL0     C 9604   3.368   8.507   3.442 -0.1926 -0.3850  0.1750
  795MOL0     C 9605   3.505   8.480   3.420 -0.3415 -0.9548 -0.5054
  795MOL0     C 9606   3.593   8.468   3.528  0.2331 -0.6326 -0.1308
  795MOL0     C 9607   3.552   8.489   3.665 -0.2105 -0.0375 -0.8287
  795MOL0     O 9608   3.635   8.471   3.780  0.7945  0.0283  0.6809
  795MOL0     C 9609   3.751   8.391   3.767 -0.0974  0.4552  0.2513
  795MOL0     C 9610   3.819   8.406   3.908 -0.2812 -0.1247 -1.0728
  795MOL0     C 9611   3.762   8.316   4.018  0.6528  0.0648 -0.2273
  795MOL0     C 9612   3.784   8.163   3.992 -0.0409 -0.3628 -0.2443
  795MOL0     C 9613   3.693   8.081   4.097 -1.3596 -0.6204 -0.0413
  795MOL0     C 9614   3.700   7.931   4.069  0.5764  0.2497 -0.3243
  795MOL0     C 9615   3.613   7.858   4.177 -0.2870 -0.1846 -0.1284
  795MOL0     C 9616   3.570   7.717   4.134  0.1106 -0.7426  0.4209
  795MOL0    Cl 9617   3.719   7.608   4.135 -0.0565 -0.1085 -0.3812
  795MOL0     C 9618   3.415   8.507   3.686 -0.5826 -0.2140  0.0890
  795MOL0     C 9619   3.316   8.525   3.576  0.1574  0.7598  0.6033
  795MOL0     O 9620   3.385   8.683   3.235  0.1446 -0.3732  0.2855
  795MOL0     C 9621   3.111   8.534   3.108 -0.6574  0.6708 -0.6615
  795MOL0     C 9622   3.033   8.507   2.993 -0.4432  0.4434  0.2816
  795MOL0     N 9623   3.068   8.472   2.186  0.4564  1.1742 -0.3450
  795MOL0     N 9624   3.051   8.394   2.086 -0.5644  0.5379  0.2816
  795MOL0     C 9625   2.765   7.677   2.690  0.3696  0.6586 -0.3122
  795MOL0     C 9626   2.847   7.652   2.798 -0.1594 -0.9621  0.6323
  795MOL0     C 9627   3.238   7.619   3.016  0.6500  0.5933 -0.3017
  795MOL0     C 9628   3.235   7.495   3.082  0.0367  0.0514 -0.5091
  795MOL0     C 9629   3.332   7.448   3.169  0.0424 -0.7631 -0.5650
  795MOL0     C 9630   3.435   7.535   3.207  0.1828  0.9124  0.5126
  795MOL0     O 9631   3.525   7.497   3.306 -0.0605  0.1028  0.6112
  795MOL0     C 9632   3.473   7.530   3.440 -0.2795  0.1277  0.6040
  795MOL0     C 9633   3.583   7.536   3.546 -0.3592 -0.0214 -0.1185
  795MOL0     C 9634   3.663   7.410   3.555  0.5472  0.4520  0.4193
  795MOL0     C 9635   3.711   7.391   3.693  0.0206  0.2426  0.2297
  795MOL0     C 9636   3.600   7.353   3.782  0.8661  0.1878 -0.2475
  795MOL0     C 9637   3.496   7.321   3.844 -0.4397 -0.3254  0.7209
  795MOL0     C 9638   3.438   7.658   3.143 -0.2323  0.0759 -0.0463
  795MOL0     C 9639   3.342   7.702   3.055  0.7107 -0.4605  0.8978
  795MOL0     C 9640   3.360   7.842   2.997 -0.1595 -0.8932  0.0492
  795MOL0     H 9641   3.044   7.413   2.678 -0.0250  0.0837  2.0670
  795MOL0     H 9642   2.893   7.438   2.484 -0.6708  1.1985 -0.4841
  795MOL0     H 9643   2.827   7.550   2.294 -0.6414 -0.3455 -0.6155
  795MOL0     H 9644   2.877   7.708   2.361 -0.0143  1.3587  0.8291
  795MOL0     H 9645   2.653   7.626   2.174  2.0935 -2.1806 -0.3924
  795MOL0     H 9646   2.641   7.783   2.257  1.3954  1.1873 -0.9828
  795MOL0     H 9647   2.855   7.857   2.185 -0.3900 -3.2307  3.3399
  795MOL0     H 9648   2.873   7.721   2.084 -1.2201  0.4236 -1.7104
  795MOL0     H 9649   2.652   7.789   1.974  0.6322 -1.0887  2.3512
  795MOL0     H 9650   2.662   7.946   2.039 -2.3933 -0.0826 -0.4270
  795MOL0     H 9651   2.797   7.825   1.819 -1.2304 -0.7624  0.3411
  795MOL0     H 9652   2.928   7.875   1.929 -0.0386 -1.4920 -0.8507
  795MOL0     H 9653   2.855   8.088   1.772  1.4816  0.4566  0.8023
  795MOL0     H 9654   2.703   8.081   1.853  0.5637  0.4618  0.4699
  795MOL0     H 9655   2.978   8.107   1.989  0.2032  0.5904 -1.5855
  795MOL0     H 9656   2.839   8.112   2.082  2.1082  1.6808  0.9053
  795MOL0     H 9657   2.886   8.328   1.873  0.3718 -0.6210  0.2635
  795MOL0     H 9658   2.752   8.319   1.995 -0.8372 -1.4350  0.0681
  795MOL0     H 9659   2.740   8.430   2.187  0.0250 -0.8134  0.4900
  795MOL0     H 9660   2.907   8.686   2.333  1.9297 -0.3769 -2.8047
  795MOL0     H 9661   3.054   8.624   2.379 -0.7591  1.6445  0.7209
  795MOL0     H 9662   2.872   8.587   2.557  4.9624  0.2237 -0.2090
  795MOL0     H 9663   2.787   8.470   2.449 -0.9618  2.7295  0.4288
  795MOL0     H 9664   2.907   8.323   2.575  1.7733 -1.4981  1.6323
  795MOL0     H 9665   3.015   8.360   2.438 -1.3616 -1.4586 -0.0307
  795MOL0     H 9666   3.142   8.345   2.641 -0.8171 -1.4110 -2.8786
  795MOL0     H 9667   3.136   8.521   2.588 -0.5601  0.9711 -0.3260
  795MOL0     H 9668   3.285   8.532   2.765 -1.5767 -0.9387 -1.8535
  795MOL0     H 9669   3.511   8.551   3.046 -2.6215 -0.8707  1.2720
  795MOL0     H 9670   3.464   8.694   2.948 -2.3850  0.4003  1.3972
  795MOL0     H 9671   3.504   8.540   2.874  0.5153  2.0756 -0.5288
  795MOL0     H 9672   3.540   8.470   3.317 -0.9927  1.6042 -1.0560
  795MOL0     H 9673   3.698   8.464   3.503 -0.0104  0.9411 -1.5863
  795MOL0     H 9674   3.724   8.285   3.760 -1.1435  0.6095  1.5529
  795MOL0     H 9675   3.821   8.438   3.697  2.2816 -3.1373 -0.0099
  795MOL0     H 9676   3.925   8.382   3.893 -0.6692 -1.6337 -1.6546
  795MOL0     H 9677   3.811   8.509   3.941 -1.6588 -1.6138  4.2029
  795MOL0     H 9678   3.654   8.327   4.029  0.1607  0.0801 -3.7793
  795MOL0     H 9679   3.809   8.332   4.115 -0.2628 -5.2352  1.4212
  795MOL0     H 9680   3.892   8.159   4.012 -0.2209 -0.7725  0.7038
  795MOL0     H 9681   3.744   8.139   3.893 -2.1068  0.6365  0.2978
  795MOL0     H 9682   3.739   8.115   4.190  3.9454  2.0469 -3.1185
  795MOL0     H 9683   3.591   8.120   4.091 -1.2598 -0.4522 -0.8113
  795MOL0     H 9684   3.806   7.904   4.073  1.0522  2.1395  2.1963
  795MOL0     H 9685   3.665   7.901   3.970  1.4286 -0.2734 -0.4803
  795MOL0     H 9686   3.532   7.928   4.201  1.5990  1.7161  1.0226
  795MOL0     H 9687   3.680   7.853   4.263  0.1995 -2.0923 -0.5738
  795MOL0     H 9688   3.518   7.713   4.038 -1.1879 -0.9164  1.1180
  795MOL0     H 9689   3.495   7.682   4.205  0.0275  1.1565  1.3379
  795MOL0     H 9690   3.390   8.517   3.792 -0.5768 -1.6630  0.2533
  795MOL0     H 9691   3.209   8.539   3.585  0.2771  2.2783 -0.0456
  795MOL0     H 9692   3.054   8.543   3.200  0.4283  1.0461 -0.0053
  795MOL0     H 9693   2.925   8.502   2.995 -0.7082  2.2915 -2.9039
  795MOL0     H 9694   2.698   7.763   2.696 -0.7188 -0.1709 -0.1039
  795MOL0     H 9695   2.833   7.726   2.876  0.9211  0.6889 -0.6574
  795MOL0     H 9696   3.153   7.426   3.060 -3.4780  3.9277 -0.7053
  795MOL0     H 9697   3.334   7.352   3.221 -0.9885  1.4531  4.1138
  795MOL0     H 9698   3.425   7.629   3.434 -1.8388 -0.6590 -2.4474
  795MOL0     H 9699   3.388   7.465   3.465  0.1867 -0.8756 -0.3446
  795MOL0     H 9700   3.529   7.569   3.636 -1.6554  4.0463 -2.1613
  795MOL0     H 9701   3.652   7.615   3.516 -1.4648  0.7912 -0.5653
  795MOL0     H 9702   3.595   7.332   3.517 -0.3912  1.4917 -0.1083
  795MOL0     H 9703   3.738   7.409   3.476 -0.1410 -2.3121 -0.3001
  795MOL0     H 9704   3.775   7.467   3.740  1.2762 -1.9630  2.3003
  795MOL0     H 9705   3.785   7.311   3.684 -1.1473 -0.8483  0.0323
  795MOL0     H 9706   3.413   7.293   3.906 -0.1796  2.1557  2.3507
  795MOL0     H 9707   3.519   7.720   3.181  1.0514 -0.0802 -2.3064
  795MOL0     H 9708   3.290   7.916   3.038 -0.6773 -1.5780  0.4023
  795MOL0     H 9709   3.462   7.867   3.029 -0.1835  2.9327 -2.2153
  795MOL0     H 9710   3.349   7.850   2.889  2.8565  0.5862 -0.2748
  796MOL0     O 9711   9.255   5.896   4.402  0.4733  0.4028  0.8860
  796MOL0     C 9712   9.293   5.993   4.341 -0.5892  0.0933 -0.4140
  796MOL0     O 9713   9.272   6.123   4.378  0.4835 -0.6014 -0.3736
  796MOL0     C 9714   9.180   6.126   4.482 -0.1787 -0.2118  0.1893
  796MOL0     C 9715   9.212   6.085   4.616 -0.2938  0.3330  0.3479
  796MOL0     C 9716   9.133   6.110   4.728  0.1201 -0.6683 -0.2526
  796MOL0     C 9717   9.011   6.181   4.713  0.5859  0.2063 -0.0419
  796MOL0     O 9718   8.923   6.221   4.810  0.2143  0.0516 -0.0488
  796MOL0     C 9719   8.968   6.200   4.942  0.2606 -0.4319  0.5813
  796MOL0     C 9720   8.878   6.265   5.044  0.3599 -0.7445  0.0235
  796MOL0     C 9721   8.741   6.319   4.999 -0.3225  0.3687  0.1347
  796MOL0     C 9722   8.644   6.216   4.947 -0.7825  0.5431  0.0283
  796MOL0     C 9723   8.536   6.275   4.863 -1.0391 -0.3957  0.2898
  796MOL0     C 9724   8.445   6.168   4.803  0.2639  0.8481  0.9315
  796MOL0     C 9725   8.320   6.236   4.757  0.2900  0.0779  0.5567
  796MOL0     C 9726   8.216   6.140   4.702 -0.3220 -0.5256  0.4841
  796MOL0     N 9727   8.240   6.104   4.565  2.0347  0.5693 -0.3201
  796MOL0     C 9728   8.228   5.970   4.524  0.1470 -0.6103 -0.7044
  796MOL0     C 9729   8.230   5.965   4.389 -0.5689 -0.5494 -0.0392
  796MOL0     C 9730   8.199   5.850   4.298 -0.5401 -0.5959 -0.0327
  796MOL0     C 9731   8.323   5.780   4.245 -0.2286 -0.5816 -0.2715
  796MOL0     C 9732   8.311   5.712   4.115  0.8434 -0.0219  0.2578
  796MOL0     C 9733   8.196   5.622   4.102 -0.9134  0.4922 -0.1043
  796MOL0     O 9734   8.234   5.496   4.170 -0.4515 -0.5043 -0.8147
  796MOL0     C 9735   8.154   5.385   4.191  0.6907  0.0893 -0.1278
  796MOL0     C 9736   8.020   5.400   4.167  0.3621  1.0548  0.3559
  796MOL0     C 9737   7.930   5.295   4.204  0.5316 -0.6174 -0.3884
  796MOL0     C 9738   7.779   5.306   4.167  0.1502 -0.1516 -0.5584
  796MOL0     C 9739   7.989   5.175   4.255  0.6276 -0.2089  0.1136
  796MOL0     C 9740   7.911   5.054   4.290  0.2602 -0.4786 -0.1754
  796MOL0     O 9741   7.784   5.077   4.341  0.6709  0.2408 -0.4029
  796MOL0     C 9742   7.684   4.977   4.347 -1.2004  0.0633 -0.5203
  796MOL0     C 9743   7.549   5.006   4.319 -0.2816 -0.7562  0.2918
  796MOL0     C 9744   7.452   4.912   4.328  0.3554 -0.1468  0.1711
  796MOL0     C 9745   7.477   4.782   4.366  0.0282  0.4228 -0.7436
  796MOL0     O 9746   7.365   4.697   4.371  0.0558  0.6478 -0.0751
  796MOL0     C 9747   7.395   4.558   4.364 -0.1240  0.5867  0.7050
  796MOL0     C 9748   7.272   4.471   4.407 -1.2974  0.5270  0.2492
  796MOL0     C 9749   7.238   4.497   4.547 -0.9398 -0.1233 -0.0830
  796MOL0     C 9750   7.102   4.438   4.584  0.0630  0.9202  1.0453
  796MOL0     C 9751   7.060   4.493   4.722  0.2242 -0.4621 -0.4057
  796MOL0     C 9752   6.930   4.421   4.771 -0.1172 -0.1114 -0.3290
  796MOL0     C 9753   6.790   4.462   4.696  0.1002 -0.3578 -0.1539
  796MOL0     C 9754   6.713   4.345   4.634 -0.6842 -0.2331 -0.2432
  796MOL0    Cl 9755   6.798   4.276   4.493 -0.1182  0.1232  0.2502
  796MOL0     C 9756   7.613   4.748   4.397 -1.1601  0.2430 -0.7391
  796MOL0     C 9757   7.709   4.847   4.386 -0.3823  0.8990  0.3027
  796MOL0     O 9758   7.973   4.945   4.290  0.1898 -0.1966  0.1453
  796MOL0     C 9759   8.128   5.158   4.277  0.4520 -0.4600  0.4525
  796MOL0     C 9760   8.208   5.267   4.237 -0.1535 -0.2970  0.0192
  796MOL0     N 9761   8.246   6.099   4.349  0.7372 -0.6697 -0.0888
  796MOL0     N 9762   8.233   6.182   4.454 -0.8082  0.9655 -0.1806
  796MOL0     C 9763   8.974   6.202   4.581  0.7673 -0.3946  0.7949
  796MOL0     C 9764   9.047   6.175   4.472 -0.2175  0.5241  0.5917
  796MOL0     C 9765   9.373   5.970   4.217 -0.1153 -0.1130  0.4500
  796MOL0     C 9766   9.308   6.002   4.096 -0.4442 -0.7157  0.6638
  796MOL0     C 9767   9.377   5.974   3.974 -0.4058  0.0696  1.1454
  796MOL0     C 9768   9.501   5.905   3.977  0.3647  0.2658 -0.1972
  796MOL0     O 9769   9.557   5.848   3.873 -0.1089 -0.0668  0.3504
  796MOL0     C 9770   9.492   5.873   3.741  0.4782 -0.2660  0.1904
  796MOL0     C 9771   9.558   5.795   3.629 -0.4765 -1.0146  0.6901
  796MOL0     C 9772   9.510   5.832   3.493 -0.5044 -1.0386 -0.5715
  796MOL0     C 9773   9.540   5.726   3.401  0.5030 -0.5366 -0.1871
  796MOL0     C 9774   9.428   5.640   3.365 -0.7517 -0.3701 -1.3196
  796MOL0     C 9775   9.334   5.587   3.333  0.9187  0.1341 -0.4875
  796MOL0     C 9776   9.568   5.891   4.093  0.5308  0.9472  0.6593
  796MOL0     C 9777   9.503   5.913   4.218  0.0886 -0.3369  0.2055
  796MOL0     C 9778   9.579   5.886   4.341 -1.3644  0.1306  1.1682
  796MOL0     H 9779   9.309   6.035   4.617  0.1349  1.1387  1.6742
  796MOL0     H 9780   9.176   6.084   4.824  1.5955  0.7685 -0.4981
  796MOL0     H 9781   9.063   6.253   4.957 -0.3069  0.7294  0.1566
  796MOL0     H 9782   8.965   6.096   4.974 -2.0175 -0.5671  0.0858
  796MOL0     H 9783   8.867   6.206   5.136 -0.6648  1.1693  1.1977
  796MOL0     H 9784   8.924   6.361   5.068 -0.0765 -0.1628 -1.3450
  796MOL0     H 9785   8.698   6.383   5.077 -3.8167  1.6000 -2.5668
  796MOL0     H 9786   8.758   6.387   4.915 -0.7325  0.7123  0.3270
  796MOL0     H 9787   8.691   6.140   4.884 -0.4241 -0.9154  1.9733
  796MOL0     H 9788   8.605   6.158   5.031  0.7050 -2.7437 -1.3468
  796MOL0     H 9789   8.591   6.335   4.791  2.3622 -0.6101  2.5068
  796MOL0     H 9790   8.479   6.356   4.911  1.4003  1.5606  0.0341
  796MOL0     H 9791   8.493   6.116   4.720 -0.7018  0.1383  0.8078
  796MOL0     H 9792   8.422   6.098   4.885 -1.6396 -0.9760 -1.0538
  796MOL0     H 9793   8.348   6.311   4.683 -2.5444 -0.3301 -1.0742
  796MOL0     H 9794   8.278   6.281   4.847  3.6935 -1.9193  3.4039
  796MOL0     H 9795   8.209   6.048   4.762 -2.2117  0.4915  1.9091
  796MOL0     H 9796   8.129   6.204   4.713  1.0535  1.5022  0.0752
  796MOL0     H 9797   8.219   5.884   4.590 -3.2573  0.4105  0.3561
  796MOL0     H 9798   8.141   5.894   4.216 -0.4457  1.4241  0.9320
  796MOL0     H 9799   8.138   5.772   4.344 -1.7656  1.0081  1.1951
  796MOL0     H 9800   8.405   5.851   4.230 -0.2825 -0.9537 -2.7733
  796MOL0     H 9801   8.352   5.707   4.320 -0.2524  0.9476  1.3029
  796MOL0     H 9802   8.297   5.786   4.036  1.5179  0.3552  0.4776
  796MOL0     H 9803   8.408   5.665   4.096  0.4249 -0.3896 -1.0627
  796MOL0     H 9804   8.109   5.663   4.153 -1.7268  0.2764 -1.2676
  796MOL0     H 9805   8.161   5.612   3.999  3.0688  0.4768 -1.6384
  796MOL0     H 9806   7.976   5.487   4.120 -0.2283  0.5862  0.0388
  796MOL0     H 9807   7.755   5.397   4.111 -0.6143  1.2945  1.9631
  796MOL0     H 9808   7.725   5.325   4.260 -0.1140 -0.2390 -0.6911
  796MOL0     H 9809   7.742   5.215   4.117 -0.7927 -0.7380  1.1288
  796MOL0     H 9810   7.526   5.103   4.276  3.1059 -1.1830 -2.9982
  796MOL0     H 9811   7.348   4.942   4.323  0.4314  0.0228 -0.4404
  796MOL0     H 9812   7.432   4.519   4.269 -0.6566  1.6375  0.0458
  796MOL0     H 9813   7.472   4.521   4.433  0.7535 -0.9995 -1.0502
  796MOL0     H 9814   7.193   4.504   4.338  0.4437  3.4937 -0.5243
  796MOL0     H 9815   7.297   4.366   4.388  2.4712  1.1061  1.2251
  796MOL0     H 9816   7.237   4.601   4.579 -0.4181  0.2364 -1.1867
  796MOL0     H 9817   7.316   4.451   4.609  1.2625  2.4176 -0.7937
  796MOL0     H 9818   7.095   4.329   4.591  2.3082  0.7531  1.2311
  796MOL0     H 9819   7.024   4.458   4.510  0.0136 -2.8009 -0.1119
  796MOL0     H 9820   7.129   4.475   4.804  1.5981  1.5790 -1.0278
  796MOL0     H 9821   7.045   4.601   4.723 -0.0011 -0.4509  2.4825
  796MOL0     H 9822   6.924   4.443   4.878 -0.8255 -0.7411 -0.2339
  796MOL0     H 9823   6.951   4.314   4.763  3.1083  0.5041 -1.7553
  796MOL0     H 9824   6.829   4.523   4.614  1.9152 -0.4595  0.5682
  796MOL0     H 9825   6.723   4.511   4.767  2.0133 -0.1772  1.6237
  796MOL0     H 9826   6.616   4.390   4.615 -0.7923  0.1218  1.1066
  796MOL0     H 9827   6.712   4.273   4.716 -0.1156 -0.3233 -0.3120
  796MOL0     H 9828   7.653   4.649   4.413 -2.5706 -0.4340 -1.2416
  796MOL0     H 9829   7.811   4.815   4.404 -0.8451 -0.0511  1.3936
  796MOL0     H 9830   8.152   5.060   4.316 -4.8803 -1.2458  2.5483
  796MOL0     H 9831   8.316   5.264   4.244  0.0405  4.2187  2.5779
  796MOL0     H 9832   8.879   6.251   4.558  0.7794 -0.5344  0.4470
  796MOL0     H 9833   9.002   6.192   4.374 -0.1004 -0.6552  0.3139
  796MOL0     H 9834   9.211   6.049   4.104 -0.5450 -0.7075 -0.4141
  796MOL0     H 9835   9.341   6.008   3.877 -2.2185  3.0494  2.7318
  796MOL0     H 9836   9.385   5.849   3.742  0.6264 -1.5562 -2.9505
  796MOL0     H 9837   9.491   5.979   3.713  0.0996 -0.2787  0.1565
  796MOL0     H 9838   9.541   5.687   3.635  1.7570 -1.5941 -1.5983
  796MOL0     H 9839   9.663   5.825   3.641 -1.7112  3.4653  2.0018
  796MOL0     H 9840   9.404   5.846   3.516  0.1038 -0.0639  2.0296
  796MOL0     H 9841   9.546   5.929   3.457  0.8750 -1.1694  0.3889
  796MOL0     H 9842   9.595   5.643   3.447 -0.0531  0.4703  2.4442
  796MOL0     H 9843   9.588   5.758   3.308 -0.6629  1.1088 -0.2669
  796MOL0     H 9844   9.237   5.545   3.318  1.3383 -2.1801  2.4339
  796MOL0     H 9845   9.671   5.857   4.081  0.5725  1.6743 -1.4086
  796MOL0     H 9846   9.684   5.912   4.321 -0.9122 -1.5643  1.1842
  796MOL0     H 9847   9.542   5.948   4.423 -1.2144  1.2511  0.4149
  796MOL0     H 9848   9.569   5.783   4.378 -2.7651  0.3155  1.3623
  797MOL0     O 9849   1.319   4.076   0.176  0.6148 -0.0565  0.1594
  797MOL0     C 9850   1.288   4.163   0.255  1.4878 -0.0311 -0.4365
  797MOL0     O 9851   1.265   4.293   0.216 -0.1940  0.5403  0.1207
  797MOL0     C 9852   1.244   4.335   0.087  0.1832  0.1758  0.7094
  797MOL0     C 9853   1.356   4.361   0.005 -0.0424 -0.6202 -1.1050
  797MOL0     C 9854   1.334   4.409  -0.121 -0.5195 -0.0076  0.8915
  797MOL0     C 9855   1.196   4.449  -0.151 -0.5474  0.6133  0.5150
  797MOL0     O 9856   1.174   4.524  -0.270 -0.4723  0.5183  0.4684
  797MOL0     C 9857   1.047   4.494  -0.341  1.4848  0.0437 -0.2690
  797MOL0     C 9858   1.087   4.477  -0.492  0.8547  0.1060 -0.9712
  797MOL0     C 9859   1.157   4.610  -0.544  0.2745  0.4788  1.0540
  797MOL0     C 9860   1.207   4.571  -0.686  0.1838 -0.2677 -0.0452
  797MOL0     C 9861   1.265   4.689  -0.777  0.0295  0.4871 -0.0837
  797MOL0     C 9862   1.411   4.706  -0.739  0.5304 -0.1637 -0.0217
  797MOL0     C 9863   1.494   4.821  -0.799  0.0683  0.2422 -0.3461
  797MOL0     C 9864   1.641   4.807  -0.768 -0.2523 -0.5113  0.5272
  797MOL0     N 9865   1.720   4.920  -0.820 -1.2458 -0.7748 -0.2733
  797MOL0     C 9866   1.773   4.933  -0.945 -0.3941 -0.2044  1.1944
  797MOL0     C 9867   1.838   5.050  -0.947 -0.4840  0.1093 -0.8259
  797MOL0     C 9868   1.903   5.129  -1.062 -0.6099 -0.2626 -1.0683
  797MOL0     C 9869   2.051   5.116  -1.063 -0.7397 -0.1512 -0.2178
  797MOL0     C 9870   2.101   5.017  -1.169  0.7318  0.4214 -0.5941
  797MOL0     C 9871   2.255   5.010  -1.182 -0.6456  0.6770  0.1245
  797MOL0     O 9872   2.304   5.106  -1.275 -0.0302 -0.2058 -0.5573
  797MOL0     C 9873   2.434   5.109  -1.316 -1.0162 -0.2255  0.4988
  797MOL0     C 9874   2.529   5.005  -1.292 -0.4893  0.7871 -0.0414
  797MOL0     C 9875   2.663   5.014  -1.331  0.2918  0.4814 -0.0269
  797MOL0     C 9876   2.743   4.888  -1.315 -0.7536  0.0358  0.1245
  797MOL0     C 9877   2.714   5.123  -1.386  0.0193  0.7026  0.4093
  797MOL0     C 9878   2.850   5.144  -1.436 -0.4419  1.3963  0.2437
  797MOL0     O 9879   2.950   5.051  -1.425 -0.4631  0.0309  0.4601
  797MOL0     C 9880   3.079   5.088  -1.442 -0.1147  0.6591 -0.8412
  797MOL0     C 9881   3.132   5.192  -1.362 -0.0026 -0.4981 -0.1622
  797MOL0     C 9882   3.273   5.224  -1.373 -0.3056 -0.6958  0.6757
  797MOL0     C 9883   3.358   5.149  -1.458 -0.5639 -0.1816 -0.2032
  797MOL0     O 9884   3.488   5.182  -1.487  0.0231  0.3873 -0.2554
  797MOL0     C 9885   3.567   5.204  -1.369 -1.0506  0.2662  0.7939
  797MOL0     C 9886   3.718   5.200  -1.408 -0.5612  0.1388 -0.0180
  797MOL0     C 9887   3.757   5.065  -1.484  0.6642 -0.5205  0.6506
  797MOL0     C 9888   3.908   5.062  -1.517  0.0795  0.2733 -0.3530
  797MOL0     C 9889   3.967   4.915  -1.521 -0.1433  0.1188 -0.6727
  797MOL0     C 9890   4.010   4.871  -1.380 -0.1286 -0.5132  0.7835
  797MOL0     C 9891   4.055   4.720  -1.384 -0.2909 -1.0010 -0.2604
  797MOL0     C 9892   4.116   4.670  -1.253  0.7943 -0.3000  0.8887
  797MOL0    Cl 9893   4.283   4.725  -1.231  0.9613  0.0241 -0.5824
  797MOL0     C 9894   3.304   5.046  -1.535 -0.2596 -0.8063 -0.0674
  797MOL0     C 9895   3.165   5.019  -1.530  0.9993  0.0761  0.2726
  797MOL0     O 9896   2.865   5.258  -1.473 -0.0524 -0.1591 -0.4820
  797MOL0     C 9897   2.614   5.218  -1.417  0.2002 -0.0054  1.4481
  797MOL0     C 9898   2.483   5.214  -1.390 -0.3507 -0.3293  0.3675
  797MOL0     N 9899   1.807   5.109  -0.824  0.4022  0.1285  0.4905
  797MOL0     N 9900   1.739   5.035  -0.741 -0.1780 -0.1929  0.2356
  797MOL0     C 9901   1.091   4.432  -0.061 -0.2092 -0.0314  0.5261
  797MOL0     C 9902   1.113   4.369   0.055  0.0975 -0.6036 -0.4444
  797MOL0     C 9903   1.304   4.131   0.398  0.8769 -0.1521 -0.1785
  797MOL0     C 9904   1.253   4.220   0.487  0.6749  0.7632  0.1377
  797MOL0     C 9905   1.253   4.199   0.624 -0.1833 -0.4263 -0.2267
  797MOL0     C 9906   1.292   4.079   0.680 -1.0762  0.0099 -0.2354
  797MOL0     O 9907   1.325   4.065   0.821 -0.4578  0.7548 -0.3528
  797MOL0     C 9908   1.262   4.143   0.917 -0.6248 -0.3800  0.1972
  797MOL0     C 9909   1.110   4.114   0.920  0.3599  1.1000 -0.3552
  797MOL0     C 9910   1.071   3.966   0.947 -0.3044 -0.6329 -0.5034
  797MOL0     C 9911   1.122   3.906   1.074 -0.3500 -0.8560  0.0896
  797MOL0     C 9912   1.077   3.768   1.108 -0.5374  0.0751  0.1936
  797MOL0     C 9913   1.047   3.670   1.165  0.5045 -0.0444  0.3441
  797MOL0     C 9914   1.334   3.982   0.590  0.0726 -0.3776  0.5720
  797MOL0     C 9915   1.345   4.004   0.448  0.1163  0.6544  0.8197
  797MOL0     C 9916   1.423   3.892   0.377  0.0593 -0.7347  0.7605
  797MOL0     H 9917   1.453   4.339   0.049 -0.8784  0.5819  1.5960
  797MOL0     H 9918   1.409   4.421  -0.198 -1.0490 -0.3981  0.2993
  797MOL0     H 9919   0.988   4.586  -0.343  1.7782  0.2295 -2.7650
  797MOL0     H 9920   0.999   4.402  -0.305  3.3951  0.1541  2.9380
  797MOL0     H 9921   1.149   4.388  -0.500 -3.7781 -3.6975  0.5195
  797MOL0     H 9922   1.000   4.452  -0.555 -0.0342 -0.5195  0.4678
  797MOL0     H 9923   1.087   4.693  -0.539  2.1620  2.1019  1.6930
  797MOL0     H 9924   1.236   4.627  -0.471  2.7728 -1.9526 -0.8565
  797MOL0     H 9925   1.277   4.487  -0.680 -2.5483 -2.7707 -1.1491
  797MOL0     H 9926   1.136   4.513  -0.745  3.5263 -1.1770 -3.6576
  797MOL0     H 9927   1.212   4.785  -0.768  1.5830  1.4310 -0.7238
  797MOL0     H 9928   1.257   4.661  -0.882  0.3907 -2.3685  0.5792
  797MOL0     H 9929   1.418   4.717  -0.631 -1.9677 -2.8375  0.5296
  797MOL0     H 9930   1.446   4.606  -0.768 -1.9366 -0.8796 -0.7558
  797MOL0     H 9931   1.439   4.903  -0.753 -3.4283 -2.9970  1.7888
  797MOL0     H 9932   1.477   4.813  -0.907 -0.8751  0.0967 -0.1926
  797MOL0     H 9933   1.647   4.790  -0.660 -1.1198  1.5323  0.9517
  797MOL0     H 9934   1.669   4.716  -0.821 -0.6354 -0.0134 -0.5576
  797MOL0     H 9935   1.782   4.866  -1.030  1.4426  1.4665 -0.0190
  797MOL0     H 9936   1.889   5.231  -1.024  2.2602  0.0196 -0.5374
  797MOL0     H 9937   1.842   5.112  -1.151 -0.1183  1.9091 -1.8905
  797MOL0     H 9938   2.105   5.211  -1.072 -0.5505 -0.3990 -2.2056
  797MOL0     H 9939   2.081   5.071  -0.968  0.4718  0.5679 -0.2404
  797MOL0     H 9940   2.066   4.916  -1.147  2.1037  0.2706  1.0386
  797MOL0     H 9941   2.050   5.045  -1.262 -3.2244 -1.8844  0.6452
  797MOL0     H 9942   2.290   5.025  -1.079 -0.1670 -2.7373  0.5802
  797MOL0     H 9943   2.299   4.914  -1.210  4.3787  1.8078  2.9729
  797MOL0     H 9944   2.489   4.917  -1.243 -0.4857  0.6011 -0.3709
  797MOL0     H 9945   2.763   4.860  -1.418 -3.3760 -1.3363 -0.0993
  797MOL0     H 9946   2.679   4.812  -1.270  0.7086  1.2455  4.9137
  797MOL0     H 9947   2.828   4.902  -1.248 -2.3150  0.7754  2.0660
  797MOL0     H 9948   3.076   5.266  -1.305  1.1059  1.2859 -1.2992
  797MOL0     H 9949   3.316   5.305  -1.316 -0.6907 -2.9891  4.6064
  797MOL0     H 9950   3.550   5.302  -1.323 -1.5546  1.6480 -2.0747
  797MOL0     H 9951   3.560   5.120  -1.299  0.1311 -2.9053 -2.5466
  797MOL0     H 9952   3.755   5.284  -1.467 -0.9806 -1.5516 -2.8368
  797MOL0     H 9953   3.771   5.207  -1.312  1.2684 -2.0934 -0.7958
  797MOL0     H 9954   3.693   5.056  -1.572 -0.6501  0.0325  1.5094
  797MOL0     H 9955   3.738   4.990  -1.407  3.8916 -0.4584  1.6363
  797MOL0     H 9956   3.965   5.108  -1.436  2.9763  0.6902 -2.4672
  797MOL0     H 9957   3.937   5.116  -1.608  1.3955  3.7909  1.9525
  797MOL0     H 9958   3.894   4.840  -1.553  0.6090 -1.4210  1.0568
  797MOL0     H 9959   4.060   4.919  -1.579  1.8422  2.7691  2.3132
  797MOL0     H 9960   3.918   4.876  -1.319 -1.2342  0.5677 -0.8814
  797MOL0     H 9961   4.076   4.941  -1.328 -0.1718 -0.3338  0.5953
  797MOL0     H 9962   4.134   4.705  -1.459 -0.1858  2.3170 -0.9563
  797MOL0     H 9963   3.967   4.661  -1.409  0.6675 -1.5997 -2.4781
  797MOL0     H 9964   4.130   4.563  -1.268  1.2938 -0.6795  3.6356
  797MOL0     H 9965   4.057   4.669  -1.161 -0.3193 -3.4806  0.2575
  797MOL0     H 9966   3.355   4.993  -1.615 -1.3831 -1.2407 -0.5287
  797MOL0     H 9967   3.126   4.957  -1.610  0.9468  1.5455 -0.8852
  797MOL0     H 9968   2.634   5.318  -1.455 -1.2191 -0.3231 -0.2367
  797MOL0     H 9969   2.427   5.306  -1.408  0.7755  0.2629 -0.2090
  797MOL0     H 9970   0.992   4.471  -0.082  0.1861  1.6931  1.6170
  797MOL0     H 9971   1.035   4.347   0.127 -0.2295  2.3450  0.2185
  797MOL0     H 9972   1.199   4.305   0.446 -2.6710 -0.0237  2.5577
  797MOL0     H 9973   1.211   4.280   0.682  3.6856  2.3487 -0.8855
  797MOL0     H 9974   1.308   4.143   1.016 -0.3554  3.0807  0.1934
  797MOL0     H 9975   1.276   4.248   0.890 -1.2262 -0.2760  0.2927
  797MOL0     H 9976   1.061   4.147   0.829  1.4578  2.1674 -0.5937
  797MOL0     H 9977   1.064   4.179   0.996 -0.4534  0.0376  0.0838
  797MOL0     H 9978   0.963   3.954   0.952 -0.3166 -0.3610 -0.0499
  797MOL0     H 9979   1.101   3.897   0.867  2.7352  0.8474 -0.7695
  797MOL0     H 9980   1.083   3.970   1.155 -0.7629  0.9111 -1.4307
  797MOL0     H 9981   1.231   3.918   1.078 -0.0613 -1.1340 -3.5612
  797MOL0     H 9982   1.038   3.582   1.225 -0.8372  1.9564  3.3764
  797MOL0     H 9983   1.352   3.879   0.620 -0.4315 -0.3672  0.9202
  797MOL0     H 9984   1.345   3.819   0.349  0.0414 -0.9002  1.2401
  797MOL0     H 9985   1.469   3.926   0.284 -0.8237 -0.9802  0.2140
  797MOL0     H 9986   1.501   3.839   0.432 -0.9214 -1.1016  1.8349
  798MOL0     O 9987   6.746   0.327   9.902 -0.3802  0.1386 -0.2461
  798MOL0     C 9988   6.680   0.220   9.920 -0.2539  0.8729 -0.6997
  798MOL0     O 9989   6.557   0.199   9.879  0.4615  0.4542 -0.6026
  798MOL0     C 9990   6.494   0.295   9.802  0.1773  0.7842  0.1099
  798MOL0     C 9991   6.457   0.266   9.668  0.0111 -0.1583 -0.4619
  798MOL0     C 9992   6.397   0.365   9.589  0.0145  0.4756 -0.2239
  798MOL0     C 9993   6.381   0.491   9.634 -0.8916  0.7444  0.2872
  798MOL0     O 9994   6.332   0.584   9.549  0.1763  0.2422 -0.2825
  798MOL0     C 9995   6.345   0.722   9.588 -0.0701  0.1252 -0.3769
  798MOL0     C 9996   6.329   0.818   9.469 -0.1136 -0.1091 -0.2788
  798MOL0     C 9997   6.286   0.951   9.517  0.3076 -0.1803  1.0547
  798MOL0     C 9998   6.238   1.031   9.395  0.4387 -0.1692 -0.4615
  798MOL0     C 9999   6.101   0.982   9.343 -0.6688 -0.5160 -0.0112
  798MOL0     C10000   6.010   1.109   9.311 -0.6941 -0.0355  0.0776
  798MOL0     C10001   6.056   1.193   9.190 -0.6284 -0.2902  0.2564
  798MOL0     C10002   6.006   1.334   9.180  0.4077  0.1264  0.0039
  798MOL0     N10003   5.890   1.359   9.101 -0.1075 -0.0987  0.3657
  798MOL0     C10004   5.896   1.429   8.980  0.0056 -0.3584  0.3665
  798MOL0     C10005   5.763   1.462   8.970 -0.3927 -0.4374 -0.5213
  798MOL0     C10006   5.707   1.568   8.872  1.0079  0.9210 -0.5306
  798MOL0     C10007   5.656   1.496   8.745  0.4008  0.7133 -0.0567
  798MOL0     C10008   5.599   1.586   8.641 -0.1315 -0.2238  0.7317
  798MOL0     C10009   5.712   1.670   8.564  0.2574  0.0380  0.1466
  798MOL0     O10010   5.823   1.600   8.504 -0.0024 -0.6099 -0.5673
  798MOL0     C10011   5.815   1.541   8.382 -0.6245 -0.3839  0.2744
  798MOL0     C10012   5.920   1.449   8.345  0.5937 -0.2676 -0.6617
  798MOL0     C10013   5.933   1.393   8.222 -0.5328  0.5054 -0.0923
  798MOL0     C10014   6.056   1.303   8.189 -0.9808  0.5134  0.7399
  798MOL0     C10015   5.835   1.421   8.127  0.4845  0.4560  0.1393
  798MOL0     C10016   5.847   1.376   7.992 -0.2143  0.5672 -0.1191
  798MOL0     O10017   5.965   1.338   7.934 -0.1734 -0.7118  0.0373
  798MOL0     C10018   5.957   1.272   7.818 -1.2548  0.1087  0.3750
  798MOL0     C10019   5.961   1.132   7.826  0.0901  0.3135  0.3003
  798MOL0     C10020   5.957   1.061   7.706  0.7617  0.6876 -0.9016
  798MOL0     C10021   5.943   1.122   7.575  0.1224 -0.5945 -1.3347
  798MOL0     O10022   5.930   1.066   7.454  0.4037 -0.0230  0.0165
  798MOL0     C10023   5.918   0.924   7.436 -0.6232  0.2571 -0.7733
  798MOL0     C10024   5.786   0.867   7.494  0.3193  0.2622 -0.2161
  798MOL0     C10025   5.656   0.930   7.444  0.6972 -0.5119 -1.2106
  798MOL0     C10026   5.546   0.940   7.556  0.8784 -0.1752  0.3455
  798MOL0     C10027   5.568   1.051   7.661  0.1293 -0.6263  0.4951
  798MOL0     C10028   5.501   1.003   7.787 -1.3392 -1.0428  0.4576
  798MOL0     C10029   5.540   1.089   7.906  0.2242  0.4493 -0.7278
  798MOL0     C10030   5.656   1.046   7.978  0.4029  0.0023 -0.8570
  798MOL0    Cl10031   5.615   0.892   8.069 -0.0966  0.6775  0.2131
  798MOL0     C10032   5.933   1.261   7.583 -0.1707  0.3747 -0.8161
  798MOL0     C10033   5.934   1.336   7.694 -0.9791  0.0109  0.4023
  798MOL0     O10034   5.744   1.397   7.926  0.4392 -0.2359 -0.1807
  798MOL0     C10035   5.730   1.506   8.167 -0.3341 -1.1432  0.2509
  798MOL0     C10036   5.725   1.570   8.282 -0.0601  0.7242  0.2981
  798MOL0     N10037   5.687   1.402   9.067  0.8951 -0.3449 -0.5417
  798MOL0     N10038   5.763   1.338   9.147 -0.0771  0.4825 -0.5228
  798MOL0     C10039   6.418   0.516   9.772  0.8567  0.2956  0.0685
  798MOL0     C10040   6.463   0.418   9.859 -0.4446  0.3114  0.8786
  798MOL0     C10041   6.751   0.095   9.960  0.3271 -0.4544 -0.8047
  798MOL0     C10042   6.670  -0.021   9.967 -0.3852  0.2990  0.1633
  798MOL0     C10043   6.739  -0.142   9.986  0.6797 -0.2631  0.4768
  798MOL0     C10044   6.882  -0.149   9.981 -0.3303 -0.4242  0.6256
  798MOL0     O10045   6.949  -0.264   9.983 -0.3614 -0.0503  0.6721
  798MOL0     C10046   6.923  -0.361   9.877 -0.1838 -0.4214  0.0448
  798MOL0     C10047   7.043  -0.381   9.788  0.6359  0.3376  0.4016
  798MOL0     C10048   7.132  -0.487   9.840  0.6801  0.6829 -0.3302
  798MOL0     C10049   7.244  -0.517   9.733 -0.3742 -0.6728 -0.0101
  798MOL0     C10050   7.310  -0.636   9.776 -0.2917  0.6053 -0.3344
  798MOL0     C10051   7.366  -0.738   9.806 -0.0816 -0.2954 -0.4636
  798MOL0     C10052   6.954  -0.031   9.985 -0.5509 -0.5693  0.8142
  798MOL0     C10053   6.886   0.089   9.979 -1.1955 -0.0108  0.1194
  798MOL0     C10054   6.980   0.208   9.992 -0.1659 -0.0551  0.1195
  798MOL0     H10055   6.457   0.177   9.607 -6.0562 -2.4573  2.1266
  798MOL0     H10056   6.383   0.328   9.487 -0.6474 -2.7956  0.9185
  798MOL0     H10057   6.443   0.743   9.631 -0.9424  0.0888  1.7281
  798MOL0     H10058   6.270   0.741   9.665  0.7834 -2.2719  1.1701
  798MOL0     H10059   6.405   0.823   9.391 -0.6359 -0.3004 -0.8109
  798MOL0     H10060   6.256   0.764   9.408  0.8584 -0.3303 -1.2823
  798MOL0     H10061   6.207   0.945   9.592 -0.8962  1.3802 -0.0019
  798MOL0     H10062   6.369   1.000   9.570  3.1271 -2.2278 -1.1152
  798MOL0     H10063   6.234   1.133   9.435 -0.9086 -1.2271  2.4087
  798MOL0     H10064   6.307   1.020   9.311  0.0811 -1.9363 -0.5632
  798MOL0     H10065   6.053   0.922   9.421  0.4515  1.0951  2.0161
  798MOL0     H10066   6.106   0.930   9.247 -1.2789 -0.3302 -0.1456
  798MOL0     H10067   5.906   1.076   9.303 -0.4356 -1.3783  1.6260
  798MOL0     H10068   6.007   1.179   9.395 -1.6101  1.1128 -0.8769
  798MOL0     H10069   6.021   1.130   9.108 -0.6409 -2.1712  1.6359
  798MOL0     H10070   6.165   1.203   9.200 -0.6172 -1.8860  2.2781
  798MOL0     H10071   5.986   1.364   9.283  2.0432  0.3370  0.2950
  798MOL0     H10072   6.088   1.400   9.149  1.0245 -1.4098 -1.8242
  798MOL0     H10073   5.977   1.471   8.922  1.0185  2.5902  3.5856
  798MOL0     H10074   5.793   1.633   8.851  1.8492 -0.3321 -1.1286
  798MOL0     H10075   5.631   1.626   8.924 -0.9404  2.2465 -4.4610
  798MOL0     H10076   5.744   1.445   8.707  0.6466  1.6186 -0.7607
  798MOL0     H10077   5.581   1.431   8.790  1.1174  1.3732  2.2203
  798MOL0     H10078   5.530   1.534   8.574 -2.6215  2.2277  1.2069
  798MOL0     H10079   5.529   1.655   8.690  0.1180  2.0412 -1.8398
  798MOL0     H10080   5.660   1.736   8.495  0.8702 -2.1838 -2.5944
  798MOL0     H10081   5.764   1.741   8.629 -1.5856  0.5553  1.1169
  798MOL0     H10082   6.000   1.425   8.414  2.6486  3.4060 -1.4796
  798MOL0     H10083   6.121   1.361   8.122 -0.6837  0.7539  1.2329
  798MOL0     H10084   6.020   1.210   8.145 -0.8849 -1.1489  3.8793
  798MOL0     H10085   6.117   1.276   8.275 -0.1417  0.7197  0.2249
  798MOL0     H10086   5.972   1.080   7.920  3.3790 -2.4011 -1.3523
  798MOL0     H10087   5.961   0.953   7.714 -1.2572  0.6970  1.6868
  798MOL0     H10088   5.932   0.887   7.334  0.3889  1.7230 -1.1891
  798MOL0     H10089   6.004   0.883   7.491  0.9257  1.3337 -2.3029
  798MOL0     H10090   5.781   0.760   7.472  1.0781  0.6711 -2.7828
  798MOL0     H10091   5.793   0.867   7.603 -3.5148  2.5996  0.2260
  798MOL0     H10092   5.612   0.854   7.380 -0.7214  0.3794 -1.3214
  798MOL0     H10093   5.673   1.028   7.399  1.2345  0.6200  1.2584
  798MOL0     H10094   5.519   0.841   7.592 -3.8706 -0.0724 -2.1196
  798MOL0     H10095   5.453   0.967   7.504 -0.0923 -1.3441  1.4025
  798MOL0     H10096   5.672   1.078   7.683  0.5136 -1.4502 -0.2397
  798MOL0     H10097   5.523   1.147   7.635 -1.9375 -1.5403  0.5333
  798MOL0     H10098   5.530   0.899   7.806  1.7169 -0.4766 -0.4636
  798MOL0     H10099   5.394   1.004   7.768 -1.0603 -0.1654 -1.2967
  798MOL0     H10100   5.462   1.066   7.979 -0.1797  0.4635 -1.1497
  798MOL0     H10101   5.549   1.195   7.880  2.4397  0.3193 -0.7585
  798MOL0     H10102   5.681   1.126   8.049 -0.0392  0.5493 -1.3122
  798MOL0     H10103   5.741   1.044   7.910  3.2522 -0.0464  2.4202
  798MOL0     H10104   5.921   1.308   7.486 -0.4004  0.0788 -0.9321
  798MOL0     H10105   5.931   1.444   7.687  1.2001  0.0013 -2.4409
  798MOL0     H10106   5.663   1.549   8.094 -1.3453  2.0183  2.7995
  798MOL0     H10107   5.640   1.636   8.298 -0.6870 -0.6535  3.3741
  798MOL0     H10108   6.398   0.614   9.815  0.3239  0.8267 -1.3437
  798MOL0     H10109   6.475   0.448   9.963 -0.9307 -2.5275  1.8447
  798MOL0     H10110   6.561  -0.024   9.965 -0.3833  0.1622  0.3020
  798MOL0     H10111   6.691  -0.239   9.995  1.7423 -1.2205 -2.7902
  798MOL0     H10112   6.897  -0.457   9.922 -1.9971  0.0620  0.0800
  798MOL0     H10113   6.839  -0.330   9.814  1.5144 -1.0754 -2.7101
  798MOL0     H10114   7.099  -0.287   9.788  2.2857 -0.5499  2.8612
  798MOL0     H10115   7.011  -0.406   9.686  0.8730 -0.8429  0.6037
  798MOL0     H10116   7.178  -0.454   9.934  0.9063  0.1078 -0.2361
  798MOL0     H10117   7.077  -0.579   9.862  4.0869 -1.2373  0.9227
  798MOL0     H10118   7.315  -0.434   9.731 -0.3272 -0.7284 -1.0866
  798MOL0     H10119   7.201  -0.531   9.633 -0.5530  0.0750 -0.0493
  798MOL0     H10120   7.415  -0.825   9.845  0.8096  1.5402  2.9381
  798MOL0     H10121   7.063  -0.032   9.991 -0.3614 -0.0612 -1.4104
  798MOL0     H10122   6.985   0.250   9.891 -3.1950  0.3973  0.0459
  798MOL0     H10123   6.929   0.282  10.054 -1.0570 -0.9305  0.4424
  798MOL0     H10124   7.072   0.188  10.047  0.7075 -1.1076 -1.6191
  799MOL0     O10125   1.908   6.567   3.575  0.2002 -0.3621  0.9342
  799MOL0     C10126   1.869   6.450   3.569  0.7270  0.0048  0.0381
  799MOL0     O10127   1.823   6.390   3.453  0.3506 -0.6182 -0.3167
  799MOL0     C10128   1.847   6.447   3.329  0.0822  0.3513 -0.0551
  799MOL0     C10129   1.934   6.384   3.238 -0.2877  0.2408  0.4579
  799MOL0     C10130   1.942   6.424   3.104  0.3648 -0.3641 -1.3509
  799MOL0     C10131   1.872   6.541   3.067 -0.3338  0.8122  0.2590
  799MOL0     O10132   1.872   6.578   2.935 -0.0095 -0.1058  0.8166
  799MOL0     C10133   1.968   6.516   2.841  0.5794 -0.2515  0.4961
  799MOL0     C10134   2.114   6.571   2.868 -0.5065  0.4496  0.4311
  799MOL0     C10135   2.200   6.551   2.733  0.2681  0.2686 -0.2795
  799MOL0     C10136   2.233   6.411   2.687  0.1059  1.3619  1.0953
  799MOL0     C10137   2.317   6.408   2.560  0.3690  0.2247 -0.3169
  799MOL0     C10138   2.256   6.494   2.448 -0.4122 -0.7737  0.0355
  799MOL0     C10139   2.336   6.481   2.315  0.5478  0.5510 -0.1420
  799MOL0     C10140   2.477   6.537   2.315  0.3153 -0.1064  0.4504
  799MOL0     N10141   2.519   6.560   2.173 -0.1737  0.2357 -0.1112
  799MOL0     C10142   2.555   6.471   2.078  0.7927  0.4239  0.4877
  799MOL0     C10143   2.592   6.545   1.979 -0.0591 -0.0636  0.6215
  799MOL0     C10144   2.657   6.496   1.858  0.0047  0.4005  0.2046
  799MOL0     C10145   2.552   6.479   1.747 -0.2654 -0.5403 -1.2595
  799MOL0     C10146   2.434   6.394   1.786  0.5967 -0.8587  0.1278
  799MOL0     C10147   2.341   6.369   1.669  0.2816  0.4536  0.7669
  799MOL0     O10148   2.388   6.261   1.587 -0.4594 -0.0921  0.0560
  799MOL0     C10149   2.389   6.273   1.449 -0.2808  0.0174 -0.6476
  799MOL0     C10150   2.279   6.344   1.386 -0.8805  0.4418 -0.5396
  799MOL0     C10151   2.276   6.367   1.252  0.4485  0.4131  0.8406
  799MOL0     C10152   2.149   6.447   1.209 -1.0731  0.1465 -0.0401
  799MOL0     C10153   2.380   6.310   1.169  0.5359  0.0542  0.2708
  799MOL0     C10154   2.381   6.319   1.025 -1.0172  0.3836 -0.9814
  799MOL0     O10155   2.487   6.257   0.960  0.1882 -0.3686 -0.7364
  799MOL0     C10156   2.490   6.263   0.830  0.2667  0.3540 -0.0759
  799MOL0     C10157   2.407   6.171   0.764  0.3582 -0.6754  0.2267
  799MOL0     C10158   2.395   6.181   0.625  0.3951 -0.3441  0.1804
  799MOL0     C10159   2.448   6.286   0.553 -0.2628  0.0357 -0.2447
  799MOL0     O10160   2.401   6.304   0.422  0.1991 -0.2461 -0.2451
  799MOL0     C10161   2.507   6.327   0.329  0.5261 -0.5368 -0.0236
  799MOL0     C10162   2.464   6.300   0.180  0.1085  0.2752  0.0538
  799MOL0     C10163   2.550   6.381   0.077 -0.6327 -0.2599  0.0037
  799MOL0     C10164   2.531   6.317  -0.060  0.7834 -0.7136 -0.3153
  799MOL0     C10165   2.644   6.346  -0.159 -0.0351 -0.1262 -0.0080
  799MOL0     C10166   2.688   6.493  -0.171  0.9793 -0.0712 -0.0851
  799MOL0     C10167   2.774   6.519  -0.293  0.2029  0.5083  1.2388
  799MOL0     C10168   2.925   6.507  -0.263 -0.1376  0.2566  0.6322
  799MOL0    Cl10169   2.980   6.340  -0.236 -0.2671  0.1675 -0.0202
  799MOL0     C10170   2.532   6.379   0.622  1.6839 -0.2337  0.5557
  799MOL0     C10171   2.547   6.371   0.761 -1.3146  0.7032  1.2435
  799MOL0     O10172   2.286   6.367   0.969  0.1414 -0.2670  0.6134
  799MOL0     C10173   2.478   6.227   1.231 -0.3138 -0.0092 -0.4620
  799MOL0     C10174   2.488   6.213   1.368  0.1551  0.2926  0.4835
  799MOL0     N10175   2.574   6.675   2.007  0.1633 -0.2501  0.4824
  799MOL0     N10176   2.524   6.684   2.128 -0.2582 -0.1827  0.3438
  799MOL0     C10177   1.789   6.605   3.161  0.1920 -0.1830  0.1854
  799MOL0     C10178   1.770   6.559   3.295  0.3584  0.7203  0.2652
  799MOL0     C10179   1.874   6.365   3.688  0.6369 -0.5785 -0.0771
  799MOL0     C10180   1.799   6.402   3.798 -0.2595  0.0275 -0.0432
  799MOL0     C10181   1.812   6.333   3.920  0.1547  0.1819 -0.9689
  799MOL0     C10182   1.892   6.221   3.930 -0.6655 -0.3751 -0.4883
  799MOL0     O10183   1.890   6.162   4.057 -0.6269 -0.0631  0.2062
  799MOL0     C10184   1.995   6.072   4.104  0.2995  0.7273 -0.1630
  799MOL0     C10185   2.003   6.067   4.255 -1.1088 -0.0125  0.1246
  799MOL0     C10186   2.057   6.197   4.323 -0.0781 -0.6938  0.2255
  799MOL0     C10187   2.195   6.250   4.259 -0.0086  0.0371 -0.5479
  799MOL0     C10188   2.194   6.393   4.277  0.6248  0.8190 -0.0419
  799MOL0     C10189   2.194   6.505   4.273  0.7332 -0.3227  0.0192
  799MOL0     C10190   1.960   6.178   3.822  0.1801 -0.2084 -1.1533
  799MOL0     C10191   1.944   6.246   3.699 -0.5184  0.3939  0.1538
  799MOL0     C10192   2.022   6.175   3.594  0.2615 -0.6829  0.2899
  799MOL0     H10193   1.985   6.293   3.268  1.1830  0.0453 -2.2589
  799MOL0     H10194   1.993   6.358   3.035  0.9052 -0.0876 -1.2236
  799MOL0     H10195   1.932   6.545   2.741 -0.0331 -2.2856  0.0813
  799MOL0     H10196   1.962   6.408   2.833  3.6231 -0.4968  0.5277
  799MOL0     H10197   2.110   6.679   2.887  1.3238  0.3469  1.6203
  799MOL0     H10198   2.168   6.520   2.947 -1.2037  0.6472  1.0568
  799MOL0     H10199   2.137   6.600   2.658  0.9897  0.2434 -0.9160
  799MOL0     H10200   2.294   6.605   2.741  2.6742 -3.1054 -2.8061
  799MOL0     H10201   2.282   6.357   2.769  0.4296  1.0016  0.6663
  799MOL0     H10202   2.142   6.353   2.668 -0.3801  2.1841  0.9022
  799MOL0     H10203   2.320   6.302   2.535 -1.6062 -0.1483  0.7880
  799MOL0     H10204   2.417   6.449   2.573  0.3451  1.1541 -2.5187
  799MOL0     H10205   2.149   6.476   2.430 -1.2002  2.3034  0.9784
  799MOL0     H10206   2.264   6.598   2.479  0.6322 -0.9791  0.4742
  799MOL0     H10207   2.275   6.532   2.241  0.1950  3.1537  1.7916
  799MOL0     H10208   2.336   6.376   2.287  2.3530  0.4592  0.0828
  799MOL0     H10209   2.479   6.637   2.358  3.6868 -0.1117  0.5690
  799MOL0     H10210   2.553   6.475   2.363  1.7039  0.8197 -0.4982
  799MOL0     H10211   2.569   6.364   2.089 -0.3324  0.3674  1.4877
  799MOL0     H10212   2.695   6.396   1.882 -1.1261 -0.1517 -0.1886
  799MOL0     H10213   2.739   6.559   1.825  1.6030 -1.7725 -0.2045
  799MOL0     H10214   2.513   6.571   1.701  2.9056  0.5659 -1.9845
  799MOL0     H10215   2.607   6.433   1.664  0.9026 -1.4106 -0.0389
  799MOL0     H10216   2.481   6.302   1.821  0.0637 -0.6483  1.4592
  799MOL0     H10217   2.382   6.436   1.872 -1.7317 -1.0879 -1.0789
  799MOL0     H10218   2.241   6.340   1.702 -0.0326  0.8806  0.2098
  799MOL0     H10219   2.320   6.466   1.623  1.7452  2.1170  3.3666
  799MOL0     H10220   2.197   6.378   1.449  0.4243 -1.8329  2.6773
  799MOL0     H10221   2.082   6.376   1.160 -1.3320 -1.4030  2.4073
  799MOL0     H10222   2.192   6.525   1.145 -0.6026  2.6608  3.0642
  799MOL0     H10223   2.102   6.494   1.295 -1.6894  1.4641 -1.0718
  799MOL0     H10224   2.349   6.095   0.817  1.7636 -1.7315  0.3104
  799MOL0     H10225   2.321   6.130   0.565  1.3529 -1.9358  0.3039
  799MOL0     H10226   2.515   6.436   0.336  1.1001 -0.6830  2.4589
  799MOL0     H10227   2.607   6.301   0.366  0.2763  0.4435  1.4249
  799MOL0     H10228   2.463   6.192   0.167 -1.1849 -0.4007  4.3206
  799MOL0     H10229   2.359   6.315   0.153  0.6682  2.0605 -1.3488
  799MOL0     H10230   2.657   6.391   0.099 -0.2808  1.6670 -2.1821
  799MOL0     H10231   2.519   6.486   0.074  4.0518  1.4042  0.3458
  799MOL0     H10232   2.441   6.345  -0.116 -0.2687 -3.3126 -0.0451
  799MOL0     H10233   2.524   6.208  -0.062  0.0771 -0.7994  2.6850
  799MOL0     H10234   2.729   6.287  -0.123 -0.4158 -0.1325  0.9109
  799MOL0     H10235   2.617   6.306  -0.257 -3.1930 -0.4299  0.8880
  799MOL0     H10236   2.745   6.510  -0.079 -1.1000  2.3758  0.8585
  799MOL0     H10237   2.599   6.556  -0.166  2.9679  2.8616  1.0782
  799MOL0     H10238   2.768   6.621  -0.332 -0.2376 -0.3059 -0.9519
  799MOL0     H10239   2.741   6.456  -0.376  0.4281  3.2484 -1.0671
  799MOL0     H10240   2.958   6.578  -0.186 -2.1010 -0.1271  1.8732
  799MOL0     H10241   2.980   6.545  -0.350  1.6846 -0.0314  1.5931
  799MOL0     H10242   2.573   6.459   0.561 -2.3328  1.0320 -0.8218
  799MOL0     H10243   2.604   6.447   0.812  0.2422 -0.3962  1.2266
  799MOL0     H10244   2.550   6.181   1.165 -0.5235 -1.4956  0.2979
  799MOL0     H10245   2.554   6.144   1.420 -0.7363 -0.1053  1.1174
  799MOL0     H10246   1.744   6.698   3.127 -1.1280 -0.8897 -0.0746
  799MOL0     H10247   1.697   6.611   3.356 -2.2136  1.4025 -3.0429
  799MOL0     H10248   1.742   6.494   3.799 -1.1489 -0.5122  1.5976
  799MOL0     H10249   1.761   6.375   4.006  0.1002 -3.5309  0.9842
  799MOL0     H10250   1.952   5.977   4.074  2.3012  0.3574 -2.1582
  799MOL0     H10251   2.096   6.085   4.062  2.2157 -4.0068  2.2444
  799MOL0     H10252   2.071   5.991   4.295  0.7060  2.6461  2.4943
  799MOL0     H10253   1.899   6.045   4.280 -0.9280 -4.1856 -1.8416
  799MOL0     H10254   1.986   6.278   4.307 -2.8984 -2.9249  0.6340
  799MOL0     H10255   2.075   6.189   4.431 -2.5527  1.6936  0.9103
  799MOL0     H10256   2.201   6.234   4.151  0.9742 -2.0296 -0.2346
  799MOL0     H10257   2.283   6.202   4.303 -0.8231 -2.4321 -1.4320
  799MOL0     H10258   2.172   6.610   4.285 -0.7974 -0.4029 -1.5716
  799MOL0     H10259   2.031   6.096   3.822 -0.6533 -0.9347 -1.0251
  799MOL0     H10260   2.129   6.182   3.612  0.4144 -0.5045 -0.6058
  799MOL0     H10261   1.997   6.069   3.596 -0.9302 -0.4387 -0.4432
  799MOL0     H10262   1.994   6.216   3.496  0.2347 -2.6220 -0.5561
  800MOL0     O10263   8.341   8.344   6.133 -0.2883  0.2143  0.1639
  800MOL0     C10264   8.221   8.353   6.166  0.7608 -0.1009 -0.1369
  800MOL0     O10265   8.174   8.444   6.244  0.4716 -0.0490  0.1558
  800MOL0     C10266   8.266   8.532   6.291 -0.3694 -0.8318 -0.5946
  800MOL0     C10267   8.313   8.527   6.430 -0.1486 -0.1857 -0.7847
  800MOL0     C10268   8.374   8.635   6.491 -0.2961  1.3963 -0.1646
  800MOL0     C10269   8.394   8.748   6.420  0.4373 -0.6446  0.9486
  800MOL0     O10270   8.445   8.854   6.488 -0.2688 -0.0246  0.4695
  800MOL0     C10271   8.589   8.860   6.477  0.2050  0.6730 -0.0240
  800MOL0     C10272   8.618   9.012   6.496  0.1367  1.1048 -0.0097
  800MOL0     C10273   8.575   9.063   6.635  0.8171  0.6128 -0.4177
  800MOL0     C10274   8.630   9.204   6.680 -0.4347 -0.9581  0.0091
  800MOL0     C10275   8.605   9.328   6.588  0.2942 -0.1767  0.2986
  800MOL0     C10276   8.460   9.366   6.582  0.1862 -0.4548  0.3109
  800MOL0     C10277   8.419   9.443   6.707  0.1494 -0.6043 -0.1546
  800MOL0     C10278   8.277   9.487   6.667  0.9800 -0.8843  0.2744
  800MOL0     N10279   8.210   9.589   6.751 -0.2399 -0.7168  0.4805
  800MOL0     C10280   8.117   9.558   6.847 -0.6124 -0.4699 -0.8359
  800MOL0     C10281   8.083   9.685   6.897 -1.5148 -0.1973 -0.1416
  800MOL0     C10282   7.983   9.714   7.017 -0.4045  0.4207 -0.9884
  800MOL0     C10283   8.027   9.692   7.159  0.5859  0.2020  0.2338
  800MOL0     C10284   8.063   9.543   7.191 -0.6983 -0.1416 -0.2127
  800MOL0     C10285   8.079   9.533   7.347 -1.5168 -1.0591 -0.0570
  800MOL0     O10286   8.175   9.628   7.377 -0.2665  1.3247  0.7636
  800MOL0     C10287   8.206   9.646   7.508  0.4323  1.2016  0.4988
  800MOL0     C10288   8.172   9.550   7.614 -0.1888  0.4981  0.5711
  800MOL0     C10289   8.212   9.565   7.746  0.1661 -0.6565  0.5661
  800MOL0     C10290   8.159   9.473   7.856 -0.0880 -0.1396 -0.4329
  800MOL0     C10291   8.284   9.678   7.779  0.3374 -0.0170  0.9016
  800MOL0     C10292   8.332   9.713   7.916 -0.2002 -0.3230 -1.0848
  800MOL0     O10293   8.444   9.797   7.910  0.3069 -0.8761 -0.6439
  800MOL0     C10294   8.505   9.852   8.026  0.3781  0.2896  1.3831
  800MOL0     C10295   8.461   9.852   8.160 -0.3511 -0.2599 -0.4900
  800MOL0     C10296   8.540   9.896   8.266  0.8832 -0.3410 -0.4139
  800MOL0     C10297   8.658   9.963   8.238 -0.0690 -0.4180  0.0352
  800MOL0     O10298   8.717  10.029   8.341 -0.5772  0.5295 -0.3101
  800MOL0     C10299   8.653  10.150   8.371  0.5712  1.0620  0.7621
  800MOL0     C10300   8.623  10.142   8.521 -0.6429  0.4851 -0.5869
  800MOL0     C10301   8.536  10.257   8.569  0.2879 -0.7212 -0.1745
  800MOL0     C10302   8.543  10.265   8.723  0.8467 -0.3536 -0.4590
  800MOL0     C10303   8.474  10.387   8.785  1.2036  0.2595  0.7095
  800MOL0     C10304   8.483  10.384   8.949  0.0699  1.4397  0.5507
  800MOL0     C10305   8.362  10.470   8.994 -0.9432 -0.1491 -1.2270
  800MOL0     C10306   8.371  10.472   9.147 -0.0237  0.7149  0.3832
  800MOL0    Cl10307   8.312  10.320   9.214 -0.5558 -0.0673  0.4106
  800MOL0     C10308   8.701   9.978   8.104 -0.0527 -0.5633 -0.3155
  800MOL0     C10309   8.623   9.914   8.004  0.1966  0.8126 -0.2157
  800MOL0     O10310   8.272   9.680   8.017 -0.2761 -0.6610 -0.2202
  800MOL0     C10311   8.322   9.768   7.671 -0.1052 -0.1035  0.1191
  800MOL0     C10312   8.283   9.748   7.537  1.2708 -0.4276  0.0317
  800MOL0     N10313   8.156   9.786   6.819 -0.2013  0.4053 -0.1329
  800MOL0     N10314   8.227   9.723   6.734  0.2288  0.3207 -0.0992
  800MOL0     C10315   8.356   8.754   6.282 -0.9813  0.4838  1.0703
  800MOL0     C10316   8.292   8.649   6.216  0.7536  0.4260  0.2344
  800MOL0     C10317   8.129   8.248   6.114  0.5392 -0.0280  0.9242
  800MOL0     C10318   8.012   8.228   6.186  0.0676 -1.1084  0.5691
  800MOL0     C10319   7.912   8.145   6.141 -0.2320  0.7085 -0.0850
  800MOL0     C10320   7.932   8.060   6.027 -0.2866 -0.6646  0.4302
  800MOL0     O10321   7.827   7.985   5.979  0.6997 -0.1562  0.2617
  800MOL0     C10322   7.850   7.884   5.880 -0.2742 -0.2621  0.7274
  800MOL0     C10323   7.742   7.791   5.900  0.5183  0.6250  0.5517
  800MOL0     C10324   7.760   7.719   6.025 -0.1002  0.3747  0.3127
  800MOL0     C10325   7.666   7.597   6.016  0.5058 -0.6475 -1.1257
  800MOL0     C10326   7.525   7.627   5.997  0.2753 -0.4078  0.1765
  800MOL0     C10327   7.408   7.655   5.974 -0.8388  0.2643  0.0840
  800MOL0     C10328   8.057   8.073   5.956 -0.1874 -1.2662 -0.4260
  800MOL0     C10329   8.154   8.169   6.002 -0.3848 -0.3157  0.0595
  800MOL0     C10330   8.263   8.190   5.913 -0.5394 -0.4805  0.6529
  800MOL0     H10331   8.303   8.434   6.485  2.2037  0.6894  1.3196
  800MOL0     H10332   8.411   8.624   6.593  0.0766  0.0841 -0.4357
  800MOL0     H10333   8.623   8.811   6.385 -0.6144  0.8223 -0.4150
  800MOL0     H10334   8.639   8.803   6.557  0.5632  1.3622  0.2541
  800MOL0     H10335   8.724   9.036   6.483  0.3729  0.2522  0.2978
  800MOL0     H10336   8.571   9.063   6.411  1.1360 -0.0236 -1.2748
  800MOL0     H10337   8.466   9.073   6.634  0.7162 -0.3149  0.0252
  800MOL0     H10338   8.590   8.984   6.709 -2.4178 -0.4376 -0.7157
  800MOL0     H10339   8.583   9.225   6.777 -1.0910 -1.3119 -0.2270
  800MOL0     H10340   8.738   9.197   6.697  0.1013 -1.4777 -3.0779
  800MOL0     H10341   8.633   9.313   6.483 -1.5386  2.6360 -0.6949
  800MOL0     H10342   8.664   9.415   6.620  0.8244 -0.0260 -1.0163
  800MOL0     H10343   8.441   9.435   6.499 -1.7738  0.2616  1.2782
  800MOL0     H10344   8.391   9.281   6.576 -2.3137  1.4074  0.5969
  800MOL0     H10345   8.482   9.531   6.722 -3.3338  2.0558  0.2838
  800MOL0     H10346   8.416   9.384   6.799  2.2104  0.5739  0.7269
  800MOL0     H10347   8.281   9.537   6.569 -1.3573 -1.5182 -0.1859
  800MOL0     H10348   8.192   9.420   6.659 -0.9194  1.1822  1.8257
  800MOL0     H10349   8.097   9.455   6.875  0.3358 -1.2840 -2.9657
  800MOL0     H10350   7.883   9.678   6.993 -0.6843  0.3585  0.2065
  800MOL0     H10351   7.964   9.821   7.013 -0.0538  0.5858  0.7292
  800MOL0     H10352   8.108   9.763   7.174 -1.4348  2.7899 -0.4052
  800MOL0     H10353   7.952   9.723   7.233  0.5362 -1.4873  0.9427
  800MOL0     H10354   7.992   9.470   7.155 -0.6977 -0.7784  1.0229
  800MOL0     H10355   8.159   9.525   7.142 -1.7931  1.3301 -3.1026
  800MOL0     H10356   7.987   9.552   7.403 -2.0769 -0.2832 -1.2027
  800MOL0     H10357   8.108   9.433   7.380  1.8144  0.2280  1.3561
  800MOL0     H10358   8.109   9.467   7.583  0.5100 -0.3347  1.3403
  800MOL0     H10359   8.096   9.529   7.927  1.8311  1.1171  0.3549
  800MOL0     H10360   8.241   9.429   7.912  0.5414  3.8063  2.1619
  800MOL0     H10361   8.096   9.393   7.815  0.2648  0.1906 -1.6575
  800MOL0     H10362   8.359   9.824   8.187  0.6854 -3.0146  0.8927
  800MOL0     H10363   8.517   9.889   8.372  1.5738 -0.9598 -0.3018
  800MOL0     H10364   8.723  10.233   8.354  0.8842  0.4779 -0.9493
  800MOL0     H10365   8.558  10.162   8.320  1.4965  0.6696 -1.1495
  800MOL0     H10366   8.546  10.065   8.535 -1.9875  1.6441 -1.3603
  800MOL0     H10367   8.712  10.133   8.584 -0.9478 -3.4997 -0.4524
  800MOL0     H10368   8.432  10.243   8.538  0.2807 -0.5118 -0.2471
  800MOL0     H10369   8.574  10.349   8.524 -0.6400 -0.2294  0.0308
  800MOL0     H10370   8.650  10.276   8.743  1.0833  0.6044 -2.1225
  800MOL0     H10371   8.511  10.169   8.764  2.6362 -2.4071 -3.4466
  800MOL0     H10372   8.511  10.479   8.740  0.5275  0.1899  0.0064
  800MOL0     H10373   8.371  10.381   8.751  0.7328 -0.4978  2.1647
  800MOL0     H10374   8.571  10.445   8.974 -0.5645  2.2421  0.8427
  800MOL0     H10375   8.486  10.281   8.987 -0.9417  1.9870  2.1879
  800MOL0     H10376   8.263  10.437   8.962 -0.7485 -0.2383 -1.7469
  800MOL0     H10377   8.377  10.571   8.956  1.2591  0.0978  0.1255
  800MOL0     H10378   8.304  10.554   9.170  1.3771  2.5852 -1.7705
  800MOL0     H10379   8.474  10.492   9.179  1.0905  0.0364 -2.4421
  800MOL0     H10380   8.783  10.047   8.083 -1.4897  1.3385 -0.0251
  800MOL0     H10381   8.653   9.925   7.900  2.0622 -2.5561 -0.1947
  800MOL0     H10382   8.383   9.855   7.694 -2.8228  1.7609  0.6843
  800MOL0     H10383   8.331   9.803   7.457 -1.7544  1.0857 -0.9098
  800MOL0     H10384   8.378   8.851   6.239 -1.8639  0.2052 -0.0496
  800MOL0     H10385   8.267   8.659   6.111 -0.6572 -2.0991  0.2286
  800MOL0     H10386   7.981   8.274   6.280  0.7134 -3.1330  1.8496
  800MOL0     H10387   7.820   8.128   6.196  0.5824 -0.5706  0.9401
  800MOL0     H10388   7.850   7.936   5.783  2.0543  0.2772  0.9757
  800MOL0     H10389   7.949   7.839   5.889 -0.7305 -0.8876  3.3957
  800MOL0     H10390   7.723   7.734   5.809  1.5581  2.6103 -0.9762
  800MOL0     H10391   7.643   7.837   5.905 -2.1352 -3.8567 -2.8422
  800MOL0     H10392   7.864   7.692   6.047  0.1966  1.4142  0.2407
  800MOL0     H10393   7.730   7.781   6.111 -0.7647  0.2316  0.1921
  800MOL0     H10394   7.672   7.544   6.112  0.7568  0.4648 -0.4980
  800MOL0     H10395   7.707   7.523   5.947  2.5904  0.7598 -1.5133
  800MOL0     H10396   7.303   7.651   5.950 -0.4154 -3.0563 -1.8201
  800MOL0     H10397   8.073   7.999   5.878  1.4121 -0.4335 -0.9163
  800MOL0     H10398   8.353   8.150   5.962 -1.6364 -1.7509  1.6916
  800MOL0     H10399   8.250   8.149   5.812  1.8458  0.5662 -0.1632
  800MOL0     H10400   8.265   8.299   5.906 -2.5119 -0.2244  2.8922
  801MOL0     O10401   1.752   2.213  10.856  0.6498 -0.2398 -1.0475
  801MOL0     C10402   1.702   2.152  10.953  0.2279  0.0766 -0.0159
  801MOL0     O10403   1.709   2.012  10.979  0.1294 -0.5697 -0.3151
  801MOL0     C10404   1.802   1.946  10.913  1.1203 -1.1776 -0.0366
  801MOL0     C10405   1.916   1.906  10.977 -0.3872  0.0184 -0.2761
  801MOL0     C10406   2.016   1.841  10.912  0.5158 -0.3855 -0.7472
  801MOL0     C10407   1.986   1.792  10.780 -0.1534  0.2850  0.7768
  801MOL0     O10408   2.081   1.726  10.709  0.2386  0.0872  0.3246
  801MOL0     C10409   2.220   1.744  10.729  0.5564  0.2094  0.0827
  801MOL0     C10410   2.292   1.680  10.617  0.2009  0.4201  0.3887
  801MOL0     C10411   2.262   1.750  10.487 -0.0355 -0.0890  0.1970
  801MOL0     C10412   2.387   1.758  10.393 -0.1878  0.6962 -0.8839
  801MOL0     C10413   2.439   1.621  10.378  0.2478  0.5268  0.4858
  801MOL0     C10414   2.541   1.599  10.269 -0.9474  0.2222 -0.2204
  801MOL0     C10415   2.599   1.463  10.251 -0.4716  0.0346 -0.0870
  801MOL0     C10416   2.533   1.385  10.140 -0.3673  0.7631 -0.2440
  801MOL0     N10417   2.554   1.237  10.144 -1.6489  1.1682 -0.4719
  801MOL0     C10418   2.481   1.133  10.077  0.6667 -0.5472 -0.2030
  801MOL0     C10419   2.564   1.030  10.062  0.3150  0.5998 -0.2650
  801MOL0     C10420   2.533   0.906   9.990  0.6136  0.1055  0.4624
  801MOL0     C10421   2.640   0.797  10.018 -0.1380 -0.2500  0.9987
  801MOL0     C10422   2.619   0.684   9.920  0.8530 -0.3060  0.6364
  801MOL0     C10423   2.722   0.577   9.923  0.3504  0.5203  0.7667
  801MOL0     O10424   2.829   0.614   9.830  0.7383  0.4844 -0.1184
  801MOL0     C10425   2.925   0.525   9.796  0.7461  0.0199 -0.6817
  801MOL0     C10426   2.934   0.399   9.844  0.2878  0.3134  0.7485
  801MOL0     C10427   3.046   0.311   9.825  0.6376 -0.0075 -0.1105
  801MOL0     C10428   3.072   0.193   9.912 -0.1079  1.8859  0.2271
  801MOL0     C10429   3.145   0.366   9.738 -0.7029  0.0283  0.6070
  801MOL0     C10430   3.269   0.282   9.713  0.0781  0.5361 -0.4003
  801MOL0     O10431   3.385   0.348   9.689 -0.0426  0.0839 -0.1222
  801MOL0     C10432   3.483   0.285   9.619 -0.9400 -0.0283 -0.4020
  801MOL0     C10433   3.535   0.348   9.504  0.3574 -0.3704  0.0007
  801MOL0     C10434   3.635   0.290   9.427  0.2411 -0.5036 -0.6406
  801MOL0     C10435   3.693   0.164   9.464  0.1082  0.4226  0.3151
  801MOL0     O10436   3.797   0.101   9.408  0.2379  0.3080 -0.5842
  801MOL0     C10437   3.865   0.155   9.298 -0.0585 -0.0079  0.0644
  801MOL0     C10438   3.823   0.092   9.165  0.5355  0.1205 -0.4822
  801MOL0     C10439   3.853  -0.050   9.129 -0.8254 -0.2939 -0.7858
  801MOL0     C10440   3.926  -0.056   8.991 -0.8333  0.0582  0.7816
  801MOL0     C10441   3.954  -0.202   8.942 -0.7479  0.9553  0.4392
  801MOL0     C10442   4.037  -0.207   8.814  0.2575 -0.5674 -0.4219
  801MOL0     C10443   4.177  -0.164   8.830 -0.3965  0.8437  0.3248
  801MOL0     C10444   4.248  -0.171   8.701  0.0705  0.1364  0.1064
  801MOL0    Cl10445   4.247  -0.010   8.614 -0.1489 -0.4978 -0.1517
  801MOL0     C10446   3.637   0.097   9.572 -0.2672  0.2351  0.1753
  801MOL0     C10447   3.537   0.155   9.656 -0.2936  0.5070  0.6065
  801MOL0     O10448   3.246   0.158   9.698  0.6645  0.1111  0.8340
  801MOL0     C10449   3.137   0.492   9.684 -0.0205 -0.5719 -0.0895
  801MOL0     C10450   3.025   0.571   9.717 -0.3774  0.2709 -0.7609
  801MOL0     N10451   2.679   1.051  10.129  1.0615 -0.1773  1.0816
  801MOL0     N10452   2.669   1.168  10.178 -0.1840  0.6936 -0.2527
  801MOL0     C10453   1.865   1.819  10.716  0.1091  0.3872 -0.6511
  801MOL0     C10454   1.773   1.904  10.780 -0.6943  0.2383 -1.2827
  801MOL0     C10455   1.618   2.229  11.050  0.0299  0.7739 -0.3631
  801MOL0     C10456   1.494   2.179  11.073  0.4151  0.4666 -0.5409
  801MOL0     C10457   1.404   2.251  11.141  0.9187 -0.5035 -0.7677
  801MOL0     C10458   1.437   2.373  11.206  0.6904 -0.4525 -0.4495
  801MOL0     O10459   1.339   2.438  11.276 -0.7931  0.2666 -0.5190
  801MOL0     C10460   1.365   2.562  11.342 -0.4686 -0.5570 -0.1661
  801MOL0     C10461   1.237   2.594  11.419  0.3411  0.8997 -0.1449
  801MOL0     C10462   1.127   2.600  11.318 -0.5622  0.1795 -0.6406
  801MOL0     C10463   0.993   2.654  11.393 -1.0896  0.1497 -0.0113
  801MOL0     C10464   0.999   2.798  11.387  0.7898  0.3495 -0.3836
  801MOL0     C10465   1.007   2.913  11.356  0.0151 -0.2331 -0.1104
  801MOL0     C10466   1.562   2.423  11.176  0.0311 -0.6286 -0.6471
  801MOL0     C10467   1.654   2.353  11.104 -0.1961 -0.9572 -1.0000
  801MOL0     C10468   1.787   2.420  11.093 -0.1900 -0.0055 -0.2399
  801MOL0     H10469   1.942   1.935  11.078  2.3665 -0.0393 -0.8796
  801MOL0     H10470   2.092   1.796  10.976 -0.5996 -0.3591  0.6453
  801MOL0     H10471   2.262   1.692  10.816 -0.2958 -2.0113 -0.7469
  801MOL0     H10472   2.239   1.850  10.744  1.8465  0.0371 -0.2407
  801MOL0     H10473   2.400   1.695  10.630  0.6076  1.8729 -3.4945
  801MOL0     H10474   2.269   1.573  10.613  1.5622  0.1382 -0.5888
  801MOL0     H10475   2.186   1.690  10.436 -1.7289  0.0626  2.3496
  801MOL0     H10476   2.219   1.849  10.503 -1.1109 -0.5199  0.0738
  801MOL0     H10477   2.353   1.799  10.297 -2.6252 -2.2101 -1.4211
  801MOL0     H10478   2.468   1.823  10.428  0.2071 -0.7000  0.9399
  801MOL0     H10479   2.367   1.541  10.360  0.4964  0.6559 -1.2783
  801MOL0     H10480   2.493   1.592  10.469  0.3230 -0.4075  0.1526
  801MOL0     H10481   2.497   1.640  10.178  1.8597  3.6129 -0.2571
  801MOL0     H10482   2.627   1.664  10.288  0.0983 -0.3683 -2.6363
  801MOL0     H10483   2.601   1.405  10.344 -1.1852 -0.0339 -0.1095
  801MOL0     H10484   2.699   1.475  10.210  0.7553 -1.9337  2.0327
  801MOL0     H10485   2.425   1.401  10.146 -0.3822  0.1644  3.0954
  801MOL0     H10486   2.570   1.437  10.051  0.7815 -0.1863 -0.3435
  801MOL0     H10487   2.378   1.142  10.044  1.3517 -0.0330 -2.3355
  801MOL0     H10488   2.531   0.929   9.883 -0.0007 -2.0040 -0.0180
  801MOL0     H10489   2.433   0.871  10.016 -0.1031  1.7131 -0.0398
  801MOL0     H10490   2.741   0.835  10.001 -0.0694 -1.0073 -0.3763
  801MOL0     H10491   2.630   0.759  10.120 -1.2325 -4.0244 -0.3731
  801MOL0     H10492   2.526   0.641   9.959  1.6072 -1.2083  1.5120
  801MOL0     H10493   2.618   0.715   9.815  2.2294 -2.6163 -0.1414
  801MOL0     H10494   2.772   0.561  10.019 -0.7395  1.7468  1.5675
  801MOL0     H10495   2.677   0.484   9.886  1.3557 -0.1127  1.1056
  801MOL0     H10496   2.854   0.350   9.898  1.4204 -2.4205  0.1560
  801MOL0     H10497   3.052   0.098   9.862  0.0440  2.5811 -1.2131
  801MOL0     H10498   3.020   0.202  10.008  1.6713  2.5955  1.1690
  801MOL0     H10499   3.178   0.194   9.941 -0.7922  0.3363  3.1476
  801MOL0     H10500   3.497   0.440   9.461 -1.2896 -2.1725 -2.6805
  801MOL0     H10501   3.670   0.345   9.340  0.1015  0.6804  0.0296
  801MOL0     H10502   3.856   0.262   9.281 -1.0079 -0.2815 -1.3396
  801MOL0     H10503   3.972   0.141   9.320 -0.0355 -2.7802 -1.3678
  801MOL0     H10504   3.715   0.105   9.165  0.1693 -0.7826  4.4754
  801MOL0     H10505   3.865   0.165   9.096  1.8708  2.8364  2.9219
  801MOL0     H10506   3.760  -0.106   9.120 -1.2352  0.0818  0.7254
  801MOL0     H10507   3.916  -0.101   9.204 -0.7185 -2.2956 -2.1615
  801MOL0     H10508   4.019   0.001   8.998 -1.5524  1.2251  1.0213
  801MOL0     H10509   3.863  -0.009   8.915 -0.0557  0.6354  0.4836
  801MOL0     H10510   4.005  -0.258   9.021  2.4221 -1.0033 -2.6920
  801MOL0     H10511   3.859  -0.252   8.923  0.0872  0.2146 -2.2264
  801MOL0     H10512   3.989  -0.151   8.734  2.3460  1.0866 -0.6201
  801MOL0     H10513   4.034  -0.311   8.780 -3.0291 -1.2525  1.5640
  801MOL0     H10514   4.222  -0.232   8.903 -1.4290 -3.0861 -2.3929
  801MOL0     H10515   4.175  -0.063   8.873 -2.0153  1.4633 -1.0802
  801MOL0     H10516   4.192  -0.240   8.637 -1.2668 -0.1117  1.4663
  801MOL0     H10517   4.352  -0.199   8.715  1.1066  3.7206  0.4996
  801MOL0     H10518   3.661  -0.006   9.596 -2.5548  0.1214  2.3106
  801MOL0     H10519   3.499   0.090   9.733 -2.1916  1.5864  0.6432
  801MOL0     H10520   3.206   0.538   9.614 -1.6487  1.7933 -0.2617
  801MOL0     H10521   3.021   0.678   9.698  0.9638  0.5430  0.3950
  801MOL0     H10522   1.843   1.782  10.616 -1.1757  0.0466 -0.2530
  801MOL0     H10523   1.673   1.923  10.744 -2.3270  1.4363  3.2435
  801MOL0     H10524   1.468   2.084  11.028 -1.2017 -1.3913  3.8190
  801MOL0     H10525   1.312   2.197  11.163 -0.0333  0.5749 -1.9576
  801MOL0     H10526   1.452   2.551  11.408 -0.9145 -2.2557  0.1888
  801MOL0     H10527   1.384   2.637  11.264 -0.0600 -1.1906 -0.6841
  801MOL0     H10528   1.239   2.694  11.464 -1.2098 -0.2286  2.6498
  801MOL0     H10529   1.214   2.523  11.498  1.8857 -0.3332 -0.7620
  801MOL0     H10530   1.143   2.652  11.223  1.1592 -0.1583 -0.5580
  801MOL0     H10531   1.107   2.495  11.298 -1.1679 -0.0326  0.8932
  801MOL0     H10532   0.988   2.617  11.496 -0.6900  1.3218  0.4508
  801MOL0     H10533   0.904   2.624  11.337 -1.5352  0.9218  0.2716
  801MOL0     H10534   1.000   3.012  11.315  0.2669  0.6499  1.8660
  801MOL0     H10535   1.592   2.524  11.200  3.1846 -1.1216 -2.0304
  801MOL0     H10536   1.771   2.527  11.110  2.0112 -0.1733  4.6143
  801MOL0     H10537   1.859   2.391  11.171 -0.8296 -4.4998 -1.0903
  801MOL0     H10538   1.840   2.402  10.999  3.2053 -0.3004  1.5639
  802MOL0     O10539   5.189   0.067   9.603 -0.2749 -0.4367  0.5668
  802MOL0     C10540   5.095  -0.017   9.595 -1.1184  0.2621 -0.2174
  802MOL0     O10541   5.059  -0.093   9.700  0.5304  0.3485  0.3775
  802MOL0     C10542   5.141  -0.126   9.799 -0.3971 -0.2133  0.2457
  802MOL0     C10543   5.125  -0.257   9.852  0.0335  0.2457  0.2677
  802MOL0     C10544   5.178  -0.295   9.972  0.3481  0.4193  0.6687
  802MOL0     C10545   5.258  -0.207  10.039 -0.1550 -0.2227 -0.0307
  802MOL0     O10546   5.323  -0.240  10.158 -0.4783  0.0880 -0.1186
  802MOL0     C10547   5.244  -0.323  10.243 -0.2069  0.1927  1.1883
  802MOL0     C10548   5.289  -0.334  10.383  0.6739 -0.0706  0.4633
  802MOL0     C10549   5.246  -0.220  10.472  0.0891 -0.5992 -0.0230
  802MOL0     C10550   5.313  -0.081  10.428  0.0944  0.7734 -0.4468
  802MOL0     C10551   5.291   0.027  10.542  0.2087 -0.0630 -0.6520
  802MOL0     C10552   5.155   0.086  10.534 -0.0036  0.1061  0.3834
  802MOL0     C10553   5.081   0.102  10.655  0.1767  0.2269  0.7943
  802MOL0     C10554   4.946   0.170  10.611  0.4349  0.1834  0.2275
  802MOL0     N10555   4.861   0.177  10.726  1.8202 -0.5147 -0.1554
  802MOL0     C10556   4.822   0.295  10.785  0.9108  0.3634 -0.1084
  802MOL0     C10557   4.723   0.252  10.869  0.0254 -0.5694  0.6051
  802MOL0     C10558   4.630   0.332  10.968 -0.2723  0.2886  0.1264
  802MOL0     C10559   4.555   0.446  10.893  0.5415 -0.1979  0.9874
  802MOL0     C10560   4.459   0.529  10.985  0.1620 -0.5881  0.4593
  802MOL0     C10561   4.406   0.647  10.901 -0.3716 -0.1992 -0.7378
  802MOL0     O10562   4.350   0.738  10.991  0.1336 -0.5383 -0.0553
  802MOL0     C10563   4.368   0.871  10.960  0.6659  0.4395 -0.0097
  802MOL0     C10564   4.255   0.935  10.913  0.4512 -0.5421  0.2032
  802MOL0     C10565   4.249   1.078  10.904  0.8537 -0.0067  1.1324
  802MOL0     C10566   4.121   1.147  10.908 -0.4023 -0.1418  0.4368
  802MOL0     C10567   4.374   1.152  10.909 -0.3584 -0.0265 -0.0471
  802MOL0     C10568   4.394   1.283  10.843  0.4986 -0.0542  0.1714
  802MOL0     O10569   4.283   1.350  10.796 -0.7384 -0.1750 -0.5072
  802MOL0     C10570   4.309   1.470  10.734 -0.0076  0.6231 -0.4704
  802MOL0     C10571   4.278   1.581  10.819 -0.4064  0.0913  1.2221
  802MOL0     C10572   4.288   1.707  10.761 -0.3875 -0.3133 -0.1057
  802MOL0     C10573   4.334   1.730  10.634  0.2127  0.0118  0.8202
  802MOL0     O10574   4.349   1.864  10.602  0.2606  0.1427 -0.4745
  802MOL0     C10575   4.336   1.878  10.461 -0.1741  0.2844  0.9087
  802MOL0     C10576   4.346   2.022  10.419  0.5211  0.6661 -0.3203
  802MOL0     C10577   4.478   2.095  10.458 -0.2838  0.6208 -0.6692
  802MOL0     C10578   4.510   2.200  10.361 -0.6973  0.6649  0.4644
  802MOL0     C10579   4.412   2.317  10.346 -0.2435 -0.8444 -0.0671
  802MOL0     C10580   4.412   2.410  10.468 -0.3635  1.1040  0.1349
  802MOL0     C10581   4.544   2.490  10.498  1.0272 -0.1747  0.0641
  802MOL0     C10582   4.624   2.436  10.612 -0.8520  0.3742 -0.6192
  802MOL0    Cl10583   4.767   2.549  10.632 -0.0658 -0.6712  0.1733
  802MOL0     C10584   4.369   1.621  10.552  0.8932  0.1463  0.3825
  802MOL0     C10585   4.347   1.494  10.603  0.1286  0.0478  0.0005
  802MOL0     O10586   4.507   1.335  10.837  0.1786  0.3847  0.0886
  802MOL0     C10587   4.488   1.079  10.946 -0.2947 -0.9545 -0.5811
  802MOL0     C10588   4.479   0.946  10.971  0.7048 -0.3273 -0.8557
  802MOL0     N10589   4.696   0.117  10.854 -0.8949  0.5503 -0.4715
  802MOL0     N10590   4.793   0.075  10.776 -0.2805 -0.0783 -0.5890
  802MOL0     C10591   5.287  -0.080   9.988 -0.2877 -0.7505 -0.1345
  802MOL0     C10592   5.229  -0.037   9.875 -0.9737  0.5076 -0.1231
  802MOL0     C10593   5.023  -0.018   9.465 -1.2682 -0.2026 -0.7819
  802MOL0     C10594   5.082   0.038   9.352  0.5637 -0.0549  0.4441
  802MOL0     C10595   5.037   0.025   9.222 -0.5853 -0.6041 -0.8713
  802MOL0     C10596   4.913  -0.048   9.211 -0.4928  0.0207 -0.1889
  802MOL0     O10597   4.844  -0.065   9.091 -0.2008 -0.1325 -0.0224
  802MOL0     C10598   4.910  -0.041   8.966 -0.1970 -0.7686  0.5350
  802MOL0     C10599   4.999  -0.169   8.939 -0.6246 -0.6469  0.4311
  802MOL0     C10600   5.105  -0.142   8.833  0.8796  1.0303 -0.2777
  802MOL0     C10601   5.052  -0.101   8.699 -0.3538 -0.5099  0.1752
  802MOL0     C10602   5.159  -0.101   8.596  0.0510  0.3995 -0.5619
  802MOL0     C10603   5.258  -0.100   8.530 -0.5979 -0.2169 -0.2247
  802MOL0     C10604   4.850  -0.091   9.320  0.2276  0.9855  0.1097
  802MOL0     C10605   4.905  -0.081   9.446  0.8340  0.4280  0.2948
  802MOL0     C10606   4.818  -0.137   9.558 -0.5945 -0.1551  0.5501
  802MOL0     H10607   5.060  -0.327   9.801  2.0697 -1.6428  0.1407
  802MOL0     H10608   5.138  -0.390  10.006 -3.0361  0.9706 -1.3443
  802MOL0     H10609   5.260  -0.418  10.192 -0.0596  1.5393 -1.4671
  802MOL0     H10610   5.139  -0.291  10.233 -0.5619 -1.2271  0.0713
  802MOL0     H10611   5.257  -0.427  10.432  1.5763 -0.7250 -0.1575
  802MOL0     H10612   5.397  -0.347  10.375  0.3484 -2.0226 -1.7118
  802MOL0     H10613   5.138  -0.206  10.478 -0.1456 -0.5217 -2.7796
  802MOL0     H10614   5.262  -0.235  10.579 -5.2271  0.4790  1.2037
  802MOL0     H10615   5.418  -0.110  10.421 -1.1330 -4.5550 -1.5731
  802MOL0     H10616   5.281  -0.036  10.334 -1.0504  0.7923 -0.0633
  802MOL0     H10617   5.369   0.103  10.529  1.4248 -1.5813 -2.8042
  802MOL0     H10618   5.306  -0.033  10.632  1.3729  0.0052 -0.7808
  802MOL0     H10619   5.167   0.178  10.475  2.4519 -0.1004  0.4306
  802MOL0     H10620   5.101   0.008  10.481 -1.6442  1.0897  0.5256
  802MOL0     H10621   5.141   0.161  10.724 -1.0157  2.0844  0.3103
  802MOL0     H10622   5.060   0.007  10.705 -0.3193 -0.2494 -0.2701
  802MOL0     H10623   4.978   0.266  10.567  0.5514  0.4418  0.8618
  802MOL0     H10624   4.895   0.109  10.536  2.1568  0.1689 -1.0083
  802MOL0     H10625   4.854   0.396  10.762 -1.6732  1.6910  1.5808
  802MOL0     H10626   4.689   0.378  11.048 -0.0255  1.6793 -0.8335
  802MOL0     H10627   4.553   0.270  11.017  0.3022 -1.8656 -1.5610
  802MOL0     H10628   4.641   0.501  10.854  0.6845 -1.0886  0.0079
  802MOL0     H10629   4.510   0.403  10.803  1.2641 -0.2690  0.6514
  802MOL0     H10630   4.376   0.466  11.018  0.0934  1.0560  3.8116
  802MOL0     H10631   4.512   0.568  11.072  1.2024  1.4220 -0.9750
  802MOL0     H10632   4.491   0.684  10.843  1.9202 -1.1513  1.8061
  802MOL0     H10633   4.324   0.612  10.836  1.3154  2.5034 -4.7307
  802MOL0     H10634   4.164   0.879  10.895  1.2273 -1.0572 -2.7276
  802MOL0     H10635   4.070   1.170  10.814 -1.5013 -1.7586  0.6049
  802MOL0     H10636   4.129   1.245  10.957 -0.3330  1.5312 -2.6754
  802MOL0     H10637   4.048   1.080  10.953 -1.8020 -0.0418 -1.5720
  802MOL0     H10638   4.242   1.557  10.918  0.0158 -1.5247  1.0150
  802MOL0     H10639   4.263   1.788  10.829 -0.5358 -0.0398 -0.4829
  802MOL0     H10640   4.418   1.829  10.407 -1.4989 -3.3169  1.8450
  802MOL0     H10641   4.242   1.842  10.419  0.6937  0.5881 -1.4817
  802MOL0     H10642   4.317   2.037  10.315 -1.1264  0.9924  0.1593
  802MOL0     H10643   4.266   2.077  10.468 -0.6683 -1.1779 -0.0784
  802MOL0     H10644   4.562   2.026  10.463  0.2215  0.8500 -3.7929
  802MOL0     H10645   4.474   2.145  10.555 -1.4485 -1.1553  0.2511
  802MOL0     H10646   4.509   2.154  10.262  1.6179 -3.5202  2.1104
  802MOL0     H10647   4.613   2.230  10.382 -0.5806  1.2393 -0.8539
  802MOL0     H10648   4.449   2.375  10.261  1.8349 -0.1858  1.2267
  802MOL0     H10649   4.308   2.287  10.332 -0.3239  0.2628 -2.4121
  802MOL0     H10650   4.383   2.358  10.559 -0.6253 -0.6534 -0.8968
  802MOL0     H10651   4.344   2.494  10.453  0.3846  1.6315 -0.4061
  802MOL0     H10652   4.510   2.589  10.532 -1.2145 -1.2169  1.0829
  802MOL0     H10653   4.601   2.486  10.405  1.1623 -3.3590  0.1918
  802MOL0     H10654   4.667   2.336  10.597 -4.2706 -0.8293 -3.8546
  802MOL0     H10655   4.569   2.441  10.706  0.4663  1.1337  0.1558
  802MOL0     H10656   4.410   1.622  10.451 -1.5979  2.1624 -0.7356
  802MOL0     H10657   4.374   1.415  10.533  2.3113  0.8772 -0.1660
  802MOL0     H10658   4.577   1.138  10.966 -2.4233  2.8826 -1.5587
  802MOL0     H10659   4.568   0.897  11.011  0.0388  0.0013  1.1754
  802MOL0     H10660   5.365  -0.025  10.040 -0.0092 -0.8756 -0.4232
  802MOL0     H10661   5.253   0.066   9.851 -0.3029  0.7944  1.5984
  802MOL0     H10662   5.170   0.099   9.368  1.8661 -1.9442  0.8144
  802MOL0     H10663   5.094   0.054   9.134 -1.1232  0.8692 -0.7680
  802MOL0     H10664   4.840  -0.038   8.882 -0.8472 -1.8028  1.0139
  802MOL0     H10665   4.984   0.038   8.959  1.8093 -2.5582  0.6100
  802MOL0     H10666   4.936  -0.252   8.907 -3.5255  2.5537 -3.1263
  802MOL0     H10667   5.061  -0.201   9.024  0.5856 -1.7295 -0.7975
  802MOL0     H10668   5.178  -0.073   8.875  2.3110 -1.4513  1.5838
  802MOL0     H10669   5.145  -0.243   8.820  2.6200  1.5785  0.6232
  802MOL0     H10670   4.994  -0.009   8.706 -0.9841 -0.9369  0.6510
  802MOL0     H10671   4.975  -0.172   8.667 -1.2747 -0.6663  2.4916
  802MOL0     H10672   5.355  -0.090   8.485 -0.6025  3.2595  0.2794
  802MOL0     H10673   4.756  -0.144   9.312  0.7519  0.1463 -0.6598
  802MOL0     H10674   4.749  -0.059   9.591 -1.6693 -0.0266 -1.7509
  802MOL0     H10675   4.749  -0.210   9.512 -1.1451  0.2527  0.7155
  802MOL0     H10676   4.859  -0.192   9.643 -1.1221 -0.1145  0.8396
  803MOL0     O10677   9.380   7.574   9.090 -0.0047 -0.9191  0.3179
  803MOL0     C10678   9.435   7.660   9.163 -0.2464  1.5132  0.5506
  803MOL0     O10679   9.430   7.790   9.141 -0.4589 -0.4385 -0.1142
  803MOL0     C10680   9.339   7.827   9.043  0.3916  0.5884  0.6578
  803MOL0     C10681   9.210   7.848   9.081 -0.3492 -0.1797  0.3043
  803MOL0     C10682   9.106   7.880   8.996 -1.1822 -0.2488 -0.1043
  803MOL0     C10683   9.140   7.889   8.853 -0.0636 -0.5927  0.3945
  803MOL0     O10684   9.043   7.926   8.764  0.0802 -0.2104 -0.0816
  803MOL0     C10685   9.040   7.846   8.645  0.7898 -0.2918 -0.3672
  803MOL0     C10686   8.927   7.882   8.554  0.2652  0.2766 -0.3663
  803MOL0     C10687   8.937   8.028   8.507  0.2768 -0.0969 -0.0505
  803MOL0     C10688   8.811   8.064   8.422 -0.2703  1.0322 -1.0210
  803MOL0     C10689   8.820   8.202   8.366  0.1464  0.4919 -0.8271
  803MOL0     C10690   8.711   8.241   8.271  0.2884  0.6159 -0.8756
  803MOL0     C10691   8.727   8.387   8.221  0.3961 -0.1122  0.6964
  803MOL0     C10692   8.625   8.395   8.106 -0.0478  0.0669  0.0300
  803MOL0     N10693   8.644   8.302   8.002  0.1567 -0.9633 -0.1554
  803MOL0     C10694   8.762   8.282   7.934 -0.3533  0.7124  0.1484
  803MOL0     C10695   8.722   8.197   7.828  0.6041 -0.0920  0.8689
  803MOL0     C10696   8.814   8.157   7.705  0.2424  0.4711 -0.0908
  803MOL0     C10697   8.790   8.232   7.573 -0.6276 -0.6867  0.2052
  803MOL0     C10698   8.767   8.387   7.589 -0.2257  0.0105 -0.1037
  803MOL0     C10699   8.901   8.460   7.612 -0.2409  0.2999  0.4594
  803MOL0     O10700   9.007   8.457   7.515 -0.2168 -0.5151 -0.1052
  803MOL0     C10701   8.974   8.529   7.391 -0.1490 -0.4230 -0.1557
  803MOL0     C10702   8.913   8.457   7.292 -0.4924  0.0406 -0.1998
  803MOL0     C10703   8.895   8.513   7.165  0.3527  0.5425 -0.3121
  803MOL0     C10704   8.848   8.407   7.068  0.1025 -0.3630 -0.1942
  803MOL0     C10705   8.945   8.638   7.143 -0.1561 -0.2959  0.3701
  803MOL0     C10706   8.949   8.687   7.006 -0.9176 -0.6169  0.6110
  803MOL0     O10707   9.058   8.763   6.965  0.2505  0.1554 -0.5317
  803MOL0     C10708   9.076   8.807   6.837  0.9536 -0.4921 -0.0100
  803MOL0     C10709   8.981   8.880   6.763  0.3863  0.9420 -0.1086
  803MOL0     C10710   9.006   8.931   6.645  0.3649  0.0843  0.2724
  803MOL0     C10711   9.135   8.928   6.584  0.2593 -0.0934 -0.2550
  803MOL0     O10712   9.173   8.989   6.470  0.5433 -0.4762  0.5716
  803MOL0     C10713   9.072   9.042   6.382  0.3380 -0.4854  0.5422
  803MOL0     C10714   9.016   9.178   6.396  0.3699 -0.9254 -1.1156
  803MOL0     C10715   9.097   9.268   6.501 -0.4828 -0.3546 -0.0451
  803MOL0     C10716   9.070   9.415   6.506  0.2334 -0.8682  0.8912
  803MOL0     C10717   9.195   9.516   6.491  1.3179 -0.3839  0.1560
  803MOL0     C10718   9.159   9.672   6.486 -1.1656  0.0801 -0.8870
  803MOL0     C10719   9.152   9.746   6.626  0.1544 -0.3395  0.5466
  803MOL0     C10720   9.294   9.775   6.674  0.6398  0.0068  0.0222
  803MOL0    Cl10721   9.358   9.910   6.589  0.0633 -0.0488  0.2193
  803MOL0     C10722   9.237   8.857   6.657  0.1474  0.3666  0.1150
  803MOL0     C10723   9.202   8.800   6.780 -1.2820  0.1678 -0.6755
  803MOL0     O10724   8.855   8.660   6.925 -0.2986 -0.3426  0.2047
  803MOL0     C10725   9.003   8.717   7.246 -0.0883  0.1112 -0.0191
  803MOL0     C10726   9.022   8.658   7.373  0.6446 -1.4110  0.3944
  803MOL0     N10727   8.591   8.164   7.834  0.2901  0.0052 -1.2035
  803MOL0     N10728   8.541   8.234   7.943 -1.1189  0.3933  0.2125
  803MOL0     C10729   9.273   7.870   8.814 -0.2919  0.0032  0.0662
  803MOL0     C10730   9.371   7.833   8.908 -0.6485 -0.2100  0.1695
  803MOL0     C10731   9.524   7.618   9.273 -0.2363  0.1914  0.1104
  803MOL0     C10732   9.514   7.492   9.314 -0.3149  0.2303 -0.1959
  803MOL0     C10733   9.609   7.433   9.405  0.3241  0.0355 -0.3439
  803MOL0     C10734   9.717   7.502   9.457  0.1241  0.0127 -0.3489
  803MOL0     O10735   9.791   7.437   9.550  0.0472  0.2097 -0.6931
  803MOL0     C10736   9.824   7.518   9.666  0.0929  0.5092 -0.5596
  803MOL0     C10737   9.974   7.541   9.674  0.2134 -0.0922 -0.3794
  803MOL0     C10738  10.045   7.402   9.701 -0.4887 -0.9104 -0.0865
  803MOL0     C10739  10.204   7.417   9.727  0.6837 -0.0082 -1.2858
  803MOL0     C10740  10.240   7.431   9.871  0.1372 -0.5351 -0.2550
  803MOL0     C10741  10.267   7.434   9.989  0.2622 -0.6409  0.3268
  803MOL0     C10742   9.732   7.635   9.422  1.0222 -0.1552  0.0967
  803MOL0     C10743   9.640   7.693   9.326 -0.2354 -0.1828 -0.1900
  803MOL0     C10744   9.670   7.836   9.294  0.6939  0.0154  1.0807
  803MOL0     H10745   9.188   7.830   9.186 -1.4705 -1.4648 -0.1346
  803MOL0     H10746   9.002   7.895   9.025 -0.4541  0.1186  2.6272
  803MOL0     H10747   9.036   7.740   8.672 -1.2937 -0.0990  0.2686
  803MOL0     H10748   9.130   7.863   8.585  0.1377  2.2143 -0.7182
  803MOL0     H10749   8.916   7.820   8.465 -0.3954 -1.9465  1.1846
  803MOL0     H10750   8.840   7.882   8.621 -1.6051 -0.8148 -2.6207
  803MOL0     H10751   8.934   8.090   8.597 -2.7902 -1.0853  0.6528
  803MOL0     H10752   9.026   8.032   8.443 -0.3549 -1.4913 -1.0788
  803MOL0     H10753   8.802   7.989   8.343  0.1798 -0.5877  0.3973
  803MOL0     H10754   8.720   8.059   8.482 -0.6517  2.2451 -1.4627
  803MOL0     H10755   8.910   8.218   8.306  1.2520 -1.3118  0.2688
  803MOL0     H10756   8.823   8.278   8.444  1.6098 -1.7332  1.4329
  803MOL0     H10757   8.725   8.167   8.191  1.1215  0.2618 -0.4135
  803MOL0     H10758   8.616   8.215   8.319  0.6939 -0.6514 -0.7292
  803MOL0     H10759   8.829   8.405   8.187  0.1264  2.7044  1.1733
  803MOL0     H10760   8.706   8.458   8.301 -1.2464 -1.8844  1.9408
  803MOL0     H10761   8.530   8.381   8.159 -0.4037 -0.2372 -0.6809
  803MOL0     H10762   8.632   8.496   8.065 -0.2388  0.4152  0.8364
  803MOL0     H10763   8.864   8.318   7.944  0.3741 -0.7503 -1.4196
  803MOL0     H10764   8.798   8.049   7.699 -2.2200  0.7867  0.1162
  803MOL0     H10765   8.919   8.176   7.730  0.3629 -0.5022  0.2149
  803MOL0     H10766   8.865   8.209   7.497  1.9491  0.5131  2.2485
  803MOL0     H10767   8.694   8.197   7.533 -1.4645  2.1637 -0.5187
  803MOL0     H10768   8.703   8.420   7.506 -0.0230 -0.4141 -0.4327
  803MOL0     H10769   8.707   8.404   7.678 -1.1208 -0.8464 -0.5153
  803MOL0     H10770   8.881   8.565   7.637 -3.8293  0.4153 -2.0336
  803MOL0     H10771   8.942   8.410   7.700  0.6448 -3.0632 -1.6563
  803MOL0     H10772   8.871   8.363   7.326 -1.8514  1.2392  1.6135
  803MOL0     H10773   8.873   8.308   7.105  2.1772  0.0312 -0.4157
  803MOL0     H10774   8.906   8.415   6.975  3.4127 -1.5955  1.5941
  803MOL0     H10775   8.743   8.420   7.040  0.4035  0.7008 -0.9077
  803MOL0     H10776   8.881   8.887   6.804 -0.3778 -0.4817 -1.5749
  803MOL0     H10777   8.922   8.980   6.597  0.7749 -0.4518 -1.0215
  803MOL0     H10778   9.113   9.033   6.281  4.1085  0.4032  1.8339
  803MOL0     H10779   8.983   8.980   6.399 -0.2914  0.5078  0.9309
  803MOL0     H10780   9.016   9.226   6.298 -4.1523 -1.1758 -1.4369
  803MOL0     H10781   8.910   9.184   6.421  0.4235  0.4264 -1.1479
  803MOL0     H10782   9.201   9.256   6.470  0.0994  3.3490  0.0792
  803MOL0     H10783   9.085   9.230   6.603 -1.1255  5.8887  2.6702
  803MOL0     H10784   9.030   9.435   6.606  1.8713 -0.0510  1.4110
  803MOL0     H10785   8.983   9.433   6.441  1.3761 -0.6193 -0.6126
  803MOL0     H10786   9.282   9.507   6.557  2.3450 -2.0138 -1.3577
  803MOL0     H10787   9.232   9.500   6.389 -0.2647  3.0471 -1.1228
  803MOL0     H10788   9.064   9.686   6.434 -3.1960 -1.4747  2.1114
  803MOL0     H10789   9.243   9.717   6.433  1.5830 -2.6005  0.8471
  803MOL0     H10790   9.096   9.688   6.700 -2.4007  1.7106  0.3451
  803MOL0     H10791   9.104   9.843   6.614 -0.4152 -0.8682 -2.1595
  803MOL0     H10792   9.370   9.696   6.671  0.9619  0.3228 -0.2767
  803MOL0     H10793   9.299   9.802   6.780  1.5094  1.0001 -0.2541
  803MOL0     H10794   9.340   8.869   6.625  0.6129 -0.1863  1.3584
  803MOL0     H10795   9.273   8.755   6.849 -2.7393  1.0815  1.5656
  803MOL0     H10796   9.039   8.818   7.225  1.6091 -0.7707 -1.6161
  803MOL0     H10797   9.072   8.711   7.454  0.1959  1.9333 -1.3131
  803MOL0     H10798   9.299   7.871   8.708 -0.1564  1.6977  0.0864
  803MOL0     H10799   9.474   7.812   8.881 -0.1327  1.6310  0.5426
  803MOL0     H10800   9.432   7.428   9.283 -1.3224 -0.7066  3.7953
  803MOL0     H10801   9.589   7.333   9.443  0.3506 -0.5318 -1.7655
  803MOL0     H10802   9.779   7.618   9.661 -1.4116 -0.0487  0.9052
  803MOL0     H10803   9.782   7.464   9.751 -0.8522 -2.6966 -2.8611
  803MOL0     H10804   9.999   7.614   9.752 -1.3290  1.4440 -1.2771
  803MOL0     H10805  10.004   7.581   9.577 -2.2383 -1.6685 -1.8874
  803MOL0     H10806  10.007   7.355   9.792  0.7944 -4.6133 -1.2687
  803MOL0     H10807  10.028   7.343   9.610 -4.0553 -0.1019 -0.1040
  803MOL0     H10808  10.235   7.508   9.674 -2.0804  1.0094 -1.3042
  803MOL0     H10809  10.267   7.339   9.683  1.2606  1.1562 -2.6069
  803MOL0     H10810  10.273   7.440  10.095 -2.6908 -0.6649  0.5797
  803MOL0     H10811   9.808   7.695   9.471 -0.5994  0.1657  2.3775
  803MOL0     H10812   9.584   7.896   9.321  0.9222  0.0081  1.8462
  803MOL0     H10813   9.765   7.876   9.332  1.3646 -0.7282  0.2505
  803MOL0     H10814   9.675   7.826   9.185  0.9657  0.3890  1.0569
  804MOL0     O10815   3.471   9.909   3.120  0.8328 -0.2017 -0.7368
  804MOL0     C10816   3.497   9.796   3.157 -0.2148  0.0172  0.1614
  804MOL0     O10817   3.425   9.684   3.115 -0.1862 -0.3470 -0.5305
  804MOL0     C10818   3.320   9.706   3.025 -0.1344 -0.7503 -0.2343
  804MOL0     C10819   3.226   9.808   3.022 -0.6554 -0.3283 -0.4578
  804MOL0     C10820   3.125   9.815   2.927  0.5086 -0.3513 -0.8385
  804MOL0     C10821   3.091   9.708   2.847 -1.0111 -0.1535 -0.4947
  804MOL0     O10822   2.980   9.708   2.773 -0.3298  0.8344 -0.1603
  804MOL0     C10823   2.867   9.788   2.804  0.3416 -1.0602  1.4445
  804MOL0     C10824   2.796   9.865   2.685  0.4700  0.0688 -0.2124
  804MOL0     C10825   2.906   9.914   2.593 -0.6536  0.2445 -0.0925
  804MOL0     C10826   2.880  10.036   2.518 -0.1594  0.6352  0.0908
  804MOL0     C10827   2.903  10.155   2.601 -0.2626  0.2121 -0.9865
  804MOL0     C10828   2.929  10.279   2.514  0.4282  0.5403 -0.0652
  804MOL0     C10829   2.965  10.409   2.593  0.7983 -0.0040  0.4957
  804MOL0     C10830   3.041  10.502   2.509 -0.2407 -0.5065  1.1471
  804MOL0     N10831   2.978  10.552   2.382  0.7126  0.0206 -1.1433
  804MOL0     C10832   3.005  10.522   2.251  1.0073  0.1291  0.3368
  804MOL0     C10833   2.939  10.616   2.183 -1.2051 -0.7551 -0.1061
  804MOL0     C10834   2.918  10.628   2.028  0.3650 -1.1549 -1.3127
  804MOL0     C10835   2.980  10.763   1.995  0.2153  0.5980 -0.3304
  804MOL0     C10836   3.133  10.757   1.967 -0.4840  0.4454 -0.3016
  804MOL0     C10837   3.182  10.886   1.897 -0.3364  0.1967 -0.5538
  804MOL0     O10838   3.305  10.866   1.826  0.8179  0.5018 -0.1672
  804MOL0     C10839   3.367  10.965   1.763 -1.3993  0.9327 -0.0804
  804MOL0     C10840   3.367  11.100   1.803  0.1163  0.1462 -0.6203
  804MOL0     C10841   3.448  11.197   1.743 -0.5853  0.3996  1.3132
  804MOL0     C10842   3.438  11.341   1.790  0.4451  0.0292  0.0829
  804MOL0     C10843   3.539  11.148   1.646 -0.2395  0.6506  0.2147
  804MOL0     C10844   3.607  11.238   1.553  0.0541  0.1986  0.3149
  804MOL0     O10845   3.725  11.190   1.500 -0.0833  0.4027  0.4818
  804MOL0     C10846   3.800  11.274   1.415 -0.3174 -0.2090  0.8648
  804MOL0     C10847   3.837  11.232   1.284  0.3436  0.0971  1.0891
  804MOL0     C10848   3.899  11.319   1.198 -0.2281  0.2627 -0.2713
  804MOL0     C10849   3.928  11.446   1.235 -0.2210 -0.7099  0.5654
  804MOL0     O10850   3.977  11.520   1.134 -0.3337 -0.0486 -0.0987
  804MOL0     C10851   3.925  11.650   1.109 -0.9318  0.3022  0.6561
  804MOL0     C10852   3.798  11.658   1.028  0.3185  0.4270 -0.0461
  804MOL0     C10853   3.684  11.623   1.124  0.6287 -0.4242 -0.2248
  804MOL0     C10854   3.542  11.645   1.065  0.0880  0.1605  0.7901
  804MOL0     C10855   3.486  11.791   1.077 -0.0552 -0.4692 -0.3275
  804MOL0     C10856   3.344  11.805   1.014  0.3144  0.4921 -0.4955
  804MOL0     C10857   3.273  11.938   1.033 -0.4806 -0.3788 -0.5413
  804MOL0     C10858   3.323  12.034   0.923 -0.3330 -0.1761  0.6593
  804MOL0    Cl10859   3.203  12.156   0.882 -0.0018  0.4840 -0.1904
  804MOL0     C10860   3.897  11.489   1.361  0.2356 -0.3045  1.5437
  804MOL0     C10861   3.839  11.396   1.459  0.7714 -0.8024  0.6147
  804MOL0     O10862   3.569  11.353   1.541  0.5204  0.2338 -1.0847
  804MOL0     C10863   3.539  11.011   1.607 -0.7007  0.2815 -0.9089
  804MOL0     C10864   3.445  10.921   1.666 -0.6659  0.5792  0.4174
  804MOL0     N10865   2.868  10.693   2.276 -0.1058 -0.1405  0.3052
  804MOL0     N10866   2.889  10.654   2.390 -0.3994 -0.5611 -1.3108
  804MOL0     C10867   3.184   9.606   2.845  0.1942  0.1396 -0.0632
  804MOL0     C10868   3.295   9.607   2.933 -0.3810  0.3981  0.1231
  804MOL0     C10869   3.622   9.771   3.234  0.1007  0.8441  0.7954
  804MOL0     C10870   3.632   9.651   3.312  0.9798 -0.0633  0.8193
  804MOL0     C10871   3.741   9.630   3.402  0.8179 -0.4790  0.6488
  804MOL0     C10872   3.850   9.704   3.391 -0.5466 -0.2370 -0.9331
  804MOL0     O10873   3.958   9.665   3.477  0.3762 -0.1467 -0.1236
  804MOL0     C10874   4.094   9.700   3.453 -0.6127 -1.2232 -0.3833
  804MOL0     C10875   4.208   9.667   3.553 -0.0359 -0.2894  0.8190
  804MOL0     C10876   4.195   9.525   3.605 -0.7243 -1.5679 -0.0333
  804MOL0     C10877   4.326   9.443   3.571  0.5519  0.7572 -0.1065
  804MOL0     C10878   4.412   9.453   3.694 -0.9890 -0.8084 -0.3188
  804MOL0     C10879   4.473   9.478   3.789  0.3692  0.3264 -1.1045
  804MOL0     C10880   3.842   9.823   3.314 -0.2549  0.1425  0.1861
  804MOL0     C10881   3.733   9.853   3.236  0.1419 -0.2835 -0.4459
  804MOL0     C10882   3.747   9.975   3.136  0.3365  0.0168 -0.3820
  804MOL0     H10883   3.231   9.896   3.085 -3.1748  0.5753 -1.3882
  804MOL0     H10884   3.063   9.903   2.940 -2.4670 -1.9469 -2.9214
  804MOL0     H10885   2.883   9.857   2.887 -1.1250 -0.0913  0.9560
  804MOL0     H10886   2.792   9.718   2.841 -1.5046 -0.9570 -1.7649
  804MOL0     H10887   2.736   9.791   2.631 -2.4837  4.4883 -3.7210
  804MOL0     H10888   2.729   9.948   2.709 -1.6237 -1.1565 -1.5192
  804MOL0     H10889   2.996   9.929   2.653 -0.6454 -0.3809  0.0625
  804MOL0     H10890   2.923   9.832   2.521 -1.5124  1.2856 -1.5508
  804MOL0     H10891   2.945  10.044   2.431 -0.1005 -0.4895  0.0183
  804MOL0     H10892   2.779  10.035   2.476  0.4536 -0.9494 -1.4498
  804MOL0     H10893   2.984  10.126   2.668 -0.0562  0.6408 -1.0457
  804MOL0     H10894   2.826  10.162   2.678 -0.2564 -2.2040 -0.6720
  804MOL0     H10895   3.004  10.256   2.437  0.3867 -0.1408  0.0936
  804MOL0     H10896   2.838  10.299   2.456  0.2102  0.1180  0.1319
  804MOL0     H10897   3.026  10.376   2.678 -0.4738 -1.8573  0.7426
  804MOL0     H10898   2.881  10.472   2.624  0.5991  0.6858 -1.3699
  804MOL0     H10899   3.084  10.587   2.562 -1.0276  0.1784  0.7062
  804MOL0     H10900   3.134  10.450   2.484  0.9761  1.8770  0.3919
  804MOL0     H10901   3.068  10.442   2.213 -0.8139  0.3986 -3.8448
  804MOL0     H10902   2.811  10.636   2.006  0.5553  1.4745 -1.5537
  804MOL0     H10903   2.960  10.541   1.976  2.5853 -2.4481  2.3178
  804MOL0     H10904   2.930  10.806   1.908 -1.4956  1.8787  1.2034
  804MOL0     H10905   2.966  10.846   2.065 -3.1762  2.7989 -3.2737
  804MOL0     H10906   3.185  10.739   2.061 -1.8347  0.8908  0.5617
  804MOL0     H10907   3.149  10.677   1.894  3.0892 -1.7899  2.5436
  804MOL0     H10908   3.115  10.930   1.823  0.0351  1.5305 -0.1111
  804MOL0     H10909   3.200  10.968   1.967  1.6828 -0.2014 -0.5625
  804MOL0     H10910   3.314  11.137   1.890 -1.2286 -2.1632 -0.3734
  804MOL0     H10911   3.415  11.353   1.897 -2.5557  0.9357 -0.5662
  804MOL0     H10912   3.367  11.396   1.728  0.3981 -1.0190 -0.8138
  804MOL0     H10913   3.528  11.402   1.777  0.1827  0.9906  2.2160
  804MOL0     H10914   3.833  11.126   1.258 -0.7697 -0.0195  1.6511
  804MOL0     H10915   3.934  11.276   1.105  0.8891  0.0419  0.2377
  804MOL0     H10916   3.912  11.703   1.203  2.7529 -2.1695  2.8135
  804MOL0     H10917   4.007  11.705   1.063 -1.0310  0.6216  0.8579
  804MOL0     H10918   3.788  11.759   0.988 -1.4797 -0.3686 -1.7604
  804MOL0     H10919   3.784  11.588   0.945  1.2415  0.3969 -0.1798
  804MOL0     H10920   3.686  11.686   1.214 -2.4531 -1.7067  0.8736
  804MOL0     H10921   3.700  11.519   1.153  2.0823  0.0428  0.7684
  804MOL0     H10922   3.465  11.579   1.106 -0.0194 -0.1507  0.1063
  804MOL0     H10923   3.553  11.621   0.959 -4.3416  1.0965 -0.0890
  804MOL0     H10924   3.484  11.833   1.178  1.1683  1.9535 -1.2350
  804MOL0     H10925   3.555  11.850   1.016 -0.2362 -1.4354 -1.5019
  804MOL0     H10926   3.290  11.719   1.054  2.0300 -0.8036 -0.8129
  804MOL0     H10927   3.347  11.792   0.906  0.7176 -0.6233 -0.3659
  804MOL0     H10928   3.274  11.980   1.134  0.2280 -0.6051 -0.4472
  804MOL0     H10929   3.167  11.933   1.005 -0.7557  0.0215  0.4080
  804MOL0     H10930   3.330  11.980   0.828 -1.4998  1.1373 -0.2184
  804MOL0     H10931   3.417  12.084   0.950 -2.0167  2.4908  1.9909
  804MOL0     H10932   3.925  11.587   1.396  1.5859  1.2104 -2.9906
  804MOL0     H10933   3.824  11.439   1.558 -0.1358 -0.4231  0.3202
  804MOL0     H10934   3.600  10.979   1.524 -3.6713 -2.9867 -2.0576
  804MOL0     H10935   3.438  10.819   1.630 -0.0805  1.4612 -2.5168
  804MOL0     H10936   3.178   9.519   2.780  1.6586  1.2459 -1.7774
  804MOL0     H10937   3.363   9.523   2.932  0.0858  0.3917  5.4537
  804MOL0     H10938   3.537   9.599   3.323 -0.0920  1.9372  1.5441
  804MOL0     H10939   3.739   9.544   3.468  1.2018 -0.4848  0.6546
  804MOL0     H10940   4.112   9.658   3.354  3.2475  0.9030 -0.7585
  804MOL0     H10941   4.098   9.809   3.449  1.0339 -1.1132  2.0223
  804MOL0     H10942   4.198   9.750   3.623 -2.9123  2.1641 -2.1969
  804MOL0     H10943   4.300   9.690   3.497  1.5449  0.4327  3.5377
  804MOL0     H10944   4.187   9.527   3.714  3.0780  0.8035  0.3800
  804MOL0     H10945   4.104   9.476   3.570 -1.0429 -0.4423 -0.8648
  804MOL0     H10946   4.371   9.479   3.477 -0.0734 -0.7419 -1.0166
  804MOL0     H10947   4.289   9.341   3.565  0.0543  0.8311  1.3443
  804MOL0     H10948   4.549   9.490   3.864  1.4579 -1.9250 -1.7776
  804MOL0     H10949   3.933   9.882   3.314  0.1232 -0.3897 -1.5288
  804MOL0     H10950   3.689  10.062   3.168  0.0872  1.5173 -4.3234
  804MOL0     H10951   3.851  10.003   3.118  0.0704  1.1741 -0.1579
  804MOL0     H10952   3.716   9.955   3.033  0.0686  0.7701 -0.4500
  805MOL0     O10953   1.564   6.581   6.377  0.3413 -0.5747  0.2758
  805MOL0     C10954   1.655   6.654   6.402 -0.7264 -0.7525  0.3842
  805MOL0     O10955   1.692   6.694   6.526  0.5966  0.3911 -0.2856
  805MOL0     C10956   1.594   6.706   6.615 -1.3292  0.8260  0.2170
  805MOL0     C10957   1.577   6.601   6.712 -1.0926 -0.0950 -0.1644
  805MOL0     C10958   1.485   6.611   6.812 -0.8008  0.4585  0.0946
  805MOL0     C10959   1.394   6.712   6.807  0.4903  0.7195  0.8642
  805MOL0     O10960   1.282   6.728   6.887 -0.8415  0.0149 -0.2286
  805MOL0     C10961   1.283   6.645   7.005  0.2724  0.5808  1.4103
  805MOL0     C10962   1.161   6.700   7.079  0.0098  0.3927 -0.1176
  805MOL0     C10963   1.121   6.609   7.198  0.1095 -0.0624  0.1057
  805MOL0     C10964   1.201   6.647   7.332 -0.3916  0.6892  0.3037
  805MOL0     C10965   1.158   6.546   7.440 -0.5158 -0.5185 -1.0433
  805MOL0     C10966   1.003   6.534   7.472 -0.3927 -0.4573 -0.9529
  805MOL0     C10967   0.923   6.660   7.514 -0.6995  0.5168 -0.0419
  805MOL0     C10968   0.785   6.613   7.575 -0.3797  0.3942  0.7707
  805MOL0     N10969   0.711   6.727   7.632 -0.0840  0.8084  1.2214
  805MOL0     C10970   0.651   6.841   7.562 -0.2308  0.5425 -0.2154
  805MOL0     C10971   0.615   6.925   7.661  0.4767  0.6034  0.4842
  805MOL0     C10972   0.515   7.043   7.631  0.1735 -0.2835 -0.0595
  805MOL0     C10973   0.369   7.006   7.622  0.1137  1.2049 -0.2183
  805MOL0     C10974   0.283   7.131   7.590 -0.1118 -0.5718  0.5381
  805MOL0     C10975   0.148   7.099   7.564  0.1832 -0.2217  0.6425
  805MOL0     O10976   0.123   7.006   7.458  0.3632 -0.0891  0.8648
  805MOL0     C10977  -0.001   6.950   7.452 -0.3666 -0.1783  0.0801
  805MOL0     C10978  -0.017   6.816   7.428  0.4923 -0.2628 -0.0930
  805MOL0     C10979  -0.145   6.752   7.413 -0.4640 -0.3671  0.3825
  805MOL0     C10980  -0.151   6.606   7.373 -0.1255  0.9419 -0.1491
  805MOL0     C10981  -0.259   6.824   7.445  0.6322  0.3311  0.1607
  805MOL0     C10982  -0.396   6.764   7.434 -0.3909 -0.0770  0.0197
  805MOL0     O10983  -0.502   6.848   7.426  0.5695  0.0289 -0.3007
  805MOL0     C10984  -0.629   6.802   7.448  0.8198  0.2288  0.0801
  805MOL0     C10985  -0.683   6.678   7.433  0.2005 -0.1962 -0.7343
  805MOL0     C10986  -0.816   6.640   7.455  0.1145  0.1896 -0.9023
  805MOL0     C10987  -0.901   6.733   7.496 -0.8265 -0.8037 -0.3754
  805MOL0     O10988  -1.039   6.722   7.492  0.0147 -0.0495 -0.1714
  805MOL0     C10989  -1.089   6.658   7.609 -0.3573 -0.8216  0.6796
  805MOL0     C10990  -1.191   6.550   7.583 -0.0936  0.2252 -0.0434
  805MOL0     C10991  -1.149   6.423   7.523 -0.6922  0.3714 -0.1008
  805MOL0     C10992  -1.272   6.336   7.481  0.1046 -0.3721 -1.1943
  805MOL0     C10993  -1.244   6.218   7.395 -0.7234  0.5809 -0.7061
  805MOL0     C10994  -1.171   6.113   7.472 -0.9048 -0.9851 -1.0820
  805MOL0     C10995  -1.247   6.061   7.599  0.3363 -0.2170  0.3346
  805MOL0     C10996  -1.178   5.931   7.658 -0.1836 -0.1265 -0.0261
  805MOL0    Cl10997  -1.017   5.960   7.707 -0.0605 -0.2241  0.0905
  805MOL0     C10998  -0.855   6.869   7.526 -1.3193 -0.0548  0.3319
  805MOL0     C10999  -0.718   6.903   7.507 -0.2249  0.8625  0.1804
  805MOL0     O11000  -0.406   6.645   7.445  0.5333 -0.3929 -0.3228
  805MOL0     C11001  -0.249   6.963   7.463 -0.4016 -0.2509  0.1327
  805MOL0     C11002  -0.122   7.027   7.465 -0.6570 -0.2946 -0.3849
  805MOL0     N11003   0.655   6.886   7.783 -0.3259 -0.0515  0.4280
  805MOL0     N11004   0.710   6.763   7.766 -0.3152  0.2957 -0.2279
  805MOL0     C11005   1.386   6.804   6.708  0.5592 -0.3686  0.8697
  805MOL0     C11006   1.504   6.806   6.611  0.0903 -1.0425 -0.3474
  805MOL0     C11007   1.748   6.684   6.291 -0.3879 -0.0699  0.3474
  805MOL0     C11008   1.690   6.683   6.158  0.3437 -0.0881  0.4844
  805MOL0     C11009   1.765   6.718   6.042  0.1373 -0.7646 -0.1828
  805MOL0     C11010   1.896   6.761   6.050  0.5661 -0.5678 -0.2692
  805MOL0     O11011   1.965   6.785   5.931 -0.6672  0.3364  0.6197
  805MOL0     C11012   2.100   6.834   5.935  0.0509 -0.5632  0.4367
  805MOL0     C11013   2.162   6.895   5.808 -0.1487  0.1646 -0.9552
  805MOL0     C11014   2.077   6.998   5.735  0.5273  0.9144  1.0575
  805MOL0     C11015   2.137   7.019   5.601 -0.1410 -0.4920 -0.3327
  805MOL0     C11016   2.083   6.927   5.499 -0.4289 -0.4006  0.0029
  805MOL0     C11017   2.039   6.847   5.418 -0.6563  0.2569 -0.6779
  805MOL0     C11018   1.949   6.780   6.177  0.4037  0.4124 -0.8386
  805MOL0     C11019   1.882   6.748   6.297  0.5986  0.6038 -0.1062
  805MOL0     C11020   1.961   6.762   6.427  0.5284  0.4723  0.2465
  805MOL0     H11021   1.654   6.526   6.722 -0.1276  0.9072  0.0986
  805MOL0     H11022   1.492   6.543   6.896  0.0598  1.0450  0.5037
  805MOL0     H11023   1.381   6.662   7.050  1.1056 -0.0741 -0.0989
  805MOL0     H11024   1.272   6.542   6.970  0.4417  1.7487 -2.6059
  805MOL0     H11025   1.181   6.803   7.111 -2.4485  1.2926 -1.2519
  805MOL0     H11026   1.083   6.708   7.003  0.5088 -3.2154 -1.1777
  805MOL0     H11027   1.016   6.628   7.221 -0.3585 -1.5636 -0.6987
  805MOL0     H11028   1.139   6.503   7.181 -2.2500 -0.7048  1.2164
  805MOL0     H11029   1.308   6.642   7.310 -0.6393 -2.6682 -0.6974
  805MOL0     H11030   1.179   6.749   7.365  1.1226  1.6688 -1.4967
  805MOL0     H11031   1.201   6.583   7.534  0.5208 -2.8293 -0.5323
  805MOL0     H11032   1.187   6.444   7.413  0.5477 -0.8171  0.9838
  805MOL0     H11033   0.949   6.492   7.387 -0.7025  0.8132 -1.4128
  805MOL0     H11034   0.997   6.465   7.557 -0.9718 -1.1227 -1.5217
  805MOL0     H11035   0.904   6.727   7.430 -1.9583  0.2315  0.0051
  805MOL0     H11036   0.979   6.721   7.586  1.0897 -1.4193  0.3291
  805MOL0     H11037   0.718   6.563   7.504  0.4231  4.0409 -2.9623
  805MOL0     H11038   0.815   6.549   7.659 -0.6507  1.6537  1.8455
  805MOL0     H11039   0.637   6.863   7.457  2.0145  2.6161 -0.1771
  805MOL0     H11040   0.541   7.086   7.533  1.1019 -1.3912 -0.3257
  805MOL0     H11041   0.517   7.130   7.697 -1.8445 -1.4990  1.7444
  805MOL0     H11042   0.351   6.936   7.541  3.1482 -1.2747  1.0309
  805MOL0     H11043   0.345   6.957   7.716  2.1258 -0.7092 -0.6218
  805MOL0     H11044   0.286   7.203   7.672  1.7935 -0.1269  0.1264
  805MOL0     H11045   0.326   7.177   7.500  2.7148  2.2333  3.1078
  805MOL0     H11046   0.101   7.053   7.652  1.8760 -3.2392  0.0940
  805MOL0     H11047   0.091   7.192   7.551 -1.4430 -1.3865 -1.1081
  805MOL0     H11048   0.072   6.758   7.403  0.5521  0.7626 -2.5779
  805MOL0     H11049  -0.056   6.571   7.332 -0.8117  0.9460 -1.8275
  805MOL0     H11050  -0.222   6.596   7.290 -0.0813  0.5603 -0.1386
  805MOL0     H11051  -0.165   6.544   7.462 -1.6310  0.6945 -0.5323
  805MOL0     H11052  -0.629   6.592   7.395 -2.9877 -2.0043 -1.5506
  805MOL0     H11053  -0.855   6.540   7.440  0.5291 -0.2363  0.6336
  805MOL0     H11054  -1.013   6.607   7.667  0.3221 -1.5769 -0.8206
  805MOL0     H11055  -1.135   6.723   7.684  0.0085 -0.3194  0.4731
  805MOL0     H11056  -1.256   6.523   7.667 -2.8240 -0.9436 -2.3913
  805MOL0     H11057  -1.248   6.593   7.500  3.8123  0.7750 -2.7089
  805MOL0     H11058  -1.084   6.378   7.599  2.0643  2.2451 -1.1810
  805MOL0     H11059  -1.082   6.437   7.437 -1.6356 -2.7717 -1.5313
  805MOL0     H11060  -1.339   6.402   7.424  1.2422  1.5805 -0.3652
  805MOL0     H11061  -1.320   6.308   7.574  1.9694 -1.0742 -0.4041
  805MOL0     H11062  -1.339   6.175   7.362 -1.0059  0.4325  0.2720
  805MOL0     H11063  -1.184   6.248   7.309 -0.0093  0.1707 -0.3643
  805MOL0     H11064  -1.077   6.138   7.521 -2.6211 -0.8039  2.4147
  805MOL0     H11065  -1.151   6.035   7.397  3.3865 -0.4663 -0.7278
  805MOL0     H11066  -1.354   6.044   7.587 -0.1396  1.4514  1.8922
  805MOL0     H11067  -1.242   6.144   7.670 -0.4655 -1.0003  1.3200
  805MOL0     H11068  -1.188   5.855   7.580 -0.0148 -0.0275 -0.1456
  805MOL0     H11069  -1.236   5.903   7.746 -1.6402  0.7997 -0.6466
  805MOL0     H11070  -0.938   6.938   7.542  0.4537  2.4661 -0.7510
  805MOL0     H11071  -0.678   7.000   7.533  0.4529  0.7721 -0.5254
  805MOL0     H11072  -0.341   7.016   7.484  0.5564  1.0365  1.3031
  805MOL0     H11073  -0.112   7.132   7.492  1.3787 -0.7933  1.0138
  805MOL0     H11074   1.315   6.887   6.701  2.6506  1.3774 -1.7973
  805MOL0     H11075   1.502   6.891   6.544  0.9971  2.0729  3.2214
  805MOL0     H11076   1.586   6.657   6.140  0.6731 -0.2019 -1.4885
  805MOL0     H11077   1.720   6.727   5.944 -0.8468 -2.1637  0.1120
  805MOL0     H11078   2.110   6.917   6.005  2.3364 -0.5598  0.1724
  805MOL0     H11079   2.169   6.751   5.953  1.4272  0.1564 -1.2525
  805MOL0     H11080   2.173   6.802   5.751  1.1587  0.8059 -1.8035
  805MOL0     H11081   2.263   6.929   5.830  0.6338 -1.6494 -1.5669
  805MOL0     H11082   1.973   6.970   5.719  0.2084  2.5259 -0.0148
  805MOL0     H11083   2.080   7.092   5.791  1.3888  1.7450 -0.3251
  805MOL0     H11084   2.244   6.996   5.596 -0.4946 -2.0238 -1.8306
  805MOL0     H11085   2.114   7.123   5.575  1.3400  0.4598  1.8934
  805MOL0     H11086   1.977   6.775   5.369 -3.2612  2.9454 -1.6460
  805MOL0     H11087   2.056   6.800   6.175  0.5408 -0.1382  0.4807
  805MOL0     H11088   1.980   6.865   6.457 -2.2982  1.5531 -1.3316
  805MOL0     H11089   1.908   6.701   6.500 -2.7139  2.2580 -0.4384
  805MOL0     H11090   2.062   6.720   6.415 -0.3952 -2.6839  2.2826
  806MOL0     O11091  10.843   7.214   9.491 -0.3794  0.2765 -0.3871
  806MOL0     C11092  10.897   7.214   9.606 -0.1023  0.4477 -0.6281
  806MOL0     O11093  10.858   7.297   9.712 -0.1388 -0.1942 -0.6798
  806MOL0     C11094  10.781   7.408   9.676  0.0034 -0.7887 -0.4713
  806MOL0     C11095  10.835   7.539   9.687  0.2353  0.9503  0.4022
  806MOL0     C11096  10.762   7.645   9.646  0.4054 -0.3111 -0.7217
  806MOL0     C11097  10.629   7.632   9.611  0.1121  0.5051  0.5656
  806MOL0     O11098  10.541   7.733   9.589  0.1120 -0.3168 -0.7172
  806MOL0     C11099  10.579   7.820   9.480 -0.3830  0.0558  0.4190
  806MOL0     C11100  10.452   7.905   9.430 -0.1151 -0.2694  0.3295
  806MOL0     C11101  10.371   7.968   9.542  0.4471  0.1660 -0.5743
  806MOL0     C11102  10.227   7.981   9.490 -0.4135 -0.5582 -1.2622
  806MOL0     C11103  10.148   8.069   9.589  0.0582 -0.1181 -0.1192
  806MOL0     C11104  10.009   8.110   9.553 -0.6101  0.3140  0.8349
  806MOL0     C11105   9.997   8.192   9.414  0.6271  0.8198 -0.3722
  806MOL0     C11106  10.092   8.318   9.392  0.6943 -0.4368 -0.8626
  806MOL0     N11107  10.042   8.425   9.477 -0.0512 -0.9260  0.4416
  806MOL0     C11108  10.069   8.447   9.608  0.2474  0.7905 -0.0680
  806MOL0     C11109  10.014   8.560   9.648  0.3606 -0.7723 -0.1162
  806MOL0     C11110  10.037   8.610   9.785  0.2196 -0.2763 -0.0933
  806MOL0     C11111  10.151   8.706   9.797 -0.9699  0.4539 -0.4244
  806MOL0     C11112  10.149   8.777   9.933 -0.0939  0.2030 -0.0453
  806MOL0     C11113  10.271   8.876   9.951  1.2226  0.9633  0.6468
  806MOL0     O11114  10.268   8.938  10.079  0.2794  0.2306  0.2739
  806MOL0     C11115  10.335   9.046  10.099  0.4162  1.4079 -0.0122
  806MOL0     C11116  10.292   9.135  10.199 -0.5739 -0.6817 -0.7354
  806MOL0     C11117  10.370   9.249  10.233 -0.2220 -0.5441  0.2108
  806MOL0     C11118  10.354   9.312  10.369  0.5399 -0.0500 -1.0143
  806MOL0     C11119  10.476   9.299  10.149  0.4152  0.9541  0.8797
  806MOL0     C11120  10.572   9.412  10.171 -0.3887 -0.0189 -0.6280
  806MOL0     O11121  10.537   9.508  10.271 -0.5630  0.2375  0.8422
  806MOL0     C11122  10.621   9.621  10.279 -0.1704  0.1777  0.4409
  806MOL0     C11123  10.566   9.746  10.251 -0.3133 -0.4805  0.4981
  806MOL0     C11124  10.652   9.858  10.250  0.7737  1.3085  0.3062
  806MOL0     C11125  10.789   9.848  10.274 -0.0543  0.0191 -1.3080
  806MOL0     O11126  10.863   9.963  10.282  0.5449  0.2558 -0.1488
  806MOL0     C11127  10.983   9.968  10.210 -1.0061  0.8100  0.6126
  806MOL0     C11128  11.018  10.107  10.177  0.4866 -0.3718 -0.0907
  806MOL0     C11129  11.144  10.100  10.096 -0.4065 -0.7603 -0.0449
  806MOL0     C11130  11.177  10.227  10.020  0.8276 -0.3353 -0.3727
  806MOL0     C11131  11.293  10.206   9.921 -0.2805  0.6636  1.0131
  806MOL0     C11132  11.337  10.318   9.825 -0.0083 -0.0529 -0.4772
  806MOL0     C11133  11.363  10.450   9.896  0.7203  0.8460  0.8196
  806MOL0     C11134  11.418  10.545   9.794  0.0147 -0.0986  0.3439
  806MOL0    Cl11135  11.417  10.707   9.874 -0.0658 -0.0289  0.1768
  806MOL0     C11136  10.845   9.718  10.303  0.5655  0.1929 -0.2821
  806MOL0     C11137  10.764   9.603  10.305  1.0671  0.2161  0.9146
  806MOL0     O11138  10.661   9.425  10.091  0.3379  0.3227  0.4551
  806MOL0     C11139  10.503   9.218  10.033  0.5465 -0.1136 -0.1256
  806MOL0     C11140  10.441   9.092  10.017 -0.8532 -0.5718 -0.1303
  806MOL0     N11141   9.946   8.606   9.532 -0.3027  0.0029 -0.6399
  806MOL0     N11142   9.947   8.521   9.433  0.5729 -0.7668 -0.8841
  806MOL0     C11143  10.572   7.508   9.620 -0.5054 -0.1013  0.1998
  806MOL0     C11144  10.643   7.387   9.641 -0.4016 -0.1028  0.5185
  806MOL0     C11145  11.008   7.116   9.640  0.4611 -0.9683  0.4277
  806MOL0     C11146  11.085   7.142   9.758  0.0734 -0.7704 -0.7130
  806MOL0     C11147  11.195   7.060   9.789  0.5286 -0.3420 -0.5172
  806MOL0     C11148  11.250   6.974   9.691 -0.0856 -0.0122  1.1047
  806MOL0     O11149  11.367   6.913   9.726  0.1433  0.3481  0.1671
  806MOL0     C11150  11.406   6.808   9.649  0.8501  0.5132  0.5709
  806MOL0     C11151  11.315   6.690   9.688  0.4017  0.1400  0.3123
  806MOL0     C11152  11.305   6.646   9.831 -1.1557  0.1856 -1.3651
  806MOL0     C11153  11.424   6.665   9.924  0.2707  1.1595 -0.2045
  806MOL0     C11154  11.523   6.561   9.876 -0.2947 -0.1875  0.0951
  806MOL0     C11155  11.600   6.478   9.829 -0.3146 -0.0247 -0.3563
  806MOL0     C11156  11.167   6.956   9.579 -0.1521  0.5029 -0.3284
  806MOL0     C11157  11.052   7.012   9.549  0.2958  0.3559 -0.8220
  806MOL0     C11158  10.992   6.980   9.417  0.0155 -0.4813 -0.7217
  806MOL0     H11159  10.938   7.544   9.721  0.4241  0.0178 -0.0085
  806MOL0     H11160  10.803   7.745   9.638 -1.0182  0.3671  0.0318
  806MOL0     H11161  10.623   7.768   9.395  1.5996  0.1842  1.3265
  806MOL0     H11162  10.641   7.895   9.529 -0.6424  0.9672 -0.6368
  806MOL0     H11163  10.494   7.978   9.361  3.5767 -2.6800 -0.2699
  806MOL0     H11164  10.379   7.843   9.378 -1.6538  0.5268  1.4456
  806MOL0     H11165  10.376   7.912   9.635 -1.7724  3.0195  1.4431
  806MOL0     H11166  10.418   8.066   9.550 -1.1137  1.0627 -1.6761
  806MOL0     H11167  10.230   8.016   9.386 -0.6600  1.9434 -0.4993
  806MOL0     H11168  10.176   7.885   9.485 -2.8320  0.4786  1.0664
  806MOL0     H11169  10.205   8.159   9.614  0.4354  1.0209 -4.2999
  806MOL0     H11170  10.136   8.003   9.676 -0.2875 -2.3226 -1.7333
  806MOL0     H11171   9.952   8.017   9.545  0.7061 -0.4127 -0.7503
  806MOL0     H11172   9.958   8.175   9.624  0.7175 -0.8353  2.9227
  806MOL0     H11173   9.896   8.233   9.423  0.3082  0.0160 -0.2237
  806MOL0     H11174  10.005   8.137   9.320 -0.8151  2.5375 -1.5794
  806MOL0     H11175  10.192   8.288   9.422  0.8078 -0.2413 -1.0440
  806MOL0     H11176  10.091   8.349   9.287 -2.7000  0.5066 -0.6828
  806MOL0     H11177  10.131   8.381   9.667 -3.9738 -1.1791  2.7208
  806MOL0     H11178  10.052   8.531   9.860  1.2317  1.5630  1.7598
  806MOL0     H11179   9.947   8.665   9.813  1.0165  2.5937 -2.6984
  806MOL0     H11180  10.244   8.650   9.788 -2.2325 -1.3917 -4.3932
  806MOL0     H11181  10.146   8.774   9.711 -1.6930  1.4135  0.3578
  806MOL0     H11182  10.053   8.828   9.940  0.0673  0.3978  0.9049
  806MOL0     H11183  10.153   8.715  10.022 -2.7390 -0.9080 -0.6231
  806MOL0     H11184  10.365   8.819   9.949  1.7372  1.7136  2.1812
  806MOL0     H11185  10.271   8.956   9.877  1.3051 -0.6429 -1.1800
  806MOL0     H11186  10.201   9.113  10.254 -0.9431  1.2270 -0.5226
  806MOL0     H11187  10.267   9.263  10.414  1.2788 -0.2848  0.1909
  806MOL0     H11188  10.330   9.418  10.376 -0.4820 -0.3388  0.0958
  806MOL0     H11189  10.437   9.285  10.435 -1.1663 -0.9754  0.8491
  806MOL0     H11190  10.463   9.742  10.215  0.6240  0.9169 -2.8066
  806MOL0     H11191  10.629   9.962  10.227  1.4570  2.1125  2.9623
  806MOL0     H11192  11.073   9.928  10.259 -1.1436 -0.9721 -0.4976
  806MOL0     H11193  10.971   9.918  10.114 -1.4463 -2.4784  2.2569
  806MOL0     H11194  10.933  10.156  10.128  0.7766  0.6022  0.3588
  806MOL0     H11195  11.034  10.153  10.275 -2.6199  3.4018 -1.0948
  806MOL0     H11196  11.150  10.020  10.021  2.2738 -1.0605  0.3730
  806MOL0     H11197  11.223  10.090  10.172 -4.6168 -0.0564  4.9707
  806MOL0     H11198  11.191  10.308  10.093  1.7382  0.6531 -1.6073
  806MOL0     H11199  11.087  10.263   9.969  1.0923  1.2311  0.1989
  806MOL0     H11200  11.378  10.179   9.984 -1.5925 -2.8549  1.5292
  806MOL0     H11201  11.271  10.116   9.863  3.0691  0.2552  0.2055
  806MOL0     H11202  11.258  10.336   9.752 -1.0183  0.1097  0.6233
  806MOL0     H11203  11.428  10.276   9.781 -0.0585 -0.8587  0.1541
  806MOL0     H11204  11.427  10.427   9.981 -1.0868 -0.4349  1.9189
  806MOL0     H11205  11.271  10.486   9.944  1.5280  2.3294  1.3125
  806MOL0     H11206  11.353  10.554   9.707  0.2638 -3.6313 -0.3617
  806MOL0     H11207  11.511  10.516   9.743 -1.1496  0.8451 -2.5483
  806MOL0     H11208  10.952   9.702  10.315  0.9186  3.5595  2.4781
  806MOL0     H11209  10.810   9.505  10.318  0.6165 -0.0899  0.2820
  806MOL0     H11210  10.585   9.247   9.968  2.3706 -1.6370  1.3826
  806MOL0     H11211  10.482   9.052   9.925  2.6542  3.0256 -0.4158
  806MOL0     H11212  10.464   7.501   9.615 -0.4610 -0.0220 -1.3138
  806MOL0     H11213  10.591   7.293   9.657  1.4581 -1.2268  0.3477
  806MOL0     H11214  11.059   7.217   9.832  2.0037 -1.4696  0.7631
  806MOL0     H11215  11.248   7.080   9.882 -3.0916 -1.1281  1.9824
  806MOL0     H11216  11.398   6.833   9.543 -1.3419 -0.8227  0.3449
  806MOL0     H11217  11.503   6.765   9.675  0.5288  0.9849  2.8402
  806MOL0     H11218  11.350   6.607   9.626 -1.8742 -2.0744  1.7372
  806MOL0     H11219  11.216   6.700   9.642  0.7241  0.5541 -0.2898
  806MOL0     H11220  11.222   6.699   9.878  0.4394  3.3077 -1.8314
  806MOL0     H11221  11.277   6.540   9.833 -0.0300 -0.1130 -1.1060
  806MOL0     H11222  11.396   6.659  10.030  1.0081 -0.2104 -0.0671
  806MOL0     H11223  11.471   6.763   9.910  1.9089  0.5594  0.7402
  806MOL0     H11224  11.673   6.414   9.785  1.3998 -1.3522  3.9093
  806MOL0     H11225  11.211   6.881   9.514  0.7455 -1.5125  2.4448
  806MOL0     H11226  11.024   6.883   9.375  1.8841 -1.7005  3.0774
  806MOL0     H11227  10.884   6.966   9.424 -0.5991  1.7784 -3.7769
  806MOL0     H11228  11.019   7.051   9.338  2.9134 -1.8450 -1.1220
  807MOL0     O11229   4.789   3.841   0.563 -0.4068 -0.3642  0.0496
  807MOL0     C11230   4.718   3.857   0.464  0.1016  0.3688 -0.4672
  807MOL0     O11231   4.765   3.922   0.348  0.1386 -0.7295 -0.4375
  807MOL0     C11232   4.899   3.962   0.354  0.3803  0.5251  0.4276
  807MOL0     C11233   4.987   3.921   0.253 -0.1189 -0.4235  0.2985
  807MOL0     C11234   5.121   3.968   0.231  0.8174 -0.0143 -1.2113
  807MOL0     C11235   5.158   4.070   0.331  0.3193  0.3202  1.0040
  807MOL0     O11236   5.273   4.137   0.321 -0.2714 -0.1331  0.0579
  807MOL0     C11237   5.399   4.055   0.325 -0.2601  0.1696  0.1555
  807MOL0     C11238   5.512   4.125   0.245  0.6049 -0.0124  0.5492
  807MOL0     C11239   5.606   4.193   0.339 -0.4690 -0.1863  0.2722
  807MOL0     C11240   5.565   4.343   0.353 -1.0710  0.2541  0.1196
  807MOL0     C11241   5.686   4.421   0.403 -0.6797 -1.6254  0.3284
  807MOL0     C11242   5.738   4.379   0.540 -0.2812  0.1911  0.5948
  807MOL0     C11243   5.644   4.395   0.661  0.8769  0.4596 -0.1654
  807MOL0     C11244   5.563   4.524   0.656 -0.6328  0.0083 -0.2599
  807MOL0     N11245   5.644   4.643   0.691 -0.5374  0.3852  0.3273
  807MOL0     C11246   5.704   4.668   0.811 -0.2093  0.8078 -0.1234
  807MOL0     C11247   5.780   4.780   0.789  0.3555  0.8606 -0.2477
  807MOL0     C11248   5.875   4.837   0.899 -0.4910  1.1515  0.4642
  807MOL0     C11249   5.795   4.932   0.991 -0.5710  0.3755  0.9093
  807MOL0     C11250   5.882   4.978   1.110 -0.8415 -0.3382  0.7025
  807MOL0     C11251   5.949   5.112   1.072  0.5094  0.6058 -0.3198
  807MOL0     O11252   6.027   5.164   1.183  0.8303 -0.4495  0.3301
  807MOL0     C11253   6.099   5.282   1.170  0.7430  0.0437 -0.0990
  807MOL0     C11254   6.146   5.347   1.279 -0.2916 -0.4904 -0.3383
  807MOL0     C11255   6.217   5.467   1.264 -0.5174  0.0444  0.1716
  807MOL0     C11256   6.285   5.535   1.387  0.3381 -0.2756  0.3599
  807MOL0     C11257   6.233   5.530   1.141  0.1696  0.5836  0.3552
  807MOL0     C11258   6.297   5.661   1.114  0.0382 -0.5005 -0.5620
  807MOL0     O11259   6.280   5.760   1.204 -0.2999  0.0716  0.2639
  807MOL0     C11260   6.366   5.863   1.209  0.2982 -0.1717  0.1209
  807MOL0     C11261   6.497   5.853   1.162  0.4064 -0.2269  0.1896
  807MOL0     C11262   6.574   5.969   1.176 -0.3357  0.0953  0.5707
  807MOL0     C11263   6.530   6.087   1.237 -0.0226  0.3860 -0.0118
  807MOL0     O11264   6.618   6.194   1.258  0.3789 -0.4677 -0.0617
  807MOL0     C11265   6.560   6.311   1.313  0.1029  0.5124 -0.4087
  807MOL0     C11266   6.672   6.418   1.327 -0.2877 -0.2363 -0.5000
  807MOL0     C11267   6.705   6.470   1.188 -0.1192 -0.4121  0.2362
  807MOL0     C11268   6.828   6.568   1.193  0.0148  0.9544  1.4873
  807MOL0     C11269   6.844   6.685   1.288  0.7166 -1.1039 -0.1269
  807MOL0     C11270   6.739   6.803   1.310 -0.8455 -0.2088 -0.3428
  807MOL0     C11271   6.695   6.868   1.178 -0.6393 -0.0513  0.0058
  807MOL0     C11272   6.623   6.995   1.205  0.0781 -0.1245  0.0045
  807MOL0    Cl11273   6.732   7.100   1.308  0.0520 -0.4125 -0.5705
  807MOL0     C11274   6.395   6.091   1.290 -0.5172  0.1118  0.2109
  807MOL0     C11275   6.323   5.978   1.275 -0.6126 -0.2515 -0.2519
  807MOL0     O11276   6.360   5.668   1.007  0.1856 -0.0959 -0.9225
  807MOL0     C11277   6.180   5.464   1.028  0.4242  0.9971 -0.3388
  807MOL0     C11278   6.132   5.331   1.042 -1.0734  1.6221 -0.5288
  807MOL0     N11279   5.754   4.825   0.666  0.0321 -0.3989 -0.9953
  807MOL0     N11280   5.665   4.748   0.604  1.4389 -0.2643  0.6439
  807MOL0     C11281   5.073   4.106   0.433  0.0942 -0.0633 -1.4227
  807MOL0     C11282   4.944   4.056   0.456  0.4778  0.4554  1.2766
  807MOL0     C11283   4.564   3.820   0.467 -0.2339 -0.3313  0.2196
  807MOL0     C11284   4.470   3.856   0.364  1.5824  0.4479 -0.3103
  807MOL0     C11285   4.334   3.841   0.385 -0.0349  0.3197  0.7688
  807MOL0     C11286   4.285   3.774   0.499  0.2243 -0.4949  0.2358
  807MOL0     O11287   4.147   3.767   0.522 -0.5264  1.0219  0.5523
  807MOL0     C11288   4.095   3.892   0.580 -0.0275  0.1342  0.6742
  807MOL0     C11289   4.084   3.898   0.733  0.1452  0.7950 -0.3745
  807MOL0     C11290   3.950   3.862   0.794 -0.0513 -0.3169 -0.9996
  807MOL0     C11291   3.940   3.876   0.943  0.2217 -0.2234 -1.2156
  807MOL0     C11292   4.031   3.790   1.003  0.1289 -0.0062 -0.7665
  807MOL0     C11293   4.116   3.736   1.067 -0.4965  0.1524 -0.4108
  807MOL0     C11294   4.370   3.731   0.586  0.5449  0.3041 -0.1149
  807MOL0     C11295   4.502   3.752   0.574 -0.0989  0.4147  0.0413
  807MOL0     C11296   4.583   3.702   0.688  0.1271 -0.0923 -0.8877
  807MOL0     H11297   4.946   3.847   0.184 -1.6706 -2.5648  3.2391
  807MOL0     H11298   5.181   3.927   0.151 -0.1588 -1.2364 -1.3556
  807MOL0     H11299   5.371   3.956   0.289 -2.8190  0.8450  0.0892
  807MOL0     H11300   5.419   4.034   0.430  1.1766 -0.1728 -0.1624
  807MOL0     H11301   5.572   4.052   0.190  1.8447  2.8113 -2.1355
  807MOL0     H11302   5.468   4.193   0.172  1.0375  1.1002  1.2972
  807MOL0     H11303   5.615   4.143   0.435 -1.4375 -2.4443 -0.7392
  807MOL0     H11304   5.704   4.175   0.295 -0.5368 -3.4398  1.2435
  807MOL0     H11305   5.531   4.374   0.254 -1.4715 -2.4748 -0.6956
  807MOL0     H11306   5.487   4.346   0.429  0.7575 -0.6607  2.1504
  807MOL0     H11307   5.665   4.528   0.396  0.7580 -1.3720 -0.4072
  807MOL0     H11308   5.776   4.408   0.343 -0.6253 -1.9335  0.4743
  807MOL0     H11309   5.773   4.275   0.540  0.2303  0.3096  2.8935
  807MOL0     H11310   5.836   4.424   0.555  0.8710 -1.9663  0.0229
  807MOL0     H11311   5.693   4.369   0.755 -2.9468 -4.0581  0.9431
  807MOL0     H11312   5.569   4.316   0.655 -0.7002  1.7105  1.8508
  807MOL0     H11313   5.523   4.542   0.555 -1.3342  1.4058  0.2441
  807MOL0     H11314   5.474   4.512   0.719  0.6768  1.1467  1.9473
  807MOL0     H11315   5.706   4.610   0.903  0.7721 -2.5497 -2.0763
  807MOL0     H11316   5.971   4.878   0.865 -0.7855  2.4065  1.0554
  807MOL0     H11317   5.908   4.751   0.957  2.6793  1.4875 -0.6350
  807MOL0     H11318   5.746   5.015   0.939  2.9000  0.4116 -2.9026
  807MOL0     H11319   5.723   4.865   1.037  0.1425 -2.6351 -1.9092
  807MOL0     H11320   5.828   4.990   1.204 -2.4916 -2.2701  0.0787
  807MOL0     H11321   5.959   4.906   1.138  0.8703  1.4621  0.8362
  807MOL0     H11322   6.020   5.102   0.989  1.8722 -1.3953  1.0227
  807MOL0     H11323   5.875   5.191   1.055  1.0232  1.4149  1.0327
  807MOL0     H11324   6.136   5.305   1.379 -3.3857  2.3567  0.7583
  807MOL0     H11325   6.381   5.581   1.363  0.3022  1.3325  2.9545
  807MOL0     H11326   6.299   5.459   1.465 -0.3628 -4.4394 -3.1644
  807MOL0     H11327   6.220   5.617   1.418 -1.5932 -0.6802 -2.2898
  807MOL0     H11328   6.550   5.773   1.113  2.9565  1.3478  0.1773
  807MOL0     H11329   6.671   5.974   1.128 -1.3226 -0.0262 -1.5926
  807MOL0     H11330   6.486   6.353   1.245  0.4182 -0.7687 -1.6033
  807MOL0     H11331   6.519   6.282   1.410 -3.2542  1.0106 -1.5500
  807MOL0     H11332   6.641   6.500   1.392  4.5807  1.8652 -0.3892
  807MOL0     H11333   6.758   6.377   1.381 -0.5989 -0.2437 -0.0067
  807MOL0     H11334   6.622   6.531   1.151 -0.3566  1.7634  3.9246
  807MOL0     H11335   6.727   6.382   1.126  0.5750 -0.8572  1.1004
  807MOL0     H11336   6.839   6.616   1.096 -3.2191  1.3519  1.2102
  807MOL0     H11337   6.906   6.498   1.223 -0.0650  0.5356  0.7334
  807MOL0     H11338   6.868   6.648   1.389  1.3869  1.3566  0.6961
  807MOL0     H11339   6.940   6.725   1.255 -0.1793  1.2227 -0.0990
  807MOL0     H11340   6.775   6.879   1.381 -1.2551 -1.6985  1.5461
  807MOL0     H11341   6.650   6.760   1.357 -1.4613  2.3057  0.9800
  807MOL0     H11342   6.635   6.796   1.122 -0.7850 -0.3347  0.5184
  807MOL0     H11343   6.777   6.907   1.117 -1.3838 -0.6517 -1.4461
  807MOL0     H11344   6.533   6.972   1.262  0.7402 -1.5113  0.5403
  807MOL0     H11345   6.596   7.047   1.113 -2.6656 -1.0493  0.2126
  807MOL0     H11346   6.356   6.184   1.331  1.1964  1.3317 -0.8236
  807MOL0     H11347   6.222   5.966   1.316 -0.0495 -2.0306  0.7403
  807MOL0     H11348   6.171   5.503   0.927  1.9500 -0.7518 -1.2190
  807MOL0     H11349   6.102   5.271   0.957  0.9027 -3.3714  1.8603
  807MOL0     H11350   5.107   4.192   0.491  1.6252  1.0060 -3.7575
  807MOL0     H11351   4.877   4.101   0.528  0.3579  0.4130  1.1908
  807MOL0     H11352   4.504   3.912   0.277 -0.1146  5.5335  1.9582
  807MOL0     H11353   4.269   3.883   0.308  0.7737  1.3926  0.6541
  807MOL0     H11354   4.157   3.979   0.557  0.6735  0.3386  3.0143
  807MOL0     H11355   4.006   3.919   0.522 -0.6604 -0.7665  1.2012
  807MOL0     H11356   4.091   4.004   0.759  3.3163  0.1024  2.1150
  807MOL0     H11357   4.165   3.859   0.795  1.0806 -1.0223 -2.5942
  807MOL0     H11358   3.867   3.921   0.754  1.0992  0.1899 -2.7550
  807MOL0     H11359   3.931   3.758   0.764  0.5537 -0.4055 -1.0779
  807MOL0     H11360   3.838   3.847   0.970  0.2198  0.8320 -0.0091
  807MOL0     H11361   3.937   3.982   0.970  2.0120  0.2847 -2.8517
  807MOL0     H11362   4.178   3.667   1.121  0.3271  2.5044  1.8412
  807MOL0     H11363   4.324   3.687   0.674 -3.1979 -0.0250 -2.0468
  807MOL0     H11364   4.665   3.646   0.642  0.8710 -1.5862  1.9843
  807MOL0     H11365   4.629   3.773   0.757 -1.5375  0.1442  0.0224
  807MOL0     H11366   4.528   3.637   0.757  1.2903  0.3765  0.5282
  808MOL0     O11367   1.246  10.818   7.292 -0.2556 -0.3437 -0.0778
  808MOL0     C11368   1.246  10.902   7.205 -0.2346 -0.3715 -0.1746
  808MOL0     O11369   1.357  10.933   7.123  0.3847  0.4090 -0.3178
  808MOL0     C11370   1.457  10.845   7.125 -0.9610 -0.1603 -0.3349
  808MOL0     C11371   1.549  10.849   7.228 -0.0087  0.0393  0.6663
  808MOL0     C11372   1.659  10.761   7.226  0.5259  0.3987  0.6200
  808MOL0     C11373   1.685  10.668   7.125  0.2499 -0.0208  0.1842
  808MOL0     O11374   1.794  10.583   7.132 -0.0623  0.6830  0.7188
  808MOL0     C11375   1.905  10.583   7.220 -0.4522 -0.2456  0.0635
  808MOL0     C11376   1.940  10.435   7.269 -0.3008 -0.5298  0.1314
  808MOL0     C11377   1.814  10.344   7.281  0.3978 -0.1943  0.2336
  808MOL0     C11378   1.867  10.197   7.294  0.3880 -0.3856 -0.2307
  808MOL0     C11379   1.750  10.092   7.311 -1.3700 -0.4433 -0.1986
  808MOL0     C11380   1.685  10.083   7.451  0.9112 -0.0912  0.4959
  808MOL0     C11381   1.760   9.993   7.544 -0.0145  0.0555 -0.0338
  808MOL0     C11382   1.723   9.971   7.695  0.3903  0.0587 -0.4622
  808MOL0     N11383   1.690  10.099   7.765  0.2641  1.0873  0.0713
  808MOL0     C11384   1.783  10.201   7.766 -0.2704 -0.6045 -0.4251
  808MOL0     C11385   1.706  10.312   7.789  0.4644 -0.3523 -0.2120
  808MOL0     C11386   1.747  10.451   7.782 -0.4219 -0.1963 -0.9599
  808MOL0     C11387   1.719  10.529   7.649  0.7189 -0.7023 -0.4050
  808MOL0     C11388   1.721  10.687   7.663 -0.6983 -0.3864 -0.6003
  808MOL0     C11389   1.578  10.732   7.688 -0.0180 -1.4264  0.3462
  808MOL0     O11390   1.537  10.678   7.811 -0.3631  0.0783 -0.2801
  808MOL0     C11391   1.408  10.703   7.856  0.5237 -0.5669 -0.3523
  808MOL0     C11392   1.280  10.726   7.796 -0.0631  0.3226  0.7233
  808MOL0     C11393   1.172  10.739   7.874 -0.2369  0.6623 -0.2507
  808MOL0     C11394   1.039  10.757   7.806  0.0923 -0.9736 -0.0863
  808MOL0     C11395   1.180  10.743   8.013 -0.6849  0.2798  0.7817
  808MOL0     C11396   1.063  10.775   8.102  0.2546  1.0150  0.1157
  808MOL0     O11397   1.082  10.838   8.226  0.3635  0.0568  0.3316
  808MOL0     C11398   0.982  10.860   8.309  0.1203  0.2444 -0.7464
  808MOL0     C11399   0.850  10.915   8.288 -1.4471 -0.3476 -0.3425
  808MOL0     C11400   0.751  10.900   8.378 -0.1102  0.2111 -0.1566
  808MOL0     C11401   0.782  10.863   8.512  0.2402  0.6003 -1.2157
  808MOL0     O11402   0.686  10.866   8.607 -0.3248  0.6020 -1.2115
  808MOL0     C11403   0.678  10.749   8.698  0.1834  0.5454  0.8602
  808MOL0     C11404   0.562  10.770   8.781  0.3926  0.3941 -0.0931
  808MOL0     C11405   0.433  10.729   8.716  0.5020  1.0152  0.2277
  808MOL0     C11406   0.382  10.591   8.745 -0.3070  0.0905  0.5525
  808MOL0     C11407   0.328  10.582   8.887  0.4120 -0.7824  0.7511
  808MOL0     C11408   0.185  10.643   8.909 -0.7522  0.5309  0.2413
  808MOL0     C11409   0.105  10.577   9.019  0.3013 -0.6437  0.1885
  808MOL0     C11410   0.151  10.570   9.165  0.4476  0.2193 -0.0590
  808MOL0    Cl11411   0.130  10.720   9.267 -0.5158  0.8544 -0.1445
  808MOL0     C11412   0.913  10.828   8.537  0.5888 -0.4804 -0.4775
  808MOL0     C11413   1.012  10.838   8.441  0.6569 -0.3819 -0.2438
  808MOL0     O11414   0.952  10.732   8.074 -0.8497  0.5714  0.1746
  808MOL0     C11415   1.308  10.726   8.074 -0.0071 -0.0804 -0.0672
  808MOL0     C11416   1.418  10.707   7.993 -0.3286  1.0032 -0.3411
  808MOL0     N11417   1.572  10.267   7.804  1.0448 -0.8435 -0.2181
  808MOL0     N11418   1.569  10.139   7.785  0.0570 -0.6493 -0.7908
  808MOL0     C11419   1.590  10.671   7.017  0.5696 -0.5687  0.8135
  808MOL0     C11420   1.476  10.754   7.018 -0.6501 -0.0088 -0.8220
  808MOL0     C11421   1.112  10.959   7.173  0.1208  0.4021  0.3929
  808MOL0     C11422   1.096  11.007   7.037  0.5421 -0.3494  0.0009
  808MOL0     C11423   0.974  11.052   6.985  0.6858  0.4199 -0.1924
  808MOL0     C11424   0.864  11.055   7.069  0.2533 -0.5177 -0.2892
  808MOL0     O11425   0.739  11.095   7.023 -0.6352 -0.2668  0.1269
  808MOL0     C11426   0.695  11.000   6.926 -0.5732 -0.6898 -0.3187
  808MOL0     C11427   0.539  10.999   6.903  0.5770 -0.6640 -0.2305
  808MOL0     C11428   0.443  10.995   7.030 -0.5958  1.0426 -0.2992
  808MOL0     C11429   0.432  11.131   7.105  0.2681  0.3573  0.0935
  808MOL0     C11430   0.384  11.113   7.239 -0.3756 -0.3752 -0.1554
  808MOL0     C11431   0.341  11.087   7.353 -0.1133  0.2815 -1.0719
  808MOL0     C11432   0.876  11.030   7.208  0.6220  0.4894 -0.0481
  808MOL0     C11433   1.000  10.977   7.261  0.1806  0.0015 -1.0406
  808MOL0     C11434   0.991  10.950   7.405  0.0703  0.3424 -0.4351
  808MOL0     H11435   1.541  10.917   7.312 -0.8814 -0.4362  0.9774
  808MOL0     H11436   1.712  10.775   7.320  1.2641  0.1455  0.2417
  808MOL0     H11437   1.876  10.646   7.305 -2.0791 -1.2133  0.2874
  808MOL0     H11438   1.990  10.621   7.163 -1.1620  1.6881  0.2127
  808MOL0     H11439   2.012  10.391   7.199 -2.8005 -1.9218 -1.7063
  808MOL0     H11440   1.991  10.436   7.366  3.5489 -1.8397 -1.6611
  808MOL0     H11441   1.754  10.369   7.368 -1.8377 -2.0158 -0.6716
  808MOL0     H11442   1.755  10.340   7.189  2.0755  0.4613 -0.9322
  808MOL0     H11443   1.911  10.162   7.200  0.8863 -0.0719 -0.1191
  808MOL0     H11444   1.938  10.188   7.378 -2.1225  2.9751  2.5345
  808MOL0     H11445   1.800   9.996   7.298 -0.4483  0.1399 -1.0961
  808MOL0     H11446   1.681  10.113   7.229 -1.9972  0.5159  0.5455
  808MOL0     H11447   1.676  10.179   7.503 -1.4344 -1.0202  1.9221
  808MOL0     H11448   1.585  10.039   7.454  0.8876 -0.1207  4.1440
  808MOL0     H11449   1.865  10.024   7.539 -0.2459  1.5234  2.4824
  808MOL0     H11450   1.758   9.896   7.494  1.4159  0.6188 -1.2493
  808MOL0     H11451   1.623   9.927   7.688  0.3743 -0.1679  0.8794
  808MOL0     H11452   1.791   9.906   7.751  1.4189  1.7983  0.3819
  808MOL0     H11453   1.888  10.180   7.753 -0.4199 -1.8692  0.2521
  808MOL0     H11454   1.856  10.444   7.791 -0.4888 -0.6952 -0.4926
  808MOL0     H11455   1.706  10.506   7.867 -1.5661  0.0546 -1.6565
  808MOL0     H11456   1.783  10.491   7.569  0.9313 -0.3975 -0.3809
  808MOL0     H11457   1.618  10.504   7.614 -0.4791 -0.2091  2.4321
  808MOL0     H11458   1.786  10.699   7.749  0.2169 -2.4586 -0.9549
  808MOL0     H11459   1.769  10.733   7.576  2.6846  0.5858  1.5922
  808MOL0     H11460   1.591  10.841   7.689  0.0381 -1.4187 -0.6811
  808MOL0     H11461   1.499  10.706   7.618  0.3376 -0.3457 -0.4889
  808MOL0     H11462   1.267  10.741   7.689 -4.3793  1.7251  1.2339
  808MOL0     H11463   0.984  10.670   7.844  1.4674 -1.4432  0.9049
  808MOL0     H11464   1.035  10.756   7.696  0.5341  3.2033 -0.2759
  808MOL0     H11465   0.999  10.851   7.843  3.9457  0.0622  1.9688
  808MOL0     H11466   0.835  10.946   8.185 -0.1011  1.3155 -0.0904
  808MOL0     H11467   0.650  10.932   8.355  0.1345  2.8186  2.0319
  808MOL0     H11468   0.667  10.653   8.648 -1.4599  1.1041  0.0806
  808MOL0     H11469   0.763  10.740   8.767 -0.8716 -2.2506  1.9585
  808MOL0     H11470   0.575  10.709   8.872  3.9197 -0.4601 -1.0273
  808MOL0     H11471   0.553  10.875   8.809 -2.1268  0.4645 -0.8811
  808MOL0     H11472   0.449  10.733   8.608  2.4583 -3.4324  0.1404
  808MOL0     H11473   0.358  10.802   8.749 -0.5862 -0.3178  0.8179
  808MOL0     H11474   0.466  10.522   8.731 -0.3579 -0.1939  1.5382
  808MOL0     H11475   0.301  10.569   8.675  1.1788 -2.2259 -0.5701
  808MOL0     H11476   0.327  10.474   8.901  1.2438 -0.5103  3.3542
  808MOL0     H11477   0.393  10.629   8.961 -0.1090 -0.0333  0.7475
  808MOL0     H11478   0.127  10.627   8.818 -1.8004 -0.7570  1.0992
  808MOL0     H11479   0.191  10.751   8.928  3.5326  0.3431  1.0633
  808MOL0     H11480   0.099  10.474   8.982  1.3953 -0.3817 -0.7815
  808MOL0     H11481   0.005  10.621   9.024  1.4174  2.2855 -0.8048
  808MOL0     H11482   0.258  10.549   9.170  0.4286  0.3086  0.9457
  808MOL0     H11483   0.095  10.492   9.217  0.0560 -0.6523 -1.7228
  808MOL0     H11484   0.931  10.803   8.641 -1.8472 -0.2553  0.0577
  808MOL0     H11485   1.108  10.794   8.466  0.5858 -0.5094 -0.1986
  808MOL0     H11486   1.294  10.757   8.178 -2.7493 -1.9802  0.2244
  808MOL0     H11487   1.513  10.706   8.044  0.1338  0.1870 -1.2021
  808MOL0     H11488   1.607  10.599   6.937 -1.9516 -0.4334  0.0636
  808MOL0     H11489   1.405  10.765   6.936 -1.5999  2.7230  0.2603
  808MOL0     H11490   1.180  10.996   6.968  0.3590 -0.2515 -0.2384
  808MOL0     H11491   0.962  11.075   6.879  0.1892  2.0600  0.1967
  808MOL0     H11492   0.744  11.019   6.830 -1.7399 -1.4521 -1.0869
  808MOL0     H11493   0.715  10.894   6.946 -1.2325 -1.1511 -1.9216
  808MOL0     H11494   0.526  10.910   6.840 -1.4414 -0.7750  0.2868
  808MOL0     H11495   0.501  11.080   6.840  2.0685 -0.1953 -0.5755
  808MOL0     H11496   0.340  10.965   7.007 -1.3103  2.3200  1.0300
  808MOL0     H11497   0.486  10.918   7.096 -3.7129 -2.5707 -2.0730
  808MOL0     H11498   0.361  11.199   7.057  0.7211  1.2690  0.6863
  808MOL0     H11499   0.523  11.192   7.107 -1.6395  3.4931 -1.0694
  808MOL0     H11500   0.311  11.075   7.455  0.7167  0.6604 -0.7732
  808MOL0     H11501   0.791  11.047   7.273  0.5204 -0.9529  0.2233
  808MOL0     H11502   0.920  11.010   7.462  0.3701  1.2379 -0.9869
  808MOL0     H11503   0.972  10.843   7.417  1.8702 -0.1069 -1.3167
  808MOL0     H11504   1.092  10.970   7.442  0.5387  0.2256 -1.6023
  809MOL0     O11505  11.105   7.171   6.452 -0.8832  0.0305 -0.1399
  809MOL0     C11506  11.223   7.213   6.480  1.1332 -0.1116 -0.6687
  809MOL0     O11507  11.326   7.172   6.412  0.0369 -0.4089 -0.1060
  809MOL0     C11508  11.314   7.072   6.317  0.1485 -0.1215  0.2146
  809MOL0     C11509  11.307   7.102   6.181 -1.0557 -0.4893  0.0072
  809MOL0     C11510  11.303   7.000   6.087  0.3386  0.8885  0.2302
  809MOL0     C11511  11.287   6.869   6.123  0.2974  0.1353 -0.3809
  809MOL0     O11512  11.278   6.775   6.023 -0.2405 -0.4420  0.2389
  809MOL0     C11513  11.274   6.630   6.049  0.8839 -0.7894  0.4181
  809MOL0     C11514  11.235   6.548   5.926 -0.1257  0.7674  0.1994
  809MOL0     C11515  11.089   6.555   5.867  0.1547 -0.1641 -0.2534
  809MOL0     C11516  11.051   6.462   5.748  0.0304 -0.2759 -1.0104
  809MOL0     C11517  10.905   6.485   5.723  0.3352  0.6398  0.8535
  809MOL0     C11518  10.840   6.386   5.615  0.1147  0.3129 -1.4329
  809MOL0     C11519  10.891   6.408   5.473 -0.3666 -0.9861 -0.9126
  809MOL0     C11520  10.827   6.342   5.351  0.6269  0.6902  0.1686
  809MOL0     N11521  10.698   6.397   5.306  0.1888 -0.6389  0.5582
  809MOL0     C11522  10.675   6.437   5.172  0.8500 -0.3125  0.1578
  809MOL0     C11523  10.539   6.443   5.167  0.9254 -0.1363  0.3072
  809MOL0     C11524  10.466   6.495   5.045 -0.1638  0.2136 -0.2131
  809MOL0     C11525  10.434   6.379   4.934  0.0364 -0.0136 -0.1842
  809MOL0     C11526  10.416   6.438   4.792  1.4628 -0.7766  0.7010
  809MOL0     C11527  10.553   6.467   4.716 -0.2260  0.6508  0.6118
  809MOL0     O11528  10.531   6.520   4.578 -0.0933 -0.1055  0.1845
  809MOL0     C11529  10.508   6.433   4.473  1.0534 -0.3003  0.2818
  809MOL0     C11530  10.432   6.472   4.366 -1.0329 -0.2822 -0.1802
  809MOL0     C11531  10.418   6.400   4.251 -0.5177  0.2505  0.0497
  809MOL0     C11532  10.332   6.445   4.141  0.3880 -0.2201  0.3907
  809MOL0     C11533  10.487   6.277   4.247  0.1733 -0.0754 -0.0915
  809MOL0     C11534  10.462   6.179   4.141  0.3559  0.1957 -0.1445
  809MOL0     O11535  10.569   6.129   4.066  0.8073 -0.5119 -0.4103
  809MOL0     C11536  10.673   6.216   4.054 -0.5013  0.1721 -0.5518
  809MOL0     C11537  10.666   6.334   3.980  0.1247  0.1115  0.3216
  809MOL0     C11538  10.778   6.419   3.964 -0.2645  0.3496  0.4072
  809MOL0     C11539  10.901   6.392   4.026  0.7299  0.8339 -0.1789
  809MOL0     O11540  11.009   6.480   4.008  0.2634  0.1368 -0.2329
  809MOL0     C11541  10.992   6.610   4.069 -0.3792  0.2708  0.1248
  809MOL0     C11542  11.118   6.675   4.111 -0.6601  0.2226  0.7651
  809MOL0     C11543  11.185   6.586   4.222  0.2380  0.8479  0.0759
  809MOL0     C11544  11.327   6.627   4.227  1.1105  0.7543 -0.9429
  809MOL0     C11545  11.396   6.549   4.335 -0.5200  0.5004  0.0712
  809MOL0     C11546  11.538   6.548   4.299  0.2026  0.7526  0.2997
  809MOL0     C11547  11.623   6.494   4.408  0.5905 -0.5489  0.5005
  809MOL0     C11548  11.774   6.510   4.377  0.3022  1.0349  0.7568
  809MOL0    Cl11549  11.862   6.407   4.497  0.3924  0.1907  0.0464
  809MOL0     C11550  10.916   6.268   4.092  0.4036 -0.9748 -0.0056
  809MOL0     C11551  10.801   6.192   4.117  0.0042 -0.0005 -0.3225
  809MOL0     O11552  10.341   6.145   4.127 -0.8847 -0.0837  0.3437
  809MOL0     C11553  10.563   6.238   4.349  0.8877  0.4912  0.8847
  809MOL0     C11554  10.582   6.316   4.457  0.3454  0.0015 -0.1061
  809MOL0     N11555  10.491   6.385   5.287  0.0018  0.1039 -0.8910
  809MOL0     N11556  10.580   6.370   5.372 -0.1652 -0.2816  0.1315
  809MOL0     C11557  11.257   6.838   6.260 -1.6186  0.7390  0.3481
  809MOL0     C11558  11.275   6.944   6.356  0.5907  0.5616  0.1053
  809MOL0     C11559  11.234   7.304   6.598  0.0884 -0.8810 -0.1223
  809MOL0     C11560  11.361   7.354   6.628 -0.4223 -0.6686  0.3920
  809MOL0     C11561  11.384   7.450   6.722 -0.3249 -0.1448 -0.0351
  809MOL0     C11562  11.283   7.493   6.809  0.4947 -0.2359 -0.1838
  809MOL0     O11563  11.305   7.596   6.897  0.3459 -0.2413  0.5561
  809MOL0     C11564  11.288   7.542   7.029 -0.5867  0.0699 -0.9401
  809MOL0     C11565  11.410   7.467   7.093 -0.6335 -0.0987  0.4291
  809MOL0     C11566  11.382   7.408   7.231 -0.1618  0.0235  1.0346
  809MOL0     C11567  11.515   7.387   7.312 -0.0225  0.6411  1.1209
  809MOL0     C11568  11.600   7.286   7.258 -0.4995 -0.1317 -0.2827
  809MOL0     C11569  11.678   7.196   7.219  0.3926 -0.2102  1.1436
  809MOL0     C11570  11.162   7.428   6.785 -0.0001 -0.6714  0.6970
  809MOL0     C11571  11.133   7.337   6.690  0.6925  0.2341 -0.3125
  809MOL0     C11572  10.991   7.270   6.671  0.5067 -0.8082 -0.2996
  809MOL0     H11573  11.325   7.203   6.144  2.5066 -1.4745 -1.4599
  809MOL0     H11574  11.300   7.002   5.978  0.8659 -1.5865  0.1130
  809MOL0     H11575  11.201   6.615   6.129 -0.3095 -2.2115 -0.8798
  809MOL0     H11576  11.374   6.595   6.080  0.1686 -2.8418  0.5657
  809MOL0     H11577  11.308   6.560   5.846 -1.9428 -1.5745 -1.9744
  809MOL0     H11578  11.242   6.440   5.947 -1.7723  0.3425 -1.2261
  809MOL0     H11579  11.019   6.539   5.950 -0.1533  0.9850 -0.2785
  809MOL0     H11580  11.089   6.658   5.832 -0.6622  0.8555  2.4727
  809MOL0     H11581  11.096   6.502   5.656 -1.8800  0.7029 -1.5857
  809MOL0     H11582  11.079   6.356   5.753  2.7041 -0.0681 -5.6912
  809MOL0     H11583  10.899   6.587   5.684 -0.4756 -0.1645 -1.2593
  809MOL0     H11584  10.848   6.481   5.816 -3.4339  0.6746 -1.2459
  809MOL0     H11585  10.864   6.281   5.633 -1.7239  0.2566  1.3206
  809MOL0     H11586  10.732   6.401   5.623  0.1860 -0.1453  2.4500
  809MOL0     H11587  10.997   6.380   5.475  0.6116  2.2303  0.8837
  809MOL0     H11588  10.891   6.515   5.449  0.8985  0.2838  3.6803
  809MOL0     H11589  10.899   6.337   5.269 -1.8129  0.6211 -2.0636
  809MOL0     H11590  10.806   6.239   5.381  0.7070  0.7120  0.3060
  809MOL0     H11591  10.743   6.463   5.091 -0.1369  1.9443 -0.0146
  809MOL0     H11592  10.534   6.566   4.996  0.3874  0.8894  1.4276
  809MOL0     H11593  10.376   6.552   5.069 -0.5210 -1.2458  2.2385
  809MOL0     H11594  10.507   6.298   4.927 -1.1461 -0.9744 -2.7978
  809MOL0     H11595  10.340   6.326   4.952 -1.4319  1.9517 -1.6881
  809MOL0     H11596  10.374   6.354   4.737  1.2023 -1.2153  1.5492
  809MOL0     H11597  10.350   6.525   4.795 -0.0411 -1.7762 -1.2990
  809MOL0     H11598  10.595   6.549   4.776 -0.3837  1.2108 -0.0219
  809MOL0     H11599  10.626   6.387   4.712  1.2967  1.9568  1.2244
  809MOL0     H11600  10.388   6.570   4.382  1.6351  1.4328 -2.4317
  809MOL0     H11601  10.378   6.419   4.045  1.3623  0.5330  0.6308
  809MOL0     H11602  10.317   6.553   4.140 -3.4332 -0.6301 -1.0792
  809MOL0     H11603  10.233   6.399   4.146  0.1695  0.3092  1.0379
  809MOL0     H11604  10.564   6.356   3.947 -0.7705 -3.3270  0.4233
  809MOL0     H11605  10.779   6.517   3.916  0.4997  1.1894  2.0581
  809MOL0     H11606  10.955   6.677   3.991  4.1531  0.4367 -2.2026
  809MOL0     H11607  10.920   6.599   4.151 -1.4722 -3.0119 -1.0847
  809MOL0     H11608  11.174   6.675   4.017 -1.8026  0.5591  0.0684
  809MOL0     H11609  11.099   6.775   4.150 -1.3010 -0.2717  1.7490
  809MOL0     H11610  11.183   6.481   4.190 -0.9057  1.7013 -3.0492
  809MOL0     H11611  11.128   6.589   4.316 -1.5115  1.4408 -0.9506
  809MOL0     H11612  11.327   6.733   4.253 -5.2056  0.7434  0.7207
  809MOL0     H11613  11.366   6.607   4.126 -2.4469 -2.9858 -1.8241
  809MOL0     H11614  11.386   6.592   4.435  4.0702 -0.0497  0.9894
  809MOL0     H11615  11.361   6.445   4.337 -3.3945  1.3757  0.3655
  809MOL0     H11616  11.569   6.649   4.271  2.1993  0.2179  0.4538
  809MOL0     H11617  11.539   6.490   4.207  2.2320  3.1332 -1.3157
  809MOL0     H11618  11.615   6.385   4.414 -0.9300 -0.5087 -0.3782
  809MOL0     H11619  11.604   6.543   4.504  1.1303 -0.1354  0.4014
  809MOL0     H11620  11.795   6.617   4.369 -0.2162  0.9991 -1.8003
  809MOL0     H11621  11.789   6.471   4.276 -1.1267 -0.1477  0.9463
  809MOL0     H11622  11.009   6.254   4.145  0.4553 -0.0004  0.1801
  809MOL0     H11623  10.803   6.102   4.178 -0.5722 -1.2476 -2.0354
  809MOL0     H11624  10.612   6.142   4.343  3.8298  2.0024 -2.3443
  809MOL0     H11625  10.660   6.286   4.526 -1.3589 -0.5497  1.6808
  809MOL0     H11626  11.221   6.741   6.290 -0.3131  0.3192  0.6121
  809MOL0     H11627  11.274   6.920   6.462  1.4092 -1.3369 -0.2734
  809MOL0     H11628  11.453   7.322   6.580  0.5131 -0.3558  1.9335
  809MOL0     H11629  11.483   7.486   6.748 -0.0046 -0.7658 -0.3509
  809MOL0     H11630  11.264   7.618   7.103  1.3087  0.5407 -0.7543
  809MOL0     H11631  11.209   7.466   7.031 -0.4764 -0.1105 -2.3152
  809MOL0     H11632  11.502   7.525   7.086 -2.0391  2.0929 -1.6396
  809MOL0     H11633  11.430   7.382   7.026 -5.8588 -1.5167  0.2124
  809MOL0     H11634  11.317   7.479   7.284  2.2632  4.3306 -1.1578
  809MOL0     H11635  11.322   7.318   7.219  1.0941 -0.8450  1.1161
  809MOL0     H11636  11.478   7.375   7.414  0.7272 -1.4112  1.1874
  809MOL0     H11637  11.576   7.478   7.308 -1.7869  1.9243  2.0217
  809MOL0     H11638  11.744   7.129   7.168 -2.4918 -1.1661 -1.6359
  809MOL0     H11639  11.084   7.461   6.853 -0.3865 -0.8610  0.3469
  809MOL0     H11640  10.984   7.161   6.669 -2.3195 -0.7147 -0.5501
  809MOL0     H11641  10.930   7.308   6.754 -1.0026  0.0142 -1.7135
  809MOL0     H11642  10.942   7.308   6.580  0.1327  1.9710  0.9411
  810MOL0     O11643   7.521   5.272   9.491  1.0705 -0.1030 -0.4771
  810MOL0     C11644   7.407   5.271   9.441 -0.5634  0.0423  0.3751
  810MOL0     O11645   7.375   5.198   9.320 -0.0872 -1.0345 -0.3734
  810MOL0     C11646   7.449   5.093   9.264  0.5397 -1.2127  1.0695
  810MOL0     C11647   7.416   5.055   9.130  0.2334  0.0821 -0.1977
  810MOL0     C11648   7.494   4.956   9.065 -0.7808  0.6980 -0.2379
  810MOL0     C11649   7.594   4.886   9.142  0.7012  0.4883  0.5056
  810MOL0     O11650   7.662   4.785   9.082  0.3423  0.7368  0.0796
  810MOL0     C11651   7.599   4.698   8.981 -0.1339 -0.4700  1.0099
  810MOL0     C11652   7.492   4.603   9.023 -0.2820 -0.2356 -0.2808
  810MOL0     C11653   7.507   4.491   9.133 -0.8043  0.9395  0.4948
  810MOL0     C11654   7.405   4.383   9.117 -0.0149 -0.0979 -0.2588
  810MOL0     C11655   7.430   4.277   9.224  0.2562  0.0487 -0.1773
  810MOL0     C11656   7.393   4.132   9.180  0.1020  0.2044 -0.4353
  810MOL0     C11657   7.399   4.030   9.293 -0.1472  0.1875 -1.2364
  810MOL0     C11658   7.264   4.041   9.379  0.6072 -0.6479  1.1958
  810MOL0     N11659   7.241   3.943   9.488 -0.3416  0.3743  0.0145
  810MOL0     C11660   7.254   3.808   9.489  1.0927 -0.4377 -0.0384
  810MOL0     C11661   7.242   3.766   9.615 -0.5774  0.4552 -0.7667
  810MOL0     C11662   7.268   3.628   9.670  0.1533  0.3317 -0.7882
  810MOL0     C11663   7.182   3.587   9.791 -0.2243 -0.2254  0.1664
  810MOL0     C11664   7.038   3.590   9.746  0.0456 -0.7090 -0.5317
  810MOL0     C11665   6.945   3.523   9.848 -0.0694  0.4714 -0.6253
  810MOL0     O11666   6.963   3.379   9.820 -0.1504 -0.0990  0.6826
  810MOL0     C11667   6.995   3.296   9.926  0.3769 -0.4266  1.3047
  810MOL0     C11668   6.985   3.343  10.059 -0.0938 -0.8395 -0.3973
  810MOL0     C11669   6.995   3.250  10.161  0.2153 -0.2461  0.0615
  810MOL0     C11670   6.992   3.320  10.294  0.5266 -0.0631 -0.3230
  810MOL0     C11671   7.017   3.106  10.138  0.1384 -1.3315  0.0505
  810MOL0     C11672   7.006   3.014  10.245  0.1817  0.4091  0.2112
  810MOL0     O11673   7.072   2.901  10.237 -0.2661  0.0531 -0.2257
  810MOL0     C11674   7.052   2.812  10.339 -0.2227 -1.0182  0.2222
  810MOL0     C11675   7.009   2.687  10.316 -0.1912  0.5726  0.0154
  810MOL0     C11676   6.969   2.600  10.419  0.5381 -0.7400  0.3197
  810MOL0     C11677   7.002   2.623  10.552  1.2590 -0.3010 -0.5412
  810MOL0     O11678   6.949   2.537  10.649 -0.3938 -0.0484 -0.4021
  810MOL0     C11679   6.904   2.595  10.768 -0.5697  0.0528  0.3177
  810MOL0     C11680   6.857   2.493  10.871 -0.6880 -0.0833 -0.8208
  810MOL0     C11681   6.709   2.463  10.847 -0.1909 -0.0227 -0.4700
  810MOL0     C11682   6.680   2.411  10.708  0.0285 -0.6880 -0.7360
  810MOL0     C11683   6.540   2.342  10.689  0.0337  0.6864 -0.4709
  810MOL0     C11684   6.515   2.301  10.543 -0.5364 -0.5880  0.0954
  810MOL0     C11685   6.376   2.237  10.539  0.3883  0.1518  0.6872
  810MOL0     C11686   6.343   2.164  10.410 -0.6149  0.4957  0.6071
  810MOL0    Cl11687   6.437   2.008  10.414 -0.1403  0.4254  0.3401
  810MOL0     C11688   7.054   2.752  10.579  0.2451  1.0720  0.2201
  810MOL0     C11689   7.084   2.840  10.478  1.1743 -0.2021 -0.7641
  810MOL0     O11690   6.918   3.033  10.333  0.2441  0.2487  0.4708
  810MOL0     C11691   7.031   3.068  10.003  0.0054  0.6857  1.0834
  810MOL0     C11692   7.024   3.159   9.900  0.7842  0.0830  0.7901
  810MOL0     N11693   7.213   3.881   9.699 -0.1039  0.4815  0.6287
  810MOL0     N11694   7.227   3.981   9.617 -0.7471 -0.7406  0.4562
  810MOL0     C11695   7.621   4.925   9.272 -0.0477 -0.2804  0.8358
  810MOL0     C11696   7.546   5.017   9.334  0.1056 -0.2023  0.4118
  810MOL0     C11697   7.302   5.338   9.527 -0.0693 -0.4407  0.9425
  810MOL0     C11698   7.332   5.357   9.661 -0.7628  0.2194 -0.8669
  810MOL0     C11699   7.236   5.412   9.747 -0.4267  0.2315  0.6278
  810MOL0     C11700   7.115   5.462   9.703  0.4777 -0.6246  0.0571
  810MOL0     O11701   7.021   5.519   9.789 -0.1937 -0.2166  0.7950
  810MOL0     C11702   7.065   5.610   9.890 -0.3508  1.3197 -0.8014
  810MOL0     C11703   6.951   5.662   9.976 -0.1264  0.5213 -0.1912
  810MOL0     C11704   6.863   5.753   9.888  0.7193  0.3305 -0.5351
  810MOL0     C11705   6.750   5.832   9.964  0.1273 -0.4504 -0.8523
  810MOL0     C11706   6.801   5.899  10.078  0.5170  0.2336 -0.0667
  810MOL0     C11707   6.846   5.949  10.179  0.7633  0.7733  0.2871
  810MOL0     C11708   7.080   5.448   9.571  0.0701 -0.2052 -0.3381
  810MOL0     C11709   7.173   5.390   9.486  0.2776 -0.1146 -0.1951
  810MOL0     C11710   7.151   5.385   9.345  0.3535 -0.7434 -0.9333
  810MOL0     H11711   7.332   5.100   9.079 -0.4064  1.0134  1.5810
  810MOL0     H11712   7.465   4.933   8.963 -0.8173 -1.8214  0.2801
  810MOL0     H11713   7.669   4.632   8.929 -4.2304 -3.5734 -1.1736
  810MOL0     H11714   7.559   4.758   8.900 -0.4753 -2.3282 -0.2518
  810MOL0     H11715   7.419   4.678   9.054  0.2593 -0.2631  1.1485
  810MOL0     H11716   7.460   4.551   8.932  0.8142 -0.9759 -0.2657
  810MOL0     H11717   7.604   4.440   9.128 -0.7059  0.9691  1.7524
  810MOL0     H11718   7.513   4.531   9.235 -1.5007 -0.3879  1.0774
  810MOL0     H11719   7.310   4.435   9.129  0.8656  1.4426  0.4782
  810MOL0     H11720   7.417   4.331   9.022 -1.0361  0.3262 -0.6315
  810MOL0     H11721   7.363   4.312   9.302 -0.1854 -3.1843  1.0422
  810MOL0     H11722   7.536   4.289   9.249  0.2127  0.2421 -0.0852
  810MOL0     H11723   7.294   4.126   9.133  1.0603  1.6239 -2.7904
  810MOL0     H11724   7.461   4.097   9.102  1.0665  1.4821 -0.2085
  810MOL0     H11725   7.487   4.063   9.349 -1.1418  0.0493  0.5018
  810MOL0     H11726   7.416   3.933   9.246 -0.6928  0.1921 -1.4511
  810MOL0     H11727   7.263   4.140   9.424 -7.2529 -0.0507  1.0736
  810MOL0     H11728   7.185   4.053   9.304  1.2447  2.7945  0.9145
  810MOL0     H11729   7.248   3.734   9.409 -1.8121 -3.6404  2.7580
  810MOL0     H11730   7.374   3.628   9.698  1.8182  0.3213 -5.9535
  810MOL0     H11731   7.260   3.553   9.591 -2.2422  2.6417 -2.9422
  810MOL0     H11732   7.217   3.488   9.824 -0.5796 -0.4848 -0.2120
  810MOL0     H11733   7.195   3.659   9.871  1.5460 -3.3760  2.9675
  810MOL0     H11734   7.003   3.693   9.734 -3.4527 -1.8868 -1.5498
  810MOL0     H11735   7.032   3.542   9.648  2.4341 -1.2020 -0.5011
  810MOL0     H11736   6.958   3.563   9.949 -1.9057  0.2041 -0.2421
  810MOL0     H11737   6.846   3.553   9.812 -2.1995 -2.3517  2.2727
  810MOL0     H11738   6.955   3.442  10.092 -0.7391 -1.4651  0.9541
  810MOL0     H11739   7.045   3.416  10.295  2.9189 -1.2986  1.0905
  810MOL0     H11740   7.036   3.255  10.370  0.1107  0.8738  0.7578
  810MOL0     H11741   6.889   3.330  10.330  0.8245 -0.2869  0.6332
  810MOL0     H11742   6.987   2.677  10.210 -1.3300 -0.3628  0.3235
  810MOL0     H11743   6.905   2.513  10.408  0.4398 -0.6277 -0.0234
  810MOL0     H11744   6.984   2.654  10.813 -0.2296 -0.6951  0.7013
  810MOL0     H11745   6.831   2.670  10.735  1.7952  1.3653 -2.4790
  810MOL0     H11746   6.928   2.410  10.874 -2.6164 -1.7776  1.7024
  810MOL0     H11747   6.867   2.540  10.969  2.3421  0.4051 -1.2738
  810MOL0     H11748   6.640   2.546  10.865  1.3345  1.4079 -1.0087
  810MOL0     H11749   6.677   2.389  10.921  1.6192 -0.6584 -0.2552
  810MOL0     H11750   6.756   2.341  10.671  0.3879  0.4284 -2.2046
  810MOL0     H11751   6.681   2.496  10.639  2.5725 -0.3904 -0.4278
  810MOL0     H11752   6.542   2.259  10.760 -0.4416 -0.5998 -1.9151
  810MOL0     H11753   6.459   2.414  10.706  1.6134  3.9411 -4.8904
  810MOL0     H11754   6.597   2.232  10.522  1.2959  2.4370 -4.2406
  810MOL0     H11755   6.527   2.392  10.483  0.7097  1.2914  2.9127
  810MOL0     H11756   6.311   2.325  10.534 -0.1185 -0.2885 -0.9910
  810MOL0     H11757   6.356   2.185  10.634  1.2036  2.7376  2.3709
  810MOL0     H11758   6.364   2.219  10.318 -1.2888 -3.3271 -2.0519
  810MOL0     H11759   6.236   2.144  10.399 -0.3231 -0.8103 -0.1254
  810MOL0     H11760   7.079   2.781  10.680  3.4447  0.9942 -0.4556
  810MOL0     H11761   7.136   2.934  10.494 -0.1745  0.2111  1.7848
  810MOL0     H11762   7.052   2.965   9.977  0.8654  1.3002 -0.8246
  810MOL0     H11763   7.029   3.132   9.795 -1.1970  1.8542  0.1848
  810MOL0     H11764   7.700   4.882   9.333 -1.8320 -2.4391  1.7972
  810MOL0     H11765   7.584   5.032   9.435 -2.2912 -0.2750  1.3770
  810MOL0     H11766   7.423   5.316   9.703 -1.1220 -2.7833 -2.7496
  810MOL0     H11767   7.265   5.419   9.852 -2.3434 -4.4237  1.7146
  810MOL0     H11768   7.141   5.561   9.953 -0.7060  0.8651 -0.7213
  810MOL0     H11769   7.114   5.691   9.835  0.9132  1.4211  0.4232
  810MOL0     H11770   6.998   5.713  10.061  1.6226  0.1342 -0.8893
  810MOL0     H11771   6.893   5.576  10.008 -1.3289  1.4586  0.2359
  810MOL0     H11772   6.932   5.822   9.840 -0.2362  0.7013 -1.4228
  810MOL0     H11773   6.809   5.690   9.816 -2.3548  1.3836  0.6822
  810MOL0     H11774   6.674   5.756   9.984  0.2060 -1.2736 -3.3144
  810MOL0     H11775   6.707   5.901   9.891 -0.5094 -1.1179 -1.1172
  810MOL0     H11776   6.892   5.997  10.264  1.6927  0.1991  0.1199
  810MOL0     H11777   6.990   5.490   9.529 -0.3518 -1.1427 -0.3847
  810MOL0     H11778   7.067   5.454   9.328  2.3183  1.6295 -1.6713
  810MOL0     H11779   7.238   5.430   9.295 -1.0295  0.4543 -2.3898
  810MOL0     H11780   7.126   5.290   9.297 -0.5086  0.2337 -2.5375
  811MOL0     O11781   8.943   7.508   5.283  0.2578  0.4585  0.5236
  811MOL0     C11782   8.821   7.496   5.261  0.0176  0.2783  0.1559
  811MOL0     O11783   8.735   7.410   5.331  0.5467 -0.4002 -0.3384
  811MOL0     C11784   8.756   7.423   5.468 -0.3549  0.5303 -0.2119
  811MOL0     C11785   8.830   7.326   5.546 -0.9564  0.2668  0.3072
  811MOL0     C11786   8.834   7.323   5.684 -0.3009  1.0960  0.4907
  811MOL0     C11787   8.786   7.433   5.749  0.1792  0.0807 -0.5731
  811MOL0     O11788   8.786   7.447   5.889 -0.1844 -0.2445 -0.1429
  811MOL0     C11789   8.794   7.323   5.968 -0.1488  0.3943  2.1522
  811MOL0     C11790   8.783   7.363   6.116  0.1199 -0.4576  1.5189
  811MOL0     C11791   8.643   7.424   6.134  1.0782 -0.0629  0.3354
  811MOL0     C11792   8.607   7.445   6.286  0.9419  0.0191  0.3064
  811MOL0     C11793   8.462   7.477   6.315  0.3336 -0.4875  0.5461
  811MOL0     C11794   8.427   7.539   6.457 -0.3108 -0.3266  0.4789
  811MOL0     C11795   8.284   7.586   6.457 -0.4586 -0.3019  0.1036
  811MOL0     C11796   8.264   7.669   6.589 -0.0565 -1.1975 -0.1889
  811MOL0     N11797   8.222   7.603   6.715  0.4452  0.3792  0.3085
  811MOL0     C11798   8.103   7.554   6.752  0.6729  1.4357 -0.1996
  811MOL0     C11799   8.114   7.486   6.870 -0.4029 -0.2005  0.4472
  811MOL0     C11800   8.008   7.416   6.945 -0.1260 -0.4007  0.7906
  811MOL0     C11801   8.015   7.271   6.926 -0.3529  0.3024 -0.1684
  811MOL0     C11802   7.935   7.195   7.027 -0.0918  0.6383  0.9391
  811MOL0     C11803   7.958   7.047   7.008 -0.2915  0.0086  0.0615
  811MOL0     O11804   8.100   7.019   7.028 -0.7193 -0.0910 -0.2189
  811MOL0     C11805   8.141   7.029   7.157  0.6180 -0.8923 -0.0918
  811MOL0     C11806   8.212   7.140   7.202 -0.1627  0.1032  0.3717
  811MOL0     C11807   8.242   7.156   7.340  0.8894  0.7905 -0.8753
  811MOL0     C11808   8.300   7.284   7.382 -0.3117  0.5819 -0.5075
  811MOL0     C11809   8.221   7.053   7.430  0.9449  0.3889 -0.4930
  811MOL0     C11810   8.279   7.057   7.564  0.0482 -0.4211 -0.6500
  811MOL0     O11811   8.201   7.011   7.669 -0.2955  0.3406 -0.5666
  811MOL0     C11812   8.257   7.019   7.793 -1.1292 -0.4466 -0.6168
  811MOL0     C11813   8.307   6.912   7.862 -0.7435  0.2418 -0.6464
  811MOL0     C11814   8.361   6.939   7.989  0.4025 -0.1338 -0.1084
  811MOL0     C11815   8.354   7.065   8.046  0.0743  0.0764  0.7296
  811MOL0     O11816   8.409   7.075   8.172  0.4681  0.8624 -0.3959
  811MOL0     C11817   8.372   7.190   8.246  0.5186 -0.8354 -0.4418
  811MOL0     C11818   8.380   7.130   8.385 -0.2325  0.4450  0.3844
  811MOL0     C11819   8.517   7.064   8.429 -0.8756 -0.5022 -0.2120
  811MOL0     C11820   8.514   6.979   8.557 -0.0065 -0.0143  0.1770
  811MOL0     C11821   8.667   6.930   8.576 -0.2975 -0.0789 -0.4524
  811MOL0     C11822   8.686   6.835   8.691 -0.5207 -0.3473  0.1663
  811MOL0     C11823   8.656   6.895   8.832  0.1497  0.5202 -0.0014
  811MOL0     C11824   8.718   6.803   8.947  1.2308  0.2862 -0.7218
  811MOL0    Cl11825   8.645   6.641   8.951 -0.1239 -0.1008 -0.4946
  811MOL0     C11826   8.305   7.170   7.968  0.0194 -0.4870 -0.6442
  811MOL0     C11827   8.256   7.153   7.841 -0.4543  0.9748 -0.0287
  811MOL0     O11828   8.391   7.106   7.576  0.3854  0.1634 -0.1782
  811MOL0     C11829   8.143   6.943   7.382 -0.5839  0.0562  0.6866
  811MOL0     C11830   8.103   6.934   7.250 -0.4743  0.0207 -0.2943
  811MOL0     N11831   8.249   7.505   6.906 -0.4689  0.6275  0.2263
  811MOL0     N11832   8.310   7.567   6.810  0.0535  0.6921  0.1979
  811MOL0     C11833   8.729   7.546   5.677  0.1284  0.1400 -0.2817
  811MOL0     C11834   8.710   7.537   5.542 -0.0282 -0.1480  0.1251
  811MOL0     C11835   8.770   7.571   5.141  0.2561 -0.2991 -0.0128
  811MOL0     C11836   8.863   7.656   5.079  0.8477  0.0863  0.9402
  811MOL0     C11837   8.845   7.700   4.944  0.0011  0.9320 -0.8226
  811MOL0     C11838   8.722   7.685   4.881  0.7939  0.0783 -0.7636
  811MOL0     O11839   8.689   7.750   4.762 -0.0482  0.1308  0.1254
  811MOL0     C11840   8.796   7.798   4.675  0.6807 -1.0485  0.1133
  811MOL0     C11841   8.861   7.685   4.593  0.5698 -0.4027 -0.5355
  811MOL0     C11842   8.787   7.621   4.485  0.8337  0.4023  0.8621
  811MOL0     C11843   8.865   7.513   4.419  0.1654 -0.1862 -1.4375
  811MOL0     C11844   8.789   7.454   4.306 -0.6295  0.5572  0.4090
  811MOL0     C11845   8.725   7.404   4.219 -0.2987 -0.5137 -0.8376
  811MOL0     C11846   8.615   7.622   4.952  0.6007  0.5515 -0.9404
  811MOL0     C11847   8.635   7.561   5.080  0.3224  0.4350  0.3796
  811MOL0     C11848   8.530   7.476   5.134 -0.6393 -0.4295  0.5635
  811MOL0     H11849   8.881   7.245   5.495  1.6366  1.0928  1.4362
  811MOL0     H11850   8.884   7.245   5.741  0.1348  1.0574  0.0605
  811MOL0     H11851   8.890   7.273   5.953  0.1011  1.5189 -0.5229
  811MOL0     H11852   8.705   7.266   5.941 -0.0872  2.5456 -4.2390
  811MOL0     H11853   8.782   7.269   6.172 -0.0198 -1.1124  0.4364
  811MOL0     H11854   8.869   7.427   6.139  0.9691 -1.8391  2.3109
  811MOL0     H11855   8.628   7.521   6.084 -2.5356 -0.5226  0.2409
  811MOL0     H11856   8.565   7.357   6.097 -0.3641  1.2510  0.8921
  811MOL0     H11857   8.625   7.349   6.335  0.1098 -0.1644  0.2719
  811MOL0     H11858   8.672   7.518   6.337  0.0610  0.7832  0.3654
  811MOL0     H11859   8.406   7.387   6.288  2.4405 -1.3729 -1.2544
  811MOL0     H11860   8.435   7.552   6.241  3.4893 -0.8875 -1.1725
  811MOL0     H11861   8.446   7.463   6.534  2.3996  1.1858  1.4306
  811MOL0     H11862   8.498   7.620   6.473 -0.5604  0.0022 -0.0531
  811MOL0     H11863   8.217   7.501   6.443 -0.3275 -0.0684 -2.2160
  811MOL0     H11864   8.264   7.663   6.382  1.2424 -1.2114 -1.3768
  811MOL0     H11865   8.351   7.735   6.593 -1.1460  0.8757 -4.5960
  811MOL0     H11866   8.172   7.724   6.570 -0.4421 -2.7907 -3.8742
  811MOL0     H11867   8.006   7.551   6.702  0.2353 -0.6990  0.6652
  811MOL0     H11868   7.914   7.449   6.899  1.9504  3.3671 -1.2584
  811MOL0     H11869   8.027   7.447   7.048  1.0584 -0.7140  0.6801
  811MOL0     H11870   7.968   7.243   6.831 -2.5396 -2.7927  1.6524
  811MOL0     H11871   8.116   7.232   6.916 -0.9308 -1.4127  0.3180
  811MOL0     H11872   7.954   7.231   7.128 -2.5071  0.4434  1.5214
  811MOL0     H11873   7.830   7.207   7.000  0.2847 -1.5869 -2.1395
  811MOL0     H11874   7.900   6.988   7.079  4.2909 -2.4045  2.2368
  811MOL0     H11875   7.933   7.020   6.905  0.6218  4.9310 -1.7570
  811MOL0     H11876   8.230   7.213   7.124  2.1640 -0.8888 -0.0846
  811MOL0     H11877   8.294   7.353   7.297  3.2395  3.0147  0.9630
  811MOL0     H11878   8.407   7.292   7.403 -0.1519  3.1427 -1.9394
  811MOL0     H11879   8.243   7.333   7.461 -0.2494  0.4051 -0.3512
  811MOL0     H11880   8.293   6.814   7.817  0.5764  0.4829 -1.6245
  811MOL0     H11881   8.393   6.854   8.048 -0.8020 -2.6651 -2.8974
  811MOL0     H11882   8.451   7.262   8.226 -0.7431  1.0970  1.1685
  811MOL0     H11883   8.269   7.226   8.232  1.6971  3.0751 -0.2047
  811MOL0     H11884   8.375   7.207   8.462  1.3282  0.4262  0.5478
  811MOL0     H11885   8.289   7.071   8.393  1.2608 -2.1300 -0.3072
  811MOL0     H11886   8.596   7.137   8.449  0.7271 -1.9533 -1.0144
  811MOL0     H11887   8.560   7.009   8.344 -3.2179  1.5451 -2.8938
  811MOL0     H11888   8.457   6.886   8.548  0.8340 -0.2919 -3.7955
  811MOL0     H11889   8.476   7.032   8.645 -0.2870  0.4458 -0.2178
  811MOL0     H11890   8.709   6.877   8.490 -0.3956  1.5182 -1.5317
  811MOL0     H11891   8.738   7.012   8.594  2.2639 -2.4809  1.1241
  811MOL0     H11892   8.788   6.796   8.680 -0.3701  0.6331 -2.9156
  811MOL0     H11893   8.620   6.749   8.677  0.6629 -1.2063 -0.3499
  811MOL0     H11894   8.549   6.896   8.853  0.1103  0.2048 -0.1966
  811MOL0     H11895   8.709   6.990   8.841  3.7196 -1.2306 -0.7231
  811MOL0     H11896   8.703   6.858   9.040 -2.7332 -0.0979 -0.9445
  811MOL0     H11897   8.827   6.794   8.939  1.1831  0.5305 -1.9188
  811MOL0     H11898   8.312   7.275   7.996 -1.0524 -0.2510 -1.2132
  811MOL0     H11899   8.216   7.233   7.780 -0.0807  0.5072 -0.9096
  811MOL0     H11900   8.132   6.860   7.451 -0.1214  0.9158  1.8194
  811MOL0     H11901   8.045   6.846   7.223  2.2295 -1.6298 -1.0483
  811MOL0     H11902   8.690   7.633   5.729  0.1982  0.0605 -0.0961
  811MOL0     H11903   8.665   7.619   5.488 -0.1782 -2.4725 -3.6733
  811MOL0     H11904   8.966   7.665   5.113  0.8369  2.1789  0.5415
  811MOL0     H11905   8.929   7.751   4.898 -2.2243  1.6817 -4.4480
  811MOL0     H11906   8.768   7.864   4.593  0.6155 -3.1650 -1.6690
  811MOL0     H11907   8.868   7.838   4.747 -0.2831 -3.7387  2.7951
  811MOL0     H11908   8.887   7.609   4.668  0.2938  1.6613  1.7593
  811MOL0     H11909   8.951   7.733   4.553  0.5114  1.4715  1.4205
  811MOL0     H11910   8.698   7.575   4.528 -0.7513  1.9901 -0.5536
  811MOL0     H11911   8.755   7.690   4.406  0.0267 -1.8881 -0.9087
  811MOL0     H11912   8.874   7.429   4.489 -3.9864 -2.2994 -3.0972
  811MOL0     H11913   8.959   7.558   4.386 -2.2049  3.3687 -4.1055
  811MOL0     H11914   8.690   7.350   4.133  1.7311 -2.6255 -0.4610
  811MOL0     H11915   8.525   7.606   4.894 -0.4168 -1.6915  1.0467
  811MOL0     H11916   8.439   7.481   5.074 -1.2978 -0.3156  1.5490
  811MOL0     H11917   8.546   7.368   5.144 -0.9502 -0.2855  3.3199
  811MOL0     H11918   8.514   7.512   5.236 -1.3918 -1.9969  1.0353
  812MOL0     O11919   5.426   5.167   9.471  0.8234  0.1669  0.0160
  812MOL0     C11920   5.522   5.238   9.475  0.2661  0.8234  0.0293
  812MOL0     O11921   5.582   5.288   9.590  0.5098 -0.0282  0.7850
  812MOL0     C11922   5.508   5.279   9.709 -0.3186  0.5616 -0.4172
  812MOL0     C11923   5.509   5.394   9.788  0.2097 -0.2399 -0.1690
  812MOL0     C11924   5.480   5.388   9.922 -0.1883 -0.0330  1.0353
  812MOL0     C11925   5.446   5.268   9.985  0.0054  0.1249  0.2246
  812MOL0     O11926   5.421   5.264  10.120  0.1944  0.5463 -0.0798
  812MOL0     C11927   5.330   5.363  10.173 -0.4857  0.1678 -0.4461
  812MOL0     C11928   5.391   5.472  10.259  0.1242  0.3985  0.3785
  812MOL0     C11929   5.489   5.437  10.369 -0.2997 -0.7627 -0.2165
  812MOL0     C11930   5.436   5.331  10.466 -0.8283 -0.5608  0.2216
  812MOL0     C11931   5.486   5.358  10.607 -0.0122 -0.2669  0.0821
  812MOL0     C11932   5.439   5.256  10.715  0.1016 -0.3180 -0.4405
  812MOL0     C11933   5.537   5.242  10.829 -0.0440 -0.1681 -0.1185
  812MOL0     C11934   5.543   5.370  10.918  0.3719  0.5657  0.7356
  812MOL0     N11935   5.655   5.362  11.002 -0.7607  0.2573 -0.5564
  812MOL0     C11936   5.773   5.299  10.995  0.5551  0.4882  0.5494
  812MOL0     C11937   5.843   5.327  11.106 -0.3109  0.9501  0.0236
  812MOL0     C11938   5.982   5.280  11.144  0.5322 -0.5907 -0.1339
  812MOL0     C11939   6.080   5.256  11.022  0.9314 -0.2056 -0.3406
  812MOL0     C11940   6.218   5.189  11.061  0.1483 -0.6558  0.1477
  812MOL0     C11941   6.260   5.205  11.207 -0.2751  0.1284  0.0150
  812MOL0     O11942   6.390   5.155  11.244 -0.3398  0.4693 -0.5325
  812MOL0     C11943   6.417   5.184  11.380 -0.6203  0.2112  0.7130
  812MOL0     C11944   6.536   5.137  11.428  0.6170  0.8921 -0.0053
  812MOL0     C11945   6.587   5.164  11.555 -0.7762 -0.0394  0.4102
  812MOL0     C11946   6.730   5.110  11.585 -0.1128  0.2213 -0.4196
  812MOL0     C11947   6.507   5.222  11.656 -1.0256 -0.5647 -0.1959
  812MOL0     C11948   6.554   5.255  11.801 -0.6699  0.8558  0.4883
  812MOL0     O11949   6.467   5.322  11.881 -0.1718  0.4287 -0.1319
  812MOL0     C11950   6.522   5.407  11.970  0.3629 -0.1309  0.1892
  812MOL0     C11951   6.637   5.489  11.948 -0.4976 -0.2926  0.1934
  812MOL0     C11952   6.698   5.561  12.048 -0.2109  1.2493  0.5670
  812MOL0     C11953   6.664   5.534  12.178 -0.6175  0.0065  0.4301
  812MOL0     O11954   6.758   5.574  12.271  0.7390 -0.3376 -0.4120
  812MOL0     C11955   6.715   5.634  12.393  0.1494  0.0454 -0.6032
  812MOL0     C11956   6.830   5.670  12.482  1.0043 -0.1534 -1.0428
  812MOL0     C11957   6.893   5.802  12.429 -0.2484  0.2999 -0.2995
  812MOL0     C11958   7.021   5.839  12.516 -0.0755  0.1393  0.1457
  812MOL0     C11959   7.109   5.970  12.474  0.2181  0.1511  0.0349
  812MOL0     C11960   7.252   5.938  12.517 -0.5107  0.2998  0.1641
  812MOL0     C11961   7.263   5.911  12.668 -0.8282  0.4944 -0.5421
  812MOL0     C11962   7.408   5.915  12.719  0.6528  0.3319  0.1814
  812MOL0    Cl11963   7.392   5.947  12.895  0.1005 -0.3624 -0.1045
  812MOL0     C11964   6.543   5.465  12.208 -0.1133  0.1938  0.0040
  812MOL0     C11965   6.469   5.397  12.103 -0.6406 -0.5095  0.1356
  812MOL0     O11966   6.663   5.205  11.840  0.2194  0.2527  0.3977
  812MOL0     C11967   6.381   5.259  11.609  0.2504  0.5790 -0.7064
  812MOL0     C11968   6.336   5.244  11.477  0.3889  0.4940  0.6480
  812MOL0     N11969   5.764   5.407  11.180 -0.2286  0.2678  0.8446
  812MOL0     N11970   5.655   5.445  11.109 -0.9960 -0.0811 -0.0600
  812MOL0     C11971   5.445   5.150   9.908 -0.5313 -1.0650  0.6130
  812MOL0     C11972   5.477   5.159   9.771 -0.1763 -0.1210 -0.1388
  812MOL0     C11973   5.590   5.267   9.349  1.0652  0.2921 -0.1430
  812MOL0     C11974   5.689   5.186   9.295 -0.7986 -0.0606  0.5442
  812MOL0     C11975   5.766   5.227   9.187  0.4002 -0.2267 -0.0964
  812MOL0     C11976   5.732   5.344   9.123 -0.4119 -0.0406 -0.3386
  812MOL0     O11977   5.815   5.377   9.019 -0.0820  0.6105  0.3095
  812MOL0     C11978   5.779   5.474   8.924 -0.0878  0.1751 -0.9352
  812MOL0     C11979   5.829   5.614   8.953 -0.2246 -0.2205  0.4645
  812MOL0     C11980   5.975   5.653   8.914 -0.3063  0.6990  0.3031
  812MOL0     C11981   6.033   5.781   8.966 -0.0658 -0.2301  0.6223
  812MOL0     C11982   6.056   5.788   9.109 -0.1289 -0.6788  0.1968
  812MOL0     C11983   6.079   5.794   9.228  0.2483 -0.3040 -0.2602
  812MOL0     C11984   5.635   5.434   9.172 -0.0704  0.5270  0.9251
  812MOL0     C11985   5.556   5.391   9.276  0.2712  0.7647 -0.2351
  812MOL0     C11986   5.454   5.483   9.332 -0.3117 -0.1850 -0.0765
  812MOL0     H11987   5.527   5.486   9.733 -0.6899 -1.9101 -3.4798
  812MOL0     H11988   5.487   5.481   9.978  0.3223 -0.6279  1.9924
  812MOL0     H11989   5.252   5.322  10.238  2.4426  1.0987  4.1625
  812MOL0     H11990   5.269   5.409  10.095  0.7381 -0.3497 -1.7424
  812MOL0     H11991   5.432   5.545  10.188 -2.4532 -0.9895 -2.8009
  812MOL0     H11992   5.304   5.525  10.297  0.8177  2.0548 -0.2373
  812MOL0     H11993   5.577   5.400  10.316 -0.6067  0.6491 -1.7786
  812MOL0     H11994   5.517   5.527  10.423 -1.2039  0.3498 -1.5169
  812MOL0     H11995   5.327   5.337  10.478 -0.9521  0.2618 -1.0694
  812MOL0     H11996   5.461   5.233  10.425  0.4752 -0.1594  0.0329
  812MOL0     H11997   5.449   5.452  10.647 -3.3987 -1.9715  1.4021
  812MOL0     H11998   5.593   5.351  10.587  0.3219 -1.1549  2.0146
  812MOL0     H11999   5.341   5.279  10.760  0.3322  1.1970 -0.6486
  812MOL0     H12000   5.429   5.157  10.668  2.7988  0.3941 -2.8208
  812MOL0     H12001   5.629   5.218  10.776 -0.0878 -2.4145  0.7137
  812MOL0     H12002   5.516   5.161  10.900 -4.3274 -2.7733 -3.7833
  812MOL0     H12003   5.548   5.462  10.858  0.8630 -0.1315 -0.3353
  812MOL0     H12004   5.453   5.362  10.979  0.7125 -4.9602  1.0376
  812MOL0     H12005   5.796   5.240  10.907  2.7320  1.2410  0.5571
  812MOL0     H12006   5.981   5.194  11.212  0.8139 -0.1036  0.4895
  812MOL0     H12007   6.019   5.364  11.204 -2.2205  1.3605 -0.9706
  812MOL0     H12008   6.041   5.200  10.937 -1.9675  0.3611  0.4989
  812MOL0     H12009   6.107   5.358  10.992  1.0458  1.8219  5.3698
  812MOL0     H12010   6.212   5.080  11.051  0.7193 -0.5408 -1.8272
  812MOL0     H12011   6.298   5.219  10.993  0.9664  0.8504  1.7165
  812MOL0     H12012   6.245   5.310  11.233 -0.6764 -0.2405  1.3415
  812MOL0     H12013   6.178   5.152  11.257 -0.5830  0.5897  0.0042
  812MOL0     H12014   6.584   5.074  11.354 -1.2110 -0.2833 -0.2483
  812MOL0     H12015   6.777   5.076  11.492  1.8821  1.5148  0.0542
  812MOL0     H12016   6.748   5.027  11.655  0.7339  0.4264 -0.3805
  812MOL0     H12017   6.789   5.194  11.622 -1.5314  1.0759 -0.0633
  812MOL0     H12018   6.675   5.501  11.847  1.7268 -1.7859  0.7594
  812MOL0     H12019   6.783   5.622  12.018 -1.6643  4.3571  2.2655
  812MOL0     H12020   6.654   5.724  12.385  0.6024  0.4390  0.2783
  812MOL0     H12021   6.648   5.565  12.445  1.0391 -0.3183  0.0848
  812MOL0     H12022   6.782   5.694  12.577 -0.8981 -1.7342 -1.5515
  812MOL0     H12023   6.906   5.592  12.489 -0.7249 -1.9799 -1.6282
  812MOL0     H12024   6.832   5.892  12.442 -0.6006  0.5888 -3.3401
  812MOL0     H12025   6.917   5.796  12.323  1.6735 -0.8983  0.1509
  812MOL0     H12026   7.076   5.745  12.515 -2.0006 -1.0411 -0.5002
  812MOL0     H12027   6.983   5.845  12.619  0.5182 -0.7352  0.4261
  812MOL0     H12028   7.101   5.995  12.368  1.4758  4.0842  0.7218
  812MOL0     H12029   7.064   6.059  12.518  2.8719  3.0351 -2.6082
  812MOL0     H12030   7.310   6.028  12.495  0.7915 -0.1410  1.6209
  812MOL0     H12031   7.290   5.852  12.460 -2.6323 -0.2262 -0.5301
  812MOL0     H12032   7.240   5.806  12.686 -0.7866  1.0186  3.5039
  812MOL0     H12033   7.200   5.975  12.732 -1.6689 -0.2016 -0.6520
  812MOL0     H12034   7.452   5.997  12.661 -1.0626 -0.3584 -2.2785
  812MOL0     H12035   7.462   5.826  12.686  0.2065  1.4090 -4.1136
  812MOL0     H12036   6.523   5.450  12.313  0.9928  5.2774  1.1931
  812MOL0     H12037   6.389   5.327  12.126 -1.5388  1.0696  2.2826
  812MOL0     H12038   6.318   5.312  11.680  0.1182  2.1745 -1.9692
  812MOL0     H12039   6.245   5.292  11.443  2.3736  4.1793  0.0766
  812MOL0     H12040   5.422   5.057   9.959  1.9420 -1.5870  0.8903
  812MOL0     H12041   5.489   5.066   9.716 -0.1902  2.0224 -4.1312
  812MOL0     H12042   5.718   5.091   9.338  0.3152  0.6596  1.4326
  812MOL0     H12043   5.856   5.170   9.165  1.8365  0.8979  2.3914
  812MOL0     H12044   5.825   5.435   8.833 -1.3840 -0.6891 -1.2533
  812MOL0     H12045   5.672   5.473   8.902 -0.0223 -1.1217 -1.2673
  812MOL0     H12046   5.811   5.635   9.059 -3.9727 -0.0054 -0.0661
  812MOL0     H12047   5.762   5.683   8.901 -1.2472 -1.5845 -0.1146
  812MOL0     H12048   6.038   5.572   8.953  0.6160  1.9360  1.4892
  812MOL0     H12049   5.986   5.661   8.806  0.7736 -1.4993  0.2059
  812MOL0     H12050   5.973   5.866   8.932 -0.4668 -1.4652 -1.9376
  812MOL0     H12051   6.128   5.800   8.914  1.2639 -1.4115  2.4634
  812MOL0     H12052   6.085   5.801   9.335 -3.3223 -1.5233  0.1811
  812MOL0     H12053   5.614   5.532   9.130  0.0043 -1.2106 -3.8107
  812MOL0     H12054   5.364   5.443   9.378  0.0574 -0.6908  0.2184
  812MOL0     H12055   5.509   5.534   9.412 -0.2796  2.3950 -1.6134
  812MOL0     H12056   5.423   5.558   9.259  0.3156  3.1138  2.7503
  813MOL0     O12057   5.004   0.186   1.867 -0.6151  0.2621 -0.0723
  813MOL0     C12058   5.127   0.178   1.870  1.1968 -0.2259 -0.1128
  813MOL0     O12059   5.205   0.181   1.763 -0.0594  0.2677  0.3935
  813MOL0     C12060   5.141   0.188   1.641 -0.7324 -0.3301  0.2976
  813MOL0     C12061   5.111   0.081   1.565  0.4790  0.7862 -0.2941
  813MOL0     C12062   5.029   0.098   1.456  0.3345  0.1779  0.2518
  813MOL0     C12063   4.980   0.224   1.418 -0.2107  0.0348  0.2321
  813MOL0     O12064   4.914   0.240   1.300  0.8703  0.3858 -0.0399
  813MOL0     C12065   4.857   0.370   1.267  0.5204  0.0400  0.6687
  813MOL0     C12066   4.776   0.364   1.141 -0.3305  0.1597  1.0559
  813MOL0     C12067   4.724   0.499   1.099  0.2218 -0.1806  0.1381
  813MOL0     C12068   4.656   0.517   0.968  0.4807 -0.0268  0.4115
  813MOL0     C12069   4.644   0.664   0.938  0.0257  0.8017 -0.2716
  813MOL0     C12070   4.579   0.683   0.807  0.0419  0.0586 -0.9586
  813MOL0     C12071   4.509   0.821   0.812 -0.5106  0.6886 -0.4544
  813MOL0     C12072   4.438   0.849   0.675 -0.9151 -0.4979  0.0340
  813MOL0     N12073   4.367   0.974   0.677 -0.0878  0.5787 -0.6148
  813MOL0     C12074   4.230   0.992   0.687 -0.6241  0.1814 -1.0559
  813MOL0     C12075   4.211   1.132   0.681 -0.4552 -0.1077  0.7433
  813MOL0     C12076   4.077   1.207   0.698 -0.3317 -0.2444 -1.1733
  813MOL0     C12077   3.971   1.182   0.603 -0.2764 -0.3883 -0.1096
  813MOL0     C12078   3.874   1.303   0.607  0.3949 -0.2727 -0.7098
  813MOL0     C12079   3.739   1.294   0.537 -0.2896 -0.1415  0.3199
  813MOL0     O12080   3.749   1.292   0.391  0.5625 -0.2172 -0.7442
  813MOL0     C12081   3.632   1.330   0.317 -0.3330  0.2631 -0.0183
  813MOL0     C12082   3.540   1.246   0.257 -0.3565 -0.5966 -0.0060
  813MOL0     C12083   3.416   1.300   0.214 -0.1731 -0.2706  0.0348
  813MOL0     C12084   3.310   1.209   0.143 -0.3017  0.0246  0.2899
  813MOL0     C12085   3.387   1.437   0.232  0.1090 -0.5473  0.2932
  813MOL0     C12086   3.259   1.517   0.194  0.6456 -0.0857  0.5244
  813MOL0     O12087   3.258   1.663   0.203 -0.1394 -0.5079 -0.8476
  813MOL0     C12088   3.169   1.729   0.138  1.7239  1.1405  0.6673
  813MOL0     C12089   3.200   1.758   0.002  0.3599  0.3504  0.6874
  813MOL0     C12090   3.104   1.830  -0.068 -0.5578  0.3560  0.3664
  813MOL0     C12091   2.981   1.869  -0.012 -0.3118 -0.7538 -0.3254
  813MOL0     O12092   2.882   1.955  -0.073 -0.1661  0.3264  0.3950
  813MOL0     C12093   2.928   2.047  -0.181  0.7477 -0.2312  0.0773
  813MOL0     C12094   2.998   2.173  -0.134  0.2552 -0.1387 -0.1540
  813MOL0     C12095   2.925   2.267  -0.048  0.9993  0.4546 -0.1716
  813MOL0     C12096   2.792   2.313  -0.091 -0.6375  0.6754 -0.0397
  813MOL0     C12097   2.715   2.383   0.021  0.6964  0.5016 -0.1633
  813MOL0     C12098   2.589   2.459  -0.019  0.0354 -0.7321  0.3402
  813MOL0     C12099   2.533   2.535   0.101  0.1509 -0.3390 -0.1425
  813MOL0     C12100   2.385   2.583   0.105 -0.3620 -0.3417  0.6932
  813MOL0    Cl12101   2.296   2.425   0.117  0.2995  0.0978 -0.1532
  813MOL0     C12102   2.954   1.847   0.123  0.1040  0.0946 -0.2424
  813MOL0     C12103   3.050   1.774   0.197 -0.6417  0.1902  0.6659
  813MOL0     O12104   3.165   1.453   0.142 -0.6410  0.3383  0.0872
  813MOL0     C12105   3.478   1.518   0.291 -0.0128  1.0123  0.1034
  813MOL0     C12106   3.602   1.466   0.336 -0.5753  0.4183  0.1490
  813MOL0     N12107   4.341   1.190   0.686 -0.5768  0.3285 -1.1708
  813MOL0     N12108   4.425   1.097   0.671 -0.7932  0.1905  1.0709
  813MOL0     C12109   5.024   0.333   1.492 -0.4638 -0.2190  0.1289
  813MOL0     C12110   5.100   0.314   1.604  0.2733  0.6228  0.6478
  813MOL0     C12111   5.197   0.161   2.001  0.4344  0.6522  0.0096
  813MOL0     C12112   5.328   0.110   2.013 -0.5715  0.1630 -0.4613
  813MOL0     C12113   5.382   0.076   2.133  0.1832  0.1319 -0.2956
  813MOL0     C12114   5.315   0.098   2.248  0.0694  0.0480 -0.2016
  813MOL0     O12115   5.369   0.049   2.365  0.2524 -0.8346 -0.4168
  813MOL0     C12116   5.305   0.048   2.497 -0.0421 -0.0311  0.1747
  813MOL0     C12117   5.408  -0.013   2.581  0.3110  0.8860  0.3565
  813MOL0     C12118   5.412  -0.172   2.545 -0.6731 -0.0010  0.2046
  813MOL0     C12119   5.530  -0.236   2.625  0.2121 -0.4644 -0.3815
  813MOL0     C12120   5.520  -0.218   2.766 -0.2081 -0.4814 -0.4415
  813MOL0     C12121   5.516  -0.179   2.884  0.0137 -0.3178  0.4765
  813MOL0     C12122   5.196   0.169   2.245  0.0203 -0.1106 -0.0903
  813MOL0     C12123   5.134   0.196   2.124 -0.1684 -0.5919  0.0422
  813MOL0     C12124   5.011   0.277   2.133  0.5155  0.5944  0.2867
  813MOL0     H12125   5.147  -0.019   1.586 -1.3956  0.7012  3.1866
  813MOL0     H12126   5.003   0.018   1.388  1.9589  0.2848 -0.5365
  813MOL0     H12127   4.941   0.440   1.254  1.6604 -1.7307 -2.8590
  813MOL0     H12128   4.793   0.409   1.347 -1.7680  0.7600 -1.4066
  813MOL0     H12129   4.845   0.331   1.062 -1.2812 -2.1510  1.1138
  813MOL0     H12130   4.695   0.291   1.149  1.0539 -1.3634  1.6644
  813MOL0     H12131   4.649   0.528   1.174  3.4816  0.5183  3.4238
  813MOL0     H12132   4.799   0.578   1.111  0.2012 -0.4067  2.1026
  813MOL0     H12133   4.709   0.486   0.877 -3.0558 -0.6565 -1.6110
  813MOL0     H12134   4.558   0.470   0.972 -0.6772  2.3689  1.8320
  813MOL0     H12135   4.741   0.714   0.938  1.2113 -1.3547 -0.7653
  813MOL0     H12136   4.582   0.705   1.018  0.1837  1.2440 -0.3719
  813MOL0     H12137   4.656   0.687   0.730  0.4931 -0.7699 -0.5746
  813MOL0     H12138   4.505   0.605   0.788 -2.3507  1.7681  0.5887
  813MOL0     H12139   4.590   0.893   0.826 -0.9362  1.5158 -2.0064
  813MOL0     H12140   4.445   0.829   0.900  1.7325  0.3796  1.3078
  813MOL0     H12141   4.510   0.847   0.593 -1.2095 -3.1264 -0.2518
  813MOL0     H12142   4.375   0.763   0.650  2.3096 -2.4278 -2.2840
  813MOL0     H12143   4.166   0.905   0.697 -1.5178  0.5814 -2.8127
  813MOL0     H12144   4.117   1.308   0.681  0.3438 -0.4071 -0.6089
  813MOL0     H12145   4.049   1.177   0.800  1.3277  1.2857 -0.2046
  813MOL0     H12146   4.009   1.176   0.501 -0.5550 -0.0974 -0.2345
  813MOL0     H12147   3.921   1.086   0.615  1.2311 -1.0100  1.4512
  813MOL0     H12148   3.854   1.321   0.713 -3.0436 -0.8661 -1.1448
  813MOL0     H12149   3.918   1.398   0.575 -0.7096  0.7769  0.6990
  813MOL0     H12150   3.671   1.216   0.573  2.2982 -2.7247  0.0010
  813MOL0     H12151   3.679   1.382   0.559 -2.4660 -1.7026  0.9556
  813MOL0     H12152   3.551   1.141   0.236 -1.2983 -0.2528 -2.5161
  813MOL0     H12153   3.301   1.236   0.037 -3.0099  1.2018  0.7362
  813MOL0     H12154   3.208   1.219   0.181  0.2213 -0.0312  1.7729
  813MOL0     H12155   3.340   1.104   0.149  1.9293  0.5593 -0.3399
  813MOL0     H12156   3.296   1.719  -0.028  1.2901  2.5742  0.5938
  813MOL0     H12157   3.113   1.845  -0.176 -1.6989 -2.1053 -0.1554
  813MOL0     H12158   2.996   2.003  -0.254  1.4985 -1.5173  1.4778
  813MOL0     H12159   2.835   2.071  -0.233  0.9552 -0.0422 -0.2077
  813MOL0     H12160   3.094   2.139  -0.094 -0.8374 -1.8213  1.1273
  813MOL0     H12161   3.031   2.229  -0.222 -2.1096 -0.2624 -1.1762
  813MOL0     H12162   2.990   2.351  -0.021 -0.4533  1.3156  0.7711
  813MOL0     H12163   2.914   2.205   0.042  1.9325 -1.4373 -1.3021
  813MOL0     H12164   2.740   2.222  -0.122  1.5983 -1.0878  1.0751
  813MOL0     H12165   2.794   2.386  -0.173  2.2019  0.6855 -0.0476
  813MOL0     H12166   2.682   2.311   0.096  1.1862 -0.4729 -0.8687
  813MOL0     H12167   2.787   2.454   0.063  0.6961  1.4161 -1.6284
  813MOL0     H12168   2.517   2.382  -0.048 -2.6905  1.0255  1.9615
  813MOL0     H12169   2.602   2.533  -0.098  2.5393  2.6521  3.5988
  813MOL0     H12170   2.586   2.630   0.102 -0.8138  0.2178 -0.2246
  813MOL0     H12171   2.558   2.479   0.192  1.7354  0.3900 -0.1010
  813MOL0     H12172   2.351   2.636   0.016 -1.5043 -3.0572 -0.6327
  813MOL0     H12173   2.367   2.636   0.199  2.7919  1.7274  0.2402
  813MOL0     H12174   2.869   1.886   0.179  0.8027 -0.1174  1.0111
  813MOL0     H12175   3.029   1.754   0.302 -1.0945  0.4079  0.6154
  813MOL0     H12176   3.458   1.623   0.306 -0.1500  0.7822  1.7465
  813MOL0     H12177   3.669   1.542   0.375 -1.6457  1.7789 -0.5657
  813MOL0     H12178   4.972   0.426   1.470 -4.6820 -2.6332 -1.3548
  813MOL0     H12179   5.112   0.400   1.669 -0.1499 -0.1059  1.7377
  813MOL0     H12180   5.383   0.090   1.921  1.6595  0.4330  0.7465
  813MOL0     H12181   5.475   0.021   2.139 -0.4122 -1.1696 -1.8449
  813MOL0     H12182   5.274   0.147   2.532 -3.7493 -0.5453 -1.1804
  813MOL0     H12183   5.216  -0.016   2.505  1.9419 -2.8913  1.3011
  813MOL0     H12184   5.383  -0.007   2.688  0.4324 -2.6689  0.7204
  813MOL0     H12185   5.505   0.032   2.561  2.4195 -2.7111  1.5811
  813MOL0     H12186   5.319  -0.224   2.572 -1.2789 -0.0868 -1.9047
  813MOL0     H12187   5.441  -0.191   2.442  2.1713  0.2676  0.8693
  813MOL0     H12188   5.624  -0.202   2.581 -0.0286 -2.1921 -2.3792
  813MOL0     H12189   5.530  -0.343   2.606 -1.5498 -0.7960  1.2272
  813MOL0     H12190   5.500  -0.140   2.982 -0.1167 -1.8770  1.0972
  813MOL0     H12191   5.149   0.190   2.341 -0.1089  0.3678 -0.2571
  813MOL0     H12192   5.017   0.360   2.062 -2.3365  1.7871  1.2826
  813MOL0     H12193   4.920   0.221   2.111  0.8826  0.6672 -1.5944
  813MOL0     H12194   5.004   0.322   2.232  1.5255 -1.4817  1.3646
  814MOL0     O12195   0.040   4.879   5.647  0.4679  0.2421 -0.7169
  814MOL0     C12196   0.111   4.948   5.719  0.4197  0.4668  0.5410
  814MOL0     O12197   0.061   5.055   5.795 -0.6322  0.2650  0.1868
  814MOL0     C12198  -0.066   5.101   5.790 -0.4734  0.5599 -0.7744
  814MOL0     C12199  -0.160   5.012   5.843 -0.5787 -0.5543  0.3105
  814MOL0     C12200  -0.299   5.051   5.830  0.9141  0.2211 -0.0176
  814MOL0     C12201  -0.343   5.175   5.781 -0.9782 -0.5874  0.4149
  814MOL0     O12202  -0.475   5.201   5.745  0.1687 -0.3305 -0.2466
  814MOL0     C12203  -0.569   5.180   5.857  0.1707  0.1463  0.3891
  814MOL0     C12204  -0.503   5.243   5.984  1.4793  0.7998  0.2895
  814MOL0     C12205  -0.615   5.290   6.087  0.6669  0.2127 -0.6541
  814MOL0     C12206  -0.720   5.175   6.110 -0.9171  0.3410  0.5210
  814MOL0     C12207  -0.796   5.190   6.238  0.3475  1.0218 -0.6786
  814MOL0     C12208  -0.892   5.074   6.258  0.4434  0.0168 -0.0267
  814MOL0     C12209  -0.952   5.086   6.403 -0.0534 -0.1682  0.6841
  814MOL0     C12210  -1.029   4.956   6.440  0.8973  0.3603 -0.8391
  814MOL0     N12211  -1.168   4.985   6.415 -0.1793 -0.0300  0.1680
  814MOL0     C12212  -1.246   4.897   6.351  0.5957  0.2277  0.6717
  814MOL0     C12213  -1.372   4.941   6.374  0.1706 -0.1905  0.1551
  814MOL0     C12214  -1.507   4.856   6.356 -0.1434 -0.0057  0.9037
  814MOL0     C12215  -1.587   4.925   6.244 -0.8243 -0.3931 -0.8813
  814MOL0     C12216  -1.717   4.862   6.215 -0.3124  1.8944  0.6171
  814MOL0     C12217  -1.785   4.929   6.102  0.2278 -0.6479 -0.0592
  814MOL0     O12218  -1.879   4.836   6.066 -0.0739 -0.2019  0.2022
  814MOL0     C12219  -1.957   4.868   5.956 -0.5839 -0.1701 -0.4201
  814MOL0     C12220  -1.954   4.984   5.885  0.6927  0.1520  0.7000
  814MOL0     C12221  -2.037   4.997   5.768 -0.0860  0.4914 -0.1217
  814MOL0     C12222  -1.993   5.114   5.681  0.0934 -0.5960  1.2723
  814MOL0     C12223  -2.132   4.894   5.730 -1.4786  0.6521 -0.3200
  814MOL0     C12224  -2.217   4.901   5.611  0.5351 -0.4780  0.2429
  814MOL0     O12225  -2.304   4.800   5.582  0.4045 -0.3811 -0.1806
  814MOL0     C12226  -2.379   4.802   5.467  0.6799  0.1278 -0.0836
  814MOL0     C12227  -2.487   4.891   5.462  0.4099  1.2153 -0.2326
  814MOL0     C12228  -2.567   4.873   5.348  0.8644 -0.1279 -0.1732
  814MOL0     C12229  -2.527   4.798   5.236  1.2730  0.3255  1.0136
  814MOL0     O12230  -2.602   4.787   5.120 -0.4886 -0.5566 -0.6081
  814MOL0     C12231  -2.739   4.825   5.124 -0.2503 -0.3447  0.0093
  814MOL0     C12232  -2.759   4.976   5.087  0.8119  0.6698 -1.2203
  814MOL0     C12233  -2.808   5.000   4.945  0.0389 -0.9370  0.1400
  814MOL0     C12234  -2.962   4.991   4.954 -0.2978 -0.3644  0.2042
  814MOL0     C12235  -3.030   5.002   4.821  0.1531  0.5811  0.3780
  814MOL0     C12236  -3.013   4.876   4.725  0.2624 -0.2742  0.1390
  814MOL0     C12237  -3.134   4.779   4.750 -0.2166  0.6213 -0.4343
  814MOL0     C12238  -3.105   4.633   4.806 -0.2032 -0.6322  0.3965
  814MOL0    Cl12239  -3.065   4.647   4.975 -0.1653 -0.0868  0.4121
  814MOL0     C12240  -2.410   4.729   5.239  0.4641  0.8700  1.2979
  814MOL0     C12241  -2.342   4.726   5.360 -0.1031 -0.2293  0.9520
  814MOL0     O12242  -2.198   4.992   5.534 -0.2833 -0.0752 -0.4284
  814MOL0     C12243  -2.120   4.779   5.809  0.8325  0.0987 -0.0921
  814MOL0     C12244  -2.034   4.767   5.914  0.4370  0.6129  0.0910
  814MOL0     N12245  -1.369   5.040   6.466  0.2188 -0.1795 -0.6612
  814MOL0     N12246  -1.242   5.057   6.496 -0.1222 -0.6350  0.1535
  814MOL0     C12247  -0.245   5.259   5.743  0.0407  0.2113  1.0612
  814MOL0     C12248  -0.112   5.228   5.752  0.1052 -0.6911 -0.6448
  814MOL0     C12249   0.255   4.909   5.732 -0.7452  0.1903 -0.3713
  814MOL0     C12250   0.332   4.984   5.826  0.5785  0.4148 -0.2973
  814MOL0     C12251   0.452   4.937   5.880  0.6003  0.4258  0.0075
  814MOL0     C12252   0.502   4.807   5.836 -0.9515 -0.5428  0.0718
  814MOL0     O12253   0.616   4.741   5.885  0.0132  0.4037 -0.4535
  814MOL0     C12254   0.680   4.792   6.006  0.2218 -0.3601 -0.5654
  814MOL0     C12255   0.789   4.887   5.963  0.0725 -0.2648  0.2786
  814MOL0     C12256   0.901   4.810   5.880 -0.4995  0.1728  0.2986
  814MOL0     C12257   1.026   4.893   5.837 -0.5500  0.5084  0.9733
  814MOL0     C12258   1.117   4.818   5.748 -0.0855 -0.5053 -0.2711
  814MOL0     C12259   1.206   4.749   5.699  0.3553 -0.5741  0.8705
  814MOL0     C12260   0.434   4.745   5.733  1.1226  0.3491 -0.8133
  814MOL0     C12261   0.313   4.782   5.683  0.8185 -1.3380  0.2214
  814MOL0     C12262   0.257   4.707   5.574 -0.4268  0.4195  0.2243
  814MOL0     H12263  -0.133   4.917   5.887  0.0670  1.4466  4.8672
  814MOL0     H12264  -0.374   4.981   5.864 -1.5028  2.5069 -0.3610
  814MOL0     H12265  -0.590   5.074   5.875 -3.2335  0.0016 -3.1143
  814MOL0     H12266  -0.665   5.223   5.827  1.7839  3.3383 -0.7317
  814MOL0     H12267  -0.438   5.175   6.039  1.1125  3.0448  3.8577
  814MOL0     H12268  -0.445   5.330   5.951  0.4133  1.3809 -0.1124
  814MOL0     H12269  -0.567   5.313   6.182 -1.1177 -0.3611  0.4501
  814MOL0     H12270  -0.659   5.378   6.040  3.2497  3.5509  2.6219
  814MOL0     H12271  -0.780   5.178   6.018  0.7766 -0.1627 -0.6685
  814MOL0     H12272  -0.672   5.076   6.110 -0.1229  0.7159  1.1639
  814MOL0     H12273  -0.865   5.275   6.234  0.0532  1.0080  2.1335
  814MOL0     H12274  -0.717   5.185   6.313 -0.1468 -1.3118 -0.2475
  814MOL0     H12275  -0.974   5.061   6.187  2.2316  0.6223 -2.3176
  814MOL0     H12276  -0.837   4.979   6.248  0.7167 -0.1011  2.1107
  814MOL0     H12277  -1.014   5.176   6.404  2.2667  1.5657 -0.3473
  814MOL0     H12278  -0.863   5.094   6.467 -0.0862  0.9468  0.6131
  814MOL0     H12279  -1.013   4.862   6.387  1.2433 -1.2707  1.9534
  814MOL0     H12280  -1.022   4.940   6.548 -1.2095  1.5141 -0.4694
  814MOL0     H12281  -1.210   4.820   6.283 -2.1199  1.7118 -2.7958
  814MOL0     H12282  -1.562   4.864   6.450  0.0945  1.9142  0.9084
  814MOL0     H12283  -1.487   4.753   6.324 -1.4546 -0.0675  0.2218
  814MOL0     H12284  -1.602   5.030   6.269  1.2314 -0.2054 -0.2194
  814MOL0     H12285  -1.520   4.913   6.158  1.2118 -0.3190  0.6251
  814MOL0     H12286  -1.697   4.758   6.190 -1.9848  1.3534  1.3612
  814MOL0     H12287  -1.773   4.880   6.308  0.6241 -2.5981  2.2999
  814MOL0     H12288  -1.821   5.026   6.136  2.3041 -0.8073  2.8933
  814MOL0     H12289  -1.709   4.943   6.024  1.0116  1.9734  1.0494
  814MOL0     H12290  -1.874   5.055   5.906  3.2184 -1.7346 -1.8645
  814MOL0     H12291  -1.976   5.084   5.577 -0.9293  2.8845 -0.0247
  814MOL0     H12292  -1.893   5.147   5.714  1.3745 -0.8754 -1.9735
  814MOL0     H12293  -2.055   5.203   5.695  1.2615  1.8090 -5.2898
  814MOL0     H12294  -2.504   4.968   5.537 -0.0047 -0.5563  1.5878
  814MOL0     H12295  -2.649   4.944   5.351  0.0988 -0.9785  3.0850
  814MOL0     H12296  -2.786   4.754   5.056 -0.8005  0.4697 -0.4746
  814MOL0     H12297  -2.785   4.797   5.219 -0.3574  0.2997  0.1566
  814MOL0     H12298  -2.826   5.029   5.156  1.7810 -0.9603  1.1443
  814MOL0     H12299  -2.658   5.017   5.097  1.0267 -0.2446  1.1428
  814MOL0     H12300  -2.761   4.927   4.878  1.3763  0.8310 -0.9292
  814MOL0     H12301  -2.779   5.100   4.912 -2.7008  0.8429  2.7138
  814MOL0     H12302  -2.996   5.074   5.018  0.9991 -1.0736  1.9064
  814MOL0     H12303  -2.989   4.903   5.014  0.8100  0.1081  1.4565
  814MOL0     H12304  -3.136   5.028   4.831  0.3749  1.4841  0.3916
  814MOL0     H12305  -2.993   5.094   4.776 -3.8429  2.3004  0.1385
  814MOL0     H12306  -2.925   4.821   4.760 -1.1660 -1.4976  2.0052
  814MOL0     H12307  -3.007   4.917   4.624 -0.1620 -3.3423 -1.2514
  814MOL0     H12308  -3.190   4.761   4.658 -1.9705  2.0878  0.2987
  814MOL0     H12309  -3.211   4.813   4.819  0.2284  0.9325 -0.0829
  814MOL0     H12310  -3.020   4.589   4.753 -0.9893 -0.0855 -1.3693
  814MOL0     H12311  -3.180   4.555   4.793  1.9860 -2.4578 -2.2072
  814MOL0     H12312  -2.378   4.678   5.149 -1.2084  2.9166 -0.5838
  814MOL0     H12313  -2.255   4.664   5.373 -0.5755 -0.7143  1.8930
  814MOL0     H12314  -2.183   4.699   5.771 -1.2725  2.3974 -1.7969
  814MOL0     H12315  -2.031   4.668   5.958 -1.7893  1.2371  1.8180
  814MOL0     H12316  -0.278   5.353   5.700  2.5947  2.3561  3.3699
  814MOL0     H12317  -0.046   5.312   5.730  0.6145 -1.5013 -2.3578
  814MOL0     H12318   0.280   5.068   5.872 -1.1953 -2.2539  3.0442
  814MOL0     H12319   0.504   4.983   5.964  3.8276  2.3809 -2.7991
  814MOL0     H12320   0.604   4.847   6.063  0.1860 -1.5135  0.5460
  814MOL0     H12321   0.710   4.712   6.075  3.1177  0.5179 -0.7038
  814MOL0     H12322   0.826   4.934   6.055 -0.6926 -1.0271  0.9942
  814MOL0     H12323   0.742   4.965   5.903 -0.9091 -0.7136  0.4454
  814MOL0     H12324   0.923   4.723   5.942 -3.2872  0.0329  1.2273
  814MOL0     H12325   0.847   4.771   5.793  1.2393 -3.3238  0.6210
  814MOL0     H12326   1.077   4.924   5.929  0.2114  0.3020  0.6366
  814MOL0     H12327   0.999   4.989   5.791  0.2159  0.4334  0.3345
  814MOL0     H12328   1.291   4.708   5.648  1.8208  1.6817  1.3643
  814MOL0     H12329   0.468   4.647   5.702  0.0825 -0.2414 -0.1299
  814MOL0     H12330   0.275   4.760   5.480  0.1996 -2.7636 -1.6233
  814MOL0     H12331   0.316   4.617   5.552  0.9860  1.5991 -1.0117
  814MOL0     H12332   0.157   4.664   5.585 -1.7473  3.2883  0.2207
  815MOL0     O12333   4.347   3.771   7.648  0.3078  0.2881  0.3345
  815MOL0     C12334   4.451   3.830   7.625  0.2619 -0.8914 -0.1164
  815MOL0     O12335   4.487   3.877   7.497  0.2483  0.6051 -0.1229
  815MOL0     C12336   4.393   3.910   7.413 -0.8424  0.2182 -0.0744
  815MOL0     C12337   4.335   4.035   7.418  0.0095 -0.5893 -0.3428
  815MOL0     C12338   4.243   4.078   7.318 -1.0653 -0.1486 -0.7385
  815MOL0     C12339   4.201   3.989   7.223  0.1909  0.0688 -0.2403
  815MOL0     O12340   4.129   4.040   7.122 -0.2101 -0.4122 -0.0834
  815MOL0     C12341   4.016   3.953   7.095 -0.4679  1.2192  0.8413
  815MOL0     C12342   3.887   4.042   7.095 -0.2606  0.3954 -0.0912
  815MOL0     C12343   3.847   4.102   7.235 -0.1769  0.5259  0.3432
  815MOL0     C12344   3.713   4.178   7.230  0.5605 -0.4691 -0.4799
  815MOL0     C12345   3.654   4.181   7.365  1.3261  0.2814 -0.7391
  815MOL0     C12346   3.506   4.255   7.388 -0.3862 -0.8052  0.5080
  815MOL0     C12347   3.462   4.248   7.534  0.0581 -0.1517 -0.7488
  815MOL0     C12348   3.506   4.121   7.609 -0.3511  0.1502 -0.6465
  815MOL0     N12349   3.415   4.098   7.715  0.2323  0.4385 -0.2780
  815MOL0     C12350   3.374   4.188   7.808  0.7325 -0.4239  0.6786
  815MOL0     C12351   3.268   4.135   7.862 -1.0171 -0.2217 -0.1363
  815MOL0     C12352   3.178   4.222   7.955 -0.3438  0.0864  0.0598
  815MOL0     C12353   3.033   4.236   7.905  0.0762  0.2287 -0.6520
  815MOL0     C12354   2.947   4.327   8.007  0.1774 -0.1448 -0.0914
  815MOL0     C12355   2.948   4.274   8.152 -0.3097 -0.1621 -0.0254
  815MOL0     O12356   3.043   4.338   8.233  0.3024 -0.3135  0.2346
  815MOL0     C12357   3.027   4.340   8.371  0.2593 -0.0412  0.1981
  815MOL0     C12358   3.121   4.403   8.441 -0.0284 -0.8107 -0.8165
  815MOL0     C12359   3.109   4.418   8.580  1.1088 -0.2781  0.3430
  815MOL0     C12360   3.221   4.505   8.647 -0.4067 -0.1597 -0.1845
  815MOL0     C12361   3.009   4.352   8.655 -0.2744 -0.9479 -0.3120
  815MOL0     C12362   3.015   4.323   8.799  0.1704  0.3811  0.5417
  815MOL0     O12363   3.014   4.193   8.843 -0.2235  0.4549 -0.1237
  815MOL0     C12364   3.068   4.153   8.958 -0.4191  0.6140 -0.9374
  815MOL0     C12365   3.018   4.042   9.033  0.3259 -0.2374 -0.0279
  815MOL0     C12366   3.096   3.991   9.138  0.5485  0.5381 -0.0355
  815MOL0     C12367   3.221   4.047   9.179  0.1476  0.2619 -0.3116
  815MOL0     O12368   3.303   4.010   9.281  0.3694 -0.0765  0.6584
  815MOL0     C12369   3.262   3.947   9.400 -0.3090  0.3489 -0.3607
  815MOL0     C12370   3.375   3.948   9.504 -0.7493  0.9059 -0.1882
  815MOL0     C12371   3.329   3.892   9.633  0.4968  0.3291  0.5373
  815MOL0     C12372   3.434   3.822   9.716 -0.9648 -0.6698  0.5065
  815MOL0     C12373   3.377   3.753   9.837  0.9009  0.3453  0.0554
  815MOL0     C12374   3.487   3.694   9.923 -0.5805  0.3727  0.0433
  815MOL0     C12375   3.456   3.704  10.071  0.4807 -0.7157 -0.2689
  815MOL0     C12376   3.326   3.652  10.106  0.7857 -0.1198  0.2266
  815MOL0    Cl12377   3.307   3.486  10.044  0.1048 -0.0437 -0.1288
  815MOL0     C12378   3.264   4.161   9.109 -0.2366 -0.6951  0.3705
  815MOL0     C12379   3.193   4.213   9.003  0.3227  1.2435  0.5449
  815MOL0     O12380   3.023   4.424   8.875 -0.0995 -0.3139  0.5227
  815MOL0     C12381   2.908   4.295   8.578  0.3752  0.6976 -1.1848
  815MOL0     C12382   2.914   4.297   8.444  0.0154 -0.2240  0.4723
  815MOL0     N12383   3.248   4.004   7.817 -0.3081 -0.4625 -0.0362
  815MOL0     N12384   3.334   3.994   7.722 -1.0609 -1.3527  0.9151
  815MOL0     C12385   4.251   3.860   7.228 -0.1239 -0.5202 -0.1194
  815MOL0     C12386   4.342   3.821   7.322 -0.2489 -0.1224 -0.0193
  815MOL0     C12387   4.564   3.820   7.718  0.5033 -0.1267  1.1436
  815MOL0     C12388   4.694   3.818   7.660 -0.0110  0.1514 -0.7765
  815MOL0     C12389   4.802   3.815   7.740 -1.6069  0.4976 -0.9329
  815MOL0     C12390   4.784   3.830   7.879 -0.6436 -0.2643 -1.2878
  815MOL0     O12391   4.886   3.838   7.968 -0.4872  0.4975 -0.3746
  815MOL0     C12392   4.886   3.747   8.074 -0.6489 -0.8065  0.1815
  815MOL0     C12393   4.997   3.774   8.180 -0.1671  0.3996 -0.2532
  815MOL0     C12394   5.134   3.811   8.123  0.3080  0.1432 -0.1711
  815MOL0     C12395   5.219   3.876   8.237  0.7960 -0.1820 -0.2481
  815MOL0     C12396   5.312   3.973   8.180  0.2828 -0.4785  0.4928
  815MOL0     C12397   5.404   4.041   8.147  0.3866 -1.0461  0.5809
  815MOL0     C12398   4.659   3.870   7.933  0.1630  0.0026 -0.8458
  815MOL0     C12399   4.542   3.865   7.851 -0.1571  0.3678  0.1396
  815MOL0     C12400   4.405   3.905   7.899  0.4639 -0.0953  0.1584
  815MOL0     H12401   4.368   4.104   7.494  3.5048 -1.9849 -0.4244
  815MOL0     H12402   4.209   4.181   7.322  0.8075  0.5240  3.6720
  815MOL0     H12403   4.006   3.873   7.169 -0.9429  2.1572  1.8223
  815MOL0     H12404   4.032   3.922   6.991  1.6856 -0.1080  1.4999
  815MOL0     H12405   3.901   4.125   7.025 -1.7061  0.1783 -0.6767
  815MOL0     H12406   3.809   3.970   7.067 -2.4479  0.7595  4.2213
  815MOL0     H12407   3.852   4.026   7.314 -1.2236  0.9353  0.8220
  815MOL0     H12408   3.927   4.164   7.278 -0.4727  0.8400  0.4515
  815MOL0     H12409   3.725   4.284   7.205 -1.7438 -0.3726 -1.4154
  815MOL0     H12410   3.633   4.140   7.167 -1.1357  3.6931 -1.0984
  815MOL0     H12411   3.735   4.209   7.434  3.0665 -1.6888 -1.8652
  815MOL0     H12412   3.642   4.078   7.400 -0.0918  1.4554  2.6481
  815MOL0     H12413   3.506   4.362   7.363 -3.5886 -0.9241 -0.4786
  815MOL0     H12414   3.429   4.200   7.334 -1.6891 -1.0756  2.5735
  815MOL0     H12415   3.354   4.263   7.526  0.2997  1.2337 -1.7699
  815MOL0     H12416   3.487   4.339   7.589 -0.3682 -0.5529  0.1323
  815MOL0     H12417   3.506   4.034   7.544  0.5439 -0.7341  0.4856
  815MOL0     H12418   3.605   4.142   7.652 -0.2072 -0.3219 -0.7429
  815MOL0     H12419   3.424   4.280   7.838  0.8951  0.2310 -1.4266
  815MOL0     H12420   3.222   4.322   7.964  1.3448 -0.6420  0.3624
  815MOL0     H12421   3.173   4.178   8.055 -7.8571  0.6695  0.4698
  815MOL0     H12422   3.040   4.277   7.804 -2.1575  2.7569  0.1038
  815MOL0     H12423   2.982   4.139   7.904 -0.8921  0.7312 -1.3453
  815MOL0     H12424   2.976   4.433   8.008 -0.2971 -0.0214  0.5033
  815MOL0     H12425   2.846   4.309   7.970  0.4263 -0.9472 -0.4018
  815MOL0     H12426   2.855   4.306   8.200 -0.0946 -2.2836  2.0010
  815MOL0     H12427   2.955   4.165   8.165 -1.8128 -0.0932  1.8313
  815MOL0     H12428   3.195   4.455   8.382  0.6723  1.0065  1.5124
  815MOL0     H12429   3.195   4.611   8.655  1.2557  0.1441  3.0863
  815MOL0     H12430   3.301   4.496   8.574  0.4744  1.3864  0.5313
  815MOL0     H12431   3.260   4.465   8.742 -2.7437 -0.2984  0.7966
  815MOL0     H12432   2.922   4.000   9.005  0.9507 -2.4678  0.9451
  815MOL0     H12433   3.052   3.907   9.190 -0.8003  0.0603 -1.8337
  815MOL0     H12434   3.189   4.016   9.445 -0.8053 -1.9629  2.6789
  815MOL0     H12435   3.220   3.847   9.391  0.3728  0.1386 -1.2676
  815MOL0     H12436   3.449   3.878   9.463 -1.2365  1.5411 -2.3108
  815MOL0     H12437   3.425   4.045   9.509  0.7745  0.0858  2.4974
  815MOL0     H12438   3.254   3.815   9.610  0.4213  1.0959 -2.1755
  815MOL0     H12439   3.283   3.974   9.689  0.3320 -0.0562  0.9743
  815MOL0     H12440   3.502   3.899   9.754  0.0964 -2.0409  1.4554
  815MOL0     H12441   3.484   3.755   9.647 -2.1442  1.5993 -2.7920
  815MOL0     H12442   3.327   3.835   9.889  2.1694  0.7572  0.6770
  815MOL0     H12443   3.307   3.674   9.807  0.0585  1.0357  0.1852
  815MOL0     H12444   3.584   3.742   9.908  0.7400 -1.6243  1.6697
  815MOL0     H12445   3.505   3.592   9.887 -0.3904  0.5484 -0.3673
  815MOL0     H12446   3.447   3.804  10.114 -0.7232 -0.2708 -1.5001
  815MOL0     H12447   3.535   3.662  10.134  1.3534  3.0812  1.4529
  815MOL0     H12448   3.245   3.711  10.064 -2.2984 -1.6066  3.5173
  815MOL0     H12449   3.309   3.658  10.214 -1.1908  0.7318 -0.0890
  815MOL0     H12450   3.357   4.213   9.128  0.6195 -1.7901 -0.6796
  815MOL0     H12451   3.235   4.294   8.945 -0.9477  0.4302 -1.6258
  815MOL0     H12452   2.820   4.261   8.631  1.2632 -1.5278 -1.0321
  815MOL0     H12453   2.828   4.258   8.390 -0.1180 -1.2761  1.4153
  815MOL0     H12454   4.220   3.799   7.144 -0.3004 -0.3910 -0.1496
  815MOL0     H12455   4.385   3.722   7.330  0.2298  0.2161  2.0902
  815MOL0     H12456   4.712   3.800   7.554 -1.7536 -1.1163 -0.9146
  815MOL0     H12457   4.897   3.830   7.688 -1.4547  0.5728 -0.6351
  815MOL0     H12458   4.792   3.751   8.130  0.2615  0.4221  1.7036
  815MOL0     H12459   4.895   3.646   8.034  1.2493 -0.7885  0.4722
  815MOL0     H12460   4.991   3.692   8.252 -2.2453  1.1191  0.4725
  815MOL0     H12461   4.954   3.863   8.228 -0.8665  1.1599 -2.1889
  815MOL0     H12462   5.187   3.730   8.073  1.1588  0.6798 -0.1451
  815MOL0     H12463   5.109   3.890   8.052 -3.0364 -0.2706  0.3494
  815MOL0     H12464   5.276   3.791   8.276  0.8759 -0.2610 -0.5302
  815MOL0     H12465   5.165   3.927   8.317  3.2999  1.8921  0.2393
  815MOL0     H12466   5.484   4.108   8.121  0.8255 -1.7475  0.0788
  815MOL0     H12467   4.644   3.907   8.034  1.9954  2.4359 -1.3743
  815MOL0     H12468   4.337   3.822   7.882  1.4821 -0.4461 -2.8138
  815MOL0     H12469   4.395   3.937   8.003  1.6665  2.8401 -0.4977
  815MOL0     H12470   4.366   3.986   7.835  1.8189  1.5212  1.2851
  816MOL0     O12471   6.870   8.405   0.018  0.4947 -0.2314  0.0585
  816MOL0     C12472   6.820   8.311   0.082  0.4409  0.1080  0.3883
  816MOL0     O12473   6.711   8.320   0.178 -0.1265  0.1230 -0.0053
  816MOL0     C12474   6.650   8.443   0.182  0.0844 -0.3922 -0.2551
  816MOL0     C12475   6.513   8.447   0.157  0.1260  0.0152  0.1846
  816MOL0     C12476   6.439   8.570   0.159  0.6071  0.5824 -0.3071
  816MOL0     C12477   6.500   8.693   0.200  0.1320  0.4550  1.2848
  816MOL0     O12478   6.439   8.817   0.181  0.4867  0.7334 -0.2859
  816MOL0     C12479   6.513   8.939   0.194  0.2505 -0.3524 -0.3763
  816MOL0     C12480   6.417   9.051   0.244 -0.4210  0.3137 -0.8606
  816MOL0     C12481   6.386   9.037   0.394  0.0914  0.2874  0.3909
  816MOL0     C12482   6.298   9.154   0.443  0.1451  0.2294 -0.7163
  816MOL0     C12483   6.218   9.132   0.571  0.7521 -0.1167  0.4900
  816MOL0     C12484   6.307   9.124   0.692 -0.2924 -0.5223  0.0728
  816MOL0     C12485   6.351   9.259   0.740 -0.5828  0.3570 -0.2378
  816MOL0     C12486   6.474   9.255   0.830  0.0076  0.7274 -0.0021
  816MOL0     N12487   6.441   9.213   0.971 -0.1848  0.0571  0.3945
  816MOL0     C12488   6.424   9.085   1.017 -0.1619 -0.3267 -0.6331
  816MOL0     C12489   6.379   9.099   1.148  0.1031  0.9549  0.6546
  816MOL0     C12490   6.346   8.992   1.244 -0.4545 -0.2697 -0.1412
  816MOL0     C12491   6.207   8.934   1.224  0.5036 -0.3420 -0.1937
  816MOL0     C12492   6.177   8.827   1.324  0.1194 -0.0179  0.7483
  816MOL0     C12493   6.029   8.808   1.350 -0.1264  0.2936  0.4634
  816MOL0     O12494   5.973   8.931   1.406 -0.4211 -0.0206  0.3743
  816MOL0     C12495   5.837   8.938   1.431  0.2678  0.4319  0.5570
  816MOL0     C12496   5.755   8.827   1.422  0.5962 -0.1741 -0.6864
  816MOL0     C12497   5.619   8.827   1.457  0.2727  0.6610 -0.2987
  816MOL0     C12498   5.544   8.695   1.448 -0.5938 -0.1696 -0.0244
  816MOL0     C12499   5.567   8.949   1.498  0.7765 -0.6380 -0.2071
  816MOL0     C12500   5.431   8.961   1.554  0.5758 -0.9802  0.1357
  816MOL0     O12501   5.380   8.847   1.618  0.2347  0.1031 -0.0073
  816MOL0     C12502   5.248   8.847   1.632  0.6474 -0.8254  0.2154
  816MOL0     C12503   5.172   8.919   1.721 -0.1881  0.2278  0.4402
  816MOL0     C12504   5.033   8.896   1.727  0.4620  0.0167  0.3111
  816MOL0     C12505   4.973   8.790   1.658 -0.5812 -0.1792 -0.6425
  816MOL0     O12506   4.842   8.753   1.674 -0.1185 -0.1614 -0.2683
  816MOL0     C12507   4.799   8.633   1.595  0.2206 -0.5531  0.1068
  816MOL0     C12508   4.644   8.656   1.578 -0.2014 -0.2397 -0.0867
  816MOL0     C12509   4.584   8.552   1.483 -0.3847 -0.8605  0.0042
  816MOL0     C12510   4.638   8.407   1.503  0.8572  0.1203 -0.7106
  816MOL0     C12511   4.546   8.305   1.430 -0.6271 -1.1368 -0.3749
  816MOL0     C12512   4.593   8.161   1.452  0.2407 -0.3529 -0.3968
  816MOL0     C12513   4.487   8.053   1.451 -0.4396 -0.2214  0.2052
  816MOL0     C12514   4.551   7.916   1.460 -1.1509 -0.5849 -0.2481
  816MOL0    Cl12515   4.600   7.874   1.624  0.1415  0.2447  0.0887
  816MOL0     C12516   5.066   8.706   1.580 -0.0356  0.4267 -0.5623
  816MOL0     C12517   5.198   8.735   1.565 -0.3108 -0.1022  0.2531
  816MOL0     O12518   5.370   9.073   1.552  0.5586  0.3491 -0.3342
  816MOL0     C12519   5.647   9.067   1.496  0.3965 -0.2669 -0.0274
  816MOL0     C12520   5.783   9.059   1.467  0.1819 -0.2547 -0.1987
  816MOL0     N12521   6.369   9.235   1.175 -0.6543  0.1731  0.3550
  816MOL0     N12522   6.405   9.299   1.064 -0.5518  0.0564  0.1574
  816MOL0     C12523   6.642   8.685   0.224  0.7566  0.2854 -0.1889
  816MOL0     C12524   6.718   8.560   0.217  0.6318  0.6310 -0.0275
  816MOL0     C12525   6.902   8.178   0.069  0.3328 -0.2822  0.7490
  816MOL0     C12526   6.983   8.161  -0.042  0.2744 -0.4095  0.8041
  816MOL0     C12527   7.040   8.035  -0.072 -0.3501  0.0530 -0.9737
  816MOL0     C12528   7.020   7.926   0.012  0.2961  0.5980  0.0137
  816MOL0     O12529   7.084   7.813  -0.026 -0.0869  0.6222 -0.1427
  816MOL0     C12530   7.069   7.688   0.044 -0.4089 -0.1703 -0.2292
  816MOL0     C12531   7.176   7.593  -0.015 -0.0829  0.2293  0.3274
  816MOL0     C12532   7.114   7.536  -0.151 -0.2602  0.8843 -1.1251
  816MOL0     C12533   7.213   7.443  -0.218  0.1478  0.8642  0.3965
  816MOL0     C12534   7.176   7.393  -0.347 -0.8006 -0.0842  0.3818
  816MOL0     C12535   7.155   7.356  -0.463 -0.5194  0.3200 -0.1296
  816MOL0     C12536   6.945   7.948   0.135 -0.7507  0.1696  0.3908
  816MOL0     C12537   6.884   8.070   0.162 -0.3234  0.6118  0.2319
  816MOL0     C12538   6.789   8.061   0.271 -0.6020 -0.4891  0.3299
  816MOL0     H12539   6.453   8.360   0.134 -1.5347  0.4737  2.5027
  816MOL0     H12540   6.332   8.567   0.138  0.1699 -1.6747  1.7789
  816MOL0     H12541   6.550   8.974   0.097  2.3623  2.0542  1.1533
  816MOL0     H12542   6.592   8.947   0.270 -1.5018  0.1568  1.4799
  816MOL0     H12543   6.465   9.149   0.241 -1.7307  1.5341  5.3391
  816MOL0     H12544   6.335   9.053   0.171 -1.6556  0.2241  0.4809
  816MOL0     H12545   6.336   8.941   0.410  0.7808  0.3621  3.6253
  816MOL0     H12546   6.484   9.032   0.442  1.1393  2.9866 -1.2496
  816MOL0     H12547   6.370   9.235   0.457  2.0049 -1.0228 -2.5030
  816MOL0     H12548   6.225   9.180   0.366 -1.5149  1.4175  1.1478
  816MOL0     H12549   6.156   9.042   0.564  0.9853 -0.3019  0.7637
  816MOL0     H12550   6.151   9.218   0.582 -0.5735 -1.1273  0.5547
  816MOL0     H12551   6.249   9.083   0.775  0.1014 -1.8009 -0.2588
  816MOL0     H12552   6.384   9.048   0.678  0.2626  0.2275 -1.1547
  816MOL0     H12553   6.267   9.305   0.792 -1.6208 -0.8384 -0.8120
  816MOL0     H12554   6.386   9.318   0.654 -0.2173  0.9924  0.3339
  816MOL0     H12555   6.534   9.183   0.774 -2.3169 -0.1682 -1.5066
  816MOL0     H12556   6.534   9.345   0.844 -0.7852  1.0745  1.3297
  816MOL0     H12557   6.438   8.986   0.976  1.7928 -0.8794  1.1661
  816MOL0     H12558   6.365   9.032   1.344 -2.1636 -0.7235  0.3994
  816MOL0     H12559   6.424   8.918   1.228 -3.4833 -3.7787 -0.0234
  816MOL0     H12560   6.140   9.021   1.226  0.8140 -0.1107  0.8493
  816MOL0     H12561   6.188   8.905   1.120  2.1974  2.7880 -1.5335
  816MOL0     H12562   6.228   8.740   1.281 -0.6799 -1.0332  1.7909
  816MOL0     H12563   6.215   8.857   1.422 -0.6949  4.8148 -0.1741
  816MOL0     H12564   5.969   8.788   1.261 -4.5490  0.1158  3.2027
  816MOL0     H12565   6.009   8.728   1.422  2.1117  1.8995  3.0355
  816MOL0     H12566   5.792   8.739   1.370  1.1769  1.1984 -2.7440
  816MOL0     H12567   5.594   8.624   1.381  0.7220  0.0307  0.7084
  816MOL0     H12568   5.440   8.698   1.414 -0.5486 -4.3047 -1.0333
  816MOL0     H12569   5.546   8.653   1.549  0.6573  0.9317  0.4414
  816MOL0     H12570   5.205   8.988   1.797 -2.7683  1.4967  0.5248
  816MOL0     H12571   4.972   8.959   1.792 -4.3749 -2.1003 -1.7171
  816MOL0     H12572   4.836   8.623   1.493 -5.0368 -1.0435 -2.0641
  816MOL0     H12573   4.837   8.548   1.652  1.9242  1.2418  1.8127
  816MOL0     H12574   4.598   8.651   1.677 -0.1048 -1.7559 -0.1011
  816MOL0     H12575   4.626   8.758   1.541 -2.3581 -1.4741 -2.8607
  816MOL0     H12576   4.592   8.575   1.377 -0.1336 -4.3205 -0.8513
  816MOL0     H12577   4.476   8.556   1.496 -0.8292 -1.4411 -2.9588
  816MOL0     H12578   4.639   8.380   1.609 -0.8242 -3.8172 -1.5001
  816MOL0     H12579   4.741   8.409   1.466  1.1729  2.8614  0.1419
  816MOL0     H12580   4.445   8.320   1.468 -0.2538 -0.8122  0.5249
  816MOL0     H12581   4.548   8.332   1.324 -0.2473  2.0668  0.3583
  816MOL0     H12582   4.627   8.138   1.553 -0.2827 -2.7820 -0.7205
  816MOL0     H12583   4.675   8.129   1.387  0.7599  0.1341 -0.0003
  816MOL0     H12584   4.424   8.062   1.362 -0.0389 -0.0286 -0.0600
  816MOL0     H12585   4.423   8.054   1.540 -1.8893  0.9161 -0.8038
  816MOL0     H12586   4.644   7.892   1.407  0.5877 -3.6378  3.6361
  816MOL0     H12587   4.481   7.843   1.417  0.2277 -1.5655 -0.9225
  816MOL0     H12588   5.036   8.622   1.518  3.2439 -0.1376 -1.6094
  816MOL0     H12589   5.249   8.661   1.504 -2.0571 -1.0533 -0.1538
  816MOL0     H12590   5.596   9.159   1.526 -1.1351 -0.3176 -2.2825
  816MOL0     H12591   5.850   9.143   1.482  0.2278 -0.8548  4.4782
  816MOL0     H12592   6.700   8.768   0.263  1.8088 -0.7884  0.6187
  816MOL0     H12593   6.825   8.566   0.232  0.5119 -0.2372  1.4087
  816MOL0     H12594   7.018   8.241  -0.106  1.9295 -0.3820  1.6749
  816MOL0     H12595   7.099   8.016  -0.161  0.6642  1.1581 -0.5772
  816MOL0     H12596   7.094   7.703   0.150  0.8305  2.6818 -0.8316
  816MOL0     H12597   6.970   7.642   0.032  1.1106 -3.5853 -1.0127
  816MOL0     H12598   7.185   7.510   0.056 -2.2293  0.4935  0.9865
  816MOL0     H12599   7.265   7.656  -0.028 -0.1534  0.6776  1.8934
  816MOL0     H12600   7.022   7.484  -0.122  0.3855 -0.1571 -0.8686
  816MOL0     H12601   7.082   7.615  -0.219  1.6993  0.5761 -2.4942
  816MOL0     H12602   7.234   7.366  -0.142 -0.7242 -0.8667 -1.0410
  816MOL0     H12603   7.299   7.507  -0.238  1.1959 -0.1881  1.3247
  816MOL0     H12604   7.138   7.325  -0.564 -2.5803 -0.5818  0.4606
  816MOL0     H12605   6.940   7.857   0.194  1.2209 -1.0378 -1.1445
  816MOL0     H12606   6.812   8.148   0.335  2.3244 -1.1736  0.3383
  816MOL0     H12607   6.685   8.068   0.239 -1.2938 -0.9018  2.3159
  816MOL0     H12608   6.805   7.971   0.331 -0.0615  1.2179  2.9294
  817MOL0     O12609   8.933   3.300   8.739 -0.0721 -0.6750  0.1886
  817MOL0     C12610   8.907   3.184   8.749  0.1982  0.4552 -0.1409
  817MOL0     O12611   8.779   3.142   8.741  0.1068  0.2134  0.4554
  817MOL0     C12612   8.681   3.229   8.777 -0.4344 -0.5821 -0.5630
  817MOL0     C12613   8.677   3.302   8.897  0.3812 -0.0686  0.6532
  817MOL0     C12614   8.568   3.379   8.935  0.6648  0.1171 -0.5466
  817MOL0     C12615   8.467   3.394   8.843 -0.8045 -0.4337  0.3984
  817MOL0     O12616   8.355   3.447   8.885  0.1688 -0.3979  0.4565
  817MOL0     C12617   8.286   3.554   8.804  0.2479 -0.1666 -0.3395
  817MOL0     C12618   8.157   3.596   8.892  0.3269  0.4106 -0.9236
  817MOL0     C12619   8.094   3.718   8.815 -0.2622 -0.3219  0.8533
  817MOL0     C12620   8.008   3.796   8.909  0.8439 -0.5272 -0.4973
  817MOL0     C12621   7.933   3.901   8.823 -0.3562  0.6736 -0.8641
  817MOL0     C12622   7.842   3.994   8.905 -0.0072  0.4739  0.5489
  817MOL0     C12623   7.921   4.112   8.972 -0.1947  0.2080 -0.4263
  817MOL0     C12624   7.829   4.217   9.020 -0.2181  0.0713 -0.6235
  817MOL0     N12625   7.755   4.272   8.903 -0.5841 -0.0478  0.2442
  817MOL0     C12626   7.624   4.270   8.867 -0.1128  0.2544 -0.1198
  817MOL0     C12627   7.608   4.367   8.777  0.0298  0.3721 -0.0734
  817MOL0     C12628   7.490   4.402   8.685  0.6567  0.1202 -0.6367
  817MOL0     C12629   7.470   4.319   8.560  0.3683  0.5339  0.6733
  817MOL0     C12630   7.602   4.326   8.474 -0.0451 -0.0091 -0.6163
  817MOL0     C12631   7.573   4.271   8.341 -0.0950  0.1459  0.6947
  817MOL0     O12632   7.669   4.202   8.268 -0.1795 -0.0418  0.3538
  817MOL0     C12633   7.695   4.077   8.318 -0.3797 -0.2635 -0.3081
  817MOL0     C12634   7.825   4.041   8.317 -0.5974 -0.5798  0.5817
  817MOL0     C12635   7.860   3.915   8.345  0.3610 -0.9516 -0.5033
  817MOL0     C12636   8.003   3.873   8.310  0.3512 -0.5813  0.4164
  817MOL0     C12637   7.775   3.825   8.407  0.2183  0.6086  0.3611
  817MOL0     C12638   7.806   3.693   8.447  0.3928 -0.2096  0.1347
  817MOL0     O12639   7.873   3.615   8.358 -1.2724  0.9805 -1.0192
  817MOL0     C12640   7.907   3.493   8.416 -0.3022  0.2229  0.0989
  817MOL0     C12641   8.020   3.477   8.501 -0.5448  0.3833  0.6003
  817MOL0     C12642   8.044   3.345   8.557  0.2730 -0.0014  0.0209
  817MOL0     C12643   7.966   3.237   8.523  0.1593 -0.2344 -0.7978
  817MOL0     O12644   7.991   3.113   8.573 -0.4232  0.2693 -0.3845
  817MOL0     C12645   7.882   3.020   8.618 -0.7540 -0.3230 -0.3246
  817MOL0     C12646   7.777   3.076   8.718 -0.5130 -0.1526 -0.3400
  817MOL0     C12647   7.694   2.972   8.789 -0.4880 -0.0741  0.0379
  817MOL0     C12648   7.675   2.842   8.709 -0.1235  0.6140 -0.6282
  817MOL0     C12649   7.553   2.773   8.772 -0.0153 -0.2081 -0.1289
  817MOL0     C12650   7.545   2.630   8.726 -0.1904 -0.1098  0.1454
  817MOL0     C12651   7.400   2.592   8.718 -0.5093  0.3698  0.8885
  817MOL0     C12652   7.376   2.447   8.681 -0.0343 -0.4101  0.7117
  817MOL0    Cl12653   7.484   2.349   8.767  0.0617 -0.5893  0.2320
  817MOL0     C12654   7.846   3.262   8.454 -0.2756 -0.3358  0.8707
  817MOL0     C12655   7.821   3.390   8.397 -0.6012  0.0324 -0.5174
  817MOL0     O12656   7.762   3.660   8.557 -0.2477  0.1955 -0.1382
  817MOL0     C12657   7.639   3.864   8.423 -0.2953 -0.1363 -0.2484
  817MOL0     C12658   7.601   3.995   8.377 -0.2866 -0.4387  1.0508
  817MOL0     N12659   7.726   4.436   8.757 -0.0607  1.2778 -0.2096
  817MOL0     N12660   7.815   4.371   8.829 -0.4173 -0.4651  0.0755
  817MOL0     C12661   8.473   3.325   8.721  0.2779 -0.2138  0.8654
  817MOL0     C12662   8.572   3.243   8.686  0.0829 -0.1306 -0.0821
  817MOL0     C12663   9.026   3.094   8.766  0.3020 -0.6379  0.0689
  817MOL0     C12664   9.026   2.980   8.692 -0.8322 -0.4486  0.4567
  817MOL0     C12665   9.137   2.897   8.689  1.1240  0.9625 -0.4404
  817MOL0     C12666   9.245   2.923   8.772 -0.1824  0.2029 -0.9437
  817MOL0     O12667   9.361   2.852   8.752 -0.4703  0.1579 -0.0635
  817MOL0     C12668   9.490   2.871   8.820 -0.2764  0.4597 -0.0230
  817MOL0     C12669   9.583   2.751   8.786 -0.2238  0.7661  0.8970
  817MOL0     C12670   9.531   2.648   8.689 -0.0972  0.0247  0.3791
  817MOL0     C12671   9.637   2.533   8.661  0.4719 -0.5193  0.6388
  817MOL0     C12672   9.736   2.577   8.566 -0.0647  0.3536  0.6477
  817MOL0     C12673   9.814   2.646   8.504  0.2447 -0.7099 -0.1301
  817MOL0     C12674   9.237   3.032   8.865  0.1988  0.6477  1.0974
  817MOL0     C12675   9.132   3.122   8.861  0.5380 -0.3189 -0.4479
  817MOL0     C12676   9.157   3.251   8.933 -0.1184 -0.4769  0.5063
  817MOL0     H12677   8.756   3.286   8.969  0.5401 -1.5334  0.1747
  817MOL0     H12678   8.556   3.419   9.036 -1.3811 -0.5756 -0.4688
  817MOL0     H12679   8.250   3.515   8.709  1.4758 -2.9414  0.2343
  817MOL0     H12680   8.357   3.632   8.776 -1.3341  0.7489 -1.9567
  817MOL0     H12681   8.080   3.519   8.888 -0.6883  1.4051 -1.0720
  817MOL0     H12682   8.176   3.621   8.997 -1.9773 -2.1571  0.2105
  817MOL0     H12683   8.156   3.787   8.757 -1.3138 -0.6056 -0.6604
  817MOL0     H12684   8.038   3.683   8.728 -2.5646  2.5799  1.0321
  817MOL0     H12685   7.930   3.737   8.959  0.5570  1.4779  1.6053
  817MOL0     H12686   8.079   3.842   8.979 -0.1357 -0.5732  0.5544
  817MOL0     H12687   7.883   3.839   8.749 -0.3275  2.8976 -2.8530
  817MOL0     H12688   8.001   3.971   8.773 -0.0660  0.8241 -0.2752
  817MOL0     H12689   7.768   4.026   8.830  1.0827  3.4919  0.6394
  817MOL0     H12690   7.789   3.943   8.986 -1.0066 -2.5684 -1.7813
  817MOL0     H12691   7.989   4.161   8.902 -1.9819  1.6593 -1.2367
  817MOL0     H12692   7.972   4.072   9.059 -0.7496  0.2009 -0.0962
  817MOL0     H12693   7.770   4.177   9.103 -0.0100  4.1515  1.8259
  817MOL0     H12694   7.889   4.303   9.054  1.6067 -1.5526  0.4794
  817MOL0     H12695   7.557   4.198   8.911 -0.5005  0.8176  0.2303
  817MOL0     H12696   7.469   4.507   8.663  1.4120 -0.0326 -2.2714
  817MOL0     H12697   7.409   4.378   8.755 -0.3441  4.0765 -0.1930
  817MOL0     H12698   7.451   4.215   8.588  1.0454  0.9133  2.7316
  817MOL0     H12699   7.386   4.357   8.501  1.1977  3.4392  1.1945
  817MOL0     H12700   7.625   4.433   8.467  0.5878 -0.1557 -0.8594
  817MOL0     H12701   7.690   4.280   8.519  0.6605  0.4230 -1.5279
  817MOL0     H12702   7.483   4.210   8.345  1.4623 -2.2714  1.2666
  817MOL0     H12703   7.532   4.352   8.280 -1.4045 -0.7215  0.3943
  817MOL0     H12704   7.902   4.103   8.274 -1.5811 -0.7841 -1.6117
  817MOL0     H12705   7.999   3.808   8.221  2.5303 -0.2146  0.0005
  817MOL0     H12706   8.056   3.816   8.386  0.9114  0.0362  0.4990
  817MOL0     H12707   8.063   3.960   8.284 -1.7146  0.8448  0.2094
  817MOL0     H12708   8.099   3.550   8.511  1.1623 -1.3392  0.2675
  817MOL0     H12709   8.138   3.319   8.604  0.8847 -1.5225 -1.9020
  817MOL0     H12710   7.837   2.970   8.532  1.3705 -3.7024  0.3360
  817MOL0     H12711   7.940   2.946   8.674 -1.0145 -0.5030 -0.2976
  817MOL0     H12712   7.817   3.130   8.805 -1.0976 -3.4064  2.1395
  817MOL0     H12713   7.707   3.146   8.671  0.5604  0.4903 -1.0359
  817MOL0     H12714   7.598   3.019   8.809 -0.9806 -1.4209  1.0171
  817MOL0     H12715   7.742   2.942   8.883  0.8376  0.6522 -0.3770
  817MOL0     H12716   7.768   2.785   8.718 -1.5650 -1.7439  0.1031
  817MOL0     H12717   7.652   2.865   8.604  0.7278 -1.1736 -1.2389
  817MOL0     H12718   7.574   2.777   8.880 -0.1997  3.1930 -0.1020
  817MOL0     H12719   7.462   2.830   8.748 -1.3511 -1.7735  0.9481
  817MOL0     H12720   7.600   2.578   8.805  2.1867 -0.7490 -1.7865
  817MOL0     H12721   7.602   2.607   8.636 -1.1127  0.7978 -0.6873
  817MOL0     H12722   7.347   2.650   8.641  0.5368 -0.5769 -0.5825
  817MOL0     H12723   7.350   2.615   8.813  0.8914 -1.4568  2.1364
  817MOL0     H12724   7.397   2.430   8.575 -0.5463 -0.1378  0.5643
  817MOL0     H12725   7.270   2.429   8.699  0.0679 -1.1554  0.5928
  817MOL0     H12726   7.780   3.179   8.437 -1.5219  0.5646  1.1914
  817MOL0     H12727   7.737   3.400   8.330  0.4560 -4.1038 -2.8027
  817MOL0     H12728   7.570   3.788   8.455  1.3194 -1.0151  1.3431
  817MOL0     H12729   7.498   4.024   8.395  0.1236  0.6010  1.8005
  817MOL0     H12730   8.396   3.351   8.649 -1.0839  0.4556  2.4979
  817MOL0     H12731   8.565   3.180   8.598  0.8904  4.2793 -3.7296
  817MOL0     H12732   8.939   2.959   8.632 -0.8246  4.3732 -1.6686
  817MOL0     H12733   9.140   2.808   8.627  1.1236  1.9116 -1.8255
  817MOL0     H12734   9.534   2.968   8.794 -0.5628  0.9600  1.2579
  817MOL0     H12735   9.484   2.856   8.928 -0.4823  0.5056 -0.0274
  817MOL0     H12736   9.617   2.692   8.871  1.3882 -0.3129 -0.4403
  817MOL0     H12737   9.672   2.793   8.739 -1.5013 -1.0008 -3.5941
  817MOL0     H12738   9.442   2.595   8.724 -0.1765 -0.8810 -1.1182
  817MOL0     H12739   9.499   2.687   8.592 -4.9008 -0.7737  1.3627
  817MOL0     H12740   9.585   2.444   8.626  0.1167 -0.1744  0.2833
  817MOL0     H12741   9.691   2.506   8.753  1.4829 -1.3459 -0.1748
  817MOL0     H12742   9.869   2.727   8.462  1.1255 -1.9596 -1.4935
  817MOL0     H12743   9.310   3.042   8.944  1.1456  4.3147 -0.0300
  817MOL0     H12744   9.210   3.320   8.867  0.0515  0.4199  1.5567
  817MOL0     H12745   9.067   3.295   8.976  1.4286  2.9946  0.5030
  817MOL0     H12746   9.226   3.220   9.012  0.8784 -0.5261 -0.3613
  818MOL0     O12747   6.192   5.877  10.098 -0.5413  0.5931 -0.7373
  818MOL0     C12748   6.302   5.830  10.077 -0.3314 -0.2800  0.0478
  818MOL0     O12749   6.414   5.889  10.124  0.2709  0.2880  0.9498
  818MOL0     C12750   6.397   6.001  10.204 -1.0852  0.4240  0.0896
  818MOL0     C12751   6.471   6.123  10.162 -0.0301 -0.0750 -0.5112
  818MOL0     C12752   6.481   6.233  10.247  0.2362 -0.9529 -1.3197
  818MOL0     C12753   6.422   6.222  10.374 -0.1546 -0.4936  0.3946
  818MOL0     O12754   6.430   6.330  10.460  0.0122  0.0876 -0.7278
  818MOL0     C12755   6.312   6.417  10.473 -0.5284  0.1169 -0.8117
  818MOL0     C12756   6.237   6.360  10.593 -0.3206  0.0367 -0.3603
  818MOL0     C12757   6.133   6.458  10.630  0.2743 -0.6847  0.1112
  818MOL0     C12758   6.177   6.558  10.735 -0.0452  0.8791  0.4830
  818MOL0     C12759   6.068   6.663  10.773 -0.6241  0.4956 -0.2078
  818MOL0     C12760   6.107   6.744  10.895 -0.3151  0.6592  0.0706
  818MOL0     C12761   6.086   6.649  11.019  0.4602 -0.2056 -0.5391
  818MOL0     C12762   5.998   6.725  11.118  0.3921 -0.7648 -0.3815
  818MOL0     N12763   6.025   6.865  11.164  0.7187 -0.3981 -1.0386
  818MOL0     C12764   6.137   6.904  11.236  0.7966  0.4145 -0.2917
  818MOL0     C12765   6.115   7.042  11.258  0.2776  0.3561  0.4327
  818MOL0     C12766   6.214   7.124  11.334 -1.9334 -0.5104 -0.5164
  818MOL0     C12767   6.287   7.053  11.457 -0.1507 -0.7709  0.8977
  818MOL0     C12768   6.181   7.027  11.566  0.1501  0.8622 -0.0805
  818MOL0     C12769   6.111   7.152  11.621  0.0448 -0.3480  0.5898
  818MOL0     O12770   6.203   7.247  11.633 -0.3036  0.0420  0.1022
  818MOL0     C12771   6.249   7.274  11.757  0.5694  0.1514 -0.1642
  818MOL0     C12772   6.166   7.313  11.857 -0.9610 -0.0729 -0.0556
  818MOL0     C12773   6.205   7.347  11.986  0.1786  0.7462  0.3110
  818MOL0     C12774   6.094   7.417  12.067 -0.1116 -0.8405 -0.6287
  818MOL0     C12775   6.330   7.315  12.025 -0.2173  0.9936  0.4501
  818MOL0     C12776   6.371   7.352  12.161 -0.0260  0.3517 -0.5288
  818MOL0     O12777   6.270   7.380  12.260 -0.3133 -0.1974  0.0959
  818MOL0     C12778   6.316   7.426  12.378  0.9771  0.4464  0.0698
  818MOL0     C12779   6.376   7.334  12.466  0.0416 -0.1116 -0.1563
  818MOL0     C12780   6.416   7.384  12.591 -0.2800 -1.1130 -0.8797
  818MOL0     C12781   6.427   7.525  12.620  0.6336  0.5820 -0.9901
  818MOL0     O12782   6.493   7.564  12.732 -0.2560 -0.0328 -0.1576
  818MOL0     C12783   6.524   7.703  12.754  0.3688 -0.6408 -0.4750
  818MOL0     C12784   6.434   7.769  12.864 -0.0129  0.0191  0.1808
  818MOL0     C12785   6.471   7.917  12.876 -0.7669  0.4783  0.2186
  818MOL0     C12786   6.367   8.010  12.947  0.0160 -0.2647 -0.0509
  818MOL0     C12787   6.441   8.114  13.026 -0.3102  0.2476  0.4537
  818MOL0     C12788   6.347   8.216  13.094  0.5486  0.8598 -0.4973
  818MOL0     C12789   6.422   8.321  13.169 -0.1034 -0.5800 -0.8291
  818MOL0     C12790   6.324   8.418  13.237  0.2433 -0.1004  0.0662
  818MOL0    Cl12791   6.268   8.531  13.103 -0.0253  0.4484  0.3752
  818MOL0     C12792   6.370   7.610  12.524  0.0179 -0.1765  0.9958
  818MOL0     C12793   6.317   7.565  12.400  0.4997 -0.4226  0.0699
  818MOL0     O12794   6.491   7.356  12.181 -0.6757 -1.1642 -0.3995
  818MOL0     C12795   6.419   7.274  11.925 -0.2083 -0.9730 -0.2956
  818MOL0     C12796   6.381   7.257  11.794 -0.6775 -0.7002  0.5642
  818MOL0     N12797   6.000   7.074  11.193  1.7903 -0.8406  0.3784
  818MOL0     N12798   5.951   6.970  11.131  0.7652  0.4767  0.2469
  818MOL0     C12799   6.367   6.106  10.422 -0.2343 -1.6241  0.5373
  818MOL0     C12800   6.351   5.996  10.340 -0.1420  0.0116  0.6405
  818MOL0     C12801   6.324   5.722   9.973 -0.4629  0.0913  0.7739
  818MOL0     C12802   6.292   5.740   9.838 -0.1895  0.2788 -0.1752
  818MOL0     C12803   6.333   5.640   9.743 -0.4304  0.1541 -0.2607
  818MOL0     C12804   6.396   5.525   9.786 -0.8836 -0.9304  0.4362
  818MOL0     O12805   6.425   5.433   9.689  0.7402  0.3904  0.1466
  818MOL0     C12806   6.488   5.310   9.725  0.5659 -0.4469  0.0549
  818MOL0     C12807   6.635   5.325   9.747 -0.3848 -1.3272  0.0757
  818MOL0     C12808   6.706   5.187   9.723 -0.9988 -0.0301 -0.5919
  818MOL0     C12809   6.845   5.203   9.656 -0.6478  0.3807 -0.2771
  818MOL0     C12810   6.906   5.073   9.626  0.3514  0.9449  0.4644
  818MOL0     C12811   6.954   4.969   9.580 -0.2350 -0.7369 -1.8479
  818MOL0     C12812   6.428   5.510   9.919 -0.4834  0.5607 -0.8175
  818MOL0     C12813   6.394   5.606  10.014 -0.7284  1.2294  1.2502
  818MOL0     C12814   6.431   5.570  10.157 -0.2355 -0.1979  0.0450
  818MOL0     H12815   6.524   6.121  10.068 -0.3443  0.4756 -0.7018
  818MOL0     H12816   6.531   6.326  10.224 -1.2412  1.0938  2.8189
  818MOL0     H12817   6.246   6.424  10.386 -2.2121 -3.1484  0.0692
  818MOL0     H12818   6.345   6.519  10.496 -1.3131  0.4944 -1.3192
  818MOL0     H12819   6.190   6.265  10.566  1.3183 -0.5119 -1.4882
  818MOL0     H12820   6.304   6.337  10.677  0.6697  0.7486 -0.9353
  818MOL0     H12821   6.114   6.514  10.538 -1.2490 -3.4431 -1.3780
  818MOL0     H12822   6.042   6.401  10.648 -0.7743  0.8448 -0.1669
  818MOL0     H12823   6.196   6.498  10.824 -0.4823  0.9821  0.6502
  818MOL0     H12824   6.268   6.610  10.706  1.5117 -0.3624  2.8482
  818MOL0     H12825   5.965   6.631  10.794 -0.5327  1.6559  2.3805
  818MOL0     H12826   6.061   6.737  10.693  1.0472  0.4134 -0.4661
  818MOL0     H12827   6.211   6.780  10.892  0.1504 -0.2109  2.9208
  818MOL0     H12828   6.042   6.832  10.905 -1.2333  0.0777 -0.6072
  818MOL0     H12829   6.177   6.623  11.074 -0.3482 -0.6905  0.5984
  818MOL0     H12830   6.039   6.556  10.985  1.1293 -0.0756 -1.9273
  818MOL0     H12831   5.900   6.734  11.069 -1.9245 -1.2609  3.6678
  818MOL0     H12832   5.994   6.661  11.207  2.4919 -1.6290 -0.8695
  818MOL0     H12833   6.221   6.838  11.253  1.7170  1.6775  0.1348
  818MOL0     H12834   6.189   7.229  11.352 -0.0579  0.0031 -0.6289
  818MOL0     H12835   6.292   7.127  11.257 -1.1990  1.5480  0.2527
  818MOL0     H12836   6.337   6.962  11.424  0.0890 -0.2456 -0.2285
  818MOL0     H12837   6.359   7.121  11.502 -0.7778 -0.6411  1.7286
  818MOL0     H12838   6.110   6.947  11.542 -0.0567 -0.0254  3.0701
  818MOL0     H12839   6.244   6.979  11.642 -0.0339  0.9074  0.1016
  818MOL0     H12840   6.035   7.187  11.550 -0.8321 -0.1468  1.6052
  818MOL0     H12841   6.051   7.127  11.709 -2.1988  1.6034 -0.2882
  818MOL0     H12842   6.061   7.326  11.833 -1.2280 -0.8606  0.6458
  818MOL0     H12843   6.021   7.464  12.000 -0.0734 -0.3505 -0.3384
  818MOL0     H12844   6.136   7.508  12.113 -2.1363  0.4370 -1.1810
  818MOL0     H12845   6.046   7.353  12.141 -1.8157  1.5898  0.5001
  818MOL0     H12846   6.381   7.228  12.444 -1.2955 -0.6428  1.7220
  818MOL0     H12847   6.456   7.314  12.664  0.2368 -1.4406 -1.4700
  818MOL0     H12848   6.626   7.707  12.793 -0.6408 -1.6253  2.5980
  818MOL0     H12849   6.536   7.761  12.663  0.3964 -2.1589 -1.4757
  818MOL0     H12850   6.329   7.759  12.834  0.6124 -1.3856 -1.8180
  818MOL0     H12851   6.442   7.719  12.961 -0.1264 -1.6462 -0.6335
  818MOL0     H12852   6.478   7.958  12.775 -0.8269 -0.0995 -0.0243
  818MOL0     H12853   6.569   7.919  12.924 -1.8071 -1.4139  2.6700
  818MOL0     H12854   6.311   7.944  13.014 -1.0940  0.5591 -0.1339
  818MOL0     H12855   6.302   8.052  12.869  0.2621 -0.3647 -0.3073
  818MOL0     H12856   6.504   8.076  13.108 -0.5978  0.9843  1.0245
  818MOL0     H12857   6.509   8.164  12.958 -0.8383  1.7476  0.9942
  818MOL0     H12858   6.277   8.163  13.159  0.4582 -0.4447 -1.6297
  818MOL0     H12859   6.292   8.261  13.011 -1.7865 -2.4000 -0.9039
  818MOL0     H12860   6.483   8.374  13.094 -2.2675  1.4227 -1.2956
  818MOL0     H12861   6.486   8.276  13.246 -2.3084  0.7285  1.9554
  818MOL0     H12862   6.374   8.481  13.312  0.5953  0.1763 -0.3976
  818MOL0     H12863   6.229   8.378  13.276 -1.5771  1.1284 -2.7517
  818MOL0     H12864   6.362   7.717  12.540  1.3187  0.2368 -0.7542
  818MOL0     H12865   6.275   7.638  12.332 -0.0528  1.7172  2.5516
  818MOL0     H12866   6.526   7.268  11.938 -0.0034 -2.9121 -2.3465
  818MOL0     H12867   6.458   7.245  11.718  1.4199 -0.5435  2.5422
  818MOL0     H12868   6.324   6.098  10.522 -0.0556 -2.1091  0.5788
  818MOL0     H12869   6.289   5.918  10.384  1.2989 -0.2458  2.3209
  818MOL0     H12870   6.248   5.836   9.812 -1.4639 -0.0224  0.7763
  818MOL0     H12871   6.320   5.660   9.637 -1.6319  0.5758 -0.0538
  818MOL0     H12872   6.438   5.271   9.814 -3.3900 -0.7798 -2.0870
  818MOL0     H12873   6.470   5.231   9.651  0.6178 -1.0936  0.7283
  818MOL0     H12874   6.660   5.371   9.843  1.3991  0.1967 -1.0515
  818MOL0     H12875   6.684   5.380   9.666  0.2076 -2.0349 -0.0543
  818MOL0     H12876   6.731   5.154   9.824 -0.6598  1.7724 -0.0592
  818MOL0     H12877   6.651   5.106   9.674  1.9431 -1.9360 -0.9521
  818MOL0     H12878   6.904   5.263   9.726  0.5010 -1.2051  0.1709
  818MOL0     H12879   6.836   5.260   9.563 -2.6024  1.0475  0.2581
  818MOL0     H12880   6.998   4.877   9.548  1.4171  0.3979 -2.9941
  818MOL0     H12881   6.485   5.423   9.951  2.1773  2.2156 -0.7388
  818MOL0     H12882   6.410   5.464  10.170 -2.5773 -0.2254 -2.7805
  818MOL0     H12883   6.538   5.590  10.148 -0.6601  4.0547  1.7903
  818MOL0     H12884   6.388   5.637  10.232 -0.6341 -1.0699  0.6014
  819MOL0     O12885   8.235   3.208   0.359 -0.2989 -0.1868  0.1252
  819MOL0     C12886   8.213   3.329   0.376  0.4615 -1.0396 -0.1164
  819MOL0     O12887   8.154   3.378   0.488 -0.7371 -0.3906 -0.4192
  819MOL0     C12888   8.149   3.301   0.597  0.7505 -0.6942 -0.0132
  819MOL0     C12889   8.031   3.316   0.674 -0.2276  0.3158  0.5389
  819MOL0     C12890   8.016   3.247   0.788 -0.3281 -0.2964 -0.1670
  819MOL0     C12891   8.121   3.168   0.837 -0.9879  0.2565 -0.4134
  819MOL0     O12892   8.104   3.108   0.962 -0.2280 -0.1496 -0.3402
  819MOL0     C12893   8.211   3.063   1.047  0.5569 -0.3763  0.5964
  819MOL0     C12894   8.150   3.064   1.187 -0.5474  1.7399  0.8392
  819MOL0     C12895   8.267   3.041   1.285  0.9290 -0.6465  0.8002
  819MOL0     C12896   8.321   2.897   1.274 -0.1103 -0.2807  0.1528
  819MOL0     C12897   8.404   2.866   1.403 -0.3664  0.3743  0.3087
  819MOL0     C12898   8.442   2.716   1.385  0.4619 -0.3325  0.1906
  819MOL0     C12899   8.574   2.705   1.305 -0.2535 -0.2630  0.0629
  819MOL0     C12900   8.592   2.560   1.255 -0.5729  0.4289 -0.5187
  819MOL0     N12901   8.707   2.542   1.167 -0.2895  1.3905 -0.4130
  819MOL0     C12902   8.694   2.490   1.040 -0.3149 -0.8364 -0.4610
  819MOL0     C12903   8.821   2.492   0.989 -0.5705  0.3974  0.6494
  819MOL0     C12904   8.881   2.444   0.861  0.4966  0.1655 -0.3938
  819MOL0     C12905   8.853   2.300   0.804  0.5915  0.4003 -0.2901
  819MOL0     C12906   8.862   2.199   0.921  0.9960 -0.1315  0.7236
  819MOL0     C12907   8.829   2.056   0.865  0.1806  0.0534 -0.2872
  819MOL0     O12908   8.688   2.016   0.876  0.0506  0.8690 -0.4835
  819MOL0     C12909   8.647   1.916   0.801  0.5076 -0.3936 -0.5974
  819MOL0     C12910   8.585   1.812   0.876 -0.7618  0.0029  1.5358
  819MOL0     C12911   8.519   1.711   0.813 -0.1280  0.3402  0.3985
  819MOL0     C12912   8.457   1.600   0.901 -0.4598 -0.2926 -0.0151
  819MOL0     C12913   8.496   1.717   0.678  0.4005 -0.1444  0.6990
  819MOL0     C12914   8.416   1.618   0.602 -0.2657  0.2119 -0.1126
  819MOL0     O12915   8.291   1.580   0.654  0.4164 -0.1320 -0.0889
  819MOL0     C12916   8.237   1.477   0.585  0.2348 -0.2108  0.1095
  819MOL0     C12917   8.295   1.352   0.600 -0.7113 -0.1162  0.8041
  819MOL0     C12918   8.246   1.243   0.526 -1.0470  0.6002  0.2756
  819MOL0     C12919   8.139   1.256   0.435  0.4966  0.5992 -0.9974
  819MOL0     O12920   8.104   1.164   0.341 -1.0982  1.1398  0.0520
  819MOL0     C12921   8.067   1.032   0.396 -0.0050 -0.0475  0.4076
  819MOL0     C12922   7.944   1.047   0.498 -0.0514 -0.1316 -0.2518
  819MOL0     C12923   7.902   0.908   0.562 -0.9071 -0.5582 -0.6194
  819MOL0     C12924   7.760   0.917   0.625 -0.4646  0.5168  0.2869
  819MOL0     C12925   7.736   0.817   0.738 -0.3382  0.9820  1.0365
  819MOL0     C12926   7.587   0.792   0.761  0.7556 -0.3066 -0.3558
  819MOL0     C12927   7.571   0.665   0.846 -1.5601  1.2440 -0.3435
  819MOL0     C12928   7.429   0.614   0.870  0.4128  0.2327  0.5793
  819MOL0    Cl12929   7.321   0.763   0.878  0.2618 -0.0980  0.3844
  819MOL0     C12930   8.077   1.379   0.421 -0.1854 -0.0449  0.8035
  819MOL0     C12931   8.123   1.483   0.498 -0.4078 -0.4600 -0.7881
  819MOL0     O12932   8.452   1.583   0.492  0.0653 -0.4126 -0.5002
  819MOL0     C12933   8.552   1.819   0.600  0.9829 -0.7052  0.6538
  819MOL0     C12934   8.620   1.922   0.664  0.2211  0.4382  0.0923
  819MOL0     N12935   8.902   2.575   1.071  0.0431 -0.0683 -0.9494
  819MOL0     N12936   8.836   2.585   1.184 -0.3498  0.7669  0.3865
  819MOL0     C12937   8.247   3.168   0.773  0.1147 -0.2700 -0.6487
  819MOL0     C12938   8.257   3.232   0.651  1.1643 -0.0270  0.0106
  819MOL0     C12939   8.255   3.424   0.280 -0.5661  0.2323 -0.9476
  819MOL0     C12940   8.171   3.424   0.166  0.7686  0.2027 -1.2983
  819MOL0     C12941   8.180   3.528   0.077 -0.2925  0.2837  0.4097
  819MOL0     C12942   8.246   3.649   0.107 -0.0376 -0.4520  0.4542
  819MOL0     O12943   8.231   3.753   0.018 -0.3005 -1.0596 -0.1658
  819MOL0     C12944   8.316   3.871   0.034  0.0690  0.1243 -0.3032
  819MOL0     C12945   8.249   3.977  -0.064  0.9758  0.1720 -0.5856
  819MOL0     C12946   8.274   3.933  -0.213 -0.4273 -0.7077  0.7471
  819MOL0     C12947   8.234   4.045  -0.322  0.3088 -0.1992 -0.1834
  819MOL0     C12948   8.263   4.000  -0.457 -0.2094 -0.1853 -0.0973
  819MOL0     C12949   8.282   3.959  -0.570 -0.2110  0.0282 -0.0798
  819MOL0     C12950   8.324   3.652   0.222  0.1073 -0.1142 -0.0148
  819MOL0     C12951   8.334   3.543   0.305  0.4046  0.9775  0.1023
  819MOL0     C12952   8.421   3.548   0.431  0.2709 -0.0381 -0.6472
  819MOL0     H12953   7.942   3.371   0.643 -0.7148 -0.2504  0.9130
  819MOL0     H12954   7.926   3.268   0.845 -1.3084  2.4008 -2.4532
  819MOL0     H12955   8.292   3.137   1.049  0.2230 -0.0242  1.9636
  819MOL0     H12956   8.239   2.965   1.007 -1.7222 -0.3958 -1.1700
  819MOL0     H12957   8.100   3.157   1.216 -1.6828  0.9040  1.6331
  819MOL0     H12958   8.081   2.979   1.197 -1.0394  2.2290  1.6645
  819MOL0     H12959   8.348   3.114   1.270  0.5361 -0.4802 -0.6436
  819MOL0     H12960   8.215   3.066   1.378 -2.4411 -0.2548 -1.0252
  819MOL0     H12961   8.237   2.826   1.278 -1.7219  1.4765 -0.7447
  819MOL0     H12962   8.385   2.892   1.186 -0.9225 -3.0299 -0.3882
  819MOL0     H12963   8.352   2.882   1.498  1.4568 -0.9551  1.6253
  819MOL0     H12964   8.497   2.922   1.419 -0.0821  0.2718 -0.9271
  819MOL0     H12965   8.471   2.672   1.480  1.3449  0.8683  0.4957
  819MOL0     H12966   8.356   2.663   1.341 -0.0583  1.3281 -0.9201
  819MOL0     H12967   8.660   2.745   1.359 -0.3546  1.9589 -1.3071
  819MOL0     H12968   8.568   2.759   1.210  6.4370 -0.7676 -1.1492
  819MOL0     H12969   8.600   2.502   1.348 -2.7870  1.4245  0.3870
  819MOL0     H12970   8.502   2.524   1.205 -1.7041  0.8018  1.1369
  819MOL0     H12971   8.598   2.466   0.995 -0.0124 -2.9049 -0.0871
  819MOL0     H12972   8.987   2.450   0.886  0.2240  2.0647  0.5176
  819MOL0     H12973   8.861   2.515   0.780  1.9602  0.7835 -0.2358
  819MOL0     H12974   8.752   2.301   0.761  0.7924 -0.3831 -0.7868
  819MOL0     H12975   8.917   2.267   0.722 -1.5090 -0.4553 -1.6779
  819MOL0     H12976   8.963   2.204   0.963  1.2869  1.0408 -0.0555
  819MOL0     H12977   8.798   2.226   1.005  2.7754  3.3905  1.1526
  819MOL0     H12978   8.863   2.056   0.761  1.1659  1.9609 -0.0140
  819MOL0     H12979   8.881   1.974   0.916 -0.2840 -0.5416 -0.7622
  819MOL0     H12980   8.575   1.809   0.984  0.3654 -0.1420  1.6543
  819MOL0     H12981   8.471   1.498   0.865  0.3015  0.0937 -0.8387
  819MOL0     H12982   8.352   1.619   0.924 -0.5029 -0.8620  0.2987
  819MOL0     H12983   8.508   1.600   0.998  0.5870  1.0337 -0.5396
  819MOL0     H12984   8.382   1.334   0.663 -0.3349  1.6726  0.8567
  819MOL0     H12985   8.296   1.147   0.534  0.4486  1.3984  1.0401
  819MOL0     H12986   8.023   0.967   0.320  2.9157 -1.0575 -0.5765
  819MOL0     H12987   8.159   1.000   0.445  0.0678  0.9906  0.9779
  819MOL0     H12988   7.962   1.130   0.567 -1.4673  1.7225 -2.0232
  819MOL0     H12989   7.857   1.089   0.448 -0.2643  1.4180  1.3379
  819MOL0     H12990   7.982   0.898   0.636 -0.3308  3.2153 -0.5201
  819MOL0     H12991   7.900   0.821   0.495 -0.3714  0.8073 -2.4863
  819MOL0     H12992   7.690   0.912   0.541  0.8655  2.0064 -0.9793
  819MOL0     H12993   7.751   1.018   0.666 -2.1757  1.6031 -2.4772
  819MOL0     H12994   7.786   0.729   0.696  1.3672  1.5835  1.7444
  819MOL0     H12995   7.798   0.845   0.823  0.1765  3.9388 -0.2135
  819MOL0     H12996   7.535   0.784   0.665 -0.3018 -2.6068  0.3431
  819MOL0     H12997   7.536   0.872   0.816 -0.2684 -2.2882  1.7095
  819MOL0     H12998   7.618   0.685   0.943 -2.5725 -1.9824  0.9467
  819MOL0     H12999   7.632   0.591   0.793  1.2043  3.1688 -0.1026
  819MOL0     H13000   7.420   0.550   0.958 -0.7255 -0.1230  0.2243
  819MOL0     H13001   7.407   0.544   0.789  2.7320 -2.3324  1.9821
  819MOL0     H13002   7.995   1.386   0.350  1.9725  1.7874 -1.7333
  819MOL0     H13003   8.081   1.583   0.498  2.2102  0.7256 -1.1557
  819MOL0     H13004   8.532   1.837   0.495 -2.5753  1.9077  1.5851
  819MOL0     H13005   8.664   2.004   0.608  0.6561 -1.1168 -1.9451
  819MOL0     H13006   8.327   3.106   0.813 -0.3077  1.5454  3.6033
  819MOL0     H13007   8.345   3.217   0.589 -0.6596 -1.0765 -2.4989
  819MOL0     H13008   8.115   3.334   0.141  0.6760 -0.1606  0.1378
  819MOL0     H13009   8.120   3.522  -0.014  0.0456  0.4278  0.1755
  819MOL0     H13010   8.307   3.905   0.137  1.0726  1.1095 -0.5309
  819MOL0     H13011   8.422   3.856   0.010  0.2745 -1.9697  1.5941
  819MOL0     H13012   8.294   4.076  -0.051  0.3231  0.8675 -3.1962
  819MOL0     H13013   8.144   3.973  -0.036  1.2165  0.9192  0.4880
  819MOL0     H13014   8.383   3.938  -0.208 -0.3656 -0.7384 -0.4497
  819MOL0     H13015   8.244   3.830  -0.236  2.0051 -1.3612  0.1554
  819MOL0     H13016   8.278   4.144  -0.306  0.6410 -0.2896 -0.5332
  819MOL0     H13017   8.125   4.050  -0.311  0.0271  1.1708 -2.6462
  819MOL0     H13018   8.299   3.908  -0.663  2.7625 -1.4084  1.1200
  819MOL0     H13019   8.380   3.744   0.239 -1.1731  0.3428  2.0914
  819MOL0     H13020   8.441   3.451   0.475  0.1670  1.2072  2.3858
  819MOL0     H13021   8.515   3.602   0.418 -0.7703  1.6672 -1.6339
  819MOL0     H13022   8.361   3.603   0.505  2.1564  0.8544  0.2751
  820MOL0     O13023   8.300   7.661   7.729  1.3486  0.3451  0.1755
  820MOL0     C13024   8.396   7.735   7.705  0.5236 -0.1058  0.5906
  820MOL0     O13025   8.390   7.869   7.663  0.0395 -0.4783 -0.1273
  820MOL0     C13026   8.267   7.931   7.638 -0.2675  0.2033  0.2684
  820MOL0     C13027   8.184   7.881   7.540 -0.0813 -0.0175  0.6552
  820MOL0     C13028   8.080   7.958   7.498  0.9170 -0.4146  0.1281
  820MOL0     C13029   8.032   8.075   7.574 -0.1111  0.0166  0.2621
  820MOL0     O13030   7.905   8.121   7.543  0.6081 -0.2134  0.0136
  820MOL0     C13031   7.839   8.188   7.655  0.4520 -0.0764 -0.1946
  820MOL0     C13032   7.726   8.276   7.601 -0.3743  0.6732  0.5466
  820MOL0     C13033   7.773   8.412   7.566  0.2332 -0.8756 -1.0182
  820MOL0     C13034   7.685   8.503   7.466  0.1317 -1.7187 -0.0364
  820MOL0     C13035   7.718   8.502   7.317 -0.7897  0.7321 -0.5408
  820MOL0     C13036   7.614   8.547   7.220 -0.3463  0.0210 -0.3629
  820MOL0     C13037   7.602   8.702   7.225 -0.9091  0.5000 -0.2127
  820MOL0     C13038   7.519   8.751   7.105 -0.4127  0.3028 -0.1807
  820MOL0     N13039   7.380   8.702   7.118 -0.1228  0.3659 -0.8788
  820MOL0     C13040   7.290   8.724   7.223  0.6669 -0.2859 -0.0126
  820MOL0     C13041   7.191   8.634   7.202  0.2882  1.5547  0.4073
  820MOL0     C13042   7.054   8.600   7.272 -0.4508 -1.4055 -0.5740
  820MOL0     C13043   6.954   8.726   7.234 -0.1611  0.5067  0.1230
  820MOL0     C13044   6.847   8.756   7.336 -0.9873 -0.3124  0.5217
  820MOL0     C13045   6.752   8.643   7.355 -0.1018  0.7275 -0.4509
  820MOL0     O13046   6.791   8.534   7.430  0.1959 -0.4428 -0.3682
  820MOL0     C13047   6.753   8.524   7.563 -0.2285 -0.4028  0.0709
  820MOL0     C13048   6.708   8.407   7.603 -0.1282  0.6154 -0.7542
  820MOL0     C13049   6.642   8.394   7.725  0.9889 -0.0329  0.0285
  820MOL0     C13050   6.583   8.257   7.752 -0.0125 -0.5881 -0.0790
  820MOL0     C13051   6.619   8.504   7.803  0.6353 -0.0307 -0.4382
  820MOL0     C13052   6.514   8.509   7.911 -0.9544  0.1974  0.3584
  820MOL0     O13053   6.480   8.627   7.968  0.4094  0.3612  0.0529
  820MOL0     C13054   6.393   8.632   8.080  0.8746 -0.8631 -0.4528
  820MOL0     C13055   6.313   8.748   8.084  0.4712  0.4457 -0.1151
  820MOL0     C13056   6.232   8.782   8.192 -0.0172  0.3926 -0.1078
  820MOL0     C13057   6.219   8.692   8.296  0.9185  0.7185  0.1491
  820MOL0     O13058   6.126   8.721   8.396  1.0543  0.7423 -0.8519
  820MOL0     C13059   6.104   8.633   8.503 -0.2838  0.3541  0.4926
  820MOL0     C13060   5.966   8.665   8.563  0.2305 -0.1930  0.3462
  820MOL0     C13061   5.904   8.572   8.672  0.0833  0.8810 -0.0243
  820MOL0     C13062   5.888   8.433   8.599  0.6770  0.4423 -0.7370
  820MOL0     C13063   5.825   8.335   8.697  0.4100 -0.7162  0.3053
  820MOL0     C13064   5.667   8.345   8.719  0.5165 -0.1040  0.3350
  820MOL0     C13065   5.604   8.218   8.789 -0.5913  0.8018 -0.1125
  820MOL0     C13066   5.455   8.222   8.750 -0.6673 -0.9448 -0.0373
  820MOL0    Cl13067   5.360   8.082   8.818 -0.1976 -0.1853 -0.2953
  820MOL0     C13068   6.300   8.578   8.302  1.0151  0.0027  0.5887
  820MOL0     C13069   6.384   8.550   8.198 -0.3526  0.4497  0.4239
  820MOL0     O13070   6.460   8.404   7.939  0.5459  0.6139 -0.0641
  820MOL0     C13071   6.691   8.619   7.773  0.9480 -0.6366  0.0843
  820MOL0     C13072   6.760   8.629   7.654  0.0686 -0.1082 -0.3371
  820MOL0     N13073   7.211   8.579   7.074  0.6610  0.2280  0.8958
  820MOL0     N13074   7.323   8.618   7.026  0.2701 -0.6506 -0.9921
  820MOL0     C13075   8.122   8.119   7.672  0.3600 -0.1208  0.1112
  820MOL0     C13076   8.242   8.057   7.696 -0.0933 -0.2914 -0.3459
  820MOL0     C13077   8.526   7.664   7.699  1.1016 -0.4920 -0.6906
  820MOL0     C13078   8.635   7.753   7.688 -0.7589 -0.2977 -0.5804
  820MOL0     C13079   8.763   7.711   7.700 -1.0681 -0.7191  0.2040
  820MOL0     C13080   8.796   7.572   7.704  0.0076 -0.0470  0.4793
  820MOL0     O13081   8.928   7.539   7.711 -0.0027 -0.2150  0.6136
  820MOL0     C13082   8.966   7.413   7.761  0.5296  0.1141 -0.2996
  820MOL0     C13083   9.108   7.416   7.805 -1.1205  0.2872 -0.1425
  820MOL0     C13084   9.106   7.517   7.928 -0.2159  0.8529 -0.7852
  820MOL0     C13085   9.251   7.515   7.977 -0.3717 -0.1585  0.5665
  820MOL0     C13086   9.323   7.388   8.006 -0.6573 -0.7864  0.5133
  820MOL0     C13087   9.378   7.278   8.026  1.1213  0.5564  0.5968
  820MOL0     C13088   8.688   7.484   7.697  0.2808  0.1195  0.4659
  820MOL0     C13089   8.553   7.524   7.701 -0.6077  0.7140  0.0396
  820MOL0     C13090   8.445   7.421   7.723 -0.1100 -0.4663 -0.0553
  820MOL0     H13091   8.219   7.795   7.485  0.7932 -0.4343  1.8205
  820MOL0     H13092   8.015   7.915   7.422  0.2261 -1.6151  1.3560
  820MOL0     H13093   7.907   8.252   7.713 -1.7908  3.8141 -1.4416
  820MOL0     H13094   7.799   8.112   7.723  0.1787  1.7001  1.7458
  820MOL0     H13095   7.689   8.234   7.506  1.1903  0.8613 -0.1706
  820MOL0     H13096   7.642   8.290   7.669 -0.6184  0.5270  0.2818
  820MOL0     H13097   7.771   8.478   7.653 -2.7674 -0.4035 -1.3442
  820MOL0     H13098   7.870   8.416   7.516 -0.2211  1.6195 -1.8189
  820MOL0     H13099   7.581   8.476   7.487 -0.5943  0.4749 -0.5880
  820MOL0     H13100   7.700   8.610   7.483  0.9099 -0.9985 -4.1817
  820MOL0     H13101   7.740   8.397   7.298  3.0176  0.5532  3.4516
  820MOL0     H13102   7.811   8.559   7.302  1.4569 -2.2803  1.0744
  820MOL0     H13103   7.651   8.525   7.119  0.0852 -0.8675 -0.0139
  820MOL0     H13104   7.520   8.495   7.243 -1.5264  2.2586  0.1858
  820MOL0     H13105   7.699   8.745   7.199 -1.1746  2.4067  1.6424
  820MOL0     H13106   7.573   8.737   7.325 -0.8762 -0.3286  0.0992
  820MOL0     H13107   7.528   8.860   7.098  2.4558  0.0900 -1.3917
  820MOL0     H13108   7.554   8.718   7.007 -1.1049  1.2820 -0.7831
  820MOL0     H13109   7.285   8.794   7.306  0.5618 -1.6545  1.1826
  820MOL0     H13110   7.059   8.598   7.382 -0.5005  1.7325 -0.4210
  820MOL0     H13111   7.020   8.502   7.238  4.1360 -3.8598  1.0680
  820MOL0     H13112   7.022   8.811   7.225 -1.8249  1.7025 -2.5678
  820MOL0     H13113   6.903   8.719   7.137  2.1732 -0.6618 -1.1208
  820MOL0     H13114   6.897   8.784   7.429 -1.9284 -0.4581  1.0849
  820MOL0     H13115   6.787   8.844   7.312 -1.4550 -0.7946 -0.1009
  820MOL0     H13116   6.663   8.686   7.402  1.8277  2.4566  1.8916
  820MOL0     H13117   6.729   8.609   7.253  2.5572 -1.5448 -0.4009
  820MOL0     H13118   6.705   8.320   7.538 -0.1675 -0.9126  1.1932
  820MOL0     H13119   6.474   8.252   7.740 -0.2685  2.1151  0.4004
  820MOL0     H13120   6.599   8.222   7.855 -0.0407 -2.0782 -0.5590
  820MOL0     H13121   6.628   8.178   7.692 -2.2541 -2.1302  0.1074
  820MOL0     H13122   6.329   8.823   8.007  0.3149 -1.7590 -2.4565
  820MOL0     H13123   6.165   8.867   8.204 -3.3898 -2.4597  5.2565
  820MOL0     H13124   6.101   8.527   8.477 -2.0804  0.2611  0.9701
  820MOL0     H13125   6.186   8.646   8.573 -0.0295 -2.6953  0.9024
  820MOL0     H13126   5.986   8.760   8.613  0.6226  0.7415 -1.4804
  820MOL0     H13127   5.894   8.682   8.482 -1.4471 -1.3617  1.5548
  820MOL0     H13128   5.806   8.614   8.696 -1.6895 -0.1010 -4.5108
  820MOL0     H13129   5.967   8.555   8.759  0.8364 -0.1897 -0.7461
  820MOL0     H13130   5.985   8.383   8.591  0.2635 -0.2353 -1.5901
  820MOL0     H13131   5.832   8.433   8.506 -1.0899 -4.5083  0.0478
  820MOL0     H13132   5.847   8.233   8.665 -0.8229 -0.6858 -0.7090
  820MOL0     H13133   5.873   8.338   8.796 -0.9584  1.0738  0.9526
  820MOL0     H13134   5.630   8.339   8.616  2.0436 -1.7413 -0.1785
  820MOL0     H13135   5.647   8.440   8.768 -0.1139 -1.6457  3.3232
  820MOL0     H13136   5.618   8.220   8.898 -4.7464 -1.3607  0.6344
  820MOL0     H13137   5.643   8.121   8.759  1.7964  2.5433 -3.2829
  820MOL0     H13138   5.451   8.204   8.642 -0.4995 -1.1581 -0.0085
  820MOL0     H13139   5.416   8.322   8.769  3.6811  0.7820  0.9367
  820MOL0     H13140   6.298   8.514   8.390  0.2879 -0.2964  0.3598
  820MOL0     H13141   6.445   8.461   8.210 -0.5507  0.5321  2.3257
  820MOL0     H13142   6.702   8.709   7.833  1.2161 -1.6259  1.5820
  820MOL0     H13143   6.806   8.720   7.618 -0.3317 -0.9446 -3.2462
  820MOL0     H13144   8.112   8.216   7.721 -1.4620 -0.0060 -0.4080
  820MOL0     H13145   8.314   8.104   7.762 -1.2750 -1.4516  1.8641
  820MOL0     H13146   8.621   7.861   7.695  1.9404  0.2391 -2.0883
  820MOL0     H13147   8.838   7.789   7.694 -1.7039 -0.2379 -3.5408
  820MOL0     H13148   8.893   7.387   7.838 -1.4476 -1.3215 -2.5198
  820MOL0     H13149   8.944   7.333   7.690  0.3026 -0.3096  0.2378
  820MOL0     H13150   9.179   7.453   7.731  2.1217 -1.5763  1.7788
  820MOL0     H13151   9.140   7.317   7.841 -0.2114  0.3461 -0.7527
  820MOL0     H13152   9.076   7.619   7.902  0.7433  1.3567  0.0234
  820MOL0     H13153   9.039   7.472   8.002  1.6586 -3.1674 -1.2381
  820MOL0     H13154   9.255   7.559   8.078 -0.1105  1.3563 -0.0772
  820MOL0     H13155   9.312   7.584   7.919  1.3196 -0.2709  2.1091
  820MOL0     H13156   9.413   7.178   8.031  3.3904  1.1494 -1.6077
  820MOL0     H13157   8.709   7.379   7.678  0.1374 -0.0362  1.1424
  820MOL0     H13158   8.382   7.413   7.634 -1.5965 -2.0404  1.0647
  820MOL0     H13159   8.488   7.326   7.757 -0.8176  0.3023  3.3888
  820MOL0     H13160   8.387   7.457   7.808 -2.1703 -0.8958 -1.2127
  821MOL0     O13161   6.160  10.105  10.025  0.1911 -0.1020  0.0064
  821MOL0     C13162   6.218  10.073  10.131 -0.4009  0.4075 -0.7776
  821MOL0     O13163   6.290   9.954  10.156 -0.4146  0.5200  0.4756
  821MOL0     C13164   6.304   9.853  10.059 -1.1827  0.2923 -0.5512
  821MOL0     C13165   6.369   9.739  10.107 -0.1102  0.1462 -0.3919
  821MOL0     C13166   6.392   9.630  10.017  0.2769 -0.3663 -0.7334
  821MOL0     C13167   6.370   9.631   9.883 -0.0220 -0.5514  0.0647
  821MOL0     O13168   6.397   9.516   9.812  0.0071  0.2824 -0.5977
  821MOL0     C13169   6.339   9.485   9.688 -0.2479 -0.1351  0.8880
  821MOL0     C13170   6.328   9.334   9.676 -0.2707  0.3610  0.4760
  821MOL0     C13171   6.457   9.250   9.659 -0.1804  0.7734 -0.6131
  821MOL0     C13172   6.507   9.182   9.792 -0.7142  0.0015 -0.8612
  821MOL0     C13173   6.653   9.126   9.780 -0.0492  0.2252  0.8166
  821MOL0     C13174   6.653   8.994   9.703  0.0046  0.0852  0.5186
  821MOL0     C13175   6.795   8.940   9.670 -0.4045 -0.7471  0.6191
  821MOL0     C13176   6.788   8.826   9.566  0.6330 -0.1509 -0.4233
  821MOL0     N13177   6.711   8.713   9.621 -0.7161 -0.3374 -0.5753
  821MOL0     C13178   6.729   8.651   9.741  0.1615 -0.3128  0.6705
  821MOL0     C13179   6.643   8.547   9.738  0.6187 -0.8015  0.2283
  821MOL0     C13180   6.615   8.428   9.828  0.6127 -0.1202  0.8674
  821MOL0     C13181   6.602   8.472   9.975  0.1893 -0.2582 -0.6681
  821MOL0     C13182   6.586   8.356  10.079 -0.4844 -0.7335 -0.4166
  821MOL0     C13183   6.713   8.262  10.094  0.1320 -0.6559  0.3487
  821MOL0     O13184   6.809   8.343  10.178 -0.3648  0.1595 -0.2132
  821MOL0     C13185   6.931   8.287  10.170  0.5640 -0.1544 -0.1414
  821MOL0     C13186   6.959   8.176  10.250 -1.5816 -0.5196  0.4856
  821MOL0     C13187   7.079   8.110  10.228  0.2445 -0.3877  0.2462
  821MOL0     C13188   7.100   7.990  10.328 -0.1050  0.3768 -0.0146
  821MOL0     C13189   7.171   8.163  10.132  0.4290 -0.8436  0.6381
  821MOL0     C13190   7.301   8.101  10.105  0.0594  0.4078  1.2809
  821MOL0     O13191   7.388   8.153  10.026 -0.9530 -0.5214 -0.7141
  821MOL0     C13192   7.483   8.072   9.977 -0.0905  0.7770  0.4750
  821MOL0     C13193   7.616   8.098   9.975  0.1725  0.1067 -0.6784
  821MOL0     C13194   7.720   8.014   9.916 -0.3018 -0.3562  0.0032
  821MOL0     C13195   7.677   7.910   9.836 -0.2527  0.3170  0.0723
  821MOL0     O13196   7.761   7.828   9.770 -0.7507  0.3599 -0.1493
  821MOL0     C13197   7.900   7.848   9.796 -0.1124 -0.4274  0.1832
  821MOL0     C13198   7.977   7.717   9.754 -0.4718 -0.7514 -0.3279
  821MOL0     C13199   7.985   7.704   9.596 -0.2982 -0.2628 -0.5847
  821MOL0     C13200   8.098   7.611   9.547 -0.2024  0.7854 -0.3770
  821MOL0     C13201   8.063   7.468   9.569 -0.2188 -0.3488 -0.2852
  821MOL0     C13202   8.180   7.392   9.503 -0.2492  0.3358 -0.0958
  821MOL0     C13203   8.162   7.238   9.533 -0.0755  0.0589  0.5394
  821MOL0     C13204   8.026   7.167   9.545  0.0671  0.2785 -0.1839
  821MOL0    Cl13205   7.962   7.147   9.381  0.0846  0.0018  0.1145
  821MOL0     C13206   7.538   7.891   9.821 -0.2194  0.3677 -1.0529
  821MOL0     C13207   7.445   7.961   9.899 -0.5403  1.0076 -0.2678
  821MOL0     O13208   7.328   8.006  10.175  0.0396  0.5212 -0.0485
  821MOL0     C13209   7.142   8.273  10.053  0.8615  0.8417 -0.4927
  821MOL0     C13210   7.018   8.330  10.073  0.4708 -0.7481 -0.6891
  821MOL0     N13211   6.588   8.547   9.610  0.4243  0.0109  0.2880
  821MOL0     N13212   6.626   8.647   9.542 -0.1734  0.7939  0.1573
  821MOL0     C13213   6.316   9.751   9.835 -1.0591  0.5040  0.1160
  821MOL0     C13214   6.284   9.859   9.915  0.4059 -0.5672  0.1795
  821MOL0     C13215   6.229  10.174  10.240 -0.3049 -0.1910 -0.1950
  821MOL0     C13216   6.317  10.139  10.345 -0.1497 -0.5342 -0.5907
  821MOL0     C13217   6.331  10.221  10.456  0.5398  0.2438  0.3051
  821MOL0     C13218   6.246  10.334  10.478 -0.9548  0.1948  0.1281
  821MOL0     O13219   6.249  10.411  10.590  0.1664  0.0290  0.0416
  821MOL0     C13220   6.363  10.489  10.612 -0.7953 -0.4348 -0.3988
  821MOL0     C13221   6.384  10.600  10.501  0.5079  0.1666 -0.3766
  821MOL0     C13222   6.522  10.674  10.491  0.4867  0.1574  0.3072
  821MOL0     C13223   6.560  10.754  10.609  0.5057 -0.2980 -0.4583
  821MOL0     C13224   6.454  10.852  10.624 -0.1825  0.8793 -0.4498
  821MOL0     C13225   6.356  10.928  10.641 -0.5879  0.2447  0.3938
  821MOL0     C13226   6.165  10.369  10.370  0.0653  0.1270 -0.8942
  821MOL0     C13227   6.153  10.298  10.245 -0.0654  0.2106 -0.0180
  821MOL0     C13228   6.059  10.343  10.139 -0.0049  0.5811  0.5121
  821MOL0     H13229   6.397   9.733  10.212  1.1279 -1.1454 -0.7680
  821MOL0     H13230   6.430   9.536  10.053  0.0812 -1.2723 -2.7466
  821MOL0     H13231   6.415   9.521   9.618  2.6605 -3.5086  1.9768
  821MOL0     H13232   6.241   9.532   9.678  0.7463  1.5258 -2.9770
  821MOL0     H13233   6.277   9.301   9.767  0.2662  1.6708  1.2770
  821MOL0     H13234   6.265   9.311   9.590  1.7433  0.4013 -1.0992
  821MOL0     H13235   6.428   9.164   9.597  1.4355  0.1391 -0.5576
  821MOL0     H13236   6.539   9.297   9.603 -0.3075  2.4348  0.5248
  821MOL0     H13237   6.501   9.251   9.877  0.4353 -0.8930 -0.0120
  821MOL0     H13238   6.443   9.098   9.821  2.0782 -0.3664  6.2539
  821MOL0     H13239   6.688   9.112   9.883 -0.2273  4.3145  1.6227
  821MOL0     H13240   6.722   9.200   9.738 -2.3244  0.3774 -3.1867
  821MOL0     H13241   6.599   8.917   9.758  1.5662 -1.1838  0.3547
  821MOL0     H13242   6.597   9.010   9.611  0.5885  1.3088  0.3523
  821MOL0     H13243   6.848   8.911   9.762  0.0855 -0.5397  0.4056
  821MOL0     H13244   6.859   9.018   9.627  1.6997 -3.3344 -1.3265
  821MOL0     H13245   6.739   8.854   9.473 -2.0496 -0.6684  0.7354
  821MOL0     H13246   6.895   8.807   9.551  0.1208 -4.3164 -0.0551
  821MOL0     H13247   6.800   8.679   9.819  0.1403  0.1402  0.5302
  821MOL0     H13248   6.685   8.345   9.815 -1.7529 -1.9374 -1.1074
  821MOL0     H13249   6.517   8.387   9.801  1.9938 -1.9790 -1.8318
  821MOL0     H13250   6.693   8.527  10.000 -0.0425  0.1319 -0.6648
  821MOL0     H13251   6.510   8.532   9.975 -0.0671 -0.6412 -1.2853
  821MOL0     H13252   6.557   8.392  10.178  0.0931 -4.2031  1.1832
  821MOL0     H13253   6.495   8.304  10.045 -1.4801  0.5637  0.1989
  821MOL0     H13254   6.689   8.169  10.145 -0.0947 -0.7250  0.1139
  821MOL0     H13255   6.756   8.242   9.995 -0.6480 -0.4307 -0.0411
  821MOL0     H13256   6.895   8.149  10.334  0.1551 -3.5105  0.9989
  821MOL0     H13257   7.007   7.960  10.378 -0.8393  0.5335 -1.2380
  821MOL0     H13258   7.164   8.016  10.412  0.8432  2.5641 -1.3231
  821MOL0     H13259   7.128   7.901  10.271  3.3503  2.2513 -1.5654
  821MOL0     H13260   7.652   8.193  10.014  0.3071 -0.5025  0.7619
  821MOL0     H13261   7.822   8.045   9.931  0.0959 -0.1236 -2.6832
  821MOL0     H13262   7.927   7.938   9.740 -3.9819  0.7150 -0.1843
  821MOL0     H13263   7.921   7.868   9.902  0.5210 -0.5185  0.0742
  821MOL0     H13264   8.079   7.727   9.791  0.1669 -0.4814 -2.0459
  821MOL0     H13265   7.942   7.622   9.795  0.7795 -0.4828  1.4794
  821MOL0     H13266   7.988   7.808   9.563 -0.4974  0.3707  1.2604
  821MOL0     H13267   7.892   7.668   9.553  0.7324  0.2382 -3.4135
  821MOL0     H13268   8.192   7.627   9.601 -0.5455  3.2521 -0.4096
  821MOL0     H13269   8.107   7.621   9.439 -0.7007  1.7105 -0.3483
  821MOL0     H13270   8.060   7.447   9.677 -0.8375  0.1943 -0.1928
  821MOL0     H13271   7.974   7.432   9.517  0.2007 -3.1033  0.7026
  821MOL0     H13272   8.279   7.418   9.542 -0.8135  0.1688  1.5620
  821MOL0     H13273   8.184   7.405   9.395  3.2922 -2.4401 -0.4535
  821MOL0     H13274   8.218   7.213   9.624 -1.9223 -1.3797  1.3341
  821MOL0     H13275   8.223   7.189   9.456  1.7059  1.1463  1.1978
  821MOL0     H13276   7.973   7.234   9.613 -1.3715 -0.4706 -0.5179
  821MOL0     H13277   8.029   7.066   9.586 -1.0984 -0.5299 -1.9327
  821MOL0     H13278   7.499   7.815   9.754 -2.0473 -2.3950  2.7341
  821MOL0     H13279   7.339   7.935   9.896 -1.4856  3.9682  2.1765
  821MOL0     H13280   7.219   8.314   9.989  3.0253  0.2610  1.5780
  821MOL0     H13281   6.985   8.413  10.012 -2.7874 -1.0059  0.5081
  821MOL0     H13282   6.277   9.760   9.734 -0.2835  1.9516 -0.0893
  821MOL0     H13283   6.239   9.938   9.855  0.7663 -0.1981  0.3874
  821MOL0     H13284   6.380  10.052  10.357  0.1958 -0.2255 -0.1601
  821MOL0     H13285   6.395  10.188  10.537 -3.5203 -1.8402  3.0270
  821MOL0     H13286   6.366  10.547  10.705  2.7671 -0.6540 -0.2248
  821MOL0     H13287   6.456  10.431  10.618  0.7448  2.0298  2.7327
  821MOL0     H13288   6.301  10.671  10.510 -1.0869 -1.4270 -1.7932
  821MOL0     H13289   6.365  10.559  10.402 -0.3039  1.1195 -0.6335
  821MOL0     H13290   6.594  10.595  10.470  1.2519  0.5722  1.3235
  821MOL0     H13291   6.515  10.730  10.397 -1.1675 -4.4028 -2.6093
  821MOL0     H13292   6.648  10.818  10.597  0.9734 -0.6260  1.0352
  821MOL0     H13293   6.572  10.699  10.703 -3.2232 -2.0816 -0.8396
  821MOL0     H13294   6.271  10.993  10.642 -0.8662  0.1571 -3.2727
  821MOL0     H13295   6.096  10.453  10.370 -3.2529 -2.3555 -0.1259
  821MOL0     H13296   6.109  10.346  10.042  1.6169  0.9022  1.3321
  821MOL0     H13297   5.979  10.268  10.132 -0.3527  0.8981  1.0269
  821MOL0     H13298   6.012  10.440  10.158 -0.7794 -0.0327  1.8734
  822MOL0     O13299   1.667   2.678   7.436 -0.4223  0.8210 -0.6318
  822MOL0     C13300   1.570   2.608   7.401 -0.2144  0.5554 -0.0701
  822MOL0     O13301   1.586   2.480   7.335  0.0043 -0.8167  0.6622
  822MOL0     C13302   1.706   2.452   7.266  0.0036  0.1919 -1.7003
  822MOL0     C13303   1.771   2.329   7.278  0.2365 -0.2128  0.0304
  822MOL0     C13304   1.894   2.296   7.214  0.2723  0.0100 -0.6444
  822MOL0     C13305   1.945   2.391   7.128  0.5554 -0.0074 -0.1142
  822MOL0     O13306   2.065   2.373   7.059  0.2296 -0.4520 -0.0674
  822MOL0     C13307   2.181   2.421   7.128 -0.2315 -0.3659 -0.8604
  822MOL0     C13308   2.295   2.339   7.068  0.0819 -0.3222 -0.7547
  822MOL0     C13309   2.440   2.372   7.125 -0.4299  0.2193 -0.1925
  822MOL0     C13310   2.479   2.524   7.106  0.7321  0.2425 -1.0003
  822MOL0     C13311   2.618   2.568   7.157 -1.2953  0.4474  0.6604
  822MOL0     C13312   2.637   2.595   7.309 -0.2408  1.2028 -0.8591
  822MOL0     C13313   2.787   2.596   7.350  0.4457 -0.1836  0.0321
  822MOL0     C13314   2.840   2.743   7.350  0.7545 -0.8942 -0.4542
  822MOL0     N13315   2.988   2.735   7.324  0.0574 -0.3732 -0.2662
  822MOL0     C13316   3.090   2.685   7.403 -0.3304  0.5211  0.2843
  822MOL0     C13317   3.208   2.713   7.337  0.4235 -0.6535  0.2889
  822MOL0     C13318   3.353   2.715   7.364  0.0091  0.5465  0.3340
  822MOL0     C13319   3.414   2.850   7.357 -1.1361  0.1577  0.4031
  822MOL0     C13320   3.569   2.849   7.389  0.4905 -0.5960  0.6410
  822MOL0     C13321   3.608   2.925   7.510  0.6602 -0.4286  0.0491
  822MOL0     O13322   3.533   3.053   7.515 -0.1003 -0.2751 -0.1612
  822MOL0     C13323   3.592   3.167   7.575  1.0903  0.7816  0.8410
  822MOL0     C13324   3.522   3.287   7.576 -0.5931 -0.2318 -0.4714
  822MOL0     C13325   3.569   3.397   7.639 -0.0847 -0.0573 -0.3427
  822MOL0     C13326   3.483   3.515   7.615  0.2604  0.3136 -0.5926
  822MOL0     C13327   3.698   3.392   7.711 -0.2848 -0.4550  0.0090
  822MOL0     C13328   3.747   3.497   7.800  0.0232 -0.4324 -0.2619
  822MOL0     O13329   3.841   3.463   7.890  0.5665  0.0193  0.2891
  822MOL0     C13330   3.902   3.553   7.971 -0.2267 -0.3327  0.2057
  822MOL0     C13331   4.009   3.628   7.926 -0.3264 -0.6607 -0.3936
  822MOL0     C13332   4.080   3.707   8.021  0.5689 -0.4844 -0.9748
  822MOL0     C13333   4.034   3.721   8.152 -0.2900 -0.2433 -0.0013
  822MOL0     O13334   4.098   3.792   8.261 -0.3076 -0.8730 -0.5573
  822MOL0     C13335   4.204   3.888   8.232  0.0070  0.0370  0.2159
  822MOL0     C13336   4.220   3.960   8.372  0.6874  0.2439  0.5643
  822MOL0     C13337   4.111   4.058   8.402  0.1643 -0.0643  0.7329
  822MOL0     C13338   4.109   4.180   8.302  0.3044  0.0196 -0.0425
  822MOL0     C13339   4.244   4.256   8.294  0.1749 -0.5433 -0.9516
  822MOL0     C13340   4.293   4.304   8.432  0.5484  0.0154 -0.5944
  822MOL0     C13341   4.396   4.420   8.430  0.6104  0.5910 -0.4324
  822MOL0     C13342   4.534   4.382   8.389  0.0471 -0.5208 -0.0285
  822MOL0    Cl13343   4.643   4.517   8.422  0.2092 -0.5190 -0.6653
  822MOL0     C13344   3.915   3.650   8.189  0.3310 -0.7212 -0.3927
  822MOL0     C13345   3.852   3.565   8.098 -0.0687 -0.3587 -0.4844
  822MOL0     O13346   3.716   3.613   7.784  0.3566  0.6995  0.4087
  822MOL0     C13347   3.769   3.271   7.698  1.1052 -0.2991 -0.5348
  822MOL0     C13348   3.715   3.163   7.639 -0.1680  0.1102  0.2183
  822MOL0     N13349   3.172   2.778   7.219 -0.6052 -0.8950 -0.4949
  822MOL0     N13350   3.042   2.790   7.206  0.8628 -0.0687  0.1089
  822MOL0     C13351   1.874   2.516   7.101 -0.4444  0.4333 -0.6499
  822MOL0     C13352   1.756   2.543   7.175 -0.2094  0.3462 -0.3486
  822MOL0     C13353   1.426   2.655   7.429 -0.3774 -0.3699  0.2108
  822MOL0     C13354   1.318   2.560   7.421 -0.1085  0.7288 -0.1515
  822MOL0     C13355   1.190   2.602   7.436  0.8553 -0.6120  0.6622
  822MOL0     C13356   1.155   2.738   7.452 -0.0639 -0.7051  0.6004
  822MOL0     O13357   1.022   2.763   7.437  0.7384 -0.5586 -0.2943
  822MOL0     C13358   0.966   2.830   7.552 -0.8177  0.0169  0.9219
  822MOL0     C13359   0.824   2.840   7.545  0.7911  0.1971  0.1285
  822MOL0     C13360   0.767   2.930   7.434  0.0275  0.3094  0.2862
  822MOL0     C13361   0.621   2.929   7.427  0.4786 -0.6113  0.7433
  822MOL0     C13362   0.579   2.804   7.345  0.3349 -0.9249 -0.8458
  822MOL0     C13363   0.569   2.701   7.275  0.0679  0.2773  0.6078
  822MOL0     C13364   1.254   2.840   7.442  0.2248 -0.0431  0.5910
  822MOL0     C13365   1.384   2.794   7.425 -0.2207  0.2238  0.3662
  822MOL0     C13366   1.492   2.897   7.440  0.3200  0.0710  0.1605
  822MOL0     H13367   1.719   2.254   7.338  0.2967 -0.1126  0.2085
  822MOL0     H13368   1.955   2.208   7.227  3.0763  1.2937 -3.6429
  822MOL0     H13369   2.165   2.403   7.235 -2.8079  1.1552 -0.9083
  822MOL0     H13370   2.187   2.529   7.108  2.3260  0.0601  1.6136
  822MOL0     H13371   2.282   2.230   7.061  3.3950 -0.7952 -1.0375
  822MOL0     H13372   2.292   2.370   6.963  0.2206  2.1324 -0.0781
  822MOL0     H13373   2.460   2.337   7.226  0.5319 -1.2754 -0.8633
  822MOL0     H13374   2.513   2.314   7.068 -0.1134  0.3079  0.1258
  822MOL0     H13375   2.485   2.545   6.998  0.6515  0.7585 -0.9067
  822MOL0     H13376   2.398   2.576   7.158  3.0970 -1.0935  4.8392
  822MOL0     H13377   2.639   2.657   7.097 -4.1143  0.0871 -1.0446
  822MOL0     H13378   2.684   2.486   7.127 -2.2234 -0.7425  1.7413
  822MOL0     H13379   2.589   2.692   7.319 -0.6306  1.1552 -2.0769
  822MOL0     H13380   2.582   2.518   7.366  0.3929  1.0029 -0.5117
  822MOL0     H13381   2.839   2.534   7.277 -0.6072  0.0675 -0.9502
  822MOL0     H13382   2.796   2.554   7.451  1.2201  1.5580  0.7219
  822MOL0     H13383   2.796   2.798   7.266 -1.5418  1.5301  2.1437
  822MOL0     H13384   2.803   2.796   7.437 -6.0433 -3.3513 -1.2383
  822MOL0     H13385   3.077   2.653   7.506 -0.4442  2.6677  0.9809
  822MOL0     H13386   3.398   2.651   7.288  0.8428  1.6929 -0.1669
  822MOL0     H13387   3.367   2.682   7.467 -0.1867  0.5456  0.3620
  822MOL0     H13388   3.396   2.892   7.258 -2.9194  0.3468  0.7730
  822MOL0     H13389   3.354   2.906   7.429 -1.4367 -2.0651  1.9794
  822MOL0     H13390   3.598   2.745   7.401  0.8212 -0.6939 -0.8620
  822MOL0     H13391   3.620   2.889   7.301 -1.7606 -3.0416 -1.9456
  822MOL0     H13392   3.588   2.870   7.603  0.0872 -1.6968 -0.8061
  822MOL0     H13393   3.717   2.932   7.518  0.6512 -1.6613  2.3641
  822MOL0     H13394   3.428   3.285   7.522 -0.2379  2.1194 -1.2951
  822MOL0     H13395   3.523   3.589   7.544 -1.5087  2.0718  0.1305
  822MOL0     H13396   3.470   3.578   7.704 -4.0854 -0.3368 -0.5809
  822MOL0     H13397   3.382   3.494   7.581  0.8456 -0.2591 -2.0468
  822MOL0     H13398   4.031   3.623   7.820  0.8203  0.0801 -0.2164
  822MOL0     H13399   4.168   3.758   7.983  0.4820  1.1037  0.7950
  822MOL0     H13400   4.287   3.826   8.198 -1.2832 -2.3401  1.2192
  822MOL0     H13401   4.181   3.949   8.144  5.3538 -0.5590 -1.9743
  822MOL0     H13402   4.227   3.891   8.456 -0.1132 -0.4326  0.0976
  822MOL0     H13403   4.315   4.011   8.356  1.7625 -2.0833 -1.0081
  822MOL0     H13404   4.107   4.087   8.508 -0.0930  0.9067  0.4675
  822MOL0     H13405   4.021   3.998   8.384  1.9949 -3.0766  1.1162
  822MOL0     H13406   4.019   4.240   8.315 -0.7494 -1.8687  2.0402
  822MOL0     H13407   4.085   4.141   8.202 -0.9570 -0.0060  0.2505
  822MOL0     H13408   4.324   4.196   8.249  1.7463  0.6144  0.2117
  822MOL0     H13409   4.222   4.343   8.232 -2.8103  0.7325  1.6343
  822MOL0     H13410   4.341   4.219   8.482  1.5776  1.6140  1.2956
  822MOL0     H13411   4.208   4.343   8.488  0.8627 -0.0143 -0.0866
  822MOL0     H13412   4.405   4.453   8.534 -0.8731 -0.8561  0.2001
  822MOL0     H13413   4.365   4.511   8.378 -1.0121  1.3223  1.6660
  822MOL0     H13414   4.530   4.366   8.280  0.2031 -1.3110  0.0751
  822MOL0     H13415   4.564   4.300   8.455 -1.4137 -1.3137 -0.3117
  822MOL0     H13416   3.879   3.678   8.287  0.9930  1.4274 -0.6950
  822MOL0     H13417   3.759   3.522   8.133 -0.7874  0.9322 -0.7321
  822MOL0     H13418   3.870   3.263   7.738  2.0540 -4.0223 -3.0704
  822MOL0     H13419   3.769   3.069   7.640 -3.3210 -1.8644 -0.2559
  822MOL0     H13420   1.912   2.587   7.028 -0.6136  0.7659 -0.4181
  822MOL0     H13421   1.704   2.636   7.157  0.1318  1.2070  2.5294
  822MOL0     H13422   1.335   2.453   7.430 -5.1784 -0.5178 -2.0239
  822MOL0     H13423   1.124   2.516   7.434  1.2203 -0.8952  0.6920
  822MOL0     H13424   0.987   2.772   7.643 -1.1617  0.5833  1.3666
  822MOL0     H13425   1.016   2.927   7.563 -2.3639  0.7893  1.3678
  822MOL0     H13426   0.782   2.885   7.636  0.1892  2.5744 -1.2137
  822MOL0     H13427   0.781   2.740   7.537 -0.0021  0.6325 -1.6941
  822MOL0     H13428   0.797   3.032   7.462  1.0390 -0.0698  0.6294
  822MOL0     H13429   0.820   2.902   7.343  0.6804  4.2736 -0.7743
  822MOL0     H13430   0.582   3.007   7.360  0.9637 -0.9130  0.0922
  822MOL0     H13431   0.566   2.937   7.521 -0.7535  0.2625 -0.0203
  822MOL0     H13432   0.586   2.625   7.201  2.5962  0.8024  0.5849
  822MOL0     H13433   1.234   2.947   7.445 -0.2927 -0.1024 -0.4297
  822MOL0     H13434   1.532   2.879   7.540  2.8433  0.2871 -0.7491
  822MOL0     H13435   1.572   2.900   7.365 -1.0355 -1.1786 -1.4290
  822MOL0     H13436   1.448   2.997   7.444  1.9163  0.7520  2.8909
  823MOL0     O13437  10.121   1.786   7.493  1.1232 -0.2690  1.2936
  823MOL0     C13438  10.117   1.894   7.548 -0.5034  0.5934 -0.9940
  823MOL0     O13439  10.228   1.964   7.587  0.1923  0.4995  0.3792
  823MOL0     C13440  10.357   1.928   7.558  1.0329 -0.4078  0.2838
  823MOL0     C13441  10.411   1.807   7.600 -0.9289  0.7852  0.8429
  823MOL0     C13442  10.547   1.782   7.578 -0.4573 -0.8681  0.2837
  823MOL0     C13443  10.632   1.880   7.516 -0.6728 -0.2749  0.1390
  823MOL0     O13444  10.764   1.855   7.485 -0.2852 -0.4710  0.5214
  823MOL0     C13445  10.819   1.914   7.368 -0.3714 -1.4970  0.6383
  823MOL0     C13446  10.966   1.908   7.397  0.3407  0.2446 -0.6685
  823MOL0     C13447  11.041   1.969   7.287  0.0162 -0.5016  0.2596
  823MOL0     C13448  11.185   1.966   7.320 -0.4787 -0.0061 -0.4280
  823MOL0     C13449  11.279   2.017   7.206  0.1823  0.0242  0.0399
  823MOL0     C13450  11.417   1.948   7.227 -0.9192  0.8017  0.8247
  823MOL0     C13451  11.516   1.983   7.112  0.6372 -0.0767 -0.0105
  823MOL0     C13452  11.651   1.899   7.122  0.6587 -0.1981  0.1579
  823MOL0     N13453  11.637   1.754   7.116  0.2597 -0.5302 -0.5131
  823MOL0     C13454  11.555   1.692   7.026  0.7115 -0.0736  0.9687
  823MOL0     C13455  11.564   1.557   7.041  1.1767 -0.7123  0.8316
  823MOL0     C13456  11.500   1.451   6.959 -0.4822  0.1491 -0.5360
  823MOL0     C13457  11.353   1.421   6.990  0.5401  0.6765  0.3925
  823MOL0     C13458  11.310   1.313   6.888  0.5900  0.1711 -0.4472
  823MOL0     C13459  11.166   1.281   6.905 -0.2743  0.5861 -0.3921
  823MOL0     O13460  11.129   1.287   7.046  0.3927  0.4558  0.1013
  823MOL0     C13461  11.124   1.171   7.122 -0.5926  0.4137  0.0888
  823MOL0     C13462  11.232   1.087   7.155  0.1696 -0.2578  0.0702
  823MOL0     C13463  11.231   0.990   7.249  0.1509  0.5707  0.4154
  823MOL0     C13464  11.354   0.902   7.274 -0.6720 -0.4970  0.6494
  823MOL0     C13465  11.111   0.971   7.325  0.2579  0.0487 -0.2015
  823MOL0     C13466  11.087   0.864   7.430  1.2604  0.2708 -0.7209
  823MOL0     O13467  11.201   0.789   7.463 -0.0219 -0.1859  0.3446
  823MOL0     C13468  11.214   0.700   7.566 -0.1127 -0.6045 -0.8587
  823MOL0     C13469  11.284   0.585   7.542  1.0205  0.8331  0.3653
  823MOL0     C13470  11.312   0.487   7.640 -0.1860 -0.0753 -0.0848
  823MOL0     C13471  11.258   0.510   7.775  0.7079 -0.2806 -0.1433
  823MOL0     O13472  11.265   0.412   7.871  0.1521  0.3627  0.6254
  823MOL0     C13473  11.280   0.272   7.832 -1.0915  0.1805 -0.2635
  823MOL0     C13474  11.257   0.183   7.957 -1.0627 -1.1829 -0.6760
  823MOL0     C13475  11.118   0.192   8.017 -0.4841  0.2583 -0.6310
  823MOL0     C13476  11.100   0.313   8.110 -0.5034 -0.6815  1.1181
  823MOL0     C13477  10.947   0.345   8.137 -0.2509  0.7471  1.5028
  823MOL0     C13478  10.885   0.447   8.043  0.1525 -0.5767  0.6378
  823MOL0     C13479  10.723   0.455   8.054 -0.7995  0.3137 -0.5769
  823MOL0     C13480  10.646   0.507   8.182 -0.0298 -0.3612  0.2748
  823MOL0    Cl13481  10.715   0.439   8.323 -0.3889 -0.0648 -0.3794
  823MOL0     C13482  11.184   0.636   7.805 -0.0423 -0.7788  0.6535
  823MOL0     C13483  11.164   0.728   7.694  0.1319  1.0322 -0.7783
  823MOL0     O13484  10.974   0.842   7.473  0.3543 -0.9769 -0.5105
  823MOL0     C13485  11.005   1.059   7.296 -0.3044 -0.6996  0.4042
  823MOL0     C13486  11.009   1.159   7.198 -1.6232 -0.3639  0.0536
  823MOL0     N13487  11.665   1.545   7.139  0.2389 -0.3909  0.3674
  823MOL0     N13488  11.699   1.662   7.189 -0.0690 -0.2288  0.1202
  823MOL0     C13489  10.575   1.997   7.467  0.7294 -0.5429 -0.1268
  823MOL0     C13490  10.436   2.016   7.491 -0.0769  0.0636  0.5496
  823MOL0     C13491   9.983   1.942   7.586  0.4011  0.8823  0.5550
  823MOL0     C13492   9.884   1.846   7.608  0.3885 -0.0258 -0.6070
  823MOL0     C13493   9.745   1.881   7.627 -0.6654  0.2612 -0.5732
  823MOL0     C13494   9.709   2.012   7.655 -0.3658  1.1669 -0.3896
  823MOL0     O13495   9.581   2.048   7.702 -0.1361  0.0152 -0.1645
  823MOL0     C13496   9.503   1.948   7.776  0.2949 -0.2016  0.4644
  823MOL0     C13497   9.361   1.917   7.724 -0.4400  0.0374  0.8101
  823MOL0     C13498   9.295   2.022   7.652  0.4433 -0.4801 -1.0167
  823MOL0     C13499   9.155   1.965   7.595 -0.2699 -0.7780  0.4643
  823MOL0     C13500   9.079   2.075   7.545 -0.8683 -0.1060  0.0111
  823MOL0     C13501   9.002   2.162   7.503 -0.0886  0.4813 -0.4336
  823MOL0     C13502   9.811   2.105   7.628  0.1025 -0.4035  0.3912
  823MOL0     C13503   9.944   2.072   7.588  0.1143 -0.2225  0.8244
  823MOL0     C13504  10.031   2.190   7.559 -0.2985  0.2715  0.3160
  823MOL0     H13505  10.359   1.730   7.657 -1.5477  0.4507 -0.1482
  823MOL0     H13506  10.585   1.685   7.610  1.3289 -0.8698 -1.6928
  823MOL0     H13507  10.807   2.021   7.350  0.8658 -0.9729  2.6177
  823MOL0     H13508  10.786   1.865   7.276 -0.2154  1.7554 -1.3181
  823MOL0     H13509  10.978   1.968   7.488 -4.0146  2.3656 -1.2276
  823MOL0     H13510  11.003   1.810   7.428  1.5491  1.1893  1.0356
  823MOL0     H13511  11.021   1.927   7.188 -0.5173  0.8606 -0.2374
  823MOL0     H13512  11.018   2.074   7.267  0.7773 -0.5944 -1.2033
  823MOL0     H13513  11.206   2.020   7.413  1.4012 -0.4129 -0.5728
  823MOL0     H13514  11.211   1.861   7.334 -2.0829 -0.7175 -2.2465
  823MOL0     H13515  11.294   2.125   7.207  0.1714  0.0340 -0.5473
  823MOL0     H13516  11.239   1.991   7.108  1.5050  0.7728 -0.7330
  823MOL0     H13517  11.465   1.973   7.322 -2.2089 -2.3069  2.4249
  823MOL0     H13518  11.398   1.841   7.219  0.2449  0.5687  0.9136
  823MOL0     H13519  11.533   2.088   7.134 -2.0704  0.5763 -0.6483
  823MOL0     H13520  11.467   1.985   7.014  0.5994  0.1090  0.0129
  823MOL0     H13521  11.702   1.938   7.034 -0.5913  1.5297  0.1413
  823MOL0     H13522  11.702   1.928   7.214 -1.8449 -1.3682  2.0417
  823MOL0     H13523  11.502   1.741   6.946  2.5913 -0.8233 -0.8199
  823MOL0     H13524  11.560   1.359   6.965 -1.3265 -0.8490 -4.4050
  823MOL0     H13525  11.511   1.479   6.854  0.4246  2.7616  0.2023
  823MOL0     H13526  11.346   1.379   7.091 -0.2439 -0.9129 -0.2781
  823MOL0     H13527  11.295   1.513   6.980  1.5627  1.3458  0.5784
  823MOL0     H13528  11.326   1.351   6.787 -0.6598 -3.4164 -2.1349
  823MOL0     H13529  11.365   1.221   6.909 -1.2902 -0.3841  2.7972
  823MOL0     H13530  11.102   1.356   6.857  1.4624  3.5100  1.5505
  823MOL0     H13531  11.146   1.182   6.863  2.3598 -0.2923  0.2753
  823MOL0     H13532  11.322   1.100   7.096  0.2694 -1.0354  0.0376
  823MOL0     H13533  11.342   0.796   7.251  0.7583 -0.9303  1.7358
  823MOL0     H13534  11.400   0.921   7.372 -0.5168  0.8630  0.3371
  823MOL0     H13535  11.424   0.937   7.197  0.1025 -1.2870  0.9787
  823MOL0     H13536  11.309   0.559   7.440 -1.2574 -3.1051  0.5841
  823MOL0     H13537  11.357   0.390   7.620 -0.7281 -0.7395  1.6753
  823MOL0     H13538  11.211   0.251   7.750  0.8198 -0.8289 -1.6804
  823MOL0     H13539  11.382   0.254   7.800 -0.1449  1.9584  1.5113
  823MOL0     H13540  11.265   0.083   7.913  0.5551 -0.7782 -1.3538
  823MOL0     H13541  11.339   0.196   8.028  0.5599  0.0499 -2.6722
  823MOL0     H13542  11.099   0.105   8.080 -5.5462  0.3292 -1.6162
  823MOL0     H13543  11.051   0.189   7.930 -0.6120 -2.0851 -0.5034
  823MOL0     H13544  11.153   0.402   8.074 -0.2212 -1.7664 -1.4059
  823MOL0     H13545  11.149   0.295   8.206  0.2784  1.7228  1.2214
  823MOL0     H13546  10.884   0.256   8.130  1.8578 -0.6866 -2.9522
  823MOL0     H13547  10.958   0.395   8.234  0.1617  0.4659  1.6025
  823MOL0     H13548  10.905   0.421   7.938  2.0198  0.4309  0.7057
  823MOL0     H13549  10.926   0.545   8.066 -1.4707 -0.5557  3.9560
  823MOL0     H13550  10.695   0.350   8.044  1.8772 -0.4050 -1.2414
  823MOL0     H13551  10.697   0.509   7.962  2.6352  1.3021 -1.0894
  823MOL0     H13552  10.542   0.474   8.173 -0.3048  1.0076 -2.3469
  823MOL0     H13553  10.646   0.616   8.175  0.2338 -0.4253 -0.8291
  823MOL0     H13554  11.138   0.667   7.898  1.0558  0.9164  0.6768
  823MOL0     H13555  11.108   0.820   7.704 -1.8718 -0.3199  1.5260
  823MOL0     H13556  10.915   1.045   7.354  0.5069 -1.1452  1.5804
  823MOL0     H13557  10.923   1.212   7.158 -1.7869 -0.4041  0.3496
  823MOL0     H13558  10.629   2.068   7.404  2.0606 -2.4188 -1.1984
  823MOL0     H13559  10.388   2.108   7.460  1.9850  0.4203 -1.9840
  823MOL0     H13560   9.915   1.743   7.604 -3.1797 -1.4411  2.1732
  823MOL0     H13561   9.672   1.800   7.629 -0.0824 -0.2902 -1.3283
  823MOL0     H13562   9.566   1.860   7.796  2.5623  1.1103 -0.5747
  823MOL0     H13563   9.469   1.982   7.874 -1.9433 -0.2698 -0.2427
  823MOL0     H13564   9.298   1.895   7.811  0.7668 -0.2761  1.6366
  823MOL0     H13565   9.377   1.835   7.653  3.1898  0.1687  1.2613
  823MOL0     H13566   9.285   2.106   7.722  0.9162 -1.0075 -0.2924
  823MOL0     H13567   9.359   2.045   7.566  2.6544  1.2144  0.9450
  823MOL0     H13568   9.086   1.926   7.671 -0.8656 -0.7945 -0.0801
  823MOL0     H13569   9.181   1.887   7.523  1.4741  0.6513 -0.5478
  823MOL0     H13570   8.923   2.228   7.475 -2.7350 -1.5192  1.8639
  823MOL0     H13571   9.786   2.207   7.654 -0.2170 -0.8930  2.0769
  823MOL0     H13572  10.113   2.168   7.491 -0.1015 -0.6230  0.8272
  823MOL0     H13573   9.980   2.278   7.518  0.8033  0.1276 -1.4366
  823MOL0     H13574  10.097   2.218   7.642  0.5997 -0.3509 -0.1769
  824MOL0     O13575   5.449   2.905   3.406  0.4722 -0.7257 -0.2326
  824MOL0     C13576   5.459   2.991   3.496  0.0735  0.2175  0.1230
  824MOL0     O13577   5.358   3.073   3.538  0.1797 -0.4055 -0.0809
  824MOL0     C13578   5.240   3.056   3.474  0.7850  0.2542  0.0284
  824MOL0     C13579   5.205   3.132   3.365 -0.8338  0.4560 -0.0319
  824MOL0     C13580   5.086   3.111   3.301  0.5850  0.4996  0.1307
  824MOL0     C13581   4.992   3.015   3.329  0.3593  0.6033 -0.1394
  824MOL0     O13582   4.871   3.009   3.255  0.5105  1.6776 -0.7083
  824MOL0     C13583   4.770   2.938   3.318 -0.0932 -0.1663  1.2807
  824MOL0     C13584   4.633   2.933   3.246 -0.0984  0.1228 -0.2126
  824MOL0     C13585   4.545   3.060   3.243  0.5565  0.0437  0.2654
  824MOL0     C13586   4.610   3.169   3.152 -0.1680 -0.2871  0.0114
  824MOL0     C13587   4.504   3.261   3.098 -0.8414 -0.8210  0.0514
  824MOL0     C13588   4.552   3.402   3.062 -0.4381  0.4843 -0.0064
  824MOL0     C13589   4.671   3.399   2.958  0.2485  0.5328 -0.7279
  824MOL0     C13590   4.676   3.525   2.878  0.3881 -0.2354  0.6283
  824MOL0     N13591   4.675   3.649   2.955 -0.2364  0.6156 -0.2770
  824MOL0     C13592   4.771   3.694   3.053 -0.9739  0.1244  0.9064
  824MOL0     C13593   4.714   3.800   3.109  0.8105 -0.4903 -0.9370
  824MOL0     C13594   4.766   3.892   3.220 -0.3961  0.4068 -0.3287
  824MOL0     C13595   4.708   3.868   3.353  0.2118 -0.0564  0.1715
  824MOL0     C13596   4.738   3.723   3.413 -0.6043  0.2923  0.3665
  824MOL0     C13597   4.660   3.695   3.540 -0.6188  0.3179 -0.5709
  824MOL0     O13598   4.682   3.788   3.645 -0.3507 -1.0330  0.0050
  824MOL0     C13599   4.582   3.819   3.732 -0.2270  0.3179 -0.2000
  824MOL0     C13600   4.472   3.880   3.683  0.9989 -0.5401 -0.9829
  824MOL0     C13601   4.367   3.905   3.774  0.8279 -0.1718  0.1361
  824MOL0     C13602   4.257   3.993   3.706  0.2293 -0.4918 -1.1019
  824MOL0     C13603   4.373   3.879   3.917  0.3189  0.8133 -0.9894
  824MOL0     C13604   4.265   3.903   4.021 -0.7008 -0.9921  0.7341
  824MOL0     O13605   4.273   3.836   4.137 -0.0862  0.2641 -0.6227
  824MOL0     C13606   4.194   3.871   4.247  0.2668 -0.7250  0.2168
  824MOL0     C13607   4.237   3.808   4.370 -0.7250  0.1432 -0.1113
  824MOL0     C13608   4.176   3.843   4.492 -0.2358 -0.2531 -0.9027
  824MOL0     C13609   4.080   3.940   4.499  0.2526  0.0617 -0.2144
  824MOL0     O13610   4.015   3.961   4.619  0.3521  0.0528  0.2362
  824MOL0     C13611   4.093   3.980   4.734 -0.0823 -0.5043  0.1846
  824MOL0     C13612   4.019   4.012   4.871 -0.2717 -0.1631  0.3581
  824MOL0     C13613   3.930   4.142   4.854  1.2312 -0.1390 -0.0209
  824MOL0     C13614   3.792   4.112   4.899 -0.0296  0.4439 -0.7775
  824MOL0     C13615   3.701   4.049   4.801  0.6696  0.1930  0.6963
  824MOL0     C13616   3.670   4.155   4.682  0.5665  0.7481  0.4770
  824MOL0     C13617   3.548   4.101   4.600 -0.2163  0.0013 -0.4257
  824MOL0     C13618   3.500   4.199   4.493  0.8180 -0.1052  0.2325
  824MOL0    Cl13619   3.320   4.172   4.468 -0.3239  0.9306 -0.5033
  824MOL0     C13620   4.021   3.992   4.381 -0.0124 -0.1287 -0.6311
  824MOL0     C13621   4.079   3.961   4.256  0.2619  0.4940 -0.1955
  824MOL0     O13622   4.177   3.973   3.984  0.0023  0.1510 -0.0638
  824MOL0     C13623   4.492   3.819   3.956  0.0981 -0.0709  0.6287
  824MOL0     C13624   4.595   3.792   3.868 -0.0355 -0.1107 -0.0912
  824MOL0     N13625   4.586   3.817   3.043 -0.8689  0.3312  0.1351
  824MOL0     N13626   4.568   3.729   2.954 -0.1332 -0.2047  0.1364
  824MOL0     C13627   5.029   2.939   3.443  0.0147 -0.3108  1.0539
  824MOL0     C13628   5.157   2.950   3.511  0.0164 -0.1940 -0.5797
  824MOL0     C13629   5.590   3.010   3.570 -0.0748  0.6923 -0.6634
  824MOL0     C13630   5.588   3.110   3.663 -0.0622 -0.1653  0.5885
  824MOL0     C13631   5.696   3.136   3.746  0.0974 -0.4439  0.3865
  824MOL0     C13632   5.818   3.068   3.727  0.1270 -0.2070 -0.5658
  824MOL0     O13633   5.934   3.077   3.793 -0.7399  0.2206 -1.2616
  824MOL0     C13634   5.953   3.149   3.913 -0.0170 -0.3739  0.1103
  824MOL0     C13635   5.971   3.302   3.898  0.1908 -0.0236  0.6407
  824MOL0     C13636   6.005   3.373   4.022 -0.0330  0.7873 -0.5034
  824MOL0     C13637   6.089   3.497   3.996  0.5416  1.1615  0.2620
  824MOL0     C13638   6.003   3.596   3.928  0.3534  0.4724 -0.0235
  824MOL0     C13639   5.938   3.681   3.886  0.3656 -1.0754 -0.7807
  824MOL0     C13640   5.822   2.977   3.620  0.2630  0.5618  0.1788
  824MOL0     C13641   5.714   2.948   3.541 -0.0991  0.1326  0.3202
  824MOL0     C13642   5.736   2.850   3.429 -0.5841 -0.5071 -0.3046
  824MOL0     H13643   5.269   3.212   3.331 -1.8100  1.5087  0.5311
  824MOL0     H13644   5.067   3.168   3.211  0.8169  1.3927  0.6253
  824MOL0     H13645   4.757   2.977   3.419  1.1073 -0.5289  1.6007
  824MOL0     H13646   4.809   2.836   3.324  1.0809  0.2056  0.3466
  824MOL0     H13647   4.656   2.904   3.143  2.8992 -0.0210  0.3846
  824MOL0     H13648   4.576   2.852   3.292  1.7110 -1.1411 -0.0821
  824MOL0     H13649   4.445   3.029   3.213  0.8123 -0.1426 -0.4356
  824MOL0     H13650   4.537   3.098   3.345 -1.2482  0.9155 -0.1677
  824MOL0     H13651   4.684   3.226   3.208 -0.6674  0.6640 -0.2814
  824MOL0     H13652   4.648   3.128   3.058 -1.4448  5.4638 -3.4944
  824MOL0     H13653   4.434   3.280   3.180 -0.3298  0.9491  0.1184
  824MOL0     H13654   4.452   3.214   3.014  1.0348 -0.0622 -1.6216
  824MOL0     H13655   4.473   3.455   3.007 -1.4579 -0.5588  0.4024
  824MOL0     H13656   4.575   3.451   3.157 -2.5604 -0.7388  1.2157
  824MOL0     H13657   4.648   3.313   2.894 -1.1506 -0.2998  0.8114
  824MOL0     H13658   4.763   3.371   3.010 -0.8629 -0.5331  0.7296
  824MOL0     H13659   4.763   3.528   2.811 -0.6808 -1.6057 -0.8943
  824MOL0     H13660   4.592   3.543   2.810  2.6303  0.4047 -2.1837
  824MOL0     H13661   4.868   3.651   3.075 -1.5338 -1.4064  0.4842
  824MOL0     H13662   4.737   3.991   3.184 -2.6605 -0.5959 -1.4552
  824MOL0     H13663   4.875   3.876   3.220 -0.3296  0.8409  0.2715
  824MOL0     H13664   4.748   3.945   3.420  1.1128 -1.0847  0.8420
  824MOL0     H13665   4.598   3.872   3.350  0.2348  0.1784 -0.4750
  824MOL0     H13666   4.723   3.641   3.342 -0.7876  1.3962 -0.8962
  824MOL0     H13667   4.845   3.734   3.434 -0.5928  4.3700 -1.0019
  824MOL0     H13668   4.553   3.689   3.519 -1.3012 -0.8903  2.6809
  824MOL0     H13669   4.679   3.592   3.571 -0.4557  1.2836  2.9830
  824MOL0     H13670   4.477   3.898   3.576  0.7048  3.3525 -0.5097
  824MOL0     H13671   4.242   4.084   3.765 -0.2804 -0.9048 -0.5858
  824MOL0     H13672   4.167   3.931   3.701  1.4198 -2.4785  0.2909
  824MOL0     H13673   4.284   4.031   3.607  0.0140 -0.8832 -1.3125
  824MOL0     H13674   4.317   3.735   4.374 -0.2944  0.2515 -3.4805
  824MOL0     H13675   4.211   3.792   4.581  0.2634  0.7759 -0.4929
  824MOL0     H13676   4.161   3.895   4.746  0.6224  0.1626  1.0943
  824MOL0     H13677   4.154   4.068   4.715  2.1089 -1.9219  0.1913
  824MOL0     H13678   3.964   3.923   4.902 -0.5837 -1.2128 -2.8633
  824MOL0     H13679   4.096   4.028   4.947  0.3418 -1.9689  0.1512
  824MOL0     H13680   3.939   4.192   4.757 -0.2564 -0.2614 -0.2449
  824MOL0     H13681   3.977   4.210   4.925  3.2174  0.3572 -1.7326
  824MOL0     H13682   3.752   4.203   4.945  2.1863  1.9245 -1.5932
  824MOL0     H13683   3.788   4.035   4.977 -1.1457 -3.0659 -3.9921
  824MOL0     H13684   3.741   3.960   4.752  0.6525  0.9341 -0.7356
  824MOL0     H13685   3.604   4.028   4.848  0.0894  1.8333  0.3028
  824MOL0     H13686   3.755   4.164   4.614 -1.3256  1.9179 -1.8597
  824MOL0     H13687   3.640   4.246   4.735 -2.1180 -0.8861  2.0297
  824MOL0     H13688   3.472   4.089   4.678 -0.3533 -0.8729 -0.6897
  824MOL0     H13689   3.579   4.005   4.559  1.5762  0.5215 -0.3816
  824MOL0     H13690   3.569   4.199   4.409  1.0590  2.0328  0.3653
  824MOL0     H13691   3.511   4.295   4.546 -1.9284  0.6819 -0.4763
  824MOL0     H13692   3.944   4.066   4.396  1.2710  1.2183 -0.4758
  824MOL0     H13693   4.038   4.011   4.169 -0.8880 -2.2082 -1.3280
  824MOL0     H13694   4.512   3.805   4.062 -1.4928  0.8473  1.0890
  824MOL0     H13695   4.687   3.763   3.917  1.3906  0.9289 -2.0157
  824MOL0     H13696   4.964   2.859   3.478 -1.1010  0.3803  0.6221
  824MOL0     H13697   5.193   2.882   3.586 -0.9305  2.4649  2.5186
  824MOL0     H13698   5.505   3.178   3.680  0.5854  0.7202  0.3090
  824MOL0     H13699   5.679   3.202   3.830  0.1805 -0.9232  0.7877
  824MOL0     H13700   5.870   3.137   3.983  1.2236 -0.6827  1.5691
  824MOL0     H13701   6.050   3.126   3.958 -0.3500  1.6271  2.0458
  824MOL0     H13702   5.884   3.352   3.854  0.7888  0.5026  0.0308
  824MOL0     H13703   6.053   3.315   3.827  0.2221 -1.4805  0.3829
  824MOL0     H13704   5.911   3.382   4.076 -0.2133 -2.7929  0.0182
  824MOL0     H13705   6.064   3.300   4.077 -1.6778  0.5458  1.0189
  824MOL0     H13706   6.179   3.481   3.936 -0.7891 -0.9121 -1.3682
  824MOL0     H13707   6.127   3.552   4.082  1.5086 -1.0066  1.3120
  824MOL0     H13708   5.877   3.762   3.849  1.4256  0.1627  0.1087
  824MOL0     H13709   5.918   2.929   3.602 -0.6277 -0.8827 -0.8848
  824MOL0     H13710   5.660   2.772   3.444 -0.9414  0.0300  0.8094
  824MOL0     H13711   5.738   2.882   3.324  2.3329  0.1103 -0.1417
  824MOL0     H13712   5.836   2.807   3.439 -0.6702 -0.3933  1.1947
  825MOL0     O13713   9.004   4.045   6.144 -0.8828  0.0275 -0.1435
  825MOL0     C13714   9.098   3.984   6.092 -0.3117  0.5789  0.3254
  825MOL0     O13715   9.151   4.019   5.964 -0.0830 -0.5755 -0.3292
  825MOL0     C13716   9.113   4.138   5.918  0.9883 -0.7123  0.2099
  825MOL0     C13717   8.977   4.150   5.874  0.3768 -0.6748  0.7580
  825MOL0     C13718   8.940   4.259   5.793  0.7697  1.4629  0.8124
  825MOL0     C13719   9.028   4.368   5.771  0.3402  0.8226 -0.0267
  825MOL0     O13720   9.008   4.471   5.686  0.0748  0.1073 -0.1868
  825MOL0     C13721   8.890   4.545   5.715 -1.2895  0.4161 -0.4123
  825MOL0     C13722   8.903   4.622   5.849  0.3949  0.3738  0.7920
  825MOL0     C13723   8.985   4.742   5.822 -0.0248 -0.5769  0.0608
  825MOL0     C13724   9.011   4.815   5.949  0.1311  0.5350 -0.1973
  825MOL0     C13725   9.042   4.957   5.935 -0.3381  0.5957  0.4911
  825MOL0     C13726   9.022   5.035   6.066 -0.2670 -0.1999  0.3477
  825MOL0     C13727   8.880   5.024   6.132 -0.3634  0.4507  0.5979
  825MOL0     C13728   8.845   5.140   6.227  0.8190 -0.1070  1.2302
  825MOL0     N13729   8.824   5.268   6.162  0.3896 -0.7130 -0.0114
  825MOL0     C13730   8.731   5.289   6.056  0.8341 -0.8275 -0.5966
  825MOL0     C13731   8.707   5.422   6.059 -0.4696  0.8413 -0.3574
  825MOL0     C13732   8.627   5.480   5.934 -0.1221  0.1715 -0.2413
  825MOL0     C13733   8.713   5.588   5.864 -0.0245 -0.5255 -0.3529
  825MOL0     C13734   8.629   5.680   5.778  0.7301  1.0157 -0.5183
  825MOL0     C13735   8.539   5.771   5.861  0.0622  0.5873 -0.1478
  825MOL0     O13736   8.423   5.812   5.791  0.1726  0.1409 -0.5091
  825MOL0     C13737   8.296   5.763   5.829  0.0540 -0.3510  0.6609
  825MOL0     C13738   8.197   5.783   5.726  0.1917 -0.0080 -0.5827
  825MOL0     C13739   8.064   5.735   5.741 -0.3872  0.0202 -0.4610
  825MOL0     C13740   7.966   5.719   5.623  1.0782 -0.2793  0.2663
  825MOL0     C13741   8.027   5.665   5.858  0.0892  0.1865  1.0050
  825MOL0     C13742   7.887   5.606   5.887 -0.7649 -0.0970 -0.1429
  825MOL0     O13743   7.890   5.469   5.884  0.1688 -0.2025 -0.0513
  825MOL0     C13744   7.775   5.397   5.900  0.5322  0.1289 -0.0306
  825MOL0     C13745   7.663   5.422   5.829  0.7975 -0.9612 -0.0004
  825MOL0     C13746   7.532   5.353   5.841 -0.4395 -0.1922  0.7310
  825MOL0     C13747   7.532   5.244   5.929 -0.8212 -0.1252  0.1829
  825MOL0     O13748   7.416   5.184   5.965 -0.1163  0.9288  0.1232
  825MOL0     C13749   7.368   5.084   5.874  1.0359 -0.9053  0.7538
  825MOL0     C13750   7.235   5.012   5.924 -0.0911 -0.4147 -0.4764
  825MOL0     C13751   7.120   5.113   5.913 -0.1110  0.1011 -1.0024
  825MOL0     C13752   6.989   5.094   5.997 -0.1715  0.4063  1.2440
  825MOL0     C13753   6.913   5.226   6.006  0.7117  0.6227 -0.6604
  825MOL0     C13754   6.869   5.287   5.882  0.3152 -0.1220 -0.6186
  825MOL0     C13755   6.801   5.195   5.778  0.2470 -0.6355 -0.7063
  825MOL0     C13756   6.695   5.106   5.835 -0.4460 -0.0952  0.4273
  825MOL0    Cl13757   6.588   5.065   5.698  0.2697 -0.1860  0.1140
  825MOL0     C13758   7.654   5.203   5.987 -0.3881 -0.3705 -0.2809
  825MOL0     C13759   7.774   5.276   5.967  0.1112 -0.3872  0.2684
  825MOL0     O13760   7.804   5.686   5.936  0.0581 -0.0711  0.3972
  825MOL0     C13761   8.127   5.646   5.958  0.9839  0.3299  0.6183
  825MOL0     C13762   8.256   5.695   5.941  0.6457 -0.5808 -0.7425
  825MOL0     N13763   8.784   5.482   6.163 -0.7822  0.4673 -0.4664
  825MOL0     N13764   8.849   5.391   6.225 -0.3555  0.0363 -0.1537
  825MOL0     C13765   9.157   4.358   5.825 -0.3715 -0.3292  0.2296
  825MOL0     C13766   9.194   4.250   5.904 -0.0602 -0.0166 -0.1306
  825MOL0     C13767   9.169   3.870   6.171  0.7497  0.4186 -0.1645
  825MOL0     C13768   9.291   3.806   6.129 -0.3379  0.6756  0.2843
  825MOL0     C13769   9.371   3.720   6.206 -0.3914  0.8716  0.7018
  825MOL0     C13770   9.311   3.680   6.332 -0.2267  0.3511  0.9853
  825MOL0     O13771   9.359   3.592   6.417  0.4839  0.3534 -0.2409
  825MOL0     C13772   9.483   3.621   6.477  0.3022  0.2825  0.2217
  825MOL0     C13773   9.474   3.671   6.616  0.5163 -0.1783 -0.2844
  825MOL0     C13774   9.384   3.792   6.639 -0.0839  0.2412 -0.7101
  825MOL0     C13775   9.364   3.857   6.779 -0.0980 -0.5620  0.7827
  825MOL0     C13776   9.476   3.934   6.823 -0.2067  0.3215 -0.0533
  825MOL0     C13777   9.567   4.009   6.859 -0.9815  0.9193 -0.1462
  825MOL0     C13778   9.185   3.726   6.370 -1.2553 -0.3158  0.3856
  825MOL0     C13779   9.121   3.828   6.302  0.2476 -0.5430 -0.4826
  825MOL0     C13780   8.993   3.868   6.376 -0.7878 -0.1745  0.2104
  825MOL0     H13781   8.905   4.070   5.884 -1.1843  0.1528 -2.3248
  825MOL0     H13782   8.843   4.261   5.745  0.7567 -0.1792  0.7259
  825MOL0     H13783   8.805   4.477   5.718 -0.0446 -1.1696  0.8148
  825MOL0     H13784   8.872   4.614   5.632  1.5207  3.0424  0.9369
  825MOL0     H13785   8.802   4.656   5.870  0.5826  2.1536 -0.9219
  825MOL0     H13786   8.948   4.562   5.930  2.8879 -0.5594 -1.1442
  825MOL0     H13787   9.079   4.721   5.769 -0.2668 -0.9500 -0.2236
  825MOL0     H13788   8.927   4.807   5.755  0.4464 -1.2563 -1.0351
  825MOL0     H13789   8.919   4.813   6.008  1.2549  1.2441  1.6718
  825MOL0     H13790   9.081   4.778   6.024 -3.8592 -0.1030  3.6197
  825MOL0     H13791   8.977   4.997   5.857  1.2960  0.6398 -0.9170
  825MOL0     H13792   9.138   4.986   5.892 -2.1914  2.2053 -2.9464
  825MOL0     H13793   9.098   5.008   6.140 -0.7568  1.1115  1.3799
  825MOL0     H13794   9.030   5.142   6.045 -5.0688  0.6466  1.5439
  825MOL0     H13795   8.882   4.933   6.192  2.1824  0.0326  0.0134
  825MOL0     H13796   8.811   5.027   6.047  0.6808  1.3324 -0.2440
  825MOL0     H13797   8.753   5.112   6.280  0.6367 -1.7663  0.0967
  825MOL0     H13798   8.935   5.144   6.290  0.3804 -0.2156  1.8770
  825MOL0     H13799   8.697   5.216   5.983  2.4431 -0.9207 -1.3061
  825MOL0     H13800   8.535   5.531   5.962 -0.0057  0.0890  0.3256
  825MOL0     H13801   8.606   5.395   5.869  3.0509  0.2460 -1.5669
  825MOL0     H13802   8.772   5.642   5.937  0.2927  1.4117 -1.9623
  825MOL0     H13803   8.782   5.533   5.799 -0.8268  1.5396 -3.1549
  825MOL0     H13804   8.691   5.755   5.727  0.1391  2.1466  0.3824
  825MOL0     H13805   8.571   5.627   5.702  0.4991 -0.9552  0.9713
  825MOL0     H13806   8.514   5.739   5.963 -0.6127  1.9533  0.1549
  825MOL0     H13807   8.603   5.859   5.876  0.4236  0.4117 -0.6444
  825MOL0     H13808   8.222   5.836   5.634  1.0965 -2.0912 -1.6065
  825MOL0     H13809   7.995   5.637   5.557 -2.9292 -1.3868 -0.3457
  825MOL0     H13810   7.957   5.816   5.573 -0.5224 -1.2047 -1.3659
  825MOL0     H13811   7.862   5.699   5.651  0.7259 -0.6391 -1.2115
  825MOL0     H13812   7.665   5.507   5.762 -0.6203  2.3494  3.7409
  825MOL0     H13813   7.449   5.391   5.782 -2.6469  0.5531  4.0724
  825MOL0     H13814   7.358   5.127   5.774  0.4430 -1.4777  0.5568
  825MOL0     H13815   7.440   5.002   5.864  1.8945 -0.1218  0.3662
  825MOL0     H13816   7.212   4.923   5.865  0.2121  0.9485 -2.7869
  825MOL0     H13817   7.256   4.975   6.025  1.8362 -1.1292 -1.0918
  825MOL0     H13818   7.084   5.102   5.810 -0.6373 -3.9403 -0.5519
  825MOL0     H13819   7.161   5.214   5.921  1.0039 -0.3934 -0.1856
  825MOL0     H13820   7.017   5.058   6.096  0.8710  0.7397  1.0895
  825MOL0     H13821   6.927   5.019   5.948 -0.5833  1.0491  0.7612
  825MOL0     H13822   6.832   5.190   6.070  2.4255 -6.8285 -1.7277
  825MOL0     H13823   6.965   5.305   6.062 -1.3843  1.0777  0.7605
  825MOL0     H13824   6.952   5.338   5.833  1.3659 -0.0686  1.1150
  825MOL0     H13825   6.793   5.364   5.903  0.2139 -0.0489 -1.2349
  825MOL0     H13826   6.872   5.134   5.722  0.4902  0.6238 -1.8348
  825MOL0     H13827   6.757   5.266   5.707 -2.5590 -1.0703  0.4777
  825MOL0     H13828   6.634   5.164   5.905 -2.4248  2.4915 -3.1513
  825MOL0     H13829   6.727   5.012   5.883  1.3962 -0.4102 -1.2732
  825MOL0     H13830   7.652   5.122   6.060 -2.5781  1.2340  1.5856
  825MOL0     H13831   7.868   5.249   6.014 -0.3202 -0.2018  1.2526
  825MOL0     H13832   8.103   5.587   6.046 -4.6968  1.5646  0.3214
  825MOL0     H13833   8.334   5.661   6.007 -1.2539 -1.7675  1.0016
  825MOL0     H13834   9.222   4.443   5.807 -1.4603  0.5285  0.2255
  825MOL0     H13835   9.288   4.227   5.952  0.6513  3.0287  0.0887
  825MOL0     H13836   9.323   3.834   6.030 -0.2843  3.7140  1.0809
  825MOL0     H13837   9.474   3.695   6.180  0.1383  2.4849  1.1650
  825MOL0     H13838   9.552   3.536   6.466 -2.4969 -2.0888 -0.3639
  825MOL0     H13839   9.532   3.704   6.426  0.3144  0.5316  0.6369
  825MOL0     H13840   9.575   3.701   6.646  0.2553  2.1796 -1.5795
  825MOL0     H13841   9.430   3.585   6.668 -3.3437  1.2228 -0.9548
  825MOL0     H13842   9.404   3.877   6.573 -0.0442  4.1774  3.7421
  825MOL0     H13843   9.279   3.767   6.618  0.3730 -1.3233 -1.2769
  825MOL0     H13844   9.350   3.775   6.851  4.3778 -1.1422  1.2696
  825MOL0     H13845   9.277   3.923   6.775  1.2973  1.2653 -1.1448
  825MOL0     H13846   9.657   4.065   6.873 -0.4309  0.9390 -3.1268
  825MOL0     H13847   9.152   3.685   6.464  0.8975 -0.0414  1.3154
  825MOL0     H13848   8.906   3.837   6.317 -0.7071 -0.6936  0.3591
  825MOL0     H13849   8.985   3.835   6.480  0.3238  0.4370  0.4960
  825MOL0     H13850   8.999   3.977   6.380  0.9030 -0.2327 -0.1375
  826MOL0     O13851   1.301   9.118   5.028 -0.3415 -0.3706  0.1812
  826MOL0     C13852   1.325   9.035   5.116 -0.5446  0.3361  1.1993
  826MOL0     O13853   1.228   9.011   5.218 -1.2732  0.0479  0.2629
  826MOL0     C13854   1.128   9.106   5.245  0.1106  0.0563  0.1310
  826MOL0     C13855   0.997   9.055   5.275 -0.1695  0.2593  0.0628
  826MOL0     C13856   0.898   9.147   5.300  0.7308  0.6303 -0.1262
  826MOL0     C13857   0.918   9.289   5.300  0.2165  1.6067 -0.4198
  826MOL0     O13858   0.812   9.372   5.324 -0.3080  0.1333  0.1092
  826MOL0     C13859   0.680   9.324   5.356 -0.2313 -0.1218  0.2973
  826MOL0     C13860   0.567   9.432   5.373 -0.7885  0.4854  0.4907
  826MOL0     C13861   0.562   9.500   5.238 -0.8234 -0.3304 -0.0722
  826MOL0     C13862   0.440   9.591   5.238 -0.1609  0.9623 -1.0855
  826MOL0     C13863   0.419   9.661   5.097 -0.1213 -0.7059 -0.8105
  826MOL0     C13864   0.549   9.713   5.032 -0.5928 -0.9085  0.2026
  826MOL0     C13865   0.603   9.835   5.116 -0.3667  0.3621  0.7988
  826MOL0     C13866   0.720   9.898   5.042 -0.4596  0.5836 -0.0821
  826MOL0     N13867   0.813   9.808   4.969  0.8888  0.0368  0.0169
  826MOL0     C13868   0.892   9.716   5.030  0.1587 -0.3562  1.1668
  826MOL0     C13869   0.949   9.642   4.934 -0.4387  0.5904 -0.5664
  826MOL0     C13870   1.023   9.511   4.941 -0.5074  1.1771  0.2558
  826MOL0     C13871   0.932   9.386   4.959  0.8607  0.8318  0.0818
  826MOL0     C13872   0.991   9.242   4.931  1.3414  0.4707 -0.2799
  826MOL0     C13873   0.982   9.219   4.779  0.6839 -0.6804 -0.7028
  826MOL0     O13874   1.100   9.143   4.753 -0.1192  0.0836 -0.7303
  826MOL0     C13875   1.107   9.005   4.762 -0.6740 -0.4258  0.3959
  826MOL0     C13876   1.227   8.939   4.720 -1.3983 -0.1322  0.2177
  826MOL0     C13877   1.226   8.800   4.698  0.8347  0.6089  0.1926
  826MOL0     C13878   1.365   8.741   4.661  0.3541  0.8644 -0.5118
  826MOL0     C13879   1.115   8.716   4.735  0.0083 -1.4076  0.0354
  826MOL0     C13880   1.101   8.566   4.742 -0.1111 -0.1498 -0.2388
  826MOL0     O13881   1.204   8.495   4.690  0.7428 -0.5923  1.0535
  826MOL0     C13882   1.194   8.362   4.688  0.4451  0.4852 -0.3391
  826MOL0     C13883   1.197   8.283   4.572  0.4381  0.4572  0.0206
  826MOL0     C13884   1.184   8.139   4.581 -0.5399  0.5373  0.9191
  826MOL0     C13885   1.158   8.078   4.704  0.4281  0.6989 -0.1154
  826MOL0     O13886   1.133   7.949   4.744  0.5491  0.4014  0.7867
  826MOL0     C13887   1.105   7.848   4.645  0.2081  0.0762 -0.9534
  826MOL0     C13888   1.230   7.768   4.610 -0.1251  0.0662  0.6698
  826MOL0     C13889   1.184   7.668   4.494  0.1768  0.2461 -0.8013
  826MOL0     C13890   1.205   7.735   4.357  0.2301 -0.4556  0.5460
  826MOL0     C13891   1.178   7.643   4.234  0.3379  0.0136  1.3101
  826MOL0     C13892   1.183   7.738   4.110  0.2810 -0.2888 -0.0199
  826MOL0     C13893   1.148   7.675   3.979 -0.4000 -0.3200 -0.3960
  826MOL0     C13894   1.169   7.787   3.883  1.5040 -0.1194 -0.4999
  826MOL0    Cl13895   1.039   7.919   3.894 -0.2332 -0.4254  0.1605
  826MOL0     C13896   1.172   8.158   4.821 -0.2712 -0.0765 -0.3904
  826MOL0     C13897   1.202   8.295   4.809 -0.2918  0.6797  0.5459
  826MOL0     O13898   1.004   8.518   4.796 -0.1212 -0.2838 -0.5517
  826MOL0     C13899   1.000   8.790   4.782  0.0465 -0.2063  0.6586
  826MOL0     C13900   0.994   8.925   4.789 -0.1278  0.0497  0.6848
  826MOL0     N13901   0.892   9.688   4.814 -0.6088  0.0354 -0.0560
  826MOL0     N13902   0.818   9.787   4.835 -0.3731 -0.3519  1.1620
  826MOL0     C13903   1.040   9.333   5.268 -0.5216 -0.9486 -0.8293
  826MOL0     C13904   1.146   9.243   5.252 -0.4968 -0.8679 -0.0710
  826MOL0     C13905   1.453   8.970   5.122  0.1237  0.2888  0.4882
  826MOL0     C13906   1.465   8.853   5.195  0.4885 -0.1331  0.2833
  826MOL0     C13907   1.591   8.807   5.227 -0.2616 -0.4682 -0.3940
  826MOL0     C13908   1.705   8.852   5.166  0.2967  0.3909  0.0252
  826MOL0     O13909   1.817   8.773   5.161  0.2070  0.2199  0.1178
  826MOL0     C13910   1.811   8.641   5.122  0.4813  0.3963 -0.0327
  826MOL0     C13911   1.730   8.614   4.991 -0.8651 -0.1358 -0.4963
  826MOL0     C13912   1.723   8.464   4.943  0.4704 -0.0417 -0.1680
  826MOL0     C13913   1.631   8.373   5.027 -0.8661 -0.4836 -0.4625
  826MOL0     C13914   1.569   8.265   4.956  0.5255  0.5995  0.4827
  826MOL0     C13915   1.521   8.175   4.885 -0.9103  0.0488 -0.0259
  826MOL0     C13916   1.695   8.971   5.093 -0.2040  0.0622 -1.1603
  826MOL0     C13917   1.571   9.034   5.078 -0.3848  0.3421 -1.4695
  826MOL0     C13918   1.572   9.179   5.029  0.7347 -0.1517 -0.9882
  826MOL0     H13919   0.992   8.946   5.271  0.6818  0.2040  0.4468
  826MOL0     H13920   0.799   9.103   5.303  0.2019  1.3820 -3.0487
  826MOL0     H13921   0.689   9.268   5.449  1.1866 -1.9962 -0.8839
  826MOL0     H13922   0.647   9.260   5.273  1.5372 -0.8533  0.1031
  826MOL0     H13923   0.474   9.379   5.395  0.2357 -1.7284 -0.2685
  826MOL0     H13924   0.583   9.505   5.454  1.9678  0.5650 -0.0382
  826MOL0     H13925   0.650   9.564   5.226  1.9166 -3.6903  0.7192
  826MOL0     H13926   0.559   9.447   5.143 -0.2536  2.1057 -1.5610
  826MOL0     H13927   0.343   9.545   5.257 -1.0065  2.6168 -1.1788
  826MOL0     H13928   0.439   9.659   5.323 -1.3954  0.7030 -0.8738
  826MOL0     H13929   0.342   9.739   5.105 -0.5659 -1.2906  0.9600
  826MOL0     H13930   0.367   9.589   5.033 -0.2486  0.6960 -2.3452
  826MOL0     H13931   0.625   9.636   5.014  0.4597  0.1929 -0.2292
  826MOL0     H13932   0.520   9.759   4.937 -1.9054 -1.4046  0.3401
  826MOL0     H13933   0.643   9.807   5.214 -0.1785  1.6884  1.1230
  826MOL0     H13934   0.529   9.914   5.133 -1.0797  0.1469 -1.1555
  826MOL0     H13935   0.675   9.961   4.965  0.5321 -1.9730 -2.9443
  826MOL0     H13936   0.785   9.953   5.111  0.2702 -1.6169  1.0659
  826MOL0     H13937   0.914   9.715   5.136  0.8413  1.1903  1.0695
  826MOL0     H13938   1.098   9.502   5.020  0.9847 -3.0613 -1.3261
  826MOL0     H13939   1.089   9.496   4.855  0.6143  1.0687  1.1115
  826MOL0     H13940   0.906   9.393   5.065  0.4711 -1.2650  0.1626
  826MOL0     H13941   0.834   9.392   4.912  1.4181 -1.1531 -1.4293
  826MOL0     H13942   1.087   9.223   4.979  1.5378  1.2150 -0.3643
  826MOL0     H13943   0.931   9.163   4.977  1.3731 -0.5623 -1.9413
  826MOL0     H13944   0.891   9.169   4.744  1.7714 -3.5011  0.1988
  826MOL0     H13945   0.983   9.315   4.727 -0.0309 -1.1814 -1.6669
  826MOL0     H13946   1.314   8.998   4.691 -2.9762  0.5197 -3.9415
  826MOL0     H13947   1.371   8.671   4.745 -0.1757 -1.0990 -2.0318
  826MOL0     H13948   1.450   8.810   4.667  1.9818 -1.1573  0.7705
  826MOL0     H13949   1.351   8.695   4.563  1.5301  3.4481 -1.9863
  826MOL0     H13950   1.204   8.328   4.473  1.4010 -1.2164 -0.7237
  826MOL0     H13951   1.174   8.080   4.490 -0.7508  2.2512 -0.2050
  826MOL0     H13952   1.027   7.782   4.685  1.8486 -1.7376 -0.6269
  826MOL0     H13953   1.072   7.894   4.551  0.8151  1.0942 -0.6823
  826MOL0     H13954   1.314   7.832   4.582 -0.0586  0.0002  0.7189
  826MOL0     H13955   1.260   7.712   4.699 -1.5902 -1.2724  0.3745
  826MOL0     H13956   1.082   7.628   4.498 -0.1876  1.2152 -0.1297
  826MOL0     H13957   1.249   7.581   4.490  2.3644  1.6994  0.6851
  826MOL0     H13958   1.308   7.768   4.346  0.8172 -2.0852  0.9513
  826MOL0     H13959   1.128   7.813   4.357  0.3938 -0.0957 -3.2290
  826MOL0     H13960   1.259   7.571   4.219 -0.1687  0.0568 -2.3067
  826MOL0     H13961   1.081   7.598   4.253  1.4201 -2.8259  0.6153
  826MOL0     H13962   1.291   7.754   4.104  0.4680 -0.6493  1.7943
  826MOL0     H13963   1.139   7.836   4.133  0.2687 -0.4877  0.8199
  826MOL0     H13964   1.049   7.630   3.972 -1.3581  1.4206  0.9687
  826MOL0     H13965   1.224   7.601   3.951 -0.6717 -0.6144 -0.3559
  826MOL0     H13966   1.163   7.750   3.780 -1.6903  0.0178 -0.4608
  826MOL0     H13967   1.272   7.824   3.886  0.5353  3.1475 -2.5495
  826MOL0     H13968   1.156   8.117   4.920 -2.0472  1.8900  0.2155
  826MOL0     H13969   1.219   8.359   4.895 -0.8667  2.0900 -0.3545
  826MOL0     H13970   0.916   8.723   4.799  1.1402 -1.8382 -0.0363
  826MOL0     H13971   0.894   8.964   4.806 -2.4090 -4.6364 -0.4681
  826MOL0     H13972   1.057   9.441   5.269  1.2795 -1.2014 -1.3761
  826MOL0     H13973   1.245   9.288   5.245 -0.8265 -0.3670 -1.9497
  826MOL0     H13974   1.388   8.800   5.250 -0.0054 -0.4515 -0.6870
  826MOL0     H13975   1.595   8.718   5.290 -1.6872 -0.9236 -0.9118
  826MOL0     H13976   1.917   8.614   5.122  0.9997  2.1167  1.7027
  826MOL0     H13977   1.775   8.586   5.210  0.3473  1.2013  0.4293
  826MOL0     H13978   1.780   8.673   4.914  2.8867 -1.3449  0.7731
  826MOL0     H13979   1.631   8.660   4.998 -0.1033  1.5220  0.1773
  826MOL0     H13980   1.685   8.471   4.841 -1.9347 -0.4121  0.6333
  826MOL0     H13981   1.825   8.425   4.942  0.1818 -1.4110  3.9371
  826MOL0     H13982   1.554   8.432   5.078  1.7966  3.0849 -0.1478
  826MOL0     H13983   1.694   8.324   5.102 -3.2656 -3.0882  0.0016
  826MOL0     H13984   1.480   8.096   4.826  0.0339  0.7471 -1.6859
  826MOL0     H13985   1.779   9.017   5.042  0.4069 -0.8036 -0.9612
  826MOL0     H13986   1.535   9.245   5.107 -1.4439 -2.0383 -0.3221
  826MOL0     H13987   1.674   9.203   4.998  0.8430 -0.6740 -1.0456
  826MOL0     H13988   1.501   9.190   4.947 -0.0344 -2.6882 -0.7496
  827MOL0     O13989   9.642   3.671   7.391 -0.2641  0.5453 -0.2298
  827MOL0     C13990   9.530   3.698   7.368  0.2370  0.7639 -0.6310
  827MOL0     O13991   9.440   3.764   7.450 -0.3812  0.7425 -0.3622
  827MOL0     C13992   9.499   3.795   7.579  0.8036  0.4172 -0.1391
  827MOL0     C13993   9.468   3.728   7.694 -0.6878  0.2212  0.4809
  827MOL0     C13994   9.521   3.766   7.811  0.3369  0.8242  0.2249
  827MOL0     C13995   9.593   3.884   7.824  0.2844 -0.1756  0.3976
  827MOL0     O13996   9.634   3.912   7.954  0.1193  0.3046  0.5411
  827MOL0     C13997   9.525   3.915   8.052  0.7760  0.5406  0.1779
  827MOL0     C13998   9.572   3.931   8.198  0.1565 -0.4822  0.8639
  827MOL0     C13999   9.636   4.071   8.215  1.4421 -0.5026 -0.1947
  827MOL0     C14000   9.536   4.195   8.208  0.1725  0.4118  0.0957
  827MOL0     C14001   9.614   4.327   8.227  0.4048  0.9008  0.5090
  827MOL0     C14002   9.705   4.364   8.111 -0.6034 -0.4324 -0.6427
  827MOL0     C14003   9.710   4.517   8.094 -0.3242  0.3912 -0.2336
  827MOL0     C14004   9.798   4.583   8.204  0.4731  0.1625  0.6507
  827MOL0     N14005   9.856   4.709   8.156 -0.2217 -1.0257  0.1887
  827MOL0     C14006   9.803   4.836   8.178 -0.5549 -0.4947  0.2607
  827MOL0     C14007   9.894   4.915   8.112 -0.2122  0.1314 -1.0115
  827MOL0     C14008   9.902   5.060   8.082 -0.1634  0.2845  0.2347
  827MOL0     C14009  10.017   5.128   8.145  0.1745  0.1212  0.5822
  827MOL0     C14010  10.042   5.104   8.291  0.1087 -0.2389  0.8308
  827MOL0     C14011  10.165   5.177   8.348  0.5003  0.5700  0.3669
  827MOL0     O14012  10.271   5.116   8.274 -0.0013  0.1526  0.2088
  827MOL0     C14013  10.398   5.151   8.309 -0.4716 -0.7948  0.3186
  827MOL0     C14014  10.513   5.072   8.270  0.0440 -0.4138  0.0761
  827MOL0     C14015  10.636   5.091   8.313 -0.0943  0.3426  0.5961
  827MOL0     C14016  10.740   4.989   8.257  0.5455  0.3535  0.5519
  827MOL0     C14017  10.663   5.204   8.402 -0.5013  0.2812  0.2055
  827MOL0     C14018  10.805   5.241   8.442  0.7495 -0.5894 -0.4022
  827MOL0     O14019  10.911   5.162   8.399 -0.3080 -0.1034 -0.3521
  827MOL0     C14020  11.035   5.228   8.394  0.3422  0.1488  0.4261
  827MOL0     C14021  11.118   5.240   8.508  0.8627  0.2837  0.1364
  827MOL0     C14022  11.248   5.288   8.480 -0.8214 -0.7940  0.1304
  827MOL0     C14023  11.288   5.340   8.358  0.0016  0.1359  1.1719
  827MOL0     O14024  11.407   5.391   8.314  0.0438  0.1199  0.0207
  827MOL0     C14025  11.513   5.366   8.411  0.7360 -0.7835  0.2572
  827MOL0     C14026  11.645   5.390   8.346  0.2070 -0.6881  0.7844
  827MOL0     C14027  11.661   5.542   8.305  1.1074 -0.6421 -0.0062
  827MOL0     C14028  11.790   5.562   8.241 -0.1594  0.2981 -0.0635
  827MOL0     C14029  11.800   5.712   8.205  0.4246  0.1925 -0.1908
  827MOL0     C14030  11.791   5.833   8.303  0.0198  0.2731 -0.2174
  827MOL0     C14031  11.884   5.815   8.422  1.1210 -0.0709  0.2975
  827MOL0     C14032  12.033   5.819   8.401 -0.4891  0.6486 -0.4960
  827MOL0    Cl14033  12.076   5.973   8.315 -0.2597  0.2274  0.1388
  827MOL0     C14034  11.204   5.325   8.244 -0.3056  0.3666  0.4394
  827MOL0     C14035  11.075   5.268   8.264 -0.1202 -0.2581 -0.8419
  827MOL0     O14036  10.820   5.343   8.507  0.8730 -0.4196 -0.0570
  827MOL0     C14037  10.563   5.298   8.426 -0.1137 -0.4908 -0.6735
  827MOL0     C14038  10.429   5.266   8.387  0.7342  0.3526 -0.4274
  827MOL0     N14039  10.003   4.842   8.061 -0.0265 -0.0355  0.3184
  827MOL0     N14040   9.982   4.713   8.096 -0.2616  0.0578  0.6115
  827MOL0     C14041   9.621   3.967   7.713 -0.0755 -0.2424  0.6320
  827MOL0     C14042   9.577   3.910   7.589  0.5978 -0.0816 -0.8934
  827MOL0     C14043   9.482   3.638   7.238  0.8049  0.3855  0.1024
  827MOL0     C14044   9.357   3.573   7.240 -0.4300 -0.7045  0.3634
  827MOL0     C14045   9.318   3.522   7.115  0.6761 -0.6806 -0.0390
  827MOL0     C14046   9.397   3.521   6.999 -0.3902  0.6231 -0.0095
  827MOL0     O14047   9.360   3.462   6.885  0.6557  1.0624 -0.3891
  827MOL0     C14048   9.399   3.319   6.869  0.2438 -0.3304 -0.3197
  827MOL0     C14049   9.333   3.246   6.754  0.3314  0.5466  0.1741
  827MOL0     C14050   9.375   3.301   6.627  1.0304 -0.0121  0.3101
  827MOL0     C14051   9.354   3.206   6.506  0.6873 -0.5014 -0.5949
  827MOL0     C14052   9.293   3.275   6.388  0.9853  0.0868  0.1415
  827MOL0     C14053   9.250   3.319   6.289 -0.8202 -0.1811  0.7608
  827MOL0     C14054   9.522   3.564   7.008 -0.0773 -0.1084  0.0071
  827MOL0     C14055   9.564   3.643   7.119  0.3163 -0.1045 -0.4615
  827MOL0     C14056   9.691   3.720   7.118 -0.8025 -0.2571  0.2301
  827MOL0     H14057   9.401   3.643   7.687  1.4623 -1.5811  0.3314
  827MOL0     H14058   9.490   3.699   7.891 -3.5243  0.7356 -1.1409
  827MOL0     H14059   9.462   3.826   8.050 -1.1629  1.8527 -1.9913
  827MOL0     H14060   9.453   3.994   8.027 -0.3202 -0.4477  0.1372
  827MOL0     H14061   9.487   3.924   8.266  1.7586  0.3410  3.0705
  827MOL0     H14062   9.642   3.849   8.218 -2.2559 -2.0715  3.4380
  827MOL0     H14063   9.680   4.062   8.315  1.6752 -1.1724 -0.3533
  827MOL0     H14064   9.731   4.084   8.163  2.6790  0.3696  2.1162
  827MOL0     H14065   9.484   4.193   8.111 -0.2673 -0.3286  0.3371
  827MOL0     H14066   9.459   4.196   8.286 -0.0884 -2.0682 -0.0623
  827MOL0     H14067   9.662   4.324   8.325 -1.9066  0.3352  1.7117
  827MOL0     H14068   9.531   4.398   8.222 -1.3035 -1.0365 -0.1178
  827MOL0     H14069   9.807   4.327   8.128  1.0518  3.3974 -1.0620
  827MOL0     H14070   9.678   4.322   8.014 -3.7972 -0.9953  0.3789
  827MOL0     H14071   9.607   4.554   8.102 -0.5063 -0.1470  0.0006
  827MOL0     H14072   9.761   4.547   8.003  1.4273 -1.6010  0.0276
  827MOL0     H14073   9.741   4.592   8.297 -0.4476  3.4894 -0.1260
  827MOL0     H14074   9.882   4.517   8.227 -0.5833 -1.1734  0.8508
  827MOL0     H14075   9.715   4.870   8.232 -0.4807  0.2868 -0.0942
  827MOL0     H14076   9.805   5.109   8.100 -1.3278 -2.6125  2.5990
  827MOL0     H14077   9.910   5.064   7.973 -2.1226 -0.3510  0.0288
  827MOL0     H14078  10.104   5.111   8.080 -2.4294 -0.4500 -3.0116
  827MOL0     H14079  10.005   5.236   8.132  0.3514 -0.0762 -1.6854
  827MOL0     H14080   9.946   5.130   8.335  0.1722  1.4484  0.0498
  827MOL0     H14081  10.046   4.997   8.316 -0.1886  0.1407  2.6440
  827MOL0     H14082  10.168   5.285   8.331  0.0002  1.0033  2.7580
  827MOL0     H14083  10.177   5.169   8.456 -0.1567 -0.3526  0.3929
  827MOL0     H14084  10.478   4.998   8.198 -1.3412  0.6760 -0.4114
  827MOL0     H14085  10.801   4.949   8.338 -0.8005  1.7745  2.3585
  827MOL0     H14086  10.799   5.044   8.184 -0.2316  2.8910  1.7348
  827MOL0     H14087  10.690   4.902   8.213 -2.3000 -1.2952  6.0800
  827MOL0     H14088  11.093   5.202   8.607 -2.0209  2.4793  0.3599
  827MOL0     H14089  11.298   5.270   8.575 -2.9560 -4.7172  0.7176
  827MOL0     H14090  11.501   5.432   8.497 -1.4235  1.2283 -1.4738
  827MOL0     H14091  11.513   5.264   8.452 -3.0123 -0.5619  1.1253
  827MOL0     H14092  11.730   5.353   8.402  0.0551  2.6175  3.5212
  827MOL0     H14093  11.650   5.334   8.252 -0.2139  1.5588 -0.6691
  827MOL0     H14094  11.647   5.604   8.395 -0.1803 -2.4103  1.0662
  827MOL0     H14095  11.587   5.575   8.232  0.1058 -1.0693  0.7900
  827MOL0     H14096  11.801   5.504   8.149 -0.0427  0.0346  0.1146
  827MOL0     H14097  11.879   5.542   8.302  0.5883 -2.4556 -1.8860
  827MOL0     H14098  11.902   5.707   8.166  2.1217 -2.3322  3.9110
  827MOL0     H14099  11.726   5.730   8.127 -0.5994  0.8614  0.9029
  827MOL0     H14100  11.694   5.858   8.347  0.7600 -2.2347  3.3149
  827MOL0     H14101  11.820   5.925   8.252  1.7743  2.0368  3.5788
  827MOL0     H14102  11.869   5.724   8.481 -0.0033  0.9593  1.6573
  827MOL0     H14103  11.867   5.901   8.487  2.1759  0.2659  0.1455
  827MOL0     H14104  12.072   5.733   8.346 -0.5987  0.4683 -0.2905
  827MOL0     H14105  12.087   5.818   8.496  0.4962  1.0926 -1.0348
  827MOL0     H14106  11.233   5.372   8.151 -2.0088  0.8685  0.1207
  827MOL0     H14107  11.016   5.247   8.175  0.7562  2.8243 -2.2771
  827MOL0     H14108  10.582   5.392   8.478 -3.4679  0.1162 -0.2996
  827MOL0     H14109  10.368   5.345   8.431  1.9078 -0.1826  2.4342
  827MOL0     H14110   9.669   4.062   7.733 -0.4701 -0.5614  3.4476
  827MOL0     H14111   9.588   3.976   7.503 -1.6191  0.8765 -0.5115
  827MOL0     H14112   9.290   3.566   7.325  2.7416 -0.5157  3.0922
  827MOL0     H14113   9.219   3.484   7.095  0.0046  1.2133 -0.5278
  827MOL0     H14114   9.505   3.333   6.848 -0.0037 -1.3920 -2.5950
  827MOL0     H14115   9.378   3.260   6.958 -3.3673 -1.7496 -1.9007
  827MOL0     H14116   9.228   3.255   6.782  0.1861 -1.8630  0.6243
  827MOL0     H14117   9.364   3.142   6.766  3.2150  1.3896  0.7531
  827MOL0     H14118   9.307   3.387   6.618  1.3093  0.2769  0.8850
  827MOL0     H14119   9.476   3.344   6.626  1.0437  0.0067  1.2981
  827MOL0     H14120   9.287   3.124   6.536 -2.0159  1.3636 -1.1578
  827MOL0     H14121   9.454   3.171   6.477  1.2211 -2.8704  3.4057
  827MOL0     H14122   9.205   3.365   6.203  0.1980 -0.4468  0.0782
  827MOL0     H14123   9.587   3.557   6.921 -0.5560 -1.6976 -0.2459
  827MOL0     H14124   9.667   3.819   7.157  0.6381  1.2087 -2.3387
  827MOL0     H14125   9.776   3.667   7.162 -0.1354  0.2699 -0.3808
  827MOL0     H14126   9.716   3.742   7.014 -0.3226  0.9440  0.5783
  828MOL0     O14127   5.537   2.798   9.536 -0.4958 -0.2574  0.3193
  828MOL0     C14128   5.495   2.831   9.644  1.0107  0.3654  0.1554
  828MOL0     O14129   5.555   2.925   9.732  1.3586  0.6810  0.6049
  828MOL0     C14130   5.661   3.005   9.689  0.6438  1.3497 -0.0666
  828MOL0     C14131   5.773   2.943   9.633  0.1992 -0.7190 -0.1365
  828MOL0     C14132   5.867   3.024   9.591 -0.1213 -0.3939  0.4865
  828MOL0     C14133   5.876   3.162   9.617  0.3376 -0.7674 -0.7397
  828MOL0     O14134   5.990   3.237   9.615 -0.1601 -0.3325  0.1310
  828MOL0     C14135   6.123   3.189   9.607  0.3950  0.1477  0.0740
  828MOL0     C14136   6.222   3.301   9.602  0.6112  0.2920  0.0740
  828MOL0     C14137   6.224   3.385   9.727  0.5544  0.5361  0.7628
  828MOL0     C14138   6.355   3.472   9.741  0.2452 -0.1179  0.1578
  828MOL0     C14139   6.374   3.497   9.895 -0.0198 -0.1532  0.8197
  828MOL0     C14140   6.513   3.563   9.922 -0.6528  0.1623 -0.1666
  828MOL0     C14141   6.553   3.555  10.073  1.4360 -0.9290  0.3761
  828MOL0     C14142   6.495   3.667  10.160 -0.1914 -0.7006  0.3825
  828MOL0     N14143   6.520   3.666  10.303 -0.6725 -0.5696 -0.3593
  828MOL0     C14144   6.487   3.556  10.375 -0.0761  0.7767 -0.4525
  828MOL0     C14145   6.524   3.589  10.501 -0.2531  0.7779 -0.1488
  828MOL0     C14146   6.514   3.502  10.621 -0.2065  0.2039 -0.2632
  828MOL0     C14147   6.639   3.419  10.663  0.2001  0.5750 -0.8000
  828MOL0     C14148   6.708   3.348  10.551 -0.4700  0.0307  0.8589
  828MOL0     C14149   6.630   3.230  10.504 -0.0531 -0.2863  0.5041
  828MOL0     O14150   6.622   3.249  10.356  0.5474  1.0792 -0.1889
  828MOL0     C14151   6.534   3.170  10.275 -0.3361 -0.6546 -0.1516
  828MOL0     C14152   6.547   3.174  10.132  0.4825  0.1063 -0.1444
  828MOL0     C14153   6.464   3.103  10.043 -0.3553  0.5536  0.5459
  828MOL0     C14154   6.482   3.116   9.893  0.6802  0.3633 -0.5879
  828MOL0     C14155   6.368   3.015  10.109  0.1796 -0.2355  0.6799
  828MOL0     C14156   6.281   2.916  10.036 -0.0208  0.2677 -0.3889
  828MOL0     O14157   6.147   2.911  10.071  0.0443 -0.6556 -0.2340
  828MOL0     C14158   6.088   3.036  10.095 -0.2946 -0.1479  0.1758
  828MOL0     C14159   6.098   3.140  10.006  0.6156 -0.2844  1.0012
  828MOL0     C14160   6.005   3.247  10.019 -0.1448 -0.2490 -0.3636
  828MOL0     C14161   5.900   3.247  10.122 -0.5413  0.2594 -1.3891
  828MOL0     O14162   5.806   3.350  10.144  0.1387  0.7207  0.2216
  828MOL0     C14163   5.719   3.376  10.035  0.2491 -0.2840 -0.4606
  828MOL0     C14164   5.624   3.471  10.112  0.3891 -0.1995 -0.2879
  828MOL0     C14165   5.524   3.542  10.032 -0.4682  0.1765 -0.4230
  828MOL0     C14166   5.591   3.642   9.921 -0.6846 -0.0049 -1.0861
  828MOL0     C14167   5.482   3.733   9.873  0.1194  0.7119  0.0705
  828MOL0     C14168   5.546   3.830   9.770  0.6343 -0.3984 -0.5085
  828MOL0     C14169   5.523   3.984   9.788  0.4583  0.5344  1.1784
  828MOL0     C14170   5.614   4.068   9.874  0.6322  0.6488 -0.8209
  828MOL0    Cl14171   5.784   4.051   9.800  0.2984 -0.1061 -0.1614
  828MOL0     C14172   5.915   3.150  10.223 -0.0291 -0.2505  0.5731
  828MOL0     C14173   5.997   3.036  10.200 -0.1751  0.0846  0.0856
  828MOL0     O14174   6.339   2.837   9.964  0.2921 -0.4200  0.8256
  828MOL0     C14175   6.347   3.029  10.249 -0.3845  0.3287 -1.0243
  828MOL0     C14176   6.434   3.097  10.333 -0.8885  0.7687 -1.1178
  828MOL0     N14177   6.581   3.716  10.500  0.3324 -0.4535  0.3066
  828MOL0     N14178   6.575   3.771  10.376  0.0351 -0.0612  0.4918
  828MOL0     C14179   5.765   3.223   9.689  0.0185  1.0558  0.0770
  828MOL0     C14180   5.653   3.146   9.719  0.0581 -0.1568  0.0870
  828MOL0     C14181   5.361   2.763   9.672 -0.4785 -0.0787  0.0545
  828MOL0     C14182   5.333   2.635   9.619 -0.9502  0.1514 -0.4080
  828MOL0     C14183   5.211   2.580   9.633 -1.0028 -0.4359  0.3579
  828MOL0     C14184   5.116   2.647   9.708 -0.7586 -0.1790 -0.0366
  828MOL0     O14185   4.987   2.596   9.727 -0.5738  0.3869 -0.9928
  828MOL0     C14186   4.946   2.461   9.727 -0.1640  0.4986 -1.2228
  828MOL0     C14187   4.833   2.450   9.838 -0.0749 -0.3376 -0.1113
  828MOL0     C14188   4.888   2.479   9.971 -0.2892 -0.0685  0.4906
  828MOL0     C14189   4.781   2.450  10.082 -0.4376  0.6117 -0.1212
  828MOL0     C14190   4.838   2.490  10.213  0.0017 -0.1606 -1.0589
  828MOL0     C14191   4.889   2.529  10.317 -1.2303 -0.3785 -0.2331
  828MOL0     C14192   5.143   2.781   9.742  0.2273 -0.2271 -0.2438
  828MOL0     C14193   5.261   2.846   9.729 -0.7988  0.6887  0.5800
  828MOL0     C14194   5.275   2.991   9.765  0.3959 -0.7188  0.3694
  828MOL0     H14195   5.776   2.836   9.619  0.2316 -0.5329 -1.6773
  828MOL0     H14196   5.953   2.982   9.538 -1.5626  0.4292 -2.7549
  828MOL0     H14197   6.127   3.143   9.508 -0.3999  2.3038 -1.0116
  828MOL0     H14198   6.154   3.120   9.687  2.8807 -0.1827 -1.0659
  828MOL0     H14199   6.320   3.258   9.580  0.6786 -0.0804  1.0832
  828MOL0     H14200   6.197   3.368   9.518 -0.8554 -0.6591 -0.2798
  828MOL0     H14201   6.133   3.445   9.734  1.3601  1.6956  1.5767
  828MOL0     H14202   6.237   3.319   9.813  1.5431  3.3348  2.9160
  828MOL0     H14203   6.436   3.409   9.704 -0.5158 -0.0988 -1.5862
  828MOL0     H14204   6.345   3.565   9.684  0.9222 -0.2704 -0.2144
  828MOL0     H14205   6.364   3.409   9.960  2.5502 -1.8306 -0.8577
  828MOL0     H14206   6.291   3.560   9.928 -1.7866 -2.1614  0.3796
  828MOL0     H14207   6.585   3.506   9.863 -1.1723 -0.1771 -0.4737
  828MOL0     H14208   6.509   3.667   9.889  0.9131  1.2568  2.6576
  828MOL0     H14209   6.660   3.575  10.080  1.0747  2.0726 -0.9245
  828MOL0     H14210   6.539   3.455  10.114  1.5446 -0.1324  2.4923
  828MOL0     H14211   6.530   3.761  10.116 -3.1831  1.1212  1.6320
  828MOL0     H14212   6.388   3.658  10.142 -0.6597 -3.4458  3.6202
  828MOL0     H14213   6.448   3.464  10.334  1.6793  0.5707 -1.7813
  828MOL0     H14214   6.426   3.438  10.607 -1.5374  1.0751  3.1196
  828MOL0     H14215   6.483   3.568  10.702  0.6248 -1.2680  1.3341
  828MOL0     H14216   6.715   3.479  10.716  1.3371 -2.0124  0.6767
  828MOL0     H14217   6.621   3.352  10.747  5.4842 -1.0588 -0.5951
  828MOL0     H14218   6.723   3.410  10.462  1.4511 -2.0356 -0.3358
  828MOL0     H14219   6.802   3.308  10.590 -1.0468  0.5877  2.9605
  828MOL0     H14220   6.697   3.144  10.513 -1.3273 -1.8943 -3.1391
  828MOL0     H14221   6.539   3.217  10.563  1.0206 -0.5289  2.1667
  828MOL0     H14222   6.620   3.244  10.092 -2.8029  2.5316 -2.4086
  828MOL0     H14223   6.506   3.222   9.878 -0.9093  1.0576  1.3053
  828MOL0     H14224   6.392   3.084   9.841  0.0444  1.6775 -0.3394
  828MOL0     H14225   6.566   3.053   9.861  1.0633  0.4203  0.2734
  828MOL0     H14226   6.161   3.143   9.917 -0.2316  2.6079  0.4115
  828MOL0     H14227   6.026   3.328   9.951  3.4703  0.2231  1.0881
  828MOL0     H14228   5.759   3.435   9.952 -0.5916  0.6467 -0.2184
  828MOL0     H14229   5.656   3.293  10.001  0.4073 -0.7750  0.4081
  828MOL0     H14230   5.573   3.409  10.186 -0.4765 -2.1367 -2.4179
  828MOL0     H14231   5.680   3.552  10.160 -0.4463 -0.0143  0.3974
  828MOL0     H14232   5.460   3.597  10.101 -0.1540  0.0049  0.0075
  828MOL0     H14233   5.465   3.467   9.978 -1.7600  1.6052 -1.0597
  828MOL0     H14234   5.636   3.582   9.842 -1.5053 -0.1024 -1.4930
  828MOL0     H14235   5.670   3.698   9.971 -1.6750 -1.2498  2.2092
  828MOL0     H14236   5.406   3.671   9.824  0.9735  0.1176 -0.5339
  828MOL0     H14237   5.439   3.789   9.956 -3.2845  1.0756 -1.7905
  828MOL0     H14238   5.492   3.815   9.676 -4.0677  1.8409  1.4753
  828MOL0     H14239   5.654   3.815   9.768  1.1533  0.9221  4.3483
  828MOL0     H14240   5.419   3.998   9.818  0.0832  1.6794 -0.5127
  828MOL0     H14241   5.535   4.033   9.690  1.0434  3.2334  2.5005
  828MOL0     H14242   5.606   4.018   9.971 -0.2575  2.8525  0.3114
  828MOL0     H14243   5.589   4.174   9.874  0.5237  0.6264 -1.2671
  828MOL0     H14244   5.848   3.172  10.305 -0.0112  2.9848 -0.1573
  828MOL0     H14245   5.990   2.952  10.268 -1.9803 -1.4926 -1.9344
  828MOL0     H14246   6.268   2.970  10.295 -0.7243  1.8896  0.4940
  828MOL0     H14247   6.426   3.082  10.440  1.4732  0.0950 -0.9925
  828MOL0     H14248   5.778   3.324   9.726  1.2626  0.6800  0.7109
  828MOL0     H14249   5.570   3.176   9.782  0.6202 -1.0077  1.3021
  828MOL0     H14250   5.410   2.586   9.560  1.7616  2.1092  1.2845
  828MOL0     H14251   5.192   2.479   9.597 -2.4792  0.6673 -2.1567
  828MOL0     H14252   4.908   2.425   9.630  1.5596  0.0937 -1.7769
  828MOL0     H14253   5.034   2.402   9.752 -0.7693 -0.6224 -1.6256
  828MOL0     H14254   4.796   2.347   9.837 -0.9640 -0.0860  1.8535
  828MOL0     H14255   4.751   2.519   9.820  1.6831  1.7499 -0.5916
  828MOL0     H14256   4.970   2.410   9.995 -0.8710 -0.5206  1.2167
  828MOL0     H14257   4.922   2.582   9.975  0.3165 -0.2615  0.4379
  828MOL0     H14258   4.764   2.342  10.083  1.4715  0.2605 -0.3969
  828MOL0     H14259   4.682   2.492  10.064 -0.0549  1.0952 -1.1970
  828MOL0     H14260   4.918   2.567  10.412 -0.5906  1.1470 -1.0015
  828MOL0     H14261   5.074   2.842   9.799  2.6516  3.2138 -0.6748
  828MOL0     H14262   5.174   3.033   9.774  1.2457  1.2861  1.2929
  828MOL0     H14263   5.320   2.992   9.865  1.0482 -0.5642  0.0777
  828MOL0     H14264   5.339   3.050   9.698 -0.9634  0.9002  0.4186
  829MOL0     O14265   2.367   5.433  11.500  0.1662  0.2849 -0.4721
  829MOL0     C14266   2.452   5.392  11.580 -0.2740  0.9415  0.7301
  829MOL0     O14267   2.427   5.349  11.705 -0.8398  0.9460 -0.2526
  829MOL0     C14268   2.302   5.310  11.742 -0.8062 -0.6917 -0.7565
  829MOL0     C14269   2.215   5.258  11.656 -0.9649 -0.1755  0.3962
  829MOL0     C14270   2.086   5.225  11.685 -0.7752 -0.7104  0.0106
  829MOL0     C14271   2.042   5.257  11.817 -0.0119 -0.3000  0.5403
  829MOL0     O14272   1.915   5.242  11.856 -0.0187 -0.2350 -0.2769
  829MOL0     C14273   1.853   5.124  11.815  0.1267  0.5133  0.3172
  829MOL0     C14274   1.749   5.124  11.704 -1.1148  0.1827  0.2891
  829MOL0     C14275   1.629   5.215  11.733  0.3851 -0.8361  0.5426
  829MOL0     C14276   1.559   5.256  11.598  0.0410  0.3003  0.4192
  829MOL0     C14277   1.449   5.357  11.610  0.0183 -0.0761  0.0566
  829MOL0     C14278   1.318   5.295  11.661  1.2868 -0.0880 -0.6848
  829MOL0     C14279   1.188   5.362  11.612 -0.3147  0.7508 -0.3593
  829MOL0     C14280   1.183   5.514  11.652 -0.0936  0.8659  0.7949
  829MOL0     N14281   1.174   5.538  11.799 -0.7354 -0.8617 -0.3161
  829MOL0     C14282   1.140   5.648  11.880  0.1953 -0.7491 -0.2517
  829MOL0     C14283   1.114   5.606  12.010  0.5782  0.2726 -0.8661
  829MOL0     C14284   1.079   5.688  12.130  0.1537 -0.1105  0.7385
  829MOL0     C14285   1.055   5.609  12.257 -0.1993  0.0122  0.1987
  829MOL0     C14286   1.192   5.580  12.329 -0.1257  0.8085 -0.6673
  829MOL0     C14287   1.172   5.476  12.437  0.2294 -1.0167 -1.6120
  829MOL0     O14288   1.139   5.526  12.568 -0.9711  0.7929  0.4913
  829MOL0     C14289   1.015   5.511  12.606 -0.5828 -0.4578 -0.0848
  829MOL0     C14290   0.935   5.621  12.593  0.0257  1.2829  0.0670
  829MOL0     C14291   0.803   5.609  12.644  0.6511  0.3514 -0.5124
  829MOL0     C14292   0.729   5.746  12.637  0.1775  0.7171  0.4329
  829MOL0     C14293   0.733   5.490  12.679  0.0021 -0.1045 -0.8454
  829MOL0     C14294   0.595   5.479  12.706  0.1984  0.2278 -1.0611
  829MOL0     O14295   0.509   5.578  12.660  0.2613 -0.3550 -0.2315
  829MOL0     C14296   0.373   5.573  12.654 -0.8978  0.6894  1.3755
  829MOL0     C14297   0.313   5.455  12.612  0.4641 -0.1205 -0.1090
  829MOL0     C14298   0.172   5.455  12.592 -0.1299  0.0910  0.3507
  829MOL0     C14299   0.092   5.573  12.618  0.5817  0.0480  0.2038
  829MOL0     O14300  -0.040   5.581  12.587  0.1963  0.8057 -0.2704
  829MOL0     C14301  -0.121   5.467  12.572 -0.3029  0.2619  0.0676
  829MOL0     C14302  -0.130   5.394  12.702 -0.0901  0.3383 -0.6236
  829MOL0     C14303  -0.204   5.480  12.807 -0.6049 -0.2572  1.0311
  829MOL0     C14304  -0.256   5.418  12.945 -0.2437 -0.1398 -1.1414
  829MOL0     C14305  -0.346   5.294  12.932 -0.2800 -0.4534 -0.9117
  829MOL0     C14306  -0.468   5.315  12.834  0.4086 -0.3788  0.6135
  829MOL0     C14307  -0.591   5.212  12.864 -0.0743 -0.5911 -0.2462
  829MOL0     C14308  -0.727   5.262  12.799  0.7735  0.1039  0.5385
  829MOL0    Cl14309  -0.700   5.260  12.619  0.2593  0.1416  0.2501
  829MOL0     C14310   0.159   5.692  12.637 -1.1529  0.4023  1.1098
  829MOL0     C14311   0.303   5.692  12.658  0.2483 -0.1153 -0.2663
  829MOL0     O14312   0.561   5.378  12.763  0.2545  0.5467 -0.4482
  829MOL0     C14313   0.814   5.376  12.679 -1.4928  0.0694 -0.6807
  829MOL0     C14314   0.954   5.384  12.639  0.0361  0.1669  0.4044
  829MOL0     N14315   1.158   5.473  12.016 -0.0746  0.5837  1.0364
  829MOL0     N14316   1.170   5.433  11.887  0.3587 -0.0547 -0.2593
  829MOL0     C14317   2.134   5.297  11.914  0.0912 -0.8844 -0.6197
  829MOL0     C14318   2.269   5.326  11.873  0.9460  0.2331  0.5574
  829MOL0     C14319   2.589   5.405  11.538 -0.2302 -0.5914  0.1096
  829MOL0     C14320   2.626   5.517  11.462  1.1036 -0.3372  0.6631
  829MOL0     C14321   2.761   5.540  11.425  0.3336 -0.0498 -0.1359
  829MOL0     C14322   2.869   5.460  11.481  0.1409  0.3416  0.8742
  829MOL0     O14323   2.996   5.504  11.446 -0.6584  0.5138 -0.0002
  829MOL0     C14324   3.116   5.430  11.473  0.0777 -0.3312 -0.1160
  829MOL0     C14325   3.226   5.502  11.393  0.2601 -0.5939 -0.3484
  829MOL0     C14326   3.364   5.440  11.423  0.3172  0.3769 -0.6527
  829MOL0     C14327   3.486   5.509  11.351  0.3017 -0.4085 -0.2377
  829MOL0     C14328   3.477   5.510  11.197 -0.4247  0.6228 -0.1238
  829MOL0     C14329   3.474   5.534  11.078 -0.1063  0.2906  0.3055
  829MOL0     C14330   2.822   5.355  11.551  0.3936 -0.1803  0.2381
  829MOL0     C14331   2.690   5.312  11.569  0.0606  0.0321 -0.6161
  829MOL0     C14332   2.660   5.172  11.638  0.0063  0.0665  0.8983
  829MOL0     H14333   2.248   5.221  11.559 -2.3742 -2.2422  0.6527
  829MOL0     H14334   2.024   5.180  11.609  0.4982 -1.1589 -0.7974
  829MOL0     H14335   1.798   5.081  11.900 -1.4455  3.0216  0.6687
  829MOL0     H14336   1.926   5.046  11.793  0.6007  0.2551  2.5385
  829MOL0     H14337   1.800   5.168  11.617 -0.4507 -0.6032  0.2727
  829MOL0     H14338   1.725   5.027  11.660 -0.7077  1.0822 -2.0760
  829MOL0     H14339   1.550   5.174  11.797 -2.3482  0.8144 -1.4957
  829MOL0     H14340   1.660   5.309  11.778 -2.1775  0.8273 -0.9023
  829MOL0     H14341   1.641   5.280  11.530  1.3046 -2.8430  0.6901
  829MOL0     H14342   1.514   5.174  11.542  0.8161  0.2979 -0.2025
  829MOL0     H14343   1.446   5.409  11.514  1.0029  2.1826  1.1646
  829MOL0     H14344   1.493   5.426  11.682  2.0723 -2.8253  1.6710
  829MOL0     H14345   1.322   5.192  11.625  1.8751 -0.0031 -0.8617
  829MOL0     H14346   1.318   5.288  11.770 -1.4205  1.2400 -0.5016
  829MOL0     H14347   1.100   5.313  11.653  1.2747  0.4648  3.0434
  829MOL0     H14348   1.195   5.364  11.503  0.7754 -0.0592 -0.3281
  829MOL0     H14349   1.270   5.570  11.616  0.3513  0.2797  0.9248
  829MOL0     H14350   1.094   5.559  11.608 -1.0055 -2.8291 -1.6065
  829MOL0     H14351   1.142   5.751  11.847 -2.6257 -0.7028 -0.5108
  829MOL0     H14352   0.991   5.742  12.095  1.0703 -0.5011 -2.4907
  829MOL0     H14353   1.155   5.764  12.149 -0.6263  0.7439  0.4803
  829MOL0     H14354   0.990   5.666  12.323  2.1602  3.4110 -0.1444
  829MOL0     H14355   0.999   5.515  12.248 -3.4328  1.5356  2.4322
  829MOL0     H14356   1.273   5.547  12.265 -0.4904 -1.9251  0.1668
  829MOL0     H14357   1.237   5.670  12.373  0.1059  0.5519 -0.3762
  829MOL0     H14358   1.100   5.402  12.400  1.4376 -1.5205 -3.0485
  829MOL0     H14359   1.273   5.434  12.446  0.3083 -1.0561 -2.5549
  829MOL0     H14360   0.972   5.717  12.560 -0.5807  1.6510  0.4388
  829MOL0     H14361   0.810   5.820  12.634  0.5370  0.3547  1.0379
  829MOL0     H14362   0.653   5.766  12.714  0.7819  4.0099  0.3004
  829MOL0     H14363   0.674   5.752  12.543  1.3805 -1.0491 -0.4383
  829MOL0     H14364   0.361   5.359  12.596  0.7592 -0.2984  1.5875
  829MOL0     H14365   0.139   5.355  12.564  0.3337  0.6374 -2.4274
  829MOL0     H14366  -0.227   5.485  12.550 -1.1561 -0.5522  3.0474
  829MOL0     H14367  -0.081   5.414  12.485  3.9471  2.0875  0.6365
  829MOL0     H14368  -0.193   5.307  12.682 -1.0042  1.5763 -3.9135
  829MOL0     H14369  -0.033   5.358  12.737 -0.7208 -1.6019 -0.7601
  829MOL0     H14370  -0.286   5.537  12.761  1.5466  1.5935 -0.7742
  829MOL0     H14371  -0.131   5.557  12.834 -2.5407  1.1841  2.4367
  829MOL0     H14372  -0.307   5.496  13.004 -0.1924 -1.7370  1.1551
  829MOL0     H14373  -0.179   5.397  13.020 -0.2574  1.1329 -0.7489
  829MOL0     H14374  -0.283   5.208  12.911  1.5270  0.9900 -1.6199
  829MOL0     H14375  -0.400   5.294  13.027 -2.4229  0.7496 -2.0256
  829MOL0     H14376  -0.418   5.321  12.737 -1.5457 -1.4335 -0.5256
  829MOL0     H14377  -0.508   5.413  12.860  0.3015 -0.0842 -0.6043
  829MOL0     H14378  -0.601   5.187  12.970 -1.1106 -3.4340 -0.9324
  829MOL0     H14379  -0.580   5.115  12.814  1.2908 -0.7680  0.3437
  829MOL0     H14380  -0.741   5.367  12.829 -0.9496  0.7173 -2.1567
  829MOL0     H14381  -0.812   5.199  12.829  1.3361 -0.5665  0.7531
  829MOL0     H14382   0.097   5.781  12.637 -1.9701 -0.1458  1.4580
  829MOL0     H14383   0.348   5.791  12.660 -2.4874  1.2172  1.4291
  829MOL0     H14384   0.785   5.285  12.730  1.6915  0.5129  2.3263
  829MOL0     H14385   1.016   5.296  12.624 -2.3832 -1.2547 -2.3730
  829MOL0     H14386   2.118   5.318  12.019  2.0126 -1.8058 -0.0901
  829MOL0     H14387   2.336   5.360  11.951  0.4330  1.7652  0.3631
  829MOL0     H14388   2.544   5.581  11.431  0.2458 -1.2004  1.0906
  829MOL0     H14389   2.784   5.629  11.367  1.7282  1.4973  2.5989
  829MOL0     H14390   3.144   5.440  11.579  1.3672  2.6848 -0.6176
  829MOL0     H14391   3.112   5.325  11.443  2.2735 -1.8624  4.0726
  829MOL0     H14392   3.236   5.605  11.430  0.0886 -1.1448  1.3544
  829MOL0     H14393   3.205   5.499  11.286 -1.7066 -0.4647 -0.0046
  829MOL0     H14394   3.380   5.448  11.531  1.9163  0.6422 -0.8791
  829MOL0     H14395   3.366   5.335  11.395 -4.1258 -1.2323  3.6731
  829MOL0     H14396   3.576   5.468  11.398  1.3245  1.6886 -0.2661
  829MOL0     H14397   3.482   5.613  11.385  0.1793 -1.1218  2.1623
  829MOL0     H14398   3.465   5.539  10.971  0.3499  1.9185  0.3138
  829MOL0     H14399   2.903   5.291  11.584  0.5075 -1.7280 -2.6385
  829MOL0     H14400   2.756   5.121  11.650  0.2901  0.5920  0.8857
  829MOL0     H14401   2.612   5.195  11.733  0.5325  0.7594  0.9981
  829MOL0     H14402   2.595   5.107  11.578  2.8315 -0.4743 -1.8213
  830MOL0     O14403   7.205   7.566   3.798  0.0091  0.0850 -0.4032
  830MOL0     C14404   7.202   7.657   3.882 -0.3354 -1.3822 -0.2504
  830MOL0     O14405   7.274   7.657   3.997  0.6440  0.4869  0.5432
  830MOL0     C14406   7.357   7.551   4.025 -0.2467 -0.1474 -0.6739
  830MOL0     C14407   7.311   7.420   4.034 -0.0452 -0.2858 -0.2512
  830MOL0     C14408   7.399   7.319   4.069  0.0997  0.4627  0.6989
  830MOL0     C14409   7.534   7.339   4.089 -0.2021  0.4186  0.2878
  830MOL0     O14410   7.616   7.232   4.091  0.4190 -0.3015  0.5828
  830MOL0     C14411   7.755   7.245   4.073 -0.1331  0.5363 -0.4536
  830MOL0     C14412   7.833   7.108   4.098 -0.2085  0.4841 -0.2804
  830MOL0     C14413   7.801   7.048   4.238 -0.7269 -0.6634 -0.1227
  830MOL0     C14414   7.849   7.136   4.352 -0.3329 -0.5505  0.2530
  830MOL0     C14415   7.863   7.068   4.485  0.7019 -0.5543  0.3065
  830MOL0     C14416   7.892   7.169   4.595  0.2096 -1.1211 -0.0756
  830MOL0     C14417   8.002   7.266   4.560 -0.3690  0.2701 -1.1430
  830MOL0     C14418   8.030   7.369   4.673  0.5550 -0.1322 -0.2541
  830MOL0     N14419   8.151   7.455   4.650 -0.5670  0.1787  0.0170
  830MOL0     C14420   8.183   7.556   4.555 -0.4035  0.2340 -0.6331
  830MOL0     C14421   8.302   7.607   4.574 -0.2784  0.9337  0.2085
  830MOL0     C14422   8.382   7.717   4.511 -0.2180 -0.6465 -0.3819
  830MOL0     C14423   8.427   7.690   4.373  0.0637  0.6029  0.6706
  830MOL0     C14424   8.314   7.650   4.269  0.8001  0.1124  0.0239
  830MOL0     C14425   8.343   7.664   4.118 -1.0284 -0.0621  0.3823
  830MOL0     O14426   8.485   7.641   4.104 -0.8897 -0.3728  0.0764
  830MOL0     C14427   8.543   7.644   3.972  0.7248 -0.0060  0.2396
  830MOL0     C14428   8.468   7.646   3.849 -0.3506 -0.0522 -0.7009
  830MOL0     C14429   8.530   7.645   3.726 -0.0113 -0.4610 -1.2773
  830MOL0     C14430   8.428   7.636   3.608  0.1312  0.2671 -0.3105
  830MOL0     C14431   8.672   7.653   3.713 -0.4328  1.0209  0.2054
  830MOL0     C14432   8.750   7.648   3.589  0.2164  0.6396 -0.5658
  830MOL0     O14433   8.888   7.627   3.605  0.0913 -0.2206 -0.1206
  830MOL0     C14434   8.968   7.593   3.498 -0.5170 -1.1609 -0.5072
  830MOL0     C14435   8.959   7.641   3.370  0.5022 -0.6638 -0.1277
  830MOL0     C14436   9.065   7.606   3.280 -0.6760  0.1597 -0.7753
  830MOL0     C14437   9.164   7.512   3.311  1.0081  0.6697  0.4927
  830MOL0     O14438   9.264   7.474   3.224 -0.1076 -0.1312 -0.0699
  830MOL0     C14439   9.235   7.488   3.086  0.1902 -0.1187  0.6929
  830MOL0     C14440   9.324   7.407   2.998  0.0294 -0.2208 -0.0143
  830MOL0     C14441   9.298   7.422   2.848  1.0578  0.2990  0.6657
  830MOL0     C14442   9.382   7.545   2.790 -0.1725  0.4719  0.1566
  830MOL0     C14443   9.336   7.595   2.648 -0.4190 -0.0594 -0.2868
  830MOL0     C14444   9.415   7.729   2.609  0.7358  0.1644 -0.8366
  830MOL0     C14445   9.351   7.806   2.485  0.6367 -0.0714  0.1417
  830MOL0     C14446   9.200   7.848   2.511  1.4134  1.1025  0.3268
  830MOL0    Cl14447   9.170   7.943   2.656 -0.1072 -0.0064  0.0590
  830MOL0     C14448   9.171   7.470   3.436 -0.5333 -0.9192 -0.4360
  830MOL0     C14449   9.079   7.517   3.538 -0.2124  1.3238  0.7889
  830MOL0     O14450   8.691   7.649   3.483 -0.5840  0.3641  0.3310
  830MOL0     C14451   8.739   7.665   3.840  0.3509 -0.2445 -0.2166
  830MOL0     C14452   8.674   7.657   3.956  0.2477  0.5409 -0.4943
  830MOL0     N14453   8.355   7.525   4.674  0.3950 -0.3946 -0.0090
  830MOL0     N14454   8.263   7.451   4.722  0.3356  0.0203  0.2034
  830MOL0     C14455   7.579   7.471   4.086 -0.8793  0.0971  0.5213
  830MOL0     C14456   7.490   7.579   4.055  0.0568 -0.3065  0.2035
  830MOL0     C14457   7.127   7.787   3.861  0.3676  0.3325 -1.5651
  830MOL0     C14458   7.103   7.874   3.970  0.2629  0.1351 -0.2021
  830MOL0     C14459   7.039   7.989   3.958  0.0100 -0.2987 -0.2468
  830MOL0     C14460   6.991   8.029   3.832 -0.0036  0.0903 -0.4469
  830MOL0     O14461   6.943   8.154   3.796  0.1294  0.4796  0.4903
  830MOL0     C14462   6.881   8.230   3.908 -0.6778  0.4925  1.0394
  830MOL0     C14463   6.981   8.319   3.974 -0.3207  0.3169 -0.2880
  830MOL0     C14464   6.938   8.373   4.109 -0.3565  0.0221 -0.2432
  830MOL0     C14465   7.062   8.413   4.199 -0.2352  0.1385 -0.1057
  830MOL0     C14466   7.037   8.510   4.306  0.9521 -0.3123 -0.3681
  830MOL0     C14467   7.005   8.596   4.382  0.3949 -0.3876 -1.3188
  830MOL0     C14468   7.009   7.945   3.727 -0.4592  0.7541  0.7512
  830MOL0     C14469   7.073   7.822   3.736 -0.4971  0.6899  0.5035
  830MOL0     C14470   7.082   7.735   3.611  0.0485  0.0257  0.2348
  830MOL0     H14471   7.208   7.387   4.024  0.0349 -0.4235 -0.6231
  830MOL0     H14472   7.375   7.214   4.078  1.8676 -0.0527 -0.1827
  830MOL0     H14473   7.786   7.319   4.148 -0.0725  0.3726 -0.3170
  830MOL0     H14474   7.784   7.285   3.976  2.9366  1.5872  0.7774
  830MOL0     H14475   7.811   7.033   4.022 -0.1502  2.0323 -1.8876
  830MOL0     H14476   7.936   7.143   4.086 -0.2530  0.2182 -1.5253
  830MOL0     H14477   7.697   7.017   4.242 -0.3696 -2.0052 -0.8200
  830MOL0     H14478   7.867   6.961   4.245 -0.0694 -0.0608  1.8530
  830MOL0     H14479   7.952   7.162   4.323 -0.7647 -0.0699 -0.9476
  830MOL0     H14480   7.783   7.221   4.368 -0.4885 -0.7931  0.9158
  830MOL0     H14481   7.950   7.001   4.481  3.1306  2.2369  1.7347
  830MOL0     H14482   7.783   7.008   4.528  2.4076 -0.0490  4.6916
  830MOL0     H14483   7.799   7.225   4.609  1.3735  0.3683  2.5936
  830MOL0     H14484   7.911   7.110   4.685  0.7718 -1.0951 -0.1713
  830MOL0     H14485   7.977   7.326   4.472  0.1814 -0.8091 -2.0578
  830MOL0     H14486   8.089   7.202   4.542 -1.5433 -2.4415  1.8909
  830MOL0     H14487   7.945   7.431   4.702  1.8055 -0.2395  4.4742
  830MOL0     H14488   8.070   7.317   4.760 -0.0888 -2.3184 -1.1873
  830MOL0     H14489   8.111   7.581   4.477  1.8627 -2.4034 -3.8725
  830MOL0     H14490   8.469   7.728   4.578 -0.3531  0.8467 -0.4109
  830MOL0     H14491   8.327   7.812   4.506  2.5176  1.2054  1.4199
  830MOL0     H14492   8.472   7.778   4.326 -0.3532 -0.8853 -2.8320
  830MOL0     H14493   8.502   7.610   4.376  0.7132  1.1520 -0.2708
  830MOL0     H14494   8.304   7.542   4.281 -0.9637  0.0343 -1.6360
  830MOL0     H14495   8.223   7.708   4.286 -0.4043 -1.1587 -1.6462
  830MOL0     H14496   8.284   7.588   4.067 -1.7450  0.3469  0.5851
  830MOL0     H14497   8.313   7.762   4.079  0.4167 -0.0200 -0.7231
  830MOL0     H14498   8.362   7.653   3.869  0.3887 -0.0859  4.4559
  830MOL0     H14499   8.456   7.547   3.551  3.8917 -0.0330  1.6913
  830MOL0     H14500   8.431   7.720   3.538 -1.4974  1.7463  1.2816
  830MOL0     H14501   8.327   7.621   3.648  1.1053 -0.7757  1.9563
  830MOL0     H14502   8.877   7.709   3.351 -2.7745 -3.4069  2.7826
  830MOL0     H14503   9.045   7.641   3.179 -0.2403  0.4678 -0.7600
  830MOL0     H14504   9.136   7.445   3.067  0.2231  0.2144 -0.2885
  830MOL0     H14505   9.239   7.591   3.048  0.0610 -0.0931  0.7463
  830MOL0     H14506   9.432   7.419   3.012  0.0670 -2.0510  1.7330
  830MOL0     H14507   9.301   7.302   3.021 -1.0290  0.0893  0.3949
  830MOL0     H14508   9.190   7.439   2.841  0.9485 -0.2339  1.0663
  830MOL0     H14509   9.317   7.331   2.790 -2.1598 -0.0017 -0.0906
  830MOL0     H14510   9.485   7.511   2.779 -0.6152 -0.5681 -0.9404
  830MOL0     H14511   9.362   7.628   2.858 -2.2047 -0.2933  0.5709
  830MOL0     H14512   9.337   7.519   2.569  0.9777 -1.8217  1.3394
  830MOL0     H14513   9.235   7.630   2.674 -0.3318  0.8024 -1.0560
  830MOL0     H14514   9.522   7.719   2.592  0.7564  1.1662 -1.3625
  830MOL0     H14515   9.405   7.796   2.696 -1.7833 -0.2124 -0.7509
  830MOL0     H14516   9.346   7.736   2.402 -1.4420  0.6832 -0.4438
  830MOL0     H14517   9.412   7.895   2.466 -0.8612  0.8405 -0.6223
  830MOL0     H14518   9.127   7.767   2.514 -1.0924  3.2342  2.6734
  830MOL0     H14519   9.176   7.923   2.435  3.3140  1.4287 -0.0054
  830MOL0     H14520   9.261   7.417   3.468 -0.6196  0.7190  2.9555
  830MOL0     H14521   9.086   7.462   3.631  0.0750  1.7040  0.9938
  830MOL0     H14522   8.846   7.652   3.848  0.3555  0.0522  0.2999
  830MOL0     H14523   8.735   7.647   4.045  0.2075  0.7291 -0.4460
  830MOL0     H14524   7.684   7.498   4.088 -0.8893  0.2633 -0.8137
  830MOL0     H14525   7.531   7.679   4.062 -0.2455 -0.2392  1.3358
  830MOL0     H14526   7.128   7.838   4.069 -2.9733  1.2555  1.1485
  830MOL0     H14527   7.027   8.053   4.044  2.4796  1.1068 -0.8311
  830MOL0     H14528   6.813   8.298   3.857 -0.9168 -0.1902  0.4305
  830MOL0     H14529   6.822   8.169   3.977  0.9793  1.0412  3.0343
  830MOL0     H14530   7.012   8.404   3.912 -2.2427  3.2137  2.4248
  830MOL0     H14531   7.078   8.270   3.991  0.4145  1.8074 -0.0277
  830MOL0     H14532   6.869   8.456   4.093  0.2736  1.0901  2.1862
  830MOL0     H14533   6.879   8.295   4.158 -0.7012  0.4489  0.0232
  830MOL0     H14534   7.131   8.464   4.131 -0.9265  1.8049  0.4056
  830MOL0     H14535   7.110   8.326   4.245  0.6760  2.4641  3.8479
  830MOL0     H14536   6.968   8.659   4.460  1.6105 -1.5243  0.2373
  830MOL0     H14537   6.954   7.981   3.640 -1.4796  0.6081  1.3225
  830MOL0     H14538   7.014   7.649   3.616 -3.7737  2.8490  0.5254
  830MOL0     H14539   7.043   7.798   3.531 -0.3267  2.7381  2.4366
  830MOL0     H14540   7.182   7.704   3.578  0.6819  2.1599 -0.0089
  831MOL0     O14541   9.389   0.014   6.042 -0.5488  0.4149  0.4648
  831MOL0     C14542   9.406   0.128   6.014 -0.8068  0.2376  0.6870
  831MOL0     O14543   9.323   0.223   6.037  0.1281  0.9850 -0.0579
  831MOL0     C14544   9.267   0.247   6.162  0.4125  1.2606 -0.1262
  831MOL0     C14545   9.304   0.174   6.282  0.0512  0.1653 -0.3776
  831MOL0     C14546   9.231   0.198   6.402 -1.5750  0.1308 -0.2468
  831MOL0     C14547   9.143   0.302   6.424  0.7262  0.0730  0.4724
  831MOL0     O14548   9.072   0.317   6.537  0.4220 -0.1680 -0.8708
  831MOL0     C14549   8.963   0.414   6.550 -0.0252 -0.7852 -0.4186
  831MOL0     C14550   8.868   0.362   6.663 -0.2628 -0.4262 -0.0471
  831MOL0     C14551   8.780   0.471   6.719 -0.3318  0.2182 -0.3435
  831MOL0     C14552   8.744   0.438   6.868 -0.1274  0.6804 -0.0863
  831MOL0     C14553   8.611   0.492   6.908 -0.6642  1.2879 -0.0207
  831MOL0     C14554   8.603   0.532   7.056  0.5218 -0.4573 -0.5808
  831MOL0     C14555   8.467   0.525   7.106  0.3431 -0.4181 -1.0981
  831MOL0     C14556   8.480   0.551   7.258 -0.4466 -1.0848  0.9864
  831MOL0     N14557   8.353   0.567   7.326  0.5448 -0.4438 -0.7581
  831MOL0     C14558   8.300   0.468   7.411  0.1648 -0.6855 -0.9410
  831MOL0     C14559   8.217   0.524   7.491 -0.2425 -0.5943  0.0035
  831MOL0     C14560   8.159   0.463   7.614  0.1691  0.4700 -0.1163
  831MOL0     C14561   8.023   0.528   7.671  0.2877 -0.1402 -0.0310
  831MOL0     C14562   7.898   0.493   7.578 -0.0633  0.5463  0.4092
  831MOL0     C14563   7.764   0.541   7.630 -0.3177  0.8008  0.0141
  831MOL0     O14564   7.660   0.534   7.538  0.6186  0.2320  0.4410
  831MOL0     C14565   7.554   0.617   7.548 -0.3210  0.3942 -0.2111
  831MOL0     C14566   7.505   0.676   7.660 -0.2700  0.1567  0.3065
  831MOL0     C14567   7.382   0.744   7.649 -0.3458  0.6534 -0.2692
  831MOL0     C14568   7.337   0.816   7.780 -0.6368  0.6001  0.2107
  831MOL0     C14569   7.312   0.755   7.521  0.0327  0.1346  0.5986
  831MOL0     C14570   7.184   0.824   7.502 -0.5729 -0.3919 -0.0350
  831MOL0     O14571   7.138   0.849   7.379  0.0653  0.2586 -0.6989
  831MOL0     C14572   7.014   0.923   7.373 -0.4440  0.3159  0.1699
  831MOL0     C14573   6.921   0.868   7.297 -0.0826  0.0108  0.9458
  831MOL0     C14574   6.805   0.933   7.267  0.4741  0.2424 -0.1725
  831MOL0     C14575   6.782   1.062   7.319  0.4940 -0.2953 -0.6906
  831MOL0     O14576   6.662   1.134   7.291  0.4481 -0.1178 -0.7249
  831MOL0     C14577   6.674   1.239   7.189  0.5678 -0.0684  0.0215
  831MOL0     C14578   6.584   1.360   7.213  0.4673  0.3115  0.1973
  831MOL0     C14579   6.614   1.464   7.107 -0.0805 -0.2615 -1.5417
  831MOL0     C14580   6.524   1.593   7.138 -0.1209 -0.7338 -0.4502
  831MOL0     C14581   6.553   1.691   7.013  1.0560  0.4810  0.3789
  831MOL0     C14582   6.420   1.760   6.980 -0.4882 -1.0566 -0.0097
  831MOL0     C14583   6.423   1.864   6.861 -1.1202  0.3903 -0.5137
  831MOL0     C14584   6.313   1.968   6.856  1.3038  0.2747 -0.8062
  831MOL0    Cl14585   6.260   2.003   6.685 -0.0357  0.0901  0.0060
  831MOL0     C14586   6.864   1.112   7.413 -0.8352  0.4895 -0.2145
  831MOL0     C14587   6.983   1.050   7.439 -0.2521  0.0800 -1.2341
  831MOL0     O14588   7.128   0.848   7.610  0.1953 -0.2577 -0.0005
  831MOL0     C14589   7.368   0.701   7.404 -0.9867  0.8242  0.2455
  831MOL0     C14590   7.491   0.631   7.422 -0.5477  0.0842  0.2147
  831MOL0     N14591   8.204   0.663   7.452 -0.1039  0.2346  0.5745
  831MOL0     N14592   8.294   0.692   7.359  1.6659  0.5455 -0.0489
  831MOL0     C14593   9.125   0.385   6.312  0.7754  0.7947  0.9220
  831MOL0     C14594   9.178   0.352   6.187  0.2722 -0.6105  0.2095
  831MOL0     C14595   9.518   0.152   5.916  0.6438  0.0182  0.1440
  831MOL0     C14596   9.485   0.230   5.802 -0.3795  0.5514 -0.0436
  831MOL0     C14597   9.579   0.266   5.711 -0.5739  0.7989 -0.3052
  831MOL0     C14598   9.712   0.211   5.720  0.0581 -0.6351 -0.0148
  831MOL0     O14599   9.800   0.211   5.617  0.5210 -1.0542 -0.0920
  831MOL0     C14600   9.839   0.341   5.564  0.8021  0.1851 -0.8316
  831MOL0     C14601   9.972   0.331   5.481  0.9933  0.5237 -0.1464
  831MOL0     C14602  10.089   0.276   5.579  0.3639  0.4931  0.3390
  831MOL0     C14603  10.134   0.372   5.681  0.1082  0.4024 -0.1272
  831MOL0     C14604  10.200   0.493   5.633 -0.6800  0.0285  0.1656
  831MOL0     C14605  10.265   0.593   5.616 -0.3460 -0.5073 -0.7095
  831MOL0     C14606   9.751   0.143   5.831  0.7481  0.6068  1.0268
  831MOL0     C14607   9.655   0.110   5.937  0.1822  0.5084  0.4683
  831MOL0     C14608   9.693   0.041   6.066  1.1690 -0.3555 -0.7302
  831MOL0     H14609   9.376   0.093   6.272 -0.3441  0.0067 -2.1387
  831MOL0     H14610   9.244   0.141   6.493 -1.4636 -0.0658 -0.3860
  831MOL0     H14611   8.914   0.416   6.452 -1.2348 -0.9252  0.1542
  831MOL0     H14612   8.992   0.515   6.579 -2.9554 -0.0695  0.4250
  831MOL0     H14613   8.807   0.282   6.622 -1.6531  0.6143 -0.0643
  831MOL0     H14614   8.931   0.321   6.743  2.9900  1.8695 -1.2190
  831MOL0     H14615   8.825   0.570   6.732 -1.8231  0.6546  2.1981
  831MOL0     H14616   8.687   0.479   6.663 -2.3774 -1.0364  2.5817
  831MOL0     H14617   8.751   0.329   6.878  1.8353  0.5669 -1.9195
  831MOL0     H14618   8.817   0.475   6.941  0.8187 -3.6166  1.4562
  831MOL0     H14619   8.544   0.408   6.888 -0.6139  0.9740  1.0364
  831MOL0     H14620   8.583   0.583   6.854 -0.1868  2.5368  1.7307
  831MOL0     H14621   8.672   0.461   7.102  0.2840 -0.2903  0.0324
  831MOL0     H14622   8.634   0.637   7.056  1.9906 -0.8395 -2.2749
  831MOL0     H14623   8.427   0.423   7.104 -0.2003 -0.2017 -2.0944
  831MOL0     H14624   8.395   0.593   7.059 -0.4233 -0.4232  0.0278
  831MOL0     H14625   8.537   0.468   7.301  1.3039 -0.5615 -0.1965
  831MOL0     H14626   8.540   0.643   7.261 -1.3918 -0.4309  0.3641
  831MOL0     H14627   8.331   0.364   7.410 -1.7279 -1.2889 -0.9355
  831MOL0     H14628   8.239   0.474   7.688 -0.1406  1.1435  0.1232
  831MOL0     H14629   8.142   0.356   7.602  0.0344 -0.1415  4.0425
  831MOL0     H14630   8.008   0.488   7.772  0.4838  1.8350  0.8184
  831MOL0     H14631   8.039   0.634   7.691  2.4132 -0.7735  2.1498
  831MOL0     H14632   7.910   0.530   7.476 -1.3221  1.1642  0.4561
  831MOL0     H14633   7.900   0.384   7.576  1.7641  0.5460  0.7683
  831MOL0     H14634   7.745   0.470   7.711 -3.5196  3.2792  1.6648
  831MOL0     H14635   7.780   0.638   7.679  2.9790  0.0418  0.6843
  831MOL0     H14636   7.562   0.680   7.753 -1.2378  0.4096  0.9093
  831MOL0     H14637   7.297   0.918   7.770  0.8850  1.2566  0.5678
  831MOL0     H14638   7.409   0.832   7.861  0.2005 -2.1775  0.0874
  831MOL0     H14639   7.256   0.754   7.820 -1.3325 -1.5958 -4.0287
  831MOL0     H14640   6.944   0.773   7.249 -1.6825  0.2897 -0.4892
  831MOL0     H14641   6.719   0.892   7.214  0.8103  0.7184 -1.1149
  831MOL0     H14642   6.776   1.273   7.170  0.8209 -1.2003 -0.8144
  831MOL0     H14643   6.647   1.209   7.087 -2.7287  0.1922  0.7119
  831MOL0     H14644   6.481   1.324   7.219 -0.3878  2.4474 -0.6333
  831MOL0     H14645   6.600   1.396   7.315 -0.4606  0.3677  0.3282
  831MOL0     H14646   6.600   1.417   7.010 -2.4786 -1.4826 -0.6930
  831MOL0     H14647   6.718   1.489   7.128 -0.2696  0.4911 -1.4538
  831MOL0     H14648   6.541   1.628   7.240 -4.1139 -0.0680  0.1679
  831MOL0     H14649   6.419   1.562   7.132 -0.0932 -0.6260 -2.4068
  831MOL0     H14650   6.623   1.767   7.048  1.4542 -0.6439  2.1153
  831MOL0     H14651   6.592   1.638   6.925 -0.4974 -0.0446 -0.0174
  831MOL0     H14652   6.411   1.814   7.075 -0.3202 -1.5752  0.3047
  831MOL0     H14653   6.332   1.697   6.967 -0.6263 -1.5614  2.7760
  831MOL0     H14654   6.420   1.813   6.765 -0.3709 -0.7675  0.0489
  831MOL0     H14655   6.517   1.920   6.859 -1.1772  0.5419  0.4337
  831MOL0     H14656   6.343   2.060   6.907  0.7698  0.4930 -0.8803
  831MOL0     H14657   6.218   1.944   6.906  0.4746  1.3558 -1.8128
  831MOL0     H14658   6.831   1.205   7.458  0.5629  0.8464  0.1249
  831MOL0     H14659   7.052   1.102   7.505  2.2851 -0.8545 -3.0203
  831MOL0     H14660   7.316   0.713   7.309 -4.0626 -1.4292  1.4894
  831MOL0     H14661   7.527   0.578   7.334  1.1161 -0.8190  1.3849
  831MOL0     H14662   9.059   0.472   6.311 -0.9252 -0.4015 -1.5100
  831MOL0     H14663   9.153   0.414   6.102  2.8440  0.7164  0.3066
  831MOL0     H14664   9.382   0.261   5.790 -0.2472  0.6235 -1.0716
  831MOL0     H14665   9.551   0.337   5.634 -2.8713  2.0547  1.5231
  831MOL0     H14666   9.754   0.365   5.500  0.6028 -0.2305 -0.7281
  831MOL0     H14667   9.834   0.418   5.641  1.6404 -0.9727  0.4401
  831MOL0     H14668   9.996   0.430   5.442 -2.0038  1.6866  0.6842
  831MOL0     H14669   9.963   0.256   5.402 -0.1986  2.5060 -1.9978
  831MOL0     H14670  10.052   0.195   5.642  1.0538  1.0688  1.5088
  831MOL0     H14671  10.169   0.234   5.517 -0.9461 -2.5792  0.5247
  831MOL0     H14672  10.214   0.328   5.742 -0.4290  0.3253  0.5215
  831MOL0     H14673  10.055   0.396   5.752 -0.5893 -1.5278 -0.1825
  831MOL0     H14674  10.329   0.677   5.599 -2.3892  0.7134 -3.0974
  831MOL0     H14675   9.854   0.115   5.850  1.0738  1.0556 -0.0437
  831MOL0     H14676   9.800   0.022   6.074  1.1802  0.4250  1.5980
  831MOL0     H14677   9.662   0.099   6.153 -0.3990  1.8590 -2.6485
  831MOL0     H14678   9.636  -0.053   6.070 -1.4187  0.9564 -2.9476
  832MOL0     O14679   9.123   4.685   7.651  0.1483  0.2041 -0.0383
  832MOL0     C14680   9.097   4.790   7.595  0.4429  0.6342 -0.3305
  832MOL0     O14681   9.153   4.917   7.627 -0.6396  0.6382  0.6240
  832MOL0     C14682   9.222   4.939   7.749 -0.3736  0.3081  0.1175
  832MOL0     C14683   9.360   4.944   7.740 -0.5107  0.7476  0.8007
  832MOL0     C14684   9.422   4.989   7.858 -0.8196 -0.7414  0.5443
  832MOL0     C14685   9.361   5.040   7.966  0.5479  0.1871  0.2168
  832MOL0     O14686   9.452   5.101   8.050 -0.6528 -0.2498 -0.1872
  832MOL0     C14687   9.406   5.217   8.122  0.5006  0.7902  0.1578
  832MOL0     C14688   9.391   5.340   8.019 -0.2832 -0.0848 -0.3801
  832MOL0     C14689   9.530   5.388   7.983  1.0611  0.0502  0.1590
  832MOL0     C14690   9.541   5.439   7.837 -0.2041 -0.1223 -0.4639
  832MOL0     C14691   9.531   5.331   7.725 -0.1286  0.4311  0.0181
  832MOL0     C14692   9.610   5.380   7.599 -0.1686  0.1367 -0.0402
  832MOL0     C14693   9.554   5.513   7.544  0.2233  1.0270 -0.8834
  832MOL0     C14694   9.597   5.552   7.404  0.2520  1.1538  0.5834
  832MOL0     N14695   9.742   5.544   7.387  0.0224 -0.1467  0.9083
  832MOL0     C14696   9.826   5.635   7.448 -0.1526 -0.7754 -0.0070
  832MOL0     C14697   9.950   5.581   7.432  0.0665 -0.4436 -0.8415
  832MOL0     C14698  10.077   5.642   7.474 -0.4178 -0.7300  0.0763
  832MOL0     C14699  10.095   5.782   7.414 -0.5935 -0.9341 -0.0724
  832MOL0     C14700  10.084   5.779   7.251  0.0778  1.2968 -1.0438
  832MOL0     C14701  10.188   5.683   7.191  0.6797  0.3475  0.2567
  832MOL0     O14702  10.327   5.716   7.221  0.8013 -0.6321  0.4314
  832MOL0     C14703  10.389   5.830   7.189  0.3692  0.7994  0.7590
  832MOL0     C14704  10.509   5.854   7.248  0.4345  0.1499 -0.3841
  832MOL0     C14705  10.595   5.967   7.239  0.5046  0.0743  0.3484
  832MOL0     C14706  10.733   5.971   7.303  0.3756 -0.0413 -0.1988
  832MOL0     C14707  10.539   6.068   7.157 -0.5121  0.8276  0.8502
  832MOL0     C14708  10.634   6.173   7.098  0.4359 -0.7638  0.3833
  832MOL0     O14709  10.590   6.299   7.087  0.0442  0.6448  0.4896
  832MOL0     C14710  10.680   6.402   7.068 -0.9375  0.6181 -0.1266
  832MOL0     C14711  10.793   6.403   7.145  0.1730 -0.8213 -0.2678
  832MOL0     C14712  10.892   6.502   7.135  0.1648 -0.3142 -0.1430
  832MOL0     C14713  10.871   6.593   7.029 -0.2841  0.0112  0.1787
  832MOL0     O14714  10.958   6.690   7.001  0.0337 -0.2211 -0.3290
  832MOL0     C14715  10.990   6.770   7.112  0.8842 -0.0676 -0.0511
  832MOL0     C14716  11.050   6.905   7.064  0.0185  0.1570 -0.4147
  832MOL0     C14717  11.195   6.884   7.003  0.3054  0.6832 -0.1321
  832MOL0     C14718  11.267   7.017   6.970  0.6669 -0.4866 -0.0562
  832MOL0     C14719  11.406   6.984   6.922 -0.2208 -0.3093  0.9546
  832MOL0     C14720  11.490   7.103   6.860  0.1911 -0.2995  0.1435
  832MOL0     C14721  11.617   7.058   6.800 -0.4259 -0.2549 -0.2843
  832MOL0     C14722  11.596   6.980   6.670 -0.7171  0.3283  0.4472
  832MOL0    Cl14723  11.603   6.805   6.690 -0.1796  0.2138  0.3760
  832MOL0     C14724  10.763   6.588   6.942 -0.0494 -0.4025  0.3428
  832MOL0     C14725  10.666   6.496   6.967 -0.6169  0.2349 -0.3442
  832MOL0     O14726  10.741   6.132   7.045  0.2813  0.0752  0.1563
  832MOL0     C14727  10.413   6.050   7.092  0.5241 -0.1609  0.1680
  832MOL0     C14728  10.337   5.934   7.108  0.1415 -0.3055 -0.4530
  832MOL0     N14729   9.939   5.462   7.370  0.4196  0.2366  0.5298
  832MOL0     N14730   9.816   5.436   7.335  0.6155  0.4820  0.1492
  832MOL0     C14731   9.216   5.034   7.977 -0.8259 -0.9902  0.9422
  832MOL0     C14732   9.151   4.981   7.864  0.3415 -0.6882 -1.8994
  832MOL0     C14733   8.991   4.788   7.490 -1.2397 -0.2916 -0.1362
  832MOL0     C14734   8.942   4.662   7.454 -0.3138 -1.3079 -1.0223
  832MOL0     C14735   8.849   4.645   7.358 -0.0689 -0.8047  0.5214
  832MOL0     C14736   8.807   4.750   7.285  0.0260  0.5164  0.9310
  832MOL0     O14737   8.724   4.748   7.170 -0.4052 -0.0587 -0.1433
  832MOL0     C14738   8.679   4.622   7.118  0.7867 -0.0208  1.2589
  832MOL0     C14739   8.585   4.668   7.008 -0.1917 -0.3632  1.4783
  832MOL0     C14740   8.652   4.717   6.879 -0.9365  0.8939 -0.5897
  832MOL0     C14741   8.707   4.600   6.800  0.0704 -1.0197 -0.4259
  832MOL0     C14742   8.602   4.518   6.746 -1.0453 -1.2697 -0.1044
  832MOL0     C14743   8.515   4.463   6.693 -0.2455  0.4231 -0.3608
  832MOL0     C14744   8.859   4.871   7.318 -0.2187 -0.0403 -0.6195
  832MOL0     C14745   8.951   4.894   7.411 -1.1097 -0.4749 -0.6647
  832MOL0     C14746   8.981   5.041   7.431 -0.1331 -0.7691  0.8712
  832MOL0     H14747   9.411   4.921   7.647  0.9246  1.0097  1.4979
  832MOL0     H14748   9.530   4.998   7.861 -0.5404 -2.7834 -1.0829
  832MOL0     H14749   9.475   5.238   8.203  0.7455  1.7832 -0.2959
  832MOL0     H14750   9.310   5.199   8.171  2.6750 -2.1828  3.8105
  832MOL0     H14751   9.333   5.311   7.931 -2.6336  1.1254  0.6945
  832MOL0     H14752   9.341   5.414   8.082  2.4252  1.1912  0.4176
  832MOL0     H14753   9.557   5.460   8.061 -2.8959 -0.8481  2.6663
  832MOL0     H14754   9.598   5.303   7.988 -0.9295 -1.5936  4.8589
  832MOL0     H14755   9.471   5.522   7.821  1.9536  2.4435  2.1433
  832MOL0     H14756   9.638   5.491   7.833 -0.8126  1.0864  0.0250
  832MOL0     H14757   9.423   5.323   7.707 -0.1665 -1.3686  0.8073
  832MOL0     H14758   9.568   5.232   7.753  2.2262  1.6460  1.4878
  832MOL0     H14759   9.718   5.377   7.617  0.1093 -1.1655 -1.7113
  832MOL0     H14760   9.604   5.308   7.518 -1.0692  0.9597 -0.7341
  832MOL0     H14761   9.568   5.599   7.610 -0.8310 -0.3341  1.2156
  832MOL0     H14762   9.448   5.503   7.570  0.3848  2.2254  0.3678
  832MOL0     H14763   9.550   5.487   7.329  1.4277 -1.0639  1.6670
  832MOL0     H14764   9.571   5.654   7.375 -0.0705  0.7956 -0.4722
  832MOL0     H14765   9.809   5.723   7.508 -0.7099 -2.8089  3.0621
  832MOL0     H14766  10.157   5.574   7.445  1.7663  1.5592  0.4156
  832MOL0     H14767  10.074   5.651   7.583  0.0975 -0.7503  0.0924
  832MOL0     H14768  10.016   5.849   7.450  0.3707  1.6764 -2.3800
  832MOL0     H14769  10.187   5.837   7.439  0.2117 -2.4788  0.4866
  832MOL0     H14770   9.981   5.752   7.224  0.6103 -1.4073 -0.6029
  832MOL0     H14771  10.098   5.879   7.206  1.7702  1.5457 -0.0573
  832MOL0     H14772  10.197   5.579   7.224  5.2011  0.7699  1.0135
  832MOL0     H14773  10.182   5.681   7.082  0.5117  0.1559  0.2686
  832MOL0     H14774  10.560   5.782   7.311  1.4918  0.2585 -1.0849
  832MOL0     H14775  10.811   5.951   7.229  0.8427 -2.5564  0.8664
  832MOL0     H14776  10.746   5.886   7.371  1.7142 -0.4135 -0.8908
  832MOL0     H14777  10.747   6.068   7.351 -0.5612 -0.6151  1.3015
  832MOL0     H14778  10.810   6.329   7.222 -1.2149  0.0024  0.8844
  832MOL0     H14779  10.982   6.504   7.195  1.9304 -2.9311 -2.4144
  832MOL0     H14780  10.905   6.787   7.179 -0.5312 -0.9895 -1.5531
  832MOL0     H14781  11.073   6.729   7.171  2.3781  0.7072 -1.5377
  832MOL0     H14782  10.976   6.945   6.994 -2.2587  1.3152  2.4808
  832MOL0     H14783  11.047   6.978   7.145 -2.2715  1.9855 -2.0194
  832MOL0     H14784  11.178   6.811   6.923  0.3074 -0.9000  1.2644
  832MOL0     H14785  11.249   6.838   7.085 -0.4031 -0.2357 -0.1584
  832MOL0     H14786  11.278   7.066   7.066 -0.2832  2.3082 -1.2722
  832MOL0     H14787  11.207   7.082   6.906  2.0820  2.5831  1.5401
  832MOL0     H14788  11.459   6.937   7.005  1.1558  0.5028  0.5670
  832MOL0     H14789  11.396   6.903   6.848  0.1814 -0.0504  0.6120
  832MOL0     H14790  11.523   7.172   6.937 -1.7815  0.8116  0.0657
  832MOL0     H14791  11.422   7.157   6.793 -2.9559 -2.7747  1.0435
  832MOL0     H14792  11.685   7.014   6.874 -1.8960  1.7615  2.4604
  832MOL0     H14793  11.652   7.157   6.766 -1.7540 -0.2717 -1.8294
  832MOL0     H14794  11.674   7.015   6.602 -0.1581 -3.3260 -1.0094
  832MOL0     H14795  11.502   7.005   6.619  0.1599 -1.1513 -2.0803
  832MOL0     H14796  10.762   6.664   6.865  4.2582 -0.5846 -0.1414
  832MOL0     H14797  10.581   6.494   6.900  1.2422 -0.3685 -2.8257
  832MOL0     H14798  10.372   6.123   7.023 -0.3129  1.7710  2.5840
  832MOL0     H14799  10.253   5.914   7.042  0.5003  1.8262 -1.6408
  832MOL0     H14800   9.155   5.075   8.057 -2.7176  0.2199 -1.0033
  832MOL0     H14801   9.043   4.993   7.861  0.4316  3.2932  1.6325
  832MOL0     H14802   8.973   4.577   7.515  0.7206 -0.7943 -0.8120
  832MOL0     H14803   8.813   4.543   7.346  0.7005 -1.1171  0.8136
  832MOL0     H14804   8.766   4.565   7.086  0.4860  0.8460 -1.4171
  832MOL0     H14805   8.622   4.572   7.196  0.1438 -2.7605 -0.7976
  832MOL0     H14806   8.519   4.750   7.037 -0.5593  0.1793 -0.7375
  832MOL0     H14807   8.511   4.588   6.993 -1.5683  1.3639 -2.3968
  832MOL0     H14808   8.571   4.774   6.833 -0.9906  0.6734 -0.7654
  832MOL0     H14809   8.739   4.773   6.915 -0.6595  0.4790 -0.6190
  832MOL0     H14810   8.771   4.544   6.869  1.9008  1.5944  0.1499
  832MOL0     H14811   8.755   4.654   6.718 -0.3177 -2.3757 -1.5748
  832MOL0     H14812   8.443   4.398   6.646  0.9736 -2.7284  1.8047
  832MOL0     H14813   8.830   4.954   7.255  0.3485  0.5978 -0.0534
  832MOL0     H14814   8.934   5.109   7.360 -2.5127  0.5145  3.4901
  832MOL0     H14815   8.939   5.074   7.526 -1.5996 -0.9788  0.3156
  832MOL0     H14816   9.087   5.065   7.421 -0.7036  1.6042 -0.0158
  833MOL0     O14817   0.280   7.081   4.677 -0.2803  0.4983  0.5088
  833MOL0     C14818   0.188   7.062   4.758  0.6489 -0.3902 -0.4148
  833MOL0     O14819   0.199   7.097   4.882  0.0395  0.0344 -0.8580
  833MOL0     C14820   0.288   7.191   4.929  0.5380  0.7541 -0.2899
  833MOL0     C14821   0.243   7.299   5.014  0.6287  1.1096 -0.3016
  833MOL0     C14822   0.335   7.386   5.073 -0.3205 -0.3652  0.0476
  833MOL0     C14823   0.477   7.373   5.051 -0.0203  0.4614  0.0043
  833MOL0     O14824   0.567   7.457   5.112  0.6760  0.3550  0.8219
  833MOL0     C14825   0.645   7.405   5.219  0.1598  0.3154 -0.1590
  833MOL0     C14826   0.626   7.465   5.361  0.0894 -0.4747  0.8000
  833MOL0     C14827   0.522   7.420   5.449  0.4932  0.4973  0.3032
  833MOL0     C14828   0.502   7.507   5.572 -0.0666 -1.3356  0.2130
  833MOL0     C14829   0.468   7.424   5.702 -0.3076  0.7829 -0.9975
  833MOL0     C14830   0.383   7.507   5.790 -1.1454 -0.0340 -0.0991
  833MOL0     C14831   0.250   7.560   5.749  0.0230 -0.7182  0.5896
  833MOL0     C14832   0.122   7.528   5.826 -0.3312  0.2913  0.2110
  833MOL0     N14833   0.020   7.599   5.750 -1.0537  0.4716  0.7751
  833MOL0     C14834  -0.033   7.732   5.778 -0.9568 -0.0769  0.4352
  833MOL0     C14835  -0.162   7.730   5.730 -0.6733 -0.2114 -0.9469
  833MOL0     C14836  -0.259   7.838   5.747 -0.5028 -0.1225 -0.3406
  833MOL0     C14837  -0.357   7.819   5.864  0.3524  0.7971  0.0207
  833MOL0     C14838  -0.424   7.949   5.921 -0.2962 -0.8340 -0.6403
  833MOL0     C14839  -0.474   7.920   6.064 -0.1961  0.4574  0.2985
  833MOL0     O14840  -0.574   8.017   6.097  0.6908 -0.5536 -0.1249
  833MOL0     C14841  -0.617   8.039   6.228  0.8327  0.9514  0.1853
  833MOL0     C14842  -0.633   7.936   6.324  1.3282  0.3905  0.0684
  833MOL0     C14843  -0.689   7.963   6.450 -0.3094 -0.2106 -0.1415
  833MOL0     C14844  -0.716   7.855   6.548 -0.2251 -0.4826  1.1822
  833MOL0     C14845  -0.709   8.102   6.480 -0.5364  1.0168 -0.5990
  833MOL0     C14846  -0.751   8.143   6.618  0.6823 -0.0885 -1.1344
  833MOL0     O14847  -0.711   8.265   6.665 -0.1092  1.0234  0.2321
  833MOL0     C14848  -0.731   8.308   6.795 -0.4435  0.4606  0.2835
  833MOL0     C14849  -0.770   8.438   6.808  0.7310 -0.1587  1.1867
  833MOL0     C14850  -0.794   8.482   6.935  0.5209  0.0095 -0.3898
  833MOL0     C14851  -0.780   8.409   7.049  0.3807  0.2378  0.1133
  833MOL0     O14852  -0.813   8.472   7.165 -0.2157 -1.0777  0.7904
  833MOL0     C14853  -0.813   8.392   7.293 -0.3562 -0.5247 -0.2614
  833MOL0     C14854  -0.664   8.363   7.340  0.6541  0.2825  0.2314
  833MOL0     C14855  -0.601   8.504   7.374 -0.3092  0.6958  0.5529
  833MOL0     C14856  -0.453   8.493   7.379 -0.2825 -0.5775 -0.8441
  833MOL0     C14857  -0.403   8.529   7.239 -1.3192 -0.6234  0.0109
  833MOL0     C14858  -0.259   8.511   7.214 -0.5099 -0.2876  0.3609
  833MOL0     C14859  -0.224   8.362   7.215 -0.4561  0.0839 -0.5254
  833MOL0     C14860  -0.087   8.350   7.144 -0.4569  0.2236  0.1723
  833MOL0    Cl14861   0.033   8.416   7.250  0.4749 -0.0552 -0.0785
  833MOL0     C14862  -0.739   8.273   7.035 -1.0237  0.0672  1.0050
  833MOL0     C14863  -0.706   8.225   6.908 -0.3757  0.6611  0.1567
  833MOL0     O14864  -0.826   8.069   6.686  0.4475  0.1697 -0.0967
  833MOL0     C14865  -0.699   8.203   6.392  0.0282 -0.6612  0.3676
  833MOL0     C14866  -0.657   8.172   6.263 -0.2729  0.2321  0.1705
  833MOL0     N14867  -0.174   7.611   5.661  1.0665 -0.4213  0.4939
  833MOL0     N14868  -0.075   7.529   5.678 -0.2291 -0.1947  1.3750
  833MOL0     C14869   0.518   7.269   4.971 -0.7654 -0.5480  0.4006
  833MOL0     C14870   0.433   7.172   4.912  0.4688 -1.4584  0.1184
  833MOL0     C14871   0.063   6.995   4.719  0.0721 -0.6418 -0.0812
  833MOL0     C14872  -0.049   6.998   4.809 -0.6449 -0.2782 -0.2714
  833MOL0     C14873  -0.181   6.960   4.773 -0.7460  0.7296 -0.2223
  833MOL0     C14874  -0.200   6.891   4.651 -0.2171  0.3161 -0.3525
  833MOL0     O14875  -0.315   6.835   4.607 -0.1915 -0.0090 -0.1143
  833MOL0     C14876  -0.446   6.876   4.647 -0.0473 -0.6011 -0.1080
  833MOL0     C14877  -0.509   6.777   4.740  0.4712  0.9516  0.8542
  833MOL0     C14878  -0.642   6.710   4.698  0.9060  0.1404 -0.0413
  833MOL0     C14879  -0.631   6.631   4.562 -0.0910  0.4799  0.7259
  833MOL0     C14880  -0.537   6.515   4.574  0.0157  0.1468  0.2118
  833MOL0     C14881  -0.474   6.417   4.583 -0.3916  0.4622 -0.1913
  833MOL0     C14882  -0.079   6.879   4.566 -0.3638  0.7152  0.3029
  833MOL0     C14883   0.043   6.934   4.593  0.2381 -1.0392 -0.4825
  833MOL0     C14884   0.158   6.890   4.507 -0.2222  0.0274 -0.3653
  833MOL0     H14885   0.138   7.302   5.039  1.1872 -0.9699  2.9032
  833MOL0     H14886   0.307   7.467   5.139  1.2520 -1.1071  1.6931
  833MOL0     H14887   0.750   7.410   5.190 -0.2909  2.4849 -1.6284
  833MOL0     H14888   0.626   7.298   5.232 -2.6321  0.3698 -2.5529
  833MOL0     H14889   0.716   7.448   5.421 -0.2736  0.0205  1.5016
  833MOL0     H14890   0.610   7.570   5.335 -0.9479 -1.0094 -0.8554
  833MOL0     H14891   0.426   7.404   5.397  1.1616  0.3266 -0.9120
  833MOL0     H14892   0.541   7.317   5.481 -0.0784  0.0198 -0.8217
  833MOL0     H14893   0.587   7.563   5.611 -0.9183 -1.3461  2.2144
  833MOL0     H14894   0.435   7.588   5.543  0.4235 -0.5837  1.1237
  833MOL0     H14895   0.564   7.406   5.751 -0.4881 -0.3287 -1.0368
  833MOL0     H14896   0.427   7.327   5.671  2.4828 -0.3739 -1.3535
  833MOL0     H14897   0.356   7.451   5.880  1.4378 -0.3951  0.5368
  833MOL0     H14898   0.445   7.588   5.830  1.6295 -1.7797 -0.6042
  833MOL0     H14899   0.240   7.529   5.645 -0.3609  0.9922  0.0726
  833MOL0     H14900   0.244   7.669   5.736 -0.4707 -1.0803 -3.4704
  833MOL0     H14901   0.103   7.423   5.851 -0.1949  0.3438  0.5367
  833MOL0     H14902   0.130   7.566   5.928  2.1624 -2.3944  1.1594
  833MOL0     H14903   0.021   7.808   5.835 -0.9184  1.0256 -1.0037
  833MOL0     H14904  -0.310   7.845   5.650  2.7246 -0.6460 -2.2299
  833MOL0     H14905  -0.198   7.929   5.746 -0.0526 -0.4234 -0.6178
  833MOL0     H14906  -0.436   7.746   5.848  1.3812 -0.0942 -1.2236
  833MOL0     H14907  -0.294   7.780   5.944 -0.7550  1.1660  1.1115
  833MOL0     H14908  -0.349   8.027   5.935  0.1145 -0.6312 -3.2823
  833MOL0     H14909  -0.501   7.991   5.855 -1.0354  2.4676  2.0891
  833MOL0     H14910  -0.522   7.822   6.059  0.6993  0.0760 -1.5929
  833MOL0     H14911  -0.390   7.913   6.134  0.8974 -5.0560 -1.1350
  833MOL0     H14912  -0.596   7.837   6.303  2.7936  0.8331  0.4121
  833MOL0     H14913  -0.673   7.878   6.647  0.2597  0.5959  0.7403
  833MOL0     H14914  -0.680   7.761   6.506 -2.4282  1.0759 -5.1784
  833MOL0     H14915  -0.824   7.847   6.562 -0.3087 -1.8433 -0.1532
  833MOL0     H14916  -0.793   8.511   6.731  0.2286  0.6055  2.0520
  833MOL0     H14917  -0.848   8.574   6.957 -0.7593 -0.9154  0.4975
  833MOL0     H14918  -0.860   8.438   7.380  4.9038  1.4554  1.9496
  833MOL0     H14919  -0.861   8.295   7.278  0.6971 -0.8375 -1.9010
  833MOL0     H14920  -0.664   8.288   7.419 -1.8607  1.0798  1.0868
  833MOL0     H14921  -0.616   8.320   7.251 -0.7293  0.0221 -0.4228
  833MOL0     H14922  -0.634   8.544   7.470  0.4622  3.3557 -0.2067
  833MOL0     H14923  -0.632   8.580   7.302 -0.2648 -0.8724 -1.2100
  833MOL0     H14924  -0.417   8.398   7.420  2.4790  1.4305  1.8665
  833MOL0     H14925  -0.410   8.569   7.445  1.6529 -2.1711 -0.1486
  833MOL0     H14926  -0.465   8.478   7.166 -1.3962  0.0593 -0.4081
  833MOL0     H14927  -0.429   8.634   7.223  2.0934  0.2401 -0.6315
  833MOL0     H14928  -0.184   8.550   7.283  0.5720  2.1722 -2.0076
  833MOL0     H14929  -0.240   8.563   7.119 -0.2268 -0.7298  0.1747
  833MOL0     H14930  -0.292   8.306   7.151  1.3799 -1.4674 -1.2208
  833MOL0     H14931  -0.228   8.325   7.318 -1.0416 -0.7908 -0.8594
  833MOL0     H14932  -0.084   8.408   7.051 -2.1803  1.3788  0.7709
  833MOL0     H14933  -0.076   8.244   7.119  0.8280  0.4273 -0.1707
  833MOL0     H14934  -0.729   8.217   7.127 -0.2682  1.5722  1.8746
  833MOL0     H14935  -0.672   8.125   6.887 -0.6888  0.5869 -0.0037
  833MOL0     H14936  -0.719   8.308   6.410  0.5406  0.3011 -3.8084
  833MOL0     H14937  -0.649   8.254   6.191  0.9867  0.6664  0.7734
  833MOL0     H14938   0.623   7.259   4.950 -1.4101 -4.1489 -1.9478
  833MOL0     H14939   0.479   7.091   4.856  5.2129 -0.3002  1.8707
  833MOL0     H14940  -0.042   7.048   4.906 -1.9411  1.7161 -1.1478
  833MOL0     H14941  -0.268   6.976   4.835 -1.3408 -1.8083 -0.3043
  833MOL0     H14942  -0.447   6.980   4.683  0.5547 -0.8616  0.6840
  833MOL0     H14943  -0.512   6.890   4.560  1.1777  3.8033 -0.5739
  833MOL0     H14944  -0.534   6.811   4.840  0.2635 -0.6011  1.3679
  833MOL0     H14945  -0.431   6.701   4.758 -1.3613 -0.5648  2.9461
  833MOL0     H14946  -0.671   6.635   4.772  0.0748 -0.6426 -1.1294
  833MOL0     H14947  -0.721   6.786   4.694  1.2293  0.4440 -0.9749
  833MOL0     H14948  -0.583   6.691   4.485  0.5837 -1.9471 -0.8549
  833MOL0     H14949  -0.729   6.592   4.531  0.0782 -1.0330  1.9430
  833MOL0     H14950  -0.429   6.320   4.587 -1.8047 -0.2234 -0.6304
  833MOL0     H14951  -0.080   6.821   4.474 -1.9890  1.5175 -0.2265
  833MOL0     H14952   0.221   6.974   4.476  1.2481  0.1184  2.5835
  833MOL0     H14953   0.231   6.835   4.566  0.6326  1.9925  0.5265
  833MOL0     H14954   0.119   6.834   4.422 -3.1863  1.9313 -0.4274
  834MOL0     O14955   0.004  10.306   7.026 -0.7725 -0.7505  0.1738
  834MOL0     C14956   0.037  10.418   6.997  0.7199 -0.2783 -0.0619
  834MOL0     O14957  -0.051  10.518   6.941  0.0181 -0.2046  0.0290
  834MOL0     C14958  -0.179  10.477   6.892  0.1181 -0.3401  0.3429
  834MOL0     C14959  -0.295  10.536   6.929 -0.6913 -0.4776  0.9644
  834MOL0     C14960  -0.416  10.520   6.869  0.5262 -0.1287  0.6573
  834MOL0     C14961  -0.420  10.435   6.763  0.5310  0.5265  1.0602
  834MOL0     O14962  -0.523  10.416   6.672  0.5825  0.4281  0.6674
  834MOL0     C14963  -0.646  10.483   6.697 -0.4469 -1.2971  0.6783
  834MOL0     C14964  -0.734  10.476   6.571  0.5757 -0.1344  0.2716
  834MOL0     C14965  -0.811  10.345   6.554  0.1941 -0.0680 -0.5645
  834MOL0     C14966  -0.928  10.339   6.652  0.3053  0.2652  1.3582
  834MOL0     C14967  -1.018  10.220   6.641 -0.1330 -0.5513  0.7761
  834MOL0     C14968  -1.140  10.241   6.731 -0.8088 -0.4165  0.2606
  834MOL0     C14969  -1.116  10.278   6.878 -0.3064  0.0952  0.9759
  834MOL0     C14970  -1.249  10.297   6.957  0.9561 -0.4281 -0.0954
  834MOL0     N14971  -1.334  10.172   6.952 -0.4671  0.1100 -0.3366
  834MOL0     C14972  -1.309  10.062   7.035 -0.2155  0.8555 -0.6776
  834MOL0     C14973  -1.421   9.986   7.011 -0.4577 -0.3520  0.3787
  834MOL0     C14974  -1.436   9.843   7.062  0.7459  0.5155 -0.2119
  834MOL0     C14975  -1.586   9.808   7.091 -0.0366  0.1554 -0.1778
  834MOL0     C14976  -1.647   9.911   7.188  0.9182 -0.1363 -0.5702
  834MOL0     C14977  -1.793   9.882   7.230 -0.0086 -0.3229  0.2779
  834MOL0     O14978  -1.863   9.978   7.304  0.0824 -0.7902  0.1235
  834MOL0     C14979  -1.843   9.970   7.442 -0.2379  0.1688 -0.0240
  834MOL0     C14980  -1.799  10.079   7.511 -0.3441 -0.7313  0.4265
  834MOL0     C14981  -1.764  10.079   7.646 -0.3617 -0.7400  0.6848
  834MOL0     C14982  -1.688  10.198   7.703  0.1526 -0.5011 -0.0324
  834MOL0     C14983  -1.791   9.964   7.725 -0.5053 -0.3614 -0.0595
  834MOL0     C14984  -1.779   9.962   7.872  0.8403  0.2990  0.1825
  834MOL0     O14985  -1.819   9.843   7.919  0.3195 -0.5185 -0.0992
  834MOL0     C14986  -1.836   9.821   8.052 -0.3143  0.4705 -0.8847
  834MOL0     C14987  -1.746   9.872   8.152  0.3228 -0.1383 -0.5021
  834MOL0     C14988  -1.780   9.832   8.286 -0.4608 -0.9520 -0.0773
  834MOL0     C14989  -1.894   9.758   8.317 -0.0409 -0.1601 -0.8503
  834MOL0     O14990  -1.920   9.748   8.448 -0.3834 -0.6795 -0.6552
  834MOL0     C14991  -2.012   9.653   8.503  0.2485 -0.9555  0.3028
  834MOL0     C14992  -1.954   9.512   8.488 -0.6280 -0.8080 -0.7353
  834MOL0     C14993  -2.029   9.408   8.559 -0.1692  0.7000  0.0742
  834MOL0     C14994  -2.170   9.388   8.489  0.4616 -0.6245  0.3879
  834MOL0     C14995  -2.242   9.269   8.558 -0.7535 -0.0300 -0.7908
  834MOL0     C14996  -2.395   9.282   8.553  0.5765  0.3213  0.2572
  834MOL0     C14997  -2.442   9.310   8.411  0.5921 -0.1187 -0.4535
  834MOL0     C14998  -2.576   9.246   8.393 -0.5530 -0.4181  0.3485
  834MOL0    Cl14999  -2.574   9.072   8.383  0.5070  0.8786 -0.3845
  834MOL0     C15000  -1.977   9.705   8.215  0.2632  0.3365 -0.0749
  834MOL0     C15001  -1.949   9.743   8.084  1.1894 -0.2162  0.4820
  834MOL0     O15002  -1.755  10.058   7.941 -0.5000  0.6163  0.5165
  834MOL0     C15003  -1.840   9.857   7.647 -0.0661 -0.3791  0.1463
  834MOL0     C15004  -1.869   9.854   7.516 -0.4711  0.0956  0.0231
  834MOL0     N15005  -1.494  10.036   6.903  0.0778 -0.6738 -0.8062
  834MOL0     N15006  -1.440  10.159   6.871  1.2795  0.0501 -0.4128
  834MOL0     C15007  -0.300  10.360   6.729  0.4818 -0.5562  0.4377
  834MOL0     C15008  -0.178  10.386   6.794 -0.3827 -0.2738 -0.2127
  834MOL0     C15009   0.160  10.475   7.054 -1.2227  1.0662  0.1013
  834MOL0     C15010   0.236  10.578   6.994 -0.3532  0.4228  0.6784
  834MOL0     C15011   0.345  10.646   7.050 -1.2134 -0.5084  0.6049
  834MOL0     C15012   0.407  10.597   7.169  0.5420  0.5283 -0.1509
  834MOL0     O15013   0.527  10.661   7.205  0.4066 -0.0680 -0.4242
  834MOL0     C15014   0.607  10.574   7.282  0.0443  0.5676  0.0141
  834MOL0     C15015   0.744  10.640   7.312 -0.0794 -0.0189 -0.2629
  834MOL0     C15016   0.825  10.685   7.186 -0.4391 -0.4855 -0.1154
  834MOL0     C15017   0.865  10.574   7.089  0.0054 -0.2749  0.1713
  834MOL0     C15018   0.926  10.630   6.962  0.6535  0.2220 -0.2769
  834MOL0     C15019   0.974  10.685   6.867  0.0401  0.0356 -0.8485
  834MOL0     C15020   0.340  10.485   7.229  0.8016  0.5554 -0.6211
  834MOL0     C15021   0.212  10.438   7.182 -0.1704  0.4851  0.5675
  834MOL0     C15022   0.137  10.336   7.271 -0.1535  0.1742  0.0441
  834MOL0     H15023  -0.289  10.609   7.009  1.5775  2.4123 -1.5939
  834MOL0     H15024  -0.508  10.568   6.903  0.3986 -0.6780  1.1144
  834MOL0     H15025  -0.627  10.590   6.703 -0.8516 -0.8015 -3.9764
  834MOL0     H15026  -0.699  10.461   6.791  0.0558 -2.4035  0.7167
  834MOL0     H15027  -0.806  10.556   6.590  3.2865  2.5834 -0.0384
  834MOL0     H15028  -0.675  10.485   6.480  0.8288  4.4407  0.6612
  834MOL0     H15029  -0.858  10.360   6.456 -0.6738 -0.4926 -0.2282
  834MOL0     H15030  -0.737  10.265   6.560  0.2622  0.1040  3.7045
  834MOL0     H15031  -0.898  10.337   6.757 -2.4012  2.1501  2.2704
  834MOL0     H15032  -0.979  10.433   6.630 -0.6995 -0.7492 -1.0526
  834MOL0     H15033  -0.965  10.130   6.675  1.3817  0.1439  0.3260
  834MOL0     H15034  -1.051  10.199   6.539 -2.3406 -0.3226  1.3946
  834MOL0     H15035  -1.192  10.324   6.683  0.5775 -0.9529 -2.4102
  834MOL0     H15036  -1.202  10.151   6.723 -1.4949  0.0195  0.6690
  834MOL0     H15037  -1.062  10.373   6.891 -2.4535  1.7078 -0.9650
  834MOL0     H15038  -1.052  10.198   6.915  0.2031  0.1844  0.3137
  834MOL0     H15039  -1.237  10.330   7.061 -2.7977 -1.9243  0.9676
  834MOL0     H15040  -1.291  10.381   6.902  1.5524  0.1918  0.3787
  834MOL0     H15041  -1.234  10.041   7.110  0.7652 -0.7904 -2.0390
  834MOL0     H15042  -1.376   9.839   7.154  1.6812  0.4027 -0.8114
  834MOL0     H15043  -1.402   9.770   6.988 -3.4239 -1.0811 -0.8416
  834MOL0     H15044  -1.626   9.824   6.990  1.0126 -3.1805 -1.2436
  834MOL0     H15045  -1.595   9.703   7.118 -0.0624  0.3153  0.4497
  834MOL0     H15046  -1.584   9.928   7.275  0.6300  3.2950 -0.9120
  834MOL0     H15047  -1.653  10.004   7.132  0.5449  1.7558  2.3919
  834MOL0     H15048  -1.848   9.871   7.136  1.1147 -0.7353 -0.3629
  834MOL0     H15049  -1.794   9.786   7.282  1.2554 -0.9702 -0.8280
  834MOL0     H15050  -1.781  10.166   7.447 -1.9414  1.1570  2.3879
  834MOL0     H15051  -1.768  10.255   7.750 -1.2196 -1.9186 -0.5898
  834MOL0     H15052  -1.649  10.255   7.618 -2.4237 -0.3201 -1.1675
  834MOL0     H15053  -1.604  10.178   7.771 -1.6988  2.0244  3.3255
  834MOL0     H15054  -1.665   9.942   8.135  0.8472  0.8867  4.5830
  834MOL0     H15055  -1.711   9.863   8.364 -2.5203 -1.2144  1.9657
  834MOL0     H15056  -2.033   9.675   8.608  2.8202  1.8708  0.3460
  834MOL0     H15057  -2.102   9.665   8.441  0.2162  0.0103  0.5225
  834MOL0     H15058  -1.945   9.478   8.384  1.5426 -3.4846  0.1934
  834MOL0     H15059  -1.855   9.527   8.531  0.1289  2.2689 -3.1706
  834MOL0     H15060  -2.041   9.430   8.666  0.6387  0.4945  0.2129
  834MOL0     H15061  -1.968   9.320   8.540  0.3737  1.5192 -2.3173
  834MOL0     H15062  -2.165   9.391   8.380 -0.2778  0.8920  0.3714
  834MOL0     H15063  -2.228   9.478   8.508  1.7120  0.0003  1.4545
  834MOL0     H15064  -2.221   9.172   8.514 -5.3725 -0.7137 -2.0449
  834MOL0     H15065  -2.215   9.265   8.664  0.4463  1.1884 -1.0295
  834MOL0     H15066  -2.420   9.363   8.621  0.2160  1.0426 -0.7000
  834MOL0     H15067  -2.434   9.190   8.596 -0.1126  0.0221 -0.9336
  834MOL0     H15068  -2.362   9.268   8.348 -0.1588 -1.0066 -0.8417
  834MOL0     H15069  -2.441   9.418   8.394  1.7794 -0.4580 -2.9414
  834MOL0     H15070  -2.622   9.284   8.301 -0.2061  1.3703  0.8852
  834MOL0     H15071  -2.639   9.284   8.474 -2.6344  1.1048 -1.8374
  834MOL0     H15072  -2.067   9.649   8.238  1.4984 -0.2054  4.4342
  834MOL0     H15073  -2.013   9.712   8.002  0.1086 -1.8830  1.8880
  834MOL0     H15074  -1.858   9.755   7.679  0.4664 -0.5450 -0.0629
  834MOL0     H15075  -1.892   9.758   7.471  1.9194 -1.7370  2.3284
  834MOL0     H15076  -0.294  10.293   6.644  2.4043  1.8773 -1.4752
  834MOL0     H15077  -0.084  10.347   6.759  2.1839  4.1100  1.0408
  834MOL0     H15078   0.191  10.617   6.903  2.4716  1.0728 -0.5475
  834MOL0     H15079   0.400  10.730   7.009 -0.8357 -1.2266 -0.3911
  834MOL0     H15080   0.560  10.557   7.379  0.2489  1.1187  0.2154
  834MOL0     H15081   0.617  10.475   7.236 -2.8984  1.5420 -3.1800
  834MOL0     H15082   0.819  10.575   7.359 -0.8240  0.0931  1.1189
  834MOL0     H15083   0.733  10.733   7.369 -3.5734 -1.3455  1.4816
  834MOL0     H15084   0.775  10.768   7.135  1.7756  1.3166  0.5020
  834MOL0     H15085   0.917  10.736   7.213 -1.1140  1.3930 -1.1830
  834MOL0     H15086   0.782  10.512   7.055  0.7868 -1.9334  1.1793
  834MOL0     H15087   0.941  10.509   7.132 -0.0606 -0.8714 -0.5951
  834MOL0     H15088   1.005  10.720   6.770  2.0100  0.8926  0.0328
  834MOL0     H15089   0.378  10.452   7.325  0.7298  2.3059  0.0525
  834MOL0     H15090   0.040  10.379   7.299 -0.6057 -0.3428 -0.6799
  834MOL0     H15091   0.131  10.241   7.217 -4.0374  0.6761 -0.6938
  834MOL0     H15092   0.196  10.319   7.361  0.9777 -0.4730 -0.7925
  835MOL0     O15093   0.523   5.522   7.004  0.0413  0.5207 -0.2069
  835MOL0     C15094   0.549   5.444   6.917 -1.0329 -0.2371 -0.1636
  835MOL0     O15095   0.530   5.304   6.913 -0.1934 -1.1092 -0.1236
  835MOL0     C15096   0.519   5.242   7.042 -0.3774 -0.4523  0.4619
  835MOL0     C15097   0.633   5.219   7.125  0.6997  0.3404 -0.7138
  835MOL0     C15098   0.606   5.152   7.246  0.2929  0.7607  0.2441
  835MOL0     C15099   0.478   5.130   7.304 -0.2440  0.3676 -0.2271
  835MOL0     O15100   0.483   5.091   7.429  0.1647  0.3833 -0.1408
  835MOL0     C15101   0.356   5.067   7.496  0.0150 -0.5248 -0.3022
  835MOL0     C15102   0.403   5.039   7.648  0.1519  0.1473  0.1902
  835MOL0     C15103   0.457   4.900   7.680  0.3329  0.3454 -0.1135
  835MOL0     C15104   0.532   4.919   7.822 -0.5100  1.2767  0.1978
  835MOL0     C15105   0.577   4.782   7.883  0.7127 -0.8333  0.7991
  835MOL0     C15106   0.604   4.799   8.034 -0.9203  0.2415 -0.0187
  835MOL0     C15107   0.708   4.912   8.064  0.6061  0.2366  0.9129
  835MOL0     C15108   0.846   4.886   8.018 -0.7397 -0.5660 -0.7057
  835MOL0     N15109   0.936   5.002   8.057  0.7081  0.1166  0.3792
  835MOL0     C15110   0.920   5.128   8.015  0.5117  0.2500 -1.0046
  835MOL0     C15111   0.997   5.197   8.106 -0.0594 -0.2663  0.5333
  835MOL0     C15112   1.018   5.343   8.109 -0.9437  0.2100 -0.2260
  835MOL0     C15113   1.169   5.385   8.070  0.6344 -0.2591 -1.1157
  835MOL0     C15114   1.185   5.536   8.097 -0.6482  0.4090 -0.2225
  835MOL0     C15115   1.109   5.622   8.010  1.1351 -0.2328  0.2980
  835MOL0     O15116   1.117   5.592   7.878  0.8619 -0.2543  0.7703
  835MOL0     C15117   1.188   5.690   7.818 -0.0849  0.2494  0.5588
  835MOL0     C15118   1.278   5.646   7.721  0.1794  0.5803  1.0343
  835MOL0     C15119   1.328   5.734   7.615  1.0100  0.6515 -1.1871
  835MOL0     C15120   1.387   5.647   7.505  0.1126  0.0651 -0.1706
  835MOL0     C15121   1.289   5.866   7.613 -0.0242 -0.3562 -1.3711
  835MOL0     C15122   1.337   5.965   7.518  0.0187  0.7219 -0.2865
  835MOL0     O15123   1.261   6.081   7.510 -0.4988 -0.2190  0.2905
  835MOL0     C15124   1.324   6.177   7.435  0.5316 -0.5150 -0.2392
  835MOL0     C15125   1.309   6.202   7.299 -0.2708 -0.7012  0.5268
  835MOL0     C15126   1.366   6.316   7.237 -0.5785 -0.1446 -0.6348
  835MOL0     C15127   1.452   6.406   7.305 -0.4775 -0.1732  0.2721
  835MOL0     O15128   1.518   6.502   7.236  1.0786  0.6697  0.0133
  835MOL0     C15129   1.624   6.569   7.300 -0.1827 -0.7685 -0.4057
  835MOL0     C15130   1.669   6.681   7.207 -0.0521 -0.7733  0.7290
  835MOL0     C15131   1.791   6.640   7.123 -0.1722 -0.3230  0.6711
  835MOL0     C15132   1.825   6.746   7.017  0.4560 -0.3101  0.3821
  835MOL0     C15133   1.969   6.732   6.976 -0.2702  0.1624  0.3139
  835MOL0     C15134   2.018   6.824   6.879  0.6948 -0.8537  0.2783
  835MOL0     C15135   2.135   6.763   6.784  0.2200 -0.0028  0.2177
  835MOL0     C15136   2.192   6.873   6.701  0.0270 -0.4199  0.0614
  835MOL0    Cl15137   2.271   6.985   6.816  0.2010  0.2356  0.2577
  835MOL0     C15138   1.472   6.379   7.441  0.0489  0.3137 -0.0284
  835MOL0     C15139   1.415   6.264   7.498  0.3837  0.2207  0.5091
  835MOL0     O15140   1.429   5.939   7.447 -0.6053 -0.0221 -0.2133
  835MOL0     C15141   1.194   5.914   7.714  0.5844  0.6781 -0.1328
  835MOL0     C15142   1.142   5.825   7.806 -0.2459  0.5004 -0.1759
  835MOL0     N15143   1.063   5.112   8.190  0.9458  0.2808 -0.0597
  835MOL0     N15144   1.021   4.994   8.159  0.3722  0.0535 -0.3550
  835MOL0     C15145   0.368   5.169   7.227  0.5740 -0.4080  0.3929
  835MOL0     C15146   0.386   5.224   7.096 -0.5620 -0.1704  0.2056
  835MOL0     C15147   0.585   5.507   6.791  0.4547  0.1937  0.4807
  835MOL0     C15148   0.529   5.461   6.676  0.0117 -0.2346  0.1490
  835MOL0     C15149   0.559   5.511   6.549  0.6654 -0.2960 -0.8531
  835MOL0     C15150   0.659   5.605   6.534  0.2542 -0.6007  1.0405
  835MOL0     O15151   0.705   5.662   6.415 -0.1924  0.0803 -0.5773
  835MOL0     C15152   0.665   5.610   6.287  0.7610  0.2982  0.3597
  835MOL0     C15153   0.515   5.623   6.235 -0.0865 -0.6191 -0.7154
  835MOL0     C15154   0.461   5.767   6.255  0.0777  0.6160  1.0743
  835MOL0     C15155   0.320   5.765   6.206 -0.4886  0.4691  0.5565
  835MOL0     C15156   0.215   5.717   6.294  0.2282  0.2239  0.1159
  835MOL0     C15157   0.141   5.660   6.366  0.4616 -0.0212  0.6752
  835MOL0     C15158   0.730   5.642   6.651 -0.3456  0.3205  0.6092
  835MOL0     C15159   0.686   5.602   6.779  0.9432 -0.2468  0.3746
  835MOL0     C15160   0.748   5.670   6.890  0.2805 -0.7461 -0.2965
  835MOL0     H15161   0.728   5.249   7.081 -0.1529  3.9175 -0.4366
  835MOL0     H15162   0.686   5.107   7.305  0.3002  1.4752  0.7927
  835MOL0     H15163   0.310   4.975   7.459 -1.1958 -0.7615  1.6316
  835MOL0     H15164   0.290   5.155   7.491 -0.1067 -0.2008  3.6794
  835MOL0     H15165   0.488   5.105   7.666  0.8665 -0.3759 -1.1570
  835MOL0     H15166   0.318   5.073   7.708 -0.9329  1.5190 -1.9633
  835MOL0     H15167   0.362   4.846   7.687  0.2612  0.5538  0.5153
  835MOL0     H15168   0.511   4.858   7.595 -3.0675  3.2828 -4.1712
  835MOL0     H15169   0.613   4.993   7.818 -2.1652  3.1584 -0.5175
  835MOL0     H15170   0.459   4.956   7.895  0.1714 -2.3320  2.9693
  835MOL0     H15171   0.673   4.751   7.839  0.7084  2.2050 -1.7883
  835MOL0     H15172   0.495   4.714   7.860  0.9853 -0.3977 -1.7975
  835MOL0     H15173   0.513   4.821   8.092  0.1649  1.9330  1.1272
  835MOL0     H15174   0.643   4.704   8.071 -0.4152  1.0762  1.6355
  835MOL0     H15175   0.725   4.925   8.171  2.6612  0.2514  0.6367
  835MOL0     H15176   0.671   5.007   8.026 -3.3016 -0.8088  1.7183
  835MOL0     H15177   0.890   4.789   8.044  2.5407  0.5721 -1.4537
  835MOL0     H15178   0.854   4.892   7.909  0.8962  0.1396 -0.5790
  835MOL0     H15179   0.861   5.171   7.935 -0.5939 -1.6752 -1.2753
  835MOL0     H15180   0.999   5.373   8.213 -0.0601 -0.6103  0.1847
  835MOL0     H15181   0.958   5.389   8.030 -0.9678 -1.2199 -1.0770
  835MOL0     H15182   1.237   5.335   8.140 -1.2490 -0.5099  0.6503
  835MOL0     H15183   1.198   5.365   7.967 -0.6827  1.0810 -1.7732
  835MOL0     H15184   1.159   5.577   8.196  1.9668  3.6766 -0.7176
  835MOL0     H15185   1.293   5.551   8.089 -1.1320  3.4768 -3.9110
  835MOL0     H15186   1.001   5.623   8.030  0.8611 -1.1089 -0.9910
  835MOL0     H15187   1.129   5.726   8.036  0.2491  0.4494 -1.5427
  835MOL0     H15188   1.318   5.545   7.726 -1.5257 -0.2631 -0.9464
  835MOL0     H15189   1.494   5.667   7.507  0.5842 -2.0174 -1.6962
  835MOL0     H15190   1.350   5.677   7.407  0.9590 -1.7163 -1.0889
  835MOL0     H15191   1.369   5.540   7.517 -3.3413  0.6229  0.8007
  835MOL0     H15192   1.248   6.132   7.243 -1.3030  0.7177 -0.1915
  835MOL0     H15193   1.357   6.335   7.131  2.8524  0.5070 -0.9514
  835MOL0     H15194   1.598   6.611   7.398 -0.6276 -0.0099 -0.8449
  835MOL0     H15195   1.712   6.505   7.306 -0.2206 -0.8236 -0.4454
  835MOL0     H15196   1.586   6.700   7.138  0.6854  1.4646  0.3624
  835MOL0     H15197   1.692   6.767   7.271  2.2364  0.3686 -1.4087
  835MOL0     H15198   1.768   6.547   7.071 -0.7621  0.4383 -0.4973
  835MOL0     H15199   1.879   6.632   7.186  0.6358 -2.4158 -0.6058
  835MOL0     H15200   1.828   6.843   7.068  3.3562 -0.8408  1.4292
  835MOL0     H15201   1.761   6.744   6.928  2.0742 -1.5657 -0.8284
  835MOL0     H15202   2.030   6.745   7.066  0.8298  2.1792 -0.6741
  835MOL0     H15203   1.981   6.631   6.935  1.4648  0.6788 -0.5242
  835MOL0     H15204   2.057   6.911   6.933  1.3531 -1.5480  0.9464
  835MOL0     H15205   1.938   6.869   6.819 -0.5106 -0.2598  2.2371
  835MOL0     H15206   2.088   6.690   6.719 -0.0647  0.7279 -0.4083
  835MOL0     H15207   2.209   6.723   6.855 -0.2162 -2.2249 -0.5181
  835MOL0     H15208   2.116   6.932   6.649  1.3763 -1.3718 -3.2230
  835MOL0     H15209   2.269   6.840   6.630  0.0921 -0.4937  0.1649
  835MOL0     H15210   1.532   6.445   7.502 -1.3002  2.8825 -1.3181
  835MOL0     H15211   1.440   6.245   7.602 -0.0867 -0.7581  0.4499
  835MOL0     H15212   1.141   6.009   7.719 -3.3554 -1.4086  1.9610
  835MOL0     H15213   1.061   5.856   7.871  0.0736  0.8865  0.0367
  835MOL0     H15214   0.267   5.151   7.262 -0.4038  2.9570 -0.3309
  835MOL0     H15215   0.320   5.252   7.015 -0.4119 -3.5953 -1.2704
  835MOL0     H15216   0.452   5.387   6.692  0.7128 -0.5419  2.3980
  835MOL0     H15217   0.497   5.488   6.462  0.8315  1.9427 -1.6254
  835MOL0     H15218   0.731   5.673   6.227  2.1173  1.1641  2.6371
  835MOL0     H15219   0.691   5.504   6.286  0.7552  0.2384 -2.3597
  835MOL0     H15220   0.445   5.558   6.288  0.8746 -1.2335 -0.1638
  835MOL0     H15221   0.508   5.580   6.135  3.3484  1.3047 -1.9765
  835MOL0     H15222   0.458   5.803   6.358 -1.5171 -2.1250  2.0714
  835MOL0     H15223   0.524   5.832   6.192  0.9649 -1.3488 -0.1561
  835MOL0     H15224   0.309   5.741   6.100 -2.7548 -1.4239  1.1431
  835MOL0     H15225   0.283   5.868   6.200 -1.9587 -0.0840 -0.6785
  835MOL0     H15226   0.082   5.598   6.431  1.1963 -1.3282  0.1277
  835MOL0     H15227   0.802   5.724   6.645  0.2351 -0.2293 -0.0388
  835MOL0     H15228   0.698   5.763   6.919 -0.2189 -1.5737  1.7178
  835MOL0     H15229   0.740   5.601   6.975 -0.2994  0.4094  0.6171
  835MOL0     H15230   0.851   5.695   6.861 -0.1262 -1.2468 -2.2845
  836MOL0     O15231   1.025   6.498   5.398  0.5071  0.0832 -0.0136
  836MOL0     C15232   0.919   6.554   5.387  1.2311 -0.9913  0.3296
  836MOL0     O15233   0.872   6.648   5.475 -0.8051  0.4978 -0.2489
  836MOL0     C15234   0.960   6.669   5.576 -0.6949 -0.0377  0.1796
  836MOL0     C15235   0.921   6.614   5.696  0.2065  0.1275  0.3687
  836MOL0     C15236   0.997   6.625   5.812 -0.4564 -0.1648 -0.1289
  836MOL0     C15237   1.121   6.707   5.806 -0.0055 -0.5888 -0.1263
  836MOL0     O15238   1.217   6.716   5.914  0.5669  0.6575  0.0203
  836MOL0     C15239   1.175   6.668   6.053 -0.0377  0.5916  0.3450
  836MOL0     C15240   1.300   6.657   6.146  0.1070  0.6859  0.0274
  836MOL0     C15241   1.269   6.547   6.255  0.4672  0.0210 -0.2219
  836MOL0     C15242   1.186   6.602   6.371 -0.1914  0.0391  0.2480
  836MOL0     C15243   1.151   6.496   6.488  0.1139 -0.2825  1.0846
  836MOL0     C15244   1.060   6.572   6.591 -0.7336  0.0258 -1.0108
  836MOL0     C15245   0.919   6.590   6.541  0.7662  0.0423  0.0977
  836MOL0     C15246   0.823   6.479   6.570 -0.0748 -0.2906 -0.5024
  836MOL0     N15247   0.781   6.393   6.469 -0.4334 -0.6973 -0.0294
  836MOL0     C15248   0.662   6.396   6.401 -0.5375 -0.3854 -0.0362
  836MOL0     C15249   0.654   6.270   6.352 -0.3242 -0.9154  0.0611
  836MOL0     C15250   0.546   6.215   6.281 -0.1721  0.0098  0.4233
  836MOL0     C15251   0.581   6.218   6.130 -0.3053  0.1014 -0.8943
  836MOL0     C15252   0.606   6.357   6.074  0.7257  0.2485 -0.4003
  836MOL0     C15253   0.620   6.377   5.923 -0.3285  0.0857 -0.2438
  836MOL0     O15254   0.501   6.322   5.861  0.1007  1.1519  0.6289
  836MOL0     C15255   0.402   6.413   5.830  0.0028  0.3443  0.8192
  836MOL0     C15256   0.388   6.551   5.855 -0.0108  0.8906  0.4468
  836MOL0     C15257   0.272   6.626   5.806 -1.2568 -0.2115  0.9738
  836MOL0     C15258   0.275   6.782   5.835 -0.0521 -0.4878  0.4794
  836MOL0     C15259   0.177   6.562   5.730  0.1493 -0.2166  0.3552
  836MOL0     C15260   0.049   6.621   5.669 -0.3355 -0.3404 -0.7918
  836MOL0     O15261   0.014   6.551   5.550  0.8816  0.0726  0.1078
  836MOL0     C15262  -0.078   6.611   5.464 -0.5572  0.3398 -1.0970
  836MOL0     C15263  -0.202   6.659   5.519  0.1300  0.6910 -0.4172
  836MOL0     C15264  -0.294   6.717   5.426 -0.6933 -0.1134 -0.5820
  836MOL0     C15265  -0.267   6.717   5.287  0.2243  0.8301 -1.0260
  836MOL0     O15266  -0.351   6.770   5.195  0.3406  0.6458 -0.5552
  836MOL0     C15267  -0.489   6.796   5.218  0.0619 -0.8211  0.2976
  836MOL0     C15268  -0.518   6.934   5.278 -0.0314  0.1520  1.1009
  836MOL0     C15269  -0.483   7.057   5.202 -0.4414 -0.4303  0.7953
  836MOL0     C15270  -0.596   7.113   5.119  0.4848  0.8726 -0.8700
  836MOL0     C15271  -0.559   7.227   5.027 -0.3069 -0.1920  0.2605
  836MOL0     C15272  -0.681   7.300   4.963  0.5100 -0.2155  0.1363
  836MOL0     C15273  -0.651   7.407   4.863  0.1201  0.1556 -0.0584
  836MOL0     C15274  -0.707   7.371   4.724  0.6443 -1.1711  0.6156
  836MOL0    Cl15275  -0.596   7.252   4.656 -0.1528  0.3849 -0.1007
  836MOL0     C15276  -0.152   6.648   5.244 -0.0436 -0.6257  0.5499
  836MOL0     C15277  -0.057   6.597   5.333 -0.7751 -0.9657 -0.0031
  836MOL0     O15278  -0.006   6.717   5.723  0.8990  0.3259 -0.5502
  836MOL0     C15279   0.191   6.430   5.710 -0.2964 -0.1234  0.0838
  836MOL0     C15280   0.302   6.354   5.752 -0.3599  0.0550 -0.5948
  836MOL0     N15281   0.766   6.192   6.375  0.6897  0.6713 -0.2785
  836MOL0     N15282   0.838   6.265   6.453 -0.6198 -0.4582  0.8036
  836MOL0     C15283   1.150   6.766   5.687 -0.3936  0.7859  0.1101
  836MOL0     C15284   1.077   6.745   5.566 -0.3848 -0.0891 -0.0527
  836MOL0     C15285   0.829   6.528   5.270  1.0735 -0.1818  1.2014
  836MOL0     C15286   0.709   6.596   5.265  0.1150 -1.2328 -0.0200
  836MOL0     C15287   0.622   6.594   5.152  0.0062  0.3023  0.4636
  836MOL0     C15288   0.654   6.507   5.044  0.3565 -0.9357 -1.0189
  836MOL0     O15289   0.585   6.503   4.930  0.0617  0.1693  0.5499
  836MOL0     C15290   0.560   6.629   4.867  0.3398  0.1111 -0.1703
  836MOL0     C15291   0.534   6.606   4.715  0.5021 -0.6680  0.3523
  836MOL0     C15292   0.661   6.557   4.649  0.4069  0.0466 -0.2270
  836MOL0     C15293   0.651   6.544   4.496  0.3887 -0.0508  0.0663
  836MOL0     C15294   0.760   6.457   4.450 -0.0594  0.1663 -0.3861
  836MOL0     C15295   0.858   6.397   4.415 -0.8267  0.4460  0.8864
  836MOL0     C15296   0.757   6.427   5.067 -0.4373  0.1073 -0.5291
  836MOL0     C15297   0.850   6.432   5.174 -0.4986 -0.1754 -0.0467
  836MOL0     C15298   0.967   6.337   5.170  0.1622 -1.3267  0.3697
  836MOL0     H15299   0.830   6.558   5.713  1.0280 -0.5919  2.7307
  836MOL0     H15300   0.956   6.567   5.894  0.7732 -1.2689 -0.2609
  836MOL0     H15301   1.127   6.569   6.054 -0.2866  0.6823  3.0072
  836MOL0     H15302   1.101   6.737   6.093 -0.3610 -1.1686  3.0563
  836MOL0     H15303   1.379   6.618   6.080 -0.0674 -0.1096  0.2782
  836MOL0     H15304   1.324   6.753   6.192  0.7901 -0.0079  1.1653
  836MOL0     H15305   1.211   6.466   6.209  2.7061 -2.7165  1.5209
  836MOL0     H15306   1.354   6.488   6.288  2.2237  1.2485 -2.2690
  836MOL0     H15307   1.249   6.683   6.409  1.0599  0.8195 -3.1282
  836MOL0     H15308   1.094   6.640   6.326  1.6297  0.8632 -3.1779
  836MOL0     H15309   1.248   6.462   6.524  1.4701 -0.1649 -2.0965
  836MOL0     H15310   1.096   6.412   6.445 -0.8470  1.2146 -0.7947
  836MOL0     H15311   1.055   6.525   6.690 -0.6156 -2.3880 -2.0688
  836MOL0     H15312   1.108   6.669   6.610 -0.6438 -0.6678  3.4231
  836MOL0     H15313   0.910   6.602   6.433 -1.0875 -2.8946 -0.2027
  836MOL0     H15314   0.878   6.682   6.584  3.4409  1.5326 -0.3739
  836MOL0     H15315   0.875   6.407   6.634  0.6084 -0.7483 -1.5404
  836MOL0     H15316   0.733   6.508   6.626 -0.1232 -0.9304 -0.2402
  836MOL0     H15317   0.597   6.483   6.399  1.8679  1.5600  0.6666
  836MOL0     H15318   0.449   6.265   6.293 -0.0234 -0.1023  2.4958
  836MOL0     H15319   0.525   6.110   6.301 -1.8461  0.1139 -0.6047
  836MOL0     H15320   0.663   6.147   6.116 -2.0577 -3.0535  2.7801
  836MOL0     H15321   0.501   6.172   6.072 -1.3965 -1.0486  1.3778
  836MOL0     H15322   0.531   6.421   6.121  2.5022  1.6202  0.7016
  836MOL0     H15323   0.701   6.392   6.114 -0.4862  1.5126  1.5135
  836MOL0     H15324   0.640   6.484   5.913  1.9762 -0.1460  1.1078
  836MOL0     H15325   0.702   6.322   5.876 -0.4883 -0.0094 -0.4152
  836MOL0     H15326   0.464   6.606   5.910  0.9525 -1.9967  2.2199
  836MOL0     H15327   0.343   6.808   5.915  0.2075  4.7000 -1.0959
  836MOL0     H15328   0.177   6.815   5.871  0.1151 -0.9241  1.3623
  836MOL0     H15329   0.299   6.839   5.745  0.2413  2.3561  2.2532
  836MOL0     H15330  -0.222   6.637   5.623  1.8031 -2.8321 -0.7004
  836MOL0     H15331  -0.390   6.741   5.470 -0.2818 -0.4119  0.5137
  836MOL0     H15332  -0.535   6.790   5.119  5.6062 -1.8025 -2.6166
  836MOL0     H15333  -0.523   6.722   5.291 -0.8728  0.8202  1.6125
  836MOL0     H15334  -0.622   6.932   5.312 -0.9145 -0.2541 -1.4131
  836MOL0     H15335  -0.443   6.930   5.358  0.9317 -3.4040  0.2043
  836MOL0     H15336  -0.410   7.036   5.123 -2.3146  0.9562 -1.4366
  836MOL0     H15337  -0.456   7.143   5.263 -2.1313  3.0268 -2.8669
  836MOL0     H15338  -0.666   7.142   5.199  0.0837  0.3463 -1.0209
  836MOL0     H15339  -0.631   7.024   5.065  1.7879 -0.5828  0.5367
  836MOL0     H15340  -0.502   7.302   5.082  0.8927 -1.5276  0.8918
  836MOL0     H15341  -0.501   7.199   4.938 -2.9543 -0.4037 -1.5236
  836MOL0     H15342  -0.731   7.348   5.047  3.6138 -1.8703  3.1795
  836MOL0     H15343  -0.752   7.225   4.928  0.8776 -0.2393 -0.5774
  836MOL0     H15344  -0.543   7.419   4.858  1.0556 -4.4516  3.2642
  836MOL0     H15345  -0.713   7.492   4.895 -4.1832 -2.6228 -0.1498
  836MOL0     H15346  -0.713   7.453   4.652  0.1389 -0.2014  1.7239
  836MOL0     H15347  -0.802   7.322   4.747 -0.3575  0.3047 -0.2247
  836MOL0     H15348  -0.127   6.645   5.138  0.5804  2.2928  0.5377
  836MOL0     H15349   0.026   6.534   5.302 -1.0244 -1.0194 -0.5697
  836MOL0     H15350   0.122   6.376   5.646  1.7495 -0.0904 -2.3104
  836MOL0     H15351   0.313   6.251   5.722  1.2446 -0.2573  0.8944
  836MOL0     H15352   1.232   6.836   5.682  1.2141 -1.0219  0.0346
  836MOL0     H15353   1.097   6.797   5.473 -0.4537  1.2056  0.6288
  836MOL0     H15354   0.676   6.662   5.344  1.0653 -0.2586 -0.4107
  836MOL0     H15355   0.532   6.654   5.138 -0.6268 -0.8542 -0.6580
  836MOL0     H15356   0.482   6.690   4.913  0.0414  1.2280 -2.0314
  836MOL0     H15357   0.660   6.675   4.861  0.9873 -1.3514 -1.3236
  836MOL0     H15358   0.509   6.701   4.666  3.3769 -0.3295 -0.6771
  836MOL0     H15359   0.465   6.523   4.698  1.8645 -1.6267 -0.8137
  836MOL0     H15360   0.740   6.631   4.661 -2.1863  3.1588 -1.0998
  836MOL0     H15361   0.688   6.456   4.682  0.2086 -0.7700 -2.4111
  836MOL0     H15362   0.654   6.631   4.430  0.9436 -2.5398 -3.4898
  836MOL0     H15363   0.561   6.491   4.466 -0.2100  1.4641 -0.9175
  836MOL0     H15364   0.952   6.354   4.386 -1.9467 -1.0763 -0.7034
  836MOL0     H15365   0.780   6.352   4.992 -4.7573 -1.4430 -0.5379
  836MOL0     H15366   1.061   6.385   5.143 -0.2595  0.4887  1.8978
  836MOL0     H15367   0.987   6.293   5.267 -2.2590 -0.3220  1.4173
  836MOL0     H15368   0.943   6.250   5.108 -1.2857  0.7436 -2.1890
  837MOL0     O15369   8.146   1.892   6.782 -0.3863  0.4257  0.4202
  837MOL0     C15370   8.041   1.830   6.771  0.9307  0.3147  0.0350
  837MOL0     O15371   7.997   1.780   6.652  0.2942  0.3906 -1.0769
  837MOL0     C15372   8.069   1.761   6.544 -0.7806 -0.9761 -0.5112
  837MOL0     C15373   8.121   1.640   6.508  0.7425  0.2359 -0.1244
  837MOL0     C15374   8.205   1.639   6.398  0.2926  0.8337 -0.5928
  837MOL0     C15375   8.235   1.746   6.318 -0.7650 -0.2319  0.6388
  837MOL0     O15376   8.302   1.745   6.198  0.3535 -0.7767  0.3661
  837MOL0     C15377   8.338   1.633   6.134  0.3819  0.2406  0.0367
  837MOL0     C15378   8.379   1.670   5.995 -0.0852  0.2028 -0.1955
  837MOL0     C15379   8.417   1.550   5.903 -0.1709 -0.1710 -0.6195
  837MOL0     C15380   8.375   1.568   5.758  1.1461  0.1019 -0.6540
  837MOL0     C15381   8.419   1.450   5.658 -0.4100  0.1553 -0.1526
  837MOL0     C15382   8.381   1.480   5.516  0.6362 -0.1555 -0.3092
  837MOL0     C15383   8.438   1.376   5.411  0.8615  0.0023 -0.2607
  837MOL0     C15384   8.390   1.401   5.273 -0.0676  0.0396  0.1423
  837MOL0     N15385   8.454   1.512   5.192 -0.0295  0.3575 -0.2958
  837MOL0     C15386   8.575   1.503   5.130  1.2182  0.6267 -0.4877
  837MOL0     C15387   8.595   1.624   5.072  0.3353 -0.2637 -0.3689
  837MOL0     C15388   8.725   1.651   4.995  0.0247 -0.3585 -0.4104
  837MOL0     C15389   8.749   1.801   4.972 -0.5816  0.3156 -1.0821
  837MOL0     C15390   8.858   1.824   4.868 -0.2937 -0.4056  0.4469
  837MOL0     C15391   8.878   1.971   4.836  0.3720  0.5843  0.0016
  837MOL0     O15392   8.956   1.978   4.716  0.4720 -0.0914 -0.0263
  837MOL0     C15393   8.967   2.099   4.650  0.3024  0.5887  0.3757
  837MOL0     C15394   8.928   2.225   4.692  0.9164  1.1703 -1.2413
  837MOL0     C15395   8.936   2.342   4.612  0.5093 -0.1769 -1.0073
  837MOL0     C15396   8.875   2.473   4.669 -0.0756 -0.6738 -0.0729
  837MOL0     C15397   8.983   2.334   4.482  0.8618  0.4460  0.1447
  837MOL0     C15398   8.996   2.450   4.389  0.1589 -0.8330  0.8255
  837MOL0     O15399   8.966   2.421   4.261  0.0475  0.6268 -0.2098
  837MOL0     C15400   9.043   2.481   4.165  0.5468  0.3053  0.5596
  837MOL0     C15401   8.992   2.596   4.101  0.2968  0.2757  0.4558
  837MOL0     C15402   9.075   2.654   4.000 -0.5114  0.8018 -0.0437
  837MOL0     C15403   9.197   2.584   3.954  0.4304  0.0090 -0.6862
  837MOL0     O15404   9.283   2.629   3.850  0.8276  0.8355  0.1853
  837MOL0     C15405   9.294   2.776   3.846 -0.0985  1.1475  1.1450
  837MOL0     C15406   9.432   2.808   3.891 -0.1542 -1.1093  1.0170
  837MOL0     C15407   9.446   2.808   4.046 -0.0242  0.9757  0.3992
  837MOL0     C15408   9.580   2.876   4.081 -0.8264 -0.7250  0.6697
  837MOL0     C15409   9.601   2.871   4.233  1.1430  0.4294  0.7845
  837MOL0     C15410   9.747   2.907   4.253 -0.1846  0.3851 -0.3665
  837MOL0     C15411   9.828   2.778   4.272  0.1393  0.3655 -0.4941
  837MOL0     C15412   9.977   2.789   4.289 -0.0862 -0.2269  0.0541
  837MOL0    Cl15413  10.068   2.634   4.292 -0.2277 -0.0732  0.4704
  837MOL0     C15414   9.233   2.465   4.018  0.4362  0.2978 -0.0469
  837MOL0     C15415   9.154   2.415   4.118  0.0230  0.3758 -0.0030
  837MOL0     O15416   9.028   2.565   4.422 -0.4994 -0.4442 -0.5476
  837MOL0     C15417   9.012   2.209   4.433  0.2996 -1.0186 -0.3689
  837MOL0     C15418   9.001   2.084   4.517 -1.0364  0.4837 -0.0739
  837MOL0     N15419   8.478   1.701   5.079  0.0862 -0.5939  0.1771
  837MOL0     N15420   8.395   1.635   5.152  0.1995  0.3531  0.3983
  837MOL0     C15421   8.174   1.867   6.355 -0.1815 -0.6524 -0.4821
  837MOL0     C15422   8.102   1.877   6.476  0.0248 -0.9145  1.1718
  837MOL0     C15423   7.954   1.784   6.887 -0.4879 -0.7002  0.9503
  837MOL0     C15424   7.922   1.653   6.883  1.0088 -0.2310 -0.0790
  837MOL0     C15425   7.855   1.587   6.991 -1.1256 -0.3654 -0.3968
  837MOL0     C15426   7.832   1.654   7.108 -0.1359  0.8735 -1.3731
  837MOL0     O15427   7.771   1.589   7.222  0.0482 -0.0026  0.1343
  837MOL0     C15428   7.777   1.452   7.256 -0.3346  0.9359 -0.3969
  837MOL0     C15429   7.871   1.436   7.381 -0.3468 -0.4699  0.0099
  837MOL0     C15430   7.848   1.506   7.526  0.3200  0.5954  0.4182
  837MOL0     C15431   7.724   1.463   7.604 -0.7341 -0.3316  1.7105
  837MOL0     C15432   7.694   1.534   7.728  1.0221  0.0729  0.1232
  837MOL0     C15433   7.642   1.580   7.825  0.0283  0.0729 -0.1911
  837MOL0     C15434   7.863   1.787   7.114  0.4012 -0.4311 -0.2706
  837MOL0     C15435   7.915   1.854   7.004 -0.7981  0.7135 -0.5974
  837MOL0     C15436   7.924   1.997   7.009 -0.3195  0.7469 -0.4733
  837MOL0     H15437   8.098   1.549   6.562 -3.0650  1.0067 -0.1625
  837MOL0     H15438   8.263   1.550   6.375  2.1230  1.9029 -0.3104
  837MOL0     H15439   8.263   1.555   6.116 -0.4653  1.3244 -1.2487
  837MOL0     H15440   8.436   1.611   6.177  2.3023  1.1597 -3.4530
  837MOL0     H15441   8.308   1.739   5.948 -1.0495 -0.5227  0.1622
  837MOL0     H15442   8.467   1.734   6.009  0.2203 -0.5398  1.3738
  837MOL0     H15443   8.526   1.548   5.905 -0.1572 -1.4527  2.4959
  837MOL0     H15444   8.385   1.458   5.951  2.9361 -1.2467 -0.3935
  837MOL0     H15445   8.270   1.596   5.760  1.3652  1.8546  5.1193
  837MOL0     H15446   8.430   1.660   5.737  1.9169 -0.6102 -1.8677
  837MOL0     H15447   8.371   1.357   5.689  2.7140 -2.0219 -1.3530
  837MOL0     H15448   8.527   1.434   5.660 -0.9166 -4.4130  0.7028
  837MOL0     H15449   8.272   1.483   5.517  0.4188 -0.5499  5.2659
  837MOL0     H15450   8.428   1.572   5.479  0.1436  0.4291  0.5061
  837MOL0     H15451   8.416   1.278   5.453 -0.9917  0.0565 -1.0037
  837MOL0     H15452   8.547   1.382   5.405  0.9811 -0.7800  0.8252
  837MOL0     H15453   8.417   1.308   5.221 -0.1317 -1.4696  2.6326
  837MOL0     H15454   8.281   1.402   5.273 -0.1465 -2.2058 -0.1509
  837MOL0     H15455   8.649   1.425   5.142  0.4712  0.1311  1.2113
  837MOL0     H15456   8.721   1.586   4.907  0.5320 -2.5007  1.0414
  837MOL0     H15457   8.813   1.611   5.046  0.2854  0.1762 -0.4369
  837MOL0     H15458   8.653   1.844   4.942 -0.5675  2.2303  1.3157
  837MOL0     H15459   8.785   1.847   5.065  0.4995  1.8555 -2.2297
  837MOL0     H15460   8.955   1.787   4.901 -0.2745  0.2512  1.1503
  837MOL0     H15461   8.824   1.778   4.774 -0.7793 -1.1414  0.9719
  837MOL0     H15462   8.778   2.010   4.817 -1.1288 -2.3925  1.1110
  837MOL0     H15463   8.921   2.035   4.914  1.4968 -0.8348  0.5826
  837MOL0     H15464   8.878   2.228   4.787  0.8735  0.5433 -1.2363
  837MOL0     H15465   8.935   2.524   4.745 -0.2296 -1.9232  0.9275
  837MOL0     H15466   8.777   2.456   4.715 -0.2708 -0.7618 -0.5086
  837MOL0     H15467   8.855   2.549   4.593 -1.4358 -1.6081 -0.7011
  837MOL0     H15468   8.906   2.653   4.134  0.4322  0.3413  0.6931
  837MOL0     H15469   9.040   2.752   3.969  0.4328  0.9369 -0.7415
  837MOL0     H15470   9.268   2.815   3.747  1.4969  3.7426  1.6616
  837MOL0     H15471   9.215   2.830   3.898 -1.4435 -1.0628  1.5370
  837MOL0     H15472   9.506   2.740   3.847  1.3777  2.1836 -1.9649
  837MOL0     H15473   9.460   2.906   3.852  3.4523 -2.2729  0.2889
  837MOL0     H15474   9.454   2.704   4.080  2.6717  1.2841  0.9503
  837MOL0     H15475   9.364   2.867   4.086 -0.3261  0.6891  0.2116
  837MOL0     H15476   9.561   2.979   4.050  0.2303 -0.5930  0.4467
  837MOL0     H15477   9.648   2.816   4.021  0.4749 -3.2992  4.3251
  837MOL0     H15478   9.537   2.943   4.285  1.4797  0.9156  0.5364
  837MOL0     H15479   9.593   2.765   4.257  1.7285  0.2776  0.3238
  837MOL0     H15480   9.753   2.958   4.350  1.9755  0.4476 -0.4818
  837MOL0     H15481   9.799   2.972   4.182  1.1766 -0.9851 -0.6620
  837MOL0     H15482   9.804   2.724   4.180 -3.1340 -1.7102  1.3840
  837MOL0     H15483   9.786   2.719   4.354  1.7290 -2.1519 -1.3680
  837MOL0     H15484   9.998   2.834   4.387  0.4943 -0.1027 -0.1235
  837MOL0     H15485  10.008   2.859   4.211 -3.2492  1.6286  0.2962
  837MOL0     H15486   9.329   2.421   3.993 -0.4318 -0.4500 -2.3081
  837MOL0     H15487   9.183   2.320   4.162 -2.5623 -0.7777 -0.6112
  837MOL0     H15488   9.037   2.197   4.328  0.7656  1.9459 -0.7057
  837MOL0     H15489   9.026   1.982   4.490  1.8078  1.5034 -1.8319
  837MOL0     H15490   8.190   1.948   6.284  0.7484 -0.4161 -0.0230
  837MOL0     H15491   8.070   1.975   6.509 -1.1525 -1.5827  2.0904
  837MOL0     H15492   7.943   1.596   6.793  0.2888 -1.8826  0.7377
  837MOL0     H15493   7.811   1.489   6.977 -4.3694  0.6277  1.6787
  837MOL0     H15494   7.675   1.416   7.265 -0.5252  1.4240 -0.5818
  837MOL0     H15495   7.826   1.394   7.177 -1.2423  0.9532 -0.9802
  837MOL0     H15496   7.972   1.443   7.342  0.2929 -1.5955  1.3963
  837MOL0     H15497   7.858   1.331   7.408 -1.6618 -0.5762 -0.9472
  837MOL0     H15498   7.932   1.478   7.590  0.6790  2.1518  0.6686
  837MOL0     H15499   7.862   1.614   7.517  2.5225  0.3571  0.5285
  837MOL0     H15500   7.726   1.355   7.623 -0.8777 -0.7970 -0.5820
  837MOL0     H15501   7.643   1.486   7.535  0.1404  2.9099  1.6183
  837MOL0     H15502   7.604   1.613   7.920 -1.1950  1.2707 -1.0710
  837MOL0     H15503   7.838   1.839   7.206 -0.9562  1.7755 -1.8091
  837MOL0     H15504   7.997   2.030   7.083 -1.4294  1.7145  0.2228
  837MOL0     H15505   7.941   2.035   6.908 -1.4353  2.2407 -0.1315
  837MOL0     H15506   7.830   2.049   7.027 -0.0156  0.9999  0.4133
  838MOL0     O15507   3.693   2.827   4.356  0.0239 -0.0815  0.3694
  838MOL0     C15508   3.602   2.823   4.270  0.4036 -0.3434 -1.0343
  838MOL0     O15509   3.535   2.929   4.224  0.6193 -0.5856  0.1049
  838MOL0     C15510   3.527   3.048   4.291  0.5589  0.3343 -0.6990
  838MOL0     C15511   3.504   3.062   4.427 -0.7492  0.3666 -1.1782
  838MOL0     C15512   3.473   3.184   4.479 -0.0656 -0.1534 -0.1918
  838MOL0     C15513   3.444   3.296   4.403 -0.2673 -0.8432  0.4499
  838MOL0     O15514   3.392   3.411   4.462 -0.0468  0.1133  0.0764
  838MOL0     C15515   3.472   3.528   4.452 -0.2713 -0.0158  0.5846
  838MOL0     C15516   3.392   3.650   4.490  0.5939  1.3204  0.0038
  838MOL0     C15517   3.305   3.627   4.624 -0.8238 -0.3222  0.1917
  838MOL0     C15518   3.199   3.731   4.638  0.7550  0.4524 -0.8285
  838MOL0     C15519   3.117   3.699   4.758  0.4428  0.0019 -1.1833
  838MOL0     C15520   2.991   3.791   4.740 -0.1552 -0.0438 -0.1420
  838MOL0     C15521   2.907   3.783   4.855 -0.4978 -0.5032 -0.9704
  838MOL0     C15522   2.766   3.858   4.840 -0.4483 -0.0446  0.3196
  838MOL0     N15523   2.697   3.850   4.972  0.3702 -0.0318  0.2683
  838MOL0     C15524   2.637   3.745   5.029 -0.3186 -0.3847 -0.1591
  838MOL0     C15525   2.624   3.789   5.159  0.0074 -0.7462  0.6224
  838MOL0     C15526   2.572   3.697   5.270 -0.5735 -0.1337 -0.2842
  838MOL0     C15527   2.433   3.656   5.226  0.0915  0.3255  0.0615
  838MOL0     C15528   2.366   3.607   5.350  0.4710  0.1292 -0.4973
  838MOL0     C15529   2.216   3.570   5.339 -0.2840  0.9750  0.2728
  838MOL0     O15530   2.197   3.471   5.236 -0.4412 -0.1107  0.0949
  838MOL0     C15531   2.258   3.355   5.234 -0.5955  0.5452  0.1383
  838MOL0     C15532   2.318   3.317   5.113  0.0634  0.7602 -0.2307
  838MOL0     C15533   2.397   3.208   5.093  0.3429  0.4823  0.1080
  838MOL0     C15534   2.470   3.199   4.957  0.8696  0.1543 -0.6628
  838MOL0     C15535   2.413   3.113   5.197  1.2168 -0.1663  0.4754
  838MOL0     C15536   2.475   2.982   5.189  0.2032  0.4157  0.4165
  838MOL0     O15537   2.510   2.905   5.306 -0.5816  0.0729 -0.3865
  838MOL0     C15538   2.516   2.770   5.298  0.5327  0.6152  1.0070
  838MOL0     C15539   2.448   2.685   5.212  0.4114 -1.1041  0.1376
  838MOL0     C15540   2.471   2.557   5.194  0.6044  0.0731 -0.2012
  838MOL0     C15541   2.574   2.496   5.267  0.6659 -0.1561 -0.1401
  838MOL0     O15542   2.604   2.366   5.268  0.1811 -0.0546  0.1971
  838MOL0     C15543   2.518   2.279   5.207  0.3885  0.6396  0.3772
  838MOL0     C15544   2.595   2.152   5.176  0.6388 -0.6608  0.8868
  838MOL0     C15545   2.520   2.062   5.076 -0.3979 -0.4767  0.0564
  838MOL0     C15546   2.607   1.941   5.051  0.9249 -0.3037 -0.8006
  838MOL0     C15547   2.561   1.863   4.930 -0.3059  0.0281 -0.4131
  838MOL0     C15548   2.631   1.729   4.919  0.2111  0.4500  0.4889
  838MOL0     C15549   2.598   1.659   4.780 -1.1823 -0.4394  0.0758
  838MOL0     C15550   2.695   1.545   4.745  0.0135 -0.5493 -0.0659
  838MOL0    Cl15551   2.677   1.414   4.864 -0.3743 -0.0179 -0.0365
  838MOL0     C15552   2.650   2.577   5.353 -0.1257 -0.2409  1.5000
  838MOL0     C15553   2.633   2.718   5.355  0.8288  0.4674 -0.1660
  838MOL0     O15554   2.478   2.938   5.077 -1.0208 -0.0982 -0.3849
  838MOL0     C15555   2.345   3.145   5.313 -0.4539  0.2214 -0.5946
  838MOL0     C15556   2.272   3.260   5.336 -0.0652 -0.4889 -0.1497
  838MOL0     N15557   2.681   3.914   5.179 -0.1477 -0.1054 -0.3936
  838MOL0     N15558   2.724   3.940   5.062 -0.3402  0.8749 -1.2294
  838MOL0     C15559   3.464   3.285   4.264 -0.4821  0.4859 -0.3455
  838MOL0     C15560   3.501   3.163   4.209 -0.7403  0.8663  0.0382
  838MOL0     C15561   3.594   2.698   4.195  0.7551 -0.2407 -0.5399
  838MOL0     C15562   3.556   2.705   4.064  0.4268  0.1766  0.2681
  838MOL0     C15563   3.543   2.589   3.984 -0.0842 -0.2286 -0.3008
  838MOL0     C15564   3.578   2.464   4.039  0.6706  0.1015 -0.1138
  838MOL0     O15565   3.560   2.354   3.949 -0.1599  0.3010 -0.5110
  838MOL0     C15566   3.584   2.221   3.993  0.1553 -0.6437  0.1311
  838MOL0     C15567   3.597   2.121   3.876 -0.6224  0.5654 -0.5208
  838MOL0     C15568   3.467   2.097   3.798 -0.0256  0.3916 -0.0124
  838MOL0     C15569   3.482   2.096   3.642 -0.7367 -0.5289  0.7094
  838MOL0     C15570   3.554   1.985   3.585  0.0309  0.5763  1.1273
  838MOL0     C15571   3.615   1.888   3.558  0.5923 -0.0902 -0.8285
  838MOL0     C15572   3.600   2.459   4.175 -0.3348 -0.6734  0.3331
  838MOL0     C15573   3.611   2.568   4.259 -0.1693  0.7674 -0.8950
  838MOL0     C15574   3.614   2.548   4.414 -0.3942  0.1293 -0.2671
  838MOL0     H15575   3.512   2.987   4.505 -1.0694  1.5683  0.0486
  838MOL0     H15576   3.473   3.203   4.586 -0.4656  2.2757 -0.5665
  838MOL0     H15577   3.520   3.536   4.354 -0.0561 -0.6927  0.6273
  838MOL0     H15578   3.547   3.518   4.531 -1.6762 -1.7965  1.7723
  838MOL0     H15579   3.455   3.740   4.495 -0.2996  2.2321 -2.9705
  838MOL0     H15580   3.313   3.668   4.417 -1.0366  0.0977  1.4004
  838MOL0     H15581   3.257   3.529   4.629 -2.8067  0.5843 -0.1950
  838MOL0     H15582   3.377   3.638   4.706 -0.1217 -2.5560 -0.0582
  838MOL0     H15583   3.254   3.822   4.661  0.3930  0.3613  0.4523
  838MOL0     H15584   3.151   3.753   4.542 -0.7763 -0.1683 -0.2315
  838MOL0     H15585   3.168   3.728   4.851 -2.0123  1.1821 -0.1105
  838MOL0     H15586   3.094   3.593   4.771  3.7896 -1.1331 -3.0959
  838MOL0     H15587   3.016   3.897   4.726  0.2363 -0.0285  0.6273
  838MOL0     H15588   2.930   3.758   4.655  0.4872 -2.3847  0.2250
  838MOL0     H15589   2.964   3.811   4.943 -1.8077 -3.1414  0.8568
  838MOL0     H15590   2.872   3.680   4.871  0.1188 -0.2628  2.6278
  838MOL0     H15591   2.791   3.959   4.806  1.3061  0.2910  2.3496
  838MOL0     H15592   2.705   3.810   4.763 -0.2410  0.6378 -0.2715
  838MOL0     H15593   2.607   3.656   4.975  0.9439 -2.6040  2.5301
  838MOL0     H15594   2.566   3.745   5.368 -3.6010 -1.0715  0.1074
  838MOL0     H15595   2.635   3.613   5.300  1.1952  1.8823  1.9258
  838MOL0     H15596   2.387   3.746   5.186  0.1585  0.7288  0.8669
  838MOL0     H15597   2.431   3.579   5.148 -0.2459 -1.5693  1.8355
  838MOL0     H15598   2.421   3.524   5.396 -1.0477 -0.3994  0.4414
  838MOL0     H15599   2.369   3.691   5.420  0.6734 -0.3947  0.1419
  838MOL0     H15600   2.178   3.525   5.432  0.6221  1.0121  0.6646
  838MOL0     H15601   2.160   3.663   5.323 -3.0579 -0.7330 -0.7850
  838MOL0     H15602   2.316   3.396   5.039  1.6725 -0.3501 -1.5261
  838MOL0     H15603   2.559   3.136   4.961  0.6427 -0.1690  3.5182
  838MOL0     H15604   2.496   3.297   4.916  6.4640 -0.8929 -0.4302
  838MOL0     H15605   2.407   3.146   4.885  0.7834 -1.5102  0.5583
  838MOL0     H15606   2.359   2.717   5.158  0.1820  1.9725  2.1175
  838MOL0     H15607   2.405   2.499   5.131  1.1385  0.0128 -0.7152
  838MOL0     H15608   2.439   2.248   5.277  1.1574  0.0346  0.9964
  838MOL0     H15609   2.488   2.317   5.109  2.5303  1.6734  0.0664
  838MOL0     H15610   2.693   2.186   5.142  0.8991 -1.4159  0.8559
  838MOL0     H15611   2.617   2.101   5.270  1.2153 -0.9699  0.5961
  838MOL0     H15612   2.504   2.119   4.983 -1.7489  1.6803  1.5165
  838MOL0     H15613   2.422   2.034   5.115 -2.6115 -0.6860 -4.8406
  838MOL0     H15614   2.593   1.888   5.146  0.1194 -0.5149 -1.0294
  838MOL0     H15615   2.712   1.968   5.037  2.1022 -2.7263  2.1429
  838MOL0     H15616   2.452   1.851   4.928 -0.3786  0.5987 -0.1849
  838MOL0     H15617   2.582   1.922   4.840 -1.7936 -1.0773 -1.5206
  838MOL0     H15618   2.599   1.674   5.008  1.3824  0.7305  1.0916
  838MOL0     H15619   2.739   1.728   4.935 -0.0564 -4.1257  4.2770
  838MOL0     H15620   2.614   1.736   4.704  0.9232  0.1664  1.0365
  838MOL0     H15621   2.495   1.623   4.789 -1.6167 -0.6324 -3.7971
  838MOL0     H15622   2.793   1.592   4.755 -1.4649  2.3672  2.2171
  838MOL0     H15623   2.693   1.515   4.640  1.5949  0.3711 -0.3993
  838MOL0     H15624   2.732   2.543   5.416  0.5787 -0.4294  0.5199
  838MOL0     H15625   2.697   2.781   5.417 -1.1807  1.7593  0.7131
  838MOL0     H15626   2.350   3.083   5.403  0.4975  2.5453  1.0419
  838MOL0     H15627   2.229   3.284   5.433  1.4251  3.7659 -0.3261
  838MOL0     H15628   3.424   3.368   4.206 -0.7876  0.1824 -0.5752
  838MOL0     H15629   3.517   3.144   4.103  0.7960 -1.9579  0.6698
  838MOL0     H15630   3.529   2.803   4.025 -2.3565 -1.1283 -1.4238
  838MOL0     H15631   3.517   2.595   3.879  1.1718 -0.1919 -0.6225
  838MOL0     H15632   3.675   2.212   4.053 -0.1318  1.6782  1.0350
  838MOL0     H15633   3.494   2.198   4.051 -0.0457 -2.5201 -0.8473
  838MOL0     H15634   3.624   2.023   3.916 -1.7533  1.5357  2.9436
  838MOL0     H15635   3.673   2.155   3.805  0.6912  2.6573  1.7266
  838MOL0     H15636   3.436   1.994   3.819  0.5885  0.4412  1.2616
  838MOL0     H15637   3.386   2.167   3.822 -3.5756 -3.0845 -0.8986
  838MOL0     H15638   3.527   2.191   3.609  0.4284 -1.3662 -0.2064
  838MOL0     H15639   3.383   2.079   3.598  0.9719 -1.7751 -3.0677
  838MOL0     H15640   3.682   1.806   3.542  0.3655 -0.7223  1.1154
  838MOL0     H15641   3.575   2.364   4.221  0.9179 -1.7056 -0.9976
  838MOL0     H15642   3.608   2.641   4.470  1.5378 -1.2803  2.5300
  838MOL0     H15643   3.531   2.484   4.445 -0.0312  0.4367  1.4520
  838MOL0     H15644   3.704   2.491   4.438  0.8889  2.5310  0.9702
  839MOL0     O15645  10.583   9.247   6.370 -0.7349  0.3472 -0.2757
  839MOL0     C15646  10.679   9.287   6.438 -0.5179  1.1285  0.9286
  839MOL0     O15647  10.787   9.338   6.378  0.0078 -0.2005 -0.3240
  839MOL0     C15648  10.794   9.354   6.245 -0.4645  1.5717 -0.6470
  839MOL0     C15649  10.916   9.315   6.188  0.2393  0.5301  1.0427
  839MOL0     C15650  10.933   9.334   6.048 -0.5663  0.4422 -0.9320
  839MOL0     C15651  10.841   9.400   5.970 -0.6820  0.4684  0.7067
  839MOL0     O15652  10.876   9.427   5.836  0.2598 -0.1412 -0.7967
  839MOL0     C15653  10.870   9.560   5.793  0.5015 -0.6905  0.4512
  839MOL0     C15654  10.971   9.582   5.677 -0.5868  0.4063 -0.7121
  839MOL0     C15655  10.932   9.714   5.599  0.2994  0.1444  0.3279
  839MOL0     C15656  11.010   9.713   5.459  0.9296  0.2407 -0.2766
  839MOL0     C15657  10.982   9.819   5.358  0.4944 -0.6164 -0.6361
  839MOL0     C15658  11.008   9.959   5.422  0.1383 -0.3946  0.3276
  839MOL0     C15659  10.951  10.088   5.359  0.2298  0.1604  1.1264
  839MOL0     C15660  10.800  10.073   5.334  0.2371 -0.0811  0.5144
  839MOL0     N15661  10.726  10.194   5.300 -0.8783  1.0009  0.6318
  839MOL0     C15662  10.755  10.276   5.191  0.3454 -0.5503 -0.7155
  839MOL0     C15663  10.668  10.374   5.209  1.1396 -0.3807 -0.3262
  839MOL0     C15664  10.637  10.500   5.129 -0.3357 -0.2219 -0.7438
  839MOL0     C15665  10.746  10.605   5.124  0.2394 -0.7672 -0.3770
  839MOL0     C15666  10.876  10.548   5.069  0.1779  0.0399 -0.0580
  839MOL0     C15667  10.987  10.644   5.023  0.1294 -0.5803 -0.6572
  839MOL0     O15668  11.105  10.568   5.041  0.5289  0.2671 -0.1176
  839MOL0     C15669  11.218  10.625   4.994 -0.6004  0.0824  0.9732
  839MOL0     C15670  11.294  10.566   4.896  0.3874  0.2165 -0.1790
  839MOL0     C15671  11.417  10.617   4.847 -0.4046 -0.4428 -0.4777
  839MOL0     C15672  11.484  10.547   4.732  0.0882  1.0345  0.2571
  839MOL0     C15673  11.473  10.727   4.925 -0.0278  0.7232 -0.0722
  839MOL0     C15674  11.615  10.767   4.919  0.5841  0.3253 -0.0082
  839MOL0     O15675  11.693  10.702   4.827 -0.9534  0.3510 -0.1485
  839MOL0     C15676  11.831  10.735   4.816  0.1330  0.5151  0.3777
  839MOL0     C15677  11.931  10.642   4.850 -0.0103  0.7948  0.6165
  839MOL0     C15678  12.063  10.678   4.820  0.0397  1.1585  0.0141
  839MOL0     C15679  12.099  10.802   4.758  0.9725  0.6155  0.1667
  839MOL0     O15680  12.221  10.843   4.728 -0.2501 -0.3389  0.0155
  839MOL0     C15681  12.334  10.797   4.801 -0.8795  0.3248 -0.2158
  839MOL0     C15682  12.408  10.681   4.717 -0.5076  0.1579 -0.1030
  839MOL0     C15683  12.545  10.640   4.784  1.0000 -0.2608  0.4302
  839MOL0     C15684  12.610  10.558   4.677  0.5908 -0.0823  0.3883
  839MOL0     C15685  12.725  10.487   4.733  0.0314  0.4913 -0.5367
  839MOL0     C15686  12.829  10.448   4.623 -0.9353  0.3601  0.3715
  839MOL0     C15687  12.899  10.577   4.569 -0.2500  0.0662  0.1442
  839MOL0     C15688  13.042  10.551   4.502  0.7655  0.2822  0.0252
  839MOL0    Cl15689  13.098  10.680   4.411 -0.0246 -0.1645 -0.0737
  839MOL0     C15690  11.995  10.885   4.722  0.5912 -1.0298  0.0015
  839MOL0     C15691  11.863  10.846   4.750  0.4048 -0.3805  0.2180
  839MOL0     O15692  11.656  10.854   4.994  0.3287 -0.1921  0.3671
  839MOL0     C15693  11.388  10.795   5.015 -0.0722  0.7835  0.0836
  839MOL0     C15694  11.265  10.747   5.047  1.1585  0.1771  0.1344
  839MOL0     N15695  10.591  10.348   5.322  0.1267 -0.4678 -0.4628
  839MOL0     N15696  10.625  10.234   5.379 -0.0995  0.3896 -0.1936
  839MOL0     C15697  10.730   9.451   6.027  0.2469 -0.3828 -0.0415
  839MOL0     C15698  10.704   9.421   6.166 -0.0542  0.6193 -0.2440
  839MOL0     C15699  10.664   9.295   6.585  0.2563 -0.7233 -0.9196
  839MOL0     C15700  10.756   9.388   6.643  0.1569  0.3528 -0.3962
  839MOL0     C15701  10.764   9.407   6.781 -0.0500  0.3403 -0.6918
  839MOL0     C15702  10.682   9.341   6.866  0.6200 -0.7969  0.0921
  839MOL0     O15703  10.691   9.372   6.998 -0.1860 -0.5427  0.3770
  839MOL0     C15704  10.579   9.357   7.087 -0.5865 -0.1059  0.3527
  839MOL0     C15705  10.587   9.221   7.151  0.0883  0.5397 -0.3177
  839MOL0     C15706  10.685   9.198   7.271  0.4499 -0.6256 -0.3077
  839MOL0     C15707  10.833   9.247   7.259 -0.9316 -0.6104  0.2813
  839MOL0     C15708  10.913   9.231   7.385 -0.7216  0.1515  0.2201
  839MOL0     C15709  10.992   9.226   7.483 -0.3681  0.0410  0.2900
  839MOL0     C15710  10.588   9.255   6.813  0.6560  1.0027 -0.1198
  839MOL0     C15711  10.570   9.235   6.671  0.2585 -0.3320  1.1358
  839MOL0     C15712  10.462   9.144   6.615  0.3272  0.0164 -0.2231
  839MOL0     H15713  10.989   9.263   6.250  1.9483  2.1116  0.4640
  839MOL0     H15714  11.021   9.306   5.990  0.8436  1.2550  0.7133
  839MOL0     H15715  10.871   9.640   5.867 -2.0029 -1.6440  1.6438
  839MOL0     H15716  10.776   9.562   5.737  1.3651  1.2210 -1.0449
  839MOL0     H15717  11.070   9.598   5.720 -0.9553 -1.3275  0.9297
  839MOL0     H15718  10.977   9.494   5.612 -0.1326  0.3044 -0.5319
  839MOL0     H15719  10.825   9.722   5.579  0.5686  2.5001 -0.5736
  839MOL0     H15720  10.944   9.798   5.668 -0.9124 -0.5563  1.4285
  839MOL0     H15721  11.119   9.717   5.472  1.1581  1.7667 -2.0825
  839MOL0     H15722  10.993   9.616   5.411  3.6161  0.9039 -2.9744
  839MOL0     H15723  10.877   9.815   5.327  0.7182 -1.5076 -1.3441
  839MOL0     H15724  11.040   9.799   5.267  0.9072 -1.9273 -0.1108
  839MOL0     H15725  10.960   9.967   5.520 -0.5622  2.3769 -0.1505
  839MOL0     H15726  11.114   9.970   5.443  0.3921 -2.5266  0.3663
  839MOL0     H15727  10.989  10.106   5.258 -1.2839  3.1354  0.9802
  839MOL0     H15728  10.989  10.181   5.403  1.4389 -0.0455  0.5820
  839MOL0     H15729  10.782   9.993   5.261  1.2593 -1.2510  1.4981
  839MOL0     H15730  10.761  10.034   5.428  0.1765  0.7455  0.8414
  839MOL0     H15731  10.827  10.255   5.112  0.2740 -1.9966 -0.4221
  839MOL0     H15732  10.556  10.551   5.183  2.6154  2.4833  1.4892
  839MOL0     H15733  10.611  10.478   5.025  0.2446  0.6140 -1.0812
  839MOL0     H15734  10.711  10.690   5.065 -2.7324  0.2311  2.5007
  839MOL0     H15735  10.760  10.623   5.231 -1.8384  0.4454 -0.2481
  839MOL0     H15736  10.904  10.466   5.136 -0.8106  0.6357  1.1351
  839MOL0     H15737  10.855  10.497   4.974 -0.1496  0.3004 -0.1256
  839MOL0     H15738  10.981  10.666   4.916  0.6593  1.8956 -0.2344
  839MOL0     H15739  10.992  10.728   5.093 -0.1060 -0.1472 -1.1581
  839MOL0     H15740  11.237  10.490   4.843 -2.2006  3.5617 -2.6943
  839MOL0     H15741  11.401  10.488   4.692 -1.1650  2.7516  0.2514
  839MOL0     H15742  11.568  10.479   4.751 -1.1630 -0.4941  0.5887
  839MOL0     H15743  11.515  10.613   4.651  2.6167 -3.6794 -3.1109
  839MOL0     H15744  11.896  10.544   4.880 -3.6230  1.2097 -1.5981
  839MOL0     H15745  12.132  10.598   4.843 -1.2379 -0.2868 -0.9699
  839MOL0     H15746  12.401  10.884   4.800  1.4538 -1.3762 -0.9536
  839MOL0     H15747  12.303  10.760   4.899 -2.5201 -1.1349 -1.2256
  839MOL0     H15748  12.340  10.596   4.712 -0.6495  0.3163 -1.0512
  839MOL0     H15749  12.422  10.711   4.613 -3.3939 -0.9474 -0.9028
  839MOL0     H15750  12.530  10.581   4.875 -1.9295  1.2507  1.0682
  839MOL0     H15751  12.606  10.730   4.795 -0.2669  0.8577 -1.2366
  839MOL0     H15752  12.630  10.624   4.592 -0.7450  0.9173  0.8076
  839MOL0     H15753  12.540  10.478   4.650 -1.3204  1.2051  1.2782
  839MOL0     H15754  12.782  10.548   4.804  1.1548  0.6345 -1.5319
  839MOL0     H15755  12.693  10.391   4.775 -2.2768 -0.1254 -3.3590
  839MOL0     H15756  12.780  10.399   4.539  0.3348  2.0650 -1.4437
  839MOL0     H15757  12.912  10.387   4.661 -1.4216 -0.2893  0.3938
  839MOL0     H15758  12.905  10.653   4.647  0.9275 -0.3712  0.4960
  839MOL0     H15759  12.844  10.619   4.484 -1.8347 -1.4095  0.3797
  839MOL0     H15760  13.025  10.471   4.429  2.0502  0.7594 -0.8358
  839MOL0     H15761  13.112  10.505   4.573 -1.5102 -1.2982  1.4022
  839MOL0     H15762  12.012  10.983   4.678 -1.1970  0.0968  1.6481
  839MOL0     H15763  11.787  10.917   4.717 -1.5945 -3.7727 -3.2201
  839MOL0     H15764  11.421  10.879   5.074  0.4435  1.9657 -1.8032
  839MOL0     H15765  11.208  10.789   5.129  2.8921 -0.2280  1.6098
  839MOL0     H15766  10.654   9.503   5.969 -0.6206 -0.3744  1.0705
  839MOL0     H15767  10.611   9.451   6.213 -0.0164 -3.3625  2.8791
  839MOL0     H15768  10.815   9.462   6.591  0.5575 -0.7039 -1.4868
  839MOL0     H15769  10.831   9.482   6.820 -0.2896 -0.4795  1.4195
  839MOL0     H15770  10.608   9.429   7.164  0.0362 -2.6979  2.7106
  839MOL0     H15771  10.482   9.390   7.048  0.0124  1.4557  0.1070
  839MOL0     H15772  10.606   9.153   7.067 -1.2962 -0.4850  0.1601
  839MOL0     H15773  10.487   9.196   7.186  0.3746  1.3082  1.1119
  839MOL0     H15774  10.644   9.248   7.360  0.0631 -0.1569 -0.7393
  839MOL0     H15775  10.685   9.094   7.304 -0.5682 -0.6728 -0.4370
  839MOL0     H15776  10.845   9.352   7.233 -1.4512 -0.5491  0.2652
  839MOL0     H15777  10.879   9.197   7.174 -0.2083 -0.1374  0.3838
  839MOL0     H15778  11.042   9.231   7.577 -1.4237  3.9632  0.8066
  839MOL0     H15779  10.512   9.211   6.876  0.5288 -0.3434 -1.1880
  839MOL0     H15780  10.395   9.212   6.562 -0.1994 -2.2817 -2.7093
  839MOL0     H15781  10.508   9.081   6.538  0.1536  0.3626 -0.6123
  839MOL0     H15782  10.422   9.078   6.692  0.9058 -0.9121 -0.7006
  840MOL0     O15783   3.639  10.719   8.463  0.4157 -0.0637 -0.2021
  840MOL0     C15784   3.627  10.827   8.404  0.3641 -1.0525  0.1159
  840MOL0     O15785   3.728  10.915   8.378  0.0508 -0.2025  1.0894
  840MOL0     C15786   3.841  10.893   8.444 -1.0083 -0.3736 -0.0864
  840MOL0     C15787   3.914  10.786   8.413  0.3543 -0.4146 -0.8654
  840MOL0     C15788   4.041  10.764   8.478 -0.1027  0.5446 -0.4892
  840MOL0     C15789   4.088  10.859   8.571 -0.1583  0.0675  0.4564
  840MOL0     O15790   4.217  10.840   8.621 -0.0401 -0.1122  0.0911
  840MOL0     C15791   4.284  10.953   8.687 -0.1441  0.1989 -0.2128
  840MOL0     C15792   4.442  10.936   8.677  0.2866 -0.0068  0.4533
  840MOL0     C15793   4.482  10.924   8.529 -0.0995 -0.2778 -0.1602
  840MOL0     C15794   4.470  11.052   8.457 -0.0727  0.5899  0.1336
  840MOL0     C15795   4.475  11.025   8.312  0.7254 -0.7468 -0.6448
  840MOL0     C15796   4.416  11.133   8.221 -0.2789 -0.7978  0.0344
  840MOL0     C15797   4.260  11.159   8.232  0.0796  0.6304  0.9608
  840MOL0     C15798   4.212  11.265   8.135 -0.0474  0.7005 -0.6898
  840MOL0     N15799   4.256  11.406   8.179 -0.9220  0.3243 -0.4808
  840MOL0     C15800   4.208  11.495   8.271 -0.1618  0.7192 -0.2826
  840MOL0     C15801   4.268  11.610   8.249 -0.8930 -0.2321  0.0139
  840MOL0     C15802   4.248  11.752   8.325  1.0451  0.5754  0.6996
  840MOL0     C15803   4.381  11.805   8.364  0.3503  0.8043  1.0522
  840MOL0     C15804   4.375  11.944   8.423  0.1536 -0.1139  0.4122
  840MOL0     C15805   4.519  12.007   8.425  0.0901 -0.1564  0.3819
  840MOL0     O15806   4.589  12.003   8.298  0.2514  0.1244 -0.4091
  840MOL0     C15807   4.572  12.118   8.219 -0.4856 -0.6634 -0.1055
  840MOL0     C15808   4.513  12.115   8.098 -0.4672  0.0903  0.0277
  840MOL0     C15809   4.502  12.228   8.007 -0.3037 -0.7164 -0.1264
  840MOL0     C15810   4.409  12.201   7.888  0.1920 -0.3282 -0.5528
  840MOL0     C15811   4.578  12.348   8.044 -0.0335  0.1106  0.6257
  840MOL0     C15812   4.595  12.468   7.967 -0.3246 -0.5469  0.7526
  840MOL0     O15813   4.626  12.584   8.038 -0.3457  0.4086 -0.4213
  840MOL0     C15814   4.689  12.683   7.971 -0.6718  0.6275 -0.2911
  840MOL0     C15815   4.805  12.661   7.900 -0.5688  0.3425  0.5761
  840MOL0     C15816   4.876  12.760   7.830 -0.0931  0.4779  0.4364
  840MOL0     C15817   4.826  12.886   7.824 -0.9787  0.3371  1.0603
  840MOL0     O15818   4.868  12.990   7.738 -0.7075 -0.2611  0.7324
  840MOL0     C15819   5.010  13.019   7.741 -0.3041 -0.4142  0.0752
  840MOL0     C15820   5.031  13.163   7.698 -0.6302  0.7158 -0.6298
  840MOL0     C15821   4.984  13.188   7.556  0.7214  0.3903  0.0543
  840MOL0     C15822   5.010  13.325   7.486 -0.4406 -0.2694  0.2449
  840MOL0     C15823   4.949  13.339   7.345  0.0834  0.0856 -0.1360
  840MOL0     C15824   4.943  13.479   7.281  0.0211  0.3268 -0.6592
  840MOL0     C15825   4.851  13.479   7.160  0.6423  0.3956 -0.5233
  840MOL0     C15826   4.901  13.553   7.035 -0.1895  0.8436 -0.0246
  840MOL0    Cl15827   4.869  13.730   7.054 -0.1493 -0.4509 -0.1250
  840MOL0     C15828   4.706  12.911   7.896  0.3685 -0.3478  0.1479
  840MOL0     C15829   4.634  12.807   7.967 -0.3690  0.9464 -0.3306
  840MOL0     O15830   4.598  12.455   7.841  1.1088 -0.1183 -0.2527
  840MOL0     C15831   4.643  12.353   8.170 -0.0910  0.1363  0.0060
  840MOL0     C15832   4.633  12.241   8.261  0.0292  0.6016  0.1925
  840MOL0     N15833   4.339  11.596   8.137 -0.0110 -0.1769 -0.3172
  840MOL0     N15834   4.347  11.478   8.100  0.9585 -0.2364 -0.3511
  840MOL0     C15835   4.007  10.966   8.603 -1.0134  0.3395  0.2786
  840MOL0     C15836   3.884  10.979   8.548 -0.5418  1.0802  0.3113
  840MOL0     C15837   3.501  10.843   8.327  0.1163  0.5176 -0.1869
  840MOL0     C15838   3.504  10.903   8.203 -0.1112  0.6593 -0.3910
  840MOL0     C15839   3.394  10.917   8.109  0.6801  0.4761  0.1659
  840MOL0     C15840   3.267  10.861   8.147  0.2232 -0.2514  0.7038
  840MOL0     O15841   3.164  10.868   8.058 -0.2130 -0.1189  0.3728
  840MOL0     C15842   3.032  10.823   8.110  0.1364 -0.9560  0.7516
  840MOL0     C15843   2.935  10.830   7.994 -0.0115 -0.3742 -0.6195
  840MOL0     C15844   2.799  10.761   8.043 -0.4573  0.0776  0.0426
  840MOL0     C15845   2.687  10.767   7.937 -0.5858 -0.0251  0.0737
  840MOL0     C15846   2.662  10.905   7.909 -0.7390 -0.5166 -0.5314
  840MOL0     C15847   2.642  11.019   7.875 -0.6777  0.4754  0.1947
  840MOL0     C15848   3.266  10.799   8.276 -0.7723 -0.7135  0.8617
  840MOL0     C15849   3.372  10.795   8.367  0.2693  0.5731  0.4051
  840MOL0     C15850   3.341  10.743   8.508 -0.2691  0.2545  0.5395
  840MOL0     H15851   3.870  10.736   8.327 -0.2457  2.1096 -2.1025
  840MOL0     H15852   4.105  10.678   8.464  1.1427  1.6102 -1.6630
  840MOL0     H15853   4.251  10.945   8.791 -3.4830 -2.1368 -1.2823
  840MOL0     H15854   4.256  11.051   8.648 -0.8638 -0.0272 -0.2829
  840MOL0     H15855   4.500  11.019   8.718  1.1696 -0.2124 -0.3299
  840MOL0     H15856   4.469  10.842   8.725  0.7867  0.3876  0.9644
  840MOL0     H15857   4.583  10.885   8.518 -0.4126 -0.7491 -1.6237
  840MOL0     H15858   4.420  10.849   8.479  0.5144 -0.6972 -0.3034
  840MOL0     H15859   4.387  11.118   8.485  0.5858  2.1178 -1.3822
  840MOL0     H15860   4.556  11.109   8.492  0.6119 -1.4285  1.9808
  840MOL0     H15861   4.405  10.945   8.285  2.8333 -0.8306 -8.1031
  840MOL0     H15862   4.577  11.001   8.280  2.0764  3.4203  0.0101
  840MOL0     H15863   4.472  11.227   8.221 -1.5471  0.0433 -2.3302
  840MOL0     H15864   4.426  11.082   8.125  0.4525  0.3137 -0.5034
  840MOL0     H15865   4.230  11.200   8.328 -0.9814 -0.1268  0.9730
  840MOL0     H15866   4.203  11.066   8.221  1.0488 -0.0012  1.1499
  840MOL0     H15867   4.255  11.239   8.038  0.9279 -1.1928  0.1954
  840MOL0     H15868   4.102  11.270   8.136 -0.0418  1.8858 -2.3478
  840MOL0     H15869   4.156  11.462   8.360  0.4183 -1.3201 -0.6427
  840MOL0     H15870   4.183  11.748   8.412 -1.5927 -0.3594 -1.1983
  840MOL0     H15871   4.197  11.814   8.251  1.0391  0.7215  0.8269
  840MOL0     H15872   4.420  11.740   8.442 -2.3804 -2.8692 -0.3627
  840MOL0     H15873   4.451  11.798   8.280  0.9192 -1.0004  1.6471
  840MOL0     H15874   4.311  11.998   8.352  2.6646  1.7210 -0.5869
  840MOL0     H15875   4.326  11.953   8.520 -0.3323  0.1609  0.1465
  840MOL0     H15876   4.516  12.108   8.466 -1.4889 -0.1092  0.2197
  840MOL0     H15877   4.583  11.950   8.494  2.4346 -0.3784 -1.8182
  840MOL0     H15878   4.469  12.017   8.082 -1.5687  0.1687  2.1358
  840MOL0     H15879   4.473  12.159   7.810  1.7360  4.5989 -2.3335
  840MOL0     H15880   4.372  12.295   7.845 -0.9842 -0.5060  0.0260
  840MOL0     H15881   4.323  12.137   7.909 -0.7762  0.0760 -3.0371
  840MOL0     H15882   4.846  12.561   7.900  0.4288  0.7372  0.6453
  840MOL0     H15883   4.967  12.730   7.778  1.8519 -0.8572  4.2074
  840MOL0     H15884   5.040  12.993   7.843 -2.2420  0.5944  0.9486
  840MOL0     H15885   5.064  12.947   7.679 -1.9148 -3.0403  1.5234
  840MOL0     H15886   4.977  13.229   7.767 -2.0264  0.3530 -1.3432
  840MOL0     H15887   5.139  13.182   7.694 -0.4086 -0.6833 -2.7402
  840MOL0     H15888   4.875  13.182   7.559  0.7720 -1.0298  3.4307
  840MOL0     H15889   5.024  13.114   7.487  0.2597  2.1547 -2.2306
  840MOL0     H15890   5.118  13.334   7.467 -0.2564 -2.2270  0.1664
  840MOL0     H15891   4.990  13.411   7.550  0.7763 -0.6115  1.1349
  840MOL0     H15892   5.013  13.270   7.289  1.8086 -0.6992  2.6038
  840MOL0     H15893   4.848  13.298   7.343  0.9884 -2.3058 -1.9257
  840MOL0     H15894   5.042  13.504   7.243 -0.2135 -0.0024 -1.5035
  840MOL0     H15895   4.918  13.551   7.359  3.6629  0.7882  0.2662
  840MOL0     H15896   4.765  13.526   7.209  1.3170  0.1838  0.8980
  840MOL0     H15897   4.815  13.381   7.128 -0.3765  0.8357 -0.7685
  840MOL0     H15898   4.834  13.514   6.957 -1.2015 -3.5218  2.6725
  840MOL0     H15899   5.006  13.533   7.011  0.2418  1.6151  1.1547
  840MOL0     H15900   4.672  13.013   7.890 -0.3797 -0.6257 -0.5683
  840MOL0     H15901   4.542  12.823   8.022 -1.1555 -1.2541 -0.9023
  840MOL0     H15902   4.709  12.435   8.195  1.9631 -0.7592 -2.0746
  840MOL0     H15903   4.684  12.249   8.357 -0.3682 -1.7457  0.6498
  840MOL0     H15904   4.046  11.037   8.674  1.7965 -0.9380  0.1567
  840MOL0     H15905   3.807  11.048   8.583 -0.5405  1.7474 -0.9510
  840MOL0     H15906   3.596  10.955   8.181  1.3237 -1.4833  0.2975
  840MOL0     H15907   3.408  10.973   8.018 -2.1544  0.3917 -0.3934
  840MOL0     H15908   3.041  10.725   8.156  1.0367 -0.8205  0.8839
  840MOL0     H15909   2.996  10.887   8.191 -2.3022 -1.7280  0.3470
  840MOL0     H15910   2.978  10.778   7.908  0.4591 -1.2806  0.1435
  840MOL0     H15911   2.925  10.938   7.980 -2.1013 -0.7587 -2.6700
  840MOL0     H15912   2.809  10.654   8.064 -3.6726 -0.4863 -0.6651
  840MOL0     H15913   2.755  10.806   8.133  0.2756  0.3142  0.2895
  840MOL0     H15914   2.596  10.712   7.962 -1.2006  0.3824 -1.1688
  840MOL0     H15915   2.718  10.710   7.850 -0.6414 -0.8390  0.5787
  840MOL0     H15916   2.642  11.119   7.836  0.0531  0.6537  0.6399
  840MOL0     H15917   3.166  10.774   8.308 -1.5235  1.5070  0.4537
  840MOL0     H15918   3.232  10.745   8.521 -0.4839  0.2013 -0.9680
  840MOL0     H15919   3.371  10.639   8.519 -0.3444  0.3910  2.3319
  840MOL0     H15920   3.386  10.804   8.587 -0.5947 -1.1704  1.8683
  841MOL0     O15921   0.566   5.957   0.873  0.0787 -0.5414 -0.1529
  841MOL0     C15922   0.501   5.988   0.777 -0.0918 -0.1067  0.1769
  841MOL0     O15923   0.397   6.079   0.776  0.0497  1.1105  0.2282
  841MOL0     C15924   0.392   6.156   0.890  0.0760 -0.4188  0.3099
  841MOL0     C15925   0.466   6.273   0.901  0.4456  0.9699 -0.1750
  841MOL0     C15926   0.465   6.337   1.017  0.0236 -0.3405  0.6758
  841MOL0     C15927   0.378   6.314   1.121  0.2323 -0.9168 -0.5855
  841MOL0     O15928   0.367   6.378   1.240  1.1040  0.4822 -0.2838
  841MOL0     C15929   0.489   6.421   1.289 -0.6797 -0.3599  0.2093
  841MOL0     C15930   0.481   6.425   1.440 -0.3876 -0.1542 -0.1154
  841MOL0     C15931   0.628   6.421   1.495  0.0462  0.2360  0.5387
  841MOL0     C15932   0.610   6.415   1.655  0.2575 -0.1328  0.3195
  841MOL0     C15933   0.748   6.431   1.722 -0.7860 -0.3728  0.4992
  841MOL0     C15934   0.731   6.449   1.872  0.7562 -0.5335  0.2933
  841MOL0     C15935   0.862   6.457   1.958  0.4979 -1.1443  0.0975
  841MOL0     C15936   0.860   6.573   2.059  1.1870  0.2659  0.4068
  841MOL0     N15937   0.750   6.570   2.149  0.5908 -0.0455 -0.5604
  841MOL0     C15938   0.649   6.669   2.171 -0.7869  0.2526  1.0480
  841MOL0     C15939   0.573   6.615   2.271 -0.0088  0.0916  0.7899
  841MOL0     C15940   0.442   6.679   2.323  0.0636 -0.7193  0.0607
  841MOL0     C15941   0.464   6.801   2.419 -0.4458  0.0787 -0.2805
  841MOL0     C15942   0.516   6.924   2.357  0.3394  0.4924  0.1195
  841MOL0     C15943   0.668   6.954   2.377  0.4547 -0.5670 -0.9721
  841MOL0     O15944   0.717   7.087   2.336 -0.3201  0.7781  0.6362
  841MOL0     C15945   0.662   7.150   2.230 -0.5686  0.1064  0.4712
  841MOL0     C15946   0.633   7.284   2.226 -0.2241  0.0378  0.6039
  841MOL0     C15947   0.574   7.347   2.118 -0.6659 -0.5849  0.0441
  841MOL0     C15948   0.536   7.499   2.144  0.0066  0.3452 -0.1017
  841MOL0     C15949   0.559   7.272   1.995 -0.2710 -1.3732 -0.8563
  841MOL0     C15950   0.510   7.336   1.869  0.4844  0.0164 -0.3332
  841MOL0     O15951   0.443   7.255   1.779 -0.7651 -0.3216 -0.4358
  841MOL0     C15952   0.376   7.292   1.670  0.6074  0.3542  0.2086
  841MOL0     C15953   0.362   7.206   1.569  0.4332 -0.0057  1.1142
  841MOL0     C15954   0.278   7.221   1.454 -0.1870  0.6286 -0.2063
  841MOL0     C15955   0.199   7.340   1.448 -0.1414 -0.4219  0.3109
  841MOL0     O15956   0.104   7.363   1.350  0.1882 -0.8034  0.3309
  841MOL0     C15957   0.037   7.259   1.282 -0.7062 -0.5673  0.2805
  841MOL0     C15958  -0.060   7.303   1.175  0.4714 -0.4711  0.8159
  841MOL0     C15959  -0.147   7.181   1.123 -0.2641 -0.2302  0.8787
  841MOL0     C15960  -0.286   7.171   1.195 -0.4102 -0.0532  0.6211
  841MOL0     C15961  -0.375   7.051   1.147 -0.1549 -0.4442 -0.5275
  841MOL0     C15962  -0.420   7.057   1.011  0.4128  0.3746  0.2203
  841MOL0     C15963  -0.536   6.959   0.986  1.5982  0.0031 -0.1485
  841MOL0     C15964  -0.662   7.039   0.960 -0.4091 -0.5045 -0.5893
  841MOL0    Cl15965  -0.715   7.049   0.792 -0.0237 -0.5132  0.0783
  841MOL0     C15966   0.210   7.433   1.557 -1.0014  0.5972  0.2186
  841MOL0     C15967   0.292   7.403   1.663 -0.0670  0.1872  0.5673
  841MOL0     O15968   0.515   7.458   1.861 -0.5124 -0.1569  0.5106
  841MOL0     C15969   0.593   7.136   1.993  0.5572  0.0468 -0.0111
  841MOL0     C15970   0.645   7.075   2.114  0.2740 -0.2678  0.3354
  841MOL0     N15971   0.630   6.490   2.300 -0.3026  0.2824 -0.5750
  841MOL0     N15972   0.737   6.469   2.236 -0.8753 -0.4637  0.2114
  841MOL0     C15973   0.305   6.192   1.119 -1.0177  0.1595  0.4044
  841MOL0     C15974   0.320   6.112   1.007 -0.1388 -0.9713  0.8348
  841MOL0     C15975   0.525   5.932   0.639 -0.0342 -0.5628  0.5790
  841MOL0     C15976   0.445   5.983   0.530 -0.2812  0.1895  0.0362
  841MOL0     C15977   0.480   5.937   0.406  0.0200  0.8320  0.1997
  841MOL0     C15978   0.567   5.844   0.384 -0.3064  0.2600 -0.7981
  841MOL0     O15979   0.596   5.801   0.259 -0.2911 -0.3537 -0.0249
  841MOL0     C15980   0.626   5.666   0.224  0.1752  0.8122  0.4742
  841MOL0     C15981   0.771   5.632   0.219  0.1100  0.6630 -0.2270
  841MOL0     C15982   0.815   5.486   0.255  0.1139  0.5073 -0.3385
  841MOL0     C15983   0.753   5.384   0.164  0.3686 -0.9031  0.0192
  841MOL0     C15984   0.815   5.259   0.199  0.5889  0.4563 -0.6099
  841MOL0     C15985   0.863   5.150   0.237 -0.2201  0.1208  0.8676
  841MOL0     C15986   0.639   5.791   0.496  0.1051 -0.1275  0.7648
  841MOL0     C15987   0.622   5.838   0.619  1.0521  0.1835  0.3534
  841MOL0     C15988   0.709   5.777   0.724  0.9617 -0.3909  0.4746
  841MOL0     H15989   0.514   6.298   0.807  3.1357 -0.7269  0.6457
  841MOL0     H15990   0.527   6.426   1.013 -0.2677 -0.1103  1.2426
  841MOL0     H15991   0.513   6.521   1.251  1.0397 -1.1679 -1.0078
  841MOL0     H15992   0.580   6.370   1.254  1.1558  0.9203  2.7610
  841MOL0     H15993   0.419   6.506   1.480 -1.6491 -1.9781  1.8056
  841MOL0     H15994   0.441   6.328   1.471  1.4450 -0.5898  1.0221
  841MOL0     H15995   0.665   6.322   1.467 -1.5538 -0.1654 -0.2482
  841MOL0     H15996   0.696   6.496   1.454  0.8928 -0.6115  0.3333
  841MOL0     H15997   0.545   6.497   1.687 -0.1011 -0.2100 -0.1912
  841MOL0     H15998   0.564   6.319   1.679 -0.2577 -0.3693 -1.4531
  841MOL0     H15999   0.799   6.519   1.682  1.3206 -2.0939 -0.8076
  841MOL0     H16000   0.813   6.346   1.704 -0.7631 -0.6692  1.8749
  841MOL0     H16001   0.679   6.543   1.891  0.2365 -0.6020 -0.7295
  841MOL0     H16002   0.671   6.370   1.918  0.9354  0.1080  1.6874
  841MOL0     H16003   0.954   6.463   1.900  1.3141  2.9594  1.4818
  841MOL0     H16004   0.865   6.366   2.018 -0.4226  0.0833  2.1074
  841MOL0     H16005   0.956   6.590   2.109  1.1336 -0.5645  0.8163
  841MOL0     H16006   0.845   6.663   1.999 -2.2017 -0.3145  0.1703
  841MOL0     H16007   0.636   6.761   2.115  2.1040  0.8794  1.2428
  841MOL0     H16008   0.389   6.597   2.373  0.5748  0.1305  2.0901
  841MOL0     H16009   0.378   6.708   2.239 -0.7826 -2.6161 -0.0020
  841MOL0     H16010   0.368   6.828   2.465 -0.6464 -1.5467  0.2980
  841MOL0     H16011   0.528   6.767   2.501  1.4955  2.1975 -0.8242
  841MOL0     H16012   0.498   6.916   2.250 -1.7301 -0.7186  0.5063
  841MOL0     H16013   0.465   7.014   2.391 -0.6715  0.2761 -0.7936
  841MOL0     H16014   0.691   6.949   2.484 -2.9132 -2.5274 -0.1997
  841MOL0     H16015   0.723   6.871   2.330  0.1925 -0.9620 -0.5827
  841MOL0     H16016   0.666   7.352   2.304  0.3805  3.0971 -2.1257
  841MOL0     H16017   0.600   7.567   2.086 -0.7098  0.2419 -1.0163
  841MOL0     H16018   0.549   7.532   2.248 -3.1911  1.3849  0.0532
  841MOL0     H16019   0.432   7.491   2.112  0.0703 -1.3778  0.0411
  841MOL0     H16020   0.425   7.119   1.586  2.6763  1.0288 -1.3045
  841MOL0     H16021   0.273   7.150   1.372 -1.3349 -3.3607  2.9634
  841MOL0     H16022   0.102   7.179   1.245 -0.3243  0.5823 -1.6779
  841MOL0     H16023  -0.030   7.210   1.353 -1.6720 -2.0129 -1.5193
  841MOL0     H16024  -0.126   7.386   1.200 -2.2956 -2.2825  0.0551
  841MOL0     H16025  -0.005   7.336   1.086 -0.9561 -2.2054 -0.8186
  841MOL0     H16026  -0.096   7.085   1.128  2.2709  0.9545 -0.6077
  841MOL0     H16027  -0.174   7.184   1.017 -0.4117  0.5246  0.9326
  841MOL0     H16028  -0.345   7.263   1.196 -1.1632 -0.5222  2.7489
  841MOL0     H16029  -0.267   7.158   1.302 -0.2696 -0.4958  0.5439
  841MOL0     H16030  -0.325   6.957   1.169  2.1787  1.0754  1.0646
  841MOL0     H16031  -0.463   7.061   1.211 -0.0936  2.3030 -0.7601
  841MOL0     H16032  -0.333   7.034   0.950  0.0527  1.4648 -0.7476
  841MOL0     H16033  -0.455   7.159   0.990 -1.3380  0.1033  1.5177
  841MOL0     H16034  -0.538   6.890   1.070  2.8966  2.0955  1.6928
  841MOL0     H16035  -0.517   6.915   0.887  1.9518  2.7279 -1.3841
  841MOL0     H16036  -0.641   7.137   1.005 -4.3221 -0.7584  2.3556
  841MOL0     H16037  -0.750   6.996   1.009 -0.8000  2.2085  1.3210
  841MOL0     H16038   0.159   7.528   1.568  0.7954  1.4733  1.3583
  841MOL0     H16039   0.288   7.463   1.753 -1.4346 -2.4235  2.3726
  841MOL0     H16040   0.569   7.079   1.904  0.1080  1.9091 -1.1275
  841MOL0     H16041   0.648   6.967   2.110 -2.8961 -0.5646  2.7185
  841MOL0     H16042   0.248   6.157   1.204  2.5763 -1.9394  2.1746
  841MOL0     H16043   0.278   6.012   1.007 -2.0288 -0.2495 -1.1269
  841MOL0     H16044   0.369   6.060   0.537 -2.0440 -1.5456  0.8776
  841MOL0     H16045   0.437   5.991   0.322 -1.4639  0.5431  0.7482
  841MOL0     H16046   0.572   5.609   0.301 -0.5993  3.7851  2.2935
  841MOL0     H16047   0.577   5.643   0.129 -3.0089  1.9752  1.7183
  841MOL0     H16048   0.823   5.688   0.297  1.0717 -2.2852  1.4003
  841MOL0     H16049   0.818   5.662   0.125  0.2857  2.9803  0.5373
  841MOL0     H16050   0.923   5.470   0.248  0.2622  0.5739  1.3958
  841MOL0     H16051   0.778   5.466   0.356  0.0588 -3.3032 -0.9636
  841MOL0     H16052   0.770   5.408   0.058 -1.3640 -0.1945 -0.1288
  841MOL0     H16053   0.644   5.380   0.174  0.2129  2.2476  0.6605
  841MOL0     H16054   0.916   5.061   0.265  0.8075 -0.1469 -1.6357
  841MOL0     H16055   0.712   5.712   0.481  0.5044  0.3412  0.1783
  841MOL0     H16056   0.764   5.857   0.773 -0.3027  0.5509  0.4169
  841MOL0     H16057   0.652   5.718   0.797 -0.6354  0.6312  0.1051
  841MOL0     H16058   0.791   5.719   0.679  1.6824  2.9420 -2.9811
  842MOL0     O16059  10.526   1.699   1.388 -0.3104  0.5122 -1.1022
  842MOL0     C16060  10.420   1.692   1.448 -0.0458 -0.4167 -0.3020
  842MOL0     O16061  10.390   1.782   1.551  0.1485  0.3938  0.8783
  842MOL0     C16062  10.482   1.856   1.609 -0.5189 -0.8769 -0.6666
  842MOL0     C16063  10.562   1.946   1.540 -1.4594  0.1384  0.2418
  842MOL0     C16064  10.645   2.043   1.603 -0.0600  0.5056  0.3353
  842MOL0     C16065  10.658   2.031   1.749  0.1353 -0.4483  0.0723
  842MOL0     O16066  10.739   2.102   1.827 -0.0657 -0.2463 -0.5158
  842MOL0     C16067  10.829   2.200   1.767 -0.5683 -0.9744  0.1066
  842MOL0     C16068  10.957   2.140   1.696 -0.2911  0.5801  0.6755
  842MOL0     C16069  11.044   2.046   1.784 -0.1244  0.1357  0.8744
  842MOL0     C16070  11.151   1.961   1.713 -0.3557 -0.1175 -0.4097
  842MOL0     C16071  11.278   2.045   1.657 -0.1728  0.3252  0.3522
  842MOL0     C16072  11.362   1.940   1.593 -0.1184 -0.0612 -0.7341
  842MOL0     C16073  11.499   1.985   1.572  0.3052 -0.2882 -0.4525
  842MOL0     C16074  11.601   1.882   1.507 -0.2989  0.4449  0.6700
  842MOL0     N16075  11.661   1.778   1.591 -0.0869 -0.1364 -0.4005
  842MOL0     C16076  11.600   1.703   1.696 -0.2789  0.5344  0.5827
  842MOL0     C16077  11.700   1.632   1.753  0.0746 -0.1117  0.0187
  842MOL0     C16078  11.703   1.536   1.864  0.5720 -0.1039 -0.0842
  842MOL0     C16079  11.566   1.509   1.917  0.9600  0.8224 -0.4075
  842MOL0     C16080  11.493   1.407   1.816 -0.1431  0.1057 -0.0941
  842MOL0     C16081  11.356   1.335   1.862 -0.2772 -0.3919  0.4467
  842MOL0     O16082  11.256   1.430   1.882  0.5449 -0.0221 -0.8606
  842MOL0     C16083  11.122   1.410   1.865  0.4904 -0.0778 -0.3155
  842MOL0     C16084  11.038   1.521   1.866 -0.4011 -0.4858  0.1940
  842MOL0     C16085  10.898   1.503   1.860  0.3758 -1.7908 -0.3204
  842MOL0     C16086  10.820   1.626   1.861 -1.0142  0.4254  0.0019
  842MOL0     C16087  10.843   1.380   1.837  0.3108  0.1911 -0.5279
  842MOL0     C16088  10.695   1.350   1.806 -0.0931  0.1281 -1.0206
  842MOL0     O16089  10.673   1.222   1.758 -0.1907 -0.6744  0.3698
  842MOL0     C16090  10.556   1.209   1.685  0.3846  1.1871  0.8982
  842MOL0     C16091  10.543   1.248   1.549 -0.0984  0.1887  1.0651
  842MOL0     C16092  10.424   1.211   1.480 -0.1836  0.2798 -0.6996
  842MOL0     C16093  10.320   1.136   1.540  0.8444 -0.5686  0.1973
  842MOL0     O16094  10.194   1.124   1.481  0.2217  0.1625 -0.6023
  842MOL0     C16095  10.191   1.079   1.353  0.5206  1.2048 -0.3101
  842MOL0     C16096  10.053   1.002   1.341 -0.1445 -0.1891  0.8841
  842MOL0     C16097  10.020   0.886   1.441 -0.8427 -0.7592 -0.0388
  842MOL0     C16098   9.870   0.857   1.460  0.5538 -0.9979  0.7267
  842MOL0     C16099   9.845   0.763   1.572  1.3220  0.8507 -0.5643
  842MOL0     C16100   9.699   0.721   1.592 -0.1244  0.6365  0.3096
  842MOL0     C16101   9.698   0.603   1.692  0.5114  0.2351  0.6464
  842MOL0     C16102   9.557   0.541   1.702 -0.0855 -0.3682 -0.6945
  842MOL0    Cl16103   9.536   0.405   1.828  0.2415 -0.5138  0.2303
  842MOL0     C16104  10.331   1.092   1.666 -0.1758 -0.0538 -1.3015
  842MOL0     C16105  10.456   1.118   1.727  0.0321 -0.8801  0.2641
  842MOL0     O16106  10.606   1.434   1.824 -0.0400  0.2174 -0.1949
  842MOL0     C16107  10.934   1.270   1.823 -0.8455 -0.1725 -0.5123
  842MOL0     C16108  11.071   1.282   1.839 -1.6590 -0.0691 -0.0883
  842MOL0     N16109  11.819   1.651   1.676  0.4686 -0.2071 -0.0427
  842MOL0     N16110  11.791   1.744   1.588 -0.3466 -0.3850  0.5379
  842MOL0     C16111  10.566   1.948   1.817 -0.1218  0.5101  0.1983
  842MOL0     C16112  10.481   1.870   1.745  1.0433  0.4308 -0.7552
  842MOL0     C16113  10.310   1.602   1.408  0.5896  0.6107 -0.4730
  842MOL0     C16114  10.287   1.573   1.276  0.1479 -0.7708  0.1165
  842MOL0     C16115  10.185   1.501   1.219  0.5329  0.1521  0.1224
  842MOL0     C16116  10.081   1.441   1.302 -0.5495  0.1024 -0.1319
  842MOL0     O16117   9.982   1.355   1.264 -0.2658  0.1555 -0.6882
  842MOL0     C16118   9.956   1.345   1.127  0.4108  0.3593  0.3457
  842MOL0     C16119   9.850   1.444   1.084  0.3733 -0.4922 -0.5865
  842MOL0     C16120   9.720   1.440   1.171 -0.1358  0.8509  0.4154
  842MOL0     C16121   9.607   1.547   1.150 -0.5073  0.0433  0.1828
  842MOL0     C16122   9.557   1.534   1.013  1.0048  0.4719  0.0271
  842MOL0     C16123   9.519   1.509   0.903 -0.3737  0.2641  0.3838
  842MOL0     C16124  10.103   1.468   1.439  0.4529  0.3255 -1.0535
  842MOL0     C16125  10.213   1.543   1.503 -0.0552  0.0934 -0.1117
  842MOL0     C16126  10.236   1.548   1.651  0.1929  0.6679  0.3968
  842MOL0     H16127  10.568   1.934   1.432  0.7785 -0.8795  0.4099
  842MOL0     H16128  10.699   2.107   1.534 -1.0856  1.7942  0.6930
  842MOL0     H16129  10.874   2.262   1.846 -0.8160  1.3253 -1.4779
  842MOL0     H16130  10.787   2.281   1.707  0.2858  0.3032  1.1633
  842MOL0     H16131  10.929   2.092   1.601 -0.1747  1.7499  0.0343
  842MOL0     H16132  11.027   2.213   1.654  1.6364 -2.9986 -3.1582
  842MOL0     H16133  11.093   2.104   1.863  2.1445 -1.4785  0.7406
  842MOL0     H16134  10.966   1.981   1.826 -1.0586 -0.3067 -1.3949
  842MOL0     H16135  11.188   1.887   1.785 -2.9800  0.4121  1.6401
  842MOL0     H16136  11.102   1.914   1.627 -2.2904  0.3245  0.4144
  842MOL0     H16137  11.321   2.101   1.740 -1.6266  0.6080  0.9479
  842MOL0     H16138  11.239   2.123   1.591 -1.3824  0.9262  1.7208
  842MOL0     H16139  11.353   1.846   1.648  0.3770 -0.1599 -0.8167
  842MOL0     H16140  11.315   1.910   1.499  0.1357 -1.7170 -0.3611
  842MOL0     H16141  11.539   2.014   1.670 -0.6018  1.4237 -0.5382
  842MOL0     H16142  11.504   2.077   1.513 -0.9473 -0.8420 -1.4571
  842MOL0     H16143  11.546   1.822   1.434  1.0930  0.8524 -0.7877
  842MOL0     H16144  11.675   1.944   1.455 -2.1334  1.4477 -0.8904
  842MOL0     H16145  11.496   1.683   1.720 -0.0228  0.4530  1.6775
  842MOL0     H16146  11.754   1.606   1.930 -0.7761  2.6292 -1.7391
  842MOL0     H16147  11.761   1.448   1.835  0.7498 -0.9925  2.7230
  842MOL0     H16148  11.573   1.471   2.020  0.2514  1.3865 -0.1397
  842MOL0     H16149  11.511   1.603   1.930  2.5725  1.9766 -1.4918
  842MOL0     H16150  11.457   1.461   1.728 -0.7711  2.4745  1.5249
  842MOL0     H16151  11.577   1.341   1.793  2.7752  2.8922  1.8077
  842MOL0     H16152  11.327   1.262   1.787 -0.8010  1.2356 -0.9999
  842MOL0     H16153  11.367   1.301   1.966 -1.2345  2.6959  1.7007
  842MOL0     H16154  11.089   1.616   1.857  2.4038 -1.8733  0.0796
  842MOL0     H16155  10.780   1.630   1.963 -0.5603  1.6426  0.1544
  842MOL0     H16156  10.745   1.636   1.782 -0.4323 -2.5211 -1.0367
  842MOL0     H16157  10.889   1.710   1.849  0.6823 -0.6944  1.4703
  842MOL0     H16158  10.616   1.307   1.496 -1.0256  2.5042  2.2330
  842MOL0     H16159  10.420   1.249   1.379  1.1983  2.6341  0.0255
  842MOL0     H16160  10.203   1.167   1.290 -1.6605  2.5008  0.9707
  842MOL0     H16161  10.266   1.001   1.337 -2.8739 -2.1383 -1.3511
  842MOL0     H16162   9.983   1.086   1.349  0.9659  1.0909 -1.6953
  842MOL0     H16163  10.059   0.969   1.237  1.5442 -0.4056  1.0291
  842MOL0     H16164  10.047   0.914   1.543 -2.5902  2.6995 -0.3671
  842MOL0     H16165  10.083   0.800   1.416  1.4233  1.0322 -0.8124
  842MOL0     H16166   9.852   0.790   1.375  1.7319 -1.9313  1.1931
  842MOL0     H16167   9.806   0.945   1.448  0.6567 -0.9376  0.6119
  842MOL0     H16168   9.914   0.679   1.561  1.0950  0.6652 -0.5708
  842MOL0     H16169   9.874   0.820   1.661  2.5807 -2.0846  1.0715
  842MOL0     H16170   9.664   0.684   1.495 -2.3659  0.5087  1.1097
  842MOL0     H16171   9.636   0.810   1.608 -1.2285  0.2535 -1.5702
  842MOL0     H16172   9.735   0.630   1.791  1.3233  0.7914  0.2076
  842MOL0     H16173   9.760   0.519   1.660  0.7098  0.4599  0.4372
  842MOL0     H16174   9.523   0.508   1.603 -2.4904 -0.8319  0.2317
  842MOL0     H16175   9.494   0.625   1.733  0.1147  0.7394 -3.0413
  842MOL0     H16176  10.251   1.042   1.719 -0.1190  1.6559  0.5139
  842MOL0     H16177  10.472   1.089   1.831 -0.4928  3.7081  1.8801
  842MOL0     H16178  10.908   1.168   1.794 -0.8833 -0.3705  0.1959
  842MOL0     H16179  11.137   1.196   1.834  0.9829  1.5081  3.2262
  842MOL0     H16180  10.571   1.958   1.925 -3.0138 -1.1992  0.6163
  842MOL0     H16181  10.392   1.828   1.792  0.6491  0.0682 -1.7762
  842MOL0     H16182  10.368   1.610   1.214 -0.6275 -0.9700 -1.0478
  842MOL0     H16183  10.192   1.482   1.113  2.8142 -0.6293  0.3475
  842MOL0     H16184  10.049   1.365   1.072  0.8891  3.1786  1.9762
  842MOL0     H16185   9.938   1.239   1.112  1.5303  0.5410 -3.2062
  842MOL0     H16186   9.824   1.419   0.981  1.8429  0.5239 -1.2234
  842MOL0     H16187   9.877   1.549   1.089 -0.8731 -0.2062  0.9571
  842MOL0     H16188   9.675   1.340   1.177 -2.3504  1.8209  1.0150
  842MOL0     H16189   9.767   1.448   1.270 -0.2328 -2.0398  0.7935
  842MOL0     H16190   9.664   1.641   1.157  1.0179 -0.8298 -0.0581
  842MOL0     H16191   9.534   1.545   1.231 -0.5616  1.1425  0.1808
  842MOL0     H16192   9.447   1.482   0.829 -1.4331  0.5152  1.3062
  842MOL0     H16193  10.025   1.425   1.501  3.3392 -0.6966  2.1820
  842MOL0     H16194  10.168   1.474   1.694  1.0004  0.0105  0.5656
  842MOL0     H16195  10.336   1.514   1.680 -1.8862 -3.9753  3.3377
  842MOL0     H16196  10.217   1.646   1.696  1.1496  2.0823 -2.0789
  843MOL0     O16197  10.875   2.615   9.483  0.0859 -0.1842  0.0097
  843MOL0     C16198  10.844   2.653   9.371 -0.8878  0.3320 -0.1385
  843MOL0     O16199  10.748   2.750   9.349  0.3080 -0.5636  0.1213
  843MOL0     C16200  10.688   2.800   9.463 -0.0723 -0.6958 -0.5983
  843MOL0     C16201  10.755   2.894   9.552  1.1426 -0.6351  1.0571
  843MOL0     C16202  10.688   2.939   9.669 -0.3379  0.5113  0.5276
  843MOL0     C16203  10.556   2.900   9.697 -0.3956 -0.5475 -0.2878
  843MOL0     O16204  10.503   2.947   9.815 -0.2883  0.2271  0.1258
  843MOL0     C16205  10.367   2.921   9.853  0.1971  0.4724  0.1174
  843MOL0     C16206  10.360   2.973  10.000  0.4711  0.7944  0.4375
  843MOL0     C16207  10.364   3.122  10.009  0.2509 -0.1214 -0.0871
  843MOL0     C16208  10.354   3.184  10.144 -0.4248  0.8270  0.4867
  843MOL0     C16209  10.210   3.201  10.198 -0.6107 -0.7742 -0.9830
  843MOL0     C16210  10.206   3.177  10.352  0.3786 -0.1020 -1.1187
  843MOL0     C16211  10.072   3.206  10.423  0.0374  0.0344 -0.7143
  843MOL0     C16212   9.960   3.104  10.380 -0.3189  0.8432 -0.3892
  843MOL0     N16213   9.825   3.153  10.407  0.5728 -0.7201 -0.0220
  843MOL0     C16214   9.753   3.238  10.326 -0.5132 -0.0251  0.5088
  843MOL0     C16215   9.638   3.264  10.396  0.2816 -0.0008 -0.0625
  843MOL0     C16216   9.513   3.334  10.350  0.5313 -0.0414 -0.1598
  843MOL0     C16217   9.390   3.246  10.354 -0.2101  0.3545 -0.0198
  843MOL0     C16218   9.270   3.324  10.294 -1.3870  0.1524 -0.1127
  843MOL0     C16219   9.137   3.237  10.293  0.5952  0.1674  0.4807
  843MOL0     O16220   9.086   3.197  10.426 -0.2972 -0.5567 -0.2492
  843MOL0     C16221   8.954   3.172  10.446  0.2177 -1.0388  1.0284
  843MOL0     C16222   8.885   3.234  10.547  0.5946 -0.5042  0.8647
  843MOL0     C16223   8.746   3.212  10.571 -0.7647  0.9909 -0.2362
  843MOL0     C16224   8.693   3.268  10.705 -0.0389  0.2853  0.0651
  843MOL0     C16225   8.678   3.122  10.485 -0.6008  0.8617 -0.5462
  843MOL0     C16226   8.538   3.078  10.513  0.0959  0.3738 -0.0154
  843MOL0     O16227   8.490   2.983  10.420  0.0612  0.6322  1.2742
  843MOL0     C16228   8.378   2.914  10.470 -0.6509 -0.0228  1.1880
  843MOL0     C16229   8.254   2.908  10.400 -1.1624 -0.7798 -0.4803
  843MOL0     C16230   8.151   2.833  10.445  0.3020  0.8808 -0.3152
  843MOL0     C16231   8.161   2.762  10.567  0.4058 -0.6916 -0.0706
  843MOL0     O16232   8.061   2.674  10.608  0.2118  0.1650  0.7078
  843MOL0     C16233   7.917   2.707  10.596  0.1370 -0.1038 -0.4565
  843MOL0     C16234   7.827   2.623  10.680  0.0672  0.2904 -0.3906
  843MOL0     C16235   7.873   2.614  10.823  0.6072  0.6080 -0.7094
  843MOL0     C16236   7.779   2.541  10.912  0.3198 -0.3324 -0.0394
  843MOL0     C16237   7.658   2.620  10.938 -1.1162 -0.3076  0.4304
  843MOL0     C16238   7.583   2.549  11.042  0.5589 -0.0269 -0.8403
  843MOL0     C16239   7.458   2.633  11.082  0.5969  0.7343  0.3994
  843MOL0     C16240   7.358   2.549  11.175 -0.2365  0.3808  0.8134
  843MOL0    Cl16241   7.197   2.624  11.165  0.2192  0.0198 -0.4391
  843MOL0     C16242   8.271   2.777  10.645 -0.1031  0.6433  0.1486
  843MOL0     C16243   8.385   2.841  10.591 -0.2703 -0.5016  0.2954
  843MOL0     O16244   8.472   3.133  10.598  0.2866  0.1826 -0.0677
  843MOL0     C16245   8.750   3.064  10.387  0.0989  0.6874  0.0717
  843MOL0     C16246   8.875   3.096  10.357 -0.3203 -0.2755 -0.7867
  843MOL0     N16247   9.636   3.185  10.513 -0.1096  0.3081 -0.4606
  843MOL0     N16248   9.749   3.114  10.511  0.6915  0.4562 -0.2860
  843MOL0     C16249  10.501   2.812   9.611  0.5957  0.1332  0.3462
  843MOL0     C16250  10.565   2.754   9.504  0.0494  0.9720  0.1320
  843MOL0     C16251  10.898   2.594   9.247 -0.6547 -0.4963 -0.4256
  843MOL0     C16252  10.885   2.669   9.128  0.5050  0.2983 -0.7073
  843MOL0     C16253  10.924   2.615   8.998 -0.9837 -0.0379  0.3060
  843MOL0     C16254  11.005   2.510   8.988  0.7881  0.0046  0.6848
  843MOL0     O16255  11.045   2.486   8.866 -0.1860  0.4303 -0.0888
  843MOL0     C16256  11.171   2.419   8.841  0.8483 -0.2006  0.1326
  843MOL0     C16257  11.299   2.471   8.918 -0.6667 -0.7517  0.3074
  843MOL0     C16258  11.326   2.620   8.883 -0.5997 -0.5302  0.6637
  843MOL0     C16259  11.363   2.641   8.735 -0.1450 -0.3667  0.1726
  843MOL0     C16260  11.387   2.784   8.715 -0.1475  0.0355 -1.0991
  843MOL0     C16261  11.402   2.902   8.729 -0.0134  0.2342 -0.0516
  843MOL0     C16262  11.032   2.439   9.108 -1.1413 -0.1504  0.5070
  843MOL0     C16263  10.971   2.471   9.232 -0.2982 -0.0098 -0.1951
  843MOL0     C16264  10.982   2.366   9.346  0.5160 -0.4856 -0.5607
  843MOL0     H16265  10.852   2.939   9.541  1.0028 -0.2843  1.2536
  843MOL0     H16266  10.735   3.015   9.732 -1.2775  2.6584 -1.2099
  843MOL0     H16267  10.344   2.814   9.850 -3.1947  1.0922 -0.3343
  843MOL0     H16268  10.293   2.972   9.791 -0.5662 -0.8823 -0.1344
  843MOL0     H16269  10.267   2.926  10.036  0.8359 -0.8965 -0.6957
  843MOL0     H16270  10.432   2.919  10.062 -1.1287 -1.8238  0.1959
  843MOL0     H16271  10.456   3.155   9.962 -0.5875  2.1641 -0.2656
  843MOL0     H16272  10.283   3.157   9.945  1.2499  0.7588 -0.8966
  843MOL0     H16273  10.420   3.123  10.207  0.7895 -2.4441 -3.5042
  843MOL0     H16274  10.397   3.284  10.143  0.9256  0.3646 -3.6672
  843MOL0     H16275  10.151   3.123  10.150 -1.4022 -0.3961 -0.6325
  843MOL0     H16276  10.175   3.305  10.191  0.1576 -0.4353  0.0060
  843MOL0     H16277  10.233   3.071  10.360 -1.0025 -0.3781  0.3101
  843MOL0     H16278  10.288   3.225  10.406  2.3434 -1.6994 -2.4985
  843MOL0     H16279  10.037   3.302  10.384 -0.8580  1.1749  2.6356
  843MOL0     H16280  10.081   3.217  10.531 -0.6589 -0.4278 -0.6058
  843MOL0     H16281   9.954   3.102  10.271  0.9058 -1.6606 -0.4934
  843MOL0     H16282   9.974   3.002  10.417 -0.7507  0.4167 -1.3582
  843MOL0     H16283   9.784   3.294  10.238 -1.1000 -2.4203 -1.3131
  843MOL0     H16284   9.539   3.363  10.248  1.4144  0.8611  0.2943
  843MOL0     H16285   9.502   3.423  10.412  1.1862  1.5846 -2.2582
  843MOL0     H16286   9.413   3.172  10.277  0.2059  0.4518  0.0078
  843MOL0     H16287   9.365   3.199  10.450  4.2990  1.0022  1.7224
  843MOL0     H16288   9.268   3.416  10.353  1.3707 -1.6690  3.2082
  843MOL0     H16289   9.291   3.352  10.191  0.3714  1.7026  0.6124
  843MOL0     H16290   9.066   3.300  10.239  2.1658  1.5344 -0.0806
  843MOL0     H16291   9.143   3.153  10.223 -3.1047  1.1105 -1.1589
  843MOL0     H16292   8.933   3.309  10.608 -0.0753 -0.6730  1.6140
  843MOL0     H16293   8.589   3.301  10.691  0.3415  2.1929  1.2319
  843MOL0     H16294   8.740   3.359  10.744 -0.7364  0.4255  0.6303
  843MOL0     H16295   8.697   3.193  10.785 -1.1114 -1.2087 -1.2394
  843MOL0     H16296   8.237   2.961  10.307 -0.6446 -0.7981 -0.5897
  843MOL0     H16297   8.057   2.822  10.393 -0.2172  2.0084  0.3590
  843MOL0     H16298   7.896   2.806  10.636 -0.9825 -0.5899  0.2168
  843MOL0     H16299   7.885   2.706  10.492  0.4317 -1.1291 -0.5520
  843MOL0     H16300   7.721   2.651  10.677  0.0791  0.7349  1.8631
  843MOL0     H16301   7.823   2.523  10.635  2.9428 -0.4298  0.7675
  843MOL0     H16302   7.884   2.715  10.864 -1.5400  0.0130  1.6061
  843MOL0     H16303   7.973   2.571  10.821 -0.3124 -1.6870 -0.1329
  843MOL0     H16304   7.832   2.516  11.004  1.0980  2.1982  0.2792
  843MOL0     H16305   7.753   2.447  10.863  1.7289  0.4797 -2.4971
  843MOL0     H16306   7.686   2.718  10.979 -1.6001  0.4906 -1.0705
  843MOL0     H16307   7.606   2.626  10.842  0.8994  0.1921 -0.6941
  843MOL0     H16308   7.649   2.559  11.129 -0.2667  5.2612 -0.4951
  843MOL0     H16309   7.549   2.452  11.006 -3.3409 -0.2123  2.6440
  843MOL0     H16310   7.390   2.646  10.997 -0.7163 -0.5188  1.2215
  843MOL0     H16311   7.488   2.731  11.122 -0.1898  0.2103  2.3870
  843MOL0     H16312   7.397   2.531  11.275  2.1511 -1.4997 -0.3388
  843MOL0     H16313   7.358   2.449  11.132 -0.5423  0.4326  0.6933
  843MOL0     H16314   8.280   2.733  10.744 -0.2383  0.7567  0.2105
  843MOL0     H16315   8.468   2.844  10.660  0.3739 -1.6416 -0.4134
  843MOL0     H16316   8.719   2.980  10.326 -2.0717  0.0430  1.9318
  843MOL0     H16317   8.921   3.044  10.274  1.1220  0.2489 -0.3561
  843MOL0     H16318  10.398   2.781   9.628  0.8636 -1.9573 -1.2766
  843MOL0     H16319  10.512   2.683   9.441  1.6299 -0.8903  0.7611
  843MOL0     H16320  10.841   2.768   9.124  1.5392  0.7961 -0.2061
  843MOL0     H16321  10.889   2.665   8.909  1.2784 -0.7726 -1.0889
  843MOL0     H16322  11.167   2.313   8.866  1.1236 -0.2518 -0.0365
  843MOL0     H16323  11.174   2.420   8.731 -2.6392  0.5422 -0.0740
  843MOL0     H16324  11.385   2.414   8.880  3.1540  1.2669  4.8430
  843MOL0     H16325  11.292   2.442   9.023 -1.9388  0.4856  0.5896
  843MOL0     H16326  11.237   2.680   8.902 -0.5455 -0.0124 -0.6195
  843MOL0     H16327  11.409   2.657   8.944  0.0042 -0.4208 -0.2012
  843MOL0     H16328  11.278   2.629   8.667 -0.0783 -1.0315  0.2071
  843MOL0     H16329  11.455   2.596   8.699  0.5934  1.9825 -1.1542
  843MOL0     H16330  11.427   3.005   8.743 -0.1409  0.1706  0.6871
  843MOL0     H16331  11.087   2.347   9.097  1.0745  1.2850 -1.4583
  843MOL0     H16332  10.988   2.397   9.451  0.0613 -3.8745  0.5756
  843MOL0     H16333  10.893   2.302   9.350 -0.2799  0.3610 -2.8843
  843MOL0     H16334  11.065   2.299   9.323  0.3762 -0.6848 -0.4861
  844MOL0     O16335   2.837  10.338   3.901 -0.4339  0.1733  0.2168
  844MOL0     C16336   2.864  10.375   3.783 -0.6488 -0.2975 -0.5021
  844MOL0     O16337   2.793  10.464   3.721  0.3248 -0.1938  0.9377
  844MOL0     C16338   2.651  10.482   3.719 -0.6200 -0.2051  0.7909
  844MOL0     C16339   2.557  10.423   3.800  0.6406  0.6282  0.1407
  844MOL0     C16340   2.417  10.468   3.811  0.0460 -0.0565  0.8089
  844MOL0     C16341   2.383  10.556   3.704  0.0671 -0.3085 -0.3903
  844MOL0     O16342   2.252  10.605   3.706 -0.0256 -0.0486 -0.7552
  844MOL0     C16343   2.229  10.739   3.665  0.0236  0.3901  0.2133
  844MOL0     C16344   2.263  10.833   3.781 -0.9669 -0.0533 -0.3643
  844MOL0     C16345   2.173  10.800   3.906  1.0046  0.3985 -0.3388
  844MOL0     C16346   2.164  10.910   4.009 -0.8420  0.7350 -1.0571
  844MOL0     C16347   2.013  10.925   4.057  0.6034  0.2115  0.0306
  844MOL0     C16348   2.006  11.005   4.182 -0.0079  0.6287  0.5238
  844MOL0     C16349   1.864  11.052   4.221 -0.8102 -0.0420 -0.0296
  844MOL0     C16350   1.866  11.121   4.366  0.1181  0.4356  0.6514
  844MOL0     N16351   1.739  11.102   4.414  0.3040 -0.1010  0.2033
  844MOL0     C16352   1.680  11.011   4.500 -0.4477 -0.2566  0.1848
  844MOL0     C16353   1.558  11.048   4.525  0.9008  1.4761  0.3993
  844MOL0     C16354   1.466  11.005   4.637  0.3804 -0.8698 -0.0264
  844MOL0     C16355   1.428  11.111   4.739 -0.1542 -0.3345 -0.7820
  844MOL0     C16356   1.278  11.119   4.773  0.2075  0.0381 -0.0911
  844MOL0     C16357   1.243  11.226   4.886 -0.4792 -0.5479 -0.1564
  844MOL0     O16358   1.099  11.225   4.899 -0.0128 -0.5861  0.6720
  844MOL0     C16359   1.037  11.342   4.918 -0.8761  0.1352 -0.9378
  844MOL0     C16360   1.002  11.382   5.053 -0.1174  0.3562  0.4767
  844MOL0     C16361   0.942  11.505   5.079  0.2276  0.2331  0.5949
  844MOL0     C16362   0.908  11.526   5.221 -0.2554 -0.9005 -0.2375
  844MOL0     C16363   0.905  11.584   4.966  0.6484  0.6611 -0.6099
  844MOL0     C16364   0.836  11.716   4.976 -0.3413  0.3866  0.2023
  844MOL0     O16365   0.746  11.738   4.884  0.3742 -0.0274 -0.2679
  844MOL0     C16366   0.631  11.799   4.931 -0.1828 -0.4472  0.3773
  844MOL0     C16367   0.552  11.885   4.846 -0.1785  0.0951 -0.4416
  844MOL0     C16368   0.429  11.934   4.893 -0.1660 -0.9081 -0.4215
  844MOL0     C16369   0.376  11.905   5.018  0.9939  0.4815 -0.6925
  844MOL0     O16370   0.265  11.966   5.087  0.4137 -0.5216  0.5083
  844MOL0     C16371   0.212  12.082   5.020 -0.4083 -0.0252 -0.6364
  844MOL0     C16372   0.089  12.142   5.085 -0.5708 -1.2607 -0.1992
  844MOL0     C16373   0.087  12.290   5.062 -0.1273 -0.2457  0.2900
  844MOL0     C16374  -0.050  12.349   5.103 -0.0086  0.5501  0.0454
  844MOL0     C16375  -0.045  12.506   5.115  0.2850  0.7949 -0.3918
  844MOL0     C16376  -0.134  12.545   5.235  0.5943  0.0157  0.9197
  844MOL0     C16377  -0.139  12.696   5.249 -0.9138  0.2555  0.0372
  844MOL0     C16378  -0.239  12.747   5.350  0.4002 -1.1305 -0.3631
  844MOL0    Cl16379  -0.202  12.673   5.513 -0.2255 -0.1567 -0.3021
  844MOL0     C16380   0.442  11.806   5.093  0.8890  0.0503  0.6891
  844MOL0     C16381   0.563  11.760   5.056  0.6121  0.5963 -0.3440
  844MOL0     O16382   0.878  11.794   5.061  0.0645 -0.3386  0.0118
  844MOL0     C16383   0.925  11.531   4.833  0.1506  0.4788  0.5691
  844MOL0     C16384   0.993  11.414   4.804  0.0101 -1.4011 -0.1849
  844MOL0     N16385   1.523  11.158   4.449  0.2246  0.2886  0.2215
  844MOL0     N16386   1.633  11.192   4.390 -0.2088  0.8949  0.6194
  844MOL0     C16387   2.475  10.594   3.609  0.1144 -0.7633  0.1539
  844MOL0     C16388   2.616  10.561   3.622 -0.2238 -0.9691 -0.2780
  844MOL0     C16389   2.997  10.336   3.738 -0.2684 -0.5200  0.9116
  844MOL0     C16390   3.084  10.271   3.836  0.2857 -0.4849  0.0851
  844MOL0     C16391   3.205  10.223   3.789 -0.2745  0.8457  0.3329
  844MOL0     C16392   3.257  10.242   3.668  0.4255  0.2939 -0.3577
  844MOL0     O16393   3.383  10.193   3.655  0.1048 -0.0588 -0.8427
  844MOL0     C16394   3.440  10.171   3.529 -0.3348  0.3051  0.1241
  844MOL0     C16395   3.347  10.072   3.452 -0.7620  0.5071  0.3124
  844MOL0     C16396   3.344   9.926   3.522 -0.0778 -0.0850 -0.0830
  844MOL0     C16397   3.252   9.825   3.454 -0.1521 -0.5627 -0.2767
  844MOL0     C16398   3.110   9.860   3.479 -0.4646  0.1969 -0.0259
  844MOL0     C16399   3.010   9.902   3.522  0.7528  0.8048  0.4090
  844MOL0     C16400   3.170  10.307   3.575 -0.1404 -0.4915  0.1191
  844MOL0     C16401   3.039  10.348   3.604  0.2092  0.2287  0.7428
  844MOL0     C16402   2.952  10.406   3.500  0.3701  0.4106  0.2842
  844MOL0     H16403   2.600  10.369   3.885  2.6728  4.0914  1.5485
  844MOL0     H16404   2.357  10.436   3.896 -0.4636  2.1195  1.3275
  844MOL0     H16405   2.121  10.745   3.645 -0.5735 -0.6180  2.7408
  844MOL0     H16406   2.278  10.771   3.573  3.3584  2.5574  2.5164
  844MOL0     H16407   2.366  10.824   3.817 -0.9660 -0.4622 -0.4560
  844MOL0     H16408   2.253  10.937   3.752  0.1613 -0.1094 -1.0126
  844MOL0     H16409   2.074  10.772   3.869  1.2210 -0.9339  0.0290
  844MOL0     H16410   2.225  10.710   3.940  1.6376  0.8603 -0.0785
  844MOL0     H16411   2.223  10.894   4.100  1.5942  0.7504 -2.5432
  844MOL0     H16412   2.207  10.999   3.964  1.3990  0.0473 -0.4004
  844MOL0     H16413   1.966  10.828   4.074  2.3664 -1.0756 -1.9215
  844MOL0     H16414   1.967  10.983   3.977  0.8293  2.6420  1.5869
  844MOL0     H16415   2.056  10.950   4.262  1.2063 -1.1878 -1.3827
  844MOL0     H16416   2.063  11.093   4.151 -1.0188  0.8650 -0.7313
  844MOL0     H16417   1.795  10.968   4.213 -0.6222 -0.2200  0.2185
  844MOL0     H16418   1.829  11.123   4.144  1.8285 -0.2059 -1.4975
  844MOL0     H16419   1.939  11.070   4.429  2.0654  3.3555  0.9516
  844MOL0     H16420   1.894  11.226   4.349  1.4954 -0.2105 -1.6476
  844MOL0     H16421   1.741  10.935   4.547  1.6383 -0.7206 -2.9490
  844MOL0     H16422   1.523  10.924   4.684  0.4858  0.7216  2.8370
  844MOL0     H16423   1.376  10.956   4.601 -1.2470 -0.2008  2.8240
  844MOL0     H16424   1.482  11.086   4.831  3.0240  1.7390 -1.9166
  844MOL0     H16425   1.464  11.211   4.712  0.6226 -0.7793 -1.4267
  844MOL0     H16426   1.226  11.151   4.682  0.0399  0.7075  0.2325
  844MOL0     H16427   1.233  11.024   4.802 -1.3122  0.4097 -1.1332
  844MOL0     H16428   1.293  11.213   4.982  0.1546 -0.1383 -0.4220
  844MOL0     H16429   1.276  11.326   4.854  0.8912 -0.9681 -0.1290
  844MOL0     H16430   1.031  11.312   5.131  2.9792  0.7129 -0.2188
  844MOL0     H16431   0.850  11.617   5.241 -1.4576 -1.7955  0.5039
  844MOL0     H16432   0.998  11.521   5.282 -0.7659  2.7875  1.1353
  844MOL0     H16433   0.850  11.443   5.262 -1.3310  0.0387  0.2062
  844MOL0     H16434   0.585  11.912   4.746 -3.0042 -0.0178 -1.4986
  844MOL0     H16435   0.381  11.997   4.820 -0.3863 -2.3497 -1.5755
  844MOL0     H16436   0.290  12.159   5.018 -0.1103  0.0079  3.4750
  844MOL0     H16437   0.196  12.049   4.917  5.7656 -3.7965 -0.8803
  844MOL0     H16438  -0.003  12.090   5.057 -0.7752  0.0728 -2.2718
  844MOL0     H16439   0.105  12.138   5.193  2.3845 -1.2266 -0.5454
  844MOL0     H16440   0.110  12.312   4.957  2.7895 -2.7878  0.2792
  844MOL0     H16441   0.165  12.340   5.120 -0.7729 -0.6571  1.5491
  844MOL0     H16442  -0.078  12.313   5.202 -3.1811  5.4706  1.3252
  844MOL0     H16443  -0.125  12.313   5.033  0.7644  0.3264 -0.6844
  844MOL0     H16444   0.058  12.533   5.138  2.3889 -5.3883 -0.9289
  844MOL0     H16445  -0.081  12.558   5.025 -1.6424  1.6640  0.8088
  844MOL0     H16446  -0.092  12.505   5.328  0.1099  1.8777  1.9965
  844MOL0     H16447  -0.235  12.508   5.217  1.5396 -1.7101 -1.3719
  844MOL0     H16448  -0.152  12.750   5.155  0.4734  0.3761 -0.1066
  844MOL0     H16449  -0.036  12.727   5.268 -1.4011 -0.1083  4.2185
  844MOL0     H16450  -0.340  12.724   5.316 -1.0831  1.9694  1.5099
  844MOL0     H16451  -0.237  12.856   5.348 -1.5430 -1.0708 -1.0374
  844MOL0     H16452   0.386  11.770   5.178  0.3360 -0.5452  0.0760
  844MOL0     H16453   0.612  11.685   5.118 -3.9332 -0.2925  2.6012
  844MOL0     H16454   0.880  11.593   4.756  0.9610 -2.7142 -2.8155
  844MOL0     H16455   0.993  11.396   4.697 -0.1768 -1.2272 -0.2137
  844MOL0     H16456   2.451  10.658   3.524 -1.5091  0.1083  1.1944
  844MOL0     H16457   2.680  10.610   3.549 -1.1821  0.4142 -0.2294
  844MOL0     H16458   3.050  10.255   3.938 -3.8886 -1.9366 -1.3555
  844MOL0     H16459   3.273  10.177   3.860  0.0594  1.8235  0.6711
  844MOL0     H16460   3.444  10.262   3.468 -0.3896 -0.4389 -1.0043
  844MOL0     H16461   3.544  10.138   3.537 -0.4063  0.4841  2.8045
  844MOL0     H16462   3.394  10.049   3.356 -0.5469 -2.0986  0.9787
  844MOL0     H16463   3.246  10.107   3.433 -0.3538  0.6059 -1.9323
  844MOL0     H16464   3.450   9.899   3.514  0.7270  1.9231  2.3732
  844MOL0     H16465   3.321   9.924   3.629  1.8993 -2.0565  0.3955
  844MOL0     H16466   3.272   9.727   3.499  0.5854 -0.5859 -0.6437
  844MOL0     H16467   3.269   9.812   3.347  0.2009 -2.0896 -0.0587
  844MOL0     H16468   2.912   9.916   3.561 -0.3102 -1.0724 -1.3780
  844MOL0     H16469   3.213  10.318   3.475  1.9966 -0.3902  0.9889
  844MOL0     H16470   2.936  10.511   3.528  0.7411  0.9867 -1.5547
  844MOL0     H16471   2.980  10.384   3.397 -3.8801 -1.2140 -0.7585
  844MOL0     H16472   2.857  10.352   3.498 -0.0548  1.0426  1.6699
  845MOL0     O16473   2.082   6.894  10.334  0.2961  0.9170 -0.2027
  845MOL0     C16474   2.160   6.915  10.429  0.2579  0.8030  0.0606
  845MOL0     O16475   2.300   6.928  10.418  0.1966 -0.5640 -0.0087
  845MOL0     C16476   2.356   6.947  10.297 -0.0354  0.7165 -0.0682
  845MOL0     C16477   2.384   6.833  10.214 -0.1369  0.1570  0.1885
  845MOL0     C16478   2.409   6.854  10.081 -0.3427 -1.5307 -0.0447
  845MOL0     C16479   2.425   6.979  10.020 -0.7257 -0.3130  0.9574
  845MOL0     O16480   2.474   6.985   9.887 -0.6635  0.2407 -0.2014
  845MOL0     C16481   2.474   7.118   9.828 -0.8997  0.0047 -0.5930
  845MOL0     C16482   2.528   7.104   9.683  0.1718 -0.6007  0.4134
  845MOL0     C16483   2.420   7.023   9.597 -0.6817  0.3871  0.1961
  845MOL0     C16484   2.421   7.031   9.440 -0.8407  0.0876  0.6332
  845MOL0     C16485   2.305   6.956   9.375  0.2293 -0.3360  0.2468
  845MOL0     C16486   2.296   6.816   9.437  0.0412 -0.0192  0.2537
  845MOL0     C16487   2.210   6.715   9.353 -0.2839 -0.7966 -0.8602
  845MOL0     C16488   2.290   6.635   9.249  0.0324  0.2867 -0.2002
  845MOL0     N16489   2.198   6.589   9.136 -0.0009 -0.7645 -0.7822
  845MOL0     C16490   2.139   6.471   9.113  1.4408  0.5091 -0.1412
  845MOL0     C16491   2.091   6.469   8.984  0.3403  0.5289 -0.2614
  845MOL0     C16492   1.989   6.361   8.941  0.0903  0.5795  0.6701
  845MOL0     C16493   2.054   6.232   8.958  0.4322  0.5689  0.2129
  845MOL0     C16494   2.189   6.211   8.880 -0.4448 -0.2381 -0.1918
  845MOL0     C16495   2.186   6.265   8.736  0.6501 -0.2934 -0.2739
  845MOL0     O16496   2.078   6.207   8.661 -0.8068  0.2336 -0.0967
  845MOL0     C16497   2.060   6.074   8.646 -0.3805  1.3273 -0.6073
  845MOL0     C16498   1.933   6.016   8.628 -0.4091  0.0337 -0.7579
  845MOL0     C16499   1.925   5.871   8.596  0.9687 -0.2576 -0.5524
  845MOL0     C16500   1.788   5.815   8.576  0.3047 -0.0223  1.4391
  845MOL0     C16501   2.044   5.797   8.590 -0.2612  0.7613  0.4292
  845MOL0     C16502   2.050   5.647   8.548  0.1407 -0.2264 -0.1023
  845MOL0     O16503   2.173   5.589   8.537 -0.4395  0.3235  0.6320
  845MOL0     C16504   2.191   5.468   8.473 -0.9171 -0.0017  0.5561
  845MOL0     C16505   2.161   5.441   8.335  0.7500  0.0405 -0.0107
  845MOL0     C16506   2.198   5.318   8.276  0.1603 -0.6134  0.0614
  845MOL0     C16507   2.272   5.223   8.346  0.1279 -0.1898 -0.0516
  845MOL0     O16508   2.295   5.097   8.307  0.3794 -0.0741  0.1051
  845MOL0     C16509   2.230   5.057   8.178  1.0306 -0.6929  0.1814
  845MOL0     C16510   2.292   4.918   8.137  0.4525 -0.7456 -0.4099
  845MOL0     C16511   2.246   4.873   7.998  0.3248 -0.2204 -0.3825
  845MOL0     C16512   2.364   4.870   7.901  0.2337  0.0952  0.9689
  845MOL0     C16513   2.412   5.017   7.867 -0.9108  0.2577  0.7359
  845MOL0     C16514   2.469   5.033   7.723  0.0923  0.3112 -0.6939
  845MOL0     C16515   2.598   4.950   7.701  0.8355  0.2996  0.0780
  845MOL0     C16516   2.643   4.975   7.558  0.0857 -0.0386  0.3235
  845MOL0    Cl16517   2.731   4.839   7.485 -0.2755 -0.0152 -0.3803
  845MOL0     C16518   2.308   5.251   8.474 -0.5466  0.1469 -1.5551
  845MOL0     C16519   2.270   5.372   8.538  0.7196  0.2128 -0.3756
  845MOL0     O16520   1.948   5.589   8.513 -0.0225 -0.2695  0.4286
  845MOL0     C16521   2.172   5.855   8.612  0.2397  0.2838  0.1301
  845MOL0     C16522   2.172   5.992   8.640 -0.1720 -1.1628  0.2847
  845MOL0     N16523   2.124   6.593   8.938 -1.0286 -0.3347 -0.5669
  845MOL0     N16524   2.178   6.664   9.027  0.2912  0.8471  0.3020
  845MOL0     C16525   2.413   7.088  10.114  0.3554 -0.5546  0.6090
  845MOL0     C16526   2.383   7.076  10.249  0.0234  0.0440 -0.7735
  845MOL0     C16527   2.098   6.948  10.566  0.6681  0.2862 -0.6980
  845MOL0     C16528   2.187   6.974  10.680  0.0629 -0.2883  0.8761
  845MOL0     C16529   2.142   7.008  10.810  0.4845  0.1143 -0.3831
  845MOL0     C16530   1.997   6.996  10.830  1.4060 -0.1063  1.0949
  845MOL0     O16531   1.949   7.013  10.955  0.3588 -0.3307  0.8450
  845MOL0     C16532   1.828   7.083  10.966 -0.1480 -0.7403  0.0904
  845MOL0     C16533   1.862   7.233  10.935 -0.3809 -0.7983 -0.5502
  845MOL0     C16534   1.981   7.283  11.018 -0.1017  0.0541 -0.4736
  845MOL0     C16535   1.964   7.249  11.170  0.6576  0.3336  0.0912
  845MOL0     C16536   2.077   7.283  11.245 -0.8114 -0.8363  0.4414
  845MOL0     C16537   2.183   7.323  11.294  1.0440 -0.1510  0.1864
  845MOL0     C16538   1.912   6.963  10.725  0.3680 -0.9336  0.1485
  845MOL0     C16539   1.963   6.934  10.598 -0.1400 -0.1296 -0.4658
  845MOL0     C16540   1.854   6.897  10.501  0.4482  0.8901  0.2176
  845MOL0     H16541   2.373   6.735  10.260  1.1824  0.6145  1.5529
  845MOL0     H16542   2.437   6.774  10.013  1.3935 -2.5543  1.7579
  845MOL0     H16543   2.543   7.192   9.872  0.7376 -1.6471 -0.2276
  845MOL0     H16544   2.376   7.161   9.849 -0.4505 -0.1938  2.3365
  845MOL0     H16545   2.522   7.202   9.635 -3.0260 -0.7232  0.3336
  845MOL0     H16546   2.628   7.060   9.682 -0.4678 -2.1882  1.4109
  845MOL0     H16547   2.433   6.919   9.628  0.9327  1.1097  2.1371
  845MOL0     H16548   2.324   7.064   9.632 -1.7292 -0.6327 -1.3403
  845MOL0     H16549   2.436   7.136   9.414  1.1156 -0.3222 -0.0897
  845MOL0     H16550   2.508   6.985   9.393  0.1315  2.8385 -0.4778
  845MOL0     H16551   2.325   6.918   9.274 -1.4292 -2.6011  0.6878
  845MOL0     H16552   2.210   7.009   9.385  0.0854 -0.9223  2.5878
  845MOL0     H16553   2.397   6.775   9.448 -0.2725 -1.3615 -1.5158
  845MOL0     H16554   2.248   6.824   9.534 -1.8914  3.0644 -0.8142
  845MOL0     H16555   2.125   6.768   9.309 -1.0226 -0.2943  1.1022
  845MOL0     H16556   2.170   6.637   9.419 -2.9500 -0.0599 -1.4927
  845MOL0     H16557   2.366   6.703   9.210  0.4525 -0.8952 -1.4855
  845MOL0     H16558   2.346   6.554   9.296 -1.9124 -1.9954 -1.5772
  845MOL0     H16559   2.134   6.388   9.183  1.3305 -1.0481 -1.9361
  845MOL0     H16560   1.937   6.366   8.845 -0.5118 -0.2633  0.9330
  845MOL0     H16561   1.912   6.363   9.019  0.2669  0.8165  0.8403
  845MOL0     H16562   2.070   6.220   9.065  2.0862  1.5096  0.0976
  845MOL0     H16563   1.977   6.164   8.920 -1.3377  1.6794  1.6416
  845MOL0     H16564   2.270   6.259   8.935  0.8799 -0.6832 -1.6751
  845MOL0     H16565   2.221   6.107   8.869  1.7012  0.2628  0.9308
  845MOL0     H16566   2.175   6.374   8.743 -0.3323 -0.4585  1.3415
  845MOL0     H16567   2.288   6.248   8.700  1.5214 -1.8648  2.6405
  845MOL0     H16568   1.845   6.078   8.635 -0.6506 -0.3220 -0.5704
  845MOL0     H16569   1.756   5.804   8.472 -2.3918 -2.3283  2.3993
  845MOL0     H16570   1.718   5.874   8.636 -0.9413 -1.3090  1.2906
  845MOL0     H16571   1.772   5.714   8.615 -1.4055 -0.0275  0.7904
  845MOL0     H16572   2.106   5.517   8.281  0.7469  0.2190  0.2421
  845MOL0     H16573   2.173   5.299   8.172  2.7458 -1.7178 -0.4422
  845MOL0     H16574   2.122   5.046   8.186  0.8583 -0.7912 -1.7747
  845MOL0     H16575   2.260   5.125   8.098 -1.8131 -2.5231 -2.6874
  845MOL0     H16576   2.402   4.915   8.142  0.4161 -0.0323  1.5110
  845MOL0     H16577   2.265   4.836   8.204 -0.3965 -0.2254 -0.1035
  845MOL0     H16578   2.164   4.938   7.963 -0.0762  0.1599  1.1949
  845MOL0     H16579   2.213   4.769   8.003  0.5556 -0.3560 -1.3695
  845MOL0     H16580   2.333   4.821   7.809  0.4970 -0.1368  1.0033
  845MOL0     H16581   2.444   4.806   7.940  0.4078 -0.1189  0.2801
  845MOL0     H16582   2.325   5.079   7.891  0.1795  1.8479  0.7075
  845MOL0     H16583   2.479   5.053   7.946 -1.5550  1.8703  0.5855
  845MOL0     H16584   2.495   5.138   7.705  2.6237 -0.5601 -2.7072
  845MOL0     H16585   2.384   5.005   7.660 -2.0771  1.5946  1.4652
  845MOL0     H16586   2.568   4.845   7.708 -1.6737  0.9527  0.2795
  845MOL0     H16587   2.678   4.977   7.770 -1.2737  1.8646  2.0625
  845MOL0     H16588   2.701   5.068   7.562  0.7794 -0.4951  1.3294
  845MOL0     H16589   2.552   4.987   7.499 -0.3088 -1.3008  0.6384
  845MOL0     H16590   2.362   5.181   8.537  0.7878  0.7296 -2.0391
  845MOL0     H16591   2.299   5.395   8.641  0.5526 -5.1316  1.1534
  845MOL0     H16592   2.272   5.812   8.609  0.2143  0.2884 -1.3415
  845MOL0     H16593   2.265   6.046   8.651 -1.7750  1.4477  1.9847
  845MOL0     H16594   2.452   7.185  10.086  3.5506 -1.8490  0.1911
  845MOL0     H16595   2.374   7.167  10.308  0.1769  2.1780 -3.8599
  845MOL0     H16596   2.293   6.971  10.658 -0.4987 -1.2755 -2.3824
  845MOL0     H16597   2.209   7.027  10.893 -1.2151 -1.8600  1.5548
  845MOL0     H16598   1.745   7.048  10.905  0.8868 -1.3825 -1.0015
  845MOL0     H16599   1.786   7.058  11.064  0.9521 -2.8151  0.0986
  845MOL0     H16600   1.775   7.290  10.969 -0.3075  0.3435 -2.1701
  845MOL0     H16601   1.883   7.249  10.829 -0.0772  1.1556 -0.2264
  845MOL0     H16602   2.071   7.232  10.981  2.3932  2.7833  1.3585
  845MOL0     H16603   2.014   7.387  11.012  2.5863 -0.7702 -1.9497
  845MOL0     H16604   1.936   7.144  11.181 -1.2479  0.3335 -3.3540
  845MOL0     H16605   1.875   7.308  11.194 -1.4662 -2.1012 -1.3555
  845MOL0     H16606   2.267   7.366  11.344 -0.2704  1.7139  0.9210
  845MOL0     H16607   1.807   6.943  10.744 -0.7020 -1.3042 -4.6986
  845MOL0     H16608   1.864   6.964  10.415  1.1317 -0.1504 -0.5375
  845MOL0     H16609   1.869   6.791  10.478 -0.7647  0.4941  1.1710
  845MOL0     H16610   1.753   6.916  10.537 -1.4885 -1.2157 -3.5453
  846MOL0     O16611   0.036   2.134  10.061  0.0461 -0.8799  0.5448
  846MOL0     C16612   0.126   2.074  10.008  0.4688 -0.2944  0.0440
  846MOL0     O16613   0.153   1.944  10.029 -0.0332  0.3499  0.1021
  846MOL0     C16614   0.085   1.874  10.118 -0.6274  1.5504 -0.2831
  846MOL0     C16615  -0.010   1.771  10.088 -0.3792 -0.3536 -0.3171
  846MOL0     C16616  -0.070   1.693  10.188 -0.2273 -0.2535  0.8721
  846MOL0     C16617  -0.030   1.704  10.319  0.3675  0.3623 -0.3571
  846MOL0     O16618  -0.087   1.625  10.413  0.7188 -0.6744 -0.5540
  846MOL0     C16619  -0.179   1.514  10.381  0.2069  0.3502 -0.5378
  846MOL0     C16620  -0.246   1.465  10.509 -0.2724  0.9409 -0.0489
  846MOL0     C16621  -0.156   1.366  10.578  0.5731  0.5496  0.1824
  846MOL0     C16622  -0.239   1.306  10.690  0.0119  0.4516 -0.4893
  846MOL0     C16623  -0.177   1.198  10.790  0.6474 -0.6499 -0.1363
  846MOL0     C16624  -0.090   1.094  10.724 -0.6755 -0.5028 -0.2435
  846MOL0     C16625  -0.043   0.977  10.810  0.0776 -0.3987  0.5525
  846MOL0     C16626   0.056   1.033  10.917 -0.7157  0.4965 -0.1918
  846MOL0     N16627   0.115   0.929  11.001 -0.1269 -0.2803 -0.3601
  846MOL0     C16628   0.237   0.866  10.982  0.0217 -0.4753 -0.0505
  846MOL0     C16629   0.268   0.826  11.106  0.8248 -0.2296  0.2079
  846MOL0     C16630   0.397   0.737  11.116  0.6701 -0.6514 -0.0612
  846MOL0     C16631   0.522   0.804  11.178 -0.2318 -1.2064 -1.2120
  846MOL0     C16632   0.579   0.917  11.083 -0.1517  0.5779 -0.1032
  846MOL0     C16633   0.710   0.981  11.128  0.7993 -0.5160  0.1532
  846MOL0     O16634   0.822   0.896  11.118  0.9292  0.8346  0.7720
  846MOL0     C16635   0.948   0.949  11.153  0.5433 -0.0844 -0.0779
  846MOL0     C16636   1.049   0.862  11.136  1.0949 -0.5580 -0.5839
  846MOL0     C16637   1.176   0.892  11.179  1.0295  0.0046 -0.2618
  846MOL0     C16638   1.264   0.780  11.170 -0.4932 -0.3312 -0.3138
  846MOL0     C16639   1.202   1.020  11.229  0.0407  0.0263  0.2189
  846MOL0     C16640   1.332   1.064  11.277  0.1956 -0.3275 -0.3182
  846MOL0     O16641   1.344   1.197  11.328 -0.1347 -0.7531  0.1969
  846MOL0     C16642   1.456   1.218  11.403 -0.2559 -0.9672 -0.0067
  846MOL0     C16643   1.458   1.224  11.536 -0.0691  0.0217  0.4875
  846MOL0     C16644   1.570   1.271  11.606 -0.6432 -0.6356 -0.2341
  846MOL0     C16645   1.686   1.314  11.540 -0.1424  0.3071  0.6330
  846MOL0     O16646   1.796   1.370  11.596  0.2735  0.4018 -0.4851
  846MOL0     C16647   1.789   1.413  11.736 -0.4298 -0.3563 -0.5586
  846MOL0     C16648   1.697   1.528  11.771  0.8851 -0.1278  0.8646
  846MOL0     C16649   1.764   1.662  11.718 -0.0605 -0.0531 -0.1557
  846MOL0     C16650   1.653   1.768  11.707  0.0526 -0.0750  0.3445
  846MOL0     C16651   1.702   1.897  11.646 -0.1972  0.0395  0.0184
  846MOL0     C16652   1.577   1.985  11.639  0.2327  0.1835 -1.3109
  846MOL0     C16653   1.613   2.114  11.570  0.4056 -0.3371 -0.4189
  846MOL0     C16654   1.500   2.194  11.516  0.1815  0.5114  0.2653
  846MOL0    Cl16655   1.349   2.200  11.626  0.4682  0.1632  0.1065
  846MOL0     C16656   1.678   1.309  11.398 -0.7056  0.3907  0.2906
  846MOL0     C16657   1.567   1.263  11.334  0.2267  0.3389  0.1733
  846MOL0     O16658   1.422   0.982  11.286 -0.7888  0.7279  0.8876
  846MOL0     C16659   1.096   1.111  11.246  0.6111 -0.9332 -0.4563
  846MOL0     C16660   0.974   1.070  11.211 -0.2028 -0.4565 -0.0013
  846MOL0     N16661   0.176   0.863  11.204  0.9951  0.3479  0.7700
  846MOL0     N16662   0.093   0.927  11.137 -0.4040  0.5956  0.3912
  846MOL0     C16663   0.074   1.790  10.349  0.0138 -0.2580 -0.4822
  846MOL0     C16664   0.137   1.879  10.256 -0.1337 -0.4177  0.2169
  846MOL0     C16665   0.214   2.150   9.905  0.3403 -0.4749  0.1203
  846MOL0     C16666   0.350   2.108   9.891 -0.8694 -0.3911  0.1758
  846MOL0     C16667   0.431   2.184   9.809 -0.7261  0.6098  0.5424
  846MOL0     C16668   0.383   2.293   9.744 -0.2193 -0.2934 -0.0253
  846MOL0     O16669   0.481   2.362   9.682  0.4801  0.8833 -0.5125
  846MOL0     C16670   0.439   2.452   9.584  0.4904  0.0137  0.2315
  846MOL0     C16671   0.412   2.587   9.651 -0.2206 -0.9095 -0.8967
  846MOL0     C16672   0.529   2.644   9.734 -0.2308 -1.1354 -1.0907
  846MOL0     C16673   0.487   2.684   9.880 -0.2102  0.1932  0.8056
  846MOL0     C16674   0.386   2.793   9.877 -0.0635  0.7827  0.9142
  846MOL0     C16675   0.308   2.880   9.859 -1.0986  0.2049 -0.4553
  846MOL0     C16676   0.249   2.325   9.742  1.3766  0.5287 -0.0278
  846MOL0     C16677   0.167   2.251   9.820  0.3168 -0.7612 -0.2116
  846MOL0     C16678   0.027   2.303   9.817 -0.2057 -0.7130  0.2981
  846MOL0     H16679  -0.047   1.749   9.989  1.2317 -1.2187 -0.7491
  846MOL0     H16680  -0.151   1.628  10.158  0.1221 -0.5131  0.4853
  846MOL0     H16681  -0.112   1.438  10.340 -2.1066 -1.9606 -0.3223
  846MOL0     H16682  -0.256   1.538  10.307  0.4089 -3.7962 -2.3972
  846MOL0     H16683  -0.267   1.549  10.576  2.3161  3.4327 -2.1029
  846MOL0     H16684  -0.327   1.397  10.480  1.2256 -0.7121 -0.5459
  846MOL0     H16685  -0.132   1.285  10.508 -1.5346 -0.5132  0.5995
  846MOL0     H16686  -0.067   1.409  10.625  0.0528  0.0045  1.7524
  846MOL0     H16687  -0.287   1.381  10.753  1.5069 -0.6536  2.1253
  846MOL0     H16688  -0.318   1.248  10.642  1.0252 -3.5048  2.1211
  846MOL0     H16689  -0.261   1.155  10.844  0.8076 -0.0177  0.6246
  846MOL0     H16690  -0.118   1.257  10.861 -2.4898  1.2726  1.0451
  846MOL0     H16691  -0.141   1.052  10.636 -0.4794  0.7268 -0.9723
  846MOL0     H16692   0.001   1.145  10.691 -0.4608 -1.1259 -0.6295
  846MOL0     H16693   0.002   0.904  10.742 -1.6355  0.6574 -1.8273
  846MOL0     H16694  -0.128   0.937  10.866 -0.6516  2.8334  1.9848
  846MOL0     H16695   0.137   1.084  10.864 -1.6109 -0.6960 -2.8809
  846MOL0     H16696   0.000   1.099  10.984 -0.3576 -0.7274  1.3550
  846MOL0     H16697   0.305   0.859  10.898  2.4414  1.0446  1.6267
  846MOL0     H16698   0.429   0.687  11.024 -5.5306 -1.1987 -2.3848
  846MOL0     H16699   0.376   0.662  11.192 -0.2708 -0.1637  0.1737
  846MOL0     H16700   0.514   0.850  11.277  3.1729 -0.6730 -1.0789
  846MOL0     H16701   0.596   0.724  11.192  1.0970  0.1523 -0.2493
  846MOL0     H16702   0.596   0.872  10.985 -2.9647 -0.1138 -0.3503
  846MOL0     H16703   0.511   1.002  11.075  0.5383  0.9942 -2.8144
  846MOL0     H16704   0.725   1.082  11.090  0.8689 -0.7752 -0.5096
  846MOL0     H16705   0.700   0.995  11.236  2.7474  3.5389  0.0187
  846MOL0     H16706   1.035   0.763  11.094 -0.0767 -0.9076  0.5759
  846MOL0     H16707   1.335   0.806  11.091  0.7318 -2.4330  0.0399
  846MOL0     H16708   1.216   0.683  11.155  0.1203 -0.7097  0.1017
  846MOL0     H16709   1.311   0.770  11.269 -3.3569  0.2439  1.2046
  846MOL0     H16710   1.372   1.167  11.569  0.0118 -0.2615  0.2163
  846MOL0     H16711   1.570   1.268  11.715 -0.1124  0.0391 -0.2113
  846MOL0     H16712   1.771   1.330  11.805 -3.8136  1.9548  1.6324
  846MOL0     H16713   1.889   1.444  11.765  0.7463 -3.8437 -0.4088
  846MOL0     H16714   1.593   1.517  11.738  0.4175  2.4854  1.2631
  846MOL0     H16715   1.692   1.543  11.879 -0.5300 -1.9382  1.0967
  846MOL0     H16716   1.826   1.645  11.630  1.6910  1.2949  0.7677
  846MOL0     H16717   1.846   1.693  11.783  1.0661 -0.1149 -1.4936
  846MOL0     H16718   1.610   1.784  11.806  3.3485  0.5699  1.8062
  846MOL0     H16719   1.584   1.719  11.639  1.7313 -0.4050 -1.2186
  846MOL0     H16720   1.780   1.939  11.710 -0.3512  3.9103 -2.0195
  846MOL0     H16721   1.734   1.871  11.545 -1.8338 -0.8387 -0.3163
  846MOL0     H16722   1.529   2.002  11.736 -1.9772 -2.3725 -1.8620
  846MOL0     H16723   1.500   1.935  11.579 -1.7520  0.4737  0.8692
  846MOL0     H16724   1.672   2.087  11.482  0.5840  0.0398 -0.4195
  846MOL0     H16725   1.662   2.190  11.631 -1.0264  0.3642 -0.0842
  846MOL0     H16726   1.473   2.149  11.420 -2.2169  0.5933  0.8343
  846MOL0     H16727   1.539   2.296  11.504  0.6106  0.5869  2.0480
  846MOL0     H16728   1.763   1.356  11.349  0.7851 -0.7893  1.6795
  846MOL0     H16729   1.564   1.265  11.226  1.7137  2.3035  0.1156
  846MOL0     H16730   1.111   1.214  11.277 -0.6600 -0.6971 -0.5570
  846MOL0     H16731   0.888   1.135  11.216  0.1635  0.2881 -2.3742
  846MOL0     H16732   0.116   1.796  10.449 -5.0042  0.1010  1.9251
  846MOL0     H16733   0.221   1.947  10.269 -0.5711  1.9101 -5.6767
  846MOL0     H16734   0.394   2.024   9.944 -2.4001  0.1480  2.4294
  846MOL0     H16735   0.537   2.167   9.791 -1.0385  0.6395 -1.4812
  846MOL0     H16736   0.522   2.472   9.515 -0.4824  4.3242  0.0371
  846MOL0     H16737   0.349   2.422   9.529 -2.6301  1.2052  4.2311
  846MOL0     H16738   0.324   2.587   9.716  2.5788  0.8701  3.4031
  846MOL0     H16739   0.397   2.655   9.567 -0.1256 -0.4708 -0.5651
  846MOL0     H16740   0.612   2.574   9.747  0.0194 -0.3204  3.9913
  846MOL0     H16741   0.584   2.726   9.687 -0.6415 -1.3677 -1.9876
  846MOL0     H16742   0.574   2.723   9.933 -0.8727 -2.1925  4.0325
  846MOL0     H16743   0.450   2.597   9.936  0.6093 -1.8645 -1.6689
  846MOL0     H16744   0.227   2.948   9.838  0.8188  1.3574 -5.6291
  846MOL0     H16745   0.224   2.411   9.681 -0.5515 -0.1705 -0.2875
  846MOL0     H16746  -0.044   2.220   9.820 -3.4057  1.6939 -1.5251
  846MOL0     H16747   0.003   2.378   9.893  3.3230  1.1734 -0.2439
  846MOL0     H16748  -0.001   2.355   9.725 -0.6612 -2.2902 -0.4910
  847MOL0     O16749   0.942  10.441   6.265 -0.0699 -0.0347 -0.7855
  847MOL0     C16750   0.935  10.462   6.383  0.5251 -1.1162  0.9476
  847MOL0     O16751   0.977  10.383   6.482  0.2483  0.2448 -0.2409
  847MOL0     C16752   1.042  10.262   6.454  0.2095 -0.5721  0.4008
  847MOL0     C16753   1.130  10.230   6.350  0.0138  0.2854  0.3673
  847MOL0     C16754   1.178  10.107   6.321  0.2775  0.4768 -0.2555
  847MOL0     C16755   1.138   9.998   6.396 -0.0318  0.4388 -0.1009
  847MOL0     O16756   1.185   9.873   6.344 -0.2937 -0.4052 -0.2742
  847MOL0     C16757   1.178   9.759   6.427 -0.5630  0.0136  0.2916
  847MOL0     C16758   1.242   9.630   6.372 -0.4768 -0.4746  0.3534
  847MOL0     C16759   1.403   9.649   6.391 -0.7215 -0.1484  0.5844
  847MOL0     C16760   1.466   9.511   6.385  0.9772  0.0819  1.0994
  847MOL0     C16761   1.403   9.398   6.297  0.2934  0.2855  0.0532
  847MOL0     C16762   1.412   9.400   6.143 -0.3408 -0.4624  0.5945
  847MOL0     C16763   1.354   9.271   6.089 -0.3279  0.6014  0.3608
  847MOL0     C16764   1.420   9.256   5.947  0.5086 -0.0131  0.4292
  847MOL0     N16765   1.345   9.339   5.851 -1.0919  0.1527 -0.8148
  847MOL0     C16766   1.207   9.371   5.841 -0.0405 -0.9886  0.2080
  847MOL0     C16767   1.191   9.467   5.741 -0.9290 -0.3226  0.2331
  847MOL0     C16768   1.056   9.541   5.702 -0.3615 -0.9771 -1.6307
  847MOL0     C16769   1.040   9.523   5.549  0.4512  0.7201  0.2633
  847MOL0     C16770   0.928   9.629   5.496 -0.5070 -0.0311  0.8744
  847MOL0     C16771   1.008   9.755   5.471  0.5013  0.3212 -0.2221
  847MOL0     O16772   0.939   9.859   5.391 -0.0902  0.0908  0.5808
  847MOL0     C16773   0.983   9.989   5.401 -0.0160 -0.1931 -0.4759
  847MOL0     C16774   1.114  10.029   5.407 -0.0880  0.2532 -0.1437
  847MOL0     C16775   1.154  10.165   5.439 -0.2256  0.2490 -0.6551
  847MOL0     C16776   1.303  10.192   5.458  0.1086 -0.6703 -0.5313
  847MOL0     C16777   1.051  10.247   5.463 -1.1600 -0.4278 -0.1046
  847MOL0     C16778   1.080  10.391   5.478 -0.3188 -0.1314 -1.0820
  847MOL0     O16779   1.022  10.453   5.580 -0.1673 -0.2511 -0.1983
  847MOL0     C16780   1.006  10.588   5.575  0.1466  0.3264  0.2273
  847MOL0     C16781   0.876  10.645   5.552 -0.0745  0.1427  0.0185
  847MOL0     C16782   0.867  10.790   5.563 -0.2601  0.0381  0.3086
  847MOL0     C16783   0.982  10.870   5.581 -0.5804 -0.4322  0.9139
  847MOL0     O16784   0.982  11.003   5.606  0.4239 -0.3299  0.0617
  847MOL0     C16785   0.860  11.063   5.634  0.8547 -0.5111 -0.0333
  847MOL0     C16786   0.882  11.211   5.647 -0.5570 -0.0443  0.0790
  847MOL0     C16787   0.755  11.291   5.679  0.0100 -0.3616 -0.0796
  847MOL0     C16788   0.654  11.317   5.567 -0.1322 -0.7853  0.6979
  847MOL0     C16789   0.548  11.409   5.625  0.1217  0.1820 -0.6167
  847MOL0     C16790   0.404  11.348   5.656 -0.3136  0.7406  0.3056
  847MOL0     C16791   0.409  11.215   5.751  0.1760 -0.2825  0.5577
  847MOL0     C16792   0.272  11.150   5.752 -0.9078 -0.2359 -1.1456
  847MOL0    Cl16793   0.266  11.015   5.870 -0.0268 -0.0670 -0.0397
  847MOL0     C16794   1.106  10.811   5.609  0.5866  0.3796  0.1986
  847MOL0     C16795   1.119  10.668   5.600  0.3948 -0.4977  1.3875
  847MOL0     O16796   1.154  10.453   5.398  0.0322 -1.2254  0.2937
  847MOL0     C16797   0.920  10.217   5.436  0.2209 -0.2227 -1.0995
  847MOL0     C16798   0.886  10.087   5.405  0.2268  0.5500  1.0559
  847MOL0     N16799   1.321   9.480   5.688  0.0031 -0.8886  0.3565
  847MOL0     N16800   1.399   9.394   5.745 -0.6884 -0.5251  0.3671
  847MOL0     C16801   1.040  10.027   6.500  0.6435 -0.5047 -0.5106
  847MOL0     C16802   0.998  10.154   6.528  0.1276  0.5768 -0.7961
  847MOL0     C16803   0.894  10.596   6.433  0.0519 -0.3171  0.2274
  847MOL0     C16804   0.933  10.708   6.358 -0.3338 -0.2927 -0.1315
  847MOL0     C16805   0.904  10.840   6.389 -1.0942  0.4586  0.6586
  847MOL0     C16806   0.839  10.875   6.507 -0.2622 -0.2392  0.6136
  847MOL0     O16807   0.818  10.998   6.559  0.3014 -0.3888 -0.3562
  847MOL0     C16808   0.852  11.111   6.468  0.3704  0.6528  0.3759
  847MOL0     C16809   0.814  11.240   6.515  0.2847 -0.6995 -0.2870
  847MOL0     C16810   0.667  11.241   6.570  1.5362 -0.1866 -0.7987
  847MOL0     C16811   0.622  11.381   6.610  0.4071  0.2117 -0.1882
  847MOL0     C16812   0.498  11.382   6.691  0.9988  0.3591 -0.8468
  847MOL0     C16813   0.389  11.363   6.755  0.0894  0.0461 -0.4693
  847MOL0     C16814   0.798  10.763   6.590  1.0748  0.0726  1.2829
  847MOL0     C16815   0.825  10.636   6.557  0.1189  0.0877  1.0740
  847MOL0     C16816   0.778  10.530   6.646  0.1821  0.2617  0.0455
  847MOL0     H16817   1.157  10.314   6.287 -5.1839  0.8225 -1.6307
  847MOL0     H16818   1.249  10.092   6.240  1.6860  3.1124  0.3706
  847MOL0     H16819   1.076   9.724   6.441 -0.7456  1.4100  3.0106
  847MOL0     H16820   1.220   9.787   6.524 -1.9043  1.8134  0.3885
  847MOL0     H16821   1.206   9.550   6.437 -1.5805  1.2252  1.9261
  847MOL0     H16822   1.219   9.610   6.267 -2.0033 -2.2365  0.9819
  847MOL0     H16823   1.444   9.697   6.301  2.0498 -3.5404 -0.2064
  847MOL0     H16824   1.437   9.696   6.484  2.4813 -1.7082  0.3518
  847MOL0     H16825   1.574   9.516   6.369  0.8726  1.3588  0.6623
  847MOL0     H16826   1.447   9.470   6.485 -5.9250 -1.1519 -0.1795
  847MOL0     H16827   1.299   9.382   6.327 -0.3211 -0.1231 -2.0810
  847MOL0     H16828   1.459   9.309   6.325 -1.4950 -1.1216 -0.6359
  847MOL0     H16829   1.368   9.496   6.111  1.0628  0.1324  0.3997
  847MOL0     H16830   1.518   9.390   6.119 -0.0634 -3.1414  2.5916
  847MOL0     H16831   1.245   9.262   6.094 -0.1105 -3.3657  1.0037
  847MOL0     H16832   1.397   9.193   6.153  0.9771  1.2847  0.3640
  847MOL0     H16833   1.527   9.278   5.948  0.1709  2.0125 -0.9498
  847MOL0     H16834   1.402   9.157   5.903 -1.1277  0.6650 -0.5496
  847MOL0     H16835   1.137   9.369   5.924  2.0150  1.2609  2.1730
  847MOL0     H16836   1.087   9.640   5.737  1.6827 -2.2114  0.3601
  847MOL0     H16837   0.977   9.506   5.769  1.7070 -0.3042  1.3685
  847MOL0     H16838   1.135   9.536   5.497 -1.4900 -3.7052 -5.5558
  847MOL0     H16839   1.004   9.420   5.546  1.0487  0.4056  2.2787
  847MOL0     H16840   0.876   9.593   5.407  0.2686  0.0099  0.3915
  847MOL0     H16841   0.850   9.648   5.570 -0.9075 -0.5041  0.5809
  847MOL0     H16842   1.035   9.803   5.566  1.0173 -2.6590  1.2350
  847MOL0     H16843   1.105   9.736   5.425  1.8691  0.4212  2.4075
  847MOL0     H16844   1.190   9.952   5.394  1.0747  1.1656  0.9763
  847MOL0     H16845   1.322  10.229   5.559  1.4623 -2.9024  0.1002
  847MOL0     H16846   1.341  10.269   5.389 -0.6177 -1.6854 -2.1136
  847MOL0     H16847   1.366  10.102   5.463 -1.3456 -1.6747  0.2960
  847MOL0     H16848   0.796  10.574   5.536 -0.2286  0.2796  0.1927
  847MOL0     H16849   0.768  10.834   5.562 -0.6449 -0.7576  1.5158
  847MOL0     H16850   0.794  11.034   5.552  1.9246 -0.3925 -0.9642
  847MOL0     H16851   0.811  11.024   5.724  1.9602  1.0285  1.3064
  847MOL0     H16852   0.956  11.214   5.727 -0.4513  2.5110 -0.0245
  847MOL0     H16853   0.933  11.247   5.556  0.7939  0.3837  0.9712
  847MOL0     H16854   0.790  11.388   5.715 -1.0763  0.7506 -1.8854
  847MOL0     H16855   0.711  11.231   5.760 -0.9689 -1.2143 -1.2143
  847MOL0     H16856   0.605  11.228   5.527 -0.0713  0.4735 -2.4342
  847MOL0     H16857   0.700  11.373   5.485 -0.4063 -1.3294  0.1673
  847MOL0     H16858   0.579  11.471   5.710 -0.2295  0.6854 -0.8511
  847MOL0     H16859   0.526  11.485   5.550 -0.9882  1.1728  0.6716
  847MOL0     H16860   0.367  11.329   5.555 -1.6738  1.1975  0.6904
  847MOL0     H16861   0.330  11.425   5.680  0.9410  2.7111 -1.7351
  847MOL0     H16862   0.433  11.244   5.854 -0.6270 -1.4762  1.0911
  847MOL0     H16863   0.493  11.155   5.716 -1.3710 -0.9178 -2.3825
  847MOL0     H16864   0.250  11.113   5.651 -1.6680  2.6961 -2.1634
  847MOL0     H16865   0.197  11.229   5.758  1.5023  2.1147  0.2329
  847MOL0     H16866   1.194  10.857   5.655  2.9300 -2.3196 -1.2949
  847MOL0     H16867   1.214  10.624   5.628  2.3604  3.0573  0.9852
  847MOL0     H16868   0.845  10.296   5.437  0.8889  0.4318  0.7037
  847MOL0     H16869   0.781  10.061   5.392 -0.1807  2.6509 -0.5606
  847MOL0     H16870   1.000   9.939   6.550  1.2092 -0.9992 -0.9121
  847MOL0     H16871   0.920  10.165   6.603 -0.1836 -2.3341 -0.5765
  847MOL0     H16872   0.994  10.692   6.269  3.8599  0.0486  2.3924
  847MOL0     H16873   0.941  10.911   6.316  0.1733  0.5410  1.3678
  847MOL0     H16874   0.958  11.109   6.443 -0.4902  1.5035 -4.2595
  847MOL0     H16875   0.801  11.101   6.372 -0.4834 -1.4579  0.9946
  847MOL0     H16876   0.821  11.315   6.436  2.2222  1.2223  1.5623
  847MOL0     H16877   0.879  11.280   6.593 -0.3630  2.5811 -1.2878
  847MOL0     H16878   0.594  11.213   6.494 -3.2168  3.4656  1.9158
  847MOL0     H16879   0.654  11.174   6.655 -0.2796  0.6927 -0.3486
  847MOL0     H16880   0.614  11.445   6.522  0.4459  1.3277  0.5864
  847MOL0     H16881   0.702  11.416   6.677  0.5677 -3.5085  1.8407
  847MOL0     H16882   0.298  11.339   6.807  2.0093 -1.6449  2.4373
  847MOL0     H16883   0.744  10.794   6.678  0.6990  0.9399  0.7651
  847MOL0     H16884   0.697  10.558   6.713 -1.5411 -0.0898 -1.8100
  847MOL0     H16885   0.733  10.454   6.581  1.4073 -0.1046 -0.4063
  847MOL0     H16886   0.867  10.490   6.695  1.6419  1.1400 -1.7415
  848MOL0     O16887   6.415  10.461   9.137  0.1486 -0.1493  0.4312
  848MOL0     C16888   6.298  10.459   9.171  0.3617  0.1754  0.4998
  848MOL0     O16889   6.246  10.558   9.248  0.3101  0.5700 -0.1900
  848MOL0     C16890   6.319  10.668   9.284 -0.5176  0.0912 -0.0549
  848MOL0     C16891   6.343  10.696   9.418 -0.0662  0.1896  0.1038
  848MOL0     C16892   6.415  10.812   9.456 -0.2692  0.4055  1.0561
  848MOL0     C16893   6.456  10.902   9.363  0.1513 -0.2549  0.0067
  848MOL0     O16894   6.515  11.011   9.418 -0.1193 -0.6575 -0.6975
  848MOL0     C16895   6.488  11.145   9.364  0.4426 -0.7942 -0.0157
  848MOL0     C16896   6.486  11.257   9.457  0.1328  0.3221 -0.1652
  848MOL0     C16897   6.619  11.332   9.480 -0.6550  0.4044 -0.2498
  848MOL0     C16898   6.597  11.455   9.575  0.8315  0.0325 -0.1689
  848MOL0     C16899   6.701  11.556   9.557 -0.3307  0.1392 -0.0556
  848MOL0     C16900   6.842  11.515   9.601 -0.1603 -0.0427 -0.4682
  848MOL0     C16901   6.948  11.627   9.575  0.5589  0.7235  0.6819
  848MOL0     C16902   7.086  11.568   9.570 -0.8825  0.2846 -0.0919
  848MOL0     N16903   7.111  11.458   9.477 -0.2462  1.0978  0.2519
  848MOL0     C16904   7.144  11.479   9.351  0.0300 -0.7924 -0.0378
  848MOL0     C16905   7.214  11.372   9.312  0.3411 -0.0710  0.3562
  848MOL0     C16906   7.265  11.352   9.171 -0.9617 -0.2087 -0.2751
  848MOL0     C16907   7.148  11.349   9.067  0.5082  0.6268 -0.3546
  848MOL0     C16908   7.171  11.320   8.918  0.0922 -0.2064  0.4043
  848MOL0     C16909   7.080  11.397   8.815 -0.3937  0.2905 -0.6666
  848MOL0     O16910   7.124  11.533   8.808  0.7799 -0.7066  0.8207
  848MOL0     C16911   7.069  11.616   8.701  0.0347 -0.0390  0.0909
  848MOL0     C16912   6.995  11.572   8.599  0.2595 -0.1611  0.8941
  848MOL0     C16913   6.938  11.655   8.502  0.3885 -0.4355  0.4455
  848MOL0     C16914   6.853  11.587   8.397 -0.4248  0.3148  0.3180
  848MOL0     C16915   6.958  11.792   8.512  0.6405  0.3000  0.3846
  848MOL0     C16916   6.907  11.888   8.416 -0.7787 -0.7025  0.1284
  848MOL0     O16917   6.967  12.011   8.405  0.0434  0.1933  0.3023
  848MOL0     C16918   6.900  12.117   8.356  0.2861  0.3426  0.2527
  848MOL0     C16919   6.828  12.115   8.231 -0.7982  0.1362 -0.1294
  848MOL0     C16920   6.762  12.220   8.179 -0.0385  0.2161  0.4250
  848MOL0     C16921   6.768  12.337   8.245  0.5998 -0.3993  0.3941
  848MOL0     O16922   6.721  12.455   8.197 -0.5983  0.8362  0.2511
  848MOL0     C16923   6.593  12.452   8.142 -0.2316  0.4964  0.5402
  848MOL0     C16924   6.489  12.436   8.262  0.1866  0.1457 -0.1561
  848MOL0     C16925   6.336  12.441   8.230  0.7394  0.9410  0.3208
  848MOL0     C16926   6.247  12.437   8.352 -0.0874  0.5067  0.0445
  848MOL0     C16927   6.114  12.483   8.315  0.0069  0.3339  0.3121
  848MOL0     C16928   6.035  12.479   8.450  0.0211  0.1595 -0.1274
  848MOL0     C16929   5.997  12.339   8.494  0.1566 -0.4637  0.3249
  848MOL0     C16930   5.906  12.269   8.397  0.0322 -0.4708 -0.1761
  848MOL0    Cl16931   5.772  12.368   8.344 -0.0558 -0.5506 -0.0208
  848MOL0     C16932   6.843  12.346   8.363  0.1836  0.4933 -0.4191
  848MOL0     C16933   6.912  12.242   8.424 -0.3505  0.2546  0.3485
  848MOL0     O16934   6.802  11.858   8.359 -0.0641  0.1428 -0.2485
  848MOL0     C16935   7.035  11.845   8.618  0.4282  0.2958 -0.0417
  848MOL0     C16936   7.093  11.758   8.711  0.4033 -0.5659 -0.0338
  848MOL0     N16937   7.199  11.277   9.409 -0.5999  0.0273 -0.0706
  848MOL0     N16938   7.143  11.327   9.508  0.1792 -0.3291  0.0414
  848MOL0     C16939   6.417  10.886   9.227  0.6421 -0.0628  0.5291
  848MOL0     C16940   6.352  10.764   9.188 -0.1870 -0.0609  0.8109
  848MOL0     C16941   6.213  10.339   9.130 -0.0822 -0.0912  0.1949
  848MOL0     C16942   6.086  10.314   9.197  0.2162 -0.3098  0.0972
  848MOL0     C16943   6.006  10.202   9.172 -0.8407  0.8302 -0.2802
  848MOL0     C16944   6.052  10.105   9.087 -0.4380 -0.0950 -0.1581
  848MOL0     O16945   5.995   9.979   9.085  0.7502  0.2105 -0.2600
  848MOL0     C16946   5.903   9.941   8.985  0.5254  0.2332  0.6367
  848MOL0     C16947   5.938   9.785   8.995  0.5838 -0.4197  0.1976
  848MOL0     C16948   5.871   9.714   9.118 -0.3057 -0.0004  0.1134
  848MOL0     C16949   5.725   9.720   9.129 -0.3878  0.1420  0.3130
  848MOL0     C16950   5.685   9.591   9.072 -0.6166  0.1771 -0.5288
  848MOL0     C16951   5.653   9.485   9.019 -0.5259 -0.8168 -0.0254
  848MOL0     C16952   6.163  10.135   9.014  0.8282  0.7987 -0.0641
  848MOL0     C16953   6.248  10.240   9.036  0.5038  0.7768  0.3450
  848MOL0     C16954   6.359  10.239   8.932  0.1867 -0.7908 -0.0033
  848MOL0     H16955   6.316  10.634   9.503  1.0333 -1.3868 -0.6448
  848MOL0     H16956   6.432  10.839   9.560  0.0451  2.9336  0.4127
  848MOL0     H16957   6.391  11.143   9.314  0.8319  2.8128 -1.2169
  848MOL0     H16958   6.559  11.169   9.283 -0.2569  1.0362 -0.1309
  848MOL0     H16959   6.422  11.335   9.415 -3.0822 -2.1587 -0.1952
  848MOL0     H16960   6.431  11.225   9.546  2.1118  0.6967  1.2790
  848MOL0     H16961   6.683  11.256   9.525 -4.5921 -1.5123  2.6308
  848MOL0     H16962   6.661  11.371   9.386 -1.6126  3.4361  0.4523
  848MOL0     H16963   6.495  11.495   9.565  0.8951  0.1841 -0.2118
  848MOL0     H16964   6.610  11.425   9.680 -1.2724  2.3744  0.8933
  848MOL0     H16965   6.684  11.639   9.626 -0.7945 -2.8443  3.7422
  848MOL0     H16966   6.690  11.588   9.453  3.4028 -0.8218 -0.8714
  848MOL0     H16967   6.838  11.505   9.710  0.2764  3.0136 -0.0895
  848MOL0     H16968   6.879  11.423   9.555  3.5002  1.1476 -0.1967
  848MOL0     H16969   6.925  11.712   9.640  1.7498  1.7249 -0.1531
  848MOL0     H16970   6.933  11.677   9.479  0.6607 -0.6076 -0.0359
  848MOL0     H16971   7.157  11.648   9.544  0.5924 -1.4899 -1.8608
  848MOL0     H16972   7.127  11.533   9.665  0.4472  3.1524  0.5178
  848MOL0     H16973   7.121  11.564   9.288 -0.5025 -1.5613 -0.9178
  848MOL0     H16974   7.316  11.256   9.167  0.2756  0.3848  0.5429
  848MOL0     H16975   7.333  11.430   9.135  0.5806 -1.7326 -0.7478
  848MOL0     H16976   7.071  11.277   9.096  0.0300  0.8309 -1.0855
  848MOL0     H16977   7.109  11.451   9.070 -0.9114  0.1703 -1.8537
  848MOL0     H16978   7.274  11.354   8.901 -0.4757  0.4866 -2.1150
  848MOL0     H16979   7.167  11.216   8.886 -0.3271 -0.4095  1.1018
  848MOL0     H16980   7.088  11.349   8.718 -0.9135  1.2458 -1.2007
  848MOL0     H16981   6.975  11.377   8.840 -0.3043  1.5308  0.8670
  848MOL0     H16982   6.994  11.465   8.580  3.0464 -0.1962  0.5260
  848MOL0     H16983   6.883  11.626   8.299 -1.4158  0.3726  0.0305
  848MOL0     H16984   6.749  11.616   8.411  0.0960  1.8311  1.3374
  848MOL0     H16985   6.852  11.478   8.407  0.2798  0.4048  1.6545
  848MOL0     H16986   6.819  12.019   8.182 -2.2021 -3.0163  5.4651
  848MOL0     H16987   6.693  12.205   8.097 -0.6971  4.1392  0.0541
  848MOL0     H16988   6.576  12.549   8.094  0.4638 -0.2561 -1.3144
  848MOL0     H16989   6.576  12.381   8.061  1.6553  1.8576 -1.1448
  848MOL0     H16990   6.511  12.337   8.301  0.7887 -0.9065 -2.9352
  848MOL0     H16991   6.515  12.510   8.338 -1.0045  1.0391 -0.5771
  848MOL0     H16992   6.322  12.358   8.161 -0.9394 -0.4326  2.1755
  848MOL0     H16993   6.310  12.529   8.170 -1.6021  0.5693  0.6595
  848MOL0     H16994   6.291  12.500   8.430 -0.1397 -0.5243  0.9439
  848MOL0     H16995   6.251  12.338   8.398  0.2573  1.0768  1.2888
  848MOL0     H16996   6.128  12.585   8.277  1.3923  0.0089 -0.1118
  848MOL0     H16997   6.068  12.435   8.229  0.2887 -1.3425  1.0708
  848MOL0     H16998   5.947  12.543   8.437  1.0767  1.5737 -0.5461
  848MOL0     H16999   6.090  12.532   8.528 -2.3497  1.1494  0.9878
  848MOL0     H17000   5.943  12.359   8.587  1.0012  1.8359  0.3940
  848MOL0     H17001   6.082  12.277   8.526  1.0126  1.5745  2.3101
  848MOL0     H17002   5.865  12.178   8.442  0.9419 -0.5931  0.4444
  848MOL0     H17003   5.962  12.236   8.309 -1.3680 -0.1611 -1.2227
  848MOL0     H17004   6.866  12.442   8.406 -1.6791 -0.3518  2.7870
  848MOL0     H17005   6.980  12.254   8.507  0.2886 -1.6011  0.1176
  848MOL0     H17006   7.052  11.952   8.623  2.7166  0.0132 -0.6937
  848MOL0     H17007   7.154  11.797   8.792  0.5999  0.1062 -0.4911
  848MOL0     H17008   6.442  10.967   9.160 -0.7832  0.6527  0.8406
  848MOL0     H17009   6.336  10.749   9.081  3.0851 -0.7422  0.3069
  848MOL0     H17010   6.057  10.394   9.265  2.4783  1.8132 -1.2592
  848MOL0     H17011   5.928  10.175   9.242  0.3851 -3.8882 -0.3481
  848MOL0     H17012   5.802   9.972   9.013  1.0289  2.3015  0.3236
  848MOL0     H17013   5.921   9.986   8.887  0.7912 -0.0617  0.5488
  848MOL0     H17014   6.045   9.771   8.982  0.3310  0.5364 -5.5217
  848MOL0     H17015   5.893   9.739   8.906  0.7792  0.6774 -0.4855
  848MOL0     H17016   5.908   9.611   9.128  0.0249 -0.0337 -1.2979
  848MOL0     H17017   5.898   9.774   9.205 -0.9298  0.3526  0.0662
  848MOL0     H17018   5.688   9.812   9.084  1.2983  0.4277 -0.5475
  848MOL0     H17019   5.704   9.722   9.236  3.5099 -0.1890  1.2149
  848MOL0     H17020   5.617   9.421   8.941 -0.8479  1.9985 -2.3505
  848MOL0     H17021   6.179  10.056   8.942  2.7352 -0.4884  1.6805
  848MOL0     H17022   6.357  10.156   8.861 -1.8341  1.1427 -2.4016
  848MOL0     H17023   6.365  10.330   8.873  2.0883 -1.0452 -0.2424
  848MOL0     H17024   6.449  10.245   8.993 -1.3011 -1.8432  2.4694
  849MOL0     O17025   0.514   9.209   2.472 -0.2907 -0.4359  0.0765
  849MOL0     C17026   0.466   9.103   2.438  0.6752  0.6033 -0.0974
  849MOL0     O17027   0.499   8.979   2.501 -0.3920  0.2259 -0.1672
  849MOL0     C17028   0.604   8.984   2.591  1.1049  0.1437  0.9027
  849MOL0     C17029   0.731   9.017   2.562 -0.0676 -0.1928  0.4880
  849MOL0     C17030   0.823   9.035   2.671 -0.0323  0.5018 -0.5418
  849MOL0     C17031   0.787   9.004   2.805  0.2679 -0.0150  0.4463
  849MOL0     O17032   0.880   9.023   2.904  0.8049  0.4879  0.0760
  849MOL0     C17033   0.908   8.907   2.984  0.0119  0.7044 -0.1351
  849MOL0     C17034   0.965   8.936   3.121 -0.2547  0.1002  0.8767
  849MOL0     C17035   1.000   8.822   3.200 -0.2764  0.7372  0.5801
  849MOL0     C17036   1.079   8.858   3.325 -0.3568  0.4103  0.3327
  849MOL0     C17037   1.169   8.752   3.388 -0.5821  0.8572 -0.1949
  849MOL0     C17038   1.079   8.632   3.421 -0.3678 -0.0076  0.9976
  849MOL0     C17039   1.148   8.512   3.491  0.4362  0.0927 -0.1492
  849MOL0     C17040   1.179   8.535   3.645 -0.4907 -0.8514 -0.3074
  849MOL0     N17041   1.262   8.430   3.710 -0.0285  0.2142 -0.0911
  849MOL0     C17042   1.387   8.383   3.671 -0.1080  0.6897  0.2243
  849MOL0     C17043   1.413   8.267   3.743 -0.2291  0.6722  0.4339
  849MOL0     C17044   1.542   8.185   3.747 -0.4944  0.0854 -0.0016
  849MOL0     C17045   1.619   8.182   3.884  0.4750 -0.2080  0.1118
  849MOL0     C17046   1.559   8.088   3.980  0.5129  0.8045 -0.9066
  849MOL0     C17047   1.620   8.095   4.131  0.8499 -0.3190  0.8096
  849MOL0     O17048   1.577   7.989   4.212  0.4223  0.4208  0.1702
  849MOL0     C17049   1.658   7.996   4.323 -0.3673 -0.9369 -0.3690
  849MOL0     C17050   1.652   8.109   4.413  0.0021  0.4672 -0.4055
  849MOL0     C17051   1.739   8.123   4.518  0.0440 -0.0715  0.6542
  849MOL0     C17052   1.720   8.248   4.600 -0.6712  0.7415 -0.0455
  849MOL0     C17053   1.834   8.020   4.543 -0.7280  0.6598 -0.2502
  849MOL0     C17054   1.923   8.009   4.657 -0.2319  0.0773 -0.0586
  849MOL0     O17055   1.962   7.889   4.706 -0.0393  0.4097 -0.0447
  849MOL0     C17056   2.040   7.898   4.812  0.5574 -0.0394  0.1895
  849MOL0     C17057   2.009   7.808   4.913  0.0769 -0.3635  0.2611
  849MOL0     C17058   2.086   7.807   5.031 -0.1878 -0.1596 -0.1733
  849MOL0     C17059   2.195   7.897   5.055 -0.1560 -0.4702 -1.3367
  849MOL0     O17060   2.264   7.893   5.179  0.2549 -0.1663 -0.1990
  849MOL0     C17061   2.401   7.923   5.174 -0.3426  0.4043 -0.3640
  849MOL0     C17062   2.466   7.929   5.308 -0.6614  0.3782  1.0852
  849MOL0     C17063   2.449   7.804   5.384  0.0185  0.3378 -0.0032
  849MOL0     C17064   2.527   7.829   5.517  0.1936 -0.1901  0.0863
  849MOL0     C17065   2.488   7.710   5.616  0.2634 -0.3918  0.1967
  849MOL0     C17066   2.582   7.700   5.733  0.2147  0.2692  0.6803
  849MOL0     C17067   2.555   7.566   5.811  0.1235 -0.0135  0.1270
  849MOL0     C17068   2.671   7.500   5.890  0.2119 -0.3501 -0.1399
  849MOL0    Cl17069   2.809   7.429   5.798 -0.0698 -0.1283  0.0557
  849MOL0     C17070   2.228   7.990   4.950  0.2848  0.5154 -0.8646
  849MOL0     C17071   2.152   7.984   4.833 -0.7480 -0.4648  0.2545
  849MOL0     O17072   1.944   8.116   4.709 -0.5099 -0.4325 -0.6403
  849MOL0     C17073   1.834   7.903   4.461  0.5421  0.2072  0.9389
  849MOL0     C17074   1.758   7.903   4.341 -0.0464 -0.6425  0.1408
  849MOL0     N17075   1.299   8.247   3.824  0.1224 -1.0279  0.2656
  849MOL0     N17076   1.207   8.336   3.796  0.2855  0.2825 -0.0448
  849MOL0     C17077   0.652   8.966   2.829  0.0076  0.4771  0.4289
  849MOL0     C17078   0.561   8.952   2.724  0.4882 -0.8204 -0.2087
  849MOL0     C17079   0.347   9.113   2.346  0.3045 -0.2164 -0.3954
  849MOL0     C17080   0.244   9.026   2.371 -0.1742  0.3906  0.5141
  849MOL0     C17081   0.126   9.026   2.291 -1.1369 -0.1488 -0.9237
  849MOL0     C17082   0.104   9.119   2.183 -0.4787  0.5070 -0.1108
  849MOL0     O17083  -0.009   9.129   2.098 -0.4792  0.0543 -0.1998
  849MOL0     C17084  -0.087   9.015   2.094 -0.2719 -0.4491  0.2607
  849MOL0     C17085  -0.194   9.043   1.994  0.5445  0.4787 -0.1368
  849MOL0     C17086  -0.315   8.937   1.997 -0.2564  1.1491  0.0134
  849MOL0     C17087  -0.404   8.942   1.874  0.7515 -0.4754 -0.7137
  849MOL0     C17088  -0.444   9.076   1.841  1.0258 -0.2183 -0.0551
  849MOL0     C17089  -0.475   9.191   1.818 -0.4892 -0.0601  0.1229
  849MOL0     C17090   0.209   9.206   2.160 -0.2006 -0.3774 -0.1822
  849MOL0     C17091   0.334   9.196   2.236  0.2442  0.2697 -0.9291
  849MOL0     C17092   0.446   9.287   2.186 -0.0262  1.2306  0.0156
  849MOL0     H17093   0.755   9.044   2.460  0.1161  1.5148  0.9448
  849MOL0     H17094   0.919   9.082   2.654 -0.1170  0.5829 -0.8018
  849MOL0     H17095   0.987   8.848   2.937 -1.3399  0.0638 -1.6765
  849MOL0     H17096   0.822   8.840   2.992  1.4980 -1.0742  2.6129
  849MOL0     H17097   1.050   8.999   3.094 -2.3476  2.0203 -1.8132
  849MOL0     H17098   0.909   9.004   3.186 -0.1837  0.2539  0.7783
  849MOL0     H17099   0.908   8.774   3.232 -0.7961  0.9217 -0.5793
  849MOL0     H17100   1.048   8.740   3.145 -1.6938  0.5650 -0.4522
  849MOL0     H17101   1.149   8.936   3.295  0.2892 -0.2844  0.0072
  849MOL0     H17102   1.023   8.900   3.409  0.4749  1.3295  0.4386
  849MOL0     H17103   1.212   8.792   3.480 -1.6599  2.4417 -0.3473
  849MOL0     H17104   1.239   8.708   3.316  0.7831  0.9240  1.0442
  849MOL0     H17105   0.995   8.664   3.484 -1.6702 -0.6518 -0.3365
  849MOL0     H17106   1.038   8.603   3.323  4.1719  1.7155 -1.7392
  849MOL0     H17107   1.243   8.491   3.440  1.6079  0.4754  1.7739
  849MOL0     H17108   1.086   8.422   3.480 -2.3994  1.8419  0.4863
  849MOL0     H17109   1.241   8.626   3.646 -1.5871 -0.0960  0.9352
  849MOL0     H17110   1.086   8.551   3.700 -0.8898 -1.4498 -0.7950
  849MOL0     H17111   1.461   8.416   3.598  2.2120 -3.9704  0.1466
  849MOL0     H17112   1.604   8.223   3.666 -1.0167 -0.2109 -0.5466
  849MOL0     H17113   1.511   8.084   3.720  0.0598  0.8551 -4.2151
  849MOL0     H17114   1.720   8.151   3.855  0.0605 -2.8207  1.1723
  849MOL0     H17115   1.618   8.284   3.924 -1.3545 -0.9291  2.0916
  849MOL0     H17116   1.456   8.123   3.995  0.1161 -0.6285 -0.0799
  849MOL0     H17117   1.572   7.982   3.955 -2.0494  0.3579 -0.6641
  849MOL0     H17118   1.728   8.088   4.117  0.6676  0.8707 -1.8467
  849MOL0     H17119   1.598   8.190   4.182 -0.3179 -1.1430  1.9036
  849MOL0     H17120   1.582   8.189   4.391 -0.8570 -0.0944  0.2432
  849MOL0     H17121   1.615   8.272   4.584 -0.7371  0.8355  0.4977
  849MOL0     H17122   1.769   8.341   4.568 -2.8839  1.3333 -1.9072
  849MOL0     H17123   1.727   8.233   4.709  0.1694 -1.9002 -0.3868
  849MOL0     H17124   1.917   7.757   4.887  0.6223 -0.1850 -2.2456
  849MOL0     H17125   2.040   7.753   5.113  1.6567 -2.3904 -0.5049
  849MOL0     H17126   2.452   7.857   5.103  0.0461  0.4426 -0.1243
  849MOL0     H17127   2.432   8.019   5.132 -0.4074  0.5115 -0.1678
  849MOL0     H17128   2.570   7.959   5.300 -0.3735 -0.6610  0.7881
  849MOL0     H17129   2.417   8.008   5.366 -0.7714  0.5089  0.8176
  849MOL0     H17130   2.486   7.713   5.336  0.9915  1.1553 -0.8394
  849MOL0     H17131   2.341   7.793   5.399  0.2283  2.1506  4.0274
  849MOL0     H17132   2.506   7.921   5.572  0.7635 -1.1329  1.9347
  849MOL0     H17133   2.633   7.818   5.494 -0.0324 -1.9299 -0.3042
  849MOL0     H17134   2.381   7.722   5.636 -0.1710  1.0845 -2.5679
  849MOL0     H17135   2.500   7.620   5.554  2.0668  0.9330 -1.5047
  849MOL0     H17136   2.589   7.788   5.798  1.9301  0.1132  0.7530
  849MOL0     H17137   2.679   7.696   5.683 -0.9987 -3.9527 -1.8561
  849MOL0     H17138   2.504   7.485   5.758 -1.3916  1.7591 -1.2661
  849MOL0     H17139   2.481   7.598   5.885  1.1718 -0.3063  1.3411
  849MOL0     H17140   2.618   7.418   5.940 -0.5729 -0.6115 -1.3557
  849MOL0     H17141   2.704   7.575   5.962 -2.1189  2.4603 -1.7798
  849MOL0     H17142   2.307   8.064   4.959 -1.4433  2.1811  3.0122
  849MOL0     H17143   2.200   8.037   4.751 -0.1432  0.1119  0.9625
  849MOL0     H17144   1.905   7.823   4.476 -0.6214 -1.0769 -0.1635
  849MOL0     H17145   1.789   7.825   4.271 -2.6337 -2.7261  1.1548
  849MOL0     H17146   0.607   8.939   2.924 -2.2883 -0.5233 -0.8625
  849MOL0     H17147   0.465   8.914   2.756  1.0772 -0.4451  2.2834
  849MOL0     H17148   0.252   8.954   2.451 -1.4631  1.1231  1.3430
  849MOL0     H17149   0.052   8.948   2.304  1.6575 -2.7202  0.8653
  849MOL0     H17150  -0.017   8.934   2.073  0.8823  0.0920  1.7575
  849MOL0     H17151  -0.136   8.995   2.190 -2.3948  2.1709 -0.1492
  849MOL0     H17152  -0.142   9.030   1.898  2.5187 -3.6786  1.2337
  849MOL0     H17153  -0.245   9.139   2.002 -1.8541 -0.3837 -3.0563
  849MOL0     H17154  -0.268   8.838   2.007  1.3686  1.9605  0.7690
  849MOL0     H17155  -0.364   8.957   2.093 -1.2789 -0.9495 -0.0046
  849MOL0     H17156  -0.491   8.880   1.897  1.2561 -0.6816  0.7319
  849MOL0     H17157  -0.353   8.884   1.796  1.9775 -2.3441  1.3260
  849MOL0     H17158  -0.493   9.296   1.802 -2.1134 -0.4600 -0.9411
  849MOL0     H17159   0.209   9.272   2.074  0.3717  1.5570  1.2195
  849MOL0     H17160   0.500   9.329   2.271  0.4253 -2.1120  1.5281
  849MOL0     H17161   0.518   9.223   2.135  2.6212  3.1877  1.0926
  849MOL0     H17162   0.410   9.361   2.114 -3.8237 -2.9644 -2.9715
  850MOL0     O17163  11.183   0.772   4.797 -0.5471 -0.0258  0.1558
  850MOL0     C17164  11.231   0.885   4.813 -0.1726  0.1587 -0.0975
  850MOL0     O17165  11.180   0.984   4.893  0.2393 -0.1298 -0.2424
  850MOL0     C17166  11.067   0.959   4.975  0.2270 -0.0037  0.0828
  850MOL0     C17167  10.945   0.900   4.934 -0.0841 -0.2742  0.5030
  850MOL0     C17168  10.842   0.857   5.020 -1.1263  0.0084  0.5501
  850MOL0     C17169  10.842   0.902   5.159 -0.5976 -0.6633  0.8669
  850MOL0     O17170  10.741   0.885   5.251  0.3078  0.3269 -0.3440
  850MOL0     C17171  10.615   0.837   5.207 -0.2400  0.1401  0.3804
  850MOL0     C17172  10.578   0.699   5.259 -1.1005 -0.0917  0.6732
  850MOL0     C17173  10.454   0.643   5.180  0.2714 -0.3240  0.3221
  850MOL0     C17174  10.407   0.507   5.225 -0.8787 -0.2059  0.2284
  850MOL0     C17175  10.287   0.458   5.135 -0.1542  0.7539 -0.7013
  850MOL0     C17176  10.222   0.328   5.191  0.0980  0.2980  0.3919
  850MOL0     C17177  10.101   0.292   5.093 -0.4994 -0.1615 -0.9486
  850MOL0     C17178  10.147   0.269   4.948 -1.4097  0.3843  0.0793
  850MOL0     N17179  10.046   0.214   4.857  0.1716  0.0282 -0.4533
  850MOL0     C17180   9.921   0.269   4.828 -0.1922  0.4772  0.1364
  850MOL0     C17181   9.869   0.185   4.740 -0.0111  0.3972  0.3511
  850MOL0     C17182   9.733   0.180   4.682 -0.3356 -0.4885  0.1681
  850MOL0     C17183   9.638   0.079   4.746  0.3433  0.0776  0.8690
  850MOL0     C17184   9.637   0.110   4.899  0.8030  0.3551  0.0577
  850MOL0     C17185   9.549  -0.002   4.966  0.9459 -0.2779 -0.0777
  850MOL0     O17186   9.623  -0.125   4.974  0.4894  0.1858 -0.1357
  850MOL0     C17187   9.606  -0.225   5.069 -0.2008 -0.8020  0.1298
  850MOL0     C17188   9.687  -0.342   5.048 -0.0805  0.3830 -0.4112
  850MOL0     C17189   9.667  -0.455   5.129 -0.3938 -0.1101  0.2340
  850MOL0     C17190   9.758  -0.573   5.105  0.5422  0.6132  0.3112
  850MOL0     C17191   9.585  -0.453   5.236  0.5963 -0.8064  0.4345
  850MOL0     C17192   9.550  -0.574   5.321  1.1644 -0.7424  0.4713
  850MOL0     O17193   9.420  -0.584   5.334  0.1404  0.3293  0.4956
  850MOL0     C17194   9.358  -0.679   5.421 -0.5213 -0.3092 -0.1534
  850MOL0     C17195   9.249  -0.629   5.493 -0.2065  0.0922  0.0531
  850MOL0     C17196   9.181  -0.718   5.579  0.0386  0.4885  0.4020
  850MOL0     C17197   9.229  -0.853   5.597  0.2483 -0.4282  0.5660
  850MOL0     O17198   9.153  -0.939   5.671  0.5330  0.3748  0.2018
  850MOL0     C17199   9.219  -1.047   5.736  0.1420  0.4588  0.2568
  850MOL0     C17200   9.121  -1.091   5.846  0.4381  0.1889 -0.1628
  850MOL0     C17201   9.124  -0.989   5.967 -0.0658 -0.0846 -0.6392
  850MOL0     C17202   9.051  -1.064   6.080  0.1432 -0.2356  0.4058
  850MOL0     C17203   9.014  -0.978   6.193  0.4896 -0.4674 -0.9612
  850MOL0     C17204   8.939  -1.065   6.303  0.6437  0.6529 -1.2747
  850MOL0     C17205   8.938  -1.008   6.445 -0.0074  0.3305  0.2817
  850MOL0     C17206   8.849  -0.890   6.451 -0.3056  0.0230 -0.4981
  850MOL0    Cl17207   8.866  -0.820   6.618  0.5015  0.5385 -0.2361
  850MOL0     C17208   9.331  -0.901   5.520  0.2681 -0.4100 -0.3624
  850MOL0     C17209   9.394  -0.815   5.434  0.4148 -0.5525  0.2808
  850MOL0     O17210   9.631  -0.656   5.364  0.0176  0.2508 -0.0930
  850MOL0     C17211   9.531  -0.326   5.273 -0.1949  0.8326  0.0397
  850MOL0     C17212   9.529  -0.214   5.188  0.0658  0.2996  0.3995
  850MOL0     N17213   9.964   0.088   4.696 -0.3636  0.7435  0.4138
  850MOL0     N17214  10.073   0.117   4.762  0.0372  0.6406  0.4647
  850MOL0     C17215  10.956   0.971   5.200  0.1788  0.3178  0.7567
  850MOL0     C17216  11.066   0.996   5.110 -0.4780 -0.7494 -0.5534
  850MOL0     C17217  11.373   0.912   4.756 -0.0561  0.4873  0.0485
  850MOL0     C17218  11.416   1.044   4.749  0.0014 -1.5894  0.0245
  850MOL0     C17219  11.542   1.083   4.704  1.1528 -0.4089 -0.8029
  850MOL0     C17220  11.623   0.988   4.648  0.1595  0.0915 -0.0146
  850MOL0     O17221  11.740   1.028   4.597  0.2714 -0.0748 -0.1864
  850MOL0     C17222  11.787   0.987   4.469  1.3375  0.2272  1.1297
  850MOL0     C17223  11.914   0.909   4.495  0.5202  0.5605  0.0345
  850MOL0     C17224  12.012   0.995   4.566 -0.1478  1.5867  0.4658
  850MOL0     C17225  12.149   0.901   4.574  1.2015 -0.3750  0.1805
  850MOL0     C17226  12.121   0.791   4.674 -0.5642  0.9280  0.8354
  850MOL0     C17227  12.100   0.706   4.755 -0.6940  0.0048 -0.0037
  850MOL0     C17228  11.578   0.858   4.649 -0.2015  0.4508  0.0446
  850MOL0     C17229  11.463   0.817   4.711  0.3134 -0.0009 -0.0432
  850MOL0     C17230  11.438   0.666   4.723  0.5068  0.3863 -0.3259
  850MOL0     H17231  10.940   0.857   4.835 -1.1229  1.7968 -0.3934
  850MOL0     H17232  10.769   0.784   4.986 -0.0720 -1.4005  1.2156
  850MOL0     H17233  10.607   0.849   5.099 -1.4231  1.5192  0.5876
  850MOL0     H17234  10.540   0.902   5.254  0.0270 -1.1123  2.7095
  850MOL0     H17235  10.660   0.629   5.239  0.5036  2.1145 -1.0418
  850MOL0     H17236  10.549   0.700   5.364  1.3620 -1.9029  1.4579
  850MOL0     H17237  10.371   0.714   5.189  1.5370  1.1178  1.2846
  850MOL0     H17238  10.474   0.634   5.073  2.6501 -0.6382  0.7385
  850MOL0     H17239  10.489   0.436   5.238 -0.9371 -0.3968 -0.4360
  850MOL0     H17240  10.379   0.530   5.329 -2.7808 -0.6632 -0.1353
  850MOL0     H17241  10.329   0.441   5.035  2.4928 -0.9630  0.5930
  850MOL0     H17242  10.210   0.535   5.130 -2.2161 -0.9703  1.9613
  850MOL0     H17243  10.287   0.240   5.185 -0.5434 -0.2551  1.2097
  850MOL0     H17244  10.191   0.330   5.296  0.3066  1.1036  0.4441
  850MOL0     H17245  10.039   0.382   5.090 -1.7920 -0.6926  3.3313
  850MOL0     H17246  10.042   0.210   5.134 -1.1718  1.9186  2.6329
  850MOL0     H17247  10.175   0.365   4.902 -0.2029  0.7149  1.4238
  850MOL0     H17248  10.238   0.208   4.950 -0.6959  1.4490  1.6068
  850MOL0     H17249   9.882   0.361   4.869  3.7545  1.6288  1.8525
  850MOL0     H17250   9.754   0.145   4.581 -1.4297  1.0170 -0.6289
  850MOL0     H17251   9.680   0.276   4.676 -1.1739 -0.9561 -0.1065
  850MOL0     H17252   9.536   0.082   4.705  0.7250 -0.3720 -0.1522
  850MOL0     H17253   9.670  -0.025   4.737  4.0315  0.7351  3.8438
  850MOL0     H17254   9.737   0.086   4.937  1.1216 -2.1092 -2.0776
  850MOL0     H17255   9.609   0.214   4.921  1.5304  0.1686  2.0816
  850MOL0     H17256   9.518   0.028   5.067  2.7090 -3.2562  1.4731
  850MOL0     H17257   9.458  -0.014   4.907  0.0999  2.9751  0.3391
  850MOL0     H17258   9.747  -0.345   4.957  0.1199  0.1607 -0.2725
  850MOL0     H17259   9.818  -0.546   5.018 -0.3443  1.3486 -0.0858
  850MOL0     H17260   9.702  -0.662   5.074  3.0905 -0.6169 -1.0736
  850MOL0     H17261   9.816  -0.597   5.195 -0.8692  0.2280  1.1501
  850MOL0     H17262   9.220  -0.526   5.477  1.8013  0.4887 -1.5048
  850MOL0     H17263   9.091  -0.684   5.627 -0.2111  0.2114  0.1384
  850MOL0     H17264   9.225  -1.131   5.666 -2.1021  2.1781 -2.1840
  850MOL0     H17265   9.319  -1.016   5.768 -0.2090 -0.8811  2.9167
  850MOL0     H17266   9.020  -1.099   5.804 -0.7036  1.0643  2.2702
  850MOL0     H17267   9.156  -1.189   5.880 -0.6729  0.1681  0.9833
  850MOL0     H17268   9.081  -0.893   5.940  1.6788  0.4150 -1.8486
  850MOL0     H17269   9.229  -0.961   5.977 -0.3834  0.7317  0.6216
  850MOL0     H17270   9.125  -1.133   6.121  1.2633 -0.1119 -1.3078
  850MOL0     H17271   8.966  -1.112   6.031  1.3630 -2.1262  0.0520
  850MOL0     H17272   9.099  -0.920   6.231 -0.0362 -1.8222  2.6735
  850MOL0     H17273   8.936  -0.910   6.158 -1.1891 -1.8989 -0.1454
  850MOL0     H17274   8.983  -1.165   6.308  1.7076  1.1633  1.9117
  850MOL0     H17275   8.838  -1.088   6.267  0.4410 -2.0773  0.7031
  850MOL0     H17276   9.039  -0.982   6.478 -0.6228  3.9205 -0.3317
  850MOL0     H17277   8.902  -1.090   6.508 -1.9831  3.4708  3.6579
  850MOL0     H17278   8.750  -0.915   6.411  0.2745  2.9607 -4.3504
  850MOL0     H17279   8.895  -0.819   6.381  3.3853 -0.6361  1.0526
  850MOL0     H17280   9.353  -1.006   5.533 -0.7937 -0.9419 -2.4672
  850MOL0     H17281   9.482  -0.862   5.391 -0.3784 -1.1847 -0.7329
  850MOL0     H17282   9.493  -0.331   5.375 -0.6749 -2.1713 -0.1991
  850MOL0     H17283   9.469  -0.125   5.209 -1.7585 -1.0485  1.1908
  850MOL0     H17284  10.955   0.994   5.306 -0.8164 -2.0831  1.3444
  850MOL0     H17285  11.158   1.049   5.132 -0.9193  0.1831 -0.9076
  850MOL0     H17286  11.350   1.112   4.800  0.3614 -2.0269  1.1002
  850MOL0     H17287  11.566   1.189   4.711 -0.8352  0.0556 -0.4367
  850MOL0     H17288  11.716   0.915   4.425 -2.1993  2.3012  2.9795
  850MOL0     H17289  11.789   1.070   4.398 -3.5562 -1.0628 -0.9239
  850MOL0     H17290  11.955   0.871   4.401  0.6769 -1.7672  0.9782
  850MOL0     H17291  11.910   0.816   4.552  2.7346 -0.3983 -1.2150
  850MOL0     H17292  12.035   1.087   4.512  1.0705 -0.0725 -2.0250
  850MOL0     H17293  11.989   1.031   4.666 -0.8615  1.8421  0.2154
  850MOL0     H17294  12.232   0.965   4.606  0.9449 -0.3336  0.7832
  850MOL0     H17295  12.187   0.856   4.482  1.2954 -3.1442  1.4653
  850MOL0     H17296  12.085   0.651   4.846 -2.0265 -1.3204 -0.9877
  850MOL0     H17297  11.641   0.771   4.630 -0.1226  0.2581  1.1094
  850MOL0     H17298  11.536   0.619   4.736  0.5905  0.8152  0.6562
  850MOL0     H17299  11.368   0.638   4.802 -0.9076 -0.8080 -1.9089
  850MOL0     H17300  11.393   0.636   4.628  0.3949  0.2175 -0.2214
  851MOL0     O17301   6.075   0.419   8.587 -1.3594  0.1069  0.0826
  851MOL0     C17302   6.026   0.382   8.481  0.5378  0.8685 -0.1025
  851MOL0     O17303   5.894   0.351   8.465  0.6326  0.5179 -0.0224
  851MOL0     C17304   5.830   0.313   8.585 -0.6586 -0.9058 -0.0915
  851MOL0     C17305   5.739   0.399   8.640  0.2848 -0.0681 -0.0265
  851MOL0     C17306   5.672   0.369   8.762  0.2538  0.3791  0.4642
  851MOL0     C17307   5.712   0.266   8.838 -0.8458  0.1770  0.2582
  851MOL0     O17308   5.668   0.236   8.961  0.1464  0.4592 -0.3814
  851MOL0     C17309   5.712   0.310   9.072  0.2131  0.7029 -0.0727
  851MOL0     C17310   5.661   0.243   9.192  0.2214  0.0015  0.4608
  851MOL0     C17311   5.687   0.322   9.323  0.1089 -0.4896 -0.5534
  851MOL0     C17312   5.635   0.261   9.453  0.0335  0.0405  0.1031
  851MOL0     C17313   5.715   0.138   9.500 -1.3656 -1.1473 -0.4319
  851MOL0     C17314   5.676   0.054   9.623  0.6207 -0.4405 -0.0265
  851MOL0     C17315   5.536  -0.000   9.619  0.4633 -1.5235 -0.2952
  851MOL0     C17316   5.510  -0.108   9.519 -0.6732  0.6623 -0.1605
  851MOL0     N17317   5.577  -0.232   9.561  0.6534 -0.4894  0.4297
  851MOL0     C17318   5.555  -0.298   9.681 -0.7476 -0.4799 -0.5081
  851MOL0     C17319   5.622  -0.414   9.680 -0.6664 -0.8890 -0.0046
  851MOL0     C17320   5.631  -0.515   9.795  0.4055 -0.8258  0.4121
  851MOL0     C17321   5.696  -0.646   9.754 -0.2629  0.0046  0.5102
  851MOL0     C17322   5.731  -0.740   9.868  0.0114  0.5467  0.0585
  851MOL0     C17323   5.809  -0.862   9.826  0.2996 -0.2914 -0.1419
  851MOL0     O17324   5.730  -0.936   9.744  0.6790  0.9638 -0.0288
  851MOL0     C17325   5.756  -1.062   9.698  0.2207 -0.2029 -0.2174
  851MOL0     C17326   5.653  -1.117   9.610  0.0024 -0.5350 -0.3515
  851MOL0     C17327   5.671  -1.250   9.562 -0.5934 -0.6248 -0.6681
  851MOL0     C17328   5.561  -1.294   9.464  0.2581 -0.2312 -0.6776
  851MOL0     C17329   5.780  -1.327   9.609 -0.5119  0.8833  0.0537
  851MOL0     C17330   5.796  -1.475   9.570  0.1066 -0.9132 -0.7528
  851MOL0     O17331   5.911  -1.526   9.613  0.3117 -0.4176 -0.7039
  851MOL0     C17332   5.922  -1.662   9.636  0.3358 -0.3844 -0.0016
  851MOL0     C17333   5.982  -1.704   9.756  0.6666  0.1197 -0.5045
  851MOL0     C17334   5.985  -1.840   9.787 -0.1298 -0.6361 -0.7201
  851MOL0     C17335   5.938  -1.937   9.692 -0.0074 -0.1724  0.2298
  851MOL0     O17336   5.948  -2.081   9.704 -0.3593 -0.1569 -0.8014
  851MOL0     C17337   5.982  -2.127   9.839 -0.5910 -0.8423 -0.1749
  851MOL0     C17338   5.958  -2.275   9.864  0.9009 -1.1623  0.1987
  851MOL0     C17339   5.809  -2.325   9.870 -0.1076  0.0679  0.2047
  851MOL0     C17340   5.747  -2.352   9.739 -0.3532  0.5022 -0.5226
  851MOL0     C17341   5.634  -2.451   9.764 -0.9130 -0.4729 -0.9093
  851MOL0     C17342   5.548  -2.486   9.645  0.1572  0.3186  0.5516
  851MOL0     C17343   5.425  -2.595   9.675 -0.8546  0.0447 -0.0577
  851MOL0     C17344   5.323  -2.593   9.555 -0.1074  0.5188  0.1365
  851MOL0    Cl17345   5.371  -2.644   9.386  0.0708  0.2260  0.6560
  851MOL0     C17346   5.873  -1.892   9.578 -0.3093 -0.4310 -0.0474
  851MOL0     C17347   5.868  -1.757   9.551  0.6409 -0.0744  0.1686
  851MOL0     O17348   5.703  -1.537   9.520 -0.0322 -0.6318  0.5731
  851MOL0     C17349   5.884  -1.265   9.682  0.6712  0.3298 -0.5778
  851MOL0     C17350   5.872  -1.137   9.731 -0.1255  0.0364  0.3597
  851MOL0     N17351   5.691  -0.413   9.551  0.9578 -0.2191  1.0334
  851MOL0     N17352   5.660  -0.302   9.480  0.4204 -0.6528 -0.6443
  851MOL0     C17353   5.813   0.183   8.790  0.0820 -0.7921  0.2182
  851MOL0     C17354   5.868   0.203   8.659 -0.0738  0.6641  0.2770
  851MOL0     C17355   6.115   0.390   8.359  0.7982 -0.7392  0.0490
  851MOL0     C17356   6.225   0.481   8.363 -0.4255  0.2967  0.3952
  851MOL0     C17357   6.330   0.475   8.274  1.1456 -0.2484 -0.3537
  851MOL0     C17358   6.316   0.376   8.172  1.3901 -0.1985  0.6000
  851MOL0     O17359   6.423   0.353   8.090  0.5175 -0.1227 -0.3828
  851MOL0     C17360   6.536   0.298   8.162 -0.6692 -0.4268  0.9360
  851MOL0     C17361   6.521   0.147   8.190 -0.2962  0.6492  0.5227
  851MOL0     C17362   6.480   0.069   8.063 -0.5766 -0.1553 -0.4689
  851MOL0     C17363   6.506  -0.085   8.078  0.1607 -0.3285  1.0411
  851MOL0     C17364   6.441  -0.156   7.971  0.0497  0.5209 -0.6812
  851MOL0     C17365   6.389  -0.200   7.870  1.1799  0.0202 -0.4769
  851MOL0     C17366   6.206   0.293   8.154  0.0327 -0.3547  0.0979
  851MOL0     C17367   6.101   0.312   8.247  0.2287 -0.2580 -0.3093
  851MOL0     C17368   5.977   0.232   8.210  0.1095 -0.5503 -0.1421
  851MOL0     H17369   5.713   0.473   8.566  0.4044 -1.3527 -1.4107
  851MOL0     H17370   5.599   0.434   8.810 -0.6257  0.5668 -1.0891
  851MOL0     H17371   5.666   0.410   9.071 -2.8202 -0.5623 -2.1691
  851MOL0     H17372   5.820   0.308   9.085  0.2884  2.0506 -0.2862
  851MOL0     H17373   5.554   0.228   9.171  0.5276  1.8320 -3.3071
  851MOL0     H17374   5.707   0.144   9.188 -2.1150 -1.1135 -1.9510
  851MOL0     H17375   5.796   0.329   9.335 -0.3057  2.2052  3.9542
  851MOL0     H17376   5.641   0.421   9.322 -1.7428 -1.2230 -4.1736
  851MOL0     H17377   5.647   0.341   9.527  3.2747  0.0261 -0.2721
  851MOL0     H17378   5.529   0.238   9.467 -0.4146  1.4958 -0.7473
  851MOL0     H17379   5.820   0.168   9.509 -1.5311 -1.0403  1.5734
  851MOL0     H17380   5.706   0.079   9.408 -1.6710  1.1888 -1.9770
  851MOL0     H17381   5.747  -0.024   9.652  2.9470  1.5207 -0.1788
  851MOL0     H17382   5.681   0.129   9.702 -2.2880  0.1411 -0.2733
  851MOL0     H17383   5.465   0.082   9.607  1.1415 -0.7765  0.6258
  851MOL0     H17384   5.508  -0.022   9.723 -0.4605  3.0152  0.6117
  851MOL0     H17385   5.404  -0.132   9.508 -0.6874  1.0381 -0.8605
  851MOL0     H17386   5.542  -0.071   9.421 -0.3324 -1.8207 -1.0507
  851MOL0     H17387   5.506  -0.268   9.773  2.5269 -2.0686  2.0069
  851MOL0     H17388   5.526  -0.518   9.823 -0.6902  0.5145 -3.0522
  851MOL0     H17389   5.689  -0.483   9.882  1.5699 -0.8314 -0.3367
  851MOL0     H17390   5.614  -0.694   9.699 -1.0174  0.0285  1.5968
  851MOL0     H17391   5.782  -0.625   9.691  0.4400  1.2478  1.8340
  851MOL0     H17392   5.789  -0.685   9.942 -1.9117 -0.5723  2.5486
  851MOL0     H17393   5.641  -0.766   9.926  0.6396 -3.1058 -0.4186
  851MOL0     H17394   5.902  -0.842   9.772  1.5484  0.1648  2.0805
  851MOL0     H17395   5.840  -0.912   9.918  0.1118  0.3001  0.2492
  851MOL0     H17396   5.565  -1.059   9.583  1.1754  1.2210 -0.6098
  851MOL0     H17397   5.490  -1.363   9.510 -0.2191  1.6453  1.5560
  851MOL0     H17398   5.611  -1.353   9.386  0.0542 -0.4123 -0.6702
  851MOL0     H17399   5.510  -1.215   9.409  0.2985 -1.0814 -1.9928
  851MOL0     H17400   6.020  -1.630   9.825  0.3790 -1.0470  0.9544
  851MOL0     H17401   6.040  -1.872   9.875 -1.8579  2.3360  1.6430
  851MOL0     H17402   6.088  -2.110   9.858  0.0934  1.8363 -4.7067
  851MOL0     H17403   5.922  -2.084   9.920 -0.7911 -0.9080 -0.2872
  851MOL0     H17404   6.019  -2.325   9.788 -0.8749  0.2806 -2.2932
  851MOL0     H17405   5.997  -2.295   9.965  0.3306  2.5773  1.2980
  851MOL0     H17406   5.759  -2.251   9.934 -2.2375 -1.7115  0.7215
  851MOL0     H17407   5.819  -2.417   9.928 -0.7949 -0.4653 -0.5010
  851MOL0     H17408   5.823  -2.393   9.671  2.0215 -0.4860  2.4936
  851MOL0     H17409   5.696  -2.265   9.698  0.1400  1.3930  0.6820
  851MOL0     H17410   5.664  -2.548   9.805 -0.5703 -0.0517 -0.1325
  851MOL0     H17411   5.564  -2.404   9.834 -0.1392 -0.6792  0.0296
  851MOL0     H17412   5.605  -2.530   9.562 -0.8712  0.7163 -0.3853
  851MOL0     H17413   5.507  -2.396   9.598 -0.6823 -0.8019 -0.9647
  851MOL0     H17414   5.377  -2.554   9.764 -0.3077  4.4142 -1.5151
  851MOL0     H17415   5.478  -2.689   9.692 -3.0802 -1.4242 -0.8332
  851MOL0     H17416   5.283  -2.492   9.554 -0.4116  0.4934  2.7544
  851MOL0     H17417   5.238  -2.657   9.583 -2.0200  2.8502 -0.0788
  851MOL0     H17418   5.837  -1.972   9.514  2.5577 -0.6634 -1.5053
  851MOL0     H17419   5.837  -1.726   9.452 -4.0842  1.0639  1.7588
  851MOL0     H17420   5.965  -1.322   9.725  2.1069  2.0340 -0.9152
  851MOL0     H17421   5.944  -1.100   9.804  0.4959 -0.6989  0.1342
  851MOL0     H17422   5.836   0.100   8.856 -0.9767  0.4266  2.2110
  851MOL0     H17423   5.948   0.135   8.631  0.2547  1.2217 -0.1587
  851MOL0     H17424   6.234   0.548   8.449 -3.8927 -0.3095  1.4058
  851MOL0     H17425   6.413   0.544   8.286 -0.4446  1.7828 -0.6718
  851MOL0     H17426   6.626   0.309   8.101 -0.2198 -3.8456  0.7645
  851MOL0     H17427   6.557   0.344   8.259  0.9217 -1.4165  1.1064
  851MOL0     H17428   6.450   0.130   8.272  0.7686 -2.2129  0.9390
  851MOL0     H17429   6.623   0.117   8.216  1.3949  3.9549 -1.5911
  851MOL0     H17430   6.371   0.068   8.061 -1.0878  1.7181  5.8289
  851MOL0     H17431   6.530   0.104   7.972 -1.4196  0.0865 -0.8449
  851MOL0     H17432   6.469  -0.119   8.175  0.2335  1.9988  1.9645
  851MOL0     H17433   6.614  -0.101   8.090  1.2332  3.5088 -1.4319
  851MOL0     H17434   6.353  -0.257   7.786 -2.0824  0.5426  0.4153
  851MOL0     H17435   6.210   0.213   8.081 -0.0443  0.2928 -0.6370
  851MOL0     H17436   5.912   0.196   8.290  0.0419 -1.8592 -0.7545
  851MOL0     H17437   5.928   0.299   8.139  0.9049 -2.0804 -2.2511
  851MOL0     H17438   5.992   0.143   8.147 -3.5964 -1.1431 -0.4475
  852MOL0     O17439   1.970  11.479  11.227  0.6894  0.5938 -0.5948
  852MOL0     C17440   1.963  11.434  11.109  0.3135 -0.3503 -0.1092
  852MOL0     O17441   2.053  11.478  11.009 -0.4652 -0.6091  0.1317
  852MOL0     C17442   2.094  11.606  11.016 -0.4580  0.0317 -0.5267
  852MOL0     C17443   2.010  11.719  11.030  0.0397 -1.1390  0.2862
  852MOL0     C17444   2.071  11.844  11.029  0.4655 -0.8648  1.1378
  852MOL0     C17445   2.214  11.860  11.028  0.1032  0.3953 -0.2696
  852MOL0     O17446   2.278  11.976  11.047 -0.3635 -1.1300  0.0218
  852MOL0     C17447   2.195  12.097  11.056 -0.8120 -0.6673 -0.0358
  852MOL0     C17448   2.293  12.216  11.083 -0.2606 -0.4106  1.1619
  852MOL0     C17449   2.414  12.227  10.986 -0.2327 -0.6350  0.2925
  852MOL0     C17450   2.373  12.271  10.851  0.2664 -0.3929  0.2608
  852MOL0     C17451   2.500  12.301  10.769  0.3021 -0.0812 -0.3819
  852MOL0     C17452   2.464  12.346  10.630  0.5423 -0.2080 -0.7096
  852MOL0     C17453   2.590  12.348  10.545  0.5220 -0.2254 -1.0192
  852MOL0     C17454   2.547  12.371  10.396  0.1849  0.6523  0.7792
  852MOL0     N17455   2.500  12.244  10.334 -0.1311  1.2302  0.7933
  852MOL0     C17456   2.583  12.140  10.331  0.1816 -0.6852 -0.4239
  852MOL0     C17457   2.524  12.053  10.242  0.8557 -0.5339 -0.3733
  852MOL0     C17458   2.591  11.925  10.193 -0.6607 -0.2481 -0.7727
  852MOL0     C17459   2.547  11.800  10.265 -0.1648 -0.0700 -0.4224
  852MOL0     C17460   2.620  11.670  10.213  0.3141  0.3516  0.6083
  852MOL0     C17461   2.541  11.548  10.250 -0.3862 -0.2383 -1.1646
  852MOL0     O17462   2.582  11.512  10.384 -0.1463 -0.3343  0.9004
  852MOL0     C17463   2.501  11.424  10.444 -0.0167  1.1564 -1.2267
  852MOL0     C17464   2.392  11.471  10.506  0.2830 -1.2310  0.6142
  852MOL0     C17465   2.304  11.374  10.576 -0.1287 -0.5663 -0.2786
  852MOL0     C17466   2.193  11.431  10.658 -0.0777 -0.3125  0.3234
  852MOL0     C17467   2.341  11.240  10.581 -0.3311  1.0226 -0.8156
  852MOL0     C17468   2.276  11.145  10.666  0.7415  0.4563  0.5007
  852MOL0     O17469   2.155  11.123  10.622  0.2727  0.2494  0.9202
  852MOL0     C17470   2.106  11.000  10.660 -0.3080  0.3126  0.3622
  852MOL0     C17471   2.026  10.997  10.772  0.6663  0.3239  0.2798
  852MOL0     C17472   1.959  10.876  10.805 -0.5758 -0.5140  0.5902
  852MOL0     C17473   1.992  10.748  10.738 -0.3638 -0.9503 -0.1823
  852MOL0     O17474   1.939  10.634  10.774 -0.0395 -0.5696 -0.2925
  852MOL0     C17475   2.002  10.504  10.766  0.2080 -0.3368  0.0515
  852MOL0     C17476   1.911  10.394  10.825  0.2824  0.2344  0.0076
  852MOL0     C17477   1.873  10.437  10.963 -0.3674 -0.2474 -0.0049
  852MOL0     C17478   1.828  10.302  11.035  0.0496  0.6049  0.3212
  852MOL0     C17479   1.749  10.340  11.166  0.6610 -0.6285  0.0518
  852MOL0     C17480   1.599  10.348  11.151 -0.3015 -0.0483 -0.2866
  852MOL0     C17481   1.540  10.386  11.283 -0.0512 -0.4358  0.0475
  852MOL0     C17482   1.386  10.399  11.268 -0.5722  0.1187 -0.3469
  852MOL0    Cl17483   1.334  10.537  11.153 -0.3920  0.6760 -0.2065
  852MOL0     C17484   2.087  10.749  10.631  0.9063  0.3793  0.1492
  852MOL0     C17485   2.135  10.876  10.592 -0.2323  1.2034  0.1451
  852MOL0     O17486   2.332  11.096  10.758  1.0183  0.8426  0.0566
  852MOL0     C17487   2.465  11.195  10.521  0.1823  0.0230 -0.0904
  852MOL0     C17488   2.540  11.290  10.450 -0.3068 -0.4237  0.5414
  852MOL0     N17489   2.398  12.105  10.213 -0.0461 -0.3267  0.1517
  852MOL0     N17490   2.396  12.228  10.262 -0.3801 -0.0739 -0.0998
  852MOL0     C17491   2.289  11.753  11.007 -1.0245 -0.0509 -0.1185
  852MOL0     C17492   2.235  11.622  10.996  1.5865 -0.4060  0.1888
  852MOL0     C17493   1.878  11.318  11.080  0.4745  0.1296  0.6293
  852MOL0     C17494   1.851  11.286  10.949 -0.6326 -0.5002  0.5651
  852MOL0     C17495   1.746  11.199  10.913 -0.9208 -0.8936  1.4689
  852MOL0     C17496   1.667  11.146  11.004  0.6722 -0.7360 -0.1506
  852MOL0     O17497   1.565  11.059  10.960 -0.2718 -0.2236  0.2547
  852MOL0     C17498   1.523  10.956  11.049  0.0415 -0.4836 -0.1859
  852MOL0     C17499   1.447  10.842  10.993  0.5083  0.2375  0.8911
  852MOL0     C17500   1.338  10.890  10.904 -0.8944  0.2063 -0.0501
  852MOL0     C17501   1.254  10.778  10.852 -0.3929  0.1239 -0.1016
  852MOL0     C17502   1.137  10.823  10.770 -0.2380 -0.1480 -0.4003
  852MOL0     C17503   1.031  10.860  10.718 -0.0069 -0.1817 -1.5325
  852MOL0     C17504   1.682  11.177  11.137 -0.3120  0.1842  0.8208
  852MOL0     C17505   1.781  11.270  11.177  0.6050  0.1615 -0.9208
  852MOL0     C17506   1.794  11.286  11.326 -0.5959  0.2813  0.7985
  852MOL0     H17507   1.902  11.712  11.035 -0.0834 -0.3919 -0.9300
  852MOL0     H17508   2.003  11.927  11.038  1.1305 -0.5606  4.3793
  852MOL0     H17509   2.126  12.093  11.141 -0.9842 -0.4815 -0.1673
  852MOL0     H17510   2.138  12.117  10.964  0.1317  2.0237 -0.1254
  852MOL0     H17511   2.233  12.307  11.093  2.0201  0.9964  3.8423
  852MOL0     H17512   2.340  12.202  11.181  1.1880  3.5564  1.2026
  852MOL0     H17513   2.493  12.290  11.027 -0.2991 -1.1417  1.2313
  852MOL0     H17514   2.463  12.131  10.970  1.7833  0.1641  1.3200
  852MOL0     H17515   2.310  12.193  10.808 -1.4423  0.4217  1.1754
  852MOL0     H17516   2.315  12.363  10.860  0.4162 -0.3385  0.6702
  852MOL0     H17517   2.541  12.201  10.755 -1.9746 -0.7300 -3.9031
  852MOL0     H17518   2.569  12.376  10.811  0.4848 -0.4389 -0.0406
  852MOL0     H17519   2.377  12.293  10.590 -3.0381  1.9491  3.3817
  852MOL0     H17520   2.413  12.443  10.622  0.9857  0.0018 -1.0526
  852MOL0     H17521   2.652  12.261  10.567 -1.7226 -1.6756 -0.1026
  852MOL0     H17522   2.651  12.435  10.572  1.2702 -1.3794  1.1963
  852MOL0     H17523   2.478  12.454  10.378 -1.7649 -0.8736  0.9773
  852MOL0     H17524   2.637  12.392  10.337  0.6739 -2.5719  0.2347
  852MOL0     H17525   2.684  12.133  10.371  1.6418 -1.1215 -3.8547
  852MOL0     H17526   2.700  11.932  10.186 -0.5168 -2.3690 -1.3020
  852MOL0     H17527   2.564  11.920  10.088  0.6875 -1.0540 -1.1100
  852MOL0     H17528   2.569  11.811  10.371  0.8612 -0.1783 -0.6116
  852MOL0     H17529   2.441  11.794  10.241 -0.5663 -0.6319  1.3644
  852MOL0     H17530   2.638  11.680  10.105 -1.3377  1.0272  0.3640
  852MOL0     H17531   2.721  11.653  10.252  1.1730 -1.1504 -1.9926
  852MOL0     H17532   2.434  11.567  10.251 -0.2711  0.6948  1.7603
  852MOL0     H17533   2.555  11.467  10.178  0.4751 -0.3093 -0.9389
  852MOL0     H17534   2.371  11.577  10.510 -2.1159 -1.3729 -3.4004
  852MOL0     H17535   2.162  11.362  10.737  0.5655  0.1688  1.0023
  852MOL0     H17536   2.110  11.447  10.589  1.1998  0.1510 -1.1621
  852MOL0     H17537   2.213  11.528  10.705  0.1870  0.2602 -0.9286
  852MOL0     H17538   2.000  11.089  10.823 -1.1649  1.5212 -2.5399
  852MOL0     H17539   1.906  10.873  10.900 -2.1932  0.4817 -0.2177
  852MOL0     H17540   2.026  10.479  10.662  1.3706  0.9664 -0.0355
  852MOL0     H17541   2.098  10.511  10.817 -0.2878  0.8194  0.8674
  852MOL0     H17542   1.830  10.376  10.753  1.3268 -5.0360 -0.2556
  852MOL0     H17543   1.968  10.301  10.835 -1.2449 -0.7296  0.1192
  852MOL0     H17544   1.800  10.519  10.960  1.2807  1.7480  4.7988
  852MOL0     H17545   1.956  10.478  11.021 -0.1833  0.3555 -0.6909
  852MOL0     H17546   1.915  10.237  11.048 -0.1026  0.2021 -0.6500
  852MOL0     H17547   1.762  10.243  10.971  0.6021 -0.2956  0.5593
  852MOL0     H17548   1.771  10.257  11.234  2.1637 -1.1666 -1.0307
  852MOL0     H17549   1.782  10.435  11.208  1.0324  0.1323 -1.8320
  852MOL0     H17550   1.548  10.256  11.120 -1.9761 -0.2071  2.5808
  852MOL0     H17551   1.593  10.415  11.065 -1.2490 -2.1040 -1.9399
  852MOL0     H17552   1.578  10.477  11.331  0.0337 -0.1657 -0.5141
  852MOL0     H17553   1.559  10.301  11.349  0.0282  0.1551  0.8008
  852MOL0     H17554   1.346  10.420  11.367  1.2592  1.1578  0.2105
  852MOL0     H17555   1.344  10.304  11.233 -0.4022  0.6203 -2.0199
  852MOL0     H17556   2.104  10.659  10.574 -1.3387  1.0733 -1.7617
  852MOL0     H17557   2.210  10.872  10.513 -2.1918  1.8440 -1.8192
  852MOL0     H17558   2.500  11.092  10.522 -2.2944 -1.0876 -3.9591
  852MOL0     H17559   2.629  11.254  10.398  2.2484  0.6136  3.8580
  852MOL0     H17560   2.395  11.771  11.015 -0.5443 -2.7401  0.7331
  852MOL0     H17561   2.298  11.535  10.981  1.1662 -0.5893 -0.5507
  852MOL0     H17562   1.901  11.351  10.878 -0.5648  0.2564  1.2789
  852MOL0     H17563   1.722  11.186  10.808 -1.9081  0.1300  1.5485
  852MOL0     H17564   1.613  10.913  11.095  0.0464  1.6448  2.0141
  852MOL0     H17565   1.471  11.010  11.128 -0.8538  2.7058 -2.7075
  852MOL0     H17566   1.407  10.778  11.071 -0.5150  0.0200  0.2114
  852MOL0     H17567   1.517  10.780  10.936  0.5332  1.2677 -0.2480
  852MOL0     H17568   1.275  10.962  10.958 -0.7068 -1.2100  2.1745
  852MOL0     H17569   1.385  10.931  10.814 -2.1647 -3.2207 -2.4954
  852MOL0     H17570   1.217  10.727  10.941 -0.8820  2.1640  0.9145
  852MOL0     H17571   1.298  10.691  10.802 -1.2461 -1.9038  2.4541
  852MOL0     H17572   0.943  10.895  10.669 -0.7940  2.8721  1.6392
  852MOL0     H17573   1.616  11.118  11.200 -1.1037 -1.3052 -1.2924
  852MOL0     H17574   1.730  11.220  11.385 -1.4933  0.8551  0.4793
  852MOL0     H17575   1.897  11.258  11.349 -0.6836 -1.6882 -0.9295
  852MOL0     H17576   1.771  11.384  11.369 -3.4211 -0.1352  0.3969
  853MOL0     O17577   1.271   8.176   6.097  0.7221 -0.7480  0.3782
  853MOL0     C17578   1.169   8.249   6.080  0.2269  0.4133 -0.6175
  853MOL0     O17579   1.122   8.341   6.172  0.0043  0.1838  0.7106
  853MOL0     C17580   1.176   8.341   6.291 -0.2929  0.1490 -0.5152
  853MOL0     C17581   1.231   8.461   6.335  0.5235  0.3160 -0.6083
  853MOL0     C17582   1.279   8.467   6.470  0.5772  0.1254  0.3756
  853MOL0     C17583   1.274   8.346   6.554 -0.3605 -0.0899 -0.2081
  853MOL0     O17584   1.329   8.355   6.679 -0.3615 -0.2027 -0.6086
  853MOL0     C17585   1.366   8.236   6.748 -0.2816 -0.8610 -0.9343
  853MOL0     C17586   1.262   8.179   6.852  0.2564  0.0595 -0.2978
  853MOL0     C17587   1.240   8.279   6.961 -0.1051 -0.8547  0.9409
  853MOL0     C17588   1.154   8.222   7.073  0.0544  0.3359  0.5504
  853MOL0     C17589   1.124   8.316   7.188 -0.8333  1.1717  0.2401
  853MOL0     C17590   1.060   8.245   7.307  0.1506 -0.2563 -0.2276
  853MOL0     C17591   1.072   8.328   7.440  0.1195  0.2088  0.0008
  853MOL0     C17592   0.983   8.264   7.557 -0.2810 -1.2793  0.4316
  853MOL0     N17593   1.016   8.296   7.698  0.1756 -0.1735 -1.1004
  853MOL0     C17594   0.925   8.261   7.801 -0.2003 -0.1629  0.4791
  853MOL0     C17595   0.960   8.339   7.906  0.0775 -0.3891 -0.2428
  853MOL0     C17596   0.883   8.345   8.036  0.3188  0.3645  0.0876
  853MOL0     C17597   0.901   8.465   8.121 -0.4548  0.0951 -0.1573
  853MOL0     C17598   1.041   8.478   8.176  0.0140 -0.5716 -0.2550
  853MOL0     C17599   1.079   8.619   8.226 -0.0533  0.1644  0.0930
  853MOL0     O17600   0.978   8.647   8.329  0.0626  0.1052  0.4848
  853MOL0     C17601   0.977   8.759   8.402 -0.3016  0.6748  0.6243
  853MOL0     C17602   0.851   8.816   8.417  0.9051  0.7989 -0.1501
  853MOL0     C17603   0.840   8.930   8.495 -0.5174  0.7479 -0.0636
  853MOL0     C17604   0.707   9.000   8.489 -0.5238  0.1060 -0.2325
  853MOL0     C17605   0.959   8.986   8.559  0.1904  0.1717  0.4134
  853MOL0     C17606   0.953   9.116   8.632  0.0974  0.0350 -0.3092
  853MOL0     O17607   0.878   9.136   8.745  0.2261 -0.3257  0.0651
  853MOL0     C17608   0.899   9.260   8.807  0.0528  0.1606 -0.3637
  853MOL0     C17609   0.878   9.376   8.744  0.8129  0.7050 -0.0995
  853MOL0     C17610   0.861   9.503   8.813  0.3256  0.4946 -0.2455
  853MOL0     C17611   0.872   9.492   8.952 -0.4134 -0.2622  0.8757
  853MOL0     O17612   0.844   9.594   9.039  0.1982 -0.0523  0.0766
  853MOL0     C17613   0.743   9.692   9.003 -0.4181 -0.2053  1.0557
  853MOL0     C17614   0.749   9.796   9.116  0.1312  0.4546  0.1273
  853MOL0     C17615   0.726   9.750   9.267  0.5469 -0.5709  0.0311
  853MOL0     C17616   0.597   9.661   9.286  0.2596  0.4210  0.7279
  853MOL0     C17617   0.574   9.636   9.434  0.0758  0.4075  0.2898
  853MOL0     C17618   0.429   9.603   9.460 -0.6755 -0.0853 -1.3039
  853MOL0     C17619   0.391   9.585   9.608 -0.4349  0.8091 -0.2180
  853MOL0     C17620   0.242   9.621   9.618 -1.0553 -1.0589 -1.0890
  853MOL0    Cl17621   0.196   9.801   9.628  0.3009 -0.0938 -0.5020
  853MOL0     C17622   0.922   9.377   9.013 -0.0627  0.7595 -0.1695
  853MOL0     C17623   0.939   9.256   8.940  0.7368 -0.2738 -0.7141
  853MOL0     O17624   1.039   9.193   8.587 -0.3260  0.6997 -0.0775
  853MOL0     C17625   1.085   8.919   8.561 -0.1268  0.8247  0.9713
  853MOL0     C17626   1.086   8.808   8.473  0.0678 -0.0086 -0.1916
  853MOL0     N17627   1.069   8.413   7.866 -0.4287 -0.8591  0.2263
  853MOL0     N17628   1.105   8.397   7.744  0.1692 -0.0507  0.4350
  853MOL0     C17629   1.234   8.224   6.501 -0.5433 -0.3265  0.8664
  853MOL0     C17630   1.171   8.224   6.374  0.4508  0.5139 -0.0997
  853MOL0     C17631   1.087   8.236   5.961  0.9680  1.1355  0.2863
  853MOL0     C17632   0.996   8.339   5.928 -0.0203 -0.8733 -0.3169
  853MOL0     C17633   0.921   8.338   5.812  0.3243  0.1191 -0.9483
  853MOL0     C17634   0.943   8.242   5.712  0.3714  0.8531  1.0383
  853MOL0     O17635   0.875   8.250   5.592 -0.2382  0.2732 -0.5018
  853MOL0     C17636   0.908   8.164   5.486  0.6750 -0.3556  0.7189
  853MOL0     C17637   0.780   8.178   5.386 -0.3918  0.1222  0.1607
  853MOL0     C17638   0.647   8.151   5.449 -0.9538  0.0036  0.0188
  853MOL0     C17639   0.629   8.007   5.504 -0.5085 -0.0429  0.1651
  853MOL0     C17640   0.501   7.981   5.561  0.3047 -0.8153  0.2199
  853MOL0     C17641   0.387   7.965   5.614  0.3860 -1.6868 -1.1335
  853MOL0     C17642   1.053   8.150   5.732  0.4086 -0.0186 -0.8189
  853MOL0     C17643   1.115   8.141   5.859 -0.1417  0.8245  0.2173
  853MOL0     C17644   1.194   8.019   5.883 -0.4090 -0.7965  0.5344
  853MOL0     H17645   1.230   8.555   6.281 -1.7312 -0.9046 -2.9267
  853MOL0     H17646   1.320   8.555   6.520 -1.2837  1.2895 -0.0522
  853MOL0     H17647   1.458   8.259   6.803 -0.2055 -2.2121 -0.4727
  853MOL0     H17648   1.406   8.153   6.689  2.2975 -0.3162 -0.1235
  853MOL0     H17649   1.165   8.161   6.804 -1.8665  1.6030  3.0410
  853MOL0     H17650   1.304   8.086   6.893  0.8634 -1.0659 -3.1764
  853MOL0     H17651   1.334   8.319   7.001 -0.3921  1.9012 -0.8327
  853MOL0     H17652   1.186   8.368   6.926 -2.6400 -1.6427  2.5357
  853MOL0     H17653   1.065   8.184   7.022 -0.3029  0.5545  1.0023
  853MOL0     H17654   1.203   8.131   7.112  0.3842 -0.1466 -0.9301
  853MOL0     H17655   1.059   8.398   7.155  0.5053  2.2907  0.2740
  853MOL0     H17656   1.228   8.341   7.211  1.3077 -4.2961 -1.9193
  853MOL0     H17657   0.954   8.231   7.284  0.4264 -1.0505 -1.0473
  853MOL0     H17658   1.114   8.151   7.322  1.9564  0.7264 -0.2767
  853MOL0     H17659   1.055   8.433   7.414  0.7772 -0.1807 -2.2521
  853MOL0     H17660   1.178   8.329   7.467  0.4342  2.5168 -1.0763
  853MOL0     H17661   0.885   8.301   7.525  1.7200  3.0230 -1.5285
  853MOL0     H17662   0.984   8.155   7.550  0.1501 -1.2872  0.6040
  853MOL0     H17663   0.833   8.204   7.798 -0.1501 -0.2236 -2.2532
  853MOL0     H17664   0.901   8.255   8.095  1.6587  1.2095  1.0234
  853MOL0     H17665   0.776   8.340   8.011  0.6330 -0.5370 -1.1976
  853MOL0     H17666   0.887   8.554   8.058  1.6894 -0.7487 -1.9373
  853MOL0     H17667   0.831   8.466   8.205  1.1501 -2.0705  1.3335
  853MOL0     H17668   1.048   8.424   8.271 -1.1240  2.2490  1.5860
  853MOL0     H17669   1.116   8.439   8.107 -0.4196 -2.2179  0.1551
  853MOL0     H17670   1.177   8.620   8.274 -0.3502  1.9778  0.7307
  853MOL0     H17671   1.086   8.697   8.150 -0.9509  2.2595  2.0625
  853MOL0     H17672   0.769   8.755   8.382  0.7490 -0.0400  1.5727
  853MOL0     H17673   0.668   8.993   8.591  3.2401 -0.9917  1.2823
  853MOL0     H17674   0.638   8.945   8.424  0.4327 -1.8934  0.3599
  853MOL0     H17675   0.710   9.104   8.456 -0.6636  0.3374  0.4559
  853MOL0     H17676   0.861   9.376   8.637 -0.9956 -1.3034  0.1078
  853MOL0     H17677   0.824   9.593   8.765  0.5465 -0.6470 -2.6961
  853MOL0     H17678   0.762   9.733   8.904 -1.5015  0.2267  1.0093
  853MOL0     H17679   0.650   9.634   9.004  1.4525 -3.5166  3.4500
  853MOL0     H17680   0.849   9.839   9.119  1.2026 -1.8630  0.3421
  853MOL0     H17681   0.680   9.878   9.095  0.8624  1.6226  2.1060
  853MOL0     H17682   0.732   9.846   9.318  0.1548 -0.3713 -0.2897
  853MOL0     H17683   0.816   9.699   9.301  2.8700  1.7415 -2.2081
  853MOL0     H17684   0.610   9.566   9.232 -0.3707 -0.6598  2.3970
  853MOL0     H17685   0.506   9.705   9.243  1.3450 -0.7087 -3.1304
  853MOL0     H17686   0.635   9.554   9.472  1.5142  0.3800 -1.8922
  853MOL0     H17687   0.606   9.720   9.497  3.9937  1.4127 -2.6271
  853MOL0     H17688   0.399   9.512   9.408 -1.2274 -0.6270 -0.0744
  853MOL0     H17689   0.371   9.688   9.422 -2.2949 -0.3923  0.2867
  853MOL0     H17690   0.440   9.660   9.670  2.1530 -1.9330  1.3344
  853MOL0     H17691   0.414   9.486   9.649 -0.3812  0.1509 -1.7595
  853MOL0     H17692   0.188   9.573   9.700  0.5094  1.2250  1.3922
  853MOL0     H17693   0.192   9.587   9.526 -0.1922 -0.0616 -1.9425
  853MOL0     H17694   0.927   9.367   9.121  2.1883  0.8376 -0.2260
  853MOL0     H17695   0.956   9.164   8.995 -0.5471 -1.7250 -2.5930
  853MOL0     H17696   1.179   8.946   8.608  1.9974  0.4312 -2.6903
  853MOL0     H17697   1.181   8.763   8.448 -0.5842 -1.4666 -0.1345
  853MOL0     H17698   1.240   8.140   6.569  0.7401 -0.0304  1.1562
  853MOL0     H17699   1.111   8.140   6.339  2.2660 -0.0337 -2.1559
  853MOL0     H17700   0.964   8.420   5.992 -2.2857 -0.5602 -1.7392
  853MOL0     H17701   0.848   8.417   5.796 -1.7897 -1.3138  1.0442
  853MOL0     H17702   1.007   8.180   5.442  1.3480 -2.6269  1.2926
  853MOL0     H17703   0.904   8.061   5.522  1.0232  0.0453  1.9521
  853MOL0     H17704   0.795   8.118   5.296  0.9413  0.6146  0.0358
  853MOL0     H17705   0.779   8.286   5.365  2.7515  0.6394  2.0278
  853MOL0     H17706   0.616   8.212   5.534 -1.1978 -0.7710  0.4947
  853MOL0     H17707   0.568   8.181   5.379 -1.0219  1.2154  0.6018
  853MOL0     H17708   0.707   7.984   5.577 -1.3805 -2.3710  0.4747
  853MOL0     H17709   0.648   7.941   5.419 -4.5135  1.5008 -2.1945
  853MOL0     H17710   0.292   7.937   5.656  1.6313 -1.7774  1.9185
  853MOL0     H17711   1.097   8.087   5.656  1.4211  0.8977 -1.0171
  853MOL0     H17712   1.300   8.041   5.868 -0.2123 -0.0773  2.6204
  853MOL0     H17713   1.178   7.990   5.987 -1.5888 -0.2693  0.5263
  853MOL0     H17714   1.169   7.932   5.822  2.5893 -1.9053  0.7216
  854MOL0     O17715   6.127   1.471   9.721  0.3393 -0.6563  0.0780
  854MOL0     C17716   6.161   1.585   9.752 -0.8703 -0.1292 -0.5408
  854MOL0     O17717   6.236   1.617   9.866 -0.2009  0.5118 -0.7623
  854MOL0     C17718   6.238   1.516   9.956  0.2816  0.1078  0.2997
  854MOL0     C17719   6.360   1.459   9.991 -0.5561 -0.5024 -0.6792
  854MOL0     C17720   6.370   1.346  10.068  0.4808 -0.5816  0.1124
  854MOL0     C17721   6.249   1.288  10.117 -0.0088 -0.8638 -0.6355
  854MOL0     O17722   6.240   1.169  10.178 -0.3339 -0.0802 -0.7043
  854MOL0     C17723   6.363   1.100  10.205  0.5961  0.4135 -0.0423
  854MOL0     C17724   6.337   0.982  10.294 -0.5042  0.6168 -0.5073
  854MOL0     C17725   6.261   1.029  10.422  1.1392  0.4022  0.1979
  854MOL0     C17726   6.245   0.921  10.532  0.2946  0.3684 -1.0173
  854MOL0     C17727   6.115   0.849  10.500  0.4322 -0.0910  0.8284
  854MOL0     C17728   6.082   0.717  10.587  0.3259 -0.5327 -0.7176
  854MOL0     C17729   5.960   0.638  10.533  0.9219 -0.1740  0.6341
  854MOL0     C17730   5.958   0.616  10.372 -0.6683 -0.1426  0.1853
  854MOL0     N17731   6.056   0.518  10.318  0.0782  0.3761  0.0620
  854MOL0     C17732   6.064   0.390  10.364  0.3880 -0.2568  0.5249
  854MOL0     C17733   6.148   0.326  10.283 -0.5696  0.3788  0.6424
  854MOL0     C17734   6.170   0.182  10.283  0.2602 -0.6826 -0.1568
  854MOL0     C17735   6.313   0.142  10.329  0.5752 -0.6808  0.8077
  854MOL0     C17736   6.420   0.182  10.226  1.1004  0.2704  0.2020
  854MOL0     C17737   6.561   0.139  10.275  0.5083 -0.2246 -0.7004
  854MOL0     O17738   6.604   0.183  10.404  0.0574 -0.2152  0.1555
  854MOL0     C17739   6.725   0.142  10.440  0.1353  0.9117 -0.0159
  854MOL0     C17740   6.814   0.063  10.366 -1.3920 -0.8586 -0.2215
  854MOL0     C17741   6.941   0.037  10.409  0.1758 -0.3969 -0.0233
  854MOL0     C17742   7.019  -0.046  10.301  0.4450  0.2917 -0.4844
  854MOL0     C17743   6.988   0.095  10.527 -0.3380  0.0799 -1.0179
  854MOL0     C17744   7.129   0.074  10.571  0.1168  0.0982  0.0817
  854MOL0     O17745   7.217  -0.006  10.498 -0.0480 -0.4610 -0.2140
  854MOL0     C17746   7.345  -0.032  10.545 -0.1062 -0.6653 -0.4463
  854MOL0     C17747   7.432   0.063  10.600  0.4870 -0.4750  0.7126
  854MOL0     C17748   7.575   0.046  10.605  0.0938  0.1265 -0.0608
  854MOL0     C17749   7.628  -0.065  10.549 -0.6681 -0.2225 -0.2647
  854MOL0     O17750   7.759  -0.089  10.537 -0.6089 -0.6057  0.2716
  854MOL0     C17751   7.851   0.015  10.547  0.1403 -0.4042 -0.3815
  854MOL0     C17752   7.991  -0.035  10.511 -0.0148 -0.4815 -0.5170
  854MOL0     C17753   8.027  -0.067  10.370 -0.3250  0.2471 -0.2038
  854MOL0     C17754   7.943  -0.175  10.306 -0.2466 -0.7628 -0.4439
  854MOL0     C17755   7.959  -0.305  10.378  0.2466  0.3733 -0.0082
  854MOL0     C17756   7.883  -0.420  10.312  0.0448  0.3726  0.5768
  854MOL0     C17757   7.911  -0.555  10.384 -0.2771  0.2699 -1.1673
  854MOL0     C17758   7.832  -0.671  10.308  0.5438  0.7193 -0.2720
  854MOL0    Cl17759   7.918  -0.734  10.157 -0.4798  0.2841 -0.1448
  854MOL0     C17760   7.541  -0.171  10.511  0.4177  0.0499  0.8754
  854MOL0     C17761   7.400  -0.154  10.511 -0.0462  0.8765  1.3075
  854MOL0     O17762   7.140   0.109  10.689 -0.9231  0.4663  0.3367
  854MOL0     C17763   6.898   0.181  10.606  0.8784 -0.0662 -0.0371
  854MOL0     C17764   6.769   0.195  10.558 -0.6003 -0.3868 -0.9124
  854MOL0     N17765   6.195   0.419  10.184 -0.1529  0.7364 -0.6622
  854MOL0     N17766   6.141   0.531  10.212  0.8496 -0.3726  0.2207
  854MOL0     C17767   6.128   1.363  10.101  0.4929  0.8181 -0.5819
  854MOL0     C17768   6.121   1.471  10.018 -0.6414 -0.1217  0.9930
  854MOL0     C17769   6.127   1.708   9.671 -0.1859  0.3333 -0.1914
  854MOL0     C17770   6.078   1.816   9.750 -0.2405 -0.5103  0.6115
  854MOL0     C17771   6.043   1.936   9.684  0.6153 -0.6504  0.1162
  854MOL0     C17772   6.058   1.947   9.546 -0.5643  0.3420 -0.1919
  854MOL0     O17773   5.991   2.061   9.502  0.0459 -1.2266  0.9868
  854MOL0     C17774   6.049   2.136   9.394  0.5244  0.0721 -0.4099
  854MOL0     C17775   6.097   2.284   9.442  0.4954 -0.3785 -0.2455
  854MOL0     C17776   5.965   2.371   9.465 -0.5426  0.3516  0.2155
  854MOL0     C17777   5.958   2.507   9.388 -0.7977  0.1200  0.6771
  854MOL0     C17778   5.825   2.533   9.343  0.4881  0.2087  0.7669
  854MOL0     C17779   5.711   2.553   9.305  0.6335 -0.6423 -0.5426
  854MOL0     C17780   6.098   1.838   9.461 -0.0265 -0.5071 -0.6001
  854MOL0     C17781   6.132   1.719   9.530  0.4396  0.7303  0.6213
  854MOL0     C17782   6.179   1.607   9.433  0.3709 -0.3084 -0.0561
  854MOL0     H17783   6.453   1.512   9.975  0.5775 -1.6362  1.7334
  854MOL0     H17784   6.469   1.302  10.072  1.2924  1.1772  3.5223
  854MOL0     H17785   6.436   1.157  10.264  2.3057 -1.8469  0.1589
  854MOL0     H17786   6.398   1.059  10.110 -1.3616 -1.6433  0.0230
  854MOL0     H17787   6.285   0.900  10.243  0.4524 -1.0789  1.1108
  854MOL0     H17788   6.425   0.928  10.332 -1.7219 -0.7070  0.5286
  854MOL0     H17789   6.314   1.114  10.465  1.0426 -0.2804  1.7141
  854MOL0     H17790   6.164   1.076  10.399  0.1799 -0.5984  1.9895
  854MOL0     H17791   6.330   0.852  10.534  0.9926  1.0399  3.5937
  854MOL0     H17792   6.242   0.965  10.632 -0.7804  0.5089 -1.0949
  854MOL0     H17793   6.107   0.838  10.392  0.5506  3.3530  0.3655
  854MOL0     H17794   6.038   0.924  10.520  0.9745  0.4888  0.7473
  854MOL0     H17795   6.166   0.648  10.588 -1.3479 -2.6702 -0.7711
  854MOL0     H17796   6.081   0.747  10.693  4.2578 -0.6615 -0.5083
  854MOL0     H17797   5.866   0.690  10.553 -1.0493 -1.1838 -4.4872
  854MOL0     H17798   5.950   0.535  10.567  1.2017 -1.5317 -2.9915
  854MOL0     H17799   5.857   0.593  10.337 -0.6083  3.0876 -2.6100
  854MOL0     H17800   5.974   0.706  10.313 -0.7556 -0.2955 -0.0727
  854MOL0     H17801   5.993   0.338  10.427  1.5295 -0.7365  1.4760
  854MOL0     H17802   6.163   0.153  10.178  0.7007  1.0156 -0.6950
  854MOL0     H17803   6.099   0.130  10.348  0.8263  1.1825  2.1017
  854MOL0     H17804   6.339   0.179  10.429 -1.2848  0.9255  0.7704
  854MOL0     H17805   6.321   0.034  10.344 -2.4290 -0.7801  2.5221
  854MOL0     H17806   6.402   0.147  10.124 -1.7291  3.8085 -0.7336
  854MOL0     H17807   6.439   0.289  10.219 -1.2672  0.8919  2.0936
  854MOL0     H17808   6.573   0.030  10.273 -0.2408 -0.3101 -1.4933
  854MOL0     H17809   6.631   0.188  10.207  3.4903  1.0591  3.0000
  854MOL0     H17810   6.791   0.027  10.266 -0.6855 -2.6358  0.2176
  854MOL0     H17811   7.066  -0.135  10.343 -2.9323  0.1871  3.7856
  854MOL0     H17812   7.075   0.023  10.238 -1.9286  1.5349 -1.3701
  854MOL0     H17813   6.951  -0.101  10.237  0.4620 -1.2512  0.7677
  854MOL0     H17814   7.403   0.162  10.634 -0.8254 -0.3957 -0.5622
  854MOL0     H17815   7.646   0.125  10.625  0.3189  0.6009 -2.4489
  854MOL0     H17816   7.818   0.092  10.477 -4.0424 -2.1548 -0.5983
  854MOL0     H17817   7.868   0.053  10.648  0.2928  0.8142 -0.8519
  854MOL0     H17818   8.060   0.047  10.532 -1.9906  1.2126 -0.3726
  854MOL0     H17819   8.016  -0.121  10.574 -0.3153 -1.8383 -2.1729
  854MOL0     H17820   8.129  -0.104  10.359 -0.4301 -1.3812  3.1942
  854MOL0     H17821   8.020   0.021  10.306  1.1493  0.2701 -0.3783
  854MOL0     H17822   7.986  -0.174  10.205  0.2962 -1.4742 -0.2304
  854MOL0     H17823   7.837  -0.149  10.299 -0.1366  2.3256  4.5835
  854MOL0     H17824   8.065  -0.332  10.381  0.1951 -0.8691 -3.8979
  854MOL0     H17825   7.914  -0.313  10.477 -1.0625 -2.3244 -0.7192
  854MOL0     H17826   7.910  -0.436  10.207 -3.2754  2.6817 -0.8310
  854MOL0     H17827   7.777  -0.391  10.319  0.0433  0.0969  2.1359
  854MOL0     H17828   7.891  -0.553  10.492  1.4798 -0.8811 -0.7919
  854MOL0     H17829   8.016  -0.584  10.379 -0.9004 -1.9684 -2.8691
  854MOL0     H17830   7.728  -0.644  10.289  0.0714 -2.2451 -2.5776
  854MOL0     H17831   7.833  -0.763  10.367  3.0269 -0.0920 -1.4368
  854MOL0     H17832   7.578  -0.270  10.488 -0.9579 -0.8387  2.3130
  854MOL0     H17833   7.336  -0.237  10.485 -0.9875  1.5696  1.3335
  854MOL0     H17834   6.928   0.215  10.705 -1.7306 -1.9069  1.5369
  854MOL0     H17835   6.700   0.242  10.626  1.6182 -1.4109  2.2986
  854MOL0     H17836   6.044   1.304  10.135  1.8162  0.3936  2.2724
  854MOL0     H17837   6.025   1.508   9.985 -0.0270 -1.0769 -2.3219
  854MOL0     H17838   6.076   1.824   9.858  1.5143  3.6467  0.5245
  854MOL0     H17839   5.991   2.012   9.741 -0.0308 -1.5542  0.7772
  854MOL0     H17840   6.130   2.077   9.351 -2.6899 -3.1694 -2.6796
  854MOL0     H17841   5.970   2.145   9.319  3.1565  0.5185 -3.3411
  854MOL0     H17842   6.164   2.331   9.370 -0.5350  2.1093  0.2931
  854MOL0     H17843   6.145   2.266   9.538 -0.4835  1.0403  0.5504
  854MOL0     H17844   5.879   2.309   9.437  0.3166  0.2196 -2.4326
  854MOL0     H17845   5.958   2.397   9.571 -0.6913 -1.2297  0.6102
  854MOL0     H17846   6.021   2.510   9.299 -1.8202 -1.2375 -0.1253
  854MOL0     H17847   5.989   2.589   9.454  1.4128 -1.0076  1.1676
  854MOL0     H17848   5.607   2.554   9.278  0.3366 -0.0370  0.5481
  854MOL0     H17849   6.106   1.852   9.354 -1.6541 -1.3586 -0.8660
  854MOL0     H17850   6.091   1.550   9.402 -1.1249  1.2151  1.1883
  854MOL0     H17851   6.218   1.640   9.336 -1.7638 -0.2690 -0.9591
  854MOL0     H17852   6.257   1.554   9.487  0.2528 -1.3344 -0.8648
  855MOL0     O17853   0.742   0.798   6.120  0.8491 -0.2714  0.1314
  855MOL0     C17854   0.736   0.894   6.200 -0.3875  0.3097 -0.3577
  855MOL0     O17855   0.628   0.983   6.209 -0.5144 -0.2261  0.7005
  855MOL0     C17856   0.527   0.977   6.117 -0.8702  0.0781  0.1980
  855MOL0     C17857   0.478   0.865   6.042 -0.0280  0.4526 -0.3708
  855MOL0     C17858   0.390   0.881   5.945  0.3842 -0.1728 -0.5182
  855MOL0     C17859   0.338   1.009   5.905 -0.3403  0.3383 -1.5776
  855MOL0     O17860   0.242   1.025   5.820 -0.6422  0.2404 -0.2693
  855MOL0     C17861   0.295   1.084   5.702  0.8449  0.3829  0.4831
  855MOL0     C17862   0.203   1.050   5.575 -0.2735  0.1228 -0.7381
  855MOL0     C17863   0.228   0.911   5.511 -0.5222 -1.3545 -0.3110
  855MOL0     C17864   0.171   0.800   5.606  0.3194 -0.3880  0.3826
  855MOL0     C17865   0.208   0.656   5.565 -0.0684 -0.7119  0.1183
  855MOL0     C17866   0.091   0.578   5.505 -0.3304 -0.3869 -0.1386
  855MOL0     C17867   0.143   0.448   5.449  0.4025 -0.0127  1.5320
  855MOL0     C17868   0.024   0.355   5.416  0.9491  0.3047  0.6579
  855MOL0     N17869   0.081   0.243   5.338  0.2621 -0.3489 -0.0749
  855MOL0     C17870   0.175   0.155   5.394 -0.2788 -0.4700  0.4747
  855MOL0     C17871   0.193   0.065   5.292  1.2393  0.7705  0.0928
  855MOL0     C17872   0.276  -0.058   5.299  0.6057 -0.1916 -0.7201
  855MOL0     C17873   0.193  -0.182   5.304  0.0024 -0.9944 -0.2132
  855MOL0     C17874   0.285  -0.307   5.287  0.8079  0.7340  0.6049
  855MOL0     C17875   0.205  -0.434   5.281  0.9804  0.5307  0.6300
  855MOL0     O17876   0.245  -0.540   5.376  0.0350 -0.3925 -0.3214
  855MOL0     C17877   0.321  -0.648   5.334 -0.7126  0.4329  0.4366
  855MOL0     C17878   0.358  -0.742   5.429  0.9292  0.0601 -0.1369
  855MOL0     C17879   0.460  -0.836   5.415 -0.5706  0.9538  0.6177
  855MOL0     C17880   0.497  -0.902   5.556  0.0483  0.5139  0.0016
  855MOL0     C17881   0.523  -0.856   5.290 -0.4948  0.0440 -0.2472
  855MOL0     C17882   0.624  -0.973   5.264  0.5059 -0.0102  0.2176
  855MOL0     O17883   0.679  -0.979   5.134  0.5995 -0.3259  1.1840
  855MOL0     C17884   0.758  -1.081   5.103  0.0259  0.2497 -0.7340
  855MOL0     C17885   0.886  -1.102   5.164 -0.0662  0.0860  0.5801
  855MOL0     C17886   0.972  -1.215   5.122  0.1711 -0.8534 -0.0962
  855MOL0     C17887   0.935  -1.307   5.039 -0.6369 -0.1504  1.0200
  855MOL0     O17888   0.987  -1.432   5.002  0.0587 -0.9125  1.2153
  855MOL0     C17889   1.125  -1.449   5.005 -1.0695 -0.5244  0.1910
  855MOL0     C17890   1.163  -1.603   5.017  0.6859 -0.8027  0.2191
  855MOL0     C17891   1.311  -1.633   5.019  0.4784  0.5133  0.1662
  855MOL0     C17892   1.348  -1.784   5.025  0.6573  1.2350  1.4904
  855MOL0     C17893   1.348  -1.861   4.880  0.6609 -0.5195  0.2212
  855MOL0     C17894   1.386  -2.008   4.897 -0.0222 -0.9719  0.1944
  855MOL0     C17895   1.456  -2.065   4.762  0.2856  0.0133  0.9437
  855MOL0     C17896   1.585  -2.002   4.719 -0.4393  0.5227  0.0010
  855MOL0    Cl17897   1.726  -2.009   4.830 -0.1888 -0.1317  0.7082
  855MOL0     C17898   0.815  -1.283   4.985 -1.2638  0.3560 -0.0958
  855MOL0     C17899   0.728  -1.174   5.011  0.0297 -0.2558 -0.3246
  855MOL0     O17900   0.645  -1.062   5.347  0.7001  0.1079  0.3834
  855MOL0     C17901   0.482  -0.767   5.190 -0.5359 -1.1859  0.8461
  855MOL0     C17902   0.383  -0.666   5.211 -0.7052  0.3005  0.3804
  855MOL0     N17903   0.118   0.100   5.186  0.6751  0.3152 -0.5524
  855MOL0     N17904   0.034   0.199   5.212 -0.0388  0.0461 -0.3027
  855MOL0     C17905   0.395   1.121   5.975  0.5233  0.3020  0.0265
  855MOL0     C17906   0.485   1.104   6.083  0.6887  0.3324  0.0894
  855MOL0     C17907   0.834   0.898   6.311  0.5844  1.0567 -0.0127
  855MOL0     C17908   0.791   0.965   6.427  0.0001  0.2191  0.5203
  855MOL0     C17909   0.870   0.987   6.539 -1.0447  0.3734 -0.4967
  855MOL0     C17910   1.005   0.945   6.535 -0.8826  0.0658 -0.1120
  855MOL0     O17911   1.077   0.986   6.647  0.5523 -0.6854  0.2594
  855MOL0     C17912   1.064   0.894   6.757  0.5601 -0.6283  0.4350
  855MOL0     C17913   1.208   0.888   6.828 -0.0054 -0.1290 -0.0249
  855MOL0     C17914   1.247   1.010   6.905 -1.5376  0.8733 -0.2343
  855MOL0     C17915   1.211   0.978   7.047 -1.2633  0.0349 -1.6008
  855MOL0     C17916   1.241   1.094   7.141 -0.4365  0.2792 -0.0694
  855MOL0     C17917   1.245   1.190   7.218 -0.4121  1.1844 -0.8960
  855MOL0     C17918   1.047   0.867   6.420 -0.5880  0.2078  0.3609
  855MOL0     C17919   0.965   0.842   6.307  0.4281  0.0573  0.3489
  855MOL0     C17920   1.015   0.768   6.179  0.2581  0.6975  0.0142
  855MOL0     H17921   0.510   0.763   6.060 -3.3789 -0.8052 -0.9039
  855MOL0     H17922   0.335   0.800   5.899 -0.5554 -0.5617  1.2231
  855MOL0     H17923   0.399   1.065   5.672  0.1387 -4.2356  0.3260
  855MOL0     H17924   0.284   1.193   5.713 -3.7498  0.0550  0.8790
  855MOL0     H17925   0.100   1.054   5.610 -0.2743 -2.4433 -0.2982
  855MOL0     H17926   0.228   1.127   5.501 -0.6588  0.3552 -0.6240
  855MOL0     H17927   0.171   0.913   5.418  0.4431  0.1584 -0.9044
  855MOL0     H17928   0.335   0.901   5.489 -0.1674  0.4579  0.4633
  855MOL0     H17929   0.206   0.814   5.709  2.4038  1.9145 -0.5253
  855MOL0     H17930   0.062   0.799   5.602  0.2355  0.0780  1.9450
  855MOL0     H17931   0.240   0.599   5.653  1.1563 -1.1601 -0.6029
  855MOL0     H17932   0.285   0.664   5.488 -1.9296  1.1186 -1.6790
  855MOL0     H17933   0.017   0.555   5.581  1.6670  1.3077  2.5030
  855MOL0     H17934   0.046   0.637   5.425  1.3905 -0.9979 -1.6298
  855MOL0     H17935   0.204   0.397   5.524 -1.7906 -2.7374  1.6316
  855MOL0     H17936   0.194   0.472   5.355 -3.5631  1.8588 -0.4214
  855MOL0     H17937  -0.018   0.307   5.505  1.2290  0.4968  0.8953
  855MOL0     H17938  -0.053   0.408   5.359 -2.1419 -3.4223  0.9906
  855MOL0     H17939   0.217   0.157   5.494  1.1610 -1.6375 -0.0805
  855MOL0     H17940   0.352  -0.070   5.376  0.6616  0.5578 -0.6523
  855MOL0     H17941   0.333  -0.059   5.206 -0.5159  0.1289 -1.4422
  855MOL0     H17942   0.143  -0.181   5.401 -1.7430 -0.6915 -1.0807
  855MOL0     H17943   0.120  -0.180   5.222  0.2320  4.5663 -0.6612
  855MOL0     H17944   0.360  -0.307   5.207 -1.7374 -4.6490 -2.3394
  855MOL0     H17945   0.351  -0.312   5.374  1.3956 -0.3662  0.1120
  855MOL0     H17946   0.101  -0.412   5.307 -0.4293 -3.5869 -0.6674
  855MOL0     H17947   0.197  -0.478   5.181 -1.4229  5.6587 -1.7999
  855MOL0     H17948   0.320  -0.722   5.528  1.0180  3.2703 -0.6498
  855MOL0     H17949   0.595  -0.900   5.604 -0.8101 -2.0133  2.0649
  855MOL0     H17950   0.466  -1.006   5.547 -1.4180  0.3755  4.1941
  855MOL0     H17951   0.432  -0.856   5.632 -2.3368  0.1005 -1.6589
  855MOL0     H17952   0.914  -1.052   5.256 -0.2412  1.5055 -0.1157
  855MOL0     H17953   1.067  -1.221   5.175 -1.1462 -1.7048  2.2953
  855MOL0     H17954   1.162  -1.412   4.909 -0.4494 -0.0271  0.6158
  855MOL0     H17955   1.169  -1.399   5.091 -1.7395 -0.9981  0.8214
  855MOL0     H17956   1.110  -1.650   5.101 -1.9638  1.2994 -0.1154
  855MOL0     H17957   1.115  -1.655   4.933  0.8196 -0.9566  0.2363
  855MOL0     H17958   1.340  -1.606   5.121 -0.9421 -1.2578  1.0870
  855MOL0     H17959   1.366  -1.588   4.936  0.8192 -0.6999 -0.2823
  855MOL0     H17960   1.279  -1.834   5.094 -1.8937  1.1987 -0.9294
  855MOL0     H17961   1.450  -1.793   5.065  0.2585  1.2286  2.5531
  855MOL0     H17962   1.246  -1.857   4.842  0.0686  2.7226  1.7993
  855MOL0     H17963   1.425  -1.813   4.820 -0.6200  3.4330  1.4559
  855MOL0     H17964   1.291  -2.059   4.916 -1.2913  0.6914 -1.3778
  855MOL0     H17965   1.455  -2.015   4.982  0.3643  1.3944  0.1622
  855MOL0     H17966   1.387  -2.056   4.678  1.6576  1.0821 -0.1055
  855MOL0     H17967   1.473  -2.172   4.782 -2.3004 -0.2777  2.0047
  855MOL0     H17968   1.578  -1.899   4.684  1.3383  1.1172  1.2697
  855MOL0     H17969   1.626  -2.063   4.638 -1.2421 -3.4409  2.3091
  855MOL0     H17970   0.780  -1.356   4.913 -1.7395 -1.4327  1.8568
  855MOL0     H17971   0.629  -1.162   4.967 -1.0396  1.1398  2.2723
  855MOL0     H17972   0.528  -0.778   5.093 -0.8219 -1.6179  0.7538
  855MOL0     H17973   0.372  -0.590   5.134 -2.3405 -0.4262 -0.1567
  855MOL0     H17974   0.369   1.223   5.947 -2.1332 -0.6286 -1.2308
  855MOL0     H17975   0.518   1.192   6.138 -0.2008  1.3456 -0.9339
  855MOL0     H17976   0.687   0.987   6.446  0.1587 -1.1125  3.4324
  855MOL0     H17977   0.822   1.034   6.623 -0.3186 -1.5072  1.0521
  855MOL0     H17978   0.978   0.922   6.819  1.3782  1.6243  0.6395
  855MOL0     H17979   1.047   0.797   6.711  0.4974 -0.3124 -0.2180
  855MOL0     H17980   1.280   0.859   6.751  0.0600 -1.8912  0.6355
  855MOL0     H17981   1.202   0.807   6.901  0.5898  1.9239  2.4457
  855MOL0     H17982   1.357   1.010   6.904 -1.5304  0.0162 -0.6053
  855MOL0     H17983   1.196   1.103   6.877 -5.0384 -0.6071  0.7033
  855MOL0     H17984   1.267   0.895   7.089 -1.9038  1.2605  1.9780
  855MOL0     H17985   1.103   0.965   7.049 -1.6765  2.9004 -0.3232
  855MOL0     H17986   1.251   1.268   7.292 -0.5729 -0.2174  0.6673
  855MOL0     H17987   1.142   0.816   6.414  0.4605  1.9238  1.7595
  855MOL0     H17988   1.119   0.782   6.146 -0.3010 -2.4791 -3.8850
  855MOL0     H17989   0.982   0.665   6.189 -0.0219  0.8969  1.3399
  855MOL0     H17990   0.975   0.814   6.088 -2.0096  2.1968  1.6548
  856MOL0     O17991   2.599   0.778   2.445 -0.1855  0.0977 -0.0664
  856MOL0     C17992   2.615   0.893   2.475 -0.4779  2.0222 -0.4318
  856MOL0     O17993   2.580   0.995   2.406  0.5727 -0.0834  0.4251
  856MOL0     C17994   2.519   0.989   2.278 -0.0579 -0.6756 -0.5249
  856MOL0     C17995   2.418   1.084   2.275 -0.3131  0.0398 -0.1282
  856MOL0     C17996   2.353   1.109   2.158 -0.4763  0.3391  0.6126
  856MOL0     C17997   2.388   1.035   2.045 -0.4620  0.0012  0.0668
  856MOL0     O17998   2.322   1.048   1.932 -0.7828 -0.3086  0.7194
  856MOL0     C17999   2.242   0.930   1.898  0.1128  0.1418  0.3265
  856MOL0     C18000   2.278   0.890   1.751 -0.3900 -0.8226 -0.2276
  856MOL0     C18001   2.266   1.003   1.658 -0.5415  0.0244 -0.6926
  856MOL0     C18002   2.296   0.955   1.515  0.2644  0.2795  0.1997
  856MOL0     C18003   2.228   1.038   1.410  0.4977  0.0583 -0.9557
  856MOL0     C18004   2.265   1.017   1.267  0.5371  0.4254 -0.2769
  856MOL0     C18005   2.250   1.130   1.178  0.7366 -0.1133  0.4454
  856MOL0     C18006   2.109   1.163   1.135  0.0412 -0.4350 -1.0130
  856MOL0     N18007   2.103   1.281   1.052  0.2556 -0.3701 -0.1986
  856MOL0     C18008   2.168   1.300   0.934 -0.0031  1.3544 -1.0164
  856MOL0     C18009   2.130   1.419   0.887  0.4463  0.6682  0.0307
  856MOL0     C18010   2.161   1.484   0.751  0.0928  1.2326 -0.0992
  856MOL0     C18011   2.024   1.486   0.683  0.3290 -0.2252  0.0633
  856MOL0     C18012   2.011   1.577   0.564 -0.4759 -0.2816  0.1599
  856MOL0     C18013   2.100   1.531   0.456 -0.4753 -0.2955 -0.2073
  856MOL0     O18014   2.131   1.625   0.365 -0.1128 -0.6292  0.6239
  856MOL0     C18015   2.208   1.607   0.259 -0.1222 -0.5102  0.8517
  856MOL0     C18016   2.263   1.484   0.225  1.3342 -0.7375 -0.2832
  856MOL0     C18017   2.354   1.472   0.122 -0.3837  0.0104  0.2067
  856MOL0     C18018   2.427   1.338   0.113 -0.6183 -0.1108  0.1694
  856MOL0     C18019   2.383   1.584   0.056  0.6637  0.2665  1.0994
  856MOL0     C18020   2.493   1.582  -0.049 -0.2278  0.2798  0.5764
  856MOL0     O18021   2.567   1.704  -0.067  0.0093 -0.2268 -0.0377
  856MOL0     C18022   2.641   1.712  -0.173 -0.2799 -0.3460 -0.7463
  856MOL0     C18023   2.610   1.819  -0.255 -0.2319 -0.0436 -0.6820
  856MOL0     C18024   2.694   1.845  -0.358 -0.0785 -0.9316  0.7453
  856MOL0     C18025   2.811   1.769  -0.378 -0.8277  0.3530 -0.2767
  856MOL0     O18026   2.907   1.822  -0.465  0.4990  0.8772  0.6242
  856MOL0     C18027   3.036   1.762  -0.465 -0.7834  0.2713  0.4219
  856MOL0     C18028   3.133   1.848  -0.546  0.0023  0.1430 -0.1274
  856MOL0     C18029   3.273   1.791  -0.541  0.2716 -0.7930 -0.5232
  856MOL0     C18030   3.290   1.683  -0.643 -0.3654 -0.5954 -0.6890
  856MOL0     C18031   3.433   1.633  -0.671  0.4061 -0.1663  0.1051
  856MOL0     C18032   3.448   1.561  -0.803  0.2364 -0.1013  0.0982
  856MOL0     C18033   3.369   1.425  -0.804 -0.1321 -0.8491 -0.3845
  856MOL0     C18034   3.326   1.377  -0.944 -0.6632  0.1876  0.4518
  856MOL0    Cl18035   3.228   1.507  -1.032  0.5165 -0.0098  0.2591
  856MOL0     C18036   2.826   1.646  -0.301 -0.3558 -0.2287 -0.4887
  856MOL0     C18037   2.744   1.630  -0.197 -0.9482  0.0270 -0.0585
  856MOL0     O18038   2.504   1.483  -0.123 -0.0829  0.8769  0.1001
  856MOL0     C18039   2.336   1.717   0.082  0.1341 -0.1801  0.9218
  856MOL0     C18040   2.237   1.714   0.178  0.7379 -1.0019 -0.0941
  856MOL0     N18041   2.033   1.463   0.972  0.8346  0.5956  0.4926
  856MOL0     N18042   2.027   1.386   1.083 -0.7253  0.1783  0.8604
  856MOL0     C18043   2.487   0.938   2.052  0.1649 -0.3750 -1.6224
  856MOL0     C18044   2.561   0.922   2.171 -0.6388  1.2225 -0.0816
  856MOL0     C18045   2.683   0.931   2.612 -0.5891 -0.1880 -0.5009
  856MOL0     C18046   2.738   1.059   2.606  0.1752  0.2018  0.5780
  856MOL0     C18047   2.789   1.124   2.721  0.8454  0.2857 -0.7759
  856MOL0     C18048   2.786   1.059   2.849  0.4376  0.5609 -0.1230
  856MOL0     O18049   2.824   1.102   2.969 -0.7086 -0.7318  0.5056
  856MOL0     C18050   2.854   1.242   2.978 -0.1120  0.1825  0.5758
  856MOL0     C18051   2.921   1.269   3.114  0.3563 -0.5129 -0.0009
  856MOL0     C18052   3.054   1.200   3.142 -0.3131  0.2656  0.0264
  856MOL0     C18053   3.089   1.221   3.293  0.4396  0.3616  0.4894
  856MOL0     C18054   3.097   1.366   3.342 -0.1368 -0.1441  0.1802
  856MOL0     C18055   3.098   1.493   3.371 -0.6783 -0.3496 -0.5504
  856MOL0     C18056   2.736   0.926   2.854 -0.8959 -0.0565  0.9472
  856MOL0     C18057   2.686   0.859   2.737  0.4283  0.7821 -0.1105
  856MOL0     C18058   2.636   0.721   2.747 -0.1045  0.4234  0.2779
  856MOL0     H18059   2.394   1.132   2.369 -1.8354  2.4790 -1.6360
  856MOL0     H18060   2.265   1.172   2.156  1.1243  2.9617  3.5156
  856MOL0     H18061   2.139   0.965   1.905  0.3305  1.6033 -2.0973
  856MOL0     H18062   2.259   0.841   1.959 -3.7309 -1.5177 -0.7440
  856MOL0     H18063   2.380   0.850   1.747 -0.3253 -0.8978  1.4504
  856MOL0     H18064   2.212   0.807   1.722 -1.4828 -0.0679  0.0152
  856MOL0     H18065   2.163   1.038   1.656  0.6030  4.0137  0.2890
  856MOL0     H18066   2.336   1.079   1.695 -0.0475 -0.4410 -0.6550
  856MOL0     H18067   2.403   0.957   1.491 -0.1875 -2.6550 -2.8911
  856MOL0     H18068   2.259   0.854   1.494 -1.7172  1.1491 -0.6867
  856MOL0     H18069   2.263   1.139   1.433 -0.0625 -0.2157  1.2962
  856MOL0     H18070   2.120   1.032   1.426  0.5556 -5.0459 -0.6363
  856MOL0     H18071   2.370   0.992   1.252  0.6107  0.0772  0.7629
  856MOL0     H18072   2.201   0.938   1.228 -0.6824  1.3726 -0.2850
  856MOL0     H18073   2.299   1.101   1.084  1.2049 -0.8908  0.9245
  856MOL0     H18074   2.298   1.222   1.215  1.3324  2.5093 -5.5965
  856MOL0     H18075   2.084   1.081   1.067 -0.1683 -1.2382  0.0083
  856MOL0     H18076   2.041   1.181   1.220  1.2997  2.5222 -0.4943
  856MOL0     H18077   2.230   1.228   0.882  1.4059  0.1486  2.0799
  856MOL0     H18078   2.234   1.422   0.699 -1.0933 -1.8048  1.6091
  856MOL0     H18079   2.204   1.583   0.767  1.1103  1.2322 -2.3771
  856MOL0     H18080   2.004   1.383   0.651 -0.3030  0.0239 -0.3543
  856MOL0     H18081   1.946   1.516   0.754  0.5101  0.9989 -0.2400
  856MOL0     H18082   1.907   1.586   0.530  0.0084 -0.5660 -1.5010
  856MOL0     H18083   2.047   1.673   0.600  3.6236 -1.4525 -0.2469
  856MOL0     H18084   2.185   1.471   0.489 -1.4964 -1.3921  0.5067
  856MOL0     H18085   2.038   1.466   0.393  0.1768 -1.6529  0.5209
  856MOL0     H18086   2.218   1.397   0.271 -2.2520  1.6672  1.2593
  856MOL0     H18087   2.404   1.301   0.013  0.0022 -1.4131  0.4798
  856MOL0     H18088   2.391   1.264   0.185 -0.5874 -1.3377 -1.0321
  856MOL0     H18089   2.533   1.346   0.139 -0.6429  1.5612 -0.1548
  856MOL0     H18090   2.523   1.879  -0.230 -0.7729 -0.1828 -2.1217
  856MOL0     H18091   2.665   1.917  -0.434 -1.0158 -0.5714  1.4202
  856MOL0     H18092   3.078   1.744  -0.366  0.5858  2.3703  0.2714
  856MOL0     H18093   3.025   1.661  -0.506  1.7419 -0.5921  1.6621
  856MOL0     H18094   3.098   1.878  -0.645  0.2027  1.2697  0.1233
  856MOL0     H18095   3.128   1.947  -0.500 -0.2058  0.9773 -1.8483
  856MOL0     H18096   3.282   1.750  -0.440  0.4967  0.9792  0.2146
  856MOL0     H18097   3.349   1.867  -0.558 -1.1691  0.5097 -1.4239
  856MOL0     H18098   3.237   1.715  -0.733 -0.7491  0.2971 -0.1588
  856MOL0     H18099   3.235   1.595  -0.610 -3.0390 -0.6529 -4.6704
  856MOL0     H18100   3.488   1.727  -0.683 -2.6756  2.0223  1.7284
  856MOL0     H18101   3.467   1.575  -0.585 -1.9057  0.5507  1.5731
  856MOL0     H18102   3.551   1.529  -0.818  0.7327  1.4965 -0.0710
  856MOL0     H18103   3.402   1.625  -0.879 -0.3631 -2.8828 -2.0022
  856MOL0     H18104   3.275   1.435  -0.749 -0.8519 -1.1214 -1.5374
  856MOL0     H18105   3.436   1.350  -0.761  0.8583 -3.0138 -5.0856
  856MOL0     H18106   3.273   1.282  -0.931 -1.8658  0.6362 -0.8811
  856MOL0     H18107   3.421   1.358  -0.995 -0.2211  1.5713  0.7071
  856MOL0     H18108   2.908   1.577  -0.312 -0.5296 -0.2313 -1.9943
  856MOL0     H18109   2.760   1.550  -0.126  3.7929  2.7477  2.4270
  856MOL0     H18110   2.339   1.801   0.013 -4.8024  0.3579  1.0000
  856MOL0     H18111   2.181   1.805   0.200 -0.9772 -1.9014 -0.5635
  856MOL0     H18112   2.509   0.876   1.966  2.6773 -4.8352  1.7912
  856MOL0     H18113   2.645   0.853   2.177  0.2638  2.4159  1.9202
  856MOL0     H18114   2.752   1.115   2.514  1.3877 -1.9265 -0.6202
  856MOL0     H18115   2.829   1.224   2.707 -0.8842  1.3357  1.1539
  856MOL0     H18116   2.921   1.270   2.896 -1.5879 -1.4227 -1.2828
  856MOL0     H18117   2.767   1.309   2.980 -0.8650 -0.7913  1.0581
  856MOL0     H18118   2.858   1.242   3.199 -0.8676  3.0799  0.3896
  856MOL0     H18119   2.948   1.373   3.135  3.1215 -1.1096 -0.1733
  856MOL0     H18120   3.046   1.093   3.118 -2.7237  0.2556  0.6316
  856MOL0     H18121   3.139   1.240   3.085  0.9096  0.8686  2.1769
  856MOL0     H18122   3.190   1.185   3.316  0.6182 -0.0193 -0.8139
  856MOL0     H18123   3.022   1.153   3.347 -2.0362  0.7703 -1.8551
  856MOL0     H18124   3.106   1.598   3.389  0.7331 -0.5880  0.3224
  856MOL0     H18125   2.719   0.869   2.945 -3.3900 -2.3060 -0.8062
  856MOL0     H18126   2.653   0.676   2.845 -0.3532  0.1507  0.1985
  856MOL0     H18127   2.533   0.705   2.715 -0.6506  1.6635  1.3433
  856MOL0     H18128   2.689   0.654   2.678 -2.6072  1.1758 -2.6224
  857MOL0     O18129  11.074   6.396   6.259  0.0267 -0.2845  0.1673
  857MOL0     C18130  10.972   6.353   6.318 -0.3988  0.5150 -0.7795
  857MOL0     O18131  10.868   6.430   6.348 -0.2851 -0.7553 -0.1646
  857MOL0     C18132  10.853   6.531   6.254 -0.7375 -0.6413 -0.8039
  857MOL0     C18133  10.742   6.538   6.165  0.2465  0.3935 -0.9645
  857MOL0     C18134  10.714   6.649   6.088 -0.5543 -0.0357  0.0200
  857MOL0     C18135  10.803   6.754   6.102  0.8343  0.4858 -0.2183
  857MOL0     O18136  10.775   6.862   6.027  0.4787  0.0852  0.6850
  857MOL0     C18137  10.884   6.912   5.957 -0.7336 -0.4269  0.7607
  857MOL0     C18138  10.834   7.008   5.843  0.6067 -0.3489 -0.5959
  857MOL0     C18139  10.749   6.945   5.739 -0.5057 -1.0529  0.4305
  857MOL0     C18140  10.829   6.888   5.612  0.2788 -0.2341  0.4262
  857MOL0     C18141  10.745   6.787   5.526 -0.8768 -0.6491  0.0771
  857MOL0     C18142  10.625   6.844   5.453  0.1553  0.2083 -0.1054
  857MOL0     C18143  10.552   6.735   5.381 -0.1409  0.1900 -0.6655
  857MOL0     C18144  10.469   6.793   5.268 -0.8801 -0.0952 -0.2451
  857MOL0     N18145  10.566   6.835   5.160  0.3362 -0.5462 -0.3009
  857MOL0     C18146  10.542   6.928   5.047  0.0989  0.8057 -0.2351
  857MOL0     C18147  10.628   6.896   4.959 -0.3388  0.3765  0.1979
  857MOL0     C18148  10.613   6.975   4.836 -0.4702 -0.1126 -0.6610
  857MOL0     C18149  10.548   6.917   4.717 -0.4211  0.0367 -0.1950
  857MOL0     C18150  10.598   7.003   4.604  0.7989  1.0986  0.6480
  857MOL0     C18151  10.510   6.983   4.475 -0.1201  0.5713  0.2478
  857MOL0     O18152  10.542   6.861   4.413 -0.0696  0.5750 -0.6797
  857MOL0     C18153  10.520   6.834   4.278  0.1773 -1.3330  0.9367
  857MOL0     C18154  10.404   6.872   4.214  0.2796  0.0548 -0.5072
  857MOL0     C18155  10.381   6.847   4.075  0.2027  0.1645 -0.4107
  857MOL0     C18156  10.249   6.880   4.023 -0.3560  0.0791 -0.5821
  857MOL0     C18157  10.480   6.782   3.999 -0.0010  0.1355  0.3315
  857MOL0     C18158  10.465   6.745   3.851 -0.5909  0.1310 -0.0145
  857MOL0     O18159  10.568   6.669   3.795  0.1890 -0.4229 -0.1766
  857MOL0     C18160  10.560   6.626   3.663  0.0963 -0.2261  0.7041
  857MOL0     C18161  10.545   6.493   3.639 -0.2943  0.0968  0.3755
  857MOL0     C18162  10.515   6.450   3.509 -0.4620 -0.1822 -0.5852
  857MOL0     C18163  10.509   6.539   3.403  0.0918  0.5249 -1.0717
  857MOL0     O18164  10.488   6.489   3.278 -0.5659  0.2148  0.4332
  857MOL0     C18165  10.454   6.587   3.177  1.1805  0.4508  0.1544
  857MOL0     C18166  10.421   6.505   3.050 -1.0631  0.1651 -0.7639
  857MOL0     C18167  10.320   6.574   2.959  0.1647  0.0436 -0.1068
  857MOL0     C18168  10.374   6.660   2.852 -0.1031  0.2328  0.0691
  857MOL0     C18169  10.265   6.759   2.789  0.4301 -0.2085 -0.5675
  857MOL0     C18170  10.321   6.903   2.774 -0.5167  0.6023 -0.4250
  857MOL0     C18171  10.400   6.910   2.647  0.5013 -0.2977 -0.8870
  857MOL0     C18172  10.377   7.044   2.586 -0.1801 -0.0608  0.0785
  857MOL0    Cl18173  10.499   7.151   2.651  0.7064  0.2614 -0.0098
  857MOL0     C18174  10.541   6.671   3.428  0.1759 -0.5140 -0.5101
  857MOL0     C18175  10.570   6.718   3.560  0.7540 -0.9393  0.9122
  857MOL0     O18176  10.388   6.813   3.786  0.2262  0.1039 -0.1492
  857MOL0     C18177  10.596   6.734   4.064 -0.2305 -0.8233  1.0841
  857MOL0     C18178  10.611   6.761   4.203 -0.1220 -0.7414 -0.2366
  857MOL0     N18179  10.727   6.820   5.008  0.4513  0.3101  0.2682
  857MOL0     N18180  10.696   6.791   5.128 -0.0792  0.7837 -0.3575
  857MOL0     C18181  10.922   6.756   6.184  1.0445 -0.3796 -0.1570
  857MOL0     C18182  10.936   6.641   6.259 -0.2952  0.3896 -0.0818
  857MOL0     C18183  10.959   6.206   6.351 -0.2553 -0.0289  0.3472
  857MOL0     C18184  10.837   6.133   6.321  0.0652 -0.1389 -0.3566
  857MOL0     C18185  10.815   6.009   6.390  0.0250 -0.5622  0.6385
  857MOL0     C18186  10.908   5.955   6.476  0.3082 -0.0702  0.0923
  857MOL0     O18187  10.892   5.850   6.562  0.0693  0.5502 -0.6046
  857MOL0     C18188  10.807   5.737   6.530  0.4862  0.0636 -0.0556
  857MOL0     C18189  10.883   5.617   6.469  0.0441 -0.5375  0.0603
  857MOL0     C18190  10.800   5.499   6.434  0.0648  0.7271 -0.3325
  857MOL0     C18191  10.720   5.420   6.547 -0.7269  0.0648 -0.3394
  857MOL0     C18192  10.826   5.380   6.641  0.4117 -0.3805  0.0241
  857MOL0     C18193  10.914   5.361   6.720  0.0341 -0.0378 -0.0458
  857MOL0     C18194  11.029   6.019   6.491  0.8581 -1.8950  0.3404
  857MOL0     C18195  11.057   6.142   6.429 -0.6214  0.1328  0.4339
  857MOL0     C18196  11.188   6.202   6.464  0.1569 -0.4075 -0.6690
  857MOL0     H18197  10.683   6.447   6.166 -0.4187  0.8240 -0.0575
  857MOL0     H18198  10.646   6.666   6.005 -0.5336 -2.5638 -0.5834
  857MOL0     H18199  10.948   6.839   5.907 -0.0377  0.0231  0.9811
  857MOL0     H18200  10.950   6.970   6.023  1.9718 -2.7587  0.3183
  857MOL0     H18201  10.786   7.096   5.887 -0.4664 -0.9052 -0.6464
  857MOL0     H18202  10.928   7.049   5.804  2.1166 -0.8701  2.2625
  857MOL0     H18203  10.690   6.873   5.795  0.9209 -0.7867  2.3591
  857MOL0     H18204  10.676   7.014   5.694  0.5033 -1.4413 -1.9605
  857MOL0     H18205  10.869   6.971   5.553  1.0223  1.5543  3.2295
  857MOL0     H18206  10.915   6.829   5.645  0.6135 -0.3228 -0.5809
  857MOL0     H18207  10.709   6.716   5.601 -3.0596  1.5859  1.2973
  857MOL0     H18208  10.814   6.742   5.454 -2.4512  0.4721 -2.2829
  857MOL0     H18209  10.553   6.897   5.517 -0.2386  0.1809 -0.5264
  857MOL0     H18210  10.661   6.924   5.389  0.6887  1.6034  1.8251
  857MOL0     H18211  10.476   6.687   5.443  0.3378 -0.4403 -0.5665
  857MOL0     H18212  10.622   6.670   5.328  0.7791  2.0386 -1.8268
  857MOL0     H18213  10.404   6.720   5.218 -0.3429 -1.1117  0.5096
  857MOL0     H18214  10.408   6.879   5.295 -0.7275  0.1395 -0.6374
  857MOL0     H18215  10.459   6.998   5.054 -0.0682  0.4570  3.1760
  857MOL0     H18216  10.716   7.003   4.813  0.7235 -0.6541  3.2393
  857MOL0     H18217  10.564   7.073   4.850  0.1105  0.3067 -1.5161
  857MOL0     H18218  10.580   6.814   4.698  1.6271  1.0858 -3.4156
  857MOL0     H18219  10.439   6.919   4.721 -0.4415  2.8871  0.0390
  857MOL0     H18220  10.585   7.111   4.615 -2.7275  0.9356 -0.7444
  857MOL0     H18221  10.700   6.977   4.571  1.1141  1.2804  1.4565
  857MOL0     H18222  10.404   6.986   4.500 -0.4793 -2.0506 -0.6427
  857MOL0     H18223  10.541   7.058   4.402 -2.6877  0.0235 -1.5318
  857MOL0     H18224  10.329   6.919   4.276  0.9389 -1.2023  1.3315
  857MOL0     H18225  10.261   6.960   3.950 -0.4509  0.0369 -0.6440
  857MOL0     H18226  10.186   6.910   4.107 -2.7096  2.7108 -3.0311
  857MOL0     H18227  10.186   6.802   3.981 -0.5318 -1.3417  2.1472
  857MOL0     H18228  10.556   6.421   3.720 -0.6153 -2.4367 -1.7171
  857MOL0     H18229  10.499   6.347   3.481  2.2628 -0.5175 -1.1621
  857MOL0     H18230  10.368   6.645   3.210 -0.6799 -2.2860  0.3817
  857MOL0     H18231  10.534   6.659   3.156  0.4454  1.2714  0.0907
  857MOL0     H18232  10.514   6.506   2.993 -1.1249  1.0632 -0.8740
  857MOL0     H18233  10.378   6.410   3.082 -0.3247  0.3829  0.9838
  857MOL0     H18234  10.252   6.616   3.034 -1.3269 -0.5558 -1.0701
  857MOL0     H18235  10.258   6.496   2.913 -0.8044 -0.3857  1.7938
  857MOL0     H18236  10.424   6.607   2.770  1.1584 -0.3155  1.1500
  857MOL0     H18237  10.451   6.707   2.913 -0.6434 -0.7454  1.5618
  857MOL0     H18238  10.229   6.731   2.689  1.7995 -1.0717 -0.8529
  857MOL0     H18239  10.178   6.771   2.854  1.8728 -0.9241  1.6014
  857MOL0     H18240  10.389   6.943   2.850  1.6352  0.4628 -2.1660
  857MOL0     H18241  10.242   6.979   2.778 -0.5439  0.5581 -0.0982
  857MOL0     H18242  10.364   6.833   2.578 -4.0786 -0.0993  0.9361
  857MOL0     H18243  10.504   6.894   2.678 -0.0311 -1.6552  0.2725
  857MOL0     H18244  10.279   7.091   2.594 -0.0956  0.0262  0.6140
  857MOL0     H18245  10.392   7.037   2.478 -0.1194 -1.9471  0.1677
  857MOL0     H18246  10.523   6.739   3.345  1.1079 -0.4329 -0.6590
  857MOL0     H18247  10.587   6.824   3.575  0.2624 -1.2072  3.8592
  857MOL0     H18248  10.688   6.704   4.015  0.6494  2.7314  0.3229
  857MOL0     H18249  10.706   6.743   4.252 -0.9625 -0.8424  1.4039
  857MOL0     H18250  10.995   6.836   6.191 -0.8980  1.4141  0.7705
  857MOL0     H18251  11.018   6.629   6.330 -2.4029 -1.1813  2.3008
  857MOL0     H18252  10.752   6.173   6.268 -2.4159 -3.3024  0.8791
  857MOL0     H18253  10.729   5.946   6.373 -0.5073 -0.0041  1.2162
  857MOL0     H18254  10.770   5.698   6.625 -0.5409  1.7291  0.2708
  857MOL0     H18255  10.725   5.776   6.468  0.0130 -0.0985  0.4600
  857MOL0     H18256  10.960   5.584   6.540 -1.6480 -1.2503  1.6612
  857MOL0     H18257  10.940   5.650   6.381  1.4946 -2.6049  0.1709
  857MOL0     H18258  10.731   5.529   6.355 -3.5732 -1.4512  1.7685
  857MOL0     H18259  10.864   5.423   6.390 -2.3706 -0.2499 -2.4140
  857MOL0     H18260  10.674   5.323   6.525 -1.1473 -0.3292  2.0182
  857MOL0     H18261  10.646   5.482   6.598 -0.6181  0.0384 -0.1471
  857MOL0     H18262  10.991   5.343   6.793  1.2532 -2.5767 -1.8103
  857MOL0     H18263  11.108   5.971   6.549  2.9679 -1.8514 -2.2802
  857MOL0     H18264  11.167   6.294   6.519 -0.3384  2.1997 -4.8003
  857MOL0     H18265  11.253   6.127   6.510 -1.4883 -0.0893  2.4190
  857MOL0     H18266  11.236   6.236   6.372  0.3549  1.0611 -0.0620
  858MOL0     O18267   2.337   6.682   6.112  0.3124 -0.3837  0.2978
  858MOL0     C18268   2.397   6.744   6.197 -0.7877 -0.0243 -1.0868
  858MOL0     O18269   2.410   6.880   6.202  0.4611  0.5935 -0.0565
  858MOL0     C18270   2.437   6.953   6.086 -0.0929  1.4133  0.5519
  858MOL0     C18271   2.371   7.068   6.060  0.2079  0.4611 -0.7535
  858MOL0     C18272   2.401   7.130   5.945  0.1618 -1.2954  0.0885
  858MOL0     C18273   2.506   7.095   5.862  0.1366  1.0067 -0.1459
  858MOL0     O18274   2.522   7.173   5.749 -0.6034 -0.2516  0.6595
  858MOL0     C18275   2.591   7.114   5.640 -0.3527  0.4633 -0.1080
  858MOL0     C18276   2.625   7.206   5.521 -0.6085  0.7536  0.1914
  858MOL0     C18277   2.502   7.297   5.472 -0.6472  0.7275 -0.7868
  858MOL0     C18278   2.389   7.218   5.409  0.3055 -0.6340  0.1671
  858MOL0     C18279   2.283   7.299   5.329  1.4862 -0.7669  0.2685
  858MOL0     C18280   2.287   7.279   5.181  0.7188 -1.2395  0.1566
  858MOL0     C18281   2.190   7.368   5.110  0.4068 -0.1295  0.8406
  858MOL0     C18282   2.223   7.508   5.106 -0.4821 -0.9842  0.0313
  858MOL0     N18283   2.352   7.551   5.054 -0.1010 -0.7555  0.4481
  858MOL0     C18284   2.361   7.590   4.922 -1.2083  0.0238  0.2716
  858MOL0     C18285   2.493   7.618   4.910 -1.1404 -0.5382  0.0094
  858MOL0     C18286   2.572   7.688   4.813  0.2148 -0.1741  0.7645
  858MOL0     C18287   2.502   7.807   4.762  0.1792 -0.6262  0.2720
  858MOL0     C18288   2.579   7.881   4.651 -0.9729  0.9119 -0.7560
  858MOL0     C18289   2.515   8.013   4.636 -0.4127  0.1276 -0.3737
  858MOL0     O18290   2.395   8.013   4.559 -0.1510 -0.1119 -0.0087
  858MOL0     C18291   2.388   8.010   4.426  0.3975  0.4847 -0.3494
  858MOL0     C18292   2.493   7.986   4.341 -0.8470  1.0697  0.1962
  858MOL0     C18293   2.486   7.968   4.205  0.0442 -0.5726 -0.1685
  858MOL0     C18294   2.608   7.916   4.128 -0.1001  0.5505 -0.5777
  858MOL0     C18295   2.352   7.978   4.145 -0.0168  1.0920  0.1275
  858MOL0     C18296   2.329   7.940   4.008  0.5145  0.9272  0.2152
  858MOL0     O18297   2.372   7.817   3.966 -0.0631  0.0968  0.2532
  858MOL0     C18298   2.351   7.776   3.838 -0.1529  0.5016  1.0195
  858MOL0     C18299   2.450   7.697   3.788  0.0983  0.0342 -0.2661
  858MOL0     C18300   2.435   7.633   3.664  0.0817 -0.6974  0.4687
  858MOL0     C18301   2.321   7.666   3.580  0.2902  0.0067 -0.4588
  858MOL0     O18302   2.305   7.625   3.453  0.0934  0.5081 -0.2716
  858MOL0     C18303   2.363   7.500   3.415 -0.2309  1.1136  0.0782
  858MOL0     C18304   2.246   7.432   3.341 -0.0296  0.1197 -1.1405
  858MOL0     C18305   2.287   7.313   3.260 -0.0702 -0.0769 -0.0161
  858MOL0     C18306   2.156   7.268   3.187 -0.4708  0.1668 -0.0865
  858MOL0     C18307   2.174   7.139   3.116  0.5095 -0.6974 -0.0358
  858MOL0     C18308   2.041   7.109   3.033 -0.1666 -0.0405 -0.1934
  858MOL0     C18309   2.045   6.967   2.972 -0.1668  1.0312  0.3152
  858MOL0     C18310   1.920   6.916   2.892  0.1699 -0.8107  0.5314
  858MOL0    Cl18311   1.763   6.927   2.985 -0.0060 -0.2107  0.1475
  858MOL0     C18312   2.228   7.749   3.631 -0.2003  0.6791  0.1902
  858MOL0     C18313   2.237   7.793   3.764  0.2601 -0.1208 -0.0639
  858MOL0     O18314   2.291   8.033   3.936  0.4679 -0.0085  0.7650
  858MOL0     C18315   2.240   8.006   4.231  0.1187  0.2628  0.5693
  858MOL0     C18316   2.255   8.018   4.371  0.3182  0.5713  0.2225
  858MOL0     N18317   2.549   7.595   5.039 -0.6252 -0.3986  0.0688
  858MOL0     N18318   2.460   7.561   5.131 -0.7012 -0.1666  0.4775
  858MOL0     C18319   2.586   6.988   5.892  1.0820  0.6989 -0.6092
  858MOL0     C18320   2.545   6.905   5.995  0.7348 -0.0005 -0.3991
  858MOL0     C18321   2.403   6.658   6.324  0.5021  0.8284  1.0118
  858MOL0     C18322   2.315   6.546   6.333  0.4487  0.5044  0.2087
  858MOL0     C18323   2.325   6.469   6.443  0.7867 -0.4102 -0.7690
  858MOL0     C18324   2.403   6.503   6.552  0.1491  0.8014 -0.3242
  858MOL0     O18325   2.420   6.422   6.655 -0.1427  0.3277 -0.6946
  858MOL0     C18326   2.302   6.344   6.701 -0.2916 -0.4572  0.2673
  858MOL0     C18327   2.337   6.264   6.832  0.4546  0.7072 -0.1823
  858MOL0     C18328   2.424   6.141   6.806  0.5808  0.3648  0.1550
  858MOL0     C18329   2.423   6.065   6.937  0.3526  0.2491 -0.7433
  858MOL0     C18330   2.498   6.140   7.039 -0.3189 -0.6850 -0.2128
  858MOL0     C18331   2.574   6.191   7.119 -0.1261 -0.5898  0.5878
  858MOL0     C18332   2.482   6.612   6.542 -0.1753 -0.4337 -1.5059
  858MOL0     C18333   2.487   6.695   6.433 -0.3616 -0.2583 -0.4567
  858MOL0     C18334   2.579   6.818   6.419  0.2835  0.5570  1.1248
  858MOL0     H18335   2.306   7.115   6.133  1.0882  1.7218 -0.7424
  858MOL0     H18336   2.336   7.214   5.923 -0.5690 -1.4060  1.6594
  858MOL0     H18337   2.531   7.031   5.600  1.1246 -2.9440  3.9448
  858MOL0     H18338   2.686   7.068   5.672 -0.6068  0.2228  0.3103
  858MOL0     H18339   2.716   7.266   5.535  2.1808 -1.7718 -4.5769
  858MOL0     H18340   2.661   7.139   5.443  1.4390  2.3699 -0.3541
  858MOL0     H18341   2.473   7.355   5.561  1.1813 -0.3116  0.5546
  858MOL0     H18342   2.535   7.375   5.403 -1.2276  1.9097  0.2028
  858MOL0     H18343   2.430   7.137   5.347  3.0702 -0.7633  1.9565
  858MOL0     H18344   2.337   7.163   5.489  0.9963  0.6603  1.5630
  858MOL0     H18345   2.319   7.400   5.350 -1.0739  1.3095 -3.8765
  858MOL0     H18346   2.187   7.276   5.377  2.0454 -1.7100  0.9515
  858MOL0     H18347   2.388   7.299   5.143  0.7799  0.1187  0.9413
  858MOL0     H18348   2.259   7.175   5.165  1.7122 -1.7338  1.3727
  858MOL0     H18349   2.093   7.363   5.162  0.3369  1.4721  0.9180
  858MOL0     H18350   2.170   7.328   5.010 -2.8209 -0.7673  1.6195
  858MOL0     H18351   2.144   7.560   5.052  0.6260 -0.7556 -1.4581
  858MOL0     H18352   2.225   7.545   5.209  0.4747  2.0579 -0.9794
  858MOL0     H18353   2.293   7.606   4.840 -1.9183  0.7542  0.9823
  858MOL0     H18354   2.604   7.620   4.734 -1.8095  0.7632 -0.9475
  858MOL0     H18355   2.665   7.721   4.861  1.0561  2.8388 -2.4753
  858MOL0     H18356   2.416   7.774   4.704  2.8510  1.7541 -6.0314
  858MOL0     H18357   2.471   7.863   4.850 -0.4374 -1.7265  0.7684
  858MOL0     H18358   2.688   7.886   4.662 -0.6579 -4.0355  0.8194
  858MOL0     H18359   2.567   7.814   4.565 -0.4697 -0.4185  0.1758
  858MOL0     H18360   2.483   8.049   4.734 -0.1395 -0.7167  0.0363
  858MOL0     H18361   2.587   8.079   4.587  0.0420 -0.3257 -0.3307
  858MOL0     H18362   2.595   7.978   4.379 -1.5353 -0.3185  1.9053
  858MOL0     H18363   2.596   7.808   4.112  2.2545  0.3674 -1.4352
  858MOL0     H18364   2.703   7.928   4.181 -0.3450  1.3256 -0.3038
  858MOL0     H18365   2.605   7.963   4.030  0.4485  0.1529 -0.7923
  858MOL0     H18366   2.539   7.682   3.848 -0.8973 -0.3290  1.1393
  858MOL0     H18367   2.524   7.577   3.639  0.5928  0.4880 -0.4925
  858MOL0     H18368   2.450   7.514   3.349  2.4340 -0.0368  3.0653
  858MOL0     H18369   2.393   7.450   3.507 -4.7405 -1.7685  0.2743
  858MOL0     H18370   2.177   7.409   3.423  2.7690 -0.5607  1.1913
  858MOL0     H18371   2.183   7.504   3.289 -1.0258  0.6241  0.6688
  858MOL0     H18372   2.315   7.237   3.334 -2.8941  1.9094  3.4405
  858MOL0     H18373   2.362   7.343   3.187 -0.7896  1.2734 -0.2203
  858MOL0     H18374   2.119   7.340   3.114 -2.2638 -0.9534 -0.3502
  858MOL0     H18375   2.079   7.249   3.263  0.0421 -0.4823  0.2807
  858MOL0     H18376   2.261   7.141   3.049  0.8355  2.0772  0.3698
  858MOL0     H18377   2.188   7.060   3.190  2.5430  0.9915  1.5006
  858MOL0     H18378   2.027   7.184   2.955 -0.1686 -2.2711 -2.4768
  858MOL0     H18379   1.957   7.104   3.103  0.1695  0.7846  0.2730
  858MOL0     H18380   2.069   6.900   3.055  3.2983 -0.8842 -2.0127
  858MOL0     H18381   2.138   6.964   2.914  0.2637 -0.9750  1.0287
  858MOL0     H18382   1.924   6.812   2.857 -1.2830 -0.4481 -0.8467
  858MOL0     H18383   1.895   6.965   2.798 -2.9034 -3.6272 -0.3165
  858MOL0     H18384   2.143   7.785   3.574  0.5758  1.1318 -0.7202
  858MOL0     H18385   2.160   7.859   3.803  1.3577  1.0136  0.2195
  858MOL0     H18386   2.139   8.024   4.195 -0.9765  1.2011  3.7696
  858MOL0     H18387   2.169   8.015   4.437  0.9139 -2.0197  1.0179
  858MOL0     H18388   2.657   6.951   5.819  2.0469  3.0753 -0.9434
  858MOL0     H18389   2.595   6.811   6.015  1.4594  0.0700 -1.7540
  858MOL0     H18390   2.258   6.503   6.252  1.0837 -2.0633  1.0551
  858MOL0     H18391   2.255   6.386   6.442 -0.7092  0.8071 -0.1607
  858MOL0     H18392   2.213   6.405   6.718 -1.1543 -1.6950  0.3930
  858MOL0     H18393   2.278   6.270   6.623  1.7149 -0.5276 -0.3432
  858MOL0     H18394   2.238   6.232   6.866 -0.3211  2.2065 -0.9296
  858MOL0     H18395   2.380   6.338   6.901 -3.7539 -0.4495  4.2876
  858MOL0     H18396   2.386   6.076   6.726 -2.2090  1.6936  0.2727
  858MOL0     H18397   2.529   6.168   6.796  1.6137 -2.5580  1.9740
  858MOL0     H18398   2.476   5.970   6.926 -1.4236 -0.6580 -1.9365
  858MOL0     H18399   2.325   6.039   6.977  0.8938  0.2891  0.6881
  858MOL0     H18400   2.639   6.226   7.197  0.4416 -0.5488  0.1047
  858MOL0     H18401   2.544   6.630   6.629 -1.2731 -1.7657 -0.3969
  858MOL0     H18402   2.629   6.831   6.323  1.1867  0.3250  1.5526
  858MOL0     H18403   2.531   6.912   6.449 -0.8496  0.2843  0.2369
  858MOL0     H18404   2.664   6.811   6.488  2.7715  1.3788 -1.6494
  859MOL0     O18405   3.281   3.615   5.719  0.6672  0.4543  0.2214
  859MOL0     C18406   3.378   3.543   5.743 -0.0907  0.1831  0.6197
  859MOL0     O18407   3.420   3.500   5.869  0.5488 -0.5132  0.1808
  859MOL0     C18408   3.325   3.536   5.969 -0.3630 -0.4046 -0.1164
  859MOL0     C18409   3.356   3.622   6.071 -0.3585  0.0165  0.8641
  859MOL0     C18410   3.271   3.644   6.177 -0.7618  0.0832  0.5483
  859MOL0     C18411   3.141   3.590   6.183  0.1211  0.9108 -0.1798
  859MOL0     O18412   3.048   3.606   6.287  0.5531  0.1348 -0.4955
  859MOL0     C18413   3.101   3.579   6.417 -0.1384 -0.4728  0.6210
  859MOL0     C18414   3.002   3.606   6.533  0.9117 -0.2338  0.6021
  859MOL0     C18415   2.926   3.743   6.514  0.2309  0.2001  0.4624
  859MOL0     C18416   2.835   3.795   6.617 -0.6688 -0.0665 -0.6299
  859MOL0     C18417   2.741   3.900   6.558  0.0242 -0.4131 -0.2994
  859MOL0     C18418   2.673   3.988   6.663  0.7072 -0.0824  0.6841
  859MOL0     C18419   2.628   4.110   6.587 -1.0781 -0.4613  0.5382
  859MOL0     C18420   2.599   4.224   6.685 -0.2709  0.1790  0.7721
  859MOL0     N18421   2.554   4.341   6.613  0.2820 -0.5651 -0.5159
  859MOL0     C18422   2.551   4.461   6.682 -0.0184 -0.9547 -0.7687
  859MOL0     C18423   2.482   4.550   6.600  0.5010  0.7304  0.3345
  859MOL0     C18424   2.450   4.692   6.629 -0.2751 -0.1587  0.1430
  859MOL0     C18425   2.299   4.716   6.624 -0.0358 -0.8809 -0.1078
  859MOL0     C18426   2.278   4.868   6.635 -0.5289  0.0920 -0.0723
  859MOL0     C18427   2.143   4.906   6.688 -0.6535 -0.6668 -0.4911
  859MOL0     O18428   2.140   5.050   6.661  0.4335  0.6719 -0.4399
  859MOL0     C18429   2.018   5.096   6.702 -0.5630 -0.1744  1.7887
  859MOL0     C18430   1.944   5.062   6.816  0.9554  0.3471  0.2034
  859MOL0     C18431   1.819   5.114   6.839  0.1394 -0.5879 -0.3334
  859MOL0     C18432   1.761   5.058   6.968  0.9078 -0.5382  0.9828
  859MOL0     C18433   1.769   5.222   6.761  0.1991  0.8655 -0.3817
  859MOL0     C18434   1.640   5.293   6.786 -0.5630  0.1291 -0.0515
  859MOL0     O18435   1.569   5.250   6.892 -0.2467  0.3038  0.6969
  859MOL0     C18436   1.470   5.321   6.951 -0.5081 -1.2548 -0.9346
  859MOL0     C18437   1.334   5.289   6.933 -0.0641 -0.2862  0.6002
  859MOL0     C18438   1.232   5.367   6.994 -0.7719  0.0923  0.4772
  859MOL0     C18439   1.275   5.446   7.100  0.3149 -0.8757 -0.1501
  859MOL0     O18440   1.190   5.514   7.193 -0.1404  0.3964 -0.0529
  859MOL0     C18441   1.048   5.485   7.186 -0.9941  0.2431 -1.6340
  859MOL0     C18442   0.975   5.587   7.264  0.0936  0.3985  0.1601
  859MOL0     C18443   1.009   5.609   7.411  0.0955  0.5867  0.8846
  859MOL0     C18444   0.991   5.494   7.512 -0.4962  0.7016 -0.3747
  859MOL0     C18445   1.083   5.370   7.508  0.6782 -0.2889  0.7424
  859MOL0     C18446   0.990   5.248   7.490  0.0556 -0.1167  0.8009
  859MOL0     C18447   0.906   5.209   7.616 -0.8279 -0.3836  0.2187
  859MOL0     C18448   0.814   5.101   7.593  0.2456  0.0958  0.7481
  859MOL0    Cl18449   0.895   4.952   7.512 -0.3754  0.0436  0.5704
  859MOL0     C18450   1.411   5.464   7.127 -0.1912 -1.0108 -0.1646
  859MOL0     C18451   1.510   5.402   7.050 -0.0421  0.4821 -0.5458
  859MOL0     O18452   1.610   5.406   6.737 -0.0946 -0.1186  0.3376
  859MOL0     C18453   1.841   5.252   6.641  0.4349  0.5965 -0.7942
  859MOL0     C18454   1.969   5.195   6.618 -0.1084  0.1482  0.1589
  859MOL0     N18455   2.453   4.478   6.485 -0.7893 -0.0677 -0.3367
  859MOL0     N18456   2.495   4.355   6.497 -0.5892 -0.3908  0.2864
  859MOL0     C18457   3.113   3.485   6.084 -0.8187 -0.2544  0.5955
  859MOL0     C18458   3.196   3.468   5.972 -0.0454  0.1862 -0.2871
  859MOL0     C18459   3.464   3.496   5.634 -0.9547  0.9808 -0.0136
  859MOL0     C18460   3.589   3.449   5.672  0.2790 -0.1971  0.2894
  859MOL0     C18461   3.682   3.399   5.584  0.5869  0.8843  0.2170
  859MOL0     C18462   3.652   3.387   5.443  0.7365 -0.8370  0.4506
  859MOL0     O18463   3.744   3.352   5.344 -0.2663  0.2120  0.2284
  859MOL0     C18464   3.863   3.288   5.381  0.3867  0.3774  0.6958
  859MOL0     C18465   3.918   3.218   5.253  1.2520 -0.7803 -0.5003
  859MOL0     C18466   4.036   3.128   5.295 -0.4507 -0.7384 -0.1124
  859MOL0     C18467   4.105   3.077   5.168 -0.1839  0.5281  0.2931
  859MOL0     C18468   4.252   3.039   5.177  0.8640  0.1254 -0.4226
  859MOL0     C18469   4.373   3.042   5.190  0.3035 -0.2710 -0.5712
  859MOL0     C18470   3.532   3.445   5.406 -1.1588  0.7604  0.2880
  859MOL0     C18471   3.433   3.497   5.497  0.5814 -0.3277  0.4950
  859MOL0     C18472   3.304   3.541   5.439  0.1245 -0.1055 -0.1602
  859MOL0     H18473   3.457   3.663   6.067 -0.4642  0.1756 -0.6287
  859MOL0     H18474   3.321   3.713   6.244 -0.8600  1.8557 -1.0974
  859MOL0     H18475   3.185   3.648   6.423 -1.2904  1.1803 -1.0953
  859MOL0     H18476   3.146   3.480   6.431  6.0616  1.6777 -0.9160
  859MOL0     H18477   2.927   3.527   6.532 -0.9385  1.4698  0.0814
  859MOL0     H18478   3.048   3.603   6.632  2.5188  2.0935  0.0077
  859MOL0     H18479   2.987   3.823   6.471 -0.4807 -0.6243 -2.2901
  859MOL0     H18480   2.858   3.735   6.429 -1.2275  0.4427  1.5753
  859MOL0     H18481   2.784   3.716   6.674 -1.8873  1.2807  0.2160
  859MOL0     H18482   2.906   3.844   6.684 -0.0072 -2.8054  0.8523
  859MOL0     H18483   2.665   3.858   6.491 -0.8267 -2.9721  2.0879
  859MOL0     H18484   2.811   3.967   6.507 -0.1445  0.5762  0.7277
  859MOL0     H18485   2.587   3.932   6.700 -0.8697  0.9436 -1.2689
  859MOL0     H18486   2.750   4.006   6.739  1.4640  1.5682 -0.3943
  859MOL0     H18487   2.532   4.082   6.544 -1.4870 -2.6991  2.6590
  859MOL0     H18488   2.702   4.141   6.513  0.6863 -0.4344  2.2114
  859MOL0     H18489   2.521   4.189   6.753 -2.3198  0.8316 -1.1321
  859MOL0     H18490   2.697   4.237   6.732  0.9195  0.4233 -1.6449
  859MOL0     H18491   2.594   4.485   6.779  1.3464  0.6997 -1.7301
  859MOL0     H18492   2.502   4.757   6.558  0.6111  0.7324  1.5611
  859MOL0     H18493   2.502   4.720   6.721  2.1250  1.2882 -1.5467
  859MOL0     H18494   2.262   4.678   6.528 -0.6147 -1.8550  0.4882
  859MOL0     H18495   2.250   4.670   6.710  1.7704  2.7554  3.1591
  859MOL0     H18496   2.350   4.918   6.700 -1.2972 -0.3470  1.1571
  859MOL0     H18497   2.305   4.910   6.538 -1.2287  0.1773 -0.2366
  859MOL0     H18498   2.059   4.849   6.648 -2.0292  0.1384  1.1520
  859MOL0     H18499   2.154   4.877   6.792 -0.5718 -1.4723 -0.7217
  859MOL0     H18500   1.976   4.988   6.889 -1.3715 -1.8703 -0.8453
  859MOL0     H18501   1.757   5.132   7.049 -0.0979  0.6721 -0.1241
  859MOL0     H18502   1.814   4.971   7.007  1.4122 -1.1239 -0.8939
  859MOL0     H18503   1.659   5.023   6.951  0.2993  0.3727  2.5073
  859MOL0     H18504   1.299   5.222   6.855 -0.0290  2.0162 -1.5263
  859MOL0     H18505   1.127   5.343   6.980 -0.9172  0.4731  0.9053
  859MOL0     H18506   1.017   5.474   7.081 -0.2475 -0.9360 -1.7485
  859MOL0     H18507   1.033   5.389   7.236  0.9354  0.6681 -0.1304
  859MOL0     H18508   0.994   5.678   7.205 -0.5140 -0.0429 -0.7364
  859MOL0     H18509   0.872   5.562   7.238 -0.0782  1.3924 -0.1845
  859MOL0     H18510   0.952   5.695   7.448 -0.3260  1.0960 -0.8488
  859MOL0     H18511   1.112   5.645   7.414  0.4219  0.0664 -1.6440
  859MOL0     H18512   0.890   5.454   7.507 -0.4288  0.0945  1.9530
  859MOL0     H18513   0.992   5.526   7.617 -2.1373 -0.7611  0.1383
  859MOL0     H18514   1.147   5.381   7.420 -0.5962 -1.9608 -0.4696
  859MOL0     H18515   1.137   5.373   7.603  2.6514 -0.7332 -0.3065
  859MOL0     H18516   1.054   5.163   7.465 -0.1692 -0.7224  2.1390
  859MOL0     H18517   0.919   5.250   7.408 -0.9591 -5.1326  1.2095
  859MOL0     H18518   0.845   5.297   7.639 -1.2807 -0.3261 -1.1102
  859MOL0     H18519   0.969   5.192   7.704  0.9643 -1.0402 -1.1270
  859MOL0     H18520   0.735   5.131   7.524  1.1735  0.1712 -0.3105
  859MOL0     H18521   0.765   5.062   7.683 -1.3711  1.3358  0.4488
  859MOL0     H18522   1.429   5.519   7.219 -1.1263  1.6109 -1.4594
  859MOL0     H18523   1.611   5.400   7.090 -0.1929 -2.3786 -0.0968
  859MOL0     H18524   1.785   5.313   6.571 -0.0686 -0.7289 -1.5927
  859MOL0     H18525   2.022   5.207   6.524 -1.3129 -2.9741 -1.0468
  859MOL0     H18526   3.022   3.426   6.092 -0.7460 -0.1142  3.4631
  859MOL0     H18527   3.171   3.409   5.885  1.2269 -2.9740  1.2699
  859MOL0     H18528   3.633   3.458   5.771  1.5509 -3.5099  0.1739
  859MOL0     H18529   3.781   3.394   5.628  1.2143  2.3281 -0.9561
  859MOL0     H18530   3.935   3.364   5.413  1.6117 -1.8327  3.6167
  859MOL0     H18531   3.866   3.223   5.468  1.0480 -0.0355  0.3741
  859MOL0     H18532   3.947   3.301   5.188  0.4783 -0.8078 -0.8942
  859MOL0     H18533   3.845   3.158   5.197  0.6020 -1.2568  0.8292
  859MOL0     H18534   4.116   3.178   5.350  0.5991 -1.1538 -1.2159
  859MOL0     H18535   3.996   3.050   5.360  0.6523 -0.5117  0.8769
  859MOL0     H18536   4.086   3.151   5.090 -0.2531  0.6514  0.4248
  859MOL0     H18537   4.058   2.981   5.146  3.6249 -1.5732  0.4624
  859MOL0     H18538   4.475   3.022   5.216  0.9080  0.2042 -2.3897
  859MOL0     H18539   3.514   3.450   5.299  4.0524 -0.4485 -0.9285
  859MOL0     H18540   3.310   3.532   5.330 -1.3296  2.4612 -0.5511
  859MOL0     H18541   3.227   3.476   5.482  3.0056 -2.1618  2.3491
  859MOL0     H18542   3.280   3.640   5.479 -0.6741  0.0781 -1.0684
  860MOL0     O18543   4.477   0.492   9.273  0.9699 -0.0357 -0.7206
  860MOL0     C18544   4.375   0.501   9.345  0.6138  0.7012 -0.5535
  860MOL0     O18545   4.248   0.509   9.306  0.7175  0.4729  0.2611
  860MOL0     C18546   4.207   0.438   9.194 -0.5442  0.4974  0.2788
  860MOL0     C18547   4.100   0.491   9.122 -0.6211  0.5181  0.3875
  860MOL0     C18548   4.052   0.422   9.004  0.4221 -1.0175 -0.9277
  860MOL0     C18549   4.114   0.303   8.970  1.6398 -0.5100  1.3498
  860MOL0     O18550   4.049   0.234   8.882  0.9026 -0.0188  0.5153
  860MOL0     C18551   4.066   0.282   8.743  0.0018  1.1185  1.0338
  860MOL0     C18552   3.956   0.208   8.661 -1.0857 -0.1643 -0.2668
  860MOL0     C18553   3.824   0.260   8.701 -0.1322  0.5566  0.8953
  860MOL0     C18554   3.716   0.202   8.605  0.1560 -0.4023 -1.2167
  860MOL0     C18555   3.582   0.266   8.633 -0.2051 -0.3917  0.0199
  860MOL0     C18556   3.497   0.289   8.509 -0.6380 -0.9099  0.2652
  860MOL0     C18557   3.471   0.178   8.409  0.8753  0.2548  0.2431
  860MOL0     C18558   3.333   0.119   8.392  0.3928  0.1450  1.4154
  860MOL0     N18559   3.265   0.073   8.515  0.2199 -0.0069 -0.1723
  860MOL0     C18560   3.282  -0.052   8.572 -0.5643 -0.1068  0.0804
  860MOL0     C18561   3.227  -0.038   8.695 -0.4034 -0.3404  0.3161
  860MOL0     C18562   3.230  -0.165   8.780 -0.5180 -0.1356  0.4913
  860MOL0     C18563   3.091  -0.230   8.814 -0.2095 -0.0591 -0.1710
  860MOL0     C18564   3.116  -0.340   8.924 -0.3038  0.1518 -0.8333
  860MOL0     C18565   2.992  -0.416   8.963  0.1959 -0.9058 -0.7856
  860MOL0     O18566   2.987  -0.483   9.096  1.0435  0.0659 -0.4074
  860MOL0     C18567   3.083  -0.576   9.135  1.1354  0.0718  0.2349
  860MOL0     C18568   3.162  -0.642   9.039 -0.1441 -0.0899 -0.0010
  860MOL0     C18569   3.248  -0.742   9.087 -0.5791  0.6831  0.5704
  860MOL0     C18570   3.328  -0.819   8.990 -0.0735  0.8800 -0.3938
  860MOL0     C18571   3.256  -0.772   9.227 -0.4589 -0.0313  0.2273
  860MOL0     C18572   3.350  -0.866   9.276 -0.0880 -0.1797  0.3157
  860MOL0     O18573   3.446  -0.829   9.369  0.8103 -0.5249 -0.4724
  860MOL0     C18574   3.525  -0.920   9.414 -0.3300  0.9924  0.0939
  860MOL0     C18575   3.530  -0.957   9.548 -0.3448 -0.0680  0.6325
  860MOL0     C18576   3.607  -1.066   9.598  0.6827 -1.1497  0.2511
  860MOL0     C18577   3.694  -1.131   9.511 -0.1236 -1.0962 -0.6591
  860MOL0     O18578   3.756  -1.241   9.564 -0.9873 -0.0093  0.4122
  860MOL0     C18579   3.890  -1.247   9.517 -0.1386  0.1554  0.4655
  860MOL0     C18580   3.959  -1.339   9.613 -1.0254  0.8238 -0.3439
  860MOL0     C18581   4.038  -1.254   9.724 -0.3406  0.1872 -0.5091
  860MOL0     C18582   4.114  -1.357   9.806  0.5842 -0.0112  0.0731
  860MOL0     C18583   4.166  -1.312   9.941  0.0511  0.3821 -0.1019
  860MOL0     C18584   4.222  -1.173   9.946 -0.0323  0.5654  0.6480
  860MOL0     C18585   4.125  -1.065   9.977 -0.3841  0.8140  0.1055
  860MOL0     C18586   4.179  -0.919   9.962 -0.8808 -0.9260  1.1867
  860MOL0    Cl18587   4.205  -0.883   9.790  0.2059 -0.0686  0.6648
  860MOL0     C18588   3.711  -1.079   9.383  0.5828 -0.8130 -0.4791
  860MOL0     C18589   3.618  -0.982   9.333  0.4708  0.6616  1.1424
  860MOL0     O18590   3.337  -0.980   9.247  1.2812  0.8235  0.1236
  860MOL0     C18591   3.199  -0.687   9.320  0.5888  0.0371  0.6025
  860MOL0     C18592   3.102  -0.598   9.267 -0.1400 -0.1666 -0.5391
  860MOL0     N18593   3.169   0.096   8.711  0.1003 -0.0191  0.0589
  860MOL0     N18594   3.190   0.151   8.595 -0.0065 -0.2120  0.5306
  860MOL0     C18595   4.220   0.254   9.038 -0.0341 -0.7100  0.1550
  860MOL0     C18596   4.269   0.317   9.153 -0.6767 -0.0277 -0.4628
  860MOL0     C18597   4.395   0.509   9.490 -0.5780  0.0594 -0.5947
  860MOL0     C18598   4.339   0.420   9.576  0.7635 -0.3584 -0.0475
  860MOL0     C18599   4.372   0.401   9.709 -0.3699  0.0317 -0.2930
  860MOL0     C18600   4.462   0.490   9.769 -0.5628 -0.8236  0.2398
  860MOL0     O18601   4.511   0.471   9.902 -0.7844 -0.2690 -0.3480
  860MOL0     C18602   4.648   0.434   9.932  0.1555 -0.3426 -0.6959
  860MOL0     C18603   4.651   0.284   9.954  0.5182  0.4022  0.4810
  860MOL0     C18604   4.667   0.209   9.822  0.3750 -0.6304  0.8261
  860MOL0     C18605   4.813   0.226   9.772  0.9984 -0.1220 -0.1358
  860MOL0     C18606   4.817   0.272   9.632 -1.2310  1.1332 -1.1661
  860MOL0     C18607   4.852   0.300   9.520 -0.1674 -0.1160  0.3290
  860MOL0     C18608   4.527   0.581   9.682  0.4029  0.2003 -0.5898
  860MOL0     C18609   4.489   0.598   9.552 -0.3357 -0.0100  0.4744
  860MOL0     C18610   4.563   0.701   9.477  0.5041 -0.0322 -0.0967
  860MOL0     H18611   4.056   0.576   9.173  1.8983  2.3435 -0.2781
  860MOL0     H18612   3.964   0.468   8.960 -1.2490 -1.3999  1.7365
  860MOL0     H18613   4.155   0.245   8.692 -2.1245 -0.4716 -1.8222
  860MOL0     H18614   4.062   0.391   8.736 -1.9060  0.9531 -1.8244
  860MOL0     H18615   3.967   0.213   8.552  0.0006  0.7018 -0.1412
  860MOL0     H18616   3.978   0.106   8.692  1.6052  0.2999 -0.4161
  860MOL0     H18617   3.789   0.220   8.797  1.9415  0.9331  1.8515
  860MOL0     H18618   3.816   0.369   8.697 -5.0582  0.3912 -1.9699
  860MOL0     H18619   3.738   0.219   8.500 -0.8404 -0.8128 -1.5031
  860MOL0     H18620   3.701   0.094   8.617 -0.3367 -0.1746  0.6419
  860MOL0     H18621   3.587   0.363   8.683  0.6134 -1.0080  1.1932
  860MOL0     H18622   3.530   0.190   8.692  0.2946 -0.0411  0.9240
  860MOL0     H18623   3.400   0.313   8.554 -1.3760 -1.7571 -0.8117
  860MOL0     H18624   3.523   0.385   8.464 -0.4448 -1.0252  0.1262
  860MOL0     H18625   3.523   0.096   8.460  0.8105  0.2009  0.2224
  860MOL0     H18626   3.515   0.187   8.309 -0.1287  0.5076 -0.1824
  860MOL0     H18627   3.263   0.194   8.355 -3.3622 -4.2224 -1.4114
  860MOL0     H18628   3.326   0.034   8.324 -2.2587 -1.0918  3.0653
  860MOL0     H18629   3.315  -0.149   8.534  0.0993 -0.9433  2.6126
  860MOL0     H18630   3.281  -0.133   8.871 -0.6225 -0.1680  0.5614
  860MOL0     H18631   3.294  -0.239   8.730 -1.0777  0.2496 -0.8410
  860MOL0     H18632   3.025  -0.150   8.850 -1.1979 -0.9400  0.0257
  860MOL0     H18633   3.035  -0.271   8.729 -1.7018 -1.1404  1.2761
  860MOL0     H18634   3.191  -0.409   8.882  0.0046 -0.7562  1.0865
  860MOL0     H18635   3.161  -0.291   9.011  0.4577  0.3778 -1.3435
  860MOL0     H18636   2.905  -0.350   8.966 -0.4782 -1.8023  1.0830
  860MOL0     H18637   2.970  -0.486   8.881  0.2871 -1.3359 -0.4449
  860MOL0     H18638   3.168  -0.633   8.931  0.7433 -4.6567 -0.5461
  860MOL0     H18639   3.315  -0.927   8.986  1.6116  0.6483 -0.1375
  860MOL0     H18640   3.431  -0.790   9.010  0.2879  0.4872 -1.6225
  860MOL0     H18641   3.301  -0.794   8.886  3.6597  3.1274 -0.9894
  860MOL0     H18642   3.466  -0.901   9.616 -1.5786 -2.4283  1.5193
  860MOL0     H18643   3.583  -1.094   9.700 -1.3188 -3.5730 -0.7823
  860MOL0     H18644   3.897  -1.283   9.414 -0.7971  3.7545 -0.9852
  860MOL0     H18645   3.932  -1.146   9.519 -1.9271  0.9601 -0.3272
  860MOL0     H18646   3.898  -1.414   9.665 -0.8475  1.2101  0.4455
  860MOL0     H18647   4.042  -1.387   9.559  2.6189  3.8062  2.0229
  860MOL0     H18648   3.961  -1.206   9.786  2.2102  0.6500  2.5659
  860MOL0     H18649   4.096  -1.175   9.675 -0.7430  0.7995 -0.0166
  860MOL0     H18650   4.207  -1.392   9.761  1.2349  0.2095  1.2035
  860MOL0     H18651   4.047  -1.440   9.830 -1.4410  0.2893 -3.6628
  860MOL0     H18652   4.088  -1.319  10.016  0.8926 -1.6405  0.6817
  860MOL0     H18653   4.241  -1.381   9.982 -1.2767  2.4463  7.2761
  860MOL0     H18654   4.268  -1.153   9.849 -2.3837  1.9539 -0.2711
  860MOL0     H18655   4.298  -1.175  10.024 -0.1203  2.2602  0.8087
  860MOL0     H18656   4.106  -1.074  10.084 -1.8908 -0.3226 -0.2176
  860MOL0     H18657   4.025  -1.078   9.933 -1.3208 -1.4034  2.6360
  860MOL0     H18658   4.275  -0.911  10.014  1.7009 -0.7934 -3.0755
  860MOL0     H18659   4.113  -0.841  10.003  2.3128  2.5533  0.2995
  860MOL0     H18660   3.793  -1.113   9.321 -1.6463 -0.3671 -3.9412
  860MOL0     H18661   3.625  -0.959   9.227 -2.0033 -3.2905 -0.0798
  860MOL0     H18662   3.213  -0.682   9.428 -2.7415  3.3530  1.0932
  860MOL0     H18663   3.053  -0.534   9.340 -0.0410 -2.6798  1.9469
  860MOL0     H18664   4.247   0.154   9.006 -0.8841 -0.3238 -1.8955
  860MOL0     H18665   4.355   0.276   9.205 -2.7742 -1.4477  2.0848
  860MOL0     H18666   4.263   0.347   9.546 -2.8282  1.7780  2.9834
  860MOL0     H18667   4.321   0.321   9.763 -1.1455  0.9034  0.2869
  860MOL0     H18668   4.714   0.468   9.851 -0.0720 -0.2411 -0.8396
  860MOL0     H18669   4.674   0.481  10.027  0.8619 -1.8989 -0.0916
  860MOL0     H18670   4.578   0.250  10.028  1.6256  4.5453  3.8442
  860MOL0     H18671   4.743   0.269  10.010  1.2121 -2.4325 -1.2128
  860MOL0     H18672   4.655   0.103   9.849  0.0221 -0.3219  1.9077
  860MOL0     H18673   4.601   0.224   9.737  0.9945 -0.6397  0.3348
  860MOL0     H18674   4.861   0.129   9.788 -0.2532 -0.5257  1.5146
  860MOL0     H18675   4.859   0.307   9.830 -0.2847  1.6925 -1.5439
  860MOL0     H18676   4.864   0.331   9.418  1.9659 -3.1927 -0.5150
  860MOL0     H18677   4.596   0.655   9.723  1.7071 -1.5448  0.4936
  860MOL0     H18678   4.653   0.654   9.437  0.2103 -0.1753 -0.6023
  860MOL0     H18679   4.505   0.731   9.389 -1.1376 -2.9973 -0.1903
  860MOL0     H18680   4.580   0.786   9.543 -2.4984  0.3050  0.3809
  861MOL0     O18681   2.112   1.189  10.713  0.1478 -0.4305 -0.3658
  861MOL0     C18682   2.180   1.231  10.623  0.0344  0.0282 -0.1791
  861MOL0     O18683   2.130   1.260  10.506 -0.0237  0.0362  0.3132
  861MOL0     C18684   2.001   1.318  10.503 -0.1693  0.6136  0.0521
  861MOL0     C18685   1.895   1.246  10.441 -0.7002 -0.5632 -0.1274
  861MOL0     C18686   1.763   1.292  10.446  0.0138  0.3077 -0.1478
  861MOL0     C18687   1.735   1.417  10.498  0.2586  0.9453 -0.2591
  861MOL0     O18688   1.596   1.451  10.501  0.0332 -0.2467 -0.4166
  861MOL0     C18689   1.563   1.594  10.478  1.1188  0.3411 -0.1601
  861MOL0     C18690   1.406   1.599  10.473 -0.1759 -0.7641 -0.8789
  861MOL0     C18691   1.330   1.516  10.578  0.3393 -0.0260  0.2608
  861MOL0     C18692   1.185   1.500  10.555 -0.1573 -0.0103  0.2553
  861MOL0     C18693   1.103   1.621  10.589  0.4048 -0.1071  0.5152
  861MOL0     C18694   0.955   1.598  10.555 -0.0690 -0.8685 -0.5148
  861MOL0     C18695   0.879   1.495  10.628  0.1716 -0.6627  0.8630
  861MOL0     C18696   0.726   1.524  10.638  0.5034  0.1658 -0.1382
  861MOL0     N18697   0.641   1.509  10.513 -0.1979  0.8002  0.4636
  861MOL0     C18698   0.523   1.442  10.496 -1.0360  0.2232 -1.5667
  861MOL0     C18699   0.483   1.466  10.375  0.9759  0.3968  0.5858
  861MOL0     C18700   0.356   1.413  10.303  0.4412 -0.7020 -0.0616
  861MOL0     C18701   0.315   1.511  10.195 -0.0470 -0.7693  0.8862
  861MOL0     C18702   0.390   1.465  10.066  0.9786  0.6565  0.2172
  861MOL0     C18703   0.363   1.569   9.947 -0.1957  0.1637 -0.3793
  861MOL0     O18704   0.485   1.621   9.886  0.2912 -0.0163  0.2560
  861MOL0     C18705   0.481   1.720   9.789 -0.0802  0.8796 -0.4568
  861MOL0     C18706   0.367   1.791   9.755  0.1252  0.0803  0.0211
  861MOL0     C18707   0.367   1.887   9.649  0.8413  0.4713 -0.4303
  861MOL0     C18708   0.235   1.956   9.627 -0.5975 -0.3917 -0.3442
  861MOL0     C18709   0.486   1.906   9.576  0.8236  0.1791  0.3116
  861MOL0     C18710   0.498   1.992   9.462 -0.5568  0.2017 -0.3231
  861MOL0     O18711   0.632   2.028   9.425  0.0685 -0.4812  0.6119
  861MOL0     C18712   0.639   2.139   9.353 -0.3253  0.4415 -0.3410
  861MOL0     C18713   0.664   2.259   9.416 -0.1163 -0.0851 -0.3379
  861MOL0     C18714   0.670   2.377   9.335 -0.3598 -0.3734 -0.3870
  861MOL0     C18715   0.644   2.373   9.205 -0.1049  0.5052 -0.1856
  861MOL0     O18716   0.625   2.491   9.134 -0.5917 -0.0174  0.1744
  861MOL0     C18717   0.605   2.625   9.200 -0.7715  0.1536 -0.3042
  861MOL0     C18718   0.727   2.707   9.235 -0.1118 -0.5160 -0.2256
  861MOL0     C18719   0.684   2.815   9.328  0.5500  0.5338 -1.3174
  861MOL0     C18720   0.777   2.882   9.406 -0.3444 -0.0710  0.2393
  861MOL0     C18721   0.744   3.020   9.462  0.0173  0.1834  0.6882
  861MOL0     C18722   0.614   3.018   9.557 -1.2136 -0.0881  0.2197
  861MOL0     C18723   0.567   3.160   9.602 -0.0503  1.1669  0.6073
  861MOL0     C18724   0.440   3.166   9.682  0.3980  0.2750  0.6846
  861MOL0    Cl18725   0.307   3.105   9.577 -0.0035 -0.2067 -0.2913
  861MOL0     C18726   0.621   2.255   9.140 -0.0664  0.1400  0.5478
  861MOL0     C18727   0.631   2.137   9.214 -0.2162 -0.6208 -0.4543
  861MOL0     O18728   0.394   2.031   9.398 -0.2142  0.2592 -0.2786
  861MOL0     C18729   0.598   1.839   9.620 -0.4125 -0.7439  0.9786
  861MOL0     C18730   0.598   1.752   9.721 -0.8160 -0.2241 -0.2976
  861MOL0     N18731   0.599   1.522  10.313  0.8593 -0.1005 -0.2208
  861MOL0     N18732   0.695   1.543  10.397  0.7382  0.6451 -0.4698
  861MOL0     C18733   1.848   1.497  10.542 -0.2877  0.2970  0.4166
  861MOL0     C18734   1.978   1.443  10.553  0.0201  0.1442 -0.2401
  861MOL0     C18735   2.327   1.209  10.638  0.0151  0.4419  0.7321
  861MOL0     C18736   2.411   1.214  10.524  0.2851  0.5034  0.1136
  861MOL0     C18737   2.552   1.191  10.536  1.4122 -0.8946  0.4728
  861MOL0     C18738   2.615   1.148  10.659  0.0512 -0.4514  0.1950
  861MOL0     O18739   2.742   1.105  10.683 -0.1322  0.9667  0.4706
  861MOL0     C18740   2.835   1.132  10.585  0.1963  0.8349  0.0656
  861MOL0     C18741   2.964   1.055  10.613 -0.4712 -0.3862 -0.1451
  861MOL0     C18742   3.043   1.127  10.725  1.1677  0.5044 -0.6486
  861MOL0     C18743   3.167   1.046  10.764  0.5545 -0.4436  0.6601
  861MOL0     C18744   3.252   1.108  10.868  0.9456  0.4737  0.4065
  861MOL0     C18745   3.322   1.148  10.961  0.3047 -0.5907 -1.2438
  861MOL0     C18746   2.525   1.138  10.766 -0.2320  0.7738  0.0465
  861MOL0     C18747   2.388   1.172  10.762 -0.9566 -0.2166  0.0792
  861MOL0     C18748   2.322   1.157  10.891 -0.3490  0.3933 -0.2370
  861MOL0     H18749   1.912   1.142  10.416 -1.5256 -0.4145 -1.3833
  861MOL0     H18750   1.684   1.229  10.407 -1.5719  1.4441  1.1125
  861MOL0     H18751   1.607   1.643  10.390 -0.0521  2.0347  0.1357
  861MOL0     H18752   1.605   1.656  10.558 -1.7376  3.3545 -0.7772
  861MOL0     H18753   1.388   1.705  10.493  1.9519 -0.9066  2.4829
  861MOL0     H18754   1.376   1.572  10.371 -1.0463  2.2721 -1.5287
  861MOL0     H18755   1.374   1.417  10.590  1.2372  0.5675  2.3008
  861MOL0     H18756   1.356   1.563  10.674  0.6925  1.2324 -0.4285
  861MOL0     H18757   1.175   1.468  10.451 -0.9867  0.0500  0.3078
  861MOL0     H18758   1.156   1.418  10.621 -2.2232  0.3978 -0.0787
  861MOL0     H18759   1.135   1.708  10.531 -1.4024 -0.3496 -0.9672
  861MOL0     H18760   1.111   1.656  10.692 -3.6396  0.8296  0.6877
  861MOL0     H18761   0.908   1.696  10.568  3.0129  0.4327  2.1151
  861MOL0     H18762   0.938   1.589  10.448 -0.3656  2.6314 -0.8758
  861MOL0     H18763   0.918   1.487  10.730  2.0164 -0.7224  0.1981
  861MOL0     H18764   0.905   1.404  10.572  3.1557 -0.3849  1.6047
  861MOL0     H18765   0.695   1.454  10.716  4.3940 -0.5617  0.9966
  861MOL0     H18766   0.704   1.626  10.668 -1.4370 -0.1965 -0.2526
  861MOL0     H18767   0.463   1.398  10.575 -0.5100 -1.4398 -2.0460
  861MOL0     H18768   0.281   1.403  10.382 -1.0369 -3.1963 -1.6279
  861MOL0     H18769   0.379   1.314  10.262  0.5084 -0.9184  0.4895
  861MOL0     H18770   0.211   1.519  10.163  0.4231 -0.5283 -0.6787
  861MOL0     H18771   0.355   1.609  10.219 -1.5990  0.0873  0.1588
  861MOL0     H18772   0.495   1.469  10.095  0.1659  2.4265  3.3736
  861MOL0     H18773   0.365   1.363  10.033  2.8726  0.8229 -1.9416
  861MOL0     H18774   0.299   1.523   9.872 -2.0116  1.4270  0.3054
  861MOL0     H18775   0.302   1.644   9.998 -0.5591 -0.7852  0.6203
  861MOL0     H18776   0.280   1.764   9.814  0.1507  2.2280  1.1350
  861MOL0     H18777   0.238   2.064   9.611  0.0089 -0.4992 -1.0166
  861MOL0     H18778   0.157   1.941   9.702 -2.7028  1.3792 -2.0725
  861MOL0     H18779   0.186   1.914   9.539 -0.9037 -2.5277  0.7589
  861MOL0     H18780   0.684   2.261   9.523  0.6280 -1.2856 -0.4390
  861MOL0     H18781   0.698   2.468   9.387  3.4652 -3.0473  2.7924
  861MOL0     H18782   0.546   2.694   9.139 -1.5102 -0.2964 -0.1154
  861MOL0     H18783   0.547   2.600   9.290  2.1925 -2.7417  0.9968
  861MOL0     H18784   0.805   2.652   9.288  1.0109  0.5190 -0.7424
  861MOL0     H18785   0.779   2.750   9.149 -1.1159  0.0369 -0.5657
  861MOL0     H18786   0.610   2.765   9.392  0.6353 -0.9275 -2.2979
  861MOL0     H18787   0.624   2.886   9.271 -2.5861 -0.7026  0.1965
  861MOL0     H18788   0.866   2.906   9.346 -0.4699 -0.7131 -0.2119
  861MOL0     H18789   0.800   2.820   9.493 -0.2393 -0.7580 -0.2704
  861MOL0     H18790   0.832   3.062   9.512  1.2006 -1.0658 -0.2614
  861MOL0     H18791   0.725   3.085   9.376 -2.0658 -1.0591  0.1484
  861MOL0     H18792   0.626   2.955   9.645  0.7966  0.7673  0.6050
  861MOL0     H18793   0.524   2.977   9.509 -3.3789  2.4426  1.8321
  861MOL0     H18794   0.562   3.214   9.507  0.7287  0.2190  0.0120
  861MOL0     H18795   0.642   3.202   9.670  2.8552 -1.1373 -0.9739
  861MOL0     H18796   0.424   3.268   9.717  2.5325  0.9542 -0.1886
  861MOL0     H18797   0.441   3.107   9.774 -1.9638 -2.2617 -0.7625
  861MOL0     H18798   0.607   2.239   9.034  1.9172 -0.2375  0.3015
  861MOL0     H18799   0.595   2.043   9.175 -4.1251 -0.7735  2.7786
  861MOL0     H18800   0.693   1.851   9.567  1.9739  0.6657  5.1456
  861MOL0     H18801   0.683   1.691   9.748 -0.8376  0.0617  0.4393
  861MOL0     H18802   1.836   1.603  10.559  1.7821  0.3850  1.6196
  861MOL0     H18803   2.069   1.487  10.592  0.7920 -2.7625  1.5486
  861MOL0     H18804   2.381   1.230  10.421 -2.8455 -0.0588  0.8396
  861MOL0     H18805   2.606   1.181  10.442 -0.2866 -2.6870 -0.3880
  861MOL0     H18806   2.808   1.092  10.487 -0.5155  1.0432  0.1709
  861MOL0     H18807   2.864   1.238  10.582 -0.8310  1.1659  1.0873
  861MOL0     H18808   3.022   1.040  10.521 -0.8905 -0.6047 -0.3774
  861MOL0     H18809   2.954   0.954  10.654 -0.7226 -1.2177 -2.1068
  861MOL0     H18810   3.074   1.225  10.688  1.6472 -0.0441 -1.7269
  861MOL0     H18811   2.983   1.134  10.816  1.1003 -1.3279 -0.5075
  861MOL0     H18812   3.233   1.012  10.682 -2.5363 -2.0283 -1.3640
  861MOL0     H18813   3.125   0.957  10.812  2.5948 -0.4254  2.6708
  861MOL0     H18814   3.381   1.204  11.030  1.0275 -2.7375 -0.0141
  861MOL0     H18815   2.560   1.095  10.859 -1.6489  1.4972  0.9320
  861MOL0     H18816   2.285   1.059  10.924 -4.9188  2.8256  2.9897
  861MOL0     H18817   2.400   1.171  10.967  0.9971  0.9522 -1.6736
  861MOL0     H18818   2.241   1.226  10.914 -0.4031 -0.1921  1.4908
  862MOL0     O18819   5.565   9.285   4.758 -0.2811  0.1343 -0.5423
  862MOL0     C18820   5.627   9.321   4.657 -0.0169  0.3547  0.0837
  862MOL0     O18821   5.765   9.313   4.648  0.4058 -0.2683 -0.3806
  862MOL0     C18822   5.831   9.346   4.767 -0.4278  0.1388 -0.4309
  862MOL0     C18823   5.951   9.279   4.793  0.0355 -0.1559 -0.2937
  862MOL0     C18824   6.029   9.323   4.904 -0.5869  0.3583 -0.2624
  862MOL0     C18825   5.984   9.423   4.991 -0.5381  0.1334  0.4356
  862MOL0     O18826   6.055   9.436   5.111  0.3258  0.5875 -0.0288
  862MOL0     C18827   6.035   9.558   5.188  0.0565  0.8597  0.7329
  862MOL0     C18828   6.135   9.580   5.302 -0.1764 -0.3584  0.4768
  862MOL0     C18829   6.267   9.635   5.254 -0.5891  0.6893  0.7488
  862MOL0     C18830   6.392   9.624   5.343 -0.1808 -0.1834  0.3766
  862MOL0     C18831   6.365   9.648   5.491 -0.4445 -0.2402  0.4185
  862MOL0     C18832   6.323   9.788   5.535 -0.3341  0.1813  1.1252
  862MOL0     C18833   6.429   9.897   5.496  0.3640  0.7376  0.3786
  862MOL0     C18834   6.389  10.041   5.547  1.0029 -1.1534  0.4387
  862MOL0     N18835   6.376  10.046   5.692  0.1158 -0.9255 -0.0914
  862MOL0     C18836   6.478  10.033   5.778 -1.2864 -1.0446  0.0399
  862MOL0     C18837   6.425  10.025   5.901 -0.1896  0.1639 -0.5947
  862MOL0     C18838   6.516   9.998   6.020 -0.3842 -0.4613  1.3615
  862MOL0     C18839   6.468  10.071   6.152 -0.3441 -0.4075 -0.0440
  862MOL0     C18840   6.504  10.219   6.164 -0.0993  0.1144  0.1103
  862MOL0     C18841   6.476  10.299   6.293  0.2782  1.0687  0.3978
  862MOL0     O18842   6.527  10.425   6.265 -0.0209 -0.1825  0.8352
  862MOL0     C18843   6.562  10.506   6.368  0.8866  0.2500  0.6097
  862MOL0     C18844   6.662  10.607   6.351 -0.3787  0.1821 -0.6949
  862MOL0     C18845   6.682  10.706   6.452  0.6623 -0.3793 -0.0031
  862MOL0     C18846   6.789  10.811   6.424 -0.3419  0.6823  0.7489
  862MOL0     C18847   6.602  10.706   6.569 -0.1930 -0.1834 -0.0761
  862MOL0     C18848   6.621  10.793   6.688  0.4853  0.0291 -0.1208
  862MOL0     O18849   6.549  10.761   6.793 -0.3730 -0.7900  0.2047
  862MOL0     C18850   6.586  10.791   6.923 -1.0850 -0.0250  0.6045
  862MOL0     C18851   6.491  10.789   7.019  0.3009 -0.8317 -0.9043
  862MOL0     C18852   6.518  10.780   7.158  0.1810  0.0599 -0.3291
  862MOL0     C18853   6.653  10.796   7.200 -0.1260 -0.2954 -0.0090
  862MOL0     O18854   6.679  10.793   7.330 -0.1782  0.0769  0.0957
  862MOL0     C18855   6.770  10.890   7.377 -0.9649 -0.0175 -0.6733
  862MOL0     C18856   6.737  10.917   7.527 -0.0844 -0.2308 -0.1022
  862MOL0     C18857   6.860  10.947   7.611 -0.2371 -0.4653  0.0762
  862MOL0     C18858   6.900  11.096   7.589 -0.0734  0.2378  0.2728
  862MOL0     C18859   7.009  11.137   7.684 -0.6915 -0.4124 -0.1122
  862MOL0     C18860   6.970  11.156   7.832  0.3616  0.0810 -0.9477
  862MOL0     C18861   7.097  11.120   7.915  0.3039 -0.0271 -0.5989
  862MOL0     C18862   7.084  11.162   8.061  0.0011 -0.9188 -0.6169
  862MOL0    Cl18863   7.110  11.336   8.082 -0.2178 -0.5813  0.2336
  862MOL0     C18864   6.759  10.803   7.106  0.5224 -0.2105  0.1840
  862MOL0     C18865   6.711  10.804   6.967 -0.3757  0.6709  0.4260
  862MOL0     O18866   6.703  10.887   6.688 -0.2472 -0.2390 -0.2114
  862MOL0     C18867   6.510  10.596   6.595 -0.3539  0.0011  1.0494
  862MOL0     C18868   6.493  10.500   6.494 -0.4336 -0.4745  0.2124
  862MOL0     N18869   6.283  10.044   5.894  0.1435  0.3217  0.0793
  862MOL0     N18870   6.257  10.052   5.764  0.3212  0.4224 -0.5985
  862MOL0     C18871   5.868   9.493   4.962  0.7533 -0.6219  0.1992
  862MOL0     C18872   5.789   9.447   4.856  0.3331 -0.6301  1.3528
  862MOL0     C18873   5.542   9.359   4.532 -0.5307 -0.8671 -0.5200
  862MOL0     C18874   5.603   9.367   4.406 -0.7397  0.3436  0.4110
  862MOL0     C18875   5.542   9.407   4.284 -0.6633  0.4958  0.9768
  862MOL0     C18876   5.404   9.433   4.302  0.4002 -0.1305 -0.3462
  862MOL0     O18877   5.339   9.472   4.191  0.6535  0.4566  0.1616
  862MOL0     C18878   5.284   9.374   4.109  0.2645  0.2807  0.8953
  862MOL0     C18879   5.146   9.403   4.079 -0.5897 -0.5197 -0.1520
  862MOL0     C18880   5.098   9.342   3.943 -0.9551 -0.6210 -1.1934
  862MOL0     C18881   4.966   9.407   3.906  1.1258 -0.1588 -0.0356
  862MOL0     C18882   4.907   9.379   3.767 -0.1331 -0.6541  0.8930
  862MOL0     C18883   4.899   9.357   3.649  0.4768  0.4064  0.6669
  862MOL0     C18884   5.332   9.441   4.425  0.1869 -0.3126 -0.8895
  862MOL0     C18885   5.404   9.402   4.541 -0.9442 -0.7061 -0.2472
  862MOL0     C18886   5.332   9.433   4.670 -0.0836 -0.3440  0.2202
  862MOL0     H18887   5.990   9.197   4.733  3.1712  0.3970  0.8003
  862MOL0     H18888   6.124   9.283   4.937 -0.1002  1.1220 -0.7024
  862MOL0     H18889   5.941   9.554   5.245 -0.8364  2.5068 -0.5474
  862MOL0     H18890   6.045   9.647   5.126  1.9964 -1.1557 -2.1349
  862MOL0     H18891   6.090   9.638   5.383  0.8048 -0.0356  0.8128
  862MOL0     H18892   6.152   9.475   5.329  1.2270 -0.7934 -1.8246
  862MOL0     H18893   6.281   9.569   5.168  1.1712 -0.2177  1.6568
  862MOL0     H18894   6.259   9.742   5.235  0.4838  1.0493  2.1618
  862MOL0     H18895   6.452   9.534   5.338  1.6685  1.0317 -0.2252
  862MOL0     H18896   6.467   9.697   5.310 -1.3739  0.5380 -0.8642
  862MOL0     H18897   6.464   9.630   5.534  0.4744  0.6582 -1.1877
  862MOL0     H18898   6.298   9.578   5.542 -2.3286  1.7313  0.7976
  862MOL0     H18899   6.236   9.808   5.471  0.5801  1.2864  0.1762
  862MOL0     H18900   6.293   9.780   5.640 -6.0811  0.4123 -0.1226
  862MOL0     H18901   6.447   9.894   5.388  2.4377  1.9281  0.6355
  862MOL0     H18902   6.523   9.878   5.548  0.6782  1.3337  0.0318
  862MOL0     H18903   6.455  10.122   5.516 -2.9159  2.4680  0.6111
  862MOL0     H18904   6.293  10.063   5.499  1.6248  0.1139 -0.2832
  862MOL0     H18905   6.586  10.034   5.765 -1.4253 -0.4797 -1.3133
  862MOL0     H18906   6.616  10.033   5.992  0.0278 -0.6787  2.5056
  862MOL0     H18907   6.508   9.893   6.049  0.2393 -0.7203  0.6221
  862MOL0     H18908   6.360  10.056   6.157 -1.1063  2.8883 -2.5808
  862MOL0     H18909   6.517  10.016   6.233 -1.4718 -0.9168  0.3063
  862MOL0     H18910   6.611  10.235   6.145 -0.3348  1.1156 -0.4253
  862MOL0     H18911   6.449  10.267   6.083  0.6680  0.0466 -0.4679
  862MOL0     H18912   6.371  10.316   6.316  0.8154  4.5589  0.8618
  862MOL0     H18913   6.522  10.263   6.385 -2.3553 -0.9650  1.0074
  862MOL0     H18914   6.733  10.609   6.268  0.2626  0.4316 -0.1536
  862MOL0     H18915   6.838  10.788   6.329  0.7983  1.3676  1.1463
  862MOL0     H18916   6.849  10.811   6.515 -0.9545  1.8317  1.1828
  862MOL0     H18917   6.748  10.912   6.409  1.4143  1.0247 -2.6875
  862MOL0     H18918   6.387  10.771   6.993 -0.2760 -1.6008  1.6347
  862MOL0     H18919   6.450  10.762   7.241  2.0721 -1.3484  0.9836
  862MOL0     H18920   6.864  10.833   7.379 -2.6303 -3.0499 -2.2212
  862MOL0     H18921   6.771  10.975   7.309 -2.8173  0.4074 -0.2166
  862MOL0     H18922   6.676  11.008   7.525 -0.0463 -0.2100 -0.2969
  862MOL0     H18923   6.664  10.841   7.559 -3.4116  2.7432 -0.0356
  862MOL0     H18924   6.951  10.887   7.599  3.6540  3.8128  4.1759
  862MOL0     H18925   6.848  10.935   7.719  3.0304 -1.3973  0.4588
  862MOL0     H18926   6.812  11.161   7.601 -2.6766 -2.3953 -2.7258
  862MOL0     H18927   6.929  11.120   7.486 -0.4446  4.8471  1.0159
  862MOL0     H18928   7.081  11.054   7.682  1.8885  1.6959 -0.0185
  862MOL0     H18929   7.065  11.225   7.651 -2.4555  0.3897 -1.0457
  862MOL0     H18930   6.889  11.088   7.857  0.2473  0.6498  0.2905
  862MOL0     H18931   6.947  11.260   7.858  0.2887 -0.7165  2.6997
  862MOL0     H18932   7.191  11.166   7.882  1.1071 -2.7133 -2.3960
  862MOL0     H18933   7.116  11.013   7.926  3.0359  0.3296 -1.0020
  862MOL0     H18934   7.159  11.115   8.125  0.7831  1.8575  0.6295
  862MOL0     H18935   6.983  11.131   8.091 -0.8036  1.4674 -0.6579
  862MOL0     H18936   6.863  10.809   7.136  1.0507 -1.6250 -1.2097
  862MOL0     H18937   6.798  10.791   6.903  0.3221  4.8624  0.2368
  862MOL0     H18938   6.452  10.586   6.685 -1.8036 -1.1857  0.0269
  862MOL0     H18939   6.417  10.428   6.523 -0.5241 -1.0885 -1.4175
  862MOL0     H18940   5.838   9.577   5.022  2.9514 -0.7995  1.6840
  862MOL0     H18941   5.693   9.497   4.855  0.1625 -0.8316 -1.6533
  862MOL0     H18942   5.710   9.349   4.407 -0.8255 -0.2055  0.2816
  862MOL0     H18943   5.585   9.404   4.185 -0.9889 -4.6920  0.7143
  862MOL0     H18944   5.338   9.385   4.015 -0.7737 -0.5241  0.1821
  862MOL0     H18945   5.292   9.274   4.154 -0.3391  0.0153  0.4241
  862MOL0     H18946   5.142   9.512   4.081 -3.9139 -0.5352  2.0348
  862MOL0     H18947   5.082   9.375   4.164 -1.6128  2.6373  0.2706
  862MOL0     H18948   5.171   9.360   3.864  0.0961 -1.1838 -0.3800
  862MOL0     H18949   5.070   9.237   3.956  3.4058 -1.7563  0.8857
  862MOL0     H18950   4.972   9.516   3.916  1.3801 -0.0343 -1.4316
  862MOL0     H18951   4.884   9.380   3.973 -3.0045  2.4992 -3.4952
  862MOL0     H18952   4.856   9.355   3.551  0.0922  2.1753  0.7617
  862MOL0     H18953   5.234   9.487   4.433  1.2665  2.1140 -0.6066
  862MOL0     H18954   5.391   9.503   4.731 -0.4443  0.3427 -0.2135
  862MOL0     H18955   5.232   9.473   4.653  1.4908  3.9168 -0.3126
  862MOL0     H18956   5.325   9.340   4.727  1.1942 -0.1736  0.6909
  863MOL0     O18957   4.886   2.528   5.912 -0.2819 -0.0719  0.2155
  863MOL0     C18958   4.850   2.630   5.850 -0.3666  0.7906 -0.6371
  863MOL0     O18959   4.927   2.712   5.780  0.1036 -0.3568  0.3715
  863MOL0     C18960   5.067   2.697   5.768  0.2124  0.4259  0.0310
  863MOL0     C18961   5.147   2.656   5.876  0.5172  0.4405  0.7304
  863MOL0     C18962   5.284   2.656   5.877 -0.1991  0.3478  0.3570
  863MOL0     C18963   5.350   2.689   5.755 -0.5988 -0.7062 -0.3637
  863MOL0     O18964   5.496   2.693   5.750  0.3372  0.1956  0.2855
  863MOL0     C18965   5.559   2.748   5.636  0.0499 -0.4877 -0.5124
  863MOL0     C18966   5.704   2.725   5.633  0.2911 -0.3357 -0.1423
  863MOL0     C18967   5.772   2.774   5.761  1.3641 -0.3461 -0.6637
  863MOL0     C18968   5.928   2.778   5.745  0.4483 -0.4950  0.6419
  863MOL0     C18969   5.996   2.862   5.846  0.1658 -0.0449 -1.1226
  863MOL0     C18970   5.978   2.793   5.984  0.1138 -0.4861 -0.1312
  863MOL0     C18971   6.043   2.866   6.114  0.3108  0.0481  0.7987
  863MOL0     C18972   5.984   3.007   6.138 -0.1066 -0.6762 -0.2685
  863MOL0     N18973   5.834   2.987   6.130 -0.7751  0.4903  0.2365
  863MOL0     C18974   5.757   2.899   6.204 -0.7764 -0.9213  0.3123
  863MOL0     C18975   5.629   2.935   6.165 -0.0920 -0.5065  0.1264
  863MOL0     C18976   5.503   2.872   6.196  0.4191  0.5968  0.0727
  863MOL0     C18977   5.440   2.915   6.323  0.2690 -0.2386  0.0912
  863MOL0     C18978   5.304   2.852   6.358  0.0163  0.2204 -0.3948
  863MOL0     C18979   5.218   2.860   6.233  0.1207 -0.0471  0.4938
  863MOL0     O18980   5.088   2.811   6.260 -0.2615 -0.6288 -0.4012
  863MOL0     C18981   4.976   2.851   6.193  0.6596 -0.2474  0.2187
  863MOL0     C18982   4.983   2.933   6.075  0.4891  0.7639  0.1410
  863MOL0     C18983   4.858   2.984   6.016 -0.5776  0.1077 -0.1262
  863MOL0     C18984   4.883   3.069   5.892  0.1779 -0.1935  0.2652
  863MOL0     C18985   4.735   2.945   6.078 -0.0354  1.0981  0.0258
  863MOL0     C18986   4.605   2.999   6.031  0.1577 -0.0306 -0.2204
  863MOL0     O18987   4.500   2.982   6.126 -0.5151  0.0933 -0.1823
  863MOL0     C18988   4.379   3.005   6.070  0.0610  0.1968 -0.1216
  863MOL0     C18989   4.292   2.902   6.041 -0.6350  0.4414  0.2385
  863MOL0     C18990   4.177   2.940   5.971 -0.7219  0.6427 -0.6219
  863MOL0     C18991   4.135   3.071   5.975 -0.0795  0.4778 -0.3823
  863MOL0     O18992   4.022   3.110   5.911  0.3954 -0.6077  0.2576
  863MOL0     C18993   3.926   3.011   5.859  0.2050  1.1111 -0.5646
  863MOL0     C18994   3.809   3.092   5.802  0.0968  0.2124  0.3176
  863MOL0     C18995   3.712   2.989   5.758  0.1492 -1.7302 -0.8384
  863MOL0     C18996   3.617   2.957   5.883 -0.0961 -0.4520 -0.5203
  863MOL0     C18997   3.521   3.072   5.934 -0.1676 -0.1369  0.3333
  863MOL0     C18998   3.433   3.137   5.820 -0.4308 -0.1235  0.7104
  863MOL0     C18999   3.370   3.020   5.739 -0.1401  0.1401 -0.1103
  863MOL0     C19000   3.275   3.081   5.636 -0.1309  0.1727 -0.7330
  863MOL0    Cl19001   3.156   3.185   5.713  0.2118 -0.1971 -0.0074
  863MOL0     C19002   4.214   3.174   6.017 -0.4228  0.9927 -0.4094
  863MOL0     C19003   4.337   3.135   6.069 -0.4755 -0.6749 -0.2227
  863MOL0     O19004   4.598   3.068   5.927 -0.0332  0.1850 -1.5316
  863MOL0     C19005   4.739   2.867   6.197 -0.0201  0.0514 -0.0127
  863MOL0     C19006   4.856   2.811   6.254 -0.3027 -0.9490  1.0379
  863MOL0     N19007   5.631   3.042   6.092 -0.6232  0.0669  1.1395
  863MOL0     N19008   5.753   3.073   6.063  0.0099 -0.1052  0.7595
  863MOL0     C19009   5.267   2.719   5.645  0.0236 -0.2181 -0.5194
  863MOL0     C19010   5.134   2.721   5.654  0.4020 -0.1055 -0.2064
  863MOL0     C19011   4.696   2.645   5.852 -1.2969  1.5059  0.4992
  863MOL0     C19012   4.631   2.620   5.975 -0.3883  0.2096 -0.2094
  863MOL0     C19013   4.491   2.606   5.978  1.1567  0.0979  0.2542
  863MOL0     C19014   4.411   2.621   5.867 -0.1057 -0.0960  0.0960
  863MOL0     O19015   4.274   2.609   5.870  0.0173  0.4539  0.1956
  863MOL0     C19016   4.199   2.580   5.760  1.0895 -0.7693  0.4820
  863MOL0     C19017   4.077   2.507   5.813  0.6282  0.3136  0.5945
  863MOL0     C19018   3.991   2.592   5.910 -0.7745 -0.4143  0.0308
  863MOL0     C19019   3.869   2.519   5.943  0.0591 -0.3117 -1.1025
  863MOL0     C19020   3.758   2.570   5.861  1.0993 -0.5229  0.4937
  863MOL0     C19021   3.665   2.618   5.806 -0.1258 -0.2728 -0.6268
  863MOL0     C19022   4.483   2.645   5.745  0.1330 -0.5061 -0.8703
  863MOL0     C19023   4.617   2.658   5.736  0.0059  0.1051  0.7113
  863MOL0     C19024   4.692   2.685   5.598 -0.1552  0.9899 -0.0315
  863MOL0     H19025   5.105   2.621   5.970  0.0283 -1.4553 -0.1514
  863MOL0     H19026   5.347   2.625   5.960 -0.2031  0.9563  0.5922
  863MOL0     H19027   5.536   2.855   5.644 -0.8023 -0.7991  2.7447
  863MOL0     H19028   5.512   2.712   5.544 -1.3565  1.1866 -0.5089
  863MOL0     H19029   5.721   2.618   5.617 -0.3091 -0.3054 -1.0142
  863MOL0     H19030   5.741   2.769   5.541  0.4469 -3.7916 -1.8988
  863MOL0     H19031   5.741   2.879   5.771 -1.6841 -1.2023 -0.1395
  863MOL0     H19032   5.739   2.719   5.849  2.3938  1.8173  1.1753
  863MOL0     H19033   5.963   2.675   5.739 -0.4453 -1.2341  4.9405
  863MOL0     H19034   5.947   2.822   5.646 -0.5181 -3.3339 -0.9187
  863MOL0     H19035   5.952   2.962   5.848 -1.0982 -0.5845 -1.0028
  863MOL0     H19036   6.104   2.868   5.825  0.1892  0.1102 -0.9512
  863MOL0     H19037   5.872   2.774   6.006  0.0940  2.7573  3.8331
  863MOL0     H19038   6.024   2.694   5.977 -0.4276 -1.1410  3.3646
  863MOL0     H19039   6.152   2.878   6.101  0.0487  0.4989 -1.5381
  863MOL0     H19040   6.027   2.802   6.201 -2.6453 -1.5767 -0.7896
  863MOL0     H19041   6.028   3.046   6.230  0.4707 -0.4979 -0.6173
  863MOL0     H19042   6.015   3.093   6.078  0.8114  3.0923  4.8781
  863MOL0     H19043   5.783   2.826   6.279  1.0981  1.1318  1.7684
  863MOL0     H19044   5.525   2.765   6.195  1.2241  0.6734 -3.0811
  863MOL0     H19045   5.439   2.902   6.112  0.5050 -1.1514 -0.6664
  863MOL0     H19046   5.517   2.885   6.395  0.0060 -1.9268 -0.2874
  863MOL0     H19047   5.437   3.024   6.330  2.0702 -0.2410  1.8569
  863MOL0     H19048   5.317   2.749   6.393 -1.5711  0.8030  2.1615
  863MOL0     H19049   5.257   2.906   6.441 -0.4759 -2.2125  1.0089
  863MOL0     H19050   5.210   2.964   6.199  1.6730 -0.5448 -1.5396
  863MOL0     H19051   5.264   2.804   6.151  4.4817  0.1235  2.5497
  863MOL0     H19052   5.072   2.958   6.019  0.0755 -1.5451 -1.6960
  863MOL0     H19053   4.902   2.993   5.815  2.7722  0.8943 -0.2737
  863MOL0     H19054   4.972   3.129   5.912  2.2171 -2.4619 -1.3338
  863MOL0     H19055   4.799   3.135   5.867  1.4594  1.8707  1.0955
  863MOL0     H19056   4.330   2.800   6.038  0.8241  0.9599  0.3562
  863MOL0     H19057   4.122   2.855   5.933  1.2251 -1.7262  1.4903
  863MOL0     H19058   3.975   2.948   5.784  2.4610 -0.9847  2.4194
  863MOL0     H19059   3.901   2.943   5.940 -1.5235  2.9056  0.4926
  863MOL0     H19060   3.759   3.165   5.866 -2.2994 -1.4179  0.4586
  863MOL0     H19061   3.852   3.139   5.713  1.9450 -2.4396 -0.3068
  863MOL0     H19062   3.766   2.901   5.722  0.1984 -1.7960 -0.6056
  863MOL0     H19063   3.663   3.031   5.670  2.8353  0.8180 -1.2668
  863MOL0     H19064   3.680   2.905   5.956  2.7875 -2.4235 -4.0868
  863MOL0     H19065   3.552   2.873   5.859  0.9934 -1.6215  0.5023
  863MOL0     H19066   3.457   3.028   6.011 -0.5706 -1.4989 -0.7422
  863MOL0     H19067   3.569   3.158   5.983 -2.0579  0.5983  0.9924
  863MOL0     H19068   3.490   3.210   5.761 -0.1690  1.4432  2.8057
  863MOL0     H19069   3.351   3.194   5.864 -1.8388 -0.0186 -1.8218
  863MOL0     H19070   3.310   2.958   5.808  0.0194  0.8675  0.6906
  863MOL0     H19071   3.446   2.963   5.684  0.5802 -0.4856  1.4762
  863MOL0     H19072   3.225   3.009   5.570 -3.0212  0.5986  0.8580
  863MOL0     H19073   3.338   3.142   5.571  1.7889 -1.7647 -0.8110
  863MOL0     H19074   4.173   3.273   6.003  0.0407  1.2714  0.1863
  863MOL0     H19075   4.413   3.206   6.100  1.2360 -3.1951  1.7323
  863MOL0     H19076   4.646   2.859   6.252 -0.9369  1.4618 -1.2917
  863MOL0     H19077   4.849   2.749   6.343  1.8282 -0.6066  1.4963
  863MOL0     H19078   5.313   2.735   5.548 -0.8534  1.0478 -0.7457
  863MOL0     H19079   5.074   2.753   5.569  1.1884 -0.7510 -1.0286
  863MOL0     H19080   4.688   2.623   6.068  1.4757 -0.1988 -1.2850
  863MOL0     H19081   4.446   2.585   6.075  0.1920  1.5769  0.1477
  863MOL0     H19082   4.156   2.662   5.701  0.3079 -0.8084  0.9846
  863MOL0     H19083   4.251   2.514   5.690 -1.0709  0.0661 -2.0923
  863MOL0     H19084   4.113   2.414   5.858 -0.8202  0.3247  1.8645
  863MOL0     H19085   4.020   2.483   5.723  2.9999  4.1447 -2.2430
  863MOL0     H19086   4.044   2.633   5.996  1.5367 -0.1831 -1.4186
  863MOL0     H19087   3.955   2.677   5.852 -0.2545 -1.7825 -2.4379
  863MOL0     H19088   3.844   2.521   6.050  0.4216  1.9037 -1.0107
  863MOL0     H19089   3.880   2.411   5.929  0.5645 -0.6459  1.3177
  863MOL0     H19090   3.577   2.661   5.763 -0.1945  0.9826  0.6989
  863MOL0     H19091   4.423   2.664   5.657 -1.7874 -1.2581  0.2057
  863MOL0     H19092   4.736   2.784   5.588  1.2754  0.3224 -0.6440
  863MOL0     H19093   4.779   2.619   5.586 -1.4617 -0.4622 -2.2233
  863MOL0     H19094   4.616   2.654   5.526  0.7945 -2.5067  0.2560
  864MOL0     O19095   5.668   5.713   4.763  0.2451 -0.6068 -0.0451
  864MOL0     C19096   5.558   5.757   4.796 -0.2329 -0.1002  0.1044
  864MOL0     O19097   5.528   5.797   4.921  0.0428 -0.7406 -0.3517
  864MOL0     C19098   5.612   5.802   5.027 -0.3210 -0.3432  0.0878
  864MOL0     C19099   5.744   5.837   5.012 -0.1135 -0.1395  0.7569
  864MOL0     C19100   5.825   5.842   5.129 -0.4047  1.1409  0.5688
  864MOL0     C19101   5.782   5.805   5.259 -0.5897  0.5946  0.6630
  864MOL0     O19102   5.858   5.829   5.371  0.1822 -0.2678 -0.2675
  864MOL0     C19103   5.966   5.924   5.367  0.0039 -0.0815  0.7982
  864MOL0     C19104   5.962   5.997   5.500  0.9736 -0.0357 -0.0997
  864MOL0     C19105   6.025   5.919   5.622  0.5520 -0.3437  1.1137
  864MOL0     C19106   6.165   5.967   5.658 -0.0127 -0.3542  1.3621
  864MOL0     C19107   6.236   5.875   5.765 -0.8388  0.2249 -0.4528
  864MOL0     C19108   6.306   5.755   5.711  0.3996  0.5898 -0.4233
  864MOL0     C19109   6.438   5.776   5.625  0.1795  0.1456 -0.7113
  864MOL0     C19110   6.476   5.657   5.542  0.4296 -0.7066  0.2459
  864MOL0     N19111   6.617   5.638   5.513  0.3346  0.2928  1.1131
  864MOL0     C19112   6.704   5.606   5.609 -0.5668 -0.5048 -0.4283
  864MOL0     C19113   6.823   5.571   5.543  0.1234 -0.4166 -0.2634
  864MOL0     C19114   6.959   5.559   5.601  0.4151 -0.2490  0.2991
  864MOL0     C19115   7.058   5.459   5.534 -0.3367 -0.0307 -0.3285
  864MOL0     C19116   7.195   5.442   5.602  0.8652 -0.3727 -0.1970
  864MOL0     C19117   7.280   5.349   5.522 -0.2589  0.2326  0.1045
  864MOL0     O19118   7.225   5.220   5.534 -0.1785 -0.4244 -0.0626
  864MOL0     C19119   7.283   5.111   5.481  0.6291  1.0490 -0.5585
  864MOL0     C19120   7.222   4.991   5.515  0.1467 -1.0665  0.5740
  864MOL0     C19121   7.279   4.864   5.480  0.2799 -0.2336 -0.0315
  864MOL0     C19122   7.214   4.749   5.549 -1.0417  1.0127  0.5387
  864MOL0     C19123   7.404   4.861   5.409  0.0842 -0.9670  0.5770
  864MOL0     C19124   7.469   4.747   5.354  0.2379  0.5102  0.6372
  864MOL0     O19125   7.603   4.747   5.314 -0.2319 -0.5539  0.3676
  864MOL0     C19126   7.673   4.640   5.277  0.4140  0.5252 -0.4860
  864MOL0     C19127   7.787   4.664   5.190  0.9423 -0.7378 -0.1190
  864MOL0     C19128   7.870   4.565   5.137 -0.0769 -0.5633 -0.5336
  864MOL0     C19129   7.855   4.428   5.185 -0.2308  0.5163  0.2500
  864MOL0     O19130   7.945   4.337   5.138  0.3876  0.1553  0.6137
  864MOL0     C19131   8.033   4.271   5.227  0.2825 -0.1214  0.5846
  864MOL0     C19132   8.165   4.243   5.158 -0.3070 -0.1216  0.8775
  864MOL0     C19133   8.160   4.179   5.019 -0.0943  0.4489  0.1218
  864MOL0     C19134   8.307   4.148   4.962 -0.5610  0.5790  0.7282
  864MOL0     C19135   8.298   4.058   4.846 -0.0529 -0.2145  0.3566
  864MOL0     C19136   8.418   4.051   4.753 -1.0225 -0.4443 -0.5001
  864MOL0     C19137   8.387   3.976   4.625  0.0248 -0.5503  0.4805
  864MOL0     C19138   8.383   3.829   4.638  0.2293 -0.4427  0.5691
  864MOL0    Cl19139   8.273   3.752   4.518  0.0447  0.5245 -0.3478
  864MOL0     C19140   7.759   4.407   5.287 -0.4849  0.0130 -1.7583
  864MOL0     C19141   7.666   4.510   5.324 -1.1239  0.2478  0.4031
  864MOL0     O19142   7.410   4.645   5.359  0.2743 -0.7990 -1.0322
  864MOL0     C19143   7.464   4.988   5.383 -1.0825  0.2849 -0.6249
  864MOL0     C19144   7.411   5.105   5.421  0.1954  0.5529  0.0281
  864MOL0     N19145   6.802   5.571   5.412  0.6594  0.1880 -0.0252
  864MOL0     N19146   6.671   5.604   5.390 -0.9657 -0.4602  0.6854
  864MOL0     C19147   5.647   5.770   5.270  0.0240  0.2573  1.1417
  864MOL0     C19148   5.555   5.771   5.155  0.6607  0.4581 -0.5266
  864MOL0     C19149   5.464   5.791   4.684 -0.0858 -0.4376 -0.1196
  864MOL0     C19150   5.449   5.698   4.580  0.5031 -0.2938  0.5803
  864MOL0     C19151   5.349   5.703   4.478  0.0192  0.1975  1.3200
  864MOL0     C19152   5.273   5.821   4.477  0.2700  0.4747 -0.5973
  864MOL0     O19153   5.167   5.842   4.393 -0.0366  0.4228 -0.0399
  864MOL0     C19154   5.148   5.751   4.284 -0.0418  0.3050 -1.0111
  864MOL0     C19155   5.091   5.841   4.171  0.9704 -0.1580 -0.2541
  864MOL0     C19156   4.999   5.768   4.076 -0.1775 -1.2689 -0.3879
  864MOL0     C19157   5.032   5.800   3.924  1.1213  1.2891  0.3280
  864MOL0     C19158   4.983   5.930   3.878 -0.1002  0.4712 -0.3234
  864MOL0     C19159   4.954   6.044   3.825 -0.1730  0.2569  1.1825
  864MOL0     C19160   5.289   5.928   4.569 -0.3589 -1.1045 -0.4627
  864MOL0     C19161   5.388   5.918   4.674 -0.8546  0.4309 -0.4168
  864MOL0     C19162   5.405   6.028   4.764  0.3482 -0.5355  0.3042
  864MOL0     H19163   5.797   5.865   4.921  3.6151 -1.6413  2.2707
  864MOL0     H19164   5.921   5.889   5.115 -1.3934  4.2664  3.2033
  864MOL0     H19165   5.957   5.998   5.287  2.4346 -3.2079 -2.7112
  864MOL0     H19166   6.061   5.870   5.360 -1.3005 -2.5110  0.4005
  864MOL0     H19167   6.020   6.090   5.493  3.8025 -1.5322  1.5623
  864MOL0     H19168   5.859   6.019   5.530  0.5832  2.4504 -2.7951
  864MOL0     H19169   5.963   5.928   5.711  0.8964  2.4971  1.1602
  864MOL0     H19170   6.036   5.813   5.599  0.2110  0.0111 -0.8669
  864MOL0     H19171   6.213   5.954   5.561 -3.4800  1.2067 -0.7508
  864MOL0     H19172   6.156   6.075   5.675 -1.5125 -0.4607  1.3999
  864MOL0     H19173   6.167   5.853   5.847  0.0099  2.7318  1.0631
  864MOL0     H19174   6.311   5.938   5.816  0.5135 -3.9177  3.3261
  864MOL0     H19175   6.335   5.711   5.807  5.5542 -0.5923 -2.1917
  864MOL0     H19176   6.236   5.687   5.662  0.4411  0.1960  0.0642
  864MOL0     H19177   6.518   5.816   5.688  0.1835 -2.3049  0.9861
  864MOL0     H19178   6.411   5.854   5.553 -0.4553 -0.8729 -1.6244
  864MOL0     H19179   6.437   5.571   5.597 -1.3749  0.5364  1.0177
  864MOL0     H19180   6.414   5.675   5.454 -1.4096  3.0518  2.0749
  864MOL0     H19181   6.692   5.613   5.717  1.2616  0.8676 -0.2651
  864MOL0     H19182   6.946   5.532   5.706 -0.2792  0.3486  0.3758
  864MOL0     H19183   7.004   5.658   5.588 -0.2735 -0.1464 -1.6577
  864MOL0     H19184   7.020   5.357   5.535  1.4010 -0.7204 -0.3209
  864MOL0     H19185   7.069   5.492   5.431  0.1135  2.3381  0.4119
  864MOL0     H19186   7.256   5.531   5.613  1.7906 -0.7383 -1.9995
  864MOL0     H19187   7.183   5.402   5.703  1.5078 -1.7907 -0.6531
  864MOL0     H19188   7.296   5.367   5.416  1.3169 -3.1821 -0.3727
  864MOL0     H19189   7.382   5.337   5.562 -0.1038  1.2090  0.0226
  864MOL0     H19190   7.124   4.986   5.561 -1.1434 -5.4401 -2.0750
  864MOL0     H19191   7.139   4.694   5.492  0.8455 -0.4189 -0.6829
  864MOL0     H19192   7.161   4.769   5.642 -1.0335 -2.3779  1.4117
  864MOL0     H19193   7.286   4.680   5.594 -0.4461  1.2410 -0.0363
  864MOL0     H19194   7.808   4.764   5.155 -0.2159 -1.3402 -2.8326
  864MOL0     H19195   7.924   4.591   5.047 -2.8992 -1.9637 -2.8188
  864MOL0     H19196   8.045   4.328   5.319 -2.6999 -0.5501  1.3628
  864MOL0     H19197   8.003   4.169   5.255  1.8837 -0.1729  2.2551
  864MOL0     H19198   8.216   4.338   5.141  3.3158 -1.8918  0.8649
  864MOL0     H19199   8.225   4.194   5.236 -0.9630 -0.0487  1.4353
  864MOL0     H19200   8.117   4.256   4.955  2.4297  1.5438 -0.3725
  864MOL0     H19201   8.095   4.091   5.027 -1.5060  1.3031 -1.3722
  864MOL0     H19202   8.372   4.103   5.038  0.5244  2.1287  0.7743
  864MOL0     H19203   8.351   4.244   4.931  1.3003 -0.3442  0.3348
  864MOL0     H19204   8.282   3.958   4.887  0.3877 -1.2185 -1.7768
  864MOL0     H19205   8.214   4.096   4.788 -0.2747  3.2169  2.5928
  864MOL0     H19206   8.501   4.007   4.809  1.8535  2.3245 -2.2295
  864MOL0     H19207   8.451   4.147   4.712  2.8231 -0.1279  2.7266
  864MOL0     H19208   8.457   4.009   4.548  1.1081 -0.1987  1.5745
  864MOL0     H19209   8.283   3.990   4.595  0.9084  1.6858 -1.9158
  864MOL0     H19210   8.345   3.800   4.736  0.0467  1.7504  1.1937
  864MOL0     H19211   8.484   3.790   4.624  1.2945  1.7978  1.6318
  864MOL0     H19212   7.731   4.311   5.331 -0.7251  0.4048 -1.0318
  864MOL0     H19213   7.591   4.469   5.391 -0.9836 -2.9206 -1.1586
  864MOL0     H19214   7.559   5.013   5.337  0.4757 -1.1684  1.6122
  864MOL0     H19215   7.470   5.196   5.413  1.2678  0.1129  2.2201
  864MOL0     H19216   5.606   5.738   5.365 -1.2034  0.3947  0.6787
  864MOL0     H19217   5.453   5.736   5.150  0.8382 -0.0914 -5.0762
  864MOL0     H19218   5.501   5.603   4.590 -0.2071 -1.1702 -2.8747
  864MOL0     H19219   5.332   5.617   4.414  0.3514  1.8302 -1.1326
  864MOL0     H19220   5.238   5.698   4.251  0.7078  0.6399  0.4439
  864MOL0     H19221   5.077   5.676   4.320  1.9949 -0.6573  1.3177
  864MOL0     H19222   5.176   5.896   4.129  1.3236  0.4796  1.2093
  864MOL0     H19223   5.033   5.918   4.223  0.6892  1.5919 -2.9675
  864MOL0     H19224   5.015   5.662   4.095  3.1863 -0.5410  1.8132
  864MOL0     H19225   4.893   5.791   4.087  0.0178  0.6053 -1.8189
  864MOL0     H19226   4.982   5.723   3.866 -0.7999  3.3326 -0.8793
  864MOL0     H19227   5.140   5.786   3.910  1.6928  2.6953  2.6327
  864MOL0     H19228   4.928   6.138   3.780 -0.2997 -0.1522  0.3717
  864MOL0     H19229   5.222   6.012   4.550  0.0291 -0.3197  1.3836
  864MOL0     H19230   5.509   6.060   4.774 -0.5391  2.4665  1.0968
  864MOL0     H19231   5.349   6.112   4.721 -1.9504 -1.2148  1.7888
  864MOL0     H19232   5.366   6.010   4.864 -2.3395  1.8307 -0.1888
  865MOL0     O19233   3.300  10.421   6.904 -0.6143 -0.3548  0.4705
  865MOL0     C19234   3.415  10.388   6.905 -0.4050  0.2152  0.3208
  865MOL0     O19235   3.513  10.477   6.916  0.2150  0.4705  0.0276
  865MOL0     C19236   3.493  10.614   6.909 -0.1609  0.7790  0.6809
  865MOL0     C19237   3.564  10.671   7.007 -0.2552 -0.5685 -0.6113
  865MOL0     C19238   3.583  10.808   7.010 -1.0291  0.4419 -0.1528
  865MOL0     C19239   3.510  10.894   6.916  0.5950  0.7355  0.6476
  865MOL0     O19240   3.517  11.029   6.943 -0.2935  0.9530 -0.6324
  865MOL0     C19241   3.537  11.110   6.823  0.5398 -0.3680  1.3097
  865MOL0     C19242   3.431  11.218   6.836  0.3375  0.4327  0.6988
  865MOL0     C19243   3.288  11.165   6.839  0.2130  0.1184 -0.3631
  865MOL0     C19244   3.185  11.274   6.855 -0.0345 -0.2408 -0.5012
  865MOL0     C19245   3.145  11.327   6.720 -0.3612  0.3037  0.2918
  865MOL0     C19246   3.065  11.460   6.716  0.9355 -0.6058  0.6093
  865MOL0     C19247   3.138  11.585   6.762  0.2311 -0.5740 -0.7723
  865MOL0     C19248   3.085  11.713   6.689  0.4068  0.1619 -0.0765
  865MOL0     N19249   2.933  11.714   6.681 -1.1161  0.0682 -0.2276
  865MOL0     C19250   2.852  11.693   6.792  0.3689 -1.1821 -0.7218
  865MOL0     C19251   2.727  11.698   6.736 -0.7445  0.2026  0.4636
  865MOL0     C19252   2.606  11.674   6.817  0.7794  0.2943 -0.7883
  865MOL0     C19253   2.488  11.722   6.758  0.9594 -1.2287 -0.4728
  865MOL0     C19254   2.494  11.885   6.742 -0.1687  0.4491  0.1842
  865MOL0     C19255   2.359  11.950   6.749  0.5878 -0.4830  0.5228
  865MOL0     O19256   2.374  12.094   6.728  0.5740 -0.0964 -0.4643
  865MOL0     C19257   2.266  12.161   6.677 -0.1345  0.6030  0.1587
  865MOL0     C19258   2.130  12.126   6.707 -0.4326 -0.2073  0.4650
  865MOL0     C19259   2.021  12.196   6.654  0.7380 -0.8065  0.2066
  865MOL0     C19260   1.877  12.146   6.691  0.8215  0.5432  0.6344
  865MOL0     C19261   2.047  12.313   6.578  0.7683  0.4484 -0.2388
  865MOL0     C19262   1.938  12.400   6.523 -0.1796  0.3019  0.5992
  865MOL0     O19263   1.809  12.386   6.560  0.3719  0.1423 -0.1163
  865MOL0     C19264   1.709  12.432   6.479  0.7199 -0.1910 -0.0673
  865MOL0     C19265   1.583  12.425   6.540 -0.6057 -0.4866  0.5075
  865MOL0     C19266   1.463  12.473   6.476  0.4767  0.1240  0.5193
  865MOL0     C19267   1.463  12.503   6.339  0.5899  0.2611 -0.1217
  865MOL0     O19268   1.346  12.526   6.273 -0.0984 -0.5777  0.1554
  865MOL0     C19269   1.336  12.661   6.230  0.1531  0.4156  0.0854
  865MOL0     C19270   1.225  12.665   6.113 -1.1669 -0.3775 -0.1156
  865MOL0     C19271   1.290  12.615   5.972  0.0667  0.3394 -0.3763
  865MOL0     C19272   1.172  12.583   5.866  0.4690 -0.3073  0.2986
  865MOL0     C19273   1.212  12.547   5.719  0.0673  0.4257 -0.0317
  865MOL0     C19274   1.087  12.582   5.628 -0.6416 -0.2480 -0.5004
  865MOL0     C19275   0.975  12.481   5.649  0.2476 -0.3135  0.6714
  865MOL0     C19276   0.886  12.486   5.523  0.2242 -0.2604  0.3752
  865MOL0    Cl19277   0.801  12.633   5.492  0.1791  0.2822  0.5699
  865MOL0     C19278   1.585  12.486   6.275  0.2393 -1.6697 -0.3923
  865MOL0     C19279   1.710  12.457   6.342 -0.2109 -0.3626  0.7809
  865MOL0     O19280   1.980  12.494   6.455  0.2458 -0.1850  0.0726
  865MOL0     C19281   2.188  12.346   6.555 -0.3764  0.3570  0.5267
  865MOL0     C19282   2.292  12.267   6.597  0.4602  0.1592 -0.4573
  865MOL0     N19283   2.740  11.724   6.598  0.2766  0.4139  0.4615
  865MOL0     N19284   2.858  11.723   6.565 -0.5637 -0.4439  0.8202
  865MOL0     C19285   3.438  10.829   6.807 -0.3687 -0.2250  0.0991
  865MOL0     C19286   3.433  10.691   6.802  0.4246  0.4036  0.0916
  865MOL0     C19287   3.439  10.242   6.931  0.2775  1.3047  0.7337
  865MOL0     C19288   3.569  10.212   7.000 -0.0190  0.2882 -0.0444
  865MOL0     C19289   3.598  10.080   7.031  0.2071  1.4049  1.0988
  865MOL0     C19290   3.504   9.978   7.003 -0.4207 -0.6247  0.8471
  865MOL0     O19291   3.549   9.856   7.043 -0.3367  0.4755  0.1550
  865MOL0     C19292   3.527   9.740   6.962 -0.1803 -0.5563  0.2340
  865MOL0     C19293   3.656   9.662   6.972  0.5820 -0.1558  0.1823
  865MOL0     C19294   3.755   9.713   6.864  0.8958 -0.0947  0.3178
  865MOL0     C19295   3.883   9.629   6.862  0.0578 -0.3264 -0.0461
  865MOL0     C19296   3.980   9.682   6.775  0.1066 -0.9087  0.8536
  865MOL0     C19297   4.071   9.739   6.713  0.4488  0.5083  0.1633
  865MOL0     C19298   3.384  10.006   6.934  0.2663 -0.5032 -0.9406
  865MOL0     C19299   3.353  10.131   6.894 -0.1923 -0.2550  0.3650
  865MOL0     C19300   3.230  10.157   6.808 -0.2479 -0.4389 -0.3919
  865MOL0     H19301   3.612  10.605   7.079 -1.2287  3.0753  3.8348
  865MOL0     H19302   3.633  10.826   7.105 -1.4682 -1.3359  0.4523
  865MOL0     H19303   3.520  11.061   6.727  1.0505  2.7417 -0.4892
  865MOL0     H19304   3.635  11.154   6.840  0.3231  0.8721 -0.4444
  865MOL0     H19305   3.446  11.268   6.932 -3.8056  3.2426  0.1466
  865MOL0     H19306   3.435  11.289   6.753  0.4543 -1.8541 -1.3673
  865MOL0     H19307   3.261  11.115   6.746 -3.9441 -1.3630  1.4190
  865MOL0     H19308   3.279  11.083   6.910 -1.5228 -0.2811 -1.0007
  865MOL0     H19309   3.094  11.228   6.894 -0.2024  1.7645  1.6505
  865MOL0     H19310   3.220  11.354   6.921 -0.5109 -0.4178 -0.0249
  865MOL0     H19311   3.077  11.258   6.669  2.5947 -0.2180 -3.3570
  865MOL0     H19312   3.234  11.347   6.659  1.0733  0.1233  2.2146
  865MOL0     H19313   3.045  11.474   6.610  2.1287 -1.9727  0.1575
  865MOL0     H19314   2.971  11.459   6.771  0.3108  3.9474 -0.0500
  865MOL0     H19315   3.247  11.577   6.756  0.5875  0.8388  2.0950
  865MOL0     H19316   3.121  11.601   6.869  1.7075  0.2127 -0.6270
  865MOL0     H19317   3.120  11.799   6.746 -0.2568  1.8534 -2.1157
  865MOL0     H19318   3.133  11.722   6.591  2.3016 -0.1052  0.7873
  865MOL0     H19319   2.877  11.695   6.898  0.2514 -3.1304 -0.6282
  865MOL0     H19320   2.617  11.703   6.922  1.4700  0.0246 -0.7825
  865MOL0     H19321   2.586  11.567   6.816 -0.6742  0.5237 -3.1573
  865MOL0     H19322   2.473  11.683   6.657 -0.1821  0.2723 -0.9114
  865MOL0     H19323   2.395  11.689   6.805  0.0101 -0.8985 -2.0255
  865MOL0     H19324   2.568  11.927   6.811 -1.3421  2.5791  0.2497
  865MOL0     H19325   2.532  11.904   6.641 -0.7460 -3.3362 -0.8708
  865MOL0     H19326   2.293  11.904   6.675  1.8942 -1.5101 -0.0612
  865MOL0     H19327   2.311  11.945   6.847  0.8906 -0.5814  0.6671
  865MOL0     H19328   2.102  12.035   6.760 -0.0007 -0.3925  0.3840
  865MOL0     H19329   1.815  12.120   6.605  2.6150  2.2595 -1.2835
  865MOL0     H19330   1.833  12.232   6.743 -3.0279 -0.0033 -1.3410
  865MOL0     H19331   1.888  12.059   6.756 -1.6422  0.1704  0.6524
  865MOL0     H19332   1.591  12.403   6.646  0.0917  1.8540  0.9863
  865MOL0     H19333   1.377  12.492   6.540  0.6804  1.2370  0.4949
  865MOL0     H19334   1.305  12.724   6.314  3.2409 -1.7423  3.1287
  865MOL0     H19335   1.427  12.710   6.192 -1.6682  3.5978 -0.5770
  865MOL0     H19336   1.141  12.604   6.147  0.0248 -1.2819  1.3284
  865MOL0     H19337   1.194  12.769   6.104  0.9560  0.5885  2.3819
  865MOL0     H19338   1.355  12.528   5.987 -1.5850 -1.0912 -1.0971
  865MOL0     H19339   1.360  12.696   5.949  2.4405 -1.7269 -0.8571
  865MOL0     H19340   1.107  12.671   5.870 -0.1697 -0.7534 -0.0419
  865MOL0     H19341   1.109  12.498   5.894 -1.4084 -0.4064 -3.5630
  865MOL0     H19342   1.294  12.614   5.691  1.6226 -1.8227 -1.1540
  865MOL0     H19343   1.243  12.442   5.719 -0.6547  0.1272  2.9871
  865MOL0     H19344   1.120  12.587   5.523  0.4012  1.2893 -0.1228
  865MOL0     H19345   1.045  12.681   5.646  0.5016  0.2771 -0.6278
  865MOL0     H19346   0.920  12.517   5.736  0.1095 -4.9159  2.8040
  865MOL0     H19347   1.006  12.379   5.672 -1.0978 -0.8703  0.1325
  865MOL0     H19348   0.802  12.420   5.546 -2.0587  2.4400  0.4460
  865MOL0     H19349   0.938  12.462   5.430 -2.3019  3.4622 -2.3244
  865MOL0     H19350   1.589  12.504   6.168 -1.3443  1.6845 -0.0042
  865MOL0     H19351   1.804  12.456   6.287 -0.0400  1.1728  1.0012
  865MOL0     H19352   2.213  12.440   6.507  1.2911 -1.5120 -2.5966
  865MOL0     H19353   2.395  12.300   6.591  0.1901  1.4026  1.0797
  865MOL0     H19354   3.384  10.878   6.727 -0.2793 -1.6345 -0.8598
  865MOL0     H19355   3.376  10.642   6.723 -0.9997  0.2271  1.1841
  865MOL0     H19356   3.633  10.297   7.023  2.7812 -1.7722  0.3762
  865MOL0     H19357   3.690  10.054   7.082 -0.4060 -0.8880  1.1711
  865MOL0     H19358   3.446   9.675   6.996 -3.9779  1.9015 -3.2054
  865MOL0     H19359   3.510   9.763   6.856  1.3760 -0.1818  0.0403
  865MOL0     H19360   3.628   9.561   6.942 -1.7660  0.2595  0.8201
  865MOL0     H19361   3.695   9.675   7.074 -4.7627 -0.0915  2.5506
  865MOL0     H19362   3.708   9.708   6.765 -0.4820  0.6092  0.9016
  865MOL0     H19363   3.769   9.820   6.880  1.0715 -0.2935  1.5915
  865MOL0     H19364   3.861   9.526   6.831  0.9327 -0.9127  1.1944
  865MOL0     H19365   3.914   9.631   6.967 -1.4346  2.0300  0.4313
  865MOL0     H19366   4.151   9.786   6.659  0.9079 -1.0456 -0.5594
  865MOL0     H19367   3.316   9.924   6.914  0.2277 -2.3119  4.8041
  865MOL0     H19368   3.162  10.201   6.883 -0.0212 -2.1652  0.8971
  865MOL0     H19369   3.241  10.235   6.732 -0.8069  0.5075  0.4725
  865MOL0     H19370   3.172  10.071   6.773 -2.2673  0.9276 -0.5575
  866MOL0     O19371   0.263   4.985  11.143 -0.0067  0.9387 -0.3022
  866MOL0     C19372   0.212   5.051  11.230  0.2740  0.4618 -0.2363
  866MOL0     O19373   0.153   5.000  11.344 -0.1706  0.6831  0.7528
  866MOL0     C19374   0.149   4.865  11.367  0.2209 -0.3940 -0.3697
  866MOL0     C19375   0.147   4.756  11.278  0.6208  0.3176  0.3755
  866MOL0     C19376   0.155   4.624  11.308  0.2275  0.4618  0.0827
  866MOL0     C19377   0.165   4.582  11.441  1.0234 -0.7810 -0.5937
  866MOL0     O19378   0.148   4.454  11.483 -0.8195 -0.3723 -0.4446
  866MOL0     C19379   0.158   4.349  11.383  0.8070  0.4381 -0.3058
  866MOL0     C19380   0.300   4.319  11.334 -0.9250  0.5226 -0.7032
  866MOL0     C19381   0.395   4.245  11.434 -0.6626 -0.4347 -1.3326
  866MOL0     C19382   0.361   4.094  11.447 -0.1051 -0.3598 -0.1624
  866MOL0     C19383   0.464   4.026  11.537  0.5570  0.3886  0.1072
  866MOL0     C19384   0.435   3.871  11.535  0.6018  0.2300 -0.0165
  866MOL0     C19385   0.547   3.791  11.589 -0.0906  0.6509 -0.2859
  866MOL0     C19386   0.538   3.778  11.739  0.2845 -0.5528  0.7558
  866MOL0     N19387   0.646   3.697  11.783  0.7247 -0.2277  0.5605
  866MOL0     C19388   0.780   3.726  11.755  0.2260 -0.6306  0.4704
  866MOL0     C19389   0.844   3.623  11.827 -0.2829  0.6996  0.9262
  866MOL0     C19390   0.981   3.596  11.849 -0.1632  0.2019 -0.2938
  866MOL0     C19391   1.019   3.571  11.992  0.7759  0.1798  0.1821
  866MOL0     C19392   1.171   3.593  11.982  0.0999 -0.0516 -0.2906
  866MOL0     C19393   1.229   3.543  12.110 -0.9288  0.7678  0.2796
  866MOL0     O19394   1.364   3.597  12.131  0.1222  0.4628 -0.5229
  866MOL0     C19395   1.471   3.529  12.077  0.3409  0.6143 -0.0907
  866MOL0     C19396   1.464   3.414  12.005 -0.5969  0.4696 -0.1581
  866MOL0     C19397   1.583   3.349  11.966  0.0141 -0.3375 -0.9203
  866MOL0     C19398   1.562   3.220  11.888  0.2965 -0.1343  1.0971
  866MOL0     C19399   1.708   3.409  11.994  0.4779 -0.7025  0.0178
  866MOL0     C19400   1.833   3.345  11.948 -0.6169 -0.0927  0.2069
  866MOL0     O19401   1.843   3.297  11.825  1.0150 -0.3210  0.4789
  866MOL0     C19402   1.951   3.228  11.782 -0.4499 -0.0723  0.1536
  866MOL0     C19403   1.933   3.137  11.678 -0.1944 -0.2430  0.2657
  866MOL0     C19404   2.032   3.066  11.610  0.4575  0.0919 -0.7406
  866MOL0     C19405   2.159   3.084  11.653 -0.0506 -0.0113 -0.0285
  866MOL0     O19406   2.253   3.012  11.578 -0.1520 -0.5692  0.3420
  866MOL0     C19407   2.391   3.050  11.589 -0.2428  0.1362 -0.5605
  866MOL0     C19408   2.477   2.948  11.508 -0.2771  0.5191 -0.4713
  866MOL0     C19409   2.629   2.980  11.554 -0.8211  0.8247 -0.4915
  866MOL0     C19410   2.733   2.891  11.465  0.7526 -0.7654  0.1597
  866MOL0     C19411   2.875   2.872  11.517  0.0375  0.0008  0.1719
  866MOL0     C19412   2.887   2.735  11.605 -0.1140 -0.1829  0.3218
  866MOL0     C19413   3.048   2.708  11.639 -0.0416 -0.1692 -0.4340
  866MOL0     C19414   3.071   2.591  11.734  0.4839  0.3832  0.7262
  866MOL0    Cl19415   3.103   2.645  11.908 -0.3698  0.2799 -0.0718
  866MOL0     C19416   2.184   3.171  11.752  0.0220 -0.1298 -0.4799
  866MOL0     C19417   2.082   3.241  11.822 -0.6643 -0.5409  0.4074
  866MOL0     O19418   1.927   3.369  12.022 -0.2445  0.0368  0.3020
  866MOL0     C19419   1.711   3.527  12.068  0.3575 -0.1998  0.0475
  866MOL0     C19420   1.591   3.576  12.124 -0.4972  0.7728 -0.4920
  866MOL0     N19421   0.746   3.550  11.900  0.5861  0.3108 -0.4748
  866MOL0     N19422   0.629   3.585  11.869 -0.0621 -0.3695  0.2143
  866MOL0     C19423   0.166   4.682  11.539 -0.6110 -0.2111  0.3399
  866MOL0     C19424   0.158   4.818  11.502 -0.5737 -0.1372  0.0365
  866MOL0     C19425   0.200   5.194  11.212  1.0418  0.4586 -0.4143
  866MOL0     C19426   0.124   5.269  11.303 -0.0656 -0.4377 -0.3561
  866MOL0     C19427   0.103   5.408  11.296 -0.1056  0.5688  0.3059
  866MOL0     C19428   0.165   5.477  11.186 -0.1685 -0.3039  0.7347
  866MOL0     O19429   0.139   5.608  11.139 -0.2781  0.1498  0.3481
  866MOL0     C19430   0.032   5.693  11.182  0.3252 -0.0928  0.0436
  866MOL0     C19431   0.034   5.826  11.115  0.0984  0.2284 -0.9830
  866MOL0     C19432  -0.081   5.914  11.148  0.4023  0.8842  0.0981
  866MOL0     C19433  -0.091   6.047  11.062  0.0137  0.2101 -0.0012
  866MOL0     C19434  -0.171   6.147  11.134 -0.2343  0.3984 -0.0150
  866MOL0     C19435  -0.236   6.220  11.205  0.3667 -0.0019  0.0539
  866MOL0     C19436   0.239   5.406  11.099 -0.1583  0.7653  0.1028
  866MOL0     C19437   0.260   5.269  11.103  1.1611 -0.3512 -0.2315
  866MOL0     C19438   0.354   5.212  11.006  0.8900  0.0594 -0.7224
  866MOL0     H19439   0.128   4.790  11.176  3.7729  1.2499 -0.0349
  866MOL0     H19440   0.151   4.549  11.229 -0.9580  1.7061 -1.0874
  866MOL0     H19441   0.106   4.375  11.291  0.1272  0.7937  0.1714
  866MOL0     H19442   0.097   4.265  11.416 -2.0548  2.2909 -0.4798
  866MOL0     H19443   0.291   4.253  11.247 -2.1440 -0.1177 -0.1226
  866MOL0     H19444   0.343   4.415  11.305 -0.3658 -0.0949 -1.9646
  866MOL0     H19445   0.492   4.262  11.387 -2.0492 -0.0696 -4.3095
  866MOL0     H19446   0.380   4.301  11.527  0.5564  3.7976 -3.4182
  866MOL0     H19447   0.258   4.079  11.481 -0.7042  0.2054 -1.6456
  866MOL0     H19448   0.375   4.047  11.349  1.6054  0.3786 -0.3049
  866MOL0     H19449   0.454   4.067  11.638  1.7676 -0.0620  0.4294
  866MOL0     H19450   0.568   4.051  11.514  0.5497  0.6235  0.3203
  866MOL0     H19451   0.345   3.842  11.590  0.3428 -2.8326 -1.7831
  866MOL0     H19452   0.422   3.848  11.429  1.8687  1.4591 -0.4743
  866MOL0     H19453   0.645   3.835  11.566  1.5956 -1.5470  2.1292
  866MOL0     H19454   0.558   3.688  11.552  0.8456 -0.4056  2.6341
  866MOL0     H19455   0.541   3.877  11.785 -2.0115 -0.9759  1.9575
  866MOL0     H19456   0.445   3.724  11.760 -0.2257  0.8712  2.4091
  866MOL0     H19457   0.827   3.811  11.707 -1.3541 -0.4442 -0.8333
  866MOL0     H19458   1.040   3.680  11.813  0.4702 -0.9338 -2.0357
  866MOL0     H19459   1.011   3.499  11.807  0.5454 -0.0285  0.7148
  866MOL0     H19460   0.964   3.636  12.060  3.9599  3.5775 -0.1324
  866MOL0     H19461   0.996   3.470  12.025 -0.8908  0.7807  0.9764
  866MOL0     H19462   1.219   3.541  11.898  1.4775 -1.6901  1.3969
  866MOL0     H19463   1.196   3.697  11.962 -0.3724 -0.1436 -1.4182
  866MOL0     H19464   1.160   3.586  12.182 -0.5023  1.3610  0.3356
  866MOL0     H19465   1.240   3.435  12.126 -0.6845  1.1087  2.7363
  866MOL0     H19466   1.371   3.370  11.971 -1.7255  2.2408  0.5289
  866MOL0     H19467   1.658   3.167  11.886  0.6978  0.3833  3.4623
  866MOL0     H19468   1.536   3.241  11.784 -0.4699 -5.2492 -0.0191
  866MOL0     H19469   1.492   3.145  11.927 -2.9499  1.5273 -1.1360
  866MOL0     H19470   1.832   3.102  11.656 -0.4528  1.2561 -1.0765
  866MOL0     H19471   2.006   2.999  11.528  4.1480 -0.9964 -1.2130
  866MOL0     H19472   2.410   3.149  11.546  0.7769 -0.5709 -1.8006
  866MOL0     H19473   2.431   3.053  11.691 -0.5183 -1.5649 -0.3698
  866MOL0     H19474   2.465   2.840  11.519 -0.8954  0.1536 -3.6540
  866MOL0     H19475   2.467   2.965  11.400 -1.8205 -3.0748 -1.0383
  866MOL0     H19476   2.635   2.946  11.658 -1.5381  1.7820 -0.1212
  866MOL0     H19477   2.661   3.084  11.560  3.7692 -0.3320  6.2338
  866MOL0     H19478   2.725   2.934  11.365 -1.3030  2.3334  1.5172
  866MOL0     H19479   2.688   2.794  11.443 -4.3480  1.3981 -0.1873
  866MOL0     H19480   2.946   2.878  11.434 -2.6026  0.8689 -2.1806
  866MOL0     H19481   2.907   2.956  11.581  0.8163 -1.0207  1.1720
  866MOL0     H19482   2.847   2.652  11.546 -0.9110  0.6172 -0.3037
  866MOL0     H19483   2.841   2.740  11.704  0.7365 -0.1605  0.7255
  866MOL0     H19484   3.079   2.794  11.699 -1.1402 -0.8502  1.1697
  866MOL0     H19485   3.103   2.691  11.546  0.5094  1.7910 -0.5138
  866MOL0     H19486   3.153   2.528  11.699 -2.0152 -1.0227 -3.3653
  866MOL0     H19487   2.985   2.524  11.744 -0.8998  1.7672 -1.0640
  866MOL0     H19488   2.283   3.177  11.796 -0.9957 -1.2694  2.1706
  866MOL0     H19489   2.123   3.305  11.900  1.5979 -0.7056 -0.5537
  866MOL0     H19490   1.801   3.585  12.085  1.6602 -2.0663 -0.1775
  866MOL0     H19491   1.601   3.653  12.200  1.8283 -1.9538  2.2623
  866MOL0     H19492   0.162   4.662  11.645 -0.0343 -0.0942  0.3848
  866MOL0     H19493   0.130   4.894  11.574  1.8456 -0.3886  1.3488
  866MOL0     H19494   0.065   5.217  11.379 -4.1080  0.9299 -2.2732
  866MOL0     H19495   0.045   5.466  11.367  1.6701  1.4084  1.1467
  866MOL0     H19496  -0.063   5.642  11.166  0.4256 -0.3821  0.3619
  866MOL0     H19497   0.057   5.702  11.288  1.7797 -2.3855 -0.0206
  866MOL0     H19498   0.029   5.823  11.006 -0.2662  2.6060 -1.0812
  866MOL0     H19499   0.118   5.885  11.152 -0.8332  1.1953 -0.3433
  866MOL0     H19500  -0.170   5.857  11.121  3.8165 -3.1480 -4.2340
  866MOL0     H19501  -0.091   5.935  11.255 -4.3334 -0.8192  0.2271
  866MOL0     H19502  -0.140   6.022  10.967 -0.5928 -2.5778  0.9307
  866MOL0     H19503   0.008   6.093  11.054 -0.8288  2.1045 -0.0145
  866MOL0     H19504  -0.303   6.282  11.262 -0.7265  0.6728 -1.8679
  866MOL0     H19505   0.289   5.465  11.022  1.2004  0.1140  0.4524
  866MOL0     H19506   0.302   5.132  10.954 -1.1880 -0.4848  1.9614
  866MOL0     H19507   0.390   5.280  10.929  1.5704 -2.8089 -3.0844
  866MOL0     H19508   0.440   5.167  11.056  2.2458  3.6362  0.5165
  867MOL0     O19509   4.831   1.065   7.504 -0.3745  0.7971 -0.9252
  867MOL0     C19510   4.775   1.012   7.411  0.6552 -0.1854 -0.2652
  867MOL0     O19511   4.774   1.069   7.289  0.1429 -0.4023  1.1366
  867MOL0     C19512   4.866   1.158   7.241  0.3004  0.0261  0.0587
  867MOL0     C19513   4.903   1.274   7.315 -0.2587 -0.1077  0.3383
  867MOL0     C19514   4.994   1.371   7.244 -0.1006 -1.3210 -0.4119
  867MOL0     C19515   5.050   1.338   7.122  0.1998 -0.6141  0.1377
  867MOL0     O19516   5.145   1.409   7.053 -0.5792  0.4962 -0.0939
  867MOL0     C19517   5.176   1.541   7.109  0.7389  0.0313 -0.2883
  867MOL0     C19518   5.303   1.585   7.044  0.4140  0.5825  0.6181
  867MOL0     C19519   5.352   1.730   7.079  0.2918 -0.4046 -0.0671
  867MOL0     C19520   5.467   1.716   7.178  1.0112  0.3736 -0.3673
  867MOL0     C19521   5.514   1.855   7.223  0.2424 -0.6630 -0.4274
  867MOL0     C19522   5.582   1.849   7.360 -0.2197 -0.5362  0.3065
  867MOL0     C19523   5.709   1.940   7.373  0.4413 -0.7067  0.0101
  867MOL0     C19524   5.835   1.873   7.337 -0.5378 -0.2944 -0.6379
  867MOL0     N19525   5.954   1.949   7.309 -0.2741 -0.1379 -1.0777
  867MOL0     C19526   6.044   1.968   7.414 -0.2817  0.5070  1.1130
  867MOL0     C19527   6.139   2.057   7.369  0.9590  0.4944 -0.0104
  867MOL0     C19528   6.262   2.107   7.435 -0.7458  0.9715  0.6925
  867MOL0     C19529   6.378   2.038   7.356  0.1414 -0.1507  0.2133
  867MOL0     C19530   6.508   2.030   7.448 -0.4815 -0.3479  0.0676
  867MOL0     C19531   6.637   2.005   7.369  0.4879 -0.4285  0.0566
  867MOL0     O19532   6.643   2.101   7.259  0.6084 -0.2738  0.3341
  867MOL0     C19533   6.734   2.075   7.150  0.3357  1.2745  0.7040
  867MOL0     C19534   6.694   2.113   7.025 -0.2092  0.1851  0.6060
  867MOL0     C19535   6.766   2.096   6.908  0.2910 -0.4592  0.8908
  867MOL0     C19536   6.714   2.158   6.770  0.6820  0.3334  0.0677
  867MOL0     C19537   6.890   2.021   6.911  0.3286 -1.0543  0.3008
  867MOL0     C19538   6.988   2.000   6.799  0.4724 -0.4533  0.3860
  867MOL0     O19539   7.064   1.891   6.798 -0.4643  0.0946 -0.2739
  867MOL0     C19540   7.123   1.867   6.680 -0.2035 -0.6342  0.4070
  867MOL0     C19541   7.236   1.949   6.659  0.1664 -0.2086  0.0968
  867MOL0     C19542   7.307   1.938   6.538  0.2259  0.5018  0.7934
  867MOL0     C19543   7.273   1.826   6.458 -0.3089  0.0137 -0.0541
  867MOL0     O19544   7.340   1.809   6.333  0.9634 -0.6789  0.4609
  867MOL0     C19545   7.282   1.870   6.221  0.1766  0.1531 -0.9522
  867MOL0     C19546   7.366   1.861   6.095 -0.7359  0.2177  0.9662
  867MOL0     C19547   7.409   1.705   6.067 -0.4585 -0.5211 -1.0897
  867MOL0     C19548   7.468   1.706   5.926  0.4460  1.4070 -0.3455
  867MOL0     C19549   7.536   1.566   5.893  0.2728 -0.5112 -1.1977
  867MOL0     C19550   7.598   1.566   5.758  0.6252  0.1167  0.8673
  867MOL0     C19551   7.700   1.452   5.740  0.8864  0.2131 -0.8487
  867MOL0     C19552   7.793   1.478   5.619 -0.2078  0.1468 -1.0675
  867MOL0    Cl19553   7.711   1.440   5.463  0.6391 -0.2151  0.0605
  867MOL0     C19554   7.158   1.746   6.481 -0.1606  0.1815 -0.0040
  867MOL0     C19555   7.081   1.771   6.591 -0.2699  0.8064 -0.4844
  867MOL0     O19556   6.964   2.078   6.700  0.1533  0.7098  0.1077
  867MOL0     C19557   6.927   1.980   7.042  0.0866 -0.0113  0.4739
  867MOL0     C19558   6.851   2.003   7.158 -0.7698 -0.3898  0.2355
  867MOL0     N19559   6.102   2.078   7.230  0.0532 -0.4598  0.4546
  867MOL0     N19560   5.994   2.010   7.196 -0.5042  0.3368  0.9743
  867MOL0     C19561   5.008   1.226   7.055  0.4992  0.0465 -0.3019
  867MOL0     C19562   4.911   1.146   7.111  0.0672  0.3212 -0.4392
  867MOL0     C19563   4.667   0.911   7.429  0.5424 -0.7217 -0.3720
  867MOL0     C19564   4.585   0.932   7.549 -0.8804 -0.7093  0.5976
  867MOL0     C19565   4.462   0.865   7.568 -0.7043 -0.0635  0.5153
  867MOL0     C19566   4.423   0.765   7.483 -0.1330  0.3125  0.5857
  867MOL0     O19567   4.312   0.687   7.519  0.1837  0.5950 -0.7101
  867MOL0     C19568   4.265   0.590   7.425 -0.7951  0.6912 -0.8236
  867MOL0     C19569   4.142   0.519   7.495 -0.1347 -0.2871  0.4776
  867MOL0     C19570   4.193   0.412   7.594  0.0266  0.5158  0.2625
  867MOL0     C19571   4.078   0.393   7.692 -0.6804 -0.6067 -0.1008
  867MOL0     C19572   4.133   0.312   7.801 -0.5413  0.2087  0.5165
  867MOL0     C19573   4.185   0.269   7.904  0.2248 -0.6576  0.8255
  867MOL0     C19574   4.511   0.747   7.363  0.0542 -0.0614 -0.3488
  867MOL0     C19575   4.631   0.814   7.337  0.3729  0.1037  0.2009
  867MOL0     C19576   4.716   0.777   7.222 -0.8648  0.2889  0.5630
  867MOL0     H19577   4.866   1.310   7.411 -1.8870 -2.8445  0.8666
  867MOL0     H19578   5.018   1.465   7.292  0.8405 -1.1668 -1.1407
  867MOL0     H19579   5.190   1.548   7.218 -1.7077 -2.1672  0.2518
  867MOL0     H19580   5.099   1.614   7.084  0.2573 -0.5442 -0.4898
  867MOL0     H19581   5.380   1.511   7.069 -0.4746 -0.6165 -0.0889
  867MOL0     H19582   5.276   1.586   6.938  1.0555  0.7363  0.4505
  867MOL0     H19583   5.391   1.766   6.984  0.6555 -0.1962  0.1604
  867MOL0     H19584   5.260   1.785   7.101 -1.0181 -2.9517  1.2689
  867MOL0     H19585   5.418   1.669   7.264  0.4258  0.2205 -0.7723
  867MOL0     H19586   5.550   1.649   7.154  0.8250 -0.2975  0.7957
  867MOL0     H19587   5.439   1.935   7.225  1.9901  1.0557 -0.7125
  867MOL0     H19588   5.586   1.888   7.147  0.1118 -1.4931 -0.9282
  867MOL0     H19589   5.504   1.890   7.426 -3.0579 -1.9702 -1.9443
  867MOL0     H19590   5.612   1.752   7.400  0.4317  0.3427  2.1020
  867MOL0     H19591   5.728   1.976   7.475  2.3271 -2.9312  0.5406
  867MOL0     H19592   5.687   2.024   7.307  0.8712 -0.9203 -0.4150
  867MOL0     H19593   5.851   1.799   7.415  1.3234 -0.3492 -1.0136
  867MOL0     H19594   5.815   1.811   7.249 -0.0072 -0.6856 -0.4930
  867MOL0     H19595   6.044   1.919   7.511 -0.1475  0.6589  1.1894
  867MOL0     H19596   6.259   2.066   7.537 -0.0374  0.4973  0.5338
  867MOL0     H19597   6.259   2.216   7.433  2.1524  1.2007  2.5436
  867MOL0     H19598   6.349   1.938   7.322 -1.8134  0.6135 -0.5506
  867MOL0     H19599   6.397   2.100   7.267 -3.2215  0.7358 -0.0605
  867MOL0     H19600   6.523   2.128   7.495 -1.0641 -0.1051 -0.2371
  867MOL0     H19601   6.494   1.947   7.517 -0.1019  0.0684  0.6527
  867MOL0     H19602   6.731   2.013   7.425  0.5875  3.0431 -0.3860
  867MOL0     H19603   6.622   1.903   7.335 -0.0328 -2.0893  4.5338
  867MOL0     H19604   6.599   2.164   7.029 -0.2132  0.2792 -0.4760
  867MOL0     H19605   6.613   2.193   6.794  0.9022  1.6265 -0.7655
  867MOL0     H19606   6.721   2.093   6.682  3.2193  0.3391  0.1828
  867MOL0     H19607   6.772   2.247   6.743  0.5911  0.6961  1.0385
  867MOL0     H19608   7.280   2.019   6.729  1.0866 -0.5030 -0.1696
  867MOL0     H19609   7.391   2.002   6.513 -0.9072  1.2232 -1.4207
  867MOL0     H19610   7.182   1.835   6.195  0.6984 -2.0509 -0.2525
  867MOL0     H19611   7.271   1.973   6.256  1.5633  0.1450 -0.4344
  867MOL0     H19612   7.300   1.885   6.012 -1.8709  1.3010  2.1422
  867MOL0     H19613   7.456   1.924   6.092 -0.5581 -0.0364  0.9076
  867MOL0     H19614   7.329   1.632   6.084  1.6671 -2.7291 -0.0811
  867MOL0     H19615   7.489   1.683   6.138 -0.1798 -0.3487 -1.3480
  867MOL0     H19616   7.535   1.791   5.914  1.7448  0.0620 -3.9905
  867MOL0     H19617   7.379   1.724   5.865 -0.3271 -1.6822 -0.2952
  867MOL0     H19618   7.594   1.540   5.982 -1.7883 -1.6842 -0.1332
  867MOL0     H19619   7.458   1.490   5.890  0.1873 -0.3988 -2.2938
  867MOL0     H19620   7.667   1.651   5.744 -0.1366  0.5035 -0.7715
  867MOL0     H19621   7.525   1.554   5.678 -0.3187 -4.7375  2.1875
  867MOL0     H19622   7.643   1.361   5.719 -1.7075  1.7376 -0.9852
  867MOL0     H19623   7.766   1.444   5.826  1.7529 -2.5731 -1.6809
  867MOL0     H19624   7.875   1.407   5.621  1.8520  2.4178 -0.7143
  867MOL0     H19625   7.848   1.572   5.615 -0.4606  0.4885  1.7245
  867MOL0     H19626   7.131   1.679   6.401  2.6682 -0.2449 -0.6896
  867MOL0     H19627   6.981   1.731   6.606 -0.9150  3.1950  3.1038
  867MOL0     H19628   7.022   1.930   7.060  0.3966  0.2250 -0.4345
  867MOL0     H19629   6.891   1.979   7.256 -2.3583 -0.1964  0.9463
  867MOL0     H19630   5.051   1.211   6.957  0.5632  2.1089 -0.6206
  867MOL0     H19631   4.867   1.067   7.050  0.8699 -0.2238 -0.3316
  867MOL0     H19632   4.619   1.009   7.617 -1.1615 -1.1620  1.2551
  867MOL0     H19633   4.403   0.880   7.658  0.4068  2.4641  0.9281
  867MOL0     H19634   4.246   0.639   7.329  2.7820  1.8877 -1.0666
  867MOL0     H19635   4.346   0.518   7.412 -0.4984  0.1387  3.0133
  867MOL0     H19636   4.084   0.467   7.419 -1.1045 -0.6931  1.4637
  867MOL0     H19637   4.093   0.603   7.544  0.1381 -0.1996  0.6007
  867MOL0     H19638   4.223   0.318   7.548  2.7960  1.7450 -0.6551
  867MOL0     H19639   4.279   0.452   7.648 -1.2329  1.3657  1.7372
  867MOL0     H19640   3.981   0.360   7.654 -2.5503  1.8680  2.1894
  867MOL0     H19641   4.051   0.492   7.729  1.1210  0.3060 -1.0726
  867MOL0     H19642   4.237   0.233   7.991  1.9268 -4.4822 -1.5202
  867MOL0     H19643   4.476   0.681   7.285 -4.3970  0.0107  1.3281
  867MOL0     H19644   4.786   0.851   7.182  2.1935 -3.3766 -1.6762
  867MOL0     H19645   4.780   0.692   7.249 -0.0792  0.5769 -0.3110
  867MOL0     H19646   4.650   0.752   7.138 -0.4512  2.3531 -0.4282
  868MOL0     O19647   8.905   2.393  11.211 -1.1072 -0.5094 -0.5435
  868MOL0     C19648   8.890   2.319  11.115  0.0106  0.1976 -0.8529
  868MOL0     O19649   8.994   2.242  11.053  0.2831 -0.6516 -0.0627
  868MOL0     C19650   9.127   2.274  11.048  0.0821  0.0250  0.0736
  868MOL0     C19651   9.193   2.380  11.107 -0.2547 -0.7432 -0.2796
  868MOL0     C19652   9.327   2.402  11.092 -0.2449 -0.3025  0.7499
  868MOL0     C19653   9.403   2.314  11.008 -0.0259  0.9495  0.1093
  868MOL0     O19654   9.539   2.318  10.985  0.3110 -0.2680 -0.0691
  868MOL0     C19655   9.618   2.422  11.046 -0.1472  0.4641 -0.6888
  868MOL0     C19656   9.757   2.402  10.999 -0.8194 -0.4886 -0.3115
  868MOL0     C19657   9.840   2.517  11.055 -0.1240 -0.1826  0.1833
  868MOL0     C19658   9.971   2.537  10.975  0.6205  0.4816  1.1935
  868MOL0     C19659  10.067   2.643  11.039  0.2467 -0.6761  0.5595
  868MOL0     C19660  10.164   2.578  11.140  0.0201  0.4740  0.0229
  868MOL0     C19661  10.279   2.665  11.180 -0.1233  0.1312  0.3954
  868MOL0     C19662  10.358   2.633  11.313  0.2277  0.0711  0.2775
  868MOL0     N19663  10.414   2.499  11.302  0.5883  0.2012 -0.8378
  868MOL0     C19664  10.364   2.400  11.378  0.9271  0.1411  0.6998
  868MOL0     C19665  10.438   2.290  11.339  0.0992 -0.0817  0.0499
  868MOL0     C19666  10.424   2.161  11.416  0.5419 -0.3996  0.4941
  868MOL0     C19667  10.377   2.039  11.327  0.4091 -0.5199  0.7378
  868MOL0     C19668  10.233   2.059  11.260 -0.0176  0.1279  0.1854
  868MOL0     C19669  10.115   2.029  11.349 -0.3929 -0.4357  0.1598
  868MOL0     O19670  10.097   2.093  11.480 -0.3997  0.7888  1.2125
  868MOL0     C19671   9.985   2.161  11.503  0.1974 -0.0473  0.2566
  868MOL0     C19672   9.956   2.189  11.639  0.1478  0.5319  0.6244
  868MOL0     C19673   9.837   2.255  11.678 -0.0942 -0.7764  0.0666
  868MOL0     C19674   9.807   2.278  11.820 -0.4526 -0.2659 -0.4700
  868MOL0     C19675   9.757   2.300  11.568  1.5909 -0.9592 -0.3770
  868MOL0     C19676   9.621   2.369  11.591  0.3322  0.6252  0.3764
  868MOL0     O19677   9.560   2.435  11.487 -1.1294 -0.2965  0.6686
  868MOL0     C19678   9.431   2.485  11.508 -0.2891 -0.8321 -0.7084
  868MOL0     C19679   9.414   2.585  11.606  0.2669  0.0932  0.0623
  868MOL0     C19680   9.285   2.636  11.637  0.0621  0.4757 -0.4386
  868MOL0     C19681   9.165   2.573  11.578 -0.3587 -0.2582  0.0482
  868MOL0     O19682   9.041   2.611  11.618 -0.3477 -0.9095  0.2375
  868MOL0     C19683   8.936   2.604  11.522  0.1204  0.0999 -0.5199
  868MOL0     C19684   8.916   2.721  11.413 -0.7456 -0.6761  0.0717
  868MOL0     C19685   8.892   2.863  11.465  0.2978  0.3885 -0.7619
  868MOL0     C19686   8.835   2.946  11.353 -0.4203 -0.2450  0.7752
  868MOL0     C19687   8.766   3.077  11.398  0.8447 -0.6863 -0.5016
  868MOL0     C19688   8.646   3.114  11.314 -0.9741  0.7797  0.1057
  868MOL0     C19689   8.681   3.155  11.174 -0.3325 -0.5338  0.3438
  868MOL0     C19690   8.568   3.239  11.109 -0.6901  0.4839 -0.2280
  868MOL0    Cl19691   8.576   3.406  11.196  0.1908  0.5742 -0.1324
  868MOL0     C19692   9.193   2.473  11.476 -0.2313  1.0441  0.5303
  868MOL0     C19693   9.324   2.441  11.440  0.4171  0.3425 -0.3281
  868MOL0     O19694   9.564   2.349  11.694 -0.2760 -0.0197  0.0372
  868MOL0     C19695   9.799   2.292  11.433 -0.4391  0.4762  0.6839
  868MOL0     C19696   9.912   2.228  11.404 -0.3411  0.4864  0.4321
  868MOL0     N19697  10.540   2.333  11.257  0.0880 -0.6048 -0.2062
  868MOL0     N19698  10.522   2.455  11.222 -0.2008  0.2803  1.3889
  868MOL0     C19699   9.337   2.218  10.940  0.5151 -0.1709 -0.3244
  868MOL0     C19700   9.197   2.201  10.961 -0.5008  0.2381  0.0949
  868MOL0     C19701   8.752   2.309  11.052 -0.2016 -0.2403 -0.2782
  868MOL0     C19702   8.746   2.280  10.911 -0.2740  0.6813 -0.8304
  868MOL0     C19703   8.622   2.272  10.852  0.7346  0.2970  0.4860
  868MOL0     C19704   8.506   2.282  10.914 -0.0323 -0.6939 -0.3609
  868MOL0     O19705   8.378   2.279  10.857 -0.4873  0.2503  0.5929
  868MOL0     C19706   8.360   2.305  10.716 -0.2413  0.5182  0.2247
  868MOL0     C19707   8.211   2.306  10.686 -0.2218 -0.1252 -0.4707
  868MOL0     C19708   8.145   2.162  10.689 -0.0605 -1.2915 -0.2747
  868MOL0     C19709   8.183   2.074  10.574 -0.3671 -0.3150  0.6738
  868MOL0     C19710   8.060   2.034  10.505 -0.2057 -0.2339 -0.4424
  868MOL0     C19711   7.952   2.011  10.459  0.5150 -0.5327 -0.3292
  868MOL0     C19712   8.511   2.291  11.051 -0.4712 -0.0072 -0.1779
  868MOL0     C19713   8.630   2.306  11.125 -0.0794 -0.2122  0.3337
  868MOL0     C19714   8.614   2.307  11.280 -0.7297 -1.0989  0.5680
  868MOL0     H19715   9.138   2.454  11.165  1.2028  1.0911 -1.1589
  868MOL0     H19716   9.358   2.499  11.131  1.5043 -0.5581  0.0731
  868MOL0     H19717   9.602   2.415  11.154 -0.2000 -3.5418 -0.7963
  868MOL0     H19718   9.568   2.515  11.017  0.2382  1.0913  0.5943
  868MOL0     H19719   9.803   2.315  11.045  0.2594  0.3525  0.2465
  868MOL0     H19720   9.765   2.399  10.890 -0.2774 -0.9931 -0.2583
  868MOL0     H19721   9.781   2.609  11.051 -0.1785 -0.0926  2.1782
  868MOL0     H19722   9.873   2.495  11.157  2.5971 -2.8633 -1.1018
  868MOL0     H19723  10.014   2.437  10.965 -0.7667  0.0420 -0.6600
  868MOL0     H19724   9.948   2.584  10.879  1.1104  2.5219  2.0235
  868MOL0     H19725  10.005   2.714  11.096  1.3171 -0.7565  1.8737
  868MOL0     H19726  10.117   2.700  10.961 -0.1971  2.3612  2.3364
  868MOL0     H19727  10.108   2.555  11.232  1.0162 -0.6241  0.3871
  868MOL0     H19728  10.207   2.486  11.101 -0.7798  0.0757  0.0533
  868MOL0     H19729  10.245   2.768  11.193 -2.6172 -0.1271 -2.7551
  868MOL0     H19730  10.341   2.670  11.090 -2.8513  1.3261 -1.5741
  868MOL0     H19731  10.444   2.701  11.319 -1.0375  1.8566 -0.8763
  868MOL0     H19732  10.303   2.648  11.406 -2.0525 -0.5045 -0.9041
  868MOL0     H19733  10.280   2.396  11.448  3.2432 -1.1598  3.6484
  868MOL0     H19734  10.358   2.180  11.501  2.6800  1.0051  1.9361
  868MOL0     H19735  10.524   2.132  11.449  0.6618 -0.9704 -0.3352
  868MOL0     H19736  10.452   2.020  11.249 -2.3485  2.6224 -3.1063
  868MOL0     H19737  10.378   1.949  11.388 -0.0197  1.2856  3.6335
  868MOL0     H19738  10.219   2.163  11.227 -0.9686  0.9704  3.0272
  868MOL0     H19739  10.228   1.999  11.169 -1.2654 -0.1957  0.4613
  868MOL0     H19740  10.027   2.017  11.284  0.0779 -0.5555 -0.4635
  868MOL0     H19741  10.141   1.924  11.364  2.4487 -0.3437 -2.9846
  868MOL0     H19742  10.028   2.162  11.716  1.7046 -0.5185 -1.1061
  868MOL0     H19743   9.720   2.230  11.865 -0.5652  1.4178  1.2477
  868MOL0     H19744   9.794   2.386  11.831  1.1822 -0.1837  1.1164
  868MOL0     H19745   9.893   2.266  11.887  0.8165  0.5136 -1.8968
  868MOL0     H19746   9.500   2.630  11.655 -0.8298 -0.6323  2.8658
  868MOL0     H19747   9.263   2.722  11.699  0.9255  0.0209  0.5223
  868MOL0     H19748   8.930   2.509  11.470  0.2428 -1.1794  1.6805
  868MOL0     H19749   8.852   2.621  11.592  1.0641 -1.3988  1.0485
  868MOL0     H19750   9.017   2.717  11.372 -0.0814  2.7653  1.0776
  868MOL0     H19751   8.846   2.692  11.334 -0.9051  0.1971 -0.1156
  868MOL0     H19752   8.987   2.907  11.499 -0.2516  0.8667  0.2099
  868MOL0     H19753   8.824   2.852  11.550 -1.0678 -3.4173 -2.1534
  868MOL0     H19754   8.784   2.878  11.285 -0.6084 -0.6984  1.3536
  868MOL0     H19755   8.925   2.973  11.297 -1.8143 -1.0359 -2.0198
  868MOL0     H19756   8.734   3.063  11.501  0.4563 -0.1816 -0.5518
  868MOL0     H19757   8.836   3.161  11.407  0.3895 -0.4389  1.0128
  868MOL0     H19758   8.600   3.195  11.373  0.7690  0.0519  2.6579
  868MOL0     H19759   8.569   3.038  11.306 -0.6497  0.6347 -2.0124
  868MOL0     H19760   8.682   3.068  11.108  0.8683 -1.0216  0.9912
  868MOL0     H19761   8.773   3.213  11.165  0.1101 -1.4437 -1.5503
  868MOL0     H19762   8.469   3.192  11.115  0.1771 -1.2821  1.0403
  868MOL0     H19763   8.574   3.247  11.001 -1.7530 -3.1735 -0.6857
  868MOL0     H19764   9.118   2.418  11.420  3.1177 -3.1796 -0.3749
  868MOL0     H19765   9.349   2.371  11.361  0.7392  3.6757 -3.4355
  868MOL0     H19766   9.741   2.335  11.353 -3.1533  0.2854  2.4230
  868MOL0     H19767   9.931   2.228  11.297  0.2865 -0.4173  0.5349
  868MOL0     H19768   9.390   2.162  10.863 -1.8165 -2.3297 -0.4816
  868MOL0     H19769   9.156   2.108  10.922  1.1058  0.1791 -1.5903
  868MOL0     H19770   8.837   2.254  10.859 -0.8233 -2.8819 -0.2443
  868MOL0     H19771   8.631   2.234  10.751 -0.4446 -1.7554  1.0849
  868MOL0     H19772   8.406   2.402  10.695 -1.7543  1.1684 -0.2114
  868MOL0     H19773   8.411   2.227  10.658 -0.0089  1.2611 -0.5819
  868MOL0     H19774   8.207   2.333  10.580  1.5189 -0.5175 -0.6638
  868MOL0     H19775   8.161   2.379  10.750  1.8877  2.8171 -1.9555
  868MOL0     H19776   8.186   2.126  10.783  1.6242  2.6907  0.7010
  868MOL0     H19777   8.036   2.163  10.695 -0.0431 -2.7231  0.5996
  868MOL0     H19778   8.233   1.991  10.625  2.3755  0.0667 -1.1654
  868MOL0     H19779   8.249   2.109  10.494 -0.6489 -1.1231  0.0696
  868MOL0     H19780   7.849   2.000  10.435  0.0247  0.2081  1.3424
  868MOL0     H19781   8.417   2.281  11.105 -0.1226 -4.1064 -0.0137
  868MOL0     H19782   8.675   2.234  11.335 -0.5437 -0.6169  1.0141
  868MOL0     H19783   8.647   2.405  11.316  2.4613 -1.0393 -1.9950
  868MOL0     H19784   8.510   2.285  11.305 -2.5477  0.3296 -4.4391
  869MOL0     O19785   7.615   5.165   6.600 -0.0177 -0.6055 -0.1507
  869MOL0     C19786   7.649   5.193   6.491  0.5503 -0.7547 -0.0762
  869MOL0     O19787   7.708   5.107   6.402 -0.7854  0.7488 -0.0619
  869MOL0     C19788   7.705   4.973   6.416  0.8663 -0.6637 -1.2064
  869MOL0     C19789   7.667   4.891   6.312  0.5305 -0.7873 -0.4138
  869MOL0     C19790   7.666   4.759   6.327 -0.9030  0.3593  0.0137
  869MOL0     C19791   7.721   4.692   6.436 -0.2183 -0.0154 -0.5852
  869MOL0     O19792   7.742   4.557   6.444  0.2009 -0.7482  0.7105
  869MOL0     C19793   7.710   4.478   6.318 -0.2139 -0.9923 -1.2256
  869MOL0     C19794   7.694   4.325   6.343  0.1266  0.2452  0.8896
  869MOL0     C19795   7.625   4.290   6.470 -0.8545  0.0711  0.6763
  869MOL0     C19796   7.719   4.225   6.560  0.7146 -0.5617 -0.9383
  869MOL0     C19797   7.631   4.171   6.677 -0.1317  0.5264  0.6271
  869MOL0     C19798   7.733   4.076   6.756 -0.2360  0.3290 -0.1055
  869MOL0     C19799   7.696   4.083   6.905  0.3708 -0.8274  0.3966
  869MOL0     C19800   7.780   4.201   6.967 -0.8811 -0.0901  0.5628
  869MOL0     N19801   7.783   4.207   7.113 -0.0028  0.0931 -0.4896
  869MOL0     C19802   7.828   4.307   7.188 -1.4412  0.7110  0.5045
  869MOL0     C19803   7.790   4.282   7.311 -0.7859  0.6640  0.0117
  869MOL0     C19804   7.819   4.366   7.430  1.1119  0.3579  0.0541
  869MOL0     C19805   7.948   4.339   7.487 -0.3209  0.6052  0.9696
  869MOL0     C19806   7.984   4.192   7.509  0.1463 -1.2806 -0.4023
  869MOL0     C19807   7.900   4.124   7.609  0.2462 -0.1407 -0.2125
  869MOL0     O19808   7.927   4.122   7.745 -0.2820  0.1105 -0.1167
  869MOL0     C19809   7.898   4.222   7.830  0.2296  0.2260 -0.3810
  869MOL0     C19810   7.981   4.241   7.935  0.0168 -0.0694 -0.0273
  869MOL0     C19811   7.957   4.345   8.039  0.5146  1.2502  0.2275
  869MOL0     C19812   8.067   4.355   8.145 -0.3178 -0.1323  0.9995
  869MOL0     C19813   7.847   4.424   8.030 -0.0594 -0.5461  0.2592
  869MOL0     C19814   7.796   4.504   8.151 -0.4433  0.8004  0.5015
  869MOL0     O19815   7.885   4.549   8.247 -0.0753 -0.0235  0.3447
  869MOL0     C19816   7.847   4.651   8.337 -0.2913  0.1782  0.5189
  869MOL0     C19817   7.860   4.623   8.478 -0.5102  0.0809  0.0996
  869MOL0     C19818   7.818   4.719   8.568 -0.0592  0.2866  0.1103
  869MOL0     C19819   7.805   4.853   8.521 -0.4017 -0.0525 -0.6896
  869MOL0     O19820   7.787   4.949   8.624 -0.1579 -0.9801  0.2442
  869MOL0     C19821   7.716   5.071   8.576  0.6877 -0.5429 -0.3886
  869MOL0     C19822   7.675   5.173   8.684  0.8127 -0.7491  0.5613
  869MOL0     C19823   7.539   5.239   8.668 -0.7534 -0.2201 -0.7873
  869MOL0     C19824   7.495   5.321   8.789 -0.0045 -0.7873  0.1225
  869MOL0     C19825   7.350   5.379   8.786  0.2511  0.2217 -0.5994
  869MOL0     C19826   7.233   5.281   8.775 -0.6855 -0.4461  0.4571
  869MOL0     C19827   7.097   5.344   8.779  0.2617  0.3770  0.4096
  869MOL0     C19828   7.019   5.350   8.913  0.3218 -0.1295 -0.5882
  869MOL0    Cl19829   7.085   5.469   9.014 -0.7305  0.0620 -0.1799
  869MOL0     C19830   7.815   4.882   8.387 -1.2081  0.9540  0.8077
  869MOL0     C19831   7.834   4.780   8.290 -0.7075 -0.7929  0.2339
  869MOL0     O19832   7.676   4.539   8.153  0.1495  0.4727  0.6395
  869MOL0     C19833   7.769   4.415   7.920 -0.0958  0.3504  0.3575
  869MOL0     C19834   7.790   4.317   7.820  0.8149  0.4408 -0.8038
  869MOL0     N19835   7.726   4.159   7.311 -1.0056 -0.6009 -0.7431
  869MOL0     N19836   7.719   4.115   7.188 -0.0352  0.0605 -0.0472
  869MOL0     C19837   7.762   4.771   6.543  0.2719  0.3699  0.4194
  869MOL0     C19838   7.744   4.911   6.538  0.2013 -0.4998  0.3842
  869MOL0     C19839   7.643   5.339   6.463  0.1737 -0.4105  0.5706
  869MOL0     C19840   7.674   5.372   6.326  0.0092  0.4733 -0.3247
  869MOL0     C19841   7.683   5.504   6.291 -0.7498  0.1841 -0.3282
  869MOL0     C19842   7.643   5.608   6.375 -0.8440  0.3658  0.1388
  869MOL0     O19843   7.650   5.744   6.345  0.1048  0.0617  0.6177
  869MOL0     C19844   7.711   5.798   6.231 -0.6590 -0.3021  0.4969
  869MOL0     C19845   7.867   5.800   6.222 -0.3046  0.1970  0.2566
  869MOL0     C19846   7.934   5.884   6.335 -1.2276  0.4385 -0.1847
  869MOL0     C19847   8.085   5.908   6.317  0.7426  0.7967  0.0452
  869MOL0     C19848   8.114   5.970   6.192  0.9807 -1.0196  0.7387
  869MOL0     C19849   8.141   6.024   6.089 -0.0787 -0.6641 -0.4206
  869MOL0     C19850   7.585   5.577   6.509 -0.2307 -0.9046  0.7000
  869MOL0     C19851   7.602   5.445   6.554  0.4497 -0.0939  0.1079
  869MOL0     C19852   7.569   5.430   6.695  0.0218  0.3271 -0.2170
  869MOL0     H19853   7.623   4.934   6.222 -1.6645  0.5579  1.2015
  869MOL0     H19854   7.624   4.709   6.240 -0.2529  1.1479 -0.7702
  869MOL0     H19855   7.793   4.487   6.247  1.3373 -0.2305  0.6034
  869MOL0     H19856   7.612   4.510   6.280  0.4956  0.8103 -1.6566
  869MOL0     H19857   7.636   4.287   6.259  2.0223  1.0939 -0.8713
  869MOL0     H19858   7.795   4.284   6.344 -1.0163 -2.8548 -0.4112
  869MOL0     H19859   7.578   4.380   6.510 -2.1156  0.5008 -1.6378
  869MOL0     H19860   7.535   4.232   6.448 -0.1792 -2.0316  2.9972
  869MOL0     H19861   7.771   4.145   6.506  1.2896  0.4614 -1.9611
  869MOL0     H19862   7.801   4.285   6.603  0.1874 -1.0838  0.8901
  869MOL0     H19863   7.538   4.121   6.649  2.0852 -2.5295 -1.9878
  869MOL0     H19864   7.601   4.258   6.736 -0.8201 -0.4003  1.6956
  869MOL0     H19865   7.722   3.970   6.731 -1.0183  0.3723  0.0124
  869MOL0     H19866   7.838   4.097   6.738  0.0022 -0.8270 -0.1782
  869MOL0     H19867   7.728   3.992   6.956  0.7319 -0.6648  0.4650
  869MOL0     H19868   7.590   4.096   6.928  0.1166 -2.3230  0.1542
  869MOL0     H19869   7.885   4.198   6.938 -0.5449 -1.0027  1.8145
  869MOL0     H19870   7.748   4.301   6.934  2.3858  0.7711 -0.3292
  869MOL0     H19871   7.870   4.402   7.158  0.5335  0.3659  2.0110
  869MOL0     H19872   7.728   4.341   7.486 -0.1442 -1.1455 -2.4671
  869MOL0     H19873   7.805   4.472   7.407 -3.4632  0.7408  3.1813
  869MOL0     H19874   8.034   4.372   7.427  1.9857 -2.6535  2.1917
  869MOL0     H19875   7.956   4.385   7.586 -0.9372 -0.2129  1.4149
  869MOL0     H19876   7.982   4.136   7.415  0.9709 -1.4106 -0.3496
  869MOL0     H19877   8.089   4.187   7.538 -0.3152  1.6501  2.4430
  869MOL0     H19878   7.795   4.152   7.594 -0.0106 -0.7101  0.4810
  869MOL0     H19879   7.894   4.017   7.588 -0.1160 -0.1502 -0.0785
  869MOL0     H19880   8.083   4.204   7.935  1.3956  3.3033 -1.6808
  869MOL0     H19881   8.123   4.449   8.144  1.0611 -0.6335  6.0073
  869MOL0     H19882   8.144   4.277   8.141 -1.7011 -1.4976 -0.7483
  869MOL0     H19883   8.022   4.351   8.244  1.2893  4.1081  2.1203
  869MOL0     H19884   7.899   4.531   8.522  1.1886  0.4518 -0.5200
  869MOL0     H19885   7.801   4.691   8.671 -1.9862  2.5278  0.4829
  869MOL0     H19886   7.776   5.124   8.502 -1.1867  0.2001 -1.4592
  869MOL0     H19887   7.623   5.045   8.523 -0.1782 -0.1372  0.8797
  869MOL0     H19888   7.665   5.112   8.774 -3.5588 -0.4130  0.5046
  869MOL0     H19889   7.751   5.246   8.712  3.1132 -1.7918 -2.4277
  869MOL0     H19890   7.472   5.152   8.666  1.1755 -1.7815 -0.6278
  869MOL0     H19891   7.539   5.294   8.573  3.3621  0.3878 -0.6031
  869MOL0     H19892   7.563   5.406   8.793  0.6342 -1.1241 -2.1036
  869MOL0     H19893   7.518   5.261   8.877  1.4707 -2.2225 -1.1607
  869MOL0     H19894   7.340   5.444   8.873  0.8853 -0.1916 -0.2075
  869MOL0     H19895   7.361   5.428   8.689  1.4145  0.8854 -0.1460
  869MOL0     H19896   7.247   5.210   8.857  3.8212  2.2383  2.4205
  869MOL0     H19897   7.242   5.235   8.676  3.8117  0.0140  0.4402
  869MOL0     H19898   7.030   5.290   8.712 -0.1207  1.1577  0.1500
  869MOL0     H19899   7.096   5.450   8.751 -2.9364 -0.2332 -2.3555
  869MOL0     H19900   7.031   5.251   8.958  0.0571  0.6293  1.2684
  869MOL0     H19901   6.912   5.360   8.890  0.2722 -0.7925 -0.6561
  869MOL0     H19902   7.792   4.979   8.343 -1.3856  1.0665  1.1443
  869MOL0     H19903   7.840   4.807   8.185  1.4704 -0.4517  0.4029
  869MOL0     H19904   7.675   4.470   7.924  0.1963  0.8520  4.6204
  869MOL0     H19905   7.712   4.307   7.745 -0.4607  3.0462  0.0227
  869MOL0     H19906   7.815   4.715   6.619  2.5088 -0.5771 -1.7056
  869MOL0     H19907   7.777   4.967   6.625  2.5217  0.5141 -1.0548
  869MOL0     H19908   7.705   5.286   6.267  0.5765  1.2158 -1.1174
  869MOL0     H19909   7.704   5.528   6.187  1.8314 -0.0669  0.0626
  869MOL0     H19910   7.677   5.754   6.137 -1.4095  2.3634 -0.5967
  869MOL0     H19911   7.686   5.905   6.233  4.1759  1.1083 -0.4502
  869MOL0     H19912   7.895   5.840   6.125 -1.1351 -2.4282 -1.1677
  869MOL0     H19913   7.901   5.697   6.241  0.7793  0.5604  0.3308
  869MOL0     H19914   7.895   5.987   6.339 -2.0913  0.2647 -2.6438
  869MOL0     H19915   7.912   5.835   6.430 -0.9174  1.9958  0.7402
  869MOL0     H19916   8.134   5.810   6.328 -4.0159 -1.8512  0.1978
  869MOL0     H19917   8.122   5.962   6.404  1.4220 -0.3782  0.5062
  869MOL0     H19918   8.164   6.077   5.999  1.7408 -0.4232  0.1337
  869MOL0     H19919   7.544   5.647   6.581 -2.4567 -0.1191 -1.2112
  869MOL0     H19920   7.467   5.391   6.704  0.0722 -0.4608 -2.4802
  869MOL0     H19921   7.641   5.359   6.738  1.6381  2.2018  0.3111
  869MOL0     H19922   7.568   5.516   6.762  1.4270 -0.6685  1.1797
  870MOL0     O19923   9.573   0.355   6.584  0.7591 -0.7653  0.0678
  870MOL0     C19924   9.668   0.328   6.651 -0.0102  0.2261 -0.2966
  870MOL0     O19925   9.804   0.325   6.605 -0.0435 -0.2072  0.1878
  870MOL0     C19926   9.831   0.359   6.477  0.0674 -0.4106 -0.1108
  870MOL0     C19927   9.756   0.324   6.367 -0.4297 -0.4464 -0.0673
  870MOL0     C19928   9.789   0.361   6.234  0.5382 -0.3315 -1.2945
  870MOL0     C19929   9.908   0.424   6.222 -0.2869 -0.2663  0.6145
  870MOL0     O19930   9.945   0.452   6.090 -0.3269  0.2074 -0.3191
  870MOL0     C19931   9.964   0.591   6.066 -0.5063 -0.4181 -0.5465
  870MOL0     C19932  10.111   0.637   6.071  0.5983  0.6725  0.9669
  870MOL0     C19933  10.151   0.762   5.993  0.3452 -0.4533 -1.2804
  870MOL0     C19934  10.297   0.787   5.990 -0.4826  0.1903  0.9717
  870MOL0     C19935  10.326   0.925   5.930 -0.2152 -0.5679 -0.8071
  870MOL0     C19936  10.476   0.951   5.923 -0.3513  0.1128  0.0128
  870MOL0     C19937  10.518   1.089   5.884 -0.0357 -0.9984 -0.6848
  870MOL0     C19938  10.452   1.206   5.972  0.0138  0.0611  0.0940
  870MOL0     N19939  10.502   1.338   5.919 -0.3106 -0.8916  0.2712
  870MOL0     C19940  10.550   1.362   5.794  0.0808 -0.3954 -0.9834
  870MOL0     C19941  10.593   1.489   5.797  0.2857 -1.0342 -0.6737
  870MOL0     C19942  10.649   1.563   5.682 -1.3066  0.6000  0.1178
  870MOL0     C19943  10.691   1.709   5.726 -0.6839 -0.2569 -0.4254
  870MOL0     C19944  10.775   1.794   5.632 -0.5607 -0.6081 -0.4017
  870MOL0     C19945  10.702   1.824   5.500 -0.2218  0.1257  0.1122
  870MOL0     O19946  10.688   1.705   5.431 -0.3028 -0.0978 -0.7376
  870MOL0     C19947  10.611   1.700   5.324 -1.1536 -0.0425  0.0142
  870MOL0     C19948  10.478   1.727   5.333 -0.4896  0.1365 -0.6979
  870MOL0     C19949  10.387   1.731   5.229 -0.0751  0.5144 -0.8929
  870MOL0     C19950  10.251   1.781   5.258 -0.5812 -0.3954 -0.0236
  870MOL0     C19951  10.430   1.704   5.100 -0.5926  0.7738  0.5906
  870MOL0     C19952  10.353   1.695   4.977  0.3531 -0.2993  0.3951
  870MOL0     O19953  10.219   1.737   4.992 -0.5341  0.2809 -0.2677
  870MOL0     C19954  10.130   1.705   4.898  0.7348  0.0485 -0.7640
  870MOL0     C19955   9.999   1.680   4.946 -0.5992 -0.0526 -0.3922
  870MOL0     C19956   9.902   1.641   4.858  0.0310 -0.7458  0.6098
  870MOL0     C19957   9.927   1.629   4.720  0.6534  0.1370  0.0044
  870MOL0     O19958   9.827   1.591   4.636  0.1036 -0.0044 -0.1699
  870MOL0     C19959   9.781   1.668   4.521  1.0410 -0.7167 -0.0443
  870MOL0     C19960   9.818   1.597   4.388  0.0693 -0.8348  0.6820
  870MOL0     C19961   9.783   1.671   4.259  0.2937 -0.3930 -0.7959
  870MOL0     C19962   9.630   1.705   4.239 -0.1819  0.1264 -0.2269
  870MOL0     C19963   9.602   1.779   4.106  0.2271  0.5688  0.1853
  870MOL0     C19964   9.461   1.833   4.082  0.6561  0.3304 -0.4904
  870MOL0     C19965   9.440   1.965   4.158 -0.6281  0.0558 -0.2224
  870MOL0     C19966   9.309   2.034   4.136 -0.7324 -0.5552 -0.0134
  870MOL0    Cl19967   9.306   2.074   3.964 -0.2280  0.1164  0.0974
  870MOL0     C19968  10.052   1.654   4.673  0.6627  0.5563 -0.4142
  870MOL0     C19969  10.155   1.697   4.758 -0.0839  0.6888 -0.1613
  870MOL0     O19970  10.401   1.626   4.888 -0.1180 -0.3430  0.1728
  870MOL0     C19971  10.570   1.672   5.090  0.2141  0.6129  1.1305
  870MOL0     C19972  10.653   1.673   5.196 -0.2778 -0.4904  0.4729
  870MOL0     N19973  10.565   1.542   5.925 -0.2813  0.1559 -0.1514
  870MOL0     N19974  10.527   1.440   6.000 -1.4519 -0.5469 -0.5680
  870MOL0     C19975   9.995   0.453   6.325 -0.1287  0.5983  0.6307
  870MOL0     C19976   9.958   0.412   6.455  0.2824  0.0863 -0.3653
  870MOL0     C19977   9.651   0.321   6.795 -0.3171  0.9650 -0.3468
  870MOL0     C19978   9.762   0.271   6.867 -0.5934  0.5802 -0.7487
  870MOL0     C19979   9.752   0.243   7.002 -0.9114 -0.0860 -0.6860
  870MOL0     C19980   9.633   0.262   7.071 -0.1551  0.0557  0.0002
  870MOL0     O19981   9.632   0.236   7.203  0.4654 -0.3374  0.4091
  870MOL0     C19982   9.525   0.274   7.292 -0.0811 -0.2886  0.4095
  870MOL0     C19983   9.524   0.216   7.425 -0.6102 -0.2386 -0.2493
  870MOL0     C19984   9.504   0.064   7.416 -0.6971  0.4803 -0.2426
  870MOL0     C19985   9.362   0.024   7.412 -0.4954  0.6827  0.2201
  870MOL0     C19986   9.303   0.068   7.530 -0.3184  0.6190 -0.8100
  870MOL0     C19987   9.273   0.123   7.642 -0.5254  0.1708  0.2232
  870MOL0     C19988   9.519   0.315   7.006  0.2620  0.2886  2.0052
  870MOL0     C19989   9.529   0.343   6.865  0.2304 -0.3782 -0.5603
  870MOL0     C19990   9.403   0.398   6.792  0.0255 -0.6854 -0.0756
  870MOL0     H19991   9.665   0.266   6.381 -1.2543  1.3331  2.5800
  870MOL0     H19992   9.720   0.331   6.155  1.7362 -2.0625 -1.7552
  870MOL0     H19993   9.905   0.651   6.137 -1.0415 -0.7677 -0.6901
  870MOL0     H19994   9.932   0.611   5.964 -0.9392 -1.0474 -0.5418
  870MOL0     H19995  10.134   0.661   6.175  3.0056  0.1061  0.6226
  870MOL0     H19996  10.164   0.548   6.036  0.2700  0.3496  1.2795
  870MOL0     H19997  10.115   0.755   5.889  2.5356  0.9540 -2.1964
  870MOL0     H19998  10.104   0.845   6.045  1.8770  0.6563 -1.6180
  870MOL0     H19999  10.318   0.792   6.098 -1.1617  1.9882  1.0471
  870MOL0     H20000  10.352   0.701   5.951 -1.6881 -1.2916  2.3696
  870MOL0     H20001  10.286   0.998   6.000  1.3079  0.0493 -0.5236
  870MOL0     H20002  10.297   0.927   5.825  1.2255 -1.6596 -1.2656
  870MOL0     H20003  10.533   0.929   6.014 -0.7601  2.4244  0.8826
  870MOL0     H20004  10.517   0.878   5.852  2.4112 -2.2099  3.5803
  870MOL0     H20005  10.498   1.107   5.778  0.1914 -1.3022 -0.7830
  870MOL0     H20006  10.627   1.089   5.884 -0.0086 -0.1884 -2.2775
  870MOL0     H20007  10.344   1.188   5.962  0.4418 -2.3670 -0.9314
  870MOL0     H20008  10.479   1.176   6.074 -1.2912 -3.6077 -0.4752
  870MOL0     H20009  10.550   1.289   5.713  0.2238  0.4674 -1.7809
  870MOL0     H20010  10.578   1.568   5.599 -0.4740  4.7455 -0.5334
  870MOL0     H20011  10.742   1.515   5.647 -0.6685  3.1344 -1.9319
  870MOL0     H20012  10.607   1.772   5.756  1.3135  1.4398  2.0112
  870MOL0     H20013  10.761   1.706   5.810  0.5640 -1.4001 -1.4503
  870MOL0     H20014  10.800   1.892   5.673  1.5915 -1.7147  1.0660
  870MOL0     H20015  10.872   1.748   5.614 -0.3717  0.8703 -4.2189
  870MOL0     H20016  10.602   1.864   5.517  0.3836  1.3601  0.8890
  870MOL0     H20017  10.768   1.893   5.446 -0.1532  1.4274  1.7808
  870MOL0     H20018  10.448   1.745   5.436  1.8113 -1.0526  0.2613
  870MOL0     H20019  10.244   1.878   5.206  0.9813 -1.0983 -1.6776
  870MOL0     H20020  10.238   1.797   5.365  2.6149 -4.3530  1.1942
  870MOL0     H20021  10.170   1.716   5.224 -0.2814 -1.7560  1.7517
  870MOL0     H20022   9.988   1.682   5.054 -3.0695  0.7278 -0.5903
  870MOL0     H20023   9.806   1.621   4.903 -0.7568  0.9819 -0.2215
  870MOL0     H20024   9.672   1.656   4.521  1.0996 -1.7920  2.0285
  870MOL0     H20025   9.793   1.776   4.527 -0.4688 -0.5326  0.1559
  870MOL0     H20026   9.926   1.580   4.383  0.0748 -1.3395  2.1105
  870MOL0     H20027   9.768   1.501   4.373 -0.9280 -0.0058 -1.8078
  870MOL0     H20028   9.828   1.620   4.173  1.1518  1.4973 -1.5156
  870MOL0     H20029   9.835   1.765   4.277  3.3145 -2.4728  2.7185
  870MOL0     H20030   9.599   1.775   4.317 -0.5703  1.4700 -1.5350
  870MOL0     H20031   9.576   1.613   4.263  1.7395 -0.6130  1.5117
  870MOL0     H20032   9.662   1.870   4.097 -0.5202  1.2750  1.9128
  870MOL0     H20033   9.629   1.711   4.025  0.9241 -0.2310  1.0548
  870MOL0     H20034   9.379   1.762   4.095 -1.0169  2.5661  2.6155
  870MOL0     H20035   9.460   1.844   3.974  1.3424 -0.5412 -0.5963
  870MOL0     H20036   9.516   2.037   4.125  1.0101 -2.9416 -3.6463
  870MOL0     H20037   9.461   1.950   4.264 -0.0969  1.4338 -0.1143
  870MOL0     H20038   9.312   2.129   4.191 -2.0333 -1.3270  1.4760
  870MOL0     H20039   9.236   1.968   4.184 -1.6365  1.6432  1.8797
  870MOL0     H20040  10.060   1.648   4.565 -1.8482 -2.7756 -0.5562
  870MOL0     H20041  10.249   1.735   4.720 -0.2044 -1.5584 -3.0941
  870MOL0     H20042  10.617   1.654   4.994  1.5798 -0.0590  1.8837
  870MOL0     H20043  10.761   1.663   5.185  0.1807  1.6269  2.4502
  870MOL0     H20044  10.091   0.494   6.297 -0.3134  0.6504  0.0653
  870MOL0     H20045  10.025   0.420   6.540  1.8425 -1.6473 -1.3776
  870MOL0     H20046   9.860   0.244   6.827  0.2880  2.0668  0.2869
  870MOL0     H20047   9.845   0.213   7.050 -1.5841 -1.1072  0.0167
  870MOL0     H20048   9.529   0.383   7.291  1.1716 -0.2856  1.8207
  870MOL0     H20049   9.432   0.229   7.255 -0.0481 -1.0455  1.1979
  870MOL0     H20050   9.443   0.260   7.483 -2.5429 -0.8829 -2.2878
  870MOL0     H20051   9.617   0.245   7.474 -1.7304  3.8167 -0.1606
  870MOL0     H20052   9.556   0.034   7.325 -2.0859  0.9938 -1.2455
  870MOL0     H20053   9.546   0.018   7.506  1.3477  1.3811 -0.6982
  870MOL0     H20054   9.353  -0.085   7.415  0.6288  0.5590 -0.4711
  870MOL0     H20055   9.315   0.055   7.318  0.1626 -1.9334 -1.0644
  870MOL0     H20056   9.238   0.162   7.736  0.7777  3.7391 -0.5881
  870MOL0     H20057   9.431   0.347   7.061 -0.3492 -0.7697  1.6846
  870MOL0     H20058   9.402   0.496   6.743 -1.6129 -0.0375  1.1365
  870MOL0     H20059   9.376   0.323   6.718  0.5644 -0.5665 -0.3986
  870MOL0     H20060   9.325   0.399   6.869  0.4457 -0.1274  0.3622
  871MOL0     O20061   9.842   7.675   2.737  0.2816 -0.4144  0.7478
  871MOL0     C20062   9.772   7.766   2.775 -0.9224 -0.0136 -0.5097
  871MOL0     O20063   9.697   7.764   2.895 -0.0051  0.8037 -0.3304
  871MOL0     C20064   9.719   7.663   2.990  0.1651  0.0913 -0.3115
  871MOL0     C20065   9.840   7.585   3.012 -1.0503  0.1878 -0.2727
  871MOL0     C20066   9.850   7.498   3.120  0.7109  0.3341 -0.1781
  871MOL0     C20067   9.738   7.464   3.198 -1.0486  0.4873  0.7246
  871MOL0     O20068   9.756   7.373   3.295 -0.0026 -0.1596 -0.1990
  871MOL0     C20069   9.647   7.328   3.378 -1.1523 -0.5887 -0.7582
  871MOL0     C20070   9.712   7.236   3.487 -0.3915  0.9228  0.3364
  871MOL0     C20071   9.772   7.336   3.586 -0.3659  0.7907 -0.6639
  871MOL0     C20072   9.817   7.271   3.717 -0.1970 -0.1930 -0.3980
  871MOL0     C20073   9.945   7.343   3.768  0.6438  0.8580 -0.5956
  871MOL0     C20074   9.977   7.298   3.922  0.2922 -0.4483  1.2262
  871MOL0     C20075  10.108   7.360   3.978 -0.0429  0.0429 -0.3126
  871MOL0     C20076  10.095   7.387   4.123  0.2505 -0.0535 -0.4923
  871MOL0     N20077  10.226   7.375   4.180 -0.3335  0.0472 -1.0090
  871MOL0     C20078  10.331   7.471   4.182  0.2763  0.0472  0.6107
  871MOL0     C20079  10.440   7.413   4.240 -0.3151  0.0664 -0.4138
  871MOL0     C20080  10.567   7.490   4.263  0.5005 -0.1523 -0.2244
  871MOL0     C20081  10.551   7.610   4.364  0.6156  0.3246  0.0241
  871MOL0     C20082  10.506   7.558   4.499  0.3319 -0.1118 -0.5762
  871MOL0     C20083  10.513   7.675   4.600 -0.7237  0.4211 -0.1018
  871MOL0     O20084  10.484   7.596   4.722  0.7197  0.3692 -0.0685
  871MOL0     C20085  10.461   7.664   4.835 -0.2407 -1.1822 -0.6821
  871MOL0     C20086  10.498   7.609   4.953  0.1639  0.3448  0.4049
  871MOL0     C20087  10.489   7.669   5.078 -0.0773  0.2939  0.3076
  871MOL0     C20088  10.518   7.584   5.202  0.1164  0.5014  0.8962
  871MOL0     C20089  10.440   7.800   5.088 -0.8463 -1.1217  0.7368
  871MOL0     C20090  10.419   7.884   5.213  0.3710 -0.3087  0.3412
  871MOL0     O20091  10.403   8.021   5.197  0.8202 -0.0953  0.4032
  871MOL0     C20092  10.346   8.109   5.286  1.8653 -0.4672  0.2365
  871MOL0     C20093  10.315   8.242   5.248 -0.8772  0.2855  1.0944
  871MOL0     C20094  10.236   8.327   5.332 -0.3870  0.1434  0.1103
  871MOL0     C20095  10.190   8.280   5.450 -0.1737  0.2745 -0.5650
  871MOL0     O20096  10.127   8.360   5.544  0.2493  0.1286 -0.7770
  871MOL0     C20097  10.086   8.498   5.513 -0.5128 -0.4155 -0.4417
  871MOL0     C20098  10.030   8.552   5.638 -0.9226  0.2196  0.4469
  871MOL0     C20099   9.956   8.686   5.623 -0.0946 -0.5084  1.5775
  871MOL0     C20100   9.879   8.730   5.743 -0.1549  0.0853 -0.6767
  871MOL0     C20101   9.851   8.883   5.767 -0.7935  1.1654 -1.3630
  871MOL0     C20102   9.750   8.903   5.888  0.7806  0.0113 -0.1128
  871MOL0     C20103   9.670   9.039   5.854  0.1853  0.1776 -0.2028
  871MOL0     C20104   9.567   9.026   5.742  0.1766 -0.2438  0.0378
  871MOL0    Cl20105   9.426   9.146   5.747 -0.1409 -0.2075  0.3194
  871MOL0     C20106  10.232   8.152   5.496 -1.0418 -0.3301  1.1563
  871MOL0     C20107  10.296   8.073   5.407  0.0906  0.2467  1.8629
  871MOL0     O20108  10.433   7.833   5.322 -0.1946  0.8969 -0.7671
  871MOL0     C20109  10.415   7.858   4.960 -0.2358 -0.9449  0.4094
  871MOL0     C20110  10.414   7.787   4.838  0.6488 -0.1175 -0.0972
  871MOL0     N20111  10.387   7.301   4.306 -0.3506  0.7353  0.6787
  871MOL0     N20112  10.271   7.273   4.257  0.8509  0.7911 -0.7085
  871MOL0     C20113   9.614   7.530   3.172 -0.0076  0.1540 -0.5082
  871MOL0     C20114   9.611   7.624   3.074  0.3709 -0.8051  1.2612
  871MOL0     C20115   9.763   7.889   2.693 -0.6671  0.4965 -0.5606
  871MOL0     C20116   9.698   7.998   2.750  0.0112  0.1063 -0.3193
  871MOL0     C20117   9.686   8.123   2.690 -0.6943  1.0252 -0.3244
  871MOL0     C20118   9.739   8.139   2.559 -0.8890 -0.6103  0.4203
  871MOL0     O20119   9.729   8.266   2.514 -0.0774  1.3696 -0.6273
  871MOL0     C20120   9.800   8.321   2.412 -0.2826 -0.0901 -0.4933
  871MOL0     C20121   9.749   8.465   2.388 -0.1106 -0.8874 -0.0744
  871MOL0     C20122   9.836   8.530   2.281 -0.2289 -0.2260  0.2360
  871MOL0     C20123   9.793   8.667   2.244 -0.3111 -0.2497  0.3549
  871MOL0     C20124   9.886   8.729   2.138  0.2529 -0.0011  0.1667
  871MOL0     C20125   9.941   8.788   2.053 -0.9664 -1.1892 -0.7373
  871MOL0     C20126   9.822   8.039   2.506 -0.4229  0.2786 -0.6814
  871MOL0     C20127   9.825   7.905   2.567 -0.6268 -0.0978  0.2035
  871MOL0     C20128   9.883   7.782   2.481  0.3481 -0.7782 -0.2356
  871MOL0     H20129   9.931   7.600   2.954 -1.3093 -1.8152 -1.2794
  871MOL0     H20130   9.948   7.457   3.141  0.1876 -1.6137 -1.3027
  871MOL0     H20131   9.583   7.259   3.322 -2.8589 -0.9976  1.5500
  871MOL0     H20132   9.598   7.419   3.414  0.1485  1.1642 -3.1270
  871MOL0     H20133   9.631   7.182   3.537 -0.2124 -0.1485 -0.5042
  871MOL0     H20134   9.787   7.167   3.448 -0.3938  0.9351  0.3108
  871MOL0     H20135   9.858   7.393   3.552 -0.1879  1.1396  0.3400
  871MOL0     H20136   9.688   7.403   3.609 -0.7800 -0.2243  0.9513
  871MOL0     H20137   9.736   7.295   3.788 -0.7248 -1.6345 -0.4849
  871MOL0     H20138   9.829   7.163   3.709 -2.4724 -0.7141  1.6593
  871MOL0     H20139   9.928   7.451   3.768 -2.7976  0.4456 -0.1925
  871MOL0     H20140  10.024   7.314   3.699 -0.4401 -0.6076 -1.2544
  871MOL0     H20141   9.887   7.329   3.977 -2.0609  0.8134 -2.8832
  871MOL0     H20142   9.981   7.189   3.926 -2.8122 -0.7897 -1.0001
  871MOL0     H20143  10.130   7.455   3.929 -4.4804  0.7634 -1.3638
  871MOL0     H20144  10.184   7.285   3.954 -0.7618 -1.3161  1.4258
  871MOL0     H20145  10.053   7.483   4.153  0.6054  0.4630 -1.6009
  871MOL0     H20146  10.044   7.300   4.166 -0.4011  0.1823 -0.7771
  871MOL0     H20147  10.324   7.563   4.124  2.5847 -0.9266 -1.4317
  871MOL0     H20148  10.598   7.540   4.171  2.4387  0.4648  0.7135
  871MOL0     H20149  10.645   7.425   4.303  1.4359  0.3963 -1.0995
  871MOL0     H20150  10.653   7.648   4.376  2.2970 -3.7498  0.3340
  871MOL0     H20151  10.491   7.690   4.319  0.6853  0.4407  0.1371
  871MOL0     H20152  10.402   7.523   4.505  0.1651  0.4575  0.0534
  871MOL0     H20153  10.576   7.481   4.531  0.7471 -1.1487 -3.5995
  871MOL0     H20154  10.614   7.718   4.590  0.6022 -2.6449 -0.9922
  871MOL0     H20155  10.434   7.745   4.572 -1.5262 -0.9924 -1.5194
  871MOL0     H20156  10.530   7.506   4.956 -1.9586 -0.4421  4.8632
  871MOL0     H20157  10.573   7.494   5.173 -0.7308 -0.1044  1.1099
  871MOL0     H20158  10.430   7.547   5.256 -0.3833 -2.9087 -1.8962
  871MOL0     H20159  10.577   7.645   5.271  3.0408  2.2022 -2.7476
  871MOL0     H20160  10.353   8.283   5.155  1.6106  0.3120  2.0521
  871MOL0     H20161  10.226   8.431   5.304  1.8420  1.3787  3.2553
  871MOL0     H20162  10.182   8.548   5.495 -1.5729  1.5009 -1.0137
  871MOL0     H20163  10.019   8.510   5.427  0.7602  0.2751 -1.3730
  871MOL0     H20164   9.960   8.482   5.685  0.4937 -0.3451  1.8181
  871MOL0     H20165  10.116   8.566   5.704  0.4671 -2.3040 -0.6738
  871MOL0     H20166   9.885   8.678   5.540  0.0450  1.9723  1.1641
  871MOL0     H20167  10.008   8.773   5.583 -2.9480  0.4025 -0.5009
  871MOL0     H20168   9.942   8.703   5.829 -0.4657 -1.1196 -0.7984
  871MOL0     H20169   9.783   8.678   5.753 -0.7063  0.9925 -1.1826
  871MOL0     H20170   9.942   8.942   5.777  1.4528 -2.0667 -0.9391
  871MOL0     H20171   9.814   8.927   5.674  0.3658 -0.9804 -2.9561
  871MOL0     H20172   9.798   8.907   5.987 -1.8529 -2.8801  1.4881
  871MOL0     H20173   9.678   8.821   5.896  0.3365  0.4915  1.0171
  871MOL0     H20174   9.745   9.116   5.835  1.4276 -1.2982 -1.4814
  871MOL0     H20175   9.624   9.067   5.950  1.6549 -0.7402  0.8202
  871MOL0     H20176   9.534   8.921   5.747  2.7099 -1.0320  2.3071
  871MOL0     H20177   9.621   9.039   5.648  1.2330 -0.3710  0.6144
  871MOL0     H20178  10.205   8.106   5.590 -0.6631 -1.3350  0.7845
  871MOL0     H20179  10.310   7.971   5.441 -3.1534 -1.3382 -0.9338
  871MOL0     H20180  10.397   7.963   4.939  1.9341 -0.6072 -0.0046
  871MOL0     H20181  10.370   7.831   4.749 -1.0668  0.4892  0.9974
  871MOL0     H20182   9.526   7.510   3.232  1.5526 -0.3977  1.7743
  871MOL0     H20183   9.528   7.691   3.059  1.0255  0.0072  1.1830
  871MOL0     H20184   9.672   7.984   2.855  1.1877  3.6911  0.6054
  871MOL0     H20185   9.624   8.190   2.749 -1.6829  0.1333 -0.3281
  871MOL0     H20186   9.907   8.329   2.431  0.1765 -0.7140 -2.5643
  871MOL0     H20187   9.801   8.256   2.324  1.9253  0.9050 -1.2842
  871MOL0     H20188   9.760   8.520   2.482 -1.4595 -0.6573 -0.0211
  871MOL0     H20189   9.647   8.451   2.349 -0.0959 -0.0631 -0.4484
  871MOL0     H20190   9.938   8.534   2.319 -0.6264  0.6955  1.2469
  871MOL0     H20191   9.843   8.472   2.189 -0.5338 -0.4492  0.3513
  871MOL0     H20192   9.797   8.729   2.334  0.4526 -1.0534  0.8983
  871MOL0     H20193   9.696   8.668   2.194 -0.6001 -0.1125  0.9147
  871MOL0     H20194   9.991   8.842   1.975 -1.7825 -0.0086 -0.4643
  871MOL0     H20195   9.867   8.051   2.408  0.7402  1.9415  0.0135
  871MOL0     H20196   9.895   7.809   2.375 -1.3295 -0.2045 -0.3076
  871MOL0     H20197   9.980   7.751   2.520 -0.4346 -1.9121  0.8727
  871MOL0     H20198   9.819   7.694   2.471  0.4551 -0.7817 -0.9414
  872MOL0     O20199   1.932   8.498  10.320 -0.5745 -0.0156 -0.2111
  872MOL0     C20200   2.001   8.410  10.369 -0.4985 -0.9973 -0.6750
  872MOL0     O20201   2.110   8.348  10.309 -0.4768 -0.3264  0.1905
  872MOL0     C20202   2.146   8.400  10.186 -0.4010 -0.5153  1.1054
  872MOL0     C20203   2.067   8.385  10.070  0.1813 -0.3293  1.1998
  872MOL0     C20204   2.094   8.452   9.961  0.1390 -0.1316  0.3320
  872MOL0     C20205   2.215   8.516   9.939 -0.1156 -0.1002  0.6236
  872MOL0     O20206   2.255   8.582   9.824  0.1036  0.9628  1.0417
  872MOL0     C20207   2.149   8.653   9.757 -0.1713 -0.1055  0.3626
  872MOL0     C20208   2.213   8.751   9.667 -0.4558 -0.2124 -0.7265
  872MOL0     C20209   2.245   8.891   9.721  0.1124 -0.6885  0.2688
  872MOL0     C20210   2.131   9.001   9.721 -0.0493 -0.5292 -0.8662
  872MOL0     C20211   2.205   9.134   9.745 -0.6515  0.2804  0.1293
  872MOL0     C20212   2.122   9.248   9.809  0.3087 -0.0457 -0.4746
  872MOL0     C20213   2.209   9.369   9.818  0.2743  0.0603  0.5046
  872MOL0     C20214   2.177   9.451   9.949 -0.2745 -0.8268  0.2429
  872MOL0     N20215   2.031   9.479   9.969  0.6108  1.0253 -0.9997
  872MOL0     C20216   1.950   9.572   9.916  0.1131  0.2561 -0.3013
  872MOL0     C20217   1.831   9.565   9.971 -0.2190 -0.1566  0.3155
  872MOL0     C20218   1.708   9.651   9.940  0.5147  0.7510  0.2018
  872MOL0     C20219   1.623   9.569   9.837 -0.5339  0.2991  0.0990
  872MOL0     C20220   1.559   9.437   9.892 -0.5177 -0.5245 -0.8933
  872MOL0     C20221   1.475   9.375   9.788 -0.1134 -0.4092 -0.8250
  872MOL0     O20222   1.552   9.347   9.674  0.0827  0.5118 -0.0410
  872MOL0     C20223   1.501   9.274   9.578  0.1476  0.6789  0.1884
  872MOL0     C20224   1.593   9.213   9.502  1.5203  0.1817 -0.3758
  872MOL0     C20225   1.558   9.122   9.399  0.2098  0.6468 -0.3788
  872MOL0     C20226   1.656   9.062   9.314 -0.2128  0.2195 -0.2958
  872MOL0     C20227   1.423   9.094   9.373 -0.8476  0.1088  0.9324
  872MOL0     C20228   1.385   8.993   9.269  0.4977 -1.4338  0.1410
  872MOL0     O20229   1.412   9.020   9.135 -1.0281 -0.5588  0.3249
  872MOL0     C20230   1.381   8.920   9.047  0.0068 -0.0583  0.0689
  872MOL0     C20231   1.480   8.848   8.997  0.3992 -0.4301 -0.3031
  872MOL0     C20232   1.467   8.752   8.898  0.1274  0.5612 -0.1313
  872MOL0     C20233   1.342   8.709   8.861 -0.3985  1.1323  0.2192
  872MOL0     O20234   1.335   8.598   8.779 -0.0774  0.5730  0.1801
  872MOL0     C20235   1.204   8.558   8.715 -0.3480  1.1023  0.1458
  872MOL0     C20236   1.241   8.492   8.581 -0.1275  0.7448 -0.5824
  872MOL0     C20237   1.307   8.362   8.595  0.7145  0.4311 -0.0991
  872MOL0     C20238   1.352   8.304   8.462 -0.2158  0.1246  0.1961
  872MOL0     C20239   1.364   8.146   8.476 -0.0415 -0.5130  0.3225
  872MOL0     C20240   1.409   8.068   8.353  0.2959 -0.1548 -0.8660
  872MOL0     C20241   1.377   7.913   8.366  0.7671 -0.1881  0.8938
  872MOL0     C20242   1.376   7.843   8.221 -0.3057 -0.8940  1.2031
  872MOL0    Cl20243   1.313   7.676   8.238  0.5028 -0.2582 -0.0193
  872MOL0     C20244   1.233   8.778   8.913 -1.1217 -0.2731 -0.1070
  872MOL0     C20245   1.251   8.900   8.997 -0.2322  1.2787 -0.3058
  872MOL0     O20246   1.334   8.893   9.313 -0.0284 -0.1464  0.0234
  872MOL0     C20247   1.335   9.149   9.456 -0.5845  0.1731 -0.3909
  872MOL0     C20248   1.370   9.244   9.562  0.6626 -0.1507  0.0883
  872MOL0     N20249   1.832   9.455  10.057  0.3488 -0.1877 -0.2215
  872MOL0     N20250   1.957   9.411  10.062  0.0960  0.7226 -0.2605
  872MOL0     C20251   2.296   8.525  10.055 -0.1819 -0.7215  0.0245
  872MOL0     C20252   2.264   8.472  10.183 -0.2627 -0.6622  0.6808
  872MOL0     C20253   1.975   8.366  10.506 -0.2446  0.4517  0.5153
  872MOL0     C20254   2.013   8.232  10.530 -0.0817 -0.5371  0.4457
  872MOL0     C20255   2.010   8.173  10.660  0.0110  0.7563 -0.5574
  872MOL0     C20256   1.954   8.249  10.764  0.8678  0.2876  0.4857
  872MOL0     O20257   1.933   8.202  10.889 -1.0081 -0.4067 -0.1150
  872MOL0     C20258   2.007   8.093  10.944 -0.1382 -0.0264  0.7486
  872MOL0     C20259   1.948   8.044  11.074  0.8533  0.0335  0.0851
  872MOL0     C20260   1.959   8.141  11.187 -0.1619  0.3599 -0.3587
  872MOL0     C20261   1.885   8.272  11.182 -0.4365  0.6897  0.4639
  872MOL0     C20262   1.897   8.343  11.311 -0.1570 -0.1235  0.1734
  872MOL0     C20263   1.907   8.402  11.411 -0.0744  0.6964  0.3308
  872MOL0     C20264   1.909   8.385  10.736 -0.3063  1.0345 -0.4778
  872MOL0     C20265   1.915   8.446  10.611 -0.0762  0.1870 -0.0664
  872MOL0     C20266   1.871   8.582  10.598  0.5172 -0.8455  0.3218
  872MOL0     H20267   1.973   8.333  10.087  0.1079  0.2215  2.6074
  872MOL0     H20268   2.025   8.425   9.881  1.8735 -2.5188 -0.4762
  872MOL0     H20269   2.070   8.695   9.819 -1.1977  1.9041 -2.1344
  872MOL0     H20270   2.099   8.578   9.696 -0.6862  0.2530  0.3425
  872MOL0     H20271   2.298   8.696   9.624  0.0066  0.3995 -0.6135
  872MOL0     H20272   2.146   8.760   9.581  0.4670 -1.8054 -1.6700
  872MOL0     H20273   2.286   8.886   9.822  2.6392 -1.2781 -0.7190
  872MOL0     H20274   2.325   8.935   9.661  0.3643  0.8175  1.6311
  872MOL0     H20275   2.083   8.995   9.622  2.5071 -0.0366 -2.2262
  872MOL0     H20276   2.050   8.985   9.792 -1.1572 -0.4496 -2.0712
  872MOL0     H20277   2.243   9.172   9.650 -0.0693  1.1754  0.7026
  872MOL0     H20278   2.290   9.125   9.814  0.2987 -1.9699 -1.2174
  872MOL0     H20279   2.037   9.276   9.746  1.9935 -0.6362 -3.1538
  872MOL0     H20280   2.079   9.215   9.904 -1.0313 -2.0277 -1.6702
  872MOL0     H20281   2.198   9.423   9.723 -3.3031 -1.2075  0.0372
  872MOL0     H20282   2.312   9.336   9.833  0.6324  0.4082 -1.0024
  872MOL0     H20283   2.232   9.407  10.032  1.1379 -0.1306 -0.2883
  872MOL0     H20284   2.231   9.545   9.933  0.0347 -1.0824 -0.2457
  872MOL0     H20285   1.974   9.632   9.829 -1.2555  1.6063  0.2207
  872MOL0     H20286   1.736   9.748   9.899  0.3513  0.1035 -1.5363
  872MOL0     H20287   1.649   9.667  10.031  1.9969  1.0728  1.1418
  872MOL0     H20288   1.545   9.641   9.810  0.0915  0.9332 -0.0267
  872MOL0     H20289   1.687   9.559   9.749 -0.8561  1.4630 -0.2817
  872MOL0     H20290   1.635   9.360   9.908 -0.9287 -0.3429  2.8911
  872MOL0     H20291   1.503   9.444   9.986  2.5954 -2.1535  1.2680
  872MOL0     H20292   1.440   9.285   9.839 -2.7042  1.1862  0.4176
  872MOL0     H20293   1.385   9.433   9.766  1.7679  1.6640 -3.7276
  872MOL0     H20294   1.701   9.221   9.513  1.7616  0.0866 -2.3304
  872MOL0     H20295   1.643   8.954   9.324  2.0031  0.0581  1.6938
  872MOL0     H20296   1.755   9.095   9.348  0.1883 -0.5876 -0.6402
  872MOL0     H20297   1.646   9.103   9.213  1.3726 -2.2560 -1.5865
  872MOL0     H20298   1.586   8.866   9.017  1.0706 -1.6559 -2.4712
  872MOL0     H20299   1.549   8.697   8.851 -0.5491 -1.3820  0.8603
  872MOL0     H20300   1.150   8.475   8.762  0.3092 -1.4697 -3.2220
  872MOL0     H20301   1.140   8.645   8.698 -1.6201  0.4651  1.4460
  872MOL0     H20302   1.144   8.484   8.531 -0.8121  0.9946  0.6544
  872MOL0     H20303   1.307   8.556   8.522  1.7277  2.0567  2.6745
  872MOL0     H20304   1.231   8.301   8.644 -0.4861  1.2433 -0.8974
  872MOL0     H20305   1.384   8.368   8.673 -2.5230  0.2065  3.3917
  872MOL0     H20306   1.452   8.345   8.449  0.6177 -2.0374 -0.6797
  872MOL0     H20307   1.288   8.331   8.377  0.9189 -1.5942 -1.2991
  872MOL0     H20308   1.445   8.125   8.547  0.8894  2.8284  0.4464
  872MOL0     H20309   1.271   8.112   8.522  0.5029 -1.5454  0.6916
  872MOL0     H20310   1.518   8.063   8.345  0.3034 -4.0380 -0.6170
  872MOL0     H20311   1.367   8.108   8.260  2.3726  3.9356 -0.2559
  872MOL0     H20312   1.279   7.901   8.413 -1.6949  0.7084 -3.4451
  872MOL0     H20313   1.457   7.870   8.427  0.5310 -1.7330  0.1571
  872MOL0     H20314   1.480   7.838   8.186 -0.4386  0.7597  0.5171
  872MOL0     H20315   1.313   7.897   8.151  0.5278 -1.1329  0.2494
  872MOL0     H20316   1.138   8.747   8.870  0.1721 -1.4221 -2.2979
  872MOL0     H20317   1.173   8.953   9.050 -0.8401 -0.3822  0.5235
  872MOL0     H20318   1.230   9.128   9.440 -0.5394  0.7973 -1.6430
  872MOL0     H20319   1.292   9.284   9.627 -1.1166 -2.3957 -0.5250
  872MOL0     H20320   2.379   8.594  10.043 -0.9936  0.1932 -0.4618
  872MOL0     H20321   2.328   8.493  10.268 -0.6700 -1.1304  1.1110
  872MOL0     H20322   2.045   8.173  10.444 -2.2814  1.0369 -1.5850
  872MOL0     H20323   2.044   8.070  10.668  3.2584  1.5988 -1.9136
  872MOL0     H20324   2.005   8.006  10.878  0.5218 -0.9419  1.9019
  872MOL0     H20325   2.111   8.119  10.965 -0.5801  2.3221  0.3231
  872MOL0     H20326   1.999   7.954  11.110 -0.4283 -0.7116  0.0885
  872MOL0     H20327   1.845   8.009  11.058  1.1664 -1.0612  0.4086
  872MOL0     H20328   1.923   8.096  11.280  0.8291 -1.1872 -0.6828
  872MOL0     H20329   2.066   8.155  11.203 -0.5744  1.3807  1.8557
  872MOL0     H20330   1.781   8.250  11.159 -0.6838  1.3856  0.8686
  872MOL0     H20331   1.948   8.334  11.117 -0.1294  0.7286  0.7921
  872MOL0     H20332   1.928   8.442  11.508 -1.1242  0.0418  0.8459
  872MOL0     H20333   1.867   8.430  10.826  0.3949 -1.5746  1.2629
  872MOL0     H20334   1.843   8.600  10.494 -0.1549 -1.5602  0.3690
  872MOL0     H20335   1.786   8.608  10.663  0.7372 -0.1700  0.3420
  872MOL0     H20336   1.953   8.650  10.622  0.4176 -0.3225 -0.7562
  873MOL0     O20337   0.752   8.743   6.582 -0.5568 -0.1008  0.7388
  873MOL0     C20338   0.805   8.829   6.646  0.3123  0.8624 -0.8803
  873MOL0     O20339   0.754   8.951   6.648  0.2557 -0.7174  0.0406
  873MOL0     C20340   0.635   8.988   6.593 -0.0989  0.5529 -0.9709
  873MOL0     C20341   0.644   9.087   6.500  0.4907 -0.1912 -0.5975
  873MOL0     C20342   0.529   9.151   6.448 -0.6494  0.6671  0.1331
  873MOL0     C20343   0.401   9.111   6.492 -1.0987  0.2646  0.1544
  873MOL0     O20344   0.290   9.157   6.441  0.3356 -0.3135 -0.1386
  873MOL0     C20345   0.185   9.059   6.416 -0.0236 -0.2725 -0.7034
  873MOL0     C20346   0.106   9.099   6.293  1.5144 -0.3364  0.2967
  873MOL0     C20347   0.038   9.238   6.313 -0.3442  0.6280 -0.0272
  873MOL0     C20348  -0.071   9.266   6.220  0.8521 -0.6266 -0.2148
  873MOL0     C20349  -0.157   9.392   6.248 -1.1378  0.4497 -0.0275
  873MOL0     C20350  -0.259   9.371   6.362 -0.1594 -0.0304 -0.2525
  873MOL0     C20351  -0.325   9.504   6.404 -0.3587  0.1827 -0.2796
  873MOL0     C20352  -0.464   9.484   6.473 -0.1177  0.8360  0.4624
  873MOL0     N20353  -0.438   9.469   6.614 -0.9824  0.0581  0.6155
  873MOL0     C20354  -0.408   9.575   6.699 -0.2605  0.5538  0.2136
  873MOL0     C20355  -0.389   9.524   6.830 -0.1247 -0.4348 -0.0054
  873MOL0     C20356  -0.372   9.597   6.955  0.0406 -0.2901 -0.7392
  873MOL0     C20357  -0.499   9.664   6.996  0.6091  0.4954  0.7779
  873MOL0     C20358  -0.581   9.577   7.087  0.7207 -0.2829  0.4335
  873MOL0     C20359  -0.701   9.662   7.144 -0.5824 -0.2971 -0.7793
  873MOL0     O20360  -0.630   9.760   7.226  0.2519 -0.0631  0.0151
  873MOL0     C20361  -0.626   9.732   7.363 -0.1445 -0.2180 -0.5008
  873MOL0     C20362  -0.572   9.832   7.443  0.3426  0.9880  0.6501
  873MOL0     C20363  -0.563   9.823   7.586  0.2167  0.4175  0.2188
  873MOL0     C20364  -0.487   9.929   7.663 -0.4802 -0.2691  0.5831
  873MOL0     C20365  -0.624   9.706   7.646 -0.8151  0.0311 -0.0685
  873MOL0     C20366  -0.616   9.675   7.795 -0.9595 -0.3201  0.7264
  873MOL0     O20367  -0.597   9.780   7.880 -0.7295 -0.1303 -0.3782
  873MOL0     C20368  -0.569   9.765   8.010  0.2370 -1.3001 -1.1390
  873MOL0     C20369  -0.491   9.863   8.074  0.1931 -0.5558 -0.9721
  873MOL0     C20370  -0.461   9.858   8.213 -0.3253 -0.5931 -0.0325
  873MOL0     C20371  -0.498   9.750   8.295  0.7233 -0.4212 -0.6855
  873MOL0     O20372  -0.458   9.753   8.426  0.7691  0.9397 -0.0944
  873MOL0     C20373  -0.459   9.624   8.497  0.4904  0.4030  0.4088
  873MOL0     C20374  -0.384   9.642   8.635  0.9019 -0.9268 -0.3856
  873MOL0     C20375  -0.380   9.506   8.706  0.3732 -0.3456  0.3412
  873MOL0     C20376  -0.283   9.497   8.822  0.1337  0.3958 -0.5054
  873MOL0     C20377  -0.249   9.352   8.873  0.4423  0.0392  0.2113
  873MOL0     C20378  -0.342   9.298   8.977 -0.1650  0.1324  0.0837
  873MOL0     C20379  -0.330   9.141   8.994 -0.6634  0.1492 -0.4835
  873MOL0     C20380  -0.390   9.106   9.130  0.4955  0.1612  0.6243
  873MOL0    Cl20381  -0.559   9.176   9.142  0.0154  0.6572  0.3186
  873MOL0     C20382  -0.576   9.654   8.230  0.1266 -0.7326  0.0399
  873MOL0     C20383  -0.622   9.665   8.093  0.1770 -0.8716  0.9349
  873MOL0     O20384  -0.625   9.555   7.817 -0.7802 -0.2156 -0.7354
  873MOL0     C20385  -0.673   9.609   7.559  0.6106  0.4016  0.7360
  873MOL0     C20386  -0.675   9.625   7.418 -0.2734  0.2618 -0.6886
  873MOL0     N20387  -0.409   9.391   6.818 -0.3195 -0.0737 -0.7430
  873MOL0     N20388  -0.437   9.357   6.695 -0.2653  0.8562  0.1916
  873MOL0     C20389   0.400   9.013   6.590  0.3928 -0.4368 -0.2469
  873MOL0     C20390   0.512   8.947   6.640 -0.4038  0.4987  0.3910
  873MOL0     C20391   0.922   8.796   6.737 -0.3886 -0.4689 -0.4570
  873MOL0     C20392   1.010   8.906   6.759 -0.2835 -0.1667  0.4895
  873MOL0     C20393   1.130   8.890   6.829  1.0824 -0.0960  1.0048
  873MOL0     C20394   1.166   8.771   6.876  0.1304  0.9023 -1.3686
  873MOL0     O20395   1.282   8.758   6.945  0.5616 -0.5003  0.1344
  873MOL0     C20396   1.317   8.631   6.997  0.0778 -0.7283  0.6558
  873MOL0     C20397   1.458   8.645   7.055 -0.0446  0.3222  0.1938
  873MOL0     C20398   1.576   8.685   6.954  0.3899 -0.0418 -0.9698
  873MOL0     C20399   1.568   8.635   6.810  0.2199 -0.0101  0.3075
  873MOL0     C20400   1.683   8.694   6.738  0.1292  0.4394 -0.0777
  873MOL0     C20401   1.791   8.751   6.705 -0.1550  0.2083 -0.4368
  873MOL0     C20402   1.089   8.660   6.844  0.1735  0.6469  0.5156
  873MOL0     C20403   0.956   8.671   6.786 -0.2265 -0.2728 -0.9625
  873MOL0     C20404   0.880   8.542   6.777  0.4856  0.1301  0.2680
  873MOL0     H20405   0.744   9.118   6.473  0.5032  3.0435  2.4053
  873MOL0     H20406   0.533   9.227   6.370  3.0749  1.0693  0.5375
  873MOL0     H20407   0.122   9.041   6.503  0.8786 -2.4057 -0.4351
  873MOL0     H20408   0.231   8.964   6.387 -2.2003 -1.6713  0.1956
  873MOL0     H20409   0.160   9.102   6.198  0.0729  1.8476 -0.5287
  873MOL0     H20410   0.020   9.032   6.278  2.4256 -1.0075 -2.4829
  873MOL0     H20411   0.009   9.243   6.418 -3.0221 -1.6310 -0.5569
  873MOL0     H20412   0.109   9.319   6.296 -0.0860  0.7616  1.5089
  873MOL0     H20413  -0.020   9.284   6.125  0.9874  1.0508  0.1344
  873MOL0     H20414  -0.141   9.184   6.205 -1.1299  0.4659  2.3135
  873MOL0     H20415  -0.210   9.425   6.159  2.1916 -1.7344 -3.1084
  873MOL0     H20416  -0.087   9.468   6.284  0.3897 -0.6867 -0.4541
  873MOL0     H20417  -0.333   9.301   6.322  2.5674 -3.1473 -0.2932
  873MOL0     H20418  -0.214   9.338   6.456  0.0056  0.6455 -0.0838
  873MOL0     H20419  -0.341   9.569   6.318 -2.6985  1.4550  1.0171
  873MOL0     H20420  -0.264   9.570   6.466 -1.1190  1.5062 -0.8914
  873MOL0     H20421  -0.518   9.575   6.445  0.1834  0.2456 -2.2979
  873MOL0     H20422  -0.523   9.406   6.424 -1.4987  1.6536  0.7722
  873MOL0     H20423  -0.407   9.680   6.672 -1.0725  0.7444  0.8753
  873MOL0     H20424  -0.296   9.675   6.943 -1.1331  0.6986 -2.1373
  873MOL0     H20425  -0.349   9.522   7.031  0.7704 -0.7324 -1.3835
  873MOL0     H20426  -0.464   9.749   7.056  0.9639 -1.7489  3.9928
  873MOL0     H20427  -0.553   9.706   6.911  0.2454  2.0066  1.6988
  873MOL0     H20428  -0.619   9.487   7.038  3.3742 -0.2594 -1.9144
  873MOL0     H20429  -0.529   9.548   7.179 -0.3996 -0.8303  0.9231
  873MOL0     H20430  -0.763   9.711   7.068 -6.4186 -0.6447  3.0679
  873MOL0     H20431  -0.768   9.593   7.197  2.8330 -1.0000  3.0856
  873MOL0     H20432  -0.556   9.925   7.389  1.2601  0.9786  0.8784
  873MOL0     H20433  -0.422   9.987   7.596 -0.7239 -0.8729 -0.1812
  873MOL0     H20434  -0.418   9.887   7.737  1.7842  2.1925  0.0503
  873MOL0     H20435  -0.557  10.000   7.708 -0.1628  1.3349 -1.3286
  873MOL0     H20436  -0.457   9.953   8.023  0.5162  0.7889  1.4472
  873MOL0     H20437  -0.407   9.940   8.260  0.3681 -0.4014 -1.1238
  873MOL0     H20438  -0.563   9.590   8.504  1.1760 -1.8736  0.4203
  873MOL0     H20439  -0.413   9.555   8.426 -1.5752 -0.1537 -0.4738
  873MOL0     H20440  -0.283   9.674   8.606  1.5317 -1.3076  1.2734
  873MOL0     H20441  -0.423   9.720   8.701  3.8972  1.1273 -0.8089
  873MOL0     H20442  -0.338   9.435   8.634  1.1449  0.5742 -0.1410
  873MOL0     H20443  -0.481   9.473   8.730  0.3679  0.5839  1.6777
  873MOL0     H20444  -0.315   9.551   8.912  0.8653 -2.0262  1.3098
  873MOL0     H20445  -0.188   9.535   8.783  0.2937  1.7826  1.1082
  873MOL0     H20446  -0.249   9.292   8.781  2.6263 -0.3676  0.4161
  873MOL0     H20447  -0.147   9.362   8.910  0.8993  2.0955 -1.3704
  873MOL0     H20448  -0.447   9.315   8.953 -0.7844 -2.7546  0.4182
  873MOL0     H20449  -0.325   9.349   9.073 -0.1047  2.4468 -1.0764
  873MOL0     H20450  -0.226   9.109   8.981 -0.7904 -0.9600  0.9253
  873MOL0     H20451  -0.393   9.083   8.927  1.0661  0.5071 -2.4979
  873MOL0     H20452  -0.341   9.148   9.218  1.5157  0.1613  0.0636
  873MOL0     H20453  -0.383   8.997   9.134  0.0428  0.1103  0.1123
  873MOL0     H20454  -0.609   9.572   8.293 -1.7577 -0.5107 -0.6016
  873MOL0     H20455  -0.697   9.590   8.070 -3.2781  2.0289  1.8095
  873MOL0     H20456  -0.715   9.526   7.613  3.9670 -1.6686  0.4359
  873MOL0     H20457  -0.708   9.537   7.364  0.6402 -0.2890 -0.3679
  873MOL0     H20458   0.309   8.985   6.642 -1.5610 -1.4379 -3.8574
  873MOL0     H20459   0.502   8.863   6.707  1.0640 -0.7505 -0.8642
  873MOL0     H20460   0.983   9.007   6.731  1.8163 -0.3229 -2.7515
  873MOL0     H20461   1.192   8.979   6.841  1.4288 -0.2032  0.0707
  873MOL0     H20462   1.242   8.610   7.073 -0.2646  1.1553  0.8894
  873MOL0     H20463   1.319   8.559   6.915 -1.8943  0.8420 -0.8816
  873MOL0     H20464   1.485   8.545   7.090  1.0131 -0.8618 -3.5489
  873MOL0     H20465   1.450   8.715   7.138 -1.0590  0.5557 -0.0799
  873MOL0     H20466   1.587   8.794   6.949  4.6429 -0.3281 -1.4706
  873MOL0     H20467   1.669   8.646   6.998 -1.1777  0.3061  3.1583
  873MOL0     H20468   1.475   8.665   6.761  0.8113  1.2110 -0.1021
  873MOL0     H20469   1.576   8.527   6.790  0.0695  0.2202 -1.0761
  873MOL0     H20470   1.869   8.820   6.680 -2.2939  2.9271  0.0265
  873MOL0     H20471   1.106   8.561   6.884  1.0197  1.3074  1.8665
  873MOL0     H20472   0.875   8.506   6.673  1.4026  1.0289 -0.0996
  873MOL0     H20473   0.917   8.468   6.848 -0.5815 -2.0152 -1.2736
  873MOL0     H20474   0.781   8.567   6.816  0.9391  1.8723  0.3626
  874MOL0     O20475   7.274  10.848   7.617  0.1212  0.1640 -0.5748
  874MOL0     C20476   7.286  10.766   7.709 -0.5017 -1.5681  1.0562
  874MOL0     O20477   7.195  10.751   7.809 -0.4590  0.4272  0.6373
  874MOL0     C20478   7.078  10.704   7.777 -0.0161 -0.2067  0.0330
  874MOL0     C20479   6.971  10.703   7.878 -0.2807  0.0649  0.3733
  874MOL0     C20480   6.852  10.633   7.852  0.1918  1.2918 -0.2466
  874MOL0     C20481   6.833  10.562   7.733  0.2638  1.0546 -0.2184
  874MOL0     O20482   6.719  10.490   7.708  0.1878 -1.2875  0.3522
  874MOL0     C20483   6.620  10.560   7.633  0.8641 -0.2325  0.2393
  874MOL0     C20484   6.517  10.461   7.582  0.6178 -0.3954 -0.0649
  874MOL0     C20485   6.421  10.541   7.488  0.5092  0.5525  0.3737
  874MOL0     C20486   6.328  10.448   7.411  0.3973 -0.0157  0.1639
  874MOL0     C20487   6.219  10.520   7.338  0.3500 -0.4137  0.2228
  874MOL0     C20488   6.118  10.596   7.429 -0.1589  0.2830 -0.2493
  874MOL0     C20489   6.049  10.479   7.507  0.0452 -0.6749 -0.2198
  874MOL0     C20490   5.917  10.518   7.586 -0.1807 -0.4251  0.7122
  874MOL0     N20491   5.809  10.559   7.498  0.1150 -0.0413  0.1117
  874MOL0     C20492   5.751  10.473   7.406  0.0494 -0.5462 -0.0360
  874MOL0     C20493   5.625  10.512   7.388 -0.4302  0.6752  0.2241
  874MOL0     C20494   5.518  10.417   7.334  0.5495 -0.5569  0.8687
  874MOL0     C20495   5.377  10.487   7.355 -0.7245  0.7655  0.7181
  874MOL0     C20496   5.268  10.394   7.313 -0.2706  0.0903  0.1988
  874MOL0     C20497   5.132  10.463   7.323 -0.4518  0.1988 -0.1568
  874MOL0     O20498   5.022  10.372   7.311 -0.0094  0.0371 -0.5338
  874MOL0     C20499   4.976  10.349   7.185 -0.3831 -0.6166  0.2582
  874MOL0     C20500   4.946  10.444   7.094  1.5183 -0.4508 -0.3015
  874MOL0     C20501   4.910  10.414   6.968  0.7375 -0.3455 -0.0128
  874MOL0     C20502   4.854  10.514   6.868 -0.3888 -0.2001 -0.8276
  874MOL0     C20503   4.913  10.283   6.924 -0.1539  0.4953  0.1272
  874MOL0     C20504   4.887  10.240   6.787  0.0915  0.1350  0.2061
  874MOL0     O20505   4.849  10.105   6.776  0.4252 -0.0327 -0.2174
  874MOL0     C20506   4.817  10.049   6.647 -0.5912 -0.3688  0.2375
  874MOL0     C20507   4.837   9.916   6.641 -1.1479  1.0753  0.5936
  874MOL0     C20508   4.811   9.846   6.525 -0.0389 -0.2066 -0.1367
  874MOL0     C20509   4.756   9.911   6.414  0.3211  0.2433 -0.0356
  874MOL0     O20510   4.712   9.852   6.300 -0.0458 -0.5279  0.3619
  874MOL0     C20511   4.733   9.718   6.272 -0.0062  0.5678 -1.1514
  874MOL0     C20512   4.633   9.678   6.166  0.5434 -0.8602 -0.4082
  874MOL0     C20513   4.494   9.678   6.222 -0.4771  0.3567  0.4550
  874MOL0     C20514   4.397   9.758   6.121 -0.6526  0.6674  0.0031
  874MOL0     C20515   4.258   9.685   6.135 -0.1962 -0.4741  0.1887
  874MOL0     C20516   4.237   9.594   6.016 -0.3538 -0.1677  0.0441
  874MOL0     C20517   4.084   9.572   5.992 -0.0314  0.2830 -0.8900
  874MOL0     C20518   4.065   9.491   5.864  0.1682  0.1958 -0.3451
  874MOL0    Cl20519   4.075   9.603   5.716 -0.1760  0.3926  0.0320
  874MOL0     C20520   4.739  10.048   6.420 -1.6624 -0.4702 -0.8306
  874MOL0     C20521   4.772  10.121   6.536  0.9134 -0.2719 -0.7184
  874MOL0     O20522   4.925  10.308   6.690  0.1340 -0.6155 -0.0907
  874MOL0     C20523   4.956  10.183   7.012 -0.0892 -0.8302  0.2721
  874MOL0     C20524   4.965  10.218   7.147  0.8164  0.8570  0.1726
  874MOL0     N20525   5.611  10.629   7.461 -0.7179 -0.1615 -0.0394
  874MOL0     N20526   5.717  10.649   7.528 -0.5780 -0.3528  0.2133
  874MOL0     C20527   6.934  10.570   7.640 -0.8338 -0.3973 -1.0100
  874MOL0     C20528   7.056  10.641   7.652 -0.1068 -0.8322 -0.0706
  874MOL0     C20529   7.402  10.671   7.704 -0.1550 -0.8049  0.1185
  874MOL0     C20530   7.387  10.552   7.776  0.7275  0.4865  0.1798
  874MOL0     C20531   7.494  10.457   7.798  0.3926 -0.4027  0.1991
  874MOL0     C20532   7.616  10.481   7.733 -0.1553 -0.0253  0.6260
  874MOL0     O20533   7.715  10.383   7.750 -0.3598  0.2086  0.1093
  874MOL0     C20534   7.856  10.403   7.709 -0.8222  1.1135  0.0659
  874MOL0     C20535   7.894  10.363   7.567 -0.8207 -0.4973  0.9396
  874MOL0     C20536   7.840  10.233   7.540  0.4775  0.3612 -0.3025
  874MOL0     C20537   7.909  10.150   7.425 -0.2392 -1.6246  0.3272
  874MOL0     C20538   7.919  10.004   7.450 -0.5169  0.5788  0.4780
  874MOL0     C20539   7.932   9.882   7.461 -1.1814 -0.3183 -0.2898
  874MOL0     C20540   7.636  10.603   7.665  0.5434 -0.8294 -1.0105
  874MOL0     C20541   7.529  10.693   7.642 -0.4074  0.5341 -0.8289
  874MOL0     C20542   7.558  10.811   7.555  1.1901 -0.0430 -0.1827
  874MOL0     H20543   6.999  10.756   7.969  0.9227  0.5504 -0.2533
  874MOL0     H20544   6.769  10.630   7.921  1.1498 -0.6428  0.9097
  874MOL0     H20545   6.669  10.611   7.549  0.5125  0.1196  0.2457
  874MOL0     H20546   6.565  10.634   7.692 -2.4031 -2.5193  0.3053
  874MOL0     H20547   6.571  10.378   7.534  3.9204  0.0551  2.4857
  874MOL0     H20548   6.453  10.430   7.665 -0.2359  3.2909  0.8306
  874MOL0     H20549   6.363  10.617   7.541  3.1760  3.3055 -0.3830
  874MOL0     H20550   6.477  10.600   7.415  2.8897  0.2314  1.8546
  874MOL0     H20551   6.385  10.395   7.334 -1.9031 -2.5806  0.0593
  874MOL0     H20552   6.280  10.369   7.470 -0.6564  2.0569  2.2450
  874MOL0     H20553   6.151  10.457   7.281 -0.5601  2.6146 -2.3693
  874MOL0     H20554   6.263  10.591   7.267  0.3356 -5.1256 -5.1714
  874MOL0     H20555   6.166  10.665   7.499  0.1343 -3.4583  3.6809
  874MOL0     H20556   6.043  10.647   7.368 -0.8964 -0.8167 -0.3046
  874MOL0     H20557   6.128  10.457   7.580  3.6690  0.5998 -3.4592
  874MOL0     H20558   6.024  10.392   7.445  3.6554 -1.1497 -1.1855
  874MOL0     H20559   5.886  10.436   7.652  0.7704  0.8132  2.7762
  874MOL0     H20560   5.935  10.596   7.660  2.2676 -1.0454  0.8693
  874MOL0     H20561   5.785  10.370   7.398 -3.1306 -2.2388  4.1877
  874MOL0     H20562   5.537  10.318   7.378  1.2426 -0.2291  1.3254
  874MOL0     H20563   5.533  10.418   7.226  2.7146 -0.4634  1.1160
  874MOL0     H20564   5.360  10.508   7.461  1.7374  1.1768  1.0998
  874MOL0     H20565   5.358  10.579   7.298  1.6029  1.1406  0.4482
  874MOL0     H20566   5.273  10.345   7.216  3.5754 -0.6678  0.6247
  874MOL0     H20567   5.267  10.308   7.381  1.6902  0.8912  1.3255
  874MOL0     H20568   5.124  10.495   7.427  1.9409 -2.1337  0.8748
  874MOL0     H20569   5.129  10.546   7.252  0.3483  1.7016  1.4932
  874MOL0     H20570   4.932  10.547   7.125  1.4214 -0.8956  1.2043
  874MOL0     H20571   4.771  10.474   6.808 -0.0657  1.9428 -2.8227
  874MOL0     H20572   4.932  10.539   6.796 -1.5270 -0.1016 -2.0714
  874MOL0     H20573   4.823  10.610   6.910  1.9441  0.0796  0.3866
  874MOL0     H20574   4.869   9.855   6.725  0.1769 -1.3127 -1.4907
  874MOL0     H20575   4.838   9.742   6.516 -1.8442 -0.7999  0.8510
  874MOL0     H20576   4.837   9.702   6.242  0.3958 -0.6072  0.7383
  874MOL0     H20577   4.717   9.650   6.356 -0.2332 -0.6073 -2.1113
  874MOL0     H20578   4.640   9.764   6.099  0.2534 -1.6877 -1.5390
  874MOL0     H20579   4.660   9.584   6.117  0.0475 -1.4358  0.3988
  874MOL0     H20580   4.483   9.728   6.319  0.3106 -0.3310  0.9044
  874MOL0     H20581   4.462   9.574   6.232  1.2091 -0.0640  2.2810
  874MOL0     H20582   4.437   9.755   6.019 -0.5253 -0.0281  0.0665
  874MOL0     H20583   4.401   9.863   6.151 -3.3835  1.2305 -1.3361
  874MOL0     H20584   4.250   9.637   6.233  0.0664 -0.8603  0.0229
  874MOL0     H20585   4.195   9.774   6.124 -1.3838 -0.7171  3.6533
  874MOL0     H20586   4.290   9.499   6.027  1.2059  0.5285 -1.1155
  874MOL0     H20587   4.272   9.639   5.923  0.3081  0.2756  0.4987
  874MOL0     H20588   4.025   9.663   5.995  1.4802  1.3007 -0.6396
  874MOL0     H20589   4.056   9.516   6.082  0.6038 -0.1297 -0.9417
  874MOL0     H20590   3.973   9.433   5.867 -0.2804  0.9165  0.9526
  874MOL0     H20591   4.145   9.416   5.860  0.1992  0.0225  1.9328
  874MOL0     H20592   4.689  10.109   6.346 -0.4895  0.7499 -0.6631
  874MOL0     H20593   4.740  10.225   6.545 -3.5749 -1.4435 -0.9031
  874MOL0     H20594   4.992  10.090   6.970  1.1689 -0.8112  1.2370
  874MOL0     H20595   4.976  10.137   7.218  0.7761  2.6099  2.2564
  874MOL0     H20596   6.919  10.517   7.547  2.2196 -0.6254 -1.4875
  874MOL0     H20597   7.137  10.635   7.581  0.6489  0.5488  0.6221
  874MOL0     H20598   7.295  10.532   7.831  2.9568  1.1657  4.6292
  874MOL0     H20599   7.482  10.365   7.856  1.2092 -0.9415 -0.4710
  874MOL0     H20600   7.889  10.507   7.721 -0.1747  0.8050  1.1507
  874MOL0     H20601   7.920  10.339   7.770  0.2171  1.9232 -0.1404
  874MOL0     H20602   8.003  10.365   7.552 -0.5748 -1.1216  2.4432
  874MOL0     H20603   7.854  10.437   7.498  4.1285 -0.3807 -2.3042
  874MOL0     H20604   7.869  10.171   7.626  1.3698 -0.5400 -1.2089
  874MOL0     H20605   7.734  10.232   7.517  0.3238  3.0241  0.0515
  874MOL0     H20606   8.008  10.191   7.401 -0.2747 -1.7451 -0.0353
  874MOL0     H20607   7.847  10.169   7.337 -0.5222  1.4553  1.0802
  874MOL0     H20608   7.936   9.775   7.465 -0.7237 -0.3060 -0.3700
  874MOL0     H20609   7.730  10.621   7.614  1.7234  0.6811  1.4960
  874MOL0     H20610   7.662  10.805   7.522  0.3178  2.2138 -3.9464
  874MOL0     H20611   7.495  10.817   7.465  1.3467 -1.3382 -0.3944
  874MOL0     H20612   7.532  10.902   7.610 -0.4749 -0.9985  0.6955
  875MOL0     O20613   2.336   0.644  11.480 -1.2582 -0.3082  0.7472
  875MOL0     C20614   2.312   0.531  11.416 -0.4196  0.1768 -0.1202
  875MOL0     O20615   2.401   0.463  11.331 -0.3665  0.0021 -0.8290
  875MOL0     C20616   2.531   0.492  11.346  0.1199 -0.0847  0.2749
  875MOL0     C20617   2.607   0.527  11.239  0.3284  0.7014 -0.0064
  875MOL0     C20618   2.746   0.538  11.253  0.4698  0.2390  0.0866
  875MOL0     C20619   2.812   0.528  11.372  0.3742 -0.5880  0.1747
  875MOL0     O20620   2.956   0.544  11.380  0.0609  0.4801  0.2036
  875MOL0     C20621   3.001   0.555  11.513 -0.4911 -0.8940  0.3171
  875MOL0     C20622   3.154   0.586  11.522  0.2093  0.3489 -0.4477
  875MOL0     C20623   3.222   0.525  11.648  1.1250  0.0774  0.7502
  875MOL0     C20624   3.368   0.576  11.650  0.9943 -0.7946  0.3263
  875MOL0     C20625   3.422   0.597  11.789 -0.7592 -0.2102 -0.1574
  875MOL0     C20626   3.421   0.467  11.864  0.1989 -0.7930 -0.3535
  875MOL0     C20627   3.456   0.490  12.010  0.1483 -1.1380 -0.1150
  875MOL0     C20628   3.344   0.564  12.086  1.1060 -0.1644 -0.4181
  875MOL0     N20629   3.209   0.510  12.089 -0.8250  0.1868 -0.6044
  875MOL0     C20630   3.147   0.417  12.171  0.7994  0.2110  0.0613
  875MOL0     C20631   3.019   0.414  12.138 -0.3451 -0.2856  0.2748
  875MOL0     C20632   2.913   0.358  12.222 -0.6509  0.2157  0.0159
  875MOL0     C20633   2.916   0.444  12.355 -1.4676 -0.3661  0.2257
  875MOL0     C20634   2.780   0.415  12.433  0.0086  0.1931  0.7708
  875MOL0     C20635   2.711   0.274  12.432 -0.1327 -0.0882  0.3450
  875MOL0     O20636   2.801   0.175  12.497  0.4353 -0.0160  0.4480
  875MOL0     C20637   2.800   0.174  12.627  0.3444 -0.3122  0.1923
  875MOL0     C20638   2.689   0.123  12.700  0.2560 -1.3264  0.2322
  875MOL0     C20639   2.693   0.128  12.842  0.9006  1.0931 -0.2265
  875MOL0     C20640   2.565   0.087  12.907 -0.8087  0.6981  0.0828
  875MOL0     C20641   2.808   0.157  12.911 -0.7367 -0.5399 -0.1029
  875MOL0     C20642   2.826   0.148  13.056 -0.0969  0.0481  0.5902
  875MOL0     O20643   2.961   0.142  13.099  0.1679  0.0080 -0.2918
  875MOL0     C20644   2.991   0.087  13.216 -0.8023 -0.2084 -0.3081
  875MOL0     C20645   2.985   0.149  13.342 -0.7130  0.2463  0.4604
  875MOL0     C20646   2.997   0.065  13.454 -0.7306 -0.3889  0.6035
  875MOL0     C20647   3.045  -0.063  13.444 -0.5774 -0.2243  0.2846
  875MOL0     O20648   3.038  -0.140  13.555  0.3258 -0.0340 -0.3308
  875MOL0     C20649   2.907  -0.169  13.601  0.2516  0.3580 -0.1454
  875MOL0     C20650   2.898  -0.236  13.732  0.5659  0.2656 -0.6323
  875MOL0     C20651   2.977  -0.364  13.739 -0.0746  0.6438 -0.2273
  875MOL0     C20652   2.996  -0.401  13.893 -0.3121  0.4028 -0.9470
  875MOL0     C20653   3.127  -0.477  13.919  0.3082  0.3326 -0.2771
  875MOL0     C20654   3.113  -0.627  13.889  0.2689 -0.6209 -0.3669
  875MOL0     C20655   3.248  -0.685  13.845 -0.6750 -0.4050 -0.4459
  875MOL0     C20656   3.356  -0.662  13.946 -0.5663 -0.3244  0.1634
  875MOL0    Cl20657   3.292  -0.743  14.095 -0.6001  0.4697 -0.1460
  875MOL0     C20658   3.083  -0.115  13.320 -0.1126 -0.2004  1.0163
  875MOL0     C20659   3.045  -0.039  13.212 -0.8895  0.3821  0.0240
  875MOL0     O20660   2.734   0.141  13.130  0.6729  0.2957  0.0751
  875MOL0     C20661   2.916   0.213  12.828  0.2547  0.2378 -0.0477
  875MOL0     C20662   2.905   0.228  12.693  0.1772  0.2546 -0.9756
  875MOL0     N20663   3.000   0.496  12.025  0.0986  0.2642 -0.2368
  875MOL0     N20664   3.109   0.565  12.013  1.6241  0.3248 -0.0225
  875MOL0     C20665   2.737   0.504  11.485 -0.0001 -1.2654  0.4559
  875MOL0     C20666   2.599   0.477  11.468  0.3559 -0.8339 -0.0508
  875MOL0     C20667   2.173   0.468  11.442  0.3489 -0.1355  0.5505
  875MOL0     C20668   2.146   0.347  11.375 -0.6412 -0.7573  0.2291
  875MOL0     C20669   2.019   0.285  11.395  0.5637 -0.9556 -0.5575
  875MOL0     C20670   1.924   0.334  11.485 -0.3640  0.8319 -0.3462
  875MOL0     O20671   1.801   0.282  11.511  0.2327 -0.0321  0.2842
  875MOL0     C20672   1.753   0.165  11.436 -0.3856 -0.7351  0.5491
  875MOL0     C20673   1.697   0.188  11.296 -0.0259 -0.4097 -0.2859
  875MOL0     C20674   1.637   0.069  11.217 -0.4534  1.4287 -0.2509
  875MOL0     C20675   1.589   0.112  11.078  0.2259 -0.2652  0.2386
  875MOL0     C20676   1.507   0.008  11.012 -0.3576  0.5775 -0.3290
  875MOL0     C20677   1.451  -0.096  10.981 -0.5276  0.3394  0.2331
  875MOL0     C20678   1.943   0.452  11.536  0.0196  0.1674  0.2102
  875MOL0     C20679   2.068   0.529  11.521  0.3253 -0.0337  0.1181
  875MOL0     C20680   2.087   0.656  11.589  0.2661  0.0466 -0.4520
  875MOL0     H20681   2.550   0.523  11.147  0.0493 -0.2501  0.1981
  875MOL0     H20682   2.803   0.580  11.171  2.1961  1.4505  1.8205
  875MOL0     H20683   2.981   0.462  11.567  3.3434 -2.0722  0.0032
  875MOL0     H20684   2.944   0.634  11.563  0.4738 -0.9930  1.6051
  875MOL0     H20685   3.193   0.544  11.429 -1.4205  0.0309 -1.0249
  875MOL0     H20686   3.171   0.694  11.514 -1.3744  0.5153 -2.7082
  875MOL0     H20687   3.161   0.548  11.736 -0.9834  2.1074 -1.1106
  875MOL0     H20688   3.228   0.415  11.646  1.6526  0.1112 -1.5440
  875MOL0     H20689   3.430   0.506  11.593  1.7863  1.9094 -2.4157
  875MOL0     H20690   3.381   0.672  11.600 -1.2779 -0.6824 -0.1401
  875MOL0     H20691   3.363   0.667  11.849 -0.3813  0.0440 -0.0785
  875MOL0     H20692   3.524   0.637  11.784 -1.7156  2.3132 -0.9841
  875MOL0     H20693   3.324   0.420  11.846 -0.5983  0.4448  0.4864
  875MOL0     H20694   3.502   0.406  11.823  0.8453 -1.3447  1.6401
  875MOL0     H20695   3.552   0.542  12.019  0.4541 -1.5720 -0.8139
  875MOL0     H20696   3.464   0.390  12.054 -0.6233 -1.3513 -0.4461
  875MOL0     H20697   3.382   0.584  12.187  2.3233  0.7862 -1.0383
  875MOL0     H20698   3.327   0.658  12.033 -4.6325 -1.2430 -1.1429
  875MOL0     H20699   3.186   0.362  12.256 -1.6149 -2.6442 -0.5358
  875MOL0     H20700   2.938   0.254  12.244  1.0950  0.9008  1.4935
  875MOL0     H20701   2.810   0.368  12.187 -0.6746 -3.9782 -1.7983
  875MOL0     H20702   3.005   0.408  12.407 -0.2463  0.1588 -1.3937
  875MOL0     H20703   2.935   0.550  12.338 -0.9739 -0.3626  0.7696
  875MOL0     H20704   2.766   0.444  12.538 -1.9242 -1.0154  0.9036
  875MOL0     H20705   2.703   0.467  12.375 -0.9716 -2.0637 -0.0698
  875MOL0     H20706   2.617   0.272  12.489 -0.0528 -1.4055  0.4524
  875MOL0     H20707   2.691   0.242  12.330 -1.5192 -3.6916  1.5878
  875MOL0     H20708   2.604   0.096  12.638 -0.1981  0.7676 -0.1484
  875MOL0     H20709   2.479   0.055  12.849 -0.6978 -0.5630  0.5742
  875MOL0     H20710   2.535   0.169  12.973 -3.5397 -0.3478  0.2609
  875MOL0     H20711   2.597  -0.002  12.962  0.8667 -0.0807 -2.0224
  875MOL0     H20712   2.952   0.253  13.343 -2.0908 -0.0870 -1.7359
  875MOL0     H20713   2.990   0.114  13.551  2.2134 -0.0520  0.7328
  875MOL0     H20714   2.859  -0.072  13.614  1.2025  0.7833  0.3555
  875MOL0     H20715   2.861  -0.222  13.517 -3.0638  0.8805  1.2135
  875MOL0     H20716   2.954  -0.163  13.790  0.0844  1.4162 -1.5706
  875MOL0     H20717   2.795  -0.257  13.764  0.8604  0.6125  0.5846
  875MOL0     H20718   3.079  -0.357  13.701  0.1053 -1.5168 -0.2548
  875MOL0     H20719   2.923  -0.437  13.679  0.2741 -1.3610  1.7521
  875MOL0     H20720   2.917  -0.462  13.938  3.7597 -1.9878  4.1169
  875MOL0     H20721   3.009  -0.305  13.944  0.3900  0.3427 -0.9984
  875MOL0     H20722   3.204  -0.430  13.856  1.7607 -0.6461  0.7107
  875MOL0     H20723   3.151  -0.457  14.024 -3.5616  1.5549  0.5166
  875MOL0     H20724   3.037  -0.637  13.811 -3.0567  1.1504  2.4046
  875MOL0     H20725   3.072  -0.676  13.978  1.5271 -1.9188 -0.4595
  875MOL0     H20726   3.276  -0.644  13.748  0.1213 -0.8504 -0.4133
  875MOL0     H20727   3.231  -0.793  13.831  1.3275 -0.5801 -1.9497
  875MOL0     H20728   3.369  -0.555  13.966 -2.9817  0.2297 -0.8706
  875MOL0     H20729   3.447  -0.714  13.916  0.6477  1.0085  1.3530
  875MOL0     H20730   3.122  -0.216  13.310 -0.4479 -0.4236  1.9111
  875MOL0     H20731   3.072  -0.068  13.110  1.5291 -0.6172  0.8824
  875MOL0     H20732   3.006   0.255  12.872  0.7974 -0.9720  0.0219
  875MOL0     H20733   2.972   0.296  12.642 -1.2820  1.8184 -0.8905
  875MOL0     H20734   2.780   0.499  11.584  1.2720  1.6522  0.1658
  875MOL0     H20735   2.540   0.447  11.554  0.3251 -1.7547 -0.3901
  875MOL0     H20736   2.214   0.310  11.299  0.9671 -0.3683  1.3973
  875MOL0     H20737   1.999   0.208  11.321  3.8440 -1.0090 -1.5362
  875MOL0     H20738   1.828   0.086  11.429 -1.0506 -1.2203 -2.0604
  875MOL0     H20739   1.673   0.126  11.499 -1.8113  1.0907 -0.0192
  875MOL0     H20740   1.772   0.245  11.240  0.5402 -1.1795 -0.3230
  875MOL0     H20741   1.615   0.260  11.307  1.7032  1.5672  0.3315
  875MOL0     H20742   1.718  -0.005  11.208 -0.5178  0.6042  4.0810
  875MOL0     H20743   1.552   0.012  11.256 -0.5081  0.6077 -1.4832
  875MOL0     H20744   1.682   0.115  11.020  0.8593 -0.0160  1.2515
  875MOL0     H20745   1.534   0.206  11.080 -0.0335 -0.3795 -0.8514
  875MOL0     H20746   1.404  -0.189  10.955 -0.0101 -0.2313  1.2811
  875MOL0     H20747   1.859   0.492  11.591  1.0501 -3.5461  5.1875
  875MOL0     H20748   2.112   0.734  11.516 -0.9494  2.1630  1.2623
  875MOL0     H20749   1.997   0.689  11.642  1.6378 -1.0619  2.8179
  875MOL0     H20750   2.165   0.651  11.665  1.0468  4.1114 -0.7407
  876MOL0     O20751   6.530   8.946   7.680  0.0786 -0.6986  0.3069
  876MOL0     C20752   6.579   9.014   7.773  0.1511 -0.1627 -0.4552
  876MOL0     O20753   6.706   9.043   7.789  0.2391  0.4489 -0.2992
  876MOL0     C20754   6.780   9.050   7.680  0.0096  0.8692 -0.4500
  876MOL0     C20755   6.753   9.131   7.568 -0.1126  0.3582  0.4486
  876MOL0     C20756   6.865   9.167   7.474  0.8625 -1.2891 -0.8127
  876MOL0     C20757   6.989   9.113   7.500  0.5453  0.4753  0.3883
  876MOL0     O20758   7.084   9.143   7.402 -0.3109 -0.5497  0.3564
  876MOL0     C20759   7.215   9.093   7.443  0.9398 -0.1514  0.6743
  876MOL0     C20760   7.317   9.138   7.333 -0.0563  0.7627 -0.3834
  876MOL0     C20761   7.278   9.086   7.186  0.0250  0.2786  0.8842
  876MOL0     C20762   7.396   9.130   7.089  0.4368 -0.2768  0.0289
  876MOL0     C20763   7.391   9.068   6.950 -0.1222  0.2665  0.1797
  876MOL0     C20764   7.535   9.065   6.900  0.5067 -0.0937  0.6366
  876MOL0     C20765   7.526   9.010   6.752 -0.1516  0.1715 -0.1946
  876MOL0     C20766   7.659   8.961   6.689  0.2670  0.1909 -0.9629
  876MOL0     N20767   7.733   8.863   6.775  0.6106  0.3611 -0.1596
  876MOL0     C20768   7.848   8.891   6.848  1.1647 -0.0267 -0.2343
  876MOL0     C20769   7.881   8.766   6.889  0.0266  0.0522 -0.4647
  876MOL0     C20770   7.985   8.720   6.982 -0.0392  0.2518 -0.0466
  876MOL0     C20771   8.025   8.794   7.114  0.2699  0.9149 -0.0492
  876MOL0     C20772   8.075   8.704   7.222  0.6494  0.9694 -1.0421
  876MOL0     C20773   8.105   8.801   7.351  0.1541  0.4484  0.4302
  876MOL0     O20774   8.021   8.747   7.463 -0.2076  0.0215 -0.0188
  876MOL0     C20775   7.994   8.823   7.574 -0.6889  0.0986  0.1106
  876MOL0     C20776   8.097   8.890   7.647 -0.1011  0.1141  0.3770
  876MOL0     C20777   8.066   8.975   7.749 -1.0985  0.7832 -1.0560
  876MOL0     C20778   8.178   9.041   7.821  0.0793  0.0344  0.4373
  876MOL0     C20779   7.934   8.981   7.802 -0.0098  0.4539 -0.2795
  876MOL0     C20780   7.893   9.063   7.927  0.1235 -0.1480 -0.5080
  876MOL0     O20781   7.984   9.105   8.016 -0.3945  0.0694  0.8196
  876MOL0     C20782   7.965   9.200   8.110  0.6593 -0.4852  0.3287
  876MOL0     C20783   8.065   9.206   8.204 -1.2785  0.0137  0.1874
  876MOL0     C20784   8.065   9.305   8.301 -0.3982  0.2415 -1.3202
  876MOL0     C20785   7.959   9.397   8.316 -0.2672  0.3532 -0.5590
  876MOL0     O20786   7.947   9.497   8.411 -0.2333  0.4977 -0.2561
  876MOL0     C20787   8.004   9.615   8.360 -0.5534 -0.8249  0.4944
  876MOL0     C20788   8.147   9.661   8.413 -0.0175  0.1212 -1.0646
  876MOL0     C20789   8.152   9.706   8.560  0.6765 -0.8322 -0.4239
  876MOL0     C20790   8.294   9.742   8.600  0.0825  1.1233 -0.0348
  876MOL0     C20791   8.308   9.794   8.739  0.0119 -0.3782 -0.8797
  876MOL0     C20792   8.275   9.949   8.741 -0.0762 -0.1597  0.9171
  876MOL0     C20793   8.174   9.983   8.850  0.2154 -0.5923  0.2867
  876MOL0     C20794   8.200   9.935   8.988 -0.5303  0.3390 -0.0291
  876MOL0    Cl20795   8.087   9.996   9.109  0.2196  0.0550  0.1297
  876MOL0     C20796   7.856   9.391   8.218 -0.4098 -0.1999  0.9814
  876MOL0     C20797   7.864   9.296   8.114  0.9461 -0.6492 -1.1481
  876MOL0     O20798   7.772   9.091   7.930  0.0678 -0.5894  0.3999
  876MOL0     C20799   7.834   8.909   7.734  0.6578 -0.4642 -1.2871
  876MOL0     C20800   7.860   8.834   7.618  0.1272  0.9841  0.4174
  876MOL0     N20801   7.785   8.676   6.859 -0.0044 -0.6773  1.1315
  876MOL0     N20802   7.691   8.732   6.785  0.3058 -1.2615  0.1482
  876MOL0     C20803   7.016   9.037   7.614  0.1779 -0.2523 -0.3298
  876MOL0     C20804   6.912   8.996   7.695  0.1846 -0.0700  0.1716
  876MOL0     C20805   6.494   9.050   7.890 -0.6233 -0.2669  0.5379
  876MOL0     C20806   6.556   9.051   8.020 -0.2173  0.1584  0.2367
  876MOL0     C20807   6.484   9.079   8.139 -0.3456  0.6400 -0.7330
  876MOL0     C20808   6.348   9.093   8.144  0.5543  0.0635  0.1247
  876MOL0     O20809   6.280   9.122   8.266 -0.6314  0.0146  0.1077
  876MOL0     C20810   6.137   9.135   8.267  1.6045  0.8470 -0.2481
  876MOL0     C20811   6.096   9.076   8.411 -0.6252 -0.3472  0.2587
  876MOL0     C20812   6.156   9.157   8.529 -0.3671  0.6856 -0.1760
  876MOL0     C20813   6.049   9.216   8.609  0.1783 -0.1628 -0.7921
  876MOL0     C20814   6.107   9.273   8.728  0.1585 -0.2821 -0.3166
  876MOL0     C20815   6.160   9.319   8.826 -0.0293  0.0260 -0.4718
  876MOL0     C20816   6.296   9.107   8.014  1.4873  0.0975  0.7485
  876MOL0     C20817   6.355   9.082   7.891 -0.1951  0.2994  0.3946
  876MOL0     C20818   6.273   9.088   7.762 -0.9523 -0.1642 -0.1862
  876MOL0     H20819   6.652   9.162   7.542 -0.8181 -2.4356 -0.5193
  876MOL0     H20820   6.843   9.226   7.386 -0.0705 -1.7281 -0.8874
  876MOL0     H20821   7.223   8.984   7.448  0.0569 -0.3291 -1.0012
  876MOL0     H20822   7.242   9.141   7.538 -1.5185  1.0252  0.8407
  876MOL0     H20823   7.345   9.243   7.327 -1.4831  1.2298  0.6433
  876MOL0     H20824   7.402   9.074   7.360  1.0835  2.3540 -0.0478
  876MOL0     H20825   7.252   8.980   7.177 -2.4668  0.7404  1.9405
  876MOL0     H20826   7.188   9.138   7.154  0.5203  1.3787  1.2170
  876MOL0     H20827   7.415   9.238   7.087  2.9665 -0.6509 -0.0053
  876MOL0     H20828   7.480   9.089   7.146 -2.7068 -4.0358  2.4664
  876MOL0     H20829   7.322   9.121   6.882 -0.9888 -1.1702 -0.1127
  876MOL0     H20830   7.360   8.963   6.953  0.1249  0.2250  2.4118
  876MOL0     H20831   7.570   9.169   6.898  0.5406 -0.1094  0.4163
  876MOL0     H20832   7.610   9.014   6.961  2.3183  0.7288 -0.7996
  876MOL0     H20833   7.492   9.086   6.680  3.1017  2.4070  0.4202
  876MOL0     H20834   7.445   8.940   6.731 -0.4783  0.2217  0.8665
  876MOL0     H20835   7.632   8.901   6.601  0.9273  0.1167 -1.1168
  876MOL0     H20836   7.723   9.046   6.663  2.8994 -1.3964 -0.0549
  876MOL0     H20837   7.904   8.981   6.872 -1.3883  1.5600  0.2248
  876MOL0     H20838   8.071   8.733   6.915 -0.0720 -0.4226 -0.2274
  876MOL0     H20839   7.974   8.615   7.011 -1.3978  0.5590  0.6286
  876MOL0     H20840   8.091   8.877   7.087  2.9891 -1.3245 -0.6089
  876MOL0     H20841   7.933   8.836   7.157  1.2590 -0.4054  3.7470
  876MOL0     H20842   8.001   8.633   7.259  2.5707 -0.4569  0.2803
  876MOL0     H20843   8.166   8.653   7.188  0.7467  1.1042 -0.9888
  876MOL0     H20844   8.213   8.794   7.366  0.0159 -2.9008  0.7424
  876MOL0     H20845   8.070   8.902   7.327 -1.6223 -0.0640  0.6972
  876MOL0     H20846   8.198   8.856   7.625  0.2682  1.4079 -0.0089
  876MOL0     H20847   8.195   9.027   7.928 -0.8355  1.3092  0.7704
  876MOL0     H20848   8.171   9.150   7.815  3.1050  0.2486 -2.1166
  876MOL0     H20849   8.275   9.023   7.773  0.5723  2.0086  0.5757
  876MOL0     H20850   8.140   9.127   8.209 -0.4994  0.6359 -1.3003
  876MOL0     H20851   8.155   9.309   8.362 -0.3924 -2.1059 -1.0575
  876MOL0     H20852   8.005   9.616   8.250 -2.5764 -0.6892  0.4466
  876MOL0     H20853   7.932   9.694   8.382 -1.6037 -1.1796 -1.4375
  876MOL0     H20854   8.203   9.571   8.387  0.6608  0.4462 -0.7541
  876MOL0     H20855   8.189   9.747   8.361  2.7772  1.2720  2.5984
  876MOL0     H20856   8.105   9.636   8.630  2.8394 -1.3165  0.6150
  876MOL0     H20857   8.100   9.801   8.578  0.8468 -0.7190 -0.5262
  876MOL0     H20858   8.337   9.815   8.531 -1.4557  0.4963 -1.7439
  876MOL0     H20859   8.355   9.651   8.595 -1.9020 -0.2134 -1.6259
  876MOL0     H20860   8.243   9.734   8.804 -0.2413 -0.3740 -1.1261
  876MOL0     H20861   8.413   9.787   8.767  0.5599  2.6928 -1.7639
  876MOL0     H20862   8.223   9.974   8.648 -1.5331  3.0753  2.4676
  876MOL0     H20863   8.364  10.012   8.751 -0.0117  0.1886 -1.3100
  876MOL0     H20864   8.082   9.935   8.815  1.0748 -2.7094  0.7724
  876MOL0     H20865   8.164  10.091   8.838 -0.3346 -0.7523 -0.8611
  876MOL0     H20866   8.297   9.981   9.010 -0.3847  0.4048 -0.7715
  876MOL0     H20867   8.201   9.826   8.995  1.2886  0.4459  3.2116
  876MOL0     H20868   7.782   9.470   8.227  1.6901  1.8761  0.7846
  876MOL0     H20869   7.793   9.301   8.032  1.2870 -2.6821 -1.6211
  876MOL0     H20870   7.735   8.900   7.777  0.8393  0.7402 -0.5579
  876MOL0     H20871   7.768   8.803   7.570  0.8545  0.6225 -0.7763
  876MOL0     H20872   7.109   8.991   7.644  1.3501  3.4339  2.5244
  876MOL0     H20873   6.925   8.917   7.768 -2.2856 -0.3253  0.3989
  876MOL0     H20874   6.659   9.019   8.022 -1.1779 -3.3756 -0.5751
  876MOL0     H20875   6.544   9.066   8.229  3.0085  1.4835 -2.7036
  876MOL0     H20876   6.111   9.241   8.255  1.6278  1.0253  1.0525
  876MOL0     H20877   6.070   9.085   8.197  1.2790  3.0982 -1.6541
  876MOL0     H20878   6.117   8.970   8.430  3.2909  0.0836 -0.8273
  876MOL0     H20879   5.988   9.089   8.412 -0.6298 -0.3670  1.0052
  876MOL0     H20880   6.233   9.096   8.578 -1.3010 -1.8952 -1.7208
  876MOL0     H20881   6.210   9.244   8.490  0.8407 -0.2570 -0.6609
  876MOL0     H20882   5.991   9.129   8.643 -0.5228 -0.1896 -1.9644
  876MOL0     H20883   5.992   9.285   8.546  3.8015  3.4167 -0.5103
  876MOL0     H20884   6.205   9.380   8.901  1.5814  1.1793 -2.2954
  876MOL0     H20885   6.189   9.125   8.010  1.3566  0.4835  3.5566
  876MOL0     H20886   6.274   8.991   7.712  0.0197  0.1008 -0.6996
  876MOL0     H20887   6.167   9.114   7.773 -0.4176  2.5847 -0.7925
  876MOL0     H20888   6.321   9.162   7.698 -2.9803  2.4966  1.2047
  877MOL0     O20889   0.003   0.912   8.126 -0.2997  0.3676 -0.7827
  877MOL0     C20890   0.115   0.863   8.153 -0.6590  0.0817 -0.2626
  877MOL0     O20891   0.230   0.927   8.156 -0.3909  0.5898 -0.8156
  877MOL0     C20892   0.255   1.054   8.169  1.0728 -0.7028  1.2355
  877MOL0     C20893   0.384   1.079   8.207  0.3978 -0.1487  0.1553
  877MOL0     C20894   0.428   1.213   8.246  0.2435  0.3509  0.7883
  877MOL0     C20895   0.333   1.317   8.239 -0.6359 -0.3648  0.6873
  877MOL0     O20896   0.362   1.448   8.265  0.0788  0.1004  0.4265
  877MOL0     C20897   0.417   1.465   8.391  0.4258 -0.7771  0.4548
  877MOL0     C20898   0.405   1.613   8.437  0.4775 -0.6404 -0.1875
  877MOL0     C20899   0.488   1.714   8.354 -0.6094 -0.5949  0.0899
  877MOL0     C20900   0.473   1.864   8.399 -0.4374  0.0492  0.3408
  877MOL0     C20901   0.335   1.917   8.409 -0.5448 -0.1492 -0.7037
  877MOL0     C20902   0.334   2.060   8.463  0.0387  0.0201 -0.4734
  877MOL0     C20903   0.366   2.059   8.613  0.6056  0.6069  0.7983
  877MOL0     C20904   0.477   2.162   8.640 -0.1330  0.0410  0.4209
  877MOL0     N20905   0.433   2.295   8.625 -0.4910  0.6561 -0.7532
  877MOL0     C20906   0.515   2.401   8.652  0.7284  0.1557 -0.5929
  877MOL0     C20907   0.429   2.507   8.605  0.2630 -0.5310 -0.1622
  877MOL0     C20908   0.461   2.656   8.591 -0.3974 -0.0255 -1.3102
  877MOL0     C20909   0.521   2.718   8.713  1.1860  0.1575 -0.0061
  877MOL0     C20910   0.602   2.837   8.675 -0.0828 -0.7788 -0.2316
  877MOL0     C20911   0.520   2.967   8.644  0.3116 -0.3875  0.2263
  877MOL0     O20912   0.622   3.066   8.610  0.0595  0.7504 -0.1861
  877MOL0     C20913   0.612   3.193   8.678 -0.2421 -0.0329 -0.1749
  877MOL0     C20914   0.608   3.296   8.592  0.1334  0.3221 -0.2346
  877MOL0     C20915   0.586   3.431   8.634  0.1224 -0.2051 -0.0541
  877MOL0     C20916   0.577   3.537   8.526 -0.6703 -0.4482 -0.3992
  877MOL0     C20917   0.550   3.447   8.766 -0.4530  0.4476 -0.0663
  877MOL0     C20918   0.520   3.587   8.811  1.2888 -0.8702  0.8274
  877MOL0     O20919   0.567   3.609   8.934  0.1959 -0.2530 -0.1694
  877MOL0     C20920   0.568   3.737   8.988 -0.2090 -0.2339 -0.2250
  877MOL0     C20921   0.691   3.781   9.042  0.1991  0.6416  0.0146
  877MOL0     C20922   0.688   3.898   9.117  0.0319 -0.3491 -0.1833
  877MOL0     C20923   0.568   3.978   9.141 -0.5697 -0.2282 -1.1390
  877MOL0     O20924   0.573   4.094   9.203  0.0994 -0.4238 -0.1864
  877MOL0     C20925   0.455   4.176   9.220 -1.0693 -0.1735  0.6072
  877MOL0     C20926   0.486   4.297   9.324  1.0832  0.2893 -0.4952
  877MOL0     C20927   0.573   4.269   9.454 -0.8600  0.4552  0.8499
  877MOL0     C20928   0.576   4.399   9.526 -0.1045  0.4268 -0.2961
  877MOL0     C20929   0.633   4.400   9.669 -0.8575  0.3853 -1.0069
  877MOL0     C20930   0.686   4.536   9.703  0.5409 -0.5419  0.3703
  877MOL0     C20931   0.758   4.533   9.842  0.5343 -0.3139  0.4019
  877MOL0     C20932   0.781   4.679   9.884 -0.1220  0.7556 -0.3986
  877MOL0    Cl20933   0.635   4.780   9.919 -0.1874  0.0513 -0.4508
  877MOL0     C20934   0.449   3.927   9.077 -0.4528  0.1983  0.1317
  877MOL0     C20935   0.440   3.803   9.013 -0.2337 -0.2483  0.0370
  877MOL0     O20936   0.448   3.669   8.743 -0.0689 -0.0364  0.2538
  877MOL0     C20937   0.555   3.338   8.857 -0.9616 -0.1538  0.3220
  877MOL0     C20938   0.582   3.206   8.813  0.8290 -0.1267 -0.0953
  877MOL0     N20939   0.313   2.464   8.547  0.3775  1.3678 -0.5377
  877MOL0     N20940   0.329   2.337   8.546  0.2828  0.7295 -0.9791
  877MOL0     C20941   0.203   1.287   8.202 -0.0276  0.8611 -0.0428
  877MOL0     C20942   0.162   1.158   8.169  0.4733  0.0022 -0.6388
  877MOL0     C20943   0.123   0.720   8.199  0.4415 -0.4929  0.3737
  877MOL0     C20944   0.230   0.679   8.277  0.4565 -0.6282  0.2656
  877MOL0     C20945   0.261   0.549   8.311 -0.7388 -0.6113  0.3075
  877MOL0     C20946   0.173   0.448   8.266  0.1707  0.6563 -1.0995
  877MOL0     O20947   0.181   0.310   8.296  0.0276 -0.1636 -0.1687
  877MOL0     C20948   0.300   0.244   8.356 -0.5523  0.4792 -0.2087
  877MOL0     C20949   0.387   0.224   8.234 -0.4213  0.4063  0.0721
  877MOL0     C20950   0.524   0.156   8.267  0.5939 -0.2760 -1.1812
  877MOL0     C20951   0.606   0.222   8.379  0.6007 -1.0491  0.4087
  877MOL0     C20952   0.566   0.201   8.521 -0.2268  0.9687 -0.6395
  877MOL0     C20953   0.541   0.188   8.640  0.4206 -0.1923  0.6578
  877MOL0     C20954   0.062   0.485   8.198  0.5726 -0.1946 -0.5887
  877MOL0     C20955   0.035   0.616   8.166  1.0138 -0.2088  0.0945
  877MOL0     C20956  -0.093   0.653   8.084 -1.4377  0.5180  1.1278
  877MOL0     H20957   0.464   1.005   8.205 -1.2889 -2.0569  0.7581
  877MOL0     H20958   0.533   1.239   8.259 -0.2192  5.0858 -2.3003
  877MOL0     H20959   0.525   1.447   8.391  0.4910 -0.3888  0.4450
  877MOL0     H20960   0.366   1.402   8.464  0.4868  1.8326  2.8916
  877MOL0     H20961   0.298   1.637   8.440  0.0894 -2.2876  3.0240
  877MOL0     H20962   0.426   1.604   8.544 -1.6964  2.9062  0.7268
  877MOL0     H20963   0.593   1.684   8.351 -0.4531 -0.1421 -3.3614
  877MOL0     H20964   0.455   1.720   8.249  2.2420  0.0121 -0.8552
  877MOL0     H20965   0.517   1.876   8.499  0.4190  0.3020 -0.0528
  877MOL0     H20966   0.532   1.931   8.335 -0.6321  3.3725  3.3634
  877MOL0     H20967   0.265   1.853   8.463  2.5751 -5.3995 -2.1666
  877MOL0     H20968   0.293   1.914   8.308 -0.0576 -0.5213 -0.9015
  877MOL0     H20969   0.398   2.125   8.401  1.1840 -0.3148  0.3202
  877MOL0     H20970   0.231   2.096   8.460  0.4064  1.2857  0.9237
  877MOL0     H20971   0.397   1.960   8.648 -1.0704 -0.8567 -1.5740
  877MOL0     H20972   0.281   2.080   8.679  1.4507 -2.8191  3.2564
  877MOL0     H20973   0.520   2.143   8.739  0.5113 -2.7139 -0.3080
  877MOL0     H20974   0.563   2.144   8.575 -0.5387 -1.1378  0.1933
  877MOL0     H20975   0.616   2.400   8.691  1.0328 -1.4572 -1.3494
  877MOL0     H20976   0.364   2.700   8.567 -1.1629  0.0692  1.5763
  877MOL0     H20977   0.527   2.652   8.504 -0.4948 -0.1140 -1.3797
  877MOL0     H20978   0.443   2.745   8.784 -0.3501 -2.3736 -0.6152
  877MOL0     H20979   0.576   2.640   8.767 -1.5687 -2.3398 -0.5816
  877MOL0     H20980   0.651   2.864   8.769  0.3722 -0.7250 -0.4805
  877MOL0     H20981   0.672   2.807   8.596 -2.1912 -1.5420 -1.9207
  877MOL0     H20982   0.457   2.937   8.560  0.8667 -1.5343  0.1989
  877MOL0     H20983   0.461   2.989   8.734  2.6712 -1.0040  2.0174
  877MOL0     H20984   0.611   3.278   8.485  1.4387  0.7948 -0.2938
  877MOL0     H20985   0.470   3.553   8.508 -1.2157 -1.8502  1.4288
  877MOL0     H20986   0.612   3.504   8.428  0.2766 -2.5411  0.5903
  877MOL0     H20987   0.619   3.635   8.551  1.7583 -0.9867 -1.9817
  877MOL0     H20988   0.782   3.722   9.033  1.0116  1.3221  2.5601
  877MOL0     H20989   0.786   3.936   9.146 -1.8383  3.6523  1.8133
  877MOL0     H20990   0.423   4.219   9.125 -0.5316  0.3728  0.6638
  877MOL0     H20991   0.380   4.121   9.276 -1.3905  0.1344  0.4797
  877MOL0     H20992   0.537   4.381   9.278  2.3999  0.5671  1.3631
  877MOL0     H20993   0.387   4.331   9.355  1.5326  0.3023  0.9907
  877MOL0     H20994   0.678   4.250   9.431 -0.6957  0.6304  1.4441
  877MOL0     H20995   0.540   4.192   9.524 -1.4354 -1.7838 -1.7312
  877MOL0     H20996   0.479   4.449   9.530 -0.4685 -0.2099 -1.0485
  877MOL0     H20997   0.639   4.461   9.462  0.4160 -0.8747 -1.0740
  877MOL0     H20998   0.558   4.369   9.743  0.8055  2.9491  2.0080
  877MOL0     H20999   0.719   4.332   9.671 -0.2945  0.9944 -2.9442
  877MOL0     H21000   0.593   4.592   9.709 -2.8598 -4.8677 -3.8908
  877MOL0     H21001   0.751   4.584   9.630  0.7110  1.8864  1.9888
  877MOL0     H21002   0.856   4.484   9.838  0.5397 -0.2372 -2.1900
  877MOL0     H21003   0.691   4.489   9.916  1.9054  0.2636  2.0548
  877MOL0     H21004   0.841   4.736   9.813 -0.1281  1.3140  0.0358
  877MOL0     H21005   0.840   4.670   9.976 -0.3805  1.6069 -0.1311
  877MOL0     H21006   0.356   3.984   9.079 -1.2966 -1.1377  1.8756
  877MOL0     H21007   0.353   3.764   8.961 -0.2220  0.4403 -0.5239
  877MOL0     H21008   0.531   3.356   8.962 -1.6221  0.5906  0.0554
  877MOL0     H21009   0.589   3.130   8.890 -2.4159  0.9418  1.4160
  877MOL0     H21010   0.137   1.374   8.198 -0.2244  0.7880  1.2610
  877MOL0     H21011   0.068   1.145   8.115 -1.0979  1.8661  1.4461
  877MOL0     H21012   0.316   0.740   8.303  3.1574 -3.3497 -1.5791
  877MOL0     H21013   0.353   0.522   8.361  0.9862  1.9051 -1.2444
  877MOL0     H21014   0.336   0.301   8.442 -1.1371  2.9586 -1.5097
  877MOL0     H21015   0.273   0.149   8.403 -1.3852  2.6469  4.2515
  877MOL0     H21016   0.409   0.321   8.189  1.8812 -1.6002 -3.5874
  877MOL0     H21017   0.328   0.172   8.158 -0.7515  1.9248 -0.7378
  877MOL0     H21018   0.501   0.055   8.303 -0.9992  1.1727  2.3524
  877MOL0     H21019   0.577   0.150   8.172 -1.7072  3.4735 -2.9161
  877MOL0     H21020   0.604   0.330   8.360 -2.9389 -1.4105 -2.1333
  877MOL0     H21021   0.706   0.183   8.359  1.1901  0.9185 -0.8112
  877MOL0     H21022   0.535   0.178   8.747  0.9937 -2.3833  0.5224
  877MOL0     H21023  -0.008   0.407   8.169  1.2039 -0.1586 -2.3605
  877MOL0     H21024  -0.169   0.694   8.151 -2.2281 -1.0324  1.2144
  877MOL0     H21025  -0.067   0.724   8.004  1.4039 -2.7193 -1.1289
  877MOL0     H21026  -0.139   0.566   8.036  0.5371  0.2829 -0.4858
  878MOL0     O21027   3.250   9.118   2.863 -0.3774  0.0670 -0.1615
  878MOL0     C21028   3.355   9.062   2.884 -0.1976 -0.2374 -0.1896
  878MOL0     O21029   3.407   8.977   2.797 -0.0501  0.6217  0.0960
  878MOL0     C21030   3.344   8.951   2.679 -0.5452 -0.4988  0.4319
  878MOL0     C21031   3.398   8.999   2.555 -0.1526  0.1863 -0.7207
  878MOL0     C21032   3.322   8.983   2.439 -0.2266  0.9578  1.3017
  878MOL0     C21033   3.200   8.910   2.431 -0.0256  0.9765  0.2238
  878MOL0     O21034   3.137   8.866   2.316 -0.3444 -0.1691  0.0037
  878MOL0     C21035   3.170   8.948   2.203  0.2190 -0.0008 -0.2097
  878MOL0     C21036   3.060   8.940   2.095 -0.4450 -0.1394 -0.3183
  878MOL0     C21037   3.023   8.803   2.044  0.3379  0.7247 -0.1997
  878MOL0     C21038   3.078   8.774   1.900 -0.0075 -0.6827  0.6315
  878MOL0     C21039   3.050   8.634   1.845 -0.3098 -0.0468  0.2122
  878MOL0     C21040   3.098   8.646   1.701  0.3985 -0.4478  0.1175
  878MOL0     C21041   3.086   8.513   1.635 -0.6768  0.4783  1.3888
  878MOL0     C21042   3.162   8.387   1.685  0.0905  0.3748  0.5329
  878MOL0     N21043   3.123   8.267   1.600 -0.3352 -0.4852  0.8528
  878MOL0     C21044   3.175   8.230   1.475  0.5956  0.7023  0.3760
  878MOL0     C21045   3.180   8.095   1.473 -0.5334  0.3140  0.0191
  878MOL0     C21046   3.214   8.000   1.364 -0.2783 -0.5798 -0.2722
  878MOL0     C21047   3.094   7.916   1.319  0.2082 -0.6413 -0.1321
  878MOL0     C21048   3.122   7.849   1.181  0.6916 -0.4127 -0.5114
  878MOL0     C21049   3.016   7.748   1.152  0.6854  0.3381 -0.0296
  878MOL0     O21050   3.014   7.648   1.244 -0.0401 -0.3201  0.3882
  878MOL0     C21051   3.081   7.528   1.227  0.6628 -0.3609 -0.6403
  878MOL0     C21052   3.185   7.514   1.136 -0.3951  0.2323 -0.2658
  878MOL0     C21053   3.261   7.399   1.128  0.5872  0.1962  0.5576
  878MOL0     C21054   3.353   7.393   1.008 -0.0683  1.2321  0.6514
  878MOL0     C21055   3.234   7.293   1.218  0.4758  0.6247 -0.3711
  878MOL0     C21056   3.301   7.159   1.227  0.6314 -0.3082  0.0025
  878MOL0     O21057   3.228   7.059   1.277 -0.5778  0.2744 -0.5791
  878MOL0     C21058   3.263   6.934   1.245  0.3028  0.1841 -0.1912
  878MOL0     C21059   3.199   6.860   1.145 -0.2328 -0.1521  0.3865
  878MOL0     C21060   3.225   6.723   1.131 -0.1374 -0.8667 -1.1306
  878MOL0     C21061   3.313   6.656   1.222 -0.8453  0.2429 -1.4341
  878MOL0     O21062   3.360   6.524   1.212  0.1819 -0.6167 -0.6343
  878MOL0     C21063   3.320   6.451   1.096  0.0236 -0.0347 -0.2108
  878MOL0     C21064   3.415   6.485   0.979 -0.1710 -0.1656 -0.6804
  878MOL0     C21065   3.402   6.386   0.861  0.2312 -0.0358 -0.5204
  878MOL0     C21066   3.490   6.393   0.740  0.3173 -1.1440  0.3654
  878MOL0     C21067   3.626   6.345   0.768  0.8369  0.0027  0.2790
  878MOL0     C21068   3.640   6.214   0.847 -1.0314 -0.0410 -1.0070
  878MOL0     C21069   3.798   6.198   0.874  0.1843  0.1373  0.1603
  878MOL0     C21070   3.842   6.057   0.924  0.1143 -0.5192 -0.5481
  878MOL0    Cl21071   3.801   5.933   0.798  0.0301 -0.3903 -0.2765
  878MOL0     C21072   3.356   6.721   1.330 -0.5146  0.6976  0.1462
  878MOL0     C21073   3.335   6.856   1.344  0.1792  0.0613  0.0403
  878MOL0     O21074   3.409   7.153   1.181 -0.3137 -0.2755 -0.4771
  878MOL0     C21075   3.133   7.323   1.309 -0.5692 -0.0088 -0.4170
  878MOL0     C21076   3.056   7.433   1.319  0.3009  0.7027  0.2872
  878MOL0     N21077   3.115   8.051   1.584 -0.7738  0.4907  0.7033
  878MOL0     N21078   3.079   8.155   1.658  0.5615  0.3800 -1.3029
  878MOL0     C21079   3.149   8.866   2.554  0.1809 -0.5525  1.0739
  878MOL0     C21080   3.220   8.883   2.679 -0.3600  0.5838  0.0951
  878MOL0     C21081   3.434   9.098   3.003  0.2346  0.6557  0.3739
  878MOL0     C21082   3.565   9.045   3.012 -0.6596  0.7088  0.1720
  878MOL0     C21083   3.653   9.094   3.105  0.3899 -1.1080  0.6978
  878MOL0     C21084   3.620   9.185   3.201 -0.0126  0.6657  0.1530
  878MOL0     O21085   3.716   9.222   3.298 -0.0931 -0.2452  0.1009
  878MOL0     C21086   3.827   9.139   3.324 -0.4596 -0.3517  0.2030
  878MOL0     C21087   3.937   9.178   3.228 -0.4676  0.7724 -0.4002
  878MOL0     C21088   4.013   9.301   3.274  0.4971  0.5350 -0.9699
  878MOL0     C21089   4.103   9.336   3.153  0.8248  0.5811 -0.7093
  878MOL0     C21090   4.220   9.421   3.171  0.5787 -0.3291 -0.0701
  878MOL0     C21091   4.298   9.506   3.205 -0.6124 -0.7625 -0.3614
  878MOL0     C21092   3.482   9.231   3.199  0.3366 -0.9219 -0.6731
  878MOL0     C21093   3.389   9.193   3.103 -0.2648  0.0874  0.1420
  878MOL0     C21094   3.253   9.251   3.116  0.5192 -0.0350  0.2620
  878MOL0     H21095   3.484   9.064   2.548  0.1350 -0.1035 -0.0168
  878MOL0     H21096   3.368   9.025   2.349  3.3334  0.7800  2.8819
  878MOL0     H21097   3.270   8.922   2.166 -0.8370 -0.2092 -3.1965
  878MOL0     H21098   3.182   9.054   2.225  1.2380 -0.1089 -0.1891
  878MOL0     H21099   2.965   8.974   2.137  0.7424 -1.0353  3.4777
  878MOL0     H21100   3.071   9.012   2.013 -0.3915 -0.2950 -0.4495
  878MOL0     H21101   3.072   8.727   2.106 -0.8412 -0.1930 -0.3591
  878MOL0     H21102   2.915   8.789   2.056  0.7430 -0.3489  3.7517
  878MOL0     H21103   3.034   8.851   1.835  1.6294  0.2074  0.5106
  878MOL0     H21104   3.184   8.801   1.904 -0.3886  0.7746  3.6397
  878MOL0     H21105   2.948   8.594   1.842  0.1598 -1.2665 -0.2946
  878MOL0     H21106   3.113   8.560   1.896  0.0158  0.0457 -0.0564
  878MOL0     H21107   3.046   8.730   1.653  0.8861 -0.1163  0.1607
  878MOL0     H21108   3.202   8.681   1.691  0.5578 -1.4591 -2.7817
  878MOL0     H21109   3.128   8.532   1.537 -0.5032 -3.7357  0.4685
  878MOL0     H21110   2.977   8.506   1.624 -0.6384  0.9194  0.7054
  878MOL0     H21111   3.268   8.411   1.688  0.1596  0.0012  1.9294
  878MOL0     H21112   3.138   8.374   1.791  0.2865 -0.9559  0.4274
  878MOL0     H21113   3.205   8.304   1.402 -2.7902  0.9058 -1.0108
  878MOL0     H21114   3.302   7.940   1.388  0.9328  1.1879 -0.1090
  878MOL0     H21115   3.252   8.073   1.291  0.0942  1.8580  2.1805
  878MOL0     H21116   3.076   7.841   1.397 -2.4577 -1.1612 -1.1613
  878MOL0     H21117   3.001   7.972   1.308  0.1780 -0.7672 -0.5328
  878MOL0     H21118   3.114   7.932   1.111  0.1086 -0.7493 -0.8550
  878MOL0     H21119   3.221   7.803   1.179  1.1790  0.2927  2.4805
  878MOL0     H21120   2.914   7.788   1.163  0.4570 -0.1964 -0.1412
  878MOL0     H21121   3.019   7.705   1.051  1.4069 -2.1670  0.9980
  878MOL0     H21122   3.215   7.604   1.084 -1.1312  0.7282  0.1443
  878MOL0     H21123   3.328   7.467   0.932  4.1211  2.0552 -0.2121
  878MOL0     H21124   3.359   7.296   0.958  2.3084  1.5465  0.2040
  878MOL0     H21125   3.451   7.417   1.051  0.8751 -0.4512 -0.4339
  878MOL0     H21126   3.145   6.920   1.073 -0.9125 -2.0304 -0.7231
  878MOL0     H21127   3.170   6.678   1.049 -1.9282 -0.6635 -0.1131
  878MOL0     H21128   3.318   6.344   1.117 -0.6711 -0.1226 -0.6732
  878MOL0     H21129   3.218   6.466   1.061 -0.0654 -1.9493 -0.8862
  878MOL0     H21130   3.404   6.589   0.949 -1.1030 -0.7328 -2.4451
  878MOL0     H21131   3.516   6.467   1.019 -1.0457 -0.7176  1.4596
  878MOL0     H21132   3.307   6.426   0.824  1.3163  0.3151 -3.1737
  878MOL0     H21133   3.379   6.288   0.903 -0.8601 -0.2013 -1.4517
  878MOL0     H21134   3.493   6.496   0.703 -0.1481 -1.1429  0.3326
  878MOL0     H21135   3.447   6.326   0.666  4.2295 -3.2640 -0.2731
  878MOL0     H21136   3.673   6.328   0.671  2.6769 -0.7844  1.2593
  878MOL0     H21137   3.686   6.425   0.814 -1.2688  1.3410  0.8367
  878MOL0     H21138   3.609   6.130   0.784  1.0026 -1.6528 -0.0124
  878MOL0     H21139   3.579   6.223   0.936 -2.3895 -0.0769 -1.9097
  878MOL0     H21140   3.825   6.279   0.943  2.9608  0.7366 -1.4748
  878MOL0     H21141   3.855   6.201   0.781 -0.8470  0.0152 -0.4945
  878MOL0     H21142   3.814   6.040   1.028  1.8813 -0.2719 -0.0071
  878MOL0     H21143   3.950   6.067   0.939 -0.1022  0.7366  0.3510
  878MOL0     H21144   3.418   6.675   1.406 -0.0469 -0.5410 -0.9595
  878MOL0     H21145   3.354   6.909   1.437  0.8455  1.7922 -1.0271
  878MOL0     H21146   3.107   7.242   1.376  1.0502 -1.9824 -2.0384
  878MOL0     H21147   2.982   7.454   1.395  0.1586  3.3333 -0.4801
  878MOL0     H21148   3.055   8.813   2.554 -2.1006  3.1870  0.6471
  878MOL0     H21149   3.173   8.840   2.766 -2.7336  1.7021 -0.5659
  878MOL0     H21150   3.589   8.969   2.938 -0.1047  0.8205  0.2327
  878MOL0     H21151   3.746   9.038   3.106  0.6164 -0.8736 -1.4682
  878MOL0     H21152   3.865   9.159   3.425  1.4688 -0.7079 -0.4212
  878MOL0     H21153   3.802   9.032   3.322  1.6314 -0.8637 -1.9377
  878MOL0     H21154   3.894   9.194   3.129 -2.3048 -3.3396 -0.4711
  878MOL0     H21155   4.010   9.097   3.216 -1.4163 -0.4150  1.3210
  878MOL0     H21156   3.944   9.378   3.310 -0.5505 -0.7581 -0.1063
  878MOL0     H21157   4.075   9.270   3.359 -0.6480 -1.8080 -0.8940
  878MOL0     H21158   4.038   9.372   3.073 -1.3821 -1.0335  0.2464
  878MOL0     H21159   4.141   9.241   3.114 -2.2360 -0.2202 -2.0991
  878MOL0     H21160   4.347   9.594   3.241  0.3659 -2.6214  3.2776
  878MOL0     H21161   3.458   9.302   3.277  2.1783 -2.0386  1.0285
  878MOL0     H21162   3.174   9.195   3.065 -0.6859  0.8451  1.1152
  878MOL0     H21163   3.235   9.252   3.224  0.4107  1.1395  0.2353
  878MOL0     H21164   3.257   9.354   3.080  1.4803 -0.5016 -1.0424
  879MOL0     O21165   6.136  11.111  10.473  0.7018  0.3121  0.2194
  879MOL0     C21166   6.110  11.208  10.401  0.3272  0.1159  0.1078
  879MOL0     O21167   6.179  11.232  10.287  0.2694  0.6975 -0.0554
  879MOL0     C21168   6.273  11.147  10.232 -0.3721  0.2320 -0.4622
  879MOL0     C21169   6.316  11.191  10.113  0.8596  0.6853 -0.3537
  879MOL0     C21170   6.424  11.145  10.038 -0.5045  0.5500  0.2459
  879MOL0     C21171   6.495  11.035  10.090 -0.2300 -0.1124 -0.7657
  879MOL0     O21172   6.602  10.987  10.017  0.0555  0.5612 -0.0294
  879MOL0     C21173   6.607  10.843   9.992  0.1338  0.3541 -0.5138
  879MOL0     C21174   6.719  10.808   9.892  0.6702 -0.1154  0.9710
  879MOL0     C21175   6.695  10.869   9.749  0.2992  0.1053 -0.1033
  879MOL0     C21176   6.797  10.810   9.658  0.0746  0.4085 -1.3979
  879MOL0     C21177   6.810  10.879   9.518  0.2114 -0.1716 -1.0431
  879MOL0     C21178   6.944  10.841   9.451 -0.3127  0.7665 -1.0368
  879MOL0     C21179   7.008  10.964   9.381 -0.1061  0.2976 -0.3763
  879MOL0     C21180   6.932  11.031   9.270  1.0122  0.3718  0.2418
  879MOL0     N21181   6.905  10.923   9.174  0.2520  0.4582  0.0795
  879MOL0     C21182   6.785  10.898   9.109 -0.1720 -0.7492 -0.2468
  879MOL0     C21183   6.814  10.819   9.008 -0.4385  0.6291  0.7029
  879MOL0     C21184   6.713  10.775   8.902 -0.0074 -0.1616  0.9081
  879MOL0     C21185   6.748  10.635   8.849  0.0700  0.1682  1.4299
  879MOL0     C21186   6.644  10.561   8.772 -0.7887  0.4889 -0.1300
  879MOL0     C21187   6.561  10.633   8.673  0.5071  0.6714 -0.1215
  879MOL0     O21188   6.448  10.549   8.631 -0.1327  0.1813  0.8605
  879MOL0     C21189   6.465  10.461   8.530 -1.3854 -0.1214 -0.4750
  879MOL0     C21190   6.405  10.337   8.545 -1.9296  0.1414  0.0709
  879MOL0     C21191   6.411  10.232   8.451 -1.7989  0.5172 -0.6465
  879MOL0     C21192   6.359  10.090   8.486 -0.7894 -0.2070 -0.9206
  879MOL0     C21193   6.473  10.262   8.329  0.0506 -0.6057 -0.8794
  879MOL0     C21194   6.477  10.180   8.208 -0.6187 -0.6075  0.2649
  879MOL0     O21195   6.597  10.192   8.132  1.1499 -0.0352 -0.5350
  879MOL0     C21196   6.599  10.140   8.005  0.5315  0.2307 -0.7039
  879MOL0     C21197   6.563  10.006   7.987 -0.6865  0.4531 -0.7091
  879MOL0     C21198   6.581   9.950   7.862 -0.0942  0.0509  0.6707
  879MOL0     C21199   6.614  10.039   7.750  0.2255  0.7135 -0.3132
  879MOL0     O21200   6.624   9.991   7.624  0.2641  0.7474  0.1235
  879MOL0     C21201   6.496   9.952   7.569  0.1273 -0.5843  0.4791
  879MOL0     C21202   6.494   9.976   7.419  0.2943  1.5929 -1.0801
  879MOL0     C21203   6.363   9.912   7.362 -0.6516  0.6176  0.5286
  879MOL0     C21204   6.249  10.005   7.373 -0.0006 -0.2915 -0.4238
  879MOL0     C21205   6.225  10.100   7.253 -0.5927 -0.0142 -0.9350
  879MOL0     C21206   6.164  10.018   7.138 -0.1462 -0.6236  0.0452
  879MOL0     C21207   6.152  10.101   7.011  0.0720  0.5221 -0.0943
  879MOL0     C21208   6.066  10.021   6.917  0.2944 -0.6310  0.3333
  879MOL0    Cl21209   5.893   9.992   6.963 -0.2772 -0.0715 -0.1203
  879MOL0     C21210   6.664  10.163   7.776 -0.1858  0.5866 -0.6749
  879MOL0     C21211   6.647  10.214   7.911 -0.2151 -0.2137  0.0220
  879MOL0     O21212   6.381  10.103   8.176 -0.6627  0.0330  0.1249
  879MOL0     C21213   6.543  10.387   8.317 -0.2952 -0.7114  0.0510
  879MOL0     C21214   6.537  10.489   8.413  1.0153  0.1071 -0.9108
  879MOL0     N21215   6.951  10.791   9.009 -0.8458  0.1308  0.3242
  879MOL0     N21216   7.002  10.848   9.111  0.0966  0.0023 -0.5383
  879MOL0     C21217   6.450  10.982  10.215 -0.4506 -0.4399  0.1367
  879MOL0     C21218   6.346  11.037  10.284 -0.5867  0.9213  0.1123
  879MOL0     C21219   6.010  11.307  10.465  0.1826 -0.2026 -0.1897
  879MOL0     C21220   5.996  11.320  10.606  0.0731 -0.2959 -0.7500
  879MOL0     C21221   5.911  11.416  10.672  0.4655 -0.5374  0.6107
  879MOL0     C21222   5.834  11.496  10.595  0.5215 -0.2842 -0.3479
  879MOL0     O21223   5.757  11.593  10.676  0.4484 -0.3566 -0.1847
  879MOL0     C21224   5.644  11.667  10.613 -0.8292 -0.0604  0.2040
  879MOL0     C21225   5.706  11.800  10.545  0.3334  0.0333 -0.7327
  879MOL0     C21226   5.593  11.875  10.476 -0.1049 -0.0417 -0.4852
  879MOL0     C21227   5.556  11.816  10.334  0.2075 -0.5516 -0.2559
  879MOL0     C21228   5.668  11.832  10.246  0.4272 -0.6545 -0.8313
  879MOL0     C21229   5.771  11.826  10.180 -0.5401 -0.3402 -0.3130
  879MOL0     C21230   5.839  11.481  10.456  0.1020 -0.0618 -0.6138
  879MOL0     C21231   5.928  11.395  10.395 -0.0839 -0.2123 -0.6348
  879MOL0     C21232   5.918  11.385  10.239 -0.6855 -0.2115  0.3196
  879MOL0     H21233   6.262  11.275  10.069  0.9994  1.2192  0.4785
  879MOL0     H21234   6.454  11.188   9.943  1.0339  1.3082  1.0351
  879MOL0     H21235   6.510  10.813   9.951 -1.4108  3.9976  0.0963
  879MOL0     H21236   6.628  10.782  10.080 -3.2391 -0.3397 -0.0426
  879MOL0     H21237   6.815  10.844   9.931  0.0042  3.5904 -0.4129
  879MOL0     H21238   6.712  10.700   9.879 -2.5262  0.2652 -1.5604
  879MOL0     H21239   6.589  10.858   9.722 -0.2309  0.8035  1.5727
  879MOL0     H21240   6.713  10.976   9.767  2.5992 -0.0719 -0.9920
  879MOL0     H21241   6.893  10.824   9.708 -0.3829 -2.3952  0.4695
  879MOL0     H21242   6.786  10.701   9.655  0.7136  0.2306  0.8365
  879MOL0     H21243   6.797  10.988   9.517  1.2589 -0.0335 -1.6552
  879MOL0     H21244   6.732  10.837   9.453  1.4541  0.1554 -2.8478
  879MOL0     H21245   7.020  10.796   9.515 -0.2279  0.3641 -1.4128
  879MOL0     H21246   6.925  10.759   9.381  0.4493 -1.1641  0.9130
  879MOL0     H21247   7.098  10.922   9.337 -1.0318 -2.3095  0.0436
  879MOL0     H21248   7.044  11.030   9.461  1.3022 -0.7315 -0.1305
  879MOL0     H21249   6.848  11.086   9.311  2.1082  0.4322  2.5307
  879MOL0     H21250   6.996  11.108   9.225 -1.9163  2.4205 -0.6637
  879MOL0     H21251   6.685  10.937   9.130 -0.6189 -1.8095 -0.3589
  879MOL0     H21252   6.719  10.846   8.819  3.3548  1.7839  2.6037
  879MOL0     H21253   6.611  10.782   8.940 -0.8772 -0.1728 -1.2853
  879MOL0     H21254   6.839  10.619   8.790  0.6672 -0.8479  2.5783
  879MOL0     H21255   6.753  10.577   8.942  1.7338  0.5110  1.5954
  879MOL0     H21256   6.687  10.468   8.734 -2.1606  0.7231 -2.4167
  879MOL0     H21257   6.576  10.521   8.849  1.7584 -2.9267  0.6186
  879MOL0     H21258   6.521  10.727   8.713  0.9647  0.8691 -0.1210
  879MOL0     H21259   6.620  10.657   8.584  0.5875 -0.4261 -0.3736
  879MOL0     H21260   6.367  10.316   8.644  1.1906 -0.3318  1.2878
  879MOL0     H21261   6.298  10.056   8.402 -0.2824 -0.3292 -1.2430
  879MOL0     H21262   6.300  10.090   8.578 -0.5279  1.8482 -0.7010
  879MOL0     H21263   6.439  10.020   8.509 -1.1563  0.0936  1.5417
  879MOL0     H21264   6.532   9.934   8.062 -0.3191 -1.5670 -2.3979
  879MOL0     H21265   6.565   9.843   7.848  4.8426 -0.8417 -0.1281
  879MOL0     H21266   6.477   9.844   7.581 -0.3475 -0.6496 -0.7624
  879MOL0     H21267   6.416  10.010   7.616 -0.2106 -0.4899 -0.2049
  879MOL0     H21268   6.513  10.077   7.380  0.7658  1.1840 -1.9484
  879MOL0     H21269   6.577   9.911   7.389 -2.2300 -4.1274  2.5391
  879MOL0     H21270   6.340   9.820   7.417 -0.8666  0.6076  0.4254
  879MOL0     H21271   6.375   9.883   7.257 -1.9128  1.2281  0.1911
  879MOL0     H21272   6.256  10.068   7.462  0.5302 -2.5693  1.2572
  879MOL0     H21273   6.152   9.954   7.377 -0.6829  0.6736 -3.0930
  879MOL0     H21274   6.148  10.169   7.287 -1.8318 -1.4895 -0.6093
  879MOL0     H21275   6.309  10.166   7.231 -1.5098  1.1336 -1.0642
  879MOL0     H21276   6.062   9.998   7.170 -0.9485 -0.3434 -2.1988
  879MOL0     H21277   6.218   9.925   7.116 -0.2773 -0.4825 -0.8922
  879MOL0     H21278   6.249  10.121   6.966  2.2285 -2.4101  2.7409
  879MOL0     H21279   6.097  10.192   7.038 -0.7070  0.3096 -0.9096
  879MOL0     H21280   6.117   9.930   6.883 -1.4547 -2.0906  1.3878
  879MOL0     H21281   6.062  10.086   6.830  0.1025 -0.1396  0.7006
  879MOL0     H21282   6.714  10.232   7.708 -2.1521  3.9944  1.0482
  879MOL0     H21283   6.687  10.309   7.943  0.2803 -0.1633 -0.7165
  879MOL0     H21284   6.587  10.405   8.219  1.2926 -0.4868  0.7884
  879MOL0     H21285   6.572  10.587   8.381  3.4955 -1.3433 -3.0454
  879MOL0     H21286   6.515  10.908  10.260  2.4225  2.6317  1.4859
  879MOL0     H21287   6.341  10.999  10.385  0.0393  0.1009 -0.1574
  879MOL0     H21288   6.052  11.262  10.679 -0.0508  0.3844 -0.0998
  879MOL0     H21289   5.903  11.419  10.780  0.0211 -1.9646  0.6469
  879MOL0     H21290   5.601  11.612  10.528 -2.5632 -1.9504  2.1632
  879MOL0     H21291   5.553  11.689  10.671 -1.4587  1.1954 -1.2133
  879MOL0     H21292   5.788  11.764  10.483  0.3517 -1.5566  0.1623
  879MOL0     H21293   5.743  11.865  10.626  2.5576 -2.2987  0.2677
  879MOL0     H21294   5.500  11.883  10.534 -1.2968  1.4467 -2.4642
  879MOL0     H21295   5.629  11.977  10.460 -1.2109  0.4153 -0.1559
  879MOL0     H21296   5.474  11.869  10.284 -2.4187 -2.6450  1.6265
  879MOL0     H21297   5.501  11.722  10.333 -3.1216  1.2411 -2.4900
  879MOL0     H21298   5.867  11.811  10.135  0.1193 -0.5537  1.0789
  879MOL0     H21299   5.765  11.542  10.405  0.4280  2.1096  1.3526
  879MOL0     H21300   5.840  11.451  10.201  0.0117  0.3045 -0.2516
  879MOL0     H21301   6.011  11.423  10.195  1.2942  0.4733  4.5704
  879MOL0     H21302   5.894  11.283  10.206 -1.0293 -0.7753  2.2031
  880MOL0     O21303   7.529   0.582   4.346  0.1159 -0.2303 -0.7077
  880MOL0     C21304   7.630   0.547   4.416 -0.1581 -0.1836  0.2830
  880MOL0     O21305   7.673   0.415   4.442  0.2742 -0.0235  0.6683
  880MOL0     C21306   7.613   0.297   4.391 -0.7562 -0.1967  0.7256
  880MOL0     C21307   7.526   0.289   4.284 -0.1398 -0.6036 -0.6220
  880MOL0     C21308   7.478   0.164   4.236 -0.0222  0.0034  0.6422
  880MOL0     C21309   7.522   0.049   4.296  0.3119 -0.8018 -0.0055
  880MOL0     O21310   7.472  -0.070   4.237 -0.3079 -0.5225  1.1013
  880MOL0     C21311   7.335  -0.081   4.218  0.6106  0.7383  0.7867
  880MOL0     C21312   7.242  -0.082   4.338  0.3990 -0.1187  0.2220
  880MOL0     C21313   7.099  -0.117   4.302  0.8015  0.9057  0.5101
  880MOL0     C21314   6.996  -0.121   4.418 -0.7403  1.0851 -0.2735
  880MOL0     C21315   6.862  -0.171   4.368 -0.7460 -0.4180 -0.6921
  880MOL0     C21316   6.777  -0.213   4.482 -0.6195 -0.7074  0.1881
  880MOL0     C21317   6.640  -0.243   4.425  0.6518  0.8408 -0.5180
  880MOL0     C21318   6.554  -0.296   4.546 -0.0877 -0.4497 -0.6908
  880MOL0     N21319   6.517  -0.180   4.631 -0.2102 -0.5130 -0.5751
  880MOL0     C21320   6.408  -0.096   4.604  0.1118  0.3289 -0.5648
  880MOL0     C21321   6.402  -0.004   4.710 -0.3396  0.0919  0.1099
  880MOL0     C21322   6.296   0.112   4.717  0.1233 -0.0023  0.3467
  880MOL0     C21323   6.233   0.125   4.862  0.0210  0.1684 -0.0405
  880MOL0     C21324   6.173   0.272   4.874 -0.4351 -0.0811  0.6865
  880MOL0     C21325   6.087   0.299   4.999  0.6923 -0.0054 -0.8886
  880MOL0     O21326   6.147   0.261   5.125  0.3500  0.1767 -0.2136
  880MOL0     C21327   6.073   0.270   5.243  1.1238 -0.2343 -0.6371
  880MOL0     C21328   6.134   0.229   5.358 -0.2183  0.4103  0.0644
  880MOL0     C21329   6.085   0.254   5.482 -0.5361  0.0821 -1.6311
  880MOL0     C21330   6.176   0.228   5.601 -0.6078  0.6854 -0.3767
  880MOL0     C21331   5.964   0.321   5.500  0.8055  0.3677  0.2681
  880MOL0     C21332   5.900   0.359   5.624  0.0364  0.4838 -0.8398
  880MOL0     O21333   5.777   0.415   5.605 -0.5068  0.4194  0.0658
  880MOL0     C21334   5.699   0.462   5.714  0.2119 -0.7525  0.8874
  880MOL0     C21335   5.558   0.461   5.707  0.3320 -0.1705  0.3756
  880MOL0     C21336   5.483   0.522   5.808  0.7951  0.5993 -0.4952
  880MOL0     C21337   5.537   0.594   5.916 -0.1905 -0.1920  0.0156
  880MOL0     O21338   5.449   0.632   6.012  0.2606 -0.3238  0.2840
  880MOL0     C21339   5.485   0.745   6.077  0.2613  0.3601  0.2074
  880MOL0     C21340   5.369   0.818   6.135  0.7066 -0.5651 -0.7938
  880MOL0     C21341   5.322   0.758   6.277 -0.1262  0.0893  0.4687
  880MOL0     C21342   5.191   0.834   6.293 -0.5665  0.3466 -0.2257
  880MOL0     C21343   5.138   0.820   6.440  0.7928  0.1487  0.2637
  880MOL0     C21344   5.061   0.952   6.473 -0.0301 -0.6383  0.1371
  880MOL0     C21345   5.020   0.950   6.621 -0.1189  0.4545 -0.0408
  880MOL0     C21346   4.954   1.085   6.644  0.7680  0.3041 -1.9536
  880MOL0    Cl21347   4.840   1.065   6.772 -0.2692 -0.5051  0.1521
  880MOL0     C21348   5.684   0.596   5.926  0.5353 -0.5503 -0.5226
  880MOL0     C21349   5.760   0.533   5.823  0.9661 -0.2177  0.7647
  880MOL0     O21350   5.956   0.334   5.733  0.0609 -0.1338  0.4274
  880MOL0     C21351   5.901   0.363   5.376  0.5863  0.2327 -1.0978
  880MOL0     C21352   5.954   0.335   5.253  1.0605 -0.4531  0.0920
  880MOL0     N21353   6.505  -0.035   4.792 -0.3180  0.3992  0.2051
  880MOL0     N21354   6.575  -0.133   4.742  0.7592 -0.1905 -0.3029
  880MOL0     C21355   7.607   0.045   4.406 -0.3909  0.0895  1.0770
  880MOL0     C21356   7.658   0.171   4.440  0.2210  0.7780 -0.5639
  880MOL0     C21357   7.702   0.672   4.468  0.2181 -0.2494  0.0493
  880MOL0     C21358   7.615   0.784   4.494 -0.6444  0.5037 -0.4737
  880MOL0     C21359   7.673   0.901   4.540 -0.1139 -0.5111  1.4635
  880MOL0     C21360   7.809   0.922   4.554  0.7763 -0.6143  0.9174
  880MOL0     O21361   7.850   1.048   4.577  0.2994  1.2983  0.2517
  880MOL0     C21362   7.959   1.062   4.674  0.5274 -0.4174  0.7648
  880MOL0     C21363   8.089   1.075   4.596 -0.3116  0.0925 -0.2757
  880MOL0     C21364   8.120   1.230   4.552  1.2043 -0.1315  0.4764
  880MOL0     C21365   8.245   1.240   4.463 -0.5221 -0.0192  0.2242
  880MOL0     C21366   8.203   1.185   4.330  0.9626  0.2653  0.9681
  880MOL0     C21367   8.170   1.132   4.228  0.9501 -0.5963 -0.2853
  880MOL0     C21368   7.889   0.807   4.543 -0.6568  1.2211 -0.0313
  880MOL0     C21369   7.832   0.679   4.501  0.4938  0.0082 -0.1127
  880MOL0     C21370   7.928   0.558   4.478  0.2090 -0.0693  0.0099
  880MOL0     H21371   7.470   0.371   4.240  0.2274 -1.5823 -3.0911
  880MOL0     H21372   7.438   0.152   4.136  0.4698 -1.7169  0.6203
  880MOL0     H21373   7.325  -0.186   4.188 -0.4711 -0.1863  3.9827
  880MOL0     H21374   7.303  -0.018   4.133 -0.6831 -0.4679  0.3357
  880MOL0     H21375   7.270  -0.143   4.425  0.2679  0.2859  0.5514
  880MOL0     H21376   7.221   0.021   4.366 -0.7083 -0.2843  0.0708
  880MOL0     H21377   7.060  -0.051   4.225 -3.7739 -1.8050  0.1065
  880MOL0     H21378   7.104  -0.220   4.266  0.7614  0.7493  0.9419
  880MOL0     H21379   7.047  -0.185   4.490  0.4644 -0.5552 -2.4600
  880MOL0     H21380   6.986  -0.019   4.457  1.8511  1.2848  0.0633
  880MOL0     H21381   6.871  -0.256   4.300  1.0301 -0.3244 -0.6168
  880MOL0     H21382   6.813  -0.089   4.315  1.6951  0.8725 -1.0909
  880MOL0     H21383   6.829  -0.305   4.513 -0.8056 -1.7904 -2.4547
  880MOL0     H21384   6.782  -0.131   4.554 -3.4056  0.7539 -1.1184
  880MOL0     H21385   6.638  -0.323   4.351  1.1975  1.6729 -1.4488
  880MOL0     H21386   6.602  -0.149   4.383 -1.2637  0.6711  0.7055
  880MOL0     H21387   6.459  -0.339   4.513 -0.0806 -0.3898 -0.7897
  880MOL0     H21388   6.612  -0.369   4.603 -2.5649 -1.0892  1.1678
  880MOL0     H21389   6.348  -0.107   4.514 -0.1215  0.5190 -0.4310
  880MOL0     H21390   6.226   0.097   4.634  1.2884 -0.1168 -0.6461
  880MOL0     H21391   6.348   0.203   4.682  0.4274 -1.0279 -2.0889
  880MOL0     H21392   6.162   0.047   4.890 -0.7493  0.7326 -0.3550
  880MOL0     H21393   6.311   0.113   4.937  1.1290  0.5871 -1.1003
  880MOL0     H21394   6.253   0.346   4.881 -0.4893  0.3638 -2.1878
  880MOL0     H21395   6.117   0.291   4.782 -0.3245  2.5045  1.0856
  880MOL0     H21396   6.064   0.406   5.000  1.0343  0.0653 -0.6623
  880MOL0     H21397   5.997   0.238   4.989  1.0036 -0.5713 -0.2884
  880MOL0     H21398   6.235   0.190   5.350 -1.6899 -4.1352  1.0460
  880MOL0     H21399   6.131   0.163   5.676  1.4398 -2.4106 -1.6176
  880MOL0     H21400   6.209   0.324   5.643 -1.7074  0.8945  0.0338
  880MOL0     H21401   6.265   0.171   5.571  0.6241  2.9204 -1.1690
  880MOL0     H21402   5.507   0.419   5.621  0.9732 -0.9577  0.3720
  880MOL0     H21403   5.375   0.514   5.804  0.8619 -0.2911 -0.6752
  880MOL0     H21404   5.557   0.718   6.154 -0.8030  1.4427  1.6550
  880MOL0     H21405   5.525   0.819   6.008 -1.7177 -0.3550 -1.8164
  880MOL0     H21406   5.409   0.919   6.150  3.8950 -1.3419 -3.0138
  880MOL0     H21407   5.287   0.806   6.063  0.4288 -2.3445 -0.2174
  880MOL0     H21408   5.389   0.773   6.362  0.6294 -1.3311  0.1504
  880MOL0     H21409   5.297   0.651   6.282  4.1509 -1.1495 -0.8678
  880MOL0     H21410   5.113   0.799   6.224 -0.4638 -0.6325  0.1367
  880MOL0     H21411   5.210   0.941   6.280  0.8097  0.6821  3.4761
  880MOL0     H21412   5.070   0.735   6.455  1.9227 -1.4625 -2.8405
  880MOL0     H21413   5.221   0.799   6.507  0.2741 -0.8279  0.6327
  880MOL0     H21414   4.976   0.963   6.405 -2.6992 -2.2361  2.9657
  880MOL0     H21415   5.123   1.039   6.451 -0.7955  0.1826  1.1472
  880MOL0     H21416   5.094   0.922   6.697 -0.4974  1.6535  0.7866
  880MOL0     H21417   4.944   0.871   6.621 -1.7110  1.9366  0.0844
  880MOL0     H21418   4.897   1.130   6.562 -1.3164 -0.6885 -1.1402
  880MOL0     H21419   5.032   1.157   6.668  0.4236 -0.1330  0.8409
  880MOL0     H21420   5.730   0.660   6.001 -1.6119  1.2640 -0.6394
  880MOL0     H21421   5.867   0.538   5.837  1.1688 -5.2785  3.6598
  880MOL0     H21422   5.815   0.430   5.377 -0.7595 -1.4361  0.2303
  880MOL0     H21423   5.904   0.373   5.165  0.5287  2.9478  1.7092
  880MOL0     H21424   7.635  -0.054   4.440  2.4473  1.2645  2.4602
  880MOL0     H21425   7.738   0.185   4.512  0.1981  0.6217 -0.5066
  880MOL0     H21426   7.510   0.782   4.469 -0.9826  0.8648  0.8425
  880MOL0     H21427   7.609   0.989   4.542  0.7306  0.1252  1.0094
  880MOL0     H21428   7.947   1.143   4.746 -1.9126 -0.1186  0.1342
  880MOL0     H21429   7.970   0.970   4.732  0.8231 -1.2591 -0.5830
  880MOL0     H21430   8.105   1.005   4.513 -0.8501  0.5693 -0.7938
  880MOL0     H21431   8.158   1.056   4.678 -0.3144  2.1501  0.2707
  880MOL0     H21432   8.036   1.262   4.489  0.2780 -0.0716  1.6943
  880MOL0     H21433   8.125   1.290   4.644  0.3822  2.0251 -0.7951
  880MOL0     H21434   8.322   1.171   4.500 -0.3689  0.5095  0.9221
  880MOL0     H21435   8.287   1.341   4.469 -0.7056 -0.0070  1.6368
  880MOL0     H21436   8.134   1.079   4.141  2.7067 -0.4811 -1.1303
  880MOL0     H21437   7.993   0.821   4.567 -0.4955 -1.4657  1.2746
  880MOL0     H21438   8.030   0.597   4.465  1.0653 -2.4445 -0.9064
  880MOL0     H21439   7.917   0.499   4.570 -2.2195  1.1783  0.5988
  880MOL0     H21440   7.895   0.496   4.394 -1.9001 -0.0465  0.7743
  881MOL0     O21441   3.390   9.135   7.747  0.0142 -0.0072 -0.2239
  881MOL0     C21442   3.485   9.115   7.822 -0.2945  0.3563 -0.3580
  881MOL0     O21443   3.604   9.183   7.812  0.1953  0.4505 -0.2288
  881MOL0     C21444   3.619   9.277   7.706  0.3758  0.3368 -0.5178
  881MOL0     C21445   3.652   9.237   7.577 -0.4674  0.4468  0.0746
  881MOL0     C21446   3.654   9.330   7.468 -0.4746 -0.2415 -0.6420
  881MOL0     C21447   3.625   9.464   7.494 -0.1627 -0.2481 -0.5367
  881MOL0     O21448   3.616   9.557   7.393  0.0913 -0.8021  0.1052
  881MOL0     C21449   3.573   9.690   7.415 -0.6067 -0.7679  0.2640
  881MOL0     C21450   3.420   9.711   7.427  0.1878  0.3224 -0.3693
  881MOL0     C21451   3.385   9.858   7.411 -0.0056  0.7522  0.3476
  881MOL0     C21452   3.253   9.880   7.341 -1.1079 -0.1498 -1.1781
  881MOL0     C21453   3.235  10.025   7.334  0.0901 -0.3434 -0.0999
  881MOL0     C21454   3.103  10.053   7.256  0.5909  0.2039 -0.7527
  881MOL0     C21455   3.093  10.191   7.204  0.3853  1.0822  0.4000
  881MOL0     C21456   3.083  10.292   7.321 -0.4258  0.1582 -1.3446
  881MOL0     N21457   3.027  10.416   7.270 -0.5204  0.3469 -0.4092
  881MOL0     C21458   3.069  10.471   7.153  1.2834 -0.7847  0.1319
  881MOL0     C21459   2.946  10.521   7.096  0.9860  0.3487 -0.2971
  881MOL0     C21460   2.923  10.594   6.964  0.5941  0.7214  1.7997
  881MOL0     C21461   2.892  10.738   6.993  0.2075  1.0498 -0.6216
  881MOL0     C21462   2.986  10.813   7.089 -0.3103  0.3159 -1.4242
  881MOL0     C21463   2.913  10.945   7.130 -0.1383  1.3606 -0.0334
  881MOL0     O21464   2.996  11.024   7.212 -0.3878 -1.6931  0.6769
  881MOL0     C21465   2.962  11.159   7.196  0.6544  0.0633 -0.6194
  881MOL0     C21466   3.057  11.264   7.193  0.8401 -1.0978  0.7265
  881MOL0     C21467   3.016  11.396   7.190  0.1982 -1.1317  0.5186
  881MOL0     C21468   3.125  11.497   7.155 -1.3443  0.8305 -0.5496
  881MOL0     C21469   2.873  11.432   7.204 -0.5814  0.0796 -0.2888
  881MOL0     C21470   2.820  11.575   7.209 -0.3088 -0.3162  0.0250
  881MOL0     O21471   2.690  11.585   7.236 -0.2284 -0.0417 -1.1109
  881MOL0     C21472   2.620  11.705   7.219 -0.3289 -0.2871  0.3813
  881MOL0     C21473   2.677  11.824   7.277 -0.0685 -0.0387  0.1292
  881MOL0     C21474   2.617  11.943   7.290 -1.4011  0.0935  0.9588
  881MOL0     C21475   2.484  11.945   7.260  0.8485  0.8266  0.6408
  881MOL0     O21476   2.409  12.060   7.281 -0.3328 -0.2131 -0.2182
  881MOL0     C21477   2.462  12.178   7.338  0.2971 -0.2531 -1.0624
  881MOL0     C21478   2.360  12.294   7.331 -0.7734 -0.1741 -0.2727
  881MOL0     C21479   2.240  12.280   7.426 -0.6640  0.1581 -0.1094
  881MOL0     C21480   2.121  12.358   7.373 -0.1143 -0.1402 -0.2797
  881MOL0     C21481   1.997  12.338   7.455  0.1248  0.1631  0.4699
  881MOL0     C21482   1.992  12.416   7.589 -0.4278 -0.5781  0.0143
  881MOL0     C21483   1.845  12.448   7.630  0.3135 -0.5064 -0.7216
  881MOL0     C21484   1.837  12.468   7.781 -0.0753 -0.1706 -0.1858
  881MOL0    Cl21485   1.675  12.517   7.837 -0.1487 -0.4359  0.5995
  881MOL0     C21486   2.417  11.838   7.199  0.4147 -0.7608 -0.1454
  881MOL0     C21487   2.483  11.715   7.184  0.0451 -0.4811  0.1349
  881MOL0     O21488   2.886  11.661   7.150 -0.3433 -0.1647  1.2221
  881MOL0     C21489   2.791  11.326   7.222  0.3216  1.8099 -0.2591
  881MOL0     C21490   2.833  11.191   7.228  0.2974  0.1251  0.1610
  881MOL0     N21491   2.848  10.523   7.194 -0.2815 -0.1567 -0.5075
  881MOL0     N21492   2.890  10.449   7.293 -0.4836  0.2990  0.7092
  881MOL0     C21493   3.591   9.497   7.625 -0.1010 -0.2383 -0.3076
  881MOL0     C21494   3.589   9.405   7.728  0.1847 -0.7367  0.3214
  881MOL0     C21495   3.473   9.014   7.936  0.7577 -0.5013  0.3967
  881MOL0     C21496   3.584   8.971   8.007 -0.3977  0.2899  0.1967
  881MOL0     C21497   3.570   8.875   8.111  0.5649  0.2634  0.2222
  881MOL0     C21498   3.448   8.818   8.145  0.4097  0.8702  0.3752
  881MOL0     O21499   3.431   8.746   8.261  0.0150  0.0772 -0.4783
  881MOL0     C21500   3.306   8.738   8.331  0.4962  0.0343 -0.5103
  881MOL0     C21501   3.320   8.712   8.485 -0.8623  0.9749  1.1619
  881MOL0     C21502   3.343   8.829   8.582 -0.1374  0.6599  0.5646
  881MOL0     C21503   3.364   8.779   8.729 -0.0585  0.0427 -0.4586
  881MOL0     C21504   3.242   8.726   8.789 -0.5604  0.0462 -0.8015
  881MOL0     C21505   3.151   8.693   8.865 -0.2676  0.6197  1.3179
  881MOL0     C21506   3.339   8.853   8.071  0.1566  0.4886  0.0528
  881MOL0     C21507   3.342   8.954   7.973 -0.9204  0.1874 -0.3275
  881MOL0     C21508   3.208   8.992   7.915  0.1806 -0.0865  0.4767
  881MOL0     H21509   3.669   9.133   7.552  0.8242  0.9334 -1.2391
  881MOL0     H21510   3.667   9.302   7.364  0.5877 -1.4600 -0.1998
  881MOL0     H21511   3.610   9.744   7.327 -2.5990 -0.2656 -0.3134
  881MOL0     H21512   3.613   9.748   7.499 -1.5804  1.7601 -0.9203
  881MOL0     H21513   3.387   9.664   7.334  5.2600  0.4219 -2.5035
  881MOL0     H21514   3.380   9.661   7.516  1.3155 -2.0545 -1.1151
  881MOL0     H21515   3.377   9.893   7.514  0.5467 -2.1068  1.4525
  881MOL0     H21516   3.463   9.908   7.353 -0.7704  1.6362  0.0390
  881MOL0     H21517   3.257   9.834   7.242 -1.3647 -0.4716 -1.0444
  881MOL0     H21518   3.173   9.834   7.401  1.4188 -0.0937  2.5536
  881MOL0     H21519   3.314  10.073   7.276 -1.6239  3.4897  0.4684
  881MOL0     H21520   3.227  10.071   7.433 -0.0555 -2.1951  0.7991
  881MOL0     H21521   3.097   9.976   7.179  2.4895 -0.5720 -0.1827
  881MOL0     H21522   3.018  10.030   7.321 -0.5681  1.2847 -1.8252
  881MOL0     H21523   3.001  10.204   7.146  0.6612 -0.7913 -0.5467
  881MOL0     H21524   3.178  10.209   7.139  1.4719 -2.7307  0.4815
  881MOL0     H21525   3.033  10.254   7.410  3.3016  0.5383  1.1783
  881MOL0     H21526   3.177  10.313   7.374 -1.0397 -0.2688 -0.0553
  881MOL0     H21527   3.165  10.474   7.103  1.5448 -3.1308  0.3923
  881MOL0     H21528   2.842  10.552   6.905  1.4830 -1.0252  1.7712
  881MOL0     H21529   3.008  10.581   6.896 -1.4001  1.2249 -0.9554
  881MOL0     H21530   2.881  10.788   6.896 -2.6208 -1.7852 -1.9277
  881MOL0     H21531   2.791  10.743   7.033  0.2942  0.2675 -0.2881
  881MOL0     H21532   3.011  10.762   7.182 -1.9361  1.7423 -0.1428
  881MOL0     H21533   3.082  10.828   7.039  0.7813  0.1996  0.5698
  881MOL0     H21534   2.870  10.991   7.040 -1.0025 -1.9547 -1.4878
  881MOL0     H21535   2.830  10.912   7.193  1.3824 -3.0012  0.0090
  881MOL0     H21536   3.156  11.221   7.181  0.8541 -0.8816  0.0469
  881MOL0     H21537   3.228  11.462   7.144 -1.6363  0.2114 -1.4003
  881MOL0     H21538   3.131  11.580   7.226  0.0622  0.1501  0.1746
  881MOL0     H21539   3.094  11.541   7.060 -0.1725  3.0472  0.0269
  881MOL0     H21540   2.777  11.816   7.319 -0.7775 -0.6703  1.7683
  881MOL0     H21541   2.671  12.028   7.329 -4.0662  1.2161  2.4912
  881MOL0     H21542   2.475  12.163   7.445 -0.7949 -0.3543 -0.9404
  881MOL0     H21543   2.546  12.225   7.286 -0.0713  0.3545 -1.1148
  881MOL0     H21544   2.415  12.385   7.354  3.0822 -0.7048 -5.5634
  881MOL0     H21545   2.330  12.289   7.226 -0.0546 -1.9628 -0.4386
  881MOL0     H21546   2.267  12.304   7.529 -1.5065 -1.6347  0.5584
  881MOL0     H21547   2.218  12.173   7.420  2.0768 -0.4458 -0.6222
  881MOL0     H21548   2.090  12.331   7.272 -2.7658 -0.5823  0.5525
  881MOL0     H21549   2.156  12.461   7.376  1.9620 -0.7910  2.2251
  881MOL0     H21550   1.917  12.371   7.387  1.1212  0.1272 -0.7505
  881MOL0     H21551   1.987  12.229   7.466  0.5610  0.2209  1.5732
  881MOL0     H21552   2.050  12.509   7.591 -1.2936 -0.0015  2.2128
  881MOL0     H21553   2.035  12.360   7.672 -0.5928  0.8533  1.1120
  881MOL0     H21554   1.788  12.358   7.605  0.2612 -1.0005  1.0960
  881MOL0     H21555   1.799  12.524   7.566  2.0028  2.0842  0.9621
  881MOL0     H21556   1.912  12.538   7.819  1.5930 -0.4150 -2.7952
  881MOL0     H21557   1.861  12.372   7.827  2.1802  0.7219  0.6256
  881MOL0     H21558   2.310  11.842   7.183  0.6652 -0.3902 -1.9861
  881MOL0     H21559   2.430  11.634   7.135 -0.9847  1.9949 -3.2440
  881MOL0     H21560   2.687  11.354   7.232  0.5426  2.8710 -0.6739
  881MOL0     H21561   2.759  11.113   7.244 -0.8341  0.5710 -2.4231
  881MOL0     H21562   3.591   9.602   7.652 -2.5182  0.2429 -1.8338
  881MOL0     H21563   3.580   9.435   7.832  0.5351  1.5831 -0.2561
  881MOL0     H21564   3.676   9.019   7.974 -1.2547  0.3185 -2.3462
  881MOL0     H21565   3.650   8.826   8.168  0.0123 -3.0483 -1.5828
  881MOL0     H21566   3.249   8.831   8.316  0.8903  0.6068  1.3869
  881MOL0     H21567   3.244   8.658   8.290  2.1186 -2.0131  0.8445
  881MOL0     H21568   3.387   8.628   8.505  0.0208  1.6302  1.0108
  881MOL0     H21569   3.228   8.665   8.520 -1.5196  0.6335 -0.9053
  881MOL0     H21570   3.432   8.883   8.549 -0.1581 -0.7771 -2.0247
  881MOL0     H21571   3.256   8.896   8.585  0.5458  1.6386  4.1099
  881MOL0     H21572   3.391   8.862   8.795 -3.0065  1.4122 -0.8320
  881MOL0     H21573   3.449   8.712   8.741  1.7295  2.4850  1.6692
  881MOL0     H21574   3.076   8.664   8.935 -1.4102 -1.6794 -0.7086
  881MOL0     H21575   3.242   8.814   8.099  0.2704 -2.9082 -3.3883
  881MOL0     H21576   3.127   8.970   7.985 -0.0601  0.5901  0.4211
  881MOL0     H21577   3.198   9.100   7.898  0.9944 -0.0439  0.2078
  881MOL0     H21578   3.178   8.945   7.821 -0.3346  2.8585 -0.9435
  882MOL0     O21579   2.694   2.059   5.670  0.1960 -0.3599 -0.7256
  882MOL0     C21580   2.693   2.144   5.583  0.2519 -0.2091 -0.2628
  882MOL0     O21581   2.613   2.256   5.571 -0.0211  0.8403 -0.3280
  882MOL0     C21582   2.534   2.308   5.673  0.1366  0.1214 -0.3273
  882MOL0     C21583   2.567   2.315   5.810 -1.2131 -0.1106 -0.4331
  882MOL0     C21584   2.495   2.394   5.899  0.9862 -0.7770 -0.0236
  882MOL0     C21585   2.384   2.467   5.854 -0.1111 -0.3334  0.0018
  882MOL0     O21586   2.310   2.548   5.939 -0.2760  0.3101  0.0127
  882MOL0     C21587   2.369   2.597   6.067  0.4808  0.8722  0.7134
  882MOL0     C21588   2.284   2.701   6.135  0.4408 -0.0722  0.2526
  882MOL0     C21589   2.341   2.746   6.273 -0.5407  0.2656  0.5261
  882MOL0     C21590   2.459   2.841   6.254  0.4579  0.5906 -0.5524
  882MOL0     C21591   2.523   2.865   6.398  0.5126  0.4180 -1.6357
  882MOL0     C21592   2.582   3.002   6.411 -0.5124  0.1335 -0.1218
  882MOL0     C21593   2.665   3.035   6.282 -0.4418  0.1650  0.0221
  882MOL0     C21594   2.742   3.176   6.290  0.4478  0.1648 -0.9109
  882MOL0     N21595   2.658   3.290   6.270  0.5492 -1.0642  0.1241
  882MOL0     C21596   2.605   3.368   6.369 -0.4693 -0.4993  0.2928
  882MOL0     C21597   2.503   3.442   6.315  0.1553 -0.5768  0.7551
  882MOL0     C21598   2.413   3.529   6.388 -0.2534 -0.1902 -0.3305
  882MOL0     C21599   2.275   3.459   6.424 -0.3476 -0.2440 -0.2068
  882MOL0     C21600   2.196   3.410   6.303 -0.1845  0.0819 -0.8181
  882MOL0     C21601   2.126   3.516   6.218 -0.5732  0.1242  0.9175
  882MOL0     O21602   2.000   3.554   6.283  0.6649  0.3828  0.4334
  882MOL0     C21603   1.897   3.612   6.208 -0.6783  0.2392  0.1227
  882MOL0     C21604   1.904   3.687   6.088  0.2767  0.6893 -0.2605
  882MOL0     C21605   1.788   3.730   6.016  0.0755 -0.0981  0.2435
  882MOL0     C21606   1.813   3.816   5.891  1.3066 -0.6766  0.4907
  882MOL0     C21607   1.661   3.701   6.077  0.0405  0.2037 -0.1760
  882MOL0     C21608   1.532   3.751   6.022  0.1976  0.9217  0.7123
  882MOL0     O21609   1.433   3.812   6.103 -0.3676 -0.0475 -0.5462
  882MOL0     C21610   1.318   3.859   6.039 -0.5091 -0.4729 -0.6292
  882MOL0     C21611   1.198   3.802   6.086 -0.0922  0.5271  0.3204
  882MOL0     C21612   1.078   3.837   6.021 -0.1985  0.9762  0.2469
  882MOL0     C21613   1.070   3.929   5.921  0.8411 -0.6927 -0.7234
  882MOL0     O21614   0.958   3.992   5.875 -0.3831  0.6877  0.6507
  882MOL0     C21615   0.884   3.911   5.773 -0.0161  0.2268  0.1845
  882MOL0     C21616   0.791   3.994   5.691 -0.7441  0.8156 -0.1902
  882MOL0     C21617   0.746   3.917   5.565  0.2858  0.6242  0.8844
  882MOL0     C21618   0.628   3.993   5.493 -0.9838  0.3717  0.2708
  882MOL0     C21619   0.565   3.896   5.395 -0.5046  0.3001 -0.5721
  882MOL0     C21620   0.459   3.960   5.303 -0.0227  0.8789  1.0677
  882MOL0     C21621   0.515   4.089   5.245 -0.3635 -0.4522  0.7134
  882MOL0     C21622   0.429   4.145   5.132 -0.3160  0.5287 -0.8891
  882MOL0    Cl21623   0.261   4.170   5.162  0.1164 -0.1668 -0.3238
  882MOL0     C21624   1.184   3.982   5.877 -1.0307  0.2542 -0.0671
  882MOL0     C21625   1.310   3.945   5.929 -0.1421 -0.4320  1.2452
  882MOL0     O21626   1.527   3.740   5.900  0.9672  0.5482  0.3664
  882MOL0     C21627   1.650   3.633   6.203  0.1325 -0.8533  0.6654
  882MOL0     C21628   1.764   3.592   6.261 -0.2722  0.3563 -0.4746
  882MOL0     N21629   2.497   3.410   6.181  0.3521  0.3380  0.4778
  882MOL0     N21630   2.586   3.317   6.155 -0.7234 -0.3789 -0.4288
  882MOL0     C21631   2.348   2.454   5.717  0.4024 -0.4298 -0.4427
  882MOL0     C21632   2.416   2.372   5.635  0.7890 -0.2239  0.0290
  882MOL0     C21633   2.805   2.137   5.489  0.1924  0.2944  0.4850
  882MOL0     C21634   2.845   2.255   5.418 -0.8486 -0.6120  0.8717
  882MOL0     C21635   2.933   2.238   5.311 -0.4158 -0.4748 -0.3311
  882MOL0     C21636   3.001   2.124   5.282 -0.0228 -0.0344  0.2176
  882MOL0     O21637   3.092   2.120   5.178  0.8206 -0.0009 -0.0469
  882MOL0     C21638   3.212   2.202   5.203  0.2797 -0.2635  0.4149
  882MOL0     C21639   3.325   2.118   5.271  0.3156 -0.3577 -0.0305
  882MOL0     C21640   3.435   2.079   5.179  0.3568  0.1299  0.8029
  882MOL0     C21641   3.425   1.943   5.096 -0.1229 -1.0192  0.5915
  882MOL0     C21642   3.315   1.855   5.134  0.0871  1.3005  0.3289
  882MOL0     C21643   3.219   1.782   5.169 -0.2323 -0.3981 -0.0624
  882MOL0     C21644   2.960   2.000   5.346 -1.5182  0.9899  0.1449
  882MOL0     C21645   2.859   2.005   5.446 -0.8462  0.5037  0.3705
  882MOL0     C21646   2.812   1.865   5.498  0.0013  0.6939  0.3177
  882MOL0     H21647   2.659   2.269   5.844 -0.2562 -0.4347 -3.2068
  882MOL0     H21648   2.528   2.403   6.001  0.4052 -2.2918  0.3128
  882MOL0     H21649   2.475   2.621   6.055  0.6498  0.5088  1.4599
  882MOL0     H21650   2.352   2.512   6.135  2.4490 -1.7322 -1.7753
  882MOL0     H21651   2.264   2.793   6.079  0.8006  1.3217  2.2770
  882MOL0     H21652   2.192   2.648   6.162  1.1528 -1.5461 -0.1284
  882MOL0     H21653   2.257   2.804   6.313 -0.5744  2.0440 -1.8889
  882MOL0     H21654   2.377   2.661   6.332  3.5356  0.2758 -1.5603
  882MOL0     H21655   2.528   2.793   6.184 -1.0712  0.5646 -2.1207
  882MOL0     H21656   2.425   2.932   6.203 -1.4587  1.0715  1.4142
  882MOL0     H21657   2.596   2.785   6.415 -0.8625 -0.6660 -0.6466
  882MOL0     H21658   2.445   2.858   6.475  1.9915  0.2625 -0.0779
  882MOL0     H21659   2.489   3.061   6.413 -1.0384 -0.5756 -1.9137
  882MOL0     H21660   2.648   3.033   6.492 -0.6608  0.4777 -0.1325
  882MOL0     H21661   2.596   3.028   6.197 -2.0125  0.9376  1.1872
  882MOL0     H21662   2.743   2.958   6.278 -3.7702 -3.4444 -1.2700
  882MOL0     H21663   2.788   3.174   6.389 -2.4191 -0.2167  0.5316
  882MOL0     H21664   2.812   3.188   6.207 -1.3657  1.2189 -2.3656
  882MOL0     H21665   2.640   3.366   6.472  0.7076 -1.4572 -0.1078
  882MOL0     H21666   2.397   3.622   6.333  2.2308 -0.0555 -0.9255
  882MOL0     H21667   2.457   3.554   6.485 -1.3565  0.1269  0.1061
  882MOL0     H21668   2.298   3.372   6.485 -1.5894 -0.9868 -0.7466
  882MOL0     H21669   2.208   3.525   6.481 -0.5534 -0.0730 -0.6397
  882MOL0     H21670   2.251   3.333   6.248 -1.0077 -0.5989 -0.7104
  882MOL0     H21671   2.116   3.354   6.350  1.7871  1.2999  4.7315
  882MOL0     H21672   2.179   3.608   6.193 -0.5727 -0.5534 -1.8747
  882MOL0     H21673   2.101   3.465   6.125  2.4540 -2.6819  1.4577
  882MOL0     H21674   1.991   3.716   6.030  0.1605 -1.9349 -1.9008
  882MOL0     H21675   1.747   3.903   5.890 -1.3614 -2.4545 -3.4239
  882MOL0     H21676   1.779   3.768   5.798 -0.4505  2.6358 -0.7544
  882MOL0     H21677   1.918   3.839   5.871  1.2555 -1.2884 -0.5867
  882MOL0     H21678   1.186   3.728   6.165 -0.8828  1.3735  1.0061
  882MOL0     H21679   0.983   3.802   6.059 -1.7430  3.7779 -0.7698
  882MOL0     H21680   0.955   3.863   5.705 -3.1749  0.7470 -3.8574
  882MOL0     H21681   0.819   3.839   5.824 -2.9946  1.5188 -1.4836
  882MOL0     H21682   0.707   4.024   5.754 -0.4210 -1.8758  1.6636
  882MOL0     H21683   0.839   4.085   5.653  0.0461 -0.3008 -1.9671
  882MOL0     H21684   0.718   3.816   5.596 -1.6765  0.5801 -0.8347
  882MOL0     H21685   0.825   3.907   5.490 -0.4495 -0.1500  0.1892
  882MOL0     H21686   0.671   4.079   5.439  0.9682 -3.0450 -4.2768
  882MOL0     H21687   0.551   4.034   5.558  1.0419  1.3479  2.1961
  882MOL0     H21688   0.637   3.840   5.335 -3.2095 -0.3454 -3.5013
  882MOL0     H21689   0.521   3.820   5.460 -0.2415 -0.4958 -1.3063
  882MOL0     H21690   0.375   3.984   5.368 -2.2120  0.3250 -1.4098
  882MOL0     H21691   0.434   3.889   5.224  2.1727  3.8020 -2.6620
  882MOL0     H21692   0.617   4.074   5.209  0.2089  0.4123  1.9030
  882MOL0     H21693   0.516   4.163   5.325 -1.1427  0.6499 -0.2642
  882MOL0     H21694   0.437   4.090   5.038 -4.7784 -0.4426 -0.9329
  882MOL0     H21695   0.473   4.244   5.120 -0.8021  1.2571  2.3535
  882MOL0     H21696   1.182   4.061   5.803  4.3479  1.1050  0.3194
  882MOL0     H21697   1.401   3.996   5.900 -1.0802  0.1282 -0.8562
  882MOL0     H21698   1.550   3.633   6.245 -0.1525  0.5146  0.0607
  882MOL0     H21699   1.761   3.554   6.362  0.4814  3.1917  0.7148
  882MOL0     H21700   2.261   2.497   5.669  0.2144  0.2600  0.4921
  882MOL0     H21701   2.388   2.357   5.531  0.6200 -3.4386  0.4247
  882MOL0     H21702   2.792   2.348   5.437  0.7099  0.6367 -0.5249
  882MOL0     H21703   2.974   2.324   5.260  0.3345 -2.3557 -3.1281
  882MOL0     H21704   3.255   2.235   5.109 -0.5447 -0.8998 -0.2010
  882MOL0     H21705   3.191   2.278   5.279 -5.9822 -2.1151  1.0920
  882MOL0     H21706   3.277   2.038   5.326 -0.3277 -0.3395 -0.5547
  882MOL0     H21707   3.368   2.178   5.352  0.4027 -0.9013  0.3286
  882MOL0     H21708   3.462   2.151   5.102  0.1256 -1.2197 -0.5940
  882MOL0     H21709   3.520   2.068   5.248 -1.1281 -1.5241  2.4950
  882MOL0     H21710   3.519   1.888   5.102  0.7624  0.5052  1.1478
  882MOL0     H21711   3.417   1.975   4.991  2.7339  2.7809  1.3256
  882MOL0     H21712   3.126   1.734   5.194 -0.0575 -0.2544  0.9295
  882MOL0     H21713   2.998   1.902   5.321  1.2091  1.1200  3.1074
  882MOL0     H21714   2.828   1.790   5.420  0.5736  3.3018 -2.2783
  882MOL0     H21715   2.865   1.840   5.591 -2.9287 -0.4707  1.7736
  882MOL0     H21716   2.709   1.858   5.533  0.3154  3.7716  2.2580
  883MOL0     O21717   1.871   2.912   8.646  0.2561  0.5837 -0.1796
  883MOL0     C21718   1.836   2.999   8.563 -0.4110 -0.5302 -0.1780
  883MOL0     O21719   1.918   3.071   8.475  0.6956  0.2343  0.5038
  883MOL0     C21720   2.045   3.027   8.443 -0.2793  0.2450 -0.5132
  883MOL0     C21721   2.065   2.928   8.350 -0.1601 -0.4786 -0.4553
  883MOL0     C21722   2.191   2.875   8.318 -0.6580  0.5415 -0.2997
  883MOL0     C21723   2.305   2.951   8.357 -0.2134  0.5509 -0.2834
  883MOL0     O21724   2.423   2.908   8.301 -0.3193  0.0897  0.6012
  883MOL0     C21725   2.544   2.962   8.345 -0.3901 -0.1277 -0.7277
  883MOL0     C21726   2.653   2.857   8.313  1.0123 -0.2010 -0.2206
  883MOL0     C21727   2.770   2.867   8.407 -0.0185  0.4585 -0.0003
  883MOL0     C21728   2.893   2.822   8.334  0.1677 -0.2756 -0.1224
  883MOL0     C21729   3.010   2.820   8.426 -0.1534  0.0598 -0.4261
  883MOL0     C21730   3.011   2.694   8.511  0.1036  0.2650 -0.4385
  883MOL0     C21731   3.155   2.674   8.564  0.5497  0.3742 -0.5253
  883MOL0     C21732   3.211   2.774   8.670  0.9405 -0.8043  0.0481
  883MOL0     N21733   3.322   2.707   8.735 -1.0039 -0.3962 -0.1311
  883MOL0     C21734   3.307   2.620   8.830  0.6766 -0.4896 -1.0091
  883MOL0     C21735   3.439   2.588   8.865 -0.1631  0.7809 -0.4335
  883MOL0     C21736   3.472   2.488   8.964  0.0582 -0.0394 -0.0873
  883MOL0     C21737   3.475   2.537   9.109 -0.1058 -0.7620 -0.2179
  883MOL0     C21738   3.593   2.635   9.147  0.8551 -0.2268  0.0799
  883MOL0     C21739   3.727   2.588   9.090 -0.3394 -0.8556  0.1752
  883MOL0     O21740   3.782   2.479   9.157 -0.2840  0.2478 -0.2224
  883MOL0     C21741   3.895   2.433   9.109 -0.2688 -0.3408 -0.0748
  883MOL0     C21742   3.882   2.338   9.008  0.6143 -0.0832 -0.3749
  883MOL0     C21743   3.988   2.263   8.971 -0.2791  0.8131 -0.2547
  883MOL0     C21744   3.959   2.171   8.850 -0.1023  1.1307 -0.2534
  883MOL0     C21745   4.115   2.297   9.021 -0.6469 -0.1335  0.0865
  883MOL0     C21746   4.241   2.241   8.958  0.1206 -0.3376 -0.0693
  883MOL0     O21747   4.332   2.181   9.033 -0.0866 -0.4325 -0.4437
  883MOL0     C21748   4.464   2.212   9.012  0.8956 -0.4173 -0.3248
  883MOL0     C21749   4.509   2.339   8.978  0.9376  0.2847  0.3920
  883MOL0     C21750   4.645   2.356   8.952  0.6410 -0.4029 -0.5256
  883MOL0     C21751   4.744   2.258   8.967 -0.2780 -0.8089  1.1624
  883MOL0     O21752   4.875   2.290   8.937  0.5233  0.8043  0.1796
  883MOL0     C21753   4.982   2.218   8.992  1.3172 -1.0489 -0.2564
  883MOL0     C21754   5.105   2.229   8.896 -0.9773 -0.6791  0.1289
  883MOL0     C21755   5.141   2.370   8.850 -0.5538 -0.5424  0.2637
  883MOL0     C21756   5.286   2.414   8.869  0.1153  0.8724 -0.6840
  883MOL0     C21757   5.294   2.558   8.820 -0.2243 -0.0305 -0.1547
  883MOL0     C21758   5.439   2.600   8.827 -0.7271  0.2650  0.6762
  883MOL0     C21759   5.439   2.750   8.793 -0.3139  0.2096 -0.6255
  883MOL0     C21760   5.579   2.799   8.756  0.2098 -0.0495  1.2856
  883MOL0    Cl21761   5.678   2.758   8.907  0.3381  0.2227  0.5300
  883MOL0     C21762   4.695   2.136   9.013  0.8024  0.3292  0.7105
  883MOL0     C21763   4.559   2.114   9.034 -0.0256 -0.2363 -1.9186
  883MOL0     O21764   4.253   2.245   8.831  0.2948 -0.2252 -0.1227
  883MOL0     C21765   4.134   2.383   9.128 -0.2014 -0.3555  0.6482
  883MOL0     C21766   4.019   2.453   9.174 -1.0197  1.1490 -0.2733
  883MOL0     N21767   3.524   2.665   8.794  0.3122  0.5288 -0.2661
  883MOL0     N21768   3.457   2.742   8.717 -0.6794 -0.0221 -0.6218
  883MOL0     C21769   2.288   3.055   8.455  0.7545  0.5943  0.0523
  883MOL0     C21770   2.157   3.096   8.496  0.3844 -0.5051 -0.0679
  883MOL0     C21771   1.686   3.019   8.544 -0.6750  1.1517  0.0423
  883MOL0     C21772   1.647   3.100   8.431  0.1639 -0.5680 -0.0740
  883MOL0     C21773   1.514   3.119   8.398  0.2650 -0.1397 -0.4693
  883MOL0     C21774   1.408   3.056   8.468 -0.4189 -0.0240 -1.4999
  883MOL0     O21775   1.281   3.069   8.417  0.7112 -0.3489 -0.7602
  883MOL0     C21776   1.166   3.029   8.493  0.2147 -0.2345  0.2308
  883MOL0     C21777   1.143   3.121   8.617  0.1759  0.2312  0.5853
  883MOL0     C21778   1.025   3.061   8.703  0.8540 -0.4152  0.6734
  883MOL0     C21779   1.020   3.141   8.839 -0.8675  0.3175  0.4321
  883MOL0     C21780   0.932   3.066   8.930 -0.8623 -0.1986 -0.7382
  883MOL0     C21781   0.866   2.993   8.991  0.2223 -0.7548 -0.1601
  883MOL0     C21782   1.446   2.978   8.583  0.2557 -0.6250 -0.4556
  883MOL0     C21783   1.576   2.964   8.627 -0.4938 -0.7905  0.4280
  883MOL0     C21784   1.579   2.869   8.742 -0.0112  0.8566 -0.6373
  883MOL0     H21785   1.976   2.883   8.306  1.8023 -3.9446 -1.2248
  883MOL0     H21786   2.198   2.801   8.238  0.4909  2.1966 -1.8108
  883MOL0     H21787   2.547   2.974   8.453 -2.4964  3.5640 -0.9167
  883MOL0     H21788   2.563   3.060   8.300 -1.0074 -0.0634 -0.8571
  883MOL0     H21789   2.614   2.755   8.315 -0.5899  0.3016 -2.4081
  883MOL0     H21790   2.688   2.884   8.213 -1.4640 -0.9722 -1.3787
  883MOL0     H21791   2.781   2.971   8.439 -2.6477  1.1791 -1.1778
  883MOL0     H21792   2.742   2.810   8.497 -0.5058  2.1976  0.9903
  883MOL0     H21793   2.869   2.725   8.288 -1.5210 -1.3482  2.7306
  883MOL0     H21794   2.903   2.902   8.261  1.7800  0.7341  1.1466
  883MOL0     H21795   3.010   2.911   8.487  3.8719 -0.2800  0.3836
  883MOL0     H21796   3.101   2.838   8.368 -0.4326  0.4884 -0.7306
  883MOL0     H21797   2.940   2.710   8.593 -1.9689 -0.4791 -2.0095
  883MOL0     H21798   2.981   2.603   8.460 -0.6654  1.3340 -1.9658
  883MOL0     H21799   3.234   2.667   8.488  1.3205  0.7337  0.2292
  883MOL0     H21800   3.146   2.578   8.615  0.2178  1.2644  1.1380
  883MOL0     H21801   3.235   2.871   8.628 -2.4564 -0.5577 -1.6422
  883MOL0     H21802   3.135   2.790   8.747  1.7139 -2.3263  1.1960
  883MOL0     H21803   3.220   2.574   8.877  2.7195 -0.3886  3.4072
  883MOL0     H21804   3.567   2.441   8.938  0.2938  0.4180 -0.0577
  883MOL0     H21805   3.391   2.416   8.949 -0.7390  1.0098 -0.9869
  883MOL0     H21806   3.374   2.578   9.120  0.1731  0.6911 -2.4962
  883MOL0     H21807   3.491   2.455   9.180  2.0101 -0.1657  0.0810
  883MOL0     H21808   3.564   2.730   9.102 -0.4908 -1.1743 -1.1048
  883MOL0     H21809   3.601   2.656   9.254 -2.0117 -0.7700  0.4862
  883MOL0     H21810   3.718   2.564   8.984  3.2235 -1.2773 -0.1487
  883MOL0     H21811   3.791   2.677   9.088  0.0998 -1.1756 -0.0441
  883MOL0     H21812   3.776   2.323   8.986  0.6381 -0.4182 -0.2719
  883MOL0     H21813   4.056   2.133   8.816 -0.1253  1.9660 -1.2851
  883MOL0     H21814   3.919   2.227   8.765  1.7274  3.1643  0.1514
  883MOL0     H21815   3.887   2.094   8.882 -0.4946  1.4016 -0.4791
  883MOL0     H21816   4.442   2.423   8.966  0.3178 -0.3096 -0.3781
  883MOL0     H21817   4.666   2.455   8.911  2.0415  1.6298  4.3423
  883MOL0     H21818   5.011   2.262   9.088  1.4652  1.1813 -1.2756
  883MOL0     H21819   4.965   2.111   9.006  2.7260 -1.0477  2.0347
  883MOL0     H21820   5.191   2.187   8.949  0.1912 -1.5931 -2.3047
  883MOL0     H21821   5.101   2.168   8.804 -1.7318  0.4165 -0.5840
  883MOL0     H21822   5.076   2.428   8.917 -0.9499 -1.5866  0.8134
  883MOL0     H21823   5.100   2.377   8.749 -1.4855 -1.1911  0.5748
  883MOL0     H21824   5.349   2.348   8.808 -1.8311 -2.1306  0.3312
  883MOL0     H21825   5.312   2.410   8.975 -0.3452  2.6317 -0.4838
  883MOL0     H21826   5.270   2.560   8.713  0.6413  0.0756 -0.3582
  883MOL0     H21827   5.242   2.634   8.879  2.3129  1.7968 -0.0864
  883MOL0     H21828   5.493   2.537   8.756 -3.2149 -3.0322  1.4322
  883MOL0     H21829   5.488   2.589   8.924  0.0359  0.6811  0.3441
  883MOL0     H21830   5.404   2.806   8.880  0.6432  2.1145 -1.4032
  883MOL0     H21831   5.381   2.785   8.708 -0.9890 -0.5830 -0.5036
  883MOL0     H21832   5.577   2.906   8.736  2.0490 -0.4018 -1.1546
  883MOL0     H21833   5.612   2.742   8.669  1.2863  2.6310 -0.1627
  883MOL0     H21834   4.753   2.044   9.016  0.4341  0.0486 -0.4233
  883MOL0     H21835   4.533   2.016   9.075 -1.9024  0.8230 -0.4178
  883MOL0     H21836   4.234   2.401   9.166 -0.7975  0.6769  1.7940
  883MOL0     H21837   4.019   2.522   9.258  2.0580 -0.2125  0.9994
  883MOL0     H21838   2.377   3.106   8.492  0.5990  0.1024  1.1505
  883MOL0     H21839   2.135   3.178   8.563  1.4295 -1.6616  1.8225
  883MOL0     H21840   1.725   3.143   8.369  0.4839  0.4865  1.0250
  883MOL0     H21841   1.494   3.182   8.313 -2.0994  0.8758  0.7450
  883MOL0     H21842   1.072   3.040   8.438 -0.2205 -0.0949  0.9924
  883MOL0     H21843   1.179   2.925   8.523  0.2258 -0.1655  0.4674
  883MOL0     H21844   1.116   3.223   8.588 -0.2651  0.5650  2.0976
  883MOL0     H21845   1.235   3.134   8.674  0.4906  0.7017 -0.0167
  883MOL0     H21846   0.925   3.072   8.660  0.6938  0.5550  1.2617
  883MOL0     H21847   1.043   2.954   8.712 -0.7734 -0.8062 -0.3044
  883MOL0     H21848   0.985   3.242   8.819 -2.7892  0.1801  2.5847
  883MOL0     H21849   1.123   3.142   8.875 -0.7517 -2.2152  0.3506
  883MOL0     H21850   0.794   2.926   9.034 -0.7681 -0.8878 -1.9382
  883MOL0     H21851   1.368   2.934   8.645  0.0592  3.5992  2.7888
  883MOL0     H21852   1.495   2.799   8.744 -0.0956  0.9537 -0.8238
  883MOL0     H21853   1.674   2.815   8.749  2.0604  4.0382 -1.9805
  883MOL0     H21854   1.578   2.925   8.836  1.8896 -1.5403  0.9358
  884MOL0     O21855   1.078   2.132   7.883 -0.5567  0.0425 -0.9306
  884MOL0     C21856   1.173   2.077   7.942  0.0252 -0.1201  0.5457
  884MOL0     O21857   1.166   1.962   8.019 -0.3447 -0.3597 -0.5139
  884MOL0     C21858   1.045   1.903   8.018  0.1326  0.0108  0.6421
  884MOL0     C21859   1.009   1.837   7.891  0.3347  0.2243  0.0319
  884MOL0     C21860   0.888   1.772   7.886  0.4878  0.1115  0.0094
  884MOL0     C21861   0.794   1.768   8.002  0.4441  0.5267 -0.4577
  884MOL0     O21862   0.677   1.705   7.997  0.1943 -0.3820  0.2827
  884MOL0     C21863   0.669   1.602   7.904 -0.1868  0.2198 -0.4825
  884MOL0     C21864   0.533   1.538   7.918 -0.2334  0.1665  0.8474
  884MOL0     C21865   0.531   1.405   7.841  0.9269  0.3127  0.3217
  884MOL0     C21866   0.536   1.443   7.687  0.1138 -0.6428 -0.7426
  884MOL0     C21867   0.497   1.334   7.585  0.9048  0.1499 -1.0372
  884MOL0     C21868   0.458   1.401   7.452  0.5916  0.0552  0.1833
  884MOL0     C21869   0.336   1.320   7.405  0.0241  0.4544 -0.4080
  884MOL0     C21870   0.325   1.304   7.248  0.2737 -0.1556 -0.6697
  884MOL0     N21871   0.429   1.206   7.194  0.1466 -0.8550  0.0307
  884MOL0     C21872   0.539   1.246   7.123 -0.6422 -0.1983 -0.8614
  884MOL0     C21873   0.619   1.134   7.120 -0.1340 -1.1264  0.4211
  884MOL0     C21874   0.764   1.136   7.067 -0.1199 -0.4885 -0.0364
  884MOL0     C21875   0.835   1.252   7.150 -0.5041  0.1789 -0.2081
  884MOL0     C21876   0.843   1.219   7.306 -0.2923  0.3205  0.0632
  884MOL0     C21877   0.874   1.346   7.380 -0.3032  0.1614 -0.3840
  884MOL0     O21878   0.856   1.308   7.525 -0.5964  0.8866  0.3323
  884MOL0     C21879   0.954   1.344   7.608 -0.6784  0.0938 -0.2942
  884MOL0     C21880   1.053   1.251   7.651  0.2243 -0.5975 -0.6830
  884MOL0     C21881   1.161   1.292   7.733  1.0393  1.1216  0.8341
  884MOL0     C21882   1.232   1.185   7.807 -0.7850 -0.4039  0.9436
  884MOL0     C21883   1.180   1.423   7.769  0.4822 -0.0526 -0.2709
  884MOL0     C21884   1.298   1.479   7.848  0.4320 -0.0269 -0.0318
  884MOL0     O21885   1.326   1.611   7.836  0.3249 -0.1976 -0.3478
  884MOL0     C21886   1.434   1.659   7.908  1.2056  0.4930  0.2012
  884MOL0     C21887   1.560   1.670   7.846  0.4940  0.4984 -1.0627
  884MOL0     C21888   1.668   1.709   7.916  0.0353 -0.6305 -0.2192
  884MOL0     C21889   1.656   1.734   8.055 -0.4895 -0.4467  0.7920
  884MOL0     O21890   1.773   1.753   8.117 -0.2023  0.3391  0.1436
  884MOL0     C21891   1.783   1.721   8.260 -0.1439 -0.5506  0.1817
  884MOL0     C21892   1.770   1.579   8.315  0.3648 -1.0566  0.4967
  884MOL0     C21893   1.847   1.471   8.230 -0.9820  0.7736 -0.5549
  884MOL0     C21894   1.993   1.498   8.203 -0.7776 -0.3685  0.4217
  884MOL0     C21895   2.069   1.367   8.179  0.0898 -0.1618 -0.2924
  884MOL0     C21896   2.092   1.286   8.303 -0.1552 -0.4383 -0.9003
  884MOL0     C21897   2.176   1.153   8.272  0.0070  0.2168 -0.0497
  884MOL0     C21898   2.170   1.053   8.396 -0.2480 -0.8088 -0.5448
  884MOL0    Cl21899   2.257   0.897   8.384 -0.3351 -0.2989  0.5125
  884MOL0     C21900   1.532   1.743   8.112 -0.2695 -0.5343 -0.1540
  884MOL0     C21901   1.420   1.702   8.041 -0.7340 -1.1499 -0.3035
  884MOL0     O21902   1.365   1.403   7.920 -0.2612 -0.2430  0.3127
  884MOL0     C21903   1.086   1.516   7.715  0.1733 -0.7677  0.4612
  884MOL0     C21904   0.980   1.477   7.642  0.0747  0.0929 -0.3439
  884MOL0     N21905   0.565   1.039   7.199 -0.5878  0.1727 -0.1750
  884MOL0     N21906   0.453   1.082   7.238 -0.1630  0.4161 -0.3484
  884MOL0     C21907   0.839   1.831   8.121  0.1634 -0.5829 -0.7268
  884MOL0     C21908   0.961   1.902   8.129  1.0919 -0.4774 -0.3890
  884MOL0     C21909   1.304   2.130   7.932  0.0641 -0.2514  0.4240
  884MOL0     C21910   1.404   2.036   7.933 -0.1167 -1.3590 -0.5609
  884MOL0     C21911   1.529   2.070   7.920 -0.7617 -0.2241 -0.5207
  884MOL0     C21912   1.571   2.207   7.885  0.9568  0.0293 -1.1293
  884MOL0     O21913   1.705   2.239   7.862  0.3970  0.3928 -0.0856
  884MOL0     C21914   1.746   2.340   7.768  0.4810 -0.7266  0.1041
  884MOL0     C21915   1.880   2.304   7.713  0.6163 -0.1851 -0.1871
  884MOL0     C21916   1.924   2.407   7.606 -0.3966 -0.3309  0.3299
  884MOL0     C21917   2.073   2.399   7.563  0.3439 -0.6894  0.0214
  884MOL0     C21918   2.108   2.515   7.482  0.9284 -0.4942 -0.0970
  884MOL0     C21919   2.112   2.623   7.419 -0.8337  0.1300 -0.0544
  884MOL0     C21920   1.463   2.303   7.896 -0.8541  0.2721 -0.0727
  884MOL0     C21921   1.332   2.271   7.922 -0.3067 -0.2601  0.0062
  884MOL0     C21922   1.230   2.381   7.946  0.7868  0.0067 -0.1414
  884MOL0     H21923   1.080   1.838   7.809  1.9295  0.6012  1.3690
  884MOL0     H21924   0.869   1.721   7.792 -0.4736  1.5691 -0.6180
  884MOL0     H21925   0.756   1.538   7.919  0.3739  1.0134 -0.2495
  884MOL0     H21926   0.688   1.648   7.807 -0.9360  1.7841  0.0789
  884MOL0     H21927   0.521   1.514   8.024  1.2417  0.4837  1.0981
  884MOL0     H21928   0.452   1.602   7.881 -1.1995 -1.5864 -0.2100
  884MOL0     H21929   0.613   1.338   7.869  0.8777  0.5533  1.0613
  884MOL0     H21930   0.440   1.350   7.867  2.9815 -3.1395  0.9090
  884MOL0     H21931   0.470   1.529   7.678  1.1961  0.9855  4.0763
  884MOL0     H21932   0.639   1.479   7.673 -0.2432  0.1464 -1.3824
  884MOL0     H21933   0.424   1.271   7.637  1.9919 -0.7941 -0.6167
  884MOL0     H21934   0.580   1.265   7.572 -0.6617 -1.8128 -1.0725
  884MOL0     H21935   0.437   1.508   7.458  1.0542  0.1228  0.7744
  884MOL0     H21936   0.541   1.384   7.383  0.7145  1.5677 -0.0779
  884MOL0     H21937   0.247   1.369   7.443 -1.4024 -1.4763 -1.0941
  884MOL0     H21938   0.328   1.222   7.453 -2.0938  0.7758 -0.0228
  884MOL0     H21939   0.224   1.265   7.237  0.5515 -2.9829  3.8265
  884MOL0     H21940   0.328   1.399   7.196 -0.3935 -0.4923 -1.3266
  884MOL0     H21941   0.564   1.344   7.084 -1.6826 -0.7652 -3.0676
  884MOL0     H21942   0.759   1.157   6.959  2.6485 -2.0276 -0.5501
  884MOL0     H21943   0.812   1.040   7.087  0.2846 -0.2046  0.3723
  884MOL0     H21944   0.941   1.249   7.123  0.1313  2.5226  1.6990
  884MOL0     H21945   0.790   1.346   7.116  0.0755  0.6317  0.2584
  884MOL0     H21946   0.748   1.177   7.341 -0.9601  3.0196  1.7524
  884MOL0     H21947   0.915   1.138   7.324  1.8448  1.4094 -2.7846
  884MOL0     H21948   0.974   1.386   7.360 -0.9151  1.9055 -0.1317
  884MOL0     H21949   0.810   1.431   7.357 -0.7015  0.1045  0.4967
  884MOL0     H21950   1.037   1.151   7.612 -2.0749  0.1785 -1.8801
  884MOL0     H21951   1.332   1.181   7.764 -1.0288 -2.3545  0.4370
  884MOL0     H21952   1.193   1.084   7.790 -0.9160 -0.2353  0.2211
  884MOL0     H21953   1.218   1.201   7.914  0.5320 -3.4314  1.6669
  884MOL0     H21954   1.576   1.635   7.744  0.1940  2.2292 -1.7422
  884MOL0     H21955   1.771   1.715   7.884 -0.0963 -0.8812 -0.6966
  884MOL0     H21956   1.881   1.762   8.285 -1.0879  1.9480  0.0534
  884MOL0     H21957   1.705   1.780   8.308 -2.3210 -3.5466  0.6406
  884MOL0     H21958   1.805   1.571   8.418 -0.8743 -1.1949  0.9268
  884MOL0     H21959   1.664   1.555   8.306  0.6031 -1.3958 -3.1269
  884MOL0     H21960   1.798   1.451   8.134 -1.6446  1.7630 -0.4342
  884MOL0     H21961   1.846   1.380   8.290  0.4661  0.7005 -0.6098
  884MOL0     H21962   2.047   1.553   8.280 -1.3011  1.4866 -0.4599
  884MOL0     H21963   2.004   1.566   8.117 -2.1392  0.2786  0.7284
  884MOL0     H21964   2.017   1.306   8.105  2.1328 -1.8145 -0.4708
  884MOL0     H21965   2.166   1.387   8.132  0.4793  0.3014  0.6774
  884MOL0     H21966   1.995   1.259   8.346  0.4640 -1.0706  0.1356
  884MOL0     H21967   2.142   1.353   8.373  0.2140  0.5615 -2.0894
  884MOL0     H21968   2.278   1.184   8.248  0.1241  0.4825  0.7305
  884MOL0     H21969   2.142   1.096   8.186  0.9822 -0.1400 -0.2150
  884MOL0     H21970   2.063   1.032   8.405 -1.2225  1.9220 -3.6864
  884MOL0     H21971   2.209   1.101   8.487  1.0058 -1.8912 -0.4769
  884MOL0     H21972   1.512   1.779   8.212 -0.4974 -1.7133  0.2362
  884MOL0     H21973   1.332   1.710   8.104  1.0655  1.7790  2.1351
  884MOL0     H21974   1.096   1.619   7.751  2.3578 -0.2965 -1.2481
  884MOL0     H21975   0.913   1.555   7.607  0.8797  0.1433 -1.8442
  884MOL0     H21976   0.773   1.834   8.208  1.7062  1.2652  0.4667
  884MOL0     H21977   0.985   1.956   8.220  2.1816 -2.5658  0.6321
  884MOL0     H21978   1.381   1.930   7.932  2.2087 -1.9362  0.5822
  884MOL0     H21979   1.605   1.993   7.912 -0.0595  0.1681  1.6418
  884MOL0     H21980   1.668   2.374   7.699 -1.0023  1.7885  2.7570
  884MOL0     H21981   1.756   2.438   7.816  0.6580 -0.0729 -1.2424
  884MOL0     H21982   1.856   2.210   7.662  0.3885  0.3396 -1.0714
  884MOL0     H21983   1.957   2.276   7.785  1.4407 -0.8051 -1.2755
  884MOL0     H21984   1.852   2.405   7.524  0.0893  3.1721 -0.3719
  884MOL0     H21985   1.905   2.508   7.646  0.2776  0.3002 -0.8817
  884MOL0     H21986   2.084   2.312   7.498 -1.6889 -1.2811  0.3756
  884MOL0     H21987   2.131   2.384   7.654 -0.6922  0.7196  0.9427
  884MOL0     H21988   2.113   2.705   7.350  0.7659 -0.1689 -0.4266
  884MOL0     H21989   1.485   2.408   7.879  0.1344 -0.0886 -1.1718
  884MOL0     H21990   1.275   2.455   8.012  0.8268  1.2269 -1.4933
  884MOL0     H21991   1.192   2.429   7.855  1.7885 -0.6396 -0.9180
  884MOL0     H21992   1.144   2.334   7.996  0.7945 -1.2120 -1.2014
  885MOL0     O21993   2.449   4.447   5.620  0.0680 -0.1326 -0.1717
  885MOL0     C21994   2.542   4.470   5.545  0.0458 -0.2414 -0.1411
  885MOL0     O21995   2.554   4.585   5.472  0.7620 -0.5786  0.1398
  885MOL0     C21996   2.470   4.696   5.453 -0.2341 -0.0466 -0.4711
  885MOL0     C21997   2.334   4.694   5.485  0.1931  0.2623 -0.6428
  885MOL0     C21998   2.249   4.791   5.441 -0.7818 -0.2236  0.9978
  885MOL0     C21999   2.298   4.906   5.379 -0.9737  0.3589  0.1326
  885MOL0     O22000   2.221   4.998   5.325 -0.3270  0.3615  0.1163
  885MOL0     C22001   2.082   4.997   5.345 -0.1475 -0.6345  0.9754
  885MOL0     C22002   2.043   5.151   5.353  0.5292  0.1019 -0.7009
  885MOL0     C22003   2.093   5.226   5.225  0.1038 -0.1475 -0.0345
  885MOL0     C22004   1.985   5.332   5.175  0.0141 -0.5065  0.1881
  885MOL0     C22005   2.043   5.451   5.083 -1.0690 -0.1684 -0.6936
  885MOL0     C22006   2.096   5.405   4.953 -1.3305  0.7342  0.3353
  885MOL0     C22007   2.161   5.525   4.877  0.0257 -0.5692 -0.0243
  885MOL0     C22008   2.059   5.577   4.766  0.5306  0.1406 -0.1104
  885MOL0     N22009   2.108   5.701   4.696  0.2328 -0.0042  0.5634
  885MOL0     C22010   2.236   5.737   4.662  0.2322 -0.1530 -0.2990
  885MOL0     C22011   2.226   5.848   4.591 -0.9279 -0.2734  0.3200
  885MOL0     C22012   2.341   5.923   4.516 -0.6114  0.4975  0.3649
  885MOL0     C22013   2.376   5.872   4.378  0.4863 -0.4625  0.5343
  885MOL0     C22014   2.501   5.934   4.330 -0.6859  0.4879 -0.2537
  885MOL0     C22015   2.498   5.909   4.173 -0.1413  0.7218 -0.4298
  885MOL0     O22016   2.379   5.969   4.109 -0.3227 -0.1773  0.3976
  885MOL0     C22017   2.383   5.954   3.976 -0.0733 -0.1238  0.8045
  885MOL0     C22018   2.400   5.836   3.906 -0.0262  0.7635 -0.4822
  885MOL0     C22019   2.402   5.827   3.767 -0.1648 -1.1645  0.7227
  885MOL0     C22020   2.415   5.688   3.696 -0.0659  0.0466 -0.2411
  885MOL0     C22021   2.379   5.950   3.691 -0.0163 -0.3280 -0.2676
  885MOL0     C22022   2.364   5.956   3.540 -1.1650 -0.0297 -0.5044
  885MOL0     O22023   2.297   6.066   3.486  0.0585  0.1166 -0.1066
  885MOL0     C22024   2.258   6.067   3.355  1.0361  0.2625  0.5501
  885MOL0     C22025   2.263   6.185   3.286  0.6225  0.0942 -1.1411
  885MOL0     C22026   2.204   6.201   3.168 -0.9724  0.9922  0.7960
  885MOL0     C22027   2.149   6.099   3.097  0.0123 -0.2173  1.2567
  885MOL0     O22028   2.114   6.135   2.966  0.3334  0.2964 -0.1566
  885MOL0     C22029   2.085   6.029   2.879 -0.2894  0.4135  0.2081
  885MOL0     C22030   2.202   5.999   2.780 -0.4439 -0.3835  0.6221
  885MOL0     C22031   2.195   5.864   2.727  0.0669  0.8194  0.4510
  885MOL0     C22032   2.298   5.823   2.616 -0.4355 -0.3223 -1.0563
  885MOL0     C22033   2.253   5.884   2.485  0.2813 -0.0949  0.0156
  885MOL0     C22034   2.353   5.834   2.379  0.5152 -1.1121  0.5412
  885MOL0     C22035   2.356   5.683   2.362  0.3173  1.0481 -0.7973
  885MOL0     C22036   2.420   5.645   2.223  0.4047  0.3553  0.1507
  885MOL0    Cl22037   2.586   5.658   2.232 -0.2581  0.2731 -0.5837
  885MOL0     C22038   2.137   5.973   3.164  0.2440  0.4624 -0.4431
  885MOL0     C22039   2.193   5.957   3.294  1.0600 -0.7714 -0.9084
  885MOL0     O22040   2.406   5.869   3.472  0.2161  0.4793 -0.1182
  885MOL0     C22041   2.360   6.066   3.769  0.2990  0.2101 -0.5600
  885MOL0     C22042   2.366   6.074   3.906  0.6209  0.3803  0.1837
  885MOL0     N22043   2.097   5.883   4.575  0.6663  0.1746  0.0821
  885MOL0     N22044   2.024   5.790   4.630  0.2112 -1.1117  0.5704
  885MOL0     C22045   2.435   4.916   5.356  0.1656  0.4810 -0.0032
  885MOL0     C22046   2.516   4.804   5.378 -0.3948  0.0790  0.5218
  885MOL0     C22047   2.651   4.362   5.533 -1.1905  0.2797 -0.0838
  885MOL0     C22048   2.769   4.393   5.457  0.0698  0.3314  0.5268
  885MOL0     C22049   2.868   4.297   5.445  0.6929 -0.1854 -0.5864
  885MOL0     C22050   2.858   4.170   5.500  0.7505 -0.0290 -0.3481
  885MOL0     O22051   2.967   4.087   5.478  0.2760  0.2510 -0.2756
  885MOL0     C22052   2.977   3.968   5.552 -0.5336 -0.6241 -0.7870
  885MOL0     C22053   2.930   3.851   5.470  0.1978 -0.2747  0.3637
  885MOL0     C22054   2.996   3.841   5.328 -0.8336 -0.6850  0.2562
  885MOL0     C22055   2.980   3.705   5.255  0.3904  0.2872  0.0719
  885MOL0     C22056   3.096   3.680   5.180 -0.3192  0.1147  0.1586
  885MOL0     C22057   3.203   3.682   5.117  0.1134 -0.7202 -0.8150
  885MOL0     C22058   2.750   4.147   5.590 -0.5846 -0.5021  0.4746
  885MOL0     C22059   2.646   4.239   5.607 -0.4957  1.0581 -0.4790
  885MOL0     C22060   2.555   4.207   5.731  0.1618 -0.1105  0.3066
  885MOL0     H22061   2.284   4.615   5.541  2.1517 -0.5470  0.0623
  885MOL0     H22062   2.148   4.755   5.456 -1.5305  2.0998  1.8028
  885MOL0     H22063   2.058   4.938   5.434 -1.8282  0.7933  1.5179
  885MOL0     H22064   2.031   4.948   5.261  2.6153 -1.3793 -0.3882
  885MOL0     H22065   1.935   5.147   5.371  0.8802 -2.5526  1.4098
  885MOL0     H22066   2.075   5.183   5.452  2.2335 -1.4182 -0.7133
  885MOL0     H22067   2.186   5.278   5.249 -0.1580  0.4210 -0.2237
  885MOL0     H22068   2.120   5.159   5.142  3.1868  3.2354 -2.0704
  885MOL0     H22069   1.898   5.275   5.144 -0.1283 -1.4564  2.1938
  885MOL0     H22070   1.940   5.384   5.261 -1.3974  0.5750 -1.1595
  885MOL0     H22071   2.123   5.512   5.127 -0.2972 -0.4708 -1.6670
  885MOL0     H22072   1.964   5.524   5.060 -0.0354  1.5359  0.8061
  885MOL0     H22073   2.189   5.350   4.970  0.2386  3.4948  1.4425
  885MOL0     H22074   2.024   5.351   4.891 -0.2625 -1.3921  0.8400
  885MOL0     H22075   2.251   5.495   4.824 -0.6937 -0.3831 -1.3986
  885MOL0     H22076   2.194   5.602   4.948 -0.6136 -0.2989 -0.0112
  885MOL0     H22077   2.042   5.494   4.697 -0.0357 -0.2506  0.4935
  885MOL0     H22078   1.962   5.603   4.810 -1.8378 -1.0581 -4.1201
  885MOL0     H22079   2.326   5.679   4.679  0.9479  0.7627 -0.8288
  885MOL0     H22080   2.436   5.918   4.569  3.0197  2.5949 -4.9765
  885MOL0     H22081   2.298   6.023   4.504 -0.0038  1.0157  2.2632
  885MOL0     H22082   2.390   5.764   4.384  1.7267 -0.2613  1.8347
  885MOL0     H22083   2.290   5.899   4.315  2.4734  0.1539 -2.0718
  885MOL0     H22084   2.488   6.040   4.354  2.3729  1.0161 -0.5263
  885MOL0     H22085   2.582   5.893   4.391  0.7517  4.6546  0.9794
  885MOL0     H22086   2.592   5.939   4.127 -0.3328 -1.4460 -2.4377
  885MOL0     H22087   2.498   5.801   4.154  2.0100  0.5264  0.4353
  885MOL0     H22088   2.397   5.746   3.967 -1.4747  1.6235  0.8032
  885MOL0     H22089   2.511   5.693   3.644 -0.5154  2.4293 -0.9483
  885MOL0     H22090   2.325   5.662   3.640 -0.1751  1.0554 -0.5424
  885MOL0     H22091   2.428   5.605   3.767  0.0317  2.1044  2.3075
  885MOL0     H22092   2.311   6.270   3.331 -1.4418  1.2038 -0.9226
  885MOL0     H22093   2.213   6.296   3.117  0.4336  0.1962 -0.5098
  885MOL0     H22094   2.056   5.934   2.925  1.6044 -1.1185 -1.5596
  885MOL0     H22095   2.003   6.051   2.810  0.7726 -0.3970 -1.3801
  885MOL0     H22096   2.192   6.073   2.699  0.6035  0.7502  1.4948
  885MOL0     H22097   2.297   6.022   2.830 -0.5776 -1.3575  1.3560
  885MOL0     H22098   2.098   5.848   2.678 -0.8131  0.3646  2.2747
  885MOL0     H22099   2.194   5.794   2.811 -0.1606 -1.4139 -1.3273
  885MOL0     H22100   2.299   5.714   2.616 -0.0272 -0.3276 -1.9780
  885MOL0     H22101   2.396   5.864   2.641 -1.5192  2.8686 -1.5225
  885MOL0     H22102   2.151   5.858   2.455 -0.0605  2.4269 -1.2017
  885MOL0     H22103   2.257   5.993   2.485  1.7849 -0.1283 -0.2694
  885MOL0     H22104   2.446   5.888   2.397 -0.8178  1.0651  1.3291
  885MOL0     H22105   2.334   5.881   2.282 -1.6637 -1.9775  0.4931
  885MOL0     H22106   2.263   5.627   2.375  2.0578 -2.6410 -2.5288
  885MOL0     H22107   2.413   5.638   2.444 -1.8018  2.7834  1.7709
  885MOL0     H22108   2.373   5.701   2.142  0.6218 -0.0048 -0.2238
  885MOL0     H22109   2.403   5.540   2.198  1.4076 -0.0092  0.8875
  885MOL0     H22110   2.080   5.891   3.121  0.1529 -0.7098  1.7736
  885MOL0     H22111   2.172   5.862   3.342 -2.1032 -0.1394 -0.8465
  885MOL0     H22112   2.335   6.154   3.710  3.2154  1.2897 -0.3173
  885MOL0     H22113   2.359   6.174   3.948  2.3754  0.4641  0.3420
  885MOL0     H22114   2.469   4.996   5.291 -1.9251  0.1551 -1.5713
  885MOL0     H22115   2.620   4.798   5.349 -0.5419 -3.6859  0.3574
  885MOL0     H22116   2.779   4.482   5.396 -2.8753  0.3460 -0.0803
  885MOL0     H22117   2.956   4.313   5.383  0.1921  1.4590 -0.9325
  885MOL0     H22118   3.081   3.934   5.548 -0.6018 -0.7335 -2.7628
  885MOL0     H22119   2.935   3.974   5.652  3.7905 -1.2679  1.2834
  885MOL0     H22120   2.823   3.872   5.457  0.3349  1.8135  2.0527
  885MOL0     H22121   2.942   3.759   5.528  1.4122 -0.2571  0.1678
  885MOL0     H22122   2.974   3.921   5.257  1.2837 -1.0628 -0.9109
  885MOL0     H22123   3.099   3.861   5.359 -1.0802  0.8802  0.1608
  885MOL0     H22124   2.904   3.717   5.178  1.5072  0.9509 -0.9657
  885MOL0     H22125   2.950   3.621   5.318  0.6709 -0.2549 -0.5050
  885MOL0     H22126   3.301   3.695   5.076  0.7168 -3.2719 -0.3739
  885MOL0     H22127   2.746   4.062   5.657 -1.7592  0.7574  2.1083
  885MOL0     H22128   2.615   4.147   5.800  0.4301  0.4109  0.5351
  885MOL0     H22129   2.502   4.289   5.781 -0.1865 -0.6683  0.8744
  885MOL0     H22130   2.478   4.136   5.699  0.6252 -1.2628  1.6403
  886MOL0     O22131   4.524   2.857   9.269 -0.0540  0.2137 -0.4473
  886MOL0     C22132   4.448   2.949   9.277  0.0662 -0.4294 -0.0043
  886MOL0     O22133   4.356   2.960   9.376 -1.0415 -0.1035  0.1900
  886MOL0     C22134   4.355   2.869   9.464 -0.0121  1.1656 -1.1392
  886MOL0     C22135   4.242   2.783   9.473 -0.0214  0.7652  0.1953
  886MOL0     C22136   4.227   2.676   9.557 -0.0062  0.1495 -0.4548
  886MOL0     C22137   4.335   2.646   9.647 -0.1659 -0.4550  0.2519
  886MOL0     O22138   4.326   2.562   9.757 -1.2574  0.1712 -0.2814
  886MOL0     C22139   4.230   2.451   9.745 -0.1853 -1.5504  0.5368
  886MOL0     C22140   4.257   2.350   9.848  0.7603  0.1232  1.4651
  886MOL0     C22141   4.371   2.250   9.807 -0.0438 -0.0458 -0.5019
  886MOL0     C22142   4.365   2.129   9.902  0.5878  0.3595  0.2416
  886MOL0     C22143   4.489   2.037   9.905  0.9828  0.4610  0.0235
  886MOL0     C22144   4.543   1.983   9.783  0.5834  0.1215  0.3742
  886MOL0     C22145   4.465   1.868   9.720 -0.1111  0.3380  0.0397
  886MOL0     C22146   4.365   1.919   9.608 -0.6517  0.4251 -0.3437
  886MOL0     N22147   4.253   1.826   9.578 -0.6297  1.0398  0.2847
  886MOL0     C22148   4.126   1.873   9.589 -1.4284 -0.0023  0.1797
  886MOL0     C22149   4.047   1.770   9.555 -0.1932 -0.4266 -0.1586
  886MOL0     C22150   3.904   1.759   9.535  0.1466  0.1404 -1.2265
  886MOL0     C22151   3.820   1.686   9.637 -0.1441 -0.1941 -0.4791
  886MOL0     C22152   3.667   1.678   9.598 -1.2873  1.3192 -0.1608
  886MOL0     C22153   3.562   1.663   9.712 -0.0803 -0.2336 -0.0404
  886MOL0     O22154   3.559   1.542   9.787  0.2045  0.6247 -0.3339
  886MOL0     C22155   3.539   1.423   9.719  0.6205  0.5282 -0.3157
  886MOL0     C22156   3.616   1.323   9.771 -1.1118 -0.8122  0.0612
  886MOL0     C22157   3.619   1.201   9.711  0.4456 -0.1037  0.3405
  886MOL0     C22158   3.682   1.085   9.805 -0.6021 -0.8301  0.7055
  886MOL0     C22159   3.541   1.175   9.589 -0.4390  0.5886 -0.7203
  886MOL0     C22160   3.549   1.050   9.504  0.0825 -0.7654 -0.4951
  886MOL0     O22161   3.439   1.011   9.426  0.4052  0.5386  0.4671
  886MOL0     C22162   3.460   0.904   9.348 -0.5816 -0.0204  0.3955
  886MOL0     C22163   3.460   0.924   9.210 -0.2373 -0.4879 -0.7815
  886MOL0     C22164   3.452   0.810   9.128 -0.4793 -0.9143 -0.1984
  886MOL0     C22165   3.446   0.682   9.171 -0.1319  0.3844  0.1243
  886MOL0     O22166   3.435   0.571   9.094  0.3305  0.4682 -0.2851
  886MOL0     C22167   3.495   0.567   8.964 -0.7857  0.1444  0.0162
  886MOL0     C22168   3.400   0.586   8.856  0.6521 -0.3889  0.8879
  886MOL0     C22169   3.301   0.469   8.848 -0.1902  0.0551  0.9064
  886MOL0     C22170   3.171   0.495   8.768 -0.6526  0.6864 -0.2697
  886MOL0     C22171   3.204   0.576   8.641  0.0123 -0.0505  0.1716
  886MOL0     C22172   3.082   0.587   8.555 -0.1538 -0.3942  0.3817
  886MOL0     C22173   3.046   0.451   8.486 -0.4435  0.1825  0.1995
  886MOL0     C22174   2.962   0.459   8.360  0.0809 -0.9205 -1.0701
  886MOL0    Cl22175   2.793   0.489   8.420  0.1257 -0.2461 -0.5479
  886MOL0     C22176   3.425   0.671   9.310 -0.2880  0.0697 -0.0131
  886MOL0     C22177   3.432   0.779   9.400  0.4213  0.1484 -1.1395
  886MOL0     O22178   3.656   0.988   9.514 -0.0352  0.8904 -1.0118
  886MOL0     C22179   3.456   1.276   9.542  0.6907 -0.5829 -0.5530
  886MOL0     C22180   3.464   1.401   9.605  0.0363 -0.2507 -0.1190
  886MOL0     N22181   4.127   1.666   9.513 -0.2427  0.2201  0.4732
  886MOL0     N22182   4.249   1.701   9.537  0.0418  1.7307  0.7459
  886MOL0     C22183   4.445   2.726   9.637  1.3042 -1.0035 -0.4043
  886MOL0     C22184   4.452   2.834   9.548 -0.2822 -0.5793  0.4199
  886MOL0     C22185   4.459   3.063   9.189 -1.2704 -0.1454  0.3820
  886MOL0     C22186   4.417   3.196   9.217 -1.0547  0.4088 -0.7096
  886MOL0     C22187   4.437   3.309   9.135 -0.0655 -0.1440  0.1429
  886MOL0     C22188   4.513   3.300   9.020  0.8305 -0.4137 -0.9331
  886MOL0     O22189   4.538   3.408   8.948  0.9231 -0.3904  0.0378
  886MOL0     C22190   4.667   3.464   8.960  0.2886 -0.7270  0.5551
  886MOL0     C22191   4.787   3.386   8.907 -0.2951 -0.8648  1.0700
  886MOL0     C22192   4.813   3.372   8.756 -0.5797 -0.1024  0.6668
  886MOL0     C22193   4.800   3.495   8.659  0.0302 -0.2731 -0.2222
  886MOL0     C22194   4.907   3.595   8.685  1.0758 -0.2405 -0.2485
  886MOL0     C22195   5.000   3.677   8.712 -0.2820  0.7994  0.0422
  886MOL0     C22196   4.558   3.173   8.983 -0.3844  0.5595  0.2589
  886MOL0     C22197   4.533   3.057   9.066  0.7166 -0.0824 -0.1461
  886MOL0     C22198   4.602   2.928   9.010  1.2764  0.1032 -0.5819
  886MOL0     H22199   4.157   2.802   9.408 -0.0188 -2.4776 -0.9365
  886MOL0     H22200   4.131   2.627   9.567  0.1287 -0.2655 -1.1250
  886MOL0     H22201   4.240   2.408   9.645 -2.9788 -2.1513  0.4199
  886MOL0     H22202   4.133   2.498   9.765  0.5496  0.8194 -1.0520
  886MOL0     H22203   4.287   2.403   9.939 -1.9335  1.4288  1.6960
  886MOL0     H22204   4.166   2.292   9.865  0.3866  0.5925  1.0968
  886MOL0     H22205   4.348   2.225   9.703  0.7279 -0.5562 -0.5569
  886MOL0     H22206   4.465   2.306   9.797  0.6713 -0.7028  2.0337
  886MOL0     H22207   4.358   2.163  10.006  2.0271  2.8413 -0.3592
  886MOL0     H22208   4.281   2.065   9.875  1.1261 -0.3896  0.3168
  886MOL0     H22209   4.474   1.960   9.981  0.4448  0.9334  0.4134
  886MOL0     H22210   4.567   2.101   9.946  2.5974  0.7405 -3.1582
  886MOL0     H22211   4.541   2.069   9.714 -1.0553 -0.0395  0.1951
  886MOL0     H22212   4.641   1.950   9.819  1.1374  1.6133  0.3084
  886MOL0     H22213   4.419   1.821   9.807  0.0692 -1.2210 -0.6709
  886MOL0     H22214   4.540   1.796   9.685 -0.2576 -1.6296  3.3745
  886MOL0     H22215   4.320   2.013   9.640 -1.7736 -0.3300  0.3590
  886MOL0     H22216   4.430   1.934   9.521  0.9612  1.0483  0.9006
  886MOL0     H22217   4.088   1.972   9.610  0.4340  1.1742 -1.5672
  886MOL0     H22218   3.884   1.708   9.440 -0.6311 -0.3108 -0.8261
  886MOL0     H22219   3.883   1.866   9.527  1.2223  0.6256  1.4725
  886MOL0     H22220   3.867   1.589   9.654  3.4586  1.6570  1.5330
  886MOL0     H22221   3.824   1.735   9.735  2.5131  0.6051 -0.8887
  886MOL0     H22222   3.644   1.767   9.539 -1.0092  2.3571  1.2314
  886MOL0     H22223   3.645   1.592   9.534 -3.3100  0.3208  1.7711
  886MOL0     H22224   3.593   1.739   9.784  0.3309 -0.7249  0.3102
  886MOL0     H22225   3.464   1.685   9.668 -0.9998 -0.5467  1.7317
  886MOL0     H22226   3.666   1.339   9.865 -1.1004 -0.1123 -0.0606
  886MOL0     H22227   3.694   1.120   9.907 -1.5549 -1.7182  1.1414
  886MOL0     H22228   3.776   1.049   9.762 -0.4885 -2.0651  1.9206
  886MOL0     H22229   3.616   0.997   9.806  0.3390 -1.5460  0.8535
  886MOL0     H22230   3.452   1.027   9.176  0.8761 -0.0487  0.1991
  886MOL0     H22231   3.445   0.844   9.025 -0.4618 -0.7456 -0.1442
  886MOL0     H22232   3.577   0.640   8.961 -0.9504  0.3210 -0.2180
  886MOL0     H22233   3.549   0.473   8.952  0.9956  0.5337  3.5873
  886MOL0     H22234   3.351   0.681   8.880  0.9020 -0.3011  1.0445
  886MOL0     H22235   3.461   0.592   8.766  0.2467  1.1902  0.6781
  886MOL0     H22236   3.274   0.440   8.950  1.6776  0.2687  1.4999
  886MOL0     H22237   3.349   0.383   8.800  0.0757 -0.1084  1.4561
  886MOL0     H22238   3.096   0.542   8.832  1.5238  3.9467  0.1193
  886MOL0     H22239   3.136   0.394   8.745  0.0320  0.3564  0.0950
  886MOL0     H22240   3.215   0.676   8.683 -4.2769  0.7122 -0.0573
  886MOL0     H22241   3.284   0.539   8.576 -2.1901  0.4079 -3.0520
  886MOL0     H22242   3.096   0.664   8.478  0.5674  0.5726  1.4412
  886MOL0     H22243   3.000   0.626   8.616 -0.6960  0.0687 -0.6156
  886MOL0     H22244   2.992   0.390   8.559 -1.2533 -2.7741 -2.6375
  886MOL0     H22245   3.146   0.414   8.464  0.2704  1.1471  1.6772
  886MOL0     H22246   2.963   0.363   8.308  1.3529 -0.5983 -1.6769
  886MOL0     H22247   2.996   0.548   8.306 -0.9198  1.5257  2.0238
  886MOL0     H22248   3.381   0.574   9.329  0.3317  0.2182  2.5606
  886MOL0     H22249   3.411   0.771   9.507  0.4861 -0.6581 -1.1806
  886MOL0     H22250   3.398   1.254   9.453 -1.3648 -1.0814  0.8651
  886MOL0     H22251   3.418   1.490   9.563 -1.3227 -1.7669 -2.0162
  886MOL0     H22252   4.529   2.696   9.699  0.9986 -0.0315  0.4931
  886MOL0     H22253   4.540   2.897   9.553 -0.4218  0.1827 -3.4681
  886MOL0     H22254   4.364   3.222   9.309  1.1674  0.6054  0.6023
  886MOL0     H22255   4.383   3.400   9.160  0.5618  0.3971 -0.4021
  886MOL0     H22256   4.669   3.567   8.923 -0.6477 -1.5969 -2.2297
  886MOL0     H22257   4.693   3.474   9.065  0.5127  1.5686  0.3193
  886MOL0     H22258   4.790   3.294   8.965 -2.5347 -0.3388  2.1071
  886MOL0     H22259   4.875   3.443   8.939 -0.7590  0.4611  0.0907
  886MOL0     H22260   4.908   3.325   8.731 -0.3208  1.2393 -1.0673
  886MOL0     H22261   4.731   3.304   8.732 -1.2840  0.2905  1.8727
  886MOL0     H22262   4.706   3.549   8.667  0.2527  0.8471 -3.5949
  886MOL0     H22263   4.814   3.468   8.554 -0.3211  1.1525 -0.6531
  886MOL0     H22264   5.075   3.747   8.744 -0.6086  0.6304  1.2257
  886MOL0     H22265   4.614   3.162   8.891 -3.3537  2.2044 -1.9149
  886MOL0     H22266   4.702   2.903   9.045 -0.1106 -3.3910  1.3750
  886MOL0     H22267   4.546   2.835   9.022  0.6888  0.3889 -1.0575
  886MOL0     H22268   4.617   2.937   8.902  2.4888 -3.5256 -0.8486
  887MOL0     O22269   5.745   0.614   6.982 -0.4653 -0.2645  0.7257
  887MOL0     C22270   5.630   0.645   6.950 -0.1273 -1.1226 -0.1333
  887MOL0     O22271   5.528   0.565   6.935  0.1000 -0.0944 -0.2670
  887MOL0     C22272   5.529   0.434   6.981 -0.3694  1.0684 -0.0730
  887MOL0     C22273   5.620   0.374   7.078  0.3092 -0.1989  0.7270
  887MOL0     C22274   5.598   0.239   7.126  0.0916  0.3160 -0.4890
  887MOL0     C22275   5.494   0.163   7.077  0.6148  0.0080  1.4877
  887MOL0     O22276   5.460   0.036   7.118 -0.0320  0.3340 -0.7859
  887MOL0     C22277   5.481  -0.067   7.020 -0.7463 -0.7838  0.0479
  887MOL0     C22278   5.603  -0.143   7.071 -0.3509  0.4083  0.8330
  887MOL0     C22279   5.607  -0.267   6.987 -0.2611 -0.3048  0.3396
  887MOL0     C22280   5.745  -0.344   6.985  0.0085 -0.6320 -0.1474
  887MOL0     C22281   5.747  -0.451   6.878 -0.7447 -0.0364  0.4105
  887MOL0     C22282   5.817  -0.401   6.750  0.5032  0.4699  0.0605
  887MOL0     C22283   5.886  -0.521   6.676  0.0889 -0.0957  0.2758
  887MOL0     C22284   6.033  -0.526   6.690 -0.6946  0.4589  0.3407
  887MOL0     N22285   6.095  -0.632   6.606  0.0033  0.7203  0.7426
  887MOL0     C22286   6.100  -0.638   6.466 -0.0906 -0.4646 -0.0855
  887MOL0     C22287   6.200  -0.728   6.429  0.1411  1.0785  0.4695
  887MOL0     C22288   6.239  -0.772   6.289 -0.6266  0.6390  0.0714
  887MOL0     C22289   6.156  -0.894   6.249  0.3563  0.8059  0.6288
  887MOL0     C22290   6.211  -0.955   6.113  0.6718 -0.9330 -0.7120
  887MOL0     C22291   6.142  -1.084   6.077  0.4498  0.0133  0.4421
  887MOL0     O22292   6.010  -1.074   6.032 -0.3917 -0.0699  0.1374
  887MOL0     C22293   5.937  -1.195   6.026  0.5929 -0.4230  0.6408
  887MOL0     C22294   5.803  -1.195   6.046  0.1169  0.4385  0.2796
  887MOL0     C22295   5.722  -1.314   6.053  0.2461  0.2068 -0.4646
  887MOL0     C22296   5.577  -1.295   6.084 -0.8929 -0.7734  0.2169
  887MOL0     C22297   5.782  -1.440   6.029 -0.1316 -0.5021  1.0528
  887MOL0     C22298   5.716  -1.571   6.046  0.5790 -0.3588 -0.0457
  887MOL0     O22299   5.798  -1.680   6.076  0.5689  0.0547  0.1848
  887MOL0     C22300   5.750  -1.807   6.085  0.9939  0.5122 -0.5580
  887MOL0     C22301   5.706  -1.879   5.969  0.3336  0.7166 -1.2111
  887MOL0     C22302   5.672  -2.015   5.991  0.4225 -0.4522  0.1317
  887MOL0     C22303   5.678  -2.072   6.123  0.6132  0.7605 -0.3642
  887MOL0     O22304   5.671  -2.209   6.132  0.5795 -0.3678 -0.3711
  887MOL0     C22305   5.793  -2.282   6.147  0.2774 -0.1100 -0.1636
  887MOL0     C22306   5.761  -2.436   6.161  0.5040 -0.5616 -0.1449
  887MOL0     C22307   5.668  -2.454   6.279  0.7227  0.5224  0.9527
  887MOL0     C22308   5.651  -2.608   6.300 -0.7862  0.6401  0.4322
  887MOL0     C22309   5.766  -2.664   6.385  0.1933 -0.2673  0.3251
  887MOL0     C22310   5.755  -2.816   6.403 -0.8853  0.4280  1.0292
  887MOL0     C22311   5.870  -2.870   6.493  0.2659  0.1562 -0.7809
  887MOL0     C22312   6.007  -2.841   6.442 -0.5480  0.3053 -0.6612
  887MOL0    Cl22313   6.047  -2.870   6.271 -0.0911  0.2032  0.5089
  887MOL0     C22314   5.707  -1.994   6.228 -0.0693  0.4626  0.2654
  887MOL0     C22315   5.736  -1.863   6.212 -0.6282 -0.4012 -0.0562
  887MOL0     O22316   5.588  -1.566   6.023 -0.5910  0.2272 -0.3713
  887MOL0     C22317   5.919  -1.439   5.997  0.3716  0.0080 -0.0054
  887MOL0     C22318   5.990  -1.320   5.991 -0.0670  0.7111 -0.6009
  887MOL0     N22319   6.250  -0.780   6.547  0.3267  0.0784 -0.5560
  887MOL0     N22320   6.188  -0.723   6.645 -0.4096  0.5631  0.6477
  887MOL0     C22321   5.411   0.224   6.980 -0.1968  1.3059 -1.1430
  887MOL0     C22322   5.424   0.358   6.943 -0.0564  0.1478 -0.1440
  887MOL0     C22323   5.603   0.792   6.939 -0.1360 -0.4102  0.4359
  887MOL0     C22324   5.474   0.832   6.908 -0.2446  0.4457 -0.4136
  887MOL0     C22325   5.448   0.968   6.894  0.4929  0.9990  0.2446
  887MOL0     C22326   5.542   1.064   6.911 -0.2194 -0.5759  0.1993
  887MOL0     O22327   5.512   1.198   6.894 -0.3996  0.5626  0.1224
  887MOL0     C22328   5.504   1.240   6.757  0.9487 -0.3274  0.3854
  887MOL0     C22329   5.659   1.248   6.706 -0.5668  0.5234 -0.0120
  887MOL0     C22330   5.663   1.301   6.556  0.0705  0.8024  0.3892
  887MOL0     C22331   5.798   1.344   6.520 -0.3521 -0.0270  0.9049
  887MOL0     C22332   5.787   1.425   6.408 -0.5328 -0.3315  0.1053
  887MOL0     C22333   5.763   1.514   6.323 -0.7951 -0.6048 -0.1825
  887MOL0     C22334   5.668   1.028   6.961  0.5274 -0.4404 -0.6646
  887MOL0     C22335   5.701   0.894   6.967  0.2585  0.7427  0.0263
  887MOL0     C22336   5.836   0.863   7.011 -1.7160  0.5911 -0.3897
  887MOL0     H22337   5.697   0.433   7.126  1.9704 -3.0019  1.7173
  887MOL0     H22338   5.657   0.192   7.204 -0.6721 -1.3779 -0.8844
  887MOL0     H22339   5.509  -0.038   6.919 -0.9144 -0.3139  0.1334
  887MOL0     H22340   5.395  -0.134   7.020 -1.0389 -0.4225 -0.8811
  887MOL0     H22341   5.697  -0.089   7.055  0.4076 -1.3012 -0.9408
  887MOL0     H22342   5.582  -0.166   7.176 -2.0590 -1.6673  0.1008
  887MOL0     H22343   5.532  -0.337   7.023 -2.0188 -1.1288 -4.1676
  887MOL0     H22344   5.584  -0.249   6.881 -0.6338 -0.0640  0.4615
  887MOL0     H22345   5.836  -0.285   6.973  0.0212 -1.0177 -2.2894
  887MOL0     H22346   5.760  -0.385   7.085  4.5669 -0.6628 -0.6437
  887MOL0     H22347   5.642  -0.481   6.874 -1.1555  1.2357  0.8713
  887MOL0     H22348   5.804  -0.539   6.907 -1.5852 -0.8011 -0.1855
  887MOL0     H22349   5.734  -0.353   6.698  0.2135  0.8900  0.8844
  887MOL0     H22350   5.895  -0.328   6.772 -2.6086  3.6185  1.6923
  887MOL0     H22351   5.875  -0.495   6.570 -3.1084 -1.1856  0.2040
  887MOL0     H22352   5.839  -0.619   6.692 -0.3139 -0.1165 -0.9457
  887MOL0     H22353   6.059  -0.424   6.660 -3.3414  1.0848 -0.1157
  887MOL0     H22354   6.060  -0.556   6.792  0.8735 -3.6285 -1.0901
  887MOL0     H22355   6.037  -0.584   6.396 -3.2980 -0.8535  2.2251
  887MOL0     H22356   6.344  -0.802   6.297 -0.8892 -0.4053 -0.2114
  887MOL0     H22357   6.219  -0.701   6.207  0.1321 -1.2637 -1.8669
  887MOL0     H22358   6.186  -0.974   6.318  2.4679  0.7032 -0.3248
  887MOL0     H22359   6.050  -0.869   6.259  0.2106  2.0435 -2.6988
  887MOL0     H22360   6.193  -0.882   6.034  0.2310 -0.1267  0.1144
  887MOL0     H22361   6.319  -0.974   6.119  1.1930  1.8664  0.5012
  887MOL0     H22362   6.203  -1.118   5.993  0.4000 -2.5799  1.3817
  887MOL0     H22363   6.152  -1.165   6.150  1.9287  0.9156  1.2861
  887MOL0     H22364   5.743  -1.107   6.068 -0.2367 -0.1691  1.9143
  887MOL0     H22365   5.569  -1.196   6.130  1.0250 -0.6641  0.3970
  887MOL0     H22366   5.550  -1.364   6.165 -1.1178 -0.6590  0.2417
  887MOL0     H22367   5.502  -1.294   6.004  0.9063 -0.1545 -1.5372
  887MOL0     H22368   5.681  -1.835   5.873 -3.3656 -1.0752 -1.2486
  887MOL0     H22369   5.644  -2.080   5.908 -1.3708  0.1861  0.2016
  887MOL0     H22370   5.846  -2.265   6.052 -2.9275 -0.8512 -2.2494
  887MOL0     H22371   5.845  -2.247   6.237  0.4556 -0.3112 -0.1858
  887MOL0     H22372   5.720  -2.474   6.067 -5.3291  2.4765  0.7006
  887MOL0     H22373   5.854  -2.493   6.170  1.3139  0.7551  0.1029
  887MOL0     H22374   5.565  -2.423   6.258  1.3555  1.1500 -1.5484
  887MOL0     H22375   5.715  -2.403   6.363  3.6197  0.2781 -0.4103
  887MOL0     H22376   5.657  -2.649   6.198  0.2902  0.3226  0.6162
  887MOL0     H22377   5.551  -2.641   6.331 -2.1581 -0.4104 -4.1624
  887MOL0     H22378   5.863  -2.648   6.338 -0.1174 -0.4178 -0.3760
  887MOL0     H22379   5.770  -2.622   6.486  1.8541  0.2988  0.0482
  887MOL0     H22380   5.762  -2.877   6.312  0.9738 -2.7516  3.1099
  887MOL0     H22381   5.657  -2.848   6.441 -0.4118 -1.9264  0.4554
  887MOL0     H22382   5.850  -2.978   6.499 -2.3392  0.5856 -0.5460
  887MOL0     H22383   5.855  -2.824   6.591 -0.8363 -0.8948 -0.4189
  887MOL0     H22384   6.060  -2.908   6.509 -1.7935  0.3915  0.4596
  887MOL0     H22385   6.033  -2.738   6.469  1.3417 -0.4980  0.7966
  887MOL0     H22386   5.696  -2.049   6.321 -3.7504  1.0904  0.3586
  887MOL0     H22387   5.748  -1.800   6.300 -0.8485  1.3822 -1.2435
  887MOL0     H22388   5.968  -1.534   5.980  0.2998  0.4111 -2.8232
  887MOL0     H22389   6.095  -1.331   5.965  0.5433 -2.4222  2.4262
  887MOL0     H22390   5.337   0.165   6.927  1.3067 -1.4907 -0.3363
  887MOL0     H22391   5.348   0.397   6.875  0.6197 -1.2259 -1.7484
  887MOL0     H22392   5.394   0.761   6.890 -1.3027  2.0360 -2.5507
  887MOL0     H22393   5.345   1.004   6.886 -0.0465 -0.8830 -2.7180
  887MOL0     H22394   5.452   1.178   6.683  0.2969 -1.3730  1.6537
  887MOL0     H22395   5.461   1.340   6.751  3.0717  0.6374  0.3450
  887MOL0     H22396   5.715   1.155   6.717 -1.2674  0.2751  1.8670
  887MOL0     H22397   5.711   1.322   6.768  1.1204 -0.9440  0.4143
  887MOL0     H22398   5.636   1.218   6.491  2.3689  1.7237 -1.8927
  887MOL0     H22399   5.590   1.380   6.533  0.3768 -0.3201 -6.1021
  887MOL0     H22400   5.860   1.256   6.499 -5.8908 -4.2486  0.1377
  887MOL0     H22401   5.840   1.404   6.602 -3.3130  3.0145  0.4059
  887MOL0     H22402   5.747   1.589   6.248 -2.3854 -0.1734  0.5389
  887MOL0     H22403   5.745   1.103   6.973 -0.3372 -0.0235  3.7055
  887MOL0     H22404   5.830   0.794   7.096 -2.1046 -0.8458 -1.5612
  887MOL0     H22405   5.892   0.821   6.927  0.3054  1.3486  0.5106
  887MOL0     H22406   5.899   0.949   7.036 -2.3305  0.1403  3.2674
  888MOL0     O22407   9.021   6.079   8.951  0.5421 -0.4675 -0.2791
  888MOL0     C22408   9.023   6.094   9.075 -0.7576  0.0378  0.0971
  888MOL0     O22409   8.908   6.115   9.148 -0.5320 -0.0527 -0.3996
  888MOL0     C22410   8.784   6.113   9.096  0.1993 -0.0555  0.7894
  888MOL0     C22411   8.707   5.993   9.093 -0.6503 -0.6102 -0.4938
  888MOL0     C22412   8.589   5.995   9.027  0.0839 -0.4317  0.2565
  888MOL0     C22413   8.538   6.107   8.955  0.2773 -0.1149  0.3030
  888MOL0     O22414   8.421   6.112   8.878  0.5650  1.0132 -0.0577
  888MOL0     C22415   8.388   5.977   8.829  0.7554 -0.2807 -0.2325
  888MOL0     C22416   8.263   5.972   8.743 -0.6834 -0.5197  0.2647
  888MOL0     C22417   8.213   5.822   8.727 -0.1413 -0.0683  0.5521
  888MOL0     C22418   8.270   5.752   8.607 -0.2265  1.4127  0.1760
  888MOL0     C22419   8.207   5.605   8.585  0.2733 -0.5996 -0.2415
  888MOL0     C22420   8.246   5.533   8.453 -0.0081 -0.5995  0.0030
  888MOL0     C22421   8.393   5.494   8.436 -0.1097 -0.4494  0.2881
  888MOL0     C22422   8.419   5.417   8.310 -0.4398  0.5104 -0.1690
  888MOL0     N22423   8.566   5.413   8.297  0.0125 -0.3407  0.1311
  888MOL0     C22424   8.639   5.431   8.179 -0.1471 -0.6810  0.2269
  888MOL0     C22425   8.761   5.374   8.197 -0.1274 -0.0350 -0.7063
  888MOL0     C22426   8.849   5.338   8.080 -0.7344  0.1991 -0.9844
  888MOL0     C22427   8.926   5.457   8.009  0.1732  0.3171 -0.4265
  888MOL0     C22428   9.030   5.409   7.900  0.6564  0.3618 -1.2311
  888MOL0     C22429   9.102   5.539   7.878 -0.2401  0.1269  0.6090
  888MOL0     O22430   9.046   5.622   7.771  0.1561 -0.0010  0.1066
  888MOL0     C22431   9.061   5.570   7.644  0.4938  0.5675 -0.0098
  888MOL0     C22432   9.148   5.471   7.603  0.3102 -0.7071  0.7566
  888MOL0     C22433   9.157   5.428   7.467  0.7710  0.0989 -0.8425
  888MOL0     C22434   9.259   5.326   7.432  1.3545 -0.3121 -0.2645
  888MOL0     C22435   9.072   5.491   7.374  0.3603  0.4473 -0.9261
  888MOL0     C22436   9.077   5.446   7.232  1.5976 -0.1704 -0.3913
  888MOL0     O22437   9.190   5.430   7.164 -0.2702  0.3386  0.4336
  888MOL0     C22438   9.190   5.342   7.055  0.9838 -0.8493  0.4264
  888MOL0     C22439   9.177   5.408   6.930 -0.3735  0.5310  0.3006
  888MOL0     C22440   9.184   5.343   6.812 -0.1344 -0.3913 -0.0783
  888MOL0     C22441   9.195   5.203   6.807  0.8298  0.0973 -1.1349
  888MOL0     O22442   9.185   5.132   6.686 -0.1875  0.2568 -0.8274
  888MOL0     C22443   9.244   5.191   6.570  0.7005 -0.0800  0.1729
  888MOL0     C22444   9.247   5.075   6.467  0.0153 -0.1758  0.2872
  888MOL0     C22445   9.315   4.946   6.516  0.6209 -0.4041  0.5636
  888MOL0     C22446   9.337   4.843   6.401  0.2918 -0.1217  0.3208
  888MOL0     C22447   9.424   4.720   6.441  0.1923  0.4384 -0.1710
  888MOL0     C22448   9.451   4.633   6.321 -0.0951 -0.1759  0.3677
  888MOL0     C22449   9.319   4.563   6.279  0.8247  0.6173 -0.0402
  888MOL0     C22450   9.344   4.468   6.156  0.2704  0.0722  0.9080
  888MOL0    Cl22451   9.470   4.348   6.201 -0.1446  0.3870  0.3034
  888MOL0     C22452   9.193   5.136   6.927 -0.7993  0.7522 -0.2197
  888MOL0     C22453   9.186   5.206   7.044 -0.3420  0.7507  0.0153
  888MOL0     O22454   8.968   5.437   7.179  1.2357  0.0579 -0.2949
  888MOL0     C22455   8.986   5.594   7.411  0.7912  0.0501  0.2761
  888MOL0     C22456   8.989   5.631   7.547 -0.0643  0.0831  0.8656
  888MOL0     N22457   8.766   5.337   8.329 -0.3504  0.4792 -0.2678
  888MOL0     N22458   8.653   5.361   8.389  0.0680  0.2329 -0.5447
  888MOL0     C22459   8.614   6.223   8.957 -0.3232 -0.1232  0.1004
  888MOL0     C22460   8.739   6.223   9.025  0.1232  0.3629  0.0346
  888MOL0     C22461   9.147   6.090   9.153  0.1790 -0.3342  0.4540
  888MOL0     C22462   9.140   6.091   9.298 -0.0629  0.6652  0.5196
  888MOL0     C22463   9.256   6.099   9.374 -0.4142  0.5514 -0.6910
  888MOL0     C22464   9.387   6.123   9.315  0.6720 -0.6560 -0.2587
  888MOL0     O22465   9.496   6.176   9.374 -0.0477 -0.4516  0.3887
  888MOL0     C22466   9.470   6.259   9.490  0.4081 -0.1836 -0.4402
  888MOL0     C22467   9.587   6.345   9.508 -0.2846  0.3285  0.3933
  888MOL0     C22468   9.566   6.471   9.601  0.4170 -0.5306 -0.4172
  888MOL0     C22469   9.526   6.450   9.743 -0.0196 -0.3525  0.2885
  888MOL0     C22470   9.477   6.567   9.817 -0.9000  0.9079  0.1242
  888MOL0     C22471   9.418   6.660   9.869  0.1451  0.2042  0.1964
  888MOL0     C22472   9.399   6.090   9.182 -0.2420  0.0344 -0.1839
  888MOL0     C22473   9.275   6.084   9.098 -0.1391 -0.3043  0.2224
  888MOL0     C22474   9.296   6.042   8.961 -0.1789 -1.0778 -0.0556
  888MOL0     H22475   8.751   5.911   9.149  2.7410  1.8869  0.8450
  888MOL0     H22476   8.540   5.898   9.029 -1.5114  0.3442  1.1617
  888MOL0     H22477   8.357   5.927   8.921  1.6318  0.0644  0.2655
  888MOL0     H22478   8.470   5.919   8.786  2.0425  1.8277 -0.7637
  888MOL0     H22479   8.199   6.039   8.801  2.2306  1.1097  1.8236
  888MOL0     H22480   8.286   6.027   8.651 -1.6979  3.0024  1.9625
  888MOL0     H22481   8.230   5.755   8.812 -2.5174 -1.4869  0.0006
  888MOL0     H22482   8.107   5.822   8.698  0.3257  2.0005 -1.4267
  888MOL0     H22483   8.249   5.817   8.522  4.9544  2.2854 -0.7976
  888MOL0     H22484   8.375   5.739   8.635 -0.9264 -1.0309  2.0010
  888MOL0     H22485   8.098   5.617   8.594  0.3881 -0.3088  0.9530
  888MOL0     H22486   8.230   5.530   8.661  0.8557 -2.0721 -1.8202
  888MOL0     H22487   8.193   5.438   8.459  1.5673 -1.6733 -1.9253
  888MOL0     H22488   8.201   5.605   8.384  1.3955  2.5128  2.0986
  888MOL0     H22489   8.431   5.452   8.530  1.0224  5.1228  2.7189
  888MOL0     H22490   8.452   5.586   8.438  2.6206 -2.0530 -1.3354
  888MOL0     H22491   8.377   5.317   8.318  0.2299  0.1850 -0.6943
  888MOL0     H22492   8.371   5.457   8.220  2.7934  2.9594 -1.0211
  888MOL0     H22493   8.599   5.472   8.087  0.7892  1.6573  0.8023
  888MOL0     H22494   8.774   5.295   8.012 -1.2320  1.2852 -1.1449
  888MOL0     H22495   8.930   5.267   8.102  0.0502  1.7001  1.3088
  888MOL0     H22496   8.847   5.522   7.971 -0.2177  0.8818  1.3066
  888MOL0     H22497   8.981   5.499   8.094  1.0311 -3.3183  1.0164
  888MOL0     H22498   9.096   5.331   7.938 -0.3080 -1.4351 -3.0792
  888MOL0     H22499   8.989   5.368   7.808  0.0189 -1.1967 -0.2848
  888MOL0     H22500   9.093   5.603   7.966 -2.2845  2.9214 -1.4549
  888MOL0     H22501   9.210   5.526   7.863 -0.7019 -1.9402 -1.7909
  888MOL0     H22502   9.221   5.433   7.674  4.0157  2.8601 -0.7436
  888MOL0     H22503   9.349   5.382   7.404 -0.2482  2.2408 -0.6633
  888MOL0     H22504   9.224   5.249   7.363 -0.0182 -1.5281  1.6932
  888MOL0     H22505   9.277   5.276   7.527 -3.0213  0.3956  1.1768
  888MOL0     H22506   9.176   5.516   6.941  2.4439  0.5379  1.3918
  888MOL0     H22507   9.188   5.406   6.724  1.6190  0.1153  0.3221
  888MOL0     H22508   9.190   5.278   6.533  0.4364 -0.9075 -1.4562
  888MOL0     H22509   9.349   5.221   6.573  1.1371 -1.4145 -0.7881
  888MOL0     H22510   9.152   5.030   6.439  1.0740 -1.0704 -2.1813
  888MOL0     H22511   9.302   5.115   6.381 -0.7531  1.6569  0.5993
  888MOL0     H22512   9.257   4.906   6.600 -1.0035 -1.6735 -1.1038
  888MOL0     H22513   9.413   4.973   6.555  0.8844  0.1512 -0.4406
  888MOL0     H22514   9.388   4.878   6.310 -0.1462 -1.2306 -0.3672
  888MOL0     H22515   9.236   4.811   6.373  0.6445  0.0123 -1.1995
  888MOL0     H22516   9.516   4.765   6.481 -0.4087  0.2671  1.4867
  888MOL0     H22517   9.377   4.665   6.523 -0.6443 -1.5968 -1.9297
  888MOL0     H22518   9.522   4.558   6.355 -4.4568 -4.1220  1.9175
  888MOL0     H22519   9.485   4.704   6.244  0.8316  1.6004  2.3260
  888MOL0     H22520   9.236   4.623   6.240 -0.7420 -1.6181 -0.3117
  888MOL0     H22521   9.281   4.504   6.363  2.1895  0.2166  0.3183
  888MOL0     H22522   9.379   4.537   6.078 -2.0054  1.9706  1.4688
  888MOL0     H22523   9.257   4.415   6.118  2.3291 -2.1750 -0.9145
  888MOL0     H22524   9.201   5.028   6.922 -0.7851  0.7918 -1.5540
  888MOL0     H22525   9.201   5.163   7.142 -1.2235 -1.3069 -0.6845
  888MOL0     H22526   8.910   5.645   7.352 -0.8679 -1.8194  0.7080
  888MOL0     H22527   8.919   5.708   7.578 -0.7934 -0.8646  1.6352
  888MOL0     H22528   8.561   6.301   8.904 -2.3193 -2.3520 -1.4101
  888MOL0     H22529   8.797   6.314   9.037  1.4403 -0.4550  0.0510
  888MOL0     H22530   9.053   6.087   9.363  1.8471  0.2882  3.2260
  888MOL0     H22531   9.248   6.091   9.482  2.1848  1.5568 -0.3606
  888MOL0     H22532   9.386   6.323   9.465  0.9618 -0.1353 -2.2798
  888MOL0     H22533   9.460   6.210   9.588  2.3647  1.6368  0.7756
  888MOL0     H22534   9.624   6.376   9.410 -1.1349  0.6402  0.1589
  888MOL0     H22535   9.664   6.285   9.556  0.2432 -0.0004 -0.8237
  888MOL0     H22536   9.655   6.534   9.595 -0.1807  0.1710 -2.5441
  888MOL0     H22537   9.491   6.536   9.557  1.4125  0.0817 -1.2595
  888MOL0     H22538   9.604   6.394   9.795 -1.8648 -0.8147  2.7542
  888MOL0     H22539   9.432   6.394   9.748 -1.6939  2.3754  2.7010
  888MOL0     H22540   9.359   6.738   9.914 -4.7228 -3.2035  0.5277
  888MOL0     H22541   9.504   6.093   9.153 -0.0945 -0.6404  0.2627
  888MOL0     H22542   9.243   5.947   8.950 -1.1227 -0.6681  0.7697
  888MOL0     H22543   9.252   6.117   8.894 -1.1371 -1.6580 -0.0956
  888MOL0     H22544   9.403   6.027   8.946 -0.0186  0.4305 -0.6064
  889MOL0     O22545   9.255   4.491   9.655 -0.2536  0.3208 -0.5698
  889MOL0     C22546   9.251   4.609   9.623 -0.3219 -0.6267 -0.8277
  889MOL0     O22547   9.281   4.660   9.494  0.6136  0.8878  0.0581
  889MOL0     C22548   9.266   4.559   9.401 -1.1168 -0.1786 -0.2980
  889MOL0     C22549   9.134   4.542   9.339 -0.3394  0.5837 -0.1312
  889MOL0     C22550   9.123   4.445   9.235  0.5389 -0.1200  0.1453
  889MOL0     C22551   9.230   4.349   9.203  0.2675  0.3386 -0.2946
  889MOL0     O22552   9.216   4.239   9.118  1.1144  0.2061 -0.5911
  889MOL0     C22553   9.107   4.227   9.024  0.1151  0.5137 -1.2411
  889MOL0     C22554   9.154   4.195   8.881 -0.2782  0.1158 -0.4387
  889MOL0     C22555   9.219   4.311   8.807  0.1585 -1.8754  0.1239
  889MOL0     C22556   9.116   4.418   8.754 -0.2325 -0.2252 -0.1664
  889MOL0     C22557   9.177   4.537   8.687  0.6474 -0.0085  0.0470
  889MOL0     C22558   9.071   4.652   8.669  0.0218  0.3321  0.3602
  889MOL0     C22559   9.142   4.775   8.611 -0.5644 -0.5288  0.8124
  889MOL0     C22560   9.043   4.872   8.541  0.3219  0.0587  0.0323
  889MOL0     N22561   9.100   4.996   8.496  0.3406  0.2991  0.0356
  889MOL0     C22562   9.025   5.102   8.467 -0.0681 -0.0322  0.2340
  889MOL0     C22563   9.106   5.193   8.412  0.2244  0.0025  0.1528
  889MOL0     C22564   9.085   5.332   8.354 -0.9704 -0.3163 -0.5022
  889MOL0     C22565   9.181   5.428   8.420 -0.2103 -0.3419 -0.7007
  889MOL0     C22566   9.177   5.567   8.359 -0.5549  0.4317 -0.4977
  889MOL0     C22567   9.047   5.645   8.350  0.1618 -0.0023 -0.0182
  889MOL0     O22568   9.086   5.776   8.302 -0.4138  0.4440  0.3535
  889MOL0     C22569   8.977   5.845   8.251 -0.1192 -0.5458  0.7691
  889MOL0     C22570   8.907   5.810   8.137  0.4843 -0.4406 -0.0467
  889MOL0     C22571   8.791   5.877   8.088  0.7527 -0.1877  0.0754
  889MOL0     C22572   8.737   5.827   7.959  0.3449  0.9088  0.4609
  889MOL0     C22573   8.749   5.989   8.166 -0.0102 -0.1111 -0.1002
  889MOL0     C22574   8.650   6.085   8.120  1.6813 -0.9736  0.8121
  889MOL0     O22575   8.631   6.212   8.162  0.9485 -0.2998 -0.6004
  889MOL0     C22576   8.600   6.318   8.068  0.0671  0.0565  0.3680
  889MOL0     C22577   8.604   6.299   7.929  0.1581  0.1487  0.5471
  889MOL0     C22578   8.561   6.401   7.839 -0.0718  0.1848  0.5480
  889MOL0     C22579   8.509   6.526   7.890 -1.0497 -0.1359 -0.5008
  889MOL0     O22580   8.469   6.623   7.805  0.0889 -0.2143  0.4803
  889MOL0     C22581   8.537   6.640   7.682  1.5906 -0.1741 -0.5207
  889MOL0     C22582   8.480   6.767   7.623  0.2185 -0.1692  0.6205
  889MOL0     C22583   8.503   6.766   7.481 -0.9261  0.6918  0.7054
  889MOL0     C22584   8.427   6.659   7.403 -0.6832  0.2374  0.6341
  889MOL0     C22585   8.402   6.681   7.255 -0.0576 -0.0089  0.2604
  889MOL0     C22586   8.346   6.555   7.198 -0.1842  0.8270 -0.6710
  889MOL0     C22587   8.206   6.553   7.199 -0.1752  0.2136  0.5399
  889MOL0     C22588   8.145   6.610   7.062 -0.9689 -0.4483  0.5571
  889MOL0    Cl22589   8.191   6.528   6.909  0.3177  0.1246  0.8053
  889MOL0     C22590   8.499   6.542   8.027  0.6296 -0.4967  0.6942
  889MOL0     C22591   8.557   6.446   8.115  0.8250 -0.8495 -0.0652
  889MOL0     O22592   8.568   6.035   8.041  0.0196 -0.2222 -0.2804
  889MOL0     C22593   8.811   6.018   8.293 -0.1185  0.8090 -0.0228
  889MOL0     C22594   8.921   5.954   8.327  0.9257 -0.2191 -0.4899
  889MOL0     N22595   9.227   5.129   8.397  0.6625 -0.3562 -0.1700
  889MOL0     N22596   9.225   5.016   8.450 -0.0578  0.7358 -0.2510
  889MOL0     C22597   9.349   4.357   9.272  0.4251 -0.1460  0.6789
  889MOL0     C22598   9.363   4.455   9.379 -0.1125  1.1626 -0.8022
  889MOL0     C22599   9.216   4.705   9.730  0.0555 -0.2990 -0.7224
  889MOL0     C22600   9.162   4.828   9.693 -0.2105 -0.0108  0.2574
  889MOL0     C22601   9.119   4.918   9.787  0.5527 -0.5147  0.3173
  889MOL0     C22602   9.116   4.894   9.924 -0.2934  0.5287  0.2286
  889MOL0     O22603   9.073   4.978  10.018 -0.2346 -0.0984  0.1954
  889MOL0     C22604   9.042   5.124   9.986 -0.5393 -0.2760 -0.0411
  889MOL0     C22605   9.110   5.242  10.066  0.0156  0.5991 -0.0615
  889MOL0     C22606   9.242   5.207  10.137  0.0788  0.2983  0.1199
  889MOL0     C22607   9.348   5.113  10.072 -0.2773  0.7510 -0.7907
  889MOL0     C22608   9.470   5.104  10.156 -0.0915  0.0008  0.4070
  889MOL0     C22609   9.576   5.100  10.218 -0.3167 -0.7298  0.0463
  889MOL0     C22610   9.171   4.773   9.967  0.9112  0.1953  0.2637
  889MOL0     C22611   9.210   4.680   9.874 -0.1474 -0.2095  0.1123
  889MOL0     C22612   9.251   4.548   9.942  0.9816 -0.1768  0.4512
  889MOL0     H22613   9.063   4.621   9.357 -1.6972 -0.5873 -0.1785
  889MOL0     H22614   9.028   4.450   9.181 -0.1216  0.4874  1.3199
  889MOL0     H22615   9.048   4.319   9.024  0.8999  1.0894  1.2575
  889MOL0     H22616   9.048   4.139   9.052  0.3050  0.0430 -2.2587
  889MOL0     H22617   9.235   4.124   8.896 -2.1694 -1.9323  0.7018
  889MOL0     H22618   9.069   4.147   8.830 -0.0329 -2.8475  1.6873
  889MOL0     H22619   9.309   4.356   8.850  1.0865  0.6184 -3.8780
  889MOL0     H22620   9.262   4.283   8.711  3.4055  0.7962  0.6292
  889MOL0     H22621   9.044   4.371   8.687  0.4954 -0.1929 -0.9858
  889MOL0     H22622   9.063   4.460   8.841  1.8823  1.2030  0.5020
  889MOL0     H22623   9.221   4.506   8.592 -1.8870 -0.3895 -1.0933
  889MOL0     H22624   9.258   4.573   8.751 -1.2357 -0.0146  2.5981
  889MOL0     H22625   8.993   4.620   8.600  2.3170 -3.1389 -0.9341
  889MOL0     H22626   9.023   4.668   8.766 -0.2532 -0.8415  0.4384
  889MOL0     H22627   9.217   4.753   8.534 -0.8804 -0.0375  0.3586
  889MOL0     H22628   9.199   4.825   8.690  0.3175 -1.2843  0.6755
  889MOL0     H22629   8.996   4.818   8.459  1.9385  0.4095 -1.1771
  889MOL0     H22630   8.964   4.896   8.613  0.1666 -0.4641  0.0417
  889MOL0     H22631   8.922   5.124   8.495  0.3338  1.0395  0.9489
  889MOL0     H22632   8.989   5.374   8.388 -1.4857 -0.7589 -1.3571
  889MOL0     H22633   9.094   5.346   8.246  1.9110 -0.0940 -0.2942
  889MOL0     H22634   9.153   5.442   8.525  1.0360  0.1159 -0.4138
  889MOL0     H22635   9.284   5.394   8.410  0.5383  1.6866 -0.3091
  889MOL0     H22636   9.238   5.627   8.428 -0.7387 -0.5461  0.5453
  889MOL0     H22637   9.230   5.571   8.263 -0.2549  0.8474 -0.3207
  889MOL0     H22638   8.980   5.598   8.278  0.3437  1.2148 -1.0163
  889MOL0     H22639   8.990   5.647   8.444 -3.0382  1.7651 -1.7999
  889MOL0     H22640   8.935   5.718   8.086  1.6844 -0.3153  0.3402
  889MOL0     H22641   8.643   5.772   7.974  0.6157 -0.0994 -1.2257
  889MOL0     H22642   8.816   5.764   7.919  1.5692  0.4500  3.3971
  889MOL0     H22643   8.714   5.909   7.889  0.1715  0.4533 -0.0239
  889MOL0     H22644   8.631   6.213   7.869 -1.8591  0.9805 -1.7149
  889MOL0     H22645   8.560   6.376   7.734 -2.9993  2.3415 -0.0636
  889MOL0     H22646   8.646   6.647   7.684  1.7318 -1.9658 -0.3511
  889MOL0     H22647   8.512   6.546   7.632  0.9306  0.9260 -2.3663
  889MOL0     H22648   8.373   6.780   7.635 -0.2484 -3.2554  0.5379
  889MOL0     H22649   8.530   6.855   7.665 -1.3714  0.5181  1.1156
  889MOL0     H22650   8.611   6.759   7.464 -1.5384 -0.3307 -4.0708
  889MOL0     H22651   8.475   6.864   7.443  1.0786  1.2605  0.5863
  889MOL0     H22652   8.339   6.616   7.451 -1.0431 -1.3646 -1.3323
  889MOL0     H22653   8.483   6.566   7.416  2.1363  1.8689  0.9898
  889MOL0     H22654   8.337   6.766   7.231  0.9312  1.1509  1.4637
  889MOL0     H22655   8.503   6.698   7.215 -0.1882 -1.2887 -0.6517
  889MOL0     H22656   8.390   6.459   7.224  0.8365  2.2156  3.4747
  889MOL0     H22657   8.384   6.562   7.095  3.1190  2.1777  0.4987
  889MOL0     H22658   8.168   6.608   7.285  0.4358  2.0874 -0.3477
  889MOL0     H22659   8.179   6.447   7.210  3.2595 -1.0663 -1.5000
  889MOL0     H22660   8.177   6.715   7.059  1.3706 -1.1011 -1.9282
  889MOL0     H22661   8.036   6.611   7.067 -1.0951  3.7559  0.6755
  889MOL0     H22662   8.474   6.644   8.055  2.5880  0.2780 -0.1886
  889MOL0     H22663   8.549   6.462   8.222 -1.9524 -0.4970 -0.2600
  889MOL0     H22664   8.773   6.102   8.350  1.1056  1.3273  0.0402
  889MOL0     H22665   8.972   5.983   8.419 -0.2820  0.1630  0.0747
  889MOL0     H22666   9.439   4.298   9.258  0.4928 -0.0745  0.8166
  889MOL0     H22667   9.456   4.459   9.436 -0.9321  0.7971  0.6224
  889MOL0     H22668   9.137   4.847   9.589 -1.8194 -1.4652  0.3302
  889MOL0     H22669   9.065   5.004   9.750  0.7487  0.4250  2.1303
  889MOL0     H22670   9.072   5.153   9.885  0.4649  0.3962  0.4353
  889MOL0     H22671   8.934   5.133  10.000 -0.5245  0.1270 -0.1686
  889MOL0     H22672   9.042   5.265  10.149  0.3264 -0.0039  0.3710
  889MOL0     H22673   9.106   5.334  10.007  0.1085 -0.2476 -1.4250
  889MOL0     H22674   9.288   5.304  10.159 -0.7492  0.2258  2.3769
  889MOL0     H22675   9.222   5.162  10.234 -0.7605 -0.8756 -0.5672
  889MOL0     H22676   9.354   5.157   9.973 -1.8580  2.2395 -0.2651
  889MOL0     H22677   9.317   5.008  10.077  2.6059 -0.1977 -0.8164
  889MOL0     H22678   9.669   5.089  10.270 -0.4347  0.7758  0.6148
  889MOL0     H22679   9.180   4.755  10.073 -1.0637  3.2304  1.0925
  889MOL0     H22680   9.330   4.572  10.014  1.1738 -0.6660  0.4056
  889MOL0     H22681   9.158   4.510   9.986  0.9596 -3.1523 -1.8305
  889MOL0     H22682   9.287   4.464   9.881  1.3867  0.4210 -0.1363
  890MOL0     O22683   4.870   8.516   8.492 -0.0889  0.6038 -0.0543
  890MOL0     C22684   4.826   8.491   8.600  0.4167  0.0349  1.1376
  890MOL0     O22685   4.831   8.377   8.672  0.4900  0.4578 -0.1760
  890MOL0     C22686   4.892   8.264   8.609  0.9248  0.3901 -0.7637
  890MOL0     C22687   5.031   8.261   8.580  0.0249 -0.5271  0.5297
  890MOL0     C22688   5.085   8.151   8.511  0.1215  0.4818 -0.6330
  890MOL0     C22689   5.000   8.038   8.481 -0.8379  0.0311 -0.7398
  890MOL0     O22690   5.074   7.937   8.422 -0.0837 -0.4392  0.3024
  890MOL0     C22691   5.014   7.818   8.389 -0.4039  0.6729 -0.4607
  890MOL0     C22692   4.947   7.818   8.254  0.3214  1.2106  0.1894
  890MOL0     C22693   5.056   7.863   8.154 -0.0972  0.1490  0.1990
  890MOL0     C22694   5.009   7.855   8.009  0.1205  0.0109 -0.5047
  890MOL0     C22695   5.117   7.910   7.914  0.0808  0.7616 -0.6512
  890MOL0     C22696   5.073   7.923   7.766  0.5555 -0.8459  0.1555
  890MOL0     C22697   4.973   8.042   7.740  0.0361 -0.5681 -0.2975
  890MOL0     C22698   4.957   8.100   7.598  0.0868 -0.5328 -0.6660
  890MOL0     N22699   4.833   8.174   7.586 -1.0356 -0.0188 -0.3359
  890MOL0     C22700   4.826   8.308   7.590  0.2780  0.2619  0.2860
  890MOL0     C22701   4.699   8.336   7.560  0.0895 -0.2576  0.3911
  890MOL0     C22702   4.628   8.469   7.571  0.6508  0.3369 -0.2785
  890MOL0     C22703   4.588   8.534   7.434 -0.3943  1.1546  0.2980
  890MOL0     C22704   4.712   8.594   7.371 -0.0167  0.3590 -0.2136
  890MOL0     C22705   4.662   8.694   7.258  0.4206 -0.1054 -0.0436
  890MOL0     O22706   4.782   8.740   7.195  1.0949 -0.8732 -0.4190
  890MOL0     C22707   4.780   8.823   7.082  0.2183  0.5047  0.2136
  890MOL0     C22708   4.895   8.830   7.005  0.0476 -0.1458  0.4586
  890MOL0     C22709   4.890   8.889   6.879 -0.5241 -0.5459  1.0695
  890MOL0     C22710   5.010   8.890   6.786 -0.5310 -0.2422 -0.8034
  890MOL0     C22711   4.767   8.948   6.832  0.1483 -0.3569  0.4987
  890MOL0     C22712   4.751   9.033   6.702 -0.5663  0.2059 -0.1730
  890MOL0     O22713   4.867   9.096   6.670 -0.8693  0.3243 -0.5178
  890MOL0     C22714   4.888   9.137   6.544 -0.3368 -0.4008  0.3157
  890MOL0     C22715   4.958   9.067   6.440  0.9423 -0.0480 -0.1029
  890MOL0     C22716   4.992   9.132   6.321 -0.6507  0.5287 -0.2429
  890MOL0     C22717   4.941   9.260   6.286 -0.2335  0.4668  0.0495
  890MOL0     O22718   4.948   9.328   6.168  0.1625  0.4574 -0.2218
  890MOL0     C22719   4.984   9.255   6.049  0.0248  0.1558 -0.4096
  890MOL0     C22720   5.125   9.288   5.994 -0.5561  0.4376 -0.6017
  890MOL0     C22721   5.145   9.427   5.935  0.5063 -0.9563 -0.5956
  890MOL0     C22722   5.297   9.446   5.909 -0.4289 -0.3115  0.8572
  890MOL0     C22723   5.324   9.559   5.809 -0.1883  0.2885 -0.2784
  890MOL0     C22724   5.316   9.697   5.878 -0.6202  0.7653 -0.1564
  890MOL0     C22725   5.356   9.806   5.780  0.5281 -0.4752 -0.0536
  890MOL0     C22726   5.302   9.940   5.831  0.5125 -0.3797  0.1442
  890MOL0    Cl22727   5.336  10.076   5.733 -0.7397  0.0548 -0.0467
  890MOL0     C22728   4.867   9.324   6.380 -0.9825 -0.0008  1.0040
  890MOL0     C22729   4.847   9.260   6.507  0.2139  0.7888  0.6263
  890MOL0     O22730   4.649   9.064   6.639  0.1391 -0.3418 -0.3891
  890MOL0     C22731   4.655   8.940   6.907 -0.3936  0.3454  0.9094
  890MOL0     C22732   4.660   8.870   7.032  0.6824  0.2489 -0.5934
  890MOL0     N22733   4.644   8.214   7.524  0.3508 -0.6485  0.4926
  890MOL0     N22734   4.723   8.117   7.539 -0.5770  0.0703 -0.0594
  890MOL0     C22735   4.862   8.042   8.513  0.7666  1.3649 -0.1768
  890MOL0     C22736   4.812   8.156   8.586 -0.4388  0.1714 -0.9586
  890MOL0     C22737   4.759   8.607   8.657 -0.8828 -0.0665  0.9366
  890MOL0     C22738   4.651   8.656   8.579  0.7557 -0.0105 -0.8147
  890MOL0     C22739   4.582   8.774   8.612 -0.0960 -1.1596 -1.1594
  890MOL0     C22740   4.621   8.851   8.720 -0.8838 -0.1321 -0.3126
  890MOL0     O22741   4.567   8.970   8.761 -0.3952 -0.0322 -0.5279
  890MOL0     C22742   4.485   9.044   8.664  0.1455 -0.9898 -0.8512
  890MOL0     C22743   4.493   9.197   8.690  1.0479  0.2045  0.5910
  890MOL0     C22744   4.606   9.252   8.621 -0.4282  0.0499  0.8813
  890MOL0     C22745   4.610   9.405   8.624 -0.0774  0.7480 -0.9271
  890MOL0     C22746   4.511   9.462   8.533  0.3746  0.5453  0.5088
  890MOL0     C22747   4.429   9.504   8.450  0.3570 -0.0127 -0.0410
  890MOL0     C22748   4.714   8.784   8.811  0.1785 -0.7420  0.4308
  890MOL0     C22749   4.777   8.663   8.781 -0.3375 -0.4812 -0.4908
  890MOL0     C22750   4.871   8.608   8.881  0.0578 -0.0898 -0.7357
  890MOL0     H22751   5.086   8.350   8.609  2.0245 -2.5476  3.5164
  890MOL0     H22752   5.192   8.154   8.498  0.0038  0.8708 -1.5735
  890MOL0     H22753   4.950   7.768   8.462  2.6509 -3.5044 -0.2351
  890MOL0     H22754   5.094   7.743   8.390 -0.5019  0.5283  1.6273
  890MOL0     H22755   4.913   7.715   8.241 -2.4968  2.4211 -3.7237
  890MOL0     H22756   4.857   7.880   8.252  1.2339  2.6649  1.6111
  890MOL0     H22757   5.083   7.967   8.172 -0.0517 -0.0156  1.1021
  890MOL0     H22758   5.144   7.799   8.159  0.4822  0.8399 -0.8065
  890MOL0     H22759   4.989   7.752   7.977 -0.3336 -0.1101  0.1436
  890MOL0     H22760   4.919   7.916   7.996  1.5249  2.0655 -1.0636
  890MOL0     H22761   5.205   7.845   7.924  0.3994  1.2199 -0.4423
  890MOL0     H22762   5.145   8.011   7.945 -1.4977  1.0073  0.0538
  890MOL0     H22763   5.155   7.938   7.696  1.1826  3.1049  1.5140
  890MOL0     H22764   5.013   7.837   7.736  0.8066  0.0531 -3.2303
  890MOL0     H22765   5.006   8.123   7.806 -3.1776  0.1350  0.5926
  890MOL0     H22766   4.873   8.014   7.773  0.2773  0.6701  1.6319
  890MOL0     H22767   5.048   8.158   7.580 -0.0297  0.0175  0.4168
  890MOL0     H22768   4.966   8.015   7.529  5.6101 -0.5247 -0.4019
  890MOL0     H22769   4.893   8.379   7.636  0.0516 -1.2062  3.1175
  890MOL0     H22770   4.684   8.549   7.620  1.0862  0.4044 -0.8682
  890MOL0     H22771   4.529   8.456   7.616  1.0702  0.2353  0.6379
  890MOL0     H22772   4.546   8.464   7.362  2.6632 -0.4936 -0.0494
  890MOL0     H22773   4.514   8.611   7.458 -0.4391  0.7090  1.6900
  890MOL0     H22774   4.777   8.651   7.438  4.6618 -2.0885 -2.1760
  890MOL0     H22775   4.781   8.520   7.330 -0.1361  0.4472 -0.5768
  890MOL0     H22776   4.602   8.641   7.184 -0.8936 -0.2741  1.0868
  890MOL0     H22777   4.599   8.777   7.291 -0.8152 -0.5670 -1.1232
  890MOL0     H22778   4.993   8.802   7.042  0.7429  2.1235  0.5091
  890MOL0     H22779   5.076   8.809   6.817 -1.0539  0.0194  1.1085
  890MOL0     H22780   5.060   8.985   6.804 -1.8568  0.2923  0.2266
  890MOL0     H22781   4.975   8.871   6.684 -1.5202  1.1028 -0.7365
  890MOL0     H22782   5.001   8.969   6.459 -0.6067 -0.8953 -0.7442
  890MOL0     H22783   5.059   9.073   6.260 -1.2505 -0.8251  0.3581
  890MOL0     H22784   4.974   9.147   6.062  2.3883 -0.1278 -0.4018
  890MOL0     H22785   4.924   9.278   5.960  2.3102  2.1429 -1.5664
  890MOL0     H22786   5.196   9.263   6.073  0.6529 -3.8869 -2.7553
  890MOL0     H22787   5.168   9.218   5.922  1.9128 -0.0220  1.1554
  890MOL0     H22788   5.109   9.519   5.983 -0.8978 -0.7839 -1.8860
  890MOL0     H22789   5.088   9.428   5.841 -0.3611  0.8562 -0.1056
  890MOL0     H22790   5.328   9.352   5.862  0.5210  1.6636 -2.8619
  890MOL0     H22791   5.361   9.466   5.995  1.0279 -0.4909 -0.1564
  890MOL0     H22792   5.423   9.560   5.761 -0.3366 -1.1126 -0.6383
  890MOL0     H22793   5.249   9.557   5.729 -2.8046  0.9942  1.9944
  890MOL0     H22794   5.392   9.704   5.955  0.3058 -1.5849 -0.7717
  890MOL0     H22795   5.215   9.708   5.920 -0.9021  1.3929 -0.9485
  890MOL0     H22796   5.313   9.777   5.683 -0.0055 -0.1121  0.0703
  890MOL0     H22797   5.464   9.795   5.765  0.0657 -1.8530 -3.5867
  890MOL0     H22798   5.357   9.958   5.924  3.7251 -2.4820 -1.1631
  890MOL0     H22799   5.194   9.924   5.838  0.4454  0.4011  1.2190
  890MOL0     H22800   4.834   9.427   6.373  1.9930  1.0419  1.0604
  890MOL0     H22801   4.791   9.312   6.584 -3.8544 -0.8060 -0.9881
  890MOL0     H22802   4.557   8.972   6.872 -1.0068 -1.5948  0.7224
  890MOL0     H22803   4.562   8.856   7.076 -0.4829  1.1233 -2.7672
  890MOL0     H22804   4.788   7.964   8.499 -1.1795  2.8168  1.3816
  890MOL0     H22805   4.705   8.156   8.604 -0.1094 -0.5100  1.3773
  890MOL0     H22806   4.628   8.605   8.486  3.8279 -2.9736 -0.1365
  890MOL0     H22807   4.494   8.799   8.554 -0.2491  1.4795  0.0399
  890MOL0     H22808   4.510   9.020   8.560 -1.7498 -3.4288 -0.8392
  890MOL0     H22809   4.382   9.012   8.679  0.0068 -0.3274 -0.3053
  890MOL0     H22810   4.510   9.219   8.796 -0.6007  0.5013  0.8157
  890MOL0     H22811   4.402   9.250   8.661  3.0145  2.3053 -2.3799
  890MOL0     H22812   4.704   9.215   8.651  1.3583  2.5349 -1.4057
  890MOL0     H22813   4.597   9.230   8.514 -0.4713  1.5102  0.5563
  890MOL0     H22814   4.710   9.436   8.592  0.0645  2.4173  0.8852
  890MOL0     H22815   4.601   9.441   8.727 -0.1642 -0.6749 -0.4283
  890MOL0     H22816   4.361   9.538   8.374  0.7628  0.4165 -0.2185
  890MOL0     H22817   4.729   8.822   8.912  1.9122  0.4804 -0.2185
  890MOL0     H22818   4.967   8.592   8.830 -0.1645  3.0476 -2.3977
  890MOL0     H22819   4.893   8.681   8.959 -1.9590 -0.1390 -0.0602
  890MOL0     H22820   4.849   8.508   8.918  1.0217 -0.4392 -1.0622
  891MOL0     O22821   9.818   1.865   8.938 -0.4816 -0.0595 -0.4383
  891MOL0     C22822   9.738   1.787   8.993  0.1309  0.0702  1.3335
  891MOL0     O22823   9.725   1.656   8.952 -0.3454 -0.4320 -1.0148
  891MOL0     C22824   9.777   1.626   8.829 -0.2808  0.7439  1.0399
  891MOL0     C22825   9.908   1.572   8.820  0.3118  0.6236  0.2722
  891MOL0     C22826   9.964   1.525   8.707 -0.1759  0.3154 -0.5062
  891MOL0     C22827   9.893   1.547   8.580 -0.8411 -0.1366 -0.0150
  891MOL0     O22828   9.929   1.514   8.455 -0.1813  0.4871  0.3433
  891MOL0     C22829  10.009   1.392   8.440  0.8506 -0.2050 -0.3840
  891MOL0     C22830   9.931   1.266   8.487 -1.0304  0.6051  1.0549
  891MOL0     C22831   9.976   1.143   8.395 -0.9225  0.0811  0.4201
  891MOL0     C22832   9.915   1.007   8.428  0.8963 -0.1902 -0.4211
  891MOL0     C22833   9.969   0.931   8.556 -0.4045  0.9456 -0.6205
  891MOL0     C22834  10.115   0.892   8.529  1.4727  0.5006  0.2918
  891MOL0     C22835  10.170   0.820   8.655  0.0704  0.7444 -0.0790
  891MOL0     C22836  10.239   0.921   8.747 -0.5351 -0.5792  0.8988
  891MOL0     N22837  10.262   0.872   8.884  0.4703  0.6410 -0.4313
  891MOL0     C22838  10.254   0.939   9.004  0.4491  0.4327 -0.0104
  891MOL0     C22839  10.297   0.845   9.095 -0.5416  0.3758 -1.1977
  891MOL0     C22840  10.299   0.887   9.253 -0.7428  0.0264 -0.5150
  891MOL0     C22841  10.251   0.776   9.343  0.0208 -0.1067 -0.0488
  891MOL0     C22842  10.101   0.745   9.307  0.5112 -0.3390 -1.0171
  891MOL0     C22843   9.998   0.856   9.339 -1.4224 -0.2610 -0.3964
  891MOL0     O22844  10.027   0.902   9.477  0.3143  0.6822 -0.0356
  891MOL0     C22845   9.989   0.824   9.581 -0.2934 -0.1066  1.1591
  891MOL0     C22846   9.907   0.713   9.578 -0.1118 -0.2869 -1.1699
  891MOL0     C22847   9.878   0.628   9.690  0.0665 -0.5376  0.2219
  891MOL0     C22848   9.819   0.498   9.657  0.3424 -0.5556  0.1006
  891MOL0     C22849   9.936   0.667   9.820  0.1289  0.0063  0.3916
  891MOL0     C22850   9.925   0.585   9.947  0.0276  0.5215 -0.5683
  891MOL0     O22851  10.022   0.607  10.035  0.0045  0.1711  0.2987
  891MOL0     C22852  10.015   0.530  10.150 -0.5661  0.3005  0.7456
  891MOL0     C22853  10.007   0.392  10.155 -0.2865  0.4815  0.1008
  891MOL0     C22854   9.969   0.326  10.271 -0.5325 -0.7997  0.2631
  891MOL0     C22855   9.958   0.392  10.386 -0.7341 -0.2905  0.9231
  891MOL0     O22856   9.938   0.319  10.497 -0.3934 -0.2508 -0.4330
  891MOL0     C22857   9.806   0.307  10.535  0.3600 -0.7589  0.4616
  891MOL0     C22858   9.729   0.184  10.470 -0.2933 -1.2471 -0.2494
  891MOL0     C22859   9.610   0.142  10.545 -0.3235 -0.6481  0.3259
  891MOL0     C22860   9.559   0.009  10.521 -0.6522  0.0650  0.0637
  891MOL0     C22861   9.418  -0.008  10.573 -0.3442 -0.0694 -0.2929
  891MOL0     C22862   9.364  -0.142  10.513  0.2703 -1.6027  1.3077
  891MOL0     C22863   9.218  -0.147  10.553  0.1611  0.0851  0.3542
  891MOL0     C22864   9.165  -0.280  10.519 -1.2959 -0.1999 -0.2686
  891MOL0    Cl22865   8.991  -0.304  10.542  0.4574  0.0960 -0.2765
  891MOL0     C22866   9.999   0.537  10.395  0.5732 -0.5295 -0.2880
  891MOL0     C22867  10.011   0.601  10.266  0.7328  0.7054 -0.9325
  891MOL0     O22868   9.831   0.507   9.967  0.0664 -0.2546  0.3831
  891MOL0     C22869  10.005   0.791   9.826  0.4409  0.5246  0.9246
  891MOL0     C22870  10.022   0.865   9.705 -0.3323 -0.0195 -0.2985
  891MOL0     N22871  10.333   0.726   9.029 -0.4341  0.5352  0.7435
  891MOL0     N22872  10.306   0.739   8.916  0.1073  0.4204  0.4074
  891MOL0     C22873   9.760   1.596   8.593 -0.1420  0.5085 -0.4882
  891MOL0     C22874   9.709   1.626   8.714 -0.2347  0.1767 -0.7098
  891MOL0     C22875   9.664   1.850   9.102  0.3288 -0.5793  0.6585
  891MOL0     C22876   9.655   2.001   9.107  0.1472 -0.6148  0.2614
  891MOL0     C22877   9.592   2.061   9.210  0.5928 -0.3125  0.2465
  891MOL0     C22878   9.512   1.983   9.298  0.0434 -0.7714 -0.2478
  891MOL0     O22879   9.442   2.049   9.397 -0.8116 -0.4658 -0.3054
  891MOL0     C22880   9.302   2.074   9.362  0.5382  0.5223 -0.5223
  891MOL0     C22881   9.219   2.108   9.495  0.0442  0.9065  0.0127
  891MOL0     C22882   9.067   2.061   9.492 -0.0400  0.4383  0.2473
  891MOL0     C22883   8.992   2.136   9.373  0.6269  0.8528 -0.1675
  891MOL0     C22884   8.859   2.076   9.369 -1.1417  0.5583  0.3100
  891MOL0     C22885   8.750   2.022   9.373  0.0017 -0.5931 -0.0006
  891MOL0     C22886   9.523   1.847   9.297  0.1770  0.0841  0.2016
  891MOL0     C22887   9.585   1.774   9.194 -0.0458 -0.4013  0.1078
  891MOL0     C22888   9.569   1.618   9.204 -0.1774  0.1707 -0.9033
  891MOL0     H22889   9.969   1.572   8.910  3.7659  0.6591 -1.8684
  891MOL0     H22890  10.066   1.490   8.702  1.0100  3.0203  1.8685
  891MOL0     H22891  10.099   1.404   8.501 -0.5625 -2.7089  2.5016
  891MOL0     H22892  10.035   1.385   8.334  0.7361  1.6733 -0.5707
  891MOL0     H22893   9.957   1.247   8.591  0.4781 -2.2375  0.2690
  891MOL0     H22894   9.826   1.290   8.467  0.0733  2.3912 -4.4518
  891MOL0     H22895   9.947   1.162   8.291 -2.8519 -1.2765  0.6652
  891MOL0     H22896  10.086   1.145   8.388 -0.9609  2.1561 -0.4038
  891MOL0     H22897   9.808   1.027   8.437  1.2329  1.3515  0.4633
  891MOL0     H22898   9.935   0.942   8.342  3.6182 -0.6535  0.4623
  891MOL0     H22899   9.897   0.856   8.589 -0.5916  1.9806  1.5075
  891MOL0     H22900   9.966   0.989   8.649  1.0228 -3.8625  2.7961
  891MOL0     H22901  10.115   0.820   8.447  1.2600  0.2906  0.4756
  891MOL0     H22902  10.173   0.982   8.508  3.4436  0.1724  3.5934
  891MOL0     H22903  10.241   0.739   8.635 -0.3083 -0.1822  2.0409
  891MOL0     H22904  10.089   0.768   8.707  0.6807 -1.3431 -1.0874
  891MOL0     H22905  10.336   0.938   8.699 -0.6973 -2.3243 -0.1296
  891MOL0     H22906  10.184   1.015   8.752  3.1262  1.8679 -0.4724
  891MOL0     H22907  10.213   1.040   9.007  1.5667  0.8753  1.4600
  891MOL0     H22908  10.244   0.977   9.280  0.3606 -0.0645  2.3703
  891MOL0     H22909  10.404   0.903   9.277 -0.8667 -1.6701  1.4897
  891MOL0     H22910  10.326   0.697   9.335  0.2218 -0.1076  1.5643
  891MOL0     H22911  10.264   0.808   9.447  0.0530  1.8158 -0.6028
  891MOL0     H22912  10.101   0.736   9.198 -1.4399  5.4276 -1.8580
  891MOL0     H22913  10.062   0.659   9.361 -3.3690  2.6375  1.4921
  891MOL0     H22914  10.011   0.938   9.269  1.9737  1.5365  2.0747
  891MOL0     H22915   9.895   0.818   9.330 -1.5737  0.0390  0.0924
  891MOL0     H22916   9.873   0.673   9.482 -0.8538  1.2470 -1.5805
  891MOL0     H22917   9.869   0.421   9.717 -0.2460 -0.6631  0.4513
  891MOL0     H22918   9.841   0.472   9.553  1.5114 -0.7020  0.3630
  891MOL0     H22919   9.712   0.499   9.676  0.7091 -3.3881  3.3004
  891MOL0     H22920   9.997   0.346  10.057 -5.7172  2.0283 -0.4523
  891MOL0     H22921   9.951   0.219  10.267  1.4691 -1.3340  2.8241
  891MOL0     H22922   9.802   0.296  10.643 -0.2535  2.9121  0.9228
  891MOL0     H22923   9.750   0.399  10.513 -0.0011 -1.3291 -1.2145
  891MOL0     H22924   9.692   0.219  10.373 -5.1418 -1.6110  1.2207
  891MOL0     H22925   9.812   0.116  10.448 -0.2561 -0.6833 -2.0510
  891MOL0     H22926   9.530   0.212  10.521 -0.2407 -0.9210 -0.7837
  891MOL0     H22927   9.640   0.154  10.650 -0.2601 -2.5345  0.5573
  891MOL0     H22928   9.629  -0.065  10.560  2.1375  1.9709 -1.0291
  891MOL0     H22929   9.568  -0.016  10.415 -0.9667  0.8427 -0.1490
  891MOL0     H22930   9.423  -0.013  10.682  0.0411  1.4927 -0.2133
  891MOL0     H22931   9.356   0.077  10.544  1.7012  2.1595  1.4603
  891MOL0     H22932   9.415  -0.229  10.557  0.5141 -0.7728  2.7426
  891MOL0     H22933   9.368  -0.150  10.404 -2.9238 -0.9224  1.0492
  891MOL0     H22934   9.157  -0.072  10.500  2.6403  1.2787 -1.0012
  891MOL0     H22935   9.226  -0.137  10.661  0.1133 -2.7055  0.6861
  891MOL0     H22936   9.211  -0.360  10.577 -1.1261  0.6826  0.8560
  891MOL0     H22937   9.188  -0.300  10.414  3.3495  0.3507  0.4300
  891MOL0     H22938  10.020   0.584  10.491 -0.5773  0.4028 -0.4572
  891MOL0     H22939  10.013   0.710  10.271 -0.4667  0.7071 -0.1471
  891MOL0     H22940  10.035   0.838   9.920 -1.0878  0.0979  1.6550
  891MOL0     H22941  10.078   0.958   9.702 -0.6631  0.1723 -0.8025
  891MOL0     H22942   9.690   1.610   8.511 -0.8750  0.7599  0.1780
  891MOL0     H22943   9.604   1.652   8.720 -0.2307 -0.0503  1.0509
  891MOL0     H22944   9.709   2.058   9.032 -3.2416 -1.4230 -3.1172
  891MOL0     H22945   9.591   2.168   9.229 -2.4766 -0.8146  4.5025
  891MOL0     H22946   9.285   2.157   9.293 -1.7610 -0.9070 -1.8397
  891MOL0     H22947   9.261   1.986   9.311  2.5339  0.0801 -1.4573
  891MOL0     H22948   9.221   2.216   9.507  0.5782  0.7926  0.9932
  891MOL0     H22949   9.274   2.064   9.579  0.3318 -2.2988 -1.6918
  891MOL0     H22950   9.076   1.961   9.449 -0.6778 -0.1970  1.5492
  891MOL0     H22951   9.012   2.074   9.586 -1.3405 -0.8042 -0.3034
  891MOL0     H22952   9.046   2.105   9.283 -0.7072 -0.7728 -0.4488
  891MOL0     H22953   8.984   2.242   9.399  0.1498  1.4621 -2.5932
  891MOL0     H22954   8.651   1.989   9.400  0.0019  0.7434  1.7432
  891MOL0     H22955   9.471   1.787   9.371  1.2212 -1.2985 -0.1469
  891MOL0     H22956   9.501   1.584   9.126 -3.1435 -2.6522  2.5191
  891MOL0     H22957   9.657   1.555   9.192 -0.1862 -0.8481  3.0327
  891MOL0     H22958   9.520   1.598   9.301  0.5024 -0.2198 -0.6363
  892MOL0     O22959   8.167   9.474  10.986  0.4679 -0.1909  0.1579
  892MOL0     C22960   8.279   9.457  10.947 -0.5741 -0.8978 -0.3849
  892MOL0     O22961   8.319   9.462  10.818  0.0306 -0.4227  0.8604
  892MOL0     C22962   8.214   9.473  10.725  0.4934  0.1113 -0.5433
  892MOL0     C22963   8.247   9.568  10.627 -0.5044  0.6100 -0.1075
  892MOL0     C22964   8.150   9.591  10.523  0.8570  0.4528 -0.3878
  892MOL0     C22965   8.018   9.530  10.522 -1.1714 -0.8624  0.3152
  892MOL0     O22966   7.921   9.558  10.426  0.4438 -0.0505  0.5315
  892MOL0     C22967   7.943   9.679  10.362 -0.1922 -0.5175  0.6220
  892MOL0     C22968   7.832   9.716  10.269  0.0053 -1.1302  0.2237
  892MOL0     C22969   7.815   9.629  10.146  0.2224  0.6356 -0.2480
  892MOL0     C22970   7.661   9.614  10.130 -0.4275 -0.2167 -0.2589
  892MOL0     C22971   7.625   9.602   9.985  0.1417  0.1216 -0.1896
  892MOL0     C22972   7.471   9.572   9.979 -0.7364 -0.1375 -0.4246
  892MOL0     C22973   7.424   9.536   9.839  0.1705 -0.0236  0.1805
  892MOL0     C22974   7.273   9.569   9.813  0.1596 -1.1690 -0.4417
  892MOL0     N22975   7.181   9.510   9.912 -0.4844  0.4095  0.0246
  892MOL0     C22976   7.045   9.475   9.890 -0.3395  0.0471 -0.0699
  892MOL0     C22977   6.998   9.460  10.013 -0.0349 -0.2515 -0.2545
  892MOL0     C22978   6.848   9.439  10.042 -0.2718  0.4104  0.1606
  892MOL0     C22979   6.774   9.568   9.984  0.1777  0.8006 -0.0130
  892MOL0     C22980   6.801   9.702  10.052 -0.1537  0.2753  1.0316
  892MOL0     C22981   6.703   9.815  10.019 -0.5213  0.5887  0.5803
  892MOL0     O22982   6.765   9.929  10.082  0.4055 -0.2117 -0.2779
  892MOL0     C22983   6.704  10.053  10.057 -0.0104  0.9129 -0.1713
  892MOL0     C22984   6.765  10.159  10.116 -1.0595  0.4451 -0.2312
  892MOL0     C22985   6.718  10.284  10.085  0.6413  0.5669 -0.2476
  892MOL0     C22986   6.811  10.398  10.123  0.4911  0.4529 -1.6567
  892MOL0     C22987   6.594  10.301  10.021 -0.5031 -0.6426  1.0694
  892MOL0     C22988   6.516  10.434  10.010  0.4538 -0.1053 -0.4973
  892MOL0     O22989   6.398  10.437   9.939 -0.2059  0.0659  0.2657
  892MOL0     C22990   6.326  10.558   9.938  0.1435  0.6226  0.2818
  892MOL0     C22991   6.269  10.600  10.054 -0.4878 -0.7553 -0.0465
  892MOL0     C22992   6.186  10.720  10.059 -0.1172 -0.2415  0.0631
  892MOL0     C22993   6.181  10.799   9.948  1.3109 -0.7360  0.1529
  892MOL0     O22994   6.092  10.905   9.945  0.2024  0.0719 -0.0907
  892MOL0     C22995   6.087  10.988   9.831 -0.6699 -0.1402  0.3268
  892MOL0     C22996   6.014  11.116   9.874  0.1703 -0.1056  0.7360
  892MOL0     C22997   6.010  11.223   9.767  0.5080 -0.5305  1.0012
  892MOL0     C22998   5.969  11.359   9.821 -0.0340  0.2534 -0.2355
  892MOL0     C22999   6.027  11.467   9.736  0.4197 -0.3857 -0.1308
  892MOL0     C23000   5.982  11.603   9.789  0.6254 -0.0797 -0.6074
  892MOL0     C23001   6.051  11.651   9.920  0.3934 -0.3455  0.6444
  892MOL0     C23002   6.200  11.669   9.893  1.2326 -0.9407  0.9144
  892MOL0    Cl23003   6.294  11.528   9.909  0.7025  0.0232  0.3557
  892MOL0     C23004   6.253  10.768   9.829  0.0464 -0.0495 -0.7736
  892MOL0     C23005   6.317  10.642   9.831  0.2115  0.7192  0.0835
  892MOL0     O23006   6.560  10.527  10.075 -0.1285  0.4920  0.0580
  892MOL0     C23007   6.523  10.187   9.984  0.0142  0.1014  1.0268
  892MOL0     C23008   6.578  10.065   9.994  0.0064  0.6684  0.1447
  892MOL0     N23009   7.095   9.486  10.110 -0.0706  0.0902 -0.3927
  892MOL0     N23010   7.201   9.516  10.044  0.1615 -0.2165 -0.2532
  892MOL0     C23011   8.000   9.431  10.617 -0.7956  0.3562 -0.5458
  892MOL0     C23012   8.096   9.398  10.714  0.4037 -0.0070 -0.3551
  892MOL0     C23013   8.390   9.481  11.039 -1.0889 -0.3479 -0.4937
  892MOL0     C23014   8.511   9.523  10.986 -0.4481  0.1169  0.4001
  892MOL0     C23015   8.617   9.549  11.067 -0.6081  0.0581 -0.6655
  892MOL0     C23016   8.615   9.522  11.204  0.0355 -1.1539 -0.2842
  892MOL0     O23017   8.735   9.534  11.278  0.3204 -0.4455 -0.2059
  892MOL0     C23018   8.720   9.549  11.419  0.0161  0.4907  0.0857
  892MOL0     C23019   8.847   9.605  11.492  0.6847  0.8260  0.0102
  892MOL0     C23020   8.813   9.656  11.634  0.4225  0.4805  0.5649
  892MOL0     C23021   8.910   9.617  11.742  0.4245 -1.0494 -1.0631
  892MOL0     C23022   9.043   9.680  11.718 -1.1649  0.5842  0.2383
  892MOL0     C23023   9.147   9.737  11.704  1.1858  0.7514  0.3388
  892MOL0     C23024   8.494   9.474  11.263 -0.0259  0.6786 -0.2454
  892MOL0     C23025   8.385   9.444  11.179  0.3244 -0.1473  0.4560
  892MOL0     C23026   8.265   9.357  11.227  0.4425  0.1937 -0.2594
  892MOL0     H23027   8.341   9.621  10.624  1.3915 -2.5293 -1.9298
  892MOL0     H23028   8.189   9.673  10.463  2.1920  0.3646  0.3242
  892MOL0     H23029   8.033   9.676  10.299 -0.9005  1.2832 -0.5485
  892MOL0     H23030   7.956   9.758  10.436  0.3706 -0.7125  0.7401
  892MOL0     H23031   7.746   9.709  10.336 -0.4496 -0.6861 -0.3078
  892MOL0     H23032   7.851   9.817  10.231  3.7880 -2.8447 -3.1288
  892MOL0     H23033   7.859   9.682  10.061  0.5386  0.5456 -0.1384
  892MOL0     H23034   7.870   9.540  10.178  0.9406  1.1775  0.0568
  892MOL0     H23035   7.618   9.531  10.186 -1.2009 -0.3082 -0.9634
  892MOL0     H23036   7.618   9.706  10.170  1.2966  0.8844 -0.8162
  892MOL0     H23037   7.674   9.513   9.946 -2.7304 -0.8364 -1.9300
  892MOL0     H23038   7.648   9.690   9.924 -2.4372 -0.2990 -1.9393
  892MOL0     H23039   7.456   9.493  10.054 -0.5916  2.5563  2.6695
  892MOL0     H23040   7.413   9.658  10.013 -0.6887  0.5584 -2.0211
  892MOL0     H23041   7.445   9.433   9.809  2.4783  1.0708 -2.3828
  892MOL0     H23042   7.481   9.598   9.769 -0.4230  2.0280  1.4350
  892MOL0     H23043   7.272   9.677   9.831 -0.4354 -0.9689 -1.6286
  892MOL0     H23044   7.240   9.526   9.718 -1.0374 -3.0113  0.7411
  892MOL0     H23045   6.988   9.468   9.798  2.0841  2.4740 -1.9670
  892MOL0     H23046   6.827   9.425  10.149 -0.5883 -0.5050 -0.0136
  892MOL0     H23047   6.818   9.347   9.991  0.6593  0.9029 -1.3244
  892MOL0     H23048   6.798   9.581   9.878  2.3849 -2.2988 -0.0259
  892MOL0     H23049   6.666   9.552   9.994 -0.3160  3.7264  0.1003
  892MOL0     H23050   6.805   9.683  10.160 -0.2682  3.8740  1.7654
  892MOL0     H23051   6.899   9.731  10.012 -0.9326 -1.2300 -2.3529
  892MOL0     H23052   6.709   9.820   9.910  2.0119  0.6553  0.6690
  892MOL0     H23053   6.598   9.787  10.038 -1.1766  1.8655 -0.9867
  892MOL0     H23054   6.856  10.128  10.165 -3.3702 -2.1338  2.9040
  892MOL0     H23055   6.830  10.462  10.035  1.4172  0.5728 -1.3858
  892MOL0     H23056   6.907  10.366  10.165 -1.4402 -1.8795  1.2994
  892MOL0     H23057   6.772  10.456  10.206  0.1403  1.2207 -2.3410
  892MOL0     H23058   6.275  10.541  10.145 -0.4408 -1.2276 -0.3521
  892MOL0     H23059   6.135  10.753  10.148 -2.1649  1.0676 -1.4983
  892MOL0     H23060   6.190  11.020   9.816 -0.7261  0.2685  0.7924
  892MOL0     H23061   6.061  10.938   9.738  1.2577 -0.2123 -0.2242
  892MOL0     H23062   5.910  11.087   9.893  0.1652  0.0455  0.9433
  892MOL0     H23063   6.066  11.163   9.958  2.4496  3.2425 -2.2654
  892MOL0     H23064   5.937  11.190   9.692 -0.3126  2.9862  0.0484
  892MOL0     H23065   6.101  11.223   9.706 -1.3614 -0.1213 -1.9881
  892MOL0     H23066   6.008  11.363   9.924  0.2819 -2.0845 -0.1962
  892MOL0     H23067   5.860  11.363   9.827 -0.0220  1.2596 -0.5797
  892MOL0     H23068   6.135  11.454   9.744  0.0088 -3.9445  1.3884
  892MOL0     H23069   6.000  11.448   9.632 -0.3939  0.4699 -0.0941
  892MOL0     H23070   5.873  11.602   9.805  0.9524 -1.2251  1.9904
  892MOL0     H23071   5.992  11.673   9.706 -1.4981  0.1408 -0.7518
  892MOL0     H23072   6.044  11.593  10.013  2.8733  0.5732  1.4796
  892MOL0     H23073   6.000  11.744   9.946  2.8745  1.1645  0.4662
  892MOL0     H23074   6.242  11.754   9.948  0.6255 -0.7010  1.0085
  892MOL0     H23075   6.218  11.704   9.791  1.5370  0.6765  1.4917
  892MOL0     H23076   6.259  10.835   9.744 -0.4642  0.5401 -0.3514
  892MOL0     H23077   6.401  10.623   9.764  1.6089  1.5082  1.5506
  892MOL0     H23078   6.430  10.195   9.928  0.3604  0.5555  0.5152
  892MOL0     H23079   6.521   9.984   9.949 -1.0360  0.4340  1.8381
  892MOL0     H23080   7.905   9.380  10.624 -2.4769  3.4260  4.2760
  892MOL0     H23081   8.061   9.321  10.782 -3.1061 -0.1178 -2.0845
  892MOL0     H23082   8.537   9.553  10.885  0.1929 -1.9466 -0.0842
  892MOL0     H23083   8.714   9.586  11.037  0.3481 -0.1120  1.9308
  892MOL0     H23084   8.635   9.616  11.434 -0.8331 -0.2731 -1.2050
  892MOL0     H23085   8.679   9.455  11.458 -1.7629  1.2276  0.0429
  892MOL0     H23086   8.896   9.684  11.433  0.4844  0.0368 -1.2564
  892MOL0     H23087   8.910   9.516  11.497 -0.3911  0.0043 -0.6783
  892MOL0     H23088   8.820   9.765  11.628  2.9884  0.6230  3.5537
  892MOL0     H23089   8.716   9.612  11.656  0.4159  0.7482  1.0722
  892MOL0     H23090   8.927   9.509  11.745 -0.9457 -1.2606  0.2360
  892MOL0     H23091   8.872   9.656  11.837  0.9549  2.3216 -2.0932
  892MOL0     H23092   9.242   9.775  11.674  1.1641 -1.0871 -2.3376
  892MOL0     H23093   8.479   9.450  11.368 -0.7947 -1.5654 -0.8052
  892MOL0     H23094   8.183   9.429  11.235  0.4206 -0.0138  1.7415
  892MOL0     H23095   8.240   9.279  11.154 -4.4128 -0.3638  1.6247
  892MOL0     H23096   8.279   9.321  11.329  2.0884  2.5600  0.4394
  893MOL0     O23097   1.444   6.960   0.855 -0.8700  0.9003  0.1353
  893MOL0     C23098   1.437   6.929   0.970 -0.6437 -0.2784 -0.2756
  893MOL0     O23099   1.326   6.933   1.045  0.2786  0.8413  0.0483
  893MOL0     C23100   1.202   6.937   0.986  0.1815 -0.5899  0.0488
  893MOL0     C23101   1.151   6.839   0.906 -0.1819  0.3195  0.6194
  893MOL0     C23102   1.033   6.863   0.831  0.1897  0.4068 -0.0689
  893MOL0     C23103   0.961   6.983   0.845 -0.1959  0.5103  0.2080
  893MOL0     O23104   0.848   7.000   0.762 -0.3337 -0.0779 -0.3018
  893MOL0     C23105   0.738   7.062   0.821 -0.8628 -0.7155  0.7364
  893MOL0     C23106   0.618   7.027   0.751 -0.2562  0.3981 -0.0309
  893MOL0     C23107   0.595   6.876   0.763 -0.7209  1.5472 -0.5859
  893MOL0     C23108   0.453   6.828   0.793  0.4255 -0.0851  0.2389
  893MOL0     C23109   0.423   6.691   0.721  0.2669  0.3383  0.1882
  893MOL0     C23110   0.277   6.658   0.738  0.4014  0.5780  0.7599
  893MOL0     C23111   0.252   6.519   0.663  0.3014 -0.3778  0.6199
  893MOL0     C23112   0.100   6.480   0.683 -0.6970  0.6584 -0.4353
  893MOL0     N23113   0.060   6.375   0.591  0.4643 -0.0374  0.0043
  893MOL0     C23114   0.076   6.367   0.459 -0.0962  0.3879  0.3141
  893MOL0     C23115   0.009   6.252   0.431  0.4406  0.2408  0.2631
  893MOL0     C23116  -0.032   6.223   0.287 -0.5534 -0.0517  0.9839
  893MOL0     C23117   0.085   6.196   0.187 -0.3042  0.8165 -0.4151
  893MOL0     C23118   0.174   6.076   0.226 -0.3677  0.2762  0.4700
  893MOL0     C23119   0.120   5.960   0.151 -0.5398 -0.0686 -0.3489
  893MOL0     O23120   0.144   5.978   0.011 -0.1858 -0.4368  0.5648
  893MOL0     C23121   0.271   5.959  -0.032 -0.2685  0.2268 -0.4341
  893MOL0     C23122   0.290   5.990  -0.175  0.3143  0.0184 -0.1552
  893MOL0     C23123   0.412   5.994  -0.231  0.6304  0.6879 -0.1392
  893MOL0     C23124   0.428   6.033  -0.373  0.7736 -0.2986 -0.1686
  893MOL0     C23125   0.530   5.960  -0.156  0.3755  0.1726  0.3260
  893MOL0     C23126   0.674   5.962  -0.199 -0.1341  0.0044 -0.3027
  893MOL0     O23127   0.715   6.060  -0.286 -0.1507  0.0075  0.5648
  893MOL0     C23128   0.849   6.071  -0.309 -0.4430 -1.2166  0.0591
  893MOL0     C23129   0.917   6.021  -0.420  0.8305  0.2671  1.0234
  893MOL0     C23130   1.052   6.050  -0.440 -0.3647  0.2243  1.0738
  893MOL0     C23131   1.111   6.142  -0.356 -0.8421  0.0551 -0.0491
  893MOL0     O23132   1.240   6.184  -0.386 -0.2292  0.3153 -1.0165
  893MOL0     C23133   1.309   6.265  -0.287 -0.3011 -1.2512  0.0799
  893MOL0     C23134   1.452   6.289  -0.343 -0.1035 -1.0241  1.3201
  893MOL0     C23135   1.467   6.299  -0.496  1.0092  0.2502 -0.3299
  893MOL0     C23136   1.602   6.332  -0.547 -0.9502  0.6527  0.1448
  893MOL0     C23137   1.658   6.470  -0.503 -0.7769 -1.6959  0.8970
  893MOL0     C23138   1.812   6.496  -0.544  0.6960  0.6939  0.4172
  893MOL0     C23139   1.879   6.611  -0.460 -0.4320  0.2815  0.3312
  893MOL0     C23140   1.809   6.745  -0.480  0.1684 -0.3592 -0.3352
  893MOL0    Cl23141   1.650   6.769  -0.400 -0.1968 -0.2333  0.4616
  893MOL0     C23142   1.038   6.199  -0.250 -0.7485 -0.7033  0.2126
  893MOL0     C23143   0.904   6.168  -0.234 -0.5959 -0.6236 -0.5528
  893MOL0     O23144   0.748   5.871  -0.152 -0.5031 -0.8806 -0.2590
  893MOL0     C23145   0.508   5.907  -0.027 -0.0232 -0.2751  0.1585
  893MOL0     C23146   0.380   5.907   0.036 -0.2752 -1.3656 -0.4081
  893MOL0     N23147  -0.060   6.202   0.540  0.2574  0.1102 -0.3674
  893MOL0     N23148  -0.020   6.277   0.637  0.3208 -0.2782 -0.2541
  893MOL0     C23149   1.002   7.075   0.936 -0.1973  0.7914  0.7557
  893MOL0     C23150   1.130   7.057   1.006  0.9477  1.3652 -0.1399
  893MOL0     C23151   1.557   6.876   1.042 -0.1264  0.4637  0.2969
  893MOL0     C23152   1.552   6.847   1.178  0.5362  0.2126 -0.4032
  893MOL0     C23153   1.656   6.784   1.241 -0.3729  0.7074  0.2225
  893MOL0     C23154   1.774   6.751   1.183 -1.2162  0.1933 -0.2185
  893MOL0     O23155   1.886   6.690   1.242 -0.4810  0.8701 -0.6529
  893MOL0     C23156   1.895   6.685   1.390  0.1999 -0.2439  1.1397
  893MOL0     C23157   1.864   6.539   1.444 -0.6042 -0.0973  0.5478
  893MOL0     C23158   1.821   6.529   1.596 -0.8819  0.2322  0.4358
  893MOL0     C23159   1.725   6.624   1.656  0.0530  0.3919 -0.5073
  893MOL0     C23160   1.793   6.744   1.709  0.4045 -0.6481  0.4662
  893MOL0     C23161   1.848   6.846   1.748  0.2757  0.3185 -0.1991
  893MOL0     C23162   1.786   6.765   1.044  0.8142 -0.0038 -0.8932
  893MOL0     C23163   1.673   6.817   0.974 -0.3027 -0.8829  0.1805
  893MOL0     C23164   1.696   6.807   0.830  0.2172  0.1877  0.3772
  893MOL0     H23165   1.209   6.747   0.904 -0.2432  0.1937 -3.1470
  893MOL0     H23166   0.998   6.793   0.757 -2.3453  1.5748 -0.0733
  893MOL0     H23167   0.757   7.170   0.821  1.0442 -1.0185  1.9501
  893MOL0     H23168   0.741   7.035   0.927  1.5155  2.3211  1.5867
  893MOL0     H23169   0.540   7.070   0.815 -1.1590  0.7731 -1.3460
  893MOL0     H23170   0.612   7.063   0.648  0.3985 -0.2023 -0.2849
  893MOL0     H23171   0.629   6.826   0.672 -3.0406 -0.6804 -0.3290
  893MOL0     H23172   0.654   6.843   0.849  0.6400 -0.3547 -2.1799
  893MOL0     H23173   0.444   6.807   0.900 -1.9789 -1.3737 -0.1578
  893MOL0     H23174   0.374   6.894   0.756 -1.1252 -3.5125 -3.3952
  893MOL0     H23175   0.483   6.620   0.778 -1.3732 -1.0054  0.2945
  893MOL0     H23176   0.456   6.685   0.617  1.9226  2.9866  0.4555
  893MOL0     H23177   0.264   6.642   0.845 -0.0883  0.6699  0.7125
  893MOL0     H23178   0.209   6.733   0.698 -1.0988 -0.6357  0.9440
  893MOL0     H23179   0.313   6.436   0.699  1.5014 -0.0196 -0.5374
  893MOL0     H23180   0.259   6.533   0.555 -1.2035  1.4320  0.7084
  893MOL0     H23181   0.081   6.449   0.785  2.1570 -2.8242 -0.7714
  893MOL0     H23182   0.046   6.569   0.648  3.0654  2.0747 -3.4813
  893MOL0     H23183   0.137   6.431   0.396  1.5813  1.4299  2.7920
  893MOL0     H23184  -0.081   6.314   0.252  0.6997  0.5135  0.6503
  893MOL0     H23185  -0.107   6.143   0.282 -2.1980  1.4854 -0.4750
  893MOL0     H23186   0.055   6.197   0.082 -1.1809  1.3455 -0.1724
  893MOL0     H23187   0.146   6.287   0.192  1.0557 -0.1106  0.6735
  893MOL0     H23188   0.272   6.095   0.182 -1.5670  1.2730 -1.9419
  893MOL0     H23189   0.190   6.054   0.332  2.9365  0.1486  0.0487
  893MOL0     H23190   0.166   5.865   0.180 -0.8783 -0.8485 -2.2061
  893MOL0     H23191   0.013   5.954   0.171 -0.6173  0.1913 -0.6730
  893MOL0     H23192   0.207   6.011  -0.241  0.8207  0.1156 -0.7736
  893MOL0     H23193   0.337   6.010  -0.429  1.4985 -2.1481 -0.6721
  893MOL0     H23194   0.499   5.960  -0.414  2.9130  1.1582  0.7476
  893MOL0     H23195   0.455   6.139  -0.382 -2.3840  0.4771 -1.8913
  893MOL0     H23196   0.870   5.956  -0.492  2.3400  0.5504 -0.2634
  893MOL0     H23197   1.095   5.993  -0.521 -4.0635 -1.4351  0.0542
  893MOL0     H23198   1.263   6.364  -0.278  1.1397 -0.4543 -1.0442
  893MOL0     H23199   1.332   6.209  -0.195  0.1999 -0.4198  0.4646
  893MOL0     H23200   1.498   6.376  -0.294  0.5753 -1.1348  0.8959
  893MOL0     H23201   1.522   6.207  -0.326  1.6578 -0.8902 -3.8006
  893MOL0     H23202   1.408   6.383  -0.533  1.1113  0.6208  0.3391
  893MOL0     H23203   1.428   6.205  -0.537  1.2132 -0.9947  2.1259
  893MOL0     H23204   1.621   6.333  -0.655 -0.0352 -2.4650  0.1820
  893MOL0     H23205   1.671   6.254  -0.511 -3.9832 -4.1946 -3.2866
  893MOL0     H23206   1.592   6.546  -0.546  0.5699  0.3373  2.2506
  893MOL0     H23207   1.641   6.467  -0.395 -0.9721 -1.2158  0.8793
  893MOL0     H23208   1.819   6.527  -0.648  3.8048  6.5777  1.9214
  893MOL0     H23209   1.873   6.408  -0.522 -0.9121  0.2488  3.7222
  893MOL0     H23210   1.979   6.616  -0.503 -0.3824 -2.6830 -0.0768
  893MOL0     H23211   1.888   6.569  -0.359 -1.6551 -1.7528 -0.3395
  893MOL0     H23212   1.797   6.769  -0.586 -1.1239 -1.7634 -0.5469
  893MOL0     H23213   1.879   6.817  -0.438  0.7641 -1.5139  0.7083
  893MOL0     H23214   1.079   6.270  -0.178 -0.9762 -2.4985  2.2164
  893MOL0     H23215   0.852   6.208  -0.148  1.9894  1.8741  0.0162
  893MOL0     H23216   0.593   5.865   0.026 -0.0431  1.5965  1.7736
  893MOL0     H23217   0.373   5.861   0.134 -4.0861  2.7566  1.6295
  893MOL0     H23218   0.944   7.166   0.948 -2.9968 -0.5871 -0.9610
  893MOL0     H23219   1.181   7.124   1.075  0.5018  0.4621  1.1135
  893MOL0     H23220   1.472   6.879   1.243  0.5412 -2.6309  1.1704
  893MOL0     H23221   1.647   6.746   1.342 -0.7359 -2.9337 -1.0275
  893MOL0     H23222   1.995   6.712   1.424  0.7396 -0.6145 -0.0832
  893MOL0     H23223   1.827   6.759   1.433 -0.9275  1.4126 -2.9405
  893MOL0     H23224   1.948   6.470   1.441 -1.4038 -1.0978  0.7243
  893MOL0     H23225   1.780   6.493   1.390  0.5355  0.1323 -1.5206
  893MOL0     H23226   1.770   6.434   1.613 -0.3630 -0.2834 -0.7890
  893MOL0     H23227   1.918   6.530   1.646 -0.1327 -0.0120 -0.9728
  893MOL0     H23228   1.663   6.580   1.734  0.3848  2.5456  1.0428
  893MOL0     H23229   1.656   6.653   1.576  0.6995 -1.3289 -1.7630
  893MOL0     H23230   1.887   6.944   1.765 -2.3719  0.8683  4.4950
  893MOL0     H23231   1.879   6.746   0.992  1.6280  0.3918  0.3544
  893MOL0     H23232   1.612   6.840   0.768  0.5470  0.9354  0.3182
  893MOL0     H23233   1.784   6.864   0.801 -0.0234 -0.3238 -1.5079
  893MOL0     H23234   1.704   6.699   0.812 -3.4082 -0.7047  3.0307
  894MOL0     O23235   1.495   0.172   9.337 -0.1836  0.0759 -1.1163
  894MOL0     C23236   1.607   0.137   9.365 -0.0818  0.4450 -0.2297
  894MOL0     O23237   1.646   0.084   9.480  0.2123 -0.2717 -0.1878
  894MOL0     C23238   1.541   0.032   9.560 -0.5537 -0.1512  0.3217
  894MOL0     C23239   1.470   0.115   9.652 -0.1750 -0.3007  0.4012
  894MOL0     C23240   1.371   0.067   9.724 -0.1427 -0.1130  0.7600
  894MOL0     C23241   1.325  -0.070   9.709  0.2843  0.1896  0.6536
  894MOL0     O23242   1.213  -0.119   9.768 -0.3060  0.5345 -0.0621
  894MOL0     C23243   1.128  -0.021   9.829 -0.0680  0.2181 -0.1406
  894MOL0     C23244   1.015  -0.089   9.890 -0.2425  0.0612 -0.4746
  894MOL0     C23245   0.912   0.013   9.937 -0.7525 -0.7216  0.2879
  894MOL0     C23246   0.939   0.091  10.074  0.0189  0.3396  1.0249
  894MOL0     C23247   1.010   0.222  10.049  0.0771  0.2691  0.6943
  894MOL0     C23248   1.040   0.316  10.166 -0.2667 -0.1523  0.3497
  894MOL0     C23249   1.103   0.455  10.134 -0.3725 -0.8173  0.7634
  894MOL0     C23250   1.122   0.538  10.263 -0.2330  0.0322 -0.9505
  894MOL0     N23251   1.251   0.513  10.341  0.5579  0.2804 -0.0944
  894MOL0     C23252   1.377   0.545  10.312  0.0989  0.5966  0.2584
  894MOL0     C23253   1.455   0.508  10.410 -0.2850 -0.3244 -0.2639
  894MOL0     C23254   1.608   0.539  10.420  0.4805 -0.4209  0.9983
  894MOL0     C23255   1.680   0.549  10.278  0.1856 -0.3028  0.7624
  894MOL0     C23256   1.829   0.562  10.284  0.9871 -0.3301 -0.7273
  894MOL0     C23257   1.890   0.519  10.150  0.0183 -0.3616 -0.0657
  894MOL0     O23258   1.866   0.617  10.040  0.5808 -1.0744 -0.2203
  894MOL0     C23259   1.914   0.744  10.057  0.0976 -0.3075 -1.0519
  894MOL0     C23260   2.035   0.779  10.124 -0.2572 -0.0815  0.0386
  894MOL0     C23261   2.069   0.915  10.148 -0.4090  0.1340  0.5364
  894MOL0     C23262   2.191   0.937  10.242  0.1025  0.5685 -0.6025
  894MOL0     C23263   1.992   1.016  10.089 -0.0408 -0.2969  0.0790
  894MOL0     C23264   2.032   1.169  10.091  0.0328  0.4041 -1.0337
  894MOL0     O23265   1.937   1.255  10.042 -0.6979  0.5967 -0.2930
  894MOL0     C23266   1.934   1.391  10.063 -0.2329 -0.2897  0.4214
  894MOL0     C23267   2.018   1.466  10.152 -0.6614  0.0011  0.7741
  894MOL0     C23268   2.009   1.602  10.174  0.4985 -0.1930  0.0413
  894MOL0     C23269   1.920   1.683  10.095  0.2387  0.2345 -0.1885
  894MOL0     O23270   1.897   1.827  10.109 -0.8500  0.4161 -0.5069
  894MOL0     C23271   1.957   1.889  10.223  0.4607  1.3016 -0.3334
  894MOL0     C23272   1.902   2.027  10.220 -0.5726 -0.7145 -0.1263
  894MOL0     C23273   1.970   2.119  10.325 -0.7444  0.3345 -0.7227
  894MOL0     C23274   1.936   2.064  10.472  0.8097 -0.0592  0.1419
  894MOL0     C23275   1.997   2.134  10.591 -0.1630  0.9036  0.0943
  894MOL0     C23276   2.149   2.164  10.581 -0.3176 -0.2289 -1.3766
  894MOL0     C23277   2.202   2.192  10.719 -0.4629 -0.9656 -0.1528
  894MOL0     C23278   2.342   2.239  10.705 -0.1690  0.1209 -0.3932
  894MOL0    Cl23279   2.437   2.127  10.600 -0.5339  0.1341  0.1178
  894MOL0     C23280   1.829   1.606  10.012 -0.1677 -0.1276 -0.8088
  894MOL0     C23281   1.840   1.471   9.996 -0.2479  0.9425 -0.8992
  894MOL0     O23282   2.148   1.197  10.110 -0.2518  0.3189 -0.6754
  894MOL0     C23283   1.876   0.981  10.020 -0.0817  0.8706 -0.0372
  894MOL0     C23284   1.838   0.846  10.001 -0.5374  0.0190  0.5661
  894MOL0     N23285   1.372   0.451  10.511 -0.3527 -0.8582  0.2106
  894MOL0     N23286   1.251   0.456  10.470 -0.1649  1.0684 -0.3399
  894MOL0     C23287   1.400  -0.155   9.623 -0.6946  0.6321  0.3492
  894MOL0     C23288   1.510  -0.104   9.542  0.4349 -0.5050 -1.1868
  894MOL0     C23289   1.712   0.169   9.271  0.6619 -0.3653 -0.6349
  894MOL0     C23290   1.845   0.163   9.319  0.8328  0.1923 -0.3536
  894MOL0     C23291   1.953   0.182   9.232 -0.9574  0.5118 -0.6673
  894MOL0     C23292   1.940   0.200   9.092 -0.7748  0.4216  0.1363
  894MOL0     O23293   2.037   0.229   8.996  0.5296 -0.2096  0.5037
  894MOL0     C23294   2.173   0.242   9.040 -0.0998  0.5307 -0.2438
  894MOL0     C23295   2.201   0.378   9.101  0.2071  1.2079 -0.1575
  894MOL0     C23296   2.338   0.397   9.144  0.3882  0.2938  0.1624
  894MOL0     C23297   2.401   0.282   9.234  0.3510  0.6154  0.1046
  894MOL0     C23298   2.314   0.262   9.358  0.3309 -0.9843 -0.8627
  894MOL0     C23299   2.250   0.275   9.456  0.6062 -1.1303 -0.6046
  894MOL0     C23300   1.810   0.191   9.046 -0.4748 -0.2673  1.2023
  894MOL0     C23301   1.692   0.170   9.131  0.2044 -0.7789  1.2295
  894MOL0     C23302   1.563   0.145   9.052  0.2363 -0.0434  0.0203
  894MOL0     H23303   1.504   0.217   9.665  2.3366 -0.8781 -0.8932
  894MOL0     H23304   1.336   0.141   9.794 -0.7073 -0.0133  0.3769
  894MOL0     H23305   1.088   0.052   9.758 -0.5940 -0.5565 -0.6504
  894MOL0     H23306   1.182   0.022   9.914 -0.9899 -2.2643  1.8384
  894MOL0     H23307   0.967  -0.161   9.823  0.5247 -1.4605  0.5333
  894MOL0     H23308   1.046  -0.162   9.965  2.9453  0.2718 -1.4694
  894MOL0     H23309   0.897   0.080   9.852  1.3492 -0.2335  0.2740
  894MOL0     H23310   0.830  -0.053   9.968  0.4701 -0.8811  3.5248
  894MOL0     H23311   0.850   0.113  10.133  0.8091  1.1401  1.9742
  894MOL0     H23312   1.001   0.030  10.141 -1.5214 -2.2131  0.2738
  894MOL0     H23313   0.957   0.273   9.969  0.6893 -1.8070 -1.1251
  894MOL0     H23314   1.103   0.201   9.996 -0.7122  0.3314 -0.7721
  894MOL0     H23315   0.954   0.341  10.229  0.1021  2.7543 -0.1352
  894MOL0     H23316   1.112   0.259  10.226  1.7465 -0.2641 -2.0144
  894MOL0     H23317   1.023   0.514  10.088 -0.0786  0.8211  2.2412
  894MOL0     H23318   1.187   0.448  10.064 -1.7186  0.9837 -1.1828
  894MOL0     H23319   1.118   0.645  10.238 -0.7249  0.2359 -0.0606
  894MOL0     H23320   1.040   0.514  10.331  0.9615  2.3094  1.4769
  894MOL0     H23321   1.400   0.609  10.228  1.8041 -0.7098 -0.3320
  894MOL0     H23322   1.657   0.454  10.469 -0.5279 -1.6231  0.0167
  894MOL0     H23323   1.630   0.628  10.478  2.1061 -0.7701  0.9608
  894MOL0     H23324   1.658   0.464  10.211  0.2638 -0.6544  1.1769
  894MOL0     H23325   1.638   0.626  10.213  0.4728 -3.2125 -3.2621
  894MOL0     H23326   1.855   0.666  10.305  2.2001 -0.4165 -1.6891
  894MOL0     H23327   1.868   0.495  10.361  2.6715  0.7552 -0.5730
  894MOL0     H23328   1.997   0.508  10.166  0.8734  4.0901 -1.3658
  894MOL0     H23329   1.841   0.426  10.119 -0.2382  0.4706 -2.3359
  894MOL0     H23330   2.100   0.707  10.172 -0.2508 -0.3607 -0.3825
  894MOL0     H23331   2.205   0.839  10.288 -3.6131 -2.1788 -4.4869
  894MOL0     H23332   2.163   1.012  10.316 -2.3803  1.7811 -2.5905
  894MOL0     H23333   2.284   0.955  10.186  0.3342  1.4470  0.0446
  894MOL0     H23334   2.079   1.403  10.216 -0.1441 -2.1873 -1.6964
  894MOL0     H23335   2.071   1.651  10.248  1.3139  0.8611 -1.2829
  894MOL0     H23336   1.919   1.835  10.310  0.5563  2.4904  0.4670
  894MOL0     H23337   2.066   1.888  10.222  0.5411 -2.2515 -0.8527
  894MOL0     H23338   1.919   2.064  10.118 -0.4955  0.5753  0.3360
  894MOL0     H23339   1.794   2.013  10.233 -0.4281 -2.0912 -0.2362
  894MOL0     H23340   1.937   2.222  10.309 -1.1693  0.5977  1.5416
  894MOL0     H23341   2.078   2.113  10.305 -0.1465 -0.5791  2.3200
  894MOL0     H23342   1.953   1.957  10.484  2.4924  0.0263 -1.0848
  894MOL0     H23343   1.831   2.082  10.499  1.3283 -0.9620  3.0798
  894MOL0     H23344   1.938   2.223  10.614  0.2631  1.1792  0.1355
  894MOL0     H23345   1.995   2.072  10.681 -0.0032  2.9283  1.5604
  894MOL0     H23346   2.177   2.246  10.514  3.2479 -1.6865 -1.8612
  894MOL0     H23347   2.193   2.073  10.541 -0.0412 -0.1501 -1.2574
  894MOL0     H23348   2.177   2.117  10.795 -1.9648 -2.3069 -1.8703
  894MOL0     H23349   2.140   2.270  10.764 -1.1832 -2.7590  2.1403
  894MOL0     H23350   2.388   2.253  10.803  0.6317 -1.1920 -0.5469
  894MOL0     H23351   2.337   2.338  10.659 -1.7912  1.0672  1.6902
  894MOL0     H23352   1.749   1.662   9.964 -0.4233 -1.2334 -1.7126
  894MOL0     H23353   1.778   1.414   9.927 -1.0119 -2.7815  2.4450
  894MOL0     H23354   1.803   1.055   9.988  0.2033  2.3477  2.4575
  894MOL0     H23355   1.747   0.829   9.943  1.4023 -1.5522 -2.2611
  894MOL0     H23356   1.361  -0.255   9.608  0.9706  0.3534 -3.4811
  894MOL0     H23357   1.546  -0.163   9.458 -3.0271 -0.9645 -2.5058
  894MOL0     H23358   1.869   0.148   9.424  2.6664 -1.2262 -0.9181
  894MOL0     H23359   2.053   0.193   9.271 -0.1530  0.8317 -2.7062
  894MOL0     H23360   2.187   0.162   9.114  0.4431  0.7827 -0.0631
  894MOL0     H23361   2.242   0.224   8.958 -3.4085 -0.5752 -3.0286
  894MOL0     H23362   2.135   0.415   9.180 -1.0721 -1.9737  0.3930
  894MOL0     H23363   2.185   0.443   9.014  1.0705  0.2731 -1.0474
  894MOL0     H23364   2.400   0.414   9.056 -0.3452  1.7473 -0.1195
  894MOL0     H23365   2.335   0.491   9.200 -4.7208 -1.6626  3.9630
  894MOL0     H23366   2.505   0.307   9.258  1.0170 -0.3676 -1.6040
  894MOL0     H23367   2.405   0.185   9.183  2.1991 -0.4230  2.0344
  894MOL0     H23368   2.196   0.274   9.549  2.1899  0.0160  0.3847
  894MOL0     H23369   1.806   0.178   8.939  3.6986  4.0027  0.1518
  894MOL0     H23370   1.535   0.039   9.062  1.9048 -0.3549  2.5187
  894MOL0     H23371   1.503   0.229   9.088  0.5802  0.7670 -1.2555
  894MOL0     H23372   1.579   0.163   8.946  1.8560  0.2403  0.2886
  895MOL0     O23373   1.146   8.111   3.546 -0.4420  0.2024 -0.4582
  895MOL0     C23374   1.060   8.040   3.502  0.3735 -0.3292 -0.1099
  895MOL0     O23375   0.923   8.074   3.513 -0.4292  0.0068  0.2491
  895MOL0     C23376   0.891   8.202   3.531  0.1292  1.2461  0.6486
  895MOL0     C23377   0.895   8.262   3.658  0.5600 -0.0567 -0.3466
  895MOL0     C23378   0.839   8.397   3.664  0.0887  0.6752 -0.0340
  895MOL0     C23379   0.790   8.467   3.546 -0.5212 -0.5929  0.0684
  895MOL0     O23380   0.747   8.603   3.546  0.3444 -0.0266  0.5038
  895MOL0     C23381   0.707   8.675   3.658 -0.1469  0.1796  0.1396
  895MOL0     C23382   0.617   8.778   3.591  0.0954 -0.1797  0.3946
  895MOL0     C23383   0.693   8.882   3.505  0.0684  0.1588  1.0491
  895MOL0     C23384   0.593   8.996   3.453  0.0147  0.1701 -0.7110
  895MOL0     C23385   0.625   9.060   3.315 -0.2689  0.0325  0.0777
  895MOL0     C23386   0.515   9.155   3.267 -0.0862 -0.6369  0.5359
  895MOL0     C23387   0.534   9.186   3.110 -0.0670  0.0427  0.3809
  895MOL0     C23388   0.678   9.225   3.077  0.3602  0.0635 -0.2710
  895MOL0     N23389   0.681   9.321   2.962 -0.3964 -0.2634  0.1775
  895MOL0     C23390   0.622   9.320   2.847  0.5544  0.9270 -0.3068
  895MOL0     C23391   0.635   9.450   2.796 -0.2189  0.0496 -0.0658
  895MOL0     C23392   0.594   9.490   2.658  0.0669 -0.1360 -0.6396
  895MOL0     C23393   0.701   9.575   2.594  0.1009  0.3634  0.1675
  895MOL0     C23394   0.678   9.610   2.447 -0.0741 -0.3577 -0.1347
  895MOL0     C23395   0.564   9.700   2.403  0.8891 -0.0426 -0.8888
  895MOL0     O23396   0.597   9.749   2.271  0.0003  0.1231 -0.7022
  895MOL0     C23397   0.514   9.721   2.166  0.1594 -0.0524 -0.6065
  895MOL0     C23398   0.571   9.627   2.081  0.8785  0.2581 -0.3374
  895MOL0     C23399   0.509   9.599   1.963 -0.2306  0.4720 -0.5272
  895MOL0     C23400   0.591   9.517   1.869 -0.1630  0.0364 -0.1512
  895MOL0     C23401   0.384   9.661   1.935  0.0290  0.3829 -0.3948
  895MOL0     C23402   0.294   9.639   1.821 -0.7932  0.0129  0.5866
  895MOL0     O23403   0.361   9.598   1.710  0.4132 -0.6973 -0.4231
  895MOL0     C23404   0.300   9.575   1.593  0.4747  0.2066 -0.0075
  895MOL0     C23405   0.179   9.628   1.544  0.6655 -0.0554 -0.5208
  895MOL0     C23406   0.114   9.591   1.425  0.7884  0.2994 -0.0408
  895MOL0     C23407   0.182   9.505   1.345 -0.6248 -0.2823 -0.1129
  895MOL0     O23408   0.112   9.464   1.240 -0.3111 -0.1161 -0.1053
  895MOL0     C23409   0.078   9.328   1.229 -0.2769  0.4003  0.5724
  895MOL0     C23410   0.030   9.318   1.076  0.4237  0.3287 -1.1252
  895MOL0     C23411  -0.039   9.178   1.053  0.3520 -1.0187  0.8070
  895MOL0     C23412  -0.151   9.192   0.950 -1.3671 -0.2038 -0.2911
  895MOL0     C23413  -0.200   9.052   0.912 -0.2470  0.3005 -0.4540
  895MOL0     C23414  -0.315   9.055   0.804 -0.2870  0.2037 -0.7371
  895MOL0     C23415  -0.357   8.920   0.759  0.4110  0.2116  0.7422
  895MOL0     C23416  -0.443   8.923   0.640  0.4532  0.5083  0.1412
  895MOL0    Cl23417  -0.486   8.763   0.602 -0.0799  0.2694  0.0290
  895MOL0     C23418   0.310   9.458   1.382 -0.7534 -0.5805 -0.6259
  895MOL0     C23419   0.370   9.494   1.502  0.6330  0.6619 -0.4228
  895MOL0     O23420   0.173   9.628   1.835 -0.5948 -0.2742  0.5440
  895MOL0     C23421   0.324   9.757   2.027  0.1823  0.6307 -0.5728
  895MOL0     C23422   0.390   9.782   2.144 -0.3253 -1.0721 -0.1515
  895MOL0     N23423   0.712   9.525   2.884  0.9356  0.2172 -1.3089
  895MOL0     N23424   0.743   9.448   2.982  0.7023 -0.3049 -0.5978
  895MOL0     C23425   0.801   8.403   3.420  0.0561  0.1310 -0.8126
  895MOL0     C23426   0.850   8.273   3.413 -0.7156 -0.1773  0.1033
  895MOL0     C23427   1.109   7.902   3.467  0.1628 -0.3048 -0.4306
  895MOL0     C23428   1.024   7.824   3.383 -0.1039 -0.3606 -0.5642
  895MOL0     C23429   1.051   7.692   3.350 -0.6663  0.0589  0.1222
  895MOL0     C23430   1.164   7.627   3.394  0.1503 -0.3784  0.8672
  895MOL0     O23431   1.167   7.493   3.357 -0.7318 -0.2500  0.1259
  895MOL0     C23432   1.281   7.412   3.394 -0.2404 -0.1333  0.1671
  895MOL0     C23433   1.246   7.327   3.510 -0.6257  0.1291 -0.0611
  895MOL0     C23434   1.364   7.243   3.571 -0.7758  0.0812 -0.4183
  895MOL0     C23435   1.433   7.155   3.465  0.1424 -0.0359  0.2330
  895MOL0     C23436   1.351   7.078   3.366  0.2367 -0.5420  0.0028
  895MOL0     C23437   1.282   7.024   3.281  0.1830 -1.3287  0.7566
  895MOL0     C23438   1.250   7.691   3.478  0.4555  1.5708  0.7001
  895MOL0     C23439   1.222   7.830   3.514  0.0819  0.7592 -0.0049
  895MOL0     C23440   1.326   7.901   3.602 -0.0991 -0.0281  0.2829
  895MOL0     H23441   0.943   8.206   3.738  0.7214  0.6771  0.0750
  895MOL0     H23442   0.828   8.466   3.747  1.5316  1.9483 -0.8377
  895MOL0     H23443   0.784   8.717   3.724  0.4322 -0.0485 -0.3761
  895MOL0     H23444   0.639   8.615   3.718 -1.9155 -1.4804 -3.2538
  895MOL0     H23445   0.541   8.728   3.531 -1.8042 -0.0973  2.5967
  895MOL0     H23446   0.562   8.832   3.668 -1.9351 -2.9905  1.0447
  895MOL0     H23447   0.771   8.933   3.562  2.0394 -1.7838  0.2141
  895MOL0     H23448   0.745   8.836   3.420  0.8583 -1.2082  2.2356
  895MOL0     H23449   0.494   8.950   3.447 -0.3725  1.0276 -0.9928
  895MOL0     H23450   0.582   9.079   3.524 -3.8184 -1.9038  1.4542
  895MOL0     H23451   0.631   8.970   3.253 -0.8425 -1.0642  1.5440
  895MOL0     H23452   0.723   9.108   3.325 -0.5185  0.6396 -0.4002
  895MOL0     H23453   0.414   9.115   3.278  0.6991 -2.5523  1.2887
  895MOL0     H23454   0.521   9.245   3.329  0.0784 -0.6191  0.4960
  895MOL0     H23455   0.461   9.265   3.087 -0.2371  0.1874  1.3757
  895MOL0     H23456   0.491   9.101   3.057  2.6293  0.7007 -3.3011
  895MOL0     H23457   0.708   9.290   3.160 -2.8445  0.8557  0.3909
  895MOL0     H23458   0.750   9.144   3.066  0.7486  0.1101  1.6255
  895MOL0     H23459   0.576   9.240   2.790 -0.9802  0.0396  2.0190
  895MOL0     H23460   0.498   9.540   2.678  0.5714  0.0501  1.5603
  895MOL0     H23461   0.589   9.395   2.605  2.0456 -1.0201  0.6651
  895MOL0     H23462   0.713   9.668   2.649  0.8751  0.6233 -0.4075
  895MOL0     H23463   0.793   9.515   2.596 -1.0593 -1.4673  1.1216
  895MOL0     H23464   0.768   9.668   2.423  0.9649 -2.0675 -0.5214
  895MOL0     H23465   0.683   9.516   2.391  0.8749 -0.0829 -0.5307
  895MOL0     H23466   0.466   9.650   2.397  0.3083  1.2283 -3.5405
  895MOL0     H23467   0.553   9.776   2.480  0.8216 -0.4963 -0.4463
  895MOL0     H23468   0.672   9.598   2.110  0.5449 -0.7128 -0.1092
  895MOL0     H23469   0.638   9.435   1.925 -2.6703 -0.3381  1.5898
  895MOL0     H23470   0.664   9.587   1.829 -1.6424  1.1316 -1.0533
  895MOL0     H23471   0.540   9.466   1.787  0.1433  1.5560 -1.3379
  895MOL0     H23472   0.139   9.709   1.605  2.3254 -1.6176  2.8627
  895MOL0     H23473   0.020   9.630   1.387  1.3779  0.7911 -1.0675
  895MOL0     H23474   0.156   9.258   1.259 -0.6606  1.0284  3.3924
  895MOL0     H23475  -0.006   9.296   1.292 -1.1875  0.9898 -0.3142
  895MOL0     H23476  -0.044   9.397   1.058 -0.3054 -0.8653 -3.9392
  895MOL0     H23477   0.110   9.336   1.003  0.7666  0.7871 -0.6442
  895MOL0     H23478  -0.084   9.145   1.147  1.0759  2.1295  2.3825
  895MOL0     H23479   0.043   9.111   1.026  2.3804  0.9938  1.7441
  895MOL0     H23480  -0.105   9.244   0.864 -1.5990  0.4254 -0.0424
  895MOL0     H23481  -0.232   9.260   0.980 -0.1196  0.7789  0.9727
  895MOL0     H23482  -0.118   8.999   0.864 -0.9505 -0.2632 -1.0707
  895MOL0     H23483  -0.236   9.004   1.004 -3.8294  0.4957 -1.5788
  895MOL0     H23484  -0.256   9.108   0.728  2.0370 -0.7873  0.2894
  895MOL0     H23485  -0.397   9.113   0.848 -0.7543 -2.0851  1.6201
  895MOL0     H23486  -0.416   8.875   0.839 -2.6160  4.7179  1.4107
  895MOL0     H23487  -0.268   8.872   0.716 -0.8335  0.6284 -2.5338
  895MOL0     H23488  -0.371   8.962   0.567 -0.7576 -0.8113 -1.8405
  895MOL0     H23489  -0.536   8.979   0.650  0.6705  1.3737 -2.1325
  895MOL0     H23490   0.360   9.395   1.309 -1.0688 -0.4620 -0.9400
  895MOL0     H23491   0.472   9.472   1.533  0.3130  0.1512  0.2892
  895MOL0     H23492   0.234   9.807   1.993 -1.8566 -1.3142  1.5737
  895MOL0     H23493   0.353   9.861   2.209  0.6041 -0.0965 -0.7640
  895MOL0     H23494   0.763   8.453   3.332 -0.0388 -1.2678 -1.5961
  895MOL0     H23495   0.861   8.224   3.316  0.7575  0.0545  0.1255
  895MOL0     H23496   0.941   7.863   3.324 -0.6149 -0.5090  0.0414
  895MOL0     H23497   0.989   7.654   3.269 -0.0940  3.9778 -2.4517
  895MOL0     H23498   1.302   7.353   3.305  1.0613  1.8925 -0.9550
  895MOL0     H23499   1.372   7.471   3.412  1.2246 -2.6641  1.7282
  895MOL0     H23500   1.172   7.255   3.474  1.3284 -1.5026 -0.9935
  895MOL0     H23501   1.210   7.392   3.591 -0.2536 -1.0802  1.1135
  895MOL0     H23502   1.442   7.310   3.607 -0.5423 -0.8987  0.9758
  895MOL0     H23503   1.337   7.180   3.657  1.4741 -0.4757 -0.0546
  895MOL0     H23504   1.516   7.094   3.503  0.7768  0.8240  0.2453
  895MOL0     H23505   1.484   7.218   3.392  1.3138  0.3630  1.3742
  895MOL0     H23506   1.222   6.956   3.225  0.8597 -1.5925  0.3409
  895MOL0     H23507   1.337   7.642   3.519  1.1790 -0.2434 -2.6579
  895MOL0     H23508   1.271   7.953   3.681  0.3670 -2.5002  2.3764
  895MOL0     H23509   1.393   7.833   3.656 -0.2713  0.5779  1.2758
  895MOL0     H23510   1.393   7.968   3.548 -0.6085  0.5793  0.3940
  896MOL0     O23511   9.933  10.362   5.679  0.0108  0.6529 -0.2389
  896MOL0     C23512   9.977  10.472   5.707  0.7109  0.5251  0.8825
  896MOL0     O23513   9.909  10.557   5.799  0.4641  0.9203 -0.3483
  896MOL0     C23514   9.802  10.512   5.871  0.0471  0.1228 -0.5214
  896MOL0     C23515   9.713  10.614   5.893 -0.3580  0.5748 -1.0402
  896MOL0     C23516   9.613  10.589   5.986  0.6255  0.3508  0.3603
  896MOL0     C23517   9.593  10.466   6.046 -0.6257  0.5303  0.0248
  896MOL0     O23518   9.481  10.427   6.121 -0.0930  0.5856  0.2896
  896MOL0     C23519   9.451  10.520   6.226 -0.1320 -0.4862 -0.0153
  896MOL0     C23520   9.391  10.456   6.352 -0.1963 -0.2971 -0.2135
  896MOL0     C23521   9.462  10.334   6.418 -0.7914 -0.3864 -1.2619
  896MOL0     C23522   9.585  10.385   6.486 -0.3054  0.4736 -0.0556
  896MOL0     C23523   9.680  10.264   6.516  0.3618  0.8072  0.7629
  896MOL0     C23524   9.625  10.153   6.609  0.6859  0.0139 -0.4457
  896MOL0     C23525   9.732  10.049   6.633  0.4746  0.8798 -0.4913
  896MOL0     C23526   9.680   9.944   6.733 -0.2579 -0.7225 -0.3124
  896MOL0     N23527   9.624  10.006   6.852  0.5619 -0.2714 -0.4392
  896MOL0     C23528   9.684  10.097   6.935 -0.1009  0.7160  0.1812
  896MOL0     C23529   9.591  10.133   7.025 -0.2253 -0.0357 -0.7400
  896MOL0     C23530   9.586  10.242   7.128 -0.4721 -0.4127 -0.5613
  896MOL0     C23531   9.723  10.298   7.160  0.3169  0.8365  0.4589
  896MOL0     C23532   9.712  10.383   7.290 -0.2749  0.7344 -0.1114
  896MOL0     C23533   9.848  10.421   7.350  0.0776 -0.5606  0.7541
  896MOL0     O23534   9.834  10.481   7.475  0.4127 -0.4204 -0.5786
  896MOL0     C23535   9.840  10.616   7.492 -0.0880 -0.4469 -0.1391
  896MOL0     C23536   9.804  10.706   7.387  0.4551 -0.3345 -0.5314
  896MOL0     C23537   9.804  10.845   7.408 -0.2705 -0.0559  0.4905
  896MOL0     C23538   9.752  10.931   7.301  0.3794 -0.8403  0.2798
  896MOL0     C23539   9.842  10.893   7.538  0.3617 -0.2859  0.4190
  896MOL0     C23540   9.866  11.045   7.562  0.2876  0.1482  0.2874
  896MOL0     O23541   9.908  11.125   7.450  0.3122  0.0229  0.6886
  896MOL0     C23542   9.913  11.264   7.464  0.0958  0.6791 -0.6635
  896MOL0     C23543   9.840  11.345   7.376  0.7675 -0.2917  0.2406
  896MOL0     C23544   9.853  11.483   7.389 -0.1472  0.6907  0.0833
  896MOL0     C23545   9.941  11.538   7.484  0.5194 -0.0100 -1.0590
  896MOL0     O23546   9.966  11.671   7.499 -0.3119 -0.2030 -0.1515
  896MOL0     C23547   9.954  11.755   7.388  0.7403  0.5422 -0.7601
  896MOL0     C23548  10.058  11.865   7.382  0.2182  0.1715  0.4577
  896MOL0     C23549  10.031  11.980   7.485 -0.0113 -0.7976 -1.2646
  896MOL0     C23550  10.120  12.104   7.461  0.4502  0.2079 -0.2086
  896MOL0     C23551  10.142  12.191   7.593 -0.1964  0.5647  0.3757
  896MOL0     C23552  10.233  12.318   7.577  0.3507  1.4374  0.4283
  896MOL0     C23553  10.212  12.419   7.683 -0.4999  0.7459  0.6908
  896MOL0     C23554  10.302  12.539   7.697  0.0525  0.2534  0.2550
  896MOL0    Cl23555  10.290  12.610   7.861  0.2750  0.4507  0.1418
  896MOL0     C23556  10.004  11.457   7.575  0.5677 -0.3078  0.5289
  896MOL0     C23557  10.004  11.322   7.556  0.3111 -0.8652 -0.3981
  896MOL0     O23558   9.847  11.085   7.673  0.9437  0.3800  0.7728
  896MOL0     C23559   9.869  10.801   7.646 -0.8304 -0.7979  0.6172
  896MOL0     C23560   9.873  10.669   7.621  0.6294  0.4050  0.3706
  896MOL0     N23561   9.482  10.055   6.998 -0.5208 -0.2228 -0.8639
  896MOL0     N23562   9.507   9.977   6.901 -0.1055 -1.1149 -0.6270
  896MOL0     C23563   9.681  10.364   6.025 -0.3468  0.3005  0.5743
  896MOL0     C23564   9.789  10.391   5.938  1.0251  0.0546 -0.7429
  896MOL0     C23565  10.092  10.534   5.630  0.1782  0.4213 -0.7212
  896MOL0     C23566  10.092  10.673   5.605  0.1943  1.2482 -0.1891
  896MOL0     C23567  10.185  10.730   5.526  0.2078 -0.1495  0.3250
  896MOL0     C23568  10.297  10.658   5.485 -0.0358 -0.0263  0.5073
  896MOL0     O23569  10.393  10.701   5.390  0.7212  0.4013 -0.1110
  896MOL0     C23570  10.365  10.824   5.333  0.3327  0.2384 -0.1383
  896MOL0     C23571  10.399  10.943   5.422  0.3027  0.4181  0.6314
  896MOL0     C23572  10.540  10.936   5.454  0.2399  0.4032  0.1627
  896MOL0     C23573  10.626  11.001   5.339 -0.1330  0.3327 -0.2314
  896MOL0     C23574  10.632  11.150   5.318 -0.7997  0.0034  0.9626
  896MOL0     C23575  10.632  11.270   5.299  0.1072  0.3341  1.4571
  896MOL0     C23576  10.303  10.526   5.514 -0.6340  0.3609  0.7116
  896MOL0     C23577  10.202  10.460   5.586 -0.7929 -0.4818 -0.8190
  896MOL0     C23578  10.210  10.309   5.599 -0.5150 -0.0165 -0.3685
  896MOL0     H23579   9.723  10.708   5.839  0.4715  1.7626  1.0476
  896MOL0     H23580   9.536  10.665   5.995  1.3737  1.1072  0.4888
  896MOL0     H23581   9.375  10.588   6.187 -0.8332 -0.2365  1.6901
  896MOL0     H23582   9.540  10.580   6.252 -0.4510 -0.2347  0.5180
  896MOL0     H23583   9.374  10.530   6.430  0.6679 -2.5484  2.2763
  896MOL0     H23584   9.290  10.437   6.314  0.0992  1.8419 -2.2813
  896MOL0     H23585   9.394  10.286   6.489 -0.0058 -0.3439 -0.4675
  896MOL0     H23586   9.501  10.272   6.336 -1.2008 -1.0546 -0.9539
  896MOL0     H23587   9.634  10.456   6.418  0.3947  3.4490  3.2605
  896MOL0     H23588   9.562  10.434   6.580 -1.8512 -1.0296  0.3932
  896MOL0     H23589   9.781  10.288   6.551  0.5404 -0.9789  1.5498
  896MOL0     H23590   9.690  10.221   6.416  0.1782  4.4758 -1.0315
  896MOL0     H23591   9.591  10.203   6.700 -1.3177  2.1915 -2.2805
  896MOL0     H23592   9.531  10.112   6.571 -2.4611  4.6673  1.4173
  896MOL0     H23593   9.823  10.084   6.683  1.5568 -1.9303 -0.3316
  896MOL0     H23594   9.750   9.989   6.543 -2.8180  1.7101 -1.8307
  896MOL0     H23595   9.608   9.881   6.681  1.1264 -4.7537  2.2093
  896MOL0     H23596   9.764   9.875   6.746 -0.8582 -1.0485  2.2511
  896MOL0     H23597   9.787  10.128   6.919  0.5594 -0.5550  1.6833
  896MOL0     H23598   9.543  10.200   7.220  3.3663 -1.5517  0.9319
  896MOL0     H23599   9.535  10.328   7.086 -0.3992  1.3253  2.5844
  896MOL0     H23600   9.790  10.212   7.176 -2.1740 -1.3573 -0.2091
  896MOL0     H23601   9.765  10.365   7.084  2.2395 -1.8918 -1.0682
  896MOL0     H23602   9.660  10.477   7.267  1.0256  1.3374 -0.7028
  896MOL0     H23603   9.651  10.327   7.361 -0.5654  2.7277  1.3114
  896MOL0     H23604   9.914  10.335   7.357 -0.1484 -0.8461 -0.3731
  896MOL0     H23605   9.893  10.492   7.280 -0.0735 -0.5975  0.6167
  896MOL0     H23606   9.768  10.669   7.291 -3.2882  2.3225 -0.3644
  896MOL0     H23607   9.693  10.870   7.231 -0.1981 -0.0414  0.0585
  896MOL0     H23608   9.828  10.976   7.238 -2.0724 -0.7990 -2.8751
  896MOL0     H23609   9.689  11.013   7.338  1.4504  0.6126 -0.9968
  896MOL0     H23610   9.758  11.317   7.310  1.5486  1.5907 -1.6763
  896MOL0     H23611   9.810  11.548   7.313 -1.0784 -0.6062 -0.5281
  896MOL0     H23612   9.987  11.695   7.302  2.0266 -0.5797  0.4688
  896MOL0     H23613   9.853  11.794   7.369 -0.2104 -1.4175 -0.0299
  896MOL0     H23614  10.154  11.813   7.392  0.7771  1.2806  1.0450
  896MOL0     H23615  10.072  11.895   7.278 -0.5857 -0.3367  0.1901
  896MOL0     H23616  10.047  11.943   7.587 -0.8874  0.0082 -0.8091
  896MOL0     H23617   9.926  12.013   7.486  0.4122  0.6216 -0.9671
  896MOL0     H23618  10.070  12.166   7.387  0.0009  0.8665  0.6251
  896MOL0     H23619  10.218  12.069   7.428 -0.2583 -1.3471 -0.7883
  896MOL0     H23620  10.040  12.214   7.625 -1.2266 -2.4864 -0.4653
  896MOL0     H23621  10.186  12.138   7.677  2.1671  2.1081  0.2176
  896MOL0     H23622  10.207  12.362   7.481 -0.2550  0.0284 -0.0732
  896MOL0     H23623  10.336  12.279   7.583 -1.0288 -2.7590  0.4560
  896MOL0     H23624  10.227  12.364   7.777  2.6738 -0.5584 -0.4320
  896MOL0     H23625  10.108  12.450   7.682 -1.2130 -1.4555 -0.9453
  896MOL0     H23626  10.283  12.623   7.629 -0.2671 -1.1388 -1.4434
  896MOL0     H23627  10.409  12.524   7.686  0.3569  1.3679  1.4870
  896MOL0     H23628  10.062  11.501   7.656  0.0856  0.0982  0.6551
  896MOL0     H23629  10.068  11.252   7.609  3.3622  1.8023 -0.3321
  896MOL0     H23630   9.864  10.837   7.748 -1.8847  2.0913 -0.3612
  896MOL0     H23631   9.888  10.592   7.695  0.0524 -0.4623 -0.4005
  896MOL0     H23632   9.663  10.270   6.077 -1.7451 -0.1878 -0.7240
  896MOL0     H23633   9.867  10.319   5.912 -0.7106 -2.5803  0.8505
  896MOL0     H23634  10.002  10.731   5.627  0.0407  1.5640 -1.5363
  896MOL0     H23635  10.168  10.836   5.509  0.0132 -0.2014  0.1848
  896MOL0     H23636  10.426  10.813   5.243 -0.8068 -0.2010 -0.8768
  896MOL0     H23637  10.257  10.830   5.316  0.1607 -3.2898 -0.9348
  896MOL0     H23638  10.343  10.919   5.513  1.6264 -1.1000  1.1076
  896MOL0     H23639  10.377  11.045   5.389  1.8422  1.0454  1.4418
  896MOL0     H23640  10.562  10.972   5.555  1.4468 -2.5553  1.0541
  896MOL0     H23641  10.566  10.831   5.469 -1.5853  0.0522  1.1367
  896MOL0     H23642  10.600  10.961   5.240  0.1532 -0.9672  0.2002
  896MOL0     H23643  10.733  10.976   5.344 -0.2943 -0.3741 -0.2610
  896MOL0     H23644  10.635  11.375   5.277  3.0705  0.4709  1.9951
  896MOL0     H23645  10.387  10.467   5.480 -0.2143  1.5346 -0.4022
  896MOL0     H23646  10.125  10.259   5.552 -0.2868  0.8312 -1.7236
  896MOL0     H23647  10.299  10.266   5.552 -0.7078 -1.3046  0.3828
  896MOL0     H23648  10.214  10.276   5.704  2.2669  0.4439 -0.2383
  897MOL0     O23649   0.685   5.899   8.718  0.2982  0.0447 -0.2888
  897MOL0     C23650   0.691   5.927   8.838  0.3330  0.2571 -0.4632
  897MOL0     O23651   0.734   5.845   8.936  0.5062  0.4877  0.1349
  897MOL0     C23652   0.792   5.728   8.894  0.0936  0.7238  0.2421
  897MOL0     C23653   0.908   5.719   8.823 -0.8352  0.0702  0.5334
  897MOL0     C23654   0.962   5.601   8.785 -0.6318 -0.0783  0.4070
  897MOL0     C23655   0.908   5.482   8.838  0.9219  1.1007  0.8577
  897MOL0     O23656   0.963   5.357   8.806  0.0102  0.0386 -0.0713
  897MOL0     C23657   1.011   5.338   8.673 -0.1252 -1.1248 -0.6305
  897MOL0     C23658   1.059   5.195   8.660 -0.1916  0.2007 -1.2016
  897MOL0     C23659   1.166   5.156   8.768  0.1823  1.0600 -0.0114
  897MOL0     C23660   1.219   5.023   8.720 -1.2477  0.2907 -0.5117
  897MOL0     C23661   1.324   4.980   8.834 -0.1390 -0.0156 -1.1695
  897MOL0     C23662   1.390   4.851   8.792 -0.7684  0.0515  1.0093
  897MOL0     C23663   1.462   4.791   8.911  0.1756  0.1855  0.2285
  897MOL0     C23664   1.521   4.658   8.872 -0.2467 -0.0586  0.4478
  897MOL0     N23665   1.564   4.572   8.987  0.2654 -0.0962  0.1666
  897MOL0     C23666   1.640   4.616   9.092 -0.3742 -0.0486 -0.3524
  897MOL0     C23667   1.661   4.496   9.161 -0.7908 -0.1489 -0.0566
  897MOL0     C23668   1.749   4.499   9.281 -0.4657  0.0581 -0.6602
  897MOL0     C23669   1.794   4.361   9.340  0.5533  0.3717 -0.5066
  897MOL0     C23670   1.879   4.281   9.238  0.4369  0.1235 -0.2483
  897MOL0     C23671   1.949   4.156   9.284 -0.6443 -0.3805 -0.0564
  897MOL0     O23672   1.857   4.080   9.372 -0.4527 -0.4502  0.2033
  897MOL0     C23673   1.907   4.015   9.477  0.5874 -0.1485  0.8703
  897MOL0     C23674   1.824   3.982   9.580 -0.0737 -0.2590  0.3357
  897MOL0     C23675   1.853   3.884   9.677 -0.1132 -0.4184  0.7690
  897MOL0     C23676   1.750   3.870   9.783 -0.1470  0.6833  0.6747
  897MOL0     C23677   1.976   3.820   9.671  0.2189  0.3576 -0.3331
  897MOL0     C23678   2.025   3.720   9.769 -0.3575 -0.5731  0.4474
  897MOL0     O23679   2.149   3.662   9.735  0.1750 -0.5001 -0.0667
  897MOL0     C23680   2.152   3.522   9.744  0.0909 -0.4899 -0.0589
  897MOL0     C23681   2.230   3.462   9.841  0.3469 -1.2249 -0.2253
  897MOL0     C23682   2.236   3.324   9.845  0.0849  0.1436 -0.3719
  897MOL0     C23683   2.160   3.246   9.763  1.0416  0.0826  0.3974
  897MOL0     O23684   2.168   3.113   9.747  0.3869 -0.1471 -0.3119
  897MOL0     C23685   2.245   3.042   9.838  0.6367  0.7606 -0.1315
  897MOL0     C23686   2.219   2.891   9.799  0.5158  0.0377  0.1832
  897MOL0     C23687   2.320   2.800   9.876  0.3639 -0.1032 -0.6042
  897MOL0     C23688   2.303   2.662   9.804  0.2975  0.1390 -0.1671
  897MOL0     C23689   2.369   2.546   9.876 -0.4560 -0.4630  0.7457
  897MOL0     C23690   2.266   2.467   9.962 -0.4586 -0.1385 -0.1383
  897MOL0     C23691   2.319   2.326  10.007  0.1712  0.8644 -0.1412
  897MOL0     C23692   2.246   2.280  10.134 -0.6131  0.9484  0.6951
  897MOL0    Cl23693   2.312   2.359  10.282  0.3892  0.4030 -0.2965
  897MOL0     C23694   2.079   3.313   9.669  0.1303 -0.6815  0.3826
  897MOL0     C23695   2.072   3.451   9.661 -0.2714 -0.4994 -0.3439
  897MOL0     O23696   1.955   3.710   9.866  0.3327  0.0898  0.7638
  897MOL0     C23697   2.061   3.858   9.570 -0.2888 -0.3293  0.6040
  897MOL0     C23698   2.035   3.963   9.475 -1.0756 -0.3969  0.0186
  897MOL0     N23699   1.576   4.392   9.111  0.1969  0.0380  0.2903
  897MOL0     N23700   1.518   4.451   9.009  0.1377  0.0084 -0.3488
  897MOL0     C23701   0.801   5.489   8.920  0.3375 -0.1282  0.0474
  897MOL0     C23702   0.732   5.609   8.941 -0.0650 -0.1896 -0.8496
  897MOL0     C23703   0.650   6.062   8.881 -0.9044  0.8772  0.4689
  897MOL0     C23704   0.694   6.125   9.000  0.1455 -0.1476 -0.5975
  897MOL0     C23705   0.675   6.262   9.028  0.2696  0.3191 -0.4219
  897MOL0     C23706   0.605   6.336   8.938  0.8004 -0.5615  0.5337
  897MOL0     O23707   0.585   6.469   8.973 -0.0923  0.1239 -0.6374
  897MOL0     C23708   0.514   6.564   8.882 -0.0422 -0.4641  0.1222
  897MOL0     C23709   0.484   6.687   8.954 -0.7211 -0.0265  0.1787
  897MOL0     C23710   0.358   6.766   8.906  0.0585 -0.6817 -0.0961
  897MOL0     C23711   0.353   6.904   8.977  1.6875 -0.3655 -0.3900
  897MOL0     C23712   0.227   6.972   8.942 -0.2712 -0.5683  0.2347
  897MOL0     C23713   0.127   7.015   8.916  0.0887 -1.1228  0.1183
  897MOL0     C23714   0.562   6.277   8.813 -0.4989 -0.7900  0.5190
  897MOL0     C23715   0.577   6.144   8.781  0.1406  0.3090 -0.0936
  897MOL0     C23716   0.525   6.098   8.643 -0.4691  0.2658  0.1101
  897MOL0     H23717   0.944   5.812   8.779 -2.6833  1.0899  1.0807
  897MOL0     H23718   1.050   5.590   8.724 -0.8058 -0.5994  0.2419
  897MOL0     H23719   1.092   5.410   8.655 -0.9990  0.8180  2.4597
  897MOL0     H23720   0.940   5.346   8.591  1.9819 -2.6266 -2.7356
  897MOL0     H23721   0.966   5.138   8.672  0.6622 -1.1055 -0.5763
  897MOL0     H23722   1.096   5.177   8.559  0.0585  0.2150 -1.1127
  897MOL0     H23723   1.241   5.233   8.749  0.1997  1.1731  0.4816
  897MOL0     H23724   1.133   5.158   8.873 -0.0740  0.4351 -0.0769
  897MOL0     H23725   1.146   4.944   8.701  0.2559 -1.9095  2.1477
  897MOL0     H23726   1.285   5.039   8.634  1.3750 -2.0261  0.8881
  897MOL0     H23727   1.267   4.964   8.926  2.2087  1.7432  0.7215
  897MOL0     H23728   1.392   5.062   8.858 -1.6335  0.9469  0.0025
  897MOL0     H23729   1.324   4.776   8.748 -2.2497  0.4514  2.4394
  897MOL0     H23730   1.462   4.884   8.716  2.6422  0.0326  3.9203
  897MOL0     H23731   1.393   4.755   8.988  0.5810 -3.6425 -1.0222
  897MOL0     H23732   1.534   4.862   8.953  0.6588  1.3197 -2.3155
  897MOL0     H23733   1.462   4.602   8.799 -0.6959  0.6241  0.2825
  897MOL0     H23734   1.613   4.668   8.813 -1.6182 -3.1294 -2.5417
  897MOL0     H23735   1.696   4.709   9.091 -0.5161  0.1057  1.7008
  897MOL0     H23736   1.689   4.563   9.347 -1.4206 -0.4866 -0.9826
  897MOL0     H23737   1.841   4.556   9.266 -1.1019  1.6548  1.0180
  897MOL0     H23738   1.848   4.375   9.434 -1.6628 -2.3438  1.3283
  897MOL0     H23739   1.700   4.307   9.355 -1.1802  1.6168 -5.1362
  897MOL0     H23740   1.805   4.258   9.161  0.1042 -2.0257  0.6414
  897MOL0     H23741   1.952   4.352   9.197 -0.3335  1.6447  0.9529
  897MOL0     H23742   1.986   4.101   9.196  0.5990  2.8443 -1.7263
  897MOL0     H23743   2.030   4.184   9.352 -1.4025 -1.4657  1.3509
  897MOL0     H23744   1.731   4.034   9.597  0.4992 -0.4689  6.5100
  897MOL0     H23745   1.678   3.952   9.778  0.2398  0.9584 -1.5161
  897MOL0     H23746   1.799   3.876   9.881  1.5772  0.4476 -0.1392
  897MOL0     H23747   1.696   3.775   9.778  0.1345  0.5194  0.6960
  897MOL0     H23748   2.299   3.511   9.909 -1.7085  0.9888  0.3989
  897MOL0     H23749   2.313   3.277   9.905  0.8977  0.1551 -1.3897
  897MOL0     H23750   2.350   3.073   9.831  1.4956 -2.1820 -4.0670
  897MOL0     H23751   2.211   3.062   9.940 -0.8163 -3.2997  0.3582
  897MOL0     H23752   2.117   2.869   9.832  0.4217 -0.5863 -0.4890
  897MOL0     H23753   2.224   2.884   9.690  1.5679 -0.8629  0.2612
  897MOL0     H23754   2.300   2.791   9.983 -1.2248 -0.2787 -0.8958
  897MOL0     H23755   2.421   2.842   9.865  0.3542 -0.6997 -4.3834
  897MOL0     H23756   2.349   2.675   9.706 -2.8156  2.0434 -1.5156
  897MOL0     H23757   2.197   2.640   9.788  0.4333 -1.5015  0.8917
  897MOL0     H23758   2.408   2.476   9.802  0.3334 -1.5402  2.1280
  897MOL0     H23759   2.449   2.588   9.938 -0.8801  0.4120  0.7139
  897MOL0     H23760   2.169   2.462   9.911  0.4349  3.9419 -2.7098
  897MOL0     H23761   2.256   2.521  10.056 -1.9547 -0.6397  0.0193
  897MOL0     H23762   2.427   2.305  10.006 -0.1013 -1.0076  1.9407
  897MOL0     H23763   2.275   2.251   9.940 -1.2455  0.1063  1.5480
  897MOL0     H23764   2.269   2.174  10.152  5.5567  1.6289 -0.8451
  897MOL0     H23765   2.139   2.276  10.111 -0.4547 -4.4693 -0.5133
  897MOL0     H23766   2.025   3.259   9.591  0.4183 -1.2634  0.5826
  897MOL0     H23767   1.999   3.498   9.595 -1.4158 -1.1149  0.4531
  897MOL0     H23768   2.158   3.812   9.562  0.6210  1.7908 -2.4344
  897MOL0     H23769   2.104   3.983   9.394  2.0354  0.5759  2.6620
  897MOL0     H23770   0.765   5.392   8.953 -0.2048  0.2701  0.6678
  897MOL0     H23771   0.638   5.611   8.995  1.2038  0.1974  1.5052
  897MOL0     H23772   0.756   6.076   9.075 -1.2351 -1.5901 -0.3608
  897MOL0     H23773   0.712   6.310   9.118 -2.2327  1.4210  0.0986
  897MOL0     H23774   0.583   6.586   8.801  0.1768 -1.4906  0.0124
  897MOL0     H23775   0.431   6.510   8.836  0.5050  0.8387 -2.5492
  897MOL0     H23776   0.576   6.745   8.941 -0.3471 -0.8434 -1.0466
  897MOL0     H23777   0.467   6.666   9.060  1.2517  1.8949  0.9619
  897MOL0     H23778   0.357   6.783   8.798  0.4513 -1.7444 -0.2767
  897MOL0     H23779   0.270   6.715   8.944  0.5782  1.4824  4.7811
  897MOL0     H23780   0.437   6.971   8.956  1.1257 -0.0358 -1.6481
  897MOL0     H23781   0.357   6.885   9.085 -1.8538  3.5435  0.6843
  897MOL0     H23782   0.034   7.041   8.869 -2.4140 -3.5074  3.2824
  897MOL0     H23783   0.497   6.333   8.746  1.3959 -3.2178 -3.7583
  897MOL0     H23784   0.600   6.092   8.564  2.6369  0.2731  2.7944
  897MOL0     H23785   0.467   6.007   8.664  0.4336  0.1243  2.3391
  897MOL0     H23786   0.447   6.163   8.604 -1.2656 -0.8025 -0.1394
  898MOL0     O23787   7.395   9.193  11.277  0.7998 -0.0601  0.0591
  898MOL0     C23788   7.287   9.179  11.333 -0.3083 -0.3394  0.2629
  898MOL0     O23789   7.223   9.051  11.356  0.1827  0.9481 -0.1210
  898MOL0     C23790   7.316   8.950  11.340 -0.3259  0.6774  0.0826
  898MOL0     C23791   7.350   8.890  11.456 -0.0110  1.1672 -0.4173
  898MOL0     C23792   7.450   8.794  11.451  0.2466  0.6509 -0.6647
  898MOL0     C23793   7.521   8.764  11.336  0.5637  0.9308  0.4155
  898MOL0     O23794   7.617   8.668  11.322  0.2057 -0.4840  0.6709
  898MOL0     C23795   7.744   8.727  11.371  0.2611  0.2171  0.3752
  898MOL0     C23796   7.858   8.637  11.322  0.4168  0.3937  0.0186
  898MOL0     C23797   7.990   8.716  11.326  0.7642 -0.1843 -0.2427
  898MOL0     C23798   8.096   8.623  11.248  0.1899 -0.4373  0.3426
  898MOL0     C23799   8.242   8.678  11.267 -0.0679  0.5812 -0.3463
  898MOL0     C23800   8.352   8.587  11.211  0.0892  0.3905 -0.4462
  898MOL0     C23801   8.499   8.642  11.234 -0.4478  1.1100  0.4443
  898MOL0     C23802   8.589   8.536  11.182  0.3803 -0.5097 -0.3657
  898MOL0     N23803   8.643   8.453  11.278 -0.4138  0.9132 -0.1845
  898MOL0     C23804   8.766   8.470  11.344 -0.7838  0.2956  0.3297
  898MOL0     C23805   8.800   8.341  11.378  0.9195 -0.2720 -0.5523
  898MOL0     C23806   8.924   8.288  11.439 -0.0827  0.1016 -0.0872
  898MOL0     C23807   9.019   8.225  11.334 -0.2549 -0.3036 -0.5146
  898MOL0     C23808   9.104   8.330  11.253 -0.5672  0.2268 -0.1700
  898MOL0     C23809   9.216   8.262  11.177 -0.0553  0.6524  0.4781
  898MOL0     O23810   9.167   8.143  11.112 -0.1353  0.0312 -0.1190
  898MOL0     C23811   9.250   8.072  11.024  0.9886 -0.2265 -0.1856
  898MOL0     C23812   9.194   7.996  10.928 -0.1816  0.6260  0.1806
  898MOL0     C23813   9.278   7.920  10.840  0.4044  0.0302  0.4313
  898MOL0     C23814   9.212   7.826  10.733 -0.2409  0.5766 -0.4849
  898MOL0     C23815   9.417   7.923  10.852  0.0698 -0.6703  0.1840
  898MOL0     C23816   9.514   7.849  10.771 -0.1890  0.7292  0.1022
  898MOL0     O23817   9.628   7.810  10.842  0.0426 -0.2140 -0.2103
  898MOL0     C23818   9.702   7.707  10.776  0.1139 -0.3567 -0.0840
  898MOL0     C23819   9.801   7.743  10.684 -1.0046  0.2261  0.7412
  898MOL0     C23820   9.871   7.641  10.614 -0.7610  0.0453 -0.3257
  898MOL0     C23821   9.842   7.507  10.638 -0.6618  0.2623 -0.6117
  898MOL0     O23822   9.911   7.419  10.566 -0.1730 -0.2083  0.1776
  898MOL0     C23823   9.895   7.278  10.575 -0.0714  0.0909  0.9776
  898MOL0     C23824  10.021   7.201  10.537 -0.8953  0.5506 -0.4376
  898MOL0     C23825  10.081   7.228  10.402 -0.0344 -0.1831 -0.5458
  898MOL0     C23826  10.016   7.152  10.274 -0.3999 -0.5531  0.6073
  898MOL0     C23827  10.018   7.230  10.134  0.4968  0.2338  0.0754
  898MOL0     C23828   9.881   7.284  10.096 -0.6044  0.6778 -0.2037
  898MOL0     C23829   9.843   7.401  10.193  0.8040 -0.4437 -0.1646
  898MOL0     C23830   9.930   7.523  10.167 -0.1162 -0.0900  0.3511
  898MOL0    Cl23831   9.842   7.644  10.250  0.0324  0.0610 -0.0862
  898MOL0     C23832   9.735   7.474  10.724  0.3494  0.1273  0.1424
  898MOL0     C23833   9.668   7.578  10.791 -0.0556 -0.3686 -0.3722
  898MOL0     O23834   9.494   7.830  10.653  0.4496 -0.2863 -0.7519
  898MOL0     C23835   9.469   7.996  10.955  0.7092  0.8394 -0.1239
  898MOL0     C23836   9.386   8.080  11.043 -0.5289 -0.1885  0.7274
  898MOL0     N23837   8.693   8.261  11.332  0.0174  0.9699 -0.5372
  898MOL0     N23838   8.603   8.324  11.284 -0.0713 -0.8569  0.3839
  898MOL0     C23839   7.498   8.843  11.220  0.4416 -0.1417  0.4346
  898MOL0     C23840   7.392   8.931  11.222  0.7237  0.4273  0.1025
  898MOL0     C23841   7.221   9.311  11.368  0.7022 -0.9169 -0.5164
  898MOL0     C23842   7.090   9.304  11.423 -0.3382 -0.2024 -0.0870
  898MOL0     C23843   7.005   9.417  11.445  0.4941  0.4493  0.0680
  898MOL0     C23844   7.049   9.544  11.416 -0.4401  0.1369  0.6304
  898MOL0     O23845   6.970   9.651  11.417 -0.1813 -0.0097 -0.7975
  898MOL0     C23846   6.825   9.633  11.420  0.1828  0.7642 -1.0013
  898MOL0     C23847   6.772   9.768  11.358  0.3293 -0.5030 -0.1000
  898MOL0     C23848   6.842   9.806  11.224  0.7739  0.5900 -0.1252
  898MOL0     C23849   6.798   9.952  11.190 -0.6204 -0.3567 -0.0109
  898MOL0     C23850   6.879  10.045  11.275  1.0230 -0.7527 -1.0762
  898MOL0     C23851   6.950  10.125  11.344 -0.2276  1.1988  0.5704
  898MOL0     C23852   7.177   9.556  11.373 -0.5490 -0.3621 -0.0491
  898MOL0     C23853   7.264   9.448  11.349 -0.8815 -0.2435  0.3707
  898MOL0     C23854   7.398   9.485  11.278 -0.2717 -0.3141  0.0801
  898MOL0     H23855   7.296   8.903  11.549 -0.0995 -1.1165 -0.0703
  898MOL0     H23856   7.482   8.738  11.538  1.0122  1.9945 -0.0478
  898MOL0     H23857   7.757   8.755  11.476 -0.2505  0.0605  0.4817
  898MOL0     H23858   7.760   8.824  11.323  1.8699 -0.3615 -0.3355
  898MOL0     H23859   7.864   8.545  11.380  0.3265 -1.3091 -2.5208
  898MOL0     H23860   7.840   8.603  11.220  1.7111 -0.1774 -0.0310
  898MOL0     H23861   7.977   8.814  11.279  2.0392  0.1771  0.1169
  898MOL0     H23862   8.029   8.717  11.428  2.0653 -3.1883 -0.5877
  898MOL0     H23863   8.100   8.525  11.295  0.8827 -1.0970 -1.0094
  898MOL0     H23864   8.070   8.607  11.143  0.7943 -0.7367  0.2351
  898MOL0     H23865   8.261   8.694  11.373 -1.3788 -1.0913  0.1946
  898MOL0     H23866   8.245   8.769  11.207 -1.4732 -2.2319 -5.2983
  898MOL0     H23867   8.338   8.486  11.251 -1.9755  0.1895 -1.5531
  898MOL0     H23868   8.336   8.569  11.105  1.2042  1.4744 -0.8239
  898MOL0     H23869   8.519   8.662  11.339  3.8565 -1.3205  0.3275
  898MOL0     H23870   8.511   8.734  11.175 -0.9003  1.9210  1.5901
  898MOL0     H23871   8.528   8.472  11.118  1.2917 -3.5178  1.5601
  898MOL0     H23872   8.667   8.578  11.119  2.6223 -1.7793  1.4027
  898MOL0     H23873   8.826   8.560  11.349  1.3617 -0.9186 -1.7118
  898MOL0     H23874   8.898   8.218  11.519 -0.4428 -1.1537 -1.2486
  898MOL0     H23875   8.965   8.371  11.496  0.6984 -1.5884  1.9317
  898MOL0     H23876   9.083   8.155  11.389  0.0277 -2.6115 -3.5284
  898MOL0     H23877   8.974   8.160  11.258 -1.6601  2.3224 -2.0742
  898MOL0     H23878   9.033   8.382  11.189 -2.3966 -2.1661 -0.2464
  898MOL0     H23879   9.152   8.404  11.317 -0.7694 -0.5791  0.9466
  898MOL0     H23880   9.252   8.337  11.107 -0.6439  0.8368  0.3654
  898MOL0     H23881   9.285   8.234  11.258 -2.3108  0.8626  2.6123
  898MOL0     H23882   9.086   8.002  10.921 -0.5712 -2.4340  1.8669
  898MOL0     H23883   9.250   7.850  10.634 -0.6547  0.5082 -0.6648
  898MOL0     H23884   9.103   7.834  10.744 -0.1452 -0.9864  2.9594
  898MOL0     H23885   9.245   7.723  10.748  0.2270  0.0756 -4.1187
  898MOL0     H23886   9.822   7.849  10.673  2.0724 -0.1321  2.0059
  898MOL0     H23887   9.957   7.663  10.552 -0.1940 -0.6860  0.1893
  898MOL0     H23888   9.877   7.254  10.680 -2.7170 -0.3427  0.4925
  898MOL0     H23889   9.806   7.239  10.524 -0.6390 -1.4915  3.0384
  898MOL0     H23890  10.110   7.216  10.599  0.3984 -2.5345 -1.3317
  898MOL0     H23891   9.999   7.094  10.545  1.2615  0.0120 -0.8911
  898MOL0     H23892  10.184   7.195  10.416 -0.6876 -0.9442  3.9609
  898MOL0     H23893  10.066   7.334  10.378 -3.6320 -0.4115  0.0948
  898MOL0     H23894   9.911   7.137  10.304 -0.1922 -1.2229  1.0343
  898MOL0     H23895  10.068   7.057  10.259  1.7243  0.3677  1.6706
  898MOL0     H23896  10.092   7.310  10.143 -2.4228  3.4580 -2.1078
  898MOL0     H23897  10.043   7.167  10.048  0.7330  1.2744 -0.6377
  898MOL0     H23898   9.805   7.208  10.116  1.5505 -1.5487  0.0848
  898MOL0     H23899   9.882   7.327   9.995  0.9329 -0.3118 -0.6463
  898MOL0     H23900   9.838   7.380  10.300 -0.3485  1.2674  0.1591
  898MOL0     H23901   9.739   7.426  10.170  1.1994  0.1574 -1.4173
  898MOL0     H23902   9.938   7.550  10.061 -1.7189  2.7946  0.8560
  898MOL0     H23903  10.030   7.509  10.210  0.3420  0.0546 -0.6475
  898MOL0     H23904   9.723   7.371  10.758  5.0913  0.2021  2.9857
  898MOL0     H23905   9.593   7.558  10.868  1.7074  1.9735  2.1409
  898MOL0     H23906   9.573   8.002  10.989 -0.3889  0.3302  3.8959
  898MOL0     H23907   9.434   8.152  11.108 -1.2837 -0.1485  1.2565
  898MOL0     H23908   7.547   8.809  11.129 -4.0074 -0.8115 -2.0341
  898MOL0     H23909   7.360   8.977  11.130  0.6222  0.4788  0.1635
  898MOL0     H23910   7.044   9.206  11.431  1.3062 -0.9840  0.2215
  898MOL0     H23911   6.906   9.390  11.478  0.6409  1.4222  1.4163
  898MOL0     H23912   6.796   9.542  11.368 -0.0992 -0.2212  0.8191
  898MOL0     H23913   6.791   9.614  11.522  0.3985  5.0743  0.0686
  898MOL0     H23914   6.769   9.854  11.427 -1.4103  0.1843 -0.9697
  898MOL0     H23915   6.664   9.752  11.346  0.5637 -0.9773 -1.8151
  898MOL0     H23916   6.951   9.809  11.230  0.7020  1.1578  1.4814
  898MOL0     H23917   6.816   9.733  11.147  0.6963  0.3599  0.1180
  898MOL0     H23918   6.693   9.959  11.218 -0.3911  0.4801  0.7061
  898MOL0     H23919   6.812   9.981  11.086 -1.9450 -2.3971 -0.8157
  898MOL0     H23920   7.008  10.186  11.411  4.3952 -2.7355  0.6894
  898MOL0     H23921   7.227   9.649  11.348  0.9276 -0.8623  0.8794
  898MOL0     H23922   7.477   9.413  11.304 -0.7475 -0.8580  0.0254
  898MOL0     H23923   7.387   9.480  11.170  0.9000 -3.5528 -0.0034
  898MOL0     H23924   7.443   9.576  11.319  0.6870 -0.9336  0.4363
  899MOL0     O23925   5.730  11.515   3.092 -0.5421 -0.2509 -0.5923
  899MOL0     C23926   5.780  11.558   2.989 -0.7346 -0.5211 -0.6916
  899MOL0     O23927   5.724  11.635   2.890  0.0388  0.7949  0.2320
  899MOL0     C23928   5.621  11.712   2.906  0.3996  0.0537  0.6338
  899MOL0     C23929   5.511  11.717   3.003 -0.8908  0.5848 -0.3263
  899MOL0     C23930   5.410  11.816   3.008  0.0935  0.2274 -0.4052
  899MOL0     C23931   5.393  11.894   2.895  0.0498  0.1766 -0.2039
  899MOL0     O23932   5.283  11.975   2.885  0.2649 -0.1278 -0.5528
  899MOL0     C23933   5.314  12.112   2.888 -0.2344 -0.1521 -0.5318
  899MOL0     C23934   5.241  12.184   2.785  0.8448 -0.0224 -0.6063
  899MOL0     C23935   5.229  12.331   2.808 -0.7815  0.2875 -0.7509
  899MOL0     C23936   5.163  12.404   2.692  0.2482 -0.5591 -0.2286
  899MOL0     C23937   5.007  12.388   2.687 -0.8423  0.3326 -0.3890
  899MOL0     C23938   4.927  12.464   2.592  0.0973 -0.4176 -0.8356
  899MOL0     C23939   4.931  12.610   2.623  0.0219  0.4662 -0.4294
  899MOL0     C23940   4.829  12.687   2.540  0.7388  0.1697 -0.6441
  899MOL0     N23941   4.815  12.828   2.568  0.4745  1.3110  0.1439
  899MOL0     C23942   4.811  12.922   2.477 -0.0776 -0.0859  0.3192
  899MOL0     C23943   4.785  13.044   2.537  0.3303 -0.3838 -0.2991
  899MOL0     C23944   4.792  13.180   2.478 -1.2314 -0.0042 -0.2955
  899MOL0     C23945   4.662  13.218   2.405  0.4848 -0.1600 -0.1831
  899MOL0     C23946   4.534  13.264   2.474  1.7903 -0.0084  0.3316
  899MOL0     C23947   4.551  13.375   2.563  0.9825  0.1518  0.0522
  899MOL0     O23948   4.649  13.472   2.508  0.3760 -0.1541 -0.6458
  899MOL0     C23949   4.619  13.544   2.393 -0.3343  0.0729 -0.4332
  899MOL0     C23950   4.486  13.546   2.337 -0.8073  0.7693 -0.2448
  899MOL0     C23951   4.466  13.610   2.218  1.4008 -0.0216  0.3523
  899MOL0     C23952   4.323  13.597   2.151 -1.0246 -0.0844  0.6675
  899MOL0     C23953   4.569  13.683   2.157  0.1019 -0.4148  0.1921
  899MOL0     C23954   4.540  13.780   2.051  0.0559  0.6388 -0.5929
  899MOL0     O23955   4.617  13.763   1.943 -0.4109 -0.7185  0.6827
  899MOL0     C23956   4.617  13.856   1.838 -0.3394 -0.7131  0.7419
  899MOL0     C23957   4.512  13.842   1.741  0.9970 -0.1448 -1.6321
  899MOL0     C23958   4.509  13.928   1.635  0.2919 -0.6013  0.4510
  899MOL0     C23959   4.605  14.030   1.618  0.5212  0.3896 -0.2673
  899MOL0     O23960   4.585  14.103   1.505  0.3035  0.5273  0.4893
  899MOL0     C23961   4.699  14.164   1.438  0.8033 -1.1380  1.2088
  899MOL0     C23962   4.672  14.224   1.301  1.0015  0.0212 -0.2560
  899MOL0     C23963   4.579  14.342   1.292 -1.1364 -0.8199  0.1378
  899MOL0     C23964   4.576  14.411   1.151  0.2203 -0.0173 -0.0620
  899MOL0     C23965   4.511  14.329   1.039 -0.0960  0.3580 -0.2024
  899MOL0     C23966   4.463  14.432   0.937  0.2517 -0.5434 -0.7516
  899MOL0     C23967   4.380  14.375   0.824 -0.3744  0.6265  0.5051
  899MOL0     C23968   4.249  14.444   0.824 -0.3275  0.1168  0.5253
  899MOL0    Cl23969   4.128  14.362   0.925 -0.4511 -0.3107  0.0365
  899MOL0     C23970   4.709  14.047   1.709 -0.4460 -0.2440 -0.4277
  899MOL0     C23971   4.716  13.961   1.819  0.5932  0.1302  0.7302
  899MOL0     O23972   4.450  13.861   2.069 -0.3705 -0.1161 -0.0064
  899MOL0     C23973   4.697  13.677   2.211 -0.5808 -0.5744  0.8616
  899MOL0     C23974   4.723  13.605   2.321  0.9127 -0.0339 -0.7861
  899MOL0     N23975   4.770  13.009   2.665 -0.2301 -0.6419 -0.6923
  899MOL0     N23976   4.798  12.885   2.687 -0.1732  0.3199  0.9286
  899MOL0     C23977   5.482  11.884   2.784  0.3498  0.4772  0.5015
  899MOL0     C23978   5.605  11.800   2.793 -0.5822 -0.3223  1.3736
  899MOL0     C23979   5.897  11.494   2.940 -0.1741 -0.7230  0.4677
  899MOL0     C23980   5.898  11.444   2.806 -0.3851 -0.4631  0.1994
  899MOL0     C23981   6.010  11.370   2.758 -0.4972  0.5000  0.3258
  899MOL0     C23982   6.119  11.345   2.827 -0.6416  0.6219  0.2544
  899MOL0     O23983   6.217  11.277   2.756  0.0833  0.3124  0.7334
  899MOL0     C23984   6.351  11.281   2.806 -0.2448  0.0713  0.0362
  899MOL0     C23985   6.442  11.199   2.719 -1.2689 -0.3502  0.2784
  899MOL0     C23986   6.461  11.272   2.582 -0.5467 -0.5444 -0.2070
  899MOL0     C23987   6.602  11.293   2.539 -0.1230 -0.7088  0.3089
  899MOL0     C23988   6.678  11.402   2.609  0.8066  0.7312  0.1954
  899MOL0     C23989   6.735  11.493   2.657 -0.0468  0.8411  1.0040
  899MOL0     C23990   6.125  11.393   2.957  0.5395  0.5789 -0.7167
  899MOL0     C23991   6.006  11.463   3.014 -0.8818  0.1876 -0.9352
  899MOL0     C23992   6.020  11.504   3.156 -0.4406 -0.0984 -0.4984
  899MOL0     H23993   5.511  11.637   3.076  0.6624 -0.2729 -1.2205
  899MOL0     H23994   5.322  11.812   3.072 -0.2623 -2.7717 -0.9181
  899MOL0     H23995   5.420  12.117   2.859  0.1304 -2.8102  0.1238
  899MOL0     H23996   5.279  12.145   2.987  0.4899 -0.3972 -0.1878
  899MOL0     H23997   5.293  12.171   2.689 -3.9596  2.5892 -3.9932
  899MOL0     H23998   5.139  12.144   2.779  0.4706  0.8133  0.0719
  899MOL0     H23999   5.170  12.349   2.898  1.8886  0.5490  1.0326
  899MOL0     H24000   5.330  12.371   2.820  0.1075 -0.7146 -3.8156
  899MOL0     H24001   5.194  12.509   2.693  2.5576 -1.1390  1.9358
  899MOL0     H24002   5.210  12.356   2.606  0.1026  0.9864 -1.2132
  899MOL0     H24003   4.969  12.401   2.788 -3.7649  1.7032 -1.5606
  899MOL0     H24004   4.994  12.281   2.669  2.0596 -0.0972 -0.4443
  899MOL0     H24005   4.954  12.456   2.486  0.3182 -0.0528 -0.8103
  899MOL0     H24006   4.828  12.425   2.617 -1.6632  3.5567 -0.8827
  899MOL0     H24007   5.031  12.650   2.604  1.2005 -2.3787 -0.7238
  899MOL0     H24008   4.913  12.610   2.731  0.9016  0.9994 -0.2812
  899MOL0     H24009   4.855  12.682   2.434 -0.7496  0.5718 -1.0475
  899MOL0     H24010   4.725  12.656   2.548  1.4277 -3.3344 -3.1493
  899MOL0     H24011   4.829  12.897   2.373 -3.4276 -0.7985 -0.2044
  899MOL0     H24012   4.881  13.176   2.415  1.4060  0.2754  3.1209
  899MOL0     H24013   4.818  13.246   2.562  0.4528 -1.8703  0.7454
  899MOL0     H24014   4.674  13.292   2.325 -0.9778  1.1722  0.7670
  899MOL0     H24015   4.639  13.129   2.346 -0.9675 -0.1997  0.4182
  899MOL0     H24016   4.461  13.294   2.399 -0.1465  0.2549  2.2206
  899MOL0     H24017   4.479  13.190   2.533 -1.0565 -0.7225 -2.9224
  899MOL0     H24018   4.453  13.422   2.564  1.1608  0.5300  0.0309
  899MOL0     H24019   4.580  13.353   2.666  0.5775  0.7389  0.2964
  899MOL0     H24020   4.406  13.493   2.387  0.9342 -0.8836  0.9104
  899MOL0     H24021   4.283  13.496   2.168  1.2146 -0.9153  1.3789
  899MOL0     H24022   4.320  13.619   2.044  1.6060 -3.5644 -0.3016
  899MOL0     H24023   4.262  13.666   2.209 -1.0538  1.0130 -0.6015
  899MOL0     H24024   4.432  13.772   1.760  0.0342  1.3326 -0.0368
  899MOL0     H24025   4.427  13.920   1.564  0.5673  2.4720 -0.3271
  899MOL0     H24026   4.747  14.238   1.502  3.3083 -1.6101 -0.0284
  899MOL0     H24027   4.771  14.084   1.420  0.1024 -1.1601 -2.3457
  899MOL0     H24028   4.769  14.242   1.253  1.2332  1.3667  0.6453
  899MOL0     H24029   4.620  14.142   1.250 -1.2444  1.2013  0.0118
  899MOL0     H24030   4.619  14.414   1.364 -0.7370 -2.0856  1.2067
  899MOL0     H24031   4.480  14.317   1.331 -0.7992 -3.6233 -0.5959
  899MOL0     H24032   4.677  14.435   1.116 -0.4107  1.8657 -0.7026
  899MOL0     H24033   4.531  14.509   1.165  0.7938  0.2755 -0.2265
  899MOL0     H24034   4.571  14.248   0.995 -0.0937  0.4307 -0.3340
  899MOL0     H24035   4.422  14.278   1.078 -1.0295  1.8536 -0.3226
  899MOL0     H24036   4.546  14.480   0.885  2.3623  0.2278  2.9858
  899MOL0     H24037   4.401  14.502   0.994  1.3437  2.1672 -2.6932
  899MOL0     H24038   4.354  14.268   0.826 -1.4910  0.7922  4.7031
  899MOL0     H24039   4.440  14.401   0.736  1.8390  2.6296  2.4792
  899MOL0     H24040   4.213  14.442   0.721  0.2938  0.2837  0.2980
  899MOL0     H24041   4.258  14.547   0.858 -1.2579  0.1803  0.5920
  899MOL0     H24042   4.782  14.124   1.687  0.6227 -0.9840  0.3817
  899MOL0     H24043   4.792  13.974   1.895  1.4265 -2.2702  0.3821
  899MOL0     H24044   4.775  13.727   2.153 -1.6838 -1.5890 -1.6319
  899MOL0     H24045   4.823  13.601   2.362  1.0560  1.8810 -0.8638
  899MOL0     H24046   5.456  11.934   2.691  2.0510  0.6443  0.0842
  899MOL0     H24047   5.682  11.790   2.718 -0.0999  1.1699  1.6397
  899MOL0     H24048   5.810  11.461   2.745 -2.0447 -3.1731  1.6149
  899MOL0     H24049   6.000  11.340   2.654 -0.5730 -0.4320  0.5931
  899MOL0     H24050   6.379  11.386   2.796 -1.0496  0.3444  0.5075
  899MOL0     H24051   6.346  11.245   2.910 -0.7899 -3.0295 -0.9425
  899MOL0     H24052   6.397  11.101   2.701  3.3154 -2.5755 -0.5650
  899MOL0     H24053   6.542  11.177   2.757 -0.0948  0.0061 -2.3755
  899MOL0     H24054   6.407  11.214   2.507  1.6193 -2.4634 -0.4070
  899MOL0     H24055   6.418  11.373   2.581  2.5031  0.8843 -0.3868
  899MOL0     H24056   6.623  11.304   2.432  1.0152  2.7983  0.7371
  899MOL0     H24057   6.663  11.206   2.563 -0.2381 -0.5393  1.2426
  899MOL0     H24058   6.771  11.581   2.708  0.6990  0.2172  1.5824
  899MOL0     H24059   6.221  11.384   3.008  0.4350  1.4150 -0.3624
  899MOL0     H24060   5.969  11.437   3.226 -0.2458  1.5720  1.3537
  899MOL0     H24061   6.123  11.505   3.192  1.1824  2.5658 -4.4567
  899MOL0     H24062   5.987  11.608   3.167  1.7305  0.5138  0.8331
  900MOL0     O24063   5.628   1.888   8.319 -0.4457  0.3528  0.4755
  900MOL0     C24064   5.640   2.009   8.293  0.4391 -0.3874  0.8660
  900MOL0     O24065   5.551   2.110   8.342  0.0828  0.0526 -0.8845
  900MOL0     C24066   5.446   2.073   8.415  0.5576 -0.0529 -0.4375
  900MOL0     C24067   5.334   2.024   8.345  0.7683 -0.1813  0.1753
  900MOL0     C24068   5.225   1.989   8.410 -0.8260  0.5003  0.6241
  900MOL0     C24069   5.223   1.997   8.547  0.9544  0.0357 -0.5536
  900MOL0     O24070   5.119   1.948   8.616 -0.1106  0.6962  0.6919
  900MOL0     C24071   4.986   1.966   8.561 -0.3737  0.1463  0.3313
  900MOL0     C24072   4.885   1.940   8.673  0.4886 -0.0847  0.9735
  900MOL0     C24073   4.746   1.902   8.613  0.8072 -0.1244  0.5583
  900MOL0     C24074   4.640   1.948   8.718  0.5539  0.7018 -0.6073
  900MOL0     C24075   4.493   1.922   8.685  1.3024  0.3704 -0.4702
  900MOL0     C24076   4.450   1.771   8.712 -0.1500  0.6967 -0.2873
  900MOL0     C24077   4.301   1.762   8.681  0.5465  0.1876  0.7313
  900MOL0     C24078   4.222   1.835   8.795 -0.4361  0.8355  0.4095
  900MOL0     N24079   4.077   1.796   8.767 -0.3617 -0.6616 -0.7531
  900MOL0     C24080   3.999   1.849   8.668 -0.2840 -0.1871 -0.1093
  900MOL0     C24081   3.879   1.789   8.676  0.3882  0.1428 -0.0729
  900MOL0     C24082   3.742   1.798   8.608 -0.8170 -0.0771  0.1502
  900MOL0     C24083   3.750   1.881   8.487 -0.3198  0.0762  0.1755
  900MOL0     C24084   3.829   1.811   8.374 -0.4237  0.4738  0.2089
  900MOL0     C24085   3.892   1.918   8.271  0.1738  0.3994  0.2006
  900MOL0     O24086   4.001   1.971   8.341 -0.1548 -0.0077 -0.0719
  900MOL0     C24087   4.107   2.022   8.279 -1.6421  0.1177 -0.2722
  900MOL0     C24088   4.218   2.072   8.354  0.9837  0.3092  0.8176
  900MOL0     C24089   4.328   2.139   8.302 -0.2425 -0.2921 -0.3858
  900MOL0     C24090   4.429   2.209   8.398 -0.3869 -0.6408 -0.4684
  900MOL0     C24091   4.333   2.154   8.162 -0.0796  0.6919 -0.4729
  900MOL0     C24092   4.451   2.219   8.085 -0.6157 -0.0550 -0.6507
  900MOL0     O24093   4.430   2.231   7.949 -0.3924 -0.6041  0.1608
  900MOL0     C24094   4.531   2.294   7.881  0.3151 -0.2152  0.6534
  900MOL0     C24095   4.639   2.217   7.848  0.4559 -0.0202  0.5292
  900MOL0     C24096   4.757   2.274   7.803 -1.4215 -0.9051 -0.5163
  900MOL0     C24097   4.766   2.412   7.788 -0.1947 -0.4292  0.0905
  900MOL0     O24098   4.883   2.469   7.744  0.2393 -0.4309 -0.1895
  900MOL0     C24099   4.907   2.613   7.706 -0.1870  0.4807  0.6020
  900MOL0     C24100   5.044   2.646   7.689 -1.0922 -0.4554 -0.5823
  900MOL0     C24101   5.154   2.595   7.783 -0.8130 -0.1766 -0.4311
  900MOL0     C24102   5.275   2.580   7.692 -0.3007 -0.3147 -0.5837
  900MOL0     C24103   5.401   2.540   7.781 -0.1219 -0.5262 -0.5788
  900MOL0     C24104   5.534   2.591   7.710  0.3832  0.1329  0.0167
  900MOL0     C24105   5.546   2.526   7.576  1.0098  0.2810 -0.3292
  900MOL0     C24106   5.675   2.548   7.497 -0.3480  0.6742 -0.1225
  900MOL0    Cl24107   5.659   2.700   7.407 -0.2114 -0.5203  0.1551
  900MOL0     C24108   4.661   2.492   7.815  0.3293  0.4954  0.2675
  900MOL0     C24109   4.539   2.432   7.855 -0.4505  0.8754 -0.6465
  900MOL0     O24110   4.553   2.257   8.147  1.1112  0.4893  0.4953
  900MOL0     C24111   4.220   2.108   8.084  0.9380 -0.2787 -1.2565
  900MOL0     C24112   4.114   2.044   8.144  1.0257  0.3925 -0.1913
  900MOL0     N24113   3.887   1.716   8.795 -0.2006  0.3643  0.9570
  900MOL0     N24114   4.005   1.715   8.849 -0.5492  0.3778 -0.0324
  900MOL0     C24115   5.327   2.060   8.620  1.1143 -0.0915  0.5859
  900MOL0     C24116   5.443   2.104   8.549 -0.2586  0.4604  0.1328
  900MOL0     C24117   5.756   2.049   8.208  0.1277  0.3590 -0.0658
  900MOL0     C24118   5.879   1.977   8.233 -0.0096 -0.6113 -0.4087
  900MOL0     C24119   5.987   2.007   8.153 -0.4452 -0.2763 -0.2139
  900MOL0     C24120   5.994   2.117   8.071 -0.1160 -0.3316 -0.1681
  900MOL0     O24121   6.120   2.128   8.009  0.4154  0.2030 -1.0022
  900MOL0     C24122   6.160   2.248   7.952  0.4784  0.0695 -0.8010
  900MOL0     C24123   6.309   2.266   7.945 -0.0209  0.1922 -0.3936
  900MOL0     C24124   6.358   2.196   7.817 -0.9688  0.1093  1.0197
  900MOL0     C24125   6.513   2.206   7.802 -0.6056 -0.5067 -0.4822
  900MOL0     C24126   6.562   2.335   7.765 -0.2531  0.9649  0.8238
  900MOL0     C24127   6.593   2.451   7.730  0.0203 -0.0539 -0.0765
  900MOL0     C24128   5.882   2.191   8.056 -0.0162 -0.5909 -0.6243
  900MOL0     C24129   5.761   2.162   8.126  0.0556 -0.5613  0.2874
  900MOL0     C24130   5.632   2.233   8.102 -0.6058 -0.4181 -0.2204
  900MOL0     H24131   5.343   2.012   8.238 -1.8566  0.1172 -0.1512
  900MOL0     H24132   5.144   1.951   8.350  0.5976  0.1966 -1.1959
  900MOL0     H24133   4.973   1.897   8.478 -0.4194  0.4911  0.0512
  900MOL0     H24134   4.972   2.066   8.519 -0.0266  0.7555  1.6010
  900MOL0     H24135   4.905   1.865   8.750 -0.6901 -0.8122  0.5962
  900MOL0     H24136   4.878   2.035   8.728  0.3647 -0.7913  2.2179
  900MOL0     H24137   4.729   1.949   8.516 -0.0916  2.7291  2.0034
  900MOL0     H24138   4.730   1.794   8.599  2.0966 -0.1965 -0.5862
  900MOL0     H24139   4.660   1.899   8.813  0.3922  0.7523 -0.5464
  900MOL0     H24140   4.650   2.057   8.728 -2.9506  0.9686  2.3685
  900MOL0     H24141   4.491   1.938   8.577  1.4694 -1.3539 -0.7613
  900MOL0     H24142   4.425   1.987   8.741 -1.8565 -2.6603 -0.4612
  900MOL0     H24143   4.508   1.714   8.639 -0.6696  0.3058 -0.4009
  900MOL0     H24144   4.475   1.747   8.816 -1.5980  0.9333  0.1491
  900MOL0     H24145   4.276   1.657   8.667 -1.2734  0.5180  1.2406
  900MOL0     H24146   4.283   1.815   8.587  4.8468 -2.7556 -2.1048
  900MOL0     H24147   4.253   1.800   8.893 -4.2969  0.1779  1.5538
  900MOL0     H24148   4.231   1.944   8.789  4.5276  0.6607  0.3929
  900MOL0     H24149   4.028   1.925   8.596  0.5502  0.1743  0.5810
  900MOL0     H24150   3.673   1.861   8.664  0.2268  2.0921 -0.9024
  900MOL0     H24151   3.699   1.699   8.588  2.1452 -0.9559 -2.9288
  900MOL0     H24152   3.646   1.892   8.453 -0.6917 -0.9441  0.9157
  900MOL0     H24153   3.784   1.981   8.511 -2.9251  0.9553  0.5464
  900MOL0     H24154   3.904   1.750   8.424 -0.0705  0.0865 -0.7661
  900MOL0     H24155   3.759   1.750   8.316  0.5041 -0.1437 -0.2828
  900MOL0     H24156   3.914   1.858   8.182  1.2407 -0.2427  0.8806
  900MOL0     H24157   3.822   1.999   8.250 -1.2701 -0.9584 -0.4208
  900MOL0     H24158   4.209   2.079   8.462 -1.5522  1.4385  0.6229
  900MOL0     H24159   4.461   2.307   8.361 -0.5205  0.7923  2.8694
  900MOL0     H24160   4.512   2.138   8.405  1.4975  1.4253 -0.8749
  900MOL0     H24161   4.391   2.216   8.500  2.0340 -1.6768  0.5761
  900MOL0     H24162   4.639   2.108   7.852  3.9919 -0.1215  1.0286
  900MOL0     H24163   4.832   2.209   7.758 -0.4009 -0.5675  0.6366
  900MOL0     H24164   4.858   2.631   7.610  3.3569 -0.3204 -1.5464
  900MOL0     H24165   4.867   2.681   7.783 -0.5979 -0.2041  1.0044
  900MOL0     H24166   5.073   2.618   7.587  0.3019  0.1077 -0.3718
  900MOL0     H24167   5.064   2.753   7.699  2.8224 -1.0672 -0.1199
  900MOL0     H24168   5.129   2.506   7.842 -0.8410  0.9963  1.4026
  900MOL0     H24169   5.182   2.675   7.853 -0.8507 -2.2075  2.0535
  900MOL0     H24170   5.294   2.672   7.636  1.1550 -0.9677 -1.2090
  900MOL0     H24171   5.253   2.502   7.619  0.0858 -1.5349  0.5793
  900MOL0     H24172   5.403   2.610   7.865  1.0331  0.6595 -1.5513
  900MOL0     H24173   5.406   2.434   7.810  0.4803 -0.3431 -0.0009
  900MOL0     H24174   5.624   2.563   7.765  0.8585 -1.3140 -1.4297
  900MOL0     H24175   5.542   2.700   7.715  4.3380  0.0527 -1.3880
  900MOL0     H24176   5.463   2.560   7.512  2.3584 -1.2548 -3.1060
  900MOL0     H24177   5.527   2.419   7.583  1.4505  0.2990  1.9373
  900MOL0     H24178   5.683   2.478   7.414 -3.1693 -0.6266  0.6089
  900MOL0     H24179   5.768   2.548   7.555 -1.3064  0.7712  1.4754
  900MOL0     H24180   4.667   2.599   7.793 -1.7581  1.1293  2.3666
  900MOL0     H24181   4.460   2.500   7.883 -1.0848 -0.3284  0.6002
  900MOL0     H24182   4.204   2.112   7.977 -5.0268 -3.6410 -0.9058
  900MOL0     H24183   4.041   2.022   8.067 -0.3404  0.8035  0.9405
  900MOL0     H24184   5.317   2.085   8.725 -1.0753  2.6028 -0.1385
  900MOL0     H24185   5.529   2.151   8.595  1.0596  2.5919 -3.9936
  900MOL0     H24186   5.876   1.896   8.305 -2.9997  0.8475  1.3577
  900MOL0     H24187   6.072   1.940   8.150  1.3651  1.9357 -0.8445
  900MOL0     H24188   6.108   2.270   7.858 -1.7560 -0.6850  0.2062
  900MOL0     H24189   6.132   2.324   8.025  2.2151 -0.3677  0.3873
  900MOL0     H24190   6.353   2.229   8.038  2.0268 -1.9436 -2.0613
  900MOL0     H24191   6.312   2.375   7.947 -1.5770  0.2412  0.6132
  900MOL0     H24192   6.344   2.087   7.821  0.6680 -0.1952 -0.3629
  900MOL0     H24193   6.310   2.234   7.727  3.3503  0.8428 -1.2453
  900MOL0     H24194   6.538   2.143   7.716 -1.5204 -0.9760 -0.4144
  900MOL0     H24195   6.557   2.183   7.899 -1.4226  0.3759  0.1139
  900MOL0     H24196   6.627   2.551   7.709 -0.6222 -0.1978 -1.9550
  900MOL0     H24197   5.880   2.270   7.981 -0.2296  0.3178  0.3080
  900MOL0     H24198   5.618   2.310   8.179 -1.6413 -0.1495 -0.6546
  900MOL0     H24199   5.618   2.283   8.005 -4.3703 -1.7344 -0.5255
  900MOL0     H24200   5.539   2.175   8.103 -1.2577  0.5982  0.9576
  901MOL0     O24201  10.925   4.292   8.119 -0.2655  0.0912 -0.2987
  901MOL0     C24202  10.927   4.189   8.055 -0.5114  0.3206  0.7516
  901MOL0     O24203  11.025   4.146   7.974  0.5673 -0.0289 -0.5662
  901MOL0     C24204  11.108   4.249   7.926  1.1353  0.9593 -0.0268
  901MOL0     C24205  11.235   4.275   7.986  0.9845 -0.5421  0.2294
  901MOL0     C24206  11.317   4.375   7.931  0.7194  0.0571 -0.2181
  901MOL0     C24207  11.274   4.447   7.826  0.0199  1.2071 -1.1950
  901MOL0     O24208  11.361   4.542   7.781  0.5834  0.2342  0.0158
  901MOL0     C24209  11.333   4.627   7.671  0.2196 -0.1049 -0.3231
  901MOL0     C24210  11.420   4.752   7.679 -1.5039  0.3223  0.3169
  901MOL0     C24211  11.423   4.800   7.820 -0.0311  0.0125 -0.7811
  901MOL0     C24212  11.486   4.939   7.817  0.0493 -0.0429 -0.3183
  901MOL0     C24213  11.442   5.017   7.954  0.4768  0.0954  0.3907
  901MOL0     C24214  11.507   5.164   7.976  0.9330  1.1281  0.0299
  901MOL0     C24215  11.444   5.267   7.884 -0.1150  0.0067  0.5783
  901MOL0     C24216  11.533   5.390   7.888  0.2148 -1.0206 -0.9350
  901MOL0     N24217  11.656   5.360   7.811 -0.2068 -0.4498  0.0345
  901MOL0     C24218  11.684   5.402   7.680  0.0627  0.0189  0.1649
  901MOL0     C24219  11.819   5.386   7.671 -1.0496 -0.1860  0.0614
  901MOL0     C24220  11.917   5.412   7.553 -0.5345 -0.5731 -0.3803
  901MOL0     C24221  11.944   5.555   7.536 -0.3118 -0.0657  0.0325
  901MOL0     C24222  12.039   5.584   7.418  0.7087  0.0070 -1.0732
  901MOL0     C24223  12.044   5.731   7.357 -0.4986 -0.3356  0.1029
  901MOL0     O24224  12.028   5.827   7.460  0.5534  0.1166 -0.1584
  901MOL0     C24225  11.998   5.958   7.432  0.0129  0.4965  0.7350
  901MOL0     C24226  12.019   6.021   7.312 -0.3900  0.2033 -0.2702
  901MOL0     C24227  11.978   6.157   7.305 -1.0840 -0.1453  0.4534
  901MOL0     C24228  12.015   6.229   7.175  0.5453 -0.6676 -0.4479
  901MOL0     C24229  11.931   6.221   7.420  0.0131 -0.0757 -0.2752
  901MOL0     C24230  11.905   6.362   7.421  0.1271 -0.0382  0.2748
  901MOL0     O24231  11.862   6.434   7.309 -0.5562  0.1317  0.2299
  901MOL0     C24232  11.907   6.567   7.297  0.1975  0.5366  1.3969
  901MOL0     C24233  11.804   6.652   7.272  0.8655  0.8399  0.1443
  901MOL0     C24234  11.839   6.788   7.260  0.8822 -0.3589 -0.1804
  901MOL0     C24235  11.971   6.841   7.260 -0.9370 -0.6351 -0.4002
  901MOL0     O24236  11.993   6.965   7.215 -0.1003 -0.5275  0.4879
  901MOL0     C24237  12.116   7.024   7.185 -0.9438 -0.2982  0.3501
  901MOL0     C24238  12.087   7.172   7.178  0.0554 -0.4522  0.9535
  901MOL0     C24239  12.036   7.221   7.048 -0.2612  0.6967 -0.2591
  901MOL0     C24240  12.142   7.216   6.939 -0.9780  0.0009  0.4654
  901MOL0     C24241  12.104   7.286   6.815 -0.4064 -0.3627  0.6337
  901MOL0     C24242  12.214   7.306   6.709 -0.7128 -0.3519  0.7156
  901MOL0     C24243  12.274   7.183   6.648 -0.8168  0.1587  0.2799
  901MOL0     C24244  12.343   7.212   6.516 -1.0108  0.1799  0.1051
  901MOL0    Cl24245  12.374   7.062   6.432 -0.0483  0.2105  0.4883
  901MOL0     C24246  12.075   6.744   7.271  0.3158  0.8847 -0.7350
  901MOL0     C24247  12.048   6.608   7.296 -0.3554  0.5425 -0.2535
  901MOL0     O24248  11.926   6.418   7.524  0.4107  0.5558  0.5633
  901MOL0     C24249  11.926   6.156   7.540 -1.0884 -0.0052  0.1027
  901MOL0     C24250  11.957   6.020   7.546 -0.7222  0.2914 -1.3092
  901MOL0     N24251  11.875   5.360   7.796  0.1376 -0.2604  0.1462
  901MOL0     N24252  11.774   5.339   7.876 -0.0377  0.2840  0.4647
  901MOL0     C24253  11.152   4.432   7.771 -0.1251 -0.2228 -0.9330
  901MOL0     C24254  11.064   4.335   7.819  0.2572 -0.3890 -0.4470
  901MOL0     C24255  10.821   4.089   8.075  0.2898  0.0260  0.5410
  901MOL0     C24256  10.840   3.964   8.005 -0.0001  0.1623  0.8693
  901MOL0     C24257  10.743   3.861   8.006 -0.0862  0.5028  0.0078
  901MOL0     C24258  10.623   3.870   8.075 -0.1739 -0.0090  0.1620
  901MOL0     O24259  10.521   3.780   8.067  0.2419 -0.2943  0.7538
  901MOL0     C24260  10.511   3.701   8.188 -1.1901 -0.0627 -1.1663
  901MOL0     C24261  10.583   3.564   8.184  1.0527 -0.4720  0.1235
  901MOL0     C24262  10.578   3.486   8.311 -0.0098  0.1059  0.6670
  901MOL0     C24263  10.440   3.427   8.326 -0.0965  0.1155 -0.3276
  901MOL0     C24264  10.435   3.318   8.227  0.1466  0.0741  0.4360
  901MOL0     C24265  10.421   3.236   8.137 -0.1869 -0.6939  0.1155
  901MOL0     C24266  10.599   3.992   8.138  0.4542 -0.2992  0.3874
  901MOL0     C24267  10.695   4.104   8.145  0.6137 -0.3969  0.4632
  901MOL0     C24268  10.663   4.231   8.226  0.0661 -0.3698  0.0395
  901MOL0     H24269  11.284   4.221   8.067  1.8789 -2.9026 -1.7416
  901MOL0     H24270  11.410   4.400   7.982  0.2740  0.6193  0.3430
  901MOL0     H24271  11.231   4.663   7.679 -0.0250 -0.7517 -0.4241
  901MOL0     H24272  11.353   4.586   7.571 -0.1827  3.3554 -1.9641
  901MOL0     H24273  11.520   4.715   7.656 -1.7079 -0.9396  1.3594
  901MOL0     H24274  11.389   4.827   7.605  0.8306 -0.0948 -1.1966
  901MOL0     H24275  11.322   4.794   7.863 -0.9771 -0.1391 -2.9070
  901MOL0     H24276  11.488   4.738   7.883  3.1474  3.5539 -0.2020
  901MOL0     H24277  11.595   4.931   7.819  0.3279  1.7960 -2.6642
  901MOL0     H24278  11.459   4.986   7.722 -1.8277  0.8732  0.5975
  901MOL0     H24279  11.468   4.963   8.045  2.5200  0.0264 -0.1991
  901MOL0     H24280  11.333   5.015   7.940  0.4785  2.9671 -0.6651
  901MOL0     H24281  11.490   5.182   8.083  1.0702 -1.5264  0.5772
  901MOL0     H24282  11.615   5.159   7.963  0.8927 -0.5882  0.1231
  901MOL0     H24283  11.348   5.292   7.929  0.6070  1.8423  1.1862
  901MOL0     H24284  11.421   5.230   7.784 -3.7984 -2.0912  1.9889
  901MOL0     H24285  11.484   5.478   7.847 -0.0338 -1.3111 -1.2699
  901MOL0     H24286  11.553   5.424   7.990  0.3681 -1.0770 -0.9472
  901MOL0     H24287  11.623   5.455   7.608  1.8410  1.1862 -0.5673
  901MOL0     H24288  11.888   5.365   7.459  0.6419 -0.1479 -0.9791
  901MOL0     H24289  12.015   5.366   7.567  1.7557  3.8715  0.2300
  901MOL0     H24290  11.852   5.613   7.522  0.0522  0.1871 -1.4441
  901MOL0     H24291  11.993   5.589   7.628 -0.6118 -1.0434  0.5752
  901MOL0     H24292  12.142   5.556   7.441 -0.5458 -2.9646  1.8058
  901MOL0     H24293  12.011   5.531   7.326 -0.9436 -0.2215 -0.4857
  901MOL0     H24294  12.137   5.747   7.302  0.0986  2.2637  1.6966
  901MOL0     H24295  11.959   5.743   7.289  2.5041  2.4268 -3.6278
  901MOL0     H24296  12.068   5.975   7.227  0.4360 -1.4521  1.0391
  901MOL0     H24297  12.066   6.325   7.189 -0.3027 -0.2123 -0.4141
  901MOL0     H24298  11.920   6.258   7.128 -0.8954  2.2640  3.6744
  901MOL0     H24299  12.068   6.174   7.097  1.8657  1.0798 -0.8468
  901MOL0     H24300  11.701   6.620   7.258  1.3991 -2.4398  2.5169
  901MOL0     H24301  11.765   6.866   7.249  0.5480 -0.3491  1.7196
  901MOL0     H24302  12.202   6.997   7.248 -1.1257  0.0438  0.7519
  901MOL0     H24303  12.159   6.985   7.093  1.2707  1.0862  0.7207
  901MOL0     H24304  12.019   7.204   7.258  0.4121  3.1082  0.0179
  901MOL0     H24305  12.172   7.237   7.205 -0.2775 -1.8238  6.6919
  901MOL0     H24306  12.010   7.326   7.063  0.6626  0.8185  0.6466
  901MOL0     H24307  11.945   7.167   7.019  0.1339  0.0389 -0.3057
  901MOL0     H24308  12.160   7.114   6.903 -0.8772  0.4067 -0.6759
  901MOL0     H24309  12.235   7.252   6.983 -2.1649  0.4089  2.8016
  901MOL0     H24310  12.018   7.237   6.770  1.7968 -2.6698 -1.3320
  901MOL0     H24311  12.065   7.379   6.859  1.7867  0.0329  1.8918
  901MOL0     H24312  12.295   7.365   6.753  1.1652  0.0140 -2.8552
  901MOL0     H24313  12.161   7.359   6.630 -0.5755 -2.1960 -0.6683
  901MOL0     H24314  12.191   7.113   6.634  0.1215 -0.9003 -0.1341
  901MOL0     H24315  12.351   7.134   6.709  0.7048  0.4569 -1.3327
  901MOL0     H24316  12.437   7.261   6.544  1.2578 -1.5323 -3.6144
  901MOL0     H24317  12.290   7.281   6.450  0.9958  2.1837  0.4726
  901MOL0     H24318  12.180   6.770   7.258  0.1827  0.6051 -2.7258
  901MOL0     H24319  12.111   6.526   7.328 -1.7369 -0.1754  0.7931
  901MOL0     H24320  11.889   6.208   7.628 -0.6710  1.9419 -0.8280
  901MOL0     H24321  11.943   5.962   7.637 -0.4512  1.1541 -0.7064
  901MOL0     H24322  11.122   4.500   7.692  3.7378  0.7715 -1.7352
  901MOL0     H24323  10.966   4.329   7.771 -0.1904  1.3987  0.1413
  901MOL0     H24324  10.930   3.949   7.946 -1.8163  0.7029 -2.2976
  901MOL0     H24325  10.768   3.761   7.971 -1.6965  0.2503 -0.5169
  901MOL0     H24326  10.567   3.757   8.264 -1.5185  0.8730 -1.5942
  901MOL0     H24327  10.408   3.697   8.225 -1.3072 -2.1514 -1.5944
  901MOL0     H24328  10.688   3.571   8.157  1.4536  1.8331  1.9735
  901MOL0     H24329  10.540   3.515   8.095  0.5290 -1.1209  0.7178
  901MOL0     H24330  10.644   3.400   8.298 -1.3255 -0.8102 -0.3390
  901MOL0     H24331  10.602   3.540   8.403 -3.3300  0.6790  1.3365
  901MOL0     H24332  10.356   3.497   8.316  1.6499  2.6615  1.4809
  901MOL0     H24333  10.424   3.383   8.425  0.9970 -0.0792 -0.2249
  901MOL0     H24334  10.419   3.163   8.058  3.2293 -2.1885  1.2079
  901MOL0     H24335  10.500   4.000   8.180  1.0188 -1.2247  1.9965
  901MOL0     H24336  10.563   4.217   8.267 -0.8540 -2.7438 -2.7458
  901MOL0     H24337  10.739   4.240   8.305  1.7740 -1.7968 -1.3632
  901MOL0     H24338  10.651   4.319   8.163  1.3546  0.9119  1.4739
  902MOL0     O24339   6.244   8.836   6.726  0.2578 -0.5176  0.4246
  902MOL0     C24340   6.304   8.942   6.724 -0.0428 -0.2813 -0.3486
  902MOL0     O24341   6.428   8.959   6.776 -0.4553  0.3436  0.0328
  902MOL0     C24342   6.496   8.856   6.844 -0.6258 -0.4385  0.1957
  902MOL0     C24343   6.637   8.840   6.817  0.3266 -0.8021 -0.6186
  902MOL0     C24344   6.714   8.741   6.874  0.9184 -0.3534  0.0254
  902MOL0     C24345   6.656   8.638   6.956  1.1477  0.0744  0.4115
  902MOL0     O24346   6.738   8.543   7.003  0.2188 -0.2972  0.2484
  902MOL0     C24347   6.694   8.405   6.985  0.4065 -0.6247 -0.2294
  902MOL0     C24348   6.819   8.300   6.985  0.5447  0.1963  0.2354
  902MOL0     C24349   6.945   8.349   6.908 -0.7635 -0.0290 -0.1367
  902MOL0     C24350   7.054   8.244   6.880  0.6467 -0.1202 -0.9436
  902MOL0     C24351   7.173   8.305   6.808 -0.0008 -0.2950  0.9510
  902MOL0     C24352   7.275   8.197   6.770 -1.2634 -0.6630  0.7397
  902MOL0     C24353   7.393   8.254   6.678 -0.4978  0.6799 -0.2810
  902MOL0     C24354   7.517   8.171   6.656  1.1879  0.6067 -0.6802
  902MOL0     N24355   7.627   8.240   6.587 -0.5660  0.5227  0.2176
  902MOL0     C24356   7.680   8.363   6.622  0.2167  0.6390 -0.5983
  902MOL0     C24357   7.793   8.377   6.544 -0.3283 -0.3796 -0.8950
  902MOL0     C24358   7.891   8.492   6.536  0.3878 -0.6810  0.7324
  902MOL0     C24359   7.847   8.578   6.422  0.7059 -1.1072  0.7229
  902MOL0     C24360   7.896   8.722   6.407  0.1956  0.0472 -1.3272
  902MOL0     C24361   8.010   8.767   6.496  0.6630 -0.3365  0.0021
  902MOL0     O24362   8.013   8.914   6.489  0.1469 -0.7154  0.3166
  902MOL0     C24363   8.083   8.964   6.593  0.3655 -1.2119  0.0972
  902MOL0     C24364   8.188   8.912   6.659  0.1873  0.6079 -0.5917
  902MOL0     C24365   8.250   8.973   6.773  0.9764 -0.6149 -0.0941
  902MOL0     C24366   8.344   8.884   6.858 -0.6266 -0.1660  0.5194
  902MOL0     C24367   8.190   9.099   6.824  0.1164  0.8429  0.8923
  902MOL0     C24368   8.242   9.178   6.929 -0.6012 -0.1352  0.0894
  902MOL0     O24369   8.369   9.150   6.984  0.4058 -0.0933  0.2097
  902MOL0     C24370   8.369   9.173   7.115  0.5607  0.4736  0.1119
  902MOL0     C24371   8.294   9.097   7.210  0.2588 -0.5115  0.6177
  902MOL0     C24372   8.314   9.119   7.348 -0.5018 -1.1832  0.0706
  902MOL0     C24373   8.403   9.222   7.390 -0.7790 -0.6900  0.0924
  902MOL0     O24374   8.412   9.232   7.522 -0.2000 -0.3032  0.2172
  902MOL0     C24375   8.516   9.331   7.569  0.3837 -0.4437 -0.1021
  902MOL0     C24376   8.532   9.350   7.729 -0.4850 -0.1924 -0.4515
  902MOL0     C24377   8.669   9.399   7.761 -0.3746 -0.5288 -0.5031
  902MOL0     C24378   8.712   9.365   7.901 -0.2389 -0.6047  0.2810
  902MOL0     C24379   8.623   9.445   8.011 -0.0505 -0.6229  0.1739
  902MOL0     C24380   8.675   9.439   8.152  0.3703  0.4653 -0.9518
  902MOL0     C24381   8.614   9.553   8.240  0.2800 -0.3045 -0.5328
  902MOL0     C24382   8.640   9.531   8.386 -0.6315 -0.2917 -0.8143
  902MOL0    Cl24383   8.821   9.533   8.434 -0.2673 -0.0922  0.5393
  902MOL0     C24384   8.484   9.289   7.299 -0.7561  0.2742 -0.5844
  902MOL0     C24385   8.453   9.281   7.162  0.6238  0.5534 -0.2808
  902MOL0     O24386   8.170   9.263   6.972  0.0750  0.4499  0.1211
  902MOL0     C24387   8.071   9.146   6.755  0.1434  0.4609  0.5043
  902MOL0     C24388   8.030   9.088   6.633 -0.0566  0.2839  0.8975
  902MOL0     N24389   7.798   8.272   6.460 -0.4678 -0.9528 -0.1417
  902MOL0     N24390   7.703   8.191   6.480  1.2365 -0.1438 -0.6568
  902MOL0     C24391   6.515   8.641   6.969  0.2044  0.1439  0.8824
  902MOL0     C24392   6.443   8.747   6.916  0.1825 -0.4334 -0.1700
  902MOL0     C24393   6.245   9.053   6.658  0.7284 -0.0393 -0.7991
  902MOL0     C24394   6.325   9.152   6.605 -0.2875  0.2640 -0.1657
  902MOL0     C24395   6.274   9.262   6.539  0.0541 -0.2700  0.6814
  902MOL0     C24396   6.136   9.276   6.503  0.1496 -0.0310  0.0271
  902MOL0     O24397   6.074   9.375   6.428  0.3834  0.5851 -0.8462
  902MOL0     C24398   6.117   9.516   6.448  1.2328 -0.6093 -0.2089
  902MOL0     C24399   6.014   9.583   6.553  0.3892  0.2025 -0.9179
  902MOL0     C24400   6.014   9.732   6.552 -0.4848 -0.3970 -0.2426
  902MOL0     C24401   5.905   9.778   6.649  0.2584 -0.2112  0.5569
  902MOL0     C24402   5.772   9.767   6.599  0.3899 -0.6941 -0.5226
  902MOL0     C24403   5.659   9.746   6.561 -0.8164  0.3022  0.2553
  902MOL0     C24404   6.053   9.174   6.547 -0.3346  0.2416 -0.3048
  902MOL0     C24405   6.107   9.072   6.638 -1.3010 -0.7867 -0.3151
  902MOL0     C24406   6.004   8.993   6.717  0.4237 -0.0722 -0.7730
  902MOL0     H24407   6.684   8.915   6.753 -2.3084  2.5959  1.0768
  902MOL0     H24408   6.821   8.742   6.855  1.3267  0.5464  2.0406
  902MOL0     H24409   6.642   8.385   6.891 -2.8182  2.6106  0.6176
  902MOL0     H24410   6.618   8.370   7.056  1.1668  1.6634  1.8376
  902MOL0     H24411   6.845   8.293   7.091  0.8806 -2.7282  0.0399
  902MOL0     H24412   6.793   8.203   6.942  1.4958  0.2978 -0.5939
  902MOL0     H24413   6.911   8.383   6.809  2.8825 -0.5350 -1.7180
  902MOL0     H24414   6.999   8.427   6.962 -0.9083  0.0137 -0.0536
  902MOL0     H24415   7.089   8.205   6.976  0.9794  1.9619 -0.1660
  902MOL0     H24416   7.002   8.166   6.823 -1.6159 -0.8253  1.8554
  902MOL0     H24417   7.222   8.381   6.870  2.0041  2.1581 -3.2100
  902MOL0     H24418   7.147   8.355   6.714  1.5557 -1.2844 -0.0557
  902MOL0     H24419   7.327   8.165   6.861 -1.7613 -0.2660  1.1754
  902MOL0     H24420   7.237   8.108   6.719  0.5259 -1.1153  0.1402
  902MOL0     H24421   7.424   8.348   6.723  0.0212  0.2975  0.1712
  902MOL0     H24422   7.344   8.276   6.582 -3.7999  1.2372  1.3774
  902MOL0     H24423   7.550   8.126   6.750 -1.0111  0.7124  0.2019
  902MOL0     H24424   7.494   8.085   6.592  0.5651 -2.6773  3.4803
  902MOL0     H24425   7.645   8.428   6.702 -0.8124 -2.1195  1.3602
  902MOL0     H24426   7.992   8.461   6.508  1.0585  2.1308 -0.3582
  902MOL0     H24427   7.891   8.541   6.633  2.3146 -2.7253  1.8448
  902MOL0     H24428   7.880   8.536   6.327  0.7575 -0.1906  0.3170
  902MOL0     H24429   7.737   8.581   6.419  0.7046  1.3414  1.0885
  902MOL0     H24430   7.920   8.751   6.305  0.4927  1.6079 -0.8511
  902MOL0     H24431   7.804   8.776   6.428 -0.4928 -1.3354 -0.6504
  902MOL0     H24432   7.993   8.745   6.602  0.2909 -0.1457 -0.0177
  902MOL0     H24433   8.101   8.719   6.458  1.6465 -1.1545  3.0863
  902MOL0     H24434   8.225   8.813   6.633 -0.7622 -0.4645  1.8168
  902MOL0     H24435   8.423   8.930   6.919 -0.5248  0.3357  0.0183
  902MOL0     H24436   8.391   8.821   6.782 -2.8600 -1.3790  0.0724
  902MOL0     H24437   8.287   8.809   6.912  1.9373 -1.5519  1.4953
  902MOL0     H24438   8.230   9.014   7.182 -0.5088  0.4775 -0.6920
  902MOL0     H24439   8.252   9.081   7.428 -0.4493  0.6444  1.0120
  902MOL0     H24440   8.612   9.297   7.528  0.0512 -1.4573 -0.0688
  902MOL0     H24441   8.498   9.431   7.531 -3.2625 -1.3046 -0.9542
  902MOL0     H24442   8.448   9.415   7.755 -0.9276 -0.1134 -1.9830
  902MOL0     H24443   8.526   9.250   7.773  3.3208 -2.2054 -3.7614
  902MOL0     H24444   8.686   9.507   7.756  2.9508 -0.8672  0.7805
  902MOL0     H24445   8.739   9.356   7.689  0.6330 -0.4757  0.4229
  902MOL0     H24446   8.814   9.404   7.913 -0.7792  0.8191  0.4058
  902MOL0     H24447   8.713   9.257   7.916  1.2080 -0.9123 -1.5793
  902MOL0     H24448   8.615   9.548   7.975 -0.4166 -0.8335 -0.3705
  902MOL0     H24449   8.517   9.419   8.011 -0.6260  1.5115  0.5402
  902MOL0     H24450   8.782   9.459   8.163  0.7034 -0.5242 -2.2154
  902MOL0     H24451   8.657   9.338   8.190  1.1768  1.5245  2.6797
  902MOL0     H24452   8.509   9.574   8.219 -0.2308  1.4001  2.9995
  902MOL0     H24453   8.660   9.650   8.217 -3.4008  2.0797  1.1282
  902MOL0     H24454   8.595   9.437   8.421  0.8389 -1.0001 -0.7355
  902MOL0     H24455   8.601   9.617   8.441  4.0564  0.6115  1.6284
  902MOL0     H24456   8.555   9.368   7.321 -0.4704  0.4183 -1.9356
  902MOL0     H24457   8.516   9.337   7.094  1.6861 -1.8337 -1.4060
  902MOL0     H24458   8.029   9.241   6.785  0.7652 -0.0543  3.2936
  902MOL0     H24459   7.953   9.156   6.597 -1.6757 -0.4308  2.7894
  902MOL0     H24460   6.468   8.553   7.010  0.5725  0.0014  0.9945
  902MOL0     H24461   6.335   8.734   6.919  0.5085 -4.1944 -0.3935
  902MOL0     H24462   6.430   9.157   6.633 -0.2808 -3.2008  0.9592
  902MOL0     H24463   6.341   9.343   6.509 -1.3652  1.1185  1.1021
  902MOL0     H24464   6.223   9.532   6.466  1.0005  0.9583 -0.1032
  902MOL0     H24465   6.090   9.566   6.355 -2.2500 -2.7912 -0.5732
  902MOL0     H24466   6.047   9.549   6.651  1.1028 -0.4996 -1.4002
  902MOL0     H24467   5.912   9.546   6.540 -0.3057  0.9065  1.7760
  902MOL0     H24468   6.111   9.774   6.580 -0.7623  1.9395 -2.3783
  902MOL0     H24469   5.998   9.774   6.452 -0.9091 -1.4071 -0.6165
  902MOL0     H24470   5.931   9.878   6.684  2.4183 -0.1622 -1.0192
  902MOL0     H24471   5.905   9.716   6.740 -0.7503 -0.6082  0.2985
  902MOL0     H24472   5.556   9.728   6.538 -0.5763 -0.2901 -0.4190
  902MOL0     H24473   5.949   9.192   6.523 -0.2990  0.3157 -0.4033
  902MOL0     H24474   6.038   8.990   6.821 -0.9693 -0.7093 -0.3067
  902MOL0     H24475   5.909   9.048   6.719 -0.0233 -0.8394  0.6042
  902MOL0     H24476   5.982   8.892   6.683  1.2322 -0.4929 -0.0671
  903MOL0     O24477   7.278  10.659  10.383  0.2667  0.6444 -1.0040
  903MOL0     C24478   7.297  10.672  10.260 -0.6658  0.8381 -1.6015
  903MOL0     O24479   7.235  10.767  10.185  1.1132  0.1363  0.0336
  903MOL0     C24480   7.120  10.837  10.240  0.0451 -0.1058  1.0211
  903MOL0     C24481   7.125  10.972  10.257  0.1824  0.7933  0.5503
  903MOL0     C24482   7.029  11.047  10.322 -0.2690 -0.2042  0.7883
  903MOL0     C24483   6.908  10.989  10.374 -0.0825 -0.4464  0.1949
  903MOL0     O24484   6.811  11.063  10.438  0.6391 -0.6428 -0.1975
  903MOL0     C24485   6.798  11.205  10.413 -0.7867  0.1571 -0.7460
  903MOL0     C24486   6.652  11.249  10.445 -0.3154 -0.4884 -0.2772
  903MOL0     C24487   6.584  11.217  10.576  0.0325 -0.1932  0.0966
  903MOL0     C24488   6.447  11.277  10.604 -0.7491 -0.0396 -0.0190
  903MOL0     C24489   6.470  11.429  10.618  0.2120  0.0147  0.3749
  903MOL0     C24490   6.317  11.470  10.660 -0.4511 -0.6521  0.0708
  903MOL0     C24491   6.306  11.613  10.708 -0.4031 -0.0090 -0.5890
  903MOL0     C24492   6.161  11.636  10.741  0.1306 -0.4418 -0.4556
  903MOL0     N24493   6.137  11.765  10.798  0.2311 -0.2136 -0.3603
  903MOL0     C24494   6.162  11.811  10.925  0.3956  0.3162  0.0646
  903MOL0     C24495   6.121  11.941  10.931  0.6768 -0.5519 -0.2325
  903MOL0     C24496   6.142  12.028  11.040 -0.2687  0.6788 -0.2625
  903MOL0     C24497   6.232  12.145  11.004  0.4086 -0.2794 -0.1472
  903MOL0     C24498   6.286  12.193  11.135 -0.0685  0.4566  0.8061
  903MOL0     C24499   6.361  12.336  11.137 -0.4104  0.3367  0.2993
  903MOL0     O24500   6.430  12.376  11.017 -0.2899  0.2853  0.0837
  903MOL0     C24501   6.551  12.338  10.965 -0.2985  0.0826  0.6969
  903MOL0     C24502   6.597  12.405  10.856 -0.3240 -0.1726  0.8635
  903MOL0     C24503   6.712  12.355  10.780 -0.2471 -0.3983 -0.6997
  903MOL0     C24504   6.737  12.437  10.654  0.0412  0.4550  0.0688
  903MOL0     C24505   6.790  12.251  10.829 -0.4494  0.0459  0.5107
  903MOL0     C24506   6.897  12.173  10.751 -0.6999 -0.0162 -0.2901
  903MOL0     O24507   6.954  12.236  10.636 -0.0583 -0.0674 -0.4257
  903MOL0     C24508   7.016  12.145  10.555  0.0219  0.8845  0.2025
  903MOL0     C24509   7.157  12.110  10.567 -0.1609 -1.0012 -0.4341
  903MOL0     C24510   7.217  12.014  10.484  0.0918 -0.7419  0.3326
  903MOL0     C24511   7.137  11.949  10.378 -0.7945  0.3537  0.4636
  903MOL0     O24512   7.169  11.849  10.284  0.2736 -0.1942  0.1809
  903MOL0     C24513   7.286  11.768  10.310 -0.3570  0.1317  1.1405
  903MOL0     C24514   7.404  11.845  10.249 -0.3547 -0.3600 -0.1634
  903MOL0     C24515   7.379  11.871  10.100 -0.6181 -0.1735  0.5136
  903MOL0     C24516   7.416  11.757  10.009  0.4223 -0.0866 -0.3894
  903MOL0     C24517   7.411  11.807   9.863 -1.1624 -0.0010 -0.6510
  903MOL0     C24518   7.264  11.821   9.819  1.2038 -0.5160 -0.1326
  903MOL0     C24519   7.262  11.938   9.722  0.1998  0.9503 -0.1139
  903MOL0     C24520   7.120  11.944   9.668  0.0276 -0.3247  0.8609
  903MOL0    Cl24521   7.129  12.092   9.567 -0.2338 -0.0275 -0.0855
  903MOL0     C24522   7.010  12.002  10.368 -0.1065  1.0291 -0.3048
  903MOL0     C24523   6.948  12.093  10.452  0.0539 -0.4517  0.5179
  903MOL0     O24524   6.932  12.065  10.803 -0.8465  0.8818  0.0215
  903MOL0     C24525   6.762  12.203  10.957 -0.0857  0.6634  0.3241
  903MOL0     C24526   6.642  12.245  11.024 -0.0177  0.8032 -0.8813
  903MOL0     N24527   6.058  11.966  10.808 -0.4758 -0.3800 -0.3197
  903MOL0     N24528   6.068  11.866  10.728  0.0912  0.3078 -0.0885
  903MOL0     C24529   6.893  10.851  10.343  0.3909 -0.5803 -0.3050
  903MOL0     C24530   7.000  10.777  10.279 -0.6582 -0.1040 -0.3340
  903MOL0     C24531   7.390  10.576  10.204  0.6753  1.1877 -1.1804
  903MOL0     C24532   7.527  10.609  10.182 -0.0332 -0.2417  0.2067
  903MOL0     C24533   7.620  10.508  10.149 -0.5884  0.1329  0.0456
  903MOL0     C24534   7.577  10.378  10.117  0.6947 -0.5940 -0.4791
  903MOL0     O24535   7.670  10.288  10.080  0.7278 -0.3288  0.8516
  903MOL0     C24536   7.656  10.144  10.080 -1.2616 -0.6483  0.7001
  903MOL0     C24537   7.587  10.086   9.960  0.0403  0.0098 -0.3080
  903MOL0     C24538   7.662  10.112   9.829  0.3104  0.2008 -0.0134
  903MOL0     C24539   7.628  10.007   9.718  0.2019  0.7472  0.1360
  903MOL0     C24540   7.497  10.017   9.646  0.7394 -0.2241 -0.4273
  903MOL0     C24541   7.401  10.009   9.574 -0.0794 -0.4424  0.3273
  903MOL0     C24542   7.440  10.354  10.123 -0.0574  0.1002  0.1662
  903MOL0     C24543   7.355  10.446  10.186 -0.6324 -0.8327  0.5391
  903MOL0     C24544   7.221  10.396  10.214  0.9646  0.7552 -0.0957
  903MOL0     H24545   7.226  11.002  10.229  0.4264 -1.4854 -1.3439
  903MOL0     H24546   7.048  11.153  10.334 -1.2583 -0.1428  1.9255
  903MOL0     H24547   6.819  11.224  10.307  1.8276 -4.6697 -1.4068
  903MOL0     H24548   6.865  11.266  10.475 -0.4917  0.9816 -1.8410
  903MOL0     H24549   6.652  11.358  10.430 -1.0690 -0.4860 -0.3054
  903MOL0     H24550   6.599  11.199  10.364 -1.5520 -1.7876  1.2634
  903MOL0     H24551   6.573  11.109  10.585 -1.7246  0.0796  2.0272
  903MOL0     H24552   6.654  11.249  10.654  0.9903 -0.5855 -0.5860
  903MOL0     H24553   6.379  11.256  10.520  0.3154  1.2468 -1.2583
  903MOL0     H24554   6.412  11.230  10.696  2.5098  1.1453  2.0071
  903MOL0     H24555   6.505  11.480  10.528 -0.4758 -1.2581 -0.6221
  903MOL0     H24556   6.530  11.457  10.705 -0.3615 -1.3435  1.2377
  903MOL0     H24557   6.245  11.462  10.578 -1.1223  3.4449  0.0241
  903MOL0     H24558   6.275  11.409  10.739 -0.2632 -2.0579 -0.8836
  903MOL0     H24559   6.339  11.685  10.632  0.4806  2.1963  1.7245
  903MOL0     H24560   6.367  11.641  10.794 -1.2474  2.0604 -0.5904
  903MOL0     H24561   6.090  11.633  10.657 -1.9568 -0.0391  1.2066
  903MOL0     H24562   6.121  11.568  10.817 -2.3359  0.2908 -1.0097
  903MOL0     H24563   6.216  11.756  11.001  0.2440 -0.3279 -0.2945
  903MOL0     H24564   6.190  11.973  11.121  1.5488 -0.0334 -1.7523
  903MOL0     H24565   6.046  12.062  11.079 -1.0892 -2.6842  0.9342
  903MOL0     H24566   6.314  12.107  10.943  1.2591 -1.1609  1.4777
  903MOL0     H24567   6.181  12.226  10.951 -0.3452  0.4475  1.5948
  903MOL0     H24568   6.203  12.192  11.206  0.1945 -1.7171  1.1362
  903MOL0     H24569   6.355  12.120  11.178 -2.7271 -1.5912  1.8904
  903MOL0     H24570   6.278  12.407  11.141 -2.2672 -1.7028  0.1634
  903MOL0     H24571   6.421  12.342  11.228 -0.5056 -1.0690  0.4907
  903MOL0     H24572   6.536  12.488  10.822  0.8404  0.2298 -0.3293
  903MOL0     H24573   6.809  12.517  10.676  0.7366 -0.2627  0.4704
  903MOL0     H24574   6.657  12.491  10.603  2.4748  3.7648 -0.5987
  903MOL0     H24575   6.791  12.385  10.574  0.0733 -2.8854  2.0682
  903MOL0     H24576   7.220  12.167  10.635  0.5005 -1.1782 -0.8918
  903MOL0     H24577   7.320  11.982  10.501  0.5471  0.3464 -0.2730
  903MOL0     H24578   7.315  11.745  10.413  3.1600  1.9249  0.7024
  903MOL0     H24579   7.282  11.676  10.251 -1.9811  0.4630  0.6835
  903MOL0     H24580   7.413  11.933  10.312  4.0559 -2.6172  2.8857
  903MOL0     H24581   7.493  11.784  10.270  0.6874  1.6628  1.6378
  903MOL0     H24582   7.442  11.957  10.076  0.5284 -0.7141  1.4816
  903MOL0     H24583   7.277  11.908  10.088 -0.4141 -0.1274 -1.4135
  903MOL0     H24584   7.349  11.673  10.032 -1.0446  1.0140 -0.4381
  903MOL0     H24585   7.519  11.730  10.034  0.4586 -2.0257 -2.4183
  903MOL0     H24586   7.474  11.897   9.853  4.6783 -3.7903 -3.9219
  903MOL0     H24587   7.467  11.735   9.803 -1.8394 -1.7823  0.7766
  903MOL0     H24588   7.193  11.841   9.900  0.1696 -0.9118 -0.9311
  903MOL0     H24589   7.220  11.735   9.768  0.7766  1.2870 -3.0862
  903MOL0     H24590   7.329  11.914   9.640 -1.3032 -1.3218 -0.7588
  903MOL0     H24591   7.294  12.031   9.771 -0.1630 -0.2357  2.5605
  903MOL0     H24592   7.055  11.965   9.753  0.2527  0.4359  0.8529
  903MOL0     H24593   7.096  11.857   9.606 -1.2302  1.1262 -0.8065
  903MOL0     H24594   6.962  11.971  10.276 -0.2495  0.4856 -0.0488
  903MOL0     H24595   6.844  12.116  10.432  0.1206 -0.2662  0.3776
  903MOL0     H24596   6.830  12.133  11.005  0.2546  1.8498  1.6118
  903MOL0     H24597   6.622  12.189  11.116  0.1339 -0.0092 -1.3323
  903MOL0     H24598   6.803  10.801  10.375 -0.1421 -0.1329 -1.0734
  903MOL0     H24599   7.000  10.669  10.272 -1.4440 -0.0705 -0.9117
  903MOL0     H24600   7.542  10.712  10.214  1.6640 -1.0800  2.2708
  903MOL0     H24601   7.723  10.543  10.155 -0.2084 -0.0060 -3.5578
  903MOL0     H24602   7.755  10.097  10.088 -1.4007 -1.7720 -2.6441
  903MOL0     H24603   7.608  10.101  10.169 -1.4266 -0.3714  0.7468
  903MOL0     H24604   7.486  10.128   9.958 -0.4020 -0.7579 -4.8012
  903MOL0     H24605   7.577   9.978   9.973  1.2483  0.0742  1.6950
  903MOL0     H24606   7.620  10.202   9.784 -1.0452 -1.8134 -3.1445
  903MOL0     H24607   7.771  10.123   9.834  0.2887  0.2209  0.4145
  903MOL0     H24608   7.619   9.916   9.777  1.8876  2.0853  2.6491
  903MOL0     H24609   7.708   9.980   9.648 -1.9200 -1.9246 -1.4499
  903MOL0     H24610   7.324  10.007   9.500  0.0911 -0.8197  0.1560
  903MOL0     H24611   7.412  10.256  10.086 -0.0186  0.1743 -0.0614
  903MOL0     H24612   7.151  10.441  10.143  1.2690  0.3956 -0.6292
  903MOL0     H24613   7.231  10.288  10.201  1.7780  0.6395  1.3137
  903MOL0     H24614   7.183  10.434  10.309  0.5471  2.0331 -0.7440
  904MOL0     O24615   8.069   4.437   2.726  0.0727 -0.1352 -0.1399
  904MOL0     C24616   8.178   4.427   2.792  1.1241  0.5910  0.7303
  904MOL0     O24617   8.288   4.504   2.779  0.1022  0.8362 -0.1115
  904MOL0     C24618   8.296   4.599   2.686 -0.3345 -0.2808  0.6582
  904MOL0     C24619   8.413   4.599   2.612  0.8498 -0.6579  0.4072
  904MOL0     C24620   8.430   4.694   2.511  0.4474  0.2976 -0.5788
  904MOL0     C24621   8.349   4.802   2.512  0.2959 -1.2473  0.6934
  904MOL0     O24622   8.368   4.896   2.410  0.4179  0.1179 -0.1529
  904MOL0     C24623   8.489   4.963   2.406  0.2157  0.4173 -0.2859
  904MOL0     C24624   8.518   5.029   2.270 -0.4276  0.7075  0.6139
  904MOL0     C24625   8.444   5.167   2.259 -0.6751 -0.3219 -0.8253
  904MOL0     C24626   8.522   5.288   2.331 -0.8898  0.4940 -0.7252
  904MOL0     C24627   8.431   5.415   2.343  0.9323 -0.5365  0.0075
  904MOL0     C24628   8.308   5.391   2.431  0.0058  1.3339  0.3222
  904MOL0     C24629   8.175   5.391   2.348 -0.4586 -0.1613 -0.2465
  904MOL0     C24630   8.070   5.486   2.399  0.4905 -0.7317  0.6039
  904MOL0     N24631   8.108   5.626   2.365  0.5253 -0.4905  0.7636
  904MOL0     C24632   8.153   5.712   2.457 -0.3473 -0.2394  1.1869
  904MOL0     C24633   8.220   5.811   2.394 -0.0685  0.4638  0.9173
  904MOL0     C24634   8.301   5.926   2.447  0.2142  0.6392 -0.9405
  904MOL0     C24635   8.219   6.054   2.465  1.4491 -0.2813  0.4908
  904MOL0     C24636   8.325   6.170   2.496 -0.5994 -0.6012  0.4917
  904MOL0     C24637   8.262   6.288   2.576  0.0911  0.1917  0.0786
  904MOL0     O24638   8.359   6.392   2.604 -0.7508  0.1062  0.4999
  904MOL0     C24639   8.376   6.474   2.712  0.0663  0.0942 -0.0900
  904MOL0     C24640   8.441   6.587   2.689 -0.0067 -1.2921 -0.6632
  904MOL0     C24641   8.463   6.672   2.796 -0.7979 -0.8525  0.2641
  904MOL0     C24642   8.550   6.792   2.768 -0.1394  0.3775 -0.7487
  904MOL0     C24643   8.420   6.651   2.927 -0.5875 -0.0359 -0.0919
  904MOL0     C24644   8.425   6.748   3.048 -0.5507  0.3861  0.7144
  904MOL0     O24645   8.452   6.880   3.017  0.0186  0.5611 -0.0154
  904MOL0     C24646   8.488   6.978   3.115  0.8721  0.4438 -0.3352
  904MOL0     C24647   8.554   6.959   3.245 -0.6885 -0.3205  0.3894
  904MOL0     C24648   8.572   7.070   3.333 -0.9572 -0.0538 -0.4341
  904MOL0     C24649   8.530   7.201   3.288  0.0709 -0.2926 -0.2347
  904MOL0     O24650   8.554   7.313   3.368 -0.1138  0.7342  0.4322
  904MOL0     C24651   8.651   7.292   3.474 -0.0766 -0.7974  0.7038
  904MOL0     C24652   8.578   7.261   3.611  1.5555 -0.1734 -0.2657
  904MOL0     C24653   8.659   7.280   3.738  0.5425  1.4052  1.5242
  904MOL0     C24654   8.783   7.192   3.747  0.3479 -0.0474  0.1037
  904MOL0     C24655   8.861   7.222   3.878 -1.0378 -0.3315  0.3786
  904MOL0     C24656   8.952   7.342   3.848  0.2909 -0.4069 -1.2820
  904MOL0     C24657   9.003   7.407   3.980 -0.1048  0.2308 -0.3641
  904MOL0     C24658   9.058   7.332   4.099 -0.4247  0.9542  0.3188
  904MOL0    Cl24659   9.222   7.259   4.036  0.0738  0.3555 -0.3500
  904MOL0     C24660   8.468   7.215   3.165  1.0802  0.4852  0.2207
  904MOL0     C24661   8.454   7.109   3.085  0.7974  1.0605  0.2816
  904MOL0     O24662   8.418   6.696   3.156 -0.0749  1.2577  0.1521
  904MOL0     C24663   8.349   6.535   2.946 -0.0769  0.3235 -0.3412
  904MOL0     C24664   8.326   6.448   2.839  0.5482 -0.3508 -0.5484
  904MOL0     N24665   8.210   5.787   2.259 -0.2212  0.7402  0.3541
  904MOL0     N24666   8.158   5.671   2.246  0.0624  0.2528  0.2233
  904MOL0     C24667   8.242   4.819   2.597 -0.0280  0.0929 -0.4531
  904MOL0     C24668   8.202   4.707   2.676 -0.5724 -0.1543  1.4441
  904MOL0     C24669   8.166   4.311   2.887 -0.1029  0.6616 -0.6502
  904MOL0     C24670   8.280   4.305   2.981 -0.5514 -0.8138  0.4998
  904MOL0     C24671   8.276   4.212   3.075  0.5643  0.2828  0.0307
  904MOL0     C24672   8.174   4.113   3.081  0.9289  0.1588  0.5399
  904MOL0     O24673   8.198   4.014   3.177  0.0386  0.6927 -0.3892
  904MOL0     C24674   8.093   3.912   3.184 -0.3981  0.4145 -0.2909
  904MOL0     C24675   8.129   3.856   3.323 -0.1135  0.4350  0.3449
  904MOL0     C24676   8.262   3.764   3.337 -0.1629 -0.8158 -0.5411
  904MOL0     C24677   8.255   3.626   3.262 -0.7158  0.5628  1.1118
  904MOL0     C24678   8.393   3.579   3.232 -0.8860 -0.8560 -0.0055
  904MOL0     C24679   8.502   3.547   3.192 -1.0346  0.1468  0.0436
  904MOL0     C24680   8.065   4.117   2.991  0.6546  0.3717  0.3443
  904MOL0     C24681   8.049   4.217   2.898 -0.1051 -0.0743  0.4699
  904MOL0     C24682   7.915   4.224   2.817 -0.3570 -0.9298 -1.1280
  904MOL0     H24683   8.482   4.517   2.628  1.5778 -0.1826 -0.2483
  904MOL0     H24684   8.508   4.691   2.435 -0.1606 -1.2041 -1.1792
  904MOL0     H24685   8.572   4.894   2.425 -0.1082 -0.0778 -0.6528
  904MOL0     H24686   8.482   5.039   2.484 -0.6895  0.9802 -0.8984
  904MOL0     H24687   8.624   5.050   2.256 -0.3565  0.3713  0.6158
  904MOL0     H24688   8.485   4.968   2.185 -0.2323 -1.6467  2.1094
  904MOL0     H24689   8.441   5.187   2.151  0.3361 -2.7927 -1.4021
  904MOL0     H24690   8.344   5.151   2.301 -0.6527  1.1594 -0.1725
  904MOL0     H24691   8.562   5.257   2.428 -1.4630 -0.0454 -0.6541
  904MOL0     H24692   8.611   5.299   2.269 -0.5956 -2.6111 -1.0473
  904MOL0     H24693   8.402   5.456   2.246 -1.7132 -2.1157  0.0275
  904MOL0     H24694   8.487   5.498   2.388 -0.0130  0.6010 -0.8593
  904MOL0     H24695   8.321   5.302   2.494  1.6041 -1.0693 -3.1046
  904MOL0     H24696   8.294   5.476   2.499  0.7319  0.0835  2.1269
  904MOL0     H24697   8.129   5.293   2.333 -0.9794  0.1447 -0.6781
  904MOL0     H24698   8.203   5.440   2.254 -0.2880 -0.4141 -0.3300
  904MOL0     H24699   7.979   5.479   2.339  1.6985  1.2724 -1.6984
  904MOL0     H24700   8.042   5.472   2.504 -2.8736 -0.0828 -0.0871
  904MOL0     H24701   8.142   5.711   2.565  1.3742  0.5705  1.4093
  904MOL0     H24702   8.384   5.956   2.383 -1.7165  3.9624 -2.1192
  904MOL0     H24703   8.337   5.899   2.547  2.6423  1.5988 -1.4675
  904MOL0     H24704   8.167   6.071   2.370  1.5890 -2.7502 -0.0946
  904MOL0     H24705   8.139   6.040   2.538  0.3829  0.9394 -0.4000
  904MOL0     H24706   8.405   6.138   2.562 -0.3814 -1.2230 -0.0708
  904MOL0     H24707   8.363   6.215   2.404  0.0438 -0.7298  0.6948
  904MOL0     H24708   8.171   6.328   2.530 -1.4174 -1.7873  1.1697
  904MOL0     H24709   8.226   6.234   2.664  1.1816 -4.0928 -1.8451
  904MOL0     H24710   8.468   6.600   2.585 -3.2228  0.7954 -1.3692
  904MOL0     H24711   8.480   6.875   2.778 -1.0971 -0.5908  0.9428
  904MOL0     H24712   8.587   6.784   2.665  1.2882 -1.6271 -0.1376
  904MOL0     H24713   8.631   6.792   2.841 -1.4418 -0.0733  0.7353
  904MOL0     H24714   8.576   6.862   3.289 -0.8780 -0.3751  0.3638
  904MOL0     H24715   8.601   7.042   3.434 -0.8862  0.3938 -0.3279
  904MOL0     H24716   8.736   7.229   3.449 -0.2746 -1.2568  1.1744
  904MOL0     H24717   8.696   7.392   3.474  2.5192 -1.7982 -2.4845
  904MOL0     H24718   8.488   7.321   3.625  1.9711  0.4819 -0.3689
  904MOL0     H24719   8.548   7.156   3.618 -0.9836  0.5945  3.0830
  904MOL0     H24720   8.596   7.251   3.824 -1.1093 -0.5428 -0.2154
  904MOL0     H24721   8.682   7.386   3.736 -0.0040  1.5163 -0.3476
  904MOL0     H24722   8.848   7.212   3.661 -1.8270 -0.2797 -1.6864
  904MOL0     H24723   8.750   7.088   3.743  0.3785 -0.0388 -0.4700
  904MOL0     H24724   8.793   7.230   3.963  0.3652 -0.1309  1.5151
  904MOL0     H24725   8.922   7.137   3.911 -1.0271 -0.8991 -1.0558
  904MOL0     H24726   8.899   7.423   3.798  1.4480  4.0656  3.8362
  904MOL0     H24727   9.033   7.300   3.787  0.7808 -4.0297  1.5174
  904MOL0     H24728   8.916   7.459   4.019 -1.4702 -2.0334 -0.2389
  904MOL0     H24729   9.083   7.475   3.949  2.0859 -0.7400  2.6641
  904MOL0     H24730   8.995   7.259   4.151  1.5559  0.4790  2.2153
  904MOL0     H24731   9.072   7.387   4.193 -0.9953 -0.5918  1.3442
  904MOL0     H24732   8.416   7.307   3.141 -0.0676 -0.1190  0.3245
  904MOL0     H24733   8.390   7.124   2.999 -0.2658  0.4072  0.9447
  904MOL0     H24734   8.310   6.497   3.040 -0.3886 -1.7740 -1.2596
  904MOL0     H24735   8.270   6.359   2.865  2.1583 -1.8763 -2.0238
  904MOL0     H24736   8.181   4.909   2.588 -2.7049 -1.5133  0.4024
  904MOL0     H24737   8.117   4.719   2.743  0.0846  1.8236  1.9941
  904MOL0     H24738   8.352   4.386   2.986 -1.3407 -0.1159  0.7859
  904MOL0     H24739   8.356   4.213   3.149  0.4466  1.2159  0.1585
  904MOL0     H24740   7.992   3.954   3.176 -1.5695 -1.9869  0.8441
  904MOL0     H24741   8.106   3.844   3.099 -0.2950  1.0403 -0.7825
  904MOL0     H24742   8.043   3.795   3.353  0.1103  0.0031  0.1172
  904MOL0     H24743   8.132   3.936   3.399  0.0672 -0.3190  1.1474
  904MOL0     H24744   8.345   3.824   3.297 -1.7883  1.4021 -0.8177
  904MOL0     H24745   8.277   3.751   3.444  2.4374  1.0528 -0.5668
  904MOL0     H24746   8.196   3.652   3.174 -0.0606 -2.7151 -0.4372
  904MOL0     H24747   8.200   3.551   3.319  0.9167 -0.3529  1.5412
  904MOL0     H24748   8.591   3.511   3.145 -0.4276 -0.3306  1.5099
  904MOL0     H24749   7.987   4.042   2.997 -0.3730  1.1880 -1.6607
  904MOL0     H24750   7.866   4.321   2.825  1.7248  0.0748  0.5749
  904MOL0     H24751   7.941   4.210   2.711  0.2044 -0.5667 -1.0386
  904MOL0     H24752   7.839   4.153   2.850 -0.6596 -0.0701  0.0966
  905MOL0     O24753   9.836   3.925   5.892 -0.3152 -0.2231  0.1426
  905MOL0     C24754   9.717   3.931   5.869 -0.1187 -0.2277  1.1829
  905MOL0     O24755   9.614   3.927   5.960 -0.0634  0.5540  0.0255
  905MOL0     C24756   9.645   3.911   6.093  0.2363 -0.3717 -0.6821
  905MOL0     C24757   9.737   3.826   6.145 -0.1996 -0.3481  0.2549
  905MOL0     C24758   9.771   3.805   6.280 -0.1869 -0.3620 -0.1563
  905MOL0     C24759   9.716   3.893   6.374  0.0127  0.0590  0.3315
  905MOL0     O24760   9.754   3.883   6.501 -0.9010  0.5242  0.7277
  905MOL0     C24761   9.794   3.991   6.576  0.5412 -0.0927 -0.0925
  905MOL0     C24762   9.928   4.066   6.533 -0.5424 -0.1759 -0.8465
  905MOL0     C24763  10.050   3.965   6.531 -0.1408  0.0412 -0.0818
  905MOL0     C24764  10.166   4.051   6.492  0.2854  0.2820 -0.3707
  905MOL0     C24765  10.306   3.980   6.493  0.3611 -0.6218 -0.8289
  905MOL0     C24766  10.412   4.083   6.488 -1.0104 -0.3437 -0.4566
  905MOL0     C24767  10.554   4.024   6.522  0.1848  0.0168  0.3810
  905MOL0     C24768  10.664   4.126   6.476 -0.2677  0.0115  0.3497
  905MOL0     N24769  10.794   4.061   6.482  0.0126 -0.0095  0.2595
  905MOL0     C24770  10.863   3.978   6.387  0.3402  0.7691 -0.3189
  905MOL0     C24771  10.962   3.923   6.458  0.1647 -0.2154  1.2849
  905MOL0     C24772  11.076   3.832   6.398 -0.8918  0.5795 -0.5326
  905MOL0     C24773  11.208   3.830   6.471 -0.2027  0.1518  0.8491
  905MOL0     C24774  11.275   3.972   6.468 -0.0238  1.1159  0.0230
  905MOL0     C24775  11.416   3.984   6.547  0.7415  0.0274 -0.4525
  905MOL0     O24776  11.413   3.893   6.661  0.2940  0.4603 -0.4316
  905MOL0     C24777  11.535   3.887   6.736 -0.7148  0.8785 -0.2132
  905MOL0     C24778  11.576   3.762   6.796 -0.1104 -0.6317  0.5289
  905MOL0     C24779  11.690   3.747   6.856 -0.1857  0.0533 -0.2666
  905MOL0     C24780  11.721   3.605   6.908  0.0564  0.4421  0.1641
  905MOL0     C24781  11.790   3.848   6.865 -0.1974 -0.6384  0.6672
  905MOL0     C24782  11.934   3.825   6.899  0.1209 -0.2479 -0.1691
  905MOL0     O24783  12.017   3.932   6.879 -0.1457 -0.5272  0.0953
  905MOL0     C24784  12.146   3.925   6.935 -0.8908  1.1039 -0.3789
  905MOL0     C24785  12.164   3.941   7.070 -0.0440  0.2040 -0.0294
  905MOL0     C24786  12.291   3.942   7.134 -0.4134 -0.6169 -0.5754
  905MOL0     C24787  12.406   3.906   7.049 -0.9086 -0.2788 -0.3275
  905MOL0     O24788  12.534   3.916   7.089  0.1615  0.3166 -0.4211
  905MOL0     C24789  12.573   3.822   7.192 -0.8616  1.0299  0.5865
  905MOL0     C24790  12.551   3.675   7.154 -0.1602  0.2955  0.3116
  905MOL0     C24791  12.643   3.638   7.030 -0.0453  0.8537  0.0447
  905MOL0     C24792  12.579   3.534   6.932  0.7500  0.0771 -0.4357
  905MOL0     C24793  12.668   3.499   6.812 -0.8767  0.0805 -0.6092
  905MOL0     C24794  12.815   3.474   6.849  0.8182 -0.1852 -0.3771
  905MOL0     C24795  12.891   3.434   6.722 -0.5088  0.8494 -0.1246
  905MOL0     C24796  13.036   3.415   6.765 -0.2255 -0.4947  0.1149
  905MOL0    Cl24797  13.059   3.255   6.846 -0.4162 -0.5947 -0.3797
  905MOL0     C24798  12.385   3.885   6.921  0.6356 -0.2791  0.9672
  905MOL0     C24799  12.264   3.894   6.863  0.1903  0.1160  0.5886
  905MOL0     O24800  11.972   3.714   6.926 -0.4095  0.2482  0.3062
  905MOL0     C24801  11.755   3.973   6.808  0.9626 -0.2046 -0.1334
  905MOL0     C24802  11.630   3.987   6.746  0.4859 -1.1157 -0.6254
  905MOL0     N24803  10.953   3.961   6.595 -0.1704  0.0697 -0.5408
  905MOL0     N24804  10.865   4.047   6.602  0.4004 -0.1472 -1.2807
  905MOL0     C24805   9.616   3.984   6.330  0.3925  0.6998 -0.4478
  905MOL0     C24806   9.577   3.988   6.192 -0.2155 -1.1587  0.0690
  905MOL0     C24807   9.680   3.939   5.723 -1.0885 -0.5671 -0.2120
  905MOL0     C24808   9.775   3.882   5.629  0.9079  0.4813 -0.2966
  905MOL0     C24809   9.751   3.888   5.494 -0.1881 -0.6247 -0.2368
  905MOL0     C24810   9.632   3.930   5.446  0.8045 -1.4485 -0.1504
  905MOL0     O24811   9.616   3.912   5.312  0.3186  0.9117 -0.1711
  905MOL0     C24812   9.544   4.004   5.236 -0.1844  0.1644  0.7405
  905MOL0     C24813   9.624   4.064   5.116  0.1815  0.7406 -0.0311
  905MOL0     C24814   9.644   3.976   4.983  0.9660  0.0035  0.0044
  905MOL0     C24815   9.732   4.031   4.868  0.3834  0.3383 -1.4169
  905MOL0     C24816   9.696   4.172   4.812  0.8270  1.0735 -0.3642
  905MOL0     C24817   9.656   4.278   4.763 -0.0034 -0.5273 -0.3139
  905MOL0     C24818   9.536   3.980   5.536 -1.1581 -0.5940  0.5168
  905MOL0     C24819   9.555   3.977   5.675 -0.3127  0.5097  1.0393
  905MOL0     C24820   9.441   4.023   5.764  0.6723 -0.3798  0.0535
  905MOL0     H24821   9.785   3.766   6.068 -4.1621 -0.2733 -2.5408
  905MOL0     H24822   9.844   3.733   6.314 -0.8378  0.0637  2.3352
  905MOL0     H24823   9.812   3.949   6.675  2.1187 -3.5151 -1.6865
  905MOL0     H24824   9.717   4.069   6.569 -0.4197 -1.1521 -2.0971
  905MOL0     H24825   9.908   4.106   6.433 -1.3585 -3.3872 -2.0859
  905MOL0     H24826   9.949   4.149   6.601 -0.0765 -1.3842  0.5574
  905MOL0     H24827  10.052   3.923   6.632 -0.6268 -0.0229 -0.0966
  905MOL0     H24828  10.032   3.872   6.478  3.0798 -1.8009  1.7053
  905MOL0     H24829  10.142   4.093   6.393 -1.7260  1.8043  0.6906
  905MOL0     H24830  10.165   4.128   6.570  0.1027  0.1987 -0.2930
  905MOL0     H24831  10.308   3.899   6.420  0.0798 -1.4884  0.1106
  905MOL0     H24832  10.320   3.934   6.591  0.1385  2.3460  0.6984
  905MOL0     H24833  10.413   4.136   6.392 -1.6550  1.3424  0.4167
  905MOL0     H24834  10.396   4.160   6.565 -0.8200 -0.4561 -0.3035
  905MOL0     H24835  10.559   3.930   6.466  0.9083  0.4994 -0.3911
  905MOL0     H24836  10.569   3.996   6.627  0.9111 -0.3732  0.1827
  905MOL0     H24837  10.645   4.161   6.374  1.9018 -1.8496 -0.7890
  905MOL0     H24838  10.668   4.219   6.533  1.6262 -0.5114  1.1582
  905MOL0     H24839  10.843   3.972   6.281  2.8269 -0.1631 -0.7945
  905MOL0     H24840  11.103   3.866   6.298  1.5798 -0.9816 -0.4983
  905MOL0     H24841  11.052   3.725   6.389  2.9662 -0.8057  2.5430
  905MOL0     H24842  11.206   3.785   6.570 -0.3414  0.9375  1.2118
  905MOL0     H24843  11.277   3.760   6.423 -3.1354 -1.7364 -0.9854
  905MOL0     H24844  11.302   4.001   6.366 -4.1293  0.8644 -1.3280
  905MOL0     H24845  11.207   4.047   6.507 -0.6105 -0.2361  1.7220
  905MOL0     H24846  11.497   3.949   6.481  3.3193  1.9892  1.4726
  905MOL0     H24847  11.429   4.089   6.575 -3.1784  1.0054 -1.6050
  905MOL0     H24848  11.510   3.679   6.776 -0.4479 -0.3217  0.3304
  905MOL0     H24849  11.771   3.605   7.005 -1.0405  3.1822  0.8191
  905MOL0     H24850  11.793   3.566   6.835  0.1213  0.6120  0.1377
  905MOL0     H24851  11.624   3.554   6.909  0.0800  0.4088  0.7774
  905MOL0     H24852  12.075   3.949   7.131 -1.0239 -2.1549 -1.0349
  905MOL0     H24853  12.314   3.955   7.239  0.4412 -2.1339 -0.5443
  905MOL0     H24854  12.679   3.827   7.217  0.0028  0.3312 -2.5171
  905MOL0     H24855  12.522   3.839   7.287 -0.0325  3.9910  0.5876
  905MOL0     H24856  12.585   3.619   7.242 -1.8275 -0.6294  0.4067
  905MOL0     H24857  12.445   3.651   7.143  0.0354  0.4135 -2.7199
  905MOL0     H24858  12.731   3.594   7.078 -1.0903  1.5584  2.7866
  905MOL0     H24859  12.675   3.720   6.966 -1.5345 -0.4946 -2.6115
  905MOL0     H24860  12.479   3.571   6.907  1.3121  0.7680 -1.8006
  905MOL0     H24861  12.557   3.446   6.992 -2.2154  1.1778  0.2567
  905MOL0     H24862  12.628   3.409   6.764  0.2081 -0.8381  0.1456
  905MOL0     H24863  12.673   3.578   6.736 -1.4397 -0.9437 -1.7437
  905MOL0     H24864  12.815   3.399   6.928 -1.9871 -0.5638 -0.6391
  905MOL0     H24865  12.850   3.565   6.899 -0.4921 -0.3631  0.9230
  905MOL0     H24866  12.888   3.521   6.656 -2.6428  0.4002 -0.7228
  905MOL0     H24867  12.848   3.342   6.682  1.1823 -0.0153 -0.0052
  905MOL0     H24868  13.077   3.494   6.829 -1.0165  2.2547 -2.5526
  905MOL0     H24869  13.096   3.415   6.674  1.3767  2.2834  1.0301
  905MOL0     H24870  12.468   3.881   6.851  0.9342 -1.1816  1.3482
  905MOL0     H24871  12.250   3.877   6.757 -1.4614  0.1652  0.7833
  905MOL0     H24872  11.827   4.054   6.808  1.0588 -0.2480  1.7565
  905MOL0     H24873  11.612   4.085   6.704  0.2785 -0.7670  0.2529
  905MOL0     H24874   9.559   4.044   6.400  0.3875  0.0079  0.1524
  905MOL0     H24875   9.504   4.063   6.164 -0.7328 -1.4095  0.7182
  905MOL0     H24876   9.862   3.831   5.672  2.2241  3.5769  0.9930
  905MOL0     H24877   9.825   3.856   5.421 -0.8118 -1.3516 -0.5738
  905MOL0     H24878   9.459   3.945   5.200  0.8970 -1.8781  1.3798
  905MOL0     H24879   9.499   4.079   5.302 -0.7544  0.1323  0.3999
  905MOL0     H24880   9.725   4.080   5.156 -0.0836 -0.8871  1.3792
  905MOL0     H24881   9.579   4.160   5.086 -0.9406  0.6948  1.4076
  905MOL0     H24882   9.675   3.874   5.005 -0.1272  0.3132  3.8980
  905MOL0     H24883   9.542   3.971   4.943 -0.2249 -0.9045  2.8473
  905MOL0     H24884   9.729   3.953   4.791 -0.1908 -2.4706  1.2278
  905MOL0     H24885   9.833   4.026   4.907 -1.4613  0.1414  4.2236
  905MOL0     H24886   9.630   4.379   4.740  1.1628  0.1065  0.9930
  905MOL0     H24887   9.439   4.001   5.492 -0.1268 -0.3920 -1.8214
  905MOL0     H24888   9.467   4.101   5.836 -3.4721 -0.8027  2.2973
  905MOL0     H24889   9.357   4.064   5.707  2.8091  0.2290 -2.8918
  905MOL0     H24890   9.395   3.950   5.831  0.1708 -0.9882 -0.9358
  906MOL0     O24891  10.549   6.944   8.298  0.3637  0.8829  0.8347
  906MOL0     C24892  10.470   6.852   8.308  0.7787 -0.3032  0.1977
  906MOL0     O24893  10.501   6.722   8.303  0.8222 -0.1045  0.2596
  906MOL0     C24894  10.624   6.672   8.270 -0.4713  0.5219 -0.1111
  906MOL0     C24895  10.623   6.533   8.240 -0.2713  0.4615  0.2247
  906MOL0     C24896  10.739   6.461   8.217 -0.2921 -0.1073 -0.5380
  906MOL0     C24897  10.864   6.527   8.226 -0.7455  0.3593 -0.5169
  906MOL0     O24898  10.988   6.468   8.206 -0.9322 -0.3715  0.0780
  906MOL0     C24899  11.108   6.495   8.284 -0.1452 -0.5854 -0.5108
  906MOL0     C24900  11.199   6.377   8.253 -0.6485  0.6818 -0.4066
  906MOL0     C24901  11.338   6.409   8.304 -0.6679  0.3581 -1.1668
  906MOL0     C24902  11.440   6.329   8.214  1.1676 -0.6248  0.0540
  906MOL0     C24903  11.576   6.313   8.289 -0.8272  0.8012  0.1667
  906MOL0     C24904  11.697   6.287   8.194 -0.7493  0.1066 -1.2354
  906MOL0     C24905  11.838   6.279   8.270  0.2272  0.2805  0.0551
  906MOL0     C24906  11.896   6.419   8.281  0.1320  0.0718  0.3959
  906MOL0     N24907  12.010   6.432   8.368 -0.5364  0.2394 -1.0807
  906MOL0     C24908  12.126   6.353   8.350  0.4790 -0.2074 -0.8054
  906MOL0     C24909  12.202   6.377   8.457  0.0928  0.5950 -0.6265
  906MOL0     C24910  12.345   6.340   8.475  0.0323  0.3497  0.3574
  906MOL0     C24911  12.396   6.364   8.610 -0.1360 -0.2556  1.2891
  906MOL0     C24912  12.534   6.301   8.616  0.2389 -1.2126  0.4711
  906MOL0     C24913  12.545   6.185   8.713  0.2367 -0.0689  0.5342
  906MOL0     O24914  12.684   6.144   8.730  0.3181  0.5787 -0.1220
  906MOL0     C24915  12.724   6.030   8.679 -0.5457  0.0279 -0.1536
  906MOL0     C24916  12.661   5.943   8.594  0.2663 -0.3462  0.9283
  906MOL0     C24917  12.712   5.824   8.548  0.3598 -0.0079 -1.0828
  906MOL0     C24918  12.619   5.737   8.471 -0.4849 -0.2280 -0.8902
  906MOL0     C24919  12.839   5.789   8.594 -0.3353 -0.4773 -0.2209
  906MOL0     C24920  12.901   5.653   8.563  0.7203 -0.6695  0.3854
  906MOL0     O24921  12.809   5.545   8.591 -0.0669  0.1705 -0.1143
  906MOL0     C24922  12.861   5.429   8.552  0.5837  0.0205  1.1762
  906MOL0     C24923  12.802   5.360   8.447 -0.7284 -0.0466 -0.3013
  906MOL0     C24924  12.865   5.252   8.390 -0.3082  0.0057 -0.4839
  906MOL0     C24925  12.972   5.189   8.447 -0.2316 -0.0366 -0.5480
  906MOL0     O24926  13.006   5.075   8.390  0.2974 -0.1586  1.0771
  906MOL0     C24927  13.085   4.987   8.460  0.3964 -0.4710  0.5827
  906MOL0     C24928  13.139   4.884   8.364 -0.4828  0.2980 -0.4785
  906MOL0     C24929  13.232   4.789   8.434 -0.3886  1.4017 -0.0747
  906MOL0     C24930  13.160   4.666   8.501  1.1282 -0.1055  0.0768
  906MOL0     C24931  13.257   4.559   8.542 -1.3071  0.2534  0.3232
  906MOL0     C24932  13.206   4.422   8.588 -0.1496  0.5416  0.1850
  906MOL0     C24933  13.316   4.342   8.647  0.7403 -0.1232  1.0257
  906MOL0     C24934  13.323   4.356   8.804  0.6300  1.0746 -0.3866
  906MOL0    Cl24935  13.461   4.255   8.865 -0.1233  0.2059 -0.3420
  906MOL0     C24936  13.025   5.249   8.563  0.1309 -0.0370 -0.4532
  906MOL0     C24937  12.969   5.365   8.610  0.2448 -0.1291 -0.3131
  906MOL0     O24938  13.003   5.642   8.498 -0.3338  0.1982 -0.4307
  906MOL0     C24939  12.908   5.869   8.682 -0.5924  0.4938 -0.1894
  906MOL0     C24940  12.857   5.991   8.724  0.6986 -0.2584  0.1029
  906MOL0     N24941  12.127   6.453   8.545  0.6036 -0.2643 -0.1785
  906MOL0     N24942  12.011   6.487   8.497  0.1831  0.6488 -0.3393
  906MOL0     C24943  10.864   6.668   8.253 -0.5991 -0.4874 -0.2947
  906MOL0     C24944  10.744   6.742   8.276 -1.2485  0.2534  0.0763
  906MOL0     C24945  10.322   6.891   8.331 -0.2879  0.5959  0.0534
  906MOL0     C24946  10.221   6.792   8.299 -0.5175 -0.0796 -0.2017
  906MOL0     C24947  10.082   6.820   8.291  0.5072  0.4368  0.4017
  906MOL0     C24948  10.037   6.944   8.340 -1.2546  0.6659  0.4283
  906MOL0     O24949   9.904   6.973   8.336 -0.6581  0.1419 -0.6854
  906MOL0     C24950   9.846   6.998   8.205 -0.1046 -0.1482 -1.1080
  906MOL0     C24951   9.694   6.982   8.216 -0.7089 -0.3827  0.6440
  906MOL0     C24952   9.662   6.837   8.257 -0.1025  0.0565  0.2891
  906MOL0     C24953   9.517   6.798   8.223  0.4830  0.3653 -0.8279
  906MOL0     C24954   9.467   6.686   8.300  0.4029 -0.6007 -0.3766
  906MOL0     C24955   9.422   6.588   8.357 -0.2076  0.2191  0.0986
  906MOL0     C24956  10.133   7.038   8.375 -1.3322 -0.4969  1.1018
  906MOL0     C24957  10.276   7.019   8.371  0.1794 -0.3223 -0.3076
  906MOL0     C24958  10.356   7.139   8.404  0.1909  0.2158  0.0825
  906MOL0     H24959  10.524   6.489   8.250 -1.3201  2.4466 -0.7907
  906MOL0     H24960  10.744   6.353   8.210 -1.4670 -0.2217  0.2066
  906MOL0     H24961  11.093   6.499   8.392  1.8686 -1.4438 -0.1621
  906MOL0     H24962  11.149   6.593   8.257 -3.2274  0.8836 -0.3707
  906MOL0     H24963  11.157   6.294   8.310 -2.0890  2.1836  0.8006
  906MOL0     H24964  11.196   6.351   8.147 -2.0248  0.4541 -0.3329
  906MOL0     H24965  11.363   6.513   8.279 -3.3904  1.1258 -1.0334
  906MOL0     H24966  11.343   6.389   8.411 -1.3515  0.4656 -1.1137
  906MOL0     H24967  11.401   6.228   8.200 -1.2718  0.4826 -2.0165
  906MOL0     H24968  11.458   6.382   8.121  1.4428 -1.9606 -0.6784
  906MOL0     H24969  11.566   6.234   8.364  0.8302  1.8689  1.5954
  906MOL0     H24970  11.602   6.409   8.334  3.7492  0.2760 -0.9335
  906MOL0     H24971  11.668   6.188   8.158 -0.7827 -1.1405  1.9242
  906MOL0     H24972  11.701   6.340   8.099  2.2224 -1.1587 -1.9346
  906MOL0     H24973  11.902   6.218   8.205  1.0053  3.7287 -2.7111
  906MOL0     H24974  11.824   6.226   8.365 -4.5518  0.3418 -0.3737
  906MOL0     H24975  11.923   6.457   8.182 -4.0920 -0.0970 -1.0090
  906MOL0     H24976  11.819   6.489   8.314  0.0976  0.6996 -0.9743
  906MOL0     H24977  12.147   6.296   8.260  0.1219 -1.4288 -0.1286
  906MOL0     H24978  12.402   6.405   8.408 -2.8250  1.1870 -1.4154
  906MOL0     H24979  12.350   6.236   8.442  3.8946  0.2771  0.7361
  906MOL0     H24980  12.397   6.472   8.630  1.9317 -0.1602  0.8913
  906MOL0     H24981  12.327   6.324   8.686 -1.4684  1.0289  0.8129
  906MOL0     H24982  12.570   6.273   8.516  1.0943  0.1446  0.3762
  906MOL0     H24983  12.598   6.381   8.655  0.7593 -0.7174 -1.2730
  906MOL0     H24984  12.517   6.223   8.812  2.1160 -0.2206  1.1630
  906MOL0     H24985  12.479   6.102   8.684  0.1782 -0.1733  0.9558
  906MOL0     H24986  12.564   5.978   8.560  0.3093 -0.0925  1.0664
  906MOL0     H24987  12.573   5.797   8.393 -1.3990  0.4099  0.1076
  906MOL0     H24988  12.548   5.706   8.549  1.0561 -1.8517 -0.0580
  906MOL0     H24989  12.659   5.648   8.423 -0.9775 -0.9525  0.0088
  906MOL0     H24990  12.712   5.398   8.400 -1.0940 -0.0976  0.3563
  906MOL0     H24991  12.811   5.206   8.308 -2.5176  2.0237 -0.2499
  906MOL0     H24992  13.171   5.034   8.510 -0.0775 -1.3190  2.2975
  906MOL0     H24993  13.015   4.946   8.534 -1.8731  3.2794  0.7553
  906MOL0     H24994  13.058   4.819   8.329 -0.2401 -0.4048  0.2267
  906MOL0     H24995  13.180   4.944   8.283 -0.4693  0.2440 -0.5113
  906MOL0     H24996  13.309   4.835   8.496 -0.6186 -1.1466  2.3565
  906MOL0     H24997  13.292   4.744   8.355 -0.4375  3.5257 -1.3759
  906MOL0     H24998  13.100   4.629   8.417 -0.4930 -0.9882  1.5518
  906MOL0     H24999  13.092   4.690   8.582  2.1182  0.0216  0.8941
  906MOL0     H25000  13.336   4.547   8.467 -0.3488  0.8664  1.2217
  906MOL0     H25001  13.314   4.596   8.627  1.7245  0.1137 -1.5081
  906MOL0     H25002  13.161   4.367   8.504 -1.0991  1.4890  0.0593
  906MOL0     H25003  13.124   4.443   8.657  1.4834  3.2549  1.4403
  906MOL0     H25004  13.412   4.381   8.612  0.0034  0.0318 -0.9205
  906MOL0     H25005  13.307   4.235   8.627  1.5737 -0.2356  1.2079
  906MOL0     H25006  13.233   4.311   8.848  0.2735  0.0574 -2.0634
  906MOL0     H25007  13.332   4.461   8.834  0.2249  0.3408  2.6197
  906MOL0     H25008  13.105   5.197   8.615  0.5063  0.2663 -0.7298
  906MOL0     H25009  13.015   5.407   8.699 -0.1060  1.2862 -0.7639
  906MOL0     H25010  13.003   5.833   8.720 -0.7001 -1.0087 -1.2398
  906MOL0     H25011  12.912   6.059   8.789 -0.1046 -1.8724  2.6326
  906MOL0     H25012  10.958   6.721   8.248 -0.0956 -1.3888 -0.7554
  906MOL0     H25013  10.747   6.846   8.309 -1.1825  0.5285 -0.7729
  906MOL0     H25014  10.246   6.705   8.240 -2.1584 -0.5078 -0.3079
  906MOL0     H25015  10.015   6.755   8.234 -1.1428  2.8644 -0.5920
  906MOL0     H25016   9.866   7.098   8.165  0.0117 -1.3763 -4.4537
  906MOL0     H25017   9.890   6.931   8.131 -1.4349  0.7737 -2.8273
  906MOL0     H25018   9.652   7.001   8.116  2.4246 -0.2528 -0.7580
  906MOL0     H25019   9.658   7.050   8.294  2.8747  2.3908  0.1099
  906MOL0     H25020   9.730   6.764   8.211 -0.8424 -1.9624  2.2311
  906MOL0     H25021   9.681   6.826   8.364 -2.2620  0.7438  0.7891
  906MOL0     H25022   9.514   6.775   8.116 -1.5519 -2.9676 -0.2117
  906MOL0     H25023   9.459   6.887   8.249  0.7013 -0.3954  2.8087
  906MOL0     H25024   9.373   6.502   8.399  1.4813  0.2714  2.3250
  906MOL0     H25025  10.101   7.131   8.421  0.5600  1.0228 -0.5016
  906MOL0     H25026  10.300   7.212   8.462 -0.9439  0.1702 -0.9163
  906MOL0     H25027  10.445   7.120   8.466 -1.0076 -2.2573  1.2114
  906MOL0     H25028  10.388   7.183   8.309  0.2052  0.2760  0.1151
  907MOL0     O25029   9.533   9.114   1.117 -0.7925 -0.3573  0.2878
  907MOL0     C25030   9.595   9.194   1.192  0.1311  1.1699  0.0168
  907MOL0     O25031   9.583   9.185   1.331 -0.2029  0.1247  1.2954
  907MOL0     C25032   9.500   9.096   1.393  0.1649 -0.1453 -0.5243
  907MOL0     C25033   9.540   9.032   1.516 -0.0079 -0.0741 -0.3680
  907MOL0     C25034   9.450   8.952   1.585 -0.6140  0.2181  0.4737
  907MOL0     C25035   9.320   8.927   1.539 -0.2164 -0.5830 -0.2955
  907MOL0     O25036   9.242   8.851   1.627  0.3104  0.4796 -0.4934
  907MOL0     C25037   9.116   8.786   1.590 -0.8364 -0.2047 -0.3027
  907MOL0     C25038   9.145   8.666   1.514  0.4547 -0.0408  1.0355
  907MOL0     C25039   9.241   8.576   1.601  0.4904 -0.6127  0.0172
  907MOL0     C25040   9.283   8.443   1.527  0.7887 -0.0555 -0.7970
  907MOL0     C25041   9.370   8.361   1.627  0.5394 -0.0824  0.0243
  907MOL0     C25042   9.431   8.240   1.554 -0.5790 -0.0199 -0.9844
  907MOL0     C25043   9.514   8.161   1.665  0.7520  0.0389  0.2695
  907MOL0     C25044   9.655   8.217   1.673  0.2325  0.5822  0.3288
  907MOL0     N25045   9.746   8.136   1.573 -0.2756 -0.3346 -0.2215
  907MOL0     C25046   9.807   8.020   1.620  0.0238  0.0863 -0.3272
  907MOL0     C25047   9.892   7.983   1.514  0.3774 -0.3950  0.1159
  907MOL0     C25048   9.963   7.858   1.502 -0.1302  0.4295 -1.1583
  907MOL0     C25049   9.848   7.746   1.497  0.6501 -0.3566 -0.0323
  907MOL0     C25050   9.917   7.612   1.450 -0.1163  0.3742 -0.5514
  907MOL0     C25051   9.819   7.493   1.464 -0.5551 -0.1264 -0.1624
  907MOL0     O25052   9.772   7.480   1.597  0.1867 -0.2806  0.2059
  907MOL0     C25053   9.690   7.380   1.616  0.0418 -0.0690  0.1070
  907MOL0     C25054   9.621   7.376   1.741 -0.0921 -0.6615 -0.0693
  907MOL0     C25055   9.526   7.278   1.769  0.5584  0.0145 -0.5086
  907MOL0     C25056   9.455   7.280   1.908 -0.4406 -0.5488 -0.6379
  907MOL0     C25057   9.509   7.176   1.673  0.2649 -0.2407 -1.2729
  907MOL0     C25058   9.422   7.060   1.695  0.2371 -0.3329  0.1331
  907MOL0     O25059   9.294   7.079   1.738  0.1022 -0.1891  0.4902
  907MOL0     C25060   9.211   6.970   1.738 -0.5658 -0.7287 -0.0613
  907MOL0     C25061   9.185   6.909   1.863 -0.5728  0.1156 -0.8751
  907MOL0     C25062   9.079   6.819   1.874 -0.7321 -0.2561  0.5919
  907MOL0     C25063   9.004   6.784   1.762  0.9122  0.4299 -0.5246
  907MOL0     O25064   8.898   6.696   1.792  0.2408  0.0175 -0.2418
  907MOL0     C25065   8.797   6.690   1.695  0.9499 -0.3888 -0.0675
  907MOL0     C25066   8.698   6.800   1.701 -0.7098 -0.3508  0.4967
  907MOL0     C25067   8.665   6.846   1.838  0.9019 -0.2292  0.3319
  907MOL0     C25068   8.564   6.964   1.847  0.4533 -0.7026  0.6059
  907MOL0     C25069   8.517   6.992   1.988 -0.8309 -0.5543 -0.5548
  907MOL0     C25070   8.610   7.100   2.048 -0.8169 -0.1787 -0.3155
  907MOL0     C25071   8.558   7.154   2.180 -0.5500 -0.7981 -0.2547
  907MOL0     C25072   8.629   7.275   2.234  0.3472 -0.7207 -1.1085
  907MOL0    Cl25073   8.565   7.341   2.397 -0.0855  0.2784  0.4686
  907MOL0     C25074   9.039   6.832   1.639  0.0250 -0.3269  0.1297
  907MOL0     C25075   9.132   6.938   1.629  0.2111  0.6647 -0.5442
  907MOL0     O25076   9.476   6.952   1.675 -0.5616 -0.4469  0.4485
  907MOL0     C25077   9.584   7.178   1.558  0.1641 -0.1954 -0.5572
  907MOL0     C25078   9.670   7.279   1.523  1.2367 -0.5511  0.1053
  907MOL0     N25079   9.889   8.081   1.424  0.1427  0.0367  0.2385
  907MOL0     N25080   9.792   8.165   1.453  0.1779 -0.1489  0.4052
  907MOL0     C25081   9.281   8.976   1.412  0.1725 -0.2242 -0.6559
  907MOL0     C25082   9.364   9.070   1.349 -0.4109  0.2831  0.7519
  907MOL0     C25083   9.687   9.294   1.133  0.2103  0.5161 -0.9072
  907MOL0     C25084   9.782   9.350   1.225  0.6105  0.1423  0.4302
  907MOL0     C25085   9.881   9.437   1.189  0.0397 -1.5211 -0.2760
  907MOL0     C25086   9.872   9.490   1.055 -0.2209 -0.6000  0.0709
  907MOL0     O25087   9.952   9.585   1.004  0.3011 -0.4939  0.0856
  907MOL0     C25088  10.087   9.577   1.056 -0.2801  1.0480 -0.1496
  907MOL0     C25089  10.106   9.698   1.137 -0.4963  0.2891  0.6952
  907MOL0     C25090  10.254   9.730   1.137  0.8519 -0.0194  0.4789
  907MOL0     C25091  10.347   9.617   1.205 -0.5449 -0.0604 -0.0562
  907MOL0     C25092  10.297   9.584   1.347 -0.1597  0.0358  0.7710
  907MOL0     C25093  10.257   9.563   1.462 -0.4860 -0.8220 -0.3020
  907MOL0     C25094   9.775   9.449   0.967 -0.0193 -0.4094  0.2193
  907MOL0     C25095   9.690   9.350   0.994  0.6926  0.4430 -0.0733
  907MOL0     C25096   9.605   9.290   0.892  0.0585 -0.2581  0.1487
  907MOL0     H25097   9.640   9.054   1.553  0.4103 -0.3714 -1.2991
  907MOL0     H25098   9.471   8.921   1.687 -1.2264 -0.2756  0.4521
  907MOL0     H25099   9.054   8.851   1.527  0.9989  1.6709 -0.2599
  907MOL0     H25100   9.058   8.744   1.672 -0.4057 -2.5059 -1.0994
  907MOL0     H25101   9.053   8.613   1.491  1.5348 -1.6592  0.2576
  907MOL0     H25102   9.192   8.686   1.417 -0.2113  0.3851  0.7971
  907MOL0     H25103   9.328   8.637   1.627  0.4569 -0.6912  0.3148
  907MOL0     H25104   9.195   8.547   1.696 -0.5193  1.6231  0.2717
  907MOL0     H25105   9.194   8.385   1.501  0.7924 -1.4479  1.9066
  907MOL0     H25106   9.342   8.464   1.438  0.7227 -1.7634 -1.2683
  907MOL0     H25107   9.316   8.337   1.719 -1.1967  1.2913 -0.5564
  907MOL0     H25108   9.454   8.424   1.657  0.8360 -0.1852 -0.5957
  907MOL0     H25109   9.353   8.170   1.521  0.4802 -1.2619 -0.9241
  907MOL0     H25110   9.499   8.262   1.471 -0.7218 -0.3865 -1.2043
  907MOL0     H25111   9.517   8.055   1.639  1.6911 -0.2645  1.5422
  907MOL0     H25112   9.465   8.158   1.762  3.2570  2.7531  1.7704
  907MOL0     H25113   9.660   8.324   1.652  0.4555  1.4271  4.0109
  907MOL0     H25114   9.697   8.211   1.774 -0.3063  0.1954  0.5322
  907MOL0     H25115   9.788   7.966   1.712 -0.2158  1.0748  0.2103
  907MOL0     H25116  10.015   7.861   1.598  0.9001  1.6074 -1.7273
  907MOL0     H25117  10.037   7.855   1.421  1.4078 -1.4494  0.2286
  907MOL0     H25118   9.787   7.733   1.587 -1.5119  0.3265 -1.3064
  907MOL0     H25119   9.779   7.779   1.419 -0.8186 -1.5855  0.6985
  907MOL0     H25120   9.931   7.623   1.342 -2.6406  2.6528 -0.7685
  907MOL0     H25121  10.011   7.591   1.502 -1.0752  0.6614  1.3988
  907MOL0     H25122   9.749   7.502   1.380  1.7206  2.8404 -1.9805
  907MOL0     H25123   9.879   7.406   1.436 -0.9319 -0.1041 -1.0868
  907MOL0     H25124   9.628   7.465   1.803 -2.1990 -0.5272  0.0684
  907MOL0     H25125   9.348   7.301   1.909 -0.5708 -1.1571  0.5729
  907MOL0     H25126   9.520   7.336   1.976  0.1150 -0.6033 -1.1194
  907MOL0     H25127   9.449   7.187   1.967  0.2590  0.0307  0.3760
  907MOL0     H25128   9.247   6.924   1.951 -3.3367 -0.4618  1.3133
  907MOL0     H25129   9.065   6.767   1.969 -1.0474  1.2481  1.4011
  907MOL0     H25130   8.840   6.674   1.596  1.8297  4.1798 -0.6420
  907MOL0     H25131   8.745   6.597   1.720  0.8036 -0.0899  0.7516
  907MOL0     H25132   8.740   6.890   1.655  1.0570 -0.8358  1.0981
  907MOL0     H25133   8.606   6.786   1.644  1.5343  0.7362 -3.8121
  907MOL0     H25134   8.754   6.870   1.897  1.8138 -0.1813 -1.0461
  907MOL0     H25135   8.615   6.759   1.884 -1.9003  1.6722  1.1789
  907MOL0     H25136   8.484   6.943   1.775  0.6346  0.5220  0.0189
  907MOL0     H25137   8.610   7.057   1.810 -2.7245  0.3342 -1.1378
  907MOL0     H25138   8.414   7.028   1.988 -0.7603  0.0386 -4.6745
  907MOL0     H25139   8.519   6.904   2.054  2.3680  1.4517  2.4156
  907MOL0     H25140   8.611   7.185   1.979  1.2272  0.6635  0.6726
  907MOL0     H25141   8.712   7.071   2.075 -0.2632  3.2867  2.0486
  907MOL0     H25142   8.567   7.070   2.250 -1.5038 -0.6200  0.0877
  907MOL0     H25143   8.456   7.183   2.153 -0.4408  1.8619  1.8474
  907MOL0     H25144   8.632   7.361   2.166  4.1789  0.6959  0.5573
  907MOL0     H25145   8.733   7.249   2.258 -0.5208 -2.7506  0.8137
  907MOL0     H25146   8.974   6.799   1.558 -0.4895  1.7681 -0.3730
  907MOL0     H25147   9.137   6.985   1.531 -0.7090 -0.7325 -1.3055
  907MOL0     H25148   9.579   7.093   1.490  1.4640 -0.5301 -0.2530
  907MOL0     H25149   9.720   7.262   1.428 -1.0795 -0.0161 -1.3042
  907MOL0     H25150   9.181   8.962   1.373  0.3767  2.5858 -2.4515
  907MOL0     H25151   9.327   9.118   1.259 -2.9172 -1.1376  0.9320
  907MOL0     H25152   9.768   9.320   1.329  2.7899  4.8162  2.4070
  907MOL0     H25153   9.946   9.481   1.263 -2.1908  0.6004  0.5719
  907MOL0     H25154  10.118   9.491   1.115  3.2249  0.5348 -2.3981
  907MOL0     H25155  10.154   9.575   0.969 -0.4684 -1.0013 -0.2955
  907MOL0     H25156  10.056   9.683   1.233  0.8051 -0.1531  1.3285
  907MOL0     H25157  10.062   9.785   1.087  4.9959  1.3117 -3.2855
  907MOL0     H25158  10.293   9.743   1.036 -4.2013  0.6365 -1.6532
  907MOL0     H25159  10.275   9.823   1.191  1.5106  0.3409 -0.3699
  907MOL0     H25160  10.447   9.662   1.204 -0.2911 -0.4633 -2.8624
  907MOL0     H25161  10.360   9.524   1.148  2.2382  0.0441  0.2818
  907MOL0     H25162  10.232   9.561   1.566 -1.8959 -0.9903 -0.6238
  907MOL0     H25163   9.771   9.500   0.872  0.7442 -0.2112  0.2809
  907MOL0     H25164   9.614   9.336   0.793  2.0334 -1.5638 -0.3427
  907MOL0     H25165   9.632   9.184   0.892  3.3147  0.4027  3.4203
  907MOL0     H25166   9.503   9.299   0.931 -0.5015 -0.5132 -1.1863
  908MOL0     O25167   8.528   5.853   9.887  0.0359 -0.0757 -0.3096
  908MOL0     C25168   8.497   5.975   9.872  0.2368 -0.4496  0.0333
  908MOL0     O25169   8.420   6.037   9.977 -0.7960 -0.2866 -0.9214
  908MOL0     C25170   8.395   5.973  10.094  0.4942 -0.1479  0.3831
  908MOL0     C25171   8.337   5.848  10.112 -0.5018 -0.9498 -1.0916
  908MOL0     C25172   8.310   5.800  10.240  0.4344 -0.8145 -0.3025
  908MOL0     C25173   8.335   5.876  10.348 -0.2784 -0.0181 -1.3112
  908MOL0     O25174   8.319   5.831  10.480 -0.3938  0.7658  0.7018
  908MOL0     C25175   8.283   5.687  10.495 -0.4026  0.0999 -0.2421
  908MOL0     C25176   8.242   5.668  10.639  0.6137 -0.2840  0.1320
  908MOL0     C25177   8.357   5.681  10.733 -0.6435 -0.5574  0.2739
  908MOL0     C25178   8.373   5.560  10.831 -0.9575  0.2984 -0.4025
  908MOL0     C25179   8.429   5.430  10.771 -0.1455  0.3826 -0.2906
  908MOL0     C25180   8.425   5.304  10.864 -0.1697  0.4037  0.0238
  908MOL0     C25181   8.283   5.284  10.911 -0.2252 -0.1224 -0.6519
  908MOL0     C25182   8.279   5.146  10.975  0.8463  0.3311 -0.1594
  908MOL0     N25183   8.170   5.145  11.069  0.9869 -0.5652 -0.5350
  908MOL0     C25184   8.089   5.033  11.089 -0.5016  0.1016  0.5040
  908MOL0     C25185   8.008   5.062  11.196  0.2042  0.1739  0.6272
  908MOL0     C25186   7.903   4.982  11.272 -0.2370  0.4195 -0.0450
  908MOL0     C25187   7.839   4.872  11.194  0.2403  0.1814 -0.0569
  908MOL0     C25188   7.753   4.913  11.065  0.2560 -0.3466 -0.1916
  908MOL0     C25189   7.618   4.976  11.097 -0.2758 -0.3259 -0.3861
  908MOL0     O25190   7.569   5.006  10.967 -0.6418  0.1342 -0.0930
  908MOL0     C25191   7.472   5.099  10.955  0.7191 -0.3816  0.0778
  908MOL0     C25192   7.432   5.118  10.826  0.1683  0.9189 -1.0603
  908MOL0     C25193   7.335   5.220  10.800 -0.1391  0.1863  0.0320
  908MOL0     C25194   7.296   5.230  10.657  0.4063  0.1678  0.3837
  908MOL0     C25195   7.291   5.314  10.900  0.5391  0.1301 -1.6211
  908MOL0     C25196   7.197   5.425  10.890  0.4316  0.5441 -0.1134
  908MOL0     O25197   7.217   5.523  10.988 -0.2415  0.4533 -0.0977
  908MOL0     C25198   7.144   5.635  10.985 -0.8495 -0.2151 -0.2838
  908MOL0     C25199   7.137   5.724  10.880  0.0267  0.2472  0.0636
  908MOL0     C25200   7.072   5.847  10.885 -0.3562  0.7789  0.3315
  908MOL0     C25201   6.994   5.876  10.997  0.0339 -0.0843 -0.3334
  908MOL0     O25202   6.913   5.987  11.010  0.0713 -0.6128  0.4328
  908MOL0     C25203   6.991   6.092  11.046 -0.3565  0.6170 -0.2277
  908MOL0     C25204   6.928   6.227  11.051 -0.0415 -0.7918 -0.6390
  908MOL0     C25205   7.049   6.334  11.091  0.8840 -0.1875 -0.1682
  908MOL0     C25206   7.002   6.488  11.083  0.6912  0.3360  0.7655
  908MOL0     C25207   7.112   6.581  11.070 -0.6669  0.0135 -0.4708
  908MOL0     C25208   7.066   6.718  11.109 -0.7323  0.2739 -0.6019
  908MOL0     C25209   7.191   6.812  11.122 -0.0034 -0.6343 -0.1814
  908MOL0     C25210   7.157   6.960  11.157  0.3356 -0.8577 -0.7054
  908MOL0    Cl25211   7.094   6.980  11.325 -0.1267 -0.3594 -0.2816
  908MOL0     C25212   7.003   5.784  11.104  0.2385  0.9896 -0.1126
  908MOL0     C25213   7.087   5.672  11.106 -0.1820 -1.0741 -0.5124
  908MOL0     O25214   7.115   5.428  10.798 -0.1559 -0.2308 -0.1314
  908MOL0     C25215   7.345   5.294  11.032 -0.0408  0.0429  0.3268
  908MOL0     C25216   7.444   5.196  11.055 -0.2504 -0.6620 -0.5729
  908MOL0     N25217   8.036   5.194  11.233 -0.5471 -0.1057 -1.1255
  908MOL0     N25218   8.143   5.229  11.167  0.2060 -0.1539  0.2154
  908MOL0     C25219   8.389   6.008  10.330 -0.1596  0.2282  0.7779
  908MOL0     C25220   8.414   6.057  10.201 -1.1621 -0.4836 -0.3272
  908MOL0     C25221   8.543   6.052   9.750  0.5747 -0.0962 -0.4134
  908MOL0     C25222   8.547   6.197   9.760 -0.7128  0.7777 -0.2566
  908MOL0     C25223   8.580   6.274   9.648 -0.1199 -0.0599 -0.8131
  908MOL0     C25224   8.626   6.213   9.528  1.0594 -0.0376 -0.2845
  908MOL0     O25225   8.665   6.298   9.425  1.1612  0.0821 -0.5824
  908MOL0     C25226   8.808   6.299   9.411 -0.2210 -0.1402  0.0512
  908MOL0     C25227   8.870   6.425   9.470  0.2055  0.1501  0.0957
  908MOL0     C25228   8.846   6.555   9.379  0.2501  0.8559 -0.5371
  908MOL0     C25229   8.883   6.664   9.468 -0.9034  0.3543 -0.5476
  908MOL0     C25230   8.872   6.799   9.414 -0.2601 -0.2088 -0.3992
  908MOL0     C25231   8.864   6.916   9.377 -0.2721 -0.0193 -0.4830
  908MOL0     C25232   8.615   6.077   9.515  0.3887  0.1499 -0.4463
  908MOL0     C25233   8.574   5.999   9.619 -0.7831 -0.0366  0.6523
  908MOL0     C25234   8.597   5.851   9.592  0.4856  0.6059  0.1326
  908MOL0     H25235   8.313   5.779  10.031 -1.4617 -2.0304  0.0761
  908MOL0     H25236   8.269   5.700  10.245  2.6268 -1.7914 -0.4642
  908MOL0     H25237   8.367   5.626  10.458 -1.8180 -2.1152  0.0179
  908MOL0     H25238   8.196   5.657  10.435  0.3614 -2.7346 -0.0788
  908MOL0     H25239   8.162   5.735  10.670  1.8389  0.4399  1.9095
  908MOL0     H25240   8.204   5.566  10.649 -0.8250  0.2195  0.0093
  908MOL0     H25241   8.452   5.697  10.681 -1.6423  0.9983 -1.1808
  908MOL0     H25242   8.359   5.776  10.787  3.8883  1.1828 -2.3354
  908MOL0     H25243   8.451   5.581  10.906 -1.8295  1.2937  0.2488
  908MOL0     H25244   8.276   5.537  10.875 -1.7284 -1.8080 -2.9316
  908MOL0     H25245   8.530   5.447  10.735 -0.9346  1.4353 -2.0978
  908MOL0     H25246   8.374   5.413  10.678 -2.0365  0.5276  0.7259
  908MOL0     H25247   8.458   5.217  10.809  2.8455  0.6022  1.3497
  908MOL0     H25248   8.497   5.320  10.945  4.6995 -0.2529 -3.7789
  908MOL0     H25249   8.212   5.296  10.828  1.2719 -0.3187 -2.0080
  908MOL0     H25250   8.269   5.365  10.984  0.8547 -3.5108  3.7026
  908MOL0     H25251   8.264   5.082  10.888  4.8811 -3.3090  1.5030
  908MOL0     H25252   8.374   5.121  11.021  0.8268  1.1026  0.3184
  908MOL0     H25253   8.105   4.934  11.048  2.5466  0.1781  1.2346
  908MOL0     H25254   7.829   5.059  11.296  0.3562  0.2871  2.4137
  908MOL0     H25255   7.954   4.939  11.358  2.4739 -0.3053 -1.8660
  908MOL0     H25256   7.921   4.802  11.174  1.2459  1.4999 -0.7032
  908MOL0     H25257   7.756   4.824  11.247 -0.1943  0.3707 -0.5630
  908MOL0     H25258   7.807   4.983  11.001  2.4852 -2.3341 -0.6039
  908MOL0     H25259   7.724   4.819  11.017  1.0113 -2.3711  3.0035
  908MOL0     H25260   7.551   4.911  11.153 -0.0645  1.0810  1.5992
  908MOL0     H25261   7.636   5.066  11.156 -0.3557 -1.6597  1.7456
  908MOL0     H25262   7.483   5.062  10.748  2.3256  0.3407  0.6745
  908MOL0     H25263   7.348   5.316  10.613 -0.7090  0.6778  0.0360
  908MOL0     H25264   7.187   5.234  10.650  0.2230 -1.3984  1.7280
  908MOL0     H25265   7.317   5.136  10.604 -3.0102  1.4320 -3.7993
  908MOL0     H25266   7.191   5.694  10.790 -0.6169  0.9773 -0.5861
  908MOL0     H25267   7.073   5.927  10.812 -1.0356  0.5499  0.0682
  908MOL0     H25268   7.026   6.073  11.148  1.2550  0.3330 -0.8111
  908MOL0     H25269   7.076   6.093  10.978  0.0317 -0.3429  0.2333
  908MOL0     H25270   6.894   6.257  10.951  1.3804  2.4691 -0.2803
  908MOL0     H25271   6.844   6.242  11.119 -1.5059 -1.2396 -2.2768
  908MOL0     H25272   7.119   6.320  11.007 -0.6855 -0.1130 -1.5455
  908MOL0     H25273   7.100   6.318  11.186  0.0964 -2.5434 -0.0844
  908MOL0     H25274   6.935   6.509  11.168  1.8592  2.4798  1.2347
  908MOL0     H25275   6.951   6.488  10.986 -1.2300 -0.3597  1.7062
  908MOL0     H25276   7.191   6.555  11.141  0.1867 -2.0340 -2.0618
  908MOL0     H25277   7.144   6.565  10.966 -1.6883  0.3148 -0.8488
  908MOL0     H25278   7.018   6.697  11.205 -0.1749 -1.4869 -0.6684
  908MOL0     H25279   7.002   6.757  11.030 -0.5356  0.6649 -0.5697
  908MOL0     H25280   7.251   6.815  11.031 -0.0999 -0.0370 -0.2280
  908MOL0     H25281   7.258   6.776  11.201 -0.0420 -0.9638 -0.2943
  908MOL0     H25282   7.094   7.004  11.079 -0.4564 -0.0012  0.3780
  908MOL0     H25283   7.242   7.029  11.147 -0.1014  0.1981  1.8773
  908MOL0     H25284   6.967   5.816  11.202  3.2968  1.0028  1.1009
  908MOL0     H25285   7.089   5.614  11.197 -1.7417 -0.2587  0.0589
  908MOL0     H25286   7.317   5.342  11.125  2.2629  4.1517 -0.8546
  908MOL0     H25287   7.480   5.189  11.157  0.0262  0.1111 -0.6168
  908MOL0     H25288   8.418   6.074  10.411  1.5052  1.1548 -0.5020
  908MOL0     H25289   8.460   6.154  10.180 -1.2353  0.3710  2.9025
  908MOL0     H25290   8.518   6.240   9.855 -0.1282  0.4059  0.0989
  908MOL0     H25291   8.595   6.381   9.655  0.2484 -0.1704  0.3453
  908MOL0     H25292   8.859   6.209   9.445  0.2128 -0.4141 -1.2576
  908MOL0     H25293   8.832   6.302   9.304  0.1758  3.2454  0.1240
  908MOL0     H25294   8.977   6.398   9.466 -0.0728 -1.2887 -4.9775
  908MOL0     H25295   8.827   6.440   9.569 -1.2827 -2.0458 -0.1384
  908MOL0     H25296   8.915   6.555   9.294  0.0489  1.0968 -0.6991
  908MOL0     H25297   8.740   6.577   9.367 -0.2633  0.5206  2.4475
  908MOL0     H25298   8.986   6.646   9.499 -1.4052 -1.1911  0.3247
  908MOL0     H25299   8.827   6.671   9.561 -1.5920  0.9507 -0.9992
  908MOL0     H25300   8.854   7.019   9.348 -1.5825  0.6166  1.9502
  908MOL0     H25301   8.641   6.026   9.423 -0.0162 -2.6188  0.8796
  908MOL0     H25302   8.698   5.828   9.628  0.3363  3.8701  3.1648
  908MOL0     H25303   8.526   5.798   9.656  0.2863  2.8240  1.8597
  908MOL0     H25304   8.569   5.831   9.488 -0.4265  0.8735  0.3198
  909MOL0     O25305   0.334  10.956  11.387  0.3709 -0.0825  0.6798
  909MOL0     C25306   0.308  10.841  11.398  0.0562  0.0135 -0.3945
  909MOL0     O25307   0.352  10.763  11.496  0.2244 -0.2382  0.0191
  909MOL0     C25308   0.468  10.796  11.553 -0.2711 -0.1530  0.4361
  909MOL0     C25309   0.583  10.780  11.493 -0.3082 -0.0657  0.0754
  909MOL0     C25310   0.703  10.847  11.536  0.4182 -0.9707 -0.0832
  909MOL0     C25311   0.702  10.911  11.661 -0.5828  0.2074 -0.1556
  909MOL0     O25312   0.808  10.964  11.729 -0.5824 -0.5467 -0.3750
  909MOL0     C25313   0.937  10.974  11.672 -0.0809  0.0015  0.1312
  909MOL0     C25314   1.024  11.066  11.759  0.6877 -0.5771  0.6296
  909MOL0     C25315   0.949  11.202  11.807 -0.8581  0.3656 -0.5399
  909MOL0     C25316   0.946  11.310  11.697  0.4062 -0.1837  0.2948
  909MOL0     C25317   0.889  11.443  11.745  0.6350 -1.3199 -0.5187
  909MOL0     C25318   0.992  11.557  11.768 -0.4812  0.0991 -0.2083
  909MOL0     C25319   0.922  11.672  11.850 -1.1492  0.8263 -0.6800
  909MOL0     C25320   1.015  11.795  11.865 -0.1729 -0.7348  0.2394
  909MOL0     N25321   1.129  11.782  11.952 -0.2667  0.0778 -0.4019
  909MOL0     C25322   1.115  11.745  12.078 -0.4365  0.0609  0.4205
  909MOL0     C25323   1.232  11.771  12.131  0.3704  0.1482 -0.3819
  909MOL0     C25324   1.267  11.747  12.276 -0.2557  0.3375 -1.3832
  909MOL0     C25325   1.286  11.890  12.338 -0.3581  0.6939 -0.0499
  909MOL0     C25326   1.329  11.874  12.487  0.0710  0.1648  0.7255
  909MOL0     C25327   1.367  12.002  12.554  0.6441 -0.9922  0.2221
  909MOL0     O25328   1.381  11.981  12.696 -0.7384  0.0483 -0.4682
  909MOL0     C25329   1.364  12.079  12.792  0.3786 -0.2996  0.9540
  909MOL0     C25330   1.327  12.034  12.917 -0.4562  0.0352 -0.4023
  909MOL0     C25331   1.297  12.114  13.027 -0.6405 -0.2949 -0.4059
  909MOL0     C25332   1.258  12.049  13.166 -0.3442 -0.3845  0.4733
  909MOL0     C25333   1.325  12.256  13.018  0.8818 -0.2871  0.7004
  909MOL0     C25334   1.310  12.364  13.122  0.5638  0.1238 -0.7139
  909MOL0     O25335   1.299  12.489  13.071 -0.4700  0.1439  0.2250
  909MOL0     C25336   1.218  12.584  13.130 -1.3701  0.1903  0.2362
  909MOL0     C25337   1.087  12.557  13.176  0.0280 -0.5993  0.3013
  909MOL0     C25338   1.013  12.666  13.228  0.5308 -0.7136  0.4596
  909MOL0     C25339   1.063  12.795  13.238  0.7794 -0.6883  0.4396
  909MOL0     O25340   0.975  12.892  13.288 -0.2166  0.5022 -0.2361
  909MOL0     C25341   1.013  13.029  13.314 -0.3333 -0.0061 -0.4036
  909MOL0     C25342   1.088  13.038  13.447  0.2217 -0.2120 -0.3600
  909MOL0     C25343   1.135  13.185  13.462 -1.1557 -0.4807 -0.2710
  909MOL0     C25344   1.221  13.223  13.592  0.1220 -0.4209  0.4211
  909MOL0     C25345   1.172  13.171  13.734  0.4075  0.6835  0.2555
  909MOL0     C25346   1.267  13.205  13.847 -0.4738  0.4663 -0.1956
  909MOL0     C25347   1.234  13.146  13.985  0.3769  0.6206  0.1828
  909MOL0     C25348   1.093  13.160  14.040 -0.6847  0.1054  0.7528
  909MOL0    Cl25349   1.062  13.333  14.077  0.3075 -0.4665  0.3182
  909MOL0     C25350   1.197  12.818  13.204  0.1965 -0.2975  0.0256
  909MOL0     C25351   1.273  12.706  13.149  0.5769  0.0041  0.3025
  909MOL0     O25352   1.297  12.328  13.235  0.8055  0.2788 -0.6892
  909MOL0     C25353   1.345  12.300  12.880 -0.5262 -0.0724 -0.3065
  909MOL0     C25354   1.367  12.215  12.772 -0.7009 -0.3666  0.5426
  909MOL0     N25355   1.319  11.820  12.031 -0.1549 -0.4141  0.6511
  909MOL0     N25356   1.247  11.833  11.930  0.1799  0.2592  0.7194
  909MOL0     C25357   0.578  10.919  11.730 -0.3890 -0.5887 -0.4379
  909MOL0     C25358   0.461  10.866  11.672  0.2124 -0.0869  0.4045
  909MOL0     C25359   0.220  10.773  11.294 -0.1849  0.1385  0.0622
  909MOL0     C25360   0.176  10.641  11.321 -0.8581 -1.2588 -0.0162
  909MOL0     C25361   0.075  10.584  11.244  0.1564  0.4039 -0.2884
  909MOL0     C25362   0.022  10.649  11.135 -0.0587  0.0969 -0.0621
  909MOL0     O25363  -0.072  10.594  11.048  0.0707 -0.4608 -0.5958
  909MOL0     C25364  -0.055  10.468  10.980  0.5869 -0.3321 -0.1108
  909MOL0     C25365  -0.133  10.470  10.847 -0.2576 -0.1456 -1.0505
  909MOL0     C25366  -0.279  10.425  10.871 -0.3753 -1.0866 -0.3753
  909MOL0     C25367  -0.355  10.548  10.930  0.2118 -0.5716 -0.3251
  909MOL0     C25368  -0.398  10.639  10.819 -0.4842  0.3070  0.2666
  909MOL0     C25369  -0.445  10.703  10.726 -0.3212  1.0087  0.2177
  909MOL0     C25370   0.071  10.779  11.107  0.5918 -0.1617  0.2726
  909MOL0     C25371   0.172  10.845  11.176  0.9854  0.0762  0.3381
  909MOL0     C25372   0.194  10.990  11.138  0.4152 -0.0099  0.5861
  909MOL0     H25373   0.578  10.717  11.405 -2.2792  1.2471 -0.8099
  909MOL0     H25374   0.795  10.845  11.480  2.3102  1.0509  2.6993
  909MOL0     H25375   0.935  11.012  11.569 -0.0708  1.4262  0.6324
  909MOL0     H25376   0.979  10.873  11.678 -1.7229 -0.6534  1.0317
  909MOL0     H25377   1.045  11.006  11.848  1.1324  0.5051  1.2684
  909MOL0     H25378   1.115  11.099  11.708 -0.5508  1.6733 -0.2670
  909MOL0     H25379   0.852  11.174  11.849 -0.4210  2.9194  2.5861
  909MOL0     H25380   1.006  11.232  11.895 -1.7848 -0.3627  0.3285
  909MOL0     H25381   1.037  11.325  11.638 -0.4597  1.5558 -0.6831
  909MOL0     H25382   0.870  11.282  11.625 -2.5360  4.2514  1.2680
  909MOL0     H25383   0.836  11.428  11.840 -1.2955  4.7171 -0.2193
  909MOL0     H25384   0.807  11.491  11.691 -1.4211 -2.0694  1.7238
  909MOL0     H25385   1.071  11.519  11.834 -0.2807 -0.1827 -0.6099
  909MOL0     H25386   1.029  11.599  11.675 -3.2759  2.3617 -0.4187
  909MOL0     H25387   0.896  11.641  11.951  2.2344  0.6970  0.3000
  909MOL0     H25388   0.837  11.705  11.790  1.0916  1.3030 -3.9024
  909MOL0     H25389   1.047  11.817  11.762 -0.4721 -4.6469 -0.8472
  909MOL0     H25390   0.946  11.877  11.884  0.9458  0.4369 -0.5419
  909MOL0     H25391   1.027  11.721  12.137 -0.5131  3.3553  1.8197
  909MOL0     H25392   1.352  11.680  12.290 -3.0400 -3.1489  0.7834
  909MOL0     H25393   1.179  11.705  12.327 -0.9371  2.5238 -0.6140
  909MOL0     H25394   1.368  11.945  12.290  2.5926 -2.2469  1.1881
  909MOL0     H25395   1.189  11.938  12.324 -2.1807 -2.2593  1.5826
  909MOL0     H25396   1.249  11.822  12.540  1.8436 -1.6671  1.7617
  909MOL0     H25397   1.422  11.816  12.482  1.5231  2.3984  0.1575
  909MOL0     H25398   1.456  12.043  12.506  0.9077 -0.6979  0.9455
  909MOL0     H25399   1.283  12.071  12.544  0.4174 -0.9928  1.8763
  909MOL0     H25400   1.324  11.925  12.913 -1.3676  0.0668 -0.8602
  909MOL0     H25401   1.181  12.099  13.225 -0.2327 -0.8863  1.0533
  909MOL0     H25402   1.350  12.037  13.225  0.1595 -1.6423 -0.5152
  909MOL0     H25403   1.228  11.945  13.146 -0.5606 -0.6492  2.0602
  909MOL0     H25404   1.045  12.459  13.158 -0.3589 -0.5917  1.1425
  909MOL0     H25405   0.909  12.655  13.256 -0.2069  1.6376 -1.0173
  909MOL0     H25406   1.066  13.083  13.235  0.2498  1.6621  1.0606
  909MOL0     H25407   0.920  13.086  13.320  0.7044  1.7950 -0.7022
  909MOL0     H25408   1.026  13.020  13.536 -1.3036  4.4917 -0.1968
  909MOL0     H25409   1.170  12.965  13.449 -0.4410 -0.9843 -0.6330
  909MOL0     H25410   1.044  13.246  13.473 -1.1465  0.0092 -2.5536
  909MOL0     H25411   1.180  13.221  13.369 -1.9324  0.3441 -0.3449
  909MOL0     H25412   1.235  13.332  13.591  1.6509 -0.6112 -0.0256
  909MOL0     H25413   1.313  13.168  13.572 -0.8603 -0.9466 -3.4127
  909MOL0     H25414   1.076  13.222  13.747  0.4371  1.1923 -1.2583
  909MOL0     H25415   1.158  13.063  13.724  4.6065  0.1285 -2.3794
  909MOL0     H25416   1.285  13.312  13.848  2.8141  0.0276  2.6114
  909MOL0     H25417   1.366  13.176  13.811  1.0841  2.6411  2.0154
  909MOL0     H25418   1.314  13.175  14.053  1.9838 -1.9239 -0.5076
  909MOL0     H25419   1.245  13.039  13.967  3.7562  0.9356 -0.1360
  909MOL0     H25420   1.073  13.095  14.126 -1.2631  0.0567  0.5865
  909MOL0     H25421   1.017  13.131  13.967 -2.2739  1.2306  1.8744
  909MOL0     H25422   1.241  12.917  13.203  4.3473 -1.9141 -0.8305
  909MOL0     H25423   1.371  12.711  13.103  1.9305  0.5689  3.0979
  909MOL0     H25424   1.347  12.403  12.846 -0.6104 -0.2260 -0.7696
  909MOL0     H25425   1.410  12.271  12.689  1.2676  2.1853  3.0652
  909MOL0     H25426   0.568  10.967  11.826 -0.3024 -2.5629  0.6167
  909MOL0     H25427   0.361  10.872  11.713  1.2148 -2.5726  3.6073
  909MOL0     H25428   0.223  10.586  11.402  0.0528  1.9450  1.8085
  909MOL0     H25429   0.039  10.484  11.267 -1.7431  1.0607 -0.1749
  909MOL0     H25430   0.048  10.452  10.948 -0.7759 -3.0266 -3.8849
  909MOL0     H25431  -0.086  10.389  11.050 -1.8411 -0.2142 -0.9634
  909MOL0     H25432  -0.094  10.396  10.777 -1.2648 -1.9073  0.1556
  909MOL0     H25433  -0.129  10.568  10.799 -3.8571 -0.3577 -2.0694
  909MOL0     H25434  -0.331  10.390  10.782 -2.9391  1.8002 -0.2120
  909MOL0     H25435  -0.284  10.348  10.949 -2.9863  1.7475  2.5491
  909MOL0     H25436  -0.295  10.606  11.001  0.4553 -0.2145 -0.8148
  909MOL0     H25437  -0.442  10.518  10.989 -0.3596  0.4227 -0.6486
  909MOL0     H25438  -0.493  10.748  10.641 -0.4033 -1.3474 -1.0695
  909MOL0     H25439   0.015  10.833  11.031 -0.2082  1.4508  1.9176
  909MOL0     H25440   0.145  11.048  11.217 -1.5915 -0.9214  0.0737
  909MOL0     H25441   0.302  11.009  11.146  0.3887 -0.3299  2.0355
  909MOL0     H25442   0.150  11.017  11.042 -2.3265  1.1999  2.0699
  910MOL0     O25443   2.562  10.001  10.117 -0.6777 -0.6472  0.1368
  910MOL0     C25444   2.618   9.947  10.216  0.0269  0.0800  0.0805
  910MOL0     O25445   2.646   9.809  10.226  0.0610 -0.6580  0.2814
  910MOL0     C25446   2.650   9.731  10.111  0.2135 -0.5147  0.1791
  910MOL0     C25447   2.580   9.608  10.111  0.5052 -0.0904  0.2598
  910MOL0     C25448   2.556   9.536   9.995  0.1941  0.2403 -0.4974
  910MOL0     C25449   2.613   9.582   9.878 -0.3763 -0.1903 -0.7564
  910MOL0     O25450   2.585   9.507   9.769 -0.3999 -0.5863 -0.6381
  910MOL0     C25451   2.655   9.385   9.776 -0.3057 -0.0508 -0.1359
  910MOL0     C25452   2.666   9.337   9.630 -0.0747  0.7735 -0.1363
  910MOL0     C25453   2.771   9.426   9.551  0.0196  0.7648  0.2010
  910MOL0     C25454   2.796   9.372   9.407 -0.2707 -0.4816  0.2861
  910MOL0     C25455   2.864   9.237   9.404  0.1553  0.8312  0.9050
  910MOL0     C25456   2.881   9.173   9.262  0.2875 -0.2517  0.3235
  910MOL0     C25457   2.939   9.274   9.171 -0.2329  1.2375 -0.3221
  910MOL0     C25458   3.014   9.214   9.044  0.5943 -0.7367 -0.1019
  910MOL0     N25459   3.137   9.153   9.088 -0.0101  0.4452  0.2910
  910MOL0     C25460   3.172   9.026   9.119  0.7391 -0.8572 -0.4178
  910MOL0     C25461   3.288   9.029   9.187 -0.9130  0.7775 -1.0055
  910MOL0     C25462   3.360   8.912   9.250  0.7399 -0.0024  0.2189
  910MOL0     C25463   3.381   8.788   9.158  0.5741 -0.5116 -0.6582
  910MOL0     C25464   3.466   8.668   9.214  0.3412 -0.3096 -0.6154
  910MOL0     C25465   3.376   8.582   9.305 -0.3199 -0.2517 -0.0335
  910MOL0     O25466   3.261   8.535   9.235  0.4874 -0.6055  0.0783
  910MOL0     C25467   3.273   8.415   9.175 -1.0239 -0.9439 -0.4673
  910MOL0     C25468   3.246   8.302   9.250  0.2915 -0.7480 -0.6963
  910MOL0     C25469   3.252   8.177   9.205  0.4006  0.0214  0.2486
  910MOL0     C25470   3.222   8.054   9.285  0.5814 -0.4696  1.4559
  910MOL0     C25471   3.303   8.155   9.070  0.4508 -0.2666  0.1524
  910MOL0     C25472   3.339   8.024   9.007  0.1204 -0.4736 -0.1762
  910MOL0     O25473   3.454   7.952   9.057  0.1358 -0.1294  0.6335
  910MOL0     C25474   3.501   7.840   8.982  0.4538 -0.0909 -0.1822
  910MOL0     C25475   3.509   7.732   9.058 -0.6722  0.1303 -0.7131
  910MOL0     C25476   3.556   7.612   9.004 -0.2558  0.3447 -0.7908
  910MOL0     C25477   3.579   7.599   8.873  0.4188  0.7465  0.6517
  910MOL0     O25478   3.610   7.486   8.805  0.1490  0.8608 -0.2327
  910MOL0     C25479   3.692   7.384   8.877  0.3824 -0.3007  0.8918
  910MOL0     C25480   3.758   7.305   8.761 -0.1628  0.1344 -0.2797
  910MOL0     C25481   3.861   7.196   8.801 -0.4741  0.6781 -0.2330
  910MOL0     C25482   3.798   7.097   8.898 -0.3450  0.2320  0.1504
  910MOL0     C25483   3.868   6.970   8.913  0.3334 -0.3306 -0.2925
  910MOL0     C25484   3.800   6.869   9.004 -0.4272  0.8182 -0.4640
  910MOL0     C25485   3.783   6.910   9.148 -1.0991  0.5026 -1.0951
  910MOL0     C25486   3.686   6.817   9.217  0.5290  0.4137 -0.0341
  910MOL0    Cl25487   3.770   6.656   9.201  0.3393  0.2004 -0.1052
  910MOL0     C25488   3.566   7.716   8.795  0.3933 -0.1762 -0.8828
  910MOL0     C25489   3.534   7.830   8.850 -0.0953 -0.1494  0.0385
  910MOL0     O25490   3.261   7.996   8.914 -0.5649 -0.5965 -0.0252
  910MOL0     C25491   3.327   8.268   8.991 -0.7767 -0.4859 -0.0346
  910MOL0     C25492   3.310   8.401   9.043  1.4295  0.6304  0.0703
  910MOL0     N25493   3.332   9.155   9.190  0.7765  0.6088 -0.7956
  910MOL0     N25494   3.246   9.227   9.133  0.6515 -0.3154 -0.1150
  910MOL0     C25495   2.687   9.696   9.881  0.0524  0.1183  0.4940
  910MOL0     C25496   2.701   9.781   9.993  0.1224 -0.0362  0.5483
  910MOL0     C25497   2.665  10.034  10.322 -0.9926  0.0721 -1.2086
  910MOL0     C25498   2.742   9.973  10.431  0.0263  0.3323  0.2793
  910MOL0     C25499   2.793  10.052  10.538  0.5900 -0.1614  1.0034
  910MOL0     C25500   2.765  10.188  10.549 -0.7063  0.3064  0.6162
  910MOL0     O25501   2.813  10.265  10.650 -0.1568 -0.1213 -0.0757
  910MOL0     C25502   2.923  10.226  10.730 -0.6911 -0.6382 -0.1562
  910MOL0     C25503   2.962  10.359  10.791 -0.3666  0.1568  0.3678
  910MOL0     C25504   3.100  10.338  10.838 -0.8686 -0.8381  0.4072
  910MOL0     C25505   3.138  10.474  10.911 -0.4021 -0.2929  0.1900
  910MOL0     C25506   3.116  10.459  11.056  0.3887 -0.3139  0.2051
  910MOL0     C25507   3.121  10.469  11.172 -0.7916  0.0847 -1.4198
  910MOL0     C25508   2.689  10.242  10.449 -0.7776  0.1171  0.9372
  910MOL0     C25509   2.643  10.173  10.334  0.0711 -0.1153 -0.3059
  910MOL0     C25510   2.568  10.255  10.232 -0.0688 -1.0044  0.0722
  910MOL0     H25511   2.515   9.582  10.194  1.0257  0.7495  0.9509
  910MOL0     H25512   2.481   9.458   9.987  0.3266  0.0543  0.0607
  910MOL0     H25513   2.606   9.305   9.833 -2.0406 -0.7677 -2.5149
  910MOL0     H25514   2.758   9.402   9.809  0.5482  1.8168 -3.3390
  910MOL0     H25515   2.692   9.231   9.631 -2.0880  0.2302 -0.6194
  910MOL0     H25516   2.573   9.347   9.575 -0.1948  0.2347 -0.0397
  910MOL0     H25517   2.717   9.520   9.538 -0.7683  0.1174 -1.4624
  910MOL0     H25518   2.860   9.425   9.615  1.0162 -3.5714 -0.9309
  910MOL0     H25519   2.695   9.372   9.367 -0.6557 -2.4080  1.1494
  910MOL0     H25520   2.851   9.436   9.337 -0.3184  0.6803  1.2709
  910MOL0     H25521   2.804   9.164   9.459  0.7475  0.2174  0.7566
  910MOL0     H25522   2.961   9.256   9.450  2.3130  0.0777 -2.9127
  910MOL0     H25523   2.949   9.088   9.256  1.0053  0.2976  0.5181
  910MOL0     H25524   2.780   9.157   9.222 -0.8058  0.8404  2.4731
  910MOL0     H25525   3.016   9.325   9.230 -0.0103 -1.3812  1.8610
  910MOL0     H25526   2.879   9.355   9.128  0.8677  1.1487 -2.1215
  910MOL0     H25527   2.947   9.134   9.009 -1.6556  1.9197 -2.3591
  910MOL0     H25528   3.030   9.291   8.968 -0.4162 -1.6061 -1.2592
  910MOL0     H25529   3.106   8.943   9.099 -2.4008  1.0146  1.3910
  910MOL0     H25530   3.299   8.883   9.336 -1.3308  2.3358 -0.3372
  910MOL0     H25531   3.459   8.953   9.273  1.6819 -2.7318  1.4172
  910MOL0     H25532   3.289   8.743   9.121  0.4563 -2.9368  2.2350
  910MOL0     H25533   3.440   8.828   9.075  1.2791  0.3401  0.2253
  910MOL0     H25534   3.483   8.611   9.122 -3.0169  1.2843 -2.3840
  910MOL0     H25535   3.562   8.708   9.249  0.4791 -1.3851  0.3113
  910MOL0     H25536   3.437   8.497   9.340  2.5568  2.6181  2.5943
  910MOL0     H25537   3.348   8.639   9.394 -2.1423 -1.7020  0.3895
  910MOL0     H25538   3.219   8.314   9.355 -1.2383  0.5473 -1.1917
  910MOL0     H25539   3.126   8.012   9.253 -0.2410  1.4489  1.2738
  910MOL0     H25540   3.196   8.092   9.384 -0.3805  2.7844  0.0808
  910MOL0     H25541   3.295   7.972   9.282 -1.7458 -2.6370 -0.4181
  910MOL0     H25542   3.476   7.721   9.161 -1.6448 -1.5525 -1.1784
  910MOL0     H25543   3.549   7.531   9.075 -0.9895  2.6704  1.9606
  910MOL0     H25544   3.765   7.428   8.945 -0.4223  1.9375  0.3681
  910MOL0     H25545   3.625   7.309   8.920 -0.9310  0.0460 -0.4517
  910MOL0     H25546   3.673   7.259   8.708  0.2506  0.3284 -1.1208
  910MOL0     H25547   3.812   7.371   8.692 -3.4413 -0.8481 -4.2028
  910MOL0     H25548   3.948   7.246   8.845  1.1112  0.1402 -2.5740
  910MOL0     H25549   3.889   7.144   8.709  0.6770  2.2339 -0.8168
  910MOL0     H25550   3.694   7.075   8.871 -0.6213 -0.1135  1.3993
  910MOL0     H25551   3.798   7.146   8.996  0.8319  3.7032 -1.4463
  910MOL0     H25552   3.877   6.919   8.816 -0.1086 -3.7719  1.3395
  910MOL0     H25553   3.966   7.002   8.948  1.5417  0.3579 -3.8204
  910MOL0     H25554   3.872   6.787   8.993 -1.7178 -0.4120  0.0682
  910MOL0     H25555   3.707   6.839   8.956  1.3592 -0.8368 -3.1786
  910MOL0     H25556   3.758   7.016   9.158 -2.2156  0.5339 -3.5954
  910MOL0     H25557   3.874   6.895   9.207 -2.3720 -1.3006  0.5405
  910MOL0     H25558   3.591   6.813   9.165 -1.9106 -0.4817  4.0174
  910MOL0     H25559   3.668   6.836   9.324 -3.4301 -0.8565 -0.3175
  910MOL0     H25560   3.580   7.715   8.688 -2.9420 -0.9442 -1.4230
  910MOL0     H25561   3.537   7.921   8.791 -0.6613  1.3072  2.1364
  910MOL0     H25562   3.372   8.261   8.893  0.1214  0.0406  0.3218
  910MOL0     H25563   3.321   8.479   8.969  0.0181  0.1050 -0.7511
  910MOL0     H25564   2.733   9.720   9.786 -1.5808 -0.1291 -0.3780
  910MOL0     H25565   2.756   9.873   9.981 -0.6627  0.1302 -3.3081
  910MOL0     H25566   2.744   9.864  10.429 -0.8206  0.3100 -1.4734
  910MOL0     H25567   2.834  10.008  10.629  0.7704  0.7399  1.3705
  910MOL0     H25568   2.891  10.153  10.804  0.8679 -0.5318  0.6484
  910MOL0     H25569   3.009  10.180  10.680  2.6923  1.0781  3.5470
  910MOL0     H25570   2.882  10.393  10.857 -2.5929  1.9925 -2.9862
  910MOL0     H25571   2.966  10.431  10.710  1.8090 -0.4605 -0.1343
  910MOL0     H25572   3.118  10.253  10.904 -0.2244 -0.7238  0.3926
  910MOL0     H25573   3.169  10.324  10.754 -0.1295  2.8067  0.2356
  910MOL0     H25574   3.072  10.545  10.860 -1.2337 -1.1804  0.0035
  910MOL0     H25575   3.243  10.499  10.889 -0.4417  1.1262  1.5195
  910MOL0     H25576   3.123  10.481  11.278 -0.9645 -0.8176 -1.3131
  910MOL0     H25577   2.667  10.347  10.464 -0.9926 -0.2654  3.6655
  910MOL0     H25578   2.545  10.356  10.267  1.7835 -1.1017  1.7619
  910MOL0     H25579   2.635  10.266  10.147  0.9844 -0.0140  0.9963
  910MOL0     H25580   2.467  10.217  10.213 -0.6502  0.2585  0.5592
  911MOL0     O25581   6.035  10.553  11.037 -0.1345 -1.1488 -1.3337
  911MOL0     C25582   6.145  10.602  11.009 -0.2807  0.4597 -0.5985
  911MOL0     O25583   6.166  10.715  10.940  0.2063  0.5669 -0.1688
  911MOL0     C25584   6.082  10.821  10.949  0.1129 -0.1531 -0.2589
  911MOL0     C25585   6.139  10.948  10.945 -0.1822 -0.2588 -0.1292
  911MOL0     C25586   6.063  11.072  10.954  0.0135  0.0374 -0.2090
  911MOL0     C25587   5.920  11.059  10.951  0.5184  0.4872 -0.8421
  911MOL0     O25588   5.854  11.173  10.919 -0.8392 -0.0987 -0.6975
  911MOL0     C25589   5.740  11.209  11.002  0.2874  0.2090 -0.1193
  911MOL0     C25590   5.671  11.315  10.937 -0.3142 -0.1120  0.2877
  911MOL0     C25591   5.543  11.349  11.021 -1.7986 -0.5824 -0.6715
  911MOL0     C25592   5.481  11.473  10.967  0.1134  0.3128  0.0889
  911MOL0     C25593   5.366  11.522  11.056 -0.5844 -1.0157 -0.5447
  911MOL0     C25594   5.292  11.635  10.987  0.1274 -0.3310 -0.7561
  911MOL0     C25595   5.203  11.702  11.097 -0.2888  0.0591 -0.1454
  911MOL0     C25596   5.101  11.796  11.037 -0.0508 -0.9876  0.4952
  911MOL0     N25597   4.997  11.846  11.130  0.0228 -0.7724  0.2972
  911MOL0     C25598   4.955  11.766  11.228 -1.2764 -0.6076  0.5669
  911MOL0     C25599   4.900  11.846  11.323 -0.1641  1.4522 -0.5119
  911MOL0     C25600   4.861  11.796  11.460  0.5445  0.8126 -0.0876
  911MOL0     C25601   4.707  11.815  11.489  0.4455  0.7734  0.6344
  911MOL0     C25602   4.677  11.928  11.597 -0.7595 -0.5166 -0.1779
  911MOL0     C25603   4.530  11.937  11.623  0.6339 -0.6253  0.1534
  911MOL0     O25604   4.493  11.826  11.712  0.5038  0.1855 -0.0896
  911MOL0     C25605   4.360  11.786  11.730  0.7364  0.2039  0.3601
  911MOL0     C25606   4.252  11.880  11.721 -0.1927  0.2444 -0.1531
  911MOL0     C25607   4.108  11.839  11.730 -0.4860 -0.0527  0.8147
  911MOL0     C25608   4.001  11.936  11.689  0.9244 -1.5410  0.5867
  911MOL0     C25609   4.081  11.700  11.749  0.4931 -0.5391 -0.2298
  911MOL0     C25610   3.945  11.644  11.739  0.1018  0.3545 -0.0162
  911MOL0     O25611   3.829  11.708  11.789  0.2201 -0.6426  0.3772
  911MOL0     C25612   3.703  11.652  11.760  0.1276 -0.8798  0.1143
  911MOL0     C25613   3.608  11.722  11.680 -0.3345  0.2361  1.1811
  911MOL0     C25614   3.487  11.662  11.658  0.6114 -0.2683  0.0202
  911MOL0     C25615   3.446  11.549  11.709  0.2040  0.9060 -0.1261
  911MOL0     O25616   3.318  11.490  11.695 -0.0147 -0.6347 -0.0394
  911MOL0     C25617   3.220  11.546  11.606 -0.2776 -0.5852  0.1806
  911MOL0     C25618   3.137  11.638  11.681 -0.2323  0.5563  0.0256
  911MOL0     C25619   3.022  11.569  11.759  0.1814 -0.3220 -0.5346
  911MOL0     C25620   2.983  11.657  11.873  0.4442 -0.4537 -0.3753
  911MOL0     C25621   2.868  11.590  11.952  0.7615  1.2754 -0.4514
  911MOL0     C25622   2.917  11.475  12.046  0.6103 -0.0968  0.1688
  911MOL0     C25623   3.019  11.510  12.148  0.2707  0.5534  0.0002
  911MOL0     C25624   2.990  11.463  12.290  0.6957  0.7192  0.2966
  911MOL0    Cl25625   3.109  11.540  12.408 -0.0005 -0.3438  0.1191
  911MOL0     C25626   3.522  11.485  11.803 -0.8432  0.0069  0.3975
  911MOL0     C25627   3.653  11.532  11.821  0.1231 -0.3884  0.4932
  911MOL0     O25628   3.942  11.535  11.680  0.3602  0.4049 -0.2491
  911MOL0     C25629   4.197  11.617  11.769  0.0536  0.3098  0.1213
  911MOL0     C25630   4.327  11.656  11.770  0.5735 -0.3902 -1.0570
  911MOL0     N25631   4.901  11.976  11.275  0.0809  0.1528  0.8552
  911MOL0     N25632   4.962  11.976  11.157  0.1413  0.4499 -0.5789
  911MOL0     C25633   5.870  10.934  10.958 -0.3508  0.1896  0.2432
  911MOL0     C25634   5.942  10.815  10.953 -0.3756 -0.1366 -0.1527
  911MOL0     C25635   6.276  10.532  11.058  1.2227 -0.1619  0.0787
  911MOL0     C25636   6.388  10.605  11.071 -0.2263 -0.3904  0.5753
  911MOL0     C25637   6.515  10.539  11.090 -0.2937  0.5845  0.3936
  911MOL0     C25638   6.529  10.400  11.096  0.0548 -0.3811 -0.9078
  911MOL0     O25639   6.647  10.324  11.100  0.4815  0.1022  0.6045
  911MOL0     C25640   6.763  10.380  11.053 -0.2362 -0.0031  0.3455
  911MOL0     C25641   6.769  10.417  10.904  0.4560  0.1930 -0.0724
  911MOL0     C25642   6.890  10.479  10.841  0.1125  0.1126 -0.0978
  911MOL0     C25643   6.871  10.548  10.699  0.3696  0.1077 -0.2532
  911MOL0     C25644   6.809  10.457  10.598 -0.8519  0.0316  0.3399
  911MOL0     C25645   6.768  10.390  10.502  0.1759  0.7510 -0.3804
  911MOL0     C25646   6.407  10.329  11.096  0.2488  0.4029  0.3822
  911MOL0     C25647   6.283  10.390  11.070 -0.2776 -0.3423 -0.3516
  911MOL0     C25648   6.167  10.299  11.050  0.6029  0.4210 -0.1048
  911MOL0     H25649   6.246  10.961  10.932  0.1651  0.9841  3.0793
  911MOL0     H25650   6.107  11.169  10.936 -3.5249  1.3081 -3.1089
  911MOL0     H25651   5.783  11.256  11.091 -3.0293  0.9661  1.2214
  911MOL0     H25652   5.669  11.134  11.040 -1.0668  1.2013 -0.6113
  911MOL0     H25653   5.738  11.401  10.933 -0.6516  0.1529  0.3478
  911MOL0     H25654   5.648  11.289  10.833  0.8636 -1.1836  0.2644
  911MOL0     H25655   5.460  11.277  11.019 -4.0794  1.9173 -0.5302
  911MOL0     H25656   5.569  11.371  11.125 -4.4509 -0.5259  0.0427
  911MOL0     H25657   5.563  11.543  10.950  0.8311 -0.3048  0.8962
  911MOL0     H25658   5.452  11.448  10.865  2.0605  0.6471 -0.5896
  911MOL0     H25659   5.402  11.554  11.154  1.0290 -1.1380 -1.0712
  911MOL0     H25660   5.297  11.440  11.078 -0.0977 -1.0742  0.8813
  911MOL0     H25661   5.360  11.712  10.950 -0.4524  0.2016 -0.7299
  911MOL0     H25662   5.228  11.600  10.905  1.3988 -0.2678 -1.8240
  911MOL0     H25663   5.262  11.778  11.149 -1.2064  1.2433 -0.7820
  911MOL0     H25664   5.172  11.623  11.165  1.8413 -0.4902  0.2541
  911MOL0     H25665   5.152  11.881  10.990 -4.9818  1.4800 -1.2224
  911MOL0     H25666   5.053  11.745  10.953  3.7299 -1.4566 -1.5991
  911MOL0     H25667   4.962  11.658  11.225  0.8716 -0.5356 -3.5270
  911MOL0     H25668   4.923  11.854  11.529  0.4615  0.9608 -0.1398
  911MOL0     H25669   4.891  11.692  11.477  1.8705  1.0282 -0.9477
  911MOL0     H25670   4.656  11.843  11.396  1.7346  0.9406 -0.0363
  911MOL0     H25671   4.656  11.723  11.521 -2.3306  1.8339 -0.4432
  911MOL0     H25672   4.731  11.906  11.690 -0.2570 -2.2276 -0.8394
  911MOL0     H25673   4.711  12.021  11.552 -3.2017  0.2350 -0.6037
  911MOL0     H25674   4.495  12.030  11.668  1.7258  0.5338 -1.2910
  911MOL0     H25675   4.487  11.923  11.524 -3.0062 -1.9938  1.7912
  911MOL0     H25676   4.273  11.986  11.708  2.6188 -0.2026  0.1623
  911MOL0     H25677   3.931  11.907  11.610 -3.1472  1.3916  2.7049
  911MOL0     H25678   4.034  12.034  11.655 -0.2036 -1.2503  0.2872
  911MOL0     H25679   3.947  11.957  11.782  1.0695 -3.7422  1.2332
  911MOL0     H25680   3.631  11.808  11.618 -0.7542 -0.8651 -0.5581
  911MOL0     H25681   3.415  11.724  11.607  0.8957  0.3274  0.3317
  911MOL0     H25682   3.255  11.598  11.516 -2.8496 -0.1017 -0.6058
  911MOL0     H25683   3.149  11.470  11.573 -3.3469  2.7376 -1.5534
  911MOL0     H25684   3.201  11.688  11.755  1.6564  1.4604 -2.0859
  911MOL0     H25685   3.098  11.712  11.610 -0.2665  4.0726  3.3608
  911MOL0     H25686   3.055  11.472  11.797 -1.3207 -0.0865  1.5293
  911MOL0     H25687   2.934  11.560  11.694 -0.7800  0.0918  0.6756
  911MOL0     H25688   2.944  11.753  11.836 -0.9402  0.3715  2.8774
  911MOL0     H25689   3.068  11.684  11.935 -0.6560  2.7824 -0.0544
  911MOL0     H25690   2.821  11.669  12.013  0.3332  0.9696 -0.3804
  911MOL0     H25691   2.798  11.541  11.884  1.0382  0.8905 -0.4574
  911MOL0     H25692   2.953  11.403  11.971 -1.3608 -1.6170  0.5864
  911MOL0     H25693   2.835  11.423  12.096  0.5102  1.3455  1.5734
  911MOL0     H25694   3.031  11.619  12.147 -1.7925  0.8167 -0.1670
  911MOL0     H25695   3.115  11.462  12.126  1.0365  1.7506  0.6082
  911MOL0     H25696   2.985  11.353  12.293  0.3011  0.7498  1.0197
  911MOL0     H25697   2.889  11.498  12.315  0.0123  0.0824 -1.4206
  911MOL0     H25698   3.477  11.396  11.847 -0.7661 -0.7751 -1.0757
  911MOL0     H25699   3.719  11.482  11.891 -0.8571 -0.8633  1.1060
  911MOL0     H25700   4.170  11.515  11.796 -2.7757  1.2113  1.0999
  911MOL0     H25701   4.404  11.590  11.807 -1.6180 -0.8353  3.3976
  911MOL0     H25702   5.763  10.934  10.940 -0.3545  0.3598  0.2623
  911MOL0     H25703   5.886  10.723  10.945 -0.1003 -0.3248  0.0525
  911MOL0     H25704   6.376  10.712  11.063 -1.4013 -0.5253  0.3324
  911MOL0     H25705   6.611  10.589  11.088  0.0960 -0.1774 -0.5933
  911MOL0     H25706   6.781  10.466  11.119 -2.6846  2.0885 -1.4917
  911MOL0     H25707   6.846  10.314  11.078 -1.2102 -1.0297  0.9619
  911MOL0     H25708   6.692  10.494  10.893  0.3605  0.3530  1.5130
  911MOL0     H25709   6.741  10.325  10.853  1.0146 -1.7598  2.8875
  911MOL0     H25710   6.929  10.557  10.907  1.2698 -0.9611  0.5269
  911MOL0     H25711   6.968  10.403  10.829 -0.4888 -0.3759 -1.1022
  911MOL0     H25712   6.971  10.569  10.661  1.2604 -0.6048  1.5351
  911MOL0     H25713   6.809  10.638  10.708  0.9168  0.3950  0.8256
  911MOL0     H25714   6.734  10.323  10.426  2.4423 -1.3277  0.3080
  911MOL0     H25715   6.411  10.224  11.121 -2.5406  0.1818  0.1795
  911MOL0     H25716   6.124  10.332  10.956  2.7068 -1.1348 -1.7049
  911MOL0     H25717   6.196  10.194  11.039  3.0163  0.7852  1.7296
  911MOL0     H25718   6.097  10.293  11.134 -0.8047 -3.0081 -1.3372
  912MOL0     O25719   7.626  10.972   0.561  0.0602 -0.4692  0.9447
  912MOL0     C25720   7.651  10.862   0.598  0.6699  0.4057 -1.4358
  912MOL0     O25721   7.646  10.819   0.728  0.0882  0.3227  0.0728
  912MOL0     C25722   7.602  10.902   0.838  0.1074 -0.6274  1.0267
  912MOL0     C25723   7.613  11.039   0.851  0.3736  0.1464 -1.0587
  912MOL0     C25724   7.558  11.096   0.967 -0.3975  0.3761 -0.8030
  912MOL0     C25725   7.496  11.024   1.063  0.3353 -0.0079 -0.8104
  912MOL0     O25726   7.457  11.085   1.174  0.7084 -0.0311 -0.1462
  912MOL0     C25727   7.333  11.047   1.229  0.8167  0.9464 -0.1766
  912MOL0     C25728   7.308  11.127   1.356  1.1158 -0.8966 -0.2861
  912MOL0     C25729   7.348  11.274   1.344  0.4003 -0.2502  0.5809
  912MOL0     C25730   7.362  11.336   1.483  0.4019  0.3137 -0.0057
  912MOL0     C25731   7.382  11.488   1.496  0.4905  0.1332 -0.2487
  912MOL0     C25732   7.251  11.564   1.462 -0.2207  0.2159  1.3046
  912MOL0     C25733   7.298  11.708   1.463  0.0892  0.0277 -0.7562
  912MOL0     C25734   7.377  11.747   1.341 -0.4494 -0.0791 -0.3761
  912MOL0     N25735   7.306  11.850   1.271 -0.7609  0.3673  0.1452
  912MOL0     C25736   7.225  11.825   1.163 -0.7453 -1.1251  0.6044
  912MOL0     C25737   7.201  11.939   1.108 -0.3662 -0.1910 -0.2726
  912MOL0     C25738   7.110  11.975   0.997  0.1872  0.5168  0.9138
  912MOL0     C25739   7.026  12.088   1.021 -0.9059 -0.0786 -1.1066
  912MOL0     C25740   6.902  12.113   0.921  0.0741 -0.4181 -0.8027
  912MOL0     C25741   6.789  12.060   1.004  1.3282  0.0263  0.0613
  912MOL0     O25742   6.671  12.122   0.958 -0.2900  0.2134 -0.3700
  912MOL0     C25743   6.561  12.053   0.995 -0.3512 -0.5423  0.5394
  912MOL0     C25744   6.447  12.074   0.913 -0.0229 -0.1829  0.2333
  912MOL0     C25745   6.326  12.006   0.938 -0.7004  0.4721 -0.4226
  912MOL0     C25746   6.210  12.035   0.848 -0.7822 -0.4579  1.1768
  912MOL0     C25747   6.319  11.919   1.051  0.0846  0.1124  0.6471
  912MOL0     C25748   6.191  11.844   1.077  0.5035 -0.3966 -0.2242
  912MOL0     O25749   6.074  11.912   1.087  0.0490 -0.4722  0.2419
  912MOL0     C25750   5.951  11.857   1.101  0.4272 -0.2567  0.4866
  912MOL0     C25751   5.915  11.738   1.163 -0.0196 -0.3608  0.2792
  912MOL0     C25752   5.785  11.695   1.161  0.0943 -0.2818 -0.0107
  912MOL0     C25753   5.683  11.752   1.075 -1.0506  0.2856 -0.6567
  912MOL0     O25754   5.545  11.709   1.068 -0.8720 -0.7525  0.0356
  912MOL0     C25755   5.499  11.625   1.169  0.5472  0.3207 -0.3484
  912MOL0     C25756   5.351  11.648   1.185 -0.0533 -0.0649 -0.3106
  912MOL0     C25757   5.344  11.796   1.238 -0.2068 -0.4833  0.0356
  912MOL0     C25758   5.275  11.882   1.127  0.1226 -0.4774  0.0742
  912MOL0     C25759   5.264  12.030   1.164 -0.3973 -0.3509  0.2257
  912MOL0     C25760   5.406  12.102   1.145 -0.7301 -0.1471 -0.3345
  912MOL0     C25761   5.412  12.246   1.194  0.3433  1.1133 -0.4217
  912MOL0     C25762   5.539  12.324   1.168  0.8863 -0.4863  0.3956
  912MOL0    Cl25763   5.517  12.484   1.256 -0.1005  0.3593 -0.1790
  912MOL0     C25764   5.728  11.855   1.001  0.2749 -0.2017  0.4371
  912MOL0     C25765   5.855  11.913   1.020  0.0165 -0.4699 -0.3611
  912MOL0     O25766   6.205  11.721   1.079  0.2373 -0.1786  0.4560
  912MOL0     C25767   6.437  11.891   1.124  0.6990 -0.1944  0.4864
  912MOL0     C25768   6.550  11.963   1.097 -1.1103  0.9224  0.2114
  912MOL0     N25769   7.273  12.041   1.175  0.1262  0.4837 -0.5550
  912MOL0     N25770   7.334  11.987   1.276 -0.3408 -0.3484  0.2012
  912MOL0     C25771   7.494  10.888   1.047  0.0010  0.3800  0.7714
  912MOL0     C25772   7.548  10.825   0.938 -0.0514  0.3758  0.6935
  912MOL0     C25773   7.693  10.759   0.496  0.4010  1.2196  0.5290
  912MOL0     C25774   7.593  10.746   0.396 -1.2399  0.6442 -1.2379
  912MOL0     C25775   7.610  10.641   0.308 -0.0337 -0.1195 -0.1824
  912MOL0     C25776   7.724  10.550   0.307  0.0601  0.6803  0.6296
  912MOL0     O25777   7.740  10.439   0.228  0.1659  0.2397 -0.2240
  912MOL0     C25778   7.668  10.443   0.104 -0.3888 -0.1645 -0.6776
  912MOL0     C25779   7.676  10.314   0.019 -0.5895  0.1148 -0.0726
  912MOL0     C25780   7.812  10.317  -0.049 -0.2647  0.0879  0.0223
  912MOL0     C25781   7.831  10.188  -0.130 -0.7115  1.3736  0.4303
  912MOL0     C25782   7.973  10.182  -0.187 -0.8907 -0.1686  1.3496
  912MOL0     C25783   8.078  10.157  -0.237 -0.5642  0.2271 -0.0080
  912MOL0     C25784   7.820  10.575   0.400 -0.5691  0.2107 -0.8267
  912MOL0     C25785   7.809  10.677   0.495  0.2371 -0.4020 -0.0428
  912MOL0     C25786   7.929  10.698   0.589  0.4333  0.2518 -0.5650
  912MOL0     H25787   7.661  11.109   0.784  0.3688  2.3651  1.1015
  912MOL0     H25788   7.561  11.201   0.996  0.4702 -0.2736  1.6666
  912MOL0     H25789   7.331  10.944   1.265  1.6057  0.7444 -0.6687
  912MOL0     H25790   7.253  11.068   1.157 -1.4595  1.2618  2.2918
  912MOL0     H25791   7.199  11.123   1.366  0.8620 -0.2911 -2.3519
  912MOL0     H25792   7.362  11.080   1.438  2.1295  2.7558  1.3536
  912MOL0     H25793   7.451  11.282   1.307  0.7363  2.3982  1.8259
  912MOL0     H25794   7.279  11.331   1.282  3.8350  3.4812 -0.2832
  912MOL0     H25795   7.268  11.326   1.537 -0.4531 -0.4256 -1.5601
  912MOL0     H25796   7.448  11.284   1.527 -0.3221  0.6945  1.9384
  912MOL0     H25797   7.471  11.501   1.434  1.3244 -1.1327  0.6343
  912MOL0     H25798   7.409  11.530   1.594  3.1129  1.0899 -1.2873
  912MOL0     H25799   7.208  11.536   1.365  0.7792 -0.6565  1.0987
  912MOL0     H25800   7.167  11.554   1.532  0.0751 -3.1176  1.3365
  912MOL0     H25801   7.353  11.728   1.555 -0.9151 -2.4034  0.4696
  912MOL0     H25802   7.212  11.774   1.479 -0.5094 -1.4553  3.2132
  912MOL0     H25803   7.474  11.789   1.367  0.5294 -3.4491  2.2013
  912MOL0     H25804   7.399  11.658   1.281 -0.3874  1.0127 -2.0253
  912MOL0     H25805   7.198  11.722   1.141  0.6940 -1.0487 -1.9201
  912MOL0     H25806   7.054  11.886   0.968  1.6931  1.1110 -5.0426
  912MOL0     H25807   7.153  11.982   0.897  1.7216  0.1091  1.5118
  912MOL0     H25808   7.005  12.092   1.128 -0.0419  0.4623 -0.9461
  912MOL0     H25809   7.094  12.173   1.008 -1.2718  0.2215 -1.0870
  912MOL0     H25810   6.876  12.218   0.907 -0.3441 -0.3233  0.4891
  912MOL0     H25811   6.906  12.066   0.823 -1.0812 -0.1360 -1.0049
  912MOL0     H25812   6.774  11.952   0.989 -0.9419  0.6014 -2.5470
  912MOL0     H25813   6.806  12.077   1.110  0.2649  2.3499 -0.0884
  912MOL0     H25814   6.462  12.129   0.821  2.3509 -0.2630  0.5310
  912MOL0     H25815   6.237  12.080   0.752 -1.3704  3.1947  2.5559
  912MOL0     H25816   6.138  12.100   0.898 -0.8576  1.1948 -0.9430
  912MOL0     H25817   6.160  11.943   0.817 -0.8713  0.2165 -0.8201
  912MOL0     H25818   5.983  11.680   1.225 -0.0420 -2.5953 -1.6178
  912MOL0     H25819   5.755  11.613   1.225  1.4110 -0.0762  0.8918
  912MOL0     H25820   5.525  11.522   1.141  0.8992  0.4267 -0.4208
  912MOL0     H25821   5.543  11.654   1.265  1.6573  0.9184 -1.0098
  912MOL0     H25822   5.299  11.626   1.091  0.2792 -3.5627  0.1995
  912MOL0     H25823   5.311  11.569   1.250 -1.2294 -2.5062 -3.6914
  912MOL0     H25824   5.438  11.845   1.262 -2.0343  3.5757 -0.3044
  912MOL0     H25825   5.279  11.788   1.326  0.0147 -1.8604  0.0937
  912MOL0     H25826   5.171  11.849   1.113  0.4703 -1.3198 -0.5543
  912MOL0     H25827   5.327  11.867   1.032 -0.3068 -4.9833  0.3433
  912MOL0     H25828   5.191  12.080   1.101 -1.1269 -2.3632 -0.6054
  912MOL0     H25829   5.218  12.036   1.263 -1.1873 -4.6499  0.2940
  912MOL0     H25830   5.431  12.094   1.039  1.0827 -0.7625  0.1151
  912MOL0     H25831   5.480  12.055   1.210 -1.2899 -1.7201 -0.7858
  912MOL0     H25832   5.416  12.238   1.303  2.4712 -1.4230 -0.5747
  912MOL0     H25833   5.327  12.306   1.163 -0.7522 -0.0773  0.1545
  912MOL0     H25834   5.543  12.333   1.059  1.4714 -1.6343  0.3029
  912MOL0     H25835   5.627  12.265   1.197 -0.3309 -2.7341 -0.2050
  912MOL0     H25836   5.654  11.909   0.944  2.6237 -0.2273 -2.9141
  912MOL0     H25837   5.890  11.996   0.959  2.1369  0.7400  2.2624
  912MOL0     H25838   6.426  11.825   1.209 -0.6120  1.5856  1.7937
  912MOL0     H25839   6.640  11.947   1.155 -0.4529  1.9395 -0.4869
  912MOL0     H25840   7.442  10.833   1.126 -3.9085  2.0472 -0.4069
  912MOL0     H25841   7.550  10.717   0.928  0.3248  0.1349  2.8353
  912MOL0     H25842   7.510  10.815   0.409 -0.2398  1.4782  1.5202
  912MOL0     H25843   7.522  10.630   0.246  0.6602  1.4995 -1.5537
  912MOL0     H25844   7.564  10.433   0.137  0.4663 -2.9598  1.5250
  912MOL0     H25845   7.671  10.528   0.036 -1.3791 -1.0889 -1.9364
  912MOL0     H25846   7.599  10.308  -0.059 -0.5561 -1.4580 -0.0084
  912MOL0     H25847   7.675  10.226   0.084 -1.3945 -0.4117 -0.7684
  912MOL0     H25848   7.799  10.402  -0.118 -3.9592 -1.1167 -0.9806
  912MOL0     H25849   7.887  10.342   0.027 -2.6474 -0.5450  2.7273
  912MOL0     H25850   7.756  10.185  -0.210 -0.5825 -1.2511  0.3365
  912MOL0     H25851   7.821  10.098  -0.070  3.0716  1.7048  1.8464
  912MOL0     H25852   8.174  10.130  -0.278 -0.2837 -0.0573  0.8176
  912MOL0     H25853   7.902  10.505   0.392 -1.8530 -2.0443  2.8261
  912MOL0     H25854   8.015  10.635   0.563 -1.0268 -1.8352 -0.5366
  912MOL0     H25855   7.980  10.795   0.584 -1.0496  1.3061  2.3174
  912MOL0     H25856   7.910  10.696   0.697  0.7621 -0.3393 -0.5125
  913MOL0     O25857   9.820   8.035   8.628 -0.7902  0.4462  0.3674
  913MOL0     C25858   9.932   8.068   8.577  0.4989  1.1432  0.0117
  913MOL0     O25859   9.969   8.191   8.534 -0.4462  0.3757 -0.0623
  913MOL0     C25860   9.881   8.284   8.582 -0.4938  0.3127 -0.1157
  913MOL0     C25861   9.790   8.331   8.488 -0.6157 -0.2498 -0.2030
  913MOL0     C25862   9.700   8.438   8.527 -0.4262 -0.1490  0.7150
  913MOL0     C25863   9.704   8.493   8.649  0.4831  0.8023 -0.4590
  913MOL0     O25864   9.617   8.599   8.686  0.0600  0.3256 -0.0110
  913MOL0     C25865   9.526   8.651   8.593  0.4459  0.5130  0.0126
  913MOL0     C25866   9.439   8.756   8.655  0.2890 -0.0101 -0.9035
  913MOL0     C25867   9.357   8.689   8.765 -0.1475 -0.3532  0.2701
  913MOL0     C25868   9.309   8.780   8.873  0.0752  0.2275  0.7367
  913MOL0     C25869   9.254   8.907   8.809 -0.6027 -0.6869 -0.2675
  913MOL0     C25870   9.177   9.007   8.891  0.0482  0.7772  0.7722
  913MOL0     C25871   9.258   9.098   8.987  0.2200  0.4460 -0.3107
  913MOL0     C25872   9.150   9.162   9.089 -0.5470 -0.2468  0.0777
  913MOL0     N25873   9.230   9.242   9.184 -0.7209  0.5764 -0.1835
  913MOL0     C25874   9.301   9.352   9.149 -0.3236  1.0769 -0.5859
  913MOL0     C25875   9.347   9.403   9.261 -0.2258  0.4912  0.3273
  913MOL0     C25876   9.432   9.526   9.277  0.5173  0.2971 -0.9075
  913MOL0     C25877   9.368   9.634   9.366  0.4326 -0.8159 -0.3302
  913MOL0     C25878   9.463   9.737   9.419  0.6483 -0.5211  0.4751
  913MOL0     C25879   9.391   9.833   9.523  0.0105 -0.0673  0.3238
  913MOL0     O25880   9.270   9.887   9.460 -0.4963  0.5411 -0.0693
  913MOL0     C25881   9.194   9.971   9.532  1.0494  0.1263  0.2336
  913MOL0     C25882   9.231  10.033   9.649  0.1638 -0.9078  0.8363
  913MOL0     C25883   9.154  10.127   9.719 -0.0180  0.7693  0.3242
  913MOL0     C25884   9.211  10.185   9.840  0.4219  0.5740  0.6941
  913MOL0     C25885   9.026  10.152   9.666  0.9532  0.6861 -0.6770
  913MOL0     C25886   8.936  10.248   9.735 -0.0341 -0.7863  0.3514
  913MOL0     O25887   8.822  10.206   9.792 -0.3813 -0.0005  0.7469
  913MOL0     C25888   8.756  10.288   9.879 -1.0443 -0.1292 -0.5679
  913MOL0     C25889   8.799  10.408   9.945 -0.0566  0.3449  1.0302
  913MOL0     C25890   8.704  10.474  10.021 -1.0607  0.0545 -0.2301
  913MOL0     C25891   8.571  10.423  10.046 -1.6235 -0.0780 -0.5695
  913MOL0     O25892   8.484  10.489  10.134  0.0216  0.0038  0.1043
  913MOL0     C25893   8.339  10.459  10.120 -0.6725 -0.0709 -0.0339
  913MOL0     C25894   8.268  10.549  10.219  0.5115  0.3864 -1.3779
  913MOL0     C25895   8.289  10.506  10.364 -0.3782 -0.3582  0.2290
  913MOL0     C25896   8.206  10.583  10.467  0.6239 -0.2893 -0.3153
  913MOL0     C25897   8.235  10.551  10.618 -0.9866 -0.1002  0.0016
  913MOL0     C25898   8.371  10.608  10.654 -0.1171 -0.5416  0.4570
  913MOL0     C25899   8.411  10.594  10.800  0.3012  0.8298  0.7516
  913MOL0     C25900   8.519  10.682  10.852 -0.1596  0.1656 -0.7754
  913MOL0    Cl25901   8.635  10.689  10.720  0.1653 -0.0225  0.0317
  913MOL0     C25902   8.532  10.309   9.985  0.5141  1.0465  1.6064
  913MOL0     C25903   8.623  10.247   9.899 -0.1427  1.0580 -0.1973
  913MOL0     O25904   8.970  10.366   9.719 -0.0604  0.2134  0.2979
  913MOL0     C25905   8.986  10.095   9.539 -0.4660 -0.8411  0.2810
  913MOL0     C25906   9.078  10.012   9.472  0.3969  0.3723  0.4227
  913MOL0     N25907   9.293   9.337   9.364 -0.2592 -0.0493 -0.3102
  913MOL0     N25908   9.226   9.235   9.322  0.6669  0.7656  0.2954
  913MOL0     C25909   9.791   8.437   8.746 -0.2366 -0.0623  0.1998
  913MOL0     C25910   9.884   8.335   8.710 -1.2752  0.4701  0.6043
  913MOL0     C25911  10.039   7.965   8.566 -0.8941 -0.7045 -1.1748
  913MOL0     C25912  10.138   7.964   8.670  0.3935 -0.3977 -0.0371
  913MOL0     C25913  10.231   7.865   8.679  0.4561  0.4259  0.7834
  913MOL0     C25914  10.240   7.769   8.576  0.2202 -0.2156  0.1734
  913MOL0     O25915  10.352   7.694   8.572 -0.4498 -0.1785  0.2410
  913MOL0     C25916  10.447   7.717   8.472 -0.6993 -0.1487  0.1768
  913MOL0     C25917  10.546   7.827   8.497  0.2959 -0.8312 -0.3873
  913MOL0     C25918  10.638   7.828   8.375  0.6542  0.7274  0.5844
  913MOL0     C25919  10.764   7.744   8.394  0.2977 -0.4249 -0.0413
  913MOL0     C25920  10.755   7.596   8.402  0.0795 -0.0574 -0.4048
  913MOL0     C25921  10.750   7.476   8.394 -0.6304  0.5563 -0.1096
  913MOL0     C25922  10.139   7.761   8.482 -0.2399 -0.0003 -0.4133
  913MOL0     C25923  10.032   7.853   8.480  0.6736 -0.5165 -0.3686
  913MOL0     C25924   9.908   7.824   8.389  0.2061 -0.0595 -0.1162
  913MOL0     H25925   9.781   8.289   8.388  3.8412  1.6578 -1.6398
  913MOL0     H25926   9.634   8.484   8.454  0.3923  4.1138  2.3370
  913MOL0     H25927   9.458   8.576   8.551 -1.9571  2.1198  0.8009
  913MOL0     H25928   9.570   8.696   8.504 -2.5327  1.9449 -0.8851
  913MOL0     H25929   9.501   8.835   8.700 -1.2525  1.5026 -1.3076
  913MOL0     H25930   9.366   8.805   8.590 -1.2112  0.0237  0.7018
  913MOL0     H25931   9.273   8.637   8.718  1.4903 -1.8740 -1.1485
  913MOL0     H25932   9.419   8.610   8.808  1.0787 -0.3659 -1.3982
  913MOL0     H25933   9.231   8.728   8.929 -0.3463 -2.2898 -1.9556
  913MOL0     H25934   9.385   8.819   8.941  1.8441  1.0052 -1.5548
  913MOL0     H25935   9.181   8.867   8.737  0.8604 -2.6317 -0.7678
  913MOL0     H25936   9.327   8.968   8.757 -0.9386  0.1306  0.2087
  913MOL0     H25937   9.123   9.072   8.821 -1.4002  1.8085  2.7566
  913MOL0     H25938   9.106   8.939   8.937 -1.9038  2.8862  1.0655
  913MOL0     H25939   9.313   9.175   8.933 -0.5727  1.5119  0.3577
  913MOL0     H25940   9.320   9.036   9.052 -1.5944 -0.5699  0.5376
  913MOL0     H25941   9.074   9.230   9.050  0.3728  0.9406  0.2948
  913MOL0     H25942   9.098   9.081   9.141  0.1717 -0.6225  0.2153
  913MOL0     H25943   9.326   9.369   9.045  0.0060 -0.9496 -0.8656
  913MOL0     H25944   9.459   9.578   9.184 -1.7782  2.2211 -0.5954
  913MOL0     H25945   9.522   9.486   9.324 -0.8099  0.6388  2.1329
  913MOL0     H25946   9.285   9.669   9.303 -1.3359 -3.2000  0.4913
  913MOL0     H25947   9.324   9.585   9.454  1.8669  0.2265  1.0206
  913MOL0     H25948   9.544   9.679   9.464  1.1720  2.7031  4.2547
  913MOL0     H25949   9.499   9.806   9.341  1.5794 -0.0632  1.2976
  913MOL0     H25950   9.364   9.779   9.614 -0.0614  0.6284  0.7233
  913MOL0     H25951   9.455   9.918   9.550 -2.4595  2.2445 -0.5641
  913MOL0     H25952   9.330  10.009   9.686  0.7146  0.1990  0.1547
  913MOL0     H25953   9.188  10.126   9.929 -2.5411  1.3398  0.5320
  913MOL0     H25954   9.160  10.279   9.861 -0.9501 -0.3924  1.8390
  913MOL0     H25955   9.318  10.199   9.824  0.4903 -1.2662 -0.7595
  913MOL0     H25956   8.905  10.433   9.944  0.5107 -1.6010  3.4765
  913MOL0     H25957   8.741  10.568  10.061  0.7165 -0.9013  0.4938
  913MOL0     H25958   8.295  10.486  10.023 -3.2124  0.0274  1.0676
  913MOL0     H25959   8.324  10.354  10.145  0.4097 -0.7537 -2.0060
  913MOL0     H25960   8.290  10.654  10.201  0.3887  0.1713 -2.9089
  913MOL0     H25961   8.163  10.537  10.190 -0.4872 -0.2445  2.0102
  913MOL0     H25962   8.395  10.529  10.378 -0.0811  0.6537 -2.8821
  913MOL0     H25963   8.273  10.398  10.374  3.8555 -0.9620  2.6509
  913MOL0     H25964   8.104  10.564  10.432  1.1007  0.7866 -2.5090
  913MOL0     H25965   8.235  10.688  10.458  0.2314 -0.0410  1.0845
  913MOL0     H25966   8.159  10.581  10.691 -1.0287 -2.7346  1.1554
  913MOL0     H25967   8.236  10.442  10.619 -3.1125 -0.2139 -2.2492
  913MOL0     H25968   8.368  10.715  10.632  0.0485 -0.5497  0.3998
  913MOL0     H25969   8.454  10.569  10.594  0.9806  1.0222  0.8944
  913MOL0     H25970   8.433  10.487  10.809  1.2761  0.5900 -3.0750
  913MOL0     H25971   8.322  10.606  10.863 -2.3579 -0.2594 -2.5205
  913MOL0     H25972   8.568  10.645  10.943  1.2802  1.7305 -0.8639
  913MOL0     H25973   8.478  10.779  10.880 -0.6468 -0.0160 -0.8566
  913MOL0     H25974   8.438  10.255   9.998 -2.3156  4.6081 -1.5176
  913MOL0     H25975   8.580  10.163   9.845 -2.0356  0.1485  2.4808
  913MOL0     H25976   8.896  10.126   9.488  0.8667  0.4088 -1.4364
  913MOL0     H25977   9.057   9.984   9.369  3.4213 -3.2932  0.5605
  913MOL0     H25978   9.781   8.466   8.850 -0.3285 -0.6405  0.3544
  913MOL0     H25979   9.946   8.291   8.788 -2.5793 -1.6135  0.5610
  913MOL0     H25980  10.133   8.058   8.723 -1.5984  0.2567 -1.2465
  913MOL0     H25981  10.311   7.865   8.752  1.2567  0.3547 -0.0905
  913MOL0     H25982  10.492   7.618   8.458 -2.0489 -0.5165 -2.0570
  913MOL0     H25983  10.403   7.724   8.372  2.5259 -1.4037 -1.4991
  913MOL0     H25984  10.611   7.816   8.584 -1.1732  1.4616  1.1158
  913MOL0     H25985  10.503   7.927   8.509  0.5345 -0.8006  0.2450
  913MOL0     H25986  10.595   7.798   8.278  0.8716 -2.6930  1.4142
  913MOL0     H25987  10.663   7.934   8.361 -0.6490  0.9163 -0.6559
  913MOL0     H25988  10.833   7.784   8.468  2.1697  0.4198 -2.1140
  913MOL0     H25989  10.816   7.767   8.300 -0.8553 -1.0717 -0.8662
  913MOL0     H25990  10.744   7.370   8.378  0.8887  0.6358 -1.5307
  913MOL0     H25991  10.152   7.684   8.407  1.8173  0.6284 -0.7789
  913MOL0     H25992   9.934   7.736   8.330 -2.6691 -0.6070 -0.7203
  913MOL0     H25993   9.807   7.815   8.428 -0.1933 -2.7488 -1.5763
  913MOL0     H25994   9.909   7.898   8.309 -1.9469 -1.0808 -1.1571
  914MOL0     O25995   3.036   3.166   8.334 -0.0404  0.5842  0.3840
  914MOL0     C25996   3.126   3.116   8.269 -0.6466  0.1865 -0.4600
  914MOL0     O25997   3.117   3.061   8.144 -0.0739  0.6453 -0.4053
  914MOL0     C25998   3.000   3.050   8.078  0.4240 -0.4335 -0.1361
  914MOL0     C25999   2.986   2.947   7.985  0.3388 -1.1871  0.3683
  914MOL0     C26000   2.867   2.938   7.917 -0.4546 -0.1281 -0.3076
  914MOL0     C26001   2.758   3.034   7.932  0.2290 -0.9930  1.1064
  914MOL0     O26002   2.643   3.018   7.859  0.2003 -0.9893  0.4968
  914MOL0     C26003   2.519   3.015   7.940  0.1263  0.5929  0.8269
  914MOL0     C26004   2.399   3.037   7.856 -0.4182 -1.2785  0.5310
  914MOL0     C26005   2.271   3.066   7.935 -0.7501 -0.3727 -0.0783
  914MOL0     C26006   2.271   3.207   8.005 -0.6500  0.1805 -0.5413
  914MOL0     C26007   2.141   3.240   8.075 -0.3724 -0.0723 -0.4928
  914MOL0     C26008   2.105   3.386   8.090 -0.1092 -0.1571  0.1831
  914MOL0     C26009   1.959   3.405   8.081  0.2866 -0.6308 -0.0442
  914MOL0     C26010   1.883   3.333   8.191  0.0009 -0.2717 -0.5134
  914MOL0     N26011   1.897   3.407   8.316  0.1607  0.0914  0.6313
  914MOL0     C26012   2.000   3.397   8.410  0.3405  0.3300 -0.2182
  914MOL0     C26013   1.965   3.483   8.511 -0.5404 -0.2464  0.1166
  914MOL0     C26014   2.034   3.502   8.646  0.2162 -0.0968  0.0748
  914MOL0     C26015   2.161   3.583   8.653  0.7529 -0.5609 -0.4663
  914MOL0     C26016   2.279   3.538   8.566  0.6952 -0.4870  0.0163
  914MOL0     C26017   2.391   3.643   8.588  0.0666  0.2068 -0.4701
  914MOL0     O26018   2.433   3.678   8.721  0.3480  0.1938 -0.2537
  914MOL0     C26019   2.476   3.578   8.801 -0.4365  0.1862 -0.2573
  914MOL0     C26020   2.522   3.451   8.765  0.1550 -0.9574  0.0336
  914MOL0     C26021   2.563   3.355   8.856 -0.2320 -0.1744  0.4869
  914MOL0     C26022   2.603   3.222   8.797  0.9419 -0.1723  0.0168
  914MOL0     C26023   2.555   3.376   8.993 -0.7763  0.1979  0.1707
  914MOL0     C26024   2.602   3.277   9.099  0.5731  0.6665 -0.4244
  914MOL0     O26025   2.637   3.139   9.071 -0.0810  0.3170 -0.3024
  914MOL0     C26026   2.630   3.027   9.155 -0.2057  0.3289  0.0076
  914MOL0     C26027   2.557   3.021   9.277 -0.6465  0.3613  0.0116
  914MOL0     C26028   2.559   2.898   9.345 -0.7589 -0.0098  0.1948
  914MOL0     C26029   2.636   2.790   9.303 -0.4458 -0.1368  0.1070
  914MOL0     O26030   2.635   2.676   9.379 -0.6762  0.3217 -0.2590
  914MOL0     C26031   2.548   2.572   9.326  0.6091 -1.3599  0.9421
  914MOL0     C26032   2.500   2.489   9.444 -0.7547  0.0350  1.2603
  914MOL0     C26033   2.367   2.425   9.416  0.3988 -0.2450  0.3197
  914MOL0     C26034   2.299   2.383   9.542 -0.5125  0.7215  0.5968
  914MOL0     C26035   2.183   2.294   9.494 -0.2049 -0.4401 -0.2618
  914MOL0     C26036   2.085   2.276   9.611 -0.3142 -0.6295  0.2249
  914MOL0     C26037   1.959   2.186   9.576  0.2542  0.0371 -0.9170
  914MOL0     C26038   1.903   2.126   9.711  0.5229  0.8123  0.0954
  914MOL0    Cl26039   1.850   2.254   9.827 -0.1645  0.8698 -0.1806
  914MOL0     C26040   2.706   2.801   9.178  0.0762 -0.1989  0.4968
  914MOL0     C26041   2.698   2.916   9.101 -1.1430  0.3520 -0.0577
  914MOL0     O26042   2.593   3.320   9.215 -1.1637 -0.1694  0.4098
  914MOL0     C26043   2.516   3.504   9.030 -0.1504 -0.3644  0.0038
  914MOL0     C26044   2.482   3.603   8.938 -0.2685  0.2714 -0.3923
  914MOL0     N26045   1.854   3.552   8.462 -0.8824  0.2419  0.4066
  914MOL0     N26046   1.799   3.488   8.353  0.6428 -0.0754  0.3043
  914MOL0     C26047   2.779   3.149   8.010 -0.8321 -0.0176  0.3960
  914MOL0     C26048   2.901   3.156   8.083  0.3485 -0.1866  0.4154
  914MOL0     C26049   3.263   3.101   8.340 -0.0507 -0.3623  0.5936
  914MOL0     C26050   3.359   3.003   8.291 -0.0218  0.4037 -0.8211
  914MOL0     C26051   3.489   2.989   8.346  0.0980 -0.5305  0.0793
  914MOL0     C26052   3.533   3.090   8.428 -1.0401  0.0937  0.1003
  914MOL0     O26053   3.668   3.077   8.473 -0.0042 -0.3274 -0.2318
  914MOL0     C26054   3.689   3.017   8.607 -0.9260 -0.2621 -1.0612
  914MOL0     C26055   3.733   3.120   8.709  0.4670 -0.8994  0.1383
  914MOL0     C26056   3.833   3.226   8.679 -0.3649 -1.0393 -0.1186
  914MOL0     C26057   3.857   3.330   8.793 -0.4578 -0.1860  0.0079
  914MOL0     C26058   3.995   3.376   8.772 -0.5027  0.8056 -0.3643
  914MOL0     C26059   4.112   3.405   8.748  0.6280 -0.1751  0.5335
  914MOL0     C26060   3.445   3.196   8.475 -0.4735 -0.8012 -0.0151
  914MOL0     C26061   3.309   3.200   8.432 -0.6130 -1.0111 -0.1852
  914MOL0     C26062   3.255   3.341   8.468  0.2350 -0.4622 -0.4049
  914MOL0     H26063   3.068   2.877   7.973  2.5784  1.1113  1.0424
  914MOL0     H26064   2.838   2.862   7.845 -1.4713 -0.8696  0.8557
  914MOL0     H26065   2.522   3.097   8.012 -0.8688  2.1349 -0.7860
  914MOL0     H26066   2.528   2.919   7.991  2.0536  0.1183 -0.2993
  914MOL0     H26067   2.429   3.123   7.795  0.4492 -1.8343  0.1487
  914MOL0     H26068   2.385   2.945   7.799  2.1644 -1.9266  0.8162
  914MOL0     H26069   2.180   3.056   7.875  0.7676 -1.9341 -2.2785
  914MOL0     H26070   2.262   2.993   8.016  3.1914 -0.3046  0.5973
  914MOL0     H26071   2.349   3.213   8.082 -1.4290  0.1993  0.2563
  914MOL0     H26072   2.298   3.281   7.930  1.0144  0.0871 -0.0849
  914MOL0     H26073   2.137   3.191   8.173  0.6787 -0.7854 -0.7997
  914MOL0     H26074   2.061   3.203   8.010 -2.2709  1.1594  1.0267
  914MOL0     H26075   2.145   3.427   8.183 -0.5808 -0.0392  0.3362
  914MOL0     H26076   2.152   3.450   8.015  1.1372 -1.7388 -0.4513
  914MOL0     H26077   1.920   3.366   7.986  0.6198  4.5855 -2.6873
  914MOL0     H26078   1.950   3.513   8.095 -0.3594 -0.7299  0.3453
  914MOL0     H26079   1.778   3.325   8.164 -0.0763 -1.9450  0.1899
  914MOL0     H26080   1.905   3.226   8.196  1.2204 -0.1101 -1.7292
  914MOL0     H26081   2.090   3.337   8.413 -0.3453 -0.7759  3.5593
  914MOL0     H26082   2.050   3.401   8.685 -1.4728  0.3192  2.0288
  914MOL0     H26083   1.960   3.552   8.710  0.8987 -2.2031  2.7153
  914MOL0     H26084   2.135   3.686   8.626  0.6557 -0.3377  0.4480
  914MOL0     H26085   2.196   3.578   8.756  0.9907  0.7500 -0.4618
  914MOL0     H26086   2.309   3.437   8.597  4.0087 -0.2775 -2.0252
  914MOL0     H26087   2.253   3.524   8.461  2.1099 -0.7095 -0.3293
  914MOL0     H26088   2.483   3.622   8.533 -0.4231 -1.2339 -0.7967
  914MOL0     H26089   2.357   3.733   8.537 -0.0690 -1.0476 -2.7397
  914MOL0     H26090   2.525   3.428   8.659  0.9617 -0.4434 -0.0660
  914MOL0     H26091   2.705   3.199   8.827  0.4656 -1.4233  0.7503
  914MOL0     H26092   2.598   3.227   8.687 -1.5069  3.7108  0.1096
  914MOL0     H26093   2.534   3.142   8.823  0.6676  0.2350  0.5567
  914MOL0     H26094   2.494   3.101   9.316  0.3418  0.3149  1.8180
  914MOL0     H26095   2.509   2.888   9.440 -0.4822  1.8607  0.5793
  914MOL0     H26096   2.456   2.616   9.286 -0.1472 -2.6176  1.2218
  914MOL0     H26097   2.602   2.520   9.247 -1.2000 -0.1507 -1.2038
  914MOL0     H26098   2.581   2.418   9.464 -1.9996 -1.5629  0.8129
  914MOL0     H26099   2.500   2.563   9.525 -0.2810 -0.1456  1.4315
  914MOL0     H26100   2.380   2.332   9.359  0.6433 -0.2359  0.3618
  914MOL0     H26101   2.310   2.494   9.353  3.2348  0.2985 -1.8329
  914MOL0     H26102   2.270   2.480   9.585  3.6816  2.3285  0.3321
  914MOL0     H26103   2.374   2.326   9.597  1.5410  0.0138 -2.6536
  914MOL0     H26104   2.132   2.349   9.415  1.6608  0.4467 -0.8892
  914MOL0     H26105   2.207   2.193   9.459 -1.0347 -0.6113 -0.3709
  914MOL0     H26106   2.045   2.375   9.634 -0.7337  0.3739 -4.1138
  914MOL0     H26107   2.129   2.239   9.705  0.1665  2.5592  1.3960
  914MOL0     H26108   1.985   2.103   9.509  1.2121  0.0728 -0.6048
  914MOL0     H26109   1.881   2.239   9.520 -0.4456 -0.2405 -0.2235
  914MOL0     H26110   1.976   2.062   9.762 -1.4393 -0.9502  0.8822
  914MOL0     H26111   1.820   2.057   9.689  1.2943  0.4510 -1.8690
  914MOL0     H26112   2.758   2.717   9.134  0.4448  0.9520 -1.4020
  914MOL0     H26113   2.752   2.908   9.008  1.4353  1.0583  1.2825
  914MOL0     H26114   2.525   3.523   9.137 -0.9361 -0.4955  0.0964
  914MOL0     H26115   2.464   3.702   8.979  2.5642  0.1848  1.3845
  914MOL0     H26116   2.698   3.220   7.999 -2.5088 -2.0195 -0.8654
  914MOL0     H26117   2.927   3.241   8.146 -2.2968 -0.8144  2.4957
  914MOL0     H26118   3.330   2.935   8.212  3.0833 -0.6192 -1.1970
  914MOL0     H26119   3.566   2.920   8.315  1.4210  0.8839  0.1345
  914MOL0     H26120   3.595   2.973   8.641 -0.3637  1.3331  3.0908
  914MOL0     H26121   3.771   2.945   8.598 -0.0640  0.3837  1.0486
  914MOL0     H26122   3.755   3.058   8.797 -0.9717 -0.7268  0.6407
  914MOL0     H26123   3.646   3.180   8.738 -0.9482 -2.3856 -0.8226
  914MOL0     H26124   3.931   3.181   8.658  1.0899  1.3699  1.0667
  914MOL0     H26125   3.815   3.281   8.586 -1.3909  2.4990  1.9955
  914MOL0     H26126   3.838   3.297   8.896 -3.7219  0.3331 -0.3411
  914MOL0     H26127   3.784   3.409   8.774  0.0029  0.6742  1.5739
  914MOL0     H26128   4.212   3.431   8.721  0.2640  2.5823  1.5109
  914MOL0     H26129   3.499   3.279   8.519 -1.3822 -0.0976 -0.1875
  914MOL0     H26130   3.170   3.324   8.534 -0.6394 -0.8094 -1.5892
  914MOL0     H26131   3.333   3.393   8.523  1.8071 -3.0574  0.0201
  914MOL0     H26132   3.226   3.401   8.382 -0.0091 -0.5795 -0.4060
  915MOL0     O26133   3.188   2.690   7.721  0.5261  0.7551 -0.0064
  915MOL0     C26134   3.282   2.617   7.753  0.4194  1.0202  0.2505
  915MOL0     O26135   3.281   2.480   7.752 -0.8710 -0.3477 -0.1288
  915MOL0     C26136   3.187   2.409   7.673 -1.2969  0.4787 -0.0362
  915MOL0     C26137   3.048   2.440   7.669  0.0284 -0.2167  0.7039
  915MOL0     C26138   2.960   2.357   7.599  0.1711 -0.6220 -0.2450
  915MOL0     C26139   3.019   2.247   7.540 -1.0445 -0.3711 -0.9445
  915MOL0     O26140   2.927   2.170   7.484 -1.0492  0.5427  0.7759
  915MOL0     C26141   2.897   2.177   7.343  0.2015  0.6706 -0.0178
  915MOL0     C26142   3.008   2.116   7.256 -0.8590 -0.1982 -0.1505
  915MOL0     C26143   3.015   1.962   7.283 -0.3830 -0.6963  1.3948
  915MOL0     C26144   3.143   1.902   7.203  0.5193  0.1854 -0.1396
  915MOL0     C26145   3.159   1.743   7.181  0.1254 -0.5800  0.4312
  915MOL0     C26146   3.263   1.722   7.069  0.7558  0.3606  0.2801
  915MOL0     C26147   3.325   1.582   7.058  0.3642 -0.4631  0.5253
  915MOL0     C26148   3.410   1.571   6.933 -0.2866 -0.6749 -0.5005
  915MOL0     N26149   3.517   1.474   6.949  0.0299 -0.1932 -0.2689
  915MOL0     C26150   3.645   1.504   6.908 -0.9233  0.2596  0.7155
  915MOL0     C26151   3.706   1.382   6.902 -0.5756  1.1255 -0.3289
  915MOL0     C26152   3.848   1.359   6.888 -0.0816  0.3035  0.2100
  915MOL0     C26153   3.878   1.329   6.732 -0.3645  0.1116  0.0123
  915MOL0     C26154   4.026   1.315   6.700  1.1518  0.1761 -0.7290
  915MOL0     C26155   4.064   1.215   6.599  0.3763  0.0010  0.6551
  915MOL0     O26156   4.061   1.282   6.471 -0.0026  0.3042 -0.6379
  915MOL0     C26157   4.156   1.260   6.377  0.0304 -0.5132 -0.0354
  915MOL0     C26158   4.179   1.353   6.274  0.4885 -0.1294 -0.1676
  915MOL0     C26159   4.265   1.319   6.166  1.1569 -0.2032  1.2570
  915MOL0     C26160   4.264   1.416   6.048 -0.7779 -0.1925 -0.9137
  915MOL0     C26161   4.347   1.205   6.175 -0.8736  0.5132  0.2524
  915MOL0     C26162   4.476   1.173   6.090 -0.5173 -0.0150 -0.1415
  915MOL0     O26163   4.544   1.057   6.117 -0.0028  0.0157 -0.3914
  915MOL0     C26164   4.669   1.043   6.068 -0.5092  0.3196 -0.0392
  915MOL0     C26165   4.715   0.928   6.004 -0.8487  0.2935  0.2646
  915MOL0     C26166   4.840   0.920   5.944  0.3286  0.0798 -0.0303
  915MOL0     C26167   4.927   1.028   5.947  0.1958  0.9214 -0.3157
  915MOL0     O26168   5.057   1.023   5.901 -0.5617 -0.2013  0.8565
  915MOL0     C26169   5.092   0.925   5.798  0.3943  0.0957 -0.2325
  915MOL0     C26170   5.222   0.968   5.732  0.3083 -0.1087 -0.7998
  915MOL0     C26171   5.275   0.866   5.638 -0.1366 -0.3063  0.4573
  915MOL0     C26172   5.394   0.911   5.553 -0.0552 -0.3896  0.5758
  915MOL0     C26173   5.485   0.793   5.518  0.3359 -0.6621 -0.5506
  915MOL0     C26174   5.622   0.845   5.483  0.6627 -0.2177  0.2054
  915MOL0     C26175   5.724   0.731   5.463 -0.0564 -0.2714  0.5871
  915MOL0     C26176   5.822   0.783   5.358 -0.0478  0.0132 -0.5829
  915MOL0    Cl26177   5.919   0.648   5.290  0.0420 -0.0956 -0.0357
  915MOL0     C26178   4.885   1.144   6.015  0.0151 -0.5796  0.1857
  915MOL0     C26179   4.761   1.152   6.070  0.1861  0.0079 -0.0084
  915MOL0     O26180   4.510   1.251   5.999  0.7666  0.2587 -0.4245
  915MOL0     C26181   4.329   1.117   6.283  0.7952 -0.4778  0.4573
  915MOL0     C26182   4.224   1.138   6.374 -0.0809  0.0381  0.1383
  915MOL0     N26183   3.610   1.288   6.934  0.1081  0.5743  0.1885
  915MOL0     N26184   3.497   1.344   6.961  0.5512  0.4764  0.0833
  915MOL0     C26185   3.151   2.217   7.540 -0.5362 -0.3724 -0.9197
  915MOL0     C26186   3.240   2.302   7.601  0.3603 -0.7210  0.0267
  915MOL0     C26187   3.395   2.696   7.804 -0.7967  0.8961 -0.5744
  915MOL0     C26188   3.370   2.823   7.862  0.4953  0.4109  0.0344
  915MOL0     C26189   3.473   2.903   7.899 -0.1811  0.2370  0.2038
  915MOL0     C26190   3.601   2.861   7.907 -0.4631 -0.2236 -0.3158
  915MOL0     O26191   3.711   2.935   7.931 -0.1906  0.0513  0.4747
  915MOL0     C26192   3.687   3.057   7.998  0.4056 -1.0153  0.3397
  915MOL0     C26193   3.811   3.076   8.077  0.2279 -0.1387  0.1980
  915MOL0     C26194   3.812   3.199   8.157 -0.8746 -0.7946  0.6119
  915MOL0     C26195   3.940   3.242   8.227 -0.3584 -0.6529 -0.0568
  915MOL0     C26196   3.974   3.139   8.319 -0.7539 -1.3440 -0.3045
  915MOL0     C26197   4.021   3.058   8.395 -0.6970  1.0735  0.5735
  915MOL0     C26198   3.632   2.736   7.850  0.0436 -1.0044  0.1931
  915MOL0     C26199   3.535   2.655   7.791  0.3343  0.8201 -0.6807
  915MOL0     C26200   3.577   2.531   7.723  0.0331 -0.3461 -0.0452
  915MOL0     H26201   3.004   2.532   7.706  0.3423  0.5079 -0.6770
  915MOL0     H26202   2.853   2.369   7.606  0.2881 -0.2887  1.5554
  915MOL0     H26203   2.888   2.281   7.312 -0.5445  0.8128  0.6397
  915MOL0     H26204   2.800   2.131   7.321  0.1294  1.2799 -1.0269
  915MOL0     H26205   2.983   2.143   7.152 -2.6278 -0.5604  0.1491
  915MOL0     H26206   3.108   2.151   7.280 -0.3393  1.0326 -3.5048
  915MOL0     H26207   3.031   1.933   7.387  2.0091 -1.5385  0.8446
  915MOL0     H26208   2.922   1.922   7.241 -0.0142 -1.3151  1.1739
  915MOL0     H26209   3.146   1.948   7.103 -0.5275 -2.0680 -1.2944
  915MOL0     H26210   3.235   1.924   7.257  0.3064 -0.8151  0.6627
  915MOL0     H26211   3.068   1.690   7.153  0.8663 -2.2050  1.0053
  915MOL0     H26212   3.199   1.717   7.279 -0.2779  0.3065  0.8452
  915MOL0     H26213   3.213   1.743   6.973 -1.2098 -0.6123  1.0218
  915MOL0     H26214   3.339   1.798   7.086 -1.6916  2.8831  0.6005
  915MOL0     H26215   3.251   1.503   7.043  1.9665 -1.5567 -2.7325
  915MOL0     H26216   3.390   1.553   7.141  3.5267  2.1054 -0.7804
  915MOL0     H26217   3.354   1.548   6.842  1.6115  0.1983 -1.9791
  915MOL0     H26218   3.457   1.667   6.909  1.7066 -1.2897  0.6815
  915MOL0     H26219   3.691   1.601   6.890 -2.2105  0.7896  0.1555
  915MOL0     H26220   3.880   1.278   6.955  1.5164  1.5672  1.0449
  915MOL0     H26221   3.911   1.443   6.916 -0.5611 -0.0965  2.6884
  915MOL0     H26222   3.819   1.247   6.690 -0.3183 -0.4260  0.9525
  915MOL0     H26223   3.853   1.415   6.670 -2.1500  0.1117  0.6761
  915MOL0     H26224   4.068   1.414   6.682 -2.3664  1.9371 -0.1066
  915MOL0     H26225   4.070   1.281   6.794 -2.2342 -1.4797  0.3931
  915MOL0     H26226   4.164   1.183   6.629 -0.2946 -0.1917  2.8511
  915MOL0     H26227   3.993   1.131   6.597 -1.0918  1.1342  2.5632
  915MOL0     H26228   4.115   1.441   6.269  0.1339 -0.4078 -0.5878
  915MOL0     H26229   4.311   1.366   5.963  0.6463 -1.5392  0.5827
  915MOL0     H26230   4.325   1.501   6.080  1.8889 -1.2367 -2.8890
  915MOL0     H26231   4.166   1.448   6.010 -0.4475 -1.3198 -2.8216
  915MOL0     H26232   4.661   0.835   5.993  0.6233 -0.7968  1.8079
  915MOL0     H26233   4.885   0.835   5.893  0.4463  0.0093  0.1893
  915MOL0     H26234   5.106   0.837   5.862  3.3733  1.0768  0.6734
  915MOL0     H26235   5.012   0.915   5.725  0.8520  1.1921 -0.9030
  915MOL0     H26236   5.200   1.060   5.677 -1.5691 -0.3428 -0.5170
  915MOL0     H26237   5.293   0.992   5.812 -0.7718 -3.5314  1.4110
  915MOL0     H26238   5.191   0.841   5.573  1.9168 -0.6115 -2.2282
  915MOL0     H26239   5.311   0.779   5.694  0.0314 -1.6360 -1.6238
  915MOL0     H26240   5.436   0.997   5.607 -0.2946 -0.2726  0.5750
  915MOL0     H26241   5.365   0.954   5.457 -0.4019 -0.5803  0.5939
  915MOL0     H26242   5.487   0.725   5.604 -1.9120 -0.0992 -0.0064
  915MOL0     H26243   5.449   0.739   5.430  0.2928  1.3778 -1.8542
  915MOL0     H26244   5.654   0.905   5.569  2.4845  0.3443 -0.8196
  915MOL0     H26245   5.604   0.912   5.398 -2.0355 -3.0998 -1.7256
  915MOL0     H26246   5.669   0.645   5.425 -0.0854  0.1189 -0.2815
  915MOL0     H26247   5.766   0.700   5.560  1.7983 -3.0793 -0.9899
  915MOL0     H26248   5.889   0.861   5.394  2.2346 -1.4691 -1.3968
  915MOL0     H26249   5.769   0.821   5.270 -2.6655 -1.7130  0.1072
  915MOL0     H26250   4.945   1.234   6.010 -3.2465  1.8055  1.3313
  915MOL0     H26251   4.732   1.245   6.118  0.8989  1.6785 -2.6314
  915MOL0     H26252   4.375   1.018   6.283  2.1471  0.0483  3.5253
  915MOL0     H26253   4.209   1.056   6.443 -0.9985  1.1772  1.3500
  915MOL0     H26254   3.188   2.125   7.497 -1.8170 -0.8939 -0.9381
  915MOL0     H26255   3.347   2.295   7.617  0.7714  2.8066 -0.3616
  915MOL0     H26256   3.264   2.844   7.869  0.3495 -0.7380  2.3226
  915MOL0     H26257   3.455   3.007   7.924  0.8368  0.7889 -1.2448
  915MOL0     H26258   3.664   3.142   7.934 -1.3831  0.3957  2.6833
  915MOL0     H26259   3.613   3.050   8.078  0.1492  1.2442  0.3848
  915MOL0     H26260   3.884   3.088   7.997 -1.6127  2.8446 -1.2210
  915MOL0     H26261   3.821   2.996   8.151 -3.6695  0.9381  2.1648
  915MOL0     H26262   3.775   3.281   8.094  2.8889  0.2699 -0.4792
  915MOL0     H26263   3.733   3.180   8.231 -0.3172  2.8141  2.3656
  915MOL0     H26264   3.927   3.332   8.289  1.8565 -1.4935  1.7806
  915MOL0     H26265   4.004   3.267   8.143 -1.5275  1.4330 -0.4058
  915MOL0     H26266   4.073   2.993   8.463  0.3562  0.0352 -1.1664
  915MOL0     H26267   3.736   2.707   7.836  1.1900  1.4610  2.6614
  915MOL0     H26268   3.684   2.521   7.703 -0.1917  0.9485 -2.2648
  915MOL0     H26269   3.546   2.448   7.787 -0.8504  2.4998  3.5098
  915MOL0     H26270   3.528   2.523   7.625  2.0345 -1.7806 -0.9963
  916MOL0     O26271   9.071  11.404   7.082 -0.8093  0.4832 -0.0276
  916MOL0     C26272   8.975  11.469   7.041 -0.2038 -0.1292  0.5107
  916MOL0     O26273   8.976  11.547   6.933  0.6960 -0.3351 -0.3092
  916MOL0     C26274   9.086  11.513   6.852 -0.3119 -1.4360  0.7243
  916MOL0     C26275   9.202  11.600   6.857 -0.1330 -0.0768 -0.2385
  916MOL0     C26276   9.315  11.572   6.772 -0.0986 -0.4385 -0.4103
  916MOL0     C26277   9.316  11.450   6.698  0.0441  0.8530 -0.1251
  916MOL0     O26278   9.422  11.397   6.622 -0.1083  0.5337  0.3345
  916MOL0     C26279   9.511  11.480   6.546 -0.4403 -0.3989  0.2034
  916MOL0     C26280   9.652  11.462   6.599  0.2261  0.0358 -0.7981
  916MOL0     C26281   9.764  11.505   6.507  0.7828 -0.2538 -0.2649
  916MOL0     C26282   9.787  11.410   6.392  0.1646  0.3736  0.5649
  916MOL0     C26283   9.919  11.449   6.330 -1.2601  0.2735  0.9054
  916MOL0     C26284   9.978  11.359   6.223 -0.9115  0.1246 -0.6817
  916MOL0     C26285  10.115  11.403   6.172 -0.3169 -0.1971 -0.2872
  916MOL0     C26286  10.143  11.292   6.069  1.2188  0.3955 -1.3912
  916MOL0     N26287  10.290  11.308   6.037  0.5944  0.6983 -0.6930
  916MOL0     C26288  10.377  11.199   6.037  0.8153  0.3154  0.6152
  916MOL0     C26289  10.483  11.244   5.968 -0.4153  0.4651 -0.2994
  916MOL0     C26290  10.604  11.162   5.951 -0.6013 -0.2018  0.4469
  916MOL0     C26291  10.724  11.211   6.036  0.0483 -0.1039  0.1174
  916MOL0     C26292  10.863  11.151   5.995  0.4846 -0.2098 -0.5101
  916MOL0     C26293  10.977  11.234   6.061 -0.1157  0.1151  0.2827
  916MOL0     O26294  10.965  11.375   6.078 -0.4334  0.2983  0.6341
  916MOL0     C26295  11.069  11.418   6.165 -0.2728  0.0079 -0.6509
  916MOL0     C26296  11.180  11.341   6.212  0.4192 -0.5456  0.1764
  916MOL0     C26297  11.271  11.394   6.296  0.6937 -0.3096 -0.0567
  916MOL0     C26298  11.388  11.311   6.323  0.1386  0.1977  0.3296
  916MOL0     C26299  11.255  11.530   6.349 -0.5660  0.9436  0.5352
  916MOL0     C26300  11.355  11.596   6.443 -0.5683 -0.4691  0.5144
  916MOL0     O26301  11.341  11.733   6.454  1.4119 -0.4920  0.5077
  916MOL0     C26302  11.437  11.803   6.532  0.4275  0.1288 -0.0880
  916MOL0     C26303  11.489  11.916   6.483  0.1824 -0.9121 -0.6466
  916MOL0     C26304  11.581  11.988   6.552 -0.5062  0.6430 -0.9518
  916MOL0     C26305  11.615  11.959   6.689 -0.5235 -0.8192  1.0319
  916MOL0     O26306  11.697  12.034   6.772 -0.2703 -0.4986  0.5067
  916MOL0     C26307  11.820  12.084   6.728 -0.2161 -0.3823 -0.0072
  916MOL0     C26308  11.921  12.089   6.848 -0.7885  0.2856  0.6490
  916MOL0     C26309  11.977  11.950   6.884  0.0923 -0.2666  0.2285
  916MOL0     C26310  12.106  11.948   6.962 -0.2444  0.4557  0.2351
  916MOL0     C26311  12.138  11.804   7.015  0.2750 -0.7189 -0.1655
  916MOL0     C26312  12.215  11.715   6.916  0.3373  0.8492  0.1684
  916MOL0     C26313  12.269  11.591   6.997 -0.4474  0.0346 -0.5406
  916MOL0     C26314  12.190  11.463   6.998  0.9011  0.2856 -0.1086
  916MOL0    Cl26315  12.019  11.485   7.079  0.3377  0.3489  0.2622
  916MOL0     C26316  11.562  11.838   6.745 -0.1637  0.3157 -0.2311
  916MOL0     C26317  11.480  11.762   6.665  0.0867 -0.1483  0.6317
  916MOL0     O26318  11.441  11.531   6.506 -0.6065  0.4320  0.4945
  916MOL0     C26319  11.139  11.594   6.312  1.1166 -1.6865 -0.4362
  916MOL0     C26320  11.048  11.540   6.222  0.5253 -0.6929 -0.1160
  916MOL0     N26321  10.467  11.380   5.935  0.0285 -0.8084 -0.0316
  916MOL0     N26322  10.353  11.410   5.974  0.2749 -0.4605  0.0602
  916MOL0     C26323   9.202  11.370   6.701  0.3084  0.6052  0.3545
  916MOL0     C26324   9.092  11.394   6.781  1.2246  0.4251 -0.5033
  916MOL0     C26325   8.847  11.483   7.113  0.8004 -0.9675 -0.0346
  916MOL0     C26326   8.729  11.522   7.046 -0.3815 -0.0545  1.0428
  916MOL0     C26327   8.613  11.550   7.123  1.0379 -0.2398  0.2324
  916MOL0     C26328   8.608  11.530   7.255 -1.8512  0.7681  0.1148
  916MOL0     O26329   8.501  11.569   7.321  0.1650 -0.1812 -0.1989
  916MOL0     C26330   8.397  11.478   7.316  0.5822 -0.3162 -0.6218
  916MOL0     C26331   8.286  11.553   7.252  0.3958 -0.1836 -0.1830
  916MOL0     C26332   8.154  11.476   7.278 -0.5620 -0.6844 -0.1436
  916MOL0     C26333   8.024  11.537   7.217 -0.6043  0.7082  0.5657
  916MOL0     C26334   8.009  11.671   7.266  0.6181 -1.3332  0.7238
  916MOL0     C26335   7.991  11.782   7.287  0.6728 -0.2053 -0.3370
  916MOL0     C26336   8.714  11.483   7.321 -0.1027  0.3514 -0.1438
  916MOL0     C26337   8.837  11.460   7.260  0.3631  0.1828  0.4460
  916MOL0     C26338   8.964  11.431   7.342 -0.0619  0.3250  0.5111
  916MOL0     H26339   9.204  11.682   6.928 -0.4955  0.4211 -0.7980
  916MOL0     H26340   9.399  11.639   6.758  0.9624 -1.6421 -0.0317
  916MOL0     H26341   9.483  11.585   6.533 -2.3043 -0.6845  1.5457
  916MOL0     H26342   9.526  11.453   6.441  2.8699  2.0411 -0.1092
  916MOL0     H26343   9.668  11.526   6.687  1.5597  2.1422 -2.4580
  916MOL0     H26344   9.669  11.357   6.620  1.9228  0.4119 -0.1269
  916MOL0     H26345   9.733  11.608   6.487  0.4015 -0.1210  0.9289
  916MOL0     H26346   9.853  11.507   6.570  0.9162 -3.1381 -0.2545
  916MOL0     H26347   9.783  11.305   6.421 -1.4500  1.4627  5.2184
  916MOL0     H26348   9.718  11.433   6.310  1.6403  0.4265 -0.7234
  916MOL0     H26349   9.999  11.453   6.404  1.9197 -2.2133 -2.1156
  916MOL0     H26350   9.896  11.547   6.287 -2.5622 -0.7441 -0.8784
  916MOL0     H26351   9.993  11.262   6.270 -1.8767  0.6793  0.8424
  916MOL0     H26352   9.909  11.345   6.139 -0.9059 -3.1349 -0.2696
  916MOL0     H26353  10.191  11.411   6.250  0.5718 -2.7071 -0.8013
  916MOL0     H26354  10.107  11.493   6.110  0.0893 -1.1159 -1.7269
  916MOL0     H26355  10.120  11.194   6.112 -3.1711  1.2330 -1.3061
  916MOL0     H26356  10.071  11.304   5.987 -0.7579  0.7712  0.2998
  916MOL0     H26357  10.354  11.095   6.058 -2.9127  0.5280 -1.5270
  916MOL0     H26358  10.635  11.175   5.846  1.5053  0.6658  1.1215
  916MOL0     H26359  10.574  11.060   5.973 -3.8642  0.4122 -0.6419
  916MOL0     H26360  10.736  11.320   6.035  1.1106 -0.2166 -0.8454
  916MOL0     H26361  10.705  11.187   6.141  2.8503 -0.5027  0.6024
  916MOL0     H26362  10.861  11.049   6.035  0.9012 -0.7427 -1.8119
  916MOL0     H26363  10.880  11.157   5.887 -0.9141  0.2012 -0.7271
  916MOL0     H26364  10.982  11.189   6.161  0.6906 -0.8989 -0.1996
  916MOL0     H26365  11.064  11.215   5.998 -0.7829 -0.1917 -0.5592
  916MOL0     H26366  11.186  11.243   6.166 -2.2259 -0.5678 -0.2903
  916MOL0     H26367  11.477  11.353   6.276  0.8046 -1.5593 -0.0392
  916MOL0     H26368  11.377  11.213   6.277 -2.5286  0.4297  0.3111
  916MOL0     H26369  11.414  11.309   6.430 -0.3923  0.5719  0.4729
  916MOL0     H26370  11.439  11.947   6.392 -2.1160  1.3265  1.2207
  916MOL0     H26371  11.637  12.070   6.509 -0.9945  0.1577 -2.5644
  916MOL0     H26372  11.864  12.012   6.659 -0.2956 -1.5773  1.1405
  916MOL0     H26373  11.811  12.178   6.672 -1.2788 -0.0345  0.7039
  916MOL0     H26374  12.002  12.144   6.800 -3.3870  2.9513 -1.0674
  916MOL0     H26375  11.869  12.146   6.926 -1.0853  2.4253 -1.0038
  916MOL0     H26376  11.982  11.882   6.799 -1.1870 -0.9817  0.6860
  916MOL0     H26377  11.906  11.892   6.945  0.5551 -2.2645 -1.0505
  916MOL0     H26378  12.095  12.011   7.050  0.2450  0.9727 -0.0688
  916MOL0     H26379  12.189  11.986   6.902 -0.6497 -0.6001 -1.0620
  916MOL0     H26380  12.201  11.827   7.102 -1.2512  0.1704  0.7387
  916MOL0     H26381  12.048  11.754   7.049  1.2218 -3.1444 -1.0344
  916MOL0     H26382  12.299  11.775   6.881  0.6178 -0.3210 -1.2438
  916MOL0     H26383  12.149  11.689   6.833  0.2314  2.3243 -0.2405
  916MOL0     H26384  12.270  11.624   7.101  0.2253  0.7001 -0.7481
  916MOL0     H26385  12.372  11.564   6.970  1.0718  1.2710  3.3601
  916MOL0     H26386  12.251  11.387   7.047 -3.0746 -1.5961  2.4443
  916MOL0     H26387  12.162  11.428   6.898 -0.6553 -0.6572  0.6274
  916MOL0     H26388  11.584  11.813   6.848  1.1283 -2.1109 -1.0162
  916MOL0     H26389  11.434  11.672   6.704 -0.0431 -0.0168  0.7876
  916MOL0     H26390  11.108  11.691   6.350  1.4028 -2.2260  1.2393
  916MOL0     H26391  10.962  11.602   6.199  2.0448  2.6173  2.2961
  916MOL0     H26392   9.208  11.280   6.641  0.6364  0.6676  0.2907
  916MOL0     H26393   9.019  11.315   6.797 -1.5248  3.4257  3.3586
  916MOL0     H26394   8.728  11.535   6.938  1.3502  0.8811  1.1007
  916MOL0     H26395   8.524  11.581   7.069 -1.5338 -4.1798  1.7686
  916MOL0     H26396   8.421  11.387   7.259  1.1591  0.1859 -1.1998
  916MOL0     H26397   8.364  11.448   7.416 -0.5356  2.0206 -0.2383
  916MOL0     H26398   8.294  11.566   7.144 -0.2494  1.8644 -0.0339
  916MOL0     H26399   8.265  11.653   7.290 -2.6735 -0.6699 -0.3169
  916MOL0     H26400   8.171  11.369   7.261 -0.2277 -0.9104  1.4522
  916MOL0     H26401   8.125  11.476   7.383 -2.3435 -0.7332 -0.6025
  916MOL0     H26402   7.938  11.472   7.240 -0.0461 -1.0044 -1.7963
  916MOL0     H26403   8.038  11.543   7.109 -1.9788 -0.6819  0.2529
  916MOL0     H26404   7.984  11.886   7.312 -0.2489  0.7517 -4.0693
  916MOL0     H26405   8.703  11.488   7.429 -0.7271 -1.0993 -0.1224
  916MOL0     H26406   9.050  11.491   7.309  1.3030 -0.7326  2.0023
  916MOL0     H26407   8.962  11.462   7.447 -1.0354  2.6531 -0.1417
  916MOL0     H26408   8.992  11.327   7.324 -2.6817 -0.2553 -0.6176
  917MOL0     O26409   3.061   6.421   6.135  0.5336 -0.8099  0.6155
  917MOL0     C26410   3.035   6.510   6.226 -0.8880  0.6405  0.0643
  917MOL0     O26411   3.022   6.647   6.204 -0.6119 -0.1587  0.0146
  917MOL0     C26412   3.028   6.694   6.072  0.2109 -0.4333 -1.0249
  917MOL0     C26413   3.148   6.675   5.993  0.2129 -0.0016 -0.1183
  917MOL0     C26414   3.148   6.736   5.864  0.3646  0.2243  0.0708
  917MOL0     C26415   3.046   6.824   5.815  0.9204  0.2267 -0.5099
  917MOL0     O26416   3.053   6.854   5.682 -0.2936  0.5870  0.8095
  917MOL0     C26417   3.065   6.996   5.641 -0.0981 -1.0367  0.2430
  917MOL0     C26418   3.130   6.988   5.503  0.5906 -0.3272  0.4045
  917MOL0     C26419   3.144   7.112   5.413  0.2007  0.3498  0.0605
  917MOL0     C26420   3.034   7.216   5.437 -0.2048  1.0328 -1.1171
  917MOL0     C26421   3.056   7.342   5.363  0.5159 -0.4981  0.6055
  917MOL0     C26422   2.933   7.429   5.386 -0.5662 -1.0462  0.8392
  917MOL0     C26423   2.941   7.560   5.310  0.5259 -0.2127  0.2480
  917MOL0     C26424   2.816   7.641   5.326 -0.0321  0.3961 -0.0864
  917MOL0     N26425   2.843   7.772   5.259 -0.6036 -0.3533  0.3198
  917MOL0     C26426   2.824   7.807   5.126  0.7098  0.2855 -0.8988
  917MOL0     C26427   2.858   7.936   5.118  0.0079 -0.6144  0.4383
  917MOL0     C26428   2.835   8.013   4.998  0.4489 -0.6959  1.2990
  917MOL0     C26429   2.718   8.109   5.014  0.2708 -0.8247  0.0041
  917MOL0     C26430   2.734   8.243   4.939  0.3218  0.3668 -0.4668
  917MOL0     C26431   2.612   8.330   4.931 -0.4286 -0.2573 -0.2859
  917MOL0     O26432   2.491   8.263   4.888 -0.4579 -0.2122 -0.1923
  917MOL0     C26433   2.383   8.347   4.852 -0.2297 -0.0685 -0.3160
  917MOL0     C26434   2.311   8.314   4.738 -0.0576  0.2002  0.1382
  917MOL0     C26435   2.219   8.408   4.689  0.2527  0.4703  0.1628
  917MOL0     C26436   2.145   8.360   4.569 -0.1994  0.1905 -0.0278
  917MOL0     C26437   2.196   8.530   4.753 -0.4427 -0.8146  0.3957
  917MOL0     C26438   2.104   8.635   4.700  0.6985 -0.0500 -0.0334
  917MOL0     O26439   2.088   8.648   4.561 -0.7488  0.7931 -1.0493
  917MOL0     C26440   2.032   8.764   4.509 -0.3000  1.7941 -0.1383
  917MOL0     C26441   1.902   8.803   4.555  0.2904  0.4274  0.3902
  917MOL0     C26442   1.850   8.924   4.505 -0.5991  0.1814  0.0948
  917MOL0     C26443   1.923   8.998   4.413  0.3256 -1.0956  0.4331
  917MOL0     O26444   1.851   9.109   4.369 -0.1804  0.0787  0.0355
  917MOL0     C26445   1.907   9.182   4.257 -0.0404  0.2443 -0.2777
  917MOL0     C26446   1.793   9.261   4.197 -0.6129 -0.3148  0.4593
  917MOL0     C26447   1.845   9.318   4.066 -0.2452 -0.2044 -0.6540
  917MOL0     C26448   1.735   9.407   3.997  0.4825  0.1437  0.1929
  917MOL0     C26449   1.788   9.444   3.857 -0.7576  0.3181 -0.1339
  917MOL0     C26450   1.704   9.554   3.781 -0.2573  0.7980  0.0983
  917MOL0     C26451   1.643   9.513   3.649 -0.0144  0.1038 -0.3012
  917MOL0     C26452   1.750   9.481   3.542  1.0740 -0.9139  0.0750
  917MOL0    Cl26453   1.907   9.566   3.565 -0.4022  0.4470  0.0721
  917MOL0     C26454   2.050   8.951   4.365 -0.2056  0.6973 -0.0940
  917MOL0     C26455   2.105   8.837   4.416  0.4282  0.3040 -0.1604
  917MOL0     O26456   2.048   8.719   4.787  0.7477  0.2593  0.3868
  917MOL0     C26457   2.262   8.559   4.873 -0.7282  0.1613 -0.2403
  917MOL0     C26458   2.353   8.470   4.920  0.7719 -0.5164 -0.7811
  917MOL0     N26459   2.904   7.979   5.244 -0.1340 -0.7200 -0.6671
  917MOL0     N26460   2.892   7.882   5.325 -0.5402  0.0868 -0.1678
  917MOL0     C26461   2.937   6.851   5.894  0.3646  1.3359 -0.1722
  917MOL0     C26462   2.922   6.783   6.022 -1.0951 -0.0174  0.0593
  917MOL0     C26463   3.044   6.445   6.366 -0.0836  0.3540 -0.3586
  917MOL0     C26464   3.106   6.326   6.382  1.0426 -0.2427 -0.6095
  917MOL0     C26465   3.106   6.262   6.506 -0.6907 -0.4792 -0.9417
  917MOL0     C26466   3.044   6.315   6.626  0.3658  0.2345 -0.0961
  917MOL0     O26467   3.038   6.245   6.751 -0.5004 -0.3139  0.1660
  917MOL0     C26468   3.072   6.104   6.744  0.4808  0.0307 -0.2150
  917MOL0     C26469   3.011   6.035   6.865 -0.7141  0.1054  0.4586
  917MOL0     C26470   2.859   6.013   6.863 -0.5261  0.8558  0.1706
  917MOL0     C26471   2.830   5.902   6.962  0.2940 -0.5156  1.3245
  917MOL0     C26472   2.871   5.947   7.097  0.4424  0.5003 -0.1841
  917MOL0     C26473   2.917   5.989   7.199 -0.6521  0.5464  0.5934
  917MOL0     C26474   2.975   6.439   6.612 -1.3664 -0.8931  0.4092
  917MOL0     C26475   2.985   6.505   6.479  0.5195 -0.1839 -0.0925
  917MOL0     C26476   2.900   6.632   6.452  0.4205  1.1698  1.0447
  917MOL0     H26477   3.213   6.603   6.041  1.5377  0.7359 -0.7755
  917MOL0     H26478   3.223   6.702   5.793 -1.2262  0.7305 -1.9441
  917MOL0     H26479   3.118   7.056   5.716 -0.3234  0.3005 -0.6280
  917MOL0     H26480   2.965   7.039   5.629  0.4584  0.3630  0.4106
  917MOL0     H26481   3.230   6.946   5.521  0.2150 -0.9032  1.2322
  917MOL0     H26482   3.065   6.916   5.453 -2.6905  0.8203  2.6980
  917MOL0     H26483   3.248   7.138   5.435 -0.0619 -0.6180  3.0075
  917MOL0     H26484   3.140   7.081   5.308 -2.3840  1.4691 -0.2337
  917MOL0     H26485   2.939   7.164   5.420  0.8687 -1.2001 -0.6533
  917MOL0     H26486   3.041   7.233   5.545 -2.1349  1.0287 -0.9540
  917MOL0     H26487   3.067   7.330   5.254 -0.2332  0.8619  0.3624
  917MOL0     H26488   3.145   7.396   5.394  2.0669 -1.8864 -1.1487
  917MOL0     H26489   2.848   7.366   5.360 -0.9556  0.6062 -2.3104
  917MOL0     H26490   2.918   7.463   5.489 -1.1833  1.4681  0.0056
  917MOL0     H26491   2.944   7.547   5.202 -1.8146 -0.6606  0.1926
  917MOL0     H26492   3.036   7.610   5.331  1.0310 -0.0625 -2.0865
  917MOL0     H26493   2.737   7.600   5.262  2.8501 -0.5363 -3.3274
  917MOL0     H26494   2.776   7.648   5.427 -1.4605  1.4711 -0.6902
  917MOL0     H26495   2.786   7.740   5.050 -3.1080  0.3627  0.7024
  917MOL0     H26496   2.825   7.954   4.907  3.0586 -1.4595  1.4410
  917MOL0     H26497   2.920   8.077   4.974 -0.6305  0.7003  1.0167
  917MOL0     H26498   2.623   8.061   4.989 -0.4227 -0.6157  1.9986
  917MOL0     H26499   2.712   8.132   5.121 -1.1496 -2.4582  0.3297
  917MOL0     H26500   2.800   8.296   5.008 -1.6756 -0.3578  2.1928
  917MOL0     H26501   2.773   8.235   4.838 -0.2214  0.4642 -0.6885
  917MOL0     H26502   2.594   8.371   5.030 -3.5158 -0.7267 -0.5405
  917MOL0     H26503   2.642   8.413   4.867 -1.2521 -0.3367 -0.7931
  917MOL0     H26504   2.339   8.226   4.681  2.2499  2.3731 -2.3843
  917MOL0     H26505   2.041   8.393   4.578 -0.0971  0.2051  1.3706
  917MOL0     H26506   2.150   8.251   4.567 -0.5610  0.1309  1.2536
  917MOL0     H26507   2.183   8.408   4.478 -0.4896  1.0778  0.3056
  917MOL0     H26508   1.840   8.742   4.620 -1.2822  1.8644  0.2948
  917MOL0     H26509   1.749   8.948   4.538 -0.4284  0.3647  0.4987
  917MOL0     H26510   1.984   9.243   4.304  0.7438 -0.9308  0.0280
  917MOL0     H26511   1.944   9.110   4.183  1.4292  0.6268  0.0427
  917MOL0     H26512   1.709   9.195   4.177 -0.6325 -0.0389 -0.4397
  917MOL0     H26513   1.757   9.342   4.260  1.4829  1.2523 -0.2276
  917MOL0     H26514   1.863   9.233   4.001  0.5666 -1.6034  1.3152
  917MOL0     H26515   1.940   9.369   4.084 -0.1501 -0.8640  0.7934
  917MOL0     H26516   1.726   9.503   4.050 -0.9471 -0.0494  0.3234
  917MOL0     H26517   1.637   9.361   4.008 -0.1920  1.8889  2.2908
  917MOL0     H26518   1.888   9.484   3.872 -0.3964 -0.1217 -1.3051
  917MOL0     H26519   1.794   9.349   3.802  1.5030 -1.3020  2.6215
  917MOL0     H26520   1.759   9.647   3.766  1.8227  0.3058  3.5570
  917MOL0     H26521   1.628   9.575   3.857  1.7386 -1.3834  2.9210
  917MOL0     H26522   1.588   9.603   3.618  2.8127  1.2281 -2.3796
  917MOL0     H26523   1.573   9.428   3.652 -0.9690  0.8287 -1.1360
  917MOL0     H26524   1.711   9.513   3.445 -0.8153  0.8944  1.3690
  917MOL0     H26525   1.759   9.372   3.539 -1.0681 -1.1253  0.0443
  917MOL0     H26526   2.107   9.008   4.293  0.3210 -1.4491 -1.4605
  917MOL0     H26527   2.201   8.815   4.369  0.8641  1.2839  0.2436
  917MOL0     H26528   2.246   8.655   4.921  1.1994  0.3844  0.0612
  917MOL0     H26529   2.410   8.494   5.009  1.0170 -0.6763 -0.8930
  917MOL0     H26530   2.852   6.906   5.854 -0.0028 -0.1598 -1.5361
  917MOL0     H26531   2.835   6.813   6.081  0.3384  2.0426  1.2539
  917MOL0     H26532   3.148   6.270   6.298  0.2932 -2.3485  0.3414
  917MOL0     H26533   3.172   6.179   6.525  1.3309  0.9572 -1.4107
  917MOL0     H26534   3.036   6.062   6.650  0.1579 -0.4830  0.1306
  917MOL0     H26535   3.181   6.096   6.741  0.8315  3.5297 -0.7967
  917MOL0     H26536   3.022   6.107   6.946 -1.6407 -0.0296  0.7219
  917MOL0     H26537   3.061   5.938   6.871 -2.1031 -0.6923 -0.2865
  917MOL0     H26538   2.789   6.096   6.877 -3.2301 -1.4460  1.1854
  917MOL0     H26539   2.839   5.978   6.761  2.4618  1.7754 -0.8402
  917MOL0     H26540   2.887   5.813   6.933  0.5125 -0.1318  0.5523
  917MOL0     H26541   2.725   5.872   6.952  0.2789 -0.8849  2.4543
  917MOL0     H26542   2.959   6.022   7.292  1.5634 -3.9676  1.5046
  917MOL0     H26543   2.927   6.474   6.703 -3.3026 -0.7195 -0.6348
  917MOL0     H26544   2.825   6.601   6.379  2.2713 -0.7958 -0.1105
  917MOL0     H26545   2.849   6.650   6.547  0.3104 -1.5154  1.5589
  917MOL0     H26546   2.969   6.708   6.414  0.3739 -0.6831 -3.3005
  918MOL0     O26547   6.038   0.791   2.751 -0.5148  0.3300 -0.5579
  918MOL0     C26548   6.122   0.747   2.672 -0.1412 -1.1944 -0.5415
  918MOL0     O26549   6.101   0.673   2.570 -0.7301  0.5102 -0.4547
  918MOL0     C26550   5.976   0.630   2.542 -0.1363 -0.2700  0.7226
  918MOL0     C26551   5.921   0.512   2.594  0.3319  0.1805  0.7847
  918MOL0     C26552   5.800   0.458   2.548 -0.2446  0.1728 -0.3569
  918MOL0     C26553   5.719   0.530   2.467 -0.3600  0.9976 -0.1369
  918MOL0     O26554   5.609   0.460   2.425  0.1518 -0.3432  0.4208
  918MOL0     C26555   5.488   0.529   2.429  0.8224 -0.2483 -1.3286
  918MOL0     C26556   5.381   0.436   2.389  0.1270 -0.0998  0.4233
  918MOL0     C26557   5.251   0.511   2.410 -0.3840  0.0359  0.4537
  918MOL0     C26558   5.213   0.586   2.283 -0.5551 -0.2425 -0.5405
  918MOL0     C26559   5.076   0.655   2.316 -0.3664 -0.2094 -0.7713
  918MOL0     C26560   4.975   0.681   2.203 -0.1103  0.0478  0.1118
  918MOL0     C26561   5.051   0.687   2.066  0.6530  0.5377  0.0743
  918MOL0     C26562   4.963   0.719   1.939  0.5969 -0.3611 -1.0332
  918MOL0     N26563   4.833   0.655   1.943  0.9074  0.1409 -0.2926
  918MOL0     C26564   4.805   0.531   1.887  0.8912  0.1294 -0.1958
  918MOL0     C26565   4.673   0.514   1.901  1.0507  0.1794  0.2120
  918MOL0     C26566   4.575   0.409   1.852  0.1872  0.5460 -0.4833
  918MOL0     C26567   4.474   0.451   1.740 -0.2383  0.5360 -1.0845
  918MOL0     C26568   4.551   0.485   1.614  0.0188 -0.1883  0.5195
  918MOL0     C26569   4.439   0.526   1.512 -0.1753  0.7884 -0.0421
  918MOL0     O26570   4.490   0.554   1.373 -0.4225  0.8233 -0.2427
  918MOL0     C26571   4.399   0.621   1.296 -0.4451 -0.8516  0.3944
  918MOL0     C26572   4.404   0.757   1.273  0.2198  0.6008 -0.6793
  918MOL0     C26573   4.302   0.827   1.214 -0.0173  0.4164 -0.2668
  918MOL0     C26574   4.315   0.977   1.217 -0.4794  0.8631  0.2212
  918MOL0     C26575   4.189   0.758   1.167 -0.1272  0.1233 -0.4369
  918MOL0     C26576   4.069   0.827   1.124  0.6545  0.0690  0.0662
  918MOL0     O26577   4.097   0.946   1.048 -0.3450 -0.6995  1.0336
  918MOL0     C26578   3.991   1.027   1.026  0.2871 -0.7387  0.2840
  918MOL0     C26579   3.991   1.154   1.100 -0.1369  1.0748  0.7612
  918MOL0     C26580   3.886   1.243   1.078  0.2855 -0.2215 -0.4215
  918MOL0     C26581   3.787   1.231   0.987  0.4795 -0.1499 -0.5996
  918MOL0     O26582   3.689   1.317   0.973 -0.5677  0.7183  0.4381
  918MOL0     C26583   3.574   1.295   1.057 -0.0525  0.5647 -0.3796
  918MOL0     C26584   3.461   1.363   0.981 -0.1523  0.2259  0.7033
  918MOL0     C26585   3.422   1.278   0.858 -0.6568  0.4169  0.1808
  918MOL0     C26586   3.339   1.360   0.766  0.2208 -0.0124 -0.3772
  918MOL0     C26587   3.291   1.292   0.642 -0.5295  0.1054  0.4632
  918MOL0     C26588   3.223   1.157   0.653 -0.8739  0.2418  0.2611
  918MOL0     C26589   3.148   1.112   0.524 -0.1290 -0.5167 -0.5158
  918MOL0     C26590   3.058   0.989   0.548  0.9441 -0.0102 -0.0490
  918MOL0    Cl26591   2.915   1.056   0.634  0.1551  0.3597 -0.4177
  918MOL0     C26592   3.772   1.103   0.924  0.0387 -0.2230 -0.4502
  918MOL0     C26593   3.871   1.006   0.954 -0.1936  0.4749  0.6809
  918MOL0     O26594   3.966   0.760   1.125 -0.2873 -0.2395 -0.0280
  918MOL0     C26595   4.190   0.622   1.180 -0.3585  0.6722 -0.0326
  918MOL0     C26596   4.294   0.556   1.240 -0.1989  0.4617  0.2173
  918MOL0     N26597   4.617   0.633   1.959 -0.0579 -0.5892 -0.1895
  918MOL0     N26598   4.716   0.714   1.980  0.3437  0.1356  0.7525
  918MOL0     C26599   5.768   0.645   2.409 -0.3632 -0.1460  0.7803
  918MOL0     C26600   5.894   0.697   2.442 -0.5157  0.2860 -0.1881
  918MOL0     C26601   6.268   0.788   2.693  0.5545 -0.2944  0.5589
  918MOL0     C26602   6.285   0.916   2.751  0.2873 -0.0922 -0.8364
  918MOL0     C26603   6.417   0.960   2.784 -0.8557  0.2892 -0.1137
  918MOL0     C26604   6.527   0.873   2.755 -0.0773 -0.9500 -0.1465
  918MOL0     O26605   6.662   0.904   2.777  0.2053 -0.6512 -0.1277
  918MOL0     C26606   6.683   0.997   2.885 -0.2223  0.6272 -0.3112
  918MOL0     C26607   6.745   1.126   2.819 -0.3339  0.0488 -0.1407
  918MOL0     C26608   6.851   1.101   2.705 -0.0784  0.2005 -0.0368
  918MOL0     C26609   6.976   1.036   2.770  0.3130  0.4792  0.3719
  918MOL0     C26610   7.061   1.131   2.840 -0.5852 -0.3311 -0.5189
  918MOL0     C26611   7.129   1.203   2.905 -0.2853  0.0269 -0.1213
  918MOL0     C26612   6.503   0.759   2.682 -0.9131  0.7541 -0.5605
  918MOL0     C26613   6.373   0.707   2.650 -0.6944 -0.6691 -0.2245
  918MOL0     C26614   6.369   0.578   2.578 -0.9376 -0.5973  0.3902
  918MOL0     H26615   5.981   0.447   2.658 -1.8480 -0.3182  2.4249
  918MOL0     H26616   5.769   0.358   2.574 -1.1560  0.7656  0.9808
  918MOL0     H26617   5.474   0.619   2.369 -2.1394  1.3013  1.3861
  918MOL0     H26618   5.466   0.565   2.530  2.0429  0.6532 -1.3641
  918MOL0     H26619   5.403   0.396   2.290 -0.3146 -3.9499  1.7155
  918MOL0     H26620   5.378   0.344   2.448  0.3764  0.2986  1.0783
  918MOL0     H26621   5.175   0.432   2.414  0.0937 -0.5461 -1.3571
  918MOL0     H26622   5.237   0.576   2.497 -3.5416 -0.1829  0.2380
  918MOL0     H26623   5.294   0.657   2.263  0.3015 -0.3105  2.3203
  918MOL0     H26624   5.209   0.525   2.193 -0.9197  0.5759 -1.0949
  918MOL0     H26625   5.098   0.755   2.355 -0.6787 -0.5839  0.3901
  918MOL0     H26626   5.023   0.621   2.405 -0.4037  0.5093 -0.5110
  918MOL0     H26627   4.917   0.589   2.197  1.5829 -1.0644  0.3095
  918MOL0     H26628   4.910   0.768   2.220  0.8848  1.6439 -3.4008
  918MOL0     H26629   5.102   0.596   2.035 -0.1205 -0.2819  1.1427
  918MOL0     H26630   5.132   0.760   2.069  3.1953 -2.1503  0.3629
  918MOL0     H26631   4.944   0.826   1.928 -2.3935 -0.2350  2.9715
  918MOL0     H26632   5.024   0.683   1.855 -0.0694 -2.1290 -0.8105
  918MOL0     H26633   4.876   0.461   1.843  2.3980  0.3585  1.7320
  918MOL0     H26634   4.511   0.381   1.936 -0.4784  0.0118 -1.1565
  918MOL0     H26635   4.639   0.322   1.834 -1.6114 -1.3168  1.5365
  918MOL0     H26636   4.415   0.360   1.724 -0.7511  0.0959  2.6037
  918MOL0     H26637   4.408   0.527   1.781  0.4326  0.2635  0.5755
  918MOL0     H26638   4.613   0.573   1.636 -3.0257  1.5195  3.2189
  918MOL0     H26639   4.604   0.401   1.570  0.1281 -0.6145  1.4482
  918MOL0     H26640   4.366   0.445   1.517  0.7617 -0.0263  2.0850
  918MOL0     H26641   4.386   0.615   1.547 -0.4591  0.5399  0.1621
  918MOL0     H26642   4.483   0.815   1.320 -0.2480  0.4947  0.2590
  918MOL0     H26643   4.398   1.012   1.278 -0.4880 -1.4889  1.7135
  918MOL0     H26644   4.227   1.015   1.270 -1.1689 -2.4431  1.7178
  918MOL0     H26645   4.318   1.012   1.113 -0.8706 -2.4379 -1.0364
  918MOL0     H26646   4.064   1.195   1.169  0.1455 -1.7015  2.2694
  918MOL0     H26647   3.881   1.338   1.130 -0.4860 -0.2310 -0.4712
  918MOL0     H26648   3.554   1.188   1.057  0.3970  0.4144 -2.9477
  918MOL0     H26649   3.583   1.341   1.156  0.1638 -2.3332  1.0402
  918MOL0     H26650   3.377   1.376   1.050  0.2109 -0.3300  1.2540
  918MOL0     H26651   3.505   1.457   0.946  2.5155 -1.2873 -0.2620
  918MOL0     H26652   3.375   1.189   0.902  0.2355  0.8577  2.1281
  918MOL0     H26653   3.509   1.245   0.799 -0.2739 -1.3575  1.6393
  918MOL0     H26654   3.396   1.448   0.735  2.0719 -1.8913 -2.6917
  918MOL0     H26655   3.249   1.393   0.818  1.2309  1.0299  0.7836
  918MOL0     H26656   3.216   1.355   0.594  0.3165 -0.0467 -1.1540
  918MOL0     H26657   3.376   1.269   0.576 -1.3351  0.5146 -0.7419
  918MOL0     H26658   3.152   1.162   0.737  0.1588  1.6925  1.0994
  918MOL0     H26659   3.302   1.084   0.670  0.3844  2.0621  3.1370
  918MOL0     H26660   3.215   1.101   0.438 -0.6207  0.9722 -1.1103
  918MOL0     H26661   3.086   1.195   0.490 -1.5213 -0.5609  1.6767
  918MOL0     H26662   3.108   0.925   0.622 -1.4108  0.8357  2.4250
  918MOL0     H26663   3.040   0.926   0.460 -2.1540 -0.8255  1.0597
  918MOL0     H26664   3.686   1.081   0.861  1.0558 -1.5380 -1.4360
  918MOL0     H26665   3.876   0.910   0.904 -0.5647 -1.0731  3.4332
  918MOL0     H26666   4.118   0.556   1.132  2.1178 -0.4810 -2.4014
  918MOL0     H26667   4.293   0.447   1.241 -0.3402  0.4125 -1.5663
  918MOL0     H26668   5.728   0.694   2.321  0.5999  2.8232  1.8736
  918MOL0     H26669   5.926   0.788   2.392  0.8647  1.9129  3.3390
  918MOL0     H26670   6.214   0.994   2.778  2.6056  2.3406 -1.2506
  918MOL0     H26671   6.443   1.062   2.811  3.2458 -1.0864  1.9440
  918MOL0     H26672   6.596   1.025   2.945 -0.4906 -0.7636 -0.0144
  918MOL0     H26673   6.756   0.955   2.953  0.0917 -1.2516 -1.7308
  918MOL0     H26674   6.796   1.170   2.905 -2.8807  0.8104  1.0765
  918MOL0     H26675   6.656   1.187   2.799 -0.5095 -0.6807 -1.8422
  918MOL0     H26676   6.812   1.030   2.632 -0.0871  0.4871 -0.3129
  918MOL0     H26677   6.878   1.196   2.658 -3.5161  2.6045  2.3576
  918MOL0     H26678   7.033   0.992   2.688 -1.1873 -0.6180 -0.1242
  918MOL0     H26679   6.944   0.953   2.834  2.0686  1.3661  2.5286
  918MOL0     H26680   7.176   1.272   2.972  1.3035 -0.4197 -0.7296
  918MOL0     H26681   6.586   0.697   2.647 -1.8317 -0.6254 -0.3735
  918MOL0     H26682   6.468   0.534   2.563 -1.9816 -2.4751 -1.6089
  918MOL0     H26683   6.315   0.503   2.636 -0.2863 -1.5630 -0.2175
  918MOL0     H26684   6.333   0.600   2.477 -0.7669  2.9364  0.9961
  919MOL0     O26685   9.960   2.147   6.144  1.0873 -0.4696 -0.0585
  919MOL0     C26686   9.909   2.162   6.030 -0.6408  0.1422  0.0620
  919MOL0     O26687   9.777   2.188   5.988  0.5136  0.9869 -0.6349
  919MOL0     C26688   9.669   2.189   6.072 -0.5202 -0.0542  0.1134
  919MOL0     C26689   9.551   2.142   6.031  0.8135  0.4757  0.1372
  919MOL0     C26690   9.430   2.134   6.101 -0.1580 -0.4351 -0.5337
  919MOL0     C26691   9.433   2.184   6.232  0.2677  0.3901 -0.4446
  919MOL0     O26692   9.329   2.179   6.316 -0.3383 -0.4931 -0.2941
  919MOL0     C26693   9.198   2.133   6.272 -0.3808  0.1281 -1.3501
  919MOL0     C26694   9.096   2.156   6.379 -0.0668  0.3599 -0.3040
  919MOL0     C26695   9.109   2.070   6.499 -0.1732 -0.2212 -0.4892
  919MOL0     C26696   8.988   2.086   6.593  0.2293  0.1972  0.1106
  919MOL0     C26697   8.987   2.004   6.729  0.8405  0.0989  0.0407
  919MOL0     C26698   9.046   1.863   6.727  0.0313  0.2058  0.2496
  919MOL0     C26699   9.003   1.786   6.848 -0.8128  0.1214 -0.9352
  919MOL0     C26700   8.996   1.634   6.824 -0.0237  0.2979 -0.8298
  919MOL0     N26701   9.135   1.575   6.808 -0.1206  0.0332  1.2348
  919MOL0     C26702   9.254   1.602   6.870  0.0374 -0.6317  1.1012
  919MOL0     C26703   9.353   1.557   6.787 -0.3115  0.4872 -0.8411
  919MOL0     C26704   9.503   1.568   6.802 -0.7939 -0.1150  0.1908
  919MOL0     C26705   9.589   1.439   6.786 -0.4722 -0.9105  0.7911
  919MOL0     C26706   9.552   1.343   6.905 -0.4491  0.7513 -0.3668
  919MOL0     C26707   9.642   1.369   7.027 -0.0237 -0.3667  0.8144
  919MOL0     O26708   9.608   1.280   7.134  0.7862  0.2259  0.3475
  919MOL0     C26709   9.490   1.293   7.213 -0.2306  0.1808  0.3342
  919MOL0     C26710   9.465   1.179   7.289 -0.0725 -0.3578  0.2994
  919MOL0     C26711   9.353   1.174   7.373 -0.4819 -0.3718 -1.1407
  919MOL0     C26712   9.365   1.056   7.467  0.4573 -0.2476 -0.0330
  919MOL0     C26713   9.263   1.286   7.389 -0.8464  1.1982 -0.2717
  919MOL0     C26714   9.158   1.296   7.487 -1.3145  0.0888 -0.4159
  919MOL0     O26715   9.112   1.422   7.512 -0.3524 -0.1279 -0.2831
  919MOL0     C26716   8.986   1.454   7.566 -0.0653 -0.1909  0.4906
  919MOL0     C26717   8.871   1.373   7.558  0.5439  0.0564 -0.9574
  919MOL0     C26718   8.755   1.405   7.634 -0.9717 -0.2687  0.2025
  919MOL0     C26719   8.753   1.520   7.705  0.1054  0.0525 -0.6021
  919MOL0     O26720   8.631   1.556   7.758  0.7212  0.0488 -0.1778
  919MOL0     C26721   8.631   1.576   7.899  0.5591  0.3752 -0.7153
  919MOL0     C26722   8.473   1.594   7.926 -0.4276 -0.6212 -0.0350
  919MOL0     C26723   8.447   1.744   7.956 -0.4718  0.4205 -0.2453
  919MOL0     C26724   8.470   1.828   7.840 -0.4229  0.1566 -0.0617
  919MOL0     C26725   8.482   1.970   7.889  0.1194 -0.5160 -0.2240
  919MOL0     C26726   8.515   2.081   7.771  0.8042 -0.0542 -0.4793
  919MOL0     C26727   8.644   2.058   7.690 -0.3050 -0.4160  0.9888
  919MOL0     C26728   8.617   2.006   7.546  0.3892 -0.5211  0.3488
  919MOL0    Cl26729   8.594   2.151   7.451  0.2970  0.2818 -0.0001
  919MOL0     C26730   8.858   1.617   7.687  0.3650  0.8494  0.2518
  919MOL0     C26731   8.973   1.582   7.616  0.4089 -0.1013 -0.7340
  919MOL0     O26732   9.096   1.193   7.520 -0.1854 -0.2857  0.3262
  919MOL0     C26733   9.292   1.390   7.301 -0.0329 -1.3927  0.0224
  919MOL0     C26734   9.397   1.393   7.212  0.6519 -0.2485 -0.0464
  919MOL0     N26735   9.298   1.489   6.684  0.5951  0.3980 -0.6456
  919MOL0     N26736   9.169   1.494   6.700  0.9815 -0.6901 -0.0662
  919MOL0     C26737   9.562   2.227   6.285 -0.1378  0.9501 -0.2901
  919MOL0     C26738   9.677   2.235   6.202  0.4960  0.4958 -0.9160
  919MOL0     C26739  10.006   2.160   5.924  0.3420  0.1757  0.0535
  919MOL0     C26740   9.979   2.082   5.809 -0.0954  0.0066 -0.5834
  919MOL0     C26741  10.087   2.063   5.716 -0.1117  0.3863  0.1319
  919MOL0     C26742  10.217   2.126   5.732  0.3916 -0.9092 -0.0739
  919MOL0     O26743  10.326   2.112   5.649  0.2264 -1.0848  0.2354
  919MOL0     C26744  10.297   2.092   5.511 -0.8654 -0.8088 -0.5040
  919MOL0     C26745  10.382   2.195   5.432 -0.1590  0.3169 -0.5083
  919MOL0     C26746  10.536   2.169   5.429  0.1096  0.0407 -0.2250
  919MOL0     C26747  10.605   2.194   5.563 -0.6986 -0.7253 -0.4550
  919MOL0     C26748  10.749   2.208   5.536 -0.0625 -1.0535 -0.6418
  919MOL0     C26749  10.874   2.211   5.527  0.1655 -1.0063  0.4089
  919MOL0     C26750  10.226   2.211   5.842  0.0606  0.1058  0.2261
  919MOL0     C26751  10.127   2.231   5.940  0.7769 -0.2187 -0.5446
  919MOL0     C26752  10.162   2.327   6.056 -0.5653 -0.0008  0.0341
  919MOL0     H26753   9.562   2.103   5.930  1.5412 -0.3446  0.5202
  919MOL0     H26754   9.338   2.098   6.057 -1.3219  0.2741  1.1834
  919MOL0     H26755   9.214   2.026   6.255 -2.3870 -0.7697  1.6838
  919MOL0     H26756   9.166   2.184   6.180  4.7242  0.8748 -3.0490
  919MOL0     H26757   9.090   2.261   6.407  0.0644  1.1160 -2.9171
  919MOL0     H26758   9.005   2.122   6.329  0.4441 -1.2689 -0.1960
  919MOL0     H26759   9.108   1.965   6.469  6.2192 -1.0188  0.6580
  919MOL0     H26760   9.202   2.081   6.556 -0.7331 -1.4019  0.6854
  919MOL0     H26761   8.970   2.193   6.608  0.2828  0.5410 -1.9800
  919MOL0     H26762   8.899   2.053   6.539 -0.6353  2.0555  0.3109
  919MOL0     H26763   8.889   1.999   6.775  1.2095  0.0518  0.8276
  919MOL0     H26764   9.046   2.068   6.795 -0.2830  2.8670 -1.4819
  919MOL0     H26765   9.018   1.804   6.639 -5.5614  1.5903  0.7246
  919MOL0     H26766   9.155   1.863   6.723  0.0466  1.1735  0.4205
  919MOL0     H26767   8.901   1.812   6.879 -0.5919 -0.5812  0.4414
  919MOL0     H26768   9.074   1.817   6.925 -1.2870  2.7247 -1.4322
  919MOL0     H26769   8.948   1.592   6.913 -2.7769  0.0970 -2.3226
  919MOL0     H26770   8.937   1.608   6.735 -2.9894  1.1354  0.7630
  919MOL0     H26771   9.270   1.655   6.963  1.4518 -0.7978  0.9843
  919MOL0     H26772   9.525   1.626   6.892  0.7946  2.4606 -1.7461
  919MOL0     H26773   9.538   1.633   6.721 -0.1125 -1.9617 -1.0726
  919MOL0     H26774   9.584   1.386   6.691 -1.1718  0.4030  0.0597
  919MOL0     H26775   9.694   1.470   6.786 -0.5812 -0.2899 -2.2438
  919MOL0     H26776   9.454   1.369   6.948  0.6228  0.9276  2.1656
  919MOL0     H26777   9.580   1.243   6.872  4.1444  2.1271 -1.4236
  919MOL0     H26778   9.749   1.358   7.007 -0.2179 -2.6600  0.8363
  919MOL0     H26779   9.635   1.475   7.053  0.5548 -0.2603  0.5596
  919MOL0     H26780   9.524   1.088   7.289 -2.9730 -2.3655 -0.2096
  919MOL0     H26781   9.276   1.040   7.529  0.2711 -0.9851 -0.4785
  919MOL0     H26782   9.453   1.060   7.532  0.5050 -0.4344 -0.0834
  919MOL0     H26783   9.380   0.965   7.408  0.4879  0.9953 -2.0338
  919MOL0     H26784   8.859   1.289   7.491  0.0409 -0.6150 -0.0388
  919MOL0     H26785   8.668   1.340   7.641 -0.5792 -0.6236  2.4535
  919MOL0     H26786   8.669   1.487   7.950 -2.9630  0.2351  2.0091
  919MOL0     H26787   8.689   1.667   7.912  0.0290  0.4121  1.7070
  919MOL0     H26788   8.423   1.562   7.834 -2.2113  3.7372 -0.8432
  919MOL0     H26789   8.433   1.534   8.007 -0.3670 -3.1287 -1.7615
  919MOL0     H26790   8.523   1.764   8.033  1.0164  0.3687 -1.6440
  919MOL0     H26791   8.353   1.739   8.012  0.0009 -1.4167  0.4478
  919MOL0     H26792   8.383   1.839   7.774 -1.5258  0.8197  1.4527
  919MOL0     H26793   8.562   1.800   7.789  0.1174 -0.2237  1.1075
  919MOL0     H26794   8.385   1.996   7.930  0.6151  0.0351  0.6304
  919MOL0     H26795   8.552   1.975   7.973 -1.4180 -0.5699  1.1030
  919MOL0     H26796   8.508   2.182   7.813 -1.0904  0.1868 -1.2538
  919MOL0     H26797   8.434   2.073   7.698 -1.7040 -0.9268  2.1676
  919MOL0     H26798   8.706   1.991   7.750 -0.3828 -0.1192  1.3958
  919MOL0     H26799   8.696   2.153   7.679  1.4356 -1.5830 -2.7079
  919MOL0     H26800   8.524   1.949   7.543  0.1989 -0.2039  0.1866
  919MOL0     H26801   8.697   1.939   7.512  0.5928 -0.5836  0.9519
  919MOL0     H26802   8.857   1.717   7.729 -0.1899  1.9399 -2.2093
  919MOL0     H26803   9.043   1.665   7.616 -2.4709  2.5930  1.7706
  919MOL0     H26804   9.230   1.479   7.297 -1.5132 -2.4247 -2.6380
  919MOL0     H26805   9.424   1.478   7.150  2.4288 -0.9264 -0.2687
  919MOL0     H26806   9.579   2.257   6.388  1.0910  0.0729 -0.2165
  919MOL0     H26807   9.769   2.276   6.241  0.8495 -2.0304  1.1645
  919MOL0     H26808   9.881   2.039   5.793 -1.3726  2.3635  0.3180
  919MOL0     H26809  10.068   1.991   5.637 -1.2977 -0.5327  1.2079
  919MOL0     H26810  10.302   1.990   5.471  1.1146 -0.1472 -2.1521
  919MOL0     H26811  10.196   2.126   5.488 -0.9045 -2.1984 -2.7239
  919MOL0     H26812  10.373   2.296   5.475  1.0247 -0.4509  1.7089
  919MOL0     H26813  10.344   2.210   5.331  2.0735  3.6313 -1.0296
  919MOL0     H26814  10.549   2.067   5.394  2.5399  0.8412 -1.8851
  919MOL0     H26815  10.578   2.241   5.358  2.9171 -1.6415 -0.3925
  919MOL0     H26816  10.596   2.118   5.640  1.6035  0.1668  0.8072
  919MOL0     H26817  10.564   2.284   5.609  0.8438  0.8968 -2.0458
  919MOL0     H26818  10.977   2.205   5.499 -0.0460 -1.8361 -0.2320
  919MOL0     H26819  10.321   2.258   5.868 -0.3614  1.3959 -0.4667
  919MOL0     H26820  10.257   2.375   6.034  0.7669 -2.2327  0.5898
  919MOL0     H26821  10.087   2.406   6.051 -2.1396 -1.5075 -2.2620
  919MOL0     H26822  10.161   2.281   6.155 -1.0270  0.1885  0.1219
  920MOL0     O26823   0.359   4.243   6.619 -0.9280  0.9082  0.4408
  920MOL0     C26824   0.470   4.182   6.617  0.8751  0.5951  0.5529
  920MOL0     O26825   0.493   4.079   6.543 -1.0487 -0.4878 -0.0499
  920MOL0     C26826   0.384   4.030   6.468 -0.2496 -0.9801  0.2861
  920MOL0     C26827   0.311   4.113   6.377  1.4939 -0.0726 -0.3994
  920MOL0     C26828   0.199   4.071   6.308 -0.2514  0.0246  0.4460
  920MOL0     C26829   0.165   3.932   6.322 -0.1401 -0.0933  0.5196
  920MOL0     O26830   0.048   3.885   6.256  0.5786  0.3627 -0.2601
  920MOL0     C26831   0.012   3.945   6.132  0.0021 -0.2012  0.5059
  920MOL0     C26832  -0.077   3.854   6.048 -0.3555 -0.4123 -0.8080
  920MOL0     C26833  -0.001   3.719   6.032  0.1855  1.4326 -0.3594
  920MOL0     C26834  -0.080   3.596   5.978 -0.9179 -0.1406 -0.1658
  920MOL0     C26835   0.024   3.468   5.987 -0.6137 -0.0251 -0.3992
  920MOL0     C26836   0.126   3.470   5.871  0.5918 -0.3914 -0.8178
  920MOL0     C26837   0.063   3.398   5.753  0.1360 -0.7720  0.2552
  920MOL0     C26838   0.040   3.247   5.764  0.3505  0.4828  0.1401
  920MOL0     N26839  -0.033   3.198   5.645 -1.0211  1.1168  0.0974
  920MOL0     C26840  -0.166   3.221   5.616 -0.3637 -0.3753 -0.7961
  920MOL0     C26841  -0.196   3.145   5.508  0.8683 -0.2931 -0.8837
  920MOL0     C26842  -0.335   3.134   5.441 -0.1517 -0.4542  0.2314
  920MOL0     C26843  -0.343   3.035   5.331  0.2923 -1.2911  0.1783
  920MOL0     C26844  -0.330   2.891   5.377 -0.5182 -0.0140 -0.1037
  920MOL0     C26845  -0.329   2.797   5.257  0.3513  0.1758  0.1208
  920MOL0     O26846  -0.449   2.804   5.184  0.3020  0.8631 -0.5881
  920MOL0     C26847  -0.461   2.730   5.068  0.4523  0.9901 -0.5087
  920MOL0     C26848  -0.353   2.659   5.004  0.2894 -0.0049  0.2378
  920MOL0     C26849  -0.384   2.597   4.873  0.0648  0.8463 -0.5193
  920MOL0     C26850  -0.258   2.543   4.803 -0.5695 -0.6186 -0.4302
  920MOL0     C26851  -0.522   2.574   4.828 -0.0621 -0.4058 -0.0158
  920MOL0     C26852  -0.565   2.498   4.716  0.1172  0.2611 -0.4497
  920MOL0     O26853  -0.690   2.438   4.716 -0.0775  0.7290 -0.2833
  920MOL0     C26854  -0.732   2.372   4.609  0.7472 -0.0728 -0.6252
  920MOL0     C26855  -0.751   2.428   4.483  0.0726  1.0990 -0.2063
  920MOL0     C26856  -0.803   2.356   4.373 -0.9000 -0.0161  0.1821
  920MOL0     C26857  -0.843   2.227   4.394 -0.3684  0.2169  0.8864
  920MOL0     O26858  -0.900   2.170   4.281  0.4923  0.1297 -0.2496
  920MOL0     C26859  -0.991   2.056   4.288 -0.0075 -0.6025 -0.0800
  920MOL0     C26860  -1.050   2.032   4.142 -0.5113  0.2512 -0.3631
  920MOL0     C26861  -0.940   1.953   4.066  1.0005 -0.2204 -0.4821
  920MOL0     C26862  -0.988   1.903   3.920  0.3746 -1.3533  0.8476
  920MOL0     C26863  -1.101   1.800   3.912  0.1404  0.9255  0.3780
  920MOL0     C26864  -1.230   1.851   3.826 -0.0880  0.4092 -0.0613
  920MOL0     C26865  -1.262   1.734   3.717  0.1822  0.2614 -0.2118
  920MOL0     C26866  -1.390   1.668   3.753 -0.0636 -0.0552  1.1804
  920MOL0    Cl26867  -1.432   1.533   3.640 -0.5121 -0.4283  0.3359
  920MOL0     C26868  -0.829   2.166   4.514 -0.8364 -0.4488 -0.1444
  920MOL0     C26869  -0.771   2.237   4.623 -0.2378 -0.3495 -0.8514
  920MOL0     O26870  -0.499   2.517   4.616 -0.1199  0.0554  0.0657
  920MOL0     C26871  -0.619   2.647   4.904 -0.4549 -0.4516 -0.7786
  920MOL0     C26872  -0.587   2.725   5.015 -0.0781 -0.5590  0.1553
  920MOL0     N26873  -0.083   3.066   5.486  1.1623  0.4934  0.3356
  920MOL0     N26874   0.016   3.105   5.557  0.3815 -1.1480 -0.2810
  920MOL0     C26875   0.230   3.851   6.417 -0.2469 -0.6895 -0.1989
  920MOL0     C26876   0.348   3.895   6.485 -0.4807  0.9212 -0.1893
  920MOL0     C26877   0.575   4.218   6.718  0.2224  0.2234 -0.3783
  920MOL0     C26878   0.707   4.196   6.666 -0.0118 -0.6448 -0.7044
  920MOL0     C26879   0.816   4.227   6.750  0.1838  0.8815  0.1670
  920MOL0     C26880   0.800   4.278   6.877  0.1297 -0.3922 -0.6542
  920MOL0     O26881   0.918   4.319   6.934 -0.4455  0.3782 -0.6143
  920MOL0     C26882   0.921   4.378   7.064 -0.2051  0.5039 -0.0027
  920MOL0     C26883   1.055   4.442   7.089 -0.3300  0.1549 -0.1809
  920MOL0     C26884   1.042   4.554   7.190 -0.6415 -0.7556 -0.8443
  920MOL0     C26885   1.079   4.510   7.338 -0.4103 -0.3955  0.7473
  920MOL0     C26886   0.977   4.429   7.401  0.1241  0.9897 -0.3095
  920MOL0     C26887   0.876   4.365   7.439 -0.5604 -0.3230 -0.4701
  920MOL0     C26888   0.676   4.293   6.930  0.7905  0.9965 -0.6578
  920MOL0     C26889   0.562   4.268   6.851 -0.0686 -0.1996  0.1181
  920MOL0     C26890   0.431   4.303   6.918  0.5019 -0.7455  0.3546
  920MOL0     H26891   0.332   4.218   6.355 -1.3196  0.2997 -1.7152
  920MOL0     H26892   0.150   4.133   6.234  2.9530 -1.4665 -3.2454
  920MOL0     H26893   0.107   3.963   6.081  2.1351 -4.3416  2.4692
  920MOL0     H26894  -0.046   4.035   6.153 -2.1755 -1.2599 -0.5705
  920MOL0     H26895  -0.172   3.848   6.103  0.6899  0.1182  1.1272
  920MOL0     H26896  -0.096   3.907   5.954 -3.1194  0.2699  0.0206
  920MOL0     H26897   0.090   3.748   5.979  2.3137 -0.8561  1.8364
  920MOL0     H26898   0.027   3.698   6.135 -3.5456  1.5350  0.8436
  920MOL0     H26899  -0.174   3.576   6.031 -1.4503  3.3416  0.4675
  920MOL0     H26900  -0.100   3.611   5.872  1.5653  0.4177 -0.6239
  920MOL0     H26901  -0.024   3.369   5.989  0.8823 -0.8282 -1.9922
  920MOL0     H26902   0.083   3.471   6.079 -0.3886 -2.3673 -0.4015
  920MOL0     H26903   0.155   3.565   5.827 -1.1474 -0.0602 -1.3211
  920MOL0     H26904   0.222   3.427   5.900  0.6815 -0.4851 -1.2570
  920MOL0     H26905   0.121   3.419   5.662  1.3655  1.1542  1.4155
  920MOL0     H26906  -0.036   3.438   5.731  0.3938  0.7955  1.7535
  920MOL0     H26907   0.139   3.202   5.771 -0.6890 -1.6971  2.1532
  920MOL0     H26908  -0.013   3.206   5.851  2.2408 -2.5131  0.0005
  920MOL0     H26909  -0.226   3.304   5.652  0.1092 -0.9640  1.4937
  920MOL0     H26910  -0.367   3.235   5.411  2.0654  1.0064  2.4181
  920MOL0     H26911  -0.414   3.099   5.509  0.8510 -1.6409  0.8259
  920MOL0     H26912  -0.447   3.051   5.299  0.3004  0.8284  1.0581
  920MOL0     H26913  -0.278   3.057   5.245  1.0535 -3.5156  0.1169
  920MOL0     H26914  -0.235   2.871   5.426 -1.1562 -1.9529  0.4535
  920MOL0     H26915  -0.407   2.862   5.449  0.8721 -3.4935  0.1772
  920MOL0     H26916  -0.254   2.829   5.184 -0.1359 -2.9424 -1.9137
  920MOL0     H26917  -0.306   2.694   5.286 -0.6794  0.0873  0.6762
  920MOL0     H26918  -0.247   2.672   5.025  0.9513  0.4939 -2.8181
  920MOL0     H26919  -0.267   2.539   4.694 -2.2774 -0.2408 -0.3209
  920MOL0     H26920  -0.209   2.449   4.828  4.7175  1.0314 -2.9789
  920MOL0     H26921  -0.174   2.610   4.822 -0.9260 -0.0191 -0.9170
  920MOL0     H26922  -0.699   2.521   4.459 -0.0082  0.7999 -1.6176
  920MOL0     H26923  -0.818   2.403   4.277 -0.0952  0.9020  0.4870
  920MOL0     H26924  -0.945   1.964   4.325  0.5801  0.3959  1.8351
  920MOL0     H26925  -1.073   2.080   4.356  2.1518  4.6971  1.1645
  920MOL0     H26926  -1.145   1.979   4.145 -0.2119 -0.2745  0.0364
  920MOL0     H26927  -1.079   2.126   4.095  0.9268  1.1475  0.4582
  920MOL0     H26928  -0.939   1.860   4.124 -1.5615  1.2814  2.2166
  920MOL0     H26929  -0.844   2.005   4.079  1.3016 -0.4780 -1.5230
  920MOL0     H26930  -0.905   1.858   3.864 -0.2019 -3.7106  1.7836
  920MOL0     H26931  -1.026   1.994   3.873  0.1100  0.4390  4.2024
  920MOL0     H26932  -1.066   1.706   3.868 -0.8713  1.7305 -2.3256
  920MOL0     H26933  -1.134   1.788   4.016  2.2353 -1.4348  0.8902
  920MOL0     H26934  -1.211   1.941   3.767  0.1943  0.4790  0.1360
  920MOL0     H26935  -1.311   1.877   3.894 -1.5464  2.2960 -2.3353
  920MOL0     H26936  -1.184   1.658   3.712  1.2732  1.4088 -1.2840
  920MOL0     H26937  -1.265   1.786   3.621 -0.9206  1.3520  0.3915
  920MOL0     H26938  -1.478   1.733   3.752 -2.9131 -3.5252  2.7668
  920MOL0     H26939  -1.386   1.632   3.856 -2.8483 -0.1417  1.3220
  920MOL0     H26940  -0.852   2.065   4.546 -0.1041  0.1349  2.5310
  920MOL0     H26941  -0.749   2.173   4.708  2.6232 -2.1919 -2.8048
  920MOL0     H26942  -0.721   2.647   4.866  0.5137  3.5175 -4.0807
  920MOL0     H26943  -0.673   2.774   5.060  1.0710  1.4359  0.3154
  920MOL0     H26944   0.200   3.749   6.437  0.7285 -0.2774  4.3306
  920MOL0     H26945   0.392   3.829   6.559 -1.1513 -0.2947 -0.8350
  920MOL0     H26946   0.724   4.154   6.567  3.7198 -1.2552  0.0111
  920MOL0     H26947   0.914   4.210   6.707  0.5550 -2.3488  1.9884
  920MOL0     H26948   0.841   4.451   7.080 -1.6378 -1.0116 -0.0241
  920MOL0     H26949   0.909   4.294   7.132 -0.6197 -1.4566 -2.3716
  920MOL0     H26950   1.093   4.497   7.002 -0.6832 -0.0043 -0.4372
  920MOL0     H26951   1.133   4.371   7.117 -2.7869 -2.2455  0.9945
  920MOL0     H26952   1.120   4.628   7.168  0.9310 -0.3115  4.5922
  920MOL0     H26953   0.947   4.607   7.194  0.0888  0.5803  2.0795
  920MOL0     H26954   1.099   4.595   7.403  0.9601 -0.5724  0.5930
  920MOL0     H26955   1.171   4.451   7.336 -0.8666 -1.1526  1.5074
  920MOL0     H26956   0.786   4.315   7.470 -0.1780  0.3936  1.9591
  920MOL0     H26957   0.657   4.335   7.028  0.7938  1.1404 -0.7187
  920MOL0     H26958   0.414   4.411   6.921 -1.6956 -0.9351 -1.8565
  920MOL0     H26959   0.344   4.259   6.868 -2.1514  2.3204  1.9197
  920MOL0     H26960   0.431   4.265   7.021 -0.0091  1.5761  1.2656
  921MOL0     O26961   2.711   1.520   8.366 -0.0078 -0.5448 -0.0946
  921MOL0     C26962   2.820   1.585   8.373 -0.2490 -0.4420 -0.8478
  921MOL0     O26963   2.884   1.615   8.491 -0.4752  0.0406  0.2217
  921MOL0     C26964   2.831   1.579   8.617  0.1630 -1.3199 -0.1332
  921MOL0     C26965   2.793   1.448   8.646  0.0133  0.5625 -0.0774
  921MOL0     C26966   2.754   1.416   8.775  1.6780  0.0693 -0.5512
  921MOL0     C26967   2.752   1.512   8.879  0.7682 -0.4832  0.1646
  921MOL0     O26968   2.708   1.491   9.004  0.5808  0.2835 -0.4810
  921MOL0     C26969   2.706   1.357   9.059 -0.3066 -0.3332  0.2507
  921MOL0     C26970   2.726   1.352   9.214  0.5312 -0.3881  0.2826
  921MOL0     C26971   2.738   1.206   9.268 -0.4245  0.1087  1.1360
  921MOL0     C26972   2.700   1.182   9.411  0.0413 -0.6032  0.0843
  921MOL0     C26973   2.731   1.034   9.462 -0.3318 -0.4070 -0.8540
  921MOL0     C26974   2.706   1.000   9.611  0.0741 -0.1826 -0.6885
  921MOL0     C26975   2.793   1.079   9.713  1.2238  0.3907 -0.2521
  921MOL0     C26976   2.723   1.166   9.807  0.1259 -0.7332 -0.6768
  921MOL0     N26977   2.701   1.304   9.737 -0.0238  0.1071  0.4523
  921MOL0     C26978   2.776   1.419   9.760  0.9434  0.4410  0.1941
  921MOL0     C26979   2.693   1.527   9.736  0.0729 -0.5892  0.2128
  921MOL0     C26980   2.728   1.668   9.760  0.2793  0.0847 -0.1476
  921MOL0     C26981   2.728   1.753   9.635 -1.1681 -0.0425 -0.7572
  921MOL0     C26982   2.803   1.682   9.524 -0.0630  0.3713 -0.9170
  921MOL0     C26983   2.821   1.779   9.407 -0.1250  0.1209 -0.0421
  921MOL0     O26984   2.938   1.856   9.422 -0.1606  0.1906 -0.5672
  921MOL0     C26985   2.930   1.964   9.343  0.1046  0.6626  0.2714
  921MOL0     C26986   2.958   2.095   9.390  0.1644  0.6480 -0.5212
  921MOL0     C26987   2.966   2.206   9.307  0.2547 -0.2908  0.0645
  921MOL0     C26988   3.009   2.331   9.372  0.6786  0.0064 -0.4232
  921MOL0     C26989   2.955   2.188   9.167  1.2064  0.1431  0.4699
  921MOL0     C26990   2.986   2.291   9.062 -0.0399  0.0090 -0.6297
  921MOL0     O26991   2.933   2.278   8.934 -0.5370  0.2624 -0.1694
  921MOL0     C26992   2.866   2.388   8.886  0.9734 -0.0257  0.7327
  921MOL0     C26993   2.832   2.397   8.748 -0.8140 -0.3094 -0.1645
  921MOL0     C26994   2.750   2.494   8.696 -0.3983  0.0249  0.1162
  921MOL0     C26995   2.683   2.586   8.780  0.0259  0.2684  0.8993
  921MOL0     O26996   2.604   2.678   8.725 -0.0406  0.0352  0.2617
  921MOL0     C26997   2.467   2.641   8.719  0.4558  0.2497  0.6663
  921MOL0     C26998   2.384   2.774   8.688 -0.5491 -0.4617  0.3847
  921MOL0     C26999   2.411   2.883   8.793  0.3932 -1.3674 -0.4156
  921MOL0     C27000   2.334   2.848   8.922  0.1788  0.4246 -0.4933
  921MOL0     C27001   2.299   2.981   8.991 -0.0382 -0.0026 -1.0942
  921MOL0     C27002   2.194   3.066   8.922  0.7661 -0.1795  0.1880
  921MOL0     C27003   2.056   3.047   8.979  1.3387 -0.0517  0.4527
  921MOL0     C27004   1.965   3.140   8.890  0.5664  0.0535 -0.1772
  921MOL0    Cl27005   2.012   3.306   8.923  0.2315 -0.0648  0.0299
  921MOL0     C27006   2.712   2.589   8.914 -0.7842 -0.3608  0.1975
  921MOL0     C27007   2.806   2.489   8.969 -0.3091 -0.2469  0.3229
  921MOL0     O27008   3.050   2.392   9.112 -0.1112 -0.6824  0.0068
  921MOL0     C27009   2.919   2.058   9.117 -0.0651 -0.0272  0.7087
  921MOL0     C27010   2.903   1.947   9.201 -0.9728 -0.5694  0.8726
  921MOL0     N27011   2.580   1.472   9.677 -0.1912  0.1553  0.0259
  921MOL0     N27012   2.579   1.345   9.687 -0.0140  0.5995  1.6063
  921MOL0     C27013   2.778   1.641   8.850 -0.3119 -0.2699  0.1265
  921MOL0     C27014   2.823   1.674   8.722 -0.8856  0.6493 -0.2075
  921MOL0     C27015   2.882   1.639   8.253 -0.3995 -1.0131 -0.2735
  921MOL0     C27016   2.996   1.723   8.274  0.3804 -0.4651 -0.0959
  921MOL0     C27017   3.063   1.789   8.176 -0.1641  1.2819 -0.2015
  921MOL0     C27018   3.022   1.772   8.049  1.1344  0.8384 -0.1343
  921MOL0     O27019   3.099   1.831   7.954 -1.0855 -0.0171  0.3620
  921MOL0     C27020   3.024   1.903   7.848  0.1674 -0.2265 -0.0125
  921MOL0     C27021   3.109   2.002   7.770  0.1605  0.7400  0.4205
  921MOL0     C27022   3.254   2.024   7.818 -0.6901  0.1240 -0.1294
  921MOL0     C27023   3.348   1.911   7.778  0.0573  0.2975 -0.2086
  921MOL0     C27024   3.353   1.878   7.633 -0.0214 -0.2486 -1.1970
  921MOL0     C27025   3.362   1.849   7.518  1.3685  0.0250  0.4694
  921MOL0     C27026   2.904   1.702   8.018 -0.4901  1.1431 -0.4868
  921MOL0     C27027   2.835   1.633   8.121  0.6675  0.6797 -0.2809
  921MOL0     C27028   2.705   1.565   8.077 -0.1684 -0.1897 -0.4004
  921MOL0     H27029   2.806   1.371   8.571 -3.1922 -3.3483  2.9433
  921MOL0     H27030   2.734   1.311   8.790 -0.3012 -0.2009 -4.0175
  921MOL0     H27031   2.783   1.299   9.006  0.1911  0.4599  0.0980
  921MOL0     H27032   2.615   1.308   9.022  1.8096 -0.5901 -5.7060
  921MOL0     H27033   2.827   1.388   9.236  0.6526 -0.4982 -0.0869
  921MOL0     H27034   2.656   1.410   9.276 -0.1856 -1.5926  0.6395
  921MOL0     H27035   2.675   1.136   9.212  0.4540 -0.9913  1.4950
  921MOL0     H27036   2.841   1.172   9.260 -0.2309  0.5695  1.6110
  921MOL0     H27037   2.741   1.262   9.473 -2.3788  1.3950 -0.7069
  921MOL0     H27038   2.591   1.196   9.411  0.0879  0.0205 -1.8383
  921MOL0     H27039   2.839   1.013   9.461 -0.0080  1.0285  0.3311
  921MOL0     H27040   2.679   0.968   9.392 -0.3549 -2.8090  1.2686
  921MOL0     H27041   2.599   1.009   9.634 -0.5368 -0.6700 -3.0839
  921MOL0     H27042   2.731   0.896   9.632  2.9411  0.8769  1.9222
  921MOL0     H27043   2.870   1.124   9.649  3.5436 -4.1477 -1.0583
  921MOL0     H27044   2.851   1.000   9.763  0.0846 -1.0432 -1.1310
  921MOL0     H27045   2.620   1.145   9.834 -1.1954  3.7040 -1.4497
  921MOL0     H27046   2.787   1.178   9.895  0.3942 -3.0399 -0.5190
  921MOL0     H27047   2.874   1.428   9.805 -0.3264  0.6305  3.1454
  921MOL0     H27048   2.827   1.689   9.802  1.3636 -0.6193 -2.2028
  921MOL0     H27049   2.650   1.694   9.832 -0.5875 -0.8830 -0.7049
  921MOL0     H27050   2.623   1.773   9.610 -1.2302  1.3532  0.5032
  921MOL0     H27051   2.781   1.841   9.672 -1.7258 -0.8367  2.2860
  921MOL0     H27052   2.899   1.643   9.560 -0.0716 -0.7920 -2.0962
  921MOL0     H27053   2.743   1.596   9.493 -1.7497  1.1044  0.1447
  921MOL0     H27054   2.852   1.718   9.322  0.7332  0.0317  0.3160
  921MOL0     H27055   2.729   1.833   9.387 -0.9621 -0.3901  2.1016
  921MOL0     H27056   2.976   2.089   9.497  0.9917 -1.7464 -0.7322
  921MOL0     H27057   2.974   2.327   9.476  0.7034 -0.4407 -0.4286
  921MOL0     H27058   2.962   2.422   9.333  0.2628 -0.7263 -1.6818
  921MOL0     H27059   3.118   2.337   9.371  0.6609  0.4142 -0.2893
  921MOL0     H27060   2.867   2.327   8.673  0.9953 -0.0951  0.4346
  921MOL0     H27061   2.716   2.490   8.593 -2.2781 -1.2572  0.7295
  921MOL0     H27062   2.440   2.589   8.626 -1.6012  1.8750  0.2776
  921MOL0     H27063   2.437   2.585   8.808  1.6080  1.4979  1.8862
  921MOL0     H27064   2.405   2.808   8.586  2.8975  0.4447  1.2454
  921MOL0     H27065   2.278   2.749   8.687 -0.5028 -0.7346 -1.4538
  921MOL0     H27066   2.388   2.980   8.750  1.0958 -1.0843 -0.1700
  921MOL0     H27067   2.517   2.901   8.811  0.4445  0.9357 -2.5217
  921MOL0     H27068   2.391   2.778   8.984 -3.2842 -0.8505  1.5227
  921MOL0     H27069   2.238   2.801   8.900  0.4843  0.5098 -2.1382
  921MOL0     H27070   2.271   2.960   9.095  2.8179  2.4035  0.2957
  921MOL0     H27071   2.388   3.040   9.013 -0.9810  0.9431  0.4680
  921MOL0     H27072   2.194   3.038   8.816  0.8203 -2.6651  0.7650
  921MOL0     H27073   2.221   3.171   8.932  2.0020 -0.0901 -3.0797
  921MOL0     H27074   2.056   3.081   9.083  2.5990 -3.2709  1.6264
  921MOL0     H27075   2.022   2.943   8.976 -1.8474  0.8472 -3.1771
  921MOL0     H27076   1.858   3.130   8.913  0.6828 -0.7740  0.0211
  921MOL0     H27077   1.968   3.115   8.784  2.3811  1.3474 -0.4647
  921MOL0     H27078   2.653   2.654   8.978 -1.0020  0.9860 -1.3172
  921MOL0     H27079   2.816   2.502   9.077  2.9122  0.7114  0.0098
  921MOL0     H27080   2.894   2.043   9.013  0.1585  2.5987  0.2291
  921MOL0     H27081   2.879   1.855   9.149 -1.1700 -0.8312  1.4293
  921MOL0     H27082   2.780   1.711   8.933 -0.9881  1.9240 -1.6501
  921MOL0     H27083   2.867   1.770   8.698 -2.0292  0.8705 -1.5063
  921MOL0     H27084   3.040   1.739   8.372  0.9481  1.2923 -0.6014
  921MOL0     H27085   3.156   1.841   8.193  1.9181 -2.0402 -0.3944
  921MOL0     H27086   2.979   1.827   7.784  2.2105 -1.8774  0.4024
  921MOL0     H27087   2.938   1.958   7.887 -2.7904 -2.4638 -2.8824
  921MOL0     H27088   3.053   2.095   7.767 -0.3841  0.4197 -3.0064
  921MOL0     H27089   3.112   1.968   7.666 -0.4311  1.3335  0.2109
  921MOL0     H27090   3.291   2.120   7.780  0.2743  0.5985  1.8779
  921MOL0     H27091   3.257   2.038   7.927  1.3064  0.6889 -0.2119
  921MOL0     H27092   3.318   1.823   7.836  1.2807  0.2534  0.3690
  921MOL0     H27093   3.445   1.941   7.818 -1.5659  0.3519  4.2181
  921MOL0     H27094   3.363   1.858   7.411  0.0344  1.8437  0.5705
  921MOL0     H27095   2.874   1.685   7.915  1.6177 -2.4038 -0.6811
  921MOL0     H27096   2.616   1.628   8.088 -0.5014 -0.6762 -0.2308
  921MOL0     H27097   2.705   1.543   7.969  1.1280 -0.7556 -0.3010
  921MOL0     H27098   2.692   1.472   8.134  2.8457 -0.1612  0.4883
  922MOL0     O27099   1.816   4.918   1.867 -0.1309  0.3834 -0.4430
  922MOL0     C27100   1.821   4.842   1.959  0.0938 -0.1846 -0.2950
  922MOL0     O27101   1.729   4.742   2.000 -0.2298  0.8350  0.6829
  922MOL0     C27102   1.601   4.744   1.951 -1.0396  0.1084  0.3075
  922MOL0     C27103   1.536   4.862   1.915  0.2948 -0.0278 -0.4379
  922MOL0     C27104   1.410   4.861   1.856 -0.0528  1.2736 -0.8998
  922MOL0     C27105   1.348   4.745   1.815 -0.8479  0.6967 -0.5010
  922MOL0     O27106   1.229   4.733   1.743  0.1004  0.8175  0.2258
  922MOL0     C27107   1.127   4.771   1.841  0.6897 -0.2043 -0.6074
  922MOL0     C27108   1.000   4.801   1.767  0.3134  0.2086  0.7237
  922MOL0     C27109   0.946   4.667   1.694  0.3881 -0.0968 -0.7674
  922MOL0     C27110   0.816   4.691   1.618 -0.2516 -0.1631  0.1646
  922MOL0     C27111   0.736   4.564   1.581  0.3578  0.0490 -0.3691
  922MOL0     C27112   0.812   4.470   1.485 -0.1249  0.5830  0.3774
  922MOL0     C27113   0.730   4.353   1.451  0.4847 -0.5587  0.0003
  922MOL0     C27114   0.686   4.265   1.573  0.1751  0.0834 -0.4278
  922MOL0     N27115   0.635   4.124   1.544 -0.0286  0.8225 -0.0971
  922MOL0     C27116   0.518   4.090   1.488  0.0257  0.8605  1.1725
  922MOL0     C27117   0.539   3.959   1.441  0.1860 -0.3943 -0.1832
  922MOL0     C27118   0.444   3.886   1.351 -0.3374 -0.4098  0.1513
  922MOL0     C27119   0.454   3.951   1.209  0.0649 -0.0441 -0.3156
  922MOL0     C27120   0.566   3.870   1.135  1.0946  0.5731  0.7376
  922MOL0     C27121   0.704   3.929   1.157  0.6329  0.7844 -0.3447
  922MOL0     O27122   0.702   4.073   1.144 -0.4656 -0.1165  0.7865
  922MOL0     C27123   0.718   4.153   1.034  0.7652  0.2460  0.5524
  922MOL0     C27124   0.717   4.285   1.040  0.4659 -1.1496  0.0868
  922MOL0     C27125   0.733   4.373   0.936 -0.1245 -0.1111  0.0596
  922MOL0     C27126   0.730   4.518   0.973 -0.0062  0.1989  0.0272
  922MOL0     C27127   0.765   4.321   0.808 -0.1465  0.9799  0.4027
  922MOL0     C27128   0.783   4.398   0.681  0.0086 -0.1752 -1.3171
  922MOL0     O27129   0.839   4.518   0.693  0.3383  0.8353  0.6315
  922MOL0     C27130   0.880   4.576   0.588 -1.2238 -0.4801  0.7321
  922MOL0     C27131   0.869   4.718   0.582 -0.7822  0.1428  0.5832
  922MOL0     C27132   0.909   4.792   0.468 -0.9396  1.8108 -0.4168
  922MOL0     C27133   0.962   4.727   0.356  0.0015 -0.5268 -0.8028
  922MOL0     O27134   0.998   4.808   0.254 -0.2412 -0.3252  0.3503
  922MOL0     C27135   1.095   4.754   0.161  0.5838 -0.0101 -0.6694
  922MOL0     C27136   1.194   4.871   0.113  0.6718  0.5736 -0.5793
  922MOL0     C27137   1.301   4.823   0.015  0.9315  0.1194 -0.0808
  922MOL0     C27138   1.278   4.883  -0.120 -0.1599  0.1209 -0.1029
  922MOL0     C27139   1.368   4.839  -0.238  0.4364  0.3566 -0.0931
  922MOL0     C27140   1.510   4.914  -0.217  0.1864 -0.0125 -0.7364
  922MOL0     C27141   1.590   4.921  -0.350  0.1862  0.4795 -0.3734
  922MOL0     C27142   1.722   4.990  -0.330 -0.1802  0.1382  0.2304
  922MOL0    Cl27143   1.703   5.173  -0.282  0.2014  0.7436  0.6521
  922MOL0     C27144   0.970   4.591   0.354  0.4403 -0.3897 -0.5646
  922MOL0     C27145   0.939   4.524   0.469  0.8133 -0.0053 -0.2552
  922MOL0     O27146   0.744   4.344   0.581  0.2844  0.3323  0.1531
  922MOL0     C27147   0.758   4.179   0.800  0.6854  0.0998 -0.8150
  922MOL0     C27148   0.740   4.098   0.912  0.1705 -0.0739 -0.3566
  922MOL0     N27149   0.659   3.912   1.506  0.4014 -0.8516  0.6998
  922MOL0     N27150   0.708   4.016   1.572  0.2453 -0.1267  0.7628
  922MOL0     C27151   1.415   4.629   1.845  0.5452  0.4399  0.1535
  922MOL0     C27152   1.546   4.628   1.911  0.0692 -0.0771  0.0761
  922MOL0     C27153   1.947   4.827   2.037 -1.1960  0.6155 -0.4079
  922MOL0     C27154   1.993   4.693   2.033 -0.5859 -0.0782  0.5957
  922MOL0     C27155   2.115   4.660   2.089  0.3012  0.6474 -1.0071
  922MOL0     C27156   2.196   4.757   2.148 -0.4510  0.4397  0.0070
  922MOL0     O27157   2.321   4.724   2.204  0.7710 -0.0440 -0.8732
  922MOL0     C27158   2.429   4.749   2.119  0.0860  0.7862  0.1830
  922MOL0     C27159   2.562   4.737   2.192 -0.3408 -0.5102 -0.0683
  922MOL0     C27160   2.684   4.759   2.093  0.5224 -0.1211 -0.0507
  922MOL0     C27161   2.816   4.738   2.161  0.0448  0.5584 -0.6562
  922MOL0     C27162   2.836   4.599   2.224  0.5727 -0.8173  0.2513
  922MOL0     C27163   2.853   4.493   2.286 -0.0894 -0.4940 -0.2851
  922MOL0     C27164   2.145   4.889   2.171  0.9458  0.0537 -0.2955
  922MOL0     C27165   2.025   4.921   2.106  0.5065 -1.1227 -0.1190
  922MOL0     C27166   1.980   5.064   2.098 -0.4392  0.3352  0.3278
  922MOL0     H27167   1.577   4.961   1.931  1.0938 -0.4206  0.0431
  922MOL0     H27168   1.363   4.959   1.853 -0.6826  1.0949  1.3611
  922MOL0     H27169   1.144   4.858   1.906  0.3206 -0.2241 -0.4841
  922MOL0     H27170   1.108   4.680   1.899  1.8453  0.0365  0.1838
  922MOL0     H27171   0.930   4.835   1.843 -1.6109 -0.6782 -0.5659
  922MOL0     H27172   1.018   4.882   1.696  0.8028  1.2576  2.0137
  922MOL0     H27173   1.020   4.623   1.627 -0.5375 -0.6156 -1.4609
  922MOL0     H27174   0.923   4.594   1.772 -0.4407  0.9666  0.0144
  922MOL0     H27175   0.763   4.763   1.682  1.4671  1.5880 -0.2696
  922MOL0     H27176   0.851   4.741   1.528  3.9717 -2.9152  0.0146
  922MOL0     H27177   0.644   4.604   1.536 -0.4367  0.0274  1.1739
  922MOL0     H27178   0.709   4.511   1.673  0.3030  1.3616  0.3977
  922MOL0     H27179   0.825   4.522   1.389 -2.1226  1.7129  0.6520
  922MOL0     H27180   0.915   4.442   1.509 -0.4973 -1.0555  0.1924
  922MOL0     H27181   0.796   4.289   1.391 -0.5455 -0.1135 -1.6738
  922MOL0     H27182   0.648   4.392   1.391  0.1253 -0.1211  0.7696
  922MOL0     H27183   0.781   4.230   1.613 -0.2443 -1.5329 -0.7421
  922MOL0     H27184   0.624   4.322   1.643 -0.6038  2.0318 -2.5852
  922MOL0     H27185   0.436   4.156   1.462 -0.2589  1.1493  2.7042
  922MOL0     H27186   0.344   3.916   1.383 -1.3201 -0.5409 -2.5558
  922MOL0     H27187   0.442   3.778   1.365 -3.8583 -0.7170 -1.5917
  922MOL0     H27188   0.355   3.930   1.166 -0.4989 -0.4948  1.1610
  922MOL0     H27189   0.459   4.059   1.220 -0.3292 -0.2952  4.3612
  922MOL0     H27190   0.564   3.766   1.169  1.5392  0.6054  0.8772
  922MOL0     H27191   0.545   3.869   1.028  1.3538  4.4914  0.5000
  922MOL0     H27192   0.748   3.907   1.255  2.8992  1.7740 -1.0618
  922MOL0     H27193   0.772   3.883   1.084 -0.1906 -2.5204  0.7986
  922MOL0     H27194   0.695   4.326   1.138 -0.2991  0.3958 -0.6931
  922MOL0     H27195   0.666   4.567   0.898 -0.1823  0.8542  0.5973
  922MOL0     H27196   0.824   4.572   0.964  0.6257 -1.0484 -1.1403
  922MOL0     H27197   0.690   4.541   1.072  1.0340 -1.1379  0.7890
  922MOL0     H27198   0.827   4.760   0.673 -0.3326 -1.6087  1.6586
  922MOL0     H27199   0.900   4.899   0.452 -0.7992  1.9070  0.1269
  922MOL0     H27200   1.149   4.670   0.207  0.0676  0.6149  1.1685
  922MOL0     H27201   1.037   4.727   0.073  3.3034 -2.3640 -1.9166
  922MOL0     H27202   1.124   4.935   0.058 -0.5547 -0.0704  0.1834
  922MOL0     H27203   1.232   4.918   0.204 -2.9560 -1.7069  2.4369
  922MOL0     H27204   1.297   4.714   0.002 -0.6756  0.1562  0.0197
  922MOL0     H27205   1.399   4.864   0.042  1.2856  0.5627 -1.8830
  922MOL0     H27206   1.273   4.991  -0.102 -1.0754 -0.3075  2.5999
  922MOL0     H27207   1.179   4.861  -0.159 -0.1984  3.2597 -2.1389
  922MOL0     H27208   1.380   4.732  -0.255  0.2784 -0.2486  3.0359
  922MOL0     H27209   1.308   4.879  -0.319 -2.4447 -0.9329  1.2770
  922MOL0     H27210   1.568   4.860  -0.142 -0.8291 -2.4971 -1.6437
  922MOL0     H27211   1.490   5.014  -0.178  0.4343 -0.5427  0.8018
  922MOL0     H27212   1.529   4.967  -0.429 -0.4428 -1.0054 -0.7772
  922MOL0     H27213   1.604   4.816  -0.378  1.6441  0.2547  1.0699
  922MOL0     H27214   1.774   5.002  -0.426  0.2677 -2.7718  0.0273
  922MOL0     H27215   1.789   4.941  -0.260 -1.1595 -0.6215  0.6681
  922MOL0     H27216   1.006   4.537   0.267  2.3773  0.6745 -0.4864
  922MOL0     H27217   0.947   4.416   0.461  0.6955  0.0144 -0.6925
  922MOL0     H27218   0.779   4.134   0.703 -1.9016  0.5069 -1.6545
  922MOL0     H27219   0.731   3.991   0.895 -3.7613  0.3253 -1.9169
  922MOL0     H27220   1.373   4.537   1.806 -1.1038  1.9551 -1.8310
  922MOL0     H27221   1.591   4.530   1.921 -3.2856 -2.7291 -5.7709
  922MOL0     H27222   1.942   4.615   1.977  0.0574 -1.0353  1.3141
  922MOL0     H27223   2.139   4.556   2.069 -1.4960  0.3030 -1.4907
  922MOL0     H27224   2.416   4.672   2.043  2.4559  1.5890 -1.1548
  922MOL0     H27225   2.417   4.844   2.064  0.3198 -1.1463 -3.5279
  922MOL0     H27226   2.568   4.640   2.243 -0.0635 -1.5010 -1.9076
  922MOL0     H27227   2.561   4.811   2.273 -1.4185 -1.4414  0.8063
  922MOL0     H27228   2.678   4.698   2.003  1.0108 -2.1383  1.2257
  922MOL0     H27229   2.688   4.864   2.062 -0.1280 -0.2309 -0.5371
  922MOL0     H27230   2.825   4.808   2.244  0.1580  0.3064 -0.4558
  922MOL0     H27231   2.896   4.758   2.088  2.2855 -3.8169  0.2119
  922MOL0     H27232   2.895   4.409   2.338  3.8656 -1.2322 -4.1001
  922MOL0     H27233   2.198   4.963   2.229 -2.0240  0.9433  1.5483
  922MOL0     H27234   1.874   5.068   2.125 -0.4628 -3.4348  1.3724
  922MOL0     H27235   2.042   5.130   2.159  1.3973 -2.2212  1.4544
  922MOL0     H27236   1.999   5.093   1.995 -0.3017 -1.6144 -0.2370
  923MOL0     O27237   1.896   2.223   4.633  0.6989 -0.5383 -0.4380
  923MOL0     C27238   1.877   2.337   4.600 -0.1731 -0.4638  0.2389
  923MOL0     O27239   1.955   2.449   4.638 -0.3815 -0.0498 -0.2496
  923MOL0     C27240   2.073   2.445   4.696 -0.5784  0.4421  0.7199
  923MOL0     C27241   2.138   2.336   4.759  0.0500 -0.2448 -0.4195
  923MOL0     C27242   2.271   2.356   4.807  0.5021 -0.7585 -0.4353
  923MOL0     C27243   2.333   2.485   4.803  0.4828 -0.2692  0.1958
  923MOL0     O27244   2.455   2.499   4.851  1.0401  0.2088 -0.8058
  923MOL0     C27245   2.532   2.616   4.810  1.0663  0.1020 -0.2844
  923MOL0     C27246   2.678   2.604   4.871 -0.3192 -0.3674 -0.1941
  923MOL0     C27247   2.740   2.467   4.830 -0.2189  0.2710 -1.1464
  923MOL0     C27248   2.894   2.469   4.859  0.0142 -0.1775 -0.2909
  923MOL0     C27249   2.967   2.339   4.820  1.1307  0.7689 -0.5060
  923MOL0     C27250   2.895   2.206   4.839  0.4563 -0.1007  0.5834
  923MOL0     C27251   2.970   2.085   4.801  0.0924  0.2384 -0.3815
  923MOL0     C27252   2.892   1.958   4.793 -0.6439  1.0221  0.4924
  923MOL0     N27253   2.970   1.858   4.714  0.2768  0.7041 -0.7764
  923MOL0     C27254   3.061   1.776   4.767  0.4242 -0.1614 -0.7068
  923MOL0     C27255   3.064   1.657   4.697  0.5328 -0.7444 -0.7485
  923MOL0     C27256   3.148   1.539   4.707  0.2144  0.1395  0.4013
  923MOL0     C27257   3.291   1.588   4.732 -0.1381  0.0891 -0.1518
  923MOL0     C27258   3.352   1.653   4.610 -0.0254 -1.3925 -0.5290
  923MOL0     C27259   3.476   1.755   4.626  0.0716  1.4121 -0.0364
  923MOL0     O27260   3.452   1.869   4.704 -1.0236 -0.5539 -0.4606
  923MOL0     C27261   3.389   1.973   4.649  0.2316 -0.0680  1.6681
  923MOL0     C27262   3.403   2.096   4.721  0.1977  0.2881  0.1854
  923MOL0     C27263   3.348   2.220   4.670  0.1017 -0.0107  0.0667
  923MOL0     C27264   3.338   2.333   4.775 -0.2432 -0.8166  0.1277
  923MOL0     C27265   3.307   2.219   4.529 -0.2475  0.4474 -0.5055
  923MOL0     C27266   3.251   2.334   4.456 -0.5849  0.6696 -0.0857
  923MOL0     O27267   3.272   2.447   4.526 -0.1608  0.4483  0.4136
  923MOL0     C27268   3.239   2.564   4.456 -0.6477  0.6348  0.0276
  923MOL0     C27269   3.284   2.593   4.329 -0.1506 -0.2242  0.2663
  923MOL0     C27270   3.258   2.707   4.267  0.1405 -0.0096  0.7178
  923MOL0     C27271   3.179   2.807   4.320  0.5384  0.1551  0.7066
  923MOL0     O27272   3.173   2.912   4.242 -0.3749 -0.4948  0.5443
  923MOL0     C27273   3.075   3.013   4.268 -0.8955 -0.0952 -0.4448
  923MOL0     C27274   3.145   3.155   4.230 -0.3820  0.1611  0.1739
  923MOL0     C27275   3.046   3.268   4.259 -0.2490 -0.8962 -0.5988
  923MOL0     C27276   3.116   3.403   4.206 -0.5131 -0.7501 -0.7684
  923MOL0     C27277   3.056   3.517   4.301 -0.1341  0.0018  0.0830
  923MOL0     C27278   2.906   3.553   4.265  0.0263  0.9728  0.1162
  923MOL0     C27279   2.872   3.683   4.344 -0.0380  0.1714 -0.2979
  923MOL0     C27280   2.743   3.754   4.305  0.4591  0.8089 -0.3027
  923MOL0    Cl27281   2.740   3.766   4.124  0.4180  0.1064 -0.3155
  923MOL0     C27282   3.119   2.774   4.444 -0.2605 -0.0649 -0.8127
  923MOL0     C27283   3.153   2.658   4.510  0.0936  0.3643 -0.0989
  923MOL0     O27284   3.188   2.317   4.350  0.6675  0.8537 -0.6447
  923MOL0     C27285   3.296   2.098   4.459 -0.5993  1.5238  0.4482
  923MOL0     C27286   3.331   1.976   4.515 -0.0769  0.3375 -0.5635
  923MOL0     N27287   2.967   1.675   4.602  0.8040 -0.2364 -0.0247
  923MOL0     N27288   2.897   1.783   4.632  0.0250 -0.7976 -0.1269
  923MOL0     C27289   2.268   2.590   4.750  0.6552 -0.6739  0.0929
  923MOL0     C27290   2.142   2.571   4.697 -1.3632  0.0664  0.5716
  923MOL0     C27291   1.768   2.373   4.499 -0.7829 -0.1189 -0.5545
  923MOL0     C27292   1.785   2.480   4.406 -0.1898 -0.2857  0.0161
  923MOL0     C27293   1.703   2.499   4.307 -0.7557 -0.1585 -0.1594
  923MOL0     C27294   1.589   2.426   4.298  1.6303  0.0932 -0.1816
  923MOL0     O27295   1.491   2.451   4.200 -0.0456 -0.2834 -0.2285
  923MOL0     C27296   1.513   2.537   4.086  0.7113 -0.7603 -0.0816
  923MOL0     C27297   1.604   2.485   3.979  0.1107 -0.0076 -0.3709
  923MOL0     C27298   1.570   2.337   3.943  0.3671 -0.4355  0.0575
  923MOL0     C27299   1.648   2.283   3.822 -0.2641  0.4801  1.0737
  923MOL0     C27300   1.789   2.275   3.842 -0.3183 -0.8952 -0.4754
  923MOL0     C27301   1.905   2.258   3.879  0.1464  0.4689 -0.8427
  923MOL0     C27302   1.558   2.329   4.393  0.2956 -0.6353  0.0557
  923MOL0     C27303   1.649   2.296   4.495  0.1791  0.6699  0.0098
  923MOL0     C27304   1.617   2.186   4.599  0.0027 -0.6691  1.2548
  923MOL0     H27305   2.079   2.245   4.771  1.3683 -1.0276  0.3371
  923MOL0     H27306   2.333   2.274   4.842 -0.0736 -1.1798 -0.4015
  923MOL0     H27307   2.489   2.714   4.833  1.9646  0.2772  0.7588
  923MOL0     H27308   2.544   2.611   4.702 -0.5516  0.7288 -0.5255
  923MOL0     H27309   2.743   2.680   4.827  2.8183 -2.0985  1.1228
  923MOL0     H27310   2.679   2.618   4.980  0.4945 -0.1263 -0.2236
  923MOL0     H27311   2.696   2.383   4.885 -2.6199  0.2923 -2.8949
  923MOL0     H27312   2.721   2.448   4.724 -0.2699 -0.2446 -1.0487
  923MOL0     H27313   2.944   2.558   4.822 -0.6631 -0.6510 -2.4743
  923MOL0     H27314   2.895   2.481   4.968 -1.7819 -0.2653 -0.2374
  923MOL0     H27315   3.066   2.337   4.867  0.9046  1.2466  0.0089
  923MOL0     H27316   2.980   2.344   4.711  2.1778  0.4137 -0.4054
  923MOL0     H27317   2.862   2.196   4.942 -3.9003 -2.3738 -0.8070
  923MOL0     H27318   2.807   2.206   4.774  0.3348  0.4323  0.7460
  923MOL0     H27319   3.052   2.067   4.871  0.1979 -4.1799 -1.3513
  923MOL0     H27320   3.013   2.109   4.704  1.1152  3.5690  0.7479
  923MOL0     H27321   2.872   1.919   4.894  1.3477 -1.1068  0.1569
  923MOL0     H27322   2.798   1.979   4.742 -0.5163 -0.5038 -0.4398
  923MOL0     H27323   3.130   1.800   4.847 -1.9309 -0.5238  1.5715
  923MOL0     H27324   3.137   1.479   4.616 -0.4077 -0.3023  0.7580
  923MOL0     H27325   3.110   1.474   4.787  1.2420 -1.9084 -0.6987
  923MOL0     H27326   3.289   1.661   4.814  1.4153 -0.4132  0.3684
  923MOL0     H27327   3.356   1.505   4.763 -1.3749 -1.1124 -0.6509
  923MOL0     H27328   3.387   1.572   4.546  4.6661  0.2479 -0.4790
  923MOL0     H27329   3.279   1.717   4.560  2.4108  1.3607 -0.8470
  923MOL0     H27330   3.550   1.688   4.670 -2.8293 -1.5001  0.8606
  923MOL0     H27331   3.512   1.785   4.527 -3.5886 -0.4574 -2.1663
  923MOL0     H27332   3.450   2.098   4.819  1.5808 -0.2716 -0.4439
  923MOL0     H27333   3.343   2.291   4.876  4.4264 -1.7178 -0.2400
  923MOL0     H27334   3.252   2.394   4.747  0.2678 -1.1216 -2.2681
  923MOL0     H27335   3.421   2.404   4.767 -3.3092  3.1198  0.2683
  923MOL0     H27336   3.340   2.517   4.276  1.4282  1.7338 -1.0456
  923MOL0     H27337   3.308   2.731   4.173  1.8277 -1.3993  1.2084
  923MOL0     H27338   2.991   2.997   4.201 -2.0007 -0.2595  0.9448
  923MOL0     H27339   3.042   3.007   4.372  1.0376 -0.0884  0.2087
  923MOL0     H27340   3.227   3.163   4.302 -2.1828 -2.9482  2.8046
  923MOL0     H27341   3.173   3.160   4.125 -1.0154 -1.2572 -0.0785
  923MOL0     H27342   3.030   3.266   4.367  1.7222 -0.0303 -0.2449
  923MOL0     H27343   2.953   3.265   4.203  0.7088 -0.6098 -2.2836
  923MOL0     H27344   3.103   3.429   4.100 -2.9363 -0.2737 -0.4063
  923MOL0     H27345   3.224   3.404   4.223 -0.7496 -0.9551  0.8916
  923MOL0     H27346   3.084   3.481   4.400  3.3842 -1.4330 -1.2646
  923MOL0     H27347   3.110   3.607   4.269 -2.3862  1.2002 -0.5327
  923MOL0     H27348   2.838   3.472   4.291 -0.6323  0.8846 -1.7125
  923MOL0     H27349   2.912   3.550   4.155  1.1638 -3.7984  0.1109
  923MOL0     H27350   2.943   3.763   4.323 -0.8776  0.9786 -0.1433
  923MOL0     H27351   2.865   3.649   4.448 -0.9175 -2.5561 -1.1687
  923MOL0     H27352   2.738   3.850   4.356  2.7031  1.2814 -0.8384
  923MOL0     H27353   2.655   3.696   4.336 -0.3618  1.7013 -0.9265
  923MOL0     H27354   3.064   2.846   4.504 -0.5770 -1.2928  0.4384
  923MOL0     H27355   3.103   2.628   4.602 -1.2906  1.1097 -0.5751
  923MOL0     H27356   3.274   2.100   4.353  3.6269  1.3302 -0.6390
  923MOL0     H27357   3.309   1.887   4.458 -0.0920  0.0547 -0.1213
  923MOL0     H27358   2.309   2.691   4.746  1.5337 -1.0551 -1.3145
  923MOL0     H27359   2.082   2.645   4.646 -1.4122  0.7178  1.5498
  923MOL0     H27360   1.873   2.544   4.407  0.4041 -1.0192 -1.7201
  923MOL0     H27361   1.728   2.579   4.238  0.6821 -0.9904 -0.6569
  923MOL0     H27362   1.422   2.548   4.027  2.2127  0.0888 -2.3583
  923MOL0     H27363   1.534   2.636   4.128  1.1551 -0.3279 -1.3062
  923MOL0     H27364   1.705   2.488   4.019  1.3120  1.0204 -3.2043
  923MOL0     H27365   1.604   2.544   3.886 -2.0609  2.1504  0.8634
  923MOL0     H27366   1.608   2.285   4.031  0.7955  0.6296  0.5232
  923MOL0     H27367   1.461   2.332   3.936  0.2144  1.1727  0.8165
  923MOL0     H27368   1.628   2.351   3.738  2.3798 -0.6595 -0.6325
  923MOL0     H27369   1.602   2.186   3.803 -2.1718  1.3393  1.0581
  923MOL0     H27370   2.005   2.238   3.911 -1.4986 -5.6760  1.9539
  923MOL0     H27371   1.462   2.280   4.398  1.1111 -2.2918  0.2672
  923MOL0     H27372   1.509   2.170   4.593  0.1325 -1.5815  1.2415
  923MOL0     H27373   1.671   2.093   4.579 -0.6288 -0.4911 -1.6560
  923MOL0     H27374   1.639   2.229   4.697  0.4565  2.1068  0.0266
  924MOL0     O27375   6.913   9.150   6.157 -0.2506  0.2706 -0.2119
  924MOL0     C27376   6.979   9.191   6.061 -0.2008 -0.1429 -0.3143
  924MOL0     O27377   6.965   9.151   5.930  0.0231 -0.1913 -0.0900
  924MOL0     C27378   6.869   9.060   5.911  0.0949 -0.4965 -0.3968
  924MOL0     C27379   6.735   9.059   5.956 -0.1395 -0.6484  0.5987
  924MOL0     C27380   6.652   8.952   5.922  0.6448 -0.6899  0.7654
  924MOL0     C27381   6.701   8.846   5.848  0.9476 -0.3063  0.9031
  924MOL0     O27382   6.633   8.727   5.821 -0.6863 -0.9113  0.3208
  924MOL0     C27383   6.515   8.681   5.898  0.7692  0.0477  0.4280
  924MOL0     C27384   6.541   8.629   6.034  0.7729  0.5291 -0.1919
  924MOL0     C27385   6.573   8.480   6.042  0.8927  0.5719 -0.0064
  924MOL0     C27386   6.715   8.456   5.987 -0.8797 -0.0279  0.1804
  924MOL0     C27387   6.782   8.329   6.043 -1.1443  0.0706  0.1581
  924MOL0     C27388   6.739   8.205   5.978 -0.3769 -0.3451  0.5047
  924MOL0     C27389   6.842   8.090   5.979  0.0653  0.0375 -0.1442
  924MOL0     C27390   6.782   7.955   5.967  1.0042  0.1253 -0.8354
  924MOL0     N27391   6.709   7.914   6.080 -0.0132 -0.5813 -0.6901
  924MOL0     C27392   6.621   7.811   6.081 -0.0227  0.5376  0.0617
  924MOL0     C27393   6.595   7.783   6.209 -0.4297  0.4713 -0.1860
  924MOL0     C27394   6.489   7.679   6.255 -0.9259  0.3962  0.1555
  924MOL0     C27395   6.551   7.592   6.371  0.3513 -0.9312 -0.0142
  924MOL0     C27396   6.651   7.484   6.326 -0.5132  0.4306  0.1048
  924MOL0     C27397   6.728   7.421   6.436 -0.8082 -0.0631  0.0111
  924MOL0     O27398   6.819   7.322   6.394 -0.0062  0.4751  1.1796
  924MOL0     C27399   6.789   7.192   6.422 -0.0943  0.4326  0.0899
  924MOL0     C27400   6.899   7.121   6.473 -0.4553  0.1675 -0.3186
  924MOL0     C27401   6.887   6.988   6.517  0.5050  0.3589 -0.0935
  924MOL0     C27402   7.003   6.917   6.569 -0.3187  0.3055 -0.3664
  924MOL0     C27403   6.769   6.921   6.491  0.3758 -0.6861 -0.3711
  924MOL0     C27404   6.749   6.788   6.535  0.2171 -0.0732 -0.3334
  924MOL0     O27405   6.613   6.757   6.555  0.0245  0.1783 -0.7036
  924MOL0     C27406   6.562   6.633   6.564 -0.5137 -0.7996 -0.2197
  924MOL0     C27407   6.427   6.615   6.528 -0.6666  0.0306 -0.4269
  924MOL0     C27408   6.365   6.491   6.524 -1.1705  0.5754  0.3144
  924MOL0     C27409   6.439   6.375   6.550  0.6373  1.3657 -0.8903
  924MOL0     O27410   6.372   6.257   6.563  0.0128  0.2570  0.2407
  924MOL0     C27411   6.454   6.150   6.507 -0.0156  0.2013  0.5360
  924MOL0     C27412   6.375   6.070   6.410  0.0922 -0.3497  0.2040
  924MOL0     C27413   6.455   5.951   6.349  0.1681  0.0216  0.7245
  924MOL0     C27414   6.425   5.824   6.435  0.1715 -0.5597  0.3433
  924MOL0     C27415   6.489   5.697   6.368 -0.8054 -0.2845  0.0543
  924MOL0     C27416   6.649   5.687   6.366  0.5704  0.6104  0.4375
  924MOL0     C27417   6.715   5.554   6.315 -0.4779  0.1383 -0.3223
  924MOL0     C27418   6.662   5.501   6.179  0.4448  0.0880 -0.9611
  924MOL0    Cl27419   6.728   5.609   6.056 -0.2281 -0.3067 -0.1971
  924MOL0     C27420   6.568   6.390   6.586 -0.5080 -0.1217  0.0999
  924MOL0     C27421   6.632   6.510   6.592 -0.3300  0.2906 -0.7316
  924MOL0     O27422   6.837   6.702   6.542 -0.5925 -0.3491 -0.4906
  924MOL0     C27423   6.654   6.994   6.442 -0.1306  0.7347 -0.2381
  924MOL0     C27424   6.666   7.123   6.401 -0.1672  0.8390 -0.6571
  924MOL0     N27425   6.665   7.867   6.290 -0.1567  0.0288 -0.7393
  924MOL0     N27426   6.724   7.958   6.215  0.2857  0.6086 -0.1109
  924MOL0     C27427   6.827   8.850   5.794 -0.2710  0.6285 -0.5580
  924MOL0     C27428   6.918   8.950   5.835 -0.0952  0.4975 -0.8242
  924MOL0     C27429   7.099   9.279   6.082 -0.2531 -0.4480  0.1164
  924MOL0     C27430   7.146   9.362   5.971  0.2972  0.3190  0.2983
  924MOL0     C27431   7.251   9.459   5.983  0.6058 -0.3299 -0.0655
  924MOL0     C27432   7.302   9.482   6.106 -0.6175 -0.0721  1.2755
  924MOL0     O27433   7.388   9.594   6.113 -0.2500 -0.1130  0.6492
  924MOL0     C27434   7.446   9.632   6.235  1.0427 -0.4109  0.0431
  924MOL0     C27435   7.523   9.761   6.218 -0.4623  0.5529  0.5511
  924MOL0     C27436   7.628   9.780   6.331 -0.8630  0.0540  0.2636
  924MOL0     C27437   7.557   9.836   6.454  0.2632 -0.6821 -0.7377
  924MOL0     C27438   7.645   9.885   6.558  0.8972 -1.1313 -0.5883
  924MOL0     C27439   7.713   9.928   6.651  1.0735 -0.1657  0.2535
  924MOL0     C27440   7.255   9.406   6.217  0.3259 -0.7814  0.0946
  924MOL0     C27441   7.162   9.300   6.208 -0.7394  0.8701  0.2853
  924MOL0     C27442   7.140   9.214   6.335 -0.0007  0.2902  0.1781
  924MOL0     H27443   6.696   9.142   6.013 -1.2565  1.2373 -2.6282
  924MOL0     H27444   6.549   8.948   5.954  0.9986 -0.9209  1.9016
  924MOL0     H27445   6.469   8.604   5.835  1.1741  0.9120 -0.9775
  924MOL0     H27446   6.443   8.762   5.904  2.3611  1.7309 -1.6444
  924MOL0     H27447   6.621   8.690   6.078  1.1852  0.9931 -1.5529
  924MOL0     H27448   6.448   8.636   6.092 -1.1103 -5.4476 -1.7822
  924MOL0     H27449   6.570   8.442   6.145 -0.5005  2.0499  0.5437
  924MOL0     H27450   6.512   8.424   5.970  1.3764  0.0553 -0.0255
  924MOL0     H27451   6.728   8.442   5.879 -2.0820 -0.3846  0.0664
  924MOL0     H27452   6.779   8.539   6.019  0.4908 -1.6675  1.9402
  924MOL0     H27453   6.771   8.324   6.152 -1.5005 -1.9062  0.0598
  924MOL0     H27454   6.884   8.343   6.006 -1.0299  0.7829  0.7013
  924MOL0     H27455   6.647   8.176   6.028 -0.7236  0.4158  0.3192
  924MOL0     H27456   6.716   8.228   5.873  0.0713 -2.1877 -0.0445
  924MOL0     H27457   6.919   8.095   6.057  4.5610 -2.0206 -3.9750
  924MOL0     H27458   6.905   8.101   5.890  1.1185 -1.4716  0.3686
  924MOL0     H27459   6.717   7.952   5.879  2.9479 -0.8618 -2.3242
  924MOL0     H27460   6.859   7.879   5.955  1.9589  0.4734  2.2702
  924MOL0     H27461   6.565   7.769   5.998 -2.6913 -0.3344  2.1689
  924MOL0     H27462   6.444   7.617   6.177 -2.4789  1.1533  0.4261
  924MOL0     H27463   6.401   7.733   6.291  0.6218 -0.3302  6.2617
  924MOL0     H27464   6.602   7.663   6.437 -0.6191  1.8216 -2.0564
  924MOL0     H27465   6.475   7.539   6.429 -0.0893  0.8562  1.1194
  924MOL0     H27466   6.596   7.405   6.274  0.8054 -2.6921  3.0193
  924MOL0     H27467   6.720   7.530   6.255 -0.3089 -0.5767 -0.3665
  924MOL0     H27468   6.785   7.493   6.496 -0.7053 -1.7809  2.1254
  924MOL0     H27469   6.649   7.376   6.498 -1.1990 -0.7300 -0.9417
  924MOL0     H27470   6.986   7.181   6.493 -0.8742  0.0982  2.1402
  924MOL0     H27471   6.984   6.871   6.666 -0.3278  0.7615 -0.1466
  924MOL0     H27472   7.073   6.999   6.590  0.4726  0.1125 -2.0991
  924MOL0     H27473   7.056   6.855   6.496 -1.7379 -0.1966 -1.0108
  924MOL0     H27474   6.362   6.696   6.498 -2.4610 -2.1306 -2.7212
  924MOL0     H27475   6.264   6.479   6.486 -2.1562 -0.4029  3.0176
  924MOL0     H27476   6.534   6.190   6.445  0.6877  2.8047  2.9011
  924MOL0     H27477   6.498   6.100   6.594  0.3370  0.6521  0.6214
  924MOL0     H27478   6.285   6.036   6.462 -1.5299  4.0174  0.7111
  924MOL0     H27479   6.333   6.130   6.329 -0.7215 -3.2590 -1.6732
  924MOL0     H27480   6.560   5.979   6.359 -0.0235  0.7661  0.7675
  924MOL0     H27481   6.438   5.938   6.242  4.2613 -1.0816  0.0460
  924MOL0     H27482   6.316   5.812   6.441 -0.6435  3.6649 -1.5650
  924MOL0     H27483   6.483   5.843   6.525  1.8188  0.4578 -0.8687
  924MOL0     H27484   6.461   5.618   6.438  1.3630  0.8754  2.4240
  924MOL0     H27485   6.456   5.676   6.266  3.8223 -0.4907 -1.6263
  924MOL0     H27486   6.683   5.706   6.469  0.3898 -1.5581  0.9523
  924MOL0     H27487   6.691   5.763   6.300  0.8150 -2.1659 -2.9208
  924MOL0     H27488   6.698   5.476   6.389 -0.7418 -1.2568 -1.8119
  924MOL0     H27489   6.821   5.579   6.305 -0.6295  1.2258  0.5456
  924MOL0     H27490   6.553   5.498   6.181  0.3964  1.3945  0.8011
  924MOL0     H27491   6.696   5.397   6.176 -0.4445 -0.2280 -0.4656
  924MOL0     H27492   6.625   6.305   6.622  0.6632  0.4856 -0.2453
  924MOL0     H27493   6.735   6.504   6.624 -0.5713  3.6201  1.0812
  924MOL0     H27494   6.552   6.957   6.437 -0.2309  0.9816 -0.0751
  924MOL0     H27495   6.576   7.172   6.364  0.4056  0.3247 -2.9019
  924MOL0     H27496   6.861   8.766   5.734  0.5534 -0.2519  1.0591
  924MOL0     H27497   7.017   8.965   5.793  1.0121  0.0062  1.4203
  924MOL0     H27498   7.082   9.368   5.883 -1.9709  1.2580  1.8981
  924MOL0     H27499   7.281   9.517   5.896 -0.5671 -0.8273 -0.8215
  924MOL0     H27500   7.371   9.658   6.310  0.0694 -4.8217  0.8808
  924MOL0     H27501   7.508   9.557   6.285  2.7945  1.4339  0.7438
  924MOL0     H27502   7.456   9.845   6.199 -1.1006 -0.1397 -0.3305
  924MOL0     H27503   7.568   9.756   6.119  0.5054 -1.5060  1.0323
  924MOL0     H27504   7.679   9.684   6.336  0.4937  0.8139  2.6419
  924MOL0     H27505   7.709   9.845   6.296  0.3667 -0.2730  2.3513
  924MOL0     H27506   7.492   9.760   6.498 -0.6964 -0.0513 -1.0294
  924MOL0     H27507   7.497   9.922   6.424  0.0481 -0.6192 -0.1218
  924MOL0     H27508   7.755   9.978   6.735  1.5337 -1.3639  0.7650
  924MOL0     H27509   7.284   9.433   6.318  2.4548  2.2992 -1.2042
  924MOL0     H27510   7.057   9.257   6.392  1.1190 -1.1175  3.0267
  924MOL0     H27511   7.113   9.110   6.318  0.1237 -0.4443  3.8249
  924MOL0     H27512   7.223   9.219   6.405 -3.0002  4.0591  4.0341
  925MOL0     O27513   1.929   5.779   2.322  0.6798  0.7030 -0.2951
  925MOL0     C27514   1.935   5.678   2.395 -0.2714 -0.1769 -0.0758
  925MOL0     O27515   1.979   5.554   2.359 -0.7181 -0.2808  0.1582
  925MOL0     C27516   1.958   5.525   2.224  0.7224 -0.2081 -0.5217
  925MOL0     C27517   2.060   5.454   2.158 -0.0358 -0.3177  0.7240
  925MOL0     C27518   2.037   5.405   2.022  1.0209  0.5688  0.6002
  925MOL0     C27519   1.922   5.451   1.958  0.0163 -0.0295  0.2629
  925MOL0     O27520   1.895   5.431   1.825  0.4089 -0.2510  0.1502
  925MOL0     C27521   1.964   5.347   1.734  0.2837 -0.8760  0.5351
  925MOL0     C27522   1.927   5.386   1.589  0.2154 -0.2262 -0.5654
  925MOL0     C27523   1.991   5.502   1.520  0.2712 -0.4334  0.6256
  925MOL0     C27524   1.920   5.540   1.386  0.7186 -0.1820  0.7043
  925MOL0     C27525   2.004   5.635   1.299  0.2589 -0.1627  0.0235
  925MOL0     C27526   1.947   5.678   1.160 -0.3999  0.4611 -0.2839
  925MOL0     C27527   1.943   5.571   1.051 -0.2614  0.6381 -0.7322
  925MOL0     C27528   1.864   5.625   0.931 -0.2652  0.5896 -0.4224
  925MOL0     N27529   1.851   5.527   0.827  0.6142  0.1979  0.0978
  925MOL0     C27530   1.761   5.533   0.723 -0.4691  0.1714 -0.1320
  925MOL0     C27531   1.797   5.427   0.644 -0.4162 -0.0000 -0.1905
  925MOL0     C27532   1.711   5.374   0.526  0.1007  0.3480  0.1247
  925MOL0     C27533   1.561   5.358   0.557 -0.2726 -0.3982  0.7823
  925MOL0     C27534   1.526   5.277   0.679  0.1371  0.1355 -0.3419
  925MOL0     C27535   1.547   5.127   0.659  0.4619  0.4532 -0.0673
  925MOL0     O27536   1.449   5.081   0.572 -0.5739  0.7729 -0.5078
  925MOL0     C27537   1.316   5.094   0.610 -0.2394  0.2901  0.6937
  925MOL0     C27538   1.269   5.051   0.740  1.2784 -1.3606 -0.3358
  925MOL0     C27539   1.138   5.067   0.781  0.0966 -0.3422  0.2239
  925MOL0     C27540   1.105   5.023   0.921 -0.9611  0.1999  0.5598
  925MOL0     C27541   1.042   5.120   0.694  0.0763  0.2364  0.2502
  925MOL0     C27542   0.908   5.161   0.730 -0.1083  0.1598 -0.3369
  925MOL0     O27543   0.865   5.280   0.684 -0.7401  0.5183  0.2081
  925MOL0     C27544   0.736   5.317   0.677 -0.3573 -0.4489  1.5769
  925MOL0     C27545   0.665   5.283   0.566 -0.3872 -0.3001 -0.1751
  925MOL0     C27546   0.529   5.315   0.562 -0.2059  0.1526 -0.1856
  925MOL0     C27547   0.470   5.367   0.678  0.4151 -0.0177  0.1069
  925MOL0     O27548   0.343   5.411   0.689  0.0441  1.0147 -0.6790
  925MOL0     C27549   0.270   5.431   0.566 -0.9371 -0.3993 -0.3089
  925MOL0     C27550   0.147   5.504   0.622 -0.1434  0.4362 -0.3704
  925MOL0     C27551   0.171   5.649   0.664  0.9341  0.0449  0.2082
  925MOL0     C27552   0.027   5.700   0.696  0.1941 -0.8560  0.5266
  925MOL0     C27553   0.029   5.842   0.769 -0.6274 -0.7182  0.4379
  925MOL0     C27554  -0.106   5.879   0.834 -0.9614 -0.2769 -0.4631
  925MOL0     C27555  -0.122   6.032   0.834 -0.4461  0.4649  0.1724
  925MOL0     C27556  -0.003   6.107   0.892  0.7788  0.0690  0.0737
  925MOL0    Cl27557   0.010   6.081   1.070 -0.5483 -0.1553  0.4783
  925MOL0     C27558   0.546   5.391   0.795  1.2858 -0.6140  0.5551
  925MOL0     C27559   0.680   5.368   0.793  0.1626 -0.3774  0.5255
  925MOL0     O27560   0.844   5.100   0.812 -0.4021 -0.6514  0.1726
  925MOL0     C27561   1.087   5.161   0.570  0.2896  0.6840  0.2534
  925MOL0     C27562   1.216   5.143   0.525 -0.0774  0.2780  0.6317
  925MOL0     N27563   1.900   5.360   0.715  0.2829 -0.2033 -0.9651
  925MOL0     N27564   1.935   5.426   0.816 -1.0615 -0.0392 -0.3455
  925MOL0     C27565   1.827   5.521   2.020  0.6664  0.3446  0.5583
  925MOL0     C27566   1.839   5.565   2.152  0.0189  0.0083 -0.6159
  925MOL0     C27567   1.883   5.683   2.541  0.3705 -1.6862 -1.0150
  925MOL0     C27568   1.909   5.573   2.632  0.3522  0.2096 -0.3747
  925MOL0     C27569   1.865   5.581   2.765 -0.1799 -0.2853  0.0604
  925MOL0     C27570   1.800   5.694   2.814  0.1191  0.4406 -0.1346
  925MOL0     O27571   1.757   5.688   2.947 -0.2765  0.5469  0.0963
  925MOL0     C27572   1.659   5.782   2.997 -0.7911 -0.9465  0.7202
  925MOL0     C27573   1.612   5.740   3.136 -0.0171  0.3369 -0.3712
  925MOL0     C27574   1.502   5.822   3.191 -0.0233  0.1557  0.6201
  925MOL0     C27575   1.521   5.975   3.227 -0.4917 -0.5090  0.2363
  925MOL0     C27576   1.619   5.989   3.338 -0.0189 -0.5674 -0.3972
  925MOL0     C27577   1.687   6.011   3.431 -0.1970 -0.9168  1.2959
  925MOL0     C27578   1.789   5.805   2.729  1.4265 -0.2905 -0.5263
  925MOL0     C27579   1.828   5.802   2.595  0.8292  0.1116 -0.7680
  925MOL0     C27580   1.793   5.925   2.515 -0.4698  0.1448 -0.3662
  925MOL0     H27581   2.153   5.429   2.208  0.3118 -1.6259 -0.4978
  925MOL0     H27582   2.109   5.343   1.970 -1.6174 -1.9174 -0.3907
  925MOL0     H27583   1.916   5.250   1.745 -2.0332  0.1713  0.3349
  925MOL0     H27584   2.071   5.342   1.754  0.5401  1.8646  0.3525
  925MOL0     H27585   1.944   5.305   1.517  1.3878 -0.5860  0.0999
  925MOL0     H27586   1.820   5.410   1.599  0.2746 -1.0184  3.2807
  925MOL0     H27587   1.992   5.594   1.580  2.7412 -1.2375  1.9255
  925MOL0     H27588   2.089   5.473   1.482 -0.0858 -1.7109  0.6299
  925MOL0     H27589   1.910   5.448   1.327 -0.0820  1.9953 -2.8517
  925MOL0     H27590   1.822   5.578   1.415  0.4841  0.5470 -0.9140
  925MOL0     H27591   2.097   5.585   1.273 -0.7411 -2.2949  0.2744
  925MOL0     H27592   2.045   5.718   1.356  2.7943 -1.0291 -0.4450
  925MOL0     H27593   1.855   5.736   1.167 -0.7748  0.1863 -2.2424
  925MOL0     H27594   2.016   5.754   1.123  1.0027 -0.0930  1.0991
  925MOL0     H27595   1.881   5.485   1.079 -0.3201 -0.7814 -4.6307
  925MOL0     H27596   2.046   5.543   1.029 -0.2614  2.0874 -2.8625
  925MOL0     H27597   1.763   5.649   0.964 -1.2401 -1.4562 -1.6675
  925MOL0     H27598   1.908   5.713   0.884  2.7699  0.2458  1.4939
  925MOL0     H27599   1.691   5.614   0.704  0.8920  1.4170 -0.0204
  925MOL0     H27600   1.746   5.276   0.493 -1.7321 -0.0469 -0.7557
  925MOL0     H27601   1.719   5.453   0.451  1.6597  0.7299  0.6626
  925MOL0     H27602   1.530   5.461   0.574  2.1494  0.5941 -0.3348
  925MOL0     H27603   1.522   5.322   0.461  0.3646  0.7510  0.0661
  925MOL0     H27604   1.581   5.315   0.766  0.8812 -2.0908  0.2189
  925MOL0     H27605   1.423   5.287   0.713 -0.6458 -0.5610 -2.3363
  925MOL0     H27606   1.648   5.125   0.618  0.6008  4.1225 -0.2730
  925MOL0     H27607   1.539   5.076   0.756  0.3119 -1.7125 -1.1567
  925MOL0     H27608   1.340   5.013   0.813  1.1533  1.7408  1.5663
  925MOL0     H27609   1.069   5.103   0.987  1.8834  1.8439  0.2731
  925MOL0     H27610   1.187   4.980   0.979 -0.3472 -1.4289 -1.4016
  925MOL0     H27611   1.032   4.944   0.900 -0.3975 -0.0389 -0.5977
  925MOL0     H27612   0.716   5.261   0.473 -1.7422 -1.5160 -0.6662
  925MOL0     H27613   0.476   5.302   0.468  1.9462 -1.0503 -1.3269
  925MOL0     H27614   0.325   5.500   0.502 -0.3156 -1.3379 -0.8234
  925MOL0     H27615   0.247   5.333   0.523 -1.6176 -0.3058 -0.1743
  925MOL0     H27616   0.079   5.512   0.537  0.1134  0.5248 -0.5673
  925MOL0     H27617   0.103   5.446   0.703  0.8821  0.5284  0.2750
  925MOL0     H27618   0.205   5.704   0.576 -2.4515  2.2744  0.1070
  925MOL0     H27619   0.246   5.658   0.743  2.0055  1.4933 -0.9173
  925MOL0     H27620  -0.027   5.630   0.760 -2.8159  1.4048  0.6765
  925MOL0     H27621  -0.042   5.709   0.611  0.1462  1.0590  0.7167
  925MOL0     H27622   0.100   5.846   0.852  2.4494 -0.6576 -2.0026
  925MOL0     H27623   0.046   5.920   0.693  0.4966  0.0734  1.4711
  925MOL0     H27624  -0.110   5.841   0.937 -1.5405 -5.2478 -2.0686
  925MOL0     H27625  -0.198   5.847   0.786 -0.5382  0.2660 -1.6780
  925MOL0     H27626  -0.217   6.049   0.886 -0.9112 -2.8302  0.6222
  925MOL0     H27627  -0.143   6.073   0.734 -3.4447 -2.5844 -0.6584
  925MOL0     H27628  -0.018   6.214   0.880  2.5738  0.1978 -1.4897
  925MOL0     H27629   0.088   6.078   0.839 -0.7435 -2.0126 -1.5649
  925MOL0     H27630   0.497   5.441   0.878  1.2181  0.6612 -0.2099
  925MOL0     H27631   0.748   5.395   0.873  2.0752  1.3833 -1.5492
  925MOL0     H27632   1.021   5.214   0.502  2.1139  1.3897 -1.0299
  925MOL0     H27633   1.247   5.166   0.424 -2.3049  0.3832 -0.0815
  925MOL0     H27634   1.745   5.553   1.957  0.4644  0.0894  0.6879
  925MOL0     H27635   1.755   5.621   2.191 -3.4345 -4.1100 -1.3260
  925MOL0     H27636   1.967   5.493   2.587  0.9407  1.2915 -1.6164
  925MOL0     H27637   1.879   5.498   2.834 -1.3087 -1.1844 -0.7611
  925MOL0     H27638   1.710   5.878   3.006 -2.5203  0.2799 -1.4253
  925MOL0     H27639   1.570   5.799   2.936  1.3374  2.1536 -1.8220
  925MOL0     H27640   1.688   5.744   3.214 -0.6713 -2.3876  0.5034
  925MOL0     H27641   1.581   5.636   3.145  0.4127  0.1638 -0.8609
  925MOL0     H27642   1.424   5.818   3.114  0.0293 -0.4868  0.6015
  925MOL0     H27643   1.447   5.770   3.269  2.6930 -1.5713  1.5112
  925MOL0     H27644   1.428   6.021   3.263  0.0510  1.6523 -0.9976
  925MOL0     H27645   1.562   6.030   3.143 -0.1368 -1.5935 -0.3244
  925MOL0     H27646   1.724   6.031   3.529 -2.5665 -0.3383  2.1557
  925MOL0     H27647   1.748   5.900   2.763 -0.7428 -1.5902  0.7232
  925MOL0     H27648   1.881   5.989   2.505  1.4918 -2.2442  0.5532
  925MOL0     H27649   1.755   5.894   2.417 -2.8098 -1.5537  0.9480
  925MOL0     H27650   1.715   5.985   2.564 -0.0355  1.3055 -1.0742
  926MOL0     O27651  10.959   7.688   4.594 -0.0078  0.7922  0.1861
  926MOL0     C27652  10.905   7.792   4.588 -0.2652 -0.2795 -0.3459
  926MOL0     O27653  10.861   7.855   4.708  0.0828 -0.4167 -0.2627
  926MOL0     C27654  10.914   7.806   4.825 -0.6761  0.9049 -0.6370
  926MOL0     C27655  11.057   7.801   4.841 -1.3997 -0.1388  0.0120
  926MOL0     C27656  11.115   7.749   4.960  0.0424 -0.8520  0.0400
  926MOL0     C27657  11.033   7.715   5.070 -0.4454 -0.8723  0.4328
  926MOL0     O27658  11.085   7.690   5.196  0.4044  0.1484 -0.3469
  926MOL0     C27659  11.157   7.565   5.203  0.4870  0.2685  0.3618
  926MOL0     C27660  11.284   7.554   5.294  0.0563  0.7226 -0.6045
  926MOL0     C27661  11.379   7.664   5.254  0.1076 -0.4264  0.0984
  926MOL0     C27662  11.507   7.649   5.333  0.0002 -0.1954  0.6575
  926MOL0     C27663  11.622   7.738   5.278  0.1294  0.4465 -0.3351
  926MOL0     C27664  11.755   7.727   5.364 -0.1276 -0.3620 -0.2399
  926MOL0     C27665  11.876   7.770   5.275 -0.3639 -0.7590  0.0036
  926MOL0     C27666  11.841   7.900   5.190  0.0483 -0.3040 -0.3510
  926MOL0     N27667  11.954   7.954   5.120 -0.6103  0.3447 -0.3244
  926MOL0     C27668  11.998   7.911   4.996  0.7277 -0.1037  0.1136
  926MOL0     C27669  12.090   8.000   4.956  0.9295  0.9184  0.2789
  926MOL0     C27670  12.168   7.982   4.826 -0.3246  0.0809  0.6246
  926MOL0     C27671  12.250   8.110   4.794 -0.3263  0.6998 -0.7221
  926MOL0     C27672  12.172   8.215   4.714 -0.3518 -0.6438  0.4447
  926MOL0     C27673  12.273   8.326   4.677 -0.4507 -0.4773 -0.6568
  926MOL0     O27674  12.204   8.440   4.634 -0.4854  0.9586 -0.0348
  926MOL0     C27675  12.286   8.547   4.588  0.8762 -0.2164  0.3083
  926MOL0     C27676  12.411   8.528   4.515  0.1649  1.0022  0.6618
  926MOL0     C27677  12.462   8.637   4.447 -0.4193  0.2075  0.1161
  926MOL0     C27678  12.605   8.613   4.400 -0.9189 -0.9418 -0.7049
  926MOL0     C27679  12.398   8.761   4.443  0.3802 -0.2923 -0.7553
  926MOL0     C27680  12.462   8.882   4.378 -0.3954 -0.8546 -1.0993
  926MOL0     O27681  12.382   8.994   4.381 -0.8902  0.0239  0.9661
  926MOL0     C27682  12.412   9.114   4.316 -0.6077 -0.6041 -0.0680
  926MOL0     C27683  12.505   9.143   4.217  0.4627 -0.8931 -0.2125
  926MOL0     C27684  12.503   9.270   4.157 -0.5171  0.6071  0.5363
  926MOL0     C27685  12.405   9.367   4.171  0.3601  0.4370 -0.0206
  926MOL0     O27686  12.403   9.465   4.073 -0.1895  0.2887 -0.2185
  926MOL0     C27687  12.331   9.576   4.118  0.1141  0.2219 -0.3902
  926MOL0     C27688  12.418   9.701   4.130  0.3529  1.1930 -0.7361
  926MOL0     C27689  12.339   9.832   4.142  0.1756  0.3266 -0.4958
  926MOL0     C27690  12.427   9.955   4.167 -0.9562  0.1622  0.5213
  926MOL0     C27691  12.332  10.088   4.178 -0.4564 -0.0822  0.0125
  926MOL0     C27692  12.423  10.202   4.227  0.0289 -0.1932  0.2717
  926MOL0     C27693  12.356  10.342   4.234  1.4433  1.1962 -0.2123
  926MOL0     C27694  12.446  10.449   4.265 -0.8242 -0.8783 -0.1865
  926MOL0    Cl27695  12.356  10.604   4.272 -0.8872 -0.3687  0.1141
  926MOL0     C27696  12.293   9.331   4.252 -0.6384 -0.1359 -0.2361
  926MOL0     C27697  12.305   9.207   4.323  0.6952 -0.4371 -0.1205
  926MOL0     O27698  12.574   8.881   4.337  0.2079  0.0277  0.6147
  926MOL0     C27699  12.280   8.770   4.515 -0.4880 -0.2782 -0.0811
  926MOL0     C27700  12.225   8.666   4.584  0.0749 -0.2271  0.1062
  926MOL0     N27701  12.093   8.096   5.049 -0.1117 -0.2198  0.2471
  926MOL0     N27702  12.020   8.068   5.149  0.7732  0.5670 -0.6910
  926MOL0     C27703  10.902   7.708   5.043  0.7487 -0.1002 -0.8593
  926MOL0     C27704  10.839   7.761   4.936 -0.2155  0.3015  0.3576
  926MOL0     C27705  10.892   7.868   4.459 -1.0722 -0.3595 -0.5380
  926MOL0     C27706  10.885   8.010   4.468 -0.4944  0.6597 -0.5608
  926MOL0     C27707  10.897   8.093   4.354 -0.1208  0.8312 -1.0258
  926MOL0     C27708  10.914   8.030   4.231  0.3738  0.6951  0.3440
  926MOL0     O27709  10.915   8.106   4.113 -0.0672 -0.4155 -0.9542
  926MOL0     C27710  10.919   8.244   4.118  0.1521 -0.7765 -0.1119
  926MOL0     C27711  10.929   8.326   3.998 -0.8317  0.6321  0.6993
  926MOL0     C27712  10.819   8.298   3.896  0.7237  0.1651  0.2003
  926MOL0     C27713  10.797   8.399   3.786  0.4425 -0.7618  0.0068
  926MOL0     C27714  10.817   8.547   3.799 -0.4399 -0.2045  0.2071
  926MOL0     C27715  10.828   8.669   3.813  0.5444  0.8806 -0.4779
  926MOL0     C27716  10.903   7.893   4.220 -1.2537 -0.2048 -0.3538
  926MOL0     C27717  10.903   7.811   4.335 -0.7509  0.5553  0.8053
  926MOL0     C27718  10.911   7.659   4.307  0.4127 -0.7146 -0.4873
  926MOL0     H27719  11.133   7.821   4.766  0.4431  0.8346  2.0088
  926MOL0     H27720  11.223   7.747   4.970 -0.0604 -1.0345  1.2148
  926MOL0     H27721  11.188   7.526   5.106  1.0473 -1.5962  1.2293
  926MOL0     H27722  11.086   7.492   5.243 -1.2158  1.9384  0.5398
  926MOL0     H27723  11.249   7.562   5.397  0.4112 -1.1739 -0.3015
  926MOL0     H27724  11.337   7.463   5.267 -1.3203  0.6416 -3.3773
  926MOL0     H27725  11.385   7.674   5.145 -2.2401  3.3265  0.1305
  926MOL0     H27726  11.331   7.762   5.265  0.7384 -0.1779  0.7185
  926MOL0     H27727  11.482   7.680   5.435 -1.6186 -1.7306  0.7716
  926MOL0     H27728  11.524   7.541   5.324 -3.6309 -0.9270  1.2513
  926MOL0     H27729  11.587   7.841   5.275 -2.4895 -0.2156  2.4247
  926MOL0     H27730  11.658   7.705   5.181  2.5500  0.9866  0.3081
  926MOL0     H27731  11.761   7.790   5.454  1.8231  2.0558 -1.9270
  926MOL0     H27732  11.767   7.621   5.389 -1.0965 -0.1423  1.2996
  926MOL0     H27733  11.892   7.692   5.200 -0.0871  0.6589 -1.4567
  926MOL0     H27734  11.963   7.785   5.340 -2.4800 -1.7456  3.2922
  926MOL0     H27735  11.757   7.879   5.121 -1.7193  0.4510  1.4764
  926MOL0     H27736  11.787   7.976   5.246  0.7157 -1.0193  1.3066
  926MOL0     H27737  11.986   7.814   4.950  0.8667 -0.3912  0.6699
  926MOL0     H27738  12.103   7.970   4.738 -2.2288  3.3184  1.3920
  926MOL0     H27739  12.230   7.893   4.834 -2.7718 -1.6749  1.2834
  926MOL0     H27740  12.302   8.157   4.879  1.2726  1.4570 -2.0687
  926MOL0     H27741  12.335   8.086   4.729  2.3439  1.2397  2.2852
  926MOL0     H27742  12.143   8.180   4.615  1.0711 -3.1311  0.8275
  926MOL0     H27743  12.087   8.238   4.779  2.6701  1.8344  3.9532
  926MOL0     H27744  12.336   8.349   4.763  2.9044 -0.9789 -2.7740
  926MOL0     H27745  12.337   8.290   4.596  2.4771  0.0257  1.2715
  926MOL0     H27746  12.462   8.432   4.518  0.0694  0.8888 -0.6165
  926MOL0     H27747  12.607   8.645   4.295  1.5913  2.7069  0.2540
  926MOL0     H27748  12.633   8.508   4.404 -0.9486 -0.9064  2.1982
  926MOL0     H27749  12.687   8.659   4.455 -1.5252 -0.0757 -0.4938
  926MOL0     H27750  12.586   9.075   4.195  1.3434  0.0144  0.1439
  926MOL0     H27751  12.580   9.285   4.082 -0.5711 -2.5768 -0.3051
  926MOL0     H27752  12.240   9.593   4.059 -1.8423 -2.3914  1.6353
  926MOL0     H27753  12.293   9.573   4.221 -1.7505 -1.5513 -1.0710
  926MOL0     H27754  12.492   9.706   4.212 -0.2768 -1.4076  0.0621
  926MOL0     H27755  12.466   9.702   4.032 -1.1625  0.1413 -1.5169
  926MOL0     H27756  12.265   9.816   4.221  0.7700 -0.3856 -0.0798
  926MOL0     H27757  12.274   9.843   4.055 -2.5932 -1.2964  1.2307
  926MOL0     H27758  12.498   9.962   4.085  0.6210 -0.5663  1.7860
  926MOL0     H27759  12.483   9.933   4.258 -0.6799 -1.9475 -0.1009
  926MOL0     H27760  12.284  10.132   4.091 -4.0861  0.0922  1.9366
  926MOL0     H27761  12.255  10.067   4.252 -2.3315 -1.0296 -2.0852
  926MOL0     H27762  12.512  10.215   4.166  2.1135 -2.8804  2.4664
  926MOL0     H27763  12.459  10.174   4.326  2.9609 -2.0454 -1.1920
  926MOL0     H27764  12.274  10.350   4.306  2.5420 -0.8509  1.3745
  926MOL0     H27765  12.318  10.358   4.133  0.5713  1.0429  0.0800
  926MOL0     H27766  12.516  10.441   4.182 -0.5088 -4.3770  0.2672
  926MOL0     H27767  12.496  10.434   4.361  1.4917 -0.4621 -1.2823
  926MOL0     H27768  12.201   9.390   4.257 -1.6127 -1.5123 -1.2053
  926MOL0     H27769  12.211   9.176   4.367  0.3190  1.4146  0.4856
  926MOL0     H27770  12.239   8.870   4.527  1.2711  0.2567  2.4413
  926MOL0     H27771  12.136   8.688   4.641  0.7305 -3.0218  2.4548
  926MOL0     H27772  10.832   7.682   5.122  0.1698 -0.7924 -1.5900
  926MOL0     H27773  10.731   7.768   4.931 -0.0400  3.0453 -2.0608
  926MOL0     H27774  10.896   8.065   4.561 -1.6688 -1.0168  0.6268
  926MOL0     H27775  10.925   8.194   4.383  3.1772 -0.2313 -0.1529
  926MOL0     H27776  10.820   8.275   4.153  0.4711  1.1640 -0.8036
  926MOL0     H27777  11.006   8.270   4.180 -0.1040 -0.1758 -0.0014
  926MOL0     H27778  11.029   8.314   3.956 -1.4521  0.9638 -0.9295
  926MOL0     H27779  10.925   8.430   4.030  0.9007  1.3166 -1.1176
  926MOL0     H27780  10.816   8.196   3.856  1.1987  0.4933 -0.7006
  926MOL0     H27781  10.732   8.309   3.960  1.4081 -0.0936  1.2072
  926MOL0     H27782  10.697   8.384   3.746  0.7529 -2.9929 -0.0486
  926MOL0     H27783  10.869   8.373   3.707 -0.3986 -0.4934 -0.8674
  926MOL0     H27784  10.816   8.773   3.837 -0.4753  1.0409 -1.6035
  926MOL0     H27785  10.913   7.840   4.125  1.7025 -3.3670  1.4699
  926MOL0     H27786  11.017   7.639   4.293  0.4860 -1.1425  0.5815
  926MOL0     H27787  10.863   7.603   4.387  3.7240 -1.7421  0.9046
  926MOL0     H27788  10.860   7.643   4.211 -3.6462  0.9167  1.1446
  927MOL0     O27789  10.689   5.963   1.170 -0.7254  1.1003 -1.6202
  927MOL0     C27790  10.648   6.067   1.217 -0.0556  0.5728  0.2184
  927MOL0     O27791  10.730   6.174   1.232  0.9165 -0.0728 -0.7353
  927MOL0     C27792  10.812   6.204   1.129 -0.8600 -1.3290  1.3614
  927MOL0     C27793  10.764   6.294   1.034  0.6511 -0.2319  0.7647
  927MOL0     C27794  10.832   6.335   0.913 -0.4648 -0.2929 -0.4275
  927MOL0     C27795  10.969   6.290   0.899  0.0941  0.7634 -0.9789
  927MOL0     O27796  11.035   6.335   0.790 -0.1794  0.3838 -0.4882
  927MOL0     C27797  11.133   6.251   0.724  0.3002  0.1770  0.3464
  927MOL0     C27798  11.056   6.156   0.628  0.7115 -0.1535  0.0080
  927MOL0     C27799  10.969   6.238   0.527  0.5649 -0.6934 -0.1570
  927MOL0     C27800  10.822   6.255   0.562 -0.1778 -0.0528  0.3315
  927MOL0     C27801  10.741   6.327   0.451 -0.6253 -0.5709  0.3201
  927MOL0     C27802  10.602   6.357   0.496  1.3396  0.3999  0.2354
  927MOL0     C27803  10.508   6.410   0.397  0.3698  0.5213  0.6394
  927MOL0     C27804  10.533   6.547   0.361 -0.7131 -0.3628 -0.5190
  927MOL0     N27805  10.456   6.593   0.246 -0.4065 -0.4274  0.4804
  927MOL0     C27806  10.329   6.640   0.255 -0.2539  1.2205  0.0403
  927MOL0     C27807  10.293   6.665   0.126 -0.0774 -0.3813 -0.2004
  927MOL0     C27808  10.149   6.694   0.098 -0.4059  0.4482  0.7540
  927MOL0     C27809  10.037   6.609   0.167 -0.2539  0.8623  0.5049
  927MOL0     C27810  10.066   6.458   0.136 -0.3258  0.3962  0.1602
  927MOL0     C27811   9.956   6.368   0.174  1.0751  0.2693  0.1378
  927MOL0     O27812   9.832   6.411   0.127 -0.1914  0.6627  1.1032
  927MOL0     C27813   9.713   6.336   0.135 -0.2107  0.5221  0.7812
  927MOL0     C27814   9.618   6.346   0.030 -0.3603  0.0810 -0.0990
  927MOL0     C27815   9.498   6.270   0.029 -0.8815 -0.4661  0.8148
  927MOL0     C27816   9.419   6.291  -0.092 -0.9754 -0.1050 -0.1004
  927MOL0     C27817   9.473   6.177   0.128 -0.5511  0.3865  0.0341
  927MOL0     C27818   9.351   6.084   0.126  0.1191  1.1663 -0.3213
  927MOL0     O27819   9.266   6.090   0.018  0.1063 -0.1071  0.5356
  927MOL0     C27820   9.164   6.004  -0.005  0.9619  0.3724 -0.1338
  927MOL0     C27821   9.173   5.865   0.039  0.2423  0.0698 -0.0716
  927MOL0     C27822   9.075   5.774   0.004 -0.8982  0.7030  0.3760
  927MOL0     C27823   8.973   5.813  -0.079  0.4241 -0.4280 -0.4916
  927MOL0     O27824   8.874   5.733  -0.120  1.1272 -0.7272  0.4584
  927MOL0     C27825   8.835   5.641  -0.020  0.5961 -0.0868 -0.2000
  927MOL0     C27826   8.706   5.582  -0.062  0.4447 -0.2364  0.5293
  927MOL0     C27827   8.725   5.462  -0.157  0.4442 -0.3358 -0.4289
  927MOL0     C27828   8.577   5.424  -0.196 -0.2417  0.5728  0.7017
  927MOL0     C27829   8.562   5.346  -0.323  0.6692  0.6709  0.3526
  927MOL0     C27830   8.623   5.203  -0.336  0.3905 -0.5935 -0.2519
  927MOL0     C27831   8.602   5.124  -0.212 -0.1730 -0.0364  0.5619
  927MOL0     C27832   8.650   4.985  -0.257  0.0731  0.5135  0.0636
  927MOL0    Cl27833   8.832   4.980  -0.289  0.1800  0.0358  0.1925
  927MOL0     C27834   8.960   5.946  -0.120  0.4613  0.0790 -0.5405
  927MOL0     C27835   9.056   6.040  -0.076  0.2594 -0.4695 -0.2506
  927MOL0     O27836   9.329   6.023   0.229  0.5088  0.3488 -0.2360
  927MOL0     C27837   9.555   6.181   0.248 -0.0565 -0.9727 -0.5677
  927MOL0     C27838   9.683   6.251   0.243  0.0459  0.3836 -0.1053
  927MOL0     N27839  10.393   6.614   0.043  0.3698  0.7369  0.2241
  927MOL0     N27840  10.488   6.570   0.117 -0.2244 -0.4648 -0.1698
  927MOL0     C27841  11.024   6.216   1.009  0.3736  0.1284 -0.4682
  927MOL0     C27842  10.944   6.163   1.114  0.4487  0.3677  0.1031
  927MOL0     C27843  10.513   6.067   1.287  0.5568 -0.0568 -0.4047
  927MOL0     C27844  10.419   5.980   1.238 -0.3158 -0.2824 -0.7807
  927MOL0     C27845  10.294   5.964   1.301  1.3534  1.0686  0.7772
  927MOL0     C27846  10.269   6.025   1.420 -0.0343 -0.1350  0.2073
  927MOL0     O27847  10.148   5.998   1.481 -0.4959 -0.1623  0.3676
  927MOL0     C27848  10.088   6.105   1.552  0.6657  0.3985 -0.8705
  927MOL0     C27849  10.047   6.223   1.459 -0.9841  0.0908  0.1520
  927MOL0     C27850  10.011   6.357   1.527  0.0787  0.4119  0.3386
  927MOL0     C27851  10.049   6.475   1.440 -0.0329  0.0401  0.6405
  927MOL0     C27852  10.178   6.471   1.371  0.7319 -0.6183  0.6491
  927MOL0     C27853  10.287   6.488   1.324  0.4196 -0.3518 -0.2936
  927MOL0     C27854  10.372   6.113   1.471  0.7191 -1.2348 -0.5693
  927MOL0     C27855  10.491   6.138   1.404 -0.8024  0.1361  0.7175
  927MOL0     C27856  10.578   6.252   1.461  0.3763 -0.1659 -0.4425
  927MOL0     H27857  10.661   6.327   1.048  0.7287  1.8586 -2.5126
  927MOL0     H27858  10.790   6.402   0.838 -0.0868  0.5135  0.0642
  927MOL0     H27859  11.182   6.198   0.807  0.6016 -1.1830 -0.6804
  927MOL0     H27860  11.203   6.318   0.673 -0.1126  0.2040 -0.1838
  927MOL0     H27861  11.124   6.090   0.573  0.0265  0.6310 -1.8596
  927MOL0     H27862  10.987   6.100   0.691  1.9538 -1.4682  0.2641
  927MOL0     H27863  11.026   6.327   0.497  2.7655 -2.2405 -0.7583
  927MOL0     H27864  10.966   6.187   0.430  0.1132 -1.0322  0.0283
  927MOL0     H27865  10.775   6.159   0.582 -1.9548  0.5507 -0.6845
  927MOL0     H27866  10.818   6.312   0.655 -0.5114 -0.0512  0.3191
  927MOL0     H27867  10.730   6.277   0.354 -1.1316 -0.5965  0.3868
  927MOL0     H27868  10.785   6.424   0.430 -4.8399  2.0312  2.1466
  927MOL0     H27869  10.554   6.273   0.546 -1.2087  1.1462 -0.8165
  927MOL0     H27870  10.607   6.435   0.572  1.9858 -0.0984  0.7245
  927MOL0     H27871  10.411   6.399   0.446  1.0885 -4.7344  1.4378
  927MOL0     H27872  10.510   6.348   0.307 -1.0354  0.2837  0.7592
  927MOL0     H27873  10.514   6.615   0.444 -2.5187  1.4544 -2.3067
  927MOL0     H27874  10.640   6.564   0.341  0.4494  2.0051  5.6538
  927MOL0     H27875  10.261   6.644   0.341  3.1434 -0.7771  3.1035
  927MOL0     H27876  10.138   6.673  -0.009  0.4276 -2.3020  1.1178
  927MOL0     H27877  10.136   6.801   0.117  2.7792  0.8004  1.6512
  927MOL0     H27878  10.024   6.624   0.275 -2.3792 -2.3779  0.8379
  927MOL0     H27879   9.946   6.640   0.116  0.5386 -1.0342 -2.2493
  927MOL0     H27880  10.095   6.439   0.032 -0.4859 -0.7853  0.3167
  927MOL0     H27881  10.156   6.431   0.192  0.9673 -1.0808 -2.4380
  927MOL0     H27882   9.993   6.276   0.127 -0.0510 -0.4950  0.7114
  927MOL0     H27883   9.949   6.358   0.282 -3.1849 -0.0600 -0.0034
  927MOL0     H27884   9.640   6.414  -0.052  2.1129  0.4135  0.7438
  927MOL0     H27885   9.412   6.191  -0.137  2.2809 -0.0433 -1.0412
  927MOL0     H27886   9.467   6.351  -0.170 -1.7167 -0.9576 -1.2478
  927MOL0     H27887   9.327   6.346  -0.070 -0.1896  0.7875  1.0295
  927MOL0     H27888   9.252   5.826   0.103 -0.5933 -1.9016 -0.1517
  927MOL0     H27889   9.092   5.673   0.039  0.2011  0.3147 -1.1710
  927MOL0     H27890   8.905   5.558  -0.007 -0.0046 -1.2210 -3.3128
  927MOL0     H27891   8.818   5.689   0.076 -0.0804 -0.1077 -0.3028
  927MOL0     H27892   8.649   5.554   0.027 -1.3491 -0.0158 -0.5109
  927MOL0     H27893   8.651   5.662  -0.113  3.3835  0.2198 -2.2571
  927MOL0     H27894   8.773   5.376  -0.110 -0.6420  0.8602  3.1986
  927MOL0     H27895   8.793   5.474  -0.241  0.7424 -6.5057 -1.5182
  927MOL0     H27896   8.522   5.514  -0.224 -0.0220  0.1663 -1.1525
  927MOL0     H27897   8.531   5.365  -0.116 -1.8822  1.1229  0.2090
  927MOL0     H27898   8.458   5.349  -0.355  0.8635 -3.0009 -1.0848
  927MOL0     H27899   8.612   5.396  -0.407  2.3765 -3.4308 -1.3316
  927MOL0     H27900   8.731   5.214  -0.347  0.4351 -1.5947 -1.0180
  927MOL0     H27901   8.578   5.159  -0.426  2.6217 -0.4213 -1.5471
  927MOL0     H27902   8.494   5.118  -0.194 -0.5986  2.3674 -0.7728
  927MOL0     H27903   8.645   5.156  -0.116 -1.5605  0.2561  1.1159
  927MOL0     H27904   8.595   4.966  -0.350 -1.7517 -0.3312  1.2515
  927MOL0     H27905   8.618   4.913  -0.181  2.8773  0.9180  1.7658
  927MOL0     H27906   8.872   5.980  -0.172  0.7595 -0.6095 -1.5249
  927MOL0     H27907   9.044   6.148  -0.089  0.0586  0.4466  5.2386
  927MOL0     H27908   9.545   6.103   0.323  0.0539 -1.1847 -0.7721
  927MOL0     H27909   9.760   6.225   0.315  0.0623 -1.9148 -0.8724
  927MOL0     H27910  11.128   6.186   1.018 -0.4578 -2.7221  0.4701
  927MOL0     H27911  10.994   6.105   1.191 -1.2610 -2.4080 -0.7376
  927MOL0     H27912  10.441   5.913   1.155  1.5303  0.2478 -0.7704
  927MOL0     H27913  10.224   5.889   1.264  3.3505  0.4193 -2.0286
  927MOL0     H27914  10.000   6.065   1.603  0.6730  0.5220 -0.7598
  927MOL0     H27915  10.156   6.140   1.631 -1.9856 -1.4816  2.4972
  927MOL0     H27916   9.971   6.196   1.386 -1.0070  2.6975 -0.9018
  927MOL0     H27917  10.133   6.236   1.393 -0.7652  0.9908  0.5977
  927MOL0     H27918   9.904   6.369   1.544 -0.1852 -1.2812  0.0599
  927MOL0     H27919  10.057   6.355   1.626  0.4533 -3.0822  0.2289
  927MOL0     H27920  10.049   6.560   1.508  1.9857 -2.7341  4.5014
  927MOL0     H27921   9.968   6.475   1.367 -0.5034 -2.6154  1.0747
  927MOL0     H27922  10.380   6.503   1.274  0.1967  0.5795 -0.4453
  927MOL0     H27923  10.349   6.162   1.565  0.2494 -0.3648 -1.1185
  927MOL0     H27924  10.560   6.270   1.567 -1.4333 -1.3183 -0.5100
  927MOL0     H27925  10.679   6.213   1.449  1.3653  1.3423  2.3098
  927MOL0     H27926  10.564   6.344   1.403  0.6321 -1.0039 -1.8906
  928MOL0     O27927   3.177   0.284   3.859 -0.9490 -0.1048  0.1606
  928MOL0     C27928   3.216   0.196   3.779 -0.3810 -0.6729  0.8084
  928MOL0     O27929   3.150   0.078   3.758 -0.8581  0.1571  0.4509
  928MOL0     C27930   3.013   0.080   3.779  0.0622  0.5559 -0.0143
  928MOL0     C27931   2.960   0.075   3.908  0.2154 -0.9295 -0.0388
  928MOL0     C27932   2.818   0.065   3.921  0.7008 -0.4943 -0.0247
  928MOL0     C27933   2.736   0.055   3.807  0.0202  0.2643 -0.8856
  928MOL0     O27934   2.599   0.048   3.819  0.1673  0.2347 -0.2382
  928MOL0     C27935   2.540   0.081   3.940  1.0387  0.9558  0.1792
  928MOL0     C27936   2.521  -0.053   4.027  0.9232 -0.3219  0.6000
  928MOL0     C27937   2.409  -0.145   3.985  0.5278 -0.5109  0.7622
  928MOL0     C27938   2.405  -0.222   3.853  0.1657 -0.2674  0.8890
  928MOL0     C27939   2.525  -0.316   3.832  0.2153 -0.2204  0.3419
  928MOL0     C27940   2.506  -0.417   3.723 -0.2110  0.5218 -0.6745
  928MOL0     C27941   2.513  -0.361   3.581  0.4403 -0.2758 -0.1497
  928MOL0     C27942   2.454  -0.452   3.477  0.3855  0.7583 -1.1192
  928MOL0     N27943   2.559  -0.538   3.434 -0.9941  1.9541  0.5693
  928MOL0     C27944   2.673  -0.509   3.366  0.3662  0.8000 -0.5582
  928MOL0     C27945   2.747  -0.616   3.347  0.0191  0.0452 -1.1983
  928MOL0     C27946   2.883  -0.648   3.284  0.2136 -0.0720  0.5988
  928MOL0     C27947   2.975  -0.524   3.258 -0.2731  0.4988  0.6004
  928MOL0     C27948   3.127  -0.568   3.255 -0.4563 -1.0779 -0.4838
  928MOL0     C27949   3.214  -0.447   3.256  0.4164 -1.7072  0.3001
  928MOL0     O27950   3.269  -0.420   3.385  0.2811 -0.8690 -0.4303
  928MOL0     C27951   3.383  -0.486   3.433 -0.4652  0.8876  0.1982
  928MOL0     C27952   3.410  -0.498   3.563 -0.5657 -0.3850 -1.2338
  928MOL0     C27953   3.523  -0.560   3.621  0.2340 -0.0668  0.5609
  928MOL0     C27954   3.531  -0.581   3.767 -0.0891 -1.0169  0.5578
  928MOL0     C27955   3.624  -0.614   3.528  0.5774 -0.8613  0.0986
  928MOL0     C27956   3.755  -0.675   3.567  0.1535  0.6292  0.1891
  928MOL0     O27957   3.799  -0.664   3.696  0.9267 -0.0394  0.8783
  928MOL0     C27958   3.906  -0.745   3.735  0.3858  0.4965 -0.2132
  928MOL0     C27959   3.872  -0.863   3.797  0.1931 -0.1052 -0.7023
  928MOL0     C27960   3.956  -0.950   3.846  0.0192  0.8135  0.0510
  928MOL0     C27961   4.095  -0.932   3.818  0.2589  0.3285  0.0979
  928MOL0     O27962   4.190  -1.018   3.848 -0.0543  0.7025 -0.8719
  928MOL0     C27963   4.163  -1.141   3.928  0.3406  0.3991 -0.0942
  928MOL0     C27964   4.134  -1.106   4.077 -0.0431 -0.1498 -0.3087
  928MOL0     C27965   4.256  -1.045   4.150  0.2115  0.1471 -0.7436
  928MOL0     C27966   4.364  -1.148   4.186 -0.0233  0.2135 -0.2090
  928MOL0     C27967   4.433  -1.112   4.318  0.4573 -0.0320  0.5198
  928MOL0     C27968   4.533  -1.235   4.338 -0.1363  0.0843 -0.5595
  928MOL0     C27969   4.588  -1.216   4.468  0.6734 -0.0782 -0.4594
  928MOL0     C27970   4.690  -1.099   4.468 -0.0124 -0.3802 -0.4520
  928MOL0    Cl27971   4.833  -1.103   4.366 -0.1164 -0.3315  0.1387
  928MOL0     C27972   4.129  -0.815   3.747  0.0856  0.8514 -0.6951
  928MOL0     C27973   4.036  -0.719   3.714  0.0825  0.1838 -0.3181
  928MOL0     O27974   3.816  -0.741   3.484  0.0454 -0.0520 -0.1472
  928MOL0     C27975   3.599  -0.592   3.395  0.5771 -0.8168  0.2810
  928MOL0     C27976   3.482  -0.532   3.346 -0.4151 -0.2704  0.1353
  928MOL0     N27977   2.672  -0.730   3.396 -0.3015 -0.9030 -1.0594
  928MOL0     N27978   2.566  -0.678   3.458 -0.2713 -0.2072  0.4664
  928MOL0     C27979   2.793   0.065   3.685  0.1631 -0.8195 -0.3056
  928MOL0     C27980   2.929   0.070   3.666  0.3931 -0.2934 -1.1544
  928MOL0     C27981   3.350   0.217   3.706  0.1149  0.4203  0.7892
  928MOL0     C27982   3.429   0.332   3.735 -0.3035  0.1639 -0.6281
  928MOL0     C27983   3.538   0.369   3.654 -0.1738 -1.2761  0.0900
  928MOL0     C27984   3.574   0.284   3.552  0.7020 -0.3662  0.2014
  928MOL0     O27985   3.674   0.322   3.475  1.0007 -0.2592 -0.4882
  928MOL0     C27986   3.795   0.383   3.518  1.2938 -0.2952 -0.2883
  928MOL0     C27987   3.819   0.516   3.440  0.3656 -0.1302 -1.2234
  928MOL0     C27988   3.954   0.564   3.469 -0.0557  0.2437 -0.8686
  928MOL0     C27989   3.990   0.680   3.386 -0.2631 -0.1614 -0.1609
  928MOL0     C27990   3.919   0.810   3.432 -0.6316 -0.1876 -0.6993
  928MOL0     C27991   3.874   0.915   3.474  0.3573  0.1960  0.4364
  928MOL0     C27992   3.496   0.169   3.529 -0.4080  0.7653 -0.0370
  928MOL0     C27993   3.389   0.129   3.608 -0.3243 -0.4495 -0.1679
  928MOL0     C27994   3.321   0.005   3.564 -0.2255  1.1957  0.1860
  928MOL0     H27995   3.026   0.073   3.994 -3.4374  2.3739  3.1997
  928MOL0     H27996   2.766   0.076   4.016  1.7968 -0.9529  0.6486
  928MOL0     H27997   2.437   0.113   3.923  0.2397 -1.4290  0.1279
  928MOL0     H27998   2.585   0.165   3.993  0.2931  0.5944  1.4359
  928MOL0     H27999   2.607  -0.121   4.025  1.1082 -0.1121 -1.9633
  928MOL0     H28000   2.488  -0.026   4.128  1.3600  0.1839  0.6124
  928MOL0     H28001   2.420  -0.226   4.057  0.6722 -1.0731  0.1166
  928MOL0     H28002   2.312  -0.098   4.000  1.8972  1.8453  3.1333
  928MOL0     H28003   2.314  -0.282   3.852  1.1307 -1.7864  0.4433
  928MOL0     H28004   2.381  -0.157   3.768 -3.8824  0.6495  2.5230
  928MOL0     H28005   2.528  -0.375   3.924 -0.7446 -3.4525 -1.5341
  928MOL0     H28006   2.618  -0.258   3.825  2.9066 -4.0782  0.8420
  928MOL0     H28007   2.580  -0.496   3.735 -2.3086 -1.3930  0.3334
  928MOL0     H28008   2.412  -0.471   3.738  0.0236  0.8000  2.4487
  928MOL0     H28009   2.616  -0.331   3.560  1.5216 -0.7523  3.7557
  928MOL0     H28010   2.453  -0.270   3.586  1.2536  0.2159  1.7695
  928MOL0     H28011   2.373  -0.513   3.517  1.3412  0.2537  0.1188
  928MOL0     H28012   2.420  -0.395   3.389 -3.5534  0.0026 -0.2939
  928MOL0     H28013   2.685  -0.406   3.335 -2.7269  1.1523 -0.8498
  928MOL0     H28014   2.882  -0.704   3.190 -2.4120  1.2502 -0.2624
  928MOL0     H28015   2.935  -0.704   3.363  0.0370 -2.1364 -0.6621
  928MOL0     H28016   2.959  -0.481   3.158  3.9057 -0.9570 -0.9437
  928MOL0     H28017   2.942  -0.447   3.328  0.6938  0.3813  1.2035
  928MOL0     H28018   3.147  -0.613   3.353 -0.2541  1.3978  0.6786
  928MOL0     H28019   3.148  -0.634   3.170  1.5177 -2.2635  0.8456
  928MOL0     H28020   3.282  -0.469   3.174 -0.4581 -1.6653 -0.4486
  928MOL0     H28021   3.165  -0.357   3.220  1.4597  0.0381  2.9375
  928MOL0     H28022   3.334  -0.464   3.633 -1.3994 -2.0460 -1.2959
  928MOL0     H28023   3.631  -0.548   3.799 -0.5731  2.1862 -0.8320
  928MOL0     H28024   3.525  -0.687   3.793  0.9717 -1.5169 -1.1205
  928MOL0     H28025   3.452  -0.532   3.825 -0.0084  0.8179 -0.8143
  928MOL0     H28026   3.769  -0.894   3.812 -0.0057 -0.1828 -2.0824
  928MOL0     H28027   3.908  -1.036   3.891 -2.4726  0.9894 -2.0781
  928MOL0     H28028   4.079  -1.193   3.881  0.3277  1.7897 -1.7124
  928MOL0     H28029   4.245  -1.210   3.904 -2.6670 -3.4016 -0.4105
  928MOL0     H28030   4.048  -1.038   4.078  0.0287 -0.0306  1.9377
  928MOL0     H28031   4.107  -1.204   4.117  0.6419 -0.4947 -0.6845
  928MOL0     H28032   4.208  -1.009   4.242  2.0224  2.5572 -0.6444
  928MOL0     H28033   4.296  -0.963   4.090 -1.3717  1.9264  0.5219
  928MOL0     H28034   4.437  -1.150   4.104  0.4508 -2.1194  0.1968
  928MOL0     H28035   4.319  -1.247   4.195  1.5382 -0.3841  1.8549
  928MOL0     H28036   4.476  -1.012   4.329  2.2291 -0.7837  0.8858
  928MOL0     H28037   4.365  -1.134   4.400  3.3267 -0.9919  2.8334
  928MOL0     H28038   4.610  -1.244   4.261  0.9580 -1.9540  0.6849
  928MOL0     H28039   4.478  -1.329   4.328  0.7194 -0.3753 -1.0659
  928MOL0     H28040   4.624  -1.314   4.500  0.1558 -0.3496 -0.6944
  928MOL0     H28041   4.506  -1.194   4.537  2.1978 -2.2658  2.2660
  928MOL0     H28042   4.728  -1.094   4.570  2.4851  1.6110 -1.3760
  928MOL0     H28043   4.639  -1.004   4.452  0.9389  0.0872 -0.7597
  928MOL0     H28044   4.232  -0.783   3.738 -0.6808  4.0093  0.5464
  928MOL0     H28045   4.080  -0.636   3.660 -1.7839 -0.2530 -2.6550
  928MOL0     H28046   3.674  -0.632   3.327  0.9884 -1.6560  1.1912
  928MOL0     H28047   3.483  -0.524   3.237  1.4594  1.5799  0.2298
  928MOL0     H28048   2.719   0.036   3.610 -0.3661  0.9941 -0.5284
  928MOL0     H28049   2.971   0.072   3.566 -0.6397  1.0683 -1.5884
  928MOL0     H28050   3.403   0.398   3.817  0.4489 -2.5704  1.9722
  928MOL0     H28051   3.584   0.465   3.672  3.1911 -2.7160 -0.0927
  928MOL0     H28052   3.797   0.397   3.626 -0.1924 -0.4373 -0.2194
  928MOL0     H28053   3.877   0.314   3.499  0.8296 -0.9949  0.1945
  928MOL0     H28054   3.747   0.587   3.482  1.3878  0.1019  0.2299
  928MOL0     H28055   3.793   0.513   3.334  2.1941  0.4036 -1.7110
  928MOL0     H28056   3.958   0.585   3.576 -1.1386 -3.0464 -0.0359
  928MOL0     H28057   4.036   0.495   3.447  0.8553  0.1549  2.3503
  928MOL0     H28058   3.974   0.664   3.278  0.3697 -2.4093  0.0281
  928MOL0     H28059   4.096   0.695   3.409 -0.0609 -0.7152 -0.6897
  928MOL0     H28060   3.832   1.000   3.525  2.8144  0.8210  1.5626
  928MOL0     H28061   3.537   0.113   3.446  1.0618  3.4368 -1.2699
  928MOL0     H28062   3.303  -0.066   3.645 -0.7641  0.9478 -0.1395
  928MOL0     H28063   3.233   0.034   3.506 -0.0638  1.2097 -0.0553
  928MOL0     H28064   3.385  -0.045   3.491 -1.1343 -0.9890  0.7903
  929MOL0     O28065   0.192  10.217  10.793  0.2132 -0.4370 -0.6747
  929MOL0     C28066   0.211  10.247  10.677  0.4858  0.1329 -0.5960
  929MOL0     O28067   0.147  10.186  10.574 -0.3069 -0.2289  0.3235
  929MOL0     C28068   0.020  10.138  10.573 -1.5649  0.1270 -0.1041
  929MOL0     C28069  -0.017  10.084  10.455 -0.7912  0.6383 -0.7543
  929MOL0     C28070  -0.138  10.017  10.441 -0.7083  0.4647 -0.2185
  929MOL0     C28071  -0.227  10.005  10.545 -0.2856  0.6532 -0.7321
  929MOL0     O28072  -0.345   9.931  10.548 -0.3065 -0.6678  0.1187
  929MOL0     C28073  -0.334   9.799  10.502 -1.1134  1.1363  0.1881
  929MOL0     C28074  -0.419   9.704  10.581  0.5979 -0.0323  0.9127
  929MOL0     C28075  -0.372   9.695  10.723  0.4984 -0.4465 -0.5594
  929MOL0     C28076  -0.459   9.608  10.810  0.4179  0.4827 -0.5437
  929MOL0     C28077  -0.452   9.643  10.965 -0.8083 -0.4338 -0.7884
  929MOL0     C28078  -0.306   9.666  11.014  0.7356  0.3464 -0.5617
  929MOL0     C28079  -0.308   9.679  11.165  0.3429  0.5841 -0.0127
  929MOL0     C28080  -0.395   9.785  11.244  0.1419 -0.3289  0.9863
  929MOL0     N28081  -0.402   9.921  11.180 -0.5422  0.1072 -0.5101
  929MOL0     C28082  -0.515   9.989  11.166 -0.6622  0.3712  0.4115
  929MOL0     C28083  -0.494  10.084  11.075  0.2350 -0.3716 -0.5986
  929MOL0     C28084  -0.608  10.167  11.010 -0.5878  0.2046 -0.1756
  929MOL0     C28085  -0.657  10.277  11.100  0.2764  0.0401 -0.0112
  929MOL0     C28086  -0.746  10.372  11.011  0.1653 -0.0609  0.3136
  929MOL0     C28087  -0.804  10.477  11.107  0.2646 -0.5034  0.0592
  929MOL0     O28088  -0.923  10.420  11.159 -0.2396  0.1615 -0.7850
  929MOL0     C28089  -0.974  10.486  11.269  0.2398 -0.0028  0.6106
  929MOL0     C28090  -0.951  10.617  11.303  0.3925  0.2761  1.0560
  929MOL0     C28091  -0.998  10.665  11.425  0.3828 -0.4061  0.3568
  929MOL0     C28092  -0.963  10.800  11.466 -0.8958 -0.8228  0.0895
  929MOL0     C28093  -1.084  10.587  11.506  0.0578  0.2573 -0.4226
  929MOL0     C28094  -1.138  10.624  11.638  0.8851  0.2195  0.3784
  929MOL0     O28095  -1.188  10.526  11.726  0.2350 -0.2449 -0.2510
  929MOL0     C28096  -1.263  10.564  11.844 -1.1937  0.5853 -0.4426
  929MOL0     C28097  -1.383  10.507  11.855  0.3264 -0.4365 -0.7998
  929MOL0     C28098  -1.467  10.528  11.961 -0.1759 -0.2833 -0.0312
  929MOL0     C28099  -1.416  10.610  12.070 -0.8467  0.4141  0.9404
  929MOL0     O28100  -1.495  10.614  12.179  0.5655 -0.4979 -0.3117
  929MOL0     C28101  -1.506  10.737  12.253 -0.2035 -0.5245  0.1594
  929MOL0     C28102  -1.606  10.718  12.362 -0.0132  0.4230 -0.2204
  929MOL0     C28103  -1.585  10.796  12.491 -0.0907  0.2359  0.5407
  929MOL0     C28104  -1.684  10.733  12.591  0.8887  0.3139 -0.9457
  929MOL0     C28105  -1.633  10.601  12.657  0.1534  0.0127  0.7569
  929MOL0     C28106  -1.712  10.570  12.783  0.5379  0.0337 -0.6125
  929MOL0     C28107  -1.867  10.534  12.771 -0.9502  0.2255 -0.7346
  929MOL0     C28108  -1.936  10.484  12.901 -0.6203 -1.1337 -0.7932
  929MOL0    Cl28109  -2.006  10.632  12.986  0.4199 -0.0380  0.1463
  929MOL0     C28110  -1.285  10.671  12.059  0.1311 -0.6091  0.2866
  929MOL0     C28111  -1.216  10.651  11.944 -0.1961 -0.4862  0.4173
  929MOL0     O28112  -1.153  10.740  11.669 -0.2535 -0.1943  0.6301
  929MOL0     C28113  -1.103  10.454  11.471  0.1886  0.9023  0.0975
  929MOL0     C28114  -1.053  10.407  11.348 -0.1231  0.6778 -1.3412
  929MOL0     N28115  -0.363  10.083  11.044  0.2323 -0.2602  0.8106
  929MOL0     N28116  -0.313   9.989  11.113 -0.3750 -0.0128  0.4030
  929MOL0     C28117  -0.205  10.079  10.658  0.9237 -0.5187  0.1543
  929MOL0     C28118  -0.078  10.143  10.674  0.1066  0.9436  0.8035
  929MOL0     C28119   0.320  10.341  10.646  0.2316  0.1333  0.3204
  929MOL0     C28120   0.308  10.397  10.518  0.2310 -0.6468  0.2195
  929MOL0     C28121   0.415  10.482  10.465  0.2014 -0.0582  0.6651
  929MOL0     C28122   0.524  10.515  10.547  0.1174 -0.7236  0.0581
  929MOL0     O28123   0.623  10.596  10.517 -0.2202 -0.8939 -0.1805
  929MOL0     C28124   0.669  10.616  10.383  0.6238  0.2513 -1.2955
  929MOL0     C28125   0.627  10.747  10.317 -0.1332  0.6314  0.6782
  929MOL0     C28126   0.672  10.747  10.168  0.2303 -0.5857  0.2974
  929MOL0     C28127   0.625  10.879  10.114 -0.0025 -1.0510  0.5450
  929MOL0     C28128   0.701  10.990  10.187 -0.6317  0.7301 -0.2401
  929MOL0     C28129   0.757  11.081  10.243 -0.5673  0.0288 -0.4760
  929MOL0     C28130   0.523  10.465  10.677 -0.1097 -1.3479  1.1069
  929MOL0     C28131   0.427  10.372  10.726 -1.1153  0.3245  0.3245
  929MOL0     C28132   0.460  10.320  10.870  0.3336 -1.0211  0.3614
  929MOL0     H28133   0.048  10.090  10.368 -1.1625 -0.5968 -1.1491
  929MOL0     H28134  -0.164   9.958  10.354 -3.4785  0.1679  0.7160
  929MOL0     H28135  -0.235   9.754  10.499 -2.3234 -1.7655 -2.8886
  929MOL0     H28136  -0.366   9.815  10.398 -0.4078  2.9265  0.2083
  929MOL0     H28137  -0.523   9.740  10.579  0.0755 -1.4437 -0.9366
  929MOL0     H28138  -0.424   9.609  10.526  0.5738  0.1549  0.5875
  929MOL0     H28139  -0.267   9.668  10.729  0.5347 -1.6534 -4.0953
  929MOL0     H28140  -0.395   9.793  10.766 -1.8481 -0.2256 -2.0998
  929MOL0     H28141  -0.562   9.615  10.772  0.4473  1.0862 -0.5126
  929MOL0     H28142  -0.420   9.506  10.800  1.7391  1.0458 -1.4035
  929MOL0     H28143  -0.502   9.557  11.010 -1.4873  0.0369 -0.6207
  929MOL0     H28144  -0.514   9.733  10.977  0.2378  0.7365 -3.3460
  929MOL0     H28145  -0.244   9.580  10.984 -1.2259 -1.7158  0.9531
  929MOL0     H28146  -0.254   9.756  10.980  3.2065  0.5859  3.1600
  929MOL0     H28147  -0.204   9.689  11.198  0.1099  3.1045  0.1571
  929MOL0     H28148  -0.320   9.585  11.219  2.1841  0.0961 -0.3858
  929MOL0     H28149  -0.489   9.736  11.271  0.6128 -0.9798  1.4618
  929MOL0     H28150  -0.341   9.807  11.336  0.3595  2.2272  0.3169
  929MOL0     H28151  -0.609   9.965  11.214 -0.8941 -0.9520 -0.6308
  929MOL0     H28152  -0.690  10.103  10.976 -1.3219  0.9903  0.0792
  929MOL0     H28153  -0.560  10.205  10.919  0.6848  0.6519  0.6469
  929MOL0     H28154  -0.724  10.234  11.175  0.5124  1.8202  1.2708
  929MOL0     H28155  -0.571  10.328  11.143 -0.2107  0.6669  0.2388
  929MOL0     H28156  -0.677  10.427  10.946  2.1760 -0.7353  1.7808
  929MOL0     H28157  -0.815  10.318  10.946  0.7079 -1.4216  0.8386
  929MOL0     H28158  -0.734  10.503  11.187  0.6387 -1.0899 -0.0752
  929MOL0     H28159  -0.840  10.570  11.061  0.6519  0.3354  1.3941
  929MOL0     H28160  -0.892  10.680  11.237  0.4422 -0.0906  0.7513
  929MOL0     H28161  -0.858  10.821  11.443 -1.4600  1.2550 -0.8264
  929MOL0     H28162  -0.958  10.806  11.575 -0.1801 -0.1148  0.0245
  929MOL0     H28163  -1.014  10.883  11.417  2.9539  1.4965 -0.4248
  929MOL0     H28164  -1.415  10.443  11.773  0.0023  0.4476 -1.3705
  929MOL0     H28165  -1.565  10.487  11.981  0.1168 -0.4310  1.2185
  929MOL0     H28166  -1.408  10.767  12.289 -0.5142 -0.8274  1.3121
  929MOL0     H28167  -1.544  10.811  12.181 -1.9086 -2.9537 -1.6452
  929MOL0     H28168  -1.706  10.739  12.324 -0.4446  0.7665  1.0452
  929MOL0     H28169  -1.599  10.614  12.396  1.2841  1.2512  2.3463
  929MOL0     H28170  -1.610  10.895  12.453  2.6830  0.1389 -1.8853
  929MOL0     H28171  -1.485  10.788  12.533 -0.5520  0.2158  1.6722
  929MOL0     H28172  -1.780  10.719  12.542 -1.3481  1.3245  2.7782
  929MOL0     H28173  -1.712  10.808  12.665  0.4780  2.0289 -2.7491
  929MOL0     H28174  -1.642  10.517  12.588 -0.2198 -0.2420  1.1148
  929MOL0     H28175  -1.526  10.618  12.677  0.7602 -0.8440 -1.5216
  929MOL0     H28176  -1.706  10.653  12.855 -1.8682 -0.6939  0.5284
  929MOL0     H28177  -1.665  10.479  12.824  0.4255  0.4469  0.4732
  929MOL0     H28178  -1.872  10.449  12.702 -1.5760 -2.1581  2.0674
  929MOL0     H28179  -1.920  10.617  12.723 -0.7239  0.5911 -0.3568
  929MOL0     H28180  -1.866  10.422  12.958  0.8894 -0.5136 -1.8952
  929MOL0     H28181  -2.021  10.422  12.873 -1.8270  0.8847 -1.8200
  929MOL0     H28182  -1.245  10.725  12.143 -1.6975 -1.8547  2.0521
  929MOL0     H28183  -1.118  10.696  11.947 -0.4369  0.2298 -1.3873
  929MOL0     H28184  -1.171  10.392  11.528 -0.6068  1.7847  0.1262
  929MOL0     H28185  -1.058  10.301  11.326 -0.7509  0.4499 -0.2124
  929MOL0     H28186  -0.275  10.082  10.741 -0.1166 -1.3896 -0.6618
  929MOL0     H28187  -0.045  10.182  10.769  0.9454 -2.5158  2.1050
  929MOL0     H28188   0.228  10.386  10.446  0.8145  4.9889 -1.7942
  929MOL0     H28189   0.403  10.536  10.371 -2.0962  0.5362  1.2555
  929MOL0     H28190   0.776  10.593  10.381  0.2845 -1.4372 -2.2505
  929MOL0     H28191   0.628  10.549  10.307  1.9568  0.1049 -1.9125
  929MOL0     H28192   0.671  10.826  10.378  1.0481  2.0260 -1.7920
  929MOL0     H28193   0.518  10.750  10.325 -0.2416 -0.7907  0.1475
  929MOL0     H28194   0.781  10.734  10.164  0.4201  0.5411  1.3016
  929MOL0     H28195   0.632  10.660  10.115 -0.2979 -0.6472  0.7848
  929MOL0     H28196   0.518  10.900  10.126  0.7512  3.3327  1.2168
  929MOL0     H28197   0.648  10.889  10.008 -1.1782  0.7187  0.4072
  929MOL0     H28198   0.803  11.173  10.274 -1.7805  0.7030 -0.6203
  929MOL0     H28199   0.607  10.491  10.740  1.1464 -1.8529 -0.3279
  929MOL0     H28200   0.540  10.377  10.918 -0.1882  1.0042 -1.0227
  929MOL0     H28201   0.371  10.334  10.933 -0.0305 -1.8672  0.0539
  929MOL0     H28202   0.489  10.215  10.858 -1.0291 -1.4458  0.5568
  930MOL0     O28203   6.643   2.965   9.503  0.0307 -0.3643 -0.4097
  930MOL0     C28204   6.542   3.024   9.478  0.3191 -0.2426  0.2788
  930MOL0     O28205   6.416   2.972   9.468 -0.0968 -0.2232  0.0163
  930MOL0     C28206   6.368   2.868   9.548  0.4964 -0.3216  0.1740
  930MOL0     C28207   6.230   2.855   9.557  0.4030  1.2612  0.7580
  930MOL0     C28208   6.165   2.750   9.637 -0.0539  0.1214 -0.9730
  930MOL0     C28209   6.249   2.662   9.702 -1.1993 -0.0608  0.4879
  930MOL0     O28210   6.170   2.566   9.770 -0.7387 -0.2269  0.0294
  930MOL0     C28211   6.243   2.464   9.846  0.4195  0.3272 -0.3921
  930MOL0     C28212   6.158   2.336   9.855  0.2252  0.8679 -0.0279
  930MOL0     C28213   6.208   2.244   9.978  0.1973  0.0494  0.6826
  930MOL0     C28214   6.107   2.130   9.988 -0.6479  0.3518  0.5344
  930MOL0     C28215   6.080   2.091  10.131  0.0651  0.0281 -0.0162
  930MOL0     C28216   6.001   1.962  10.138 -0.7049  0.2208 -1.0847
  930MOL0     C28217   5.968   1.916  10.277 -0.8575 -0.6079 -0.7688
  930MOL0     C28218   5.861   2.015  10.345 -0.2061 -0.2876 -0.0359
  930MOL0     N28219   5.805   1.958  10.462 -0.1606  0.0928 -0.1866
  930MOL0     C28220   5.849   1.999  10.589  0.4644 -0.2369 -0.0668
  930MOL0     C28221   5.737   1.976  10.667 -0.3211 -0.1017 -0.3826
  930MOL0     C28222   5.728   1.998  10.819  0.4427 -0.0623 -0.1862
  930MOL0     C28223   5.584   2.022  10.857  0.2523 -0.0278 -0.4624
  930MOL0     C28224   5.497   1.900  10.884 -0.2943  0.6743  0.3461
  930MOL0     C28225   5.349   1.932  10.917  0.1498  0.4174 -0.4965
  930MOL0     O28226   5.334   1.966  11.062  0.5242  0.1872 -0.3115
  930MOL0     C28227   5.229   1.917  11.139  0.8153  0.2439  0.2217
  930MOL0     C28228   5.245   1.923  11.276 -0.4101 -0.2979  0.8846
  930MOL0     C28229   5.144   1.877  11.365  0.3086 -0.8750 -0.3246
  930MOL0     C28230   5.181   1.886  11.512 -0.1219  0.3546 -0.2721
  930MOL0     C28231   5.028   1.821  11.315 -0.0559  1.0878 -1.0125
  930MOL0     C28232   4.919   1.753  11.394 -0.2145 -0.3447  0.0516
  930MOL0     O28233   4.953   1.687  11.506 -0.3761 -0.0680 -0.2028
  930MOL0     C28234   4.841   1.642  11.577 -0.6064 -0.6480  0.1478
  930MOL0     C28235   4.756   1.737  11.634 -0.4917  0.3473  0.5228
  930MOL0     C28236   4.639   1.687  11.699  0.2650 -0.1620  0.5460
  930MOL0     C28237   4.615   1.546  11.714 -0.8842 -0.6289  0.6285
  930MOL0     O28238   4.514   1.484  11.780  0.2922  1.0009 -0.1230
  930MOL0     C28239   4.427   1.560  11.856 -0.2726 -0.1134 -0.1543
  930MOL0     C28240   4.336   1.449  11.921 -0.2100 -0.2398 -0.0539
  930MOL0     C28241   4.240   1.379  11.822  0.0778  0.1337 -0.1223
  930MOL0     C28242   4.115   1.465  11.795 -0.1477 -0.6312  0.3920
  930MOL0     C28243   4.065   1.453  11.651 -0.1097 -0.4254  0.8360
  930MOL0     C28244   3.929   1.525  11.617 -0.2370  1.0197 -0.6012
  930MOL0     C28245   3.942   1.675  11.635 -1.0308 -0.3722  1.0750
  930MOL0     C28246   3.827   1.760  11.594  0.3115 -0.5617  0.7568
  930MOL0    Cl28247   3.715   1.785  11.734 -0.0499 -0.1888 -0.1322
  930MOL0     C28248   4.707   1.454  11.659 -0.1665 -0.3338  0.4280
  930MOL0     C28249   4.820   1.500  11.599  0.0688 -0.5404  0.5234
  930MOL0     O28250   4.810   1.765  11.351 -0.3390  0.0173  0.1337
  930MOL0     C28251   5.003   1.829  11.173 -0.7120  0.1192 -0.2836
  930MOL0     C28252   5.107   1.864  11.091 -0.9053 -0.2336  0.7980
  930MOL0     N28253   5.627   1.918  10.593  0.1838  0.4505  0.4944
  930MOL0     N28254   5.675   1.915  10.469  0.3563 -0.0340  0.4114
  930MOL0     C28255   6.389   2.677   9.703 -0.4960  0.0579 -0.7088
  930MOL0     C28256   6.445   2.780   9.626  0.7516 -0.4169 -0.3626
  930MOL0     C28257   6.540   3.167   9.436 -0.9978  0.1023  0.5367
  930MOL0     C28258   6.463   3.206   9.320 -0.3100  0.1869  0.9603
  930MOL0     C28259   6.454   3.339   9.290  0.0686 -0.3036 -0.3833
  930MOL0     C28260   6.535   3.432   9.346  0.9738 -0.9113 -0.5608
  930MOL0     O28261   6.528   3.564   9.319  0.4966 -1.4041 -0.1809
  930MOL0     C28262   6.422   3.600   9.220  0.6373  1.1114 -0.2683
  930MOL0     C28263   6.420   3.751   9.194 -1.1921  0.0354  0.3058
  930MOL0     C28264   6.561   3.794   9.137  0.2589  0.3087  0.2696
  930MOL0     C28265   6.556   3.843   8.993 -0.1858 -0.4249 -0.6186
  930MOL0     C28266   6.495   3.736   8.912  0.4649  0.0282  0.2637
  930MOL0     C28267   6.448   3.656   8.832  0.2759  0.3403  0.2319
  930MOL0     C28268   6.613   3.397   9.449 -0.1664  0.5147 -0.3160
  930MOL0     C28269   6.615   3.268   9.502  0.2632 -0.4102 -0.3133
  930MOL0     C28270   6.707   3.234   9.621  0.3965  0.6234 -0.7479
  930MOL0     H28271   6.160   2.918   9.503 -2.8577 -3.2297 -0.9442
  930MOL0     H28272   6.057   2.749   9.648  0.0436  0.9387  0.4052
  930MOL0     H28273   6.269   2.498   9.946  1.3705 -0.2292 -0.4474
  930MOL0     H28274   6.336   2.435   9.798 -1.1461 -1.2949 -2.6848
  930MOL0     H28275   6.053   2.362   9.871 -0.0458 -0.2595  0.1425
  930MOL0     H28276   6.155   2.281   9.760 -0.0128  1.1634 -0.1914
  930MOL0     H28277   6.308   2.204   9.961  0.2190  0.6481 -0.7601
  930MOL0     H28278   6.207   2.309  10.066  2.9031  0.3858  0.5445
  930MOL0     H28279   6.016   2.165   9.940 -0.0746 -2.3821 -2.9616
  930MOL0     H28280   6.147   2.040   9.940  2.5896  0.5695  2.4959
  930MOL0     H28281   6.024   2.179  10.162  2.4288  0.5217  3.4451
  930MOL0     H28282   6.182   2.098  10.170 -0.0405  2.1899 -0.0071
  930MOL0     H28283   5.903   1.982  10.091 -1.1211  1.4384  0.2440
  930MOL0     H28284   6.062   1.889  10.084  1.3662  0.9557  0.1982
  930MOL0     H28285   6.064   1.908  10.330  0.9105  2.7453 -3.1422
  930MOL0     H28286   5.931   1.813  10.288  1.8109 -2.0205 -3.4539
  930MOL0     H28287   5.918   2.106  10.365  3.4255 -2.3034 -0.3104
  930MOL0     H28288   5.786   2.024  10.266  0.4556 -0.2200 -0.6754
  930MOL0     H28289   5.940   2.039  10.631 -0.6699  2.0055  0.3664
  930MOL0     H28290   5.777   2.091  10.850 -1.6922  0.9354  0.3358
  930MOL0     H28291   5.767   1.910  10.871 -1.9410 -0.4702  1.0520
  930MOL0     H28292   5.593   2.079  10.950 -0.7579 -0.0012 -0.3724
  930MOL0     H28293   5.527   2.082  10.785  0.8104  0.3033 -0.6394
  930MOL0     H28294   5.499   1.825  10.804 -1.5812  0.6944  0.2717
  930MOL0     H28295   5.541   1.852  10.972 -1.0835  0.3681  0.5784
  930MOL0     H28296   5.318   2.018  10.856 -0.3312  1.0512  0.5964
  930MOL0     H28297   5.288   1.844  10.895  1.4516 -1.2242  2.0182
  930MOL0     H28298   5.337   1.966  11.313 -1.0042 -0.4615  2.6320
  930MOL0     H28299   5.199   1.787  11.554 -3.0884 -0.2192 -0.1961
  930MOL0     H28300   5.096   1.932  11.562 -1.6169 -1.4594 -1.0490
  930MOL0     H28301   5.263   1.958  11.525 -3.0994  4.3754 -1.8003
  930MOL0     H28302   4.769   1.841  11.606 -0.0563  0.1900  0.1209
  930MOL0     H28303   4.569   1.757  11.744 -3.0691 -0.7095 -3.1731
  930MOL0     H28304   4.474   1.622  11.932 -3.9033 -0.7309  2.9325
  930MOL0     H28305   4.371   1.627  11.791 -2.1724 -2.7456 -1.4335
  930MOL0     H28306   4.398   1.369  11.963 -1.8763 -1.6015 -0.0603
  930MOL0     H28307   4.273   1.496  11.998  3.1587  2.7066  1.1490
  930MOL0     H28308   4.203   1.287  11.869 -0.3143  1.3629  2.1195
  930MOL0     H28309   4.292   1.350  11.730 -0.3257 -3.1183  0.5742
  930MOL0     H28310   4.131   1.572  11.811 -3.3852  0.0043  0.0944
  930MOL0     H28311   4.038   1.426  11.863 -0.1001  0.2534  0.9713
  930MOL0     H28312   4.137   1.481  11.573 -1.8432  2.8560  0.2134
  930MOL0     H28313   4.046   1.348  11.629  0.4402 -0.4244  0.3335
  930MOL0     H28314   3.835   1.491  11.663 -0.0581 -0.4049 -1.2359
  930MOL0     H28315   3.901   1.507  11.513 -3.0316  4.4755 -0.6379
  930MOL0     H28316   4.025   1.709  11.572 -0.6573 -3.8446 -0.6022
  930MOL0     H28317   3.965   1.693  11.740 -0.7091  2.7334  0.5487
  930MOL0     H28318   3.774   1.705  11.515 -0.0840  2.0609 -0.8996
  930MOL0     H28319   3.864   1.856  11.557  0.5748 -0.9810 -0.0968
  930MOL0     H28320   4.682   1.348  11.664 -2.7020  0.1954  0.1306
  930MOL0     H28321   4.899   1.435  11.561  2.6075  1.5809  1.8188
  930MOL0     H28322   4.917   1.782  11.125  1.0670 -1.9314 -1.6512
  930MOL0     H28323   5.078   1.856  10.987 -2.0902 -1.3392  1.1849
  930MOL0     H28324   6.457   2.604   9.745 -0.4026  0.8930  0.6618
  930MOL0     H28325   6.551   2.803   9.635  0.5432  0.3411  0.3552
  930MOL0     H28326   6.406   3.135   9.260 -1.2984  0.7754  1.1767
  930MOL0     H28327   6.395   3.353   9.199 -0.3336  0.9410  0.0428
  930MOL0     H28328   6.446   3.550   9.125 -1.0065 -3.3358  1.4122
  930MOL0     H28329   6.323   3.563   9.246  0.3294  0.1247 -2.5590
  930MOL0     H28330   6.401   3.803   9.289 -1.2625 -1.6889  1.2791
  930MOL0     H28331   6.334   3.763   9.127 -1.8619 -1.7909  0.7809
  930MOL0     H28332   6.589   3.891   9.179 -1.6402  1.3380 -0.7234
  930MOL0     H28333   6.629   3.710   9.155 -1.3947 -1.2901 -0.6133
  930MOL0     H28334   6.655   3.868   8.954 -0.9305 -0.3556 -2.5984
  930MOL0     H28335   6.511   3.943   8.994  0.8720  0.0631  0.6351
  930MOL0     H28336   6.412   3.576   8.771  2.2732 -0.1059 -0.4309
  930MOL0     H28337   6.673   3.473   9.496  2.7644 -1.5624 -0.4008
  930MOL0     H28338   6.677   3.141   9.670  3.0983 -0.2307 -0.5758
  930MOL0     H28339   6.803   3.199   9.582 -0.0183  1.0710 -2.2349
  930MOL0     H28340   6.710   3.319   9.690  0.0050  0.1534 -0.1459
  931MOL0     O28341   8.237   1.500   6.878 -0.8237  0.1153 -0.1622
  931MOL0     C28342   8.263   1.427   6.777  1.2016 -0.3776  0.3553
  931MOL0     O28343   8.201   1.307   6.739 -0.0966 -0.3964 -0.3842
  931MOL0     C28344   8.134   1.258   6.845  0.7917  0.4561  1.0289
  931MOL0     C28345   7.992   1.260   6.856 -0.8912  1.1426 -0.3012
  931MOL0     C28346   7.927   1.196   6.969  0.2971  0.6922  0.1676
  931MOL0     C28347   7.999   1.146   7.076  0.1299  0.1616  0.0051
  931MOL0     O28348   7.920   1.083   7.173 -0.1630 -0.7931  0.1053
  931MOL0     C28349   7.998   1.040   7.294 -0.4200 -1.3672 -0.7247
  931MOL0     C28350   7.899   0.969   7.391 -0.4542 -0.7717  0.4005
  931MOL0     C28351   7.951   0.975   7.537 -0.4159 -0.3764 -0.3632
  931MOL0     C28352   7.834   0.930   7.626  0.2718 -0.5147  0.1943
  931MOL0     C28353   7.751   1.051   7.673 -0.6739  0.4959  0.3606
  931MOL0     C28354   7.684   1.005   7.803  0.3893 -0.1511 -0.3652
  931MOL0     C28355   7.630   1.131   7.872  0.1027 -0.0614 -0.1357
  931MOL0     C28356   7.492   1.164   7.831 -0.3813 -0.8722 -0.0445
  931MOL0     N28357   7.441   1.278   7.902  0.2429  0.4500 -0.2825
  931MOL0     C28358   7.328   1.347   7.877  0.7287  1.0600  0.0475
  931MOL0     C28359   7.318   1.451   7.958  0.2189 -0.4493 -0.3015
  931MOL0     C28360   7.204   1.554   7.954  0.3027  1.0163 -0.3554
  931MOL0     C28361   7.263   1.695   7.949 -0.1188 -0.5012  0.0036
  931MOL0     C28362   7.168   1.797   7.889 -0.3459 -0.1320  0.3954
  931MOL0     C28363   7.210   1.944   7.897 -0.1341  0.6338  0.4082
  931MOL0     O28364   7.094   2.029   7.871 -0.2668 -0.1745  0.3296
  931MOL0     C28365   7.101   2.165   7.879  0.7506 -0.1924  0.1121
  931MOL0     C28366   7.211   2.256   7.895  1.0929  1.1965 -0.0176
  931MOL0     C28367   7.192   2.393   7.892  0.4123  0.1029 -0.2697
  931MOL0     C28368   7.326   2.476   7.891  0.5614  0.2187  0.1291
  931MOL0     C28369   7.066   2.452   7.880  1.2473 -0.9445  0.0020
  931MOL0     C28370   7.042   2.597   7.887  0.2146  0.2156  0.7656
  931MOL0     O28371   6.914   2.631   7.927 -0.9744 -0.1132  0.1433
  931MOL0     C28372   6.862   2.754   7.909 -0.4051  0.2664 -0.5351
  931MOL0     C28373   6.874   2.815   7.790 -0.3211  0.4440 -0.2334
  931MOL0     C28374   6.823   2.945   7.764 -1.0229  0.7596  0.4141
  931MOL0     C28375   6.744   3.003   7.861  0.0579  0.0500  0.6407
  931MOL0     O28376   6.682   3.128   7.835 -0.4914  0.6123 -0.3841
  931MOL0     C28377   6.769   3.240   7.841  0.3487 -0.7917  0.5267
  931MOL0     C28378   6.687   3.356   7.894  0.1137  0.4791  0.2676
  931MOL0     C28379   6.760   3.492   7.925 -0.0457  0.5793  0.3413
  931MOL0     C28380   6.662   3.595   7.978 -0.5278  0.4418 -0.2159
  931MOL0     C28381   6.724   3.732   8.004  0.6202  0.2272  1.3072
  931MOL0     C28382   6.702   3.818   7.880  0.0417  0.4475  1.4355
  931MOL0     C28383   6.771   3.953   7.908 -0.3190  0.1014  0.1412
  931MOL0     C28384   6.816   4.036   7.785  1.4326 -0.0227 -0.0060
  931MOL0    Cl28385   6.674   4.102   7.696  0.3291 -0.1569  0.4521
  931MOL0     C28386   6.718   2.923   7.974  0.4058  0.0921  0.2505
  931MOL0     C28387   6.774   2.805   8.001  0.3153 -0.1728 -1.4813
  931MOL0     O28388   7.134   2.676   7.858 -0.4120 -0.2106  0.3532
  931MOL0     C28389   6.959   2.367   7.860 -0.2606 -0.1492  0.6804
  931MOL0     C28390   6.977   2.225   7.850 -0.0214 -0.0349 -0.4125
  931MOL0     N28391   7.430   1.449   8.041  0.1213  0.0796  0.2706
  931MOL0     N28392   7.491   1.340   8.016  0.6183  0.4124  0.1325
  931MOL0     C28393   8.140   1.156   7.073 -0.8156  0.0652 -0.5224
  931MOL0     C28394   8.204   1.207   6.956  0.0163  0.9213 -0.1488
  931MOL0     C28395   8.374   1.479   6.695  0.6613  0.3876 -0.1480
  931MOL0     C28396   8.408   1.610   6.702  0.1160 -0.3000 -0.3580
  931MOL0     C28397   8.537   1.650   6.675 -0.9780  0.2889  0.3977
  931MOL0     C28398   8.621   1.574   6.586  0.1539 -0.3026  0.8594
  931MOL0     O28399   8.731   1.627   6.522 -0.2732  0.0660  0.3419
  931MOL0     C28400   8.754   1.768   6.526  0.4008 -0.0047 -0.3751
  931MOL0     C28401   8.652   1.837   6.433 -0.0442 -0.2682 -0.0817
  931MOL0     C28402   8.627   1.781   6.292 -0.4413 -0.2108 -0.2681
  931MOL0     C28403   8.741   1.836   6.205  0.0906 -0.1424 -0.4836
  931MOL0     C28404   8.745   1.759   6.084  0.3626 -0.0379  0.9400
  931MOL0     C28405   8.771   1.692   5.993  0.7390  0.2689 -0.2470
  931MOL0     C28406   8.576   1.448   6.556  0.1289 -0.1463 -1.0595
  931MOL0     C28407   8.458   1.392   6.613 -0.5275 -0.1436  0.2249
  931MOL0     C28408   8.421   1.246   6.573 -0.5367 -0.2288 -0.2095
  931MOL0     H28409   7.950   1.313   6.771  0.2676  1.8042 -0.4762
  931MOL0     H28410   7.818   1.201   6.974  0.3991  2.7378  1.8130
  931MOL0     H28411   8.038   1.122   7.355 -1.0288 -1.6575  0.0729
  931MOL0     H28412   8.076   0.970   7.264 -0.4343 -1.0718 -1.5007
  931MOL0     H28413   7.799   1.013   7.389  0.3462  1.2384  1.4077
  931MOL0     H28414   7.900   0.862   7.367  0.4999 -0.6083 -0.3403
  931MOL0     H28415   8.037   0.907   7.529 -0.5551 -0.3253 -2.8159
  931MOL0     H28416   7.982   1.075   7.568 -2.7520  0.5294 -0.7802
  931MOL0     H28417   7.769   0.865   7.568 -0.3537  0.1744  0.1091
  931MOL0     H28418   7.868   0.876   7.715 -0.4124 -0.5034  0.4680
  931MOL0     H28419   7.690   1.092   7.592 -1.4396 -0.7659  0.2879
  931MOL0     H28420   7.830   1.122   7.700  0.6391  0.1279 -2.1560
  931MOL0     H28421   7.614   0.924   7.780 -1.3763  2.1575 -4.0886
  931MOL0     H28422   7.762   0.965   7.868  0.0408 -0.1009  0.0904
  931MOL0     H28423   7.693   1.216   7.845 -1.4727  1.7660  1.6838
  931MOL0     H28424   7.636   1.115   7.980 -1.0513 -1.5753 -0.2621
  931MOL0     H28425   7.490   1.188   7.725  3.3339 -0.5103 -0.1481
  931MOL0     H28426   7.421   1.080   7.841 -1.5603  0.1068  0.0214
  931MOL0     H28427   7.250   1.307   7.814  0.0355  4.4809 -1.5231
  931MOL0     H28428   7.135   1.542   8.038  3.1090  0.5263  2.0447
  931MOL0     H28429   7.159   1.519   7.860  1.1216 -2.6218  0.4235
  931MOL0     H28430   7.291   1.720   8.051  2.0423 -0.0418 -0.6520
  931MOL0     H28431   7.354   1.692   7.888  1.3738 -0.3445  2.1133
  931MOL0     H28432   7.131   1.770   7.790  2.6583  1.5108 -1.3337
  931MOL0     H28433   7.078   1.781   7.949 -1.3416  1.0897 -0.7298
  931MOL0     H28434   7.246   1.968   7.997  2.1463 -1.7612  0.2652
  931MOL0     H28435   7.293   1.946   7.826 -0.6994 -0.3703 -0.3151
  931MOL0     H28436   7.308   2.209   7.904  0.0437 -1.8449 -2.7235
  931MOL0     H28437   7.339   2.527   7.795  2.7219 -1.6829 -0.6895
  931MOL0     H28438   7.415   2.423   7.925  0.0617  0.6756  2.3019
  931MOL0     H28439   7.311   2.541   7.978 -3.2165 -1.1846  0.7003
  931MOL0     H28440   6.922   2.769   7.703 -0.3600 -0.0685  0.0089
  931MOL0     H28441   6.824   2.999   7.670 -3.4848  1.4557  0.7083
  931MOL0     H28442   6.851   3.218   7.911 -0.8267  1.1004  2.6330
  931MOL0     H28443   6.811   3.259   7.742  0.2511 -2.2019  0.2006
  931MOL0     H28444   6.615   3.389   7.819  1.4683  1.8832 -0.4703
  931MOL0     H28445   6.639   3.317   7.985  1.0924 -1.4030  0.0318
  931MOL0     H28446   6.804   3.533   7.834 -1.5736  0.8524 -0.2977
  931MOL0     H28447   6.846   3.480   7.991  2.0102 -1.6024 -2.4616
  931MOL0     H28448   6.617   3.553   8.068 -1.4141  0.5154 -0.6071
  931MOL0     H28449   6.583   3.608   7.903  0.0376 -0.9401 -1.0849
  931MOL0     H28450   6.675   3.783   8.088  0.2387  1.8849  0.1331
  931MOL0     H28451   6.829   3.718   8.030  0.3879 -1.4238  1.4600
  931MOL0     H28452   6.593   3.830   7.879 -0.1702 -0.5260  4.2519
  931MOL0     H28453   6.746   3.769   7.792 -1.9965  0.5812  0.2483
  931MOL0     H28454   6.860   3.933   7.968  1.2350  0.3397 -1.9769
  931MOL0     H28455   6.714   4.015   7.979 -0.5747 -3.1670  3.0610
  931MOL0     H28456   6.880   3.983   7.714  1.7856  1.2631 -0.6904
  931MOL0     H28457   6.880   4.116   7.825  2.4740 -1.9738  2.5078
  931MOL0     H28458   6.650   2.976   8.041  2.0635  2.1219  0.4418
  931MOL0     H28459   6.750   2.757   8.095 -0.1493  0.1242 -1.4494
  931MOL0     H28460   6.861   2.405   7.833  0.7645  2.0761 -0.0943
  931MOL0     H28461   6.892   2.165   7.821 -0.3714 -0.6541  1.7123
  931MOL0     H28462   8.185   1.100   7.155 -2.1827 -1.9027 -1.0561
  931MOL0     H28463   8.310   1.196   6.936 -0.3500  2.4035 -3.4884
  931MOL0     H28464   8.352   1.679   6.765  0.1145  0.2231 -0.9235
  931MOL0     H28465   8.569   1.748   6.709 -3.2422  1.5273 -0.8133
  931MOL0     H28466   8.763   1.817   6.623 -3.2352  0.5144 -0.1715
  931MOL0     H28467   8.851   1.778   6.477  1.2876 -2.3606  0.7477
  931MOL0     H28468   8.702   1.933   6.420  4.2702 -2.2783 -0.0056
  931MOL0     H28469   8.551   1.840   6.475  0.5806 -0.4193  1.5048
  931MOL0     H28470   8.634   1.673   6.310  1.0737  0.5302  5.8503
  931MOL0     H28471   8.532   1.815   6.250 -1.1144 -2.0608 -0.3551
  931MOL0     H28472   8.832   1.836   6.265  1.3718  1.9022 -2.2702
  931MOL0     H28473   8.722   1.940   6.176 -1.5406 -0.2082  0.2391
  931MOL0     H28474   8.785   1.627   5.910 -0.7664  0.7954 -0.9498
  931MOL0     H28475   8.642   1.395   6.488 -0.3572  0.0715 -1.7016
  931MOL0     H28476   8.514   1.201   6.539 -1.1920 -1.1515 -0.8280
  931MOL0     H28477   8.375   1.189   6.654 -4.8407  3.3928  0.3149
  931MOL0     H28478   8.353   1.237   6.487 -1.8781  1.3573  0.6256
  932MOL0     O28479   1.442   6.787   8.782  0.3932 -0.8447  0.0430
  932MOL0     C28480   1.493   6.877   8.720 -1.0739  0.2374 -0.2078
  932MOL0     O28481   1.430   6.977   8.651 -0.0110 -0.0204 -0.0228
  932MOL0     C28482   1.294   6.990   8.666  0.0268 -0.0900  0.1411
  932MOL0     C28483   1.203   6.898   8.620  0.1734  0.5160 -0.2660
  932MOL0     C28484   1.067   6.913   8.642 -0.3516  0.3429 -0.1407
  932MOL0     C28485   1.009   7.034   8.697  0.3639  1.0616 -0.2461
  932MOL0     O28486   0.879   7.050   8.739 -0.9544 -0.0100  0.3882
  932MOL0     C28487   0.769   6.962   8.703 -0.3723 -0.1615  0.1151
  932MOL0     C28488   0.628   7.029   8.714 -0.0598 -0.7500  1.0099
  932MOL0     C28489   0.577   7.080   8.573 -0.9855 -0.1903 -0.2028
  932MOL0     C28490   0.642   7.216   8.522  0.3244 -0.2607 -0.8255
  932MOL0     C28491   0.588   7.260   8.379 -0.0182  0.9500  0.0607
  932MOL0     C28492   0.652   7.187   8.262  0.1335 -0.3552  0.2291
  932MOL0     C28493   0.589   7.245   8.128  0.2788 -0.4210  0.0108
  932MOL0     C28494   0.635   7.162   8.008  0.3723 -0.2867 -0.0391
  932MOL0     N28495   0.771   7.167   7.974 -0.2880 -0.6868  1.1896
  932MOL0     C28496   0.855   7.060   7.931 -0.5118 -0.4749 -0.6047
  932MOL0     C28497   0.964   7.125   7.881 -0.1944 -0.6925  0.7881
  932MOL0     C28498   1.080   7.049   7.814  0.1752 -0.0806  0.8075
  932MOL0     C28499   1.042   6.997   7.670  0.0141 -0.8832 -0.1995
  932MOL0     C28500   1.012   7.110   7.570 -0.9054 -0.6651  0.2134
  932MOL0     C28501   0.974   7.056   7.432 -0.4376 -0.2380  0.2004
  932MOL0     O28502   0.920   7.168   7.356 -0.6422  0.5923 -1.0129
  932MOL0     C28503   0.951   7.186   7.221 -0.2185  0.6827  0.2308
  932MOL0     C28504   0.982   7.311   7.165 -0.3877 -0.6491 -0.5130
  932MOL0     C28505   1.023   7.324   7.037  0.1463  0.2295 -0.5794
  932MOL0     C28506   1.047   7.463   6.997  0.5902 -0.1349  0.3565
  932MOL0     C28507   1.032   7.217   6.944 -0.8833 -0.0282  0.7823
  932MOL0     C28508   1.075   7.225   6.801  0.2312 -0.1612 -0.3315
  932MOL0     O28509   1.121   7.116   6.744 -0.2898 -0.2067 -0.4208
  932MOL0     C28510   1.174   7.109   6.620  0.4195 -0.0266  0.5648
  932MOL0     C28511   1.247   7.213   6.561 -0.6593 -0.1163 -0.5447
  932MOL0     C28512   1.285   7.210   6.423  0.2728  0.8946 -0.0396
  932MOL0     C28513   1.253   7.091   6.349 -0.4812  0.0964  0.3362
  932MOL0     O28514   1.281   7.098   6.212  0.4379  0.2391 -0.1449
  932MOL0     C28515   1.406   7.034   6.171  0.0221 -0.1343  0.3358
  932MOL0     C28516   1.521   7.137   6.174  0.8173  0.9952  0.1011
  932MOL0     C28517   1.636   7.080   6.087 -1.1282 -0.9841  0.6230
  932MOL0     C28518   1.768   7.106   6.157 -0.4655  0.0181  0.0409
  932MOL0     C28519   1.877   7.151   6.062  0.6463  0.1463  0.2528
  932MOL0     C28520   1.859   7.304   6.041 -0.2927 -0.5568  0.2232
  932MOL0     C28521   1.940   7.354   5.913  0.8601  0.4967 -0.5454
  932MOL0     C28522   2.089   7.358   5.939 -0.6132  0.3237 -0.2402
  932MOL0    Cl28523   2.181   7.400   5.782  0.0215  0.3682 -0.3945
  932MOL0     C28524   1.192   6.983   6.408  0.0448  0.2380  0.5074
  932MOL0     C28525   1.155   6.995   6.549  0.3950  0.1614  0.3717
  932MOL0     O28526   1.052   7.328   6.741 -0.1936 -0.8686  0.1274
  932MOL0     C28527   1.006   7.092   6.998 -0.6337 -0.2707 -0.1445
  932MOL0     C28528   0.970   7.077   7.135 -0.2611 -0.0362  0.0247
  932MOL0     N28529   0.940   7.262   7.892  0.3889 -0.1248 -0.1916
  932MOL0     N28530   0.822   7.278   7.932 -0.4239 -0.1081 -0.7509
  932MOL0     C28531   1.102   7.127   8.738  0.1517 -0.2051  0.4908
  932MOL0     C28532   1.241   7.104   8.722  0.8125 -0.7543  0.5863
  932MOL0     C28533   1.634   6.848   8.691 -1.6567 -0.8377 -0.4465
  932MOL0     C28534   1.695   6.922   8.585 -0.0259  0.3659 -0.2394
  932MOL0     C28535   1.824   6.907   8.555  0.1678  0.7663 -0.4590
  932MOL0     C28536   1.909   6.823   8.629  0.1285  0.1709 -0.6325
  932MOL0     O28537   2.042   6.819   8.600  0.1419  0.0106  0.3904
  932MOL0     C28538   2.120   6.701   8.627  0.5146 -0.3341  0.4086
  932MOL0     C28539   2.233   6.688   8.521 -0.1804  0.2676 -0.6401
  932MOL0     C28540   2.295   6.554   8.534  0.3390  0.3994  0.0035
  932MOL0     C28541   2.389   6.537   8.420 -0.0688  0.9071 -0.3117
  932MOL0     C28542   2.491   6.424   8.436 -0.0319  0.1346 -0.6966
  932MOL0     C28543   2.563   6.336   8.452  0.3024 -0.0009  0.2963
  932MOL0     C28544   1.854   6.749   8.735 -0.4593  0.1185  0.6281
  932MOL0     C28545   1.720   6.756   8.766 -1.4072  0.5689 -1.1935
  932MOL0     C28546   1.682   6.673   8.886 -0.0080  0.2896  0.0516
  932MOL0     H28547   1.252   6.816   8.568  0.3082  2.1421 -2.9003
  932MOL0     H28548   1.000   6.832   8.613  0.9443 -2.2860  3.4656
  932MOL0     H28549   0.773   6.882   8.777 -0.4827  0.6076  0.9770
  932MOL0     H28550   0.794   6.926   8.602  0.5158 -0.2782  0.3675
  932MOL0     H28551   0.563   6.947   8.745  0.1010 -0.6537  1.6302
  932MOL0     H28552   0.628   7.113   8.785  0.0314  0.2731 -0.1777
  932MOL0     H28553   0.589   7.008   8.492  1.2248 -0.4713  0.3088
  932MOL0     H28554   0.470   7.101   8.587 -1.5012 -0.7677 -2.7763
  932MOL0     H28555   0.614   7.289   8.599  0.9372 -0.3301 -0.5289
  932MOL0     H28556   0.752   7.211   8.526  0.4817  2.1858 -0.3549
  932MOL0     H28557   0.601   7.367   8.359 -0.9106  0.4004 -4.5370
  932MOL0     H28558   0.480   7.243   8.378  0.0293  0.6221  0.4619
  932MOL0     H28559   0.760   7.203   8.266 -0.2198  2.3941  0.4019
  932MOL0     H28560   0.627   7.081   8.262 -2.8914  0.2264 -2.1937
  932MOL0     H28561   0.612   7.352   8.121 -1.1249  0.0147  1.6046
  932MOL0     H28562   0.481   7.234   8.140 -0.0550 -2.7116 -3.5537
  932MOL0     H28563   0.608   7.057   8.022  1.9722 -1.0620 -2.1872
  932MOL0     H28564   0.580   7.197   7.920  0.1835 -2.0446 -0.6655
  932MOL0     H28565   0.860   6.954   7.954  3.6806 -0.1273  1.0569
  932MOL0     H28566   1.112   6.966   7.877 -0.0254 -0.9074 -0.1582
  932MOL0     H28567   1.163   7.121   7.810  0.0772 -0.0182 -1.4162
  932MOL0     H28568   1.131   6.940   7.642  0.9994 -0.1546  1.3195
  932MOL0     H28569   0.963   6.922   7.678  1.8972 -3.1042 -1.0014
  932MOL0     H28570   0.935   7.174   7.613 -0.9161  2.2652 -3.6525
  932MOL0     H28571   1.101   7.173   7.564 -0.7144 -0.8581  0.9086
  932MOL0     H28572   1.058   7.007   7.382 -0.6568 -0.0737 -0.3449
  932MOL0     H28573   0.896   6.981   7.450 -0.1122  0.1999  4.4685
  932MOL0     H28574   0.974   7.404   7.222  2.3427 -1.1642  0.8656
  932MOL0     H28575   1.153   7.469   6.971  0.9316 -0.4050  1.5911
  932MOL0     H28576   1.036   7.527   7.085  0.1837  1.5114 -0.8622
  932MOL0     H28577   0.985   7.487   6.911  1.8203 -4.5468 -2.0798
  932MOL0     H28578   1.272   7.300   6.621 -0.0861  0.4558 -1.5918
  932MOL0     H28579   1.336   7.298   6.387 -1.0854  1.8187  0.2469
  932MOL0     H28580   1.430   6.950   6.237  0.1396 -0.8436 -0.5936
  932MOL0     H28581   1.397   6.987   6.073  4.5742 -1.2394  0.2419
  932MOL0     H28582   1.482   7.228   6.127 -0.3521  0.4939  0.0611
  932MOL0     H28583   1.535   7.149   6.282  0.3861  0.7560  0.1845
  932MOL0     H28584   1.636   7.128   5.989 -3.4504 -0.4812  0.8032
  932MOL0     H28585   1.638   6.972   6.072 -0.1740 -1.1892  2.0358
  932MOL0     H28586   1.793   7.009   6.200  2.5929  0.6742 -0.0046
  932MOL0     H28587   1.754   7.173   6.243 -0.7821 -0.2037  0.1628
  932MOL0     H28588   1.973   7.115   6.100  0.3305 -0.5690  0.4030
  932MOL0     H28589   1.862   7.106   5.964 -2.4982 -1.6877  1.4145
  932MOL0     H28590   1.887   7.366   6.127  4.0442  2.1539 -2.7446
  932MOL0     H28591   1.753   7.318   6.018 -0.3113 -2.3523 -0.9249
  932MOL0     H28592   1.905   7.456   5.893  0.8690  0.0239 -3.3165
  932MOL0     H28593   1.919   7.293   5.825 -2.2449 -1.7880  1.5902
  932MOL0     H28594   2.113   7.256   5.969 -0.7677 -1.0768 -4.3322
  932MOL0     H28595   2.120   7.439   6.006  2.4000  0.6083 -1.8215
  932MOL0     H28596   1.150   6.900   6.352 -1.7431  2.0195 -0.9826
  932MOL0     H28597   1.088   6.918   6.587 -0.2236  0.3623 -0.3033
  932MOL0     H28598   1.015   7.007   6.931  0.9964  0.3906 -0.8201
  932MOL0     H28599   0.942   6.986   7.187 -1.1270  0.4703  0.4597
  932MOL0     H28600   1.061   7.210   8.794  0.7474 -1.0874  2.3131
  932MOL0     H28601   1.312   7.184   8.742 -0.3303  0.3295  0.4112
  932MOL0     H28602   1.644   6.994   8.521 -2.9203 -2.6254 -1.6487
  932MOL0     H28603   1.868   6.972   8.480  1.5957  1.3960  0.8634
  932MOL0     H28604   2.166   6.711   8.725 -2.6693  3.4828  1.7893
  932MOL0     H28605   2.059   6.610   8.626 -1.3578  0.7238 -3.5979
  932MOL0     H28606   2.305   6.770   8.522 -2.7143  2.6470 -0.1446
  932MOL0     H28607   2.182   6.685   8.424  1.4112  2.5059 -1.6317
  932MOL0     H28608   2.347   6.538   8.629 -1.3890  3.7104  1.6829
  932MOL0     H28609   2.218   6.477   8.523 -1.1023  1.9217 -1.1182
  932MOL0     H28610   2.444   6.623   8.382 -0.0260  1.2231  0.4595
  932MOL0     H28611   2.316   6.517   8.340 -0.3754  4.2850 -1.0312
  932MOL0     H28612   2.647   6.271   8.458  3.3993  3.7388  1.9985
  932MOL0     H28613   1.916   6.678   8.788  2.7561  1.6130 -0.8986
  932MOL0     H28614   1.759   6.600   8.916  1.7691  2.1263  0.1730
  932MOL0     H28615   1.659   6.741   8.969  2.2317  1.6495 -0.3656
  932MOL0     H28616   1.592   6.619   8.855  0.1926  2.2682 -4.8471
  933MOL0     O28617   0.250   7.479   2.413 -0.3628  1.0882  0.1514
  933MOL0     C28618   0.142   7.476   2.468 -0.7803 -0.4862  0.2443
  933MOL0     O28619   0.075   7.589   2.505  0.6865  0.3653  0.6065
  933MOL0     C28620   0.112   7.715   2.451  0.0809  0.0151  0.8509
  933MOL0     C28621   0.192   7.796   2.532  0.0085  0.2436 -0.1245
  933MOL0     C28622   0.227   7.925   2.479 -0.2427 -0.2909 -1.3001
  933MOL0     C28623   0.194   7.961   2.351  0.1743  1.3609 -0.7889
  933MOL0     O28624   0.232   8.081   2.291  0.4971 -0.1927 -0.0095
  933MOL0     C28625   0.191   8.202   2.357  0.0215  0.7002  0.3671
  933MOL0     C28626   0.251   8.316   2.270 -0.4290  0.7472 -0.1458
  933MOL0     C28627   0.403   8.337   2.288  0.3877  0.6248 -0.4360
  933MOL0     C28628   0.448   8.374   2.428 -0.1059 -0.1130  0.2891
  933MOL0     C28629   0.588   8.455   2.422  0.1010  0.5211  0.7355
  933MOL0     C28630   0.639   8.482   2.563  0.1195  0.2112 -0.2261
  933MOL0     C28631   0.784   8.517   2.557  0.2225 -0.6594 -0.3707
  933MOL0     C28632   0.805   8.643   2.627  0.2589 -0.1823 -0.3852
  933MOL0     N28633   0.945   8.690   2.610 -0.1858 -0.8087  0.1463
  933MOL0     C28634   1.022   8.697   2.496  0.6725 -0.4007  0.7623
  933MOL0     C28635   1.140   8.760   2.538 -0.1491  0.9113 -0.5572
  933MOL0     C28636   1.269   8.788   2.461  0.0368 -0.0791  0.1589
  933MOL0     C28637   1.247   8.904   2.366 -0.4288  0.4057  0.8773
  933MOL0     C28638   1.371   8.993   2.354 -0.2893  0.8838  0.1816
  933MOL0     C28639   1.356   9.094   2.233  1.3107 -0.4613 -0.6659
  933MOL0     O28640   1.468   9.166   2.213  0.0750  0.1258  0.0671
  933MOL0     C28641   1.453   9.300   2.168 -0.2579 -0.1854 -0.7231
  933MOL0     C28642   1.360   9.327   2.075 -0.0516  0.4073 -0.3353
  933MOL0     C28643   1.351   9.448   2.015  1.4197 -0.1555 -0.2281
  933MOL0     C28644   1.222   9.469   1.934 -0.9118  0.0794 -0.2417
  933MOL0     C28645   1.431   9.560   2.051 -0.2542 -1.0568 -0.1695
  933MOL0     C28646   1.421   9.703   2.003  0.5297 -0.3716 -0.3327
  933MOL0     O28647   1.300   9.758   1.980  0.3868 -0.8157 -0.4127
  933MOL0     C28648   1.297   9.883   1.923  0.1867 -0.3530  0.0244
  933MOL0     C28649   1.259   9.997   1.986  1.2037 -0.0441  0.1118
  933MOL0     C28650   1.251  10.119   1.916 -0.6045  0.3501  0.1522
  933MOL0     C28651   1.289  10.124   1.780  0.3272 -0.0425 -0.4576
  933MOL0     O28652   1.306  10.234   1.708 -0.5739 -0.5442  0.3001
  933MOL0     C28653   1.289  10.360   1.784  1.5085 -0.1819 -1.1789
  933MOL0     C28654   1.330  10.475   1.689  0.0639  0.6138 -0.9065
  933MOL0     C28655   1.376  10.609   1.765  0.0223  0.3109 -0.1753
  933MOL0     C28656   1.255  10.668   1.841  0.5849 -0.0876 -0.5920
  933MOL0     C28657   1.136  10.714   1.770 -0.0148  0.1917  1.0860
  933MOL0     C28658   1.007  10.708   1.856  0.7015 -0.2121 -0.1905
  933MOL0     C28659   0.902  10.806   1.788 -0.2249  1.1176 -0.8722
  933MOL0     C28660   0.849  10.774   1.642 -0.6115 -0.3785  1.0362
  933MOL0    Cl28661   0.860  10.608   1.575  1.1327 -0.0641 -0.0135
  933MOL0     C28662   1.342  10.010   1.720 -0.6884  0.0084 -0.4803
  933MOL0     C28663   1.348   9.896   1.790  0.2027  0.6155  0.1582
  933MOL0     O28664   1.531   9.762   1.982 -0.9508 -0.2351 -1.0113
  933MOL0     C28665   1.531   9.536   2.146 -0.1613  0.0166  0.0707
  933MOL0     C28666   1.543   9.410   2.202  0.4820 -0.2355 -0.0957
  933MOL0     N28667   1.136   8.791   2.671  0.2853 -0.1081  0.6165
  933MOL0     N28668   1.018   8.747   2.711  0.1669  0.2689  0.1117
  933MOL0     C28669   0.125   7.873   2.267 -0.0994 -0.3186  0.3380
  933MOL0     C28670   0.082   7.751   2.321  0.0075  0.0123  0.2986
  933MOL0     C28671   0.073   7.344   2.483  0.6167 -0.4321  0.0755
  933MOL0     C28672   0.160   7.237   2.515 -1.6055 -1.1507 -0.4521
  933MOL0     C28673   0.107   7.110   2.539  0.2155 -0.4677 -0.3914
  933MOL0     C28674  -0.033   7.085   2.536 -0.1484 -0.3542  0.8513
  933MOL0     O28675  -0.079   6.960   2.561  0.2904  0.4405  0.2593
  933MOL0     C28676  -0.091   6.883   2.438  0.1102 -0.2636 -0.1616
  933MOL0     C28677   0.029   6.790   2.430 -0.4181  0.0533  0.3626
  933MOL0     C28678  -0.008   6.654   2.367 -0.1405  0.2247 -0.0608
  933MOL0     C28679  -0.049   6.662   2.225  0.1656  0.0190  1.4565
  933MOL0     C28680  -0.085   6.532   2.169 -0.2498  0.3645 -0.3113
  933MOL0     C28681  -0.110   6.429   2.114 -0.5007 -0.1034 -0.1052
  933MOL0     C28682  -0.109   7.194   2.523  0.4329  0.1028 -0.0511
  933MOL0     C28683  -0.064   7.324   2.497  1.1515  0.1748  0.8907
  933MOL0     C28684  -0.163   7.438   2.486 -0.5974 -0.3183  0.1351
  933MOL0     H28685   0.226   7.751   2.624 -1.4591 -2.5410 -0.8297
  933MOL0     H28686   0.294   7.995   2.528 -0.1115 -0.5271 -1.1412
  933MOL0     H28687   0.215   8.214   2.463  0.6178  0.4935  0.2561
  933MOL0     H28688   0.082   8.211   2.362 -0.3163 -0.3152 -2.8967
  933MOL0     H28689   0.233   8.274   2.171 -0.2910 -3.5958  1.4788
  933MOL0     H28690   0.197   8.411   2.282 -1.1919  0.9288 -3.8829
  933MOL0     H28691   0.454   8.246   2.254 -4.7166 -2.8581  0.2583
  933MOL0     H28692   0.429   8.422   2.223 -2.4390  1.0238 -1.1512
  933MOL0     H28693   0.369   8.440   2.466 -1.5025 -0.8248 -1.2523
  933MOL0     H28694   0.459   8.303   2.511  3.0497  0.1774  0.2395
  933MOL0     H28695   0.584   8.547   2.364 -0.6123 -1.1113 -1.9604
  933MOL0     H28696   0.656   8.387   2.370  0.4882  1.9801 -0.7219
  933MOL0     H28697   0.573   8.555   2.611 -2.7787 -1.4273 -1.4757
  933MOL0     H28698   0.629   8.386   2.614  2.3863  0.2902  0.4698
  933MOL0     H28699   0.819   8.526   2.454 -1.8779  0.6383 -1.0330
  933MOL0     H28700   0.840   8.437   2.606  0.0978  0.8444  2.4623
  933MOL0     H28701   0.738   8.726   2.604  4.2604  3.7060  0.6514
  933MOL0     H28702   0.799   8.628   2.735  1.8008 -0.0379 -0.2644
  933MOL0     H28703   1.015   8.658   2.395  2.9174  0.3083  0.2691
  933MOL0     H28704   1.296   8.695   2.410  2.6780  1.2262 -0.9831
  933MOL0     H28705   1.356   8.802   2.525  1.2039  2.1496 -1.7515
  933MOL0     H28706   1.196   8.869   2.275 -2.6986 -0.0486  2.2552
  933MOL0     H28707   1.167   8.975   2.390 -1.3563 -0.4095  0.3440
  933MOL0     H28708   1.366   9.050   2.447 -1.4355  2.6051 -0.8765
  933MOL0     H28709   1.457   8.926   2.345 -0.9058 -0.2097  2.0746
  933MOL0     H28710   1.341   9.033   2.143  0.4186 -1.5924  0.2047
  933MOL0     H28711   1.271   9.157   2.261  0.5883 -2.0650  0.9899
  933MOL0     H28712   1.298   9.248   2.035  0.4732  1.1070 -2.6420
  933MOL0     H28713   1.143   9.498   2.003 -0.2841 -0.3186  0.6685
  933MOL0     H28714   1.190   9.381   1.877 -0.4676  0.3022 -0.8519
  933MOL0     H28715   1.237   9.548   1.859 -0.9184 -1.7358 -2.2496
  933MOL0     H28716   1.217   9.992   2.086  0.7015  0.6776 -0.0501
  933MOL0     H28717   1.234  10.210   1.972 -2.6105  2.7673 -3.9372
  933MOL0     H28718   1.189  10.374   1.824  3.2481  1.2972  3.2674
  933MOL0     H28719   1.345  10.361   1.878 -2.8619  1.3481  1.7175
  933MOL0     H28720   1.415  10.441   1.629  1.8044 -0.3128  1.8896
  933MOL0     H28721   1.245  10.483   1.621 -3.0956  0.8897  2.7422
  933MOL0     H28722   1.410  10.680   1.689  0.4231  0.6238  0.2908
  933MOL0     H28723   1.466  10.590   1.824 -1.7077  1.6688  3.1286
  933MOL0     H28724   1.290  10.750   1.903 -0.2035  0.0817 -0.3572
  933MOL0     H28725   1.212  10.596   1.911  0.9170  0.1509 -0.1426
  933MOL0     H28726   1.155  10.813   1.729 -2.2827  0.8494  1.5051
  933MOL0     H28727   1.121  10.654   1.680 -2.4184  1.9894  0.1878
  933MOL0     H28728   1.015  10.739   1.960 -2.4417  0.9816 -0.1857
  933MOL0     H28729   0.972  10.604   1.860  0.2182 -0.0677 -0.5460
  933MOL0     H28730   0.949  10.904   1.799  1.3092  0.3789 -0.5112
  933MOL0     H28731   0.809  10.798   1.845  0.9335  2.1756  1.2946
  933MOL0     H28732   0.913  10.836   1.578  0.7643  0.4494  3.1092
  933MOL0     H28733   0.749  10.815   1.626 -0.0436  0.3016 -1.0322
  933MOL0     H28734   1.368  10.009   1.615 -0.4993 -3.0780 -0.4952
  933MOL0     H28735   1.383   9.812   1.731  0.0329 -0.2924  1.3219
  933MOL0     H28736   1.600   9.611   2.182  0.8202 -1.3504  1.1834
  933MOL0     H28737   1.619   9.400   2.279  2.0324  1.8996 -1.2416
  933MOL0     H28738   0.108   7.893   2.161  0.4010 -0.0655  0.3044
  933MOL0     H28739   0.024   7.677   2.267  0.8588 -0.7073  0.3519
  933MOL0     H28740   0.267   7.255   2.519 -1.5898 -0.7199 -2.0214
  933MOL0     H28741   0.179   7.032   2.560  2.3540  1.8848  1.7317
  933MOL0     H28742  -0.182   6.824   2.453 -0.7028  0.6060 -1.4669
  933MOL0     H28743  -0.100   6.927   2.338 -1.2310  1.7234  0.7898
  933MOL0     H28744   0.071   6.785   2.531 -1.6589  0.2775  0.9091
  933MOL0     H28745   0.111   6.829   2.369 -0.6835  0.6923  0.4002
  933MOL0     H28746   0.081   6.591   2.368  0.5183  0.6600 -5.3891
  933MOL0     H28747  -0.091   6.620   2.430  0.4371 -2.5723 -0.7170
  933MOL0     H28748   0.035   6.697   2.163 -1.1592 -1.0290 -1.0781
  933MOL0     H28749  -0.132   6.731   2.209  1.1440  0.7013 -1.1640
  933MOL0     H28750  -0.134   6.341   2.059 -0.6202  1.0678 -2.0155
  933MOL0     H28751  -0.216   7.181   2.534  0.7737 -0.9209  3.2937
  933MOL0     H28752  -0.161   7.482   2.586  1.6272  0.4292 -0.1684
  933MOL0     H28753  -0.133   7.513   2.412 -3.6937 -1.3526 -2.3539
  933MOL0     H28754  -0.263   7.401   2.467 -0.7275 -0.2663  0.6944
  934MOL0     O28755   8.328  10.464   5.463 -0.4137  0.0055  0.0861
  934MOL0     C28756   8.292  10.538   5.368 -0.5424  1.1862 -0.8946
  934MOL0     O28757   8.198  10.631   5.372 -1.0596  0.0998  0.7287
  934MOL0     C28758   8.158  10.677   5.500 -0.7014  0.1878 -0.0671
  934MOL0     C28759   8.254  10.741   5.590  0.1898  0.7371  1.0262
  934MOL0     C28760   8.210  10.803   5.707  0.6119 -0.1220  0.2237
  934MOL0     C28761   8.080  10.783   5.751 -0.1878  0.7547 -0.1248
  934MOL0     O28762   8.059  10.819   5.877  0.5912  0.0390 -0.1593
  934MOL0     C28763   7.951  10.778   5.962  0.3256  0.0612 -0.2451
  934MOL0     C28764   7.977  10.830   6.112 -0.3718 -0.5829 -1.5979
  934MOL0     C28765   7.943  10.981   6.120 -0.7392 -0.6666 -0.0781
  934MOL0     C28766   7.994  11.037   6.257  0.1887  1.1931 -0.1211
  934MOL0     C28767   8.149  11.062   6.251  0.5789  0.4489 -0.5568
  934MOL0     C28768   8.188  11.191   6.181  0.3794  0.2956 -0.1469
  934MOL0     C28769   8.304  11.162   6.088  0.4114 -0.0669  0.1540
  934MOL0     C28770   8.292  11.094   5.948  0.0085  1.3908  0.4375
  934MOL0     N28771   8.422  11.058   5.895 -0.0800  0.1797  0.4067
  934MOL0     C28772   8.484  10.936   5.903  0.5601 -0.7941  0.0314
  934MOL0     C28773   8.601  10.957   5.839 -0.7160 -0.3374 -1.1330
  934MOL0     C28774   8.704  10.855   5.824 -0.7153 -0.2066 -0.6260
  934MOL0     C28775   8.767  10.841   5.689  0.4782 -0.1303  0.3622
  934MOL0     C28776   8.669  10.801   5.572  1.4805  0.7565 -0.9020
  934MOL0     C28777   8.725  10.799   5.429  0.5394  0.1002  0.0248
  934MOL0     O28778   8.827  10.693   5.433 -0.0283 -0.1234 -0.9015
  934MOL0     C28779   8.891  10.670   5.322 -0.0633  0.2354  0.4456
  934MOL0     C28780   8.843  10.704   5.200 -0.6240  0.2626 -0.1911
  934MOL0     C28781   8.917  10.698   5.085  0.6477 -0.3916 -0.1059
  934MOL0     C28782   8.857  10.753   4.954  0.2690  0.0102 -0.4124
  934MOL0     C28783   9.044  10.635   5.092  0.5599  1.4157 -0.4371
  934MOL0     C28784   9.139  10.629   4.978 -0.8438 -0.2620  0.4741
  934MOL0     O28785   9.226  10.527   4.979 -0.3542  0.0185  0.1721
  934MOL0     C28786   9.335  10.554   4.907  0.2507  0.1471  0.7634
  934MOL0     C28787   9.340  10.555   4.767 -1.5077  0.0407 -0.4088
  934MOL0     C28788   9.463  10.577   4.705  0.4472  0.1091 -0.5734
  934MOL0     C28789   9.578  10.605   4.779 -0.1694 -0.8278 -0.0787
  934MOL0     O28790   9.685  10.627   4.696 -0.8730 -0.7815 -0.2653
  934MOL0     C28791   9.809  10.674   4.761  0.7350 -0.9828 -0.7020
  934MOL0     C28792   9.929  10.704   4.664  0.2167 -0.1131 -0.4962
  934MOL0     C28793   9.996  10.567   4.606  0.3598 -0.8365 -0.0212
  934MOL0     C28794  10.084  10.607   4.496 -0.5760 -0.1950 -0.0759
  934MOL0     C28795  10.182  10.496   4.449  0.0604 -0.4832 -0.5737
  934MOL0     C28796  10.112  10.392   4.359 -0.5805 -0.0431  0.0075
  934MOL0     C28797  10.099  10.440   4.214 -0.5227 -0.8257 -0.1757
  934MOL0     C28798  10.059  10.343   4.104 -0.5680  0.5141  0.5624
  934MOL0    Cl28799  10.145  10.190   4.118  0.1573 -0.2496 -0.1043
  934MOL0     C28800   9.565  10.610   4.913 -0.5814 -0.8215 -0.2468
  934MOL0     C28801   9.445  10.577   4.977  0.2374 -0.2194  0.7099
  934MOL0     O28802   9.137  10.726   4.903 -0.0137 -0.2086  0.2763
  934MOL0     C28803   9.087  10.577   5.209  0.6100  0.4161 -0.3524
  934MOL0     C28804   9.009  10.590   5.318  0.2157 -0.1627 -0.3937
  934MOL0     N28805   8.604  11.090   5.791 -1.0965  0.9056  0.1643
  934MOL0     N28806   8.501  11.144   5.827 -0.0694 -0.2182  0.9387
  934MOL0     C28807   7.987  10.719   5.664  0.2741 -0.0165  0.1606
  934MOL0     C28808   8.022  10.671   5.531 -0.6015 -0.0560 -1.0030
  934MOL0     C28809   8.352  10.529   5.234 -0.7141 -1.2952 -0.1419
  934MOL0     C28810   8.365  10.640   5.146  0.1136  0.0712 -0.0490
  934MOL0     C28811   8.417  10.628   5.019  0.2343 -0.5967 -0.7631
  934MOL0     C28812   8.465  10.512   4.973 -0.6718  0.6670  0.4364
  934MOL0     O28813   8.507  10.500   4.843 -0.2638  0.1577 -0.0021
  934MOL0     C28814   8.443  10.588   4.745  0.0830  0.1474  1.5871
  934MOL0     C28815   8.403  10.496   4.637  0.1982  0.2329  0.3408
  934MOL0     C28816   8.354  10.575   4.506  0.0641 -0.6923 -0.4214
  934MOL0     C28817   8.451  10.669   4.421  0.1684  0.3857 -0.7251
  934MOL0     C28818   8.563  10.590   4.361 -0.2094 -1.0986  0.3480
  934MOL0     C28819   8.660  10.549   4.301  0.8265  0.2059 -0.5291
  934MOL0     C28820   8.460  10.401   5.054 -0.4510 -0.2488 -0.9583
  934MOL0     C28821   8.388  10.409   5.181  0.2191 -0.2467  0.2045
  934MOL0     C28822   8.356  10.277   5.245  0.3443 -0.6813 -0.6055
  934MOL0     H28823   8.357  10.745   5.555 -0.9837  1.6170 -2.7372
  934MOL0     H28824   8.287  10.851   5.767  1.4263 -1.7102  0.5354
  934MOL0     H28825   7.951  10.669   5.956 -0.9466  0.0659 -5.5141
  934MOL0     H28826   7.849  10.806   5.934  0.8209  1.7323 -0.4907
  934MOL0     H28827   7.910  10.781   6.183  0.7185  0.8166  0.4949
  934MOL0     H28828   8.079  10.808   6.143 -0.3368 -0.2795 -1.4921
  934MOL0     H28829   7.996  11.029   6.037 -2.0328 -1.3666 -1.3615
  934MOL0     H28830   7.834  10.992   6.123 -1.0660 -3.3705  1.2320
  934MOL0     H28831   7.951  11.135   6.283 -0.1496  1.4397 -1.5390
  934MOL0     H28832   7.980  10.963   6.336 -2.4648  1.1130 -0.5560
  934MOL0     H28833   8.199  10.976   6.206  0.4640  0.7974 -1.3782
  934MOL0     H28834   8.174  11.065   6.357  0.7390  1.5834 -0.6150
  934MOL0     H28835   8.105  11.237   6.126  1.1196  1.4113 -0.3543
  934MOL0     H28836   8.227  11.259   6.257  0.6460 -0.2270  0.1923
  934MOL0     H28837   8.379  11.110   6.149  0.1848  0.7972  1.1921
  934MOL0     H28838   8.345  11.260   6.062  2.1464 -0.1729  2.1438
  934MOL0     H28839   8.236  11.000   5.945  2.4446 -0.1104 -1.5911
  934MOL0     H28840   8.255  11.170   5.879 -2.1478  1.4162  1.5301
  934MOL0     H28841   8.455  10.841   5.946  0.0228 -0.0715  1.3107
  934MOL0     H28842   8.666  10.759   5.860  0.1680 -0.6487 -0.8328
  934MOL0     H28843   8.787  10.879   5.891  0.5588 -0.7398 -1.9666
  934MOL0     H28844   8.808  10.937   5.659 -2.4401  0.5921 -1.8550
  934MOL0     H28845   8.853  10.775   5.700  1.2928  0.3390 -2.4015
  934MOL0     H28846   8.639  10.697   5.585  3.9410  0.1857  0.8547
  934MOL0     H28847   8.582  10.868   5.567 -1.6241 -2.8978 -0.7269
  934MOL0     H28848   8.645  10.768   5.361 -0.7394  1.8248  0.6748
  934MOL0     H28849   8.758  10.902   5.413 -0.7021  0.8429  1.9537
  934MOL0     H28850   8.747  10.753   5.185  1.7504  4.4507 -4.1537
  934MOL0     H28851   8.901  10.851   4.933 -1.7498  1.1551  0.3517
  934MOL0     H28852   8.749  10.764   4.968  0.1969 -2.4431  1.4920
  934MOL0     H28853   8.877  10.689   4.868  0.0494  1.5137 -1.6268
  934MOL0     H28854   9.245  10.547   4.715 -1.1748 -0.7212 -0.9242
  934MOL0     H28855   9.475  10.567   4.598  3.4336  2.6047 -0.6031
  934MOL0     H28856   9.784  10.770   4.808 -1.3714 -0.7482 -2.1805
  934MOL0     H28857   9.833  10.599   4.837 -1.7963 -2.0341 -0.8672
  934MOL0     H28858   9.895  10.765   4.581  1.3752  1.0264 -0.1677
  934MOL0     H28859   9.997  10.761   4.728 -1.0511  1.1769 -0.2637
  934MOL0     H28860   9.925  10.498   4.559 -0.1238 -0.5438  0.2735
  934MOL0     H28861  10.052  10.523   4.689  3.6333 -0.5532 -1.9036
  934MOL0     H28862  10.148  10.688   4.532 -0.4199  0.2781 -1.3958
  934MOL0     H28863  10.034  10.648   4.408  1.6123  0.6810 -0.9773
  934MOL0     H28864  10.269  10.541   4.401 -0.9344  2.3107  0.0751
  934MOL0     H28865  10.204  10.438   4.540 -2.0660  0.8033  0.8714
  934MOL0     H28866  10.015  10.363   4.402 -0.8655  0.5528 -0.2140
  934MOL0     H28867  10.174  10.303   4.363 -0.6929 -0.2205 -1.5560
  934MOL0     H28868  10.199  10.471   4.182 -0.5439 -0.7980 -0.2109
  934MOL0     H28869  10.018  10.512   4.216  1.0907  1.1172 -1.4953
  934MOL0     H28870  10.090  10.378   4.005  0.1629  0.8341  0.8987
  934MOL0     H28871   9.951  10.325   4.107 -0.5843  0.3883 -0.4877
  934MOL0     H28872   9.651  10.656   4.961  0.1635  0.8483 -2.9855
  934MOL0     H28873   9.434  10.582   5.085 -1.1224  0.0042  0.5858
  934MOL0     H28874   9.176  10.515   5.203 -0.8676 -1.9025  0.5227
  934MOL0     H28875   9.046  10.550   5.412 -2.9194  0.9491  1.4602
  934MOL0     H28876   7.892  10.688   5.707  0.5641  1.8567  2.3773
  934MOL0     H28877   7.952  10.634   5.457 -1.3050  0.0846 -0.4165
  934MOL0     H28878   8.338  10.741   5.174 -1.0022  0.0959 -1.1096
  934MOL0     H28879   8.435  10.717   4.959 -0.0366 -1.0450 -1.5253
  934MOL0     H28880   8.353  10.632   4.789  0.3689  0.7621  1.5796
  934MOL0     H28881   8.514  10.658   4.699  2.1352 -3.8374 -1.9326
  934MOL0     H28882   8.328  10.420   4.659 -0.1696  0.2855 -0.6773
  934MOL0     H28883   8.492  10.443   4.601  0.5165  1.8275 -1.3434
  934MOL0     H28884   8.297  10.515   4.434  1.0210 -1.4826 -0.5487
  934MOL0     H28885   8.270  10.637   4.539  1.3650  2.8338 -3.1713
  934MOL0     H28886   8.501  10.744   4.483  1.3362  1.1030 -2.4597
  934MOL0     H28887   8.386  10.726   4.354 -2.4282  1.0190  2.0853
  934MOL0     H28888   8.750  10.511   4.258  1.8790  0.4919  1.2960
  934MOL0     H28889   8.505  10.305   5.028 -3.1506 -1.4254 -1.6512
  934MOL0     H28890   8.405  10.274   5.344  1.4524  0.9607 -1.0619
  934MOL0     H28891   8.249  10.292   5.260  0.5794  4.5194 -2.3040
  934MOL0     H28892   8.387  10.189   5.187  1.1247 -2.5807  2.4304
  935MOL0     O28893   8.934   3.803  11.466  0.4777 -0.8647  0.1360
  935MOL0     C28894   9.013   3.780  11.379  0.2108 -0.7865  0.4063
  935MOL0     O28895   8.997   3.813  11.244  0.1675 -0.2901 -0.2128
  935MOL0     C28896   8.882   3.794  11.172 -0.7302  0.1013 -0.1388
  935MOL0     C28897   8.915   3.791  11.037 -0.3997  0.6868 -0.0874
  935MOL0     C28898   8.807   3.789  10.947 -0.0262  0.5803 -0.2036
  935MOL0     C28899   8.672   3.766  10.994  0.3472 -0.2055 -0.1299
  935MOL0     O28900   8.554   3.761  10.911 -0.2404 -0.8351 -0.1088
  935MOL0     C28901   8.544   3.644  10.843 -0.4743 -0.1977 -0.6874
  935MOL0     C28902   8.448   3.652  10.723 -0.1419  0.0600  0.0360
  935MOL0     C28903   8.503   3.760  10.630 -0.4508 -0.0217 -0.9069
  935MOL0     C28904   8.622   3.710  10.541  0.2635 -0.2910 -0.6088
  935MOL0     C28905   8.597   3.594  10.455 -0.4035  0.7895  0.0369
  935MOL0     C28906   8.720   3.571  10.360  0.5268 -0.4082  0.2838
  935MOL0     C28907   8.707   3.445  10.278  0.5298 -0.2008 -0.6411
  935MOL0     C28908   8.604   3.445  10.169  0.0687  0.0481  0.0832
  935MOL0     N28909   8.615   3.329  10.078  0.4668 -0.0519 -0.1374
  935MOL0     C28910   8.619   3.201  10.123  0.4380  0.0166 -0.3694
  935MOL0     C28911   8.669   3.132  10.016 -0.0179  0.4031 -0.0196
  935MOL0     C28912   8.684   2.988  10.005 -0.4754 -0.6634 -0.4687
  935MOL0     C28913   8.570   2.926   9.924  1.7152  0.5280  0.2531
  935MOL0     C28914   8.602   2.785   9.878 -0.5647 -0.0599 -0.1150
  935MOL0     C28915   8.649   2.689   9.986 -0.4575 -0.3069  0.4783
  935MOL0     O28916   8.570   2.686  10.103 -0.1119  0.2775 -0.1141
  935MOL0     C28917   8.461   2.609  10.131 -0.1775 -0.4860  0.5919
  935MOL0     C28918   8.412   2.519  10.037 -0.4543 -0.5956 -0.5381
  935MOL0     C28919   8.286   2.458  10.058 -0.9807  0.2546 -0.4009
  935MOL0     C28920   8.228   2.389   9.939  0.2325 -0.2465  0.1058
  935MOL0     C28921   8.219   2.482  10.185  0.4991 -0.0141  0.2280
  935MOL0     C28922   8.078   2.438  10.221  0.4011  0.2644 -0.0718
  935MOL0     O28923   8.012   2.495  10.326  0.1158  1.3997  0.1147
  935MOL0     C28924   7.899   2.426  10.355  0.5235 -0.9748  0.0300
  935MOL0     C28925   7.899   2.345  10.469  0.2845  0.0972 -0.2535
  935MOL0     C28926   7.790   2.283  10.514 -0.7881 -0.8951  0.1054
  935MOL0     C28927   7.673   2.289  10.445  0.7331 -0.3379  0.4795
  935MOL0     O28928   7.570   2.226  10.502  0.0005 -0.6553  0.2063
  935MOL0     C28929   7.448   2.305  10.516  0.3853  0.0186  0.2845
  935MOL0     C28930   7.341   2.215  10.585 -0.0611 -0.2010 -0.5806
  935MOL0     C28931   7.385   2.133  10.699  0.0685 -0.1295  0.1676
  935MOL0     C28932   7.434   2.221  10.813 -0.7986 -0.5856 -0.5425
  935MOL0     C28933   7.445   2.147  10.948 -1.2258 -0.3523 -1.0013
  935MOL0     C28934   7.536   2.021  10.948  0.3989  0.3546  0.2418
  935MOL0     C28935   7.671   2.059  10.903  0.5557 -0.2488  0.2175
  935MOL0     C28936   7.757   1.925  10.908  0.3609  0.5702 -0.3406
  935MOL0    Cl28937   7.923   1.959  10.857 -0.5603  0.0213 -0.0644
  935MOL0     C28938   7.666   2.368  10.325 -0.1268 -0.7023  1.5191
  935MOL0     C28939   7.778   2.432  10.281 -0.3164 -0.4238  0.7229
  935MOL0     O28940   8.039   2.339  10.155 -0.7477 -0.3870  0.5461
  935MOL0     C28941   8.283   2.564  10.283  0.9404 -0.0329  0.3208
  935MOL0     C28942   8.400   2.630  10.253 -0.0777 -0.3532  0.6468
  935MOL0     N28943   8.705   3.218   9.917 -0.7259 -0.1551  0.4879
  935MOL0     N28944   8.668   3.339   9.954  1.4434  0.8412 -0.2236
  935MOL0     C28945   8.646   3.764  11.131  0.3375  0.3622  0.5449
  935MOL0     C28946   8.750   3.782  11.222  0.7569  0.6501  0.4849
  935MOL0     C28947   9.145   3.724  11.421 -0.4355  0.2873 -0.2596
  935MOL0     C28948   9.153   3.674  11.549  0.3880 -0.0830 -0.7997
  935MOL0     C28949   9.271   3.624  11.596  0.4172  0.6360 -0.0372
  935MOL0     C28950   9.382   3.632  11.521  0.4745 -0.4110 -0.0111
  935MOL0     O28951   9.510   3.596  11.577  0.6147  0.0304  0.7856
  935MOL0     C28952   9.624   3.593  11.487 -0.2644  0.1781  0.0879
  935MOL0     C28953   9.752   3.533  11.553  0.2490 -0.4374  0.4540
  935MOL0     C28954   9.827   3.631  11.636  0.3011 -0.5513 -0.7080
  935MOL0     C28955   9.962   3.572  11.689  0.7241  0.3570  0.3235
  935MOL0     C28956  10.012   3.659  11.794  0.9476  1.1885  0.0637
  935MOL0     C28957  10.069   3.731  11.876  0.4666  0.4440  0.2518
  935MOL0     C28958   9.378   3.681  11.388 -1.8356 -1.3267 -0.7067
  935MOL0     C28959   9.265   3.728  11.338 -0.1641 -0.8569 -0.6988
  935MOL0     C28960   9.276   3.811  11.214  0.2988  0.9985  0.1549
  935MOL0     H28961   9.020   3.795  11.010  0.4825 -0.4668  2.7337
  935MOL0     H28962   8.819   3.790  10.839  1.0288  2.4321 -0.1107
  935MOL0     H28963   8.504   3.573  10.916  0.7927  0.3825  0.6352
  935MOL0     H28964   8.645   3.614  10.811  0.4822 -0.1991  2.0359
  935MOL0     H28965   8.417   3.557  10.679  0.1814 -0.5320  1.0507
  935MOL0     H28966   8.362   3.693  10.776 -0.9827  1.3736 -2.2150
  935MOL0     H28967   8.417   3.799  10.574  2.0384  2.3558 -3.4209
  935MOL0     H28968   8.533   3.849  10.686 -0.7712 -1.0327  0.9289
  935MOL0     H28969   8.650   3.788  10.470  2.3226 -1.8332 -1.5957
  935MOL0     H28970   8.707   3.683  10.606 -0.9210 -3.3979 -0.1746
  935MOL0     H28971   8.501   3.603  10.403 -0.4436 -0.2836 -0.1028
  935MOL0     H28972   8.579   3.509  10.522  1.4876 -0.8450 -1.4010
  935MOL0     H28973   8.736   3.664  10.305  0.2003 -0.6572 -0.2396
  935MOL0     H28974   8.816   3.557  10.411  1.9299  3.0061 -1.1477
  935MOL0     H28975   8.687   3.362  10.347 -0.1797  0.9969  0.6374
  935MOL0     H28976   8.806   3.426  10.234  1.1918 -1.2379  1.1995
  935MOL0     H28977   8.501   3.452  10.206 -0.2480  1.4357 -0.9702
  935MOL0     H28978   8.619   3.532  10.105  1.2932 -2.1982 -2.9356
  935MOL0     H28979   8.581   3.161  10.217  0.5570 -3.6776 -1.7621
  935MOL0     H28980   8.694   2.943  10.104  0.5626 -0.3924 -0.4389
  935MOL0     H28981   8.779   2.976   9.952 -0.9155  0.4437 -1.5454
  935MOL0     H28982   8.479   2.937   9.985  0.2080  0.6504 -1.8801
  935MOL0     H28983   8.551   2.991   9.838  0.7472  0.5271  0.4495
  935MOL0     H28984   8.511   2.743   9.833 -2.6912  1.9717  2.0011
  935MOL0     H28985   8.674   2.797   9.797 -0.8026 -2.4297 -0.7653
  935MOL0     H28986   8.660   2.588   9.944 -0.7813 -1.6978  3.5127
  935MOL0     H28987   8.754   2.713  10.006  1.3790 -3.2917 -3.9748
  935MOL0     H28988   8.474   2.505   9.950 -1.5446 -0.0243 -1.4385
  935MOL0     H28989   8.121   2.404   9.922  0.2174  0.7442  0.9739
  935MOL0     H28990   8.242   2.281   9.928  1.2122 -0.0280 -1.0976
  935MOL0     H28991   8.268   2.429   9.845 -2.2828  1.7221 -0.2378
  935MOL0     H28992   7.993   2.333  10.523 -0.7833 -2.6319  1.1560
  935MOL0     H28993   7.802   2.225  10.605  2.0588  1.6039  1.4863
  935MOL0     H28994   7.478   2.390  10.577  2.6870 -0.3110 -0.3069
  935MOL0     H28995   7.401   2.328  10.420  1.9696 -2.0774 -1.0997
  935MOL0     H28996   7.260   2.281  10.618 -0.3562 -1.1398  0.6411
  935MOL0     H28997   7.292   2.145  10.516 -2.2506 -0.2360  0.8829
  935MOL0     H28998   7.472   2.077  10.665 -0.2493  0.2640 -1.3656
  935MOL0     H28999   7.300   2.072  10.732  0.3601  0.7418  2.7990
  935MOL0     H29000   7.371   2.309  10.822  0.8727  0.5107  1.0486
  935MOL0     H29001   7.528   2.270  10.786  0.9238 -2.1456  2.1540
  935MOL0     H29002   7.485   2.219  11.021 -2.2634  0.0466 -0.8030
  935MOL0     H29003   7.343   2.128  10.983 -0.5528 -2.0106  0.1897
  935MOL0     H29004   7.491   1.943  10.886 -1.2314  2.2585 -1.1189
  935MOL0     H29005   7.540   1.990  11.053 -1.0491  1.0044  0.5193
  935MOL0     H29006   7.712   2.133  10.973 -0.5245 -0.0803  0.6939
  935MOL0     H29007   7.673   2.092  10.799  1.3000  0.4173  0.4331
  935MOL0     H29008   7.708   1.851  10.844 -0.9531 -2.2060  3.4814
  935MOL0     H29009   7.748   1.894  11.013  1.3957  1.1533 -0.0613
  935MOL0     H29010   7.572   2.391  10.274  0.0577 -1.0917  0.9946
  935MOL0     H29011   7.773   2.501  10.197  2.2719  0.9641  1.5839
  935MOL0     H29012   8.238   2.582  10.380 -1.8388  1.1368 -1.0617
  935MOL0     H29013   8.449   2.697  10.324  0.1216 -0.5299  0.6804
  935MOL0     H29014   8.542   3.763  11.160  0.6332 -0.1424  1.6537
  935MOL0     H29015   8.722   3.789  11.326 -1.2122 -0.3477  0.0741
  935MOL0     H29016   9.066   3.687  11.613  0.4265 -1.3344 -0.4697
  935MOL0     H29017   9.277   3.583  11.696 -1.6045  3.3453  1.3248
  935MOL0     H29018   9.600   3.535  11.397  0.1263  1.2052 -0.7050
  935MOL0     H29019   9.648   3.697  11.460 -0.9559  1.1460  2.8338
  935MOL0     H29020   9.818   3.503  11.472 -1.2331 -0.8728 -0.6451
  935MOL0     H29021   9.734   3.443  11.613 -3.2280  1.0255  1.9057
  935MOL0     H29022   9.850   3.723  11.583 -0.2887 -0.4414 -0.7805
  935MOL0     H29023   9.768   3.662  11.723  1.0674  0.1250 -0.4178
  935MOL0     H29024  10.033   3.548  11.610  1.2775 -1.4597  1.3089
  935MOL0     H29025   9.945   3.472  11.732 -0.5554  0.2584 -0.3478
  935MOL0     H29026  10.095   3.796  11.957  1.8089 -1.9326  1.8811
  935MOL0     H29027   9.471   3.700  11.336  0.1066 -0.1914  2.9029
  935MOL0     H29028   9.213   3.899  11.231  0.4033  1.4070 -1.4226
  935MOL0     H29029   9.376   3.849  11.191  0.7584 -1.4352 -2.3593
  935MOL0     H29030   9.235   3.765  11.123  0.6895  2.5977 -0.8740
  936MOL0     O29031   8.212   5.742   0.234  0.2994  0.0644  0.2518
  936MOL0     C29032   8.124   5.802   0.167 -0.6331 -0.0123  1.1231
  936MOL0     O29033   7.981   5.779   0.172 -0.5941 -0.0968  0.0493
  936MOL0     C29034   7.935   5.681   0.254  0.7651 -1.2643 -1.0396
  936MOL0     C29035   7.878   5.557   0.221 -0.6461 -0.2776  1.3177
  936MOL0     C29036   7.832   5.473   0.316 -0.5175 -0.5885  0.1087
  936MOL0     C29037   7.827   5.503   0.456 -0.3955 -0.9790  0.9543
  936MOL0     O29038   7.778   5.409   0.534  0.0277 -0.0977  0.0156
  936MOL0     C29039   7.817   5.423   0.674  0.3259 -1.2346  0.0491
  936MOL0     C29040   7.767   5.304   0.753 -0.1343 -0.5161  0.0317
  936MOL0     C29041   7.610   5.306   0.761 -1.0783 -0.6290  1.3984
  936MOL0     C29042   7.552   5.222   0.872 -0.6209  0.5302  0.7391
  936MOL0     C29043   7.405   5.184   0.850 -1.3446 -0.2727  0.5890
  936MOL0     C29044   7.310   5.305   0.808 -0.2604  0.3148 -0.6482
  936MOL0     C29045   7.163   5.256   0.772  0.6293 -0.6237 -1.0660
  936MOL0     C29046   7.046   5.359   0.763  0.0748  0.0781  0.1466
  936MOL0     N29047   7.061   5.430   0.634  0.0536 -0.4684 -0.0142
  936MOL0     C29048   6.994   5.394   0.520 -0.0507  0.7549 -1.5305
  936MOL0     C29049   7.048   5.475   0.421  0.4381 -0.5357  0.0234
  936MOL0     C29050   7.033   5.475   0.275  0.0332  1.3236 -0.1331
  936MOL0     C29051   7.064   5.328   0.218 -0.0742 -0.4883  0.7931
  936MOL0     C29052   7.062   5.313   0.059  0.0804 -0.2756  0.0742
  936MOL0     C29053   7.161   5.419  -0.009 -0.7456 -0.1086 -0.5451
  936MOL0     O29054   7.109   5.549  -0.014 -0.6518 -0.7727  0.1650
  936MOL0     C29055   7.186   5.649  -0.074  0.1782  0.5763  0.1751
  936MOL0     C29056   7.146   5.775  -0.033  0.0608  0.4338 -0.1984
  936MOL0     C29057   7.190   5.894  -0.105 -0.2234  0.8114 -0.8011
  936MOL0     C29058   7.136   6.015  -0.057 -1.1589 -0.6175 -0.4532
  936MOL0     C29059   7.280   5.876  -0.213 -0.8263  0.2702 -0.2119
  936MOL0     C29060   7.316   5.983  -0.311 -0.3989 -0.6334  0.3046
  936MOL0     O29061   7.395   5.960  -0.420  0.5483  0.1726  0.3161
  936MOL0     C29062   7.414   6.071  -0.505  0.0211 -0.4346  0.6114
  936MOL0     C29063   7.338   6.089  -0.621 -1.1486 -0.4089  0.6170
  936MOL0     C29064   7.379   6.192  -0.715  0.6749  0.4262  0.2611
  936MOL0     C29065   7.489   6.276  -0.692 -1.0587 -0.7552  0.7348
  936MOL0     O29066   7.527   6.382  -0.770 -0.4213 -0.2070  0.4277
  936MOL0     C29067   7.428   6.457  -0.833  0.3197  0.5518  0.2949
  936MOL0     C29068   7.484   6.597  -0.866 -0.1549  0.2546 -0.0446
  936MOL0     C29069   7.487   6.688  -0.744  0.4362 -0.1351  0.3979
  936MOL0     C29070   7.522   6.831  -0.787  0.4246  0.1904  0.0221
  936MOL0     C29071   7.520   6.919  -0.657  0.2450 -0.7032  0.1727
  936MOL0     C29072   7.530   7.062  -0.708 -0.6013 -0.4066 -0.0317
  936MOL0     C29073   7.582   7.149  -0.597 -0.1695 -0.7702  0.7529
  936MOL0     C29074   7.575   7.299  -0.635  0.3676 -0.4349  0.4656
  936MOL0    Cl29075   7.699   7.341  -0.756  0.6770 -0.1218 -0.3330
  936MOL0     C29076   7.566   6.250  -0.577  1.4199 -0.4033  0.4167
  936MOL0     C29077   7.535   6.144  -0.487 -0.0747  0.0314  0.4117
  936MOL0     O29078   7.259   6.094  -0.296  0.3658  0.3366 -0.0954
  936MOL0     C29079   7.340   5.750  -0.229  0.1613  0.7445 -0.0000
  936MOL0     C29080   7.288   5.629  -0.167 -0.5011 -0.2933 -0.4589
  936MOL0     N29081   7.143   5.554   0.475 -0.4104 -0.1763 -0.2797
  936MOL0     N29082   7.158   5.518   0.596 -0.5244  0.4369 -0.3384
  936MOL0     C29083   7.894   5.624   0.499  0.9250  0.0283 -0.6171
  936MOL0     C29084   7.936   5.712   0.394  0.0015  0.6402  0.0785
  936MOL0     C29085   8.179   5.912   0.072 -0.2680 -0.6790 -0.3972
  936MOL0     C29086   8.084   6.011   0.028  0.1958  0.2795 -0.8536
  936MOL0     C29087   8.128   6.112  -0.058  0.1996 -0.0041  0.1391
  936MOL0     C29088   8.251   6.108  -0.108 -1.0642 -0.2930  0.1895
  936MOL0     O29089   8.274   6.213  -0.197 -1.2097 -0.1727 -0.3550
  936MOL0     C29090   8.387   6.295  -0.169  0.7192  0.2734 -1.1054
  936MOL0     C29091   8.382   6.425  -0.252  0.1077 -0.1659 -0.2275
  936MOL0     C29092   8.402   6.394  -0.397 -0.1881  0.2864 -0.4656
  936MOL0     C29093   8.381   6.515  -0.489 -0.7552  0.8472  1.1857
  936MOL0     C29094   8.389   6.496  -0.633  0.3959  0.7310 -0.7051
  936MOL0     C29095   8.397   6.483  -0.754  0.9645 -0.3308  0.2098
  936MOL0     C29096   8.350   6.021  -0.055  0.9006 -0.0206 -0.0043
  936MOL0     C29097   8.309   5.916   0.034  0.0596 -0.2400  1.7215
  936MOL0     C29098   8.418   5.811   0.072  0.4462  0.2416  0.8393
  936MOL0     H29099   7.860   5.514   0.124 -1.8512  1.0073  0.9365
  936MOL0     H29100   7.799   5.379   0.273 -2.9407 -0.0773  0.7356
  936MOL0     H29101   7.776   5.519   0.708  4.5499  0.1091  1.9297
  936MOL0     H29102   7.926   5.432   0.673  0.1489  2.9445  0.9172
  936MOL0     H29103   7.801   5.210   0.708  2.0629 -0.5234  1.5069
  936MOL0     H29104   7.804   5.314   0.856  2.4892 -2.0279 -0.6732
  936MOL0     H29105   7.583   5.411   0.780  1.3962  0.3141  0.1286
  936MOL0     H29106   7.569   5.288   0.661  2.9001 -3.1951 -0.0201
  936MOL0     H29107   7.603   5.128   0.890 -1.2874 -0.4766 -2.1724
  936MOL0     H29108   7.557   5.282   0.964  1.2530 -0.3181  1.2288
  936MOL0     H29109   7.374   5.127   0.939 -0.8403 -2.2143 -0.4235
  936MOL0     H29110   7.419   5.103   0.778 -0.5402  1.1988 -0.9991
  936MOL0     H29111   7.312   5.373   0.893  0.3471 -1.7875  1.1010
  936MOL0     H29112   7.353   5.367   0.728  1.6335  1.1163  0.9113
  936MOL0     H29113   7.129   5.185   0.848 -2.2013  3.0178  1.3836
  936MOL0     H29114   7.171   5.205   0.675  3.3273  0.4929 -1.5362
  936MOL0     H29115   6.956   5.297   0.762  1.6464 -2.4051  1.7573
  936MOL0     H29116   7.046   5.428   0.848 -0.0298 -1.3366  1.3255
  936MOL0     H29117   6.919   5.318   0.503  0.7749 -0.3895 -0.3011
  936MOL0     H29118   7.098   5.552   0.232  0.4226  0.3172 -1.4267
  936MOL0     H29119   6.931   5.504   0.248 -1.7405  0.5808  4.6956
  936MOL0     H29120   7.165   5.298   0.245 -1.0169 -1.6192  3.4378
  936MOL0     H29121   6.991   5.255   0.255  0.6683 -1.4909  0.3397
  936MOL0     H29122   7.107   5.216   0.033  0.2074 -0.6068  1.4811
  936MOL0     H29123   6.963   5.320   0.013  1.6849 -0.3717 -3.7518
  936MOL0     H29124   7.253   5.409   0.050 -1.0156  2.8613  0.5590
  936MOL0     H29125   7.191   5.385  -0.109 -0.3284 -1.5437  0.0416
  936MOL0     H29126   7.076   5.787   0.048 -0.1194 -0.2059 -0.2591
  936MOL0     H29127   7.216   6.089  -0.069 -2.0084  0.1111 -1.9378
  936MOL0     H29128   7.098   6.004   0.045 -1.3913  0.1062 -0.4529
  936MOL0     H29129   7.054   6.043  -0.124 -1.1570  1.9066  0.4896
  936MOL0     H29130   7.260   6.021  -0.652  0.7059 -2.9539  1.1155
  936MOL0     H29131   7.347   6.196  -0.819 -0.7081 -0.3053  0.6435
  936MOL0     H29132   7.396   6.408  -0.925  3.0213  0.0391 -0.4531
  936MOL0     H29133   7.334   6.467  -0.776  0.0058 -0.1321 -0.0985
  936MOL0     H29134   7.589   6.582  -0.892  0.2304  1.8280  0.4798
  936MOL0     H29135   7.434   6.643  -0.952  1.6294 -1.7687 -2.3159
  936MOL0     H29136   7.558   6.643  -0.674  1.2469 -0.1407 -0.4073
  936MOL0     H29137   7.387   6.691  -0.700 -0.4246  0.8168 -1.4802
  936MOL0     H29138   7.464   6.868  -0.872  1.8160  2.5106 -0.0159
  936MOL0     H29139   7.625   6.833  -0.825 -0.1923  1.5380 -1.7302
  936MOL0     H29140   7.434   6.904  -0.591  0.1266 -0.4384  0.0814
  936MOL0     H29141   7.600   6.885  -0.590  0.2737 -4.6725 -1.5879
  936MOL0     H29142   7.433   7.095  -0.748  0.2284 -1.0572 -2.8658
  936MOL0     H29143   7.602   7.072  -0.790  1.5533 -0.0419  1.8413
  936MOL0     H29144   7.681   7.102  -0.587 -0.3523 -2.0998 -2.5211
  936MOL0     H29145   7.520   7.151  -0.506 -0.0507 -1.3223  0.8502
  936MOL0     H29146   7.580   7.360  -0.544 -0.8768 -1.6383  1.3866
  936MOL0     H29147   7.476   7.320  -0.677 -0.7950 -1.9026  2.3004
  936MOL0     H29148   7.650   6.310  -0.543  2.3845 -3.7768  4.9291
  936MOL0     H29149   7.598   6.127  -0.400  1.6029 -1.4659 -1.0271
  936MOL0     H29150   7.420   5.738  -0.300  0.8690  1.2221  0.7044
  936MOL0     H29151   7.340   5.538  -0.196 -0.0732  0.9922 -4.4281
  936MOL0     H29152   7.909   5.643   0.605 -1.4173 -0.9592 -0.0595
  936MOL0     H29153   7.990   5.799   0.431 -2.2297  1.2672  2.1465
  936MOL0     H29154   7.978   6.010   0.053  1.1971 -0.2256  4.7813
  936MOL0     H29155   8.051   6.179  -0.096  0.4676 -0.9358 -2.2668
  936MOL0     H29156   8.390   6.324  -0.063 -2.3085  1.8215 -1.3461
  936MOL0     H29157   8.476   6.232  -0.178 -0.6530 -2.0522  0.4812
  936MOL0     H29158   8.459   6.499  -0.227 -0.9821  1.4348 -1.4440
  936MOL0     H29159   8.290   6.479  -0.231 -0.4761 -1.2841  0.2060
  936MOL0     H29160   8.496   6.339  -0.409 -0.0786  0.5588 -0.8912
  936MOL0     H29161   8.324   6.325  -0.430  0.8695 -0.5628 -1.2634
  936MOL0     H29162   8.447   6.598  -0.461  1.2513 -0.9722  2.2560
  936MOL0     H29163   8.278   6.539  -0.461 -0.7611  2.2479  0.0576
  936MOL0     H29164   8.404   6.470  -0.860  0.4136 -4.7202  0.5510
  936MOL0     H29165   8.453   6.030  -0.086  0.0575  3.6961 -2.4207
  936MOL0     H29166   8.499   5.827   0.001  0.0527  0.4439  0.4354
  936MOL0     H29167   8.455   5.823   0.174 -2.1395  0.1091  1.8546
  936MOL0     H29168   8.376   5.710   0.068 -1.6575  1.0860  0.4448
  937MOL0     O29169  11.355   8.731   1.000 -0.0012  0.1409 -0.0103
  937MOL0     C29170  11.348   8.686   1.107  0.6182  0.4860  0.5207
  937MOL0     O29171  11.238   8.695   1.200  0.4931 -0.5488  0.2424
  937MOL0     C29172  11.120   8.752   1.150  0.3908 -0.5159 -0.0523
  937MOL0     C29173  11.090   8.884   1.180 -0.1337 -0.1601 -0.3286
  937MOL0     C29174  10.973   8.943   1.133 -0.3777 -0.7796 -0.2782
  937MOL0     C29175  10.881   8.859   1.062 -0.9250  0.2762 -0.7409
  937MOL0     O29176  10.767   8.912   1.015 -0.2494  0.3531 -0.5278
  937MOL0     C29177  10.660   8.836   0.951 -0.0495 -0.7063  0.7280
  937MOL0     C29178  10.684   8.815   0.796  0.9171 -0.0145 -0.0901
  937MOL0     C29179  10.670   8.947   0.721 -0.0158 -0.8980  0.4583
  937MOL0     C29180  10.530   8.945   0.655 -1.1603  0.5706  0.8886
  937MOL0     C29181  10.503   9.076   0.576 -0.2335 -0.0238  0.4060
  937MOL0     C29182  10.359   9.089   0.518 -0.5229  0.3411 -0.4253
  937MOL0     C29183  10.331   8.977   0.411  0.9102  1.0486 -0.9507
  937MOL0     C29184  10.428   8.978   0.296 -0.3261  1.1533  0.1187
  937MOL0     N29185  10.384   8.886   0.184 -0.0915 -0.2744  0.9030
  937MOL0     C29186  10.385   8.746   0.190 -0.5739 -1.1245  1.2044
  937MOL0     C29187  10.295   8.714   0.092 -0.0817  1.3725  0.2422
  937MOL0     C29188  10.235   8.574   0.057 -0.0432  0.3596  0.1970
  937MOL0     C29189  10.332   8.518  -0.052  0.4954  0.3170 -0.4399
  937MOL0     C29190  10.262   8.413  -0.134 -0.4012  0.0529 -0.5279
  937MOL0     C29191  10.359   8.355  -0.231  0.5724  0.6588 -0.6144
  937MOL0     O29192  10.296   8.231  -0.276 -0.3469 -0.2083  0.0518
  937MOL0     C29193  10.372   8.115  -0.285  0.2506  0.9969 -0.0925
  937MOL0     C29194  10.307   7.999  -0.235 -0.9341 -0.8446 -0.0383
  937MOL0     C29195  10.382   7.877  -0.224  0.7402  0.6065 -0.4651
  937MOL0     C29196  10.296   7.757  -0.183 -0.5592  0.2638 -0.1282
  937MOL0     C29197  10.516   7.863  -0.271  0.3692  0.9480 -0.2894
  937MOL0     C29198  10.594   7.741  -0.268  0.3099 -0.1940  0.3412
  937MOL0     O29199  10.540   7.622  -0.299 -0.2147 -1.1554  0.5143
  937MOL0     C29200  10.620   7.512  -0.279  0.3966  0.0309 -0.9832
  937MOL0     C29201  10.744   7.485  -0.338 -0.4038  0.9126  0.3919
  937MOL0     C29202  10.812   7.367  -0.309 -0.0979 -0.0027  0.3374
  937MOL0     C29203  10.760   7.274  -0.223 -0.8113  0.0308 -0.1698
  937MOL0     O29204  10.819   7.154  -0.192 -0.5348  1.0921  0.8057
  937MOL0     C29205  10.965   7.135  -0.210  0.0362  0.2974 -0.3405
  937MOL0     C29206  10.992   7.053  -0.337 -0.4995  0.0345  0.6441
  937MOL0     C29207  11.142   7.013  -0.352 -0.5309 -0.0719 -0.6920
  937MOL0     C29208  11.199   6.941  -0.229 -0.5712 -0.2197  1.0292
  937MOL0     C29209  11.336   6.868  -0.267  0.4132  0.4528 -0.2565
  937MOL0     C29210  11.373   6.767  -0.154  0.0203 -0.4745  0.3367
  937MOL0     C29211  11.522   6.722  -0.145 -0.0072 -0.7841 -0.0756
  937MOL0     C29212  11.551   6.619  -0.245  0.1347  0.0435 -0.7664
  937MOL0    Cl29213  11.727   6.553  -0.239  0.0725 -0.3788  0.3436
  937MOL0     C29214  10.646   7.305  -0.163 -0.3730 -0.1325 -0.4091
  937MOL0     C29215  10.570   7.421  -0.187 -0.1557 -0.6356  0.7093
  937MOL0     O29216  10.711   7.762  -0.233  1.1589  0.2758 -0.0295
  937MOL0     C29217  10.578   7.987  -0.315  0.4778 -0.1436  0.0490
  937MOL0     C29218  10.506   8.104  -0.318  0.3256  0.3560  0.7149
  937MOL0     N29219  10.242   8.824   0.029 -0.1527  0.5960  0.4256
  937MOL0     N29220  10.301   8.927   0.076 -0.6946  0.4929 -0.3788
  937MOL0     C29221  10.916   8.726   1.043 -0.2122 -1.0461  0.2904
  937MOL0     C29222  11.033   8.667   1.091 -0.5338  1.0565  0.0656
  937MOL0     C29223  11.469   8.618   1.167 -0.5019  0.6823  0.9927
  937MOL0     C29224  11.468   8.477   1.204  0.2487 -0.4278  0.9050
  937MOL0     C29225  11.578   8.424   1.271 -0.1665 -0.2801 -0.5498
  937MOL0     C29226  11.688   8.510   1.309  1.3644  0.6405 -0.3418
  937MOL0     O29227  11.798   8.466   1.387 -0.4826  0.0769 -0.0988
  937MOL0     C29228  11.795   8.325   1.419  0.5692  0.7167 -1.2728
  937MOL0     C29229  11.922   8.281   1.478 -0.1434  0.0679 -0.1872
  937MOL0     C29230  11.920   8.316   1.625 -0.1301  0.1022  0.2467
  937MOL0     C29231  12.060   8.327   1.682 -0.0664  0.0860 -0.1744
  937MOL0     C29232  12.063   8.360   1.821 -0.0818 -0.2157  0.0678
  937MOL0     C29233  12.069   8.392   1.936  0.9152  0.4911  0.0991
  937MOL0     C29234  11.681   8.639   1.268  0.6645 -0.1005  0.9926
  937MOL0     C29235  11.575   8.695   1.200  0.0343 -0.6031 -0.3028
  937MOL0     C29236  11.572   8.848   1.172 -0.0217 -0.3836 -0.2160
  937MOL0     H29237  11.161   8.936   1.244 -2.4143  0.4671  1.8631
  937MOL0     H29238  10.942   9.045   1.149  1.1814 -0.5753  1.7346
  937MOL0     H29239  10.564   8.887   0.965  0.8226  1.2753 -0.0858
  937MOL0     H29240  10.644   8.739   0.998  0.0357 -0.8026  0.5598
  937MOL0     H29241  10.784   8.777   0.774  1.7341  1.1714  1.3934
  937MOL0     H29242  10.608   8.741   0.772  0.2029  0.3739  0.8745
  937MOL0     H29243  10.668   9.043   0.773  0.1210 -0.1891 -0.7908
  937MOL0     H29244  10.746   8.954   0.642 -0.8525  0.1721 -0.2900
  937MOL0     H29245  10.529   8.869   0.577  0.0986  2.9234 -1.6173
  937MOL0     H29246  10.447   8.944   0.726 -0.4704  0.9430  1.7223
  937MOL0     H29247  10.567   9.073   0.487 -4.5416 -0.4670 -3.0703
  937MOL0     H29248  10.523   9.156   0.647  0.0727  0.0757  0.2098
  937MOL0     H29249  10.299   9.082   0.610 -2.5941  0.5767 -1.6938
  937MOL0     H29250  10.348   9.188   0.475  1.1501  0.3656 -0.8387
  937MOL0     H29251  10.225   8.980   0.384  1.3463 -1.4512 -3.3792
  937MOL0     H29252  10.317   8.883   0.465 -2.4545  2.4995  0.9926
  937MOL0     H29253  10.429   9.083   0.264  0.6257  0.9689 -0.5122
  937MOL0     H29254  10.530   8.949   0.325 -0.6084 -0.2996 -0.3063
  937MOL0     H29255  10.450   8.682   0.248  3.5015  1.1009 -0.4453
  937MOL0     H29256  10.131   8.585   0.027  0.2715  3.5535 -0.0145
  937MOL0     H29257  10.226   8.509   0.145 -2.2120  1.4436  0.8458
  937MOL0     H29258  10.373   8.594  -0.119 -1.1892  2.3336  0.7145
  937MOL0     H29259  10.413   8.479   0.011  1.1629  0.5280 -1.1523
  937MOL0     H29260  10.239   8.329  -0.067  0.9266  0.2525  0.2069
  937MOL0     H29261  10.173   8.444  -0.189  0.3998  0.0046 -1.9080
  937MOL0     H29262  10.383   8.414  -0.320  2.0855 -3.2424 -3.0639
  937MOL0     H29263  10.456   8.336  -0.184  1.1203 -1.0067 -2.2699
  937MOL0     H29264  10.210   8.014  -0.188 -1.6436 -0.6935 -1.4946
  937MOL0     H29265  10.189   7.775  -0.195 -0.9218 -2.7666 -3.2515
  937MOL0     H29266  10.320   7.730  -0.080  2.4858  0.3927 -0.7026
  937MOL0     H29267  10.304   7.672  -0.251  0.0667 -0.0257  0.3006
  937MOL0     H29268  10.773   7.567  -0.403  0.7777 -0.1526 -0.4497
  937MOL0     H29269  10.911   7.351  -0.352  0.2016 -1.1651  1.3955
  937MOL0     H29270  11.011   7.235  -0.207 -1.0381  0.7797  0.8834
  937MOL0     H29271  11.002   7.084  -0.120  0.6667 -2.1948 -1.9421
  937MOL0     H29272  10.933   6.961  -0.346 -2.2195  1.2038 -0.5733
  937MOL0     H29273  10.957   7.111  -0.423 -4.5223 -2.0562  0.6603
  937MOL0     H29274  11.210   7.095  -0.375  0.5606 -1.1116 -1.2952
  937MOL0     H29275  11.158   6.947  -0.438  1.3931  0.3459 -0.6999
  937MOL0     H29276  11.121   6.871  -0.198 -0.1323 -1.7792 -1.1716
  937MOL0     H29277  11.217   7.016  -0.152  0.7763 -0.3917  0.9099
  937MOL0     H29278  11.316   6.818  -0.362  0.6890  1.0966 -0.6634
  937MOL0     H29279  11.425   6.931  -0.277 -0.6712  1.9437 -1.0267
  937MOL0     H29280  11.307   6.682  -0.168 -1.1106  0.2256  1.2348
  937MOL0     H29281  11.352   6.827  -0.064  2.5810  0.7967  0.2019
  937MOL0     H29282  11.545   6.690  -0.043  0.7225  2.4061  0.8689
  937MOL0     H29283  11.592   6.801  -0.174  0.2466 -0.6685  0.8146
  937MOL0     H29284  11.527   6.659  -0.343  1.3539 -0.3069 -1.2288
  937MOL0     H29285  11.480   6.537  -0.228  1.5116 -0.8894  0.8335
  937MOL0     H29286  10.614   7.249  -0.076 -0.2488  2.1112  1.1591
  937MOL0     H29287  10.472   7.438  -0.143 -0.0289  2.0814  0.1561
  937MOL0     H29288  10.683   7.979  -0.342  0.4861  3.2275 -1.2870
  937MOL0     H29289  10.568   8.192  -0.324  2.0066 -0.8703 -2.3161
  937MOL0     H29290  10.856   8.672   0.971 -1.9972  0.3064  0.6849
  937MOL0     H29291  11.054   8.561   1.088 -1.3547  0.8516  1.1241
  937MOL0     H29292  11.380   8.415   1.197 -1.5646  2.1281 -0.1813
  937MOL0     H29293  11.556   8.324   1.305  0.7761 -0.2565  0.1575
  937MOL0     H29294  11.716   8.294   1.488  0.7476  2.2982 -0.3214
  937MOL0     H29295  11.789   8.275   1.322  0.5609  0.1595 -0.9909
  937MOL0     H29296  12.005   8.333   1.429  0.8941  0.6362  2.0469
  937MOL0     H29297  11.939   8.175   1.458  2.8038  0.1452  1.3935
  937MOL0     H29298  11.869   8.411   1.641  2.6396  2.1777 -2.2016
  937MOL0     H29299  11.871   8.236   1.682 -1.4601  0.9494  0.3508
  937MOL0     H29300  12.109   8.409   1.629  2.2061 -0.6935  0.6192
  937MOL0     H29301  12.111   8.233   1.657 -2.2120 -1.0082 -0.7055
  937MOL0     H29302  12.060   8.419   2.039 -0.8053  1.3080 -0.2358
  937MOL0     H29303  11.759   8.711   1.290 -0.0316  0.3919  1.9305
  937MOL0     H29304  11.477   8.883   1.213  0.3818 -2.1303  2.4803
  937MOL0     H29305  11.661   8.890   1.219 -1.5360 -0.1156  2.6209
  937MOL0     H29306  11.574   8.875   1.066 -1.2389 -1.9209 -0.6715
  938MOL0     O29307   3.819   2.030   7.961 -0.2343 -0.6339 -0.7036
  938MOL0     C29308   3.854   2.137   7.919 -0.2446  0.4122 -0.0264
  938MOL0     O29309   3.826   2.259   7.974  0.7427 -0.4118 -0.1292
  938MOL0     C29310   3.803   2.246   8.108 -0.7340 -0.6657  0.4267
  938MOL0     C29311   3.680   2.204   8.166  0.2717 -0.1074 -0.3009
  938MOL0     C29312   3.658   2.198   8.301  0.0233 -0.2457  0.3835
  938MOL0     C29313   3.764   2.235   8.389 -0.1266  0.1373  0.7716
  938MOL0     O29314   3.753   2.223   8.526 -0.4042 -0.6202 -0.0107
  938MOL0     C29315   3.692   2.334   8.600  0.7354  0.5949 -0.1812
  938MOL0     C29316   3.529   2.315   8.602 -0.5385 -0.5739 -0.1794
  938MOL0     C29317   3.484   2.170   8.643 -0.0743 -0.0996  0.1128
  938MOL0     C29318   3.444   2.157   8.788 -0.2246 -0.6758  0.1817
  938MOL0     C29319   3.400   2.019   8.815 -0.5161 -0.3010 -0.0701
  938MOL0     C29320   3.319   2.015   8.940 -0.6055 -0.3566  0.4670
  938MOL0     C29321   3.399   2.061   9.066  0.3026  0.0440 -0.4739
  938MOL0     C29322   3.312   2.042   9.197  0.0453 -0.5065 -0.8033
  938MOL0     N29323   3.373   2.114   9.308 -0.1932 -1.2140  0.6487
  938MOL0     C29324   3.371   2.247   9.323  0.3654  0.7338 -0.5675
  938MOL0     C29325   3.420   2.273   9.441  0.1044  0.1323 -0.2001
  938MOL0     C29326   3.465   2.399   9.496  0.3982  0.0527  0.1404
  938MOL0     C29327   3.371   2.443   9.602  0.3198 -0.2655 -0.6428
  938MOL0     C29328   3.443   2.529   9.711  0.3745  0.5715  0.6083
  938MOL0     C29329   3.353   2.548   9.835 -0.1832  0.3501 -0.1492
  938MOL0     O29330   3.229   2.584   9.789  0.3656  0.2457 -0.6147
  938MOL0     C29331   3.121   2.508   9.789  0.7535  0.4167 -0.3143
  938MOL0     C29332   3.008   2.571   9.735 -0.1725  0.2319  0.5678
  938MOL0     C29333   2.884   2.513   9.740 -0.1384 -0.2335  0.1143
  938MOL0     C29334   2.762   2.600   9.685 -1.3556  0.5116  0.1337
  938MOL0     C29335   2.869   2.375   9.788 -0.0182  1.1825  1.0076
  938MOL0     C29336   2.746   2.295   9.788  0.6159 -0.7200 -0.4757
  938MOL0     O29337   2.751   2.173   9.850  0.1518  0.2642 -0.2680
  938MOL0     C29338   2.631   2.105   9.868  1.3564  0.6701 -0.1514
  938MOL0     C29339   2.595   2.076   9.998  0.0670  0.0804  0.3468
  938MOL0     C29340   2.481   2.002  10.028 -0.5223  0.3408  0.0177
  938MOL0     C29341   2.397   1.950   9.929  0.5508  0.1998 -1.1393
  938MOL0     O29342   2.283   1.886   9.969  0.1483  0.2553 -0.4536
  938MOL0     C29343   2.198   1.816   9.877 -0.0458 -0.0177  0.0029
  938MOL0     C29344   2.262   1.675   9.877  0.1898  0.3067  0.7424
  938MOL0     C29345   2.176   1.582   9.778 -0.0113 -0.2503  0.7013
  938MOL0     C29346   2.232   1.451   9.761 -0.0698  0.0153 -0.4426
  938MOL0     C29347   2.140   1.345   9.688 -0.6572 -0.2364 -0.9647
  938MOL0     C29348   2.217   1.213   9.658  0.7840  0.8292  0.6353
  938MOL0     C29349   2.124   1.101   9.600 -0.7776 -0.0062 -0.8924
  938MOL0     C29350   1.970   1.113   9.638 -0.6723  0.0298  0.6584
  938MOL0    Cl29351   1.871   0.994   9.544 -0.3599  0.1321 -0.1774
  938MOL0     C29352   2.433   1.964   9.799 -0.6078  0.7006 -0.1763
  938MOL0     C29353   2.550   2.045   9.764  0.2284 -0.3673 -0.2603
  938MOL0     O29354   2.641   2.350   9.744  0.0387  0.8707  0.1573
  938MOL0     C29355   2.992   2.306   9.824  1.0011 -0.0550 -0.2869
  938MOL0     C29356   3.107   2.374   9.829  0.0189 -0.1082  0.2267
  938MOL0     N29357   3.453   2.150   9.496 -0.6800  0.5134  0.1860
  938MOL0     N29358   3.428   2.049   9.415 -0.8119  0.2959 -0.1057
  938MOL0     C29359   3.891   2.291   8.334 -0.3289 -1.1799 -0.6890
  938MOL0     C29360   3.904   2.287   8.193 -0.1654 -0.1380 -0.4416
  938MOL0     C29361   3.933   2.140   7.795  0.3970 -0.1062  0.4312
  938MOL0     C29362   3.940   2.020   7.722  0.0400  0.3613  0.3649
  938MOL0     C29363   4.002   2.020   7.588  0.4468 -0.4042 -1.2417
  938MOL0     C29364   4.074   2.126   7.547 -0.2815  0.8714  0.0505
  938MOL0     O29365   4.129   2.100   7.430  0.1274  0.4814  0.3311
  938MOL0     C29366   4.185   2.189   7.332  0.3386  0.2208  0.0812
  938MOL0     C29367   4.067   2.251   7.260  0.1386 -1.0366  0.0655
  938MOL0     C29368   4.001   2.135   7.171 -0.0064  0.7124 -0.4714
  938MOL0     C29369   3.845   2.148   7.137  0.2155  0.9655  0.6787
  938MOL0     C29370   3.806   2.069   7.025  0.4365  0.1593 -0.5463
  938MOL0     C29371   3.766   1.994   6.935 -0.1619 -1.0477  0.1941
  938MOL0     C29372   4.077   2.242   7.621  0.0117  0.3161 -0.2841
  938MOL0     C29373   4.008   2.251   7.744  0.4659 -0.9998 -1.4542
  938MOL0     C29374   4.032   2.384   7.812  1.1017 -0.6850  0.0227
  938MOL0     H29375   3.595   2.181   8.101 -1.7935 -0.4395  2.3571
  938MOL0     H29376   3.564   2.166   8.345 -1.0339  2.2231  0.0519
  938MOL0     H29377   3.726   2.429   8.556 -2.6458  4.0453  3.7592
  938MOL0     H29378   3.723   2.322   8.704 -3.6247 -0.4340  1.1776
  938MOL0     H29379   3.489   2.396   8.665 -0.0835 -1.4064  1.2188
  938MOL0     H29380   3.489   2.324   8.501  0.5443 -0.1258 -0.5888
  938MOL0     H29381   3.399   2.147   8.578  3.4286 -4.9445 -3.4520
  938MOL0     H29382   3.566   2.100   8.622  1.5959  2.2222 -1.5919
  938MOL0     H29383   3.534   2.179   8.847 -0.2515 -0.2063  0.0539
  938MOL0     H29384   3.368   2.230   8.817 -0.3247 -0.1402 -1.3207
  938MOL0     H29385   3.482   1.948   8.829 -1.0256 -0.7634  0.6554
  938MOL0     H29386   3.335   1.981   8.736 -0.4566 -2.4650  0.8758
  938MOL0     H29387   3.232   2.081   8.926 -0.2991 -0.0790 -0.1779
  938MOL0     H29388   3.277   1.915   8.957 -0.5465 -0.2584  1.2342
  938MOL0     H29389   3.432   2.164   9.052  0.6915  0.0349  0.3113
  938MOL0     H29390   3.490   2.001   9.072  0.6320  0.6444  1.0757
  938MOL0     H29391   3.221   2.093   9.164  0.3223  0.5838  0.0773
  938MOL0     H29392   3.295   1.935   9.217  1.6529 -1.0055 -1.9045
  938MOL0     H29393   3.340   2.321   9.250  1.3793  2.1964  0.4349
  938MOL0     H29394   3.492   2.469   9.417  3.1396  0.6496  1.4430
  938MOL0     H29395   3.555   2.370   9.551  0.3910  1.3309  0.8617
  938MOL0     H29396   3.294   2.495   9.544  1.1954 -0.6261 -2.2063
  938MOL0     H29397   3.317   2.364   9.656  2.1256 -0.7276  0.5655
  938MOL0     H29398   3.538   2.484   9.741 -0.7383 -1.8061  0.7667
  938MOL0     H29399   3.462   2.627   9.666 -0.5760 -0.4217 -2.1807
  938MOL0     H29400   3.354   2.454   9.891 -1.0727 -1.3770 -2.8606
  938MOL0     H29401   3.392   2.628   9.899  0.2236 -2.1551  3.0479
  938MOL0     H29402   3.023   2.675   9.708 -0.0442  0.4794  1.5620
  938MOL0     H29403   2.692   2.598   9.769 -1.8697  0.4585 -0.2932
  938MOL0     H29404   2.709   2.562   9.597  2.5599 -1.4286 -1.6449
  938MOL0     H29405   2.782   2.707   9.673 -3.2790  0.8502 -0.3683
  938MOL0     H29406   2.662   2.120  10.072 -0.1684 -1.8038  1.7629
  938MOL0     H29407   2.453   1.993  10.132  0.4059  2.1305  0.4618
  938MOL0     H29408   2.095   1.812   9.915 -1.1439 -0.2933 -2.7647
  938MOL0     H29409   2.193   1.872   9.783 -1.3466 -2.6494 -1.6093
  938MOL0     H29410   2.362   1.684   9.834 -0.6054  0.3821 -1.1931
  938MOL0     H29411   2.266   1.623   9.973  0.9592  1.1897  1.2099
  938MOL0     H29412   2.165   1.631   9.681  1.9303 -0.0325  0.5581
  938MOL0     H29413   2.077   1.589   9.823 -0.5840 -0.1637 -0.5340
  938MOL0     H29414   2.249   1.408   9.860  0.8592  0.7107 -0.2852
  938MOL0     H29415   2.329   1.456   9.712 -0.6331  3.0546 -1.4390
  938MOL0     H29416   2.054   1.329   9.753 -0.4784  0.9141 -0.4191
  938MOL0     H29417   2.102   1.388   9.595  0.2791 -1.6615 -2.0587
  938MOL0     H29418   2.267   1.174   9.747 -1.3194  4.5384  3.7683
  938MOL0     H29419   2.297   1.239   9.588  0.9568  1.9008  1.2216
  938MOL0     H29420   2.159   1.000   9.623 -0.6305  0.0627 -0.8199
  938MOL0     H29421   2.122   1.113   9.491  2.9548  2.6239 -0.8534
  938MOL0     H29422   1.920   1.205   9.605 -3.3168 -0.9917  1.5039
  938MOL0     H29423   1.960   1.100   9.746  0.1975  1.4499  0.9379
  938MOL0     H29424   2.375   1.919   9.719 -1.3196  0.6421  0.3679
  938MOL0     H29425   2.574   2.071   9.661 -2.4017  1.7606 -0.4460
  938MOL0     H29426   2.978   2.201   9.850 -0.2945  0.8883  3.3924
  938MOL0     H29427   3.196   2.316   9.854 -0.8308 -0.7716  1.8441
  938MOL0     H29428   3.964   2.327   8.406 -0.7207 -1.9142  0.0920
  938MOL0     H29429   3.993   2.307   8.133 -0.7767 -0.4704 -1.4739
  938MOL0     H29430   3.896   1.924   7.745 -1.4580  0.8599 -0.2400
  938MOL0     H29431   4.000   1.933   7.524  0.6810  1.0156 -3.2595
  938MOL0     H29432   4.243   2.273   7.371 -0.5921 -0.4400  3.1594
  938MOL0     H29433   4.252   2.134   7.265 -0.5241 -2.6395  1.4001
  938MOL0     H29434   4.095   2.339   7.200 -2.0746 -0.7616 -0.6335
  938MOL0     H29435   3.995   2.285   7.335 -0.3213 -1.6643 -0.0886
  938MOL0     H29436   4.056   2.129   7.076  1.5663  0.2829  0.4293
  938MOL0     H29437   4.010   2.038   7.221  3.3763  1.5167  0.7389
  938MOL0     H29438   3.819   2.251   7.109 -2.0834 -0.2369 -2.0992
  938MOL0     H29439   3.777   2.115   7.216 -1.0471  2.2874  0.1932
  938MOL0     H29440   3.719   1.935   6.859  1.2861 -0.4679 -1.2258
  938MOL0     H29441   4.143   2.320   7.584 -0.9549  1.8179  1.0333
  938MOL0     H29442   3.947   2.450   7.790  1.9133  1.2136  2.1954
  938MOL0     H29443   4.053   2.367   7.918 -1.5610  0.4886  0.8197
  938MOL0     H29444   4.118   2.441   7.775 -2.3077  3.9979 -1.7369
  939MOL0     O29445   1.124   5.674   2.920 -0.9115 -0.0659 -0.1294
  939MOL0     C29446   1.032   5.681   2.995 -0.5614 -0.4879  0.0348
  939MOL0     O29447   0.918   5.749   2.973 -0.3149  0.3038  0.2688
  939MOL0     C29448   0.931   5.836   2.867 -0.8317  0.3664  1.0824
  939MOL0     C29449   0.847   5.816   2.755 -0.3391  0.8511  0.2137
  939MOL0     C29450   0.840   5.901   2.645 -0.5242 -0.1480  0.7339
  939MOL0     C29451   0.906   6.025   2.672 -1.1130 -0.3841 -0.5401
  939MOL0     O29452   0.901   6.126   2.584  0.2138  0.1110  0.1285
  939MOL0     C29453   0.768   6.183   2.583  0.0087 -1.4995 -0.2549
  939MOL0     C29454   0.727   6.259   2.714  0.8768 -0.6703 -0.4798
  939MOL0     C29455   0.591   6.323   2.685  0.0131  0.6928 -0.0267
  939MOL0     C29456   0.566   6.443   2.761 -0.7525 -0.5221 -0.3609
  939MOL0     C29457   0.424   6.505   2.739 -0.2124  0.2917  0.9401
  939MOL0     C29458   0.422   6.646   2.806  0.9778 -0.9362  1.3734
  939MOL0     C29459   0.292   6.719   2.801  0.3916 -0.1670 -0.2516
  939MOL0     C29460   0.286   6.854   2.891  0.1085  0.1435  0.8626
  939MOL0     N29461   0.343   6.971   2.822  0.0999  0.2335  0.3412
  939MOL0     C29462   0.400   7.080   2.883  1.0124 -0.8069 -0.4170
  939MOL0     C29463   0.440   7.166   2.791 -0.0601 -0.2284 -0.0762
  939MOL0     C29464   0.508   7.293   2.822 -0.3680 -0.1289 -0.0091
  939MOL0     C29465   0.567   7.349   2.693  0.1836  0.0396 -0.4486
  939MOL0     C29466   0.637   7.481   2.731  1.2244 -0.2968 -0.2823
  939MOL0     C29467   0.701   7.555   2.621 -0.4599 -0.7283 -0.1792
  939MOL0     O29468   0.838   7.523   2.609  0.6522 -0.2387  0.9223
  939MOL0     C29469   0.911   7.603   2.511 -0.2691  0.0382 -0.4746
  939MOL0     C29470   0.862   7.632   2.388 -0.1594 -0.1465  0.0990
  939MOL0     C29471   0.946   7.707   2.297  0.2658  0.0554 -0.9915
  939MOL0     C29472   0.869   7.724   2.171  0.0766  0.0694  0.1951
  939MOL0     C29473   1.076   7.746   2.336 -0.6511  0.3439 -0.5273
  939MOL0     C29474   1.157   7.825   2.249  0.0951 -0.0223 -0.1111
  939MOL0     O29475   1.274   7.865   2.299  0.5662 -0.0563 -0.0481
  939MOL0     C29476   1.353   7.965   2.244  0.5391 -0.8712  0.2195
  939MOL0     C29477   1.406   7.957   2.117  0.2707  0.5780  0.2474
  939MOL0     C29478   1.499   8.041   2.069 -0.1928  0.0869  0.3160
  939MOL0     C29479   1.560   8.140   2.155  0.6111  0.3068  0.5208
  939MOL0     O29480   1.655   8.230   2.103 -0.5156 -0.4177 -0.4612
  939MOL0     C29481   1.749   8.178   2.015  0.3692 -0.3406 -0.0701
  939MOL0     C29482   1.890   8.171   2.075  0.4716  0.2390 -0.0791
  939MOL0     C29483   1.940   8.297   2.152  0.4566 -0.5462 -0.1857
  939MOL0     C29484   2.074   8.271   2.225  0.1154 -0.6606  0.1401
  939MOL0     C29485   2.138   8.402   2.260  0.0236 -0.0499  0.9622
  939MOL0     C29486   2.255   8.389   2.362 -0.0802  0.6804 -0.5750
  939MOL0     C29487   2.337   8.512   2.392  0.6013 -0.8340  0.1122
  939MOL0     C29488   2.424   8.561   2.272  1.2926 -0.0128 -0.4824
  939MOL0    Cl29489   2.585   8.611   2.327  0.1785 -0.0549 -0.2914
  939MOL0     C29490   1.511   8.145   2.288  0.0389 -0.2655 -0.0156
  939MOL0     C29491   1.405   8.061   2.325  0.0111 -0.3416  0.1420
  939MOL0     O29492   1.110   7.877   2.146  0.1834  0.5570 -0.2289
  939MOL0     C29493   1.121   7.709   2.468 -0.4176 -0.2472  0.3161
  939MOL0     C29494   1.038   7.649   2.555  0.4090  0.3778 -0.3948
  939MOL0     N29495   0.422   7.112   2.665  0.2595  0.6625 -0.3641
  939MOL0     N29496   0.373   6.988   2.687 -0.2356 -0.0502  0.1250
  939MOL0     C29497   0.999   6.039   2.778  0.0213 -0.6142  0.2799
  939MOL0     C29498   1.011   5.945   2.870 -0.7409  0.8963  0.0587
  939MOL0     C29499   1.043   5.607   3.129  0.4032 -0.4234 -0.1405
  939MOL0     C29500   0.927   5.609   3.212  0.1392 -0.1934  0.8422
  939MOL0     C29501   0.921   5.542   3.335 -0.1031 -0.4456 -0.1325
  939MOL0     C29502   1.030   5.480   3.385 -0.0910 -0.3905 -0.0125
  939MOL0     O29503   1.036   5.431   3.511  0.7251  0.1204  0.3548
  939MOL0     C29504   0.928   5.371   3.582 -0.1887  0.1884  0.0683
  939MOL0     C29505   0.919   5.218   3.571  0.5537 -0.5949 -0.0959
  939MOL0     C29506   0.786   5.186   3.633  0.5368 -0.6976 -0.1449
  939MOL0     C29507   0.769   5.039   3.621  1.2083 -0.6881 -0.4619
  939MOL0     C29508   0.643   4.995   3.673  0.2687 -0.1559  0.6746
  939MOL0     C29509   0.537   4.968   3.714 -0.5780  0.6827 -0.9553
  939MOL0     C29510   1.150   5.480   3.303 -1.3310 -0.0250  0.4443
  939MOL0     C29511   1.158   5.529   3.170  0.0646  0.5124 -1.3444
  939MOL0     C29512   1.279   5.508   3.083  0.4490  0.2516 -0.0404
  939MOL0     H29513   0.787   5.726   2.767  2.4124 -1.4877 -2.0887
  939MOL0     H29514   0.772   5.868   2.567 -1.6206 -0.8780  1.9430
  939MOL0     H29515   0.693   6.106   2.562 -2.1088  0.7813 -1.5046
  939MOL0     H29516   0.765   6.248   2.496 -2.0300 -0.2766  0.6576
  939MOL0     H29517   0.718   6.184   2.793 -0.0572 -0.2512 -0.1801
  939MOL0     H29518   0.799   6.334   2.745 -1.5774  0.9413  1.6642
  939MOL0     H29519   0.587   6.342   2.578 -0.3020 -0.5457 -0.2467
  939MOL0     H29520   0.505   6.261   2.713 -0.2199 -0.1769 -2.4660
  939MOL0     H29521   0.572   6.418   2.867  0.5421 -2.3432 -0.8180
  939MOL0     H29522   0.640   6.521   2.741 -1.9984  2.1320  4.0282
  939MOL0     H29523   0.351   6.441   2.789  0.3272  1.1144  2.8827
  939MOL0     H29524   0.396   6.511   2.634 -0.0390 -0.9853  0.8078
  939MOL0     H29525   0.457   6.643   2.910  2.5616 -1.5204  0.8520
  939MOL0     H29526   0.488   6.708   2.745  0.0202 -0.7038  0.5644
  939MOL0     H29527   0.207   6.653   2.821 -0.5618  0.8583 -0.7491
  939MOL0     H29528   0.290   6.739   2.693 -0.6121 -3.8855 -1.0496
  939MOL0     H29529   0.185   6.885   2.918 -0.5634 -0.0557 -1.2717
  939MOL0     H29530   0.337   6.851   2.988 -0.8123  0.7411  1.3811
  939MOL0     H29531   0.401   7.087   2.992 -1.6476 -2.7027 -0.1820
  939MOL0     H29532   0.581   7.266   2.899 -1.2350  0.2386  0.9684
  939MOL0     H29533   0.426   7.357   2.857 -0.0299  0.6300 -0.5799
  939MOL0     H29534   0.634   7.276   2.646 -1.9573 -2.0582 -0.3948
  939MOL0     H29535   0.486   7.362   2.621 -0.8747  0.1554  0.7401
  939MOL0     H29536   0.567   7.552   2.778  4.9585  2.7843  1.1559
  939MOL0     H29537   0.707   7.460   2.812  1.4543 -1.0865 -0.6759
  939MOL0     H29538   0.657   7.538   2.523  2.9503  4.2727 -3.0037
  939MOL0     H29539   0.684   7.661   2.638  0.9160 -0.5708  0.4125
  939MOL0     H29540   0.759   7.610   2.362 -0.1855 -1.7774  1.3970
  939MOL0     H29541   0.819   7.822   2.164  2.2901  1.1760 -1.3885
  939MOL0     H29542   0.794   7.646   2.159  0.4332 -0.0325 -1.6821
  939MOL0     H29543   0.937   7.703   2.088  1.7373  1.6378  1.0955
  939MOL0     H29544   1.366   7.878   2.054  0.7583 -0.9075  1.7370
  939MOL0     H29545   1.532   8.016   1.969 -1.2306  3.8615 -1.1266
  939MOL0     H29546   1.718   8.078   1.984  0.7493 -0.7613  0.8672
  939MOL0     H29547   1.739   8.244   1.928 -4.1890  1.7005  1.7235
  939MOL0     H29548   1.897   8.086   2.144  0.2553  1.3446  1.3342
  939MOL0     H29549   1.959   8.145   1.994  0.5409 -1.4165  0.4683
  939MOL0     H29550   1.866   8.328   2.228 -0.3847 -0.0367 -1.1870
  939MOL0     H29551   1.951   8.368   2.070  0.8274 -1.2017 -0.7063
  939MOL0     H29552   2.134   8.207   2.160  0.9615  1.2154 -1.0245
  939MOL0     H29553   2.051   8.221   2.319 -1.3741  1.0691  0.7661
  939MOL0     H29554   2.174   8.441   2.165  0.4029 -0.3662  0.9762
  939MOL0     H29555   2.063   8.472   2.299 -2.8994 -2.3011 -0.2108
  939MOL0     H29556   2.317   8.308   2.323 -1.0372  0.9705 -2.8499
  939MOL0     H29557   2.220   8.361   2.462  2.6024 -0.1723  0.2098
  939MOL0     H29558   2.413   8.490   2.468  2.0325 -1.2703 -1.3698
  939MOL0     H29559   2.267   8.592   2.418 -0.6055 -0.8250 -2.8420
  939MOL0     H29560   2.363   8.630   2.213 -1.4667 -2.2869 -0.4969
  939MOL0     H29561   2.442   8.470   2.213  2.2620 -1.6282  2.1111
  939MOL0     H29562   1.564   8.213   2.353  2.6650 -1.7520 -0.4324
  939MOL0     H29563   1.380   8.065   2.431  0.2510  1.1377  0.1679
  939MOL0     H29564   1.214   7.748   2.507 -1.6434  2.1562  1.0513
  939MOL0     H29565   1.069   7.619   2.655  2.6857 -1.4074 -1.5572
  939MOL0     H29566   1.053   6.133   2.768 -1.0561  0.3878  3.0932
  939MOL0     H29567   1.073   5.950   2.960 -0.8222  3.3848  0.0527
  939MOL0     H29568   0.833   5.649   3.175  0.3699  0.1062  0.5717
  939MOL0     H29569   0.822   5.566   3.372  0.0628 -0.9814  0.6633
  939MOL0     H29570   0.941   5.405   3.685 -1.7903  3.5931 -0.6916
  939MOL0     H29571   0.836   5.418   3.544  0.7575  0.8999 -1.4475
  939MOL0     H29572   1.001   5.170   3.625  0.2775 -2.9103 -1.5984
  939MOL0     H29573   0.926   5.190   3.466 -1.4524  2.4122 -1.1703
  939MOL0     H29574   0.793   5.219   3.737 -0.5313  1.9731 -0.8306
  939MOL0     H29575   0.692   5.230   3.598 -1.5121 -2.7498  2.3829
  939MOL0     H29576   0.854   4.987   3.667 -0.1082 -0.9513  1.8093
  939MOL0     H29577   0.770   5.004   3.517  2.6958 -2.5787  0.1317
  939MOL0     H29578   0.437   4.938   3.736  0.1628 -0.3268  1.3812
  939MOL0     H29579   1.230   5.429   3.355 -4.4093 -1.4154  4.3578
  939MOL0     H29580   1.321   5.602   3.048  2.8036 -0.9440 -0.6402
  939MOL0     H29581   1.352   5.462   3.150 -3.2538 -1.2807  3.4020
  939MOL0     H29582   1.243   5.438   3.007 -4.1987  2.6203 -0.3531
  940MOL0     O29583   2.955   8.279   9.462 -0.0025  0.3710 -0.1283
  940MOL0     C29584   3.010   8.388   9.473  0.1827  0.1141 -0.3121
  940MOL0     O29585   3.113   8.417   9.564  1.0089  0.4075  0.6992
  940MOL0     C29586   3.136   8.322   9.663  0.1237  0.0207 -0.9017
  940MOL0     C29587   3.062   8.326   9.779  0.8045 -1.1883 -0.2033
  940MOL0     C29588   3.065   8.243   9.884 -0.9286  0.2425 -0.2288
  940MOL0     C29589   3.167   8.138   9.881 -0.8889 -0.6627 -0.5659
  940MOL0     O29590   3.183   8.063   9.992  0.2063 -0.5258 -0.7591
  940MOL0     C29591   3.297   8.004  10.035 -0.7921  0.2436 -1.2996
  940MOL0     C29592   3.408   8.102  10.080 -0.0341 -0.1741  0.2485
  940MOL0     C29593   3.384   8.154  10.229 -0.3730  0.2254  0.1352
  940MOL0     C29594   3.275   8.258  10.244 -0.6510 -0.2560  0.0654
  940MOL0     C29595   3.288   8.391  10.171 -0.4117 -0.4211 -0.1185
  940MOL0     C29596   3.172   8.480  10.165  0.1451 -0.7300 -0.4452
  940MOL0     C29597   3.187   8.571  10.032  0.5700  0.1017 -0.1850
  940MOL0     C29598   3.092   8.698  10.024 -0.3380 -0.0469 -0.2510
  940MOL0     N29599   3.088   8.770   9.889 -0.4137 -0.0797 -0.2808
  940MOL0     C29600   3.073   8.904   9.873 -0.1061 -0.7485  0.0204
  940MOL0     C29601   3.066   8.918   9.730 -0.2262 -0.5437 -0.3644
  940MOL0     C29602   3.046   9.048   9.659  0.2973  0.2694 -0.1631
  940MOL0     C29603   3.177   9.088   9.593 -1.0284 -0.0434  0.8856
  940MOL0     C29604   3.291   9.133   9.674  0.3443 -1.0973 -1.1279
  940MOL0     C29605   3.429   9.107   9.601  0.1525  0.0150  0.6478
  940MOL0     O29606   3.508   9.011   9.671 -0.0521 -0.4004  0.4535
  940MOL0     C29607   3.532   8.891   9.618 -0.1865  0.2085  0.2632
  940MOL0     C29608   3.464   8.783   9.650 -0.8767 -1.2517 -0.4972
  940MOL0     C29609   3.515   8.653   9.627 -0.0118  0.0368 -1.0022
  940MOL0     C29610   3.435   8.539   9.683  0.2876 -0.3978 -0.5333
  940MOL0     C29611   3.648   8.638   9.566  0.0680  0.2029  0.0569
  940MOL0     C29612   3.708   8.518   9.536 -0.5135  0.0360 -0.5298
  940MOL0     O29613   3.633   8.427   9.474 -0.0109 -0.1022  0.2437
  940MOL0     C29614   3.662   8.295   9.472 -0.0110 -0.6745 -0.9515
  940MOL0     C29615   3.750   8.236   9.572  0.5775  0.6329 -0.8143
  940MOL0     C29616   3.778   8.100   9.572 -0.0860 -0.1787  0.2634
  940MOL0     C29617   3.724   8.019   9.477  0.4258 -0.9138  0.1846
  940MOL0     O29618   3.773   7.890   9.467  0.4083 -0.3718 -0.8163
  940MOL0     C29619   3.906   7.862   9.415 -0.5927 -0.4498 -0.1130
  940MOL0     C29620   3.936   7.901   9.273  0.7473 -1.2001 -0.7766
  940MOL0     C29621   3.899   7.799   9.176  0.6261  0.4173 -0.5374
  940MOL0     C29622   3.900   7.846   9.039 -0.0028 -0.4619  1.0653
  940MOL0     C29623   3.993   7.775   8.947 -0.5556  0.2714 -1.0369
  940MOL0     C29624   4.030   7.846   8.818  0.1166 -0.1907  0.4599
  940MOL0     C29625   3.915   7.839   8.712 -1.1762 -0.1816  0.7872
  940MOL0     C29626   3.987   7.874   8.572 -0.2097 -0.2392  0.1721
  940MOL0    Cl29627   4.105   8.014   8.572  0.0137  0.5426 -0.2115
  940MOL0     C29628   3.628   8.070   9.382  0.5945  0.5396 -0.6049
  940MOL0     C29629   3.603   8.208   9.381 -0.5356  0.4678 -1.2090
  940MOL0     O29630   3.830   8.512   9.550  0.2885 -0.6800 -0.5895
  940MOL0     C29631   3.705   8.761   9.515 -0.0164  0.1330  0.7817
  940MOL0     C29632   3.648   8.887   9.535  0.7499  0.6560 -0.0882
  940MOL0     N29633   3.089   8.798   9.676 -0.5581 -0.4521  0.2769
  940MOL0     N29634   3.102   8.709   9.768 -0.2358 -0.7849 -0.0359
  940MOL0     C29635   3.252   8.140   9.772  0.5157 -0.1114 -0.1109
  940MOL0     C29636   3.236   8.226   9.660  0.2422 -0.5973  0.2253
  940MOL0     C29637   2.962   8.494   9.372  0.5889  0.7173  1.1385
  940MOL0     C29638   2.999   8.624   9.404 -0.0252 -0.5255  0.5249
  940MOL0     C29639   2.961   8.730   9.321 -1.4970 -0.2583  0.3515
  940MOL0     C29640   2.887   8.708   9.200 -0.2279  0.9169 -0.0653
  940MOL0     O29641   2.866   8.818   9.116  0.0875  0.9862 -0.9173
  940MOL0     C29642   2.794   8.807   8.996  0.7982 -0.9203 -0.0254
  940MOL0     C29643   2.640   8.794   9.018  0.1130 -0.3311  0.7256
  940MOL0     C29644   2.585   8.926   9.056  0.4920  0.5159 -0.6168
  940MOL0     C29645   2.429   8.950   9.072 -0.2009  0.2153 -0.0883
  940MOL0     C29646   2.379   8.870   9.186  0.0776  1.0272 -0.4479
  940MOL0     C29647   2.338   8.799   9.276  1.0251  0.6124 -0.3150
  940MOL0     C29648   2.864   8.575   9.165  0.3682  1.1104  0.4568
  940MOL0     C29649   2.890   8.463   9.256  0.4872 -1.3022  0.8389
  940MOL0     C29650   2.846   8.325   9.204  0.5086 -0.1595  0.0606
  940MOL0     H29651   2.983   8.401   9.781 -3.0301 -4.8894 -0.2841
  940MOL0     H29652   3.005   8.248   9.974  1.1709 -3.1983  1.5859
  940MOL0     H29653   3.335   7.947   9.950 -0.5395 -0.9808 -0.4031
  940MOL0     H29654   3.282   7.931  10.115  0.0391 -0.9213 -2.1807
  940MOL0     H29655   3.502   8.047  10.085  1.0969  1.7717  1.7057
  940MOL0     H29656   3.414   8.190  10.015  0.5395  2.7448  3.8930
  940MOL0     H29657   3.367   8.065  10.291  1.4771 -1.5146 -1.7100
  940MOL0     H29658   3.473   8.200  10.274  0.9638 -1.3810 -0.7423
  940MOL0     H29659   3.184   8.211  10.206 -1.9027 -0.5136  3.0897
  940MOL0     H29660   3.250   8.270  10.350  0.7489 -0.3204  0.4219
  940MOL0     H29661   3.318   8.360  10.070 -0.6523  1.5268 -0.8435
  940MOL0     H29662   3.368   8.457  10.206  0.0192 -0.2403 -1.4001
  940MOL0     H29663   3.081   8.420  10.159 -0.9284  0.4739  2.0960
  940MOL0     H29664   3.179   8.540  10.257  5.5952 -3.1908  1.1948
  940MOL0     H29665   3.170   8.505   9.946 -2.4305  1.8715 -1.1089
  940MOL0     H29666   3.291   8.601  10.019  0.2051  1.4660 -0.2189
  940MOL0     H29667   2.987   8.669  10.038 -0.4040  0.2717 -0.0758
  940MOL0     H29668   3.121   8.760  10.109  1.8051 -0.7288 -0.4240
  940MOL0     H29669   3.069   8.978   9.952  0.1377 -3.0629  2.3117
  940MOL0     H29670   3.018   9.119   9.737 -0.6270  0.4716 -0.6585
  940MOL0     H29671   2.965   9.028   9.588 -0.6320  1.3908  0.5462
  940MOL0     H29672   3.201   9.007   9.523 -2.7316  2.5467 -3.0508
  940MOL0     H29673   3.157   9.167   9.521  0.4417  0.4951  1.0490
  940MOL0     H29674   3.286   9.239   9.697 -1.8017 -1.5470  0.8829
  940MOL0     H29675   3.304   9.083   9.771  3.1022  2.1160  0.3391
  940MOL0     H29676   3.418   9.088   9.494 -0.4052  2.5891  0.1754
  940MOL0     H29677   3.484   9.202   9.603 -1.9997  1.3311  1.4282
  940MOL0     H29678   3.373   8.799   9.707 -0.1805  2.0705 -0.1392
  940MOL0     H29679   3.384   8.486   9.602 -2.0096  2.1725 -0.9356
  940MOL0     H29680   3.357   8.581   9.748 -0.0205  1.0886 -1.7978
  940MOL0     H29681   3.492   8.478   9.754  0.4785  1.0950  0.6540
  940MOL0     H29682   3.794   8.302   9.646 -1.2307  1.6946 -0.6320
  940MOL0     H29683   3.852   8.044   9.628  0.7947  1.6681  1.0453
  940MOL0     H29684   3.983   7.912   9.475 -2.5613  1.8582  0.6696
  940MOL0     H29685   3.929   7.755   9.421  0.8733 -0.1462  0.1186
  940MOL0     H29686   3.891   7.996   9.243  3.4618  0.9542  1.5036
  940MOL0     H29687   4.039   7.935   9.260  0.4336 -0.5292 -1.6448
  940MOL0     H29688   3.803   7.755   9.206  2.3010 -2.0840  1.6157
  940MOL0     H29689   3.976   7.722   9.179  0.1236 -0.0514  1.5285
  940MOL0     H29690   3.915   7.955   9.041 -2.8705  0.0365  3.9891
  940MOL0     H29691   3.797   7.840   9.001  0.3382  0.9761 -0.2004
  940MOL0     H29692   4.082   7.750   9.007 -1.5863 -0.7517  0.1200
  940MOL0     H29693   3.941   7.682   8.923 -0.7172  0.2942 -0.7778
  940MOL0     H29694   4.112   7.793   8.770  2.3504  2.3272  1.2575
  940MOL0     H29695   4.057   7.950   8.837  0.7485 -0.2415 -0.1323
  940MOL0     H29696   3.833   7.908   8.736 -0.9126  0.1881  0.6259
  940MOL0     H29697   3.880   7.735   8.710 -5.0743  0.9638  1.3856
  940MOL0     H29698   3.907   7.895   8.501  0.1905 -0.8951 -0.4907
  940MOL0     H29699   4.046   7.792   8.529  0.4631  0.5411 -0.4216
  940MOL0     H29700   3.571   8.003   9.319 -2.2240 -1.3320  3.5190
  940MOL0     H29701   3.522   8.244   9.319 -2.3037 -0.0897  0.6340
  940MOL0     H29702   3.805   8.764   9.473 -0.5957  1.7761 -0.5799
  940MOL0     H29703   3.707   8.973   9.505 -1.4270  2.8561  1.6008
  940MOL0     H29704   3.327   8.065   9.749  1.5480  0.5710  0.8959
  940MOL0     H29705   3.301   8.231   9.573  0.4022 -1.1994  0.3066
  940MOL0     H29706   3.048   8.639   9.499 -2.1747 -0.6955  1.7136
  940MOL0     H29707   2.982   8.835   9.341  0.0490 -0.0996 -1.7804
  940MOL0     H29708   2.814   8.892   8.930  0.1529 -0.3874  0.4535
  940MOL0     H29709   2.814   8.709   8.951  1.4897 -0.5102 -0.6188
  940MOL0     H29710   2.622   8.724   9.101  2.3303  0.5262  2.0336
  940MOL0     H29711   2.599   8.755   8.924  0.9291  0.2861  0.1037
  940MOL0     H29712   2.635   8.951   9.150 -0.3860 -0.6670  0.1931
  940MOL0     H29713   2.612   8.989   8.970 -3.7516 -0.6788 -3.1422
  940MOL0     H29714   2.373   8.924   8.982  2.5257  0.6293 -2.0281
  940MOL0     H29715   2.406   9.054   9.095  2.0324  1.1562 -1.7655
  940MOL0     H29716   2.284   8.726   9.333 -1.0900  1.6630 -0.8432
  940MOL0     H29717   2.833   8.543   9.067 -1.4025 -0.0661  1.3449
  940MOL0     H29718   2.767   8.337   9.130 -3.1339 -1.5695  3.3625
  940MOL0     H29719   2.930   8.266   9.167 -0.7766 -1.9639 -0.1153
  940MOL0     H29720   2.800   8.266   9.284 -2.2494  0.8440 -0.6786
  941MOL0     O29721   6.603   7.709   2.780 -0.1357 -0.4335  0.3710
  941MOL0     C29722   6.718   7.705   2.728  0.0320 -0.3679  0.2318
  941MOL0     O29723   6.808   7.609   2.760  0.3773  0.4061 -0.0193
  941MOL0     C29724   6.763   7.496   2.839 -0.1867  0.1261  0.5644
  941MOL0     C29725   6.765   7.362   2.788 -0.4839  0.0492 -0.2038
  941MOL0     C29726   6.729   7.254   2.869  0.1971  0.5459 -0.5429
  941MOL0     C29727   6.701   7.286   3.003  0.3068 -0.0865 -0.3973
  941MOL0     O29728   6.665   7.177   3.080  0.3659 -0.3307 -0.6318
  941MOL0     C29729   6.541   7.110   3.045 -0.5568  0.3155  0.3857
  941MOL0     C29730   6.513   6.998   3.148  0.3194  0.5576 -0.0081
  941MOL0     C29731   6.468   7.055   3.282  0.0139 -0.3638  0.0710
  941MOL0     C29732   6.444   6.943   3.381  0.5674  0.0584 -0.1855
  941MOL0     C29733   6.351   6.975   3.496 -0.1629 -0.3540  0.8843
  941MOL0     C29734   6.381   7.104   3.567  0.3259  0.0066 -0.3613
  941MOL0     C29735   6.311   7.092   3.707 -0.6298 -0.6256 -0.1997
  941MOL0     C29736   6.303   7.237   3.752  0.9106 -0.2924 -0.0411
  941MOL0     N29737   6.333   7.241   3.900 -0.3525 -0.2504 -0.1012
  941MOL0     C29738   6.455   7.298   3.938  0.4030  0.5581  0.0488
  941MOL0     C29739   6.424   7.344   4.063  0.6501 -0.1184  0.7848
  941MOL0     C29740   6.536   7.390   4.149 -0.2312  0.2742  0.1807
  941MOL0     C29741   6.526   7.333   4.293 -0.4475 -0.8355  0.8262
  941MOL0     C29742   6.422   7.403   4.380  0.6979  0.0165 -0.2510
  941MOL0     C29743   6.404   7.327   4.509  0.2791  0.5616 -0.1014
  941MOL0     O29744   6.517   7.294   4.587 -0.0966 -0.1090 -0.0031
  941MOL0     C29745   6.571   7.391   4.675  0.7522 -0.7239 -0.4384
  941MOL0     C29746   6.543   7.530   4.672  0.8559 -0.7614 -0.2683
  941MOL0     C29747   6.610   7.626   4.765  0.4582 -0.1033  0.1598
  941MOL0     C29748   6.568   7.767   4.786  0.1016  0.1860  0.0018
  941MOL0     C29749   6.718   7.578   4.847  0.3233  0.0822  0.1168
  941MOL0     C29750   6.800   7.654   4.946 -0.4252  0.2867 -1.0240
  941MOL0     O29751   6.868   7.586   5.042 -0.7923  0.3406  0.5370
  941MOL0     C29752   6.958   7.656   5.131 -0.0176 -0.1268  0.4455
  941MOL0     C29753   6.962   7.609   5.264  0.1379 -0.9583 -0.6217
  941MOL0     C29754   7.044   7.673   5.351 -0.6022 -0.8007  0.0538
  941MOL0     C29755   7.135   7.772   5.314  0.2099 -0.7734  0.6903
  941MOL0     O29756   7.232   7.837   5.391 -0.3575  0.5368  1.3164
  941MOL0     C29757   7.273   7.762   5.497  0.4074  0.4154 -0.4943
  941MOL0     C29758   7.416   7.781   5.549 -0.8595 -0.2286 -0.4568
  941MOL0     C29759   7.426   7.861   5.680 -1.0645 -0.6164 -0.0502
  941MOL0     C29760   7.484   8.007   5.656  0.4179 -0.1675 -0.1562
  941MOL0     C29761   7.471   8.087   5.790 -0.1315 -0.0697 -0.5866
  941MOL0     C29762   7.512   8.228   5.767  0.3065  0.1034 -0.5244
  941MOL0     C29763   7.426   8.308   5.664  0.1405 -0.6159  0.8513
  941MOL0     C29764   7.479   8.450   5.667  0.6893  0.2498  0.2132
  941MOL0    Cl29765   7.510   8.523   5.846  0.1495 -0.1109 -0.3091
  941MOL0     C29766   7.125   7.819   5.186 -0.3009 -1.0390  0.5036
  941MOL0     C29767   7.050   7.760   5.088  1.0642 -0.6373  0.2204
  941MOL0     O29768   6.809   7.771   4.925 -0.8854  0.0721 -0.9279
  941MOL0     C29769   6.742   7.439   4.850  0.2150 -0.0200 -0.0094
  941MOL0     C29770   6.666   7.347   4.766  0.6382 -0.2890 -0.4963
  941MOL0     N29771   6.294   7.314   4.095 -1.1635  1.2338 -0.1692
  941MOL0     N29772   6.241   7.245   3.992  0.2039  0.5055  0.3019
  941MOL0     C29773   6.712   7.412   3.059 -0.4470  0.1098  0.1253
  941MOL0     C29774   6.747   7.521   2.978 -0.9889 -0.2836  0.5682
  941MOL0     C29775   6.758   7.803   2.625 -0.0351 -0.9130  0.3173
  941MOL0     C29776   6.894   7.794   2.592  0.0516 -0.5849  0.1706
  941MOL0     C29777   6.951   7.891   2.508 -0.2976  0.5890 -0.3637
  941MOL0     C29778   6.867   7.980   2.438 -0.1609  0.4995  0.0523
  941MOL0     O29779   6.915   8.068   2.346 -0.5887 -0.0486 -0.0821
  941MOL0     C29780   7.048   8.057   2.292 -1.1813  1.0165  0.0011
  941MOL0     C29781   7.055   8.167   2.183  0.5144 -0.7616 -0.3189
  941MOL0     C29782   6.964   8.153   2.067  0.3406  0.4083 -0.3962
  941MOL0     C29783   6.992   8.033   1.984 -0.0148 -0.1962 -0.1160
  941MOL0     C29784   6.903   8.041   1.866 -0.4131 -0.1837 -0.1687
  941MOL0     C29785   6.827   8.056   1.777 -0.1191  0.0669  0.2688
  941MOL0     C29786   6.732   7.988   2.460  0.2428  0.4731  0.4312
  941MOL0     C29787   6.677   7.906   2.558  0.0084 -0.2173 -0.4619
  941MOL0     C29788   6.525   7.934   2.590 -0.1890  0.4723 -0.8359
  941MOL0     H29789   6.797   7.332   2.689 -0.1959 -1.8986  0.4386
  941MOL0     H29790   6.735   7.154   2.827 -0.5771  1.6501 -3.5538
  941MOL0     H29791   6.551   7.071   2.943 -1.8041  0.7278  0.0857
  941MOL0     H29792   6.458   7.182   3.045 -2.5263 -1.7263  3.2792
  941MOL0     H29793   6.425   6.941   3.118 -1.3859  3.5528 -1.0712
  941MOL0     H29794   6.601   6.937   3.171  0.7782  1.2564  0.1211
  941MOL0     H29795   6.536   7.129   3.326  1.3775 -1.5019 -0.0259
  941MOL0     H29796   6.371   7.101   3.264  1.4036  2.2502 -1.3425
  941MOL0     H29797   6.416   6.847   3.336 -2.6672 -0.2937  2.2179
  941MOL0     H29798   6.544   6.931   3.424  0.4380  1.3147  0.5188
  941MOL0     H29799   6.363   6.890   3.564  3.5990 -1.8175 -1.3469
  941MOL0     H29800   6.253   6.974   3.447  1.9581 -1.9602 -3.9060
  941MOL0     H29801   6.487   7.119   3.585  0.2877 -1.3317  1.2623
  941MOL0     H29802   6.347   7.187   3.503  1.2359  1.2323  0.6990
  941MOL0     H29803   6.377   7.028   3.766  0.0717 -2.3089 -2.6366
  941MOL0     H29804   6.215   7.043   3.688 -0.5758 -0.2834 -1.4864
  941MOL0     H29805   6.374   7.304   3.703  0.4956  0.5408  0.4780
  941MOL0     H29806   6.203   7.273   3.726 -0.0052 -1.7881  1.2176
  941MOL0     H29807   6.555   7.302   3.895 -0.1653  0.3835 -1.3548
  941MOL0     H29808   6.528   7.499   4.153 -0.4366  0.3402 -1.4672
  941MOL0     H29809   6.633   7.358   4.109 -0.3785 -2.0355  1.4909
  941MOL0     H29810   6.511   7.228   4.267  0.1348 -0.7185 -0.0339
  941MOL0     H29811   6.623   7.357   4.338 -0.8647 -0.9300  1.7977
  941MOL0     H29812   6.458   7.505   4.396  0.8763  0.0994 -1.1248
  941MOL0     H29813   6.327   7.413   4.326  0.1649 -2.5929  0.0549
  941MOL0     H29814   6.329   7.370   4.576  0.4093  4.9836 -2.4432
  941MOL0     H29815   6.365   7.230   4.478  0.5715  1.4972 -3.8929
  941MOL0     H29816   6.474   7.570   4.599 -1.4696 -1.0731  1.6164
  941MOL0     H29817   6.478   7.784   4.727 -0.2800  0.1950  0.5717
  941MOL0     H29818   6.645   7.835   4.750  0.7404 -1.0778 -1.1203
  941MOL0     H29819   6.542   7.798   4.888 -0.1339  0.7454 -0.2254
  941MOL0     H29820   6.892   7.536   5.303 -0.2538 -1.3777 -2.0643
  941MOL0     H29821   7.055   7.634   5.452  0.8804  1.1605  0.7191
  941MOL0     H29822   7.195   7.768   5.575  0.3569 -1.1662 -0.3966
  941MOL0     H29823   7.269   7.657   5.470 -0.5510  0.5402 -0.8751
  941MOL0     H29824   7.441   7.677   5.573  1.8689  0.2995 -0.7797
  941MOL0     H29825   7.495   7.822   5.486  2.1137  0.4843  3.3349
  941MOL0     H29826   7.501   7.817   5.747  1.2090  3.0769  0.0950
  941MOL0     H29827   7.329   7.873   5.729 -0.6520  0.1495  0.6001
  941MOL0     H29828   7.420   8.050   5.579  0.0964 -0.7491 -0.2191
  941MOL0     H29829   7.579   8.005   5.602  0.3596  1.4107 -0.3668
  941MOL0     H29830   7.370   8.102   5.828  0.9353  1.5330  1.8591
  941MOL0     H29831   7.529   8.035   5.866 -0.4885  1.1026  0.5119
  941MOL0     H29832   7.617   8.226   5.738  1.3103 -0.5078  2.7186
  941MOL0     H29833   7.511   8.268   5.869  2.3014 -1.2281  0.0761
  941MOL0     H29834   7.322   8.303   5.699 -0.7652  0.1218 -1.4888
  941MOL0     H29835   7.428   8.267   5.563  0.7288 -3.5587  1.9500
  941MOL0     H29836   7.414   8.518   5.612 -0.1706 -0.9407 -0.2747
  941MOL0     H29837   7.574   8.456   5.613  0.4314 -2.7602 -0.7822
  941MOL0     H29838   7.188   7.906   5.173  0.3608 -1.6275 -0.3178
  941MOL0     H29839   7.052   7.787   4.983 -0.0125 -0.1669  0.3056
  941MOL0     H29840   6.819   7.404   4.917  0.7185  3.5942  1.5409
  941MOL0     H29841   6.685   7.241   4.751  1.1342 -0.3049  0.1878
  941MOL0     H29842   6.699   7.421   3.167 -0.2047  0.3622  0.1335
  941MOL0     H29843   6.770   7.624   3.005  0.3409 -0.2973 -0.3874
  941MOL0     H29844   6.959   7.718   2.633  1.4883  1.1046  1.1634
  941MOL0     H29845   7.054   7.872   2.479 -0.2396 -1.0210  0.7744
  941MOL0     H29846   7.127   8.054   2.368 -1.0897 -1.1248 -0.1407
  941MOL0     H29847   7.060   7.963   2.237  0.0192  1.6128 -0.8091
  941MOL0     H29848   7.160   8.180   2.155  0.7665  1.6646  1.4621
  941MOL0     H29849   7.025   8.258   2.235  2.0216 -0.6695  0.4394
  941MOL0     H29850   6.862   8.146   2.105 -0.2685 -5.7884 -2.1284
  941MOL0     H29851   6.977   8.237   1.998 -0.9107  0.2760 -0.8105
  941MOL0     H29852   6.977   7.935   2.030  0.9363 -0.1240  0.3638
  941MOL0     H29853   7.098   8.035   1.955  0.0979 -2.3908 -0.0187
  941MOL0     H29854   6.748   8.067   1.705 -0.2416  2.3651  0.6700
  941MOL0     H29855   6.678   8.052   2.391 -1.8376 -2.2970 -0.7069
  941MOL0     H29856   6.510   7.947   2.697  0.2586 -0.5797 -0.6273
  941MOL0     H29857   6.498   8.028   2.540  0.7998 -0.3677 -3.1110
  941MOL0     H29858   6.469   7.847   2.554 -0.0871 -1.8096  3.7901
  942MOL0     O29859   3.847   3.434   2.698  0.1343 -0.5556 -0.2760
  942MOL0     C29860   3.857   3.555   2.733 -0.3033  0.2430 -0.5668
  942MOL0     O29861   3.923   3.603   2.847  0.1295 -0.4350  0.4142
  942MOL0     C29862   3.943   3.513   2.952  0.8334  0.8377 -0.1440
  942MOL0     C29863   3.858   3.412   2.992 -0.4304  0.1533  0.0143
  942MOL0     C29864   3.870   3.345   3.110  0.2982 -0.7254 -0.5981
  942MOL0     C29865   3.983   3.352   3.191  0.1783 -0.2656  0.4333
  942MOL0     O29866   3.990   3.274   3.297 -0.0909  0.2769 -0.3709
  942MOL0     C29867   4.118   3.270   3.362  0.0902  0.5231  0.4397
  942MOL0     C29868   4.100   3.181   3.484  0.5069 -1.1316  0.3585
  942MOL0     C29869   4.097   3.031   3.459  0.5117 -0.0332  0.2291
  942MOL0     C29870   4.228   2.974   3.396  1.3056  0.0403 -0.9505
  942MOL0     C29871   4.200   2.823   3.363 -0.4425 -0.8323  0.0573
  942MOL0     C29872   4.143   2.743   3.483  0.0169  0.3724 -0.2606
  942MOL0     C29873   4.166   2.589   3.470 -0.4679 -0.1776 -0.9865
  942MOL0     C29874   4.312   2.533   3.468  0.9400  0.2759 -0.2200
  942MOL0     N29875   4.363   2.534   3.611 -0.2738 -0.4035 -0.3837
  942MOL0     C29876   4.337   2.445   3.703  0.2285 -0.1309 -0.1228
  942MOL0     C29877   4.378   2.511   3.817  0.1712 -0.9690  0.1873
  942MOL0     C29878   4.358   2.456   3.955 -0.3864 -0.1657  0.3113
  942MOL0     C29879   4.249   2.513   4.046  0.1009  0.1883  0.4262
  942MOL0     C29880   4.107   2.464   4.003 -1.3289 -0.8542 -0.6007
  942MOL0     C29881   4.077   2.315   4.015 -0.1218 -0.3551  0.1615
  942MOL0     O29882   3.943   2.290   3.966  0.0360 -0.0476  0.1505
  942MOL0     C29883   3.922   2.303   3.829  1.2222 -0.1716  0.4735
  942MOL0     C29884   3.820   2.395   3.785 -0.0712 -1.3370 -0.2506
  942MOL0     C29885   3.779   2.409   3.654  0.5791  0.2749 -0.0578
  942MOL0     C29886   3.661   2.498   3.622 -0.0386 -0.1660 -0.0111
  942MOL0     C29887   3.846   2.331   3.556 -0.0440  0.7527  0.3133
  942MOL0     C29888   3.810   2.330   3.406  0.2168  0.0324  0.5161
  942MOL0     O29889   3.840   2.216   3.333  0.1284  0.8450  0.5876
  942MOL0     C29890   3.800   2.202   3.204 -0.3792 -0.3507  0.3264
  942MOL0     C29891   3.741   2.081   3.159  1.2591  0.2458  0.2925
  942MOL0     C29892   3.697   2.081   3.026 -0.2963  0.6960 -0.1952
  942MOL0     C29893   3.714   2.188   2.944  0.9890  0.0500  0.5021
  942MOL0     O29894   3.650   2.180   2.821 -0.0982  0.8305 -0.1169
  942MOL0     C29895   3.737   2.144   2.718  0.3819 -0.3617  0.0632
  942MOL0     C29896   3.667   2.085   2.600  0.2085  1.2499 -0.0098
  942MOL0     C29897   3.637   2.183   2.489  1.1527 -0.4907  0.1410
  942MOL0     C29898   3.597   2.111   2.355 -0.0424  0.1625  0.6018
  942MOL0     C29899   3.456   2.074   2.350 -0.4999 -0.5316  0.3752
  942MOL0     C29900   3.407   2.036   2.209  0.9297  0.3495  0.9959
  942MOL0     C29901   3.259   2.053   2.207 -0.0553 -0.2774 -0.0311
  942MOL0     C29902   3.219   2.195   2.195  0.1010  0.4983 -0.0584
  942MOL0    Cl29903   3.034   2.221   2.197  0.0992  0.2422 -0.1107
  942MOL0     C29904   3.782   2.294   2.987 -0.0367 -0.5509 -0.0370
  942MOL0     C29905   3.830   2.302   3.116 -0.1022  0.5044  1.5108
  942MOL0     O29906   3.775   2.435   3.359 -0.1413 -0.2471  0.1966
  942MOL0     C29907   3.955   2.247   3.597 -0.3500 -0.5852 -0.2314
  942MOL0     C29908   3.994   2.231   3.731 -0.7713 -0.1689 -0.1656
  942MOL0     N29909   4.432   2.635   3.780  1.3676  0.4566  0.5278
  942MOL0     N29910   4.416   2.652   3.651 -0.3765 -0.2170 -0.4735
  942MOL0     C29911   4.075   3.451   3.148  0.2504 -0.3268  0.4862
  942MOL0     C29912   4.045   3.528   3.035 -0.3747  0.2849  0.6179
  942MOL0     C29913   3.818   3.661   2.633  0.1459 -0.3090  0.1308
  942MOL0     C29914   3.736   3.616   2.527  0.0756 -0.1275 -0.0929
  942MOL0     C29915   3.690   3.699   2.424 -0.9477  0.3730 -0.3871
  942MOL0     C29916   3.726   3.839   2.431 -0.2007  0.1380 -0.2410
  942MOL0     O29917   3.665   3.926   2.343 -0.1129 -1.0450 -0.6037
  942MOL0     C29918   3.518   3.913   2.341  0.6797  0.0919  0.9901
  942MOL0     C29919   3.476   4.060   2.298 -0.3501 -0.0471 -0.9404
  942MOL0     C29920   3.324   4.077   2.251 -0.0410 -0.1743  0.2228
  942MOL0     C29921   3.216   4.070   2.358 -0.1024  0.3534  0.0954
  942MOL0     C29922   3.080   4.086   2.295 -0.8134 -0.0552  0.1830
  942MOL0     C29923   2.984   4.119   2.235 -0.6322 -0.0531 -0.2813
  942MOL0     C29924   3.822   3.885   2.528  0.0610 -0.0822 -0.3875
  942MOL0     C29925   3.855   3.801   2.637 -0.5824  0.1458 -0.2184
  942MOL0     C29926   3.959   3.854   2.727  0.1689  0.4669 -0.5472
  942MOL0     H29927   3.768   3.382   2.939  1.2422 -1.3256 -2.1837
  942MOL0     H29928   3.799   3.266   3.133 -0.4024 -0.0249 -0.3092
  942MOL0     H29929   4.155   3.366   3.398  0.7763 -0.9329  4.0600
  942MOL0     H29930   4.188   3.234   3.286 -1.0673  1.8477 -1.3451
  942MOL0     H29931   4.189   3.199   3.546  3.2516 -1.2056 -3.2438
  942MOL0     H29932   4.005   3.202   3.534 -0.3336  0.0095 -1.6444
  942MOL0     H29933   4.087   2.984   3.557 -0.3223 -3.1951 -1.2524
  942MOL0     H29934   4.015   2.996   3.397  1.6878  1.8342 -2.5875
  942MOL0     H29935   4.256   3.023   3.303 -0.7832 -1.6117 -2.5551
  942MOL0     H29936   4.310   2.982   3.468 -0.0888 -4.2256  1.5003
  942MOL0     H29937   4.292   2.769   3.344 -0.2149 -1.7767  3.1845
  942MOL0     H29938   4.132   2.812   3.278  0.6839 -2.1399 -0.7043
  942MOL0     H29939   4.179   2.779   3.580  2.7977  1.2113 -1.5164
  942MOL0     H29940   4.034   2.756   3.481  0.1283  1.6673  0.4827
  942MOL0     H29941   4.117   2.563   3.376  1.6874 -0.2713 -2.1472
  942MOL0     H29942   4.112   2.536   3.549 -0.4716  2.2534  0.7496
  942MOL0     H29943   4.311   2.435   3.419  2.3776 -0.2023  0.6214
  942MOL0     H29944   4.370   2.592   3.397 -0.4042  0.2363 -1.3733
  942MOL0     H29945   4.290   2.348   3.693 -1.9886  0.9297 -0.4255
  942MOL0     H29946   4.452   2.479   4.007  0.1496  0.5670 -0.9179
  942MOL0     H29947   4.354   2.347   3.952  5.0188 -0.6526 -1.4755
  942MOL0     H29948   4.257   2.471   4.147 -0.2881  1.5779  1.0610
  942MOL0     H29949   4.240   2.622   4.035  1.9543  0.1403 -2.4504
  942MOL0     H29950   4.035   2.518   4.066  0.8930 -0.2499  1.6052
  942MOL0     H29951   4.093   2.502   3.901  3.2638  0.8215 -0.8398
  942MOL0     H29952   4.141   2.259   3.946  0.3056  0.6818 -0.3053
  942MOL0     H29953   4.079   2.290   4.121  0.1768  1.2848  0.5611
  942MOL0     H29954   3.773   2.455   3.862  0.7461  2.2094 -2.2983
  942MOL0     H29955   3.621   2.541   3.714 -2.6226  0.8535 -1.5091
  942MOL0     H29956   3.590   2.430   3.574  0.9223 -2.0972  1.1860
  942MOL0     H29957   3.683   2.584   3.558 -1.1249 -1.2886 -1.9851
  942MOL0     H29958   3.708   2.007   3.232  1.0221  1.7160  1.7499
  942MOL0     H29959   3.627   2.007   2.988  1.8688  0.3595 -4.0267
  942MOL0     H29960   3.797   2.233   2.696  0.4287 -0.0669  1.2672
  942MOL0     H29961   3.807   2.073   2.763  1.6614 -0.7200 -2.3413
  942MOL0     H29962   3.729   2.006   2.557 -1.1840  0.2061 -0.1702
  942MOL0     H29963   3.578   2.027   2.627 -0.2331 -0.1122 -3.7811
  942MOL0     H29964   3.725   2.247   2.479  0.6400  0.3792  0.9814
  942MOL0     H29965   3.554   2.250   2.515 -1.0374 -2.6486 -0.8173
  942MOL0     H29966   3.645   2.015   2.337 -2.2120 -0.4119 -3.2082
  942MOL0     H29967   3.629   2.188   2.284 -1.8020 -0.3287 -0.7942
  942MOL0     H29968   3.445   1.984   2.412  1.7335  0.8157  2.9430
  942MOL0     H29969   3.394   2.155   2.390  0.9041  1.5323 -1.4420
  942MOL0     H29970   3.440   1.933   2.193  0.5350  0.4521 -0.6357
  942MOL0     H29971   3.449   2.091   2.124 -2.0733  0.4256 -0.5589
  942MOL0     H29972   3.208   2.021   2.298 -0.4248  1.8548  0.5742
  942MOL0     H29973   3.219   1.992   2.125  1.1210  0.1146 -0.9252
  942MOL0     H29974   3.261   2.229   2.100 -0.5254  2.0743  0.1890
  942MOL0     H29975   3.258   2.261   2.273 -0.7040  1.3905 -0.3776
  942MOL0     H29976   3.784   2.388   2.932  1.3660  0.4863  1.6948
  942MOL0     H29977   3.894   2.388   3.135  1.8678 -0.9630  1.8871
  942MOL0     H29978   4.013   2.195   3.521 -0.6870  1.1660 -1.7422
  942MOL0     H29979   4.067   2.156   3.759  1.7820  1.6756 -1.4557
  942MOL0     H29980   4.155   3.474   3.218 -1.2296  0.2533  2.0586
  942MOL0     H29981   4.107   3.612   3.004  2.5483 -1.8842  0.1863
  942MOL0     H29982   3.699   3.514   2.525 -0.3249 -0.0482  1.3719
  942MOL0     H29983   3.629   3.662   2.342  0.0497  0.3828 -1.1589
  942MOL0     H29984   3.489   3.843   2.261  3.7912  3.5083 -3.6551
  942MOL0     H29985   3.473   3.883   2.436  2.3507 -2.1505  1.1416
  942MOL0     H29986   3.543   4.076   2.214  2.6600 -0.1022  1.2758
  942MOL0     H29987   3.493   4.131   2.380 -4.8215  0.3653 -0.1235
  942MOL0     H29988   3.312   4.161   2.183  1.2135 -1.5624 -1.8158
  942MOL0     H29989   3.322   3.992   2.182 -0.4685 -1.3411  1.6230
  942MOL0     H29990   3.230   4.148   2.433 -0.2728  1.6136 -1.1464
  942MOL0     H29991   3.226   3.974   2.410  2.7030 -1.1020 -2.7823
  942MOL0     H29992   2.896   4.148   2.180 -0.8316  2.0245  0.9958
  942MOL0     H29993   3.839   3.993   2.525  1.3994 -0.2902 -0.6919
  942MOL0     H29994   4.046   3.787   2.733 -0.4421 -0.2649  4.3684
  942MOL0     H29995   3.995   3.955   2.704 -1.5786  2.0369  2.8731
  942MOL0     H29996   3.917   3.873   2.826  0.8679  0.6508 -0.2801
  943MOL0     O29997  10.006   5.675   1.866 -0.2420 -0.4797  0.8115
  943MOL0     C29998  10.013   5.759   1.775 -0.1391 -0.0521  0.2568
  943MOL0     O29999  10.062   5.737   1.654 -0.4043 -1.4382  0.3814
  943MOL0     C30000  10.039   5.628   1.583 -0.1769  0.8477  0.6171
  943MOL0     C30001  10.070   5.636   1.450 -0.6735 -0.8147  0.3077
  943MOL0     C30002  10.048   5.536   1.354  0.3782 -0.5357 -0.7745
  943MOL0     C30003   9.996   5.420   1.397 -0.0421  0.6685  0.0065
  943MOL0     O30004   9.973   5.319   1.296 -0.8905 -0.3099 -0.3703
  943MOL0     C30005  10.055   5.307   1.180  0.0330  0.1162  0.3667
  943MOL0     C30006  10.001   5.189   1.094 -1.1947 -0.6709 -0.7045
  943MOL0     C30007  10.086   5.160   0.963 -1.0454  0.0732  0.5381
  943MOL0     C30008  10.022   5.036   0.898 -0.0100 -0.4518  0.0255
  943MOL0     C30009  10.086   4.996   0.763  0.4560 -0.6256 -0.4845
  943MOL0     C30010  10.005   4.887   0.704  0.3154 -0.6052 -0.2763
  943MOL0     C30011  10.076   4.823   0.584  0.1533 -0.2930 -0.3875
  943MOL0     C30012  10.016   4.686   0.551  0.8783  0.5428 -0.3392
  943MOL0     N30013  10.104   4.614   0.468 -0.1059 -0.4894 -0.7096
  943MOL0     C30014  10.237   4.574   0.504 -0.6170 -0.2687  0.0195
  943MOL0     C30015  10.273   4.526   0.378 -0.3727 -0.3918 -0.6928
  943MOL0     C30016  10.418   4.487   0.349 -0.0992  0.3117 -1.0106
  943MOL0     C30017  10.498   4.611   0.298 -0.0262 -0.1838 -0.0470
  943MOL0     C30018  10.453   4.671   0.168  0.0343 -0.0422 -1.2676
  943MOL0     C30019  10.480   4.583   0.045  1.4034  0.4224  0.3862
  943MOL0     O30020  10.556   4.667  -0.047  0.0111  0.0638 -1.0301
  943MOL0     C30021  10.526   4.655  -0.179  0.0239 -0.4974  0.5569
  943MOL0     C30022  10.561   4.758  -0.266  1.0413  0.0096 -0.1957
  943MOL0     C30023  10.541   4.753  -0.407  0.0883 -0.6413 -0.6301
  943MOL0     C30024  10.601   4.876  -0.474 -0.5115  0.6426  0.5366
  943MOL0     C30025  10.481   4.635  -0.468  0.8432  0.0788  0.1082
  943MOL0     C30026  10.472   4.620  -0.624  0.1991  0.2405 -0.3561
  943MOL0     O30027  10.498   4.728  -0.690  0.2087  0.6232 -0.0394
  943MOL0     C30028  10.476   4.734  -0.827  0.1484 -0.0399 -0.3758
  943MOL0     C30029  10.421   4.857  -0.880 -0.0026  0.9157  0.4263
  943MOL0     C30030  10.417   4.886  -1.020 -0.0785 -0.1761 -0.3365
  943MOL0     C30031  10.440   4.781  -1.113 -0.0064 -0.5697 -0.9273
  943MOL0     O30032  10.405   4.795  -1.247 -0.7091  0.0342 -0.0388
  943MOL0     C30033  10.470   4.711  -1.345 -0.5371  0.1055  0.8259
  943MOL0     C30034  10.425   4.725  -1.491  0.6007 -0.9935  0.2980
  943MOL0     C30035  10.423   4.878  -1.533  0.3842  0.8448  0.2586
  943MOL0     C30036  10.563   4.919  -1.581  0.2338 -0.5290 -0.1236
  943MOL0     C30037  10.569   5.067  -1.617  0.1219 -0.8854  0.3296
  943MOL0     C30038  10.470   5.113  -1.724 -0.4447  0.3704  0.8356
  943MOL0     C30039  10.519   5.247  -1.781 -0.0286 -0.5566  0.4342
  943MOL0     C30040  10.417   5.292  -1.884 -0.4697  0.1227  0.4118
  943MOL0    Cl30041  10.270   5.342  -1.813 -0.2959  0.1819 -0.2366
  943MOL0     C30042  10.506   4.666  -1.062  0.7773 -0.3715 -0.2359
  943MOL0     C30043  10.523   4.644  -0.921  0.2493  0.6989  0.4408
  943MOL0     O30044  10.440   4.505  -0.674 -0.3457  0.3636  0.4491
  943MOL0     C30045  10.448   4.533  -0.384 -0.7973  0.5023 -0.5794
  943MOL0     C30046  10.470   4.541  -0.242 -0.7756 -0.1702 -0.0801
  943MOL0     N30047  10.166   4.534   0.292  0.8372  0.3228  0.3071
  943MOL0     N30048  10.064   4.587   0.340 -0.5181 -0.0882  0.1255
  943MOL0     C30049   9.977   5.397   1.533  0.3952  0.3574 -0.7309
  943MOL0     C30050   9.985   5.502   1.623 -1.1676 -0.9862 -0.5031
  943MOL0     C30051   9.978   5.901   1.810  0.4489  0.4000 -0.0940
  943MOL0     C30052  10.094   5.979   1.843 -0.3931 -0.5427 -0.4270
  943MOL0     C30053  10.064   6.113   1.870 -0.3642  0.3143  0.3996
  943MOL0     C30054   9.937   6.172   1.875 -0.2442  0.6169  0.3310
  943MOL0     O30055   9.911   6.296   1.913 -0.0729 -0.8046  0.8481
  943MOL0     C30056   9.982   6.332   2.027 -0.0545  0.1003 -0.7414
  943MOL0     C30057  10.105   6.427   2.011 -0.1930  0.2991 -0.7879
  943MOL0     C30058  10.079   6.543   1.918  0.6480  0.2556 -0.2916
  943MOL0     C30059  10.199   6.640   1.897  1.0775 -0.0758  0.0720
  943MOL0     C30060  10.303   6.577   1.814 -0.9597  0.3962 -0.1552
  943MOL0     C30061  10.370   6.539   1.722 -0.3740  0.3091 -0.5438
  943MOL0     C30062   9.832   6.086   1.844  0.0186 -0.7780  0.7186
  943MOL0     C30063   9.846   5.950   1.821 -0.8094 -1.1176 -0.0072
  943MOL0     C30064   9.732   5.874   1.777  0.0960 -0.9159 -0.8517
  943MOL0     H30065  10.103   5.734   1.416 -0.5042 -1.9994 -3.2902
  943MOL0     H30066  10.066   5.542   1.247 -4.2349 -2.1177 -1.8840
  943MOL0     H30067  10.157   5.277   1.206  0.0685 -0.4466 -0.4050
  943MOL0     H30068  10.054   5.395   1.115 -0.8876  0.1637  0.4288
  943MOL0     H30069   9.988   5.103   1.159 -0.2560  1.3628  2.3635
  943MOL0     H30070   9.902   5.227   1.067 -0.2310  3.3765  0.6656
  943MOL0     H30071  10.087   5.243   0.893 -0.1037 -0.7657 -0.4820
  943MOL0     H30072  10.194   5.155   0.977 -0.6203  2.6339 -1.1589
  943MOL0     H30073  10.021   4.949   0.964 -2.0842 -0.2092  0.3657
  943MOL0     H30074   9.918   5.064   0.880  0.3528  1.1882  0.3005
  943MOL0     H30075  10.188   4.955   0.766  0.1556 -1.3759 -0.3804
  943MOL0     H30076  10.075   5.083   0.699 -2.0569 -2.5569 -2.9297
  943MOL0     H30077   9.992   4.806   0.776  1.1012 -0.3594  0.1510
  943MOL0     H30078   9.908   4.923   0.669  0.0811  1.2650  2.0441
  943MOL0     H30079  10.182   4.811   0.608  0.3942  4.1881  1.6684
  943MOL0     H30080  10.054   4.891   0.502  0.0852 -0.7074 -0.7188
  943MOL0     H30081  10.004   4.622   0.639  1.7947  0.5197 -0.2244
  943MOL0     H30082   9.922   4.702   0.497  2.2501  0.2518 -3.0187
  943MOL0     H30083  10.304   4.606   0.583  0.5039  0.5865 -1.2275
  943MOL0     H30084  10.419   4.412   0.269 -0.5881 -0.4508 -0.3073
  943MOL0     H30085  10.463   4.462   0.445  2.7683  1.1770 -2.0191
  943MOL0     H30086  10.501   4.690   0.373  0.6362 -0.4867  0.2545
  943MOL0     H30087  10.597   4.569   0.278  0.5291  1.8106 -1.8896
  943MOL0     H30088  10.347   4.696   0.174 -0.1300 -0.9776  0.0946
  943MOL0     H30089  10.495   4.771   0.156 -1.9350  1.2932  1.8299
  943MOL0     H30090  10.534   4.495   0.081 -1.8277 -1.7131  0.4789
  943MOL0     H30091  10.388   4.544   0.001  2.2799  1.3764 -2.4709
  943MOL0     H30092  10.611   4.843  -0.222 -1.2077  0.0433  2.5552
  943MOL0     H30093  10.640   4.953  -0.407 -1.5731  0.4888  1.3499
  943MOL0     H30094  10.507   4.920  -0.510  0.1916  2.9054  1.2955
  943MOL0     H30095  10.672   4.858  -0.555 -1.1398 -0.4383  0.2003
  943MOL0     H30096  10.382   4.938  -0.818  1.5102  0.4033  2.1474
  943MOL0     H30097  10.388   4.988  -1.044  0.8899 -0.0853 -1.1881
  943MOL0     H30098  10.577   4.733  -1.330 -0.1051 -3.1808  4.2760
  943MOL0     H30099  10.458   4.604  -1.326  1.0276 -0.0684  1.0303
  943MOL0     H30100  10.493   4.665  -1.552  1.2320  1.1546 -1.2081
  943MOL0     H30101  10.323   4.686  -1.504  0.6117 -0.8707 -0.1594
  943MOL0     H30102  10.382   4.945  -1.457  0.0882  0.3711  0.5280
  943MOL0     H30103  10.345   4.882  -1.611  2.2445  0.4328 -1.7135
  943MOL0     H30104  10.591   4.849  -1.660 -1.7296 -0.6042 -0.8217
  943MOL0     H30105  10.631   4.903  -1.497  1.0794  0.7653 -0.5435
  943MOL0     H30106  10.560   5.124  -1.524  2.4088 -2.7551  1.7864
  943MOL0     H30107  10.673   5.082  -1.647 -0.2969 -1.5818 -1.6409
  943MOL0     H30108  10.375   5.128  -1.670  1.5241  2.7364  4.0366
  943MOL0     H30109  10.464   5.036  -1.800 -2.6532  1.0827  0.2072
  943MOL0     H30110  10.615   5.225  -1.828  0.7364  1.0857  1.1762
  943MOL0     H30111  10.536   5.327  -1.709  0.8625  0.8268 -1.2276
  943MOL0     H30112  10.412   5.220  -1.966  0.7349  1.9287 -1.3395
  943MOL0     H30113  10.454   5.386  -1.926 -0.8429  0.6380  1.1987
  943MOL0     H30114  10.526   4.583  -1.128 -0.2772 -0.4017 -0.5389
  943MOL0     H30115  10.579   4.560  -0.881 -1.4359 -2.0697 -2.5187
  943MOL0     H30116  10.397   4.443  -0.414 -1.3017 -0.0817  1.8086
  943MOL0     H30117  10.453   4.451  -0.182 -2.6814  0.8068  0.9408
  943MOL0     H30118   9.933   5.303   1.566  0.3877  0.8755  0.8020
  943MOL0     H30119   9.956   5.482   1.726 -2.0715 -1.1296 -0.7703
  943MOL0     H30120  10.194   5.938   1.851 -0.7471 -1.2218  0.9331
  943MOL0     H30121  10.155   6.171   1.884 -1.3228  2.0489 -0.1629
  943MOL0     H30122   9.912   6.383   2.093  0.6274 -2.4984  2.2158
  943MOL0     H30123  10.016   6.244   2.081 -1.4680 -1.0348 -1.6422
  943MOL0     H30124  10.192   6.375   1.969 -0.2600  1.7290 -2.8634
  943MOL0     H30125  10.141   6.469   2.105  2.2995  1.1284 -2.0059
  943MOL0     H30126  10.058   6.492   1.823  1.6828 -0.3803 -0.1999
  943MOL0     H30127   9.997   6.601   1.960  2.3466  1.5525  1.4180
  943MOL0     H30128  10.234   6.676   1.994 -0.8675  0.5634  0.5860
  943MOL0     H30129  10.149   6.718   1.839 -5.8283 -3.6236  0.2420
  943MOL0     H30130  10.424   6.496   1.640  1.3590  0.1963  0.6083
  943MOL0     H30131   9.738   6.138   1.832 -0.3233 -1.9115 -2.4762
  943MOL0     H30132   9.647   5.943   1.772 -0.1224 -1.2810 -3.1411
  943MOL0     H30133   9.747   5.827   1.680  3.7208 -0.6935 -0.5077
  943MOL0     H30134   9.708   5.790   1.843 -4.1003 -0.3794 -1.4144
  944MOL0     O30135   9.639   6.340   6.448  0.0046 -0.1880  0.0366
  944MOL0     C30136   9.541   6.403   6.411  0.8939 -0.0671  0.5548
  944MOL0     O30137   9.477   6.494   6.481  0.2774  0.8527  0.6528
  944MOL0     C30138   9.512   6.518   6.609  0.1569  0.1122  0.2470
  944MOL0     C30139   9.423   6.500   6.714 -0.3492 -0.6134  0.7783
  944MOL0     C30140   9.465   6.524   6.847  0.7941 -0.1241  0.3620
  944MOL0     C30141   9.597   6.559   6.884 -0.2628  0.1303  0.6564
  944MOL0     O30142   9.635   6.584   7.009  0.3838 -0.3115 -0.0213
  944MOL0     C30143   9.578   6.506   7.110  0.8261  0.0002  0.6088
  944MOL0     C30144   9.673   6.505   7.219  0.4785 -0.1007 -0.0040
  944MOL0     C30145   9.670   6.630   7.309 -0.0477 -0.2179  0.4871
  944MOL0     C30146   9.768   6.605   7.417  0.2227 -0.8157 -0.7484
  944MOL0     C30147   9.915   6.632   7.377  0.6841 -0.2213 -0.3862
  944MOL0     C30148   9.963   6.771   7.353  0.4977 -0.8497 -0.1327
  944MOL0     C30149  10.077   6.791   7.246  0.1583 -0.8896  0.9567
  944MOL0     C30150  10.097   6.937   7.200  0.5380 -0.2534 -0.6313
  944MOL0     N30151  10.140   7.016   7.318 -0.4787  0.8685 -0.3502
  944MOL0     C30152  10.232   6.981   7.412  0.6605 -0.5565 -0.7984
  944MOL0     C30153  10.208   7.060   7.520 -1.2990  0.3436  0.0920
  944MOL0     C30154  10.292   7.059   7.647 -0.3955  0.3503 -0.0869
  944MOL0     C30155  10.225   7.112   7.779  0.3180  0.1289  0.7595
  944MOL0     C30156  10.288   7.060   7.908 -0.2843  0.0958 -0.0730
  944MOL0     C30157  10.212   6.935   7.936  0.1019  0.2022 -0.7126
  944MOL0     O30158  10.265   6.821   7.867 -0.1917  0.9072 -0.8217
  944MOL0     C30159  10.188   6.707   7.876 -0.2949  0.1439 -0.3871
  944MOL0     C30160  10.240   6.590   7.929  0.0403  0.0021 -0.5467
  944MOL0     C30161  10.176   6.463   7.901  0.2856 -0.2108  0.3599
  944MOL0     C30162  10.224   6.334   7.970 -0.0475 -0.5175 -0.7100
  944MOL0     C30163  10.063   6.459   7.811 -0.2688  0.0377 -0.3372
  944MOL0     C30164  10.005   6.336   7.761 -0.3692  0.4246  0.2244
  944MOL0     O30165   9.971   6.335   7.629 -0.1239  0.9663  0.1162
  944MOL0     C30166   9.905   6.232   7.566 -0.3866  0.8695  1.6880
  944MOL0     C30167   9.912   6.231   7.425  0.8678  0.0952 -0.5268
  944MOL0     C30168   9.835   6.150   7.347  0.1339 -0.3335 -0.2245
  944MOL0     C30169   9.760   6.052   7.408 -0.9992 -0.2045 -0.2132
  944MOL0     O30170   9.689   5.962   7.334  0.6350  0.1762 -0.0688
  944MOL0     C30171   9.614   6.015   7.219  0.5815  0.3895  0.3745
  944MOL0     C30172   9.551   5.900   7.135 -0.2236 -0.0600 -0.0239
  944MOL0     C30173   9.646   5.807   7.071  0.0757  0.8182  0.3011
  944MOL0     C30174   9.583   5.715   6.965  0.7257  0.0861 -0.1307
  944MOL0     C30175   9.670   5.601   6.906  0.4696  0.4058 -0.3698
  944MOL0     C30176   9.692   5.511   7.023  0.0203  0.0581 -0.2652
  944MOL0     C30177   9.756   5.378   6.995 -0.9380  0.9433 -0.4973
  944MOL0     C30178   9.658   5.273   6.937  0.7222  0.1729 -0.1339
  944MOL0    Cl30179   9.525   5.240   7.057 -0.3231 -0.5565 -0.4355
  944MOL0     C30180   9.761   6.045   7.541  0.2364 -0.7199  0.1319
  944MOL0     C30181   9.823   6.134   7.623 -0.1030 -1.0579 -0.6332
  944MOL0     O30182   9.982   6.244   7.839  0.4571  0.8469  0.2105
  944MOL0     C30183  10.010   6.580   7.762  0.1472  0.4041 -0.2034
  944MOL0     C30184  10.067   6.705   7.796  0.3823  0.3394 -1.1631
  944MOL0     N30185  10.107   7.147   7.497  0.5018  1.0775  1.4420
  944MOL0     N30186  10.059   7.117   7.369 -0.4230  0.7387 -0.2173
  944MOL0     C30187   9.688   6.565   6.778  0.1818  0.0045  0.0888
  944MOL0     C30188   9.643   6.554   6.643 -0.1709  0.5512  0.5715
  944MOL0     C30189   9.470   6.359   6.293  0.2578 -0.4615  0.3268
  944MOL0     C30190   9.331   6.394   6.283 -0.3981  0.5094  0.0389
  944MOL0     C30191   9.264   6.340   6.174  0.2437  0.2951 -0.2464
  944MOL0     C30192   9.322   6.277   6.064 -0.0516 -0.0712 -0.0827
  944MOL0     O30193   9.245   6.240   5.954 -0.3797 -0.2661  0.1629
  944MOL0     C30194   9.304   6.168   5.848  0.0984  0.1564  0.8355
  944MOL0     C30195   9.381   6.280   5.768 -0.4241 -0.6077 -0.2467
  944MOL0     C30196   9.443   6.223   5.639  0.2999 -0.1257  0.7676
  944MOL0     C30197   9.564   6.132   5.655  0.5015 -1.9394  0.3783
  944MOL0     C30198   9.676   6.210   5.712 -0.6956 -0.0013 -0.5246
  944MOL0     C30199   9.764   6.277   5.749  0.3536  0.3123 -0.0498
  944MOL0     C30200   9.464   6.267   6.071  0.0131 -0.1953 -1.4702
  944MOL0     C30201   9.539   6.295   6.183 -1.5598  0.3699  0.4790
  944MOL0     C30202   9.686   6.257   6.154 -0.5464  0.2427 -0.1063
  944MOL0     H30203   9.324   6.471   6.681 -0.0319 -0.9225  0.0741
  944MOL0     H30204   9.381   6.521   6.916  0.9031  0.7860  0.5501
  944MOL0     H30205   9.568   6.403   7.074  0.1855 -0.0278  0.8440
  944MOL0     H30206   9.477   6.543   7.132  0.6736  1.6611 -2.2909
  944MOL0     H30207   9.629   6.422   7.276  0.0517 -0.1777 -0.4361
  944MOL0     H30208   9.773   6.480   7.184  0.6970 -0.5688  0.9120
  944MOL0     H30209   9.717   6.708   7.250  1.2591 -1.4158 -0.1243
  944MOL0     H30210   9.565   6.650   7.328 -0.6644 -1.2971 -1.5038
  944MOL0     H30211   9.738   6.646   7.513 -0.9021 -2.7439 -0.2161
  944MOL0     H30212   9.762   6.498   7.441  4.2210 -1.2160 -0.8566
  944MOL0     H30213   9.937   6.582   7.282 -0.3634 -0.9080 -0.2818
  944MOL0     H30214   9.985   6.591   7.450 -0.5641  0.4496  1.2402
  944MOL0     H30215   9.891   6.839   7.307  0.1068 -1.2648 -0.1314
  944MOL0     H30216   9.983   6.830   7.443 -0.2712  1.9809 -1.6902
  944MOL0     H30217  10.045   6.744   7.153  0.1270 -0.1618  0.6010
  944MOL0     H30218  10.176   6.750   7.270  0.8761 -0.9795 -1.8134
  944MOL0     H30219  10.171   6.938   7.118  0.7628 -0.6655 -0.4407
  944MOL0     H30220  10.005   6.972   7.153  1.0113  0.7315 -0.8479
  944MOL0     H30221  10.311   6.907   7.404  0.1179 -1.0692 -1.6073
  944MOL0     H30222  10.380   7.119   7.624 -1.0139  0.0005 -3.8612
  944MOL0     H30223  10.327   6.957   7.665  2.7099  1.1980 -0.8184
  944MOL0     H30224  10.220   7.221   7.782 -1.3729  0.0974  0.0697
  944MOL0     H30225  10.122   7.085   7.755 -0.6790  3.2293  1.0752
  944MOL0     H30226  10.395   7.036   7.913 -0.2154  0.4297  0.1213
  944MOL0     H30227  10.256   7.127   7.988 -2.6295 -1.5690  0.4774
  944MOL0     H30228  10.218   6.937   8.045 -0.7794  0.3987 -0.6621
  944MOL0     H30229  10.107   6.962   7.918  0.6506  2.2512 -1.1114
  944MOL0     H30230  10.334   6.600   7.982  0.5065 -0.1077 -1.3486
  944MOL0     H30231  10.147   6.299   8.039  0.2114  3.7989  2.1237
  944MOL0     H30232  10.305   6.360   8.039  0.7173  0.7699 -2.0392
  944MOL0     H30233  10.249   6.261   7.892  1.0794  0.0024 -0.8616
  944MOL0     H30234   9.973   6.309   7.379 -1.2164  2.9139  1.1415
  944MOL0     H30235   9.847   6.164   7.240 -0.0312 -0.8436 -0.3147
  944MOL0     H30236   9.532   6.079   7.253 -1.8256 -0.0818 -3.9130
  944MOL0     H30237   9.669   6.068   7.141 -0.6916  0.5468 -0.4451
  944MOL0     H30238   9.490   5.845   7.206 -2.0363  1.4733 -0.3116
  944MOL0     H30239   9.494   5.954   7.058  0.4324  0.1168 -0.3958
  944MOL0     H30240   9.701   5.741   7.138  1.0352  1.3672  0.0704
  944MOL0     H30241   9.722   5.869   7.022 -0.0697 -0.1943 -1.2805
  944MOL0     H30242   9.559   5.787   6.885 -2.6417 -0.1112  0.5396
  944MOL0     H30243   9.481   5.681   6.987 -0.4278  2.5543 -1.1480
  944MOL0     H30244   9.622   5.558   6.817 -2.5918  3.5397 -0.4608
  944MOL0     H30245   9.768   5.644   6.884  0.1678  2.3486  1.7077
  944MOL0     H30246   9.605   5.501   7.087 -1.4117 -3.4887 -2.4719
  944MOL0     H30247   9.766   5.553   7.092 -3.3497  1.7891  2.5623
  944MOL0     H30248   9.795   5.341   7.091  0.8068 -2.0885 -2.2305
  944MOL0     H30249   9.841   5.391   6.927  1.7595  1.3592  2.6424
  944MOL0     H30250   9.724   5.188   6.917  1.5948  0.8114 -0.0284
  944MOL0     H30251   9.618   5.311   6.843  1.4418 -1.5956 -1.1968
  944MOL0     H30252   9.694   5.973   7.588  0.7553 -0.1890  1.7520
  944MOL0     H30253   9.805   6.137   7.730  3.3001  3.0770  0.0987
  944MOL0     H30254   9.934   6.573   7.685 -0.1406  0.5943  0.0603
  944MOL0     H30255  10.038   6.800   7.751 -0.7211 -0.6291 -2.5578
  944MOL0     H30256   9.794   6.579   6.797  0.4857 -2.0120  0.1012
  944MOL0     H30257   9.725   6.558   6.573 -2.0744 -0.1330 -1.8350
  944MOL0     H30258   9.281   6.453   6.359  0.8992  1.6983  0.0173
  944MOL0     H30259   9.156   6.351   6.180  0.1383 -0.6355 -0.1588
  944MOL0     H30260   9.371   6.092   5.889 -1.9437 -2.0257  0.3295
  944MOL0     H30261   9.227   6.120   5.788  1.8884 -0.0565 -1.4151
  944MOL0     H30262   9.457   6.336   5.824 -0.5912 -0.1087 -0.5154
  944MOL0     H30263   9.299   6.348   5.742 -1.1774 -0.7979  1.4648
  944MOL0     H30264   9.368   6.165   5.584 -1.3959  1.3105  1.4765
  944MOL0     H30265   9.475   6.301   5.569 -1.5718  1.3045  1.4268
  944MOL0     H30266   9.596   6.105   5.554  2.0268 -2.7368  1.0350
  944MOL0     H30267   9.531   6.044   5.711  0.9925 -3.8862 -2.2360
  944MOL0     H30268   9.854   6.333   5.764 -0.6770  1.1613  4.2308
  944MOL0     H30269   9.528   6.228   5.992 -0.3308 -0.8987 -1.4084
  944MOL0     H30270   9.703   6.162   6.206 -2.1279  0.3619  0.7052
  944MOL0     H30271   9.730   6.262   6.054 -0.8979  0.7191 -0.2421
  944MOL0     H30272   9.752   6.329   6.203  0.0636  0.0136 -0.5874
  945MOL0     O30273   7.324   8.959   8.904 -0.1394 -0.3005  0.0034
  945MOL0     C30274   7.348   9.065   8.970  0.6480  0.1515  0.5798
  945MOL0     O30275   7.439   9.065   9.074 -0.1657 -0.1491 -0.2597
  945MOL0     C30276   7.544   8.970   9.068  0.6267 -0.0307 -0.2215
  945MOL0     C30277   7.529   8.850   9.143  0.5956 -0.7123  0.9117
  945MOL0     C30278   7.633   8.762   9.136  0.3149 -0.4712  0.2314
  945MOL0     C30279   7.752   8.798   9.075 -0.1282  0.2150  1.0489
  945MOL0     O30280   7.860   8.715   9.054  0.0472  0.2663 -0.5727
  945MOL0     C30281   7.863   8.579   9.115 -0.1464 -0.2948 -0.0108
  945MOL0     C30282   8.002   8.515   9.117  0.4011  0.4508  0.2681
  945MOL0     C30283   8.118   8.590   9.173  0.3280 -1.0160 -1.2924
  945MOL0     C30284   8.237   8.495   9.169  0.0550  0.2385 -0.1642
  945MOL0     C30285   8.357   8.580   9.225 -0.1250  0.8782  0.4372
  945MOL0     C30286   8.491   8.495   9.212 -0.1677 -0.9683  0.0134
  945MOL0     C30287   8.614   8.584   9.255 -0.6157 -0.3826 -0.4713
  945MOL0     C30288   8.657   8.696   9.146  0.0722 -0.6924 -0.0085
  945MOL0     N30289   8.757   8.787   9.185 -0.4900  0.1607  0.0372
  945MOL0     C30290   8.795   8.818   9.316 -0.5970 -0.3516 -0.1648
  945MOL0     C30291   8.930   8.859   9.300  1.0936 -0.3978 -0.3467
  945MOL0     C30292   9.027   8.877   9.406  0.0415  0.7929 -0.0785
  945MOL0     C30293   8.952   8.957   9.526  0.5296  1.1964  0.2716
  945MOL0     C30294   9.024   8.940   9.661  0.8637 -1.1618  0.8875
  945MOL0     C30295   9.142   9.037   9.664 -0.2447 -0.6500  0.8147
  945MOL0     O30296   9.229   9.016   9.776 -0.2847 -0.0210 -0.2537
  945MOL0     C30297   9.334   9.107   9.796  0.2393  0.4756 -0.0277
  945MOL0     C30298   9.360   9.214   9.710 -0.5574 -0.4030 -0.2525
  945MOL0     C30299   9.452   9.313   9.745 -0.1644  0.4726  1.1620
  945MOL0     C30300   9.469   9.418   9.642  0.3571  0.8783  0.1601
  945MOL0     C30301   9.517   9.305   9.864  0.4677 -0.7464 -0.0503
  945MOL0     C30302   9.598   9.410   9.921 -0.8314  0.0741 -0.3181
  945MOL0     O30303   9.704   9.374   9.994 -0.9499 -0.2746  0.0273
  945MOL0     C30304   9.793   9.473  10.021  0.0056  1.0698  1.2040
  945MOL0     C30305   9.764   9.603  10.075  0.0355 -0.4319  0.1916
  945MOL0     C30306   9.862   9.689  10.095 -0.1231 -0.0282 -0.2456
  945MOL0     C30307   9.996   9.657  10.082 -0.0842 -0.6249 -1.0015
  945MOL0     O30308  10.095   9.753  10.093  0.4184  0.1394 -0.5610
  945MOL0     C30309  10.162   9.782   9.974  0.7190 -0.1352  0.5700
  945MOL0     C30310  10.296   9.851  10.007  0.3041  0.3936  0.4056
  945MOL0     C30311  10.278   9.979  10.088  0.1866 -1.0373 -0.1037
  945MOL0     C30312  10.267  10.103   9.999  0.5124  0.5260  1.5625
  945MOL0     C30313  10.268  10.245  10.064 -0.7502 -0.7363 -0.1721
  945MOL0     C30314  10.371  10.260  10.176  0.4847  0.5246 -0.0998
  945MOL0     C30315  10.371  10.410  10.214 -0.6438  0.9668 -0.4607
  945MOL0     C30316  10.407  10.427  10.368 -1.3493 -0.4412  0.3075
  945MOL0    Cl30317  10.551  10.335  10.402  0.4464  0.1007  0.3672
  945MOL0     C30318  10.033   9.526  10.040 -0.3510  0.5950  0.1840
  945MOL0     C30319   9.931   9.438  10.014  1.1322  0.5340  0.0667
  945MOL0     O30320   9.565   9.530   9.892  0.1289 -0.3870 -0.3297
  945MOL0     C30321   9.508   9.187   9.936 -0.0430  0.2722  0.3480
  945MOL0     C30322   9.410   9.091   9.903  0.1769 -0.7673  0.4656
  945MOL0     N30323   8.959   8.856   9.163  0.3153 -1.0447 -0.5023
  945MOL0     N30324   8.858   8.813   9.098 -0.5375 -1.0745 -0.0778
  945MOL0     C30325   7.773   8.925   9.021 -0.0608  0.4080 -0.1414
  945MOL0     C30326   7.661   9.006   9.009  0.8762 -1.1004 -0.6616
  945MOL0     C30327   7.253   9.173   8.967  0.3904  1.0067  0.2045
  945MOL0     C30328   7.110   9.154   8.930  0.6320 -0.9086 -0.4536
  945MOL0     C30329   7.023   9.262   8.926  1.2034 -0.2956  0.1571
  945MOL0     C30330   7.063   9.394   8.965 -0.2779  0.7645  0.9208
  945MOL0     O30331   6.968   9.485   8.978  0.7799 -0.2853 -0.1374
  945MOL0     C30332   7.007   9.627   8.976  0.0905 -0.1545  0.5406
  945MOL0     C30333   6.953   9.689   8.850 -0.0025 -0.6942  0.0567
  945MOL0     C30334   6.800   9.709   8.847  0.2917  0.2339 -0.2219
  945MOL0     C30335   6.760   9.758   8.706 -0.2620  0.0359  0.0719
  945MOL0     C30336   6.621   9.797   8.712  0.6889 -0.3208  0.3209
  945MOL0     C30337   6.513   9.858   8.727  0.0419  0.3163  0.8674
  945MOL0     C30338   7.196   9.408   9.011 -0.2615  1.1051 -0.8655
  945MOL0     C30339   7.294   9.302   9.003  0.5405 -0.8507  0.2408
  945MOL0     C30340   7.442   9.332   9.021  0.0629 -0.0378 -0.9155
  945MOL0     H30341   7.432   8.822   9.182  0.0997  0.4293  0.5601
  945MOL0     H30342   7.610   8.663   9.175  0.4877 -0.7123 -0.2790
  945MOL0     H30343   7.796   8.512   9.060 -0.4503  0.3809 -0.4738
  945MOL0     H30344   7.820   8.593   9.215 -2.8846 -0.9646 -1.0093
  945MOL0     H30345   7.998   8.431   9.186  2.9392 -1.4561 -1.6912
  945MOL0     H30346   8.018   8.475   9.016  0.6725 -0.8504  0.8111
  945MOL0     H30347   8.140   8.691   9.137  2.7497 -0.2762  1.8645
  945MOL0     H30348   8.082   8.609   9.275 -2.2459  0.3712 -2.3541
  945MOL0     H30349   8.218   8.402   9.222 -4.7048  1.8391  1.4851
  945MOL0     H30350   8.254   8.471   9.063 -1.2665 -3.5077  0.3338
  945MOL0     H30351   8.330   8.604   9.329 -3.6726  0.7245 -0.3185
  945MOL0     H30352   8.370   8.665   9.158  1.6853 -0.0695 -0.4795
  945MOL0     H30353   8.489   8.414   9.284 -2.3429 -1.8026 -0.8800
  945MOL0     H30354   8.505   8.464   9.108 -2.6059  0.4101 -0.8108
  945MOL0     H30355   8.694   8.512   9.274 -1.5904 -2.0909 -2.4142
  945MOL0     H30356   8.598   8.633   9.352  1.9028 -1.6094  0.6677
  945MOL0     H30357   8.691   8.630   9.066 -1.8400 -1.7011 -0.0477
  945MOL0     H30358   8.566   8.755   9.130 -1.0327 -1.7537  1.8697
  945MOL0     H30359   8.731   8.794   9.401 -2.0487 -0.8214 -1.3454
  945MOL0     H30360   9.096   8.944   9.355  0.8480  0.0318 -0.0075
  945MOL0     H30361   9.072   8.783   9.439  1.8527  0.9955 -1.8172
  945MOL0     H30362   8.960   9.062   9.496  0.6683  0.9539 -0.5729
  945MOL0     H30363   8.845   8.938   9.534 -0.0510  4.2749  1.0979
  945MOL0     H30364   8.955   8.978   9.736  1.3030  0.5516  0.4621
  945MOL0     H30365   9.054   8.836   9.678 -0.4869 -2.1023 -1.8334
  945MOL0     H30366   9.204   9.023   9.575  2.5232 -1.1119  2.6867
  945MOL0     H30367   9.091   9.134   9.663 -1.8358 -1.4279 -1.4649
  945MOL0     H30368   9.299   9.233   9.621  0.0720 -1.3645 -0.9079
  945MOL0     H30369   9.563   9.470   9.660 -0.8865  3.0254  0.7488
  945MOL0     H30370   9.392   9.494   9.657 -0.3655  0.0623  0.6960
  945MOL0     H30371   9.454   9.390   9.538 -2.4060  0.4830  0.5991
  945MOL0     H30372   9.660   9.632  10.091  0.3482  0.6041  0.4334
  945MOL0     H30373   9.836   9.789  10.130 -0.5271  0.3417 -1.5327
  945MOL0     H30374  10.198   9.692   9.923  1.9709  0.2880  0.6646
  945MOL0     H30375  10.108   9.838   9.897  2.2978 -1.5360 -1.6555
  945MOL0     H30376  10.364   9.785  10.063  1.4952  0.9792 -0.3130
  945MOL0     H30377  10.352   9.865   9.914  0.1177 -1.7314 -0.0888
  945MOL0     H30378  10.364   9.984  10.156  0.4625 -1.0385 -0.4506
  945MOL0     H30379  10.193   9.981  10.157  0.5642  3.7967  0.5387
  945MOL0     H30380  10.168  10.105   9.951  0.7516 -1.5216  0.8811
  945MOL0     H30381  10.345  10.100   9.922 -0.7652  1.0423  0.1912
  945MOL0     H30382  10.285  10.331   9.998 -2.3077 -2.6632 -3.3295
  945MOL0     H30383  10.173  10.265  10.115  0.0305  0.0971  1.0337
  945MOL0     H30384  10.469  10.217  10.154  0.1929 -0.9755  1.2772
  945MOL0     H30385  10.331  10.205  10.262 -1.3948 -2.4240 -2.6371
  945MOL0     H30386  10.272  10.453  10.198 -1.3397 -1.1466 -2.2822
  945MOL0     H30387  10.444  10.461  10.151  0.6592  0.7541  0.8004
  945MOL0     H30388  10.328  10.407  10.441  0.6058 -0.7145  2.4384
  945MOL0     H30389  10.434  10.531  10.384 -1.0872  0.2106 -3.4570
  945MOL0     H30390  10.134   9.489  10.054 -1.1193 -0.4675  4.4038
  945MOL0     H30391   9.948   9.341   9.969 -1.7540 -0.0890  0.1326
  945MOL0     H30392   9.574   9.171  10.022 -1.4162  0.7719  1.5378
  945MOL0     H30393   9.381   9.006   9.963  0.7012 -0.3530  1.3171
  945MOL0     H30394   7.871   8.941   8.978 -0.5995  1.7911 -0.9200
  945MOL0     H30395   7.674   9.110   8.981  0.5113  0.0334  2.9141
  945MOL0     H30396   7.084   9.053   8.902  0.1805 -0.5007 -1.5734
  945MOL0     H30397   6.921   9.234   8.899  1.1005 -0.0100  0.2358
  945MOL0     H30398   6.963   9.679   9.061  0.7658 -0.2856  0.9800
  945MOL0     H30399   7.113   9.648   8.992 -0.5239  3.3221  0.7707
  945MOL0     H30400   6.983   9.640   8.757 -0.5333  1.3286 -1.2422
  945MOL0     H30401   6.982   9.795   8.852 -2.7121  0.1178  2.3585
  945MOL0     H30402   6.754   9.611   8.860 -0.0955  0.6734  2.4367
  945MOL0     H30403   6.754   9.771   8.924  0.3477  0.2233 -0.1799
  945MOL0     H30404   6.785   9.695   8.620  1.2786  2.2512 -1.2136
  945MOL0     H30405   6.811   9.855   8.698 -0.2580 -0.1008 -2.2167
  945MOL0     H30406   6.422   9.910   8.748 -1.5231 -1.8302 -0.2428
  945MOL0     H30407   7.230   9.504   9.051 -0.8925  0.8169  0.4317
  945MOL0     H30408   7.491   9.310   9.117  1.3534 -2.7705 -2.1124
  945MOL0     H30409   7.500   9.265   8.957  0.1528 -0.6900 -0.1620
  945MOL0     H30410   7.468   9.436   9.001  3.3935 -0.8665 -1.4869
  946MOL0     O30411   9.831   1.866   6.597  0.8490 -0.7723 -0.1979
  946MOL0     C30412   9.925   1.948   6.632 -0.6077  0.2260  0.2390
  946MOL0     O30413   9.911   2.068   6.704  0.6121 -0.0648  0.4361
  946MOL0     C30414   9.788   2.131   6.718  0.1783  0.0138  0.8252
  946MOL0     C30415   9.768   2.215   6.821  0.3520  0.2933 -0.2134
  946MOL0     C30416   9.640   2.272   6.847 -0.1690 -0.0116 -0.4823
  946MOL0     C30417   9.541   2.262   6.756  0.0282 -0.0892 -0.5362
  946MOL0     O30418   9.420   2.320   6.770  0.2239 -0.4456  0.1715
  946MOL0     C30419   9.365   2.370   6.650 -0.7712 -0.9740  0.2458
  946MOL0     C30420   9.274   2.474   6.691  0.4816  0.1076  1.2399
  946MOL0     C30421   9.213   2.549   6.569  0.0739 -0.4723 -0.3316
  946MOL0     C30422   9.115   2.659   6.615  0.6763  0.8192 -0.6116
  946MOL0     C30423   9.053   2.756   6.518 -0.1725 -0.2743  0.8513
  946MOL0     C30424   8.985   2.691   6.394  0.4776  0.2991  0.4440
  946MOL0     C30425   8.850   2.627   6.424 -0.3885  0.6643  0.4370
  946MOL0     C30426   8.807   2.530   6.318 -0.3544 -0.0380 -0.2541
  946MOL0     N30427   8.686   2.454   6.348 -0.1554 -0.0703  0.0339
  946MOL0     C30428   8.634   2.355   6.271  0.1083  0.0772 -0.5428
  946MOL0     C30429   8.535   2.312   6.355  0.2151  1.2693 -0.3088
  946MOL0     C30430   8.431   2.197   6.322  0.6188 -0.2037 -0.3257
  946MOL0     C30431   8.304   2.266   6.283  0.5589 -0.5693  0.2162
  946MOL0     C30432   8.295   2.313   6.139  0.8300  0.8643 -0.4371
  946MOL0     C30433   8.311   2.223   6.018  1.1214  0.1153 -0.2751
  946MOL0     O30434   8.442   2.179   5.998 -0.1683 -0.0409  0.0586
  946MOL0     C30435   8.477   2.099   5.887 -0.1237 -0.8510  0.0666
  946MOL0     C30436   8.405   2.070   5.772  0.4488 -0.8991 -0.3714
  946MOL0     C30437   8.454   1.996   5.659  0.3028 -0.8065 -0.3629
  946MOL0     C30438   8.380   1.992   5.533 -0.0818 -0.2765 -1.0542
  946MOL0     C30439   8.591   1.949   5.672 -0.8174  0.5803  1.2858
  946MOL0     C30440   8.670   1.871   5.573 -0.0802 -0.4066  0.1224
  946MOL0     O30441   8.776   1.797   5.618 -0.5889 -0.1814 -0.5959
  946MOL0     C30442   8.839   1.714   5.527 -0.2066  0.5147 -0.2785
  946MOL0     C30443   8.925   1.768   5.428  0.1254 -0.2591 -0.2893
  946MOL0     C30444   9.009   1.691   5.355 -0.9073  0.2743  1.4132
  946MOL0     C30445   8.999   1.551   5.360 -1.0135  0.7604  0.2998
  946MOL0     O30446   9.078   1.497   5.261  0.7371  0.3217  0.1918
  946MOL0     C30447   9.068   1.353   5.244 -0.2460 -0.8488  0.3983
  946MOL0     C30448   9.126   1.313   5.115 -0.6859  0.3257  0.4445
  946MOL0     C30449   9.155   1.167   5.100  0.3402  0.2427 -0.4711
  946MOL0     C30450   9.237   1.107   5.218 -0.3190 -0.1773  0.4825
  946MOL0     C30451   9.171   1.029   5.326  0.4826 -0.2185  0.2233
  946MOL0     C30452   9.279   1.011   5.440 -0.2913 -0.1700  0.6280
  946MOL0     C30453   9.421   0.970   5.395 -0.7277 -0.3169  0.5847
  946MOL0     C30454   9.501   0.932   5.524 -0.3095  0.2385  0.0277
  946MOL0    Cl30455   9.522   1.086   5.621 -0.0328  0.9629  0.3998
  946MOL0     C30456   8.911   1.485   5.452 -0.3921  0.0669 -0.2941
  946MOL0     C30457   8.843   1.576   5.540  0.7960  1.5842  0.2604
  946MOL0     O30458   8.630   1.869   5.461  0.6217 -0.7733 -0.2158
  946MOL0     C30459   8.665   1.985   5.786  0.2783 -0.4460  0.4958
  946MOL0     C30460   8.610   2.068   5.886 -0.3278  0.7089  0.3992
  946MOL0     N30461   8.517   2.390   6.461 -0.3183 -0.4936  0.3346
  946MOL0     N30462   8.626   2.468   6.469 -0.3126  0.0104  0.8144
  946MOL0     C30463   9.557   2.183   6.647  0.3876  1.2909  0.3790
  946MOL0     C30464   9.682   2.119   6.621  0.1181  0.5845  0.0076
  946MOL0     C30465  10.057   1.909   6.593  0.0510  0.8867 -0.0509
  946MOL0     C30466  10.080   1.772   6.627 -0.3623  0.3638  0.3320
  946MOL0     C30467  10.193   1.707   6.576  0.3411  0.5181 -0.5490
  946MOL0     C30468  10.289   1.774   6.507  0.6431  0.1316  0.6571
  946MOL0     O30469  10.404   1.709   6.472  0.0272  0.8570  0.1328
  946MOL0     C30470  10.532   1.773   6.508 -0.9909  0.2043 -0.2570
  946MOL0     C30471  10.640   1.681   6.458  0.7763 -0.5755 -0.2925
  946MOL0     C30472  10.636   1.685   6.291 -1.3041  0.1856 -0.4666
  946MOL0     C30473  10.770   1.731   6.231 -0.4997  0.6484 -0.6532
  946MOL0     C30474  10.781   1.880   6.240  0.4226 -0.0319 -1.6248
  946MOL0     C30475  10.797   1.996   6.258  0.2256 -0.2681  0.0107
  946MOL0     C30476  10.254   1.902   6.465 -0.0446 -0.9927 -0.3025
  946MOL0     C30477  10.142   1.973   6.503 -0.2384 -0.3666  0.1423
  946MOL0     C30478  10.115   2.121   6.475 -0.6364  0.3360  0.2783
  946MOL0     H30479   9.848   2.233   6.892  0.1939  1.6800 -0.3708
  946MOL0     H30480   9.617   2.323   6.940  0.5632 -3.8016  2.0061
  946MOL0     H30481   9.310   2.296   6.591  0.1100 -0.3053 -1.4968
  946MOL0     H30482   9.445   2.421   6.596 -0.9392 -0.1099  0.7949
  946MOL0     H30483   9.191   2.424   6.743  0.5802 -2.3208 -0.7370
  946MOL0     H30484   9.313   2.538   6.770  1.5512  2.6662 -1.2078
  946MOL0     H30485   9.288   2.607   6.515 -0.9507  2.0199  0.7744
  946MOL0     H30486   9.167   2.472   6.505 -1.7453 -0.8257  1.2919
  946MOL0     H30487   9.031   2.609   6.664  1.9077 -1.8763 -1.0553
  946MOL0     H30488   9.164   2.722   6.690  3.3055 -0.2792 -1.3114
  946MOL0     H30489   9.134   2.822   6.486  0.3930 -0.8793  0.9927
  946MOL0     H30490   8.972   2.811   6.566 -0.1176  1.3774 -0.8578
  946MOL0     H30491   8.958   2.767   6.320  0.9978  1.3899  1.3433
  946MOL0     H30492   9.064   2.626   6.355  1.8322  0.6119  2.4918
  946MOL0     H30493   8.775   2.706   6.429  1.9247  2.9984  0.4893
  946MOL0     H30494   8.853   2.579   6.522  0.2783  1.0079  0.5922
  946MOL0     H30495   8.798   2.581   6.222 -4.7198 -0.0230 -0.0535
  946MOL0     H30496   8.893   2.462   6.321  1.3495  2.0409  1.4191
  946MOL0     H30497   8.665   2.326   6.171  1.5753 -1.0416  0.2099
  946MOL0     H30498   8.404   2.147   6.415 -0.8891 -1.1260 -1.2144
  946MOL0     H30499   8.480   2.120   6.262  0.3884 -0.3865 -0.2791
  946MOL0     H30500   8.217   2.204   6.306  0.5443 -0.0957  1.5359
  946MOL0     H30501   8.289   2.352   6.349 -0.8675 -0.5789 -0.0680
  946MOL0     H30502   8.194   2.356   6.136 -0.0472 -1.0571 -0.0163
  946MOL0     H30503   8.364   2.397   6.128  4.2954 -1.8119 -0.6235
  946MOL0     H30504   8.251   2.132   6.007  1.4816 -0.1499 -0.0865
  946MOL0     H30505   8.289   2.291   5.935  0.5905  0.4464  0.1295
  946MOL0     H30506   8.307   2.116   5.775  1.4696  1.5154  3.8787
  946MOL0     H30507   8.382   1.885   5.510 -1.6262 -0.9566  1.5718
  946MOL0     H30508   8.429   2.049   5.453 -0.6179  1.4732 -0.1935
  946MOL0     H30509   8.279   2.034   5.539 -0.1138 -0.2574 -1.6750
  946MOL0     H30510   8.920   1.876   5.418  1.0791  0.4746  4.4338
  946MOL0     H30511   9.084   1.725   5.285  0.8798 -2.5640  1.7954
  946MOL0     H30512   9.116   1.320   5.337  1.8694  3.3965  1.0525
  946MOL0     H30513   8.963   1.325   5.241  0.3295 -3.2404  0.8561
  946MOL0     H30514   9.082   1.354   5.023  2.3637 -1.6098 -2.0603
  946MOL0     H30515   9.220   1.368   5.112 -0.4691  0.0754  2.0007
  946MOL0     H30516   9.230   1.164   5.021  0.9175  0.8497  0.0424
  946MOL0     H30517   9.066   1.105   5.083  0.4929 -0.4348  1.0074
  946MOL0     H30518   9.296   1.185   5.268  0.4985  1.8596 -3.2976
  946MOL0     H30519   9.299   1.036   5.163 -1.1503  0.6358 -1.6159
  946MOL0     H30520   9.081   1.081   5.360  0.0849  0.9965 -2.4278
  946MOL0     H30521   9.145   0.932   5.281  2.8850 -0.1023 -1.5991
  946MOL0     H30522   9.240   0.943   5.516  1.6678 -0.7136  1.2005
  946MOL0     H30523   9.286   1.104   5.497  3.3164 -0.6108  1.1381
  946MOL0     H30524   9.469   1.055   5.346 -2.5506 -0.1712 -1.0551
  946MOL0     H30525   9.425   0.881   5.332 -2.5669 -1.3988  1.8910
  946MOL0     H30526   9.589   0.884   5.480 -2.3611 -2.6356 -1.2499
  946MOL0     H30527   9.439   0.855   5.571 -2.2871  0.5867 -1.8613
  946MOL0     H30528   8.906   1.377   5.454 -1.9825  0.0947 -0.8787
  946MOL0     H30529   8.785   1.533   5.621  1.5423  0.8216  0.3985
  946MOL0     H30530   8.758   1.932   5.805  0.0161 -1.9699 -1.9326
  946MOL0     H30531   8.677   2.086   5.969  1.2160  1.2334 -0.9084
  946MOL0     H30532   9.477   2.172   6.575 -0.7596  1.3538  1.5991
  946MOL0     H30533   9.692   2.050   6.538 -2.5240 -4.1220  3.1849
  946MOL0     H30534  10.008   1.720   6.688 -0.9808  1.9123  0.9727
  946MOL0     H30535  10.211   1.603   6.603  2.5482  1.0235  0.1624
  946MOL0     H30536  10.550   1.871   6.462 -0.3133 -0.5519 -1.6675
  946MOL0     H30537  10.540   1.797   6.614  0.5997 -1.2490 -0.0117
  946MOL0     H30538  10.633   1.585   6.511  4.1013 -0.8733 -0.1779
  946MOL0     H30539  10.736   1.721   6.491  1.1046 -0.5261 -1.2927
  946MOL0     H30540  10.612   1.581   6.266 -0.1245 -0.4620  1.0082
  946MOL0     H30541  10.542   1.733   6.263 -3.8547 -3.6928  0.5470
  946MOL0     H30542  10.773   1.713   6.123 -0.0989 -2.7901 -0.1736
  946MOL0     H30543  10.847   1.672   6.281 -1.0738  0.5667  0.1575
  946MOL0     H30544  10.812   2.101   6.275 -3.1415  0.2206  0.5644
  946MOL0     H30545  10.331   1.959   6.415 -0.0422  0.4688  1.2887
  946MOL0     H30546  10.144   2.189   6.555 -0.7872 -0.4751  1.0397
  946MOL0     H30547  10.179   2.155   6.393 -2.3327 -0.5713 -1.5323
  946MOL0     H30548  10.012   2.132   6.438 -0.4023  0.5415 -0.3153
  947MOL0     O30549  10.781  10.505   1.133 -0.1348 -0.4236 -0.8063
  947MOL0     C30550  10.700  10.575   1.080  0.9114 -0.4629 -0.7392
  947MOL0     O30551  10.579  10.605   1.127  0.0738  0.0864 -0.5766
  947MOL0     C30552  10.554  10.536   1.241  0.7135  1.0821 -0.0355
  947MOL0     C30553  10.577  10.573   1.371  0.4723 -0.5193  0.5360
  947MOL0     C30554  10.532  10.503   1.484  0.8690 -0.0877  0.6808
  947MOL0     C30555  10.470  10.379   1.469 -0.5037 -0.2633  0.1027
  947MOL0     O30556  10.441  10.295   1.573 -0.0079  0.1719 -0.7455
  947MOL0     C30557  10.318  10.336   1.626 -0.6059  0.0742  0.6654
  947MOL0     C30558  10.264  10.222   1.701  0.1434 -0.0616 -0.0286
  947MOL0     C30559  10.229  10.097   1.615 -0.0224  0.3388  0.0267
  947MOL0     C30560  10.170   9.970   1.691 -0.1919  0.6880 -0.0519
  947MOL0     C30561  10.074   9.882   1.612  0.3771  0.2092  0.9952
  947MOL0     C30562  10.050   9.753   1.701 -0.6011 -1.0260  0.1909
  947MOL0     C30563   9.953   9.664   1.621 -0.3499  0.0626 -0.8325
  947MOL0     C30564   9.937   9.532   1.699 -0.2872  0.6059  0.3914
  947MOL0     N30565   9.813   9.464   1.662 -0.1777  0.2736 -0.3530
  947MOL0     C30566   9.689   9.487   1.714  0.8378  0.2759  0.7292
  947MOL0     C30567   9.606   9.395   1.663 -0.6322 -0.8815  0.2035
  947MOL0     C30568   9.466   9.383   1.691  0.3377 -0.0047  0.0300
  947MOL0     C30569   9.375   9.480   1.605 -0.5554  0.0735 -0.2818
  947MOL0     C30570   9.372   9.458   1.457  0.4667  0.9055 -0.4366
  947MOL0     C30571   9.481   9.537   1.386  0.7206 -0.8384  0.3127
  947MOL0     O30572   9.448   9.675   1.399  0.4359 -0.1042  0.0972
  947MOL0     C30573   9.547   9.761   1.354 -0.0535  0.1733  0.6409
  947MOL0     C30574   9.511   9.900   1.361 -0.1342  1.1795  0.2844
  947MOL0     C30575   9.595  10.003   1.320 -0.5284  0.6579 -0.0059
  947MOL0     C30576   9.542  10.142   1.331 -0.1722  0.2832 -0.0086
  947MOL0     C30577   9.717   9.967   1.255  0.0053 -0.4857 -1.0956
  947MOL0     C30578   9.812  10.060   1.192  0.1305  0.0701 -0.5279
  947MOL0     O30579   9.937  10.017   1.155 -0.1521 -0.3472  0.8246
  947MOL0     C30580  10.033  10.102   1.098 -1.1354  0.0196  0.7445
  947MOL0     C30581  10.114  10.063   0.990 -0.4389  0.1220  0.3521
  947MOL0     C30582  10.218  10.135   0.929  0.0607  0.2332 -0.3639
  947MOL0     C30583  10.223  10.274   0.974  0.4505  0.4932 -0.6565
  947MOL0     O30584  10.314  10.364   0.913  0.5048  0.9696 -0.1874
  947MOL0     C30585  10.339  10.350   0.775  0.8069  0.0888 -0.2473
  947MOL0     C30586  10.438  10.460   0.735 -0.0546  0.0020  0.0443
  947MOL0     C30587  10.504  10.438   0.597 -0.2243  0.0364 -0.8459
  947MOL0     C30588  10.610  10.330   0.601 -0.2514  0.2873 -0.3620
  947MOL0     C30589  10.634  10.287   0.458 -0.2800  0.3045  1.1367
  947MOL0     C30590  10.770  10.214   0.425 -0.0472  0.2421  1.1751
  947MOL0     C30591  10.897  10.283   0.493  0.6232 -0.5131 -0.7832
  947MOL0     C30592  11.027  10.242   0.437  0.1644  0.0840  0.0318
  947MOL0    Cl30593  11.167  10.290   0.545  0.0606 -0.1671  0.5907
  947MOL0     C30594  10.135  10.319   1.081  0.0569  0.0987  0.0068
  947MOL0     C30595  10.048  10.236   1.145  0.2337 -0.5418 -0.0567
  947MOL0     O30596   9.766  10.167   1.169 -0.3937 -0.0219 -0.0154
  947MOL0     C30597   9.747   9.833   1.234  0.4539  0.4067  0.2709
  947MOL0     C30598   9.670   9.733   1.290  0.3598  0.2887 -0.3505
  947MOL0     N30599   9.685   9.321   1.573  0.0237  0.9446  0.0327
  947MOL0     N30600   9.803   9.368   1.570 -0.5379 -1.0947  1.1289
  947MOL0     C30601  10.438  10.336   1.343 -0.6927  0.1366 -0.3080
  947MOL0     C30602  10.478  10.418   1.230  0.9335  1.1807  0.0448
  947MOL0     C30603  10.740  10.605   0.947 -0.0786 -0.7356  0.4746
  947MOL0     C30604  10.647  10.683   0.870  1.0511 -0.0859 -0.1733
  947MOL0     C30605  10.670  10.718   0.736 -0.1639 -0.5892  0.7348
  947MOL0     C30606  10.779  10.664   0.671 -0.0244  0.3868  0.6602
  947MOL0     O30607  10.795  10.686   0.536  0.4219  0.0440 -0.7264
  947MOL0     C30608  10.864  10.801   0.495  0.3429 -0.8079  0.7947
  947MOL0     C30609  10.898  10.786   0.344  0.1718  0.0160 -0.4392
  947MOL0     C30610  10.975  10.917   0.280  0.3419  0.2361 -0.3592
  947MOL0     C30611  11.012  10.877   0.135 -0.0696 -0.2951 -0.4973
  947MOL0     C30612  11.087  10.983   0.069  0.4883 -0.8120  0.3656
  947MOL0     C30613  11.155  11.065   0.016 -0.3684 -0.1185 -0.3711
  947MOL0     C30614  10.871  10.580   0.736  1.0396  0.3234 -0.1848
  947MOL0     C30615  10.849  10.542   0.868 -0.3055 -0.0926 -0.0914
  947MOL0     C30616  10.960  10.453   0.920  0.9934  0.5479 -0.1010
  947MOL0     H30617  10.639  10.661   1.381  1.8278 -1.2838 -0.6618
  947MOL0     H30618  10.543  10.554   1.579  0.2805  1.6141 -0.1300
  947MOL0     H30619  10.242  10.388   1.567  0.5928  1.3404  0.1587
  947MOL0     H30620  10.349  10.410   1.701 -0.0907 -1.2644  1.8129
  947MOL0     H30621  10.339  10.183   1.770 -2.9498 -2.8038  2.1260
  947MOL0     H30622  10.175  10.252   1.758 -0.7134  0.7816 -1.7388
  947MOL0     H30623  10.166  10.122   1.530 -1.1702 -0.2680  0.6733
  947MOL0     H30624  10.319  10.054   1.570 -3.0916 -4.6525 -2.2305
  947MOL0     H30625  10.258   9.915   1.727 -2.6488 -2.5996  1.3963
  947MOL0     H30626  10.110  10.003   1.776 -3.7151 -2.1695 -1.2187
  947MOL0     H30627  10.118   9.854   1.515 -3.3890 -0.1190 -0.7877
  947MOL0     H30628   9.981   9.937   1.597  0.6909  0.8188  1.2138
  947MOL0     H30629  10.150   9.708   1.709  0.4112  0.9944 -0.3561
  947MOL0     H30630   9.995   9.779   1.791 -2.7511 -1.1521 -1.0155
  947MOL0     H30631   9.982   9.651   1.517 -3.6398 -1.8468 -1.6382
  947MOL0     H30632   9.852   9.705   1.624 -0.9349 -1.3442 -0.8613
  947MOL0     H30633  10.012   9.464   1.658 -2.2033 -0.2598 -1.9438
  947MOL0     H30634   9.940   9.554   1.806 -4.1889  0.1196  0.7616
  947MOL0     H30635   9.654   9.554   1.792 -1.6365 -1.6812  1.4328
  947MOL0     H30636   9.454   9.398   1.799  0.0001 -1.7831  0.2741
  947MOL0     H30637   9.424   9.283   1.674 -3.4787  1.7023 -1.9150
  947MOL0     H30638   9.273   9.472   1.644  0.3615  0.6024  2.4351
  947MOL0     H30639   9.420   9.574   1.638  2.0440 -0.5359 -1.8347
  947MOL0     H30640   9.397   9.354   1.432 -1.7907 -0.1017  1.1929
  947MOL0     H30641   9.274   9.483   1.415 -2.6660 -2.7737  3.6873
  947MOL0     H30642   9.576   9.517   1.436  0.4677  1.1792  1.7017
  947MOL0     H30643   9.477   9.503   1.282 -0.1439 -0.1965  0.1288
  947MOL0     H30644   9.412   9.919   1.402 -0.1307  3.8572 -0.7371
  947MOL0     H30645   9.552  10.204   1.241 -1.6752  0.5549 -0.0245
  947MOL0     H30646   9.606  10.182   1.410 -1.6027  2.8112 -0.0236
  947MOL0     H30647   9.435  10.142   1.355 -0.0497  1.7685  0.6409
  947MOL0     H30648  10.100   9.967   0.941  0.1543  0.4865 -0.5549
  947MOL0     H30649  10.288  10.076   0.871 -0.1349 -0.8683  0.4939
  947MOL0     H30650  10.380  10.252   0.748 -0.1472 -0.4733  0.2708
  947MOL0     H30651  10.249  10.354   0.712  0.8511  0.8509 -0.2666
  947MOL0     H30652  10.395  10.560   0.739  1.6266  0.7260  1.9436
  947MOL0     H30653  10.502  10.463   0.824 -1.7800 -0.9479  1.3656
  947MOL0     H30654  10.540  10.537   0.567 -1.5779  1.2520  1.2712
  947MOL0     H30655  10.419  10.404   0.538 -0.7364  1.4307 -0.9434
  947MOL0     H30656  10.567  10.248   0.660  0.3254  0.4752  0.3295
  947MOL0     H30657  10.692  10.374   0.658  1.2480  1.1749 -3.0374
  947MOL0     H30658  10.552  10.216   0.445 -0.1996  0.1549  1.4275
  947MOL0     H30659  10.614  10.365   0.384  0.2477 -1.6226 -1.1719
  947MOL0     H30660  10.785  10.189   0.319 -1.6226 -1.8913  1.3967
  947MOL0     H30661  10.760  10.113   0.467 -1.2482 -0.3181 -0.3749
  947MOL0     H30662  10.888  10.252   0.597  1.2251  2.9394  0.3956
  947MOL0     H30663  10.884  10.391   0.488  0.8751 -0.4706 -0.5228
  947MOL0     H30664  11.036  10.297   0.343 -0.5976  1.7967  0.9165
  947MOL0     H30665  11.015  10.135   0.419 -0.4710  0.3668 -1.2979
  947MOL0     H30666  10.140  10.417   1.126 -1.1914 -0.5273  1.6111
  947MOL0     H30667  10.004  10.274   1.237  1.3211  0.0652  0.2229
  947MOL0     H30668   9.836   9.813   1.176  0.2026  0.5551 -0.1755
  947MOL0     H30669   9.702   9.630   1.284  3.3832  0.8621  2.7360
  947MOL0     H30670  10.386  10.244   1.317  0.1334  0.0279 -1.7002
  947MOL0     H30671  10.439  10.384   1.134  0.5323 -0.3861  0.7319
  947MOL0     H30672  10.553  10.719   0.910  0.8310 -1.0397  0.1956
  947MOL0     H30673  10.609  10.781   0.672  1.6483  0.3777 -0.0961
  947MOL0     H30674  10.794  10.884   0.482  1.9760  0.3176 -1.4654
  947MOL0     H30675  10.938  10.843   0.563 -2.0483 -1.4404  4.0374
  947MOL0     H30676  10.823  10.752   0.273  2.3494 -2.2278 -1.8166
  947MOL0     H30677  10.968  10.702   0.337  0.8205  0.5342 -0.2765
  947MOL0     H30678  10.914  11.008   0.286  0.5318  0.3688 -0.4187
  947MOL0     H30679  11.061  10.929   0.346 -1.2978  0.0833  1.9049
  947MOL0     H30680  10.919  10.872   0.078  0.1187 -0.2541 -0.8081
  947MOL0     H30681  11.065  10.782   0.128 -1.0262 -0.9756  0.9381
  947MOL0     H30682  11.209  11.140  -0.038 -3.2001  1.3751 -1.3356
  947MOL0     H30683  10.958  10.544   0.681  1.5191  0.2509  0.5935
  947MOL0     H30684  11.022  10.415   0.838  3.1404 -0.0524  1.7220
  947MOL0     H30685  11.023  10.510   0.988 -0.9359  3.4210 -0.5565
  947MOL0     H30686  10.913  10.371   0.977  2.2814  0.3262  0.6726
  948MOL0     O30687  11.392   2.102   0.108 -0.9436 -0.6775 -0.1732
  948MOL0     C30688  11.336   2.184   0.176 -0.1087  0.1182  0.1875
  948MOL0     O30689  11.367   2.317   0.180  0.2996  0.7732  0.3436
  948MOL0     C30690  11.442   2.351   0.067  0.0654 -0.7962 -0.1785
  948MOL0     C30691  11.381   2.414  -0.048  0.3924  0.4308  0.9622
  948MOL0     C30692  11.446   2.488  -0.142  0.5981  0.5089 -0.1049
  948MOL0     C30693  11.585   2.492  -0.128  0.1770 -0.7507 -0.5171
  948MOL0     O30694  11.647   2.554  -0.234 -0.0345  0.5416  0.1547
  948MOL0     C30695  11.789   2.522  -0.239  0.5538  0.7483 -0.0665
  948MOL0     C30696  11.854   2.605  -0.346 -0.0866  0.3351 -0.2532
  948MOL0     C30697  12.003   2.632  -0.308 -0.1177 -0.4463  0.8060
  948MOL0     C30698  12.058   2.750  -0.394 -1.5677  0.8891 -0.4002
  948MOL0     C30699  12.201   2.762  -0.358 -0.4342 -0.2688 -0.3473
  948MOL0     C30700  12.289   2.779  -0.476  0.2668 -1.3223  0.4487
  948MOL0     C30701  12.251   2.914  -0.546  0.4140 -0.1629  0.0448
  948MOL0     C30702  12.335   2.944  -0.671 -0.9915  0.3013 -0.8480
  948MOL0     N30703  12.484   2.936  -0.650 -0.1116 -0.1225  1.1579
  948MOL0     C30704  12.550   3.013  -0.563  0.8204 -0.5682  0.3420
  948MOL0     C30705  12.677   2.982  -0.595 -1.4391 -0.2368 -0.0734
  948MOL0     C30706  12.804   3.041  -0.532  0.4587 -0.4004  0.5142
  948MOL0     C30707  12.933   2.995  -0.582  0.4967 -0.0801  0.0411
  948MOL0     C30708  12.946   2.852  -0.527  0.6375  0.7070  1.2349
  948MOL0     C30709  13.079   2.793  -0.578  0.0241  0.1483 -0.8523
  948MOL0     O30710  13.200   2.863  -0.534 -0.7905  0.4317  1.0854
  948MOL0     C30711  13.322   2.846  -0.595  0.1730  0.5227 -0.0997
  948MOL0     C30712  13.349   2.737  -0.673 -0.2849 -0.0217 -0.1596
  948MOL0     C30713  13.474   2.706  -0.733 -0.1921 -0.2140 -0.4435
  948MOL0     C30714  13.494   2.573  -0.785 -0.6993 -0.2317  0.9874
  948MOL0     C30715  13.579   2.803  -0.723  0.6515  0.0382 -0.2903
  948MOL0     C30716  13.716   2.793  -0.785  0.7612  0.1022 -0.1138
  948MOL0     O30717  13.749   2.687  -0.873 -0.1622 -0.0762  0.0709
  948MOL0     C30718  13.884   2.664  -0.916  0.4400  0.2604  0.0926
  948MOL0     C30719  13.914   2.596  -1.038 -0.4153  0.1529 -0.0218
  948MOL0     C30720  14.049   2.574  -1.070  0.6726  0.1529  0.3052
  948MOL0     C30721  14.156   2.599  -0.985 -0.4531  0.8983  0.7743
  948MOL0     O30722  14.276   2.561  -1.030  0.1197  0.1289  0.7181
  948MOL0     C30723  14.391   2.578  -0.943  0.5343  0.4925  0.9728
  948MOL0     C30724  14.520   2.582  -1.034  0.8775  0.6519  0.4562
  948MOL0     C30725  14.644   2.523  -0.979 -0.1975 -0.2491  0.0087
  948MOL0     C30726  14.701   2.601  -0.860  0.1389 -0.3415  1.3421
  948MOL0     C30727  14.804   2.521  -0.783 -0.1935  0.1249  0.7632
  948MOL0     C30728  14.748   2.408  -0.704 -1.0599  0.9905 -0.8856
  948MOL0     C30729  14.851   2.362  -0.601 -0.2720 -0.0385  0.5734
  948MOL0     C30730  14.777   2.280  -0.496  0.5292 -1.1393  0.0650
  948MOL0    Cl30731  14.895   2.187  -0.410  0.0481  0.4711  0.2726
  948MOL0     C30732  14.122   2.634  -0.854 -0.7254 -0.0652 -0.2419
  948MOL0     C30733  13.991   2.678  -0.826  0.3657  0.4526 -0.0602
  948MOL0     O30734  13.792   2.878  -0.753 -0.5946 -0.0654  0.2785
  948MOL0     C30735  13.540   2.918  -0.652  1.0012  0.4191  0.0208
  948MOL0     C30736  13.417   2.939  -0.595  0.1906 -0.3085 -0.9026
  948MOL0     N30737  12.686   2.890  -0.694  0.2506  0.2298 -0.6000
  948MOL0     N30738  12.570   2.858  -0.726 -0.3326 -0.3918  0.2101
  948MOL0     C30739  11.645   2.437  -0.019 -0.8091  0.2152  0.3004
  948MOL0     C30740  11.574   2.364   0.076  0.4282 -0.2859  0.2702
  948MOL0     C30741  11.209   2.152   0.242  0.4507 -0.1684  0.6401
  948MOL0     C30742  11.134   2.260   0.303 -0.2468 -0.5862 -0.2809
  948MOL0     C30743  11.012   2.237   0.365 -0.1636  0.0807 -0.4568
  948MOL0     C30744  10.952   2.116   0.371  0.4817 -0.1845 -0.2765
  948MOL0     O30745  10.838   2.076   0.437 -0.0142 -1.2893  0.0723
  948MOL0     C30746  10.769   2.163   0.529 -0.5534  0.5393  1.1012
  948MOL0     C30747  10.847   2.194   0.659 -0.6470 -0.0149 -0.1897
  948MOL0     C30748  10.906   2.073   0.722 -0.0613 -0.2574 -0.0416
  948MOL0     C30749  10.999   2.105   0.836  0.0027  0.1876  0.4172
  948MOL0     C30750  11.120   2.178   0.786  1.2569  0.4320  0.0244
  948MOL0     C30751  11.220   2.238   0.757  0.5747 -0.7524  0.5978
  948MOL0     C30752  11.028   2.017   0.309 -1.0443  0.1345 -0.0516
  948MOL0     C30753  11.145   2.026   0.243 -0.6133  0.6898  0.2664
  948MOL0     C30754  11.212   1.906   0.181 -0.3140  0.4103  0.5254
  948MOL0     H30755  11.274   2.396  -0.052  0.5515 -0.8620  1.7676
  948MOL0     H30756  11.387   2.535  -0.220  1.6166  1.2219 -0.4753
  948MOL0     H30757  11.787   2.414  -0.250 -2.4264  0.3764  2.7590
  948MOL0     H30758  11.841   2.549  -0.147 -0.4850  1.5645  0.3092
  948MOL0     H30759  11.857   2.548  -0.439 -2.1819 -0.6212  0.1864
  948MOL0     H30760  11.807   2.703  -0.356  0.2095  0.3640 -1.4247
  948MOL0     H30761  12.010   2.650  -0.200 -3.2107 -1.1652  1.2267
  948MOL0     H30762  12.057   2.540  -0.331  1.2185  0.6200 -0.5098
  948MOL0     H30763  12.039   2.729  -0.499  2.4889 -1.3134 -0.9099
  948MOL0     H30764  11.992   2.832  -0.366 -1.1361  0.3159  2.7415
  948MOL0     H30765  12.236   2.674  -0.303 -0.9238 -0.9876 -1.1522
  948MOL0     H30766  12.222   2.849  -0.295  3.4777 -0.7770 -0.6398
  948MOL0     H30767  12.391   2.766  -0.438  0.4243  1.0121  0.9625
  948MOL0     H30768  12.272   2.702  -0.551 -0.9960 -0.5494 -0.0856
  948MOL0     H30769  12.268   2.998  -0.478  0.1752 -0.4049  0.4080
  948MOL0     H30770  12.146   2.915  -0.575  0.7484  1.1594 -1.2096
  948MOL0     H30771  12.308   2.879  -0.755  1.7675 -2.5340  0.2701
  948MOL0     H30772  12.319   3.046  -0.705 -1.6908  0.1801 -0.8981
  948MOL0     H30773  12.514   3.078  -0.484 -1.8111  1.5763 -2.3457
  948MOL0     H30774  12.792   3.032  -0.424 -2.5957  2.5065  0.5876
  948MOL0     H30775  12.791   3.149  -0.547  3.5074  0.4611  2.9634
  948MOL0     H30776  12.945   3.001  -0.691 -1.1770 -2.5539 -0.3469
  948MOL0     H30777  13.006   3.055  -0.527 -2.3538  3.3272  0.4352
  948MOL0     H30778  12.942   2.846  -0.418 -3.4140 -0.5890  1.1845
  948MOL0     H30779  12.863   2.791  -0.565  1.7912 -0.2880  0.2427
  948MOL0     H30780  13.082   2.696  -0.529  1.0840  1.5740  2.1624
  948MOL0     H30781  13.073   2.799  -0.687 -2.6008 -2.2030 -0.9401
  948MOL0     H30782  13.268   2.665  -0.681 -0.0930 -0.1302 -1.2844
  948MOL0     H30783  13.406   2.513  -0.757 -1.9428  0.9672 -0.1937
  948MOL0     H30784  13.580   2.513  -0.753  0.7124  0.2691 -1.5952
  948MOL0     H30785  13.500   2.577  -0.894  2.5303  1.9157  1.1357
  948MOL0     H30786  13.834   2.572  -1.106  0.1088 -0.0283 -0.5853
  948MOL0     H30787  14.066   2.546  -1.174  1.7167  3.1497 -0.4352
  948MOL0     H30788  14.391   2.671  -0.886  1.9163  1.3403 -0.3239
  948MOL0     H30789  14.400   2.489  -0.881 -2.0022  0.4190  1.3440
  948MOL0     H30790  14.492   2.519  -1.119 -2.3529  0.9176  1.1951
  948MOL0     H30791  14.544   2.680  -1.077  1.8679  0.0058 -0.5253
  948MOL0     H30792  14.719   2.512  -1.058 -0.1217 -2.4725  0.3237
  948MOL0     H30793  14.617   2.420  -0.953  0.1840 -0.3258  0.1004
  948MOL0     H30794  14.617   2.620  -0.792 -0.8334 -2.6861  0.9026
  948MOL0     H30795  14.728   2.698  -0.902 -2.3879  0.7577  2.0687
  948MOL0     H30796  14.876   2.482  -0.855 -1.8095  1.1576 -1.5212
  948MOL0     H30797  14.849   2.594  -0.715 -2.8900  0.8297  1.9474
  948MOL0     H30798  14.729   2.329  -0.776  1.3248 -0.6125  0.1284
  948MOL0     H30799  14.656   2.439  -0.652 -1.5574 -0.8913 -0.5880
  948MOL0     H30800  14.911   2.443  -0.558 -0.2846 -0.3336  1.1554
  948MOL0     H30801  14.917   2.300  -0.663  0.3505 -0.0364  1.2247
  948MOL0     H30802  14.710   2.207  -0.543 -1.0507  1.0107 -1.2199
  948MOL0     H30803  14.719   2.345  -0.430  0.7187 -0.3388 -0.5312
  948MOL0     H30804  14.193   2.631  -0.772 -1.7509 -0.6148  0.6534
  948MOL0     H30805  13.975   2.730  -0.732  2.5435  1.2771 -0.1029
  948MOL0     H30806  13.617   2.993  -0.635  1.7923 -0.3880  0.0758
  948MOL0     H30807  13.390   3.033  -0.547 -0.5400  1.0697 -3.7896
  948MOL0     H30808  11.749   2.454   0.006 -0.0380 -0.7005 -1.9356
  948MOL0     H30809  11.621   2.326   0.167  3.7407  2.2397 -0.1571
  948MOL0     H30810  11.166   2.363   0.311 -2.6334  0.2286 -0.4092
  948MOL0     H30811  10.973   2.314   0.430  1.8614  0.1604  0.7463
  948MOL0     H30812  10.753   2.257   0.475  0.8332  0.0878 -0.1728
  948MOL0     H30813  10.675   2.117   0.560  0.5275 -2.2967  0.4577
  948MOL0     H30814  10.771   2.245   0.719 -2.2600  1.3733 -3.1937
  948MOL0     H30815  10.926   2.268   0.650 -2.1342  1.7622  0.6678
  948MOL0     H30816  10.832   2.003   0.762 -0.5195  0.3230  0.1311
  948MOL0     H30817  10.951   2.003   0.651 -4.1461 -2.0305 -1.1967
  948MOL0     H30818  11.012   2.010   0.888 -0.2830 -2.2198 -3.5388
  948MOL0     H30819  10.942   2.177   0.897  0.2609  0.0937  0.7677
  948MOL0     H30820  11.304   2.298   0.727 -2.2797  2.6346 -1.5520
  948MOL0     H30821  10.969   1.925   0.308 -0.8207 -0.0060 -0.3327
  948MOL0     H30822  11.178   1.804   0.200 -0.8960  0.0456 -2.0261
  948MOL0     H30823  11.219   1.908   0.072  0.8177 -3.1796  0.4137
  948MOL0     H30824  11.316   1.903   0.214 -0.9156 -0.5945  2.4531
  949MOL0     O30825  10.431   1.213   3.506 -0.2802  0.2710  0.0137
  949MOL0     C30826  10.465   1.322   3.524 -0.6712  0.2726 -0.1630
  949MOL0     O30827  10.484   1.376   3.656  0.2997  0.5778 -0.1722
  949MOL0     C30828  10.467   1.282   3.761  0.2388  0.7634  0.0889
  949MOL0     C30829  10.341   1.252   3.812  0.6191 -0.4177  0.1617
  949MOL0     C30830  10.317   1.159   3.917  0.3459  0.0406 -0.2159
  949MOL0     C30831  10.427   1.078   3.964  0.5071  0.2078  1.0269
  949MOL0     O30832  10.412   0.968   4.041  0.4777  0.8066 -0.2847
  949MOL0     C30833  10.517   0.862   4.045  0.2626  0.9191  0.7496
  949MOL0     C30834  10.550   0.791   3.922  0.2772  0.4365 -0.0538
  949MOL0     C30835  10.647   0.678   3.955 -0.0993  0.1032  1.0003
  949MOL0     C30836  10.709   0.623   3.828  0.3548  0.3690 -0.2413
  949MOL0     C30837  10.821   0.516   3.858  0.8650  1.0660 -0.2627
  949MOL0     C30838  10.866   0.451   3.723 -0.5444 -0.1463  0.4436
  949MOL0     C30839  10.827   0.301   3.709 -0.1660 -1.4193 -0.1158
  949MOL0     C30840  10.678   0.285   3.696 -0.3636 -0.2145 -0.3499
  949MOL0     N30841  10.656   0.144   3.673 -0.6405 -0.3963 -0.2275
  949MOL0     C30842  10.683   0.073   3.562  0.6185 -0.3133 -0.3023
  949MOL0     C30843  10.687  -0.059   3.607 -0.0688 -0.6641  1.4454
  949MOL0     C30844  10.721  -0.174   3.520  0.6700 -0.0333  0.2444
  949MOL0     C30845  10.624  -0.290   3.519  0.5008 -0.5987 -0.1912
  949MOL0     C30846  10.655  -0.369   3.405  0.2046  0.3920 -0.6789
  949MOL0     C30847  10.590  -0.514   3.413  0.1226 -0.5414 -0.4696
  949MOL0     O30848  10.443  -0.494   3.409  0.1464 -0.8793  0.4755
  949MOL0     C30849  10.369  -0.604   3.438  0.5338  0.1317 -0.2650
  949MOL0     C30850  10.238  -0.583   3.482 -0.1863 -0.1054  0.1755
  949MOL0     C30851  10.147  -0.690   3.508 -1.0160  0.4746  0.6111
  949MOL0     C30852  10.022  -0.645   3.572  0.8621  0.8489  0.1482
  949MOL0     C30853  10.198  -0.826   3.507 -0.2975 -0.8171  0.1369
  949MOL0     C30854  10.138  -0.938   3.579 -0.4098 -0.3344 -0.0656
  949MOL0     O30855  10.153  -1.066   3.530  0.2765  0.5298  0.3973
  949MOL0     C30856  10.081  -1.167   3.584  1.3084 -0.4610 -0.3597
  949MOL0     C30857   9.949  -1.196   3.537  0.2593  0.4117 -0.1784
  949MOL0     C30858   9.874  -1.289   3.618 -0.3950  0.4227 -0.4100
  949MOL0     C30859   9.934  -1.354   3.726  0.0998  1.2043  0.3258
  949MOL0     O30860   9.865  -1.450   3.803 -0.8340 -0.6816 -0.4080
  949MOL0     C30861   9.743  -1.512   3.768 -0.8345 -0.5955  0.0918
  949MOL0     C30862   9.724  -1.647   3.841 -0.0508 -0.0125  0.6352
  949MOL0     C30863   9.682  -1.643   3.983 -0.2436  0.6106 -0.3396
  949MOL0     C30864   9.774  -1.544   4.069 -0.2223 -1.5612  0.9220
  949MOL0     C30865   9.739  -1.558   4.218  0.1884  0.0196  0.1258
  949MOL0     C30866   9.753  -1.695   4.279  0.4140 -0.4866  0.1592
  949MOL0     C30867   9.896  -1.749   4.281 -0.7621 -1.1720 -0.5161
  949MOL0     C30868   9.916  -1.835   4.163 -0.2589 -0.2090 -0.3022
  949MOL0    Cl30869  10.085  -1.885   4.129  0.1597  0.0554 -0.1245
  949MOL0     C30870  10.069  -1.318   3.765  0.1326  0.2328 -0.5346
  949MOL0     C30871  10.147  -1.238   3.687  0.5097  0.5173 -0.9558
  949MOL0     O30872  10.072  -0.908   3.681 -0.1596 -0.2278  0.7964
  949MOL0     C30873  10.329  -0.851   3.451  0.5049 -0.0504  0.4169
  949MOL0     C30874  10.411  -0.741   3.416  0.5285  0.3711 -0.0177
  949MOL0     N30875  10.669  -0.058   3.740  0.4935  0.6049 -0.2361
  949MOL0     N30876  10.640   0.065   3.781 -0.4317 -0.3734  0.2398
  949MOL0     C30877  10.553   1.117   3.922 -0.9758 -0.1582  0.2789
  949MOL0     C30878  10.577   1.219   3.821 -0.3287  0.2357  0.1887
  949MOL0     C30879  10.466   1.411   3.398 -0.2128  0.4963 -0.0364
  949MOL0     C30880  10.481   1.550   3.418  0.4617 -0.2939  0.8117
  949MOL0     C30881  10.485   1.641   3.319 -0.4367 -0.5166  0.7118
  949MOL0     C30882  10.455   1.600   3.187 -0.8357 -0.5954  0.1387
  949MOL0     O30883  10.463   1.705   3.091  0.5933 -0.4836 -0.3343
  949MOL0     C30884  10.433   1.681   2.951  0.5790 -1.2586 -0.9183
  949MOL0     C30885  10.454   1.802   2.879 -0.8279 -0.7876  0.0967
  949MOL0     C30886  10.390   1.809   2.747  0.4019 -0.8508 -0.5151
  949MOL0     C30887  10.417   1.943   2.683  0.6433 -0.0311  0.6892
  949MOL0     C30888  10.396   1.938   2.543  0.3316 -0.1157  0.0734
  949MOL0     C30889  10.388   1.944   2.423  0.4487  0.3549  0.8588
  949MOL0     C30890  10.432   1.467   3.160  0.3661 -0.1428 -0.9357
  949MOL0     C30891  10.447   1.367   3.259  0.0534 -0.3464 -0.5603
  949MOL0     C30892  10.443   1.223   3.219 -0.0587 -0.0121 -0.6940
  949MOL0     H30893  10.254   1.306   3.776  1.1387  0.4995  0.2569
  949MOL0     H30894  10.219   1.154   3.961  0.0211  1.5144 -0.7030
  949MOL0     H30895  10.491   0.778   4.111  0.6836 -1.6228 -2.0664
  949MOL0     H30896  10.606   0.897   4.097  0.0574 -1.7669  3.1551
  949MOL0     H30897  10.467   0.737   3.875  1.4325 -1.7430  0.2800
  949MOL0     H30898  10.591   0.860   3.847  3.3359 -0.5738  0.5466
  949MOL0     H30899  10.733   0.717   4.011  0.5390 -0.4200  0.3971
  949MOL0     H30900  10.595   0.594   4.002  0.3464  0.1481  1.5819
  949MOL0     H30901  10.623   0.581   3.776 -0.3044 -1.5403  2.1775
  949MOL0     H30902  10.750   0.701   3.764 -0.4591  1.9914  1.1258
  949MOL0     H30903  10.777   0.445   3.928  2.5471  0.0324 -0.1906
  949MOL0     H30904  10.904   0.573   3.902  0.9515  0.0274  0.9746
  949MOL0     H30905  10.825   0.501   3.635 -3.4551 -0.4874  1.5214
  949MOL0     H30906  10.976   0.450   3.723 -0.3883  1.0189  3.9978
  949MOL0     H30907  10.846   0.242   3.799 -1.7736  0.8698  1.8405
  949MOL0     H30908  10.882   0.266   3.621  3.3656 -3.2989  2.5944
  949MOL0     H30909  10.619   0.324   3.779 -0.3209 -0.2921 -0.2828
  949MOL0     H30910  10.644   0.347   3.611 -0.9595 -0.8301 -0.5719
  949MOL0     H30911  10.704   0.105   3.460 -4.6710  1.0338 -1.2801
  949MOL0     H30912  10.825  -0.204   3.536  0.3688 -1.4635 -0.3596
  949MOL0     H30913  10.706  -0.127   3.423 -1.1595  1.6092  1.2516
  949MOL0     H30914  10.632  -0.355   3.606  2.9116 -2.3285 -1.6116
  949MOL0     H30915  10.523  -0.251   3.500  1.1909  0.4735 -1.8385
  949MOL0     H30916  10.621  -0.304   3.324 -1.9482  0.7902  0.4807
  949MOL0     H30917  10.763  -0.387   3.403  0.2370  0.5548 -0.3805
  949MOL0     H30918  10.635  -0.582   3.340  0.8830 -0.6256  0.0737
  949MOL0     H30919  10.618  -0.559   3.508 -2.5600 -3.1196 -0.7763
  949MOL0     H30920  10.218  -0.477   3.495 -1.8514 -0.6058  2.2536
  949MOL0     H30921  10.010  -0.536   3.576 -2.1655  0.6152  0.1752
  949MOL0     H30922  10.024  -0.683   3.674  0.0991 -0.3145 -0.2475
  949MOL0     H30923   9.929  -0.683   3.528  2.3828 -2.2482 -0.6970
  949MOL0     H30924   9.893  -1.138   3.466  0.5184  0.9028  0.0150
  949MOL0     H30925   9.773  -1.308   3.585  0.7680 -3.3651 -2.3482
  949MOL0     H30926   9.663  -1.439   3.783 -0.4599 -0.5167  1.9872
  949MOL0     H30927   9.743  -1.534   3.661 -1.2665  0.4593 -0.1376
  949MOL0     H30928   9.640  -1.699   3.793  1.4239 -2.0578  0.1485
  949MOL0     H30929   9.814  -1.708   3.831 -1.7995 -2.7360  0.1528
  949MOL0     H30930   9.668  -1.742   4.028 -2.2541  1.2811  0.6099
  949MOL0     H30931   9.579  -1.608   3.983 -0.1805  0.8367 -1.6239
  949MOL0     H30932   9.744  -1.445   4.033  1.1878 -1.5347 -0.2457
  949MOL0     H30933   9.879  -1.563   4.046  0.0513  1.2210 -0.5726
  949MOL0     H30934   9.813  -1.494   4.268  0.0080  1.2510 -1.0991
  949MOL0     H30935   9.639  -1.523   4.242 -0.0082  0.2794 -1.0280
  949MOL0     H30936   9.683  -1.768   4.237  0.3389 -1.5090  1.9417
  949MOL0     H30937   9.719  -1.687   4.383  2.1580 -2.4034  0.9256
  949MOL0     H30938   9.915  -1.812   4.368 -0.2361 -2.4179 -1.5061
  949MOL0     H30939   9.977  -1.676   4.292  0.8801 -3.0766  1.0422
  949MOL0     H30940   9.892  -1.767   4.080 -0.3607 -0.2437 -0.3007
  949MOL0     H30941   9.849  -1.921   4.164 -1.2865  0.5435 -1.4182
  949MOL0     H30942  10.111  -1.364   3.853  1.0815  0.3128 -0.9276
  949MOL0     H30943  10.251  -1.227   3.717  0.8347 -3.5639  0.1034
  949MOL0     H30944  10.376  -0.948   3.436  2.4363  1.1524 -1.9550
  949MOL0     H30945  10.512  -0.757   3.379  0.2636 -0.1692 -0.5245
  949MOL0     H30946  10.642   1.074   3.966  0.3886  2.0436 -0.1553
  949MOL0     H30947  10.679   1.243   3.792 -0.9080  0.9211 -1.3882
  949MOL0     H30948  10.486   1.583   3.521 -0.1951  1.6663  0.2603
  949MOL0     H30949  10.498   1.746   3.344  1.6671 -0.7353  0.7627
  949MOL0     H30950  10.494   1.605   2.902 -0.3616 -0.3036 -3.7340
  949MOL0     H30951  10.325   1.668   2.938 -0.0016  1.2189  0.7349
  949MOL0     H30952  10.560   1.805   2.852 -0.4318 -1.5698  1.4766
  949MOL0     H30953  10.421   1.889   2.937 -3.0618 -1.6206  0.1462
  949MOL0     H30954  10.421   1.734   2.673  1.7672  0.9368 -1.8508
  949MOL0     H30955  10.282   1.794   2.754  0.0603  1.4553 -0.1277
  949MOL0     H30956  10.505   2.001   2.712 -0.7824  3.1128 -0.7289
  949MOL0     H30957  10.338   2.010   2.720  2.6961  2.8980  0.1360
  949MOL0     H30958  10.381   1.949   2.316 -1.0806 -3.3723  0.6494
  949MOL0     H30959  10.412   1.437   3.058  2.4162 -1.3707 -1.0389
  949MOL0     H30960  10.356   1.174   3.264 -0.8192  1.4078 -0.5546
  949MOL0     H30961  10.441   1.215   3.110  0.4037 -2.7677 -0.5783
  949MOL0     H30962  10.531   1.179   3.268  0.0364  0.8143 -0.0935
  950MOL0     O30963   9.135  10.373   0.531  0.2770  0.3157 -0.4775
  950MOL0     C30964   9.154  10.333   0.417  0.2999  0.3930 -0.9688
  950MOL0     O30965   9.076  10.250   0.345 -0.5077 -0.0458  0.3023
  950MOL0     C30966   8.960  10.198   0.401 -0.3867 -0.1498 -0.0350
  950MOL0     C30967   8.856  10.278   0.442 -0.3741 -0.9358 -0.2202
  950MOL0     C30968   8.743  10.215   0.503  0.4167 -0.5747 -1.0134
  950MOL0     C30969   8.737  10.078   0.518  0.4239  0.9530 -0.4687
  950MOL0     O30970   8.634  10.030   0.591  0.1013  0.0386 -0.3627
  950MOL0     C30971   8.650   9.970   0.722  0.0971 -0.2325 -0.5713
  950MOL0     C30972   8.545  10.031   0.818 -0.9257  0.8792 -0.0612
  950MOL0     C30973   8.404  10.050   0.755 -0.8826 -0.1705  0.1951
  950MOL0     C30974   8.316   9.928   0.776 -0.5324  0.7525  0.0792
  950MOL0     C30975   8.170   9.956   0.792 -0.1912  0.0337 -0.2321
  950MOL0     C30976   8.096   9.952   0.660  0.4582 -0.7542  0.6406
  950MOL0     C30977   7.948   9.974   0.683 -0.0732 -0.0745 -0.7071
  950MOL0     C30978   7.880   9.848   0.737  0.3686 -0.0555 -0.3281
  950MOL0     N30979   7.871   9.752   0.628  0.0159 -0.7539  0.0900
  950MOL0     C30980   7.860   9.617   0.655 -0.0094  0.2423  0.4798
  950MOL0     C30981   7.884   9.563   0.531 -0.7709  0.8034 -0.3809
  950MOL0     C30982   7.906   9.417   0.503  0.0019  0.3389 -0.6636
  950MOL0     C30983   8.050   9.357   0.530  0.0377  1.2876  0.2559
  950MOL0     C30984   8.076   9.341   0.686  1.2278  0.5711  0.0422
  950MOL0     C30985   7.983   9.237   0.761  0.2646 -0.8638 -0.3988
  950MOL0     O30986   8.040   9.256   0.892 -0.7017 -0.4845  0.0890
  950MOL0     C30987   7.999   9.190   1.003 -0.1007  0.5269 -0.7943
  950MOL0     C30988   7.940   9.065   1.006  0.2048 -0.4655 -0.2196
  950MOL0     C30989   7.887   9.005   1.123  0.4826  0.8054 -0.2132
  950MOL0     C30990   7.829   8.861   1.111 -0.2355  0.3188  0.0723
  950MOL0     C30991   7.882   9.086   1.244  0.3229  0.1791 -0.1248
  950MOL0     C30992   7.837   9.045   1.377 -0.0640 -0.6835 -0.3542
  950MOL0     O30993   7.913   9.095   1.476 -0.1776 -0.3915 -0.6414
  950MOL0     C30994   7.880   9.094   1.610 -0.1445  0.2351 -0.6019
  950MOL0     C30995   7.821   8.983   1.670 -0.9051  0.5042  0.7364
  950MOL0     C30996   7.785   8.973   1.805  0.4626 -0.4248 -0.3317
  950MOL0     C30997   7.822   9.080   1.895  0.4381 -0.2661 -0.1308
  950MOL0     O30998   7.800   9.068   2.034  0.2452  0.1805  0.3834
  950MOL0     C30999   7.809   9.166   2.138 -0.0119  0.3878  0.3492
  950MOL0     C31000   7.668   9.215   2.184  0.0473 -0.5201  0.1346
  950MOL0     C31001   7.606   9.101   2.269  0.7325 -0.2809  0.9716
  950MOL0     C31002   7.632   9.080   2.421 -0.6213 -0.1611 -0.6648
  950MOL0     C31003   7.619   9.204   2.520  0.4801  0.7703  0.5740
  950MOL0     C31004   7.480   9.223   2.575 -1.0727 -0.3343 -0.0419
  950MOL0     C31005   7.435   9.120   2.672  0.4635  0.3520  0.3590
  950MOL0     C31006   7.465   9.147   2.822  0.3712 -0.3460 -0.0717
  950MOL0    Cl31007   7.632   9.084   2.856 -0.2934 -0.1652  0.3692
  950MOL0     C31008   7.878   9.196   1.831 -0.0081 -0.1794 -0.3978
  950MOL0     C31009   7.913   9.203   1.699  0.0609  0.2378 -1.0858
  950MOL0     O31010   7.736   8.976   1.388  0.1658 -0.5760  0.5018
  950MOL0     C31011   7.941   9.214   1.246 -0.2256 -0.2309  0.1828
  950MOL0     C31012   8.003   9.262   1.126 -0.9919 -0.8924  0.5260
  950MOL0     N31013   7.890   9.658   0.431 -0.2358 -0.5881  0.3289
  950MOL0     N31014   7.887   9.771   0.495  0.0733 -0.1550  0.5282
  950MOL0     C31015   8.842  10.001   0.466  0.7356  0.1322 -0.6324
  950MOL0     C31016   8.958  10.058   0.417 -0.3014  0.0523 -1.4414
  950MOL0     C31017   9.279  10.373   0.361  0.3337  0.0260  0.3965
  950MOL0     C31018   9.288  10.394   0.224 -0.0108 -0.0414  1.2405
  950MOL0     C31019   9.407  10.450   0.167  0.0670 -0.3421 -0.3766
  950MOL0     C31020   9.519  10.475   0.245 -0.4616 -0.3014  0.1584
  950MOL0     O31021   9.630  10.540   0.187 -0.3265  0.0799 -0.4727
  950MOL0     C31022   9.744  10.447   0.168 -0.2520  0.0203 -0.7182
  950MOL0     C31023   9.865  10.519   0.128  0.0387  0.7167 -0.1790
  950MOL0     C31024   9.839  10.586  -0.007 -0.4961 -0.6779 -0.6190
  950MOL0     C31025   9.971  10.664  -0.044  0.6368  0.5497  0.4965
  950MOL0     C31026   9.973  10.723  -0.179 -0.3650  0.0288  1.0281
  950MOL0     C31027   9.971  10.790  -0.283 -0.9665 -1.6324  0.6728
  950MOL0     C31028   9.510  10.433   0.378 -0.4124 -0.4898 -1.1010
  950MOL0     C31029   9.396  10.384   0.442  0.1356  0.0359  0.6375
  950MOL0     C31030   9.401  10.357   0.592  0.8395 -0.9655 -0.7054
  950MOL0     H31031   8.860  10.386   0.427  4.3706 -0.7061  1.0224
  950MOL0     H31032   8.655  10.276   0.522  0.1805 -1.3985  0.7024
  950MOL0     H31033   8.751   9.985   0.762  0.3354  1.3768 -1.6943
  950MOL0     H31034   8.631   9.862   0.723  1.2919 -0.5424  3.0556
  950MOL0     H31035   8.551   9.974   0.911  0.9810  0.3938 -0.4264
  950MOL0     H31036   8.589  10.130   0.836  3.0021 -0.7552  0.3687
  950MOL0     H31037   8.364  10.134   0.813 -1.2090  1.9151 -2.8293
  950MOL0     H31038   8.399  10.094   0.656  0.6716 -1.6303 -0.5822
  950MOL0     H31039   8.336   9.855   0.697  0.1847  0.9445  0.0714
  950MOL0     H31040   8.351   9.898   0.875 -0.3039  0.9674  0.0663
  950MOL0     H31041   8.158  10.054   0.840  1.8423 -1.0279  2.7618
  950MOL0     H31042   8.134   9.881   0.863  0.5457 -1.3250 -1.2519
  950MOL0     H31043   8.124  10.038   0.599 -2.7663  0.9499  1.3198
  950MOL0     H31044   8.109   9.858   0.606  0.6577 -0.3058 -0.1065
  950MOL0     H31045   7.901  10.026   0.598 -0.3442  0.3853 -0.2810
  950MOL0     H31046   7.930  10.049   0.760 -1.9059  0.5766 -1.6868
  950MOL0     H31047   7.918   9.801   0.827  1.1349 -1.7112 -1.4765
  950MOL0     H31048   7.779   9.886   0.759  0.7562  0.6934  0.1922
  950MOL0     H31049   7.833   9.561   0.744 -1.9630  0.9852  0.3998
  950MOL0     H31050   7.869   9.387   0.404 -3.1008 -2.7941  1.2465
  950MOL0     H31051   7.834   9.368   0.568  0.8264 -1.6323 -1.1528
  950MOL0     H31052   8.056   9.261   0.477  0.2427  1.7701 -0.6074
  950MOL0     H31053   8.118   9.426   0.479  0.0884  0.6229 -0.5895
  950MOL0     H31054   8.178   9.302   0.694  0.1161 -2.4833  0.6839
  950MOL0     H31055   8.049   9.434   0.736 -0.4002 -0.7675  1.7903
  950MOL0     H31056   7.878   9.269   0.758  0.7954  0.9018 -1.0562
  950MOL0     H31057   7.997   9.136   0.723  1.5199 -0.5541 -0.7999
  950MOL0     H31058   7.965   9.002   0.921  3.0757 -0.4734  0.5258
  950MOL0     H31059   7.805   8.838   1.007 -1.6403 -1.3556  0.7149
  950MOL0     H31060   7.743   8.850   1.177 -0.1184  2.1017  0.5831
  950MOL0     H31061   7.912   8.800   1.147 -0.5881  0.1319  0.5714
  950MOL0     H31062   7.807   8.899   1.602  1.3535  0.9061 -0.3258
  950MOL0     H31063   7.746   8.886   1.857 -2.8745  1.9075  1.3848
  950MOL0     H31064   7.866   9.134   2.225  3.7674  1.7602 -1.4014
  950MOL0     H31065   7.859   9.250   2.089  2.0757 -0.3457  1.1098
  950MOL0     H31066   7.683   9.305   2.245  0.2733 -0.0100 -0.6586
  950MOL0     H31067   7.593   9.257   2.117 -1.5095  2.9194  3.6385
  950MOL0     H31068   7.604   9.006   2.214 -3.4737 -0.0389  0.3345
  950MOL0     H31069   7.502   9.134   2.280  1.7562  4.3947 -0.9833
  950MOL0     H31070   7.738   9.058   2.436 -0.9819 -0.1461  3.0370
  950MOL0     H31071   7.581   8.989   2.453 -5.4577  1.6918 -2.2130
  950MOL0     H31072   7.689   9.176   2.600  2.2357 -1.8959 -1.7070
  950MOL0     H31073   7.651   9.295   2.470  0.2254  0.3129 -0.4317
  950MOL0     H31074   7.423   9.218   2.482 -1.4973 -0.5368  0.2287
  950MOL0     H31075   7.461   9.320   2.621 -1.4947 -1.4211  2.2275
  950MOL0     H31076   7.463   9.019   2.640  0.6679  0.3362  0.5809
  950MOL0     H31077   7.326   9.121   2.664  0.3445  2.0880  1.7487
  950MOL0     H31078   7.383   9.101   2.878 -1.2203  0.2918 -1.7858
  950MOL0     H31079   7.466   9.255   2.835 -0.6623 -0.5881  2.8878
  950MOL0     H31080   7.909   9.284   1.887  3.5138 -0.8727 -0.9786
  950MOL0     H31081   7.960   9.292   1.660  0.4524 -0.8409 -3.2596
  950MOL0     H31082   7.940   9.283   1.330 -1.3364 -0.9142  0.7647
  950MOL0     H31083   8.037   9.365   1.123  1.2492 -1.5579  0.8789
  950MOL0     H31084   8.841   9.893   0.479 -0.2666  0.0801 -1.0747
  950MOL0     H31085   9.047   9.998   0.403  0.0640  0.0472  0.6527
  950MOL0     H31086   9.205  10.377   0.156  0.0764  2.9337  0.2306
  950MOL0     H31087   9.405  10.455   0.058 -3.5701  3.8598 -0.3792
  950MOL0     H31088   9.769  10.413   0.269  0.0065 -1.5887 -1.2899
  950MOL0     H31089   9.719  10.367   0.098  0.2180 -0.1815 -0.6623
  950MOL0     H31090   9.951  10.454   0.111 -0.5832 -0.3775  0.6756
  950MOL0     H31091   9.887  10.596   0.203  3.3085  0.0686 -0.3115
  950MOL0     H31092   9.808  10.509  -0.077  1.9827 -2.0635 -0.3205
  950MOL0     H31093   9.760  10.661   0.001 -1.2520 -1.0784 -3.4043
  950MOL0     H31094  10.045  10.583  -0.041 -0.8857 -0.8597  1.2969
  950MOL0     H31095   9.990  10.743   0.029  1.9353  3.0975 -2.3415
  950MOL0     H31096   9.983  10.855  -0.367  2.0978 -1.5129  1.1049
  950MOL0     H31097   9.601  10.446   0.436 -1.5547  0.5633  0.5287
  950MOL0     H31098   9.503  10.345   0.630  1.6732 -0.0951 -2.5506
  950MOL0     H31099   9.358  10.447   0.634  0.4264 -1.9184  0.9885
  950MOL0     H31100   9.348  10.268   0.628  2.8975 -1.0423  2.5087
  951MOL0     O31101  11.265  11.279   9.114  0.1356 -0.9491  0.3749
  951MOL0     C31102  11.342  11.226   9.032 -0.7575 -0.5312 -0.6716
  951MOL0     O31103  11.330  11.100   8.981  0.3463 -0.5358  0.1308
  951MOL0     C31104  11.292  11.093   8.849  0.0103  0.0103 -0.2760
  951MOL0     C31105  11.382  11.107   8.747 -0.5902 -0.5951  0.2717
  951MOL0     C31106  11.336  11.110   8.614  1.1542 -0.6331 -0.0927
  951MOL0     C31107  11.200  11.096   8.584  0.4053  0.7135  0.4232
  951MOL0     O31108  11.177  11.089   8.446  0.7122  0.4955 -0.2963
  951MOL0     C31109  11.040  11.153   8.414 -0.2254 -0.7641 -1.0028
  951MOL0     C31110  11.023  11.298   8.477 -0.4899  0.9825 -0.8400
  951MOL0     C31111  11.152  11.374   8.432 -0.5597 -0.3543 -0.0883
  951MOL0     C31112  11.118  11.527   8.440  1.2938  0.4525  0.6260
  951MOL0     C31113  11.247  11.612   8.414 -0.8579  0.2419  1.0779
  951MOL0     C31114  11.338  11.624   8.535  0.5465 -0.5172  0.1472
  951MOL0     C31115  11.470  11.694   8.491 -1.0198  0.9700 -0.4558
  951MOL0     C31116  11.569  11.710   8.609 -0.5584  0.0180 -0.4043
  951MOL0     N31117  11.510  11.792   8.716 -0.0767 -0.3076  0.4540
  951MOL0     C31118  11.480  11.921   8.691 -0.4287 -0.6157 -0.1047
  951MOL0     C31119  11.403  11.958   8.803 -0.1891  0.5621  0.2391
  951MOL0     C31120  11.332  12.092   8.825  0.3494 -0.1593 -0.3279
  951MOL0     C31121  11.417  12.187   8.914  0.0248  0.2996 -1.3251
  951MOL0     C31122  11.433  12.126   9.060  0.3431  0.7241  0.1521
  951MOL0     C31123  11.513  12.213   9.152 -0.5793 -0.7864 -0.4550
  951MOL0     O31124  11.645  12.230   9.104 -0.3044 -0.8082  0.4749
  951MOL0     C31125  11.744  12.295   9.167 -0.0569 -0.9292 -0.2537
  951MOL0     C31126  11.868  12.314   9.095  0.3102  0.6171 -0.2059
  951MOL0     C31127  11.985  12.367   9.152  0.7040 -0.0531 -1.1490
  951MOL0     C31128  12.115  12.365   9.066  0.4888 -0.7860 -0.4969
  951MOL0     C31129  11.977  12.419   9.287  0.2162  0.6758  1.0824
  951MOL0     C31130  12.090  12.488   9.341 -0.5270 -0.7419 -0.2931
  951MOL0     O31131  12.114  12.452   9.465  0.3172 -0.1824 -0.5363
  951MOL0     C31132  12.215  12.516   9.536  0.2996  0.4125 -0.3389
  951MOL0     C31133  12.336  12.551   9.480 -0.0917  0.1629  0.0351
  951MOL0     C31134  12.417  12.622   9.565  0.0471  0.1442 -0.1396
  951MOL0     C31135  12.387  12.651   9.700  0.3219  0.0644 -0.1808
  951MOL0     O31136  12.475  12.727   9.783  0.7115 -0.4240 -0.7372
  951MOL0     C31137  12.450  12.749   9.924 -0.2344  0.6006 -0.4522
  951MOL0     C31138  12.497  12.632  10.008  0.1073  0.6125  0.1591
  951MOL0     C31139  12.629  12.579   9.981  0.1100 -0.3185 -0.1638
  951MOL0     C31140  12.662  12.429  10.018 -0.2591  0.2219  0.9682
  951MOL0     C31141  12.796  12.390   9.943  1.3424 -0.2618 -1.3918
  951MOL0     C31142  12.773  12.333   9.804 -0.0486 -0.3651 -0.8815
  951MOL0     C31143  12.916  12.316   9.750 -0.6733 -0.4393  0.2349
  951MOL0     C31144  12.899  12.265   9.607 -1.0203 -0.9223  0.3891
  951MOL0    Cl31145  12.829  12.109   9.609  0.3612 -0.0978  0.6708
  951MOL0     C31146  12.265  12.603   9.759  0.0933  0.7494 -0.1780
  951MOL0     C31147  12.177  12.541   9.667 -1.1540 -0.8741  0.9567
  951MOL0     O31148  12.155  12.568   9.268  0.3490 -0.0019 -0.1173
  951MOL0     C31149  11.857  12.414   9.358  0.3040 -0.6212  1.0712
  951MOL0     C31150  11.746  12.348   9.304 -0.4821 -0.3974  0.0809
  951MOL0     N31151  11.395  11.846   8.884 -0.2486 -0.6886  0.3990
  951MOL0     N31152  11.455  11.746   8.836 -0.8817 -0.5846  0.7274
  951MOL0     C31153  11.108  11.079   8.690  0.4046 -0.1220  0.8408
  951MOL0     C31154  11.149  11.073   8.817 -0.7032 -0.1583 -0.5356
  951MOL0     C31155  11.475  11.284   9.008 -0.1994  0.8772  0.0031
  951MOL0     C31156  11.480  11.421   8.988  0.1907 -0.4894  1.2289
  951MOL0     C31157  11.595  11.493   8.962  0.4281  0.2316  0.8142
  951MOL0     C31158  11.713  11.422   8.937  0.1109 -0.9029 -0.5835
  951MOL0     O31159  11.821  11.497   8.904 -0.7195 -0.6867  0.1005
  951MOL0     C31160  11.950  11.447   8.912 -0.0063  0.5060  0.0343
  951MOL0     C31161  12.030  11.471   9.042 -0.1436  0.5622 -0.2363
  951MOL0     C31162  11.971  11.391   9.157  0.3530  0.4127  0.4965
  951MOL0     C31163  12.074  11.361   9.272 -0.1388  0.0320 -0.3747
  951MOL0     C31164  12.158  11.485   9.309 -0.0382 -0.0471  0.3109
  951MOL0     C31165  12.202  11.587   9.342  0.3154 -1.1578 -1.0284
  951MOL0     C31166  11.716  11.289   8.984  0.3754  0.7398  0.2723
  951MOL0     C31167  11.598  11.223   9.025  0.1029  0.0754 -0.3407
  951MOL0     C31168  11.618  11.080   9.060  0.0443  0.1461 -0.0788
  951MOL0     H31169  11.490  11.111   8.763 -0.6439 -0.1314  0.5177
  951MOL0     H31170  11.394  11.135   8.526 -0.4101 -0.4545 -1.1079
  951MOL0     H31171  10.960  11.085   8.446  0.1504  0.1642  2.3631
  951MOL0     H31172  11.033  11.167   8.306  1.6570  0.0625 -1.0628
  951MOL0     H31173  10.932  11.340   8.434 -1.2509  0.5148  0.2481
  951MOL0     H31174  11.008  11.288   8.585 -2.9673  0.1294 -1.1891
  951MOL0     H31175  11.237  11.366   8.499 -0.0877 -0.0398 -0.6443
  951MOL0     H31176  11.168  11.349   8.326 -0.0209 -0.8950  0.1206
  951MOL0     H31177  11.053  11.559   8.357 -0.0697 -1.7423  0.7685
  951MOL0     H31178  11.058  11.557   8.527 -2.3309 -1.5120 -0.9469
  951MOL0     H31179  11.229  11.714   8.379  3.2514  0.6088 -0.5258
  951MOL0     H31180  11.290  11.558   8.329  0.9406  2.2198  0.6683
  951MOL0     H31181  11.290  11.686   8.611  0.4452  1.7847 -1.6908
  951MOL0     H31182  11.360  11.529   8.586  1.2755  0.0173  0.8556
  951MOL0     H31183  11.436  11.795   8.465 -1.3559  0.5732 -1.6073
  951MOL0     H31184  11.526  11.653   8.407 -0.6750 -1.1590  0.7454
  951MOL0     H31185  11.589  11.611   8.651 -3.9551  0.9127  4.2050
  951MOL0     H31186  11.663  11.758   8.581  0.1275 -2.8949 -3.6250
  951MOL0     H31187  11.528  11.978   8.612  1.2738 -1.4088  0.3217
  951MOL0     H31188  11.240  12.068   8.879 -0.9424 -0.0838 -2.3837
  951MOL0     H31189  11.295  12.144   8.736 -1.4426  0.7074  0.8489
  951MOL0     H31190  11.520  12.199   8.879  1.2591 -4.0901  0.0468
  951MOL0     H31191  11.365  12.282   8.925 -0.1881  0.0360  0.0929
  951MOL0     H31192  11.341  12.121   9.119 -1.1969  3.1898 -1.8295
  951MOL0     H31193  11.488  12.031   9.052  0.8905  1.0612 -0.1163
  951MOL0     H31194  11.453  12.302   9.177 -0.3006 -1.6978  4.4035
  951MOL0     H31195  11.537  12.151   9.239 -1.0264 -1.7555 -1.0058
  951MOL0     H31196  11.878  12.275   8.994  1.4384  2.1161 -0.7136
  951MOL0     H31197  12.196  12.347   9.137  0.7047 -3.9817 -1.4135
  951MOL0     H31198  12.136  12.461   9.018  1.4649  0.7205  2.6845
  951MOL0     H31199  12.112  12.291   8.986  1.5122 -1.3750  0.0004
  951MOL0     H31200  12.369  12.535   9.378  0.7177  1.7271  0.0210
  951MOL0     H31201  12.520  12.637   9.534  0.0320  0.1952 -0.1653
  951MOL0     H31202  12.513  12.833   9.956 -0.6397 -0.2939  3.0402
  951MOL0     H31203  12.350  12.783   9.954 -0.5962  0.4489 -1.4270
  951MOL0     H31204  12.478  12.659  10.112 -0.4240  3.0962 -0.5334
  951MOL0     H31205  12.439  12.543   9.979  1.9089 -0.7768  0.6138
  951MOL0     H31206  12.699  12.648  10.028 -0.0031  2.2198 -3.3967
  951MOL0     H31207  12.640  12.588   9.873  0.2984 -0.0442 -0.1229
  951MOL0     H31208  12.582  12.355  10.003 -1.1189  1.0549  1.3316
  951MOL0     H31209  12.674  12.425  10.126  0.5681  0.6599  0.8980
  951MOL0     H31210  12.860  12.479   9.949  1.6636 -0.5699  1.5921
  951MOL0     H31211  12.840  12.310  10.002 -1.9447 -0.9767  0.3463
  951MOL0     H31212  12.714  12.403   9.745  1.8733 -1.2657 -4.1303
  951MOL0     H31213  12.719  12.238   9.813 -1.7986  0.7247  0.8727
  951MOL0     H31214  12.966  12.241   9.811  0.8875 -0.6222 -1.1958
  951MOL0     H31215  12.967  12.413   9.757 -2.5260  0.5508  0.7407
  951MOL0     H31216  12.996  12.255   9.557 -1.8807 -0.9170 -1.3820
  951MOL0     H31217  12.844  12.342   9.551 -0.8248 -0.9714  0.1271
  951MOL0     H31218  12.245  12.615   9.865  4.6892  0.6194  0.8981
  951MOL0     H31219  12.078  12.509   9.697 -0.9105 -0.6450  2.0474
  951MOL0     H31220  11.844  12.454   9.458  0.4686  0.0479  0.8270
  951MOL0     H31221  11.647  12.365   9.344 -2.0383  1.8543 -4.1328
  951MOL0     H31222  11.000  11.080   8.673  0.7851 -0.0758 -2.2308
  951MOL0     H31223  11.071  11.058   8.891  0.9317 -1.2241  1.0568
  951MOL0     H31224  11.396  11.490   8.997  3.2318  3.4643  2.2972
  951MOL0     H31225  11.572  11.596   8.938 -0.3792 -0.3237 -1.0174
  951MOL0     H31226  11.949  11.340   8.889  2.6905  0.0516  1.5940
  951MOL0     H31227  12.009  11.492   8.831  0.0794  0.5990  0.1477
  951MOL0     H31228  12.018  11.579   9.057  0.6374  0.4649  1.2306
  951MOL0     H31229  12.136  11.452   9.022  0.0281 -0.6576  1.6382
  951MOL0     H31230  11.882  11.444   9.189  1.5107  1.8689  1.4004
  951MOL0     H31231  11.949  11.292   9.114 -1.8959  1.2189 -0.3705
  951MOL0     H31232  12.135  11.281   9.229  4.2154  1.9043  1.6600
  951MOL0     H31233  12.031  11.338   9.370  0.3660  2.0228  0.3595
  951MOL0     H31234  12.253  11.673   9.379  0.7953 -1.5985 -0.6605
  951MOL0     H31235  11.809  11.234   8.978  0.1948  0.4680 -0.0337
  951MOL0     H31236  11.683  11.077   9.148  1.7183  1.4309 -1.2085
  951MOL0     H31237  11.522  11.032   9.082 -1.6100  2.2899 -2.1211
  951MOL0     H31238  11.648  11.015   8.977  0.2700  1.6041 -1.1764
  952MOL0     O31239   4.772   4.125   2.506 -0.0510 -0.5885  0.0086
  952MOL0     C31240   4.777   4.010   2.466 -0.2747  0.2110  0.7650
  952MOL0     O31241   4.719   3.976   2.346  0.1127  0.2530 -0.4411
  952MOL0     C31242   4.679   4.074   2.255 -0.4148  0.5770  0.2755
  952MOL0     C31243   4.550   4.128   2.255  0.7013  0.9795  0.3461
  952MOL0     C31244   4.526   4.242   2.171  0.4164 -0.4440 -0.5679
  952MOL0     C31245   4.625   4.291   2.087  0.7092  0.3931  0.3976
  952MOL0     O31246   4.582   4.390   2.008  0.2220 -0.3771 -0.7928
  952MOL0     C31247   4.645   4.428   1.885  0.4557 -0.0997 -0.0927
  952MOL0     C31248   4.558   4.537   1.815 -0.4789  0.1774  0.5416
  952MOL0     C31249   4.486   4.472   1.694 -0.0610  0.8150  1.0202
  952MOL0     C31250   4.454   4.588   1.594  0.7416  0.7637 -0.1820
  952MOL0     C31251   4.384   4.525   1.466 -0.5327 -0.3920  0.2539
  952MOL0     C31252   4.280   4.620   1.412 -0.0121 -0.4540 -0.1884
  952MOL0     C31253   4.234   4.580   1.265  0.4991 -0.1628 -0.1548
  952MOL0     C31254   4.132   4.469   1.272  0.3037  0.0395  0.5577
  952MOL0     N31255   3.999   4.493   1.313  0.5757 -1.2851  0.3818
  952MOL0     C31256   3.944   4.473   1.436  0.3622 -0.5958  0.5631
  952MOL0     C31257   3.822   4.531   1.430  0.6178  0.1315 -0.3573
  952MOL0     C31258   3.731   4.519   1.546  0.3958  0.3410  0.4592
  952MOL0     C31259   3.626   4.628   1.544  0.2896 -0.6017 -0.8836
  952MOL0     C31260   3.530   4.609   1.663  0.0423  0.0694 -0.7166
  952MOL0     C31261   3.452   4.739   1.712 -0.1615  0.4246 -0.0344
  952MOL0     O31262   3.514   4.845   1.775 -0.9388  0.0406 -0.4362
  952MOL0     C31263   3.566   4.849   1.911  0.3273 -0.1476 -0.0767
  952MOL0     C31264   3.666   4.935   1.951  0.3653 -0.1978  0.0304
  952MOL0     C31265   3.713   4.947   2.089 -1.2744  0.0988  0.8428
  952MOL0     C31266   3.818   5.053   2.115  0.5518 -0.0441 -0.6665
  952MOL0     C31267   3.664   4.852   2.191 -0.2651 -0.7971 -0.0232
  952MOL0     C31268   3.697   4.842   2.333  0.8849  0.1487  0.4480
  952MOL0     O31269   3.799   4.923   2.382 -0.2423  0.3256 -0.6709
  952MOL0     C31270   3.800   4.948   2.516  0.0065  1.0542  0.2201
  952MOL0     C31271   3.703   5.024   2.578  0.0469  0.8592 -0.3412
  952MOL0     C31272   3.685   5.018   2.716 -0.2721 -0.1466  0.4536
  952MOL0     C31273   3.783   4.952   2.795 -0.0969 -0.7286 -0.4647
  952MOL0     O31274   3.767   4.960   2.934 -0.2791 -0.4240  0.3236
  952MOL0     C31275   3.862   4.891   3.023  0.4316 -0.2502  0.3054
  952MOL0     C31276   3.835   4.740   3.022 -0.1476  0.3661 -0.8566
  952MOL0     C31277   3.894   4.671   3.149 -0.4507 -0.1552  0.6248
  952MOL0     C31278   3.855   4.527   3.154 -0.7607 -0.3275 -1.0383
  952MOL0     C31279   3.943   4.453   3.268  0.0145  0.3330  0.1762
  952MOL0     C31280   3.881   4.332   3.326  0.2477  0.3875  0.7184
  952MOL0     C31281   3.950   4.307   3.469  0.4146  0.7010  0.4543
  952MOL0     C31282   3.951   4.164   3.518 -0.4847 -0.7700  0.4692
  952MOL0    Cl31283   3.777   4.099   3.507  0.5242  0.3309  0.1436
  952MOL0     C31284   3.894   4.890   2.738 -0.5437 -1.3453 -0.4622
  952MOL0     C31285   3.897   4.876   2.591  0.2123 -0.7232 -0.6848
  952MOL0     O31286   3.634   4.755   2.391  1.0551  0.1833  0.0903
  952MOL0     C31287   3.584   4.749   2.134  0.8206 -0.3379 -0.6217
  952MOL0     C31288   3.534   4.752   2.000  0.5735 -0.0993 -0.5245
  952MOL0     N31289   3.810   4.580   1.304 -0.1457 -0.9607 -0.2718
  952MOL0     N31290   3.914   4.562   1.234  0.0682  0.9084 -0.3293
  952MOL0     C31291   4.745   4.234   2.076  0.5941 -1.0100  0.6794
  952MOL0     C31292   4.771   4.113   2.144 -0.3592 -0.3370  0.1004
  952MOL0     C31293   4.835   3.896   2.534  0.7321  0.5312  0.1037
  952MOL0     C31294   4.877   3.782   2.460  0.1999 -0.0868 -1.0076
  952MOL0     C31295   4.949   3.680   2.514 -0.6215  0.0121 -0.4581
  952MOL0     C31296   4.969   3.683   2.655  0.8175  0.2290  0.0073
  952MOL0     O31297   5.018   3.579   2.729 -0.1789 -0.4421  0.5301
  952MOL0     C31298   5.063   3.457   2.675  0.2989 -0.3898 -0.6864
  952MOL0     C31299   5.097   3.377   2.804  0.4447  1.3290  0.6189
  952MOL0     C31300   5.145   3.232   2.791 -0.1023  0.1149 -0.1069
  952MOL0     C31301   5.037   3.134   2.740 -0.5648  0.3957  0.0799
  952MOL0     C31302   4.969   3.073   2.844  0.5561  1.2964 -0.1438
  952MOL0     C31303   4.879   3.025   2.921  0.2892  0.3322 -0.0906
  952MOL0     C31304   4.937   3.798   2.735  0.7020 -0.2789 -0.4654
  952MOL0     C31305   4.868   3.898   2.673  0.6472  0.6984  0.1185
  952MOL0     C31306   4.818   4.007   2.760  0.9059 -0.2722  0.3401
  952MOL0     H31307   4.476   4.080   2.318  0.3074  1.2588  0.1065
  952MOL0     H31308   4.431   4.291   2.155  0.9860 -0.1539 -3.5700
  952MOL0     H31309   4.644   4.339   1.822 -0.3890 -1.6056  1.9076
  952MOL0     H31310   4.747   4.462   1.904  0.3826  0.4912 -0.7486
  952MOL0     H31311   4.477   4.564   1.883 -2.1132 -1.9477 -0.4342
  952MOL0     H31312   4.616   4.625   1.787  1.9188 -1.6323 -0.5618
  952MOL0     H31313   4.546   4.405   1.633 -0.1523  3.3846 -2.1847
  952MOL0     H31314   4.399   4.416   1.729  1.5800 -1.9359  0.9677
  952MOL0     H31315   4.378   4.649   1.644  1.3851 -1.7535  4.4287
  952MOL0     H31316   4.541   4.653   1.576  0.6669  0.3460 -2.4469
  952MOL0     H31317   4.342   4.427   1.492  0.9891 -0.9581  0.7102
  952MOL0     H31318   4.462   4.514   1.391  0.3396 -1.4298  1.2697
  952MOL0     H31319   4.202   4.623   1.488 -0.8488  0.9217 -1.0636
  952MOL0     H31320   4.309   4.725   1.402  1.2164 -0.8518 -1.0283
  952MOL0     H31321   4.325   4.565   1.205  1.7122 -1.1177  1.8301
  952MOL0     H31322   4.185   4.666   1.220  1.9256  0.8929  0.2273
  952MOL0     H31323   4.117   4.424   1.174 -0.0305 -1.7368  1.3773
  952MOL0     H31324   4.177   4.389   1.331 -2.5228 -0.9352  1.5515
  952MOL0     H31325   3.978   4.418   1.523 -0.6292 -0.3571  1.1118
  952MOL0     H31326   3.789   4.520   1.638  1.3416  1.5706 -0.1224
  952MOL0     H31327   3.670   4.428   1.542 -1.8383  1.6080  2.7885
  952MOL0     H31328   3.661   4.732   1.539  0.5931 -0.6176  0.5573
  952MOL0     H31329   3.576   4.622   1.447  1.2238  2.4913 -1.6607
  952MOL0     H31330   3.449   4.545   1.626 -0.2503 -0.0106  0.0550
  952MOL0     H31331   3.574   4.563   1.752 -0.8119  3.8118  1.8305
  952MOL0     H31332   3.413   4.785   1.621 -2.0401 -2.6609 -0.9679
  952MOL0     H31333   3.358   4.718   1.764 -0.2929 -1.1971 -0.8482
  952MOL0     H31334   3.709   5.003   1.878 -1.1631 -0.4322 -1.1383
  952MOL0     H31335   3.787   5.115   2.199 -1.3353  1.0778 -2.0933
  952MOL0     H31336   3.830   5.116   2.026 -1.2417 -2.1315 -2.5233
  952MOL0     H31337   3.909   5.006   2.153 -0.4467 -1.2509  0.3041
  952MOL0     H31338   3.627   5.080   2.525 -2.1793 -0.9997  0.7214
  952MOL0     H31339   3.610   5.078   2.766 -3.1344  2.2730 -5.6727
  952MOL0     H31340   3.965   4.910   2.989 -0.6121  2.6167 -1.7093
  952MOL0     H31341   3.850   4.935   3.122 -2.1306 -0.8910  0.3425
  952MOL0     H31342   3.726   4.740   3.024 -0.3018 -1.5149  4.1552
  952MOL0     H31343   3.867   4.693   2.928  2.1581  0.1470 -0.0382
  952MOL0     H31344   3.858   4.736   3.230  2.7535  2.7238 -0.0186
  952MOL0     H31345   4.001   4.677   3.168 -0.3415  2.3071 -0.3318
  952MOL0     H31346   3.867   4.472   3.061  0.9822 -1.3101 -0.2801
  952MOL0     H31347   3.750   4.527   3.183 -0.6557  2.3951 -0.4142
  952MOL0     H31348   4.041   4.429   3.225  0.2711  2.0703 -0.2883
  952MOL0     H31349   3.968   4.518   3.352  4.5888 -2.7217  1.5590
  952MOL0     H31350   3.904   4.248   3.259  1.8820  2.1101 -1.0191
  952MOL0     H31351   3.774   4.345   3.340  0.3082  1.4984  0.2746
  952MOL0     H31352   3.887   4.366   3.535 -0.2303 -1.0728  1.4912
  952MOL0     H31353   4.055   4.339   3.473  0.3719  0.7001  2.0076
  952MOL0     H31354   3.971   4.153   3.625 -3.0931 -0.5009  1.0395
  952MOL0     H31355   4.002   4.105   3.441 -2.5951  1.1144 -2.5780
  952MOL0     H31356   3.981   4.869   2.798 -0.2857  0.7593 -0.0103
  952MOL0     H31357   3.979   4.823   2.543 -1.1144 -1.6097 -2.0367
  952MOL0     H31358   3.542   4.670   2.195 -0.3374  1.6415  1.2962
  952MOL0     H31359   3.459   4.678   1.973 -0.7625  0.5422  1.2165
  952MOL0     H31360   4.820   4.277   2.010 -1.4115  2.3588  0.4144
  952MOL0     H31361   4.868   4.066   2.131  0.0303  0.3751  0.3514
  952MOL0     H31362   4.880   3.779   2.351  3.9448  0.7527 -1.0621
  952MOL0     H31363   4.992   3.600   2.454  1.8596 -0.2354  1.5317
  952MOL0     H31364   4.988   3.404   2.616 -1.3381 -0.2168  1.1347
  952MOL0     H31365   5.155   3.468   2.617 -0.5155  1.1471 -1.7694
  952MOL0     H31366   5.001   3.368   2.855 -0.4369 -3.6338 -1.3011
  952MOL0     H31367   5.171   3.436   2.859 -0.9589  1.0973  2.8839
  952MOL0     H31368   5.234   3.234   2.727 -1.1970  0.8834 -1.6961
  952MOL0     H31369   5.169   3.184   2.886  1.3566 -0.8667 -0.9370
  952MOL0     H31370   5.091   3.067   2.673  0.3381  3.6828 -2.7964
  952MOL0     H31371   4.962   3.171   2.670  0.1362 -0.3894 -1.1239
  952MOL0     H31372   4.818   2.977   2.995  3.2310 -2.6979  0.5957
  952MOL0     H31373   4.942   3.801   2.844  1.9017  0.1704 -0.5103
  952MOL0     H31374   4.877   4.098   2.745  1.1021 -0.1598  1.7389
  952MOL0     H31375   4.714   4.033   2.737  0.2380 -2.7926  0.2116
  952MOL0     H31376   4.819   3.978   2.865 -0.9431  1.9639  1.0510
  953MOL0     O31377   1.744   4.277   0.981 -0.1173  0.4624  0.4370
  953MOL0     C31378   1.636   4.233   1.007 -0.3521  0.4441 -0.3874
  953MOL0     O31379   1.547   4.205   0.916  0.8107  0.2883 -0.1422
  953MOL0     C31380   1.579   4.214   0.780 -0.1630 -0.4612 -0.0375
  953MOL0     C31381   1.553   4.337   0.714  0.2095  0.5518  0.1697
  953MOL0     C31382   1.576   4.340   0.579 -0.4408  0.1907  0.8020
  953MOL0     C31383   1.640   4.241   0.503 -0.1153  0.3537 -0.7649
  953MOL0     O31384   1.663   4.268   0.373  0.6719  0.8648  0.8402
  953MOL0     C31385   1.715   4.164   0.292  0.0549 -0.0077  0.6189
  953MOL0     C31386   1.733   4.233   0.158 -0.8285 -0.6850 -0.0233
  953MOL0     C31387   1.713   4.146   0.031 -0.4469  0.2804  0.0446
  953MOL0     C31388   1.730   4.232  -0.091  1.0051 -0.9449  0.0530
  953MOL0     C31389   1.646   4.178  -0.207  0.1961  0.7351  0.0736
  953MOL0     C31390   1.650   4.268  -0.330  0.3080 -0.0469  0.1640
  953MOL0     C31391   1.533   4.247  -0.425 -0.9298 -0.6377 -0.7743
  953MOL0     C31392   1.526   4.353  -0.533 -0.2385 -0.4067  0.3065
  953MOL0     N31393   1.658   4.362  -0.588 -0.2274 -0.6695  0.8815
  953MOL0     C31394   1.709   4.283  -0.682 -0.9677  0.1715  0.4302
  953MOL0     C31395   1.822   4.342  -0.731  0.7337 -0.3603  0.2384
  953MOL0     C31396   1.920   4.284  -0.825  0.1823 -0.1371 -0.4664
  953MOL0     C31397   1.868   4.291  -0.968 -0.4240 -0.6707 -0.2000
  953MOL0     C31398   1.827   4.433  -1.016  0.3221  0.3100  0.0960
  953MOL0     C31399   1.820   4.447  -1.167  0.3915  0.0497 -0.5484
  953MOL0     O31400   1.765   4.574  -1.198 -0.2536 -0.5099 -0.4008
  953MOL0     C31401   1.630   4.591  -1.184 -0.0893  0.5468 -0.6116
  953MOL0     C31402   1.538   4.493  -1.146 -0.3746 -0.5572 -0.2701
  953MOL0     C31403   1.399   4.522  -1.122 -0.2547  0.0148  0.4644
  953MOL0     C31404   1.326   4.408  -1.051  1.1483 -0.1580 -0.0140
  953MOL0     C31405   1.340   4.653  -1.141  0.2066 -0.7197  0.3526
  953MOL0     C31406   1.201   4.707  -1.113  0.1743  0.2311 -0.1598
  953MOL0     O31407   1.180   4.839  -1.148 -0.0806  0.5566  0.1716
  953MOL0     C31408   1.053   4.894  -1.151  0.1075  0.4373 -0.7840
  953MOL0     C31409   0.946   4.852  -1.236 -0.1863 -0.2951 -0.5081
  953MOL0     C31410   0.824   4.932  -1.241 -0.9611 -0.2204  0.7245
  953MOL0     C31411   0.816   5.050  -1.170  0.6861 -0.1664  0.0057
  953MOL0     O31412   0.698   5.123  -1.149 -0.5648 -0.3044  0.2808
  953MOL0     C31413   0.585   5.076  -1.224  0.1802 -0.3185  0.1382
  953MOL0     C31414   0.452   5.150  -1.189 -0.6065  0.7932 -0.0261
  953MOL0     C31415   0.406   5.145  -1.035  1.0241  0.7073  0.8614
  953MOL0     C31416   0.337   5.001  -1.019  0.6394 -0.8312 -0.4563
  953MOL0     C31417   0.275   4.997  -0.877  1.1842 -0.1333 -1.3210
  953MOL0     C31418   0.227   4.854  -0.827 -0.8500 -0.5399  0.4621
  953MOL0     C31419   0.165   4.844  -0.688  0.1510  0.3184  0.4411
  953MOL0     C31420   0.083   4.714  -0.667 -0.7188 -0.7418  0.1619
  953MOL0    Cl31421   0.179   4.562  -0.657  0.0123  0.2562  0.4199
  953MOL0     C31422   0.923   5.097  -1.098 -0.0556  0.1263 -0.5917
  953MOL0     C31423   1.039   5.022  -1.088 -0.4575 -0.1277  0.2955
  953MOL0     O31424   1.113   4.635  -1.070 -0.3468  0.5717  0.0704
  953MOL0     C31425   1.436   4.743  -1.194  1.0895 -1.1726 -0.2113
  953MOL0     C31426   1.572   4.721  -1.203 -0.6752  0.4945 -0.5741
  953MOL0     N31427   1.823   4.469  -0.680  0.5699  0.0687  0.1882
  953MOL0     N31428   1.719   4.484  -0.601  0.1416 -1.0596 -0.2599
  953MOL0     C31429   1.681   4.127   0.575 -0.4885 -0.9904  0.6620
  953MOL0     C31430   1.636   4.113   0.704  0.1441  0.2858 -0.5850
  953MOL0     C31431   1.601   4.220   1.152 -0.3285  0.1374  0.1784
  953MOL0     C31432   1.515   4.113   1.187 -0.2945 -0.1747 -0.1286
  953MOL0     C31433   1.475   4.089   1.315 -0.2041  0.3451  0.1492
  953MOL0     C31434   1.520   4.170   1.425 -0.5462  0.1401 -0.0113
  953MOL0     O31435   1.493   4.148   1.561 -0.4440  0.2209 -0.0443
  953MOL0     C31436   1.428   4.023   1.596  0.2070 -0.0171 -0.7804
  953MOL0     C31437   1.421   3.994   1.748  0.8392 -0.3109  0.3877
  953MOL0     C31438   1.541   4.042   1.832  0.3762 -0.3652 -0.3421
  953MOL0     C31439   1.525   4.196   1.863 -0.9510 -0.3552 -0.8165
  953MOL0     C31440   1.639   4.240   1.935 -0.6481  0.5493 -0.4031
  953MOL0     C31441   1.729   4.278   2.007 -0.1630 -0.0470 -0.7494
  953MOL0     C31442   1.593   4.289   1.392  0.3271  0.5600  0.8337
  953MOL0     C31443   1.634   4.313   1.255 -1.0860 -0.4416  0.2536
  953MOL0     C31444   1.722   4.432   1.231  0.2419  0.2642 -0.6470
  953MOL0     H31445   1.502   4.420   0.761 -1.8637 -0.9365  0.7042
  953MOL0     H31446   1.532   4.425   0.528 -3.0209 -1.2645  0.4362
  953MOL0     H31447   1.642   4.084   0.277 -0.0847 -0.2167  2.2496
  953MOL0     H31448   1.806   4.113   0.326  1.4141  0.2058 -2.3939
  953MOL0     H31449   1.671   4.324   0.158  0.4237  0.1991 -1.6202
  953MOL0     H31450   1.835   4.271   0.161 -1.1562  0.1740  1.5979
  953MOL0     H31451   1.780   4.059   0.031 -0.5989  0.1624  0.3467
  953MOL0     H31452   1.614   4.101   0.020 -0.5605  0.8828 -1.7876
  953MOL0     H31453   1.695   4.330  -0.057 -0.4703 -0.4634 -2.5628
  953MOL0     H31454   1.836   4.233  -0.116  0.6637  1.5813 -1.6304
  953MOL0     H31455   1.540   4.173  -0.178  0.1282  0.7614 -0.1679
  953MOL0     H31456   1.683   4.077  -0.226  1.5329  1.2967 -0.3715
  953MOL0     H31457   1.641   4.372  -0.300 -0.3264 -0.6007  2.0110
  953MOL0     H31458   1.739   4.253  -0.392  0.5206  2.7765 -0.3361
  953MOL0     H31459   1.442   4.249  -0.365 -2.0544 -1.5160 -2.3714
  953MOL0     H31460   1.532   4.149  -0.474  1.2555 -0.0274 -2.1770
  953MOL0     H31461   1.452   4.335  -0.611  0.7767 -0.8634 -0.5663
  953MOL0     H31462   1.511   4.450  -0.485  2.0841 -0.7030  1.7979
  953MOL0     H31463   1.689   4.180  -0.709  2.2031 -0.8056  1.3553
  953MOL0     H31464   1.931   4.179  -0.800 -0.1280  0.4675  2.5426
  953MOL0     H31465   2.013   4.340  -0.809  0.0446 -0.1108  0.2751
  953MOL0     H31466   1.951   4.266  -1.035  0.1146 -0.4501  0.3849
  953MOL0     H31467   1.782   4.225  -0.987  0.8560 -2.4259 -0.1696
  953MOL0     H31468   1.727   4.455  -0.978 -0.5087  0.4226 -2.0259
  953MOL0     H31469   1.905   4.506  -0.991  0.6446  1.0451 -2.6569
  953MOL0     H31470   1.910   4.438  -1.228  0.1774  0.0925 -0.8721
  953MOL0     H31471   1.756   4.362  -1.189 -0.4622 -0.3675  2.8816
  953MOL0     H31472   1.569   4.390  -1.135 -0.8468 -0.6518  0.1780
  953MOL0     H31473   1.372   4.310  -1.064  1.0637  0.0311 -1.9704
  953MOL0     H31474   1.228   4.387  -1.094  0.9262  0.9527 -0.0797
  953MOL0     H31475   1.315   4.445  -0.948 -0.7846  0.7392 -0.4926
  953MOL0     H31476   0.951   4.754  -1.282  4.6467 -1.8428  2.5488
  953MOL0     H31477   0.739   4.892  -1.296 -0.1196 -1.8248  0.5616
  953MOL0     H31478   0.606   5.089  -1.330 -0.8972  1.7512  0.1372
  953MOL0     H31479   0.555   4.970  -1.220 -1.9118  0.2518  1.0046
  953MOL0     H31480   0.442   5.252  -1.228 -3.9938  1.5197  2.3154
  953MOL0     H31481   0.373   5.104  -1.249 -0.6278 -1.4765  1.6149
  953MOL0     H31482   0.337   5.229  -1.023 -0.1150 -0.1426  0.4315
  953MOL0     H31483   0.483   5.169  -0.961 -1.7274  0.1127  4.1788
  953MOL0     H31484   0.412   4.924  -1.034 -0.5246 -1.7720 -1.6873
  953MOL0     H31485   0.260   4.987  -1.095  0.3195  2.1273 -0.8013
  953MOL0     H31486   0.327   5.050  -0.797  0.0811  0.5686 -1.0470
  953MOL0     H31487   0.182   5.053  -0.884 -0.2123 -2.3069 -1.1735
  953MOL0     H31488   0.307   4.781  -0.837  1.0615  1.4318  0.5219
  953MOL0     H31489   0.152   4.828  -0.903 -0.7906  2.9307 -0.9916
  953MOL0     H31490   0.084   4.918  -0.679  0.7390  0.7423  2.9655
  953MOL0     H31491   0.238   4.857  -0.608  1.8195  2.7395 -1.3281
  953MOL0     H31492  -0.005   4.705  -0.732 -0.9740  3.0544 -0.2388
  953MOL0     H31493   0.016   4.725  -0.582 -1.1481 -0.4343 -0.2101
  953MOL0     H31494   0.925   5.190  -1.043 -3.1680  0.5345 -1.0329
  953MOL0     H31495   1.119   5.058  -1.025  2.1209  2.4762 -3.9579
  953MOL0     H31496   1.408   4.847  -1.207 -0.8586 -1.5661  0.5029
  953MOL0     H31497   1.640   4.801  -1.232  2.0062 -1.2683  0.5566
  953MOL0     H31498   1.733   4.043   0.528  2.2153  0.4339  0.8864
  953MOL0     H31499   1.641   4.012   0.744 -3.2168  0.5033  0.7197
  953MOL0     H31500   1.481   4.045   1.110  1.7755  0.1678 -1.4018
  953MOL0     H31501   1.401   4.012   1.333 -0.0308 -0.7550 -3.2695
  953MOL0     H31502   1.323   4.019   1.564  0.2708 -2.1226 -0.8162
  953MOL0     H31503   1.472   3.937   1.546 -0.4622  0.6180 -2.5521
  953MOL0     H31504   1.393   3.889   1.761 -0.3948  0.2667  2.8241
  953MOL0     H31505   1.336   4.047   1.791  2.0354  1.6642  0.4561
  953MOL0     H31506   1.552   3.996   1.931 -1.3378  0.4319  0.2424
  953MOL0     H31507   1.637   4.031   1.781  0.2559 -1.4322 -0.3751
  953MOL0     H31508   1.437   4.213   1.926 -0.2643  2.5003 -0.4847
  953MOL0     H31509   1.503   4.265   1.781 -2.6446  1.0500  0.7204
  953MOL0     H31510   1.808   4.303   2.075  0.9546  1.6667 -2.5499
  953MOL0     H31511   1.627   4.345   1.479  0.6293 -1.2717  1.9656
  953MOL0     H31512   1.668   4.515   1.184 -1.5869  0.1071  1.0302
  953MOL0     H31513   1.752   4.477   1.326  0.7246  0.9264 -1.0979
  953MOL0     H31514   1.815   4.395   1.187  0.2409 -6.6043  3.6598
  954MOL0     O31515   2.438  10.093   2.370  0.5338  0.3730 -0.5397
  954MOL0     C31516   2.428   9.973   2.367  0.7006  0.5319  0.4937
  954MOL0     O31517   2.423   9.898   2.248 -0.4573 -0.3082  0.1486
  954MOL0     C31518   2.432   9.962   2.120 -0.1856 -0.8653  0.1704
  954MOL0     C31519   2.471  10.098   2.078 -0.1227  0.4090  0.1849
  954MOL0     C31520   2.448  10.138   1.946  0.2164  0.0222  0.8389
  954MOL0     C31521   2.388  10.051   1.849  0.0420  0.6212 -0.3657
  954MOL0     O31522   2.372  10.095   1.721 -1.2916  0.0390  0.0492
  954MOL0     C31523   2.238  10.098   1.682  0.1357 -0.4132  0.5513
  954MOL0     C31524   2.224  10.109   1.525  0.1620  0.7084 -0.2784
  954MOL0     C31525   2.296  10.220   1.454 -0.4310 -0.8077 -0.7957
  954MOL0     C31526   2.240  10.251   1.324  0.0659  0.4995 -1.0825
  954MOL0     C31527   2.340  10.312   1.222  0.6102  0.6211  0.5285
  954MOL0     C31528   2.434  10.212   1.155  0.3372  0.9216  1.1199
  954MOL0     C31529   2.535  10.301   1.085 -0.4037  0.6385 -0.2728
  954MOL0     C31530   2.618  10.226   0.970  0.1931  0.4753 -0.1043
  954MOL0     N31531   2.713  10.132   1.038  1.0801  0.3475  0.0581
  954MOL0     C31532   2.682  10.004   1.089 -0.3506  0.6058 -0.0359
  954MOL0     C31533   2.796   9.962   1.148 -0.5477  0.5661 -0.2132
  954MOL0     C31534   2.824   9.841   1.217  0.3449 -0.6841 -0.4837
  954MOL0     C31535   2.853   9.725   1.128 -0.0903 -0.9601  0.2668
  954MOL0     C31536   2.717   9.651   1.064 -0.5440  0.4018  0.4269
  954MOL0     C31537   2.638   9.575   1.168 -0.2607  0.1781 -1.1506
  954MOL0     O31538   2.707   9.483   1.254  0.4395 -0.2178  0.2284
  954MOL0     C31539   2.650   9.360   1.261  0.1229 -0.1852 -0.0007
  954MOL0     C31540   2.521   9.336   1.283 -0.2447 -0.5751 -1.0389
  954MOL0     C31541   2.475   9.197   1.296 -0.4318 -0.7557 -0.1920
  954MOL0     C31542   2.333   9.176   1.328  0.3555  0.0039 -0.6378
  954MOL0     C31543   2.570   9.091   1.286 -0.6030  0.2600  0.7496
  954MOL0     C31544   2.544   8.943   1.285  0.0703 -0.1745 -0.2334
  954MOL0     O31545   2.421   8.898   1.238  0.0865  0.7213 -0.2089
  954MOL0     C31546   2.422   8.768   1.206  0.5170 -0.7830 -0.1100
  954MOL0     C31547   2.457   8.712   1.082  0.0356  0.2974 -0.5743
  954MOL0     C31548   2.439   8.577   1.063  0.8111  0.2276  0.3508
  954MOL0     C31549   2.377   8.497   1.153  1.4779 -0.4223  0.9469
  954MOL0     O31550   2.347   8.365   1.128  0.1508 -0.5502  0.0947
  954MOL0     C31551   2.274   8.279   1.228  0.0546 -0.1066  0.4482
  954MOL0     C31552   2.225   8.148   1.167  0.0337  0.5216  0.6563
  954MOL0     C31553   2.129   8.074   1.265  0.2522  0.4374 -0.0684
  954MOL0     C31554   2.212   8.019   1.387  0.2792  2.1149  0.2874
  954MOL0     C31555   2.156   8.057   1.523  0.0560 -0.2803  0.1144
  954MOL0     C31556   2.180   8.213   1.544  0.3222  0.8630 -0.4267
  954MOL0     C31557   2.148   8.254   1.688 -0.6487 -0.1029  0.7840
  954MOL0     C31558   2.131   8.402   1.722  0.8299  0.2619 -0.0144
  954MOL0    Cl31559   2.269   8.507   1.667 -0.2324  0.2128  0.4810
  954MOL0     C31560   2.363   8.553   1.290 -0.2765 -0.2277  1.0877
  954MOL0     C31561   2.383   8.687   1.309  0.6947 -0.4809  0.4196
  954MOL0     O31562   2.642   8.870   1.311  0.2508 -0.4375  0.6203
  954MOL0     C31563   2.704   9.125   1.282  0.1305  0.1691  0.4683
  954MOL0     C31564   2.743   9.257   1.264 -0.2020  0.0154  0.7938
  954MOL0     N31565   2.896  10.062   1.129  0.5725  0.2582  0.2633
  954MOL0     N31566   2.844  10.150   1.055  0.4639  0.7869 -0.2699
  954MOL0     C31567   2.351   9.921   1.899 -0.3252  0.3207 -0.5306
  954MOL0     C31568   2.383   9.869   2.026 -0.0165  0.7564  0.0059
  954MOL0     C31569   2.413   9.902   2.495 -0.4607 -0.0466  0.2734
  954MOL0     C31570   2.335   9.960   2.597 -0.7694 -0.2788 -0.1269
  954MOL0     C31571   2.324   9.899   2.721  0.1708 -0.1110  0.0851
  954MOL0     C31572   2.396   9.777   2.745 -0.1181 -0.0565 -0.5663
  954MOL0     O31573   2.384   9.709   2.864  0.6265 -0.0803 -0.3122
  954MOL0     C31574   2.289   9.746   2.969 -0.1548  0.6697 -0.4300
  954MOL0     C31575   2.144   9.710   2.916  0.8797  0.1942 -0.4269
  954MOL0     C31576   2.125   9.568   2.878 -0.4643 -0.0436 -0.3766
  954MOL0     C31577   1.987   9.545   2.830  0.4296 -0.4980  0.7022
  954MOL0     C31578   1.970   9.405   2.811 -0.5409  0.6822 -0.2224
  954MOL0     C31579   1.957   9.289   2.819  0.5779  0.5788  0.2161
  954MOL0     C31580   2.480   9.725   2.649 -0.7094 -0.2137 -0.1867
  954MOL0     C31581   2.488   9.789   2.518 -0.7546 -0.0683  0.0766
  954MOL0     C31582   2.583   9.730   2.410  0.5291  0.1487 -0.7680
  954MOL0     H31583   2.510  10.176   2.144  1.9036  0.5184 -1.0651
  954MOL0     H31584   2.468  10.242   1.924 -0.6695 -0.0708 -0.4947
  954MOL0     H31585   2.184  10.184   1.723 -2.2818 -1.3937 -0.3741
  954MOL0     H31586   2.185  10.012   1.723 -1.8511  1.1173  1.3355
  954MOL0     H31587   2.248  10.016   1.473 -1.3942  0.8368 -1.3165
  954MOL0     H31588   2.115  10.116   1.511  0.0260  1.7688  1.0813
  954MOL0     H31589   2.313  10.308   1.516  1.7218 -2.0927  0.5461
  954MOL0     H31590   2.401  10.188   1.443  0.0401  0.9174 -1.7290
  954MOL0     H31591   2.203  10.160   1.276  0.3881  0.7543 -1.8173
  954MOL0     H31592   2.170  10.331   1.348  2.1530  1.5443  2.2286
  954MOL0     H31593   2.399  10.377   1.287  0.9675 -0.4547  1.3174
  954MOL0     H31594   2.287  10.367   1.144  3.1537  0.5758 -1.3300
  954MOL0     H31595   2.482  10.149   1.231  1.6228  0.4781 -0.0211
  954MOL0     H31596   2.379  10.152   1.082  2.1805 -0.6429  0.9403
  954MOL0     H31597   2.597  10.353   1.158  0.2796 -2.1572  1.2685
  954MOL0     H31598   2.481  10.376   1.028  1.3146  0.1180 -2.7214
  954MOL0     H31599   2.549  10.177   0.902 -1.6223 -1.1535  2.7101
  954MOL0     H31600   2.683  10.302   0.925  2.1404 -1.0425 -0.0032
  954MOL0     H31601   2.591   9.946   1.101 -1.5457  2.3837 -0.0443
  954MOL0     H31602   2.742   9.818   1.285  0.0332  0.0191 -0.6190
  954MOL0     H31603   2.913   9.858   1.278 -0.2514 -0.7756  0.4197
  954MOL0     H31604   2.917   9.773   1.054  0.6213 -1.0056  0.8445
  954MOL0     H31605   2.911   9.649   1.180  0.3252 -0.6463  0.2642
  954MOL0     H31606   2.654   9.719   1.006  0.3653  3.8114  3.0935
  954MOL0     H31607   2.756   9.574   0.996  0.6371  0.7929  0.6400
  954MOL0     H31608   2.590   9.649   1.233 -0.2356 -2.9188  2.7206
  954MOL0     H31609   2.553   9.521   1.124 -0.6982  0.5982 -0.8311
  954MOL0     H31610   2.452   9.419   1.286  0.3615 -0.0355 -1.5783
  954MOL0     H31611   2.268   9.147   1.244 -0.9175 -1.2385  0.7035
  954MOL0     H31612   2.287   9.269   1.361  0.0096  0.4322 -2.2363
  954MOL0     H31613   2.335   9.102   1.409 -1.4937  1.9367  1.3293
  954MOL0     H31614   2.484   8.778   1.000 -0.0438  0.7841 -0.2140
  954MOL0     H31615   2.460   8.543   0.962  2.0983  0.9913  0.3389
  954MOL0     H31616   2.341   8.268   1.314 -0.8597 -4.8111  0.8488
  954MOL0     H31617   2.193   8.340   1.270  0.4556  0.1240  0.9059
  954MOL0     H31618   2.159   8.174   1.084 -2.0266  1.0273  2.3751
  954MOL0     H31619   2.303   8.080   1.132 -0.7870  0.3409 -0.9246
  954MOL0     H31620   2.082   7.986   1.221 -1.2472  0.5585  1.1887
  954MOL0     H31621   2.051   8.145   1.293  0.3953  0.1903  0.9883
  954MOL0     H31622   2.314   8.054   1.371  1.0667 -0.0213  0.2899
  954MOL0     H31623   2.225   7.911   1.388 -0.8589  1.9532  2.1268
  954MOL0     H31624   2.053   8.029   1.545 -1.0582  2.1180 -1.5313
  954MOL0     H31625   2.221   8.003   1.592  2.0956  3.1426  1.1198
  954MOL0     H31626   2.124   8.283   1.481 -1.8948 -2.5635 -2.5527
  954MOL0     H31627   2.289   8.224   1.534  0.3652  1.2794  0.3974
  954MOL0     H31628   2.232   8.216   1.746 -0.7267 -1.3834  0.0883
  954MOL0     H31629   2.062   8.200   1.728 -1.3315  1.0639  0.9378
  954MOL0     H31630   2.113   8.421   1.828  1.6097 -0.6163  0.2823
  954MOL0     H31631   2.037   8.430   1.673 -1.3830 -1.0639  3.0985
  954MOL0     H31632   2.326   8.490   1.369  1.5678  0.7169  2.7968
  954MOL0     H31633   2.358   8.730   1.406 -0.4342 -0.6024  0.2035
  954MOL0     H31634   2.782   9.049   1.277  0.1956  0.1722  1.2416
  954MOL0     H31635   2.846   9.288   1.251 -0.9428  1.9221 -1.1496
  954MOL0     H31636   2.333   9.853   1.817 -1.3747  0.5657 -0.5304
  954MOL0     H31637   2.378   9.765   2.058 -2.7676  1.3944  2.0362
  954MOL0     H31638   2.277  10.051   2.584  0.7547  0.8076  0.3101
  954MOL0     H31639   2.270   9.945   2.803 -0.5225  1.3163 -1.1381
  954MOL0     H31640   2.311   9.696   3.064 -1.8933  2.5924  1.0836
  954MOL0     H31641   2.308   9.851   2.990 -0.2496 -0.0358  4.2723
  954MOL0     H31642   2.104   9.780   2.843  0.5141 -0.3614 -0.7688
  954MOL0     H31643   2.089   9.744   3.005  2.2675  2.2825 -0.2912
  954MOL0     H31644   2.193   9.545   2.796 -0.4350 -0.4322 -0.2441
  954MOL0     H31645   2.139   9.504   2.966  0.7579  0.5794 -0.0874
  954MOL0     H31646   1.982   9.603   2.738 -1.4122 -3.4867 -1.2752
  954MOL0     H31647   1.906   9.577   2.895 -1.9082 -1.5619 -1.5204
  954MOL0     H31648   1.930   9.190   2.853 -2.6470  0.2195 -2.8827
  954MOL0     H31649   2.537   9.634   2.664  1.9487  1.2675 -0.6543
  954MOL0     H31650   2.647   9.807   2.366 -0.3719  0.6779 -1.2003
  954MOL0     H31651   2.642   9.645   2.446  0.9470  0.6033 -0.3643
  954MOL0     H31652   2.511   9.694   2.336 -0.4551 -1.2884  0.8224
  955MOL0     O31653   7.966   0.186   9.513  0.2749  0.4828 -0.8948
  955MOL0     C31654   8.002   0.298   9.498 -0.0708  0.1213 -0.6163
  955MOL0     O31655   8.039   0.354   9.375  0.0391 -0.1231 -0.2463
  955MOL0     C31656   8.013   0.276   9.265  0.1450 -0.9475  0.0781
  955MOL0     C31657   8.124   0.224   9.209 -0.2094  0.7478  0.7154
  955MOL0     C31658   8.106   0.148   9.091 -0.2813  0.4202 -0.4328
  955MOL0     C31659   7.987   0.124   9.031  1.1959  0.0596 -0.4113
  955MOL0     O31660   7.974   0.051   8.918  0.3727 -0.5588 -0.0686
  955MOL0     C31661   8.066   0.083   8.810 -0.1433 -0.6643 -0.6790
  955MOL0     C31662   7.984   0.091   8.678 -0.1132  1.0249 -0.4877
  955MOL0     C31663   8.080   0.131   8.569  1.0183  0.0436 -1.0122
  955MOL0     C31664   8.008   0.184   8.452  0.7401 -0.2557 -0.1209
  955MOL0     C31665   8.110   0.226   8.346  1.0249 -0.3011 -0.3329
  955MOL0     C31666   8.047   0.250   8.202  0.2596 -0.9915  0.2255
  955MOL0     C31667   7.960   0.366   8.199  0.1551  0.3059  0.0393
  955MOL0     C31668   7.895   0.415   8.070 -0.0070  0.3872  0.3703
  955MOL0     N31669   7.828   0.547   8.094 -0.1758  0.0447  0.1668
  955MOL0     C31670   7.750   0.592   8.203 -0.1911 -0.3156 -0.3875
  955MOL0     C31671   7.712   0.719   8.162  0.2097 -0.2042  0.5677
  955MOL0     C31672   7.606   0.817   8.220 -0.3135  0.3639 -0.5393
  955MOL0     C31673   7.677   0.934   8.290  0.3997  0.3480 -0.0042
  955MOL0     C31674   7.739   0.885   8.413  0.2963  0.0008 -0.2162
  955MOL0     C31675   7.823   0.998   8.481 -0.5932  0.7365 -1.0203
  955MOL0     O31676   7.901   1.079   8.388  0.2344 -0.1139 -0.5824
  955MOL0     C31677   7.872   1.212   8.395 -0.6342 -0.2995 -0.7762
  955MOL0     C31678   7.940   1.295   8.489  0.1687  0.0845 -0.5264
  955MOL0     C31679   7.907   1.432   8.514  1.0700  0.4227  0.2071
  955MOL0     C31680   7.977   1.504   8.628 -0.7329  0.0357 -0.3259
  955MOL0     C31681   7.808   1.490   8.427 -0.5759  0.1434  0.0210
  955MOL0     C31682   7.770   1.636   8.421  0.1856 -0.5185  0.3482
  955MOL0     O31683   7.664   1.671   8.337  0.3094  0.1005  0.4897
  955MOL0     C31684   7.658   1.801   8.290  0.9097  0.0848  0.0767
  955MOL0     C31685   7.665   1.838   8.152 -0.0960 -0.4721  0.4142
  955MOL0     C31686   7.651   1.973   8.109  0.4975 -0.3755  0.0775
  955MOL0     C31687   7.637   2.082   8.204  0.2025 -0.1718  0.7546
  955MOL0     O31688   7.633   2.215   8.170 -0.8616 -0.1026  0.4424
  955MOL0     C31689   7.656   2.253   8.031 -0.3069 -0.0487  0.5750
  955MOL0     C31690   7.662   2.405   8.020  0.0203 -0.4870 -0.5348
  955MOL0     C31691   7.688   2.449   7.875  0.0357 -1.1202  0.8257
  955MOL0     C31692   7.678   2.600   7.873 -0.0905 -0.1520  0.1140
  955MOL0     C31693   7.690   2.658   7.728 -0.4227  0.2322  0.6133
  955MOL0     C31694   7.581   2.609   7.633 -0.5547 -0.2673 -1.0238
  955MOL0     C31695   7.555   2.692   7.505  0.2862  0.3333  0.1981
  955MOL0     C31696   7.535   2.590   7.379 -0.4509 -1.2653  0.6403
  955MOL0    Cl31697   7.455   2.669   7.243  0.3339  0.2120 -0.4926
  955MOL0     C31698   7.629   2.044   8.336  0.5990  0.3496 -0.2470
  955MOL0     C31699   7.645   1.903   8.378  0.9987  0.4310 -0.1308
  955MOL0     O31700   7.833   1.719   8.476 -0.4148 -0.0616  0.2242
  955MOL0     C31701   7.747   1.408   8.334  0.4523 -1.2621  0.0696
  955MOL0     C31702   7.778   1.273   8.318  0.2432 -0.1767  0.4800
  955MOL0     N31703   7.749   0.744   8.034 -0.1530  0.1879  0.0104
  955MOL0     N31704   7.826   0.645   8.001 -0.6133  0.1932 -0.8902
  955MOL0     C31705   7.872   0.189   9.085 -0.0778 -1.2298  0.7720
  955MOL0     C31706   7.882   0.258   9.199 -0.2736  0.2384 -0.3969
  955MOL0     C31707   8.016   0.386   9.625  0.1447 -0.0372 -0.1023
  955MOL0     C31708   8.122   0.470   9.633 -0.1388 -0.8756  0.2560
  955MOL0     C31709   8.119   0.555   9.745 -1.0652 -0.4038  1.2311
  955MOL0     C31710   8.020   0.552   9.838 -0.4732 -0.4643  0.6574
  955MOL0     O31711   8.015   0.636   9.946  0.2716 -0.3644  0.6832
  955MOL0     C31712   8.121   0.735   9.962  0.3639 -0.1350  0.8985
  955MOL0     C31713   8.089   0.800  10.105  0.1796  0.1637 -0.4100
  955MOL0     C31714   8.188   0.920  10.137  0.4796  1.1464  0.8820
  955MOL0     C31715   8.319   0.875  10.204  0.7837 -1.1332  0.3950
  955MOL0     C31716   8.295   0.813  10.342  0.2656 -0.2444 -0.0287
  955MOL0     C31717   8.274   0.743  10.436  0.5712  0.5421  0.7833
  955MOL0     C31718   7.909   0.467   9.830  0.4672  0.9767  0.3324
  955MOL0     C31719   7.908   0.385   9.720 -0.0104  0.4598 -0.1077
  955MOL0     C31720   7.798   0.285   9.716  0.3527 -0.0826  0.6841
  955MOL0     H31721   8.229   0.243   9.231  0.0768 -0.1071  0.1095
  955MOL0     H31722   8.197   0.104   9.054  0.3470  2.5547 -1.5455
  955MOL0     H31723   8.140   0.003   8.802  1.1158  0.4954 -1.0123
  955MOL0     H31724   8.111   0.182   8.826 -1.6725 -0.4767  3.8188
  955MOL0     H31725   7.939  -0.006   8.655  1.1377  0.2273  0.3036
  955MOL0     H31726   7.908   0.169   8.691 -0.4648  1.1460 -2.8865
  955MOL0     H31727   8.153   0.201   8.613  0.5625 -2.0429  3.5670
  955MOL0     H31728   8.143   0.046   8.542  2.0776  0.8308 -1.1230
  955MOL0     H31729   7.937   0.105   8.426 -1.8849  1.3742  1.6456
  955MOL0     H31730   7.942   0.262   8.490  0.8297 -0.3457  0.2222
  955MOL0     H31731   8.178   0.142   8.331  1.0659 -0.0598 -1.5729
  955MOL0     H31732   8.158   0.315   8.387  0.3118 -0.3452  0.6365
  955MOL0     H31733   8.122   0.285   8.131 -2.4086  3.7447 -0.6526
  955MOL0     H31734   7.995   0.165   8.157  3.6854 -3.0477 -0.2458
  955MOL0     H31735   8.006   0.455   8.243 -1.7680  1.3428  0.0417
  955MOL0     H31736   7.878   0.334   8.265 -0.9196  1.3634 -0.7450
  955MOL0     H31737   7.974   0.433   7.997 -1.9718  0.5205 -1.8635
  955MOL0     H31738   7.829   0.334   8.038 -1.8381  2.0422 -0.2277
  955MOL0     H31739   7.716   0.542   8.294  0.9762  0.4910  0.5238
  955MOL0     H31740   7.543   0.777   8.300 -0.0594 -0.6039 -0.8108
  955MOL0     H31741   7.529   0.844   8.148  0.4228 -0.0866 -1.5304
  955MOL0     H31742   7.762   0.974   8.233 -0.4184  1.1871 -0.6685
  955MOL0     H31743   7.604   1.012   8.314 -1.7727 -0.6683 -2.7808
  955MOL0     H31744   7.665   0.855   8.488  2.5694  0.9970  2.6189
  955MOL0     H31745   7.810   0.808   8.384  1.3245  1.4273 -1.6398
  955MOL0     H31746   7.765   1.054   8.554 -0.6009 -1.2612  0.5995
  955MOL0     H31747   7.894   0.942   8.543 -2.9144 -1.2336  0.0182
  955MOL0     H31748   8.020   1.251   8.548  1.0052  1.8020 -0.3223
  955MOL0     H31749   7.961   1.611   8.644  0.0528  0.7065 -3.2844
  955MOL0     H31750   8.085   1.509   8.610 -0.8449  2.0229 -0.6615
  955MOL0     H31751   7.958   1.455   8.723  0.6671 -0.2344 -0.1646
  955MOL0     H31752   7.671   1.761   8.076 -0.9970  1.9103 -2.2354
  955MOL0     H31753   7.660   2.003   8.005 -1.3311 -1.6269 -0.4968
  955MOL0     H31754   7.754   2.216   7.999  0.7282 -0.2615  3.6940
  955MOL0     H31755   7.576   2.207   7.972  1.9466 -2.2304 -0.9793
  955MOL0     H31756   7.581   2.464   8.066 -0.3303  2.0115 -3.9220
  955MOL0     H31757   7.745   2.422   8.089  0.0057 -1.6698 -0.2087
  955MOL0     H31758   7.609   2.425   7.804 -1.1491  1.8755  0.9833
  955MOL0     H31759   7.787   2.422   7.838  0.9105  2.9984 -0.4272
  955MOL0     H31760   7.757   2.645   7.934  1.7448 -2.9851 -0.0101
  955MOL0     H31761   7.582   2.630   7.917  0.0278  2.3520 -1.1482
  955MOL0     H31762   7.688   2.767   7.722 -2.2228  0.1678 -1.2744
  955MOL0     H31763   7.786   2.626   7.687 -0.8484 -0.1694 -0.0985
  955MOL0     H31764   7.486   2.610   7.688  0.3009  0.3933  0.5296
  955MOL0     H31765   7.596   2.506   7.601 -3.3675 -0.3086 -2.5581
  955MOL0     H31766   7.645   2.748   7.479  1.3357 -1.4117 -0.0967
  955MOL0     H31767   7.474   2.764   7.518 -0.6664 -0.0212 -2.7883
  955MOL0     H31768   7.472   2.504   7.406 -0.9230 -1.8954 -2.1754
  955MOL0     H31769   7.633   2.556   7.346  0.4099 -0.4582  2.2413
  955MOL0     H31770   7.620   2.118   8.415 -0.2322  0.6202 -0.5813
  955MOL0     H31771   7.641   1.876   8.483 -1.3482 -3.2227 -0.9766
  955MOL0     H31772   7.666   1.449   8.274  0.7436 -0.5651  0.1501
  955MOL0     H31773   7.718   1.209   8.255  0.4449 -1.5804  1.6601
  955MOL0     H31774   7.777   0.185   9.033 -0.6474 -0.2570  1.6910
  955MOL0     H31775   7.792   0.312   9.226 -0.3083  0.4726 -0.9626
  955MOL0     H31776   8.188   0.490   9.549  1.9655 -1.1322  1.7749
  955MOL0     H31777   8.198   0.629   9.756 -1.9920  0.8729 -0.1391
  955MOL0     H31778   8.226   0.703   9.966  0.8477  1.4258  1.1457
  955MOL0     H31779   8.119   0.812   9.885  1.8512  0.1345  1.0836
  955MOL0     H31780   8.095   0.735  10.193 -1.4362  0.0305 -0.3849
  955MOL0     H31781   7.984   0.830  10.111  0.0225  0.6641 -3.7384
  955MOL0     H31782   8.211   0.969  10.042 -3.3381  0.7540 -0.4332
  955MOL0     H31783   8.131   0.991  10.198 -0.6348 -0.0068  1.2304
  955MOL0     H31784   8.405   0.941  10.188 -0.3387  0.0151 -1.1750
  955MOL0     H31785   8.348   0.794  10.137  0.9253  0.6928 -1.8683
  955MOL0     H31786   8.260   0.674  10.518 -2.7426  1.2589  0.9483
  955MOL0     H31787   7.829   0.450   9.902 -0.0835  0.5217 -0.3841
  955MOL0     H31788   7.847   0.188   9.732  1.4690 -0.2244 -2.8114
  955MOL0     H31789   7.722   0.296   9.794  1.3076  0.4240  1.5684
  955MOL0     H31790   7.737   0.289   9.626 -2.6859 -2.8576  2.4036
  956MOL0     O31791   3.077   3.361   9.040  0.0897 -0.3315 -0.0153
  956MOL0     C31792   2.983   3.436   9.022  0.0773 -0.9076  0.3782
  956MOL0     O31793   2.944   3.524   9.119  0.3310 -0.3135 -0.3521
  956MOL0     C31794   2.990   3.521   9.248 -0.1594 -0.6733  0.1265
  956MOL0     C31795   2.940   3.424   9.333 -0.3116 -0.2694  0.4512
  956MOL0     C31796   2.989   3.414   9.466  0.3550  0.0032  1.1328
  956MOL0     C31797   3.090   3.497   9.518  0.4602  0.8670 -0.2324
  956MOL0     O31798   3.133   3.495   9.650  0.5623 -0.1067 -0.5957
  956MOL0     C31799   3.023   3.488   9.749  0.1008  0.2035  0.0512
  956MOL0     C31800   3.001   3.615   9.828 -0.0322 -0.0297  0.8102
  956MOL0     C31801   2.963   3.728   9.729 -0.3436 -0.1832  0.1284
  956MOL0     C31802   2.872   3.834   9.794  0.1959 -0.5668 -0.7109
  956MOL0     C31803   2.886   3.968   9.710  0.5604  0.6934  0.3777
  956MOL0     C31804   2.843   3.955   9.563  0.5706 -0.0873  0.0869
  956MOL0     C31805   2.792   4.090   9.501  0.2172  0.2902 -0.2283
  956MOL0     C31806   2.888   4.209   9.518  0.3550  0.1224  0.7254
  956MOL0     N31807   2.847   4.329   9.448 -0.1790 -1.0801  0.7038
  956MOL0     C31808   2.822   4.343   9.312  0.5292  0.3300 -0.5195
  956MOL0     C31809   2.771   4.472   9.300  0.1391  1.0113  0.0729
  956MOL0     C31810   2.700   4.544   9.191  0.0282  0.3315  0.5606
  956MOL0     C31811   2.770   4.542   9.054  0.8923  0.2723  0.3533
  956MOL0     C31812   2.695   4.630   8.948 -0.4256  0.6332  0.2415
  956MOL0     C31813   2.758   4.602   8.809  0.6700  0.0835 -0.2147
  956MOL0     O31814   2.698   4.705   8.735 -0.2618 -0.8783 -0.3659
  956MOL0     C31815   2.757   4.727   8.608 -0.3573 -0.6930 -0.1626
  956MOL0     C31816   2.697   4.841   8.537  0.1152  0.2015 -0.4090
  956MOL0     C31817   2.736   4.867   8.402 -0.4402  0.7658  0.1203
  956MOL0     C31818   2.648   4.960   8.323 -0.8508 -0.0189  0.2349
  956MOL0     C31819   2.857   4.804   8.353  0.1895 -0.4053  0.8535
  956MOL0     C31820   2.906   4.831   8.210 -0.2582 -0.5778 -0.3377
  956MOL0     O31821   3.007   4.752   8.164  0.7322 -0.2752 -0.3283
  956MOL0     C31822   3.037   4.730   8.032 -0.9415 -0.0820 -0.5972
  956MOL0     C31823   2.952   4.736   7.922  0.6076  0.0309 -0.2413
  956MOL0     C31824   2.992   4.693   7.796  0.7419  0.4237 -0.1365
  956MOL0     C31825   3.125   4.664   7.771 -0.7721  0.9505  0.0352
  956MOL0     O31826   3.183   4.624   7.654  0.0376  0.3454  0.2635
  956MOL0     C31827   3.104   4.651   7.541 -0.2140 -0.3705  0.6084
  956MOL0     C31828   3.180   4.623   7.419 -0.4577  0.1412 -0.5452
  956MOL0     C31829   3.305   4.712   7.419  0.8666 -0.2051 -0.5167
  956MOL0     C31830   3.403   4.663   7.315  0.8941  0.3214 -0.7766
  956MOL0     C31831   3.500   4.772   7.281 -0.6632 -0.9143  0.0825
  956MOL0     C31832   3.589   4.723   7.178  0.4042  0.8166  0.5185
  956MOL0     C31833   3.681   4.600   7.212  0.0147  1.0642  0.6084
  956MOL0     C31834   3.800   4.586   7.116 -0.2258  0.1719  0.7935
  956MOL0    Cl31835   3.914   4.717   7.139 -0.4417  0.0909 -0.1293
  956MOL0     C31836   3.217   4.665   7.882  0.1236  0.0269 -0.2353
  956MOL0     C31837   3.172   4.702   8.010 -0.4737 -0.4514  0.5389
  956MOL0     O31838   2.864   4.920   8.140  0.0257 -0.8711  0.0315
  956MOL0     C31839   2.926   4.712   8.434 -0.6035 -0.2589  0.4238
  956MOL0     C31840   2.872   4.669   8.557  1.5639  0.0402 -0.4400
  956MOL0     N31841   2.775   4.524   9.434 -0.2849 -0.5001 -0.5802
  956MOL0     N31842   2.812   4.436   9.523 -0.5985 -0.0613  1.2161
  956MOL0     C31843   3.136   3.591   9.430 -0.3154  0.0550 -0.6296
  956MOL0     C31844   3.088   3.610   9.301 -0.1304 -0.1533  0.2399
  956MOL0     C31845   2.937   3.456   8.879  0.0448  0.2396  0.0568
  956MOL0     C31846   2.860   3.568   8.839 -0.3848 -1.0976  0.1729
  956MOL0     C31847   2.794   3.575   8.715 -0.2844 -0.1465  1.0742
  956MOL0     C31848   2.797   3.477   8.616 -0.3541 -0.3806  0.7931
  956MOL0     O31849   2.735   3.500   8.492  0.1304  0.1147 -0.6763
  956MOL0     C31850   2.775   3.428   8.375  0.3500 -0.0616  0.5124
  956MOL0     C31851   2.693   3.484   8.250 -0.7289 -0.5455  0.3077
  956MOL0     C31852   2.546   3.434   8.253 -0.4794  0.7718 -0.1737
  956MOL0     C31853   2.475   3.517   8.141 -0.4445  1.3852  0.1341
  956MOL0     C31854   2.532   3.485   8.008 -0.3941 -0.4948  0.8642
  956MOL0     C31855   2.584   3.474   7.898 -0.2900 -0.4679 -0.0400
  956MOL0     C31856   2.870   3.359   8.659 -0.0010  0.2028  0.3301
  956MOL0     C31857   2.946   3.354   8.776 -0.1884  0.5701 -1.2327
  956MOL0     C31858   3.026   3.221   8.793  0.2910  0.2511  0.2779
  956MOL0     H31859   2.870   3.347   9.301  1.2139 -0.6962 -2.1581
  956MOL0     H31860   2.938   3.333   9.517  0.0139 -2.6431 -2.9188
  956MOL0     H31861   3.065   3.421   9.826  0.1140  2.4986  2.1593
  956MOL0     H31862   2.924   3.455   9.715 -0.6213  0.2908  1.9574
  956MOL0     H31863   2.931   3.613   9.912  0.0772  0.3080  0.9124
  956MOL0     H31864   3.099   3.636   9.873 -0.5942  1.7840  1.2487
  956MOL0     H31865   3.054   3.775   9.692  0.6383 -0.3071  2.2120
  956MOL0     H31866   2.923   3.689   9.635  1.0287 -2.2727  0.3306
  956MOL0     H31867   2.769   3.799   9.801  0.2995 -0.8665 -0.6713
  956MOL0     H31868   2.892   3.846   9.901 -2.0549 -1.7715 -0.0757
  956MOL0     H31869   2.993   3.990   9.709  1.5981 -3.3085 -2.3620
  956MOL0     H31870   2.825   4.054   9.737  0.6115  1.8023 -2.6555
  956MOL0     H31871   2.917   3.905   9.500  0.3393  0.2516 -0.4713
  956MOL0     H31872   2.759   3.887   9.547  0.3702  0.5792 -2.0609
  956MOL0     H31873   2.695   4.119   9.544 -0.3663  0.6909 -1.7516
  956MOL0     H31874   2.775   4.082   9.393 -0.5184  0.5415 -0.1383
  956MOL0     H31875   2.898   4.227   9.626  1.0698 -1.3095  0.9174
  956MOL0     H31876   2.986   4.179   9.480 -0.9755 -3.2537 -0.3961
  956MOL0     H31877   2.827   4.255   9.248  0.3432 -0.4298  0.4901
  956MOL0     H31878   2.685   4.645   9.230 -1.4334  0.5013 -0.3748
  956MOL0     H31879   2.602   4.496   9.182 -0.9111  2.0838  0.9645
  956MOL0     H31880   2.872   4.578   9.073  0.6665  1.5434 -0.7165
  956MOL0     H31881   2.775   4.441   9.012 -0.3328 -0.8079  2.6104
  956MOL0     H31882   2.589   4.605   8.958 -0.8111  1.8161 -0.6798
  956MOL0     H31883   2.706   4.737   8.969  1.7073  0.8210 -1.4505
  956MOL0     H31884   2.868   4.607   8.810  0.6774  0.3103 -1.1727
  956MOL0     H31885   2.745   4.505   8.761  0.3519  1.2335 -2.5895
  956MOL0     H31886   2.624   4.907   8.582  2.0364  1.9529  0.2821
  956MOL0     H31887   2.573   4.993   8.396 -2.0338 -0.6729 -0.6536
  956MOL0     H31888   2.596   4.895   8.251 -0.2475  2.1724 -2.3021
  956MOL0     H31889   2.701   5.038   8.268  0.3717 -1.2676 -0.4183
  956MOL0     H31890   2.850   4.769   7.939 -0.3818 -2.4654 -0.8971
  956MOL0     H31891   2.914   4.684   7.721 -1.2011 -0.5390  1.8782
  956MOL0     H31892   3.007   4.601   7.547  0.0401 -0.8082  1.0993
  956MOL0     H31893   3.080   4.757   7.549  1.8120  0.4428 -2.3363
  956MOL0     H31894   3.211   4.519   7.404  0.4472  0.0309  1.6946
  956MOL0     H31895   3.116   4.651   7.335 -1.3590 -1.7813 -0.5533
  956MOL0     H31896   3.362   4.696   7.512  3.3435  0.3291 -1.8575
  956MOL0     H31897   3.276   4.817   7.412  3.0015  0.9963  4.3759
  956MOL0     H31898   3.352   4.630   7.223  1.4102 -3.5381  0.1504
  956MOL0     H31899   3.457   4.580   7.361  0.6627 -0.5796 -2.0545
  956MOL0     H31900   3.432   4.849   7.243 -0.9185 -0.5272  1.2770
  956MOL0     H31901   3.547   4.801   7.375  0.2675 -1.1278 -0.3128
  956MOL0     H31902   3.657   4.804   7.151  1.5895 -0.7808 -1.5874
  956MOL0     H31903   3.523   4.696   7.096  1.5383  1.1595 -0.5288
  956MOL0     H31904   3.621   4.509   7.204 -1.2662  1.8992  0.3833
  956MOL0     H31905   3.712   4.609   7.317  1.1429 -0.9558  0.4985
  956MOL0     H31906   3.772   4.589   7.010  0.5735  1.6764  0.5953
  956MOL0     H31907   3.845   4.489   7.136 -1.2319 -0.4086  0.3214
  956MOL0     H31908   3.321   4.634   7.878  0.6343  1.4365  1.1620
  956MOL0     H31909   3.247   4.708   8.088  1.5521  3.6970 -1.4247
  956MOL0     H31910   3.014   4.659   8.399 -0.1816  1.0863 -0.6631
  956MOL0     H31911   2.922   4.594   8.618 -0.7241 -0.6550  0.6587
  956MOL0     H31912   3.207   3.652   9.485 -4.1464  1.4360  3.4686
  956MOL0     H31913   3.127   3.678   9.227  0.0683 -0.1494  0.3480
  956MOL0     H31914   2.845   3.648   8.912 -1.5652 -0.8595 -0.3034
  956MOL0     H31915   2.747   3.669   8.687 -1.1278  0.8759  5.1721
  956MOL0     H31916   2.884   3.425   8.363  0.6123 -0.6756  2.7422
  956MOL0     H31917   2.750   3.322   8.386 -3.9701  0.5456 -1.2765
  956MOL0     H31918   2.739   3.450   8.157 -0.1723 -0.5830  0.5962
  956MOL0     H31919   2.706   3.593   8.243  5.7307 -0.8426  1.7753
  956MOL0     H31920   2.556   3.328   8.228  2.3171  0.6259  1.2380
  956MOL0     H31921   2.485   3.448   8.343 -1.6711 -0.6621 -0.7092
  956MOL0     H31922   2.494   3.621   8.166 -0.5661  1.1634  1.2290
  956MOL0     H31923   2.365   3.515   8.141 -0.5075  3.1758  0.6642
  956MOL0     H31924   2.637   3.484   7.806  2.5333  0.6230  1.5815
  956MOL0     H31925   2.882   3.279   8.587  1.4410 -0.8311  1.6481
  956MOL0     H31926   3.009   3.155   8.707  0.1640  0.9150 -0.2146
  956MOL0     H31927   3.132   3.243   8.812 -0.0858 -0.0886  3.1231
  956MOL0     H31928   2.992   3.162   8.879 -0.8780 -0.6004 -0.7332
  957MOL0     O31929   8.754   7.851   1.142 -0.4272  1.2463  0.8137
  957MOL0     C31930   8.777   7.726   1.148  0.2275 -0.3721  0.4822
  957MOL0     O31931   8.784   7.640   1.037  0.7927  0.0326 -0.9864
  957MOL0     C31932   8.725   7.681   0.920 -1.2104 -1.4054  0.1768
  957MOL0     C31933   8.808   7.696   0.801  0.0892  0.1127 -1.0871
  957MOL0     C31934   8.751   7.741   0.679 -0.2124 -0.2440  0.0723
  957MOL0     C31935   8.615   7.769   0.675  0.4810 -0.2806  0.6104
  957MOL0     O31936   8.566   7.820   0.554 -0.0850  0.3549  0.1176
  957MOL0     C31937   8.497   7.942   0.554  0.0762 -0.0752 -0.3931
  957MOL0     C31938   8.387   7.934   0.450  0.6258 -0.5746 -1.2753
  957MOL0     C31939   8.337   8.078   0.411 -0.1331  0.8778  0.2674
  957MOL0     C31940   8.267   8.154   0.527 -0.0303  0.7955 -0.2993
  957MOL0     C31941   8.211   8.297   0.492 -0.0454  0.6479  0.6573
  957MOL0     C31942   8.160   8.366   0.618  0.0296  0.2731  0.1626
  957MOL0     C31943   8.092   8.500   0.599 -0.0389  0.2717  0.2287
  957MOL0     C31944   8.180   8.632   0.594  0.2525  0.4980 -0.6291
  957MOL0     N31945   8.090   8.747   0.605 -0.0328 -0.0662 -0.0882
  957MOL0     C31946   8.024   8.795   0.503 -0.4237 -1.2761  0.2092
  957MOL0     C31947   7.932   8.881   0.556 -0.7118  0.9549  0.1621
  957MOL0     C31948   7.825   8.946   0.482 -0.7605 -0.5767 -0.2821
  957MOL0     C31949   7.697   8.865   0.461  0.7698 -0.0754 -0.0370
  957MOL0     C31950   7.724   8.767   0.348 -0.1098  0.4731 -0.4542
  957MOL0     C31951   7.606   8.679   0.326 -0.3262 -0.6401 -0.1172
  957MOL0     O31952   7.634   8.602   0.208 -0.3847 -0.6237  0.4736
  957MOL0     C31953   7.702   8.482   0.217 -0.0141  0.3375  0.4671
  957MOL0     C31954   7.828   8.472   0.142 -0.2209  0.0264 -0.3092
  957MOL0     C31955   7.900   8.355   0.141  0.3730  0.9615  0.4750
  957MOL0     C31956   8.034   8.365   0.079  0.5265  0.1615  0.8897
  957MOL0     C31957   7.843   8.238   0.205 -1.9711 -0.3116 -0.3123
  957MOL0     C31958   7.903   8.106   0.184  0.0911  0.6784 -0.2501
  957MOL0     O31959   7.823   8.000   0.221 -0.6786  0.0787  0.6257
  957MOL0     C31960   7.892   7.881   0.247  0.6973 -0.0864 -0.0799
  957MOL0     C31961   7.978   7.879   0.361  0.3980 -0.4345  0.7262
  957MOL0     C31962   8.065   7.766   0.375  0.6125 -0.2251 -0.4721
  957MOL0     C31963   8.058   7.657   0.292  0.4304 -0.0056 -0.6961
  957MOL0     O31964   8.151   7.558   0.307  0.2674 -0.2827  0.0068
  957MOL0     C31965   8.258   7.585   0.209  0.5674  0.4589 -0.2545
  957MOL0     C31966   8.381   7.489   0.217  1.3998  0.5448 -0.1744
  957MOL0     C31967   8.470   7.536   0.326 -0.1528  0.3991 -0.2709
  957MOL0     C31968   8.597   7.452   0.307 -0.2883 -0.0106 -0.1015
  957MOL0     C31969   8.715   7.499   0.389  0.4984 -0.5849  0.6835
  957MOL0     C31970   8.854   7.452   0.333  1.0827  0.0567  0.3106
  957MOL0     C31971   8.883   7.487   0.185 -0.1396 -0.5544 -0.2782
  957MOL0     C31972   8.855   7.369   0.085  0.1751 -0.4529  0.3117
  957MOL0    Cl31973   8.988   7.287   0.010 -0.2155 -0.0674 -0.1404
  957MOL0     C31974   7.980   7.673   0.172 -1.1423 -0.5183 -0.2194
  957MOL0     C31975   7.895   7.780   0.153  0.0862 -0.1462 -0.8215
  957MOL0     O31976   8.017   8.095   0.140  0.3532 -0.3209 -0.6772
  957MOL0     C31977   7.727   8.251   0.276  0.1879 -0.0570 -0.0555
  957MOL0     C31978   7.652   8.368   0.275  0.0994 -0.8930 -0.1839
  957MOL0     N31979   7.959   8.883   0.693 -0.4899  0.0992 -0.5118
  957MOL0     N31980   8.055   8.804   0.721 -0.9961  0.4738 -0.7014
  957MOL0     C31981   8.533   7.752   0.787  0.0419 -0.0361 -0.0107
  957MOL0     C31982   8.591   7.706   0.909 -0.3569 -0.4192 -0.4525
  957MOL0     C31983   8.822   7.679   1.276  0.8053 -0.3320  0.7242
  957MOL0     C31984   8.930   7.588   1.286 -0.2892  0.1918  0.4489
  957MOL0     C31985   8.981   7.543   1.409 -0.3974 -0.1173  0.3388
  957MOL0     C31986   8.905   7.558   1.524  0.2672 -0.0408  0.1530
  957MOL0     O31987   8.944   7.519   1.654 -0.2023 -0.1428  0.0393
  957MOL0     C31988   9.027   7.401   1.678 -0.1476 -0.5741 -0.7592
  957MOL0     C31989   9.072   7.409   1.817 -0.0442  0.5550 -0.0942
  957MOL0     C31990   8.958   7.395   1.920  0.2747 -0.1513  0.0098
  957MOL0     C31991   8.942   7.249   1.966 -0.3451  0.4916 -0.0958
  957MOL0     C31992   9.041   7.181   2.061  0.1723 -0.6785  0.7409
  957MOL0     C31993   9.128   7.121   2.122 -0.0454 -0.3841  0.1977
  957MOL0     C31994   8.790   7.638   1.513 -0.7619 -0.2320 -0.7202
  957MOL0     C31995   8.748   7.698   1.397  0.7793  0.4296 -0.2402
  957MOL0     C31996   8.628   7.782   1.408  0.1909 -0.5115  0.2839
  957MOL0     H31997   8.913   7.673   0.796  0.5767  2.2667 -1.7898
  957MOL0     H31998   8.820   7.747   0.596  0.2273 -1.6204  0.3063
  957MOL0     H31999   8.576   8.013   0.532  1.1118 -0.7181  1.0929
  957MOL0     H32000   8.462   7.976   0.652 -1.7202  2.3823 -1.7621
  957MOL0     H32001   8.438   7.884   0.367  5.2215  0.2543  0.7290
  957MOL0     H32002   8.312   7.871   0.498  2.5497 -2.5905 -0.7261
  957MOL0     H32003   8.426   8.132   0.376  0.4116  0.3094  0.7488
  957MOL0     H32004   8.273   8.064   0.324  2.0984 -1.9291 -1.1242
  957MOL0     H32005   8.185   8.093   0.566  1.1226 -0.9491 -0.4864
  957MOL0     H32006   8.330   8.162   0.616  1.5722 -0.0160 -1.3034
  957MOL0     H32007   8.137   8.287   0.412  0.1795 -3.7509  0.7530
  957MOL0     H32008   8.297   8.356   0.457 -1.8292  2.3006 -1.2467
  957MOL0     H32009   8.096   8.300   0.676 -0.0655 -1.2814 -1.6295
  957MOL0     H32010   8.248   8.403   0.673  0.2403  0.2968 -0.1859
  957MOL0     H32011   8.021   8.509   0.682  1.6715 -2.2814  2.1154
  957MOL0     H32012   8.053   8.493   0.497  1.5444 -4.6756 -0.3107
  957MOL0     H32013   8.244   8.622   0.682  0.2867 -3.2897 -0.9019
  957MOL0     H32014   8.234   8.628   0.500  1.0676 -1.6513 -0.1248
  957MOL0     H32015   8.023   8.773   0.397  0.8244  1.3087 -0.4364
  957MOL0     H32016   7.868   8.973   0.386  2.4656 -2.3993  0.5140
  957MOL0     H32017   7.791   9.026   0.548  0.2467 -2.5280  2.8585
  957MOL0     H32018   7.660   8.815   0.550 -3.8188 -0.2018 -1.7368
  957MOL0     H32019   7.617   8.930   0.425  2.8823  2.5375 -0.3274
  957MOL0     H32020   7.738   8.820   0.254  0.2132 -0.0203 -0.6877
  957MOL0     H32021   7.812   8.703   0.360 -1.4598 -1.5340 -0.7611
  957MOL0     H32022   7.585   8.608   0.406 -2.7714 -0.2090 -0.2896
  957MOL0     H32023   7.519   8.743   0.305  1.0615  1.4923  0.3133
  957MOL0     H32024   7.869   8.566   0.109  0.0800  0.7994  2.0800
  957MOL0     H32025   8.038   8.464   0.033 -1.4702  1.2855  2.9369
  957MOL0     H32026   8.030   8.285   0.004  1.3923  0.1073  0.8857
  957MOL0     H32027   8.119   8.347   0.145  1.4709 -0.8771 -0.5487
  957MOL0     H32028   7.961   7.970   0.419 -3.0764  0.0040 -0.7069
  957MOL0     H32029   8.122   7.764   0.467  0.6869 -2.3658 -0.5260
  957MOL0     H32030   8.217   7.587   0.107 -0.1179  3.0050  0.0017
  957MOL0     H32031   8.294   7.688   0.221 -0.1122  0.6412  0.2233
  957MOL0     H32032   8.350   7.384   0.220 -3.1621  1.6368 -1.0787
  957MOL0     H32033   8.431   7.499   0.120  1.4766 -1.3181 -0.3503
  957MOL0     H32034   8.438   7.514   0.428  1.4660 -0.9773 -0.0160
  957MOL0     H32035   8.486   7.644   0.331 -1.2445  0.5203  2.0794
  957MOL0     H32036   8.621   7.455   0.201 -2.2821  2.2139 -0.5734
  957MOL0     H32037   8.591   7.345   0.333  4.1633 -1.0159 -2.3545
  957MOL0     H32038   8.712   7.607   0.407 -0.8100  0.1881 -3.2480
  957MOL0     H32039   8.702   7.456   0.489 -0.2360 -1.0382  0.3975
  957MOL0     H32040   8.868   7.345   0.346  0.2379 -0.1165 -0.1327
  957MOL0     H32041   8.924   7.509   0.395 -1.2296  0.4559  2.7555
  957MOL0     H32042   8.987   7.518   0.174 -0.3888  1.4686  2.1448
  957MOL0     H32043   8.819   7.573   0.163  1.0943  0.7343  0.9443
  957MOL0     H32044   8.788   7.399   0.004  0.0256 -0.9253  0.2521
  957MOL0     H32045   8.806   7.284   0.135  1.8469 -2.7729 -1.7828
  957MOL0     H32046   7.984   7.600   0.091  1.5847 -0.3513 -0.3156
  957MOL0     H32047   7.828   7.792   0.069 -0.1549  0.5792 -0.5348
  957MOL0     H32048   7.690   8.159   0.322  0.9803  0.0691  0.8871
  957MOL0     H32049   7.551   8.389   0.310  0.7586 -1.1478  2.0273
  957MOL0     H32050   8.432   7.789   0.775 -0.4167 -1.0074  0.7232
  957MOL0     H32051   8.530   7.701   0.999  0.9331 -5.4194  0.4305
  957MOL0     H32052   8.979   7.557   1.194  0.5846  1.4308  0.4835
  957MOL0     H32053   9.073   7.486   1.405 -0.6950 -0.5412 -1.0266
  957MOL0     H32054   8.970   7.310   1.659  0.4361 -0.7708 -1.6336
  957MOL0     H32055   9.117   7.400   1.615  1.8416  0.4780  1.8516
  957MOL0     H32056   9.124   7.504   1.833 -0.4766  0.9177 -0.7856
  957MOL0     H32057   9.143   7.328   1.839 -2.4352 -1.3281  1.1041
  957MOL0     H32058   8.986   7.455   2.007  1.1122 -1.0656  0.3893
  957MOL0     H32059   8.858   7.422   1.884 -0.3088 -1.8904  0.2255
  957MOL0     H32060   8.919   7.181   1.884 -0.4387  2.0544 -1.4197
  957MOL0     H32061   8.848   7.248   2.022 -1.5634  1.7597 -2.0329
  957MOL0     H32062   9.213   7.067   2.159 -1.5816 -2.6664  0.5864
  957MOL0     H32063   8.734   7.647   1.606  2.8775  0.2345  1.6073
  957MOL0     H32064   8.570   7.772   1.316  0.8811 -0.3525 -0.1776
  957MOL0     H32065   8.562   7.742   1.485 -2.3930 -2.2615 -2.6005
  957MOL0     H32066   8.653   7.887   1.425  5.1226 -1.3845  0.1316
  958MOL0     O32067  10.325   0.299   8.142 -0.1342  0.4974 -0.1933
  958MOL0     C32068  10.265   0.264   8.036  0.4915  0.6016 -0.6795
  958MOL0     O32069  10.169   0.335   7.976 -0.4764  0.3053  0.4214
  958MOL0     C32070  10.133   0.453   8.023  0.5964 -0.0003 -0.2054
  958MOL0     C32071  10.216   0.574   8.032  0.4225  1.1186 -0.6175
  958MOL0     C32072  10.169   0.703   8.073 -0.3257  0.2667  0.3148
  958MOL0     C32073  10.032   0.725   8.089 -1.0020  0.4279  0.1018
  958MOL0     O32074   9.982   0.845   8.112 -0.5869  0.4590 -0.4500
  958MOL0     C32075   9.977   0.925   7.991 -0.0113 -0.0557 -0.7595
  958MOL0     C32076   9.876   0.856   7.888  0.0824 -0.0959  0.0354
  958MOL0     C32077   9.840   0.947   7.765 -0.3018  0.3699 -0.6652
  958MOL0     C32078   9.760   0.879   7.660  0.0207  0.3871  0.3414
  958MOL0     C32079   9.740   0.957   7.529 -0.3436  0.4149  0.0971
  958MOL0     C32080   9.862   0.984   7.439 -0.7244  0.1460 -0.5227
  958MOL0     C32081   9.832   1.059   7.318  0.4383  0.1225  0.6274
  958MOL0     C32082   9.955   1.086   7.237 -0.4366  0.3639 -0.4835
  958MOL0     N32083  10.050   1.181   7.302 -0.9367 -0.5211  0.1910
  958MOL0     C32084  10.050   1.317   7.287 -0.2476 -0.2666  0.7068
  958MOL0     C32085  10.157   1.365   7.355  0.8319 -0.1365 -0.8003
  958MOL0     C32086  10.185   1.507   7.371 -0.7770  0.0828  0.1858
  958MOL0     C32087  10.276   1.552   7.258 -1.0843  0.1795 -0.1818
  958MOL0     C32088  10.413   1.482   7.262  0.2211  0.8798  0.5323
  958MOL0     C32089  10.508   1.547   7.169 -0.0876 -0.1983 -0.1583
  958MOL0     O32090  10.639   1.492   7.158 -0.3099 -0.0356  0.9666
  958MOL0     C32091  10.746   1.576   7.121 -0.3486 -0.2955  0.3004
  958MOL0     C32092  10.748   1.660   7.004  0.1436  0.1972 -0.4891
  958MOL0     C32093  10.859   1.720   6.961  0.2838 -0.1520 -0.0492
  958MOL0     C32094  10.844   1.803   6.832 -0.0700  0.4450  0.3141
  958MOL0     C32095  10.987   1.696   7.022  0.0756 -0.7310 -0.3575
  958MOL0     C32096  11.114   1.748   6.974 -1.0371  0.4502  0.0457
  958MOL0     O32097  11.110   1.820   6.861 -0.0019  0.0776 -0.0158
  958MOL0     C32098  11.232   1.874   6.817 -0.7443  0.9771  0.0076
  958MOL0     C32099  11.321   1.780   6.758  0.2722  0.5477  0.0867
  958MOL0     C32100  11.433   1.813   6.691  0.2829  1.0412 -0.5609
  958MOL0     C32101  11.464   1.948   6.688 -0.8380 -0.1591  0.0628
  958MOL0     O32102  11.579   1.995   6.631  0.5874  0.3782 -0.1807
  958MOL0     C32103  11.618   1.931   6.504 -0.1363  0.0993  0.4589
  958MOL0     C32104  11.728   2.004   6.425  0.5198  0.2143  0.2129
  958MOL0     C32105  11.836   1.903   6.376 -0.3018  0.0265 -0.4557
  958MOL0     C32106  11.962   1.979   6.333 -1.0507 -0.0455  0.4308
  958MOL0     C32107  12.087   1.898   6.336 -0.6380  0.1487 -0.6536
  958MOL0     C32108  12.160   1.905   6.477  1.5906  0.5665 -0.2475
  958MOL0     C32109  12.306   1.899   6.484 -0.0078  0.8038 -1.0428
  958MOL0     C32110  12.373   1.948   6.616 -0.7721  0.0536  0.5140
  958MOL0    Cl32111  12.557   1.984   6.591 -0.1420  0.4165 -0.1386
  958MOL0     C32112  11.389   2.043   6.750  0.7283 -0.1630 -0.9836
  958MOL0     C32113  11.266   2.013   6.820 -0.0050  0.2208 -0.6024
  958MOL0     O32114  11.214   1.733   7.045 -0.3804 -0.5605 -0.5536
  958MOL0     C32115  10.985   1.622   7.138 -0.2973 -0.3192  0.0674
  958MOL0     C32116  10.867   1.557   7.177 -0.3560  0.1238 -0.3915
  958MOL0     N32117  10.224   1.254   7.408  0.7575  0.3685 -0.4003
  958MOL0     N32118  10.156   1.148   7.394  0.0432  0.3906 -0.4591
  958MOL0     C32119   9.955   0.612   8.074  0.0425 -0.3270 -0.3061
  958MOL0     C32120  10.002   0.479   8.039  0.9872 -0.4439 -0.3231
  958MOL0     C32121  10.305   0.144   7.959  0.0863  0.6993 -0.6161
  958MOL0     C32122  10.319   0.030   8.027 -0.4217  0.6174 -0.4327
  958MOL0     C32123  10.331  -0.092   7.962 -0.3166 -1.3226  0.3280
  958MOL0     C32124  10.344  -0.094   7.823 -0.6094 -0.2646 -0.0626
  958MOL0     O32125  10.360  -0.213   7.757 -0.1327  0.1615  0.2392
  958MOL0     C32126  10.378  -0.226   7.615  0.9502 -0.0795  0.0901
  958MOL0     C32127  10.511  -0.211   7.562 -0.4786 -0.4278 -0.0868
  958MOL0     C32128  10.615  -0.272   7.661 -0.3452 -0.0804  0.5825
  958MOL0     C32129  10.757  -0.285   7.595 -0.2170  0.8923 -0.0077
  958MOL0     C32130  10.844  -0.361   7.684 -0.3701 -0.0233 -0.2389
  958MOL0     C32131  10.918  -0.414   7.768  0.0466  0.8466  0.5519
  958MOL0     C32132  10.354   0.025   7.755  0.1904  0.8670  0.7508
  958MOL0     C32133  10.324   0.147   7.819 -0.1682  0.1474  0.0363
  958MOL0     C32134  10.321   0.268   7.723 -0.3325 -0.0777 -0.4823
  958MOL0     H32135  10.322   0.551   8.026 -0.2550 -2.8257 -0.3503
  958MOL0     H32136  10.229   0.794   8.077  0.6265 -0.3661  0.7859
  958MOL0     H32137  10.075   0.923   7.941 -0.2855 -0.3042 -1.2985
  958MOL0     H32138   9.956   1.032   7.999 -3.0127 -0.5788 -0.4514
  958MOL0     H32139   9.935   0.776   7.841 -0.7593 -0.5715 -0.2213
  958MOL0     H32140   9.790   0.818   7.944 -0.1350  0.9781  0.4479
  958MOL0     H32141   9.790   1.035   7.806 -1.0362 -1.0745  1.7380
  958MOL0     H32142   9.924   0.993   7.712  0.3722 -3.0344 -2.9227
  958MOL0     H32143   9.800   0.779   7.641  2.2363  0.8181  2.3472
  958MOL0     H32144   9.658   0.860   7.697 -0.0529 -2.7312 -1.1212
  958MOL0     H32145   9.695   1.053   7.554 -0.8611  0.7937 -2.1345
  958MOL0     H32146   9.678   0.896   7.463 -1.3278  1.7097 -0.2132
  958MOL0     H32147   9.924   1.052   7.499 -1.4738  1.6520 -1.3829
  958MOL0     H32148   9.926   0.900   7.408  1.5750  1.7937 -0.5285
  958MOL0     H32149   9.788   1.154   7.347 -0.5312 -1.0143  3.2088
  958MOL0     H32150   9.761   1.007   7.253  1.7469  0.5187 -1.1802
  958MOL0     H32151  10.015   0.997   7.215  0.9182  1.4924 -1.5557
  958MOL0     H32152   9.917   1.119   7.141 -2.0306 -2.3174 -0.8734
  958MOL0     H32153   9.989   1.376   7.220 -0.7889 -1.2567  0.2921
  958MOL0     H32154  10.240   1.512   7.466  2.8479  3.6412 -1.8043
  958MOL0     H32155  10.100   1.576   7.373  1.1755  2.8322 -2.2904
  958MOL0     H32156  10.238   1.545   7.156  1.3626  0.6708 -1.1938
  958MOL0     H32157  10.286   1.658   7.281 -2.2580  0.1926  0.3796
  958MOL0     H32158  10.460   1.457   7.358  1.6358 -1.0760 -0.6049
  958MOL0     H32159  10.405   1.382   7.220  4.3637  1.0141 -1.1517
  958MOL0     H32160  10.465   1.572   7.072 -1.5506  1.8034  0.9585
  958MOL0     H32161  10.532   1.640   7.221  0.5153 -1.3745  1.7801
  958MOL0     H32162  10.654   1.688   6.957  0.4247  2.6599  0.2831
  958MOL0     H32163  10.741   1.802   6.794  1.2841 -1.5681 -3.7628
  958MOL0     H32164  10.890   1.754   6.746 -2.4011 -1.5132  0.0752
  958MOL0     H32165  10.877   1.906   6.850 -2.9381  1.0103  3.3269
  958MOL0     H32166  11.284   1.679   6.776 -0.8017  0.6875 -1.2056
  958MOL0     H32167  11.508   1.739   6.664 -0.4132  0.1727 -0.1515
  958MOL0     H32168  11.644   1.825   6.510 -2.4194 -0.6211 -1.2564
  958MOL0     H32169  11.531   1.936   6.438  0.6823 -1.4053 -0.7773
  958MOL0     H32170  11.681   2.052   6.338 -3.2107 -0.1972  1.8116
  958MOL0     H32171  11.777   2.081   6.484  0.1711  0.0806  0.6799
  958MOL0     H32172  11.798   1.857   6.284 -1.4233  2.8220 -1.4991
  958MOL0     H32173  11.852   1.830   6.456  1.1327  0.2146 -0.5562
  958MOL0     H32174  11.979   2.064   6.400 -0.3409 -1.3985  2.0134
  958MOL0     H32175  11.947   2.017   6.231  0.3086 -0.8680 -0.1036
  958MOL0     H32176  12.060   1.796   6.309  0.3792 -0.4990  0.6632
  958MOL0     H32177  12.154   1.942   6.261 -1.0688  1.5901 -0.2346
  958MOL0     H32178  12.123   1.813   6.525  0.2331  0.9624 -0.4884
  958MOL0     H32179  12.123   1.990   6.535 -0.7244  0.0362 -0.8392
  958MOL0     H32180  12.350   1.947   6.397  1.0011  0.7786 -0.5494
  958MOL0     H32181  12.331   1.792   6.478 -2.8086 -0.0989  0.9156
  958MOL0     H32182  12.365   1.880   6.702 -3.2649 -0.5927 -0.1565
  958MOL0     H32183  12.324   2.038   6.656 -2.2478 -0.3679 -0.2900
  958MOL0     H32184  11.430   2.141   6.731  2.1365  0.5678  4.2817
  958MOL0     H32185  11.196   2.086   6.858  1.0764  1.3476 -0.7053
  958MOL0     H32186  11.068   1.589   7.199 -2.5393 -1.4156  2.7475
  958MOL0     H32187  10.880   1.485   7.258 -1.1046  0.2278 -0.1789
  958MOL0     H32188   9.851   0.622   8.103  0.2572  2.2143 -0.2248
  958MOL0     H32189   9.931   0.397   8.027 -0.2824 -0.3019  4.1999
  958MOL0     H32190  10.307   0.026   8.135 -2.3454  1.1687 -0.5803
  958MOL0     H32191  10.352  -0.184   8.016  2.7278  0.1491  1.9347
  958MOL0     H32192  10.353  -0.330   7.593 -5.6108  1.0890  0.0303
  958MOL0     H32193  10.307  -0.162   7.562  0.4764 -0.5168  0.1891
  958MOL0     H32194  10.529  -0.104   7.551 -0.6133 -0.6384 -3.2474
  958MOL0     H32195  10.519  -0.248   7.459  1.1145  0.7626 -0.4180
  958MOL0     H32196  10.625  -0.203   7.745 -0.8702  0.7043  0.0204
  958MOL0     H32197  10.578  -0.370   7.691 -1.0386 -0.6428 -1.8740
  958MOL0     H32198  10.797  -0.187   7.567 -1.6363  1.7150  0.7236
  958MOL0     H32199  10.753  -0.352   7.509  2.2808  2.0683 -1.1491
  958MOL0     H32200  10.967  -0.466   7.847 -1.2959  0.7632  1.3454
  958MOL0     H32201  10.375   0.018   7.649 -0.4296 -0.4555  0.6930
  958MOL0     H32202  10.277   0.352   7.779 -1.4324 -0.2732 -1.0262
  958MOL0     H32203  10.420   0.302   7.690 -0.1790 -2.3975 -2.6087
  958MOL0     H32204  10.266   0.220   7.642  2.5948 -2.8107 -1.0345
  959MOL0     O32205   8.932   1.369   3.157 -0.4355 -0.0994 -0.5681
  959MOL0     C32206   9.027   1.450   3.151  0.5526  0.1363  0.9298
  959MOL0     O32207   9.014   1.584   3.121 -0.3127 -0.6530  0.0035
  959MOL0     C32208   8.890   1.623   3.091  0.2749  0.3659 -0.2647
  959MOL0     C32209   8.791   1.634   3.190 -0.5569  0.0331  0.5977
  959MOL0     C32210   8.663   1.670   3.156  0.1742 -0.2400 -0.2709
  959MOL0     C32211   8.624   1.711   3.028  0.3482  1.0214  0.4943
  959MOL0     O32212   8.498   1.741   2.983  0.4703 -0.3070 -0.1872
  959MOL0     C32213   8.389   1.701   3.077 -0.2674 -0.6181 -0.7442
  959MOL0     C32214   8.257   1.669   3.001 -0.3372  0.1237  0.7321
  959MOL0     C32215   8.129   1.659   3.085 -0.4282  0.2657  0.2618
  959MOL0     C32216   8.003   1.625   2.999 -0.6019  0.4497  0.1868
  959MOL0     C32217   7.871   1.672   3.058  0.2340  0.5986 -0.7364
  959MOL0     C32218   7.758   1.629   2.965 -0.1295 -0.3022  0.2181
  959MOL0     C32219   7.623   1.671   3.027 -0.8307  0.6208 -0.3804
  959MOL0     C32220   7.504   1.624   2.948  0.0586  0.6022 -0.8591
  959MOL0     N32221   7.377   1.677   2.997  0.1392  0.4402  0.1919
  959MOL0     C32222   7.313   1.615   3.105 -0.5881 -0.2884 -0.5194
  959MOL0     C32223   7.209   1.700   3.127  0.5744 -0.8124 -0.2358
  959MOL0     C32224   7.087   1.692   3.226 -0.7350  1.0009  0.4781
  959MOL0     C32225   6.974   1.603   3.173 -0.7283  0.6457  0.5318
  959MOL0     C32226   6.985   1.448   3.177  0.0036  0.5567  0.5913
  959MOL0     C32227   6.882   1.366   3.094 -0.2740 -0.3359  0.8884
  959MOL0     O32228   6.765   1.386   3.168  0.8221 -0.2589 -0.6301
  959MOL0     C32229   6.642   1.371   3.097  0.4970 -0.2332 -0.2179
  959MOL0     C32230   6.561   1.266   3.135 -0.5941  0.2366  0.4736
  959MOL0     C32231   6.443   1.247   3.078  0.6239  0.4355  0.6969
  959MOL0     C32232   6.359   1.126   3.132  0.0107 -0.1171 -0.6545
  959MOL0     C32233   6.395   1.340   2.975 -0.1493  0.2322  0.9307
  959MOL0     C32234   6.266   1.345   2.902 -0.4765  0.7773 -0.1723
  959MOL0     O32235   6.231   1.465   2.864  0.2497 -0.4066  0.0272
  959MOL0     C32236   6.098   1.482   2.839 -0.2059  0.2115  1.1297
  959MOL0     C32237   6.043   1.533   2.713  0.2679  0.1473  0.3165
  959MOL0     C32238   5.903   1.564   2.706  0.6378 -0.0798 -0.3018
  959MOL0     C32239   5.825   1.573   2.814 -0.0791 -0.4950 -0.3577
  959MOL0     O32240   5.700   1.624   2.779 -0.3548 -1.1421 -0.0584
  959MOL0     C32241   5.614   1.680   2.883  0.2858 -0.2857  0.1032
  959MOL0     C32242   5.666   1.810   2.957  0.3736  0.3722 -0.3553
  959MOL0     C32243   5.710   1.919   2.863 -0.4274  0.0305  0.1229
  959MOL0     C32244   5.747   2.042   2.928  0.2475 -0.3148  0.7205
  959MOL0     C32245   5.809   2.152   2.823 -0.2108  0.4346 -0.1671
  959MOL0     C32246   5.953   2.105   2.778  0.4906 -0.6303 -0.1608
  959MOL0     C32247   5.950   2.059   2.629  0.0301 -0.9264 -0.1109
  959MOL0     C32248   6.092   2.017   2.582  0.3376  0.0047  1.0620
  959MOL0    Cl32249   6.066   1.959   2.422 -0.1383  0.6106 -0.1554
  959MOL0     C32250   5.874   1.520   2.932 -0.0669  0.3545 -0.8640
  959MOL0     C32251   6.007   1.471   2.943 -0.0503 -0.9898  0.0578
  959MOL0     O32252   6.207   1.243   2.874 -0.6987  0.4512  0.1735
  959MOL0     C32253   6.484   1.441   2.934 -0.5191  0.4112  0.2570
  959MOL0     C32254   6.608   1.459   2.998  0.1546  0.3281 -0.7005
  959MOL0     N32255   7.205   1.790   3.028 -0.3288 -0.0471 -0.4692
  959MOL0     N32256   7.312   1.789   2.956 -0.1642 -0.2718  0.2295
  959MOL0     C32257   8.734   1.711   2.937  0.4603  0.0617 -0.2641
  959MOL0     C32258   8.858   1.675   2.965 -0.8504  0.4736 -0.1835
  959MOL0     C32259   9.171   1.405   3.160  0.0435 -0.2964 -0.3823
  959MOL0     C32260   9.267   1.487   3.102  0.1416  0.1137 -0.1234
  959MOL0     C32261   9.405   1.457   3.098 -0.5594  0.5418 -0.0031
  959MOL0     C32262   9.436   1.328   3.126  0.8897  0.0879 -0.5697
  959MOL0     O32263   9.564   1.290   3.109 -0.1312 -0.0979 -0.3882
  959MOL0     C32264   9.656   1.309   3.214 -0.9547  0.3448  0.1292
  959MOL0     C32265   9.795   1.255   3.178 -0.0063 -0.3717 -0.0922
  959MOL0     C32266   9.790   1.116   3.117 -0.3787 -0.0965  0.1163
  959MOL0     C32267   9.906   1.030   3.129 -0.6082  0.6699 -0.0255
  959MOL0     C32268  10.038   1.088   3.097  0.3622  0.5775 -0.6646
  959MOL0     C32269  10.145   1.130   3.073  0.0151 -0.3424 -0.0545
  959MOL0     C32270   9.350   1.240   3.182 -1.0066 -0.4004 -0.9791
  959MOL0     C32271   9.219   1.281   3.206 -0.4076  0.0976  0.3806
  959MOL0     C32272   9.132   1.164   3.257 -0.9696  0.9124  0.0885
  959MOL0     H32273   8.823   1.615   3.292  0.2929  1.6110  0.6522
  959MOL0     H32274   8.582   1.672   3.228  1.0961  1.2583  0.7810
  959MOL0     H32275   8.369   1.778   3.152 -0.8137 -0.9313 -0.5635
  959MOL0     H32276   8.415   1.606   3.126  0.8743  1.0701  2.1623
  959MOL0     H32277   8.248   1.746   2.924 -0.0400 -1.7436 -1.2416
  959MOL0     H32278   8.273   1.587   2.930 -1.7543  2.9299 -3.1702
  959MOL0     H32279   8.150   1.588   3.165 -0.3519 -1.8444 -1.5224
  959MOL0     H32280   8.106   1.758   3.126 -2.3263 -0.1507  0.3146
  959MOL0     H32281   8.017   1.654   2.894  3.0744 -2.2592 -0.2545
  959MOL0     H32282   7.991   1.516   2.997 -0.6011  0.4308  0.8964
  959MOL0     H32283   7.881   1.781   3.060  2.1752  0.4648 -1.1248
  959MOL0     H32284   7.849   1.642   3.161 -1.6723 -0.1365 -1.3023
  959MOL0     H32285   7.765   1.694   2.877  1.9228 -0.4663  0.2080
  959MOL0     H32286   7.767   1.524   2.936  1.2498  0.3518 -2.0339
  959MOL0     H32287   7.613   1.775   3.059  1.6558  0.6271  0.6415
  959MOL0     H32288   7.615   1.608   3.117 -0.9183 -2.2883 -2.2825
  959MOL0     H32289   7.511   1.648   2.841  1.4863  1.3529 -0.6258
  959MOL0     H32290   7.498   1.516   2.963 -2.8589  0.8787  0.7610
  959MOL0     H32291   7.339   1.527   3.164 -0.1199  0.4983  0.4819
  959MOL0     H32292   7.037   1.789   3.228 -1.2938  0.7304 -0.2345
  959MOL0     H32293   7.117   1.650   3.323 -0.0601 -1.8133 -0.8542
  959MOL0     H32294   6.877   1.629   3.216 -0.6161  0.2207  1.0515
  959MOL0     H32295   6.964   1.635   3.069 -2.3612  1.8089  0.9997
  959MOL0     H32296   7.079   1.424   3.127 -0.8632  1.3514 -1.4978
  959MOL0     H32297   6.990   1.408   3.279 -0.1578  1.0010  0.7773
  959MOL0     H32298   6.887   1.385   2.987  2.3208  1.1475  1.1890
  959MOL0     H32299   6.923   1.267   3.115 -0.3517  0.1799  3.9426
  959MOL0     H32300   6.589   1.196   3.213  0.6260  2.9213  2.6243
  959MOL0     H32301   6.415   1.076   3.211 -0.1830 -0.4637 -0.7362
  959MOL0     H32302   6.342   1.053   3.052 -3.3378  0.6757 -0.7932
  959MOL0     H32303   6.264   1.158   3.176 -0.2530 -2.2939  0.4674
  959MOL0     H32304   6.109   1.547   2.628  0.4061  0.7386  0.5197
  959MOL0     H32305   5.859   1.586   2.609  3.1082  0.7636 -1.2899
  959MOL0     H32306   5.516   1.700   2.839  0.3399  4.5169  1.5849
  959MOL0     H32307   5.602   1.608   2.964  0.8457  0.4136  0.8335
  959MOL0     H32308   5.590   1.841   3.029 -1.7692  0.7019 -2.6206
  959MOL0     H32309   5.751   1.777   3.017  0.2747  0.0983 -0.3620
  959MOL0     H32310   5.631   1.945   2.792  0.0098  3.2025  0.6568
  959MOL0     H32311   5.796   1.875   2.811  0.0435 -0.8145  1.5611
  959MOL0     H32312   5.808   2.008   3.012 -1.5755  0.5454  2.4618
  959MOL0     H32313   5.650   2.078   2.964  1.5588  1.6818  2.4596
  959MOL0     H32314   5.750   2.171   2.732  1.3019 -2.3093 -1.8653
  959MOL0     H32315   5.830   2.241   2.882  0.9303 -0.3376  0.6226
  959MOL0     H32316   5.982   2.026   2.848  1.1775  2.4014  3.2065
  959MOL0     H32317   6.016   2.193   2.789 -0.6457  0.4800 -1.9149
  959MOL0     H32318   5.918   2.142   2.566  0.0049 -0.4980  0.4563
  959MOL0     H32319   5.890   1.968   2.626 -0.1942 -0.7969  0.3172
  959MOL0     H32320   6.137   1.937   2.641  0.9725  0.3666  1.0718
  959MOL0     H32321   6.159   2.101   2.563 -0.2296  0.1313 -0.5407
  959MOL0     H32322   5.808   1.511   3.017 -0.8678  1.6982 -1.3156
  959MOL0     H32323   6.045   1.438   3.039  0.7471 -1.8910 -0.5473
  959MOL0     H32324   6.450   1.510   2.857 -2.7845 -1.7607 -0.8350
  959MOL0     H32325   6.676   1.540   2.975  1.4122 -1.0777 -2.2453
  959MOL0     H32326   8.709   1.756   2.841 -1.6866 -0.5141 -0.0204
  959MOL0     H32327   8.938   1.675   2.892 -0.5126 -1.8463  0.1159
  959MOL0     H32328   9.251   1.579   3.046  3.7658  1.7102  1.1613
  959MOL0     H32329   9.483   1.508   3.043  0.4689  1.1548  1.9517
  959MOL0     H32330   9.657   1.417   3.231 -1.2154  0.4096 -0.2651
  959MOL0     H32331   9.619   1.264   3.307 -0.3423 -0.6567 -0.0963
  959MOL0     H32332   9.853   1.256   3.271 -0.1926 -0.4441  0.0277
  959MOL0     H32333   9.839   1.318   3.100 -0.3599  0.1586  0.1244
  959MOL0     H32334   9.708   1.065   3.167 -0.5738 -0.7342 -0.8342
  959MOL0     H32335   9.769   1.129   3.010  2.3102  2.3828 -0.2298
  959MOL0     H32336   9.902   0.957   3.048  2.7395  0.3546 -0.0746
  959MOL0     H32337   9.909   0.975   3.224 -2.3933  0.1293 -0.2627
  959MOL0     H32338  10.233   1.185   3.047  0.2832  0.1244  1.7009
  959MOL0     H32339   9.392   1.144   3.208 -0.0660  0.5319  1.1422
  959MOL0     H32340   9.189   1.084   3.304 -1.3688  0.3376 -0.3858
  959MOL0     H32341   9.067   1.204   3.335 -0.6438 -1.0902  1.4440
  959MOL0     H32342   9.077   1.124   3.171  2.8584  0.3910 -2.3908
  960MOL0     O32343   2.474   0.658   4.739 -0.2651 -0.7852  0.3215
  960MOL0     C32344   2.399   0.567   4.773  0.9301 -0.5668  1.4866
  960MOL0     O32345   2.394   0.450   4.706  0.2558  0.1947 -0.5793
  960MOL0     C32346   2.475   0.438   4.599 -0.4502  0.3045 -0.6775
  960MOL0     C32347   2.613   0.405   4.603  0.8509  0.2586  0.4227
  960MOL0     C32348   2.678   0.360   4.480  0.2717  0.4917 -0.0963
  960MOL0     C32349   2.612   0.363   4.357  0.6035 -0.5598 -0.3769
  960MOL0     O32350   2.676   0.336   4.245 -0.4996 -0.3525  0.0741
  960MOL0     C32351   2.717   0.456   4.178 -0.8235  0.1492 -0.5836
  960MOL0     C32352   2.820   0.420   4.068  1.2046  0.1624 -0.7072
  960MOL0     C32353   2.831   0.525   3.964 -1.1054 -0.2258  0.6034
  960MOL0     C32354   2.922   0.482   3.847 -0.0076 -0.4155  0.5206
  960MOL0     C32355   2.920   0.586   3.727 -0.8930  0.2235 -0.1541
  960MOL0     C32356   3.043   0.577   3.635  0.4416 -0.1610  0.5151
  960MOL0     C32357   3.033   0.461   3.529  0.0636 -0.0376 -0.0276
  960MOL0     C32358   3.166   0.446   3.473 -0.2785 -0.1298  0.6705
  960MOL0     N32359   3.177   0.343   3.369  0.2414  0.4221 -1.0360
  960MOL0     C32360   3.285   0.308   3.291 -0.3225  1.2424 -0.4420
  960MOL0     C32361   3.240   0.198   3.217 -0.7074 -0.0442  0.1179
  960MOL0     C32362   3.316   0.142   3.098  0.0341 -0.8754  0.3833
  960MOL0     C32363   3.295  -0.016   3.119 -1.1453 -0.1962 -0.8276
  960MOL0     C32364   3.368  -0.096   3.016  0.9510 -0.2099 -0.4327
  960MOL0     C32365   3.522  -0.091   3.022  0.0155  0.5280  0.2181
  960MOL0     O32366   3.567  -0.155   3.146  0.7041  0.5542  0.3745
  960MOL0     C32367   3.696  -0.159   3.183  0.1021  0.1218 -0.6178
  960MOL0     C32368   3.724  -0.251   3.289 -0.0326 -1.5248  0.8201
  960MOL0     C32369   3.856  -0.270   3.330  0.6653 -0.0435 -0.9581
  960MOL0     C32370   3.880  -0.372   3.444 -0.0593  1.0597 -0.7761
  960MOL0     C32371   3.960  -0.195   3.265  0.0773  0.8627  0.5908
  960MOL0     C32372   4.097  -0.181   3.321  0.2012  0.5999 -0.1844
  960MOL0     O32373   4.143  -0.287   3.399 -0.5081 -0.0485  0.4582
  960MOL0     C32374   4.253  -0.259   3.482 -0.0304  0.5788  0.0728
  960MOL0     C32375   4.224  -0.262   3.622  0.1246  0.3512  0.5888
  960MOL0     C32376   4.326  -0.237   3.709  1.0980  0.1768 -0.7425
  960MOL0     C32377   4.463  -0.226   3.677 -0.1006  0.8937 -0.1409
  960MOL0     O32378   4.567  -0.225   3.769  0.1042 -0.8210  0.5015
  960MOL0     C32379   4.541  -0.172   3.905  0.0275 -0.8945 -0.5675
  960MOL0     C32380   4.512  -0.021   3.887  0.6515 -1.2185  0.2548
  960MOL0     C32381   4.526   0.058   4.023 -1.0778 -0.0269  0.0566
  960MOL0     C32382   4.426   0.015   4.128  0.1730  0.1842 -0.8595
  960MOL0     C32383   4.448   0.093   4.263  0.4129  0.7391 -0.1713
  960MOL0     C32384   4.370   0.049   4.387  0.6573 -0.5215  1.1784
  960MOL0     C32385   4.380   0.167   4.486  0.0285 -0.5484 -1.0104
  960MOL0     C32386   4.279   0.122   4.605  0.2407 -0.4459  0.0256
  960MOL0    Cl32387   4.321  -0.034   4.687  0.4526 -0.4592  0.5500
  960MOL0     C32388   4.488  -0.236   3.543 -0.1453  0.2073  0.9143
  960MOL0     C32389   4.389  -0.246   3.441 -0.0864  0.2042  0.0979
  960MOL0     O32390   4.158  -0.081   3.298 -0.9732  0.7312 -0.0002
  960MOL0     C32391   3.928  -0.104   3.159 -0.0588  1.0934  1.1854
  960MOL0     C32392   3.794  -0.086   3.122 -0.4054 -0.4586  0.7703
  960MOL0     N32393   3.111   0.171   3.258 -0.4706 -0.3855 -0.4233
  960MOL0     N32394   3.071   0.253   3.349  0.3026 -0.3994 -0.0707
  960MOL0     C32395   2.477   0.384   4.364  0.2390  0.0368 -0.0749
  960MOL0     C32396   2.408   0.422   4.484 -0.1852 -0.4033  0.0178
  960MOL0     C32397   2.321   0.574   4.901  0.3909 -0.9982  0.3586
  960MOL0     C32398   2.283   0.457   4.959  0.6328 -0.8972 -0.6862
  960MOL0     C32399   2.198   0.460   5.073 -0.1418  0.0017 -0.2477
  960MOL0     C32400   2.175   0.572   5.147 -0.8907  0.0554 -0.6700
  960MOL0     O32401   2.107   0.577   5.261  0.5111 -0.5884  0.8060
  960MOL0     C32402   2.123   0.469   5.354  0.8855 -0.2400  0.7926
  960MOL0     C32403   2.068   0.509   5.489 -0.0165  0.1303  0.6973
  960MOL0     C32404   2.105   0.408   5.594  0.0234 -1.2091 -0.2208
  960MOL0     C32405   2.057   0.464   5.735 -0.6870  0.4120  0.0044
  960MOL0     C32406   2.129   0.380   5.834 -0.7466  0.0049 -0.3924
  960MOL0     C32407   2.192   0.325   5.918 -0.0374 -0.2731  0.2888
  960MOL0     C32408   2.223   0.693   5.095 -0.4185  1.5244  0.5823
  960MOL0     C32409   2.289   0.696   4.968  0.1995  0.3903 -0.0028
  960MOL0     C32410   2.306   0.825   4.897 -0.2030 -0.9180 -0.0614
  960MOL0     H32411   2.665   0.412   4.698 -1.8352 -0.3252  2.0290
  960MOL0     H32412   2.787   0.362   4.480  0.2779  1.6104 -1.6501
  960MOL0     H32413   2.770   0.532   4.237  1.2920  0.1570 -2.3764
  960MOL0     H32414   2.634   0.510   4.131  0.1038  1.2527 -1.0093
  960MOL0     H32415   2.917   0.395   4.111  0.8603  3.0236  2.1058
  960MOL0     H32416   2.771   0.339   4.012  0.3314  1.1750 -1.4566
  960MOL0     H32417   2.740   0.548   3.908  2.2566  0.8799 -5.4171
  960MOL0     H32418   2.885   0.611   4.005  0.8952 -0.0545 -2.0493
  960MOL0     H32419   3.027   0.484   3.879  0.2594  0.0053 -0.3449
  960MOL0     H32420   2.882   0.386   3.813  1.8951 -2.1237  2.7101
  960MOL0     H32421   2.908   0.689   3.762 -0.4799  0.8197 -1.6909
  960MOL0     H32422   2.836   0.565   3.660 -1.2287  1.2359 -0.0765
  960MOL0     H32423   3.043   0.677   3.590  4.1489  0.7496  2.1263
  960MOL0     H32424   3.128   0.567   3.703 -1.1813 -1.0531  2.5289
  960MOL0     H32425   2.953   0.471   3.456 -0.1200  0.8724  0.2858
  960MOL0     H32426   3.016   0.364   3.575  3.8489 -0.7202  0.2960
  960MOL0     H32427   3.197   0.540   3.425  1.0550 -1.1807 -0.6045
  960MOL0     H32428   3.231   0.419   3.556  1.5085 -0.8851 -0.9086
  960MOL0     H32429   3.381   0.355   3.279  0.0759  0.5349 -0.1187
  960MOL0     H32430   3.418   0.178   3.112 -0.5338  0.7625  0.5747
  960MOL0     H32431   3.277   0.183   3.005 -1.2694  2.8347  2.3633
  960MOL0     H32432   3.322  -0.046   3.221  0.4999  0.8095 -0.9413
  960MOL0     H32433   3.190  -0.036   3.094 -1.6711 -0.9313  1.6803
  960MOL0     H32434   3.336  -0.201   3.020 -0.0320  0.0849 -0.1381
  960MOL0     H32435   3.330  -0.068   2.918  0.1108 -1.7426 -0.5796
  960MOL0     H32436   3.569  -0.135   2.933  0.2587  1.4567 -0.1283
  960MOL0     H32437   3.547   0.016   3.026 -1.6630  0.9079  2.7943
  960MOL0     H32438   3.644  -0.304   3.339 -0.4015  3.3509  6.4324
  960MOL0     H32439   3.905  -0.472   3.407  1.0306  1.3183 -0.7603
  960MOL0     H32440   3.791  -0.397   3.503  1.3446 -0.1702  0.9009
  960MOL0     H32441   3.954  -0.340   3.518  0.7873  1.5153 -1.7858
  960MOL0     H32442   4.126  -0.296   3.654  0.0030  0.1602  0.0331
  960MOL0     H32443   4.282  -0.219   3.807 -3.3779 -0.7835 -2.3694
  960MOL0     H32444   4.448  -0.217   3.941  0.1705  0.2201  1.2788
  960MOL0     H32445   4.632  -0.179   3.964 -0.0556 -1.2569 -0.4771
  960MOL0     H32446   4.574   0.023   3.809 -1.0386 -0.3230 -0.6466
  960MOL0     H32447   4.412  -0.020   3.844 -0.2555 -6.3635  1.5966
  960MOL0     H32448   4.509   0.165   4.008  0.2375  0.1939  0.0694
  960MOL0     H32449   4.632   0.046   4.044 -1.0833  0.3060  0.2635
  960MOL0     H32450   4.458  -0.086   4.153  1.2250  1.2234  2.5439
  960MOL0     H32451   4.324   0.019   4.090 -0.1315  2.0789 -0.0124
  960MOL0     H32452   4.557   0.089   4.269  0.7862  2.1489 -3.6546
  960MOL0     H32453   4.421   0.198   4.246 -2.5030  1.2125  5.2086
  960MOL0     H32454   4.422  -0.040   4.424  2.6864 -0.6183 -1.5935
  960MOL0     H32455   4.269   0.025   4.352 -0.2296  2.0915  1.7157
  960MOL0     H32456   4.353   0.265   4.447 -0.2359 -0.4195 -0.5193
  960MOL0     H32457   4.485   0.169   4.517 -0.1717  0.7809 -0.3593
  960MOL0     H32458   4.179   0.107   4.561 -0.2285  2.3167 -0.0523
  960MOL0     H32459   4.257   0.198   4.681 -0.7033  0.5894 -1.2245
  960MOL0     H32460   4.586  -0.219   3.498  0.1849 -2.6325  0.3259
  960MOL0     H32461   4.410  -0.251   3.335  0.0452  1.0768  0.0747
  960MOL0     H32462   4.007  -0.054   3.104 -3.0569  5.3711  0.2848
  960MOL0     H32463   3.770  -0.011   3.048  1.5371 -0.3363  0.2088
  960MOL0     H32464   2.419   0.394   4.273  1.0507 -1.7280 -0.8308
  960MOL0     H32465   2.300   0.428   4.488 -0.2644 -1.7298  0.3487
  960MOL0     H32466   2.296   0.361   4.910  2.6054 -0.4496 -1.1347
  960MOL0     H32467   2.146   0.369   5.104 -1.6064  0.8810 -0.0477
  960MOL0     H32468   2.065   0.384   5.317  0.5383 -0.3303  1.5264
  960MOL0     H32469   2.229   0.441   5.352  1.3568  1.4103 -2.0017
  960MOL0     H32470   1.960   0.500   5.475  0.4935 -1.3716 -3.3995
  960MOL0     H32471   2.100   0.611   5.511 -0.2880  0.2427  0.5770
  960MOL0     H32472   2.047   0.318   5.572 -2.7789  0.0915  1.3825
  960MOL0     H32473   2.211   0.380   5.595 -0.1339 -2.3626 -3.3333
  960MOL0     H32474   1.948   0.456   5.742 -0.5175 -2.3436  0.5001
  960MOL0     H32475   2.089   0.568   5.749  0.1171  0.2765 -0.7352
  960MOL0     H32476   2.260   0.286   5.992  1.4997 -0.5812 -1.2167
  960MOL0     H32477   2.210   0.783   5.155 -0.9770  0.1583  2.6103
  960MOL0     H32478   2.259   0.900   4.961  2.1702  0.7700 -0.1435
  960MOL0     H32479   2.412   0.852   4.887 -0.8944  1.7276 -1.2050
  960MOL0     H32480   2.259   0.827   4.799 -0.1218 -0.6582 -0.0971
  961MOL0     O32481   2.238  10.253   9.590 -0.5006  0.3786  0.8342
  961MOL0     C32482   2.145  10.305   9.650 -0.5929  0.5984  1.0883
  961MOL0     O32483   2.041  10.365   9.594 -0.7400 -0.7434 -0.9658
  961MOL0     C32484   2.012  10.329   9.470 -0.9456  0.7459 -0.8366
  961MOL0     C32485   1.974  10.198   9.424 -0.4444 -0.6051 -0.2747
  961MOL0     C32486   1.929  10.185   9.283  0.5100 -0.4570  0.3476
  961MOL0     C32487   1.945  10.288   9.195  0.0161 -0.0727 -0.9570
  961MOL0     O32488   1.916  10.254   9.065  0.2036 -0.3181  0.0150
  961MOL0     C32489   1.960  10.347   8.967 -0.8262  0.5449 -0.6504
  961MOL0     C32490   1.950  10.296   8.823 -0.2419 -0.7599 -0.1105
  961MOL0     C32491   2.004  10.150   8.820  0.6022 -0.7280  0.1147
  961MOL0     C32492   2.016  10.102   8.675  0.6046  0.8493 -0.0050
  961MOL0     C32493   2.014   9.952   8.655 -0.1034  0.3689  0.0518
  961MOL0     C32494   1.986   9.907   8.513 -0.5113  0.1272  0.6542
  961MOL0     C32495   1.860   9.823   8.508 -0.0120 -0.0500 -0.4605
  961MOL0     C32496   1.822   9.790   8.353 -0.7095  0.1204 -0.0425
  961MOL0     N32497   1.925   9.713   8.284 -0.2049 -0.1025  0.7196
  961MOL0     C32498   1.997   9.763   8.174 -0.7526 -0.2198  0.8329
  961MOL0     C32499   2.060   9.654   8.134 -0.0316 -0.6542 -0.1783
  961MOL0     C32500   2.148   9.636   8.019 -0.5088 -0.1748  0.0430
  961MOL0     C32501   2.256   9.533   8.049  0.8582  0.4515 -1.2044
  961MOL0     C32502   2.356   9.508   7.944  0.4421  0.0820  0.0281
  961MOL0     C32503   2.449   9.388   7.973  1.7477  0.0568  0.3875
  961MOL0     O32504   2.501   9.383   8.108  0.2712 -0.2694 -0.4511
  961MOL0     C32505   2.620   9.437   8.142  0.5848 -0.9729 -0.7458
  961MOL0     C32506   2.652   9.432   8.282 -0.1133 -0.3124  0.4616
  961MOL0     C32507   2.765   9.494   8.331  0.0414 -0.1606  0.3248
  961MOL0     C32508   2.801   9.480   8.463 -0.3435 -0.0109 -0.8519
  961MOL0     C32509   2.860   9.540   8.233  0.0924  0.0469  0.2013
  961MOL0     C32510   2.991   9.591   8.274 -0.4338  0.1213 -0.2910
  961MOL0     O32511   3.059   9.534   8.377  0.5980  0.3217  0.1963
  961MOL0     C32512   3.166   9.591   8.451  0.0505  1.4617 -0.5413
  961MOL0     C32513   3.185   9.730   8.467 -0.6663 -0.9265  0.2331
  961MOL0     C32514   3.280   9.783   8.556 -0.3545 -0.1476  0.6146
  961MOL0     C32515   3.354   9.693   8.632  0.0927 -0.0971 -0.5597
  961MOL0     O32516   3.463   9.720   8.707  0.4064  0.2810 -0.6258
  961MOL0     C32517   3.461   9.839   8.781 -0.0286 -0.4971 -0.0539
  961MOL0     C32518   3.568   9.825   8.894  0.0691  0.1446  0.0773
  961MOL0     C32519   3.579   9.932   9.005  0.4627 -1.0692 -0.6284
  961MOL0     C32520   3.699   9.911   9.093 -0.2095  0.1354  0.4001
  961MOL0     C32521   3.689   9.997   9.220 -0.5360  0.5159 -0.5425
  961MOL0     C32522   3.640   9.920   9.348 -0.4423 -0.4004  0.3911
  961MOL0     C32523   3.666  10.003   9.473 -0.3054  0.7303  0.1519
  961MOL0     C32524   3.659   9.931   9.613 -0.2217  1.2037  0.1087
  961MOL0    Cl32525   3.511   9.830   9.619 -0.0032 -0.1817  0.4469
  961MOL0     C32526   3.324   9.559   8.633  0.5537  0.2466 -0.4318
  961MOL0     C32527   3.229   9.509   8.543 -0.3954  0.5831 -1.1915
  961MOL0     O32528   3.027   9.692   8.217 -0.2251  0.1103 -0.6314
  961MOL0     C32529   2.828   9.541   8.101 -0.8084 -0.3772  0.3668
  961MOL0     C32530   2.712   9.483   8.055  0.5959  0.3833 -0.1204
  961MOL0     N32531   2.027   9.539   8.206  0.2426 -0.6353 -1.2868
  961MOL0     N32532   1.945   9.577   8.298 -0.0459 -0.4500  0.2267
  961MOL0     C32533   1.972  10.418   9.244 -0.6793  0.8883  0.2013
  961MOL0     C32534   2.003  10.436   9.381 -0.0015  0.5041  0.8824
  961MOL0     C32535   2.153  10.313   9.797 -1.0459  1.2970  0.0807
  961MOL0     C32536   2.202  10.199   9.867 -0.1422  0.3549 -0.1446
  961MOL0     C32537   2.223  10.190  10.002 -0.1099 -0.2932  0.0240
  961MOL0     C32538   2.216  10.315  10.068  0.0239  0.1554 -0.2647
  961MOL0     O32539   2.234  10.326  10.203 -0.1574 -0.3044  0.1654
  961MOL0     C32540   2.117  10.272  10.274  0.0911  0.4217  0.2615
  961MOL0     C32541   2.135  10.287  10.430 -0.4235 -0.6580  1.0699
  961MOL0     C32542   2.254  10.214  10.487  0.2987  0.0023  1.1009
  961MOL0     C32543   2.252  10.215  10.641  0.5434  0.0781  0.1592
  961MOL0     C32544   2.362  10.135  10.688 -0.5094  0.4308  0.6436
  961MOL0     C32545   2.457  10.071  10.724 -0.4299 -0.3924  0.2173
  961MOL0     C32546   2.171  10.432  10.010 -0.4309 -0.9021  0.3696
  961MOL0     C32547   2.139  10.432   9.870  0.5516 -0.3332 -0.7503
  961MOL0     C32548   2.073  10.548   9.814  0.3599 -0.2160  0.6492
  961MOL0     H32549   1.968  10.115   9.494  3.1638 -1.5672 -0.8722
  961MOL0     H32550   1.900  10.094   9.233 -0.2766 -0.2215  0.3612
  961MOL0     H32551   2.063  10.375   8.993 -0.5486 -0.9498 -0.0142
  961MOL0     H32552   1.897  10.436   8.972 -0.1726  0.9846 -0.0944
  961MOL0     H32553   1.852  10.314   8.778 -0.6388  0.4856  1.1812
  961MOL0     H32554   2.020  10.350   8.758 -2.3659 -2.4341 -4.0980
  961MOL0     H32555   2.098  10.158   8.875 -0.3216  0.5284  1.6060
  961MOL0     H32556   1.930  10.085   8.868 -0.3169  0.3561  0.2014
  961MOL0     H32557   1.937  10.146   8.614  1.0502  2.4368  0.5232
  961MOL0     H32558   2.109  10.143   8.636  0.8110  0.0875 -0.3287
  961MOL0     H32559   1.934   9.911   8.717 -0.4339  0.6273 -0.2006
  961MOL0     H32560   2.111   9.921   8.694 -0.5496 -0.9719  0.1199
  961MOL0     H32561   1.983   9.991   8.443 -0.3216 -1.5034 -1.4050
  961MOL0     H32562   2.073   9.846   8.485 -2.7110 -2.5700 -0.7020
  961MOL0     H32563   1.778   9.874   8.561 -1.8240  0.0494 -3.1135
  961MOL0     H32564   1.877   9.730   8.561 -1.3321  1.0981  2.1363
  961MOL0     H32565   1.735   9.724   8.355  0.7127 -1.8386  0.0064
  961MOL0     H32566   1.786   9.880   8.304  0.4962  0.2260 -0.7848
  961MOL0     H32567   2.000   9.867   8.142 -0.1569 -1.1640 -2.5062
  961MOL0     H32568   2.196   9.728   7.985 -0.9073 -0.5905 -1.7834
  961MOL0     H32569   2.092   9.596   7.934 -3.5183  1.0868  1.2750
  961MOL0     H32570   2.314   9.561   8.137  0.5916 -3.3206  0.3772
  961MOL0     H32571   2.218   9.432   8.068  0.4342  1.1872  2.5716
  961MOL0     H32572   2.306   9.493   7.848 -0.8051  2.5830  0.1994
  961MOL0     H32573   2.419   9.596   7.925 -1.3395  0.8903 -2.9226
  961MOL0     H32574   2.394   9.297   7.950  1.0613  0.5695 -0.0200
  961MOL0     H32575   2.529   9.389   7.898  0.1961  0.7370 -1.3220
  961MOL0     H32576   2.591   9.387   8.360  0.8868  1.4554  2.3677
  961MOL0     H32577   2.840   9.575   8.502 -3.2536  1.1165 -0.4519
  961MOL0     H32578   2.872   9.403   8.493  1.1073  1.6055  0.0843
  961MOL0     H32579   2.715   9.452   8.525 -0.6613 -0.7550 -1.6112
  961MOL0     H32580   3.124   9.797   8.406  2.0141  1.3098 -0.1962
  961MOL0     H32581   3.297   9.890   8.562 -1.9069  0.2031 -0.8062
  961MOL0     H32582   3.477   9.922   8.711  0.2700 -0.4443  0.0785
  961MOL0     H32583   3.363   9.850   8.829 -0.0539 -1.3781  0.1084
  961MOL0     H32584   3.543   9.734   8.949  0.3903  1.0286  1.7629
  961MOL0     H32585   3.670   9.804   8.860 -0.0352  0.3643 -0.3861
  961MOL0     H32586   3.490   9.912   9.064  0.0112 -1.7935 -1.5279
  961MOL0     H32587   3.578  10.037   8.976 -2.4242 -0.9589 -0.4347
  961MOL0     H32588   3.787   9.938   9.035 -0.6524 -2.0880 -1.4474
  961MOL0     H32589   3.710   9.803   9.107 -0.0734 -0.5378 -3.7436
  961MOL0     H32590   3.787  10.039   9.242 -0.9125  0.3546  1.6331
  961MOL0     H32591   3.616  10.077   9.203  0.1891  1.5411  0.9391
  961MOL0     H32592   3.711   9.837   9.356  1.2539  1.1558  3.2264
  961MOL0     H32593   3.538   9.881   9.348  0.8046 -4.1783  2.8703
  961MOL0     H32594   3.591  10.083   9.477 -0.6904  0.3855 -0.0329
  961MOL0     H32595   3.765  10.048   9.465  0.0935 -0.3249 -1.3641
  961MOL0     H32596   3.661  10.005   9.693  0.9068 -0.6633  1.9154
  961MOL0     H32597   3.743   9.861   9.618 -1.8388 -1.0066 -1.3330
  961MOL0     H32598   3.377   9.487   8.696 -0.3161  0.4687  0.5702
  961MOL0     H32599   3.218   9.401   8.540  0.0884  0.4101  1.1503
  961MOL0     H32600   2.903   9.572   8.028 -1.9420 -0.0981 -0.7154
  961MOL0     H32601   2.701   9.478   7.947 -0.8820  0.6099 -0.0022
  961MOL0     H32602   1.985  10.494   9.167 -3.2966  0.3602 -0.8562
  961MOL0     H32603   2.021  10.541   9.405 -1.5281  1.3688 -1.4649
  961MOL0     H32604   2.221  10.110   9.808  2.8070  0.0411  1.0713
  961MOL0     H32605   2.267  10.098  10.040 -2.2259 -0.6377  1.7580
  961MOL0     H32606   2.034  10.341  10.258  1.2630  2.0586  0.9384
  961MOL0     H32607   2.081  10.173  10.246 -0.4118  1.3301 -2.6477
  961MOL0     H32608   2.041  10.239  10.459 -0.9319 -2.8706 -3.4106
  961MOL0     H32609   2.148  10.393  10.451  0.7042 -0.4331 -0.5823
  961MOL0     H32610   2.245  10.110  10.454  2.0904 -0.3068  1.4520
  961MOL0     H32611   2.346  10.254  10.442  0.4441 -2.2801 -0.8279
  961MOL0     H32612   2.156  10.170  10.669 -0.2677 -0.9478 -3.6752
  961MOL0     H32613   2.251  10.318  10.676  1.0950 -0.3479  1.5157
  961MOL0     H32614   2.552  10.034  10.757 -1.2263 -0.7637  2.2921
  961MOL0     H32615   2.163  10.533  10.050 -0.0903  1.8695 -5.5466
  961MOL0     H32616   1.966  10.545   9.794  0.3443  3.1099 -0.3620
  961MOL0     H32617   2.089  10.629   9.886  1.4816 -0.3690  0.6008
  961MOL0     H32618   2.127  10.568   9.720 -0.8815 -1.0088 -0.2703
  962MOL0     O32619   5.732   2.113  11.405  0.7631  0.0994 -0.6207
  962MOL0     C32620   5.636   2.040  11.422 -0.0445  0.0897 -0.0103
  962MOL0     O32621   5.527   2.068  11.497  0.6632 -0.3444  0.0421
  962MOL0     C32622   5.502   2.194  11.534  0.8715 -0.9584 -0.9717
  962MOL0     C32623   5.390   2.268  11.495 -0.6099  0.0555 -0.3657
  962MOL0     C32624   5.357   2.397  11.546 -1.0049 -1.1982 -0.3999
  962MOL0     C32625   5.449   2.456  11.632  0.8845 -0.2460 -0.1294
  962MOL0     O32626   5.449   2.585  11.691  0.3249  0.1427 -0.4870
  962MOL0     C32627   5.505   2.690  11.604 -0.2756 -0.4487  0.2271
  962MOL0     C32628   5.401   2.751  11.511  0.3263  0.4833  0.4418
  962MOL0     C32629   5.457   2.875  11.448 -0.7674  1.6136 -0.4278
  962MOL0     C32630   5.410   2.989  11.535 -0.0210  0.4449 -0.6148
  962MOL0     C32631   5.465   3.122  11.479  0.5516  0.3073 -0.3158
  962MOL0     C32632   5.374   3.228  11.527  0.2271 -0.6202  0.1053
  962MOL0     C32633   5.426   3.364  11.500  0.2784 -0.0678  0.0857
  962MOL0     C32634   5.322   3.475  11.508 -0.0471  0.4408 -0.6467
  962MOL0     N32635   5.273   3.508  11.640 -0.0782 -0.8638 -0.5395
  962MOL0     C32636   5.332   3.587  11.738  0.4028  0.7733  0.7696
  962MOL0     C32637   5.249   3.564  11.843  0.5702 -0.4509  0.0098
  962MOL0     C32638   5.286   3.626  11.979  0.3475  0.1020  0.1499
  962MOL0     C32639   5.156   3.653  12.060 -0.1994  0.3437  0.4173
  962MOL0     C32640   5.182   3.743  12.180  0.4745 -0.2549  0.3056
  962MOL0     C32641   5.074   3.744  12.286 -0.8554 -0.1667 -0.4313
  962MOL0     O32642   5.126   3.800  12.405  0.5221 -0.1446  0.0667
  962MOL0     C32643   5.040   3.804  12.506  1.2016  0.2641  0.0661
  962MOL0     C32644   4.922   3.718  12.520 -0.3095 -0.3474 -0.1023
  962MOL0     C32645   4.837   3.719  12.632  0.0129  0.1102 -0.7311
  962MOL0     C32646   4.721   3.619  12.615 -0.1607  0.3344  0.3810
  962MOL0     C32647   4.861   3.827  12.739  0.7069 -0.7832  0.1880
  962MOL0     C32648   4.765   3.857  12.845 -0.6139 -0.6790 -0.2156
  962MOL0     O32649   4.795   3.960  12.922 -0.5957  0.5460 -0.1968
  962MOL0     C32650   4.698   3.992  13.017  0.1089  0.6853  0.5547
  962MOL0     C32651   4.619   4.110  13.006  0.2221  0.4983  0.4892
  962MOL0     C32652   4.516   4.136  13.093 -0.4082 -0.4359 -0.2842
  962MOL0     C32653   4.501   4.046  13.205  0.2058 -0.5155 -0.9851
  962MOL0     O32654   4.398   4.067  13.295 -0.2973 -0.4966  0.2523
  962MOL0     C32655   4.390   4.026  13.436 -0.9633  0.1883 -0.1405
  962MOL0     C32656   4.271   4.093  13.498  1.0149  0.0311  0.4038
  962MOL0     C32657   4.221   4.015  13.618  0.4253  0.6176 -0.1480
  962MOL0     C32658   4.147   3.878  13.595  0.4222 -0.4135 -0.0890
  962MOL0     C32659   4.099   3.818  13.738 -0.3242 -0.4754  0.1307
  962MOL0     C32660   4.195   3.746  13.823 -1.1223 -0.3484  0.1995
  962MOL0     C32661   4.135   3.703  13.958  0.3071 -0.1847 -0.4123
  962MOL0     C32662   4.230   3.626  14.042 -0.0274  0.0556  0.2757
  962MOL0    Cl32663   4.332   3.749  14.129  0.2734 -0.8127 -0.1180
  962MOL0     C32664   4.593   3.940  13.225  0.7055  0.9162 -0.9491
  962MOL0     C32665   4.682   3.910  13.127 -1.0933  0.7615  0.3316
  962MOL0     O32666   4.666   3.784  12.853  0.2846 -0.7038 -0.8718
  962MOL0     C32667   4.977   3.901  12.721 -1.0305 -0.8460 -0.4074
  962MOL0     C32668   5.068   3.887  12.619 -0.8999  0.7594  0.0156
  962MOL0     N32669   5.150   3.477  11.813 -0.7728 -0.4307  0.4826
  962MOL0     N32670   5.166   3.439  11.687 -0.1519  0.0348 -0.4294
  962MOL0     C32671   5.552   2.382  11.684  0.0834  0.1775 -0.3745
  962MOL0     C32672   5.579   2.252  11.642  0.0465 -0.3292 -0.8647
  962MOL0     C32673   5.646   1.911  11.346  0.4572  0.2765 -0.4939
  962MOL0     C32674   5.566   1.804  11.381  0.2474 -0.1964 -0.4242
  962MOL0     C32675   5.584   1.672  11.343 -0.1303  0.2090  0.6175
  962MOL0     C32676   5.695   1.647  11.262  0.2507  0.2401  0.0551
  962MOL0     O32677   5.745   1.529  11.221  0.9658 -0.6512  0.3437
  962MOL0     C32678   5.694   1.406  11.278  0.1095 -0.9911  0.0508
  962MOL0     C32679   5.756   1.289  11.216 -0.1881 -0.1460  0.2184
  962MOL0     C32680   5.895   1.262  11.285 -0.0747  1.5682  0.5097
  962MOL0     C32681   5.966   1.124  11.250  1.0487 -0.5862 -0.0016
  962MOL0     C32682   6.102   1.129  11.296 -0.6092 -0.0425  0.7376
  962MOL0     C32683   6.217   1.112  11.330 -0.2086 -0.9678 -0.0753
  962MOL0     C32684   5.762   1.754  11.202 -0.3581  0.6741 -0.3867
  962MOL0     C32685   5.741   1.886  11.248  0.5600 -0.6166  0.2909
  962MOL0     C32686   5.823   1.990  11.177  0.4256  0.6303  0.2029
  962MOL0     H32687   5.326   2.225  11.419 -0.3999 -1.9543  0.5374
  962MOL0     H32688   5.272   2.457  11.514  0.7940  2.0471  0.4496
  962MOL0     H32689   5.581   2.646  11.539  1.7184  3.8395 -0.7046
  962MOL0     H32690   5.556   2.762  11.669 -0.3615  0.3769 -0.6007
  962MOL0     H32691   5.372   2.672  11.441 -1.8592  0.0747  1.7269
  962MOL0     H32692   5.314   2.771  11.573  0.4776  1.4418  0.3654
  962MOL0     H32693   5.566   2.884  11.452 -0.4075 -1.8641  1.1023
  962MOL0     H32694   5.429   2.893  11.344  1.8592  4.2724 -0.8112
  962MOL0     H32695   5.301   2.984  11.528  0.1187 -2.3527 -3.2081
  962MOL0     H32696   5.440   2.980  11.640  1.1404 -2.3797 -1.0844
  962MOL0     H32697   5.449   3.115  11.371 -5.4080  0.9754  0.2040
  962MOL0     H32698   5.571   3.137  11.503  0.3567  0.0718  0.7603
  962MOL0     H32699   5.275   3.201  11.491 -1.1074  0.7086  2.4989
  962MOL0     H32700   5.369   3.225  11.637 -1.6882  1.3412  0.1444
  962MOL0     H32701   5.469   3.363  11.399 -2.7523  0.2394 -1.3421
  962MOL0     H32702   5.501   3.390  11.575 -0.7847 -0.7797  1.4339
  962MOL0     H32703   5.365   3.564  11.462  0.2723  1.1998  1.0634
  962MOL0     H32704   5.235   3.429  11.460 -3.0569  2.1266  2.7515
  962MOL0     H32705   5.426   3.642  11.735  0.5893  0.8646  4.5619
  962MOL0     H32706   5.340   3.720  11.962  3.1455 -1.5026 -0.4286
  962MOL0     H32707   5.357   3.567  12.036 -0.3895 -2.4112 -1.3550
  962MOL0     H32708   5.086   3.694  11.986  0.0993 -2.3709 -1.5272
  962MOL0     H32709   5.127   3.553  12.093  1.7791 -0.4535 -0.1309
  962MOL0     H32710   5.276   3.714  12.229 -0.6111  1.1002  3.4145
  962MOL0     H32711   5.205   3.843  12.142 -0.2084 -0.0081  0.5268
  962MOL0     H32712   4.994   3.805  12.244 -0.7349 -0.9370 -1.8481
  962MOL0     H32713   5.047   3.641  12.308 -0.0969  0.1778  2.5344
  962MOL0     H32714   4.905   3.646  12.440  0.3513 -1.9454  1.1444
  962MOL0     H32715   4.707   3.570  12.713  1.8964 -1.1705  0.0010
  962MOL0     H32716   4.734   3.532  12.550 -0.1878 -0.2787  1.1818
  962MOL0     H32717   4.626   3.661  12.582  1.1008  0.7217 -3.1643
  962MOL0     H32718   4.652   4.168  12.920  0.9652 -0.4871  0.0911
  962MOL0     H32719   4.463   4.230  13.076  0.6263  0.0200 -1.0582
  962MOL0     H32720   4.372   3.919  13.449 -0.6347 -0.1029 -1.8945
  962MOL0     H32721   4.476   4.058  13.496 -0.5789 -0.7635 -0.1673
  962MOL0     H32722   4.292   4.196  13.527 -1.2424  0.9609 -0.9794
  962MOL0     H32723   4.194   4.098  13.420 -0.1495 -3.5604  1.1112
  962MOL0     H32724   4.161   4.084  13.678  3.6361  1.9307  1.8221
  962MOL0     H32725   4.307   3.991  13.681 -0.1111  2.0927  1.1914
  962MOL0     H32726   4.227   3.814  13.557  0.7522  0.2420 -0.5002
  962MOL0     H32727   4.061   3.880  13.528  0.1435  4.9043  0.0521
  962MOL0     H32728   4.058   3.910  13.781 -0.8973  1.6156 -4.2422
  962MOL0     H32729   4.013   3.751  13.729 -0.2403 -0.6451  0.5836
  962MOL0     H32730   4.279   3.813  13.842 -1.8571  0.3154  1.2190
  962MOL0     H32731   4.236   3.665  13.764 -1.6816 -0.4832 -0.0131
  962MOL0     H32732   4.047   3.640  13.941  0.3056 -1.5108  3.3626
  962MOL0     H32733   4.088   3.789  14.006 -0.7766 -0.4686 -0.9334
  962MOL0     H32734   4.288   3.568  13.969 -2.2952 -1.1520 -0.6572
  962MOL0     H32735   4.172   3.558  14.105 -2.7693  0.8810 -1.2004
  962MOL0     H32736   4.590   3.885  13.319 -0.2551  1.3148 -0.7383
  962MOL0     H32737   4.738   3.818  13.133  2.0507  2.5296  0.0814
  962MOL0     H32738   4.980   3.986  12.788  0.3875 -1.5935  0.5105
  962MOL0     H32739   5.154   3.950  12.601  0.4519 -0.4458  1.8689
  962MOL0     H32740   5.592   2.424  11.776  0.4769 -0.9196 -0.0329
  962MOL0     H32741   5.669   2.200  11.674  0.5357  0.6747 -0.5842
  962MOL0     H32742   5.498   1.830  11.462  0.3443 -0.5206 -0.2380
  962MOL0     H32743   5.523   1.594  11.387 -0.0879 -0.5461 -0.6101
  962MOL0     H32744   5.704   1.399  11.387 -3.0746  1.1534  0.6208
  962MOL0     H32745   5.588   1.408  11.253  0.6500 -0.2279 -2.5355
  962MOL0     H32746   5.767   1.308  11.108  1.0780 -0.1538  0.3247
  962MOL0     H32747   5.687   1.204  11.222 -2.4892  1.5621 -0.4618
  962MOL0     H32748   5.962   1.347  11.271  2.3842 -0.2450  0.5539
  962MOL0     H32749   5.879   1.261  11.394  1.1385  0.3149  0.6975
  962MOL0     H32750   5.951   1.080  11.151  0.2559 -2.3143  0.8418
  962MOL0     H32751   5.917   1.048  11.311  1.0076  0.0967  0.8318
  962MOL0     H32752   6.313   1.098  11.375 -0.3321  0.7251  0.7860
  962MOL0     H32753   5.834   1.734  11.123  0.1299 -2.8264  0.7509
  962MOL0     H32754   5.759   2.043  11.105 -0.2018 -0.2139  0.1184
  962MOL0     H32755   5.881   2.057  11.241  1.9874 -1.8678  1.5385
  962MOL0     H32756   5.903   1.937  11.125  0.5026  2.1318 -1.3038
  963MOL0     O32757   2.323   9.753   0.955 -0.3673  0.1913 -0.2285
  963MOL0     C32758   2.244   9.671   0.911 -0.1444 -0.0218 -0.1014
  963MOL0     O32759   2.180   9.673   0.786 -0.1480  0.0644  0.1000
  963MOL0     C32760   2.175   9.779   0.698  0.6161 -0.7380  0.0844
  963MOL0     C32761   2.244   9.903   0.717  0.4777 -0.4987 -0.2573
  963MOL0     C32762   2.241  10.002   0.615  0.2083 -0.4202 -0.4898
  963MOL0     C32763   2.151   9.981   0.508  0.3825 -0.3095  0.7760
  963MOL0     O32764   2.144  10.095   0.427  0.8284 -0.2083  0.3439
  963MOL0     C32765   2.062  10.088   0.315  0.2885 -0.2665  0.1131
  963MOL0     C32766   2.034  10.220   0.244 -0.3862 -0.6041 -0.6180
  963MOL0     C32767   1.981  10.325   0.349  0.0622  0.0476 -0.4806
  963MOL0     C32768   1.961  10.466   0.289 -0.4469 -0.4539  0.0522
  963MOL0     C32769   1.928  10.584   0.401 -0.6718  0.7136 -0.1730
  963MOL0     C32770   1.783  10.561   0.443  0.6732 -0.1127 -0.0576
  963MOL0     C32771   1.728  10.694   0.497  0.5304  0.5911 -0.6116
  963MOL0     C32772   1.584  10.670   0.548 -0.0095 -0.0155 -0.5033
  963MOL0     N32773   1.582  10.598   0.675 -0.6161  0.4032  0.1391
  963MOL0     C32774   1.497  10.495   0.707 -0.2837  0.5569 -0.7945
  963MOL0     C32775   1.502  10.488   0.842  1.0683  0.5348 -0.8063
  963MOL0     C32776   1.399  10.404   0.925 -0.2722 -0.4580 -1.2318
  963MOL0     C32777   1.372  10.262   0.883 -1.0927  0.7251  0.1042
  963MOL0     C32778   1.459  10.144   0.924 -0.8542  0.0116 -0.5741
  963MOL0     C32779   1.420  10.013   0.852 -0.0821 -0.3571 -0.2877
  963MOL0     O32780   1.294   9.974   0.915 -0.4011  0.0914  0.4327
  963MOL0     C32781   1.249   9.854   0.864  0.1825 -0.2982  0.2277
  963MOL0     C32782   1.108   9.831   0.871  0.5805 -0.3402 -0.0295
  963MOL0     C32783   1.054   9.713   0.826 -0.8772 -0.1334  0.5139
  963MOL0     C32784   0.903   9.717   0.805 -0.7476  0.6699  0.0847
  963MOL0     C32785   1.138   9.605   0.776  0.1590  0.4027 -0.2376
  963MOL0     C32786   1.079   9.481   0.722  1.6632  0.6420  0.4568
  963MOL0     O32787   1.145   9.364   0.754  0.5160 -0.6548  0.2251
  963MOL0     C32788   1.074   9.257   0.757 -0.2785  1.2223 -0.3393
  963MOL0     C32789   1.129   9.151   0.684  0.7427  0.2171  0.3959
  963MOL0     C32790   1.047   9.036   0.660 -0.9595  0.6953 -0.6513
  963MOL0     C32791   0.918   9.015   0.712 -0.2253  0.4031 -0.9062
  963MOL0     O32792   0.862   8.889   0.701  0.5554 -1.0543 -0.1307
  963MOL0     C32793   0.728   8.878   0.754 -0.4696 -0.0406  0.7717
  963MOL0     C32794   0.658   8.804   0.645 -0.0849  0.4628 -0.0778
  963MOL0     C32795   0.714   8.671   0.600 -0.2940  0.8913 -0.9297
  963MOL0     C32796   0.786   8.589   0.719 -0.2464 -0.6736  0.0184
  963MOL0     C32797   0.818   8.437   0.692 -0.6040 -1.2331 -0.0896
  963MOL0     C32798   0.691   8.349   0.658 -0.2157  0.1688 -0.3881
  963MOL0     C32799   0.714   8.202   0.659  0.2758  0.0549  0.6707
  963MOL0     C32800   0.795   8.161   0.535  1.1682  0.8122 -0.2109
  963MOL0    Cl32801   0.788   7.983   0.517 -0.6048  0.0861 -0.5759
  963MOL0     C32802   0.876   9.120   0.794  0.3527 -0.6283  0.9972
  963MOL0     C32803   0.944   9.242   0.816  0.0301  0.5486 -0.2692
  963MOL0     O32804   0.974   9.478   0.644 -0.6058  0.2988 -0.2929
  963MOL0     C32805   1.279   9.630   0.791  0.0163 -0.3400  0.3030
  963MOL0     C32806   1.333   9.753   0.829  0.2526 -0.7893 -0.5135
  963MOL0     N32807   1.602  10.576   0.884  0.6106 -0.0739  0.0787
  963MOL0     N32808   1.650  10.641   0.784  0.4433 -0.0954 -0.0139
  963MOL0     C32809   2.076   9.868   0.488 -0.4167  0.4335  0.0346
  963MOL0     C32810   2.098   9.762   0.583 -0.7237  0.4402  0.5013
  963MOL0     C32811   2.189   9.584   1.014  0.0505 -0.4038 -0.1926
  963MOL0     C32812   2.147   9.454   0.969 -0.6485 -0.7852  0.4359
  963MOL0     C32813   2.096   9.364   1.059 -0.0945 -0.1425 -0.2330
  963MOL0     C32814   2.075   9.387   1.199  0.1278  0.4521  0.5618
  963MOL0     O32815   2.019   9.284   1.279  0.0607  0.6643 -0.3594
  963MOL0     C32816   1.967   9.320   1.401  0.1940 -0.1161 -0.1250
  963MOL0     C32817   1.890   9.194   1.448 -0.2566 -0.0122 -0.1787
  963MOL0     C32818   1.752   9.180   1.387  0.0927 -0.3081 -0.0767
  963MOL0     C32819   1.681   9.049   1.436  0.2348  0.1154 -0.6366
  963MOL0     C32820   1.563   9.026   1.344  0.3412 -0.6366 -0.7793
  963MOL0     C32821   1.465   9.000   1.281 -0.3909  0.3822 -0.8992
  963MOL0     C32822   2.125   9.508   1.241  0.2433  0.0331  0.8802
  963MOL0     C32823   2.175   9.602   1.158 -0.0450 -0.7027  0.6316
  963MOL0     C32824   2.224   9.719   1.231  0.0566 -0.3063  0.1372
  963MOL0     H32825   2.302   9.908   0.809  1.4540 -5.5924 -0.3147
  963MOL0     H32826   2.303  10.091   0.625  0.2474 -0.7212  3.8118
  963MOL0     H32827   1.964  10.061   0.353 -0.3388  2.4505  0.6555
  963MOL0     H32828   2.113  10.017   0.249 -1.2179  0.0542 -1.4605
  963MOL0     H32829   2.132  10.253   0.209 -0.7227  0.3338 -0.7132
  963MOL0     H32830   1.971  10.203   0.156  4.3393 -2.3495 -4.0567
  963MOL0     H32831   1.887  10.285   0.388  0.4821 -0.5081 -0.0329
  963MOL0     H32832   2.051  10.325   0.433  0.9634 -4.7753 -0.9588
  963MOL0     H32833   2.054  10.504   0.245 -1.0410 -0.6569 -1.4366
  963MOL0     H32834   1.893  10.467   0.203  0.3461  2.1980 -0.6454
  963MOL0     H32835   1.947  10.675   0.343  1.1385 -1.1074 -2.6481
  963MOL0     H32836   2.001  10.570   0.482  0.6692 -2.0913 -1.7453
  963MOL0     H32837   1.727  10.530   0.354  0.2028 -2.2819  0.9106
  963MOL0     H32838   1.771  10.480   0.516 -2.7092 -1.1425 -1.5545
  963MOL0     H32839   1.746  10.774   0.424  1.5765 -1.7169 -3.0593
  963MOL0     H32840   1.790  10.720   0.583  1.9582 -2.8228 -0.4548
  963MOL0     H32841   1.521  10.758   0.563  0.9005  0.4776  0.5093
  963MOL0     H32842   1.528  10.623   0.466 -0.5875 -0.1324 -0.0450
  963MOL0     H32843   1.429  10.449   0.636 -1.6185  2.2569 -0.6864
  963MOL0     H32844   1.310  10.464   0.942  1.4116  1.0740  4.7160
  963MOL0     H32845   1.436  10.384   1.026 -2.2474 -0.5842 -0.4829
  963MOL0     H32846   1.271  10.246   0.921 -1.0693  1.0597  0.3112
  963MOL0     H32847   1.374  10.271   0.774  2.4240 -1.0591 -0.1418
  963MOL0     H32848   1.565  10.159   0.901 -1.0485  1.6659 -0.5052
  963MOL0     H32849   1.439  10.128   1.030 -1.6519  4.3972  0.1513
  963MOL0     H32850   1.426  10.026   0.744  2.7370  2.1088  0.0144
  963MOL0     H32851   1.502   9.946   0.879  1.0328  0.8592 -0.5062
  963MOL0     H32852   1.037   9.909   0.897 -1.0196 -1.5086 -0.7508
  963MOL0     H32853   0.852   9.766   0.889 -0.6549 -0.0151  0.5549
  963MOL0     H32854   0.859   9.617   0.804  0.3378  0.1834 -0.4572
  963MOL0     H32855   0.885   9.768   0.710 -0.1646  2.3788  0.8594
  963MOL0     H32856   1.223   9.169   0.632  0.0484  0.2782 -0.8950
  963MOL0     H32857   1.099   8.955   0.610 -0.3901  0.2536  0.5876
  963MOL0     H32858   0.735   8.818   0.846  0.0838  0.2428  0.9173
  963MOL0     H32859   0.677   8.973   0.772  0.9001  1.1912 -1.4073
  963MOL0     H32860   0.550   8.800   0.664 -0.6359 -0.6030 -2.9366
  963MOL0     H32861   0.653   8.879   0.566  1.2605  1.3533  0.6659
  963MOL0     H32862   0.766   8.661   0.504  1.8736 -0.2734  0.2784
  963MOL0     H32863   0.619   8.620   0.578 -2.1798  1.4997  4.3632
  963MOL0     H32864   0.721   8.605   0.806 -2.7348 -0.3610 -1.7824
  963MOL0     H32865   0.885   8.635   0.729  1.5038 -3.4047 -3.0037
  963MOL0     H32866   0.886   8.418   0.608  1.3975 -1.2021  1.4368
  963MOL0     H32867   0.865   8.395   0.782 -0.8582 -2.1848 -0.3889
  963MOL0     H32868   0.645   8.384   0.565  2.2864  0.6021 -1.5605
  963MOL0     H32869   0.618   8.366   0.737  0.1334  2.4141 -0.4874
  963MOL0     H32870   0.618   8.151   0.646  0.1972  0.4000 -0.1826
  963MOL0     H32871   0.760   8.176   0.754  1.5668 -2.3004 -0.5153
  963MOL0     H32872   0.897   8.200   0.540  0.0312  4.1120 -0.0625
  963MOL0     H32873   0.754   8.209   0.445 -3.6939  1.1470  1.8599
  963MOL0     H32874   0.793   9.093   0.857  1.9317 -1.9779  2.6042
  963MOL0     H32875   0.922   9.325   0.883 -3.7069  0.8576 -1.6494
  963MOL0     H32876   1.340   9.545   0.761 -1.2695 -1.7479  1.4749
  963MOL0     H32877   1.440   9.752   0.843  0.2684  1.8003  0.0931
  963MOL0     H32878   1.997   9.852   0.416 -2.5041 -1.9930  2.6244
  963MOL0     H32879   2.043   9.670   0.570 -0.4726  0.5224 -1.6745
  963MOL0     H32880   2.167   9.434   0.864  1.8535  3.4874 -0.1355
  963MOL0     H32881   2.046   9.272   1.030 -1.6801 -0.1784  2.2873
  963MOL0     H32882   2.042   9.357   1.472  1.5166  1.0539 -2.0479
  963MOL0     H32883   1.900   9.404   1.379  1.1209  0.4293 -0.9263
  963MOL0     H32884   1.873   9.205   1.556  1.3769 -1.6284  0.2987
  963MOL0     H32885   1.954   9.107   1.431  1.2068  1.0551 -0.2914
  963MOL0     H32886   1.696   9.270   1.415  0.1172  0.5139 -2.4784
  963MOL0     H32887   1.762   9.171   1.279 -1.1563 -0.4382 -0.1919
  963MOL0     H32888   1.639   9.053   1.536 -2.8539 -1.4385 -1.7251
  963MOL0     H32889   1.754   8.969   1.425  1.1273  1.0463 -1.7639
  963MOL0     H32890   1.375   8.995   1.225 -1.8446 -1.5122  1.3962
  963MOL0     H32891   2.109   9.527   1.346  0.4986 -0.5829  1.0349
  963MOL0     H32892   2.168   9.730   1.325 -1.4701  0.2347 -0.8030
  963MOL0     H32893   2.332   9.717   1.249  0.4062  1.2445 -1.5592
  963MOL0     H32894   2.203   9.812   1.178 -0.6624  0.8724  2.3560
  964MOL0     O32895   8.627  10.990   0.334 -0.2886  0.5245  0.5502
  964MOL0     C32896   8.536  11.067   0.369  0.6119 -0.6189  0.1762
  964MOL0     O32897   8.396  11.032   0.367 -0.2591  0.1612  0.0093
  964MOL0     C32898   8.334  10.909   0.345 -0.2542 -0.7375 -0.7204
  964MOL0     C32899   8.197  10.908   0.328 -0.4833  0.1543 -0.8136
  964MOL0     C32900   8.125  10.812   0.256  0.0165  0.0536 -0.3954
  964MOL0     C32901   8.192  10.693   0.225  0.8451 -0.2400 -0.2733
  964MOL0     O32902   8.129  10.590   0.153  0.2228 -0.4431  0.2467
  964MOL0     C32903   8.024  10.615   0.055  0.4854 -0.0954 -0.6966
  964MOL0     C32904   8.069  10.622  -0.092  0.0615 -0.2478 -0.2682
  964MOL0     C32905   8.153  10.747  -0.114 -0.8213 -0.1044 -0.2166
  964MOL0     C32906   8.228  10.744  -0.252  0.5336  0.3266 -0.1484
  964MOL0     C32907   8.135  10.785  -0.367 -0.0461  0.1324 -0.1081
  964MOL0     C32908   8.196  10.747  -0.503  0.3647  0.8648 -0.4255
  964MOL0     C32909   8.100  10.790  -0.618  0.6407  0.2734  0.2488
  964MOL0     C32910   7.995  10.674  -0.630  0.9716  0.3593 -0.3180
  964MOL0     N32911   7.886  10.711  -0.718 -0.0067 -0.2278  0.7126
  964MOL0     C32912   7.818  10.827  -0.736  0.5457 -1.0788 -0.5674
  964MOL0     C32913   7.726  10.820  -0.838 -1.1447 -0.2049  0.5809
  964MOL0     C32914   7.626  10.920  -0.886  0.4731  0.3428  0.6523
  964MOL0     C32915   7.484  10.873  -0.880  0.0908  0.5716  0.0394
  964MOL0     C32916   7.384  10.975  -0.941  0.1622 -0.5218 -0.8515
  964MOL0     C32917   7.232  10.942  -0.936  0.1450  0.8526  0.4251
  964MOL0     O32918   7.216  10.900  -0.804 -0.0598  0.9227  0.2988
  964MOL0     C32919   7.095  10.919  -0.739 -0.2080 -0.4817  0.1847
  964MOL0     C32920   7.074  10.879  -0.606 -0.6245  0.8605 -0.6732
  964MOL0     C32921   6.951  10.885  -0.533  0.1739 -0.0530 -0.3766
  964MOL0     C32922   6.948  10.842  -0.392 -0.5479 -0.3542  0.2586
  964MOL0     C32923   6.834  10.916  -0.602  0.2384 -0.9055 -0.4183
  964MOL0     C32924   6.700  10.914  -0.541 -0.4824 -0.3096  0.0233
  964MOL0     O32925   6.669  10.991  -0.436  0.2156 -0.1198 -0.0245
  964MOL0     C32926   6.569  11.082  -0.466 -0.4655  0.1051  0.2312
  964MOL0     C32927   6.590  11.185  -0.558 -0.2248  0.9948 -0.0746
  964MOL0     C32928   6.490  11.289  -0.557  0.1077  0.7269  0.1656
  964MOL0     C32929   6.380  11.287  -0.474  0.6991  0.2396  0.7107
  964MOL0     O32930   6.307  11.400  -0.490  0.6559 -0.6931  0.9236
  964MOL0     C32931   6.210  11.442  -0.395 -0.3126  0.5320  0.2176
  964MOL0     C32932   6.071  11.405  -0.424 -0.2716 -0.2781 -0.5224
  964MOL0     C32933   5.983  11.505  -0.348 -0.5791  0.6896 -0.2795
  964MOL0     C32934   5.919  11.618  -0.428  0.4741  1.0360  0.1245
  964MOL0     C32935   5.790  11.677  -0.368 -0.2583  1.0514 -0.7418
  964MOL0     C32936   5.736  11.795  -0.457  0.4406  0.7314  0.3595
  964MOL0     C32937   5.589  11.824  -0.439  0.0483  0.6305  1.0647
  964MOL0     C32938   5.548  11.958  -0.514 -0.8409  0.7255 -0.0330
  964MOL0    Cl32939   5.582  11.933  -0.694 -0.3150  0.5146 -0.4177
  964MOL0     C32940   6.359  11.180  -0.379  0.0604 -0.1141  0.0945
  964MOL0     C32941   6.467  11.091  -0.376 -0.6474  0.7277  0.6518
  964MOL0     O32942   6.620  10.841  -0.602  0.5828 -0.3647  0.3627
  964MOL0     C32943   6.852  10.956  -0.736  0.5020 -0.1592 -0.1056
  964MOL0     C32944   6.977  10.951  -0.803 -0.2787  0.4508 -0.3997
  964MOL0     N32945   7.751  10.692  -0.888  0.9614  0.0137 -0.5896
  964MOL0     N32946   7.841  10.631  -0.818 -0.8522  0.3391  0.6247
  964MOL0     C32947   8.326  10.683   0.257  0.7824  0.7803 -0.5063
  964MOL0     C32948   8.395  10.786   0.316  0.5086 -0.0998  0.1710
  964MOL0     C32949   8.565  11.209   0.411  0.0882 -0.1014 -0.3378
  964MOL0     C32950   8.486  11.255   0.522  0.2938  0.2519 -0.6629
  964MOL0     C32951   8.512  11.377   0.575 -0.0194  0.3297 -0.6649
  964MOL0     C32952   8.610  11.466   0.530 -0.9522 -0.2261  0.8860
  964MOL0     O32953   8.646  11.589   0.573 -0.4022  0.0051 -0.1143
  964MOL0     C32954   8.589  11.631   0.687  0.3257  0.4510 -0.3355
  964MOL0     C32955   8.457  11.694   0.654 -0.7946 -0.2888  0.0791
  964MOL0     C32956   8.372  11.737   0.776 -1.3125 -0.6511  0.0179
  964MOL0     C32957   8.446  11.832   0.872  0.5563 -0.7578 -0.0284
  964MOL0     C32958   8.344  11.876   0.980 -1.2013 -1.1990  0.4381
  964MOL0     C32959   8.260  11.913   1.055  0.6167  0.9702 -0.6323
  964MOL0     C32960   8.689  11.423   0.414  0.2393  0.4498  0.8702
  964MOL0     C32961   8.664  11.299   0.353 -0.2295 -0.0859  0.0822
  964MOL0     C32962   8.777  11.258   0.258  0.1854  0.7468 -0.5601
  964MOL0     H32963   8.145  10.994   0.370 -1.3587 -0.2211 -1.1031
  964MOL0     H32964   8.018  10.823   0.241 -0.8363 -1.9998  3.0035
  964MOL0     H32965   7.981  10.710   0.087  0.3468 -0.2166 -0.5214
  964MOL0     H32966   7.949  10.537   0.070 -0.2901  0.6038 -0.8740
  964MOL0     H32967   8.129  10.532  -0.109  1.1435 -0.5970  4.2420
  964MOL0     H32968   7.989  10.621  -0.167  0.2485  3.3714 -0.6631
  964MOL0     H32969   8.088  10.834  -0.099  0.3618  0.8887 -0.6640
  964MOL0     H32970   8.237  10.741  -0.044  1.0565  2.4826 -2.0167
  964MOL0     H32971   8.314  10.812  -0.252 -0.2353  1.3414 -0.9998
  964MOL0     H32972   8.264  10.641  -0.260  0.1992 -0.3432  4.5062
  964MOL0     H32973   8.124  10.893  -0.358  1.4289  0.7108 -3.5692
  964MOL0     H32974   8.035  10.752  -0.339 -0.1488  0.4756 -0.0658
  964MOL0     H32975   8.293  10.798  -0.514  1.3069  0.3109  3.6705
  964MOL0     H32976   8.225  10.642  -0.500 -0.8839  0.2750 -4.4010
  964MOL0     H32977   8.168  10.792  -0.704  1.4987  1.0403  0.9201
  964MOL0     H32978   8.055  10.890  -0.608 -1.2809 -0.4271 -0.8641
  964MOL0     H32979   8.047  10.586  -0.670 -1.6476 -0.1433 -2.9385
  964MOL0     H32980   7.958  10.647  -0.531  1.5999  0.8484  0.0639
  964MOL0     H32981   7.816  10.904  -0.659 -1.2732 -0.6946 -0.9477
  964MOL0     H32982   7.638  10.964  -0.985 -3.8994  2.4559  0.8361
  964MOL0     H32983   7.629  11.001  -0.812  2.6886 -1.9975  3.3670
  964MOL0     H32984   7.471  10.772  -0.918 -0.2900  0.7060 -0.1858
  964MOL0     H32985   7.470  10.876  -0.772  3.4666 -0.7798  0.6489
  964MOL0     H32986   7.384  11.070  -0.887 -3.0449 -1.8910  1.8397
  964MOL0     H32987   7.417  10.993  -1.044 -1.6163  0.9651 -1.2227
  964MOL0     H32988   7.174  11.030  -0.964 -1.3563  0.3418  1.7205
  964MOL0     H32989   7.207  10.877  -1.021 -0.1551  0.2385  0.9703
  964MOL0     H32990   7.155  10.839  -0.546 -1.6169  1.9981  1.5290
  964MOL0     H32991   6.957  10.928  -0.325 -0.1281 -0.4250  0.2949
  964MOL0     H32992   7.035  10.777  -0.378  0.3177  0.6205 -0.3933
  964MOL0     H32993   6.855  10.788  -0.371 -0.4872 -0.8285 -0.6481
  964MOL0     H32994   6.675  11.186  -0.626  1.9699  0.7427  2.5065
  964MOL0     H32995   6.514  11.377  -0.618  1.3020  1.1972  1.2791
  964MOL0     H32996   6.249  11.414  -0.296  2.6187  2.7096 -0.1994
  964MOL0     H32997   6.218  11.551  -0.398  1.2464  0.5192  1.8938
  964MOL0     H32998   6.054  11.424  -0.530 -0.6970  1.3029 -0.1856
  964MOL0     H32999   6.045  11.301  -0.402 -1.6095  0.2990  0.7446
  964MOL0     H33000   6.039  11.555  -0.268 -1.6560  1.8369 -0.2081
  964MOL0     H33001   5.894  11.456  -0.309  0.7993 -0.9898  0.9004
  964MOL0     H33002   5.883  11.579  -0.524 -2.5722 -3.8092  2.8029
  964MOL0     H33003   6.008  11.682  -0.435  3.4345 -2.7568 -0.3950
  964MOL0     H33004   5.722  11.591  -0.358  4.7671 -3.2463  1.2794
  964MOL0     H33005   5.809  11.729  -0.274 -1.5304  1.0077 -0.4344
  964MOL0     H33006   5.744  11.743  -0.553  1.7347 -2.0000  1.8211
  964MOL0     H33007   5.790  11.889  -0.445 -2.0663  2.2758  0.1249
  964MOL0     H33008   5.571  11.842  -0.332  1.3555  1.1118  1.2283
  964MOL0     H33009   5.534  11.735  -0.472 -2.0650  1.9966  0.7486
  964MOL0     H33010   5.604  12.045  -0.478  0.2336 -0.2398  0.7369
  964MOL0     H33011   5.440  11.963  -0.498 -1.0692 -1.1714 -0.7222
  964MOL0     H33012   6.279  11.174  -0.306  1.3324 -1.5226  1.4665
  964MOL0     H33013   6.458  11.009  -0.305  0.3719 -0.8721 -0.9825
  964MOL0     H33014   6.769  10.969  -0.804 -0.3050 -2.0557  0.4368
  964MOL0     H33015   6.991  10.953  -0.911  1.8718  0.7932 -0.1771
  964MOL0     H33016   8.376  10.591   0.232 -0.0801 -0.8781  3.1716
  964MOL0     H33017   8.501  10.769   0.335  0.1611 -0.5082  1.9145
  964MOL0     H33018   8.423  11.180   0.568 -0.3941  0.6618 -0.9080
  964MOL0     H33019   8.446  11.410   0.655  0.3862  0.4527 -0.3789
  964MOL0     H33020   8.568  11.547   0.754 -0.3920  0.2293 -0.8266
  964MOL0     H33021   8.658  11.705   0.728 -1.9605  3.1299 -1.0476
  964MOL0     H33022   8.389  11.623   0.604 -1.1817  0.8334 -1.0562
  964MOL0     H33023   8.473  11.779   0.587 -2.1443  0.5965  0.8157
  964MOL0     H33024   8.292  11.795   0.731  1.4771  3.0237 -0.6323
  964MOL0     H33025   8.336  11.649   0.832 -1.2107 -0.8264 -0.1906
  964MOL0     H33026   8.488  11.911   0.808  1.3863 -0.4750  0.8361
  964MOL0     H33027   8.536  11.784   0.912  1.7834 -0.0302 -1.7666
  964MOL0     H33028   8.175  11.941   1.114  1.0193 -0.6553  0.7885
  964MOL0     H33029   8.761  11.497   0.382 -0.6851  1.3757  0.9000
  964MOL0     H33030   8.750  11.197   0.172 -0.7965  2.4496 -1.5192
  964MOL0     H33031   8.826  11.342   0.209  1.1644 -0.4071 -1.6290
  964MOL0     H33032   8.851  11.204   0.318 -1.0397 -1.6862 -1.1064
  965MOL0     O33033   7.005   1.814   7.475 -0.2986 -0.6015  0.4636
  965MOL0     C33034   7.121   1.786   7.506  0.8721 -0.0414  1.4950
  965MOL0     O33035   7.218   1.877   7.542  0.5532  0.8559  0.4245
  965MOL0     C33036   7.195   1.999   7.494  0.5854 -0.4411  0.2489
  965MOL0     C33037   7.216   2.116   7.569  0.2655 -0.6422 -0.2479
  965MOL0     C33038   7.181   2.246   7.527 -0.1852 -0.1247 -0.2669
  965MOL0     C33039   7.130   2.270   7.405 -0.5619 -0.1359  0.8112
  965MOL0     O33040   7.108   2.391   7.353  0.4395  0.4024 -0.4701
  965MOL0     C33041   7.039   2.487   7.433 -0.2760  0.2660  0.3231
  965MOL0     C33042   6.895   2.440   7.459 -0.1484 -0.2437  0.3481
  965MOL0     C33043   6.821   2.412   7.322 -0.1608  0.2004  0.2470
  965MOL0     C33044   6.787   2.544   7.254  0.0190 -0.0854  0.1342
  965MOL0     C33045   6.651   2.534   7.176  0.0407  0.0324 -0.9832
  965MOL0     C33046   6.652   2.459   7.042  0.0530  0.0413  0.2090
  965MOL0     C33047   6.508   2.420   6.999 -1.3283  0.4163 -0.3415
  965MOL0     C33048   6.435   2.550   6.951 -0.0294  0.9661 -0.9515
  965MOL0     N33049   6.310   2.491   6.907  0.8739  0.5942  0.0940
  965MOL0     C33050   6.207   2.453   6.992 -0.3014  0.6087 -0.2367
  965MOL0     C33051   6.109   2.409   6.911  0.1159 -0.4519 -0.7296
  965MOL0     C33052   5.958   2.405   6.946 -0.0374  1.3516 -0.0839
  965MOL0     C33053   5.921   2.539   7.004  0.3647  0.3327 -0.4885
  965MOL0     C33054   5.771   2.545   7.029 -0.3207 -0.1649 -0.1168
  965MOL0     C33055   5.719   2.435   7.115  0.2536  1.0384 -1.0130
  965MOL0     O33056   5.579   2.455   7.115 -0.3016  0.0729 -0.1021
  965MOL0     C33057   5.496   2.398   7.214 -0.0463  1.1259  0.3255
  965MOL0     C33058   5.370   2.445   7.233  0.2915  0.6307 -0.9740
  965MOL0     C33059   5.277   2.378   7.329 -0.2991  1.0967 -0.4814
  965MOL0     C33060   5.139   2.431   7.336 -0.8216  0.6092 -0.5689
  965MOL0     C33061   5.327   2.265   7.393 -0.6006  0.5883  0.7397
  965MOL0     C33062   5.241   2.178   7.484 -0.3567 -0.1646  0.4354
  965MOL0     O33063   5.306   2.136   7.596 -0.4726 -0.3929  0.3566
  965MOL0     C33064   5.225   2.081   7.693 -0.3575  0.6628  0.6711
  965MOL0     C33065   5.129   2.152   7.755  1.0761  0.3208 -1.4494
  965MOL0     C33066   5.052   2.092   7.861  0.1785 -0.0442  0.8740
  965MOL0     C33067   5.058   1.951   7.892  0.1498 -0.3150  0.0313
  965MOL0     O33068   4.979   1.895   7.996 -0.3190  0.6580  0.1973
  965MOL0     C33069   4.838   1.883   7.967  0.2972  0.1602  0.2817
  965MOL0     C33070   4.760   1.902   8.097  0.1606 -0.2548  0.7196
  965MOL0     C33071   4.615   1.854   8.065 -0.6393 -0.0470  0.2897
  965MOL0     C33072   4.543   1.817   8.196  0.3136  0.9292  0.0456
  965MOL0     C33073   4.404   1.757   8.174 -1.3056 -0.3902  1.1609
  965MOL0     C33074   4.341   1.695   8.299  0.8966 -0.1681  0.1463
  965MOL0     C33075   4.197   1.649   8.280  0.2426 -0.6411  0.7100
  965MOL0     C33076   4.142   1.567   8.401  0.9899 -0.6069  0.9785
  965MOL0    Cl33077   3.997   1.484   8.352 -0.0684 -0.0641 -0.2272
  965MOL0     C33078   5.168   1.884   7.834  0.0367 -0.2867 -0.0929
  965MOL0     C33079   5.248   1.948   7.733  0.1125 -0.0946  0.3446
  965MOL0     O33080   5.139   2.136   7.434  0.9938 -0.5819 -1.3317
  965MOL0     C33081   5.459   2.221   7.373  0.5890 -0.7689 -0.8390
  965MOL0     C33082   5.539   2.281   7.282 -0.1790 -1.2298  0.3980
  965MOL0     N33083   6.169   2.371   6.794  0.1459 -0.5380  0.0168
  965MOL0     N33084   6.290   2.420   6.791 -0.1199 -0.3261  0.1079
  965MOL0     C33085   7.124   2.162   7.313  0.1006  0.0183  0.2680
  965MOL0     C33086   7.147   2.036   7.361 -0.8866  1.1182  0.4845
  965MOL0     C33087   7.161   1.648   7.491  0.3896  0.0636  0.2049
  965MOL0     C33088   7.283   1.618   7.558  0.8723  0.5671 -1.0544
  965MOL0     C33089   7.346   1.491   7.556  0.0188 -0.0681  0.1591
  965MOL0     C33090   7.271   1.385   7.516  0.3459  1.4617  0.7315
  965MOL0     O33091   7.329   1.264   7.533 -0.6182 -0.2245 -0.7978
  965MOL0     C33092   7.316   1.181   7.420 -0.2851  0.0073  0.2971
  965MOL0     C33093   7.432   1.203   7.319 -0.1516 -0.9342 -0.6700
  965MOL0     C33094   7.500   1.073   7.271  0.0664 -0.3481 -0.6181
  965MOL0     C33095   7.615   1.107   7.169  0.3433 -0.0368  0.0477
  965MOL0     C33096   7.547   1.152   7.043  0.7438  0.2576  0.7909
  965MOL0     C33097   7.500   1.203   6.943  0.0860  0.0986 -0.1950
  965MOL0     C33098   7.135   1.403   7.470 -0.0875 -0.4395 -1.1375
  965MOL0     C33099   7.082   1.535   7.454  0.0448 -1.1774  0.6515
  965MOL0     C33100   6.948   1.550   7.391 -0.2988  0.2894  0.3146
  965MOL0     H33101   7.272   2.100   7.661  0.0508 -2.6281 -0.4271
  965MOL0     H33102   7.195   2.334   7.589  1.1494  0.7476 -1.7212
  965MOL0     H33103   7.040   2.581   7.378  0.1866  0.3508  0.4716
  965MOL0     H33104   7.076   2.498   7.535  3.3340 -0.7910 -0.7059
  965MOL0     H33105   6.892   2.351   7.523 -3.5593  0.8086  1.8569
  965MOL0     H33106   6.846   2.512   7.525 -1.8402 -2.3584  1.5430
  965MOL0     H33107   6.894   2.366   7.255 -2.1005  0.9085 -2.4916
  965MOL0     H33108   6.733   2.347   7.327 -2.0541  2.5371 -0.8343
  965MOL0     H33109   6.766   2.620   7.330 -1.0697 -2.4241  2.2894
  965MOL0     H33110   6.861   2.582   7.182 -0.0924 -0.8159 -0.3710
  965MOL0     H33111   6.609   2.635   7.164 -1.0979 -0.3563 -0.4303
  965MOL0     H33112   6.575   2.490   7.241  1.9050 -1.2127  0.4411
  965MOL0     H33113   6.695   2.508   6.954 -2.1739 -0.0484 -0.9999
  965MOL0     H33114   6.719   2.374   7.055  0.9574  0.8996  1.4396
  965MOL0     H33115   6.446   2.375   7.077  0.0573  0.3017  0.7334
  965MOL0     H33116   6.522   2.345   6.921  1.7736 -1.1719  1.5459
  965MOL0     H33117   6.413   2.611   7.040  0.8457 -2.6055  1.9747
  965MOL0     H33118   6.484   2.605   6.871  1.3274 -1.0034 -1.5351
  965MOL0     H33119   6.198   2.479   7.097 -0.2544  1.7894 -0.5131
  965MOL0     H33120   5.930   2.322   7.011 -3.0436 -1.2037 -4.1780
  965MOL0     H33121   5.911   2.388   6.849  0.0475  1.2519 -0.1078
  965MOL0     H33122   5.970   2.567   7.098 -1.3376 -3.1641  1.6438
  965MOL0     H33123   5.952   2.603   6.920  0.6111 -1.0154 -1.4590
  965MOL0     H33124   5.741   2.631   7.089  0.0219 -0.0455 -0.1107
  965MOL0     H33125   5.716   2.549   6.935  0.8673 -0.1874 -0.8386
  965MOL0     H33126   5.737   2.333   7.081 -1.0709  0.7871 -1.0170
  965MOL0     H33127   5.761   2.441   7.216 -0.5430 -2.3353 -0.3767
  965MOL0     H33128   5.335   2.527   7.171 -1.7391  1.3337  0.9750
  965MOL0     H33129   5.058   2.365   7.300 -0.9621 -0.5141  1.6116
  965MOL0     H33130   5.138   2.527   7.285 -2.6116 -0.3067 -2.4050
  965MOL0     H33131   5.126   2.457   7.442  1.0001  2.0628 -0.6590
  965MOL0     H33132   5.105   2.252   7.720 -2.7153 -1.1655 -3.8519
  965MOL0     H33133   4.974   2.141   7.918  0.4710  0.1831  1.0870
  965MOL0     H33134   4.801   1.954   7.893 -1.1825  1.4116  2.0979
  965MOL0     H33135   4.813   1.785   7.925 -4.0167  1.4080 -0.5309
  965MOL0     H33136   4.813   1.835   8.165  1.6601 -0.5913 -0.7052
  965MOL0     H33137   4.763   2.004   8.137  0.3131  1.1210 -2.4830
  965MOL0     H33138   4.612   1.776   7.989  0.9395 -1.2685  1.4202
  965MOL0     H33139   4.560   1.943   8.034  0.4282  0.9154  1.0628
  965MOL0     H33140   4.539   1.903   8.263 -3.3391 -0.5364  2.0014
  965MOL0     H33141   4.602   1.744   8.253 -1.8792  0.0256  1.3083
  965MOL0     H33142   4.345   1.846   8.153  0.3480  0.2867 -0.9329
  965MOL0     H33143   4.394   1.694   8.085  1.1685  0.5359  0.1296
  965MOL0     H33144   4.342   1.768   8.381 -2.3351  0.4721 -0.2332
  965MOL0     H33145   4.398   1.603   8.309  0.1292 -1.2469 -3.8734
  965MOL0     H33146   4.186   1.598   8.184  3.0507 -0.3539  0.1326
  965MOL0     H33147   4.140   1.742   8.276  0.4704 -0.4193  2.0066
  965MOL0     H33148   4.117   1.633   8.485 -0.8646  2.3353 -1.6245
  965MOL0     H33149   4.210   1.489   8.434 -3.5303 -5.8944 -0.6370
  965MOL0     H33150   5.175   1.782   7.870  0.3412 -0.3888 -0.4390
  965MOL0     H33151   5.323   1.894   7.676 -0.3360 -0.0230 -0.3290
  965MOL0     H33152   5.503   2.133   7.421  3.5362  1.1868  0.3122
  965MOL0     H33153   5.639   2.246   7.256  1.2292  2.3352  0.5069
  965MOL0     H33154   7.103   2.188   7.209  1.2145 -0.9374 -0.2107
  965MOL0     H33155   7.124   1.959   7.288 -0.0222  0.4475  0.8974
  965MOL0     H33156   7.336   1.701   7.604 -2.0593  0.0662  4.0810
  965MOL0     H33157   7.446   1.486   7.596 -0.1569 -1.2786  0.4648
  965MOL0     H33158   7.306   1.076   7.452 -1.6055 -0.3872 -1.2443
  965MOL0     H33159   7.216   1.181   7.377 -0.8658 -1.8279  1.5265
  965MOL0     H33160   7.513   1.260   7.366 -0.0102  0.1201 -2.1287
  965MOL0     H33161   7.403   1.263   7.232 -1.4920 -2.5332 -1.3845
  965MOL0     H33162   7.555   1.033   7.357  3.0854  4.0774 -0.1821
  965MOL0     H33163   7.436   0.996   7.227 -1.1242  0.7991 -0.9219
  965MOL0     H33164   7.674   1.020   7.140 -3.0067 -2.5081  0.1054
  965MOL0     H33165   7.678   1.193   7.195  0.5087 -0.6401  1.7946
  965MOL0     H33166   7.452   1.246   6.857  0.6722  0.9049 -0.1279
  965MOL0     H33167   7.061   1.325   7.455 -2.2524  1.3300 -0.2830
  965MOL0     H33168   6.909   1.448   7.386  0.6232 -0.0228 -0.6819
  965MOL0     H33169   6.872   1.604   7.449  1.1460  1.8434  0.8321
  965MOL0     H33170   6.954   1.605   7.296 -0.1518  1.3689  0.9376
  966MOL0     O33171   5.497   0.152   3.426 -0.7503 -0.5476  0.0168
  966MOL0     C33172   5.377   0.158   3.449 -0.1122  0.3841 -0.4632
  966MOL0     O33173   5.307   0.086   3.532 -0.0691 -0.1177  0.9346
  966MOL0     C33174   5.369  -0.022   3.590  0.1720 -0.1714  0.3930
  966MOL0     C33175   5.351  -0.026   3.729 -0.9007  0.9704 -0.7076
  966MOL0     C33176   5.390  -0.141   3.799 -0.3626  0.8400 -0.3618
  966MOL0     C33177   5.457  -0.261   3.738  0.7286  0.2822  0.3969
  966MOL0     O33178   5.506  -0.369   3.802  0.1841 -1.0460 -0.2631
  966MOL0     C33179   5.507  -0.372   3.947  0.2873 -0.7681  0.3117
  966MOL0     C33180   5.543  -0.509   4.016  0.2621  0.3969 -0.3847
  966MOL0     C33181   5.463  -0.622   3.951  0.2086  0.1324  1.1935
  966MOL0     C33182   5.445  -0.742   4.044 -0.3408 -0.3394 -0.7503
  966MOL0     C33183   5.344  -0.719   4.161 -0.3865 -0.2618  0.0735
  966MOL0     C33184   5.206  -0.709   4.111  0.4119 -0.4618  0.1513
  966MOL0     C33185   5.111  -0.669   4.219  0.6836  0.8978 -0.3621
  966MOL0     C33186   5.100  -0.520   4.247 -0.0458  0.1689  0.1120
  966MOL0     N33187   5.079  -0.450   4.120 -0.9746  0.1071 -0.5491
  966MOL0     C33188   4.962  -0.442   4.057 -0.4698  0.0838  0.5582
  966MOL0     C33189   4.991  -0.380   3.940 -0.7994  0.1794  0.1087
  966MOL0     C33190   4.902  -0.361   3.824 -0.2642 -0.2195 -0.1602
  966MOL0     C33191   4.986  -0.308   3.708  0.4557 -1.0272  0.1118
  966MOL0     C33192   4.880  -0.305   3.586  0.4189 -0.4533  0.8703
  966MOL0     C33193   4.943  -0.256   3.462  0.2980 -0.5192  0.8279
  966MOL0     O33194   4.961  -0.111   3.473 -0.1681  0.4987  0.2838
  966MOL0     C33195   4.868  -0.041   3.404 -0.3527 -0.1712 -0.5283
  966MOL0     C33196   4.780   0.037   3.478 -0.6981  0.0250 -0.1170
  966MOL0     C33197   4.674   0.107   3.418 -0.7616 -0.1553  0.0129
  966MOL0     C33198   4.599   0.204   3.505  0.1379 -0.5320 -0.4843
  966MOL0     C33199   4.665   0.106   3.273 -0.3083  0.9290 -0.7105
  966MOL0     C33200   4.563   0.181   3.206  0.1143 -1.2364  1.0654
  966MOL0     O33201   4.446   0.192   3.268 -0.0269  0.5251  0.8717
  966MOL0     C33202   4.338   0.264   3.230 -0.4286  0.0069 -0.7049
  966MOL0     C33203   4.219   0.241   3.300  0.6848  1.0079 -0.0107
  966MOL0     C33204   4.097   0.303   3.255  0.7427  0.3412  0.2519
  966MOL0     C33205   4.090   0.404   3.162 -0.8542 -1.0226 -0.0885
  966MOL0     O33206   3.969   0.462   3.136  0.0253  0.3521 -0.0228
  966MOL0     C33207   3.919   0.430   3.004  0.1089  0.2091  0.6450
  966MOL0     C33208   3.767   0.447   2.998 -0.3411 -0.3470 -0.2241
  966MOL0     C33209   3.713   0.387   2.869 -0.3276 -0.1392 -0.3027
  966MOL0     C33210   3.660   0.236   2.884 -0.1119 -0.5508 -0.0978
  966MOL0     C33211   3.623   0.180   2.745 -0.6817  0.3689 -1.1048
  966MOL0     C33212   3.484   0.232   2.684 -0.2999  0.7142 -0.3764
  966MOL0     C33213   3.416   0.121   2.600  0.6071  0.3548  0.3939
  966MOL0     C33214   3.270   0.124   2.606 -1.0618 -0.4108  0.1151
  966MOL0    Cl33215   3.182  -0.018   2.525 -0.2489  0.2579  0.4168
  966MOL0     C33216   4.210   0.423   3.093  0.1832  1.9120  0.5854
  966MOL0     C33217   4.329   0.354   3.128 -0.1258  0.6040 -0.6399
  966MOL0     O33218   4.583   0.226   3.085  0.1898 -0.2232  0.0720
  966MOL0     C33219   4.775   0.044   3.198  0.2329  0.1936 -0.8372
  966MOL0     C33220   4.879  -0.023   3.268  0.5465  0.4383 -0.0103
  966MOL0     N33221   5.127  -0.351   3.938  0.5441 -0.0115  0.0225
  966MOL0     N33222   5.182  -0.381   4.058  0.2429 -0.8902  0.0188
  966MOL0     C33223   5.490  -0.243   3.602  0.9198 -1.6153  0.8336
  966MOL0     C33224   5.434  -0.131   3.528 -0.6451 -0.1556 -0.2428
  966MOL0     C33225   5.302   0.259   3.374  0.1250  0.3499  0.4690
  966MOL0     C33226   5.167   0.241   3.358  0.1538  0.5239 -0.2756
  966MOL0     C33227   5.089   0.321   3.279 -0.0443 -0.1821  0.5629
  966MOL0     C33228   5.140   0.446   3.233 -0.7623 -0.1621  0.3382
  966MOL0     O33229   5.072   0.546   3.173  0.2242 -0.4677 -0.0828
  966MOL0     C33230   4.988   0.507   3.062  0.4125 -0.1017 -0.2382
  966MOL0     C33231   4.909   0.637   3.037 -0.2553  0.7421  0.8884
  966MOL0     C33232   4.804   0.623   2.920 -0.0168  0.2545  0.4870
  966MOL0     C33233   4.703   0.503   2.923 -0.1537  0.4316  0.2847
  966MOL0     C33234   4.614   0.524   2.811  1.2088 -0.9648  0.1898
  966MOL0     C33235   4.529   0.556   2.728  0.0303  0.9595  0.3642
  966MOL0     C33236   5.273   0.479   3.266 -0.0289  0.9854  0.3852
  966MOL0     C33237   5.357   0.380   3.323  0.4650 -0.9520 -0.5747
  966MOL0     C33238   5.501   0.417   3.342 -0.8669  0.0049 -0.5522
  966MOL0     H33239   5.292   0.048   3.784  0.7705  0.3076  2.1786
  966MOL0     H33240   5.376  -0.151   3.906 -2.6064  0.5337 -0.6331
  966MOL0     H33241   5.411  -0.341   3.989 -0.6380 -3.2683  0.1968
  966MOL0     H33242   5.575  -0.292   3.978 -0.1293  0.8875 -2.6083
  966MOL0     H33243   5.650  -0.523   4.002  0.2139  1.2977 -1.9169
  966MOL0     H33244   5.510  -0.505   4.121  2.0565  0.7211  0.2023
  966MOL0     H33245   5.371  -0.580   3.908 -0.8321 -2.1456  1.0761
  966MOL0     H33246   5.511  -0.652   3.858  1.3129  1.9079  1.1321
  966MOL0     H33247   5.407  -0.831   3.992 -0.6998  1.2756 -3.4538
  966MOL0     H33248   5.540  -0.772   4.090  0.0221  0.0743 -1.2209
  966MOL0     H33249   5.369  -0.626   4.214 -0.3634  0.4901 -1.2012
  966MOL0     H33250   5.355  -0.803   4.230 -0.0178  0.0746  0.4379
  966MOL0     H33251   5.189  -0.641   4.027 -1.3376 -0.0957  0.7695
  966MOL0     H33252   5.174  -0.807   4.074 -1.3822  0.0794  0.1818
  966MOL0     H33253   5.139  -0.723   4.309  0.0729  2.1605  0.6194
  966MOL0     H33254   5.007  -0.691   4.190  0.3297  0.8072  0.9424
  966MOL0     H33255   5.012  -0.513   4.312 -1.0158  1.0753 -1.2718
  966MOL0     H33256   5.189  -0.466   4.281 -0.1129  2.0883 -2.5390
  966MOL0     H33257   4.873  -0.490   4.097  0.6780 -0.6856  2.3070
  966MOL0     H33258   4.818  -0.295   3.848  1.1177  3.0759 -3.3696
  966MOL0     H33259   4.855  -0.459   3.810 -1.7526  0.0835  2.1312
  966MOL0     H33260   5.025  -0.207   3.722 -0.5810 -0.5394 -0.4419
  966MOL0     H33261   5.068  -0.378   3.685  0.7531 -0.8543  0.6240
  966MOL0     H33262   4.841  -0.406   3.570 -0.3080 -0.1170  0.4563
  966MOL0     H33263   4.795  -0.243   3.613  0.9523  0.5966  0.2090
  966MOL0     H33264   5.040  -0.308   3.463  1.6325  1.8208  0.7160
  966MOL0     H33265   4.882  -0.277   3.374 -1.8317  2.0350  1.5730
  966MOL0     H33266   4.791   0.035   3.586 -3.1876 -3.0672  0.2350
  966MOL0     H33267   4.577   0.299   3.454 -0.6562  0.0262  0.8484
  966MOL0     H33268   4.661   0.227   3.592  1.0687  0.9059 -1.4858
  966MOL0     H33269   4.500   0.164   3.525 -0.4545  1.5785  1.1974
  966MOL0     H33270   4.203   0.149   3.355  0.9658 -0.2917 -2.0132
  966MOL0     H33271   4.010   0.255   3.299  0.3445  0.5358 -0.3099
  966MOL0     H33272   3.954   0.499   2.926 -2.0524  1.5480  0.7763
  966MOL0     H33273   3.938   0.325   2.979 -1.0967 -0.3119  1.8357
  966MOL0     H33274   3.732   0.386   3.082  2.0594 -1.8841 -0.2353
  966MOL0     H33275   3.730   0.549   3.010 -0.5448 -0.2785 -1.3138
  966MOL0     H33276   3.784   0.396   2.786  1.8651 -0.6789  1.4086
  966MOL0     H33277   3.622   0.442   2.843 -0.6462 -2.0086 -3.8320
  966MOL0     H33278   3.570   0.243   2.946 -0.8322  1.5255 -1.2534
  966MOL0     H33279   3.741   0.170   2.915  1.4358  0.0962 -2.5010
  966MOL0     H33280   3.706   0.182   2.673 -0.0187 -2.1615 -0.5166
  966MOL0     H33281   3.612   0.072   2.760  0.0881  0.5764  1.3995
  966MOL0     H33282   3.501   0.317   2.616  1.1801 -0.3823 -1.4503
  966MOL0     H33283   3.425   0.269   2.768  0.7808  3.1476 -0.5952
  966MOL0     H33284   3.443   0.021   2.636  1.2646  0.5274  0.4084
  966MOL0     H33285   3.451   0.126   2.497  2.6690 -2.0119  0.8592
  966MOL0     H33286   3.239   0.219   2.562  1.7718  0.4471 -0.2195
  966MOL0     H33287   3.238   0.127   2.710 -0.0210  3.5490  0.4866
  966MOL0     H33288   4.202   0.492   3.010 -2.1009 -0.5000 -1.3991
  966MOL0     H33289   4.414   0.375   3.065  0.8029 -1.0052  0.0036
  966MOL0     H33290   4.780   0.041   3.089 -1.6142  0.5211 -0.9530
  966MOL0     H33291   4.961  -0.070   3.215 -0.1963 -5.3404  3.0396
  966MOL0     H33292   5.552  -0.321   3.558  0.2678 -1.6415 -0.0577
  966MOL0     H33293   5.449  -0.122   3.421 -2.1459 -1.5037 -0.6121
  966MOL0     H33294   5.120   0.155   3.404 -1.4815  1.0660 -0.8688
  966MOL0     H33295   4.982   0.308   3.278  0.1746 -2.5218 -0.9641
  966MOL0     H33296   5.040   0.474   2.972 -1.3744 -2.4327 -0.5084
  966MOL0     H33297   4.927   0.425   3.101  2.2938  0.2930  4.2490
  966MOL0     H33298   4.978   0.720   3.015 -0.6764  0.7999 -0.2990
  966MOL0     H33299   4.853   0.672   3.124 -2.1894 -2.7757  1.2163
  966MOL0     H33300   4.750   0.716   2.902 -3.5853 -2.1187 -2.5761
  966MOL0     H33301   4.854   0.616   2.822  1.2009  2.7343  0.8621
  966MOL0     H33302   4.648   0.497   3.018 -0.5030 -1.0927  0.0122
  966MOL0     H33303   4.756   0.408   2.912  0.1547  0.3009  2.4412
  966MOL0     H33304   4.459   0.599   2.660 -0.7003 -2.6324 -1.3672
  966MOL0     H33305   5.306   0.582   3.249  0.0166  0.7670 -0.9659
  966MOL0     H33306   5.568   0.338   3.307  1.4731  1.4851  0.3925
  966MOL0     H33307   5.537   0.502   3.284  2.5061 -1.0318 -0.2102
  966MOL0     H33308   5.520   0.438   3.447 -4.0540 -0.3496  0.2172
  967MOL0     O33309   5.165   7.071   8.928 -0.2778  1.0400  0.5466
  967MOL0     C33310   5.111   7.039   8.819 -0.0170  0.5597 -0.1693
  967MOL0     O33311   4.990   7.079   8.775 -0.0234 -0.0836  0.0341
  967MOL0     C33312   4.914   7.157   8.864  0.2348  0.1160 -0.0930
  967MOL0     C33313   4.783   7.113   8.895 -0.7342  0.0313 -1.4163
  967MOL0     C33314   4.685   7.198   8.953 -0.2627 -0.7593 -0.3006
  967MOL0     C33315   4.730   7.322   8.995 -0.1626  0.4756  0.2982
  967MOL0     O33316   4.637   7.410   9.046 -0.5300 -0.6765  0.1393
  967MOL0     C33317   4.663   7.453   9.185 -0.2828  0.1967 -0.0299
  967MOL0     C33318   4.645   7.343   9.292 -0.0322  0.0077 -0.3161
  967MOL0     C33319   4.503   7.297   9.289  0.2808 -0.3736 -0.6225
  967MOL0     C33320   4.481   7.190   9.398 -0.1106  0.3837  0.0332
  967MOL0     C33321   4.442   7.259   9.533 -0.8173  0.5228  0.1336
  967MOL0     C33322   4.416   7.155   9.653 -1.0291  0.7047  0.1838
  967MOL0     C33323   4.320   7.040   9.630  1.2095 -0.0818  0.0450
  967MOL0     C33324   4.316   6.911   9.713  0.6174  1.0519 -0.4756
  967MOL0     N33325   4.255   6.791   9.650  0.2446  0.1584  0.1490
  967MOL0     C33326   4.139   6.723   9.686  0.1288  1.0554 -0.2106
  967MOL0     C33327   4.127   6.624   9.591 -0.3197  0.0968  0.0923
  967MOL0     C33328   4.025   6.507   9.596 -0.5869 -0.1654 -0.6590
  967MOL0     C33329   3.917   6.511   9.490  0.4196  0.3172 -0.0419
  967MOL0     C33330   3.824   6.382   9.485  0.2513 -0.1046 -0.4308
  967MOL0     C33331   3.695   6.396   9.398  1.4459  0.0227  0.4355
  967MOL0     O33332   3.622   6.273   9.388 -0.1656 -0.2247  0.5434
  967MOL0     C33333   3.539   6.258   9.282 -0.3766 -0.5819 -0.4056
  967MOL0     C33334   3.490   6.356   9.200 -0.6114 -0.8578  0.4873
  967MOL0     C33335   3.409   6.324   9.091  0.2487  0.6836  0.3846
  967MOL0     C33336   3.371   6.423   8.989  0.7828 -0.3216 -1.0133
  967MOL0     C33337   3.372   6.187   9.068  0.9323  0.0231  0.2814
  967MOL0     C33338   3.277   6.143   8.961 -1.0989 -0.2501  0.4602
  967MOL0     O33339   3.283   6.013   8.920 -0.9143 -0.2548 -1.2248
  967MOL0     C33340   3.207   5.970   8.822  0.7275  0.4993 -0.2233
  967MOL0     C33341   3.090   5.901   8.852 -0.0426  0.8567 -1.1446
  967MOL0     C33342   3.017   5.822   8.760 -0.4658  0.0780  0.6189
  967MOL0     C33343   3.064   5.833   8.624 -0.3195  0.5131 -1.5151
  967MOL0     O33344   3.023   5.753   8.513  0.3405  0.7277  0.0416
  967MOL0     C33345   2.917   5.658   8.533  0.4947 -0.6518  0.4547
  967MOL0     C33346   2.959   5.522   8.592 -0.0248  0.0431  0.8948
  967MOL0     C33347   3.091   5.464   8.538  0.5249 -1.1312  0.1596
  967MOL0     C33348   3.130   5.327   8.607  0.7228 -0.9673  0.6499
  967MOL0     C33349   3.220   5.245   8.517 -0.0784  0.0162  0.6629
  967MOL0     C33350   3.232   5.108   8.582  1.0974  0.3299  0.5843
  967MOL0     C33351   3.277   4.999   8.486  0.1179  0.7291  0.2762
  967MOL0     C33352   3.298   4.863   8.552 -0.0693 -0.1291 -0.2570
  967MOL0    Cl33353   3.418   4.765   8.463  0.0151  0.2937 -0.0312
  967MOL0     C33354   3.178   5.910   8.595  0.3943  0.2300  0.1391
  967MOL0     C33355   3.248   5.968   8.692 -0.7712 -0.6228  0.0610
  967MOL0     O33356   3.195   6.221   8.922 -0.4570 -1.0650  0.7463
  967MOL0     C33357   3.413   6.091   9.159  1.1628 -0.7092  0.0210
  967MOL0     C33358   3.503   6.127   9.258  0.4708  0.6468  0.0700
  967MOL0     N33359   4.231   6.624   9.514 -1.3173 -0.5181  0.8524
  967MOL0     N33360   4.299   6.728   9.541 -0.2194  0.2320  0.6425
  967MOL0     C33361   4.864   7.368   8.972  0.7551  0.0085  0.2989
  967MOL0     C33362   4.948   7.287   8.897  0.0222 -0.4501 -0.4775
  967MOL0     C33363   5.198   6.940   8.747 -0.0524 -0.5389 -0.0308
  967MOL0     C33364   5.207   6.950   8.605  0.7644  0.9850  0.2263
  967MOL0     C33365   5.288   6.868   8.530 -0.3248  0.4017  0.2440
  967MOL0     C33366   5.348   6.756   8.587 -0.0033 -0.4447 -0.1032
  967MOL0     O33367   5.409   6.652   8.523 -0.3110 -0.0583 -0.2806
  967MOL0     C33368   5.405   6.643   8.377 -0.2433 -0.3311 -0.9057
  967MOL0     C33369   5.453   6.491   8.350  0.8003 -0.1166  0.3101
  967MOL0     C33370   5.602   6.446   8.367  0.8107  0.1302  0.1853
  967MOL0     C33371   5.696   6.556   8.359 -0.3158 -0.0108 -0.3087
  967MOL0     C33372   5.834   6.524   8.337  1.2632  0.0515  0.3093
  967MOL0     C33373   5.947   6.484   8.322  0.8331 -0.9145  0.5183
  967MOL0     C33374   5.337   6.742   8.730  0.0548 -0.3631  0.1733
  967MOL0     C33375   5.256   6.827   8.809  0.9209 -0.7403 -0.3626
  967MOL0     C33376   5.233   6.791   8.954  0.4241 -0.4484  0.1787
  967MOL0     H33377   4.758   7.012   8.864  1.6773 -0.6566 -1.2674
  967MOL0     H33378   4.588   7.167   8.990  0.9776 -3.6719  0.8369
  967MOL0     H33379   4.603   7.537   9.220  0.2335  1.0750 -1.1751
  967MOL0     H33380   4.768   7.483   9.175 -0.3538 -0.0764 -2.0946
  967MOL0     H33381   4.719   7.265   9.273 -0.1762  0.3225 -2.4426
  967MOL0     H33382   4.665   7.383   9.392 -1.1187  0.0133 -0.0957
  967MOL0     H33383   4.428   7.375   9.303  0.1757 -0.1986 -2.0131
  967MOL0     H33384   4.468   7.260   9.192 -0.5290  0.9961 -0.8672
  967MOL0     H33385   4.400   7.131   9.355 -0.0977  1.9582 -2.3564
  967MOL0     H33386   4.570   7.126   9.409 -2.7057 -3.3098  1.5346
  967MOL0     H33387   4.344   7.307   9.524 -1.4795 -0.1679  2.6973
  967MOL0     H33388   4.520   7.328   9.566 -0.3373 -0.5750  1.3629
  967MOL0     H33389   4.509   7.107   9.684 -1.9035  0.0011  1.8485
  967MOL0     H33390   4.371   7.218   9.730 -3.9792 -1.7650  0.6655
  967MOL0     H33391   4.323   7.006   9.526 -2.8009 -0.3728 -0.1478
  967MOL0     H33392   4.221   7.084   9.646  0.7911 -1.4344  1.4289
  967MOL0     H33393   4.424   6.893   9.715  1.1375  3.3783  3.4968
  967MOL0     H33394   4.279   6.921   9.816  2.4511 -1.6201  0.5495
  967MOL0     H33395   4.073   6.734   9.772  1.8397  1.2988  1.1427
  967MOL0     H33396   3.981   6.501   9.696  2.9884 -0.3494  1.0579
  967MOL0     H33397   4.093   6.422   9.594  0.8007  0.6899  2.6672
  967MOL0     H33398   3.861   6.605   9.494 -2.3797 -1.2193 -0.5183
  967MOL0     H33399   3.973   6.496   9.397  2.3509 -0.1123  1.1427
  967MOL0     H33400   3.898   6.311   9.450 -1.2052 -0.5769 -2.7818
  967MOL0     H33401   3.821   6.358   9.592  0.3147  2.4645  0.2360
  967MOL0     H33402   3.635   6.482   9.430  1.3345 -0.3872  1.3604
  967MOL0     H33403   3.738   6.421   9.300 -0.3087  2.7524  0.2388
  967MOL0     H33404   3.518   6.459   9.222  2.6334 -1.1131 -1.6240
  967MOL0     H33405   3.373   6.380   8.889 -1.9648  0.0404 -1.3079
  967MOL0     H33406   3.426   6.518   8.990 -0.1337  0.2500 -1.8963
  967MOL0     H33407   3.267   6.438   9.019  0.0379 -1.2743 -2.9648
  967MOL0     H33408   3.061   5.902   8.956  0.5160 -1.3517 -0.9038
  967MOL0     H33409   2.929   5.766   8.791 -0.3551 -0.3900  0.0939
  967MOL0     H33410   2.827   5.696   8.582 -0.2564  1.8683 -2.5810
  967MOL0     H33411   2.878   5.643   8.431  3.0858  1.3234 -0.9366
  967MOL0     H33412   2.965   5.540   8.699 -1.2826 -0.4930  1.0791
  967MOL0     H33413   2.887   5.444   8.566  1.8332 -1.2143 -0.8315
  967MOL0     H33414   3.172   5.533   8.563 -0.2977  0.6005 -1.6518
  967MOL0     H33415   3.085   5.465   8.428 -3.3796 -1.1411  0.2610
  967MOL0     H33416   3.039   5.279   8.644  0.2754  0.8281  2.0298
  967MOL0     H33417   3.181   5.354   8.700 -2.8329 -1.0080  2.8214
  967MOL0     H33418   3.155   5.237   8.429 -2.0113 -0.1597  2.0269
  967MOL0     H33419   3.320   5.282   8.496 -0.6594  0.5001 -1.5059
  967MOL0     H33420   3.132   5.080   8.618  1.9245  0.8991  3.5619
  967MOL0     H33421   3.283   5.105   8.679  0.1876 -2.7120  1.0781
  967MOL0     H33422   3.372   5.043   8.455 -0.1433  2.3740  1.6854
  967MOL0     H33423   3.208   5.001   8.401  2.4026 -0.2432 -1.7032
  967MOL0     H33424   3.198   4.818   8.560  0.2965 -0.7943  0.8737
  967MOL0     H33425   3.339   4.882   8.652  4.4241  3.3550 -2.4286
  967MOL0     H33426   3.220   5.913   8.495 -2.8067 -1.9211 -1.4521
  967MOL0     H33427   3.338   6.024   8.672 -1.0559  0.0641  0.6749
  967MOL0     H33428   3.395   5.985   9.144  1.1623 -0.9466  1.5188
  967MOL0     H33429   3.533   6.046   9.323 -4.0190 -1.1060  0.2638
  967MOL0     H33430   4.892   7.470   8.999  3.4422 -1.0876  2.0503
  967MOL0     H33431   5.044   7.329   8.869 -0.0053 -0.1372 -0.1024
  967MOL0     H33432   5.169   7.037   8.552  0.7767  1.0809  0.3754
  967MOL0     H33433   5.296   6.897   8.426 -0.6922  0.2226  0.1613
  967MOL0     H33434   5.303   6.645   8.340 -0.3534  4.4222 -0.8903
  967MOL0     H33435   5.468   6.709   8.318  0.2932  0.0356  0.0511
  967MOL0     H33436   5.426   6.467   8.247 -2.0731  0.5566  0.8132
  967MOL0     H33437   5.398   6.429   8.421 -0.1881  0.9310  0.4819
  967MOL0     H33438   5.603   6.407   8.470  1.0343 -0.8212 -0.1667
  967MOL0     H33439   5.624   6.361   8.302 -0.1097 -1.8470  2.3136
  967MOL0     H33440   5.688   6.616   8.450 -0.6402  1.5680 -1.3527
  967MOL0     H33441   5.677   6.630   8.281 -2.2798  0.6103  0.6852
  967MOL0     H33442   6.045   6.456   8.291  0.7235  0.9991 -1.8304
  967MOL0     H33443   5.383   6.655   8.776  3.2166  1.8373  1.5004
  967MOL0     H33444   5.260   6.868   9.027 -1.0518  0.9766 -0.7187
  967MOL0     H33445   5.128   6.764   8.965 -0.4697  0.0319 -4.6142
  967MOL0     H33446   5.289   6.701   8.980  0.6436 -0.6489 -0.9222
  968MOL0     O33447  10.223   4.386   8.551 -0.7558 -0.2180  0.3151
  968MOL0     C33448  10.178   4.489   8.500 -0.1601 -0.3803  0.2588
  968MOL0     O33449  10.111   4.494   8.383  0.7751 -0.1845  0.6152
  968MOL0     C33450  10.097   4.375   8.320 -0.3706 -0.2978  0.0595
  968MOL0     C33451  10.207   4.326   8.250 -0.3628 -1.7280  0.1041
  968MOL0     C33452  10.205   4.196   8.204  0.4635 -0.7474 -0.2411
  968MOL0     C33453  10.094   4.112   8.235 -0.5622  0.9588 -0.0302
  968MOL0     O33454  10.085   3.977   8.217  0.7965 -0.1173 -0.3104
  968MOL0     C33455  10.138   3.893   8.325 -0.4852  0.1016 -0.9427
  968MOL0     C33456  10.075   3.756   8.347  0.1019  0.3949 -0.0496
  968MOL0     C33457   9.934   3.781   8.402 -0.5005 -0.9952  0.1137
  968MOL0     C33458   9.864   3.647   8.439  0.2853  0.1289  0.0120
  968MOL0     C33459   9.718   3.652   8.470  0.3106  0.0587  0.0799
  968MOL0     C33460   9.679   3.527   8.544 -0.3627  0.3627 -0.6741
  968MOL0     C33461   9.532   3.547   8.598  1.1145  0.0605 -0.5708
  968MOL0     C33462   9.461   3.421   8.659  0.2331 -0.1801  0.5369
  968MOL0     N33463   9.528   3.378   8.784 -0.4487 -0.6161  0.3278
  968MOL0     C33464   9.619   3.276   8.801  0.2086 -0.0833  0.8645
  968MOL0     C33465   9.635   3.276   8.938 -0.0048  1.3432 -0.3425
  968MOL0     C33466   9.734   3.177   9.012  0.7019 -0.0699 -0.4289
  968MOL0     C33467   9.879   3.204   8.978  0.3382 -0.5397  0.1476
  968MOL0     C33468   9.949   3.304   9.070 -0.3992 -0.1522  0.8831
  968MOL0     C33469   9.893   3.440   9.060  0.6197 -0.0726  0.4979
  968MOL0     O33470   9.938   3.501   8.940 -0.1697  0.2729  1.2766
  968MOL0     C33471   9.889   3.627   8.900 -0.2959  1.3585 -1.0278
  968MOL0     C33472   9.990   3.706   8.849 -0.2493 -0.0470 -0.3087
  968MOL0     C33473   9.954   3.832   8.791 -0.1071  0.1242 -0.5723
  968MOL0     C33474  10.073   3.912   8.763 -0.8530 -0.1794 -0.0581
  968MOL0     C33475   9.817   3.876   8.795 -0.2116  0.1063 -0.2827
  968MOL0     C33476   9.772   4.015   8.751  0.4177 -0.1123  0.5133
  968MOL0     O33477   9.855   4.086   8.669 -0.0095  0.0066 -0.0173
  968MOL0     C33478   9.826   4.219   8.661 -0.0281  0.2640  0.3083
  968MOL0     C33479   9.714   4.254   8.596 -0.4639  0.2130 -0.2852
  968MOL0     C33480   9.675   4.391   8.610 -0.2922 -0.4447 -0.5468
  968MOL0     C33481   9.752   4.488   8.672  0.6051  0.9267  1.2971
  968MOL0     O33482   9.704   4.618   8.649 -0.2633  0.6812  0.0180
  968MOL0     C33483   9.804   4.716   8.686  0.4134  0.4014 -0.3950
  968MOL0     C33484   9.780   4.840   8.602 -1.0191 -0.1216 -0.4275
  968MOL0     C33485   9.639   4.902   8.628 -0.0773  0.8980 -0.1874
  968MOL0     C33486   9.618   5.032   8.541  0.2342  0.1194  0.0445
  968MOL0     C33487   9.498   5.114   8.598 -0.9998 -0.6686 -0.4759
  968MOL0     C33488   9.530   5.205   8.713 -0.3548  0.2432  0.4718
  968MOL0     C33489   9.400   5.249   8.773 -0.6185 -0.4335 -0.2318
  968MOL0     C33490   9.416   5.360   8.874  0.8497 -0.7033 -0.0092
  968MOL0    Cl33491   9.437   5.507   8.789  0.1079  0.0082 -0.0488
  968MOL0     C33492   9.865   4.444   8.738  0.0095 -0.6038  0.7606
  968MOL0     C33493   9.905   4.309   8.725  0.1066  0.3629 -0.6176
  968MOL0     O33494   9.669   4.055   8.805 -0.4647 -0.5324  0.4507
  968MOL0     C33495   9.729   3.799   8.871  0.2906 -0.4152  0.7698
  968MOL0     C33496   9.756   3.673   8.910 -0.4508 -0.7277 -1.0533
  968MOL0     N33497   9.548   3.364   9.000  0.1981  0.6379 -0.2410
  968MOL0     N33498   9.504   3.437   8.907  0.5341 -0.1736  0.0470
  968MOL0     C33499   9.990   4.152   8.312 -0.9104  0.7895  0.3911
  968MOL0     C33500   9.993   4.287   8.350 -0.9385  0.5749  0.0354
  968MOL0     C33501  10.215   4.616   8.572 -0.0839  0.2596  0.4168
  968MOL0     C33502  10.203   4.732   8.493  0.6414  0.3026 -0.4598
  968MOL0     C33503  10.239   4.856   8.547  0.1401 -0.5415 -0.4052
  968MOL0     C33504  10.278   4.867   8.679  0.0937  0.6019  0.1723
  968MOL0     O33505  10.303   4.987   8.738  0.3402 -0.1637 -0.3084
  968MOL0     C33506  10.399   5.075   8.684 -0.4045  0.3006 -0.8282
  968MOL0     C33507  10.515   5.109   8.779 -0.1691  1.4004  0.2262
  968MOL0     C33508  10.624   4.986   8.768  0.1774 -0.2713  0.3710
  968MOL0     C33509  10.750   4.987   8.865 -0.2226  0.3963 -0.3562
  968MOL0     C33510  10.807   5.123   8.877 -0.5171 -0.3058 -0.3010
  968MOL0     C33511  10.858   5.233   8.874 -0.1582 -0.7471 -0.1601
  968MOL0     C33512  10.285   4.753   8.763 -0.4009  0.3603  0.0323
  968MOL0     C33513  10.252   4.630   8.709  0.8136  0.0430 -0.2691
  968MOL0     C33514  10.250   4.503   8.797  0.6498 -0.0316 -0.6195
  968MOL0     H33515  10.290   4.393   8.230 -0.8335 -1.3762 -0.7214
  968MOL0     H33516  10.292   4.156   8.153  2.9661  0.8728  2.5116
  968MOL0     H33517  10.136   3.951   8.418 -0.1291  0.8363 -1.3809
  968MOL0     H33518  10.243   3.874   8.299 -0.8605 -2.6294 -0.7145
  968MOL0     H33519  10.073   3.708   8.249 -1.2237 -0.2809  0.2913
  968MOL0     H33520  10.127   3.689   8.416 -2.6724 -4.3140 -2.0814
  968MOL0     H33521   9.941   3.846   8.490  3.5362 -1.1337  0.0683
  968MOL0     H33522   9.874   3.835   8.328  0.7201  1.5706  0.8688
  968MOL0     H33523   9.876   3.572   8.360  1.7375  0.6105 -0.2626
  968MOL0     H33524   9.914   3.598   8.523  0.4436 -0.4480 -0.4132
  968MOL0     H33525   9.670   3.664   8.372 -1.8056 -0.8462  0.9548
  968MOL0     H33526   9.695   3.740   8.530 -2.1860  0.0472 -0.7690
  968MOL0     H33527   9.683   3.439   8.478  0.1430 -0.5619  0.5462
  968MOL0     H33528   9.741   3.506   8.631  0.7153  3.6223 -0.5414
  968MOL0     H33529   9.470   3.587   8.518  1.8460  3.3137  0.3458
  968MOL0     H33530   9.530   3.632   8.667  1.8101 -0.3968  0.0369
  968MOL0     H33531   9.358   3.446   8.685  0.3335  2.3010 -1.1219
  968MOL0     H33532   9.469   3.337   8.589  2.0905 -1.4101  2.1065
  968MOL0     H33533   9.661   3.221   8.718  2.5893  1.2730  1.0970
  968MOL0     H33534   9.702   3.073   8.999  1.4557 -0.4281  0.4563
  968MOL0     H33535   9.733   3.178   9.121 -1.8203 -3.2608 -0.2647
  968MOL0     H33536   9.941   3.114   8.988  2.8326  1.2040  1.7821
  968MOL0     H33537   9.883   3.241   8.875 -0.8586 -4.6789 -1.5677
  968MOL0     H33538   9.939   3.265   9.172  0.4869 -0.8831  0.6989
  968MOL0     H33539  10.055   3.310   9.044 -1.3944  0.4892 -4.0230
  968MOL0     H33540   9.783   3.448   9.058  0.5139  2.1822 -5.0152
  968MOL0     H33541   9.931   3.490   9.150  0.4387  1.3109 -0.1579
  968MOL0     H33542  10.086   3.658   8.838 -0.9936 -1.7745  0.3841
  968MOL0     H33543  10.056   4.019   8.753  1.4431  0.1385 -1.2113
  968MOL0     H33544  10.119   3.884   8.668 -0.5746 -2.6569  0.7083
  968MOL0     H33545  10.150   3.902   8.840 -0.6653 -3.5818 -0.5290
  968MOL0     H33546   9.661   4.182   8.534 -2.2601  1.6765 -0.5533
  968MOL0     H33547   9.583   4.428   8.566 -0.1842 -3.3239 -3.5218
  968MOL0     H33548   9.782   4.750   8.788  2.0511  1.5694 -0.3957
  968MOL0     H33549   9.907   4.685   8.670  1.0401  1.6294  0.9887
  968MOL0     H33550   9.858   4.914   8.624  1.0656 -1.8155 -1.7153
  968MOL0     H33551   9.795   4.814   8.497  0.3515  0.4162 -0.3924
  968MOL0     H33552   9.636   4.916   8.737  1.7520  0.1697  0.0006
  968MOL0     H33553   9.559   4.834   8.599 -1.1848  2.0111  0.1682
  968MOL0     H33554   9.596   5.004   8.437 -0.4651  3.3576 -0.7796
  968MOL0     H33555   9.709   5.091   8.551  0.2712 -0.2248  2.1186
  968MOL0     H33556   9.456   5.170   8.514  0.6703  0.3949 -0.6580
  968MOL0     H33557   9.424   5.041   8.631 -1.1321  0.4062  1.7855
  968MOL0     H33558   9.587   5.294   8.686  0.5098 -0.4845 -0.1742
  968MOL0     H33559   9.591   5.149   8.785 -0.9374  2.4422  2.8177
  968MOL0     H33560   9.355   5.161   8.820  0.6864 -0.5470  0.8645
  968MOL0     H33561   9.326   5.290   8.704 -1.7911 -0.3885  1.0189
  968MOL0     H33562   9.484   5.344   8.958 -0.0495  2.3334  1.4414
  968MOL0     H33563   9.319   5.371   8.923  1.2689  0.8921  0.5339
  968MOL0     H33564   9.917   4.520   8.796  0.9067 -1.8729  1.6990
  968MOL0     H33565   9.971   4.269   8.801 -1.6235 -1.6818 -0.0895
  968MOL0     H33566   9.626   3.829   8.883  1.2043  2.3096  3.1450
  968MOL0     H33567   9.669   3.619   8.948 -1.1812  1.1500  0.1329
  968MOL0     H33568   9.919   4.079   8.350  0.4522 -1.0446 -0.4280
  968MOL0     H33569   9.906   4.325   8.403 -4.0441 -0.5177 -3.7790
  968MOL0     H33570  10.174   4.726   8.389 -1.0224 -1.8129  0.0539
  968MOL0     H33571  10.233   4.947   8.489  1.2864 -0.2843 -0.1370
  968MOL0     H33572  10.429   5.038   8.586  1.8130 -1.0965  0.2941
  968MOL0     H33573  10.350   5.173   8.687 -1.9396 -0.4301 -0.6391
  968MOL0     H33574  10.472   5.112   8.879 -2.4766 -0.0711 -0.6485
  968MOL0     H33575  10.557   5.208   8.757 -0.1971  1.5651  0.9014
  968MOL0     H33576  10.577   4.891   8.790  1.2844 -0.5761  1.5738
  968MOL0     H33577  10.651   4.980   8.662 -1.3426 -1.8263  0.0293
  968MOL0     H33578  10.824   4.913   8.835 -1.4268 -1.4198  0.8991
  968MOL0     H33579  10.722   4.959   8.967  0.4201 -2.0907 -0.7985
  968MOL0     H33580  10.900   5.331   8.860  1.7215 -1.6256 -1.1090
  968MOL0     H33581  10.314   4.759   8.867 -0.6710 -0.1413  0.1397
  968MOL0     H33582  10.262   4.533   8.902 -1.2292 -0.0855 -0.3479
  968MOL0     H33583  10.151   4.456   8.795  0.1051  1.1165 -1.4598
  968MOL0     H33584  10.335   4.435   8.783  0.8097  0.1204 -0.3989
  969MOL0     O33585   4.864  11.052  10.215 -0.0215 -0.1132 -0.6647
  969MOL0     C33586   4.938  10.985  10.288 -0.9307  0.0445 -0.1329
  969MOL0     O33587   4.914  10.960  10.426 -0.7257 -0.8272 -0.1070
  969MOL0     C33588   4.822  11.044  10.492  1.0212  0.3579  0.7468
  969MOL0     C33589   4.830  11.177  10.492 -0.1044 -0.5564 -0.4210
  969MOL0     C33590   4.732  11.260  10.542 -0.7820  0.5760  0.5527
  969MOL0     C33591   4.623  11.199  10.600  0.1318 -0.0935 -0.0721
  969MOL0     O33592   4.529  11.276  10.660  0.0498  0.0725  0.3819
  969MOL0     C33593   4.567  11.362  10.764  0.0507  0.2012 -0.6601
  969MOL0     C33594   4.439  11.360  10.855 -0.4796 -0.0666  0.2318
  969MOL0     C33595   4.429  11.224  10.918 -0.3373 -0.4208  0.2223
  969MOL0     C33596   4.335  11.235  11.038 -0.7444  0.1018 -0.1889
  969MOL0     C33597   4.311  11.094  11.096  0.4114  1.1028 -0.4255
  969MOL0     C33598   4.218  11.105  11.218  0.4821 -0.1109  0.6748
  969MOL0     C33599   4.219  10.977  11.306  0.5824 -1.4276  1.0518
  969MOL0     C33600   4.102  10.990  11.399  0.7530 -0.0652  0.4600
  969MOL0     N33601   4.099  10.892  11.504  0.3438  0.4197  0.5394
  969MOL0     C33602   4.051  10.914  11.630 -0.3611  0.4064  0.6091
  969MOL0     C33603   4.028  10.798  11.688  0.0726 -0.3201  0.1097
  969MOL0     C33604   3.966  10.797  11.824 -0.3497 -0.0491 -0.5900
  969MOL0     C33605   3.811  10.803  11.811  0.2032 -0.5336 -0.6005
  969MOL0     C33606   3.755  10.777  11.959 -0.4310 -0.1814  0.9960
  969MOL0     C33607   3.605  10.762  11.973 -0.3153 -0.3959 -0.5184
  969MOL0     O33608   3.529  10.880  11.916 -0.5315 -0.3417 -0.7160
  969MOL0     C33609   3.402  10.899  11.966 -0.0657 -0.6310  0.1945
  969MOL0     C33610   3.339  11.013  11.912  0.2114 -0.2597  0.2738
  969MOL0     C33611   3.213  11.062  11.958  0.8948  0.5329 -0.6529
  969MOL0     C33612   3.168  11.194  11.910  0.5299 -1.0050  1.0045
  969MOL0     C33613   3.135  10.971  12.040 -0.0227  0.4576 -0.4169
  969MOL0     C33614   2.996  10.997  12.093 -0.3897  0.1833 -0.6398
  969MOL0     O33615   2.929  10.896  12.140  0.0650 -0.0661 -0.0851
  969MOL0     C33616   2.794  10.893  12.130  0.9371  0.6360  0.1637
  969MOL0     C33617   2.727  10.816  12.033 -0.3192 -0.1484 -0.3607
  969MOL0     C33618   2.585  10.816  12.043 -0.6696 -0.1811 -0.4877
  969MOL0     C33619   2.505  10.883  12.137  0.2378  0.8700 -0.1455
  969MOL0     O33620   2.368  10.882  12.158  0.3371  0.3361  0.2562
  969MOL0     C33621   2.271  10.819  12.067 -0.7053 -0.0394  0.1615
  969MOL0     C33622   2.129  10.864  12.115 -0.5703 -0.8324  0.1957
  969MOL0     C33623   2.097  10.835  12.266 -0.2793  0.4618 -0.4154
  969MOL0     C33624   1.953  10.867  12.304 -0.6669  0.0500 -0.6046
  969MOL0     C33625   1.947  11.001  12.383 -0.4664  0.9415  0.1887
  969MOL0     C33626   1.990  10.978  12.532  0.1804 -0.2442 -0.0099
  969MOL0     C33627   1.948  11.097  12.625  0.5654 -0.7936  0.0162
  969MOL0     C33628   1.968  11.062  12.775 -0.4814  1.0015  0.4981
  969MOL0    Cl33629   1.903  11.189  12.887  0.2567  0.0651 -0.4257
  969MOL0     C33630   2.583  10.947  12.235 -1.5520  0.9953 -0.2488
  969MOL0     C33631   2.725  10.954  12.234 -0.1502  0.3911  0.1273
  969MOL0     O33632   2.953  11.104  12.088  0.0858 -0.2497 -0.4346
  969MOL0     C33633   3.194  10.846  12.078 -0.0992 -0.5283 -0.9862
  969MOL0     C33634   3.331  10.816  12.053  0.7445  0.3441  1.1877
  969MOL0     N33635   4.065  10.692  11.601 -0.7858 -0.2916 -0.1159
  969MOL0     N33636   4.108  10.754  11.490  0.1394  0.2720  0.0096
  969MOL0     C33637   4.615  11.062  10.618 -0.6381 -0.5385 -1.6699
  969MOL0     C33638   4.711  10.990  10.549 -0.8800 -0.0022  0.0072
  969MOL0     C33639   5.058  10.912  10.229 -0.1711  0.0359 -0.1831
  969MOL0     C33640   5.155  10.875  10.326 -0.2421 -0.3840 -0.3812
  969MOL0     C33641   5.285  10.837  10.288 -0.4935  0.9285 -0.2372
  969MOL0     C33642   5.310  10.812  10.156 -1.1998  1.1506 -0.0245
  969MOL0     O33643   5.428  10.765  10.121 -0.0986  0.0319  0.2182
  969MOL0     C33644   5.538  10.761  10.215 -0.0260 -1.2786  0.7258
  969MOL0     C33645   5.600  10.896  10.266 -0.8712 -0.3423  0.1018
  969MOL0     C33646   5.724  10.894  10.364  0.3281  0.7733 -0.6109
  969MOL0     C33647   5.860  10.845  10.331 -0.6101  0.1151  0.6180
  969MOL0     C33648   5.938  10.766  10.427  0.5151  0.5605 -0.1272
  969MOL0     C33649   6.001  10.698  10.511  0.1408  0.2895  0.0296
  969MOL0     C33650   5.212  10.834  10.060  0.1504 -0.2286 -0.6100
  969MOL0     C33651   5.090  10.879  10.104  0.5571 -0.1830 -0.7823
  969MOL0     C33652   4.975  10.889  10.006  0.4997 -0.0902  0.0109
  969MOL0     H33653   4.922  11.224  10.459 -0.2739  3.1305  3.3754
  969MOL0     H33654   4.761  11.364  10.529 -0.9786  0.4280 -1.5212
  969MOL0     H33655   4.584  11.465  10.730  3.4137  0.7173  1.9835
  969MOL0     H33656   4.662  11.343  10.815 -0.4958  0.0855  0.3374
  969MOL0     H33657   4.434  11.441  10.928  1.1957  1.2803 -1.0679
  969MOL0     H33658   4.352  11.386  10.794  0.5852 -2.2215 -2.4004
  969MOL0     H33659   4.383  11.157  10.845 -1.9710 -1.0006  1.7027
  969MOL0     H33660   4.529  11.187  10.944  0.3534 -1.0708 -3.0162
  969MOL0     H33661   4.382  11.297  11.115 -0.3966 -1.2153  0.6807
  969MOL0     H33662   4.238  11.279  11.009  0.7462  4.6973  0.9122
  969MOL0     H33663   4.409  11.064  11.132  1.5565  1.2786 -3.1472
  969MOL0     H33664   4.281  11.023  11.019 -2.3950  2.3733 -0.6474
  969MOL0     H33665   4.250  11.185  11.285 -1.8802 -1.3023  3.4171
  969MOL0     H33666   4.120  11.131  11.176  1.1181  1.4290  0.0638
  969MOL0     H33667   4.312  10.965  11.362  2.5903  0.9592 -1.5714
  969MOL0     H33668   4.208  10.892  11.238 -1.0064 -0.3661 -0.1022
  969MOL0     H33669   4.109  11.088  11.447 -1.3690  0.8426 -0.9411
  969MOL0     H33670   4.013  10.997  11.335  0.5099  1.4287  0.9307
  969MOL0     H33671   4.051  11.001  11.696 -0.7352 -0.5511  1.9243
  969MOL0     H33672   3.997  10.884  11.883  0.6705  0.4396 -1.7916
  969MOL0     H33673   3.994  10.707  11.882  0.8102 -0.3008 -1.4972
  969MOL0     H33674   3.791  10.905  11.779  3.0461  0.1214 -0.5422
  969MOL0     H33675   3.780  10.721  11.745  0.4277 -1.7832  0.7757
  969MOL0     H33676   3.795  10.682  11.997  2.9708  1.5357  2.0922
  969MOL0     H33677   3.790  10.857  12.024 -0.8252  2.7743 -2.1618
  969MOL0     H33678   3.566  10.672  11.925 -3.9003  1.3500 -1.2039
  969MOL0     H33679   3.578  10.755  12.079 -1.1441  0.3078 -0.6695
  969MOL0     H33680   3.389  11.076  11.839 -0.0640  1.2733  1.3425
  969MOL0     H33681   3.143  11.259  11.994  0.9299  2.1345 -1.1508
  969MOL0     H33682   3.077  11.180  11.851  1.4214  1.5235 -1.1718
  969MOL0     H33683   3.239  11.252  11.851 -1.5886  1.4968  0.7518
  969MOL0     H33684   2.781  10.760  11.958 -2.9171 -2.1490 -0.9101
  969MOL0     H33685   2.523  10.772  11.965 -3.8113  3.1457 -0.0925
  969MOL0     H33686   2.294  10.857  11.967  2.2288  0.5998  0.9572
  969MOL0     H33687   2.283  10.710  12.065  2.9894 -0.0244  4.5033
  969MOL0     H33688   2.104  10.969  12.094 -0.3272 -0.4186  1.8285
  969MOL0     H33689   2.044  10.821  12.061  0.0503 -2.0860  0.1831
  969MOL0     H33690   2.159  10.893  12.334 -1.0910 -0.3159  1.0291
  969MOL0     H33691   2.122  10.729  12.278  0.1736  0.8750  3.1477
  969MOL0     H33692   1.896  10.784  12.347 -2.6102  0.9017 -1.4233
  969MOL0     H33693   1.891  10.887  12.217 -0.2869 -1.6020 -1.2908
  969MOL0     H33694   2.005  11.077  12.330  0.9368  0.1807  0.5748
  969MOL0     H33695   1.843  11.036  12.385 -1.2514 -1.2491  0.1692
  969MOL0     H33696   2.098  10.966  12.541 -0.0192 -2.1200  0.3473
  969MOL0     H33697   1.949  10.885  12.572  2.4674 -0.9766  0.7868
  969MOL0     H33698   1.843  11.128  12.616  1.3785  2.5557  0.8089
  969MOL0     H33699   1.996  11.188  12.587 -1.0108  0.0822 -0.0049
  969MOL0     H33700   2.072  11.057  12.808 -0.8143  0.9546  1.5603
  969MOL0     H33701   1.937  10.960  12.797  3.7637 -0.2480  1.6074
  969MOL0     H33702   2.526  10.982  12.321 -2.9584 -3.3654  0.8457
  969MOL0     H33703   2.772  11.022  12.305 -1.6961  3.4309 -1.5620
  969MOL0     H33704   3.144  10.769  12.135  2.9619 -1.5484  0.5667
  969MOL0     H33705   3.364  10.729  12.109 -1.7579 -1.2038  0.4222
  969MOL0     H33706   4.530  11.017  10.667  0.3534 -0.5715  0.0939
  969MOL0     H33707   4.715  10.881  10.546  2.9109  0.0411 -2.4261
  969MOL0     H33708   5.146  10.890  10.433  0.7837 -0.8381 -0.2194
  969MOL0     H33709   5.360  10.808  10.361 -0.1531 -0.0093 -0.9483
  969MOL0     H33710   5.517  10.691  10.296 -1.9767 -0.5682  0.8901
  969MOL0     H33711   5.622  10.724  10.155 -0.1361  2.7787 -2.4226
  969MOL0     H33712   5.521  10.962  10.303 -1.7100  0.0171 -2.2054
  969MOL0     H33713   5.619  10.958  10.178  0.3434 -1.9722 -0.8471
  969MOL0     H33714   5.738  10.984  10.425 -0.4713 -0.4631  1.5172
  969MOL0     H33715   5.683  10.830  10.443  1.0051  0.7959 -0.2338
  969MOL0     H33716   5.921  10.936  10.321  3.3269 -2.2241  0.8862
  969MOL0     H33717   5.861  10.797  10.233  0.2501  0.3253  0.5068
  969MOL0     H33718   6.033  10.617  10.574 -0.3196  1.0441  1.2857
  969MOL0     H33719   5.227  10.807   9.957  1.6469  1.1663 -0.8080
  969MOL0     H33720   5.010  10.859   9.907  0.0698  2.1188 -0.8651
  969MOL0     H33721   4.891  10.826  10.039  0.9279  0.6819  2.8331
  969MOL0     H33722   4.939  10.991   9.994 -1.0319 -0.7932 -1.9049
  970MOL0     O33723   1.291   8.536   9.656  0.0367 -0.0086 -0.0478
  970MOL0     C33724   1.362   8.627   9.617  0.6014 -0.0500  0.1480
  970MOL0     O33725   1.407   8.640   9.494  0.1859  0.7560  0.7764
  970MOL0     C33726   1.392   8.537   9.401  1.1654  0.0751  0.2015
  970MOL0     C33727   1.407   8.401   9.432 -0.1109  0.5648  0.5843
  970MOL0     C33728   1.392   8.311   9.320 -0.4507 -1.8098  0.0949
  970MOL0     C33729   1.361   8.351   9.191 -0.7140 -0.2727 -0.5972
  970MOL0     O33730   1.371   8.254   9.091  0.0919  0.1774  0.0387
  970MOL0     C33731   1.315   8.278   8.959  0.1544 -0.4518  0.4295
  970MOL0     C33732   1.350   8.155   8.887 -0.3189  0.8955  0.8318
  970MOL0     C33733   1.296   8.026   8.946  0.4284  0.6280 -0.3088
  970MOL0     C33734   1.145   8.021   8.932 -0.4425  0.4826  1.0592
  970MOL0     C33735   1.097   7.881   8.974  0.2503  0.4884  0.6752
  970MOL0     C33736   0.948   7.876   8.951  0.7615  0.1887 -1.3738
  970MOL0     C33737   0.881   7.766   9.046  0.1465  0.4048  0.2500
  970MOL0     C33738   0.875   7.816   9.190 -0.2856  0.9601 -0.2171
  970MOL0     N33739   0.813   7.939   9.222 -0.1106  0.1282 -0.0229
  970MOL0     C33740   0.684   7.971   9.191  1.0243  0.2198  0.2224
  970MOL0     C33741   0.662   8.094   9.244 -0.3920  0.5805 -0.0565
  970MOL0     C33742   0.538   8.181   9.245  0.3019  0.7442  0.1706
  970MOL0     C33743   0.533   8.303   9.159  0.2231  0.3760  0.6733
  970MOL0     C33744   0.621   8.418   9.210 -0.2618 -0.3808  0.6657
  970MOL0     C33745   0.574   8.484   9.342 -0.6400  0.6213  0.0447
  970MOL0     O33746   0.457   8.566   9.303  0.3298  0.4706 -0.1133
  970MOL0     C33747   0.379   8.616   9.407  0.4489  0.0465 -0.4321
  970MOL0     C33748   0.248   8.657   9.384  0.0803 -1.3292  0.3567
  970MOL0     C33749   0.158   8.710   9.479  0.4240  0.3930 -0.3036
  970MOL0     C33750   0.014   8.731   9.436  0.0120 -0.6520  0.8572
  970MOL0     C33751   0.211   8.725   9.611 -0.1454 -0.6727  0.1717
  970MOL0     C33752   0.134   8.779   9.725 -0.4626 -0.4985 -0.2037
  970MOL0     O33753   0.015   8.718   9.761  0.0188 -0.6324 -0.4690
  970MOL0     C33754  -0.067   8.764   9.868 -0.0613 -0.3118 -0.3353
  970MOL0     C33755  -0.150   8.661   9.925 -0.2569 -0.8317  0.4306
  970MOL0     C33756  -0.229   8.682  10.042  0.3544 -0.5897  0.6503
  970MOL0     C33757  -0.251   8.816  10.081  0.3544  0.7311 -0.2264
  970MOL0     O33758  -0.341   8.841  10.175  1.0542 -0.2661  0.6749
  970MOL0     C33759  -0.346   8.956  10.249  0.6848  0.4447  0.3433
  970MOL0     C33760  -0.486   9.005  10.231  0.5034  0.6076  1.0605
  970MOL0     C33761  -0.581   8.942  10.327  0.2140  0.6398  0.2015
  970MOL0     C33762  -0.725   8.990  10.307 -0.8451 -0.0315  0.3478
  970MOL0     C33763  -0.826   8.915  10.390  0.4816  0.5399  0.4022
  970MOL0     C33764  -0.966   8.919  10.329 -0.2600  0.0895 -0.0659
  970MOL0     C33765  -1.082   8.867  10.418 -0.0865  0.0793 -0.4000
  970MOL0     C33766  -1.114   8.956  10.531 -0.8651  0.2043 -0.1404
  970MOL0    Cl33767  -1.220   8.898  10.658  0.1908 -0.3613  0.2233
  970MOL0     C33768  -0.168   8.917  10.021  0.2156  0.3142 -0.2774
  970MOL0     C33769  -0.085   8.892   9.913 -0.0908 -0.3510 -0.1286
  970MOL0     O33770   0.180   8.876   9.786 -0.4686 -0.2169  0.6212
  970MOL0     C33771   0.348   8.689   9.630  1.1585 -0.7596 -0.7141
  970MOL0     C33772   0.424   8.624   9.539  0.7539 -0.0574  0.2754
  970MOL0     N33773   0.774   8.121   9.322 -0.5114  0.4441  0.1724
  970MOL0     N33774   0.861   8.028   9.313  0.0658  0.6489 -0.6205
  970MOL0     C33775   1.333   8.484   9.166  0.2751 -0.6343  0.2561
  970MOL0     C33776   1.357   8.574   9.271  0.5133  0.6223  0.0031
  970MOL0     C33777   1.395   8.734   9.710  0.4462 -0.6551 -0.1830
  970MOL0     C33778   1.442   8.854   9.656 -0.2407  0.4158 -0.0255
  970MOL0     C33779   1.482   8.967   9.729 -0.3728  0.5205  0.1741
  970MOL0     C33780   1.477   8.952   9.863  0.1187  0.4105  0.1789
  970MOL0     O33781   1.518   9.070   9.931 -0.1044  0.1388  0.2202
  970MOL0     C33782   1.575   9.072  10.068  0.5656 -0.4331  0.2262
  970MOL0     C33783   1.727   9.107  10.068  0.3313  0.0988  0.3913
  970MOL0     C33784   1.824   9.020   9.985  0.2917  0.1594  0.3033
  970MOL0     C33785   1.786   8.872   9.970 -0.2110 -0.1522  0.1625
  970MOL0     C33786   1.765   8.808  10.102 -0.3744 -0.1232  0.6159
  970MOL0     C33787   1.746   8.765  10.208  0.1011 -0.2399  0.0188
  970MOL0     C33788   1.435   8.837   9.931  0.1505 -0.3222  0.3898
  970MOL0     C33789   1.392   8.724   9.851  0.2010  0.9010 -0.0649
  970MOL0     C33790   1.348   8.596   9.913 -0.2236 -0.0373 -0.7734
  970MOL0     H33791   1.427   8.359   9.530  0.8529 -0.0554  0.1422
  970MOL0     H33792   1.415   8.207   9.338  0.5923 -1.3557  1.5802
  970MOL0     H33793   1.349   8.371   8.913 -2.0369 -0.7493 -2.0311
  970MOL0     H33794   1.206   8.278   8.967  0.0780  0.3517 -0.3763
  970MOL0     H33795   1.320   8.159   8.782  0.1458  0.0827  0.6593
  970MOL0     H33796   1.459   8.150   8.883 -0.2301  3.1265 -2.1022
  970MOL0     H33797   1.336   7.942   8.890 -0.7763  0.5326 -1.0543
  970MOL0     H33798   1.320   8.002   9.050  2.6900 -3.3815 -1.5340
  970MOL0     H33799   1.104   8.099   8.997 -2.7909  1.5300 -1.4603
  970MOL0     H33800   1.116   8.042   8.828  1.0178 -0.2495  0.4699
  970MOL0     H33801   1.125   7.864   9.079 -1.2198  2.3990  1.4281
  970MOL0     H33802   1.154   7.813   8.910  0.5306  0.4538  0.9584
  970MOL0     H33803   0.903   7.974   8.967  1.8454  0.4230  0.5815
  970MOL0     H33804   0.936   7.841   8.848 -0.6012 -3.6667 -0.0806
  970MOL0     H33805   0.946   7.678   9.040  0.7421  0.8887 -0.4671
  970MOL0     H33806   0.784   7.741   9.001  0.1735  2.0156 -0.7942
  970MOL0     H33807   0.824   7.741   9.251 -1.4627  1.9231  0.0054
  970MOL0     H33808   0.976   7.813   9.232  0.4182 -0.9284 -1.8527
  970MOL0     H33809   0.611   7.910   9.138  0.0324  0.1674  1.5839
  970MOL0     H33810   0.515   8.225   9.343 -3.2560 -0.1318 -0.1362
  970MOL0     H33811   0.458   8.112   9.220  0.8938  0.2171 -0.2961
  970MOL0     H33812   0.571   8.268   9.062 -1.3198  0.6015 -0.0469
  970MOL0     H33813   0.432   8.341   9.142  0.8316  1.6003 -0.3417
  970MOL0     H33814   0.720   8.374   9.223 -0.6311 -2.8301 -3.0131
  970MOL0     H33815   0.629   8.490   9.128  1.8520 -1.9617 -0.6349
  970MOL0     H33816   0.547   8.420   9.426 -0.9831  3.1430  1.9856
  970MOL0     H33817   0.647   8.558   9.378  1.7237 -0.3521 -2.3803
  970MOL0     H33818   0.212   8.652   9.282 -1.1337  2.3862  0.4239
  970MOL0     H33819   0.018   8.748   9.329  1.2208  0.5032  1.0696
  970MOL0     H33820  -0.017   8.822   9.489  1.9029 -0.3635  1.5184
  970MOL0     H33821  -0.053   8.648   9.463 -1.8126  0.8003  1.0108
  970MOL0     H33822  -0.128   8.562   9.886 -0.9682 -0.2532 -1.5693
  970MOL0     H33823  -0.290   8.600  10.079  1.6773 -0.6634  2.7930
  970MOL0     H33824  -0.326   8.934  10.355  0.6512  3.1041  0.9832
  970MOL0     H33825  -0.267   9.030  10.238  2.3461 -1.0668  1.5065
  970MOL0     H33826  -0.490   9.113  10.246  0.5098  2.0157 -5.6917
  970MOL0     H33827  -0.529   9.006  10.130 -1.6429 -2.5906  1.7846
  970MOL0     H33828  -0.551   8.962  10.431  2.2080 -1.2198  0.0384
  970MOL0     H33829  -0.578   8.834  10.310 -0.7922  0.4681  0.9979
  970MOL0     H33830  -0.744   8.988  10.199 -2.1397  0.8869  0.5325
  970MOL0     H33831  -0.730   9.095  10.335 -0.8791  0.1399 -0.2793
  970MOL0     H33832  -0.793   8.811  10.379  1.8750  1.2207 -2.7629
  970MOL0     H33833  -0.819   8.961  10.490  1.8512 -1.0548  1.0965
  970MOL0     H33834  -0.964   8.864  10.234  1.7258  0.7862 -0.4738
  970MOL0     H33835  -0.991   9.022  10.300 -1.2684 -0.1149  0.0561
  970MOL0     H33836  -1.056   8.771  10.463  1.8875  0.4164 -0.7131
  970MOL0     H33837  -1.172   8.859  10.358  0.7220  0.5308 -1.7191
  970MOL0     H33838  -1.169   9.044  10.494 -0.3221  0.2577 -0.8438
  970MOL0     H33839  -1.022   8.991  10.580 -1.6512  0.9696  0.8358
  970MOL0     H33840  -0.205   9.017  10.043  4.4783  1.9657  0.3060
  970MOL0     H33841  -0.045   8.971   9.850 -0.1724  0.1440  0.4296
  970MOL0     H33842   0.396   8.709   9.726 -0.9128  1.0511  0.0138
  970MOL0     H33843   0.523   8.594   9.571  1.6203  0.7570 -1.5523
  970MOL0     H33844   1.318   8.528   9.068  0.2063  0.8614  0.9080
  970MOL0     H33845   1.330   8.676   9.244 -0.5293  0.2852 -0.3039
  970MOL0     H33846   1.438   8.875   9.549 -1.9778  0.2672 -0.0201
  970MOL0     H33847   1.514   9.058   9.679 -1.2794  1.4217  1.1725
  970MOL0     H33848   1.526   9.155  10.121 -1.7375 -1.8011  0.3990
  970MOL0     H33849   1.563   8.976  10.120  1.8178  0.2178  1.8030
  970MOL0     H33850   1.757   9.089  10.172 -1.8092 -2.4828  0.6619
  970MOL0     H33851   1.733   9.214  10.046 -4.9375  0.8803  1.5242
  970MOL0     H33852   1.841   9.063   9.886  2.8031 -1.4774 -0.0769
  970MOL0     H33853   1.922   9.015  10.034 -0.2554 -1.1663  1.3349
  970MOL0     H33854   1.871   8.819   9.926 -0.7085 -2.9290  2.2559
  970MOL0     H33855   1.708   8.860   9.894 -0.1383 -1.4100  0.2631
  970MOL0     H33856   1.708   8.723  10.298  0.0419  0.4589  0.3278
  970MOL0     H33857   1.441   8.834  10.039 -1.1953  2.5108  0.6446
  970MOL0     H33858   1.241   8.572   9.904  0.2210 -3.0377  0.6527
  970MOL0     H33859   1.401   8.511   9.868  1.5516  0.4036  0.4351
  970MOL0     H33860   1.367   8.599  10.020  1.2316 -0.6822 -0.9885
  971MOL0     O33861   2.788   2.360   0.338  0.0158 -0.1007  0.0679
  971MOL0     C33862   2.768   2.347   0.458 -0.2434  0.5179 -0.0208
  971MOL0     O33863   2.690   2.427   0.540  0.4900 -0.7630 -0.4915
  971MOL0     C33864   2.665   2.562   0.523 -0.0828  0.0861 -0.0410
  971MOL0     C33865   2.759   2.658   0.480  0.3793 -0.6992 -0.7961
  971MOL0     C33866   2.732   2.793   0.467  0.3674  1.5477  0.2584
  971MOL0     C33867   2.596   2.833   0.498  0.0123 -0.8925 -0.4176
  971MOL0     O33868   2.566   2.970   0.498  0.1187 -0.1620  0.1403
  971MOL0     C33869   2.499   3.016   0.612  0.1897 -0.4769 -1.0341
  971MOL0     C33870   2.492   3.170   0.609 -0.9835 -0.2858  0.4621
  971MOL0     C33871   2.403   3.218   0.724  0.0506  1.1619 -0.8527
  971MOL0     C33872   2.406   3.369   0.755 -0.1242 -1.2767 -0.4832
  971MOL0     C33873   2.376   3.451   0.641 -0.0784 -0.4601  0.4235
  971MOL0     C33874   2.361   3.599   0.668 -0.4451 -0.8885  0.1980
  971MOL0     C33875   2.291   3.667   0.543 -0.3186  0.7293 -0.3229
  971MOL0     C33876   2.146   3.670   0.565  0.3015 -0.3752  0.4624
  971MOL0     N33877   2.081   3.752   0.461 -0.4438  0.1301  0.7535
  971MOL0     C33878   2.075   3.702   0.333 -0.4287 -0.0818  0.1269
  971MOL0     C33879   1.984   3.771   0.267  0.1971  0.1913 -0.1726
  971MOL0     C33880   1.957   3.755   0.128  0.9866 -0.0855 -0.6634
  971MOL0     C33881   1.813   3.721   0.099  0.1846  0.8208 -0.7822
  971MOL0     C33882   1.763   3.620   0.187 -0.1876  0.0644  0.2002
  971MOL0     C33883   1.625   3.580   0.135  0.1001  1.3843  0.2098
  971MOL0     O33884   1.533   3.695   0.119  0.1257  1.0608  0.1497
  971MOL0     C33885   1.410   3.672   0.060 -0.7816 -0.8918 -0.6987
  971MOL0     C33886   1.333   3.783   0.036  0.0961 -0.4571  0.8110
  971MOL0     C33887   1.196   3.768  -0.009  0.1432 -0.0336 -1.3200
  971MOL0     C33888   1.099   3.880  -0.009  0.4518 -0.4795 -0.3760
  971MOL0     C33889   1.149   3.641  -0.049 -0.9132  0.6180  0.4792
  971MOL0     C33890   1.026   3.605  -0.113  0.2163 -0.0901 -0.6707
  971MOL0     O33891   0.962   3.504  -0.054  0.4678 -0.3899 -0.3256
  971MOL0     C33892   0.865   3.442  -0.129 -0.2155  0.0326  0.9283
  971MOL0     C33893   0.743   3.517  -0.148  0.6925 -0.2584 -0.4534
  971MOL0     C33894   0.644   3.461  -0.227 -0.1085  0.1420 -0.3561
  971MOL0     C33895   0.652   3.332  -0.285  0.3932 -0.1306  0.6038
  971MOL0     O33896   0.552   3.275  -0.363 -0.4857  0.2614 -0.0669
  971MOL0     C33897   0.417   3.326  -0.335  0.3943  0.5013  0.4827
  971MOL0     C33898   0.306   3.212  -0.366 -0.0741 -0.3371  0.1711
  971MOL0     C33899   0.328   3.151  -0.509  0.3582 -0.1238  0.0084
  971MOL0     C33900   0.214   3.042  -0.541  0.8158 -0.6123 -0.4757
  971MOL0     C33901   0.220   2.986  -0.686 -0.1624 -0.0994 -0.1437
  971MOL0     C33902   0.357   2.922  -0.712 -0.0076  0.2189 -0.7437
  971MOL0     C33903   0.359   2.857  -0.844  0.1050  0.4753  0.1925
  971MOL0     C33904   0.434   2.721  -0.845  0.7857  0.1886 -0.7752
  971MOL0    Cl33905   0.439   2.661  -1.010 -0.5878 -0.1450  0.1781
  971MOL0     C33906   0.764   3.253  -0.248 -0.6159  1.2766 -0.8298
  971MOL0     C33907   0.867   3.308  -0.167 -0.1850  0.0179  0.8226
  971MOL0     O33908   1.001   3.651  -0.219 -0.3129 -0.8281  0.8674
  971MOL0     C33909   1.245   3.534  -0.036  0.5628  1.1835 -0.7038
  971MOL0     C33910   1.371   3.540   0.016  0.1796 -1.0580 -0.9788
  971MOL0     N33911   1.936   3.879   0.350 -0.0286  0.0471  0.5673
  971MOL0     N33912   2.001   3.862   0.462 -0.3550  0.8401 -0.3089
  971MOL0     C33913   2.497   2.738   0.529  0.3502 -0.1951 -0.8743
  971MOL0     C33914   2.527   2.600   0.539  0.4433  0.6354  0.9021
  971MOL0     C33915   2.810   2.219   0.517  0.6852  0.1473 -0.8507
  971MOL0     C33916   2.733   2.149   0.620  0.1536  0.3217 -0.8062
  971MOL0     C33917   2.781   2.028   0.667  0.4130  0.5439 -0.4853
  971MOL0     C33918   2.897   1.958   0.621  1.2747 -0.6272 -1.1518
  971MOL0     O33919   2.927   1.838   0.666 -1.0080  0.8336  0.1583
  971MOL0     C33920   3.065   1.798   0.654  0.1226  1.0001 -0.4278
  971MOL0     C33921   3.055   1.665   0.718 -0.6852 -0.7836 -0.3539
  971MOL0     C33922   3.044   1.656   0.872  0.0213  0.3219  1.1646
  971MOL0     C33923   3.151   1.736   0.941  0.0710 -0.2881  0.0846
  971MOL0     C33924   3.188   1.697   1.082  0.2160 -0.5362  0.1776
  971MOL0     C33925   3.236   1.656   1.183  0.2478 -0.3092 -0.1287
  971MOL0     C33926   2.967   2.024   0.524 -0.1672 -0.3724  0.6866
  971MOL0     C33927   2.931   2.152   0.472 -0.3028 -0.0033 -0.5651
  971MOL0     C33928   3.019   2.200   0.359  0.3545 -0.5190 -0.6735
  971MOL0     H33929   2.860   2.621   0.461  1.6828  2.5772 -0.9082
  971MOL0     H33930   2.809   2.854   0.421  0.6035  1.9210  1.1303
  971MOL0     H33931   2.558   2.983   0.698  0.0531 -0.6865 -1.0210
  971MOL0     H33932   2.401   2.969   0.625  0.7526 -0.8982  3.4444
  971MOL0     H33933   2.590   3.219   0.620  0.3077 -2.7903  0.8720
  971MOL0     H33934   2.446   3.204   0.516 -2.6513  0.9539  1.6797
  971MOL0     H33935   2.298   3.195   0.702 -1.0887  0.3691  4.1442
  971MOL0     H33936   2.431   3.157   0.810 -0.2471  2.0631 -0.1040
  971MOL0     H33937   2.334   3.387   0.835  1.9123  1.4772  0.9215
  971MOL0     H33938   2.498   3.412   0.796 -1.1199  0.7194 -0.2143
  971MOL0     H33939   2.297   3.406   0.580  0.7331 -2.0724  0.4951
  971MOL0     H33940   2.464   3.454   0.577 -0.6429  2.2012 -0.3366
  971MOL0     H33941   2.310   3.628   0.761  0.6203  0.2781  0.4457
  971MOL0     H33942   2.459   3.647   0.682 -0.5435  0.7230 -3.4548
  971MOL0     H33943   2.315   3.619   0.448  6.5586  0.8226  0.8867
  971MOL0     H33944   2.332   3.768   0.544  0.3130  0.5059  1.9735
  971MOL0     H33945   2.113   3.565   0.561 -2.0090  0.1317  3.2479
  971MOL0     H33946   2.128   3.718   0.662 -0.5371  0.5606 -0.1418
  971MOL0     H33947   2.121   3.612   0.294  0.0636 -0.1920  0.9297
  971MOL0     H33948   2.018   3.674   0.086  2.0042  0.6723 -0.6869
  971MOL0     H33949   1.976   3.847   0.072  0.9900  1.1556  1.3040
  971MOL0     H33950   1.753   3.812   0.104  0.5326  0.9890  0.8468
  971MOL0     H33951   1.805   3.681  -0.002 -0.9295  0.9851 -0.7644
  971MOL0     H33952   1.825   3.532   0.167 -1.7147 -0.5505 -2.2990
  971MOL0     H33953   1.772   3.646   0.292 -2.7517  1.7002  0.1014
  971MOL0     H33954   1.636   3.521   0.044 -1.4994 -0.9415  1.4176
  971MOL0     H33955   1.576   3.507   0.200  3.5187  0.2282  1.7034
  971MOL0     H33956   1.381   3.878   0.055 -0.6110  0.4312 -1.5006
  971MOL0     H33957   1.149   3.970  -0.047  1.3665  0.0652  1.9789
  971MOL0     H33958   1.058   3.909   0.088 -1.7840  1.2809 -1.7424
  971MOL0     H33959   1.008   3.864  -0.068 -0.9036  0.2347  1.4221
  971MOL0     H33960   0.735   3.618  -0.108  0.9868 -0.3123 -0.2522
  971MOL0     H33961   0.556   3.518  -0.255 -1.0787  1.1721  4.1082
  971MOL0     H33962   0.412   3.352  -0.229  2.3202  1.1545  0.4512
  971MOL0     H33963   0.406   3.411  -0.403  2.6920 -0.3302 -1.0589
  971MOL0     H33964   0.328   3.137  -0.290 -0.8057 -0.0465  0.6853
  971MOL0     H33965   0.212   3.265  -0.350 -1.3007 -2.4795  0.3886
  971MOL0     H33966   0.423   3.097  -0.513  0.4774  0.1119 -4.0368
  971MOL0     H33967   0.324   3.230  -0.584  2.1287  3.0162  2.9603
  971MOL0     H33968   0.120   3.097  -0.529  2.3047  1.5977  2.0126
  971MOL0     H33969   0.222   2.956  -0.474 -2.2258 -1.2744 -0.8356
  971MOL0     H33970   0.149   2.903  -0.690 -3.4208  2.4380  0.0403
  971MOL0     H33971   0.187   3.068  -0.751 -2.1674  0.6669  1.6966
  971MOL0     H33972   0.373   2.850  -0.631 -0.3926  2.8658  1.8503
  971MOL0     H33973   0.441   2.992  -0.717 -1.6527  2.2720 -0.8190
  971MOL0     H33974   0.394   2.923  -0.924 -0.9760  0.6290 -0.1746
  971MOL0     H33975   0.255   2.842  -0.873 -0.5998  0.8893  2.3357
  971MOL0     H33976   0.382   2.650  -0.780  0.9569 -0.1003 -0.9470
  971MOL0     H33977   0.538   2.733  -0.814  1.1821  0.6649 -2.1780
  971MOL0     H33978   0.752   3.150  -0.279  0.8538  0.5970  0.7288
  971MOL0     H33979   0.943   3.245  -0.123 -0.2200 -0.0569  0.7765
  971MOL0     H33980   1.221   3.440  -0.083 -0.6010  0.9365  0.3270
  971MOL0     H33981   1.430   3.452   0.039 -0.1469 -0.5993  1.9811
  971MOL0     H33982   2.393   2.767   0.546  0.7060  0.0739  1.1504
  971MOL0     H33983   2.447   2.535   0.572 -0.8530  3.2066  3.1421
  971MOL0     H33984   2.641   2.188   0.663  0.1927 -1.9944  1.6684
  971MOL0     H33985   2.714   1.972   0.732 -0.1703 -0.5450 -1.9462
  971MOL0     H33986   3.086   1.784   0.547  0.6381  3.1410 -0.6611
  971MOL0     H33987   3.135   1.872   0.693  0.9196 -0.1532  0.3801
  971MOL0     H33988   3.148   1.610   0.700 -1.1697 -2.5449  1.9547
  971MOL0     H33989   2.979   1.599   0.675  0.6490 -0.7876 -2.8925
  971MOL0     H33990   2.942   1.683   0.900 -1.1083 -0.9631 -1.3907
  971MOL0     H33991   3.048   1.552   0.905 -0.8512 -0.7082 -1.7120
  971MOL0     H33992   3.112   1.838   0.945  0.5999 -0.1041  0.7950
  971MOL0     H33993   3.248   1.747   0.892  0.0189  2.9711  0.4817
  971MOL0     H33994   3.275   1.613   1.273 -1.4664 -1.5098  0.0881
  971MOL0     H33995   3.063   1.986   0.492  0.4071 -0.3461  2.2957
  971MOL0     H33996   3.074   2.290   0.386 -0.2223 -0.2611 -0.3513
  971MOL0     H33997   3.097   2.133   0.321  0.5414 -0.2789 -0.7124
  971MOL0     H33998   2.966   2.233   0.269 -1.9728  0.7598  1.0571
  972MOL0     O33999   3.672   9.418   0.196 -0.8751  0.8862  0.0966
  972MOL0     C34000   3.591   9.340   0.242  0.6236  0.7110  0.2492
  972MOL0     O34001   3.569   9.223   0.181  0.1841  0.2220 -0.4533
  972MOL0     C34002   3.445   9.156   0.199  0.2808  0.0437 -0.3122
  972MOL0     C34003   3.433   9.046   0.288 -0.2618  0.1599  0.1016
  972MOL0     C34004   3.308   8.976   0.294 -0.8132  0.3983 -0.0441
  972MOL0     C34005   3.202   9.004   0.212 -1.2110  0.8474  0.2404
  972MOL0     O34006   3.099   8.912   0.191 -0.0928  0.3376  0.5926
  972MOL0     C34007   3.134   8.806   0.101  0.3521 -0.4685  0.4368
  972MOL0     C34008   3.022   8.751   0.015  0.1328 -1.1868 -0.0494
  972MOL0     C34009   3.000   8.853  -0.102 -0.0644 -0.4861  0.6186
  972MOL0     C34010   2.918   8.978  -0.066 -0.0115  0.9815  0.5649
  972MOL0     C34011   2.936   9.092  -0.166  0.8483 -0.3700  0.3593
  972MOL0     C34012   2.888   9.047  -0.302 -0.5192 -0.6966  0.2200
  972MOL0     C34013   2.883   9.152  -0.411 -0.2459 -0.0403  1.1786
  972MOL0     C34014   2.778   9.258  -0.382 -0.5447 -0.4661 -0.5084
  972MOL0     N34015   2.787   9.348  -0.497  0.4547 -0.4998  0.6219
  972MOL0     C34016   2.864   9.462  -0.492 -1.2083  0.1439 -0.6251
  972MOL0     C34017   2.817   9.545  -0.588  0.3637 -0.3179  0.7137
  972MOL0     C34018   2.881   9.671  -0.621  0.3225  0.6600  0.1974
  972MOL0     C34019   2.914   9.682  -0.773  0.2637 -0.6062 -0.6092
  972MOL0     C34020   2.997   9.566  -0.820 -0.1241 -1.1708  0.3291
  972MOL0     C34021   3.005   9.554  -0.973  0.1097  0.0800 -0.1166
  972MOL0     O34022   3.101   9.459  -1.019 -0.4282  0.4327  0.3073
  972MOL0     C34023   3.066   9.329  -1.034  0.4927  0.4568  0.1327
  972MOL0     C34024   2.962   9.259  -0.964  0.5224 -0.4227  0.0194
  972MOL0     C34025   2.917   9.130  -1.001 -0.9643 -0.3557 -0.5256
  972MOL0     C34026   2.798   9.068  -0.925  1.2149  0.2794  0.4775
  972MOL0     C34027   2.990   9.058  -1.099 -0.4209 -0.2895  0.3830
  972MOL0     C34028   2.944   8.923  -1.143 -0.5191  1.4764 -0.6252
  972MOL0     O34029   2.935   8.818  -1.046 -0.3732  0.2423 -0.7908
  972MOL0     C34030   2.881   8.692  -1.079 -0.2068  0.6513 -0.7988
  972MOL0     C34031   2.746   8.693  -1.136 -0.3661  0.4013  0.5695
  972MOL0     C34032   2.677   8.567  -1.153 -0.9052 -0.3770  1.1511
  972MOL0     C34033   2.743   8.449  -1.123 -0.2554 -0.3221 -0.3663
  972MOL0     O34034   2.670   8.332  -1.143  0.2712  0.1749  0.2878
  972MOL0     C34035   2.688   8.283  -1.275 -0.4486 -1.0223 -0.7911
  972MOL0     C34036   2.597   8.157  -1.297 -0.7043  0.2399 -0.6960
  972MOL0     C34037   2.453   8.196  -1.328 -0.4509 -0.4000 -0.6061
  972MOL0     C34038   2.367   8.085  -1.384 -1.0549 -0.8222 -0.6864
  972MOL0     C34039   2.395   8.065  -1.535  0.2366  0.1684  0.0670
  972MOL0     C34040   2.322   8.168  -1.624 -0.4775 -0.2679  0.1695
  972MOL0     C34041   2.298   8.107  -1.764  0.0396 -0.3259 -0.3591
  972MOL0     C34042   2.239   8.211  -1.862 -0.1190 -0.4834 -0.1811
  972MOL0    Cl34043   2.059   8.229  -1.824 -0.3316  0.1643 -0.5456
  972MOL0     C34044   2.870   8.447  -1.065  1.1848  0.5150  0.9082
  972MOL0     C34045   2.940   8.570  -1.048  0.6164 -0.1584 -0.0851
  972MOL0     O34046   2.950   8.906  -1.263 -0.4194 -0.3297 -0.6717
  972MOL0     C34047   3.088   9.125  -1.170 -0.3892  0.2255 -0.5219
  972MOL0     C34048   3.121   9.262  -1.140 -0.4359  1.0429 -1.2010
  972MOL0     N34049   2.713   9.482  -0.653  0.0924 -0.5448 -0.1697
  972MOL0     N34050   2.693   9.371  -0.589  0.2606  0.2776  0.4723
  972MOL0     C34051   3.220   9.115   0.123 -0.4405  0.1588  0.7891
  972MOL0     C34052   3.341   9.195   0.125 -0.5806  0.1927 -0.1231
  972MOL0     C34053   3.484   9.389   0.331 -0.5024 -0.9203  0.1775
  972MOL0     C34054   3.371   9.450   0.292  0.3417 -0.1556 -0.2276
  972MOL0     C34055   3.273   9.481   0.392  0.2377  0.4972  0.3785
  972MOL0     C34056   3.298   9.480   0.527  0.1031  0.0148 -0.8972
  972MOL0     O34057   3.206   9.518   0.627  0.0628 -0.0549  0.3481
  972MOL0     C34058   3.141   9.650   0.605  0.1330  0.0010  0.8493
  972MOL0     C34059   3.049   9.694   0.721  0.0660  0.0391  0.8775
  972MOL0     C34060   2.980   9.823   0.687 -0.1233 -0.7920 -0.5597
  972MOL0     C34061   2.893   9.867   0.805 -0.4223  1.3423 -1.3021
  972MOL0     C34062   2.786   9.963   0.749  1.1176  0.2162 -0.1340
  972MOL0     C34063   2.700  10.037   0.710  1.4350 -0.8265  0.6924
  972MOL0     C34064   3.427   9.437   0.562  0.5740  0.0525 -0.1054
  972MOL0     C34065   3.515   9.380   0.469  0.5572 -0.5963  0.3606
  972MOL0     C34066   3.651   9.314   0.522  0.0002  0.4446 -0.1587
  972MOL0     H34067   3.523   9.015   0.340  0.2329 -2.1681 -1.9461
  972MOL0     H34068   3.308   8.884   0.352  2.7624  1.7133  2.3701
  972MOL0     H34069   3.155   8.715   0.159 -1.4730 -1.2642 -0.0765
  972MOL0     H34070   3.222   8.827   0.040 -0.0793  0.2140  0.0424
  972MOL0     H34071   3.041   8.646  -0.010  0.0406 -1.0285 -0.7927
  972MOL0     H34072   2.925   8.747   0.067 -0.1162 -1.4151 -0.5258
  972MOL0     H34073   3.101   8.873  -0.138  0.7631 -1.2637  2.3885
  972MOL0     H34074   2.941   8.801  -0.178 -1.9379  1.2886  0.7857
  972MOL0     H34075   2.810   8.963  -0.057 -0.5234  1.9868 -2.5380
  972MOL0     H34076   2.957   9.011   0.031  3.0402  0.4935 -0.3798
  972MOL0     H34077   3.037   9.134  -0.165 -0.5482  3.3908  1.3343
  972MOL0     H34078   2.863   9.169  -0.138 -0.2839 -1.7346  1.2674
  972MOL0     H34079   2.951   8.963  -0.335  1.1360  0.7532 -0.4521
  972MOL0     H34080   2.783   9.019  -0.287 -0.8476  2.0820  4.7625
  972MOL0     H34081   2.844   9.098  -0.497  1.1411  0.9241 -0.0930
  972MOL0     H34082   2.980   9.195  -0.434  0.4105 -1.2260  1.6182
  972MOL0     H34083   2.685   9.203  -0.364 -1.2256  0.7603 -0.2165
  972MOL0     H34084   2.806   9.319  -0.295 -3.0326  0.1547 -0.0843
  972MOL0     H34085   2.950   9.480  -0.428 -1.5588  2.4620 -0.7182
  972MOL0     H34086   2.973   9.676  -0.563 -0.3454  0.6509  1.2811
  972MOL0     H34087   2.807   9.746  -0.591  0.1587  0.7515 -0.4134
  972MOL0     H34088   2.822   9.677  -0.832  0.6913 -1.3795 -1.2268
  972MOL0     H34089   2.966   9.775  -0.799 -1.0112  0.2585 -0.1781
  972MOL0     H34090   3.100   9.581  -0.787  1.0534 -5.4176 -0.7511
  972MOL0     H34091   2.961   9.471  -0.779 -1.7850 -1.3811 -1.4608
  972MOL0     H34092   2.909   9.540  -1.023  0.6922  2.0529 -1.9033
  972MOL0     H34093   3.038   9.650  -1.014  2.0339 -1.7153 -3.1589
  972MOL0     H34094   2.900   9.314  -0.895 -0.5684 -0.9932 -0.4832
  972MOL0     H34095   2.796   8.960  -0.907  0.2121 -0.1741 -2.0337
  972MOL0     H34096   2.711   9.084  -0.989 -0.8052 -0.9478  2.7435
  972MOL0     H34097   2.765   9.120  -0.834  4.1949 -0.1085  1.9119
  972MOL0     H34098   2.705   8.790  -1.161 -1.1161 -0.1826 -0.5318
  972MOL0     H34099   2.579   8.576  -1.199 -0.8379  2.0687  1.3761
  972MOL0     H34100   2.670   8.359  -1.352 -0.6317  0.6692  0.8557
  972MOL0     H34101   2.794   8.257  -1.279 -0.6973 -2.1671 -0.2126
  972MOL0     H34102   2.631   8.114  -1.391 -0.0553  0.6285 -0.6454
  972MOL0     H34103   2.609   8.080  -1.221  1.6630  1.9630  0.8436
  972MOL0     H34104   2.454   8.279  -1.398  0.1960  0.6510  0.6005
  972MOL0     H34105   2.411   8.223  -1.231  4.4219  0.5238  1.5392
  972MOL0     H34106   2.260   8.100  -1.368 -1.4708 -0.8957 -3.0106
  972MOL0     H34107   2.381   7.997  -1.321  0.2491 -0.4309 -0.4010
  972MOL0     H34108   2.502   8.065  -1.556  0.3318 -2.2609  0.1873
  972MOL0     H34109   2.352   7.965  -1.548  0.3649 -0.3026  2.6961
  972MOL0     H34110   2.382   8.260  -1.630 -2.1271  0.7847 -1.3093
  972MOL0     H34111   2.221   8.187  -1.586 -0.9273 -1.7559 -0.2448
  972MOL0     H34112   2.224   8.029  -1.743 -1.4716  1.1917  0.2392
  972MOL0     H34113   2.392   8.068  -1.803 -0.6891 -0.6275 -1.8777
  972MOL0     H34114   2.256   8.184  -1.967 -4.2069  1.1575 -1.4700
  972MOL0     H34115   2.284   8.310  -1.854 -1.4563  0.2100 -0.8038
  972MOL0     H34116   2.916   8.351  -1.045 -0.6251 -1.5156 -3.3251
  972MOL0     H34117   3.041   8.565  -1.009 -1.0123  1.0393  4.9637
  972MOL0     H34118   3.153   9.079  -1.244  0.8983  0.2304  0.5712
  972MOL0     H34119   3.208   9.309  -1.186 -2.5151  4.3875 -2.0202
  972MOL0     H34120   3.149   9.125   0.040  0.5634 -1.0856 -0.2619
  972MOL0     H34121   3.339   9.269   0.045  0.0057  0.3945  0.0437
  972MOL0     H34122   3.340   9.464   0.189 -1.4066  1.2761  0.4256
  972MOL0     H34123   3.180   9.525   0.357  0.1913  0.1969  0.1236
  972MOL0     H34124   3.214   9.731   0.592 -0.5456  0.5083  0.1227
  972MOL0     H34125   3.079   9.643   0.515 -3.0680 -0.0533  2.9406
  972MOL0     H34126   3.102   9.716   0.814  2.9174 -0.1685 -0.5847
  972MOL0     H34127   2.979   9.612   0.739 -1.8092  1.7358  1.6608
  972MOL0     H34128   3.056   9.902   0.677 -0.0193 -0.6390  1.1272
  972MOL0     H34129   2.920   9.817   0.596 -0.2021  0.7555 -0.6369
  972MOL0     H34130   2.954   9.910   0.884 -0.5744 -0.7289  0.0035
  972MOL0     H34131   2.836   9.781   0.842 -1.9080  3.1599  0.8702
  972MOL0     H34132   2.625  10.108   0.680  0.9271 -1.5397  0.2441
  972MOL0     H34133   3.460   9.445   0.665 -0.4414  1.0600  0.1492
  972MOL0     H34134   3.727   9.291   0.446  0.5693 -0.2353  0.5936
  972MOL0     H34135   3.701   9.397   0.575 -1.0037  2.4270 -2.1609
  972MOL0     H34136   3.631   9.229   0.588  1.8175 -0.1524 -0.3235
  973MOL0     O34137   9.955   7.479   1.123 -1.0119 -0.0575  0.4365
  973MOL0     C34138   9.851   7.458   1.069  0.3981 -0.3794  1.0201
  973MOL0     O34139   9.795   7.540   0.980  0.3606 -0.1126  0.6807
  973MOL0     C34140   9.833   7.674   0.975  0.1721  0.0100  0.1648
  973MOL0     C34141   9.886   7.723   0.855 -0.3968 -0.7145 -0.5289
  973MOL0     C34142   9.927   7.857   0.840  0.4172  0.5468  0.9828
  973MOL0     C34143   9.908   7.937   0.950 -0.4062  0.1191 -0.2902
  973MOL0     O34144   9.951   8.066   0.934  1.0296 -0.4846 -0.0439
  973MOL0     C34145  10.044   8.105   1.031 -0.5017  0.0735 -0.5723
  973MOL0     C34146  10.103   8.238   0.989 -0.4709 -0.0765  0.8708
  973MOL0     C34147  10.259   8.251   1.013  0.1426 -0.7269  0.5753
  973MOL0     C34148  10.304   8.323   1.151  0.1497 -0.4269  0.5554
  973MOL0     C34149  10.260   8.471   1.169  0.7696  0.3374 -0.2378
  973MOL0     C34150  10.291   8.522   1.308 -0.6298 -0.3682  0.1062
  973MOL0     C34151  10.440   8.556   1.324 -0.0909  0.1871 -0.7770
  973MOL0     C34152  10.492   8.671   1.238 -0.1584  0.4096  0.0627
  973MOL0     N34153  10.407   8.790   1.218 -0.1306 -0.3288 -0.3061
  973MOL0     C34154  10.419   8.909   1.290 -0.2585  0.2942  0.5173
  973MOL0     C34155  10.339   8.991   1.224 -0.6032  0.1956  0.5724
  973MOL0     C34156  10.324   9.134   1.269  0.3168 -0.1192  0.1573
  973MOL0     C34157  10.236   9.129   1.406 -0.5226 -0.2852 -0.2239
  973MOL0     C34158  10.100   9.067   1.370  0.0625  0.1141  0.0395
  973MOL0     C34159   9.994   9.109   1.480  0.6777 -0.4505  0.0520
  973MOL0     O34160  10.034   9.079   1.611 -0.4601  0.5423  0.5567
  973MOL0     C34161  10.006   8.951   1.639  0.2436 -0.1044 -0.4988
  973MOL0     C34162  10.110   8.855   1.636 -0.0528  0.8404  1.3812
  973MOL0     C34163  10.095   8.716   1.679 -0.4131 -0.7318 -1.2294
  973MOL0     C34164  10.221   8.630   1.659  0.5739  0.1929 -0.3717
  973MOL0     C34165   9.968   8.668   1.729 -0.0601  0.1816  1.6728
  973MOL0     C34166   9.941   8.529   1.758 -0.2033 -0.4365 -0.5944
  973MOL0     O34167  10.045   8.460   1.793  0.0468  0.1695  0.5007
  973MOL0     C34168  10.033   8.351   1.880  0.4292  0.4101 -0.1494
  973MOL0     C34169  10.070   8.349   2.015  0.1142  0.2612  0.4143
  973MOL0     C34170  10.065   8.231   2.093 -0.6456  0.0962  0.3060
  973MOL0     C34171  10.010   8.117   2.028 -0.0973  0.0009  0.2241
  973MOL0     O34172  10.010   7.990   2.080  0.0640  0.7914 -0.2170
  973MOL0     C34173  10.132   7.931   2.134  0.1005 -1.1321 -0.4194
  973MOL0     C34174  10.120   7.777   2.155 -0.9596 -0.1940  1.2308
  973MOL0     C34175  10.249   7.705   2.186 -0.0336 -0.2794 -1.2279
  973MOL0     C34176  10.283   7.729   2.335  0.4316 -0.2421  0.1977
  973MOL0     C34177  10.359   7.610   2.398 -0.0863  0.4023  0.0529
  973MOL0     C34178  10.368   7.611   2.552  0.0928 -0.4606  1.2831
  973MOL0     C34179  10.477   7.521   2.606 -0.2887 -0.4842  0.2027
  973MOL0     C34180  10.506   7.548   2.756 -0.3856 -0.5908 -0.2540
  973MOL0    Cl34181  10.546   7.723   2.767 -0.2991 -0.0491 -0.1536
  973MOL0     C34182   9.962   8.124   1.894  0.4837 -0.0904 -0.2811
  973MOL0     C34183   9.974   8.236   1.819 -0.2037 -0.8162  1.1506
  973MOL0     O34184   9.829   8.483   1.743 -0.8503  0.6681 -0.0257
  973MOL0     C34185   9.863   8.764   1.717 -0.7474  0.2384 -0.6655
  973MOL0     C34186   9.884   8.902   1.693  0.7226  0.1871  1.3598
  973MOL0     N34187  10.277   8.928   1.116 -0.6191  0.8328  0.2944
  973MOL0     N34188  10.327   8.806   1.104 -0.7009  0.2378 -0.1718
  973MOL0     C34189   9.838   7.895   1.070  1.3602 -0.2289  0.2487
  973MOL0     C34190   9.801   7.759   1.082  0.1507  0.1929 -0.4322
  973MOL0     C34191   9.775   7.328   1.104  0.8045  0.2977  0.3853
  973MOL0     C34192   9.635   7.342   1.122  0.2436 -0.1260  0.4501
  973MOL0     C34193   9.553   7.239   1.174 -0.5542  0.0724  0.5582
  973MOL0     C34194   9.615   7.109   1.200 -0.6139  0.3316  0.3210
  973MOL0     O34195   9.535   7.013   1.255  0.4890  0.9182 -0.7178
  973MOL0     C34196   9.587   6.880   1.266  0.2501  0.5246 -0.0596
  973MOL0     C34197   9.488   6.788   1.337 -0.3062 -0.2543  0.5042
  973MOL0     C34198   9.356   6.767   1.265 -0.1463  0.7513  0.0027
  973MOL0     C34199   9.285   6.654   1.346 -0.0963  0.6072  0.4562
  973MOL0     C34200   9.166   6.610   1.260 -0.0910  0.0717  0.4580
  973MOL0     C34201   9.082   6.568   1.187 -0.0728 -0.2199 -0.5244
  973MOL0     C34202   9.759   7.099   1.171 -0.6073 -0.2404 -0.5407
  973MOL0     C34203   9.833   7.203   1.117 -0.0621 -0.7006  0.0225
  973MOL0     C34204   9.984   7.176   1.115 -0.5522 -0.2431  0.5133
  973MOL0     H34205   9.915   7.657   0.774  2.8409  1.1791 -1.0917
  973MOL0     H34206   9.962   7.888   0.742 -3.3569 -1.7690 -1.3972
  973MOL0     H34207  10.122   8.030   1.047  1.1052  1.8617  0.3526
  973MOL0     H34208   9.998   8.114   1.129 -0.5946  1.3881 -0.7092
  973MOL0     H34209  10.101   8.250   0.880  1.3488 -3.0662  0.3927
  973MOL0     H34210  10.054   8.321   1.041  0.8295  2.0136 -1.0313
  973MOL0     H34211  10.294   8.147   1.014 -2.4576 -1.6967  0.3940
  973MOL0     H34212  10.303   8.296   0.923  1.9519 -2.0167  0.7597
  973MOL0     H34213  10.259   8.259   1.228  0.2687 -0.2434  0.7782
  973MOL0     H34214  10.413   8.311   1.160  0.1550 -3.0627 -1.6471
  973MOL0     H34215  10.152   8.483   1.153  0.5659  0.7084  1.2116
  973MOL0     H34216  10.307   8.534   1.093 -1.6856  1.4053 -0.9930
  973MOL0     H34217  10.229   8.600   1.352  1.0694  0.8716  0.3981
  973MOL0     H34218  10.269   8.436   1.372  0.8532 -2.1283 -1.5992
  973MOL0     H34219  10.500   8.466   1.307 -0.6607  0.0660 -2.3564
  973MOL0     H34220  10.449   8.582   1.430 -3.3349  0.2758 -0.4160
  973MOL0     H34221  10.583   8.718   1.276  0.1228  1.7129 -2.0441
  973MOL0     H34222  10.518   8.637   1.137 -1.4924 -1.5584  0.3171
  973MOL0     H34223  10.487   8.934   1.371 -1.3144  1.4470  1.0783
  973MOL0     H34224  10.259   9.187   1.199 -1.7396 -1.1502  1.1747
  973MOL0     H34225  10.421   9.184   1.264  0.0268  0.3564 -1.1191
  973MOL0     H34226  10.297   9.079   1.482 -0.3116  0.5472  0.1726
  973MOL0     H34227  10.227   9.230   1.448  2.1540 -1.1132  2.6862
  973MOL0     H34228  10.064   9.103   1.273 -0.6687  2.1263  0.9815
  973MOL0     H34229  10.101   8.958   1.368 -0.5419  0.1148 -0.8069
  973MOL0     H34230   9.970   9.213   1.459  0.0879 -0.9468 -2.0572
  973MOL0     H34231   9.902   9.052   1.461  1.4275 -3.3355  3.9298
  973MOL0     H34232  10.208   8.881   1.596 -0.0441 -2.4680 -1.0725
  973MOL0     H34233  10.192   8.539   1.607 -4.1361  0.7098  0.8901
  973MOL0     H34234  10.258   8.598   1.757 -3.0448  3.0459  2.2621
  973MOL0     H34235  10.298   8.688   1.608 -1.1746  2.3671 -0.7295
  973MOL0     H34236  10.125   8.433   2.056 -0.3154  0.4606  0.6013
  973MOL0     H34237  10.101   8.223   2.195 -0.5881  2.2067  0.4921
  973MOL0     H34238  10.226   7.963   2.088  1.1576 -3.1070  0.2208
  973MOL0     H34239  10.141   7.983   2.229  2.3375  0.8803 -1.6170
  973MOL0     H34240  10.038   7.765   2.225 -0.9350 -1.8995  1.0082
  973MOL0     H34241  10.087   7.738   2.058  2.5782 -0.4929 -0.0174
  973MOL0     H34242  10.330   7.742   2.122  0.1769  0.6339 -0.4541
  973MOL0     H34243  10.239   7.598   2.164  0.6026 -0.4689 -0.6464
  973MOL0     H34244  10.186   7.738   2.386  0.8748 -0.5832  1.1292
  973MOL0     H34245  10.351   7.813   2.350  0.5253 -0.6917  2.6798
  973MOL0     H34246  10.310   7.516   2.370 -1.1121  0.9323  0.0397
  973MOL0     H34247  10.460   7.608   2.355  0.0289  0.6857  0.3137
  973MOL0     H34248  10.279   7.574   2.603  0.6954 -1.6372  1.5393
  973MOL0     H34249  10.375   7.716   2.580  1.6345  1.4784 -4.8742
  973MOL0     H34250  10.575   7.535   2.558  0.3668 -2.0004  1.0497
  973MOL0     H34251  10.453   7.416   2.588  1.7075 -0.4599 -3.7152
  973MOL0     H34252  10.595   7.495   2.790 -0.4281 -0.6028 -0.1590
  973MOL0     H34253  10.427   7.523   2.828 -0.3648 -0.5441 -0.2153
  973MOL0     H34254   9.923   8.032   1.852 -2.5477 -0.9063  3.6912
  973MOL0     H34255   9.935   8.233   1.718 -0.8047  0.5189  1.3275
  973MOL0     H34256   9.766   8.727   1.749  0.0698 -2.8315 -1.4692
  973MOL0     H34257   9.809   8.977   1.717 -0.1550  0.2727 -1.3023
  973MOL0     H34258   9.832   7.961   1.156 -1.7291  2.2398 -1.6314
  973MOL0     H34259   9.742   7.715   1.161  1.1340  0.8414  0.6990
  973MOL0     H34260   9.583   7.435   1.103 -1.4862 -1.4645 -1.9920
  973MOL0     H34261   9.447   7.256   1.181 -0.1038  2.7655  2.1137
  973MOL0     H34262   9.600   6.838   1.165 -1.4683 -0.0776 -0.0718
  973MOL0     H34263   9.688   6.878   1.306  0.0763  1.0633  0.4145
  973MOL0     H34264   9.472   6.819   1.441  1.2363 -0.1137  0.7348
  973MOL0     H34265   9.535   6.689   1.339  2.1711  0.8345  3.3513
  973MOL0     H34266   9.286   6.852   1.270  0.7778  1.4955  0.6438
  973MOL0     H34267   9.376   6.748   1.159 -4.7300 -0.9853 -0.8013
  973MOL0     H34268   9.239   6.704   1.431 -0.9171  3.1357 -1.3425
  973MOL0     H34269   9.351   6.576   1.387  1.5489  1.6495 -0.1077
  973MOL0     H34270   9.001   6.539   1.124 -1.8402  1.5610  0.8217
  973MOL0     H34271   9.808   7.013   1.216  0.0865  0.9545  1.0793
  973MOL0     H34272   9.991   7.079   1.066  0.3974  1.0547 -2.1077
  973MOL0     H34273  10.041   7.253   1.062 -0.9739  0.1039  0.5548
  973MOL0     H34274  10.016   7.162   1.219  1.9982 -0.2209 -0.1914
  974MOL0     O34275   8.917   9.238   5.837  0.0888 -0.2664  0.0565
  974MOL0     C34276   8.899   9.174   5.940 -0.6765 -0.6511  0.8856
  974MOL0     O34277   8.964   9.194   6.058 -0.0943  0.0669  0.0361
  974MOL0     C34278   9.033   9.316   6.061  0.0681  1.2472  0.2892
  974MOL0     C34279   8.966   9.438   6.085  0.4575 -0.1182  1.9315
  974MOL0     C34280   9.036   9.556   6.085  0.3143 -0.4494 -0.5313
  974MOL0     C34281   9.170   9.567   6.065 -0.0630  0.2783  0.7768
  974MOL0     O34282   9.231   9.691   6.063 -0.4961  0.0774 -0.1466
  974MOL0     C34283   9.372   9.692   6.073 -0.3612  0.1031 -0.3620
  974MOL0     C34284   9.430   9.830   6.074 -0.2678 -1.2915  0.1075
  974MOL0     C34285   9.381   9.916   5.953  0.6813  0.3986 -0.4761
  974MOL0     C34286   9.411  10.066   5.978  0.5672  0.7210 -0.4896
  974MOL0     C34287   9.392  10.156   5.855  0.3761 -0.2306 -0.1668
  974MOL0     C34288   9.500  10.140   5.752 -0.8252  0.0025 -0.3084
  974MOL0     C34289   9.489  10.240   5.638 -0.2842  1.0240  0.1026
  974MOL0     C34290   9.624  10.216   5.553  0.5324 -0.4081 -0.7337
  974MOL0     N34291   9.645  10.308   5.445  0.7406 -0.2328  0.4292
  974MOL0     C34292   9.717  10.431   5.451  0.6372  0.8466  0.2764
  974MOL0     C34293   9.675  10.497   5.339 -0.3512 -0.8085  0.3773
  974MOL0     C34294   9.721  10.627   5.288 -0.1995  0.2068  0.9014
  974MOL0     C34295   9.848  10.623   5.203  0.0865  0.0457 -0.2036
  974MOL0     C34296   9.977  10.600   5.277 -0.3019 -0.2435 -0.4841
  974MOL0     C34297  10.101  10.572   5.183  0.2417 -0.2099 -0.1627
  974MOL0     O34298  10.116  10.676   5.090  0.7644  0.5399  0.5953
  974MOL0     C34299  10.203  10.655   4.984  0.4292 -0.6720  1.2020
  974MOL0     C34300  10.219  10.765   4.900  0.2239 -0.0128  0.5170
  974MOL0     C34301  10.303  10.763   4.785  0.4199  1.0638 -1.0301
  974MOL0     C34302  10.291  10.883   4.697  0.1584  0.5105 -0.7359
  974MOL0     C34303  10.397  10.651   4.764 -0.0345  0.5409 -0.4342
  974MOL0     C34304  10.513  10.645   4.670  0.6262 -1.8360  0.3651
  974MOL0     O34305  10.611  10.548   4.682  0.1066  0.6828 -0.4409
  974MOL0     C34306  10.735  10.557   4.613  0.1270 -0.6803  0.0693
  974MOL0     C34307  10.814  10.673   4.615 -0.1842  0.2449 -0.0613
  974MOL0     C34308  10.935  10.675   4.549  0.4719  0.2356  0.5341
  974MOL0     C34309  10.975  10.565   4.476 -0.5490 -0.5739 -0.4145
  974MOL0     O34310  11.096  10.563   4.405  0.1214 -0.0612  0.7874
  974MOL0     C34311  11.204  10.635   4.460 -0.1099 -1.0168  0.5963
  974MOL0     C34312  11.224  10.781   4.392  0.6136 -0.0631 -0.9037
  974MOL0     C34313  11.351  10.837   4.453  1.3463 -0.3040 -1.2104
  974MOL0     C34314  11.477  10.789   4.374  1.4424 -0.0658 -0.3799
  974MOL0     C34315  11.491  10.866   4.237 -0.3027 -0.0544  0.2852
  974MOL0     C34316  11.607  10.804   4.150 -0.0142 -0.4401 -0.1078
  974MOL0     C34317  11.613  10.867   4.011  0.0160  0.4786  0.8167
  974MOL0     C34318  11.690  10.998   3.987  0.1113  1.1818  1.0056
  974MOL0    Cl34319  11.597  11.139   4.057 -0.3059 -0.0164  0.0772
  974MOL0     C34320  10.900  10.457   4.466 -0.5222 -0.3693  0.3294
  974MOL0     C34321  10.780  10.449   4.541  0.0581  0.1941 -0.2862
  974MOL0     O34322  10.527  10.746   4.599 -0.0218 -0.2151 -0.3825
  974MOL0     C34323  10.377  10.546   4.855  0.1695 -0.1502  0.4566
  974MOL0     C34324  10.291  10.545   4.968 -0.0039 -0.2658  0.0847
  974MOL0     N34325   9.569  10.426   5.273 -0.5312  0.2443 -0.4858
  974MOL0     N34326   9.559  10.319   5.337 -0.2216 -0.0832 -0.1421
  974MOL0     C34327   9.236   9.445   6.057 -0.2819  0.3482  0.9794
  974MOL0     C34328   9.174   9.322   6.053  0.5204  0.4189 -0.1912
  974MOL0     C34329   8.776   9.095   5.928  0.3042 -0.1228  0.5074
  974MOL0     C34330   8.653   9.159   5.891  0.1301  0.0530  0.5344
  974MOL0     C34331   8.544   9.076   5.872  0.8141  0.0424 -1.3506
  974MOL0     C34332   8.539   8.944   5.918  1.1845  0.5257 -0.5619
  974MOL0     O34333   8.421   8.870   5.914  0.1940 -0.0262  0.1322
  974MOL0     C34334   8.383   8.838   5.780 -0.5114  0.0937 -0.3677
  974MOL0     C34335   8.449   8.705   5.752 -0.6173 -0.0105  0.8548
  974MOL0     C34336   8.411   8.597   5.858  1.0095  0.7060 -0.0865
  974MOL0     C34337   8.476   8.466   5.824  0.2688 -0.5409 -0.6182
  974MOL0     C34338   8.423   8.391   5.710  0.7742 -0.1762 -0.9986
  974MOL0     C34339   8.386   8.328   5.610  0.6230 -0.0125  0.0750
  974MOL0     C34340   8.651   8.891   5.954 -0.0939  0.2018  0.2200
  974MOL0     C34341   8.772   8.957   5.950 -0.1158 -0.3770 -0.4592
  974MOL0     C34342   8.880   8.889   6.014 -1.0979  0.1713  0.1873
  974MOL0     H34343   8.858   9.449   6.079 -0.0838 -4.5056 -2.0714
  974MOL0     H34344   8.966   9.637   6.102 -0.7110 -1.7903  2.3289
  974MOL0     H34345   9.417   9.646   5.984 -0.5676 -0.1843 -0.3214
  974MOL0     H34346   9.399   9.639   6.165  0.4758  2.8836  1.0812
  974MOL0     H34347   9.380   9.870   6.162 -1.3929 -2.1797 -0.1113
  974MOL0     H34348   9.538   9.847   6.085 -0.4652  0.0559  0.1989
  974MOL0     H34349   9.428   9.882   5.860 -0.9257 -2.5464 -0.3378
  974MOL0     H34350   9.274   9.898   5.935  0.5337 -0.8753  1.4027
  974MOL0     H34351   9.351  10.092   6.066 -0.9315 -0.2144 -1.1923
  974MOL0     H34352   9.515  10.071   6.012  0.4161 -2.5745  0.8979
  974MOL0     H34353   9.380  10.258   5.891 -0.1325  0.3452 -1.8917
  974MOL0     H34354   9.304  10.131   5.796  0.6386  3.3874 -2.3807
  974MOL0     H34355   9.595  10.154   5.804 -1.6329  0.1055  1.2348
  974MOL0     H34356   9.501  10.036   5.718  4.8849 -0.5534  0.6469
  974MOL0     H34357   9.491  10.338   5.685 -1.5946  1.1940 -0.1619
  974MOL0     H34358   9.411  10.223   5.563  1.1605  1.2814 -1.5486
  974MOL0     H34359   9.711  10.223   5.618  2.6438 -0.7319 -3.3681
  974MOL0     H34360   9.626  10.114   5.515  0.2854 -0.4584 -0.6153
  974MOL0     H34361   9.780  10.471   5.530 -1.8263  1.0248  2.2742
  974MOL0     H34362   9.744  10.679   5.382  1.7512 -3.1457  2.4803
  974MOL0     H34363   9.643  10.677   5.230  1.1037 -2.2727 -3.4925
  974MOL0     H34364   9.834  10.542   5.131 -1.3791 -2.8012  2.9936
  974MOL0     H34365   9.851  10.720   5.153 -3.0268 -0.5907 -1.8600
  974MOL0     H34366   9.993  10.688   5.340 -0.1397 -0.6223  0.0073
  974MOL0     H34367   9.977  10.514   5.344  1.1114 -0.0532 -0.2034
  974MOL0     H34368  10.193  10.572   5.243 -1.2103 -3.7700  2.4688
  974MOL0     H34369  10.091  10.472   5.140  2.4888  0.2230 -1.9105
  974MOL0     H34370  10.162  10.855   4.917  1.9149  1.1118  0.5109
  974MOL0     H34371  10.303  10.860   4.591 -0.4370 -0.8574 -0.5217
  974MOL0     H34372  10.378  10.944   4.726 -0.5080  0.6777  1.0393
  974MOL0     H34373  10.195  10.933   4.714 -0.6349 -1.1702 -0.0807
  974MOL0     H34374  10.785  10.767   4.662  2.5168  0.2864  1.7537
  974MOL0     H34375  10.995  10.765   4.556  1.9798 -0.6232 -0.7136
  974MOL0     H34376  11.189  10.651   4.568  1.0408  1.7746  0.4082
  974MOL0     H34377  11.293  10.573   4.448 -1.4763 -2.7173 -1.5653
  974MOL0     H34378  11.236  10.760   4.285  0.6903 -1.5157 -0.6318
  974MOL0     H34379  11.134  10.844   4.394 -1.8040 -3.2577 -1.0986
  974MOL0     H34380  11.368  10.806   4.556 -0.8117  6.9387  2.0063
  974MOL0     H34381  11.342  10.946   4.465  1.8939 -0.2809 -0.9724
  974MOL0     H34382  11.484  10.682   4.354  0.2731 -0.4012  0.8602
  974MOL0     H34383  11.560  10.819   4.439  1.2922 -0.3694 -0.0456
  974MOL0     H34384  11.401  10.868   4.174 -1.8201  0.1130  2.3460
  974MOL0     H34385  11.510  10.972   4.256  3.8140 -0.6116  0.1170
  974MOL0     H34386  11.588  10.696   4.155 -1.5057 -0.1883  0.4029
  974MOL0     H34387  11.700  10.832   4.199  0.6333 -0.5930 -1.2367
  974MOL0     H34388  11.514  10.891   3.971  0.0977  3.8375  2.2780
  974MOL0     H34389  11.664  10.797   3.944  1.5766  0.2974  2.1235
  974MOL0     H34390  11.703  11.015   3.880  1.5862 -1.0685  0.7684
  974MOL0     H34391  11.788  10.999   4.036 -0.2587 -0.9124  1.9282
  974MOL0     H34392  10.935  10.371   4.408  0.9763  1.6359 -1.9672
  974MOL0     H34393  10.712  10.366   4.518  0.4200 -0.6984  1.6388
  974MOL0     H34394  10.450  10.467   4.843  2.6770  2.2210 -1.0153
  974MOL0     H34395  10.289  10.463   5.039 -0.6022  0.2299  0.6594
  974MOL0     H34396   9.344   9.437   6.052 -0.3505 -1.2008  1.2638
  974MOL0     H34397   9.230   9.231   6.034 -3.5206 -2.6589  1.1792
  974MOL0     H34398   8.642   9.264   5.866  2.8438  0.1816 -0.3139
  974MOL0     H34399   8.451   9.114   5.832 -0.6959 -3.0237 -1.0979
  974MOL0     H34400   8.275   8.824   5.769 -0.3303 -1.3319 -0.5508
  974MOL0     H34401   8.420   8.914   5.711  2.9706 -2.1661 -1.2758
  974MOL0     H34402   8.558   8.713   5.745 -0.6152 -0.9571 -0.7388
  974MOL0     H34403   8.423   8.667   5.653  3.0248  3.4845 -1.7720
  974MOL0     H34404   8.454   8.619   5.956  2.5453 -0.0404 -0.5638
  974MOL0     H34405   8.302   8.595   5.870  0.7822  0.8987 -1.8079
  974MOL0     H34406   8.460   8.407   5.915  0.5795  1.9897  1.1995
  974MOL0     H34407   8.584   8.483   5.814  0.1875 -0.9594 -2.6464
  974MOL0     H34408   8.351   8.277   5.522  2.4298 -1.4401  0.1272
  974MOL0     H34409   8.642   8.790   5.994 -1.2294  1.5510  3.6707
  974MOL0     H34410   8.890   8.904   6.122  1.6966  0.9459 -0.0906
  974MOL0     H34411   8.869   8.782   5.993 -3.2311  0.7655 -2.3041
  974MOL0     H34412   8.971   8.927   5.966  1.4408 -0.7668  3.8131
  975MOL0     O34413   5.089   7.385   1.345  0.4525  0.4278  0.0271
  975MOL0     C34414   5.144   7.275   1.317 -0.6412 -0.1136  0.0144
  975MOL0     O34415   5.183   7.176   1.408  0.3285 -0.2578 -0.7321
  975MOL0     C34416   5.191   7.201   1.543 -0.0398 -0.0428  0.1052
  975MOL0     C34417   5.096   7.160   1.635  1.1149  0.2509 -0.8255
  975MOL0     C34418   5.094   7.205   1.760  0.5359 -0.4933  0.0864
  975MOL0     C34419   5.197   7.278   1.813  0.3519 -1.0466  0.3763
  975MOL0     O34420   5.192   7.339   1.932  0.4294 -0.5707  0.0510
  975MOL0     C34421   5.067   7.325   2.010 -0.0288  0.1188 -1.2958
  975MOL0     C34422   5.079   7.418   2.124 -0.1861 -0.2105 -0.7827
  975MOL0     C34423   5.065   7.566   2.089  0.3083 -0.5700 -0.3905
  975MOL0     C34424   5.003   7.607   1.962  0.2905 -0.4475 -0.0817
  975MOL0     C34425   5.021   7.755   1.937 -0.2941  0.1023 -0.5757
  975MOL0     C34426   4.947   7.780   1.809 -1.5259  0.0344 -0.0496
  975MOL0     C34427   4.955   7.929   1.766 -0.2394 -0.4646 -0.1300
  975MOL0     C34428   5.097   7.976   1.716  0.9649  0.0279  0.7148
  975MOL0     N34429   5.106   8.122   1.715 -0.7893  0.2998  0.9287
  975MOL0     C34430   5.104   8.210   1.824  0.3975  0.2441  0.8599
  975MOL0     C34431   5.119   8.333   1.761 -0.0754  0.0856 -0.2676
  975MOL0     C34432   5.146   8.462   1.827 -0.5833  1.2533 -0.1651
  975MOL0     C34433   5.285   8.515   1.793  0.2980 -0.0798  0.2095
  975MOL0     C34434   5.402   8.468   1.878 -0.3562 -0.5501 -0.3351
  975MOL0     C34435   5.538   8.511   1.817 -0.1883 -0.9216 -0.3233
  975MOL0     O34436   5.573   8.641   1.872 -1.2389 -0.9266 -0.0190
  975MOL0     C34437   5.694   8.698   1.833 -0.1450  0.5320  0.8012
  975MOL0     C34438   5.717   8.818   1.884 -0.5944  0.0264  0.4604
  975MOL0     C34439   5.827   8.894   1.847 -0.8216 -0.4285  0.6189
  975MOL0     C34440   5.851   9.030   1.920 -0.1120  0.0175 -1.0401
  975MOL0     C34441   5.930   8.835   1.757 -0.0221 -0.0581 -0.6122
  975MOL0     C34442   6.047   8.907   1.715  0.1398  0.7080 -0.6818
  975MOL0     O34443   6.065   9.034   1.745 -0.5029  0.3388 -0.1512
  975MOL0     C34444   6.191   9.075   1.706 -0.4891 -0.3831  0.2041
  975MOL0     C34445   6.222   9.144   1.584  0.2239 -0.4336 -0.0435
  975MOL0     C34446   6.353   9.190   1.564  0.8302  0.0808  0.6860
  975MOL0     C34447   6.444   9.195   1.666 -0.0991  0.3838  0.3353
  975MOL0     O34448   6.571   9.259   1.646  0.3084  0.2017 -1.2022
  975MOL0     C34449   6.617   9.277   1.516 -0.1572 -0.3819 -0.1263
  975MOL0     C34450   6.750   9.351   1.529  0.4991 -0.3637  0.7072
  975MOL0     C34451   6.750   9.470   1.618  0.2742 -0.4044  0.3263
  975MOL0     C34452   6.650   9.580   1.572 -0.6158  0.0409 -0.3824
  975MOL0     C34453   6.690   9.659   1.447  0.4129  0.7329 -0.8640
  975MOL0     C34454   6.821   9.746   1.472 -0.3519  0.5452  1.2225
  975MOL0     C34455   6.784   9.876   1.557 -0.2927  0.7643  0.3640
  975MOL0     C34456   6.910   9.930   1.623 -0.4307 -0.5767  0.2356
  975MOL0    Cl34457   6.861  10.064   1.727  0.1515  0.1376  0.0975
  975MOL0     C34458   6.407   9.126   1.786 -0.6081  0.1723 -0.3604
  975MOL0     C34459   6.283   9.068   1.809  0.2391  0.2760  0.3597
  975MOL0     O34460   6.133   8.833   1.681 -0.1683 -0.0891  0.4916
  975MOL0     C34461   5.908   8.705   1.710  1.6918 -0.0248 -0.3317
  975MOL0     C34462   5.782   8.643   1.740  0.4855  0.0351  0.1074
  975MOL0     N34463   5.126   8.307   1.627 -0.0113  0.3409 -0.8777
  975MOL0     N34464   5.108   8.192   1.595 -0.2668 -1.0427  0.0917
  975MOL0     C34465   5.298   7.304   1.728 -0.4334 -1.1076  0.4214
  975MOL0     C34466   5.296   7.272   1.599 -0.3498  0.3478  0.4048
  975MOL0     C34467   5.173   7.244   1.173  0.5126 -0.6519  0.3282
  975MOL0     C34468   5.174   7.108   1.132  0.6967  0.1942  0.1543
  975MOL0     C34469   5.201   7.063   1.001  0.4141  0.4546  0.0841
  975MOL0     C34470   5.217   7.154   0.900  0.9705  0.0686 -1.3724
  975MOL0     O34471   5.214   7.109   0.771 -0.6205  0.0421  0.0886
  975MOL0     C34472   5.293   7.192   0.680  0.2667 -0.1099 -0.8876
  975MOL0     C34473   5.188   7.258   0.598 -0.5230  0.2258  0.3903
  975MOL0     C34474   5.266   7.343   0.492 -0.1362 -1.0581 -0.4536
  975MOL0     C34475   5.185   7.375   0.368 -0.0482  0.9389  0.2262
  975MOL0     C34476   5.061   7.440   0.411  0.1715  1.1197  0.2704
  975MOL0     C34477   4.953   7.478   0.449  0.2623 -0.3410  0.6976
  975MOL0     C34478   5.220   7.294   0.932 -0.0543 -0.7872  0.0837
  975MOL0     C34479   5.198   7.334   1.070 -0.6826 -0.0601 -0.5627
  975MOL0     C34480   5.197   7.482   1.099 -0.1859  0.8697 -0.9592
  975MOL0     H34481   5.013   7.098   1.604  1.5166 -1.4201  1.2217
  975MOL0     H34482   5.015   7.175   1.829  0.4633 -1.0845 -0.2488
  975MOL0     H34483   5.055   7.225   2.053  2.1799  0.9430  1.5169
  975MOL0     H34484   4.973   7.351   1.961 -0.0054  0.7033 -1.0407
  975MOL0     H34485   5.011   7.386   2.203  1.7643 -0.0792  1.0564
  975MOL0     H34486   5.175   7.399   2.173  1.1109  1.1928 -2.6198
  975MOL0     H34487   5.000   7.603   2.169  0.5696  0.0394 -0.4515
  975MOL0     H34488   5.164   7.609   2.107  0.7935 -2.0805  0.7766
  975MOL0     H34489   5.052   7.562   1.875 -0.8514  0.9644 -1.5213
  975MOL0     H34490   4.901   7.570   1.945  0.8477 -1.0053 -2.7719
  975MOL0     H34491   5.129   7.763   1.921 -0.4641 -1.5367 -3.2251
  975MOL0     H34492   4.990   7.817   2.022 -3.4275 -1.9377 -0.0451
  975MOL0     H34493   5.002   7.737   1.724 -0.6626 -0.8276  0.9148
  975MOL0     H34494   4.841   7.756   1.811 -2.0545  2.0150 -1.6463
  975MOL0     H34495   4.905   8.001   1.832  1.5132  0.8582 -0.1663
  975MOL0     H34496   4.899   7.942   1.673 -0.1999  0.8428 -0.0020
  975MOL0     H34497   5.176   7.930   1.775  0.4609 -0.1959  1.2250
  975MOL0     H34498   5.118   7.934   1.617  2.0142 -0.9448  1.3314
  975MOL0     H34499   5.119   8.183   1.928 -1.1992 -0.8609  0.8524
  975MOL0     H34500   5.150   8.431   1.932 -1.2280  0.5495 -0.3448
  975MOL0     H34501   5.056   8.522   1.810 -1.0994  0.4203 -0.4094
  975MOL0     H34502   5.305   8.494   1.687 -0.9660 -2.9026  0.4553
  975MOL0     H34503   5.279   8.623   1.810  1.6130  0.1477 -0.5635
  975MOL0     H34504   5.386   8.519   1.974 -2.6776  2.0616 -1.9500
  975MOL0     H34505   5.410   8.363   1.909 -0.4101  0.1193  2.2070
  975MOL0     H34506   5.612   8.435   1.846 -0.6784 -1.0292  0.7086
  975MOL0     H34507   5.527   8.519   1.709  4.2549 -2.6351 -1.0983
  975MOL0     H34508   5.655   8.854   1.966 -0.8807  2.3032 -0.6822
  975MOL0     H34509   5.939   9.030   1.986 -0.5391  2.0587 -0.4028
  975MOL0     H34510   5.767   9.056   1.985 -0.3973 -0.5356 -1.1852
  975MOL0     H34511   5.879   9.106   1.847 -1.5831 -1.0259 -2.7621
  975MOL0     H34512   6.151   9.147   1.502  1.2842 -0.1985 -0.9718
  975MOL0     H34513   6.375   9.240   1.471 -1.5633  0.9137  0.4982
  975MOL0     H34514   6.623   9.179   1.467 -0.0799 -0.4501  0.0202
  975MOL0     H34515   6.551   9.338   1.454  1.8365  1.4226 -0.6180
  975MOL0     H34516   6.821   9.280   1.571 -0.4664 -2.3846 -0.9020
  975MOL0     H34517   6.784   9.384   1.431 -0.7398 -0.3092  0.2746
  975MOL0     H34518   6.848   9.509   1.645  0.2376  0.3115 -0.5308
  975MOL0     H34519   6.707   9.441   1.715  0.0523  0.6601  0.5536
  975MOL0     H34520   6.633   9.651   1.653 -1.5941  1.7619 -2.0197
  975MOL0     H34521   6.554   9.530   1.552 -1.2316 -1.5056  4.9490
  975MOL0     H34522   6.704   9.592   1.362 -1.7225  0.8430 -1.3759
  975MOL0     H34523   6.602   9.723   1.431 -1.3944 -1.3280  0.2786
  975MOL0     H34524   6.866   9.762   1.374 -0.1524  0.1120  1.2410
  975MOL0     H34525   6.889   9.681   1.529  1.5842 -0.2487 -1.7820
  975MOL0     H34526   6.727   9.851   1.647  0.6458 -0.5462  0.6127
  975MOL0     H34527   6.733   9.950   1.495 -1.4516 -1.5538 -1.5680
  975MOL0     H34528   6.969   9.971   1.541 -0.3700  2.1724  1.5494
  975MOL0     H34529   6.963   9.855   1.683  1.8599  2.7920  2.8017
  975MOL0     H34530   6.483   9.135   1.863  0.6648  0.4350 -1.6169
  975MOL0     H34531   6.264   9.021   1.905  0.9149 -2.2273 -0.6395
  975MOL0     H34532   5.986   8.653   1.655  2.6331 -0.0443  0.9752
  975MOL0     H34533   5.774   8.542   1.703  0.5409 -0.6570  1.8886
  975MOL0     H34534   5.384   7.354   1.770  0.2686 -3.1237  1.4922
  975MOL0     H34535   5.380   7.293   1.533  0.3154 -0.6479  0.9127
  975MOL0     H34536   5.129   7.043   1.207 -0.4198  0.6891 -0.0684
  975MOL0     H34537   5.213   6.958   0.974 -1.6310  0.2749 -0.3468
  975MOL0     H34538   5.362   7.265   0.724 -0.5540 -0.4673  1.1290
  975MOL0     H34539   5.357   7.126   0.621 -0.6657 -0.0407 -2.0128
  975MOL0     H34540   5.116   7.319   0.654 -1.3372  0.2046 -0.6089
  975MOL0     H34541   5.138   7.174   0.548 -2.4405  0.3539  1.9726
  975MOL0     H34542   5.312   7.437   0.523 -2.5446 -0.3061  1.1666
  975MOL0     H34543   5.355   7.286   0.466  0.2839 -0.8339  0.4542
  975MOL0     H34544   5.148   7.287   0.316 -3.1997 -0.3219  4.0550
  975MOL0     H34545   5.242   7.441   0.302 -1.1641  1.5427 -0.1670
  975MOL0     H34546   4.868   7.513   0.503  0.5503 -1.6204  2.0321
  975MOL0     H34547   5.215   7.370   0.855 -3.1583 -1.5310 -0.5744
  975MOL0     H34548   5.254   7.531   1.020  2.3582 -2.0164 -1.1142
  975MOL0     H34549   5.090   7.502   1.098 -0.9810 -0.8618  5.0734
  975MOL0     H34550   5.244   7.517   1.192  1.4279 -1.6900 -0.7004
  976MOL0     O34551   0.248   2.462   4.159 -1.4550 -0.3983 -0.0049
  976MOL0     C34552   0.331   2.458   4.067  0.0404  0.1931 -0.2579
  976MOL0     O34553   0.370   2.346   4.008  0.4884 -0.0799 -0.5570
  976MOL0     C34554   0.334   2.227   4.071 -0.5932 -0.6773  0.0045
  976MOL0     C34555   0.289   2.117   3.995 -0.0773 -0.2002 -0.0593
  976MOL0     C34556   0.246   2.007   4.049  0.3067 -0.2335  0.4810
  976MOL0     C34557   0.252   1.984   4.185  0.5015  0.8240  0.0022
  976MOL0     O34558   0.212   1.872   4.259 -0.6804 -0.0870 -0.0412
  976MOL0     C34559   0.065   1.852   4.265 -0.5187  0.6779 -0.6486
  976MOL0     C34560   0.037   1.848   4.419 -0.0109 -0.0768  0.7592
  976MOL0     C34561  -0.014   1.983   4.469  0.8727 -0.5252 -0.4269
  976MOL0     C34562   0.002   1.989   4.629 -0.1848 -0.3698  0.2521
  976MOL0     C34563  -0.060   2.103   4.709  0.6785 -0.6703  1.2958
  976MOL0     C34564  -0.205   2.127   4.669  0.1005  0.7303 -0.0792
  976MOL0     C34565  -0.301   2.009   4.656  0.7408  0.9115 -1.0087
  976MOL0     C34566  -0.329   1.962   4.801  0.8943 -0.2918  0.1834
  976MOL0     N34567  -0.462   1.899   4.827 -0.6047 -0.7112 -0.2421
  976MOL0     C34568  -0.569   1.978   4.821 -0.2805  0.8321  0.2744
  976MOL0     C34569  -0.658   1.895   4.877  0.1929 -0.3413 -0.2443
  976MOL0     C34570  -0.792   1.951   4.918 -0.1613  0.2479 -0.2554
  976MOL0     C34571  -0.780   1.996   5.064 -0.7480  0.7885  0.6218
  976MOL0     C34572  -0.690   2.118   5.099 -0.2287  0.1927 -0.2506
  976MOL0     C34573  -0.720   2.235   5.012 -0.0960  0.3870 -0.3405
  976MOL0     O34574  -0.620   2.341   5.023  0.2577  0.5435 -0.5462
  976MOL0     C34575  -0.570   2.388   5.143  0.4531  0.2803 -0.9862
  976MOL0     C34576  -0.648   2.452   5.240  0.1286  1.3400 -0.0768
  976MOL0     C34577  -0.590   2.498   5.357  1.6578 -0.3665 -0.0767
  976MOL0     C34578  -0.675   2.583   5.454 -0.3138 -0.0483 -0.4421
  976MOL0     C34579  -0.448   2.476   5.375 -0.3533  0.2006 -0.5301
  976MOL0     C34580  -0.372   2.524   5.493  0.9391 -1.0705 -0.5009
  976MOL0     O34581  -0.276   2.448   5.523  0.7163  0.4693 -0.5678
  976MOL0     C34582  -0.212   2.440   5.638 -0.6096 -0.6501  1.0474
  976MOL0     C34583  -0.100   2.355   5.635 -0.2490 -0.3556 -0.6695
  976MOL0     C34584  -0.015   2.336   5.747  0.5040 -0.7003  0.4839
  976MOL0     C34585  -0.041   2.393   5.873  0.6123  0.0820  0.0342
  976MOL0     O34586   0.021   2.343   5.983 -0.3959 -0.2246  0.1131
  976MOL0     C34587   0.021   2.419   6.102  0.2991 -0.4489  0.5155
  976MOL0     C34588   0.113   2.350   6.199  0.0921 -0.1757  0.1542
  976MOL0     C34589   0.260   2.308   6.165 -0.5831  0.6097  0.1114
  976MOL0     C34590   0.342   2.424   6.114  0.0602  0.8061  0.6415
  976MOL0     C34591   0.495   2.404   6.089  0.1135 -0.5773  0.3487
  976MOL0     C34592   0.573   2.376   6.223  0.3634 -0.6341 -0.4469
  976MOL0     C34593   0.719   2.339   6.203  0.3515  0.0485  0.4373
  976MOL0     C34594   0.793   2.345   6.328  0.4636 -0.5463  0.5315
  976MOL0    Cl34595   0.719   2.246   6.459 -0.0024 -0.0331 -0.0489
  976MOL0     C34596  -0.153   2.479   5.880 -0.2686  0.1130  0.9324
  976MOL0     C34597  -0.236   2.506   5.763 -0.8968  0.1359  0.3617
  976MOL0     O34598  -0.405   2.627   5.555  0.7066  0.8258  0.4065
  976MOL0     C34599  -0.377   2.398   5.286 -0.2802  0.4216 -0.0273
  976MOL0     C34600  -0.432   2.358   5.166  0.4282  0.1761  0.2694
  976MOL0     N34601  -0.611   1.773   4.919 -0.1943  0.0092  0.5366
  976MOL0     N34602  -0.486   1.776   4.879 -0.2743  0.7162 -0.4346
  976MOL0     C34603   0.312   2.084   4.257  0.1697  0.1654 -1.2682
  976MOL0     C34604   0.348   2.205   4.206  0.3077 -0.2734 -0.6774
  976MOL0     C34605   0.380   2.593   4.018  1.2512 -0.7268  0.3232
  976MOL0     C34606   0.397   2.690   4.111 -0.3936  0.1026 -0.3203
  976MOL0     C34607   0.421   2.828   4.091 -0.3558  0.6331 -0.2393
  976MOL0     C34608   0.434   2.874   3.958 -0.5583 -0.1076 -1.0465
  976MOL0     O34609   0.477   3.004   3.939 -0.4368 -0.6832  0.3134
  976MOL0     C34610   0.391   3.093   3.861  0.1056  0.3218 -0.6638
  976MOL0     C34611   0.250   3.103   3.907  0.5208 -0.0420 -0.1515
  976MOL0     C34612   0.263   3.161   4.053  0.0591 -1.1439  0.0663
  976MOL0     C34613   0.121   3.198   4.101  0.2942 -0.9761  0.4723
  976MOL0     C34614   0.054   3.296   4.007  0.5247 -0.6610 -0.1331
  976MOL0     C34615   0.008   3.381   3.925 -0.6392 -0.3676 -0.3988
  976MOL0     C34616   0.398   2.780   3.860  0.3060  0.4325  0.2723
  976MOL0     C34617   0.372   2.645   3.890  0.3593  0.6753  0.4656
  976MOL0     C34618   0.326   2.560   3.773 -0.9591 -0.1456 -0.0623
  976MOL0     H34619   0.287   2.140   3.888 -0.6553  0.1434  0.0209
  976MOL0     H34620   0.200   1.936   3.980  2.0827 -0.4085 -0.5864
  976MOL0     H34621   0.029   1.754   4.231 -1.5931  0.2596  1.5084
  976MOL0     H34622   0.006   1.928   4.212 -3.5484  0.4329  1.9907
  976MOL0     H34623  -0.035   1.767   4.436 -0.4712  0.0898 -0.3480
  976MOL0     H34624   0.138   1.842   4.463  0.4095  3.2724  0.4786
  976MOL0     H34625   0.038   2.065   4.418 -0.2026  0.7392  0.4345
  976MOL0     H34626  -0.122   1.990   4.454  0.9729  1.0165 -0.5666
  976MOL0     H34627  -0.047   1.899   4.667 -2.6447  0.4585 -0.7615
  976MOL0     H34628   0.107   2.001   4.657 -0.3786  0.7828  0.5225
  976MOL0     H34629   0.002   2.187   4.676 -1.9664  0.3282 -1.5086
  976MOL0     H34630  -0.047   2.071   4.813  2.2195 -1.6033  0.8629
  976MOL0     H34631  -0.240   2.201   4.741  3.2340 -0.0436  2.4559
  976MOL0     H34632  -0.214   2.163   4.566 -1.9450 -0.6071 -0.4200
  976MOL0     H34633  -0.260   1.925   4.599  1.9061  2.0526 -1.8836
  976MOL0     H34634  -0.386   2.050   4.601 -0.3691 -0.5298 -0.4447
  976MOL0     H34635  -0.255   1.886   4.826  3.3468  1.7328 -0.4901
  976MOL0     H34636  -0.313   2.053   4.860 -0.3863  2.2049 -2.9582
  976MOL0     H34637  -0.573   2.084   4.797 -0.7042  0.5405 -1.0511
  976MOL0     H34638  -0.876   1.880   4.921  0.5518 -0.6007 -0.0616
  976MOL0     H34639  -0.829   2.027   4.848 -2.8573  1.1051  1.9015
  976MOL0     H34640  -0.883   2.030   5.080 -0.8432  1.0592 -0.5122
  976MOL0     H34641  -0.763   1.903   5.120  0.5654 -2.1927 -4.1777
  976MOL0     H34642  -0.709   2.144   5.203 -2.2709  1.3624 -0.8620
  976MOL0     H34643  -0.586   2.086   5.088  0.2915  1.1660  1.4598
  976MOL0     H34644  -0.753   2.218   4.909 -0.1235  1.5718 -0.5447
  976MOL0     H34645  -0.808   2.276   5.062 -1.5442  0.5130 -2.8347
  976MOL0     H34646  -0.753   2.462   5.215  0.1442 -2.4554 -2.2728
  976MOL0     H34647  -0.781   2.573   5.429 -0.1851 -1.9331 -0.3803
  976MOL0     H34648  -0.630   2.682   5.449  4.6238 -1.9133  0.6343
  976MOL0     H34649  -0.669   2.544   5.556 -3.1563 -1.3323 -0.6671
  976MOL0     H34650  -0.086   2.315   5.535  0.3427 -0.4845 -0.5392
  976MOL0     H34651   0.078   2.281   5.741 -0.2760 -1.8617 -2.0112
  976MOL0     H34652   0.046   2.522   6.073 -2.0067 -0.3518 -1.5274
  976MOL0     H34653  -0.079   2.415   6.146  0.0155 -3.7467 -0.1691
  976MOL0     H34654   0.108   2.408   6.292  2.6183  1.2449 -0.5278
  976MOL0     H34655   0.070   2.255   6.234 -0.4271 -0.6355 -1.6414
  976MOL0     H34656   0.261   2.232   6.086  1.8561 -1.6133  2.0789
  976MOL0     H34657   0.309   2.264   6.253 -1.3740  0.9993  0.7584
  976MOL0     H34658   0.330   2.511   6.178  0.2213 -0.1507  2.0101
  976MOL0     H34659   0.294   2.456   6.021  0.5726  1.3052  0.5401
  976MOL0     H34660   0.501   2.316   6.024 -1.2053 -1.1332  0.9630
  976MOL0     H34661   0.542   2.491   6.041  0.3795 -0.1461  1.3562
  976MOL0     H34662   0.523   2.285   6.258 -1.5741  0.7677  0.5866
  976MOL0     H34663   0.550   2.461   6.288  3.5490  2.0177 -2.4741
  976MOL0     H34664   0.777   2.409   6.141 -0.6062  1.6798  1.3207
  976MOL0     H34665   0.719   2.234   6.171 -2.7431  0.0978 -0.0496
  976MOL0     H34666   0.799   2.450   6.358  1.0122 -0.9005  1.7480
  976MOL0     H34667   0.900   2.327   6.318  1.4333  4.2153 -0.3248
  976MOL0     H34668  -0.171   2.534   5.972 -0.4406  2.2831 -0.3263
  976MOL0     H34669  -0.314   2.581   5.761 -0.1598  1.0946  2.8226
  976MOL0     H34670  -0.279   2.352   5.296 -0.7178 -0.9209 -1.5291
  976MOL0     H34671  -0.377   2.295   5.097  0.4910 -3.4424  3.3111
  976MOL0     H34672   0.323   2.067   4.363 -0.7233 -1.1507 -1.3483
  976MOL0     H34673   0.398   2.280   4.268 -1.9691 -1.0721  2.3233
  976MOL0     H34674   0.408   2.669   4.217 -0.5634  0.9198 -0.1302
  976MOL0     H34675   0.437   2.886   4.181 -0.1231 -1.4226  1.0977
  976MOL0     H34676   0.431   3.192   3.840 -1.1554  0.4365 -2.7668
  976MOL0     H34677   0.395   3.057   3.758 -0.1329 -0.0476 -0.5471
  976MOL0     H34678   0.200   3.006   3.904 -0.6679  0.4929  1.0163
  976MOL0     H34679   0.206   3.171   3.834  0.9655 -2.7180 -3.0990
  976MOL0     H34680   0.306   3.078   4.110 -1.7806 -3.0749 -1.2137
  976MOL0     H34681   0.327   3.247   4.074 -1.1220 -0.9002  3.2160
  976MOL0     H34682   0.120   3.245   4.200  0.2006 -1.0533  0.5080
  976MOL0     H34683   0.063   3.106   4.103 -0.7475 -0.3246  2.4359
  976MOL0     H34684  -0.039   3.455   3.864 -1.2952  0.6693  1.2716
  976MOL0     H34685   0.396   2.807   3.755 -1.1587 -1.4775 -0.2483
  976MOL0     H34686   0.218   2.571   3.763 -0.6158  2.2166 -2.1367
  976MOL0     H34687   0.385   2.582   3.684  0.1152 -0.4031  0.5641
  976MOL0     H34688   0.349   2.455   3.796 -0.5016  0.3809  2.1023
  977MOL0     O34689   8.221   4.514   1.538 -0.2094 -0.9543 -0.1242
  977MOL0     C34690   8.296   4.564   1.623  0.4694  0.4402  0.1851
  977MOL0     O34691   8.263   4.657   1.723 -0.3225  0.1095  0.7136
  977MOL0     C34692   8.142   4.721   1.735 -0.5545 -0.2938 -0.1130
  977MOL0     C34693   8.068   4.737   1.627  0.4916  0.5287  0.6283
  977MOL0     C34694   7.940   4.798   1.632  0.3678  0.3371  0.0553
  977MOL0     C34695   7.904   4.857   1.753  0.3348  0.2492 -0.3163
  977MOL0     O34696   7.788   4.932   1.759 -0.6509 -0.5343 -0.3518
  977MOL0     C34697   7.801   5.061   1.702  0.3459  0.5445  0.1448
  977MOL0     C34698   7.677   5.135   1.657 -0.7467 -0.1364 -0.3778
  977MOL0     C34699   7.594   5.044   1.572  0.7669 -0.1012 -0.2720
  977MOL0     C34700   7.540   5.107   1.446 -0.4369 -0.7023  0.7334
  977MOL0     C34701   7.647   5.157   1.351  0.3345  0.5566  0.0371
  977MOL0     C34702   7.750   5.050   1.308  0.1565 -0.2082 -0.3926
  977MOL0     C34703   7.789   5.072   1.161 -0.7072 -0.1396  0.0098
  977MOL0     C34704   7.923   5.004   1.131  0.5662  1.3252 -0.2798
  977MOL0     N34705   7.945   5.014   0.984  0.1754 -0.9809 -0.6910
  977MOL0     C34706   7.889   4.945   0.882 -0.7214 -0.3181 -0.8539
  977MOL0     C34707   7.935   5.004   0.762  0.0739  0.2732  0.0867
  977MOL0     C34708   7.877   4.972   0.625  0.1403  0.4253 -0.3352
  977MOL0     C34709   7.952   5.028   0.503 -0.3995 -0.5603 -0.0468
  977MOL0     C34710   7.918   4.947   0.380  1.0222 -0.5784 -0.8544
  977MOL0     C34711   7.936   5.018   0.252  0.9923 -0.0553 -0.0600
  977MOL0     O34712   7.886   4.933   0.153  0.7633  0.2371  0.2190
  977MOL0     C34713   7.768   4.969   0.083  0.1225  0.0042  0.0902
  977MOL0     C34714   7.754   5.092   0.030  0.8330 -0.8727 -0.3879
  977MOL0     C34715   7.636   5.128  -0.042  0.2071  0.1193 -0.2436
  977MOL0     C34716   7.633   5.266  -0.117  0.5286  0.3533  1.7373
  977MOL0     C34717   7.521   5.034  -0.056  0.0279  0.2212  0.6762
  977MOL0     C34718   7.387   5.054  -0.136  0.0575  0.1871 -0.3781
  977MOL0     O34719   7.316   4.940  -0.177 -0.3518 -0.1012 -1.2472
  977MOL0     C34720   7.220   4.973  -0.270 -0.2218  0.3135  0.1392
  977MOL0     C34721   7.237   4.960  -0.411  0.0991 -0.1519  0.2211
  977MOL0     C34722   7.137   5.006  -0.501 -0.7680 -0.7376 -0.7269
  977MOL0     C34723   7.016   5.049  -0.446  1.4910  0.5569 -0.5337
  977MOL0     O34724   6.914   5.084  -0.531  1.0138  0.4010 -0.4700
  977MOL0     C34725   6.817   5.186  -0.500 -0.7601 -0.1669 -0.2618
  977MOL0     C34726   6.878   5.311  -0.486 -0.4302 -0.2464  0.2733
  977MOL0     C34727   6.790   5.427  -0.448 -0.5499 -0.1358  0.0779
  977MOL0     C34728   6.709   5.417  -0.320 -0.1126 -0.0078 -0.4226
  977MOL0     C34729   6.793   5.397  -0.192  0.0838  0.5566  0.7130
  977MOL0     C34730   6.709   5.452  -0.074 -0.0129 -0.8171  0.2738
  977MOL0     C34731   6.744   5.605  -0.069  0.0057  0.5088  0.5750
  977MOL0     C34732   6.618   5.696  -0.073  0.8629 -0.9622  1.1404
  977MOL0    Cl34733   6.516   5.640   0.073  0.3697 -0.3528  0.0702
  977MOL0     C34734   6.992   5.061  -0.307  0.1598  0.2006 -0.1384
  977MOL0     C34735   7.098   5.026  -0.223  0.9363 -0.1815  0.7211
  977MOL0     O34736   7.369   5.170  -0.171  0.5802  0.8754 -0.2559
  977MOL0     C34737   7.545   4.904   0.001  1.2951 -0.0517 -0.2694
  977MOL0     C34738   7.668   4.873   0.068  0.6158 -0.1520  0.6138
  977MOL0     N34739   8.016   5.104   0.799 -0.6318 -0.0662 -0.9306
  977MOL0     N34740   8.029   5.107   0.934  0.1609  0.2541  0.4301
  977MOL0     C34741   7.991   4.848   1.863 -0.0204  0.4987 -0.5003
  977MOL0     C34742   8.107   4.785   1.857 -0.3539 -0.2786  0.2509
  977MOL0     C34743   8.434   4.537   1.610  0.6156 -0.7329  0.0682
  977MOL0     C34744   8.521   4.633   1.665 -0.0318  0.0422  0.4204
  977MOL0     C34745   8.657   4.629   1.648  0.7434  0.7689  0.9368
  977MOL0     C34746   8.713   4.531   1.571  0.4028  1.6786  0.2969
  977MOL0     O34747   8.855   4.528   1.563 -0.0012 -0.1987 -0.2664
  977MOL0     C34748   8.920   4.496   1.692 -0.7294 -0.4625 -0.3395
  977MOL0     C34749   8.993   4.618   1.759  0.9292 -0.0613 -0.1083
  977MOL0     C34750   9.031   4.603   1.914 -0.2437 -0.6532  0.0425
  977MOL0     C34751   9.066   4.455   1.951 -0.3609  1.0856 -1.1576
  977MOL0     C34752   9.065   4.435   2.100 -0.3084 -0.7239  0.4624
  977MOL0     C34753   9.082   4.428   2.219 -0.0059  0.4308 -0.4108
  977MOL0     C34754   8.637   4.426   1.524  0.2378 -0.3603  0.1441
  977MOL0     C34755   8.497   4.424   1.544  0.4515  0.3374  1.0437
  977MOL0     C34756   8.424   4.306   1.475 -0.3006  0.0668  0.6505
  977MOL0     H34757   8.089   4.699   1.527 -1.9396  0.1747  0.1843
  977MOL0     H34758   7.868   4.811   1.552  0.5421  1.2077  0.0363
  977MOL0     H34759   7.855   5.053   1.607 -1.0750 -2.2770 -0.5295
  977MOL0     H34760   7.843   5.125   1.780  1.4019  2.9030 -2.1738
  977MOL0     H34761   7.627   5.164   1.750  3.4414 -0.3869  2.2551
  977MOL0     H34762   7.705   5.225   1.602 -1.4184  0.5344  0.3591
  977MOL0     H34763   7.645   4.950   1.547  0.1770 -0.3965 -0.3621
  977MOL0     H34764   7.508   5.009   1.631  0.5429  0.5858 -0.1918
  977MOL0     H34765   7.482   5.025   1.404  3.8850 -3.6390 -0.1272
  977MOL0     H34766   7.475   5.190   1.476  4.8633  4.8597 -0.9453
  977MOL0     H34767   7.704   5.234   1.404 -2.5698  1.4016  2.2122
  977MOL0     H34768   7.588   5.194   1.266  1.7163 -1.5565 -1.9494
  977MOL0     H34769   7.844   5.064   1.363 -0.6327  1.2574  0.6283
  977MOL0     H34770   7.718   4.948   1.333 -0.2230 -1.0330 -3.7283
  977MOL0     H34771   7.796   5.180   1.146 -0.9825  0.2268  2.2524
  977MOL0     H34772   7.716   5.032   1.090 -2.1500 -0.0772  1.4068
  977MOL0     H34773   7.993   5.054   1.198 -1.7971  1.6963  2.0468
  977MOL0     H34774   7.927   4.901   1.168 -1.4695  1.5588  0.7385
  977MOL0     H34775   7.825   4.859   0.899 -1.8105 -0.0874 -3.2923
  977MOL0     H34776   7.772   5.004   0.627  0.5127  1.6495  1.7331
  977MOL0     H34777   7.884   4.863   0.618  2.2040  0.5439 -0.8416
  977MOL0     H34778   7.933   5.131   0.473 -0.0515 -1.1510 -2.5851
  977MOL0     H34779   8.059   5.020   0.525 -0.8336  0.5318  2.8585
  977MOL0     H34780   7.979   4.858   0.397  0.1335 -0.9966  0.2698
  977MOL0     H34781   7.811   4.924   0.389  1.1210 -0.8888 -0.4578
  977MOL0     H34782   7.879   5.112   0.258 -3.5735 -2.4606 -0.9660
  977MOL0     H34783   8.039   5.025   0.219  0.5330 -0.0578 -1.5633
  977MOL0     H34784   7.819   5.179   0.025  1.5902 -1.4880 -3.5450
  977MOL0     H34785   7.557   5.325  -0.066 -1.0910 -1.6911  1.8120
  977MOL0     H34786   7.597   5.260  -0.221 -0.1593  0.1146  1.9868
  977MOL0     H34787   7.732   5.312  -0.116 -0.8006  3.7561 -1.3289
  977MOL0     H34788   7.329   4.913  -0.446 -1.0583 -2.1270 -0.3338
  977MOL0     H34789   7.147   4.989  -0.608  0.0824 -0.8890 -0.6301
  977MOL0     H34790   6.749   5.196  -0.585 -0.3823  0.0649 -0.5430
  977MOL0     H34791   6.759   5.162  -0.411  2.9684  0.7170  2.6350
  977MOL0     H34792   6.965   5.322  -0.420  0.9347  1.0313 -1.6526
  977MOL0     H34793   6.925   5.337  -0.581 -0.8719 -0.1624  0.0744
  977MOL0     H34794   6.723   5.442  -0.533  0.4209  0.5720 -0.5881
  977MOL0     H34795   6.855   5.515  -0.446  1.7115 -1.6884 -0.0709
  977MOL0     H34796   6.630   5.342  -0.329 -1.4688  1.6011 -2.9591
  977MOL0     H34797   6.655   5.511  -0.303 -2.4223 -1.1319 -1.0880
  977MOL0     H34798   6.810   5.289  -0.180  0.5999  0.9392  4.4478
  977MOL0     H34799   6.888   5.450  -0.205  0.5540 -0.4701 -0.3336
  977MOL0     H34800   6.740   5.402   0.018 -0.0343 -0.1413  0.6499
  977MOL0     H34801   6.603   5.436  -0.098 -0.2865  0.1521  0.8017
  977MOL0     H34802   6.804   5.631  -0.157 -1.5637 -2.5496 -1.5953
  977MOL0     H34803   6.799   5.624   0.024 -1.0778 -0.8908  1.5405
  977MOL0     H34804   6.554   5.671  -0.158  0.7471  0.0497  0.9216
  977MOL0     H34805   6.642   5.803  -0.074 -1.3565 -0.4120  0.4186
  977MOL0     H34806   6.902   5.096  -0.259  1.1814  2.3515  0.3321
  977MOL0     H34807   7.094   5.015  -0.115  2.7105  2.9492  1.2297
  977MOL0     H34808   7.460   4.838  -0.005  1.3091 -0.0761 -0.2039
  977MOL0     H34809   7.680   4.775   0.115  2.6249 -0.3138 -0.1250
  977MOL0     H34810   7.968   4.900   1.956  2.9419  1.9572 -0.4857
  977MOL0     H34811   8.177   4.771   1.938  1.0820 -0.6621 -1.0074
  977MOL0     H34812   8.475   4.722   1.708 -0.1237  1.3848 -2.2255
  977MOL0     H34813   8.721   4.701   1.697 -0.0131  1.3654  1.0557
  977MOL0     H34814   8.851   4.446   1.760 -1.2389 -1.4922 -1.5665
  977MOL0     H34815   9.000   4.424   1.672 -0.2127  0.6321 -2.5852
  977MOL0     H34816   8.924   4.702   1.769  0.7864 -0.5037  5.7586
  977MOL0     H34817   9.089   4.631   1.708  1.8319  2.7550  2.0694
  977MOL0     H34818   9.116   4.670   1.930 -0.5095 -0.1165 -0.7294
  977MOL0     H34819   8.953   4.637   1.982  0.7857 -1.8514  1.8954
  977MOL0     H34820   9.165   4.420   1.920 -0.3675 -1.3026  1.1911
  977MOL0     H34821   8.997   4.380   1.910 -3.1647  2.3278  0.9543
  977MOL0     H34822   9.090   4.409   2.324  0.9641 -1.8405 -0.8469
  977MOL0     H34823   8.678   4.344   1.467  1.2345  0.6687 -0.6656
  977MOL0     H34824   8.337   4.274   1.533 -3.0989  2.6015 -1.8223
  977MOL0     H34825   8.379   4.340   1.381  2.2754 -0.5623 -0.9216
  977MOL0     H34826   8.493   4.222   1.456  0.8093  1.3330 -1.2161
  978MOL0     O34827   9.821   6.970   7.897 -0.3722 -0.1330 -1.1348
  978MOL0     C34828   9.822   7.057   7.813  0.5143  0.9700 -0.1973
  978MOL0     O34829   9.881   7.172   7.829 -0.3408 -0.2739  0.3906
  978MOL0     C34830   9.873   7.249   7.936  0.6534  0.0828 -0.4509
  978MOL0     C34831   9.982   7.316   7.995 -0.7773  0.8338  0.7077
  978MOL0     C34832   9.968   7.410   8.100 -1.1632 -0.5771  0.4232
  978MOL0     C34833   9.842   7.433   8.152  0.4855 -0.7333 -1.0896
  978MOL0     O34834   9.830   7.510   8.268  0.4542  0.2716 -0.5358
  978MOL0     C34835   9.839   7.419   8.390 -0.0736 -0.4906  0.3736
  978MOL0     C34836   9.964   7.429   8.475 -0.5758  0.8549  1.0168
  978MOL0     C34837   9.961   7.332   8.592  0.3365  0.5553  0.1248
  978MOL0     C34838  10.088   7.363   8.675  0.5968 -0.2685 -0.1524
  978MOL0     C34839  10.117   7.276   8.791  0.7467 -0.2760 -0.8788
  978MOL0     C34840  10.239   7.317   8.873 -0.9938  0.1996 -0.1451
  978MOL0     C34841  10.374   7.284   8.802 -0.5261 -0.4415  0.0665
  978MOL0     C34842  10.504   7.272   8.885 -0.5977 -0.4296  0.5099
  978MOL0     N34843  10.616   7.323   8.806  0.1390 -1.2039  0.3570
  978MOL0     C34844  10.683   7.439   8.848  0.5160  0.2094  0.4636
  978MOL0     C34845  10.813   7.439   8.787  0.8883  0.2441 -0.0895
  978MOL0     C34846  10.909   7.545   8.803  1.0290 -0.1082 -0.1874
  978MOL0     C34847  10.911   7.635   8.681 -0.5676 -0.3785 -0.1272
  978MOL0     C34848  10.997   7.758   8.688  0.0930  0.3641 -0.5386
  978MOL0     C34849  10.961   7.840   8.814  0.0078 -1.2814  1.0619
  978MOL0     O34850  10.932   7.976   8.777 -0.5175  0.2357 -0.3416
  978MOL0     C34851  11.041   8.056   8.753 -0.5631 -0.6975  0.8028
  978MOL0     C34852  11.171   8.035   8.790 -0.2775 -0.2953  0.3953
  978MOL0     C34853  11.269   8.131   8.764  0.2811 -0.2643  0.2968
  978MOL0     C34854  11.403   8.110   8.819  0.3404 -0.3256 -0.3166
  978MOL0     C34855  11.234   8.246   8.678  0.2379  0.4303  0.1962
  978MOL0     C34856  11.331   8.348   8.626  0.6149 -0.2651 -0.6119
  978MOL0     O34857  11.289   8.441   8.539  0.2822  1.1233  0.8586
  978MOL0     C34858  11.376   8.487   8.438  0.2935 -0.5473 -0.8293
  978MOL0     C34859  11.321   8.529   8.323  0.6165 -0.0674  0.5647
  978MOL0     C34860  11.403   8.584   8.217  0.4966 -0.5671 -0.4448
  978MOL0     C34861  11.539   8.589   8.238 -0.6584 -0.6444 -0.5047
  978MOL0     O34862  11.613   8.613   8.132 -0.0478  0.0220  0.1651
  978MOL0     C34863  11.657   8.749   8.125 -0.5843  0.1688  0.1294
  978MOL0     C34864  11.706   8.787   7.984  0.0979 -0.9415 -0.8946
  978MOL0     C34865  11.855   8.738   7.970 -0.5099 -0.1072 -0.7016
  978MOL0     C34866  11.924   8.782   7.836 -0.1858 -0.5329  0.5221
  978MOL0     C34867  12.070   8.725   7.833  0.5814 -1.4386 -0.2217
  978MOL0     C34868  12.141   8.760   7.692 -1.3533  0.1145 -0.4480
  978MOL0     C34869  12.297   8.751   7.712 -0.3366  0.2751 -0.4049
  978MOL0     C34870  12.338   8.599   7.718 -0.1846  0.1906 -0.2259
  978MOL0    Cl34871  12.294   8.532   7.554  0.3513 -0.1468  0.5512
  978MOL0     C34872  11.597   8.561   8.358  0.4862 -0.5926  0.6358
  978MOL0     C34873  11.519   8.506   8.458  0.1934 -0.2115 -0.3612
  978MOL0     O34874  11.445   8.329   8.661 -0.3882 -0.4907 -0.0252
  978MOL0     C34875  11.099   8.260   8.634 -0.3671 -0.6720 -0.4714
  978MOL0     C34876  11.003   8.168   8.676 -0.1111  0.6920  0.6373
  978MOL0     N34877  10.821   7.322   8.707  0.4851  0.5807  1.0588
  978MOL0     N34878  10.709   7.255   8.727  0.9228  0.7437  0.2758
  978MOL0     C34879   9.737   7.368   8.093 -0.6348 -0.4513  0.6540
  978MOL0     C34880   9.750   7.284   7.991  0.4961  0.4070 -0.2819
  978MOL0     C34881   9.752   7.035   7.685 -0.3912 -0.6795  0.9503
  978MOL0     C34882   9.774   7.132   7.586 -0.3075 -0.3402 -0.7470
  978MOL0     C34883   9.738   7.117   7.452  0.9559  0.5394  0.1939
  978MOL0     C34884   9.660   7.009   7.420  0.4818 -0.0299 -0.0283
  978MOL0     O34885   9.624   6.977   7.296  0.3399  0.4687 -0.9977
  978MOL0     C34886   9.686   7.045   7.182  0.4235 -0.2493 -0.7655
  978MOL0     C34887   9.623   6.970   7.063  0.2607 -0.3843  0.4854
  978MOL0     C34888   9.465   6.986   7.042  1.0284  0.8205  0.4725
  978MOL0     C34889   9.378   6.869   7.104  0.6030  0.4836  0.4274
  978MOL0     C34890   9.337   6.897   7.240 -0.6282 -0.6025 -0.0043
  978MOL0     C34891   9.301   6.907   7.349  0.2953  1.5662  0.1478
  978MOL0     C34892   9.621   6.923   7.520 -0.4369 -0.0269 -0.0222
  978MOL0     C34893   9.658   6.934   7.653  0.0667 -0.7807 -0.1097
  978MOL0     C34894   9.626   6.823   7.748  0.1637 -0.2321  0.2904
  978MOL0     H34895  10.084   7.303   7.961  0.3141 -0.9554  4.1806
  978MOL0     H34896  10.050   7.469   8.138 -1.6566  0.8123 -0.5932
  978MOL0     H34897   9.824   7.313   8.370  2.3174 -1.0632  1.2415
  978MOL0     H34898   9.755   7.461   8.446  1.3636  0.3249  2.0186
  978MOL0     H34899  10.044   7.409   8.403 -1.1197  4.6639 -0.9088
  978MOL0     H34900   9.977   7.533   8.506  2.9627 -0.0006  2.8888
  978MOL0     H34901   9.869   7.341   8.652  0.0815 -1.4369  0.0834
  978MOL0     H34902   9.965   7.228   8.560 -0.1617  0.5567  0.0539
  978MOL0     H34903  10.177   7.350   8.611  0.5064  2.9504 -1.1270
  978MOL0     H34904  10.086   7.469   8.700  0.1683 -0.2407 -0.3124
  978MOL0     H34905  10.127   7.171   8.765  1.5894 -0.5368  0.4169
  978MOL0     H34906  10.028   7.275   8.854  0.2577 -1.8119 -1.5534
  978MOL0     H34907  10.235   7.421   8.904 -2.5074  0.2532 -0.4561
  978MOL0     H34908  10.239   7.247   8.958 -3.4015 -2.4789 -2.1436
  978MOL0     H34909  10.387   7.354   8.719  1.0143  0.7103  1.2219
  978MOL0     H34910  10.356   7.189   8.751  0.6262 -0.4431 -0.3821
  978MOL0     H34911  10.508   7.318   8.985  1.3267 -0.7906  0.6514
  978MOL0     H34912  10.518   7.167   8.910 -1.3160 -1.0280 -1.4659
  978MOL0     H34913  10.651   7.517   8.917 -3.9031 -1.3560  0.4590
  978MOL0     H34914  11.009   7.504   8.822  0.5879 -0.6371  1.1043
  978MOL0     H34915  10.876   7.593   8.896  1.1779 -1.6678  0.7105
  978MOL0     H34916  10.929   7.572   8.594  0.2259 -1.7368  0.9963
  978MOL0     H34917  10.812   7.677   8.662 -1.6408 -2.8729 -0.4464
  978MOL0     H34918  11.103   7.733   8.686 -0.1159 -0.5492 -0.6473
  978MOL0     H34919  10.979   7.823   8.601 -1.4476 -4.2819 -4.0937
  978MOL0     H34920  10.867   7.803   8.857 -0.7816  0.8979  1.3304
  978MOL0     H34921  11.030   7.816   8.896 -0.1741 -4.7042  0.3528
  978MOL0     H34922  11.199   7.941   8.836 -0.0221 -0.3388  0.1541
  978MOL0     H34923  11.466   8.089   8.733 -2.2283  0.3375 -2.4903
  978MOL0     H34924  11.413   8.028   8.892 -3.1681 -0.7636 -0.1205
  978MOL0     H34925  11.434   8.199   8.875  2.3419 -2.6067  2.5399
  978MOL0     H34926  11.214   8.530   8.300  0.5388  1.9398  0.8611
  978MOL0     H34927  11.365   8.613   8.120 -0.3733  0.1998  0.1045
  978MOL0     H34928  11.574   8.817   8.148  0.1490  0.5871  1.6728
  978MOL0     H34929  11.727   8.786   8.200  0.0165  0.5267 -0.5940
  978MOL0     H34930  11.636   8.743   7.913  0.0724 -4.4621  1.0916
  978MOL0     H34931  11.709   8.897   7.977 -0.0549 -0.8424  0.2970
  978MOL0     H34932  11.857   8.631   7.993 -3.7419 -0.1185 -0.0453
  978MOL0     H34933  11.906   8.801   8.044  0.7118 -0.6768 -1.0374
  978MOL0     H34934  11.931   8.890   7.823  2.8419 -0.5210  1.4256
  978MOL0     H34935  11.867   8.743   7.752  0.2023  1.1757 -0.5727
  978MOL0     H34936  12.116   8.776   7.917 -2.0652  0.7486  0.0327
  978MOL0     H34937  12.061   8.617   7.848 -3.5005 -0.9727  1.9926
  978MOL0     H34938  12.124   8.866   7.670  1.6592  1.0230  0.9882
  978MOL0     H34939  12.105   8.699   7.609 -0.7357 -2.1505  0.8592
  978MOL0     H34940  12.335   8.798   7.803  1.8605 -3.5703  0.9212
  978MOL0     H34941  12.336   8.796   7.620  1.5562  0.0077  0.2212
  978MOL0     H34942  12.288   8.550   7.802 -0.5005  1.9261  0.6555
  978MOL0     H34943  12.444   8.580   7.735 -0.2166  0.9221  0.9037
  978MOL0     H34944  11.703   8.583   8.369  0.1966  2.3248 -1.4666
  978MOL0     H34945  11.577   8.485   8.547 -0.5012 -1.3734 -0.1719
  978MOL0     H34946  11.063   8.339   8.570  0.4347 -0.8607 -1.1667
  978MOL0     H34947  10.901   8.169   8.640  0.0495  0.4643  0.1747
  978MOL0     H34948   9.640   7.405   8.124  0.0516  1.2142  0.9034
  978MOL0     H34949   9.658   7.241   7.952  1.5870 -0.9300 -1.4509
  978MOL0     H34950   9.846   7.214   7.588  2.4079 -2.5929 -0.8718
  978MOL0     H34951   9.779   7.187   7.380  0.3435  0.4471 -0.2538
  978MOL0     H34952   9.665   7.153   7.181  3.0213  0.3032 -1.7807
  978MOL0     H34953   9.793   7.028   7.191  0.7052  0.7352 -2.0711
  978MOL0     H34954   9.642   6.864   7.085  3.6139  0.7607  4.4429
  978MOL0     H34955   9.680   7.012   6.980  1.1429  1.0125  1.7449
  978MOL0     H34956   9.441   7.089   7.072  2.1719  1.5088 -0.8699
  978MOL0     H34957   9.456   6.968   6.935  1.8887  0.6437  0.4220
  978MOL0     H34958   9.431   6.773   7.108 -2.9716 -1.8412 -1.9656
  978MOL0     H34959   9.282   6.858   7.052 -0.4298 -0.1147  2.3254
  978MOL0     H34960   9.266   6.895   7.450 -1.8232 -0.8990 -0.7764
  978MOL0     H34961   9.560   6.837   7.495  1.4492 -1.0974 -1.1759
  978MOL0     H34962   9.573   6.743   7.695  0.3618 -0.9904  1.2047
  978MOL0     H34963   9.723   6.778   7.774  0.4507 -1.8703 -3.1143
  978MOL0     H34964   9.562   6.862   7.828  0.8862  1.3189  0.1572
  979MOL0     O34965   3.240   6.190   2.792  0.8290  1.2933 -0.4050
  979MOL0     C34966   3.361   6.196   2.806  0.4073  0.9933 -0.4373
  979MOL0     O34967   3.443   6.124   2.741  0.0500 -0.4194  0.5506
  979MOL0     C34968   3.395   6.033   2.645 -0.3889  0.1200  0.1888
  979MOL0     C34969   3.425   5.896   2.667  0.4262 -0.7783  0.1841
  979MOL0     C34970   3.404   5.802   2.564 -0.4223 -0.9574 -0.4416
  979MOL0     C34971   3.346   5.841   2.444 -0.4732  0.4553  0.5594
  979MOL0     O34972   3.324   5.754   2.342  0.1368 -0.3428  0.5400
  979MOL0     C34973   3.404   5.635   2.321  0.0991  0.2699  0.8920
  979MOL0     C34974   3.345   5.561   2.204  0.0936  1.4831 -0.5081
  979MOL0     C34975   3.201   5.515   2.219  0.3835  0.4177  0.5098
  979MOL0     C34976   3.152   5.432   2.100  0.1697 -0.2949 -0.5678
  979MOL0     C34977   3.167   5.501   1.962  0.4856 -0.4616 -0.1762
  979MOL0     C34978   3.155   5.658   1.956  0.9423 -0.3311 -0.0842
  979MOL0     C34979   3.010   5.709   1.977  0.2989 -0.3085 -0.1187
  979MOL0     C34980   2.992   5.844   2.047 -0.4185  0.2246 -0.3369
  979MOL0     N34981   3.082   5.951   1.991  0.1452  0.2545  0.4975
  979MOL0     C34982   3.076   6.002   1.864  0.5996 -0.2936  0.1224
  979MOL0     C34983   3.200   6.054   1.839  1.4433  0.7751  0.9064
  979MOL0     C34984   3.234   6.098   1.706 -0.2086  0.1738 -0.4658
  979MOL0     C34985   3.190   6.237   1.682 -0.3480  0.7387 -0.2188
  979MOL0     C34986   3.250   6.288   1.560  0.7208  0.9242 -1.0634
  979MOL0     C34987   3.196   6.425   1.520 -0.8064 -0.7615 -0.2921
  979MOL0     O34988   3.052   6.420   1.494 -0.7374  0.2800 -0.2648
  979MOL0     C34989   2.992   6.538   1.489 -0.4076  0.4278 -0.4417
  979MOL0     C34990   2.988   6.612   1.372 -1.3412  0.2427 -1.3029
  979MOL0     C34991   2.921   6.741   1.376  0.0801 -0.1810  0.4427
  979MOL0     C34992   2.879   6.815   1.249 -1.2019  0.1026 -0.0788
  979MOL0     C34993   2.870   6.790   1.498  0.0749 -1.0525 -0.7962
  979MOL0     C34994   2.785   6.910   1.526 -0.2177 -0.2516 -0.1335
  979MOL0     O34995   2.682   6.910   1.613  0.5250  0.5624 -0.1056
  979MOL0     C34996   2.612   7.017   1.657 -0.1546 -0.0539  0.1338
  979MOL0     C34997   2.587   7.141   1.596  0.1971  0.5840  0.2878
  979MOL0     C34998   2.517   7.243   1.653  0.1342 -0.1408 -0.3994
  979MOL0     C34999   2.444   7.222   1.770 -0.2282  0.0557 -0.1284
  979MOL0     O35000   2.390   7.310   1.861  0.3597  0.1798 -0.3478
  979MOL0     C35001   2.339   7.439   1.820 -0.0964  0.5177 -0.4470
  979MOL0     C35002   2.319   7.519   1.948  0.2653 -0.4997  0.1333
  979MOL0     C35003   2.284   7.657   1.909  0.6608 -0.8052  0.6336
  979MOL0     C35004   2.240   7.753   2.027 -0.4129 -0.2596 -1.3842
  979MOL0     C35005   2.168   7.878   1.974 -0.5590 -0.6664 -0.8483
  979MOL0     C35006   2.234   7.955   1.862 -0.4780  0.3136 -0.4480
  979MOL0     C35007   2.374   7.999   1.902  0.0396 -0.6899 -0.3638
  979MOL0     C35008   2.373   8.106   2.017 -0.3327  0.5228  0.0862
  979MOL0    Cl35009   2.536   8.170   2.059 -0.4633 -0.3417  0.1970
  979MOL0     C35010   2.459   7.092   1.829 -0.8870 -0.3742  0.0886
  979MOL0     C35011   2.544   6.997   1.777  0.3706 -0.8984  0.6869
  979MOL0     O35012   2.818   7.014   1.467  0.4940  0.2748 -0.5249
  979MOL0     C35013   2.865   6.706   1.612  0.2771 -0.1934  0.5860
  979MOL0     C35014   2.927   6.582   1.605  0.2735 -0.6608  0.5285
  979MOL0     N35015   3.267   6.061   1.954  0.6377 -0.1734  0.4082
  979MOL0     N35016   3.203   5.995   2.049  0.9477  0.4174  0.6329
  979MOL0     C35017   3.326   5.978   2.415  0.6035  0.1559  0.1577
  979MOL0     C35018   3.355   6.076   2.520 -0.1245  0.8434  0.5162
  979MOL0     C35019   3.400   6.292   2.917 -0.5689 -0.2763  0.3128
  979MOL0     C35020   3.318   6.309   3.036  0.7830 -0.2478  0.1222
  979MOL0     C35021   3.366   6.403   3.138  0.5225  1.3099 -0.7710
  979MOL0     C35022   3.495   6.464   3.135 -0.1231 -0.0742  0.0394
  979MOL0     O35023   3.536   6.551   3.232 -0.1615 -0.1320  0.0552
  979MOL0     C35024   3.469   6.568   3.355 -0.0581  0.1860 -0.9830
  979MOL0     C35025   3.551   6.666   3.454  0.4264 -0.1622 -0.4674
  979MOL0     C35026   3.692   6.615   3.482  0.4021 -0.1662 -0.8030
  979MOL0     C35027   3.763   6.686   3.593  0.7999 -0.1403  0.3143
  979MOL0     C35028   3.905   6.647   3.601 -0.1123  0.1837 -0.0707
  979MOL0     C35029   4.023   6.616   3.627 -0.4762 -0.2850  0.4027
  979MOL0     C35030   3.571   6.434   3.021  1.0325  0.0364  0.2818
  979MOL0     C35031   3.529   6.355   2.914  1.0528  0.0212 -0.5449
  979MOL0     C35032   3.624   6.345   2.795 -0.8123 -0.5810 -0.1418
  979MOL0     H35033   3.461   5.860   2.763 -0.6551 -0.5784  0.6902
  979MOL0     H35034   3.408   5.703   2.606 -0.7088  0.0542  2.1498
  979MOL0     H35035   3.396   5.567   2.406  1.4293  2.0331  2.5415
  979MOL0     H35036   3.504   5.676   2.301  0.2343  0.1356  1.2710
  979MOL0     H35037   3.382   5.597   2.107 -0.5472 -1.2865 -1.8986
  979MOL0     H35038   3.398   5.465   2.201 -0.5878  0.9971  1.4714
  979MOL0     H35039   3.200   5.459   2.313  3.6414 -0.2777  0.2532
  979MOL0     H35040   3.138   5.604   2.231 -1.5066 -0.8152  0.1193
  979MOL0     H35041   3.191   5.330   2.095  1.1095 -0.1616  2.2431
  979MOL0     H35042   3.044   5.419   2.105  0.3460 -1.6994 -0.0172
  979MOL0     H35043   3.080   5.469   1.903  1.0964 -3.0578  0.2141
  979MOL0     H35044   3.260   5.461   1.922  0.3590 -0.9784  0.0324
  979MOL0     H35045   3.224   5.698   2.031  0.9230 -0.2561 -0.1073
  979MOL0     H35046   3.188   5.696   1.859  0.3712  0.1430 -0.0995
  979MOL0     H35047   2.955   5.633   2.034  2.1304 -0.9453  0.8902
  979MOL0     H35048   2.961   5.720   1.880 -1.2002  2.0350  0.8262
  979MOL0     H35049   2.889   5.880   2.038  0.5885  3.0625 -1.4761
  979MOL0     H35050   3.012   5.838   2.155 -0.6667 -0.9833 -0.3438
  979MOL0     H35051   2.999   5.999   1.788  0.9260 -2.1297 -0.1796
  979MOL0     H35052   3.199   6.025   1.632 -1.1779 -1.3225  1.3870
  979MOL0     H35053   3.343   6.095   1.700 -0.2452 -0.8671 -0.9354
  979MOL0     H35054   3.081   6.242   1.679 -0.4209 -0.7966 -1.3477
  979MOL0     H35055   3.217   6.304   1.764  2.6455 -0.5188 -0.0702
  979MOL0     H35056   3.356   6.291   1.587 -0.2343 -0.1215  3.7862
  979MOL0     H35057   3.236   6.217   1.478 -1.4159 -2.6711  2.0689
  979MOL0     H35058   3.223   6.498   1.597  1.4692 -0.5878 -1.2137
  979MOL0     H35059   3.254   6.454   1.433  0.4965 -2.0514  0.0946
  979MOL0     H35060   3.028   6.577   1.278 -4.0248  1.7628 -3.1351
  979MOL0     H35061   2.771   6.809   1.235 -1.0280  0.5313 -1.9280
  979MOL0     H35062   2.925   6.761   1.166 -0.0402  0.4122  0.3389
  979MOL0     H35063   2.917   6.918   1.245  2.0768 -1.0315 -2.1569
  979MOL0     H35064   2.642   7.153   1.503  0.6895 -4.3893 -0.3614
  979MOL0     H35065   2.504   7.341   1.607 -2.2448  0.8103  2.0154
  979MOL0     H35066   2.409   7.490   1.754 -0.4091  0.6584 -0.6706
  979MOL0     H35067   2.247   7.421   1.765  0.7658 -2.0799 -1.2319
  979MOL0     H35068   2.246   7.474   2.015 -1.2570  3.3163  1.3529
  979MOL0     H35069   2.404   7.524   2.017 -1.1422  1.0745  1.8571
  979MOL0     H35070   2.185   7.651   1.864 -0.7824 -0.6253  3.5493
  979MOL0     H35071   2.349   7.707   1.838 -1.8456  1.2858 -0.3298
  979MOL0     H35072   2.333   7.775   2.080 -1.1160  1.2109 -0.6909
  979MOL0     H35073   2.182   7.702   2.105  0.6643  2.6904  1.5555
  979MOL0     H35074   2.076   7.833   1.936  0.3528 -3.0629 -0.3907
  979MOL0     H35075   2.150   7.947   2.056  0.3505  1.0013 -1.9894
  979MOL0     H35076   2.164   8.038   1.852  0.5355  1.0246 -1.8730
  979MOL0     H35077   2.233   7.899   1.768  0.4702 -0.3508 -0.0716
  979MOL0     H35078   2.432   8.028   1.813  4.3469 -1.6068  1.8594
  979MOL0     H35079   2.439   7.921   1.942  1.8544 -0.5980 -2.8512
  979MOL0     H35080   2.336   8.054   2.106  1.8008 -0.8867  0.2147
  979MOL0     H35081   2.301   8.185   1.994 -0.0907 -0.0321 -2.9497
  979MOL0     H35082   2.410   7.078   1.925  0.5358  2.7468  1.4086
  979MOL0     H35083   2.543   6.908   1.840  1.8195  0.4329  2.7214
  979MOL0     H35084   2.827   6.737   1.709 -1.0719  1.0932 -0.3139
  979MOL0     H35085   2.930   6.514   1.690 -1.2159 -2.1176 -0.5374
  979MOL0     H35086   3.300   6.011   2.315  0.2235  1.6309  0.7175
  979MOL0     H35087   3.344   6.181   2.492  0.2678  0.2282 -2.2941
  979MOL0     H35088   3.219   6.265   3.046  0.4237  0.0433 -1.8388
  979MOL0     H35089   3.295   6.409   3.220 -0.3681 -0.3160 -1.3729
  979MOL0     H35090   3.379   6.628   3.339 -0.3907 -0.3763 -1.2521
  979MOL0     H35091   3.447   6.467   3.391 -3.5864  1.5286  1.1334
  979MOL0     H35092   3.490   6.685   3.543  0.7169  1.4752 -0.5775
  979MOL0     H35093   3.549   6.765   3.407 -2.1000  0.4241  0.7129
  979MOL0     H35094   3.681   6.510   3.510 -0.3432 -0.6979 -2.9096
  979MOL0     H35095   3.742   6.637   3.387 -0.8149  0.5553 -1.3041
  979MOL0     H35096   3.714   6.656   3.686 -3.1654  2.6419 -0.6063
  979MOL0     H35097   3.754   6.795   3.583 -0.0749 -0.4143 -3.1300
  979MOL0     H35098   4.128   6.593   3.633 -0.8142 -1.8912  0.6802
  979MOL0     H35099   3.672   6.476   3.025  1.4035 -0.8248  0.0615
  979MOL0     H35100   3.712   6.286   2.821  1.8557  3.2943  0.4606
  979MOL0     H35101   3.579   6.315   2.700  1.3699  2.2415 -2.2432
  979MOL0     H35102   3.663   6.445   2.774 -0.3442  0.1251  3.4102
  980MOL0     O35103   7.967   4.095   5.637 -0.2969  0.1217 -0.0103
  980MOL0     C35104   7.880   4.156   5.582  0.4474 -0.3387  1.0359
  980MOL0     O35105   7.782   4.104   5.502  0.5960  0.5448  0.8396
  980MOL0     C35106   7.775   3.971   5.491  0.5817  0.7538  0.0202
  980MOL0     C35107   7.852   3.893   5.405 -0.2706  0.5768 -0.5313
  980MOL0     C35108   7.853   3.752   5.396  0.9232  0.3844 -0.4948
  980MOL0     C35109   7.773   3.679   5.482  0.6004  0.6551  0.3029
  980MOL0     O35110   7.788   3.537   5.476 -0.3652 -0.2834  0.1963
  980MOL0     C35111   7.665   3.462   5.497  0.4566 -0.1414 -0.5233
  980MOL0     C35112   7.555   3.482   5.392 -0.4535 -0.6516 -0.5560
  980MOL0     C35113   7.405   3.455   5.436 -1.2733  0.5703 -0.0964
  980MOL0     C35114   7.390   3.383   5.566  0.5742  0.4699 -0.5170
  980MOL0     C35115   7.255   3.318   5.572 -0.0316 -0.5411  1.9971
  980MOL0     C35116   7.230   3.231   5.694  0.5587  0.1681 -0.2332
  980MOL0     C35117   7.082   3.187   5.701 -0.9414  0.2195  0.5608
  980MOL0     C35118   7.051   3.110   5.828  0.1915  0.6876  0.4136
  980MOL0     N35119   6.909   3.136   5.861 -0.7348 -0.9203  0.1046
  980MOL0     C35120   6.797   3.050   5.877 -0.7485 -0.2772 -0.0625
  980MOL0     C35121   6.708   3.130   5.940 -0.9936  0.0784 -0.1911
  980MOL0     C35122   6.583   3.088   5.997 -0.7384 -0.5529  0.4531
  980MOL0     C35123   6.464   3.144   5.923 -0.0432  0.1044  0.5574
  980MOL0     C35124   6.457   3.081   5.780  2.0937 -0.4576  1.3549
  980MOL0     C35125   6.338   3.139   5.692 -0.2837 -0.0211 -0.8918
  980MOL0     O35126   6.222   3.197   5.762  0.4139 -0.0631  0.0397
  980MOL0     C35127   6.122   3.265   5.706  0.3447 -0.0027  0.1651
  980MOL0     C35128   6.006   3.296   5.778  0.8735 -0.2118  0.4839
  980MOL0     C35129   5.892   3.364   5.729  0.1930 -0.2666  1.1186
  980MOL0     C35130   5.759   3.360   5.803 -0.2304 -0.2132  0.0256
  980MOL0     C35131   5.906   3.406   5.592  0.0862  1.2909 -0.0850
  980MOL0     C35132   5.798   3.481   5.524  1.0553 -0.6512  0.6813
  980MOL0     O35133   5.710   3.545   5.605 -0.1674  0.9603  0.2303
  980MOL0     C35134   5.599   3.597   5.550 -0.5417  0.8660  0.0426
  980MOL0     C35135   5.576   3.739   5.552  0.4122  0.0853  0.8286
  980MOL0     C35136   5.458   3.790   5.500  0.2131  0.1607 -0.0687
  980MOL0     C35137   5.363   3.704   5.441 -1.3040 -0.3806 -0.3829
  980MOL0     O35138   5.253   3.747   5.375  0.0549  0.5365 -1.2035
  980MOL0     C35139   5.197   3.873   5.418  0.3555 -0.1434 -0.3005
  980MOL0     C35140   5.056   3.875   5.364  0.9390 -0.0540  0.0245
  980MOL0     C35141   4.979   3.993   5.421 -0.1610  0.0911 -0.2468
  980MOL0     C35142   4.842   4.017   5.347 -0.2147  0.1352 -0.2961
  980MOL0     C35143   4.771   4.137   5.401  0.1430 -0.2232  0.4480
  980MOL0     C35144   4.663   4.199   5.306  1.3740 -0.1890 -0.2566
  980MOL0     C35145   4.603   4.325   5.377  1.0079 -0.5438  0.1520
  980MOL0     C35146   4.507   4.283   5.489 -0.2742 -0.1147  0.0502
  980MOL0    Cl35147   4.429   4.430   5.561  0.0637  0.3404 -0.3031
  980MOL0     C35148   5.391   3.568   5.436  0.1856  0.1389 -1.4085
  980MOL0     C35149   5.500   3.514   5.492  0.0315  0.2403  0.7388
  980MOL0     O35150   5.802   3.495   5.401  0.7123 -0.4255  0.5176
  980MOL0     C35151   6.018   3.360   5.513  0.0821 -0.1966 -0.3009
  980MOL0     C35152   6.126   3.304   5.576  0.7393 -0.7723  0.9624
  980MOL0     N35153   6.767   3.251   5.968  0.3380  0.1003 -0.3505
  980MOL0     N35154   6.873   3.259   5.901  0.0370 -0.1752 -0.4497
  980MOL0     C35155   7.692   3.750   5.572  0.0681 -0.0711  0.1616
  980MOL0     C35156   7.700   3.893   5.576  0.7208  0.5096 -0.9661
  980MOL0     C35157   7.881   4.301   5.607 -0.0143  0.5519 -0.1656
  980MOL0     C35158   8.001   4.366   5.605  0.5593  0.7797  1.3944
  980MOL0     C35159   8.004   4.502   5.615 -0.5476 -0.0665  0.2221
  980MOL0     C35160   7.891   4.576   5.632 -0.7836  1.5110 -0.4683
  980MOL0     O35161   7.904   4.710   5.633  0.6708 -0.0465  0.2399
  980MOL0     C35162   7.788   4.794   5.667 -0.2065  0.0092 -0.8964
  980MOL0     C35163   7.805   4.947   5.647  0.2383 -0.1833 -0.0300
  980MOL0     C35164   7.862   4.998   5.524  0.4373 -0.1364  0.8242
  980MOL0     C35165   7.917   5.137   5.523  0.1446 -0.8473 -0.2045
  980MOL0     C35166   7.818   5.245   5.537 -0.4695  0.3218  0.4369
  980MOL0     C35167   7.732   5.333   5.530  0.6223  0.4209  0.2764
  980MOL0     C35168   7.770   4.510   5.624  0.6025 -0.6171 -0.1176
  980MOL0     C35169   7.759   4.371   5.617  0.2237  0.3872 -0.5460
  980MOL0     C35170   7.618   4.314   5.609 -0.2329 -0.2626  0.6078
  980MOL0     H35171   7.913   3.945   5.331 -0.1483 -0.4232 -1.1483
  980MOL0     H35172   7.918   3.690   5.335 -2.5679 -1.9334 -2.1749
  980MOL0     H35173   7.628   3.475   5.599  0.2251 -0.5699 -0.5503
  980MOL0     H35174   7.694   3.357   5.486  1.4702 -0.0206  0.8179
  980MOL0     H35175   7.563   3.578   5.340  2.6592 -1.9073 -2.7485
  980MOL0     H35176   7.590   3.416   5.312 -2.4196 -0.0323 -2.0008
  980MOL0     H35177   7.355   3.549   5.461 -0.6285  0.2156  2.9477
  980MOL0     H35178   7.355   3.395   5.359 -3.8201 -0.7186  2.3781
  980MOL0     H35179   7.460   3.299   5.570  0.3487  0.2807 -0.4922
  980MOL0     H35180   7.412   3.443   5.655  0.0481 -0.7144  0.4369
  980MOL0     H35181   7.236   3.266   5.477  1.4711  1.2732  0.5979
  980MOL0     H35182   7.181   3.398   5.572  0.7828  0.4009 -1.2198
  980MOL0     H35183   7.285   3.137   5.680  0.3104  0.1087 -0.8631
  980MOL0     H35184   7.250   3.290   5.784  2.4406  0.8785 -1.0921
  980MOL0     H35185   7.056   3.125   5.615 -0.4747  0.6633  0.0899
  980MOL0     H35186   7.022   3.277   5.682 -1.1164 -0.1358 -0.6715
  980MOL0     H35187   7.052   3.002   5.811 -4.5330  0.6374 -1.1723
  980MOL0     H35188   7.115   3.150   5.907  0.4286 -0.6496  0.9256
  980MOL0     H35189   6.792   2.945   5.852  2.0072 -0.5477  0.1960
  980MOL0     H35190   6.584   3.126   6.100  1.7109  1.7832 -0.3164
  980MOL0     H35191   6.588   2.979   6.000  0.5138 -0.4967  3.3917
  980MOL0     H35192   6.378   3.110   5.981 -0.7784 -0.2123 -0.6747
  980MOL0     H35193   6.463   3.253   5.917 -0.8327  0.0278 -2.4184
  980MOL0     H35194   6.551   3.094   5.725  1.4144 -1.1831 -0.0247
  980MOL0     H35195   6.440   2.973   5.774 -0.0121 -0.2455  2.6076
  980MOL0     H35196   6.378   3.204   5.613 -0.0437  0.2786 -0.5315
  980MOL0     H35197   6.306   3.060   5.623 -0.0602  1.0123 -2.2270
  980MOL0     H35198   5.997   3.257   5.879 -1.5712 -3.5793 -0.8325
  980MOL0     H35199   5.752   3.262   5.852  0.1280 -0.5628 -0.6000
  980MOL0     H35200   5.668   3.370   5.742  2.5551  0.0778 -4.5723
  980MOL0     H35201   5.761   3.431   5.885 -1.4664 -1.5596  1.2877
  980MOL0     H35202   5.662   3.797   5.586  1.4253 -0.8003 -0.1148
  980MOL0     H35203   5.451   3.898   5.491 -0.4128  0.9504  6.0402
  980MOL0     H35204   5.184   3.869   5.526  2.8137  3.3940  0.2854
  980MOL0     H35205   5.251   3.961   5.383 -2.1884  2.2648  1.4234
  980MOL0     H35206   5.044   3.881   5.255  0.2753  0.9399  0.1418
  980MOL0     H35207   5.020   3.774   5.386  0.2630 -0.4071 -2.3466
  980MOL0     H35208   5.049   4.074   5.402  1.0920 -0.6322  1.0520
  980MOL0     H35209   4.967   3.980   5.529  1.1493 -1.2949 -0.2312
  980MOL0     H35210   4.788   3.922   5.356  0.7141 -0.4853 -1.0665
  980MOL0     H35211   4.861   4.044   5.243  0.6169  4.7582  0.8514
  980MOL0     H35212   4.734   4.116   5.502 -1.1299 -0.4256 -0.0336
  980MOL0     H35213   4.856   4.204   5.412  1.8696 -2.2663  0.1252
  980MOL0     H35214   4.581   4.127   5.292  1.7514 -1.4628  3.0619
  980MOL0     H35215   4.720   4.233   5.219  0.9226  3.4352  0.7310
  980MOL0     H35216   4.535   4.378   5.309  1.0312  1.5152  1.6335
  980MOL0     H35217   4.674   4.399   5.416  0.8124 -0.5833  0.5895
  980MOL0     H35218   4.552   4.220   5.566  1.4779  2.7041  1.5281
  980MOL0     H35219   4.427   4.221   5.448  1.7150 -1.4857 -2.0242
  980MOL0     H35220   5.309   3.515   5.387  0.0021 -0.4352 -0.4917
  980MOL0     H35221   5.488   3.406   5.490  0.5287  0.0878  2.9891
  980MOL0     H35222   6.013   3.375   5.406 -2.5004 -1.8429 -0.4814
  980MOL0     H35223   6.214   3.292   5.513  1.1150  2.2599  0.7841
  980MOL0     H35224   7.638   3.706   5.655  0.8931  0.0696  0.7873
  980MOL0     H35225   7.648   3.944   5.656 -0.3386 -1.5122 -0.2919
  980MOL0     H35226   8.097   4.318   5.594 -1.2231 -2.4797 -2.4701
  980MOL0     H35227   8.099   4.555   5.611 -0.8104  0.3476 -0.6295
  980MOL0     H35228   7.704   4.763   5.605  1.1170 -0.5251 -2.5036
  980MOL0     H35229   7.759   4.778   5.771  1.6641 -0.2677 -0.3778
  980MOL0     H35230   7.864   4.976   5.734  1.5906 -1.1582 -0.5809
  980MOL0     H35231   7.706   4.989   5.666  0.1446 -1.6715  3.6015
  980MOL0     H35232   7.940   4.929   5.488 -0.0391 -1.1136  1.6330
  980MOL0     H35233   7.795   4.975   5.441 -0.7593  1.0366  1.4457
  980MOL0     H35234   7.983   5.157   5.437  1.4741  1.9405  1.3214
  980MOL0     H35235   7.972   5.149   5.616  0.0244  5.0845 -0.4910
  980MOL0     H35236   7.656   5.408   5.521 -0.4438 -0.7412 -0.8597
  980MOL0     H35237   7.687   4.578   5.638  1.4081  0.3258  0.2794
  980MOL0     H35238   7.534   4.383   5.604  0.5570  0.6415 -1.3819
  980MOL0     H35239   7.607   4.249   5.521 -0.1562  0.8766 -0.2645
  980MOL0     H35240   7.594   4.254   5.698 -1.4444 -0.2046  0.3380
  981MOL0     O35241   8.540   0.797   6.653 -0.0530 -0.2261  0.2909
  981MOL0     C35242   8.588   0.903   6.701  0.5499 -0.0932  0.6789
  981MOL0     O35243   8.664   0.993   6.630  0.3979  0.2935 -0.1871
  981MOL0     C35244   8.707   0.960   6.498  0.9072  0.0709  0.6868
  981MOL0     C35245   8.737   1.080   6.431 -0.7480  0.2811  0.8415
  981MOL0     C35246   8.802   1.079   6.303 -1.2564 -1.0402 -0.8784
  981MOL0     C35247   8.815   0.952   6.243 -0.0642 -1.1422  0.2992
  981MOL0     O35248   8.874   0.925   6.116 -0.4166  0.3824 -0.0210
  981MOL0     C35249   8.925   1.041   6.045  0.4097  0.3438  1.1005
  981MOL0     C35250   8.993   0.983   5.919 -0.4193  0.6026 -0.1166
  981MOL0     C35251   9.101   0.878   5.952  0.5095 -0.0980  0.8244
  981MOL0     C35252   9.186   0.861   5.829 -0.2432  0.6294 -0.0303
  981MOL0     C35253   9.281   0.740   5.850 -0.6339 -0.2773  0.4737
  981MOL0     C35254   9.402   0.745   5.939 -0.7788 -0.3213 -0.4594
  981MOL0     C35255   9.469   0.606   5.962  0.2446 -0.2530  1.1351
  981MOL0     C35256   9.617   0.616   5.979  0.3521 -0.9677 -0.2103
  981MOL0     N35257   9.678   0.666   5.856 -0.1081  0.4315 -0.4431
  981MOL0     C35258   9.748   0.781   5.852 -0.6747  0.5133  1.1628
  981MOL0     C35259   9.798   0.799   5.726  0.5419 -0.1553 -0.2575
  981MOL0     C35260   9.892   0.895   5.663 -0.5579 -0.1254 -0.5074
  981MOL0     C35261   9.887   1.035   5.725 -0.4035  0.4213  0.4561
  981MOL0     C35262   9.946   1.152   5.638  0.4103 -0.3795 -0.2536
  981MOL0     C35263   9.902   1.284   5.702 -0.5190  0.1934  0.5219
  981MOL0     O35264   9.770   1.319   5.645  0.6066  0.0528  0.0984
  981MOL0     C35265   9.689   1.411   5.702  0.2141  0.8585  1.1380
  981MOL0     C35266   9.561   1.422   5.646 -0.7619 -0.4503 -0.0772
  981MOL0     C35267   9.472   1.530   5.677  0.6020  0.4013 -0.8757
  981MOL0     C35268   9.352   1.548   5.590  1.0149 -0.5119 -0.1960
  981MOL0     C35269   9.503   1.608   5.798  0.4270 -0.5582 -0.3541
  981MOL0     C35270   9.424   1.729   5.833 -0.6051  1.3947 -0.9578
  981MOL0     O35271   9.286   1.716   5.821 -0.1303 -0.2255 -0.1774
  981MOL0     C35272   9.203   1.836   5.844 -0.6168 -0.2153  1.5047
  981MOL0     C35273   9.235   1.958   5.783 -1.1409 -0.5952 -0.5566
  981MOL0     C35274   9.158   2.074   5.801  0.6697 -0.0420  0.1451
  981MOL0     C35275   9.054   2.080   5.894  0.2991  0.5164 -0.7456
  981MOL0     O35276   8.977   2.188   5.930  0.1678 -0.1568  0.1039
  981MOL0     C35277   9.046   2.309   5.920  0.2412 -0.2689 -0.8083
  981MOL0     C35278   9.000   2.419   6.026 -0.2750  0.6562  1.1487
  981MOL0     C35279   9.082   2.548   6.019  0.0330  0.2045 -0.4980
  981MOL0     C35280   9.233   2.536   6.046  0.2725  0.3203  0.4200
  981MOL0     C35281   9.293   2.666   5.999 -0.3566 -0.4709  0.5029
  981MOL0     C35282   9.301   2.787   6.097  0.1410  0.2312  1.5391
  981MOL0     C35283   9.411   2.765   6.211  0.4220  0.1048 -0.0715
  981MOL0     C35284   9.406   2.871   6.312  0.1716 -0.3433 -0.8803
  981MOL0    Cl35285   9.503   2.833   6.462 -0.2100 -0.2391 -0.1193
  981MOL0     C35286   9.019   1.960   5.946  0.8529  0.6057 -0.1149
  981MOL0     C35287   9.086   1.841   5.918 -0.7883 -0.5188 -0.0132
  981MOL0     O35288   9.483   1.822   5.872 -0.7050  0.1912  0.4538
  981MOL0     C35289   9.623   1.583   5.858  0.2023  0.5121 -0.3125
  981MOL0     C35290   9.718   1.491   5.813 -0.0627 -0.6026  0.0187
  981MOL0     N35291   9.758   0.685   5.649  0.0033 -0.0848 -0.4254
  981MOL0     N35292   9.674   0.616   5.725 -0.2291  0.0529  0.7616
  981MOL0     C35293   8.791   0.832   6.317  0.3229 -0.9412 -0.2971
  981MOL0     C35294   8.742   0.840   6.447 -0.8081  0.1397 -0.0827
  981MOL0     C35295   8.559   0.951   6.839  0.6584 -0.3878 -0.1473
  981MOL0     C35296   8.649   1.038   6.904 -0.3213  0.6388  0.1180
  981MOL0     C35297   8.633   1.057   7.037  0.9400 -0.1788 -0.5772
  981MOL0     C35298   8.509   1.032   7.107 -1.0876 -0.5510 -0.3302
  981MOL0     O35299   8.488   1.081   7.235  0.3264 -0.3159 -0.1877
  981MOL0     C35300   8.600   1.094   7.328  0.8043  0.4691 -0.2233
  981MOL0     C35301   8.562   1.142   7.468  0.0537 -0.4090 -0.4183
  981MOL0     C35302   8.438   1.070   7.522  0.7676 -0.9347  0.1234
  981MOL0     C35303   8.300   1.130   7.490  0.3662  0.4287 -0.7111
  981MOL0     C35304   8.278   1.258   7.557 -0.3960  0.7056 -0.7198
  981MOL0     C35305   8.290   1.365   7.619  0.2300  0.1784  0.1531
  981MOL0     C35306   8.411   0.962   7.043 -0.4729  0.6103 -0.4763
  981MOL0     C35307   8.438   0.915   6.912  0.5169 -0.5580 -1.0382
  981MOL0     C35308   8.329   0.830   6.851 -0.2327 -0.3783 -1.2756
  981MOL0     H35309   8.736   1.170   6.491 -0.5911  0.4511  0.5890
  981MOL0     H35310   8.850   1.166   6.260  1.2943 -0.7413  2.2472
  981MOL0     H35311   9.012   1.082   6.096  0.5875  2.4222 -0.7333
  981MOL0     H35312   8.856   1.120   6.013  0.0280 -0.2148  0.5103
  981MOL0     H35313   8.920   0.944   5.847  1.2938  2.3764 -2.9628
  981MOL0     H35314   9.048   1.061   5.867 -0.6071  0.0281 -1.1917
  981MOL0     H35315   9.156   0.917   6.039  0.3716  0.8010  0.5235
  981MOL0     H35316   9.064   0.786   5.998 -0.9942  0.7914  1.4809
  981MOL0     H35317   9.123   0.844   5.741 -0.0759  3.2576 -0.7466
  981MOL0     H35318   9.248   0.950   5.816  0.3591  0.1638 -0.3928
  981MOL0     H35319   9.318   0.696   5.757 -1.3727  1.0919 -0.4965
  981MOL0     H35320   9.225   0.659   5.897  0.5612 -1.3479  0.1115
  981MOL0     H35321   9.474   0.811   5.888  1.6725 -2.7852 -0.4000
  981MOL0     H35322   9.372   0.794   6.032  1.6035  1.6039 -0.5699
  981MOL0     H35323   9.441   0.542   5.879 -3.1166 -0.5724  2.3497
  981MOL0     H35324   9.433   0.544   6.045  1.3613 -2.1852  0.2325
  981MOL0     H35325   9.650   0.684   6.058  0.4337 -0.8722 -0.3253
  981MOL0     H35326   9.661   0.518   5.997  0.6650 -0.3339  3.2200
  981MOL0     H35327   9.756   0.845   5.939 -5.7479  0.2803  2.0701
  981MOL0     H35328   9.862   0.911   5.559 -1.5750 -0.0278 -0.2113
  981MOL0     H35329   9.994   0.856   5.668 -0.1240  0.9012 -0.9834
  981MOL0     H35330   9.781   1.042   5.749  0.0198 -3.1555  4.5896
  981MOL0     H35331   9.925   1.037   5.828  0.4404 -0.1066  0.1644
  981MOL0     H35332  10.055   1.147   5.647  0.5135  2.6395  1.4936
  981MOL0     H35333   9.910   1.144   5.535 -0.4088 -1.2584  0.0889
  981MOL0     H35334   9.892   1.278   5.811 -0.9522  0.1561  0.4830
  981MOL0     H35335   9.975   1.363   5.682 -1.1707  0.4392 -1.0888
  981MOL0     H35336   9.530   1.354   5.567 -0.5472  0.5213 -1.0173
  981MOL0     H35337   9.268   1.480   5.607 -1.7584  2.2080 -1.9862
  981MOL0     H35338   9.380   1.541   5.484  2.5358  3.5043 -0.2009
  981MOL0     H35339   9.316   1.650   5.604  0.8267 -0.8539  2.0919
  981MOL0     H35340   9.319   1.968   5.715 -1.0844  1.8815 -0.2203
  981MOL0     H35341   9.190   2.166   5.753 -1.3745  0.0271 -1.2339
  981MOL0     H35342   9.149   2.287   5.948 -0.7373 -2.2041  1.6966
  981MOL0     H35343   9.040   2.355   5.820  1.9381  2.7171  0.3286
  981MOL0     H35344   8.899   2.447   5.995 -0.4788 -1.2430 -0.0097
  981MOL0     H35345   9.018   2.385   6.129  2.9343  1.4398  0.9687
  981MOL0     H35346   9.051   2.623   6.092  1.4529  1.1822 -0.8801
  981MOL0     H35347   9.067   2.587   5.918  2.8910 -0.3737 -1.2148
  981MOL0     H35348   9.274   2.455   5.985 -2.1845 -0.1415 -0.7452
  981MOL0     H35349   9.248   2.504   6.149 -3.7324  0.4578  1.2260
  981MOL0     H35350   9.398   2.638   5.987 -0.3916 -0.0909 -0.7619
  981MOL0     H35351   9.248   2.700   5.906  0.9604  1.4097  0.4842
  981MOL0     H35352   9.199   2.803   6.135  0.0059  3.8923  0.0749
  981MOL0     H35353   9.328   2.877   6.040  0.7839  0.7796  2.6633
  981MOL0     H35354   9.513   2.755   6.174  1.5583 -2.3636  3.1637
  981MOL0     H35355   9.393   2.665   6.251 -1.0423  0.0325 -0.8341
  981MOL0     H35356   9.302   2.893   6.341  0.4261 -0.8020  0.4860
  981MOL0     H35357   9.443   2.965   6.272 -1.5312  2.3555  3.1687
  981MOL0     H35358   8.925   1.954   6.001 -0.2786  0.8167 -1.9335
  981MOL0     H35359   9.039   1.748   5.948  0.1388 -0.3177  2.2324
  981MOL0     H35360   9.654   1.635   5.948 -1.2456 -0.2242  0.6308
  981MOL0     H35361   9.817   1.492   5.857 -0.1620  3.0886  0.4169
  981MOL0     H35362   8.824   0.739   6.271 -1.1213 -1.6356  0.0181
  981MOL0     H35363   8.742   0.744   6.497  0.6597  0.6488  0.9633
  981MOL0     H35364   8.737   1.070   6.849 -1.6382  2.8980 -0.8205
  981MOL0     H35365   8.703   1.122   7.089 -1.0219  3.0392 -1.6222
  981MOL0     H35366   8.653   0.999   7.328 -1.5234 -0.9311 -1.8435
  981MOL0     H35367   8.666   1.172   7.291  2.7560 -1.5264 -1.1097
  981MOL0     H35368   8.546   1.251   7.473 -1.2410 -0.2402 -4.5778
  981MOL0     H35369   8.648   1.121   7.532 -0.1906  0.5687  0.2673
  981MOL0     H35370   8.434   0.964   7.496  1.0921 -1.0478  0.5195
  981MOL0     H35371   8.460   1.065   7.629  1.7700  0.6925  0.0182
  981MOL0     H35372   8.220   1.060   7.515  0.0179  1.0950  0.1133
  981MOL0     H35373   8.293   1.150   7.383 -0.6652 -0.4129 -0.8061
  981MOL0     H35374   8.299   1.459   7.671  0.1883 -1.2750  2.9754
  981MOL0     H35375   8.315   0.945   7.090 -0.0090 -1.3652 -0.1611
  981MOL0     H35376   8.356   0.728   6.883 -1.6527  0.2435  2.4524
  981MOL0     H35377   8.237   0.844   6.909  0.7619 -1.6708  0.7528
  981MOL0     H35378   8.319   0.841   6.743 -1.6639 -0.7045 -1.1930
  982MOL0     O35379   0.917   3.486   5.856  0.4291 -0.1647 -0.2749
  982MOL0     C35380   1.032   3.507   5.857  0.6022 -0.3648 -0.0740
  982MOL0     O35381   1.098   3.567   5.748  0.6502 -0.0050  0.1822
  982MOL0     C35382   1.042   3.572   5.617  0.4454 -0.1781 -0.0503
  982MOL0     C35383   0.955   3.478   5.550  0.2925 -0.1607  0.5894
  982MOL0     C35384   0.922   3.497   5.413 -0.2229 -0.2797  0.4485
  982MOL0     C35385   0.973   3.610   5.345 -0.8896  0.7819  0.1622
  982MOL0     O35386   0.933   3.634   5.212  0.2413  0.4627 -0.4355
  982MOL0     C35387   0.968   3.757   5.151 -0.0372  0.0324 -0.4722
  982MOL0     C35388   0.889   3.770   5.021  0.3395  1.3272 -0.4177
  982MOL0     C35389   0.896   3.908   4.958  1.1792  0.0849  1.0648
  982MOL0     C35390   0.768   3.958   4.883 -0.4191  0.3523 -0.6105
  982MOL0     C35391   0.796   4.077   4.796 -0.2101  0.5839 -0.7174
  982MOL0     C35392   0.674   4.107   4.719  0.0545 -0.0329 -0.1603
  982MOL0     C35393   0.700   4.237   4.639  0.3848  0.2350 -0.7259
  982MOL0     C35394   0.622   4.248   4.505  0.4616  0.0386 -0.3236
  982MOL0     N35395   0.649   4.142   4.404  0.2288  0.1433  0.1534
  982MOL0     C35396   0.627   4.001   4.404 -0.0298  0.6600 -0.3733
  982MOL0     C35397   0.648   3.949   4.277 -0.1475  0.0737  0.7522
  982MOL0     C35398   0.626   3.809   4.225  0.0700 -0.4358 -0.3854
  982MOL0     C35399   0.703   3.791   4.090 -0.8704 -0.3692  0.0620
  982MOL0     C35400   0.737   3.651   4.039  0.5762  0.7840 -0.1538
  982MOL0     C35401   0.621   3.569   3.978  0.6349  0.0495 -0.0484
  982MOL0     O35402   0.525   3.556   4.084  0.4959  0.5386 -0.0379
  982MOL0     C35403   0.545   3.456   4.180  0.1375  0.5904  0.3998
  982MOL0     C35404   0.468   3.464   4.294  0.7720  0.6571 -0.1283
  982MOL0     C35405   0.465   3.358   4.391  0.7696 -0.3669  0.1508
  982MOL0     C35406   0.357   3.370   4.500 -0.1288  0.0338  0.4118
  982MOL0     C35407   0.550   3.249   4.383 -0.7888 -0.5560  0.0137
  982MOL0     C35408   0.543   3.133   4.469 -0.7002 -0.2235  1.0378
  982MOL0     O35409   0.555   3.008   4.420  0.1538 -0.2271 -0.2374
  982MOL0     C35410   0.571   2.892   4.492  0.8283 -0.2160 -1.1973
  982MOL0     C35411   0.497   2.878   4.607  0.8525  0.3831 -0.6570
  982MOL0     C35412   0.509   2.755   4.675 -0.7537 -0.2790 -0.2344
  982MOL0     C35413   0.594   2.655   4.625  0.2504 -0.0285 -0.0556
  982MOL0     O35414   0.600   2.539   4.698  0.3670  0.1729  0.0028
  982MOL0     C35415   0.651   2.414   4.636  0.0963  0.2140 -1.0366
  982MOL0     C35416   0.638   2.304   4.739 -0.1308  0.5921  0.7585
  982MOL0     C35417   0.743   2.190   4.728 -0.4013  0.9155 -0.7000
  982MOL0     C35418   0.731   2.087   4.838  0.2550 -0.1843 -0.7413
  982MOL0     C35419   0.833   1.964   4.825 -0.5108 -0.0812 -0.2858
  982MOL0     C35420   0.836   1.879   4.948  0.2692  0.3345  0.4100
  982MOL0     C35421   0.956   1.771   4.934  0.6534  0.3562  0.0103
  982MOL0     C35422   0.943   1.696   4.805 -0.3121  0.9123  0.6234
  982MOL0    Cl35423   1.065   1.767   4.681 -0.2293 -0.3313 -0.0895
  982MOL0     C35424   0.682   2.683   4.519  0.7114  0.9898  1.5521
  982MOL0     C35425   0.674   2.804   4.453  0.8913 -0.3441  0.3247
  982MOL0     O35426   0.541   3.168   4.585 -0.9572 -0.7047  0.0599
  982MOL0     C35427   0.629   3.240   4.260  1.0908  1.0201  0.2863
  982MOL0     C35428   0.633   3.346   4.166  0.7936  0.2065  0.3588
  982MOL0     N35429   0.705   4.054   4.205  0.6341 -0.3424  0.3884
  982MOL0     N35430   0.686   4.163   4.274  0.5610  0.0035 -0.0517
  982MOL0     C35431   1.056   3.709   5.416 -0.9406  0.5772 -0.5530
  982MOL0     C35432   1.090   3.680   5.546  0.0744 -0.2440 -0.0194
  982MOL0     C35433   1.126   3.476   5.979  0.2171 -1.0316  0.4146
  982MOL0     C35434   1.263   3.462   5.956 -0.0316  0.1538  0.7621
  982MOL0     C35435   1.355   3.451   6.060  0.8576  0.0789 -0.4236
  982MOL0     C35436   1.307   3.443   6.193  0.6171  0.1844 -0.2232
  982MOL0     O35437   1.381   3.446   6.312  0.1099 -0.1920 -0.0021
  982MOL0     C35438   1.395   3.317   6.372  0.2988  0.6245 -0.6304
  982MOL0     C35439   1.534   3.285   6.428  0.2139 -0.0071  0.3845
  982MOL0     C35440   1.630   3.254   6.313 -1.1064 -0.0218 -0.1237
  982MOL0     C35441   1.773   3.218   6.366 -0.5315  0.0060 -0.4820
  982MOL0     C35442   1.821   3.297   6.486  0.1766 -0.2703  0.6895
  982MOL0     C35443   1.877   3.367   6.568  0.5586 -0.7217  0.5827
  982MOL0     C35444   1.165   3.446   6.220  0.0699 -1.0865  1.5695
  982MOL0     C35445   1.077   3.474   6.114  0.3914 -0.3248  0.5516
  982MOL0     C35446   0.932   3.497   6.152  0.6543  0.6270 -0.0506
  982MOL0     H35447   0.934   3.382   5.595 -0.7195 -1.0607 -1.6591
  982MOL0     H35448   0.853   3.427   5.368 -0.1204 -2.4783  3.4537
  982MOL0     H35449   1.077   3.761   5.137  0.1678 -1.4272  0.5142
  982MOL0     H35450   0.932   3.837   5.216  1.2683  0.1560  0.1366
  982MOL0     H35451   0.911   3.693   4.946 -2.2618  0.0294  0.0515
  982MOL0     H35452   0.788   3.751   5.058  0.9443 -2.1345 -0.2029
  982MOL0     H35453   0.923   3.992   5.023 -1.2628  1.4205  0.4676
  982MOL0     H35454   0.981   3.901   4.889  1.0332  0.3553  0.8526
  982MOL0     H35455   0.729   3.873   4.825 -1.5204 -2.1403  3.3628
  982MOL0     H35456   0.687   3.981   4.953  0.3719 -0.5460  0.6304
  982MOL0     H35457   0.877   4.060   4.725 -0.3761  3.3296 -1.7114
  982MOL0     H35458   0.825   4.162   4.859 -3.1227  0.6603  0.6955
  982MOL0     H35459   0.664   4.025   4.647  1.4398  1.9425 -2.7889
  982MOL0     H35460   0.582   4.105   4.778 -1.0820  1.4812 -1.7396
  982MOL0     H35461   0.807   4.237   4.617  0.2117 -1.6428 -1.7379
  982MOL0     H35462   0.680   4.317   4.711 -0.3908 -0.3405 -0.2857
  982MOL0     H35463   0.513   4.237   4.514  0.4286 -1.9327 -2.3190
  982MOL0     H35464   0.639   4.347   4.463 -0.8968 -0.9060 -3.4136
  982MOL0     H35465   0.578   3.952   4.488  2.9564  0.3245  1.2898
  982MOL0     H35466   0.519   3.800   4.204 -1.0155  3.0153  2.6417
  982MOL0     H35467   0.656   3.732   4.297 -0.3022  0.5206  0.8223
  982MOL0     H35468   0.666   3.840   4.000  0.5120 -1.4406 -1.1400
  982MOL0     H35469   0.805   3.824   4.113 -0.6715 -1.0346  0.1594
  982MOL0     H35470   0.795   3.672   3.948  1.2522 -0.5230 -0.0396
  982MOL0     H35471   0.801   3.595   4.107  0.6366 -1.4165 -1.9059
  982MOL0     H35472   0.570   3.619   3.895 -0.3573  1.3564  1.3010
  982MOL0     H35473   0.653   3.478   3.928 -0.7893 -0.0405 -0.8620
  982MOL0     H35474   0.397   3.546   4.305 -1.3560 -1.1114 -0.0812
  982MOL0     H35475   0.402   3.398   4.596  2.0894 -1.0438 -0.2576
  982MOL0     H35476   0.312   3.272   4.517 -1.1108  0.2917 -0.5802
  982MOL0     H35477   0.268   3.427   4.472  0.5949 -0.2824 -2.8557
  982MOL0     H35478   0.421   2.951   4.632 -2.0640 -1.4904 -3.2815
  982MOL0     H35479   0.450   2.733   4.764 -2.6649 -1.5532 -1.7347
  982MOL0     H35480   0.597   2.389   4.544  1.1368  0.9237 -1.8720
  982MOL0     H35481   0.757   2.432   4.615  1.0107 -3.1665  0.1361
  982MOL0     H35482   0.635   2.346   4.840  2.0815 -0.0583  1.1343
  982MOL0     H35483   0.539   2.260   4.726  0.3297 -0.3862  0.5097
  982MOL0     H35484   0.844   2.227   4.750 -1.2841  2.1032  1.8385
  982MOL0     H35485   0.721   2.140   4.634  2.3027 -2.2985  0.1880
  982MOL0     H35486   0.626   2.058   4.845 -0.5957  2.8782  0.8416
  982MOL0     H35487   0.740   2.127   4.940 -0.5415 -0.8936 -0.3767
  982MOL0     H35488   0.791   1.915   4.737 -0.0001 -0.1325 -0.5000
  982MOL0     H35489   0.937   1.990   4.803 -0.9091 -0.2468 -2.5980
  982MOL0     H35490   0.747   1.817   4.967  2.3386 -3.5690 -1.4623
  982MOL0     H35491   0.872   1.929   5.038  3.8724 -3.2787  1.2695
  982MOL0     H35492   0.952   1.701   5.018 -0.6224  2.5702  1.9422
  982MOL0     H35493   1.049   1.829   4.933 -0.6059  2.5501 -2.2017
  982MOL0     H35494   0.837   1.690   4.776 -0.3006 -0.6333  0.8083
  982MOL0     H35495   0.981   1.595   4.822  1.1668  1.4806  0.7936
  982MOL0     H35496   0.741   2.601   4.481  0.7981  1.9308 -0.4742
  982MOL0     H35497   0.727   2.837   4.364  1.4030  1.1954  1.1588
  982MOL0     H35498   0.687   3.151   4.237  2.5287  1.5176  1.8341
  982MOL0     H35499   0.700   3.342   4.081  0.0905  0.3582 -0.2081
  982MOL0     H35500   1.097   3.802   5.377  1.0338 -0.6853 -1.6544
  982MOL0     H35501   1.163   3.747   5.590  0.4093  0.4531 -1.5462
  982MOL0     H35502   1.307   3.452   5.857 -1.3016 -0.9539  0.2730
  982MOL0     H35503   1.460   3.455   6.033  0.7478  0.6128 -0.7936
  982MOL0     H35504   1.322   3.318   6.453 -1.7521  0.0087 -2.3782
  982MOL0     H35505   1.362   3.233   6.309 -0.2508 -0.1405  0.6436
  982MOL0     H35506   1.529   3.195   6.490 -0.2606 -1.1139 -1.2019
  982MOL0     H35507   1.560   3.380   6.476 -1.8199  0.4919  0.5756
  982MOL0     H35508   1.586   3.176   6.250 -2.2971 -0.8702  1.6449
  982MOL0     H35509   1.643   3.335   6.241 -2.6881 -1.1302 -1.7253
  982MOL0     H35510   1.844   3.234   6.285 -2.0038  1.7909 -1.5302
  982MOL0     H35511   1.785   3.111   6.385  2.1183  0.3481  0.0765
  982MOL0     H35512   1.919   3.435   6.640 -1.5676  0.9886  0.3140
  982MOL0     H35513   1.130   3.454   6.322 -0.1826 -0.9785  1.4748
  982MOL0     H35514   0.877   3.402   6.143  0.9682  0.5861 -2.1023
  982MOL0     H35515   0.930   3.537   6.254 -1.8450  1.1167 -0.2316
  982MOL0     H35516   0.883   3.564   6.081 -0.9377 -0.9180 -0.4824
  983MOL0     O35517   9.356   9.490   0.487  0.4086 -0.1421  0.2731
  983MOL0     C35518   9.413   9.603   0.477  0.5155 -0.1282 -0.3182
  983MOL0     O35519   9.534   9.627   0.400  0.1125 -0.4903 -0.3864
  983MOL0     C35520   9.592   9.516   0.351  0.4756  0.6565 -0.0752
  983MOL0     C35521   9.602   9.489   0.209  0.3839 -0.1968 -0.1355
  983MOL0     C35522   9.669   9.377   0.158  0.2795  0.3572  0.2706
  983MOL0     C35523   9.721   9.278   0.251 -0.1325  0.7739 -0.0345
  983MOL0     O35524   9.799   9.182   0.193 -0.7514 -0.6541 -0.1568
  983MOL0     C35525   9.851   9.083   0.286 -0.3775  0.2547  0.9008
  983MOL0     C35526   9.925   8.974   0.199  1.0148  0.6299  0.1393
  983MOL0     C35527   9.846   8.902   0.081  0.6623 -1.7120 -0.6889
  983MOL0     C35528   9.704   8.851   0.137  0.3409 -0.6321  0.9826
  983MOL0     C35529   9.647   8.741   0.054  0.3409  0.8288  0.1448
  983MOL0     C35530   9.506   8.702   0.078  1.1012  0.0079  0.0706
  983MOL0     C35531   9.456   8.687   0.220 -0.0877  1.4761 -0.1180
  983MOL0     C35532   9.306   8.655   0.231 -1.2763  1.5431  0.1313
  983MOL0     N35533   9.208   8.753   0.179  0.1760  0.8629 -0.1326
  983MOL0     C35534   9.223   8.889   0.150  0.8357  0.1232  0.3888
  983MOL0     C35535   9.117   8.917   0.065 -0.2792 -0.3702 -0.1187
  983MOL0     C35536   9.088   9.045  -0.007 -0.3621  0.8353 -1.1642
  983MOL0     C35537   8.925   9.060  -0.024 -0.1830  0.2457  0.1461
  983MOL0     C35538   8.891   9.206  -0.069 -0.4336  0.0543  0.4170
  983MOL0     C35539   8.952   9.236  -0.203  0.4362 -0.0817 -0.3282
  983MOL0     O35540   8.933   9.118  -0.289  0.2104 -0.8083 -0.6364
  983MOL0     C35541   8.811   9.098  -0.351 -1.1822 -0.4489 -0.4944
  983MOL0     C35542   8.807   8.984  -0.434 -0.5929  0.9103  0.7679
  983MOL0     C35543   8.704   8.941  -0.514  0.2110  0.0981  0.5819
  983MOL0     C35544   8.717   8.815  -0.586 -0.1049  0.4064  0.4434
  983MOL0     C35545   8.587   9.033  -0.523 -0.7440  0.0832  0.4076
  983MOL0     C35546   8.470   9.013  -0.607  0.0970 -0.8031  0.8390
  983MOL0     O35547   8.350   9.024  -0.548  0.6716  0.3411  0.1320
  983MOL0     C35548   8.238   8.992  -0.622  0.3256  0.2604 -0.0375
  983MOL0     C35549   8.177   9.078  -0.712  0.0167  0.2455 -0.2084
  983MOL0     C35550   8.067   9.047  -0.784  1.2897  0.7193 -0.4171
  983MOL0     C35551   8.010   8.921  -0.772 -0.1805 -0.1337  0.3162
  983MOL0     O35552   7.899   8.891  -0.854  0.9452 -0.4910 -0.9480
  983MOL0     C35553   7.820   8.774  -0.823  0.0743 -0.0883 -0.1889
  983MOL0     C35554   7.714   8.765  -0.930 -0.4760  0.3375  0.0650
  983MOL0     C35555   7.609   8.664  -0.902 -0.2890 -0.2252 -0.7885
  983MOL0     C35556   7.481   8.678  -0.988 -1.1342  1.2013 -0.5457
  983MOL0     C35557   7.418   8.541  -1.001  0.3201 -0.5498 -0.6297
  983MOL0     C35558   7.310   8.538  -1.106  0.2894  0.1256  0.4389
  983MOL0     C35559   7.225   8.402  -1.095  0.7437  0.1084 -0.1875
  983MOL0     C35560   7.118   8.414  -0.984 -0.7978 -0.5944 -0.4702
  983MOL0    Cl35561   6.976   8.519  -1.051  0.0056  0.0325 -0.0840
  983MOL0     C35562   8.072   8.826  -0.679  0.3099 -0.2961  0.7001
  983MOL0     C35563   8.182   8.871  -0.602 -0.9367  0.3081 -0.1244
  983MOL0     O35564   8.490   8.987  -0.725  0.4439 -0.3266  0.9250
  983MOL0     C35565   8.594   9.145  -0.433  0.0211  0.5738  1.2582
  983MOL0     C35566   8.698   9.165  -0.346  0.2762 -0.0608  0.8866
  983MOL0     N35567   9.048   8.801   0.059  0.2007  0.1284  0.5605
  983MOL0     N35568   9.086   8.710   0.138  0.3328 -0.1944 -0.7113
  983MOL0     C35569   9.713   9.307   0.391  0.4482 -1.4680  0.5757
  983MOL0     C35570   9.651   9.429   0.434 -1.0224  0.5537 -0.8604
  983MOL0     C35571   9.346   9.726   0.538 -0.4267  0.8438  0.1687
  983MOL0     C35572   9.411   9.848   0.528 -0.5454  0.1145 -1.0538
  983MOL0     C35573   9.358   9.969   0.582 -0.6177 -0.2156  0.3569
  983MOL0     C35574   9.234   9.965   0.640  0.4380 -1.0249  0.6155
  983MOL0     O35575   9.204  10.088   0.684 -0.3080  0.1525 -0.1669
  983MOL0     C35576   9.085  10.130   0.755 -0.3256 -0.4129  0.0224
  983MOL0     C35577   9.118  10.149   0.901 -0.0549  0.8677  0.4080
  983MOL0     C35578   9.253  10.222   0.931 -0.1986 -0.7158  0.6565
  983MOL0     C35579   9.239  10.374   0.913 -0.5898  0.3901 -0.2350
  983MOL0     C35580   9.367  10.434   0.899 -0.2776  0.0057  0.2968
  983MOL0     C35581   9.473  10.493   0.888 -0.6222 -0.4738 -0.6869
  983MOL0     C35582   9.161   9.847   0.648 -0.0269 -0.4344  0.4046
  983MOL0     C35583   9.219   9.730   0.603  0.2887  0.7939 -0.0428
  983MOL0     C35584   9.130   9.610   0.604  0.3064  0.3279 -0.9924
  983MOL0     H35585   9.569   9.562   0.136 -0.6830 -2.1965 -1.7834
  983MOL0     H35586   9.704   9.374   0.056  3.1690 -1.9305  1.1755
  983MOL0     H35587   9.766   9.037   0.338 -0.9125 -1.0469 -1.0220
  983MOL0     H35588   9.920   9.125   0.360  3.0931 -2.4379 -0.4922
  983MOL0     H35589  10.019   9.019   0.167  2.0536 -2.1109 -0.9029
  983MOL0     H35590   9.953   8.895   0.270 -1.4019 -0.8236 -0.4190
  983MOL0     H35591   9.830   8.976   0.002 -0.9131 -2.4955 -1.1392
  983MOL0     H35592   9.898   8.812   0.046 -1.9961 -2.3287 -3.5149
  983MOL0     H35593   9.721   8.808   0.236  2.5569 -0.0161  0.9414
  983MOL0     H35594   9.633   8.933   0.147 -0.9479 -1.4115 -1.2447
  983MOL0     H35595   9.704   8.654   0.087 -0.6177  0.2368  0.2744
  983MOL0     H35596   9.674   8.761  -0.051 -1.3601 -1.2998 -0.7895
  983MOL0     H35597   9.443   8.774   0.026 -0.1514 -1.9178 -1.2160
  983MOL0     H35598   9.485   8.608   0.026 -1.1926  0.4995  0.0010
  983MOL0     H35599   9.483   8.774   0.281 -2.1119  1.3228  1.1025
  983MOL0     H35600   9.498   8.591   0.254 -3.1530 -0.1046 -0.4164
  983MOL0     H35601   9.267   8.561   0.192 -0.2716 -0.6353  3.9445
  983MOL0     H35602   9.285   8.654   0.338 -0.2500 -1.1620  0.3626
  983MOL0     H35603   9.309   8.948   0.181 -0.0982  1.7379  0.0091
  983MOL0     H35604   9.147   9.048  -0.099  0.7860  0.0393 -0.4856
  983MOL0     H35605   9.116   9.130   0.056 -1.8274 -0.4296  1.3852
  983MOL0     H35606   8.884   8.985  -0.092 -0.9776 -0.3817  1.2655
  983MOL0     H35607   8.878   9.043   0.074 -0.2618  0.2566  0.1102
  983MOL0     H35608   8.784   9.230  -0.073 -1.2559 -2.4976  3.2091
  983MOL0     H35609   8.931   9.283  -0.003  2.5077  0.3886 -1.5737
  983MOL0     H35610   8.918   9.331  -0.246  0.3465  0.4736  0.9414
  983MOL0     H35611   9.058   9.254  -0.189  0.6950  1.2754 -3.2214
  983MOL0     H35612   8.902   8.931  -0.439 -0.4429  1.2990 -1.7895
  983MOL0     H35613   8.788   8.830  -0.667 -1.1531 -3.2781 -1.3938
  983MOL0     H35614   8.622   8.779  -0.626 -0.7968  1.5578  0.9822
  983MOL0     H35615   8.768   8.738  -0.529 -0.0728 -0.0548 -0.1982
  983MOL0     H35616   8.229   9.173  -0.716  1.6247 -0.5430  0.5129
  983MOL0     H35617   8.012   9.125  -0.837  0.7495  0.6663  0.0468
  983MOL0     H35618   7.881   8.684  -0.823  1.2342  0.6779 -0.7135
  983MOL0     H35619   7.774   8.788  -0.724  0.4846 -2.3395  0.3838
  983MOL0     H35620   7.673   8.867  -0.930 -3.4740 -0.7670  0.5413
  983MOL0     H35621   7.758   8.749  -1.029  1.1743 -0.1511  0.8441
  983MOL0     H35622   7.591   8.673  -0.794  5.0225  0.3220  0.3680
  983MOL0     H35623   7.662   8.571  -0.924  0.2997 -0.5508  1.7072
  983MOL0     H35624   7.512   8.714  -1.086  3.7190 -1.1015 -0.1686
  983MOL0     H35625   7.405   8.733  -0.931 -2.7360 -2.4115  1.1583
  983MOL0     H35626   7.492   8.463  -1.021  0.3027 -0.6311 -0.3810
  983MOL0     H35627   7.382   8.512  -0.902  2.7973  1.7441  1.0957
  983MOL0     H35628   7.343   8.543  -1.210  0.9074  0.6445  0.6578
  983MOL0     H35629   7.234   8.616  -1.095  0.0604  0.3243 -2.0417
  983MOL0     H35630   7.290   8.316  -1.075 -1.6413 -1.6445  0.4411
  983MOL0     H35631   7.175   8.374  -1.189  4.5196  1.4223 -2.8377
  983MOL0     H35632   7.152   8.469  -0.896  0.4193  1.0495 -1.8998
  983MOL0     H35633   7.082   8.313  -0.961 -1.3638 -0.5919 -1.3001
  983MOL0     H35634   8.029   8.728  -0.664  1.3951 -1.1740 -1.4402
  983MOL0     H35635   8.220   8.798  -0.531  0.0928 -0.4682 -1.3972
  983MOL0     H35636   8.512   9.216  -0.429 -0.9903 -0.4288 -0.2627
  983MOL0     H35637   8.702   9.250  -0.278  1.7913  0.6892 -0.0964
  983MOL0     H35638   9.757   9.261   0.478 -1.0111  0.1719  2.2524
  983MOL0     H35639   9.656   9.455   0.539  2.5823 -0.9505 -0.5289
  983MOL0     H35640   9.507   9.861   0.478 -1.1665  0.7203 -2.1099
  983MOL0     H35641   9.420  10.058   0.586 -2.9718  1.4319  2.4078
  983MOL0     H35642   9.048  10.228   0.721  1.1790  0.0830 -0.2518
  983MOL0     H35643   9.013  10.047   0.753  1.0397 -1.7255  2.2026
  983MOL0     H35644   9.115  10.052   0.951 -2.2466  0.1755 -0.9412
  983MOL0     H35645   9.039  10.206   0.952  0.0954  0.0545  1.5808
  983MOL0     H35646   9.264  10.209   1.039 -2.6719  0.1357  1.0521
  983MOL0     H35647   9.333  10.171   0.876  1.1287 -0.4929  2.2957
  983MOL0     H35648   9.197  10.414   1.005 -3.1043 -3.7849  0.7134
  983MOL0     H35649   9.178  10.397   0.825 -2.7253 -0.5240  0.9203
  983MOL0     H35650   9.568  10.541   0.882 -0.9348  0.0120 -2.6459
  983MOL0     H35651   9.055   9.845   0.669 -0.6569  0.8315 -2.2091
  983MOL0     H35652   9.046   9.627   0.671  0.3378  2.7798 -1.4553
  983MOL0     H35653   9.093   9.568   0.510  0.8986 -2.0503 -0.2331
  983MOL0     H35654   9.180   9.524   0.648  2.5792  0.2438 -3.4886
  984MOL0     O35655  10.552   1.692  10.708 -0.1776  0.1811 -0.1806
  984MOL0     C35656  10.540   1.670  10.593  0.4269 -0.2805  0.9086
  984MOL0     O35657  10.638   1.705  10.501 -0.3492 -0.0521 -0.9784
  984MOL0     C35658  10.742   1.785  10.548 -0.3141  0.3608  0.0083
  984MOL0     C35659  10.737   1.926  10.525 -0.0767  1.2685 -0.4880
  984MOL0     C35660  10.857   1.996  10.547 -0.1914 -0.2342 -0.3087
  984MOL0     C35661  10.973   1.932  10.599 -0.0740  0.0394 -0.0784
  984MOL0     O35662  11.083   1.996  10.655 -0.7532 -0.2555 -0.5380
  984MOL0     C35663  11.092   2.131  10.636  0.1363  0.3013 -0.6515
  984MOL0     C35664  11.222   2.202  10.689 -0.1394  0.4018 -0.2795
  984MOL0     C35665  11.255   2.153  10.825 -0.1364  0.7521 -0.3335
  984MOL0     C35666  11.147   2.190  10.934  0.9695 -1.1484 -0.1097
  984MOL0     C35667  11.140   2.337  10.966  0.1924 -0.7934 -0.2421
  984MOL0     C35668  11.066   2.377  11.092 -0.3961 -0.2605 -0.7410
  984MOL0     C35669  11.026   2.533  11.093  0.4024 -0.1887 -1.1444
  984MOL0     C35670  10.955   2.583  10.961 -0.3191  0.1465  0.1156
  984MOL0     N35671  10.889   2.712  10.978  0.1137  0.3086  0.1177
  984MOL0     C35672  10.947   2.836  10.975 -0.1294 -0.2482  0.6878
  984MOL0     C35673  10.852   2.920  11.021 -0.0662 -0.1116 -0.0450
  984MOL0     C35674  10.884   3.070  11.047  0.3203 -0.3994 -0.1787
  984MOL0     C35675  10.903   3.101  11.189 -0.2051 -0.3431 -0.1339
  984MOL0     C35676  11.018   3.211  11.221 -0.4329  0.9432  0.0986
  984MOL0     C35677  10.965   3.351  11.207 -0.3407 -1.4133  0.1908
  984MOL0     O35678  10.846   3.363  11.279 -0.5159  0.6131 -0.3395
  984MOL0     C35679  10.768   3.458  11.234 -0.4899  1.1132  0.2886
  984MOL0     C35680  10.649   3.438  11.167  0.6361  0.0544 -0.6996
  984MOL0     C35681  10.577   3.549  11.104 -1.5584  0.2202 -0.3669
  984MOL0     C35682  10.467   3.516  11.014  0.5145 -0.2976  0.4939
  984MOL0     C35683  10.621   3.683  11.135  0.2081 -0.3844 -0.6841
  984MOL0     C35684  10.553   3.816  11.086  0.4322  0.5912  0.0998
  984MOL0     O35685  10.463   3.806  10.977 -0.4594 -0.3004 -0.1530
  984MOL0     C35686  10.386   3.907  10.939  0.6169 -1.1290  0.5952
  984MOL0     C35687  10.427   4.041  10.911 -0.3755 -0.6641 -0.1803
  984MOL0     C35688  10.338   4.144  10.888 -0.1348  0.1225 -0.1478
  984MOL0     C35689  10.202   4.123  10.906  0.3127  0.1235  0.9922
  984MOL0     O35690  10.102   4.222  10.890  0.4236  0.2315  0.6487
  984MOL0     C35691  10.146   4.360  10.869  0.0477  1.1368 -1.0999
  984MOL0     C35692  10.035   4.463  10.865 -0.2325 -0.0735 -0.4085
  984MOL0     C35693  10.075   4.608  10.881 -0.4307 -0.3135 -0.7830
  984MOL0     C35694   9.950   4.695  10.866 -0.1178  0.1828  0.3089
  984MOL0     C35695   9.959   4.820  10.939  0.3984 -0.2777 -0.5677
  984MOL0     C35696  10.061   4.930  10.893 -0.1890 -0.0097  0.1315
  984MOL0     C35697  10.031   5.069  10.947  0.5802  0.4889 -0.1777
  984MOL0     C35698  10.123   5.184  10.899  0.8402 -0.0136  0.8674
  984MOL0    Cl35699  10.284   5.160  10.979  0.8653 -0.8255  0.1627
  984MOL0     C35700  10.165   3.988  10.936 -0.8735 -0.4075 -0.6251
  984MOL0     C35701  10.249   3.887  10.946  0.2427 -0.7772 -0.1299
  984MOL0     O35702  10.576   3.915  11.144  0.4313 -0.1776  0.3967
  984MOL0     C35703  10.734   3.699  11.219 -0.2730 -0.1655 -1.0807
  984MOL0     C35704  10.802   3.586  11.266 -0.3915  0.0437 -0.7189
  984MOL0     N35705  10.741   2.858  11.042 -0.0134  1.1720  0.0821
  984MOL0     N35706  10.757   2.726  11.013 -0.6184  0.1792 -1.0593
  984MOL0     C35707  10.968   1.797  10.619  0.5734 -0.1646 -0.0944
  984MOL0     C35708  10.858   1.720  10.593 -0.2579  0.7706  0.3840
  984MOL0     C35709  10.407   1.627  10.542  0.2752 -0.4074  0.7413
  984MOL0     C35710  10.359   1.702  10.432  0.0385  0.4682  0.1957
  984MOL0     C35711  10.239   1.673  10.378 -0.5081 -1.0437 -0.0199
  984MOL0     C35712  10.150   1.583  10.440 -0.1496  0.2915 -0.3441
  984MOL0     O35713  10.025   1.543  10.412 -0.3433  1.1283  0.4127
  984MOL0     C35714   9.965   1.572  10.286  0.4414  0.7386  0.8988
  984MOL0     C35715   9.874   1.693  10.318  0.3759  0.3026  0.4357
  984MOL0     C35716   9.811   1.744  10.189  0.8100  0.2103 -0.1807
  984MOL0     C35717   9.689   1.652  10.141 -0.1080 -0.1905 -0.4343
  984MOL0     C35718   9.564   1.685  10.211 -0.4778  0.2313  0.2129
  984MOL0     C35719   9.462   1.725  10.264 -0.0344  0.0215  0.2473
  984MOL0     C35720  10.195   1.498  10.554  0.0907 -0.0502  0.2700
  984MOL0     C35721  10.325   1.521  10.602 -0.7537 -0.7968 -0.1182
  984MOL0     C35722  10.367   1.438  10.719 -0.3232  0.8241 -0.1699
  984MOL0     H35723  10.648   1.957  10.472 -1.0352 -0.8349 -0.2314
  984MOL0     H35724  10.844   2.096  10.507  1.8431  0.1703 -0.0605
  984MOL0     H35725  11.004   2.181  10.676  1.2811  3.1260 -1.4057
  984MOL0     H35726  11.095   2.134  10.527 -1.5469  0.2822 -0.7196
  984MOL0     H35727  11.308   2.167  10.631  0.7946  0.5687  0.9498
  984MOL0     H35728  11.211   2.311  10.696  0.4943  0.5370 -1.2403
  984MOL0     H35729  11.267   2.044  10.818  1.0209  0.8957 -0.8013
  984MOL0     H35730  11.349   2.203  10.846 -0.8886  1.1126  2.6736
  984MOL0     H35731  11.050   2.154  10.900  0.9932 -1.6672  0.3685
  984MOL0     H35732  11.161   2.141  11.030  0.8123 -1.4064 -0.2180
  984MOL0     H35733  11.072   2.377  10.890 -1.5508 -3.0429  0.0424
  984MOL0     H35734  11.239   2.382  10.970 -0.2180  0.0581  1.0918
  984MOL0     H35735  10.978   2.313  11.098 -0.0283 -0.8040 -1.0163
  984MOL0     H35736  11.127   2.353  11.179  1.0045 -3.1305 -2.3348
  984MOL0     H35737  11.106   2.598  11.128 -1.2579  1.1669  0.3423
  984MOL0     H35738  10.952   2.552  11.172  0.0801  0.9055 -1.6861
  984MOL0     H35739  11.030   2.600  10.884 -0.5384 -1.5695 -0.5250
  984MOL0     H35740  10.882   2.512  10.921  0.9153 -0.3201 -1.4038
  984MOL0     H35741  11.053   2.855  10.963 -0.1206 -0.0884  0.9942
  984MOL0     H35742  10.809   3.136  11.002  1.3212  1.1743  0.3867
  984MOL0     H35743  10.982   3.093  11.004 -0.7002  0.3220 -2.2082
  984MOL0     H35744  10.805   3.130  11.225 -0.7550  0.5911 -2.2412
  984MOL0     H35745  10.943   3.024  11.256 -0.2042  0.5790  0.9698
  984MOL0     H35746  11.051   3.198  11.324  3.9326 -0.1896 -1.2120
  984MOL0     H35747  11.105   3.193  11.157 -2.1771  0.0082 -2.1715
  984MOL0     H35748  11.040   3.426  11.235 -1.3101 -0.3551 -0.0047
  984MOL0     H35749  10.955   3.362  11.099 -0.8901 -1.9984  0.1741
  984MOL0     H35750  10.595   3.345  11.151 -1.6585  1.1080  0.5431
  984MOL0     H35751  10.493   3.548  10.912  0.2954 -1.4789  0.0572
  984MOL0     H35752  10.372   3.563  11.041  1.5215  1.9986  0.3222
  984MOL0     H35753  10.458   3.407  11.015  0.5656 -0.3864 -2.0815
  984MOL0     H35754  10.534   4.059  10.919 -0.4718 -0.5807  1.2962
  984MOL0     H35755  10.374   4.243  10.864 -0.2988 -0.0721 -1.2523
  984MOL0     H35756  10.221   4.378  10.946  0.7515  0.7002 -1.6699
  984MOL0     H35757  10.203   4.358  10.776  1.6006  0.9029 -0.1782
  984MOL0     H35758   9.982   4.456  10.770  2.6906  1.2833 -2.2499
  984MOL0     H35759   9.965   4.445  10.947  3.6994 -1.6551  2.9916
  984MOL0     H35760  10.146   4.629  10.801  2.2311 -1.4531  1.1176
  984MOL0     H35761  10.119   4.623  10.980  0.2801  1.1920 -1.3013
  984MOL0     H35762   9.862   4.633  10.889 -1.1399  1.7441  0.7895
  984MOL0     H35763   9.938   4.729  10.763  1.3415  1.3830  0.5125
  984MOL0     H35764   9.863   4.869  10.958  0.8704  0.3635  0.2593
  984MOL0     H35765   9.983   4.798  11.044 -1.3087 -0.1131 -0.1136
  984MOL0     H35766  10.053   4.927  10.784 -2.8092  2.0213  0.1590
  984MOL0     H35767  10.160   4.895  10.923 -0.5851 -1.5261 -0.2187
  984MOL0     H35768  10.023   5.062  11.056 -3.1218 -1.4991 -0.4140
  984MOL0     H35769   9.928   5.088  10.916  0.6583  0.6889 -0.3152
  984MOL0     H35770  10.077   5.280  10.926 -1.0440 -0.8035  0.6718
  984MOL0     H35771  10.134   5.177  10.791 -1.9004 -1.8907  0.5900
  984MOL0     H35772  10.061   3.964  10.955 -0.0840 -1.4774  3.0487
  984MOL0     H35773  10.203   3.790  10.967 -0.1392 -1.5357 -3.7762
  984MOL0     H35774  10.753   3.793  11.270 -0.0769 -2.2433  3.1306
  984MOL0     H35775  10.875   3.587  11.346  1.2340 -1.0504 -2.1174
  984MOL0     H35776  11.050   1.743  10.666  1.4846  0.6199 -0.7445
  984MOL0     H35777  10.852   1.612  10.602 -2.4868  0.9036  1.0602
  984MOL0     H35778  10.426   1.774  10.387 -0.7416  0.3676 -1.1622
  984MOL0     H35779  10.214   1.725  10.287 -1.3268 -3.0455 -1.0097
  984MOL0     H35780  10.042   1.596  10.213 -0.3706 -0.0952 -0.2585
  984MOL0     H35781   9.913   1.483  10.250  0.7568  1.2032 -0.7883
  984MOL0     H35782   9.933   1.767  10.373  0.5406  1.6468 -1.4594
  984MOL0     H35783   9.796   1.656  10.386 -0.1946  1.0829  0.2144
  984MOL0     H35784   9.773   1.845  10.208 -2.0059 -1.2003  2.7503
  984MOL0     H35785   9.881   1.755  10.106  1.5913  0.0075  0.4363
  984MOL0     H35786   9.724   1.549  10.142  5.0604  1.3241 -0.2805
  984MOL0     H35787   9.678   1.683  10.037  4.3585  1.0252 -0.7266
  984MOL0     H35788   9.374   1.757  10.316  0.0530 -1.3319  1.2622
  984MOL0     H35789  10.124   1.426  10.593 -0.6580  0.5809  0.1002
  984MOL0     H35790  10.475   1.423  10.731 -0.2825 -0.9174 -2.1491
  984MOL0     H35791  10.324   1.468  10.815  1.0066 -2.2966  1.5350
  984MOL0     H35792  10.324   1.338  10.705 -0.0735  0.8211 -0.9788
  985MOL0     O35793  11.418   9.815   1.442 -0.0108 -0.2632 -0.6780
  985MOL0     C35794  11.316   9.888   1.417 -0.2302  0.4805 -0.0823
  985MOL0     O35795  11.248   9.969   1.505 -0.2121 -0.0852 -0.4838
  985MOL0     C35796  11.287   9.968   1.636 -0.2532  0.1516  0.4637
  985MOL0     C35797  11.209   9.906   1.736 -0.8248 -0.4985 -0.0662
  985MOL0     C35798  11.253   9.898   1.873  0.4223  1.0801  0.4888
  985MOL0     C35799  11.387   9.949   1.902 -0.3898 -0.2375  0.8045
  985MOL0     O35800  11.437   9.955   2.028 -1.0467 -0.2249 -0.0046
  985MOL0     C35801  11.416   9.836   2.103  0.5337  0.1983  0.4027
  985MOL0     C35802  11.493   9.881   2.228 -0.4564  0.7384 -1.8563
  985MOL0     C35803  11.552   9.760   2.310 -0.0404  0.4168 -1.0308
  985MOL0     C35804  11.645   9.818   2.420  0.2916  0.6675 -0.5094
  985MOL0     C35805  11.655   9.721   2.544  0.2875  0.1102  0.7233
  985MOL0     C35806  11.730   9.782   2.665  0.4337 -0.3650  0.2010
  985MOL0     C35807  11.759   9.678   2.771  0.3623 -0.3883 -0.3823
  985MOL0     C35808  11.756   9.758   2.908  0.4130  0.2306 -0.6891
  985MOL0     N35809  11.870   9.846   2.901 -0.3642  0.9295  0.0999
  985MOL0     C35810  11.998   9.816   2.947 -0.9892  0.0447  0.3765
  985MOL0     C35811  12.071   9.931   2.925 -0.9701 -0.1038  1.3458
  985MOL0     C35812  12.219   9.959   2.952 -0.1557 -0.5640  0.9299
  985MOL0     C35813  12.300   9.836   2.905  0.0221  0.1849  0.2828
  985MOL0     C35814  12.452   9.868   2.891 -0.1706  1.1853 -0.2610
  985MOL0     C35815  12.514   9.820   2.759 -0.4316 -0.2545 -1.0561
  985MOL0     O35816  12.465   9.914   2.658  0.1382 -0.1985  0.0049
  985MOL0     C35817  12.485   9.871   2.527 -0.2124 -0.9917 -0.2152
  985MOL0     C35818  12.563   9.763   2.477 -0.3772  0.3357  0.7045
  985MOL0     C35819  12.566   9.740   2.335 -0.1689 -0.0946  0.7356
  985MOL0     C35820  12.665   9.630   2.284  0.4201 -0.0035  0.3242
  985MOL0     C35821  12.483   9.816   2.242 -0.1683  0.2617 -0.0005
  985MOL0     C35822  12.458   9.791   2.102  0.0217 -0.2689  0.2717
  985MOL0     O35823  12.377   9.886   2.030 -0.3832  1.0275  0.4610
  985MOL0     C35824  12.346   9.857   1.896 -0.4067 -0.8990  0.1721
  985MOL0     C35825  12.437   9.803   1.802  0.2756 -0.0239  0.1298
  985MOL0     C35826  12.405   9.789   1.665  0.0551  1.0251 -0.4652
  985MOL0     C35827  12.284   9.834   1.616  0.1817 -1.3288  0.0419
  985MOL0     O35828  12.272   9.804   1.487  0.1001 -0.2710 -0.0299
  985MOL0     C35829  12.142   9.756   1.449  0.8739  0.9668 -0.1546
  985MOL0     C35830  12.162   9.672   1.319  0.6007  0.0016  0.1958
  985MOL0     C35831  12.262   9.562   1.338  0.6255 -0.6373 -0.8071
  985MOL0     C35832  12.314   9.517   1.199  0.3080 -0.7080  0.1052
  985MOL0     C35833  12.222   9.433   1.117 -0.3600  0.3392  0.6289
  985MOL0     C35834  12.169   9.307   1.179  0.1656 -0.9587 -0.6515
  985MOL0     C35835  12.042   9.254   1.102 -1.2210  0.4071 -0.2889
  985MOL0     C35836  11.993   9.134   1.169  0.9777 -0.1860 -0.7510
  985MOL0    Cl35837  11.856   9.085   1.068 -0.1828 -0.1806 -0.0473
  985MOL0     C35838  12.191   9.883   1.708  0.2171  0.0327 -0.6452
  985MOL0     C35839  12.219   9.900   1.846  0.1325 -1.2246  1.0176
  985MOL0     O35840  12.487   9.676   2.067  0.8212  0.1733  0.0159
  985MOL0     C35841  12.400   9.915   2.299  0.2106 -0.3968  0.6098
  985MOL0     C35842  12.410   9.944   2.427 -1.3083 -0.3964  0.4118
  985MOL0     N35843  11.983  10.028   2.871  0.0912  0.1318 -0.0959
  985MOL0     N35844  11.867   9.978   2.871 -0.0471 -0.9591 -0.6464
  985MOL0     C35845  11.463  10.005   1.797  0.9805  0.7026  0.3523
  985MOL0     C35846  11.415  10.018   1.666  0.5772 -0.6140  0.4044
  985MOL0     C35847  11.257   9.892   1.278 -0.4912  0.4783  0.0434
  985MOL0     C35848  11.339   9.845   1.178 -0.3878 -0.6441 -0.7019
  985MOL0     C35849  11.299   9.837   1.044 -1.1347 -0.0669 -0.0836
  985MOL0     C35850  11.182   9.895   1.003  0.7828 -0.2247 -0.7113
  985MOL0     O35851  11.155   9.876   0.864  0.2893 -0.0670  0.4882
  985MOL0     C35852  11.029   9.922   0.814 -0.1766 -1.0640 -0.3458
  985MOL0     C35853  11.016   9.893   0.665  0.0577 -0.8027 -0.0179
  985MOL0     C35854  11.049   9.739   0.647  0.0099  0.9017 -0.3331
  985MOL0     C35855  11.056   9.698   0.499 -0.0968 -0.1566 -0.1290
  985MOL0     C35856  11.156   9.781   0.435  0.0710  0.7613  0.9016
  985MOL0     C35857  11.238   9.845   0.371 -0.1361  0.3910  1.5031
  985MOL0     C35858  11.102   9.954   1.106 -0.0740  0.8834 -0.0300
  985MOL0     C35859  11.134   9.940   1.241 -0.9929  0.3287 -0.0812
  985MOL0     C35860  11.029   9.982   1.341  0.5331  0.0315  0.3824
  985MOL0     H35861  11.119   9.858   1.698  0.7914 -1.2386 -3.2308
  985MOL0     H35862  11.195   9.833   1.937  0.9281 -0.5665 -0.6631
  985MOL0     H35863  11.468   9.749   2.062  6.1487  2.2102  2.2262
  985MOL0     H35864  11.312   9.809   2.120  0.2907  0.1669 -1.0250
  985MOL0     H35865  11.563   9.960   2.203  1.1502  0.8998  2.3934
  985MOL0     H35866  11.412   9.920   2.290 -1.4733  0.9111 -3.2341
  985MOL0     H35867  11.477   9.700   2.362 -0.0039  1.1403 -0.1217
  985MOL0     H35868  11.606   9.696   2.239 -2.2312 -2.2990 -0.3824
  985MOL0     H35869  11.746   9.830   2.378  0.3990  0.6934 -0.2475
  985MOL0     H35870  11.608   9.915   2.455  0.1686  0.8150 -1.0407
  985MOL0     H35871  11.717   9.636   2.515 -0.2045 -0.9119  2.5058
  985MOL0     H35872  11.552   9.688   2.563 -0.2500 -1.1126 -3.3085
  985MOL0     H35873  11.830   9.818   2.640  0.5742  0.3975  1.7753
  985MOL0     H35874  11.674   9.868   2.701  2.6101  1.5310 -0.6967
  985MOL0     H35875  11.857   9.632   2.754 -0.3972 -1.8844 -0.9899
  985MOL0     H35876  11.680   9.603   2.753 -0.9655  1.0886 -0.9782
  985MOL0     H35877  11.659   9.805   2.926  0.3770  0.4187 -1.3630
  985MOL0     H35878  11.765   9.690   2.994 -4.1733  1.0928  0.7390
  985MOL0     H35879  12.030   9.720   2.986  2.9866  1.2224  0.4196
  985MOL0     H35880  12.250   9.989   3.053  3.3281  3.9744 -1.1112
  985MOL0     H35881  12.246  10.043   2.888 -0.2488 -0.7086  0.7014
  985MOL0     H35882  12.293   9.747   2.969  2.8187 -0.4942 -0.2216
  985MOL0     H35883  12.256   9.820   2.807 -2.7244  4.1830  0.5931
  985MOL0     H35884  12.471   9.969   2.928  0.3464  0.6084  1.1141
  985MOL0     H35885  12.501   9.805   2.966 -2.0768  2.9963  2.7222
  985MOL0     H35886  12.622   9.824   2.774 -0.5204 -0.8809 -0.2144
  985MOL0     H35887  12.497   9.714   2.740 -0.3702 -0.2458 -1.1672
  985MOL0     H35888  12.631   9.706   2.541 -0.4792  0.4371  0.9021
  985MOL0     H35889  12.743   9.615   2.359 -0.9311 -2.4085  1.3477
  985MOL0     H35890  12.712   9.661   2.190  0.0979  0.1451  0.2109
  985MOL0     H35891  12.604   9.539   2.277 -2.3446  1.3857  3.4286
  985MOL0     H35892  12.535   9.761   1.823  0.6422 -0.5881 -2.3936
  985MOL0     H35893  12.474   9.745   1.594  1.0713  3.0188 -0.7902
  985MOL0     H35894  12.096   9.692   1.526  0.1191  1.2444 -0.3658
  985MOL0     H35895  12.072   9.839   1.443  0.6795  1.0094  1.9141
  985MOL0     H35896  12.064   9.625   1.302 -0.2696  0.3722  3.4370
  985MOL0     H35897  12.187   9.734   1.233  1.3029 -0.0715  0.3435
  985MOL0     H35898  12.217   9.473   1.384 -1.6111  0.3934 -0.8823
  985MOL0     H35899  12.350   9.594   1.394  1.0325  2.5345 -3.0082
  985MOL0     H35900  12.399   9.455   1.227  4.0733  5.0269  3.2684
  985MOL0     H35901  12.373   9.593   1.148  2.0572 -0.7230  1.9789
  985MOL0     H35902  12.134   9.486   1.078  0.1565 -0.3978 -1.6542
  985MOL0     H35903  12.282   9.414   1.028  1.5930 -0.9906  2.1575
  985MOL0     H35904  12.119   9.339   1.271 -1.3738  2.4316 -2.5117
  985MOL0     H35905  12.243   9.228   1.191 -1.6552 -3.2078 -3.0517
  985MOL0     H35906  12.063   9.233   0.996  2.0688 -2.9470  0.8185
  985MOL0     H35907  11.966   9.333   1.103  0.0914  1.7142  0.3778
  985MOL0     H35908  11.963   9.166   1.269  1.9339  2.3403 -1.2030
  985MOL0     H35909  12.078   9.067   1.183  2.8655  2.2349 -0.0653
  985MOL0     H35910  12.088   9.910   1.684  0.5066  0.6958 -1.1756
  985MOL0     H35911  12.130   9.937   1.895 -2.5675 -3.7471 -1.5488
  985MOL0     H35912  12.331   9.975   2.240  0.1625  1.8160  2.7430
  985MOL0     H35913  12.352  10.023   2.472 -0.2156 -0.4254  1.9113
  985MOL0     H35914  11.568  10.027   1.817  1.4302 -2.4607  2.1535
  985MOL0     H35915  11.478  10.045   1.582 -3.0269 -0.6352 -2.5508
  985MOL0     H35916  11.439   9.813   1.205 -0.6098 -0.8636 -0.1183
  985MOL0     H35917  11.359   9.776   0.978 -2.2157 -2.3432  0.9244
  985MOL0     H35918  10.948   9.875   0.870 -1.8746  0.4550 -1.4189
  985MOL0     H35919  11.032  10.030   0.832 -0.1518 -1.4176  2.1116
  985MOL0     H35920  11.098   9.951   0.621  1.0356 -2.6744 -0.7866
  985MOL0     H35921  10.922   9.913   0.614  0.5662 -0.1024 -0.7189
  985MOL0     H35922  11.138   9.703   0.700 -0.8101 -0.5193  0.1065
  985MOL0     H35923  10.971   9.675   0.688 -0.5808 -0.0977 -2.8168
  985MOL0     H35924  10.952   9.701   0.465 -0.0983 -2.7101 -0.5933
  985MOL0     H35925  11.069   9.590   0.485 -0.3764 -0.0570 -1.2236
  985MOL0     H35926  11.308   9.908   0.319 -1.4400 -0.2166 -1.1700
  985MOL0     H35927  11.009   9.999   1.073 -0.3410 -0.5566 -1.3167
  985MOL0     H35928  11.050  10.065   1.408 -1.8621  1.6432 -0.7279
  985MOL0     H35929  10.926   9.989   1.304  0.3653 -3.4471 -0.1505
  985MOL0     H35930  11.022   9.897   1.410  2.0152 -0.7965 -0.4220
  986MOL0     O35931  10.011   7.009   0.747 -0.3217  0.4222 -0.5797
  986MOL0     C35932  10.106   7.006   0.819 -0.0944  0.3040  0.8602
  986MOL0     O35933  10.139   6.912   0.915  0.4849  0.1113  0.4255
  986MOL0     C35934  10.052   6.810   0.956 -0.8314 -0.7675 -0.9253
  986MOL0     C35935   9.911   6.829   0.967 -0.5485  0.7117  0.7989
  986MOL0     C35936   9.825   6.731   1.009 -0.1820  0.1663 -0.0457
  986MOL0     C35937   9.886   6.617   1.067 -0.9713  0.6442  0.6095
  986MOL0     O35938   9.823   6.505   1.114  0.5817  0.1422 -0.6712
  986MOL0     C35939   9.699   6.460   1.048  0.6269 -0.2145  0.1135
  986MOL0     C35940   9.575   6.433   1.135 -0.4048 -0.5541  1.0452
  986MOL0     C35941   9.597   6.355   1.263  0.1482 -0.0646  0.6850
  986MOL0     C35942   9.633   6.209   1.235  0.6234 -0.2809 -0.1777
  986MOL0     C35943   9.673   6.145   1.365 -0.0387  0.3537 -0.2550
  986MOL0     C35944   9.690   5.994   1.344 -0.7983 -0.5606  0.3523
  986MOL0     C35945   9.809   5.958   1.251 -1.2672  0.1431  0.7436
  986MOL0     C35946   9.813   5.804   1.221  0.2455  0.1592  0.0594
  986MOL0     N35947   9.911   5.786   1.111 -0.8802  0.9235  0.8130
  986MOL0     C35948   9.885   5.814   0.979  0.5687 -0.3801 -0.0190
  986MOL0     C35949  10.001   5.788   0.914  0.2186 -0.8263  1.0969
  986MOL0     C35950  10.029   5.797   0.764  0.7689 -1.0751  0.4723
  986MOL0     C35951  10.070   5.653   0.708 -0.4831  0.5984 -0.4188
  986MOL0     C35952  10.194   5.640   0.637 -0.2107  0.1947 -0.8974
  986MOL0     C35953  10.215   5.498   0.582  0.1972  0.0773  0.8882
  986MOL0     O35954  10.310   5.499   0.470  0.5425 -0.2580 -0.1763
  986MOL0     C35955  10.248   5.536   0.343  0.3836 -0.1501 -0.9615
  986MOL0     C35956  10.351   5.560   0.250 -0.1593 -0.1223 -0.6111
  986MOL0     C35957  10.331   5.577   0.113  0.3176  0.4369  0.1143
  986MOL0     C35958  10.441   5.557   0.021 -0.0964  0.3409 -0.0101
  986MOL0     C35959  10.197   5.587   0.073  0.2484 -0.1029 -0.2580
  986MOL0     C35960  10.156   5.607  -0.065 -0.2064  0.3459  0.7339
  986MOL0     O35961  10.043   5.538  -0.105 -0.4343 -0.1125  0.0642
  986MOL0     C35962  10.016   5.547  -0.242  0.6580  0.2013  0.9526
  986MOL0     C35963   9.906   5.625  -0.279  0.3771 -0.1030 -0.0960
  986MOL0     C35964   9.891   5.668  -0.411  0.7042 -0.0591  0.7978
  986MOL0     C35965   9.975   5.617  -0.521 -0.1124  0.3372 -0.4956
  986MOL0     O35966   9.946   5.648  -0.652 -0.0689  0.3519 -0.4133
  986MOL0     C35967   9.992   5.559  -0.754  0.2532 -0.5193 -0.0374
  986MOL0     C35968  10.069   5.627  -0.859 -0.0156 -0.0604 -0.5021
  986MOL0     C35969  10.121   5.520  -0.956 -0.1373 -0.1690 -0.0926
  986MOL0     C35970  10.266   5.473  -0.922 -0.0104  0.3291 -0.8199
  986MOL0     C35971  10.323   5.359  -1.020  0.3740 -0.4792 -0.1735
  986MOL0     C35972  10.479   5.362  -1.045  0.4920 -0.6096  0.6965
  986MOL0     C35973  10.562   5.421  -0.927 -0.3847  0.0744  0.1608
  986MOL0     C35974  10.674   5.503  -0.985  0.0247  0.6799 -0.4719
  986MOL0    Cl35975  10.629   5.651  -1.076 -0.1134  0.1081 -0.3802
  986MOL0     C35976  10.074   5.531  -0.480 -0.6356 -0.5205 -0.4068
  986MOL0     C35977  10.099   5.494  -0.346 -0.2338 -0.6648 -0.9628
  986MOL0     O35978  10.221   5.672  -0.148 -0.1850  0.3463 -0.2726
  986MOL0     C35979  10.098   5.598   0.180  0.2704 -1.0427  0.4064
  986MOL0     C35980  10.114   5.562   0.311 -0.5243 -0.1035 -0.6307
  986MOL0     N35981  10.095   5.750   1.012  0.4496 -0.0977  0.6312
  986MOL0     N35982  10.041   5.755   1.128 -0.2808 -0.3390  0.7389
  986MOL0     C35983  10.022   6.588   1.060  0.5563 -0.9684  0.4462
  986MOL0     C35984  10.103   6.688   1.015  0.6283 -0.0399  0.0335
  986MOL0     C35985  10.191   7.128   0.803  0.0865  0.0994  0.0465
  986MOL0     C35986  10.113   7.254   0.803  0.3262  0.6099 -0.7843
  986MOL0     C35987  10.177   7.378   0.789 -0.9418 -0.7300 -0.0317
  986MOL0     C35988  10.321   7.387   0.783  0.1628 -0.9555 -1.6189
  986MOL0     O35989  10.388   7.504   0.764 -0.8985 -0.2857 -0.3235
  986MOL0     C35990  10.335   7.628   0.826  0.4507  0.3332  0.5550
  986MOL0     C35991  10.347   7.619   0.977  0.2865 -0.0476 -0.2792
  986MOL0     C35992  10.258   7.725   1.039 -0.4598 -0.2798  0.6342
  986MOL0     C35993  10.282   7.742   1.189  0.0544 -0.7250 -0.3503
  986MOL0     C35994  10.256   7.872   1.248  0.4746 -0.5645 -0.6212
  986MOL0     C35995  10.230   7.986   1.280 -0.6483 -0.0563 -0.0127
  986MOL0     C35996  10.391   7.262   0.809 -0.6247 -0.7008  0.7922
  986MOL0     C35997  10.325   7.133   0.818 -1.0350 -0.3933 -0.1776
  986MOL0     C35998  10.403   7.013   0.835  0.2851  0.5847 -1.2253
  986MOL0     H35999   9.867   6.923   0.937  0.6745  0.8930 -0.5480
  986MOL0     H36000   9.718   6.736   0.999 -0.1224 -1.8931 -2.6404
  986MOL0     H36001   9.734   6.362   1.012 -0.5304  0.0925 -1.9986
  986MOL0     H36002   9.675   6.516   0.958  1.2291  0.4372  0.3503
  986MOL0     H36003   9.527   6.530   1.152  0.5734 -0.1681  1.6808
  986MOL0     H36004   9.503   6.383   1.070  2.8225 -0.5039 -2.9944
  986MOL0     H36005   9.679   6.403   1.316  0.8188 -0.4785  0.0511
  986MOL0     H36006   9.503   6.360   1.319 -0.3162  0.6123 -0.1330
  986MOL0     H36007   9.550   6.156   1.185 -2.4715 -0.3298  4.4204
  986MOL0     H36008   9.724   6.209   1.174  2.3464  0.3817  2.2307
  986MOL0     H36009   9.598   6.165   1.442  0.1537 -2.1136  0.6420
  986MOL0     H36010   9.763   6.193   1.403 -0.0323 -2.3039  3.6889
  986MOL0     H36011   9.707   5.946   1.441 -2.5069 -3.2520 -0.5710
  986MOL0     H36012   9.598   5.941   1.319 -0.8684 -0.7937  1.0596
  986MOL0     H36013   9.909   5.983   1.287 -0.6363 -1.0798 -0.0805
  986MOL0     H36014   9.793   6.016   1.159 -1.1525 -5.0503 -2.9569
  986MOL0     H36015   9.840   5.751   1.312  3.0857 -2.3124 -2.0426
  986MOL0     H36016   9.712   5.763   1.206 -0.3716  1.2425  1.0809
  986MOL0     H36017   9.792   5.838   0.930  1.0387 -0.9143 -1.2263
  986MOL0     H36018  10.121   5.856   0.765  0.4328 -0.5396 -0.0659
  986MOL0     H36019   9.951   5.847   0.707  1.1212  0.0456  0.9563
  986MOL0     H36020  10.081   5.584   0.792 -0.6416  1.2078  0.1087
  986MOL0     H36021   9.988   5.618   0.645 -1.0771 -1.4717  1.3689
  986MOL0     H36022  10.194   5.709   0.552 -1.4052  2.1291  0.5935
  986MOL0     H36023  10.276   5.658   0.707 -1.2384 -0.8656  0.6328
  986MOL0     H36024  10.254   5.439   0.665  1.4026 -0.2249  0.1263
  986MOL0     H36025  10.116   5.463   0.552 -0.0131 -0.0620  1.7059
  986MOL0     H36026  10.453   5.538   0.281  0.4250  4.0662  1.0466
  986MOL0     H36027  10.412   5.525  -0.079  1.6763 -0.1553 -0.4142
  986MOL0     H36028  10.502   5.478   0.067 -2.4127 -0.7871  1.3364
  986MOL0     H36029  10.491   5.654   0.010 -3.6702  2.0522 -3.5874
  986MOL0     H36030   9.834   5.671  -0.211 -1.4107  2.1292 -3.2708
  986MOL0     H36031   9.813   5.738  -0.437 -0.1001 -1.2762 -0.1625
  986MOL0     H36032  10.038   5.462  -0.733  2.2209  0.0796 -1.3639
  986MOL0     H36033   9.897   5.534  -0.803  0.8443 -1.5070 -0.6962
  986MOL0     H36034  10.008   5.704  -0.908  1.0178  2.0629  1.3162
  986MOL0     H36035  10.144   5.689  -0.807 -0.3162  0.0739 -0.2261
  986MOL0     H36036  10.121   5.566  -1.055 -1.6026  0.0904  0.0151
  986MOL0     H36037  10.051   5.439  -0.973  1.4393 -1.6152  0.0032
  986MOL0     H36038  10.271   5.448  -0.815  0.3875  1.5642 -0.5296
  986MOL0     H36039  10.327   5.561  -0.945 -1.2804  1.0277 -1.6264
  986MOL0     H36040  10.312   5.258  -0.978  1.6512 -1.3832 -1.8810
  986MOL0     H36041  10.271   5.356  -1.117 -3.2356  1.9492  1.4928
  986MOL0     H36042  10.498   5.399  -1.146 -3.6865 -2.8277 -1.1594
  986MOL0     H36043  10.514   5.258  -1.053  1.7715 -0.3170  2.0159
  986MOL0     H36044  10.597   5.335  -0.869  1.0995  0.3311 -0.3363
  986MOL0     H36045  10.510   5.491  -0.860  2.0553  1.4894  0.7073
  986MOL0     H36046  10.730   5.427  -1.041 -2.5202  0.0994 -2.4030
  986MOL0     H36047  10.734   5.535  -0.899  0.5732 -1.6940  0.1021
  986MOL0     H36048  10.131   5.483  -0.559  0.2482 -0.6303  0.2827
  986MOL0     H36049  10.170   5.420  -0.311  0.8959  0.5853 -0.5284
  986MOL0     H36050   9.997   5.622   0.148  0.1874 -2.2376 -0.2850
  986MOL0     H36051  10.036   5.545   0.384  2.0122 -0.7265  2.1314
  986MOL0     H36052  10.064   6.500   1.107 -0.3409 -1.9834 -0.6026
  986MOL0     H36053  10.211   6.676   1.020  0.7517 -0.4066 -2.3666
  986MOL0     H36054  10.005   7.244   0.813  0.4387 -1.9952 -1.6280
  986MOL0     H36055  10.113   7.465   0.778 -1.0968 -0.4682  2.3371
  986MOL0     H36056  10.389   7.716   0.789  0.7386 -0.9845 -2.4722
  986MOL0     H36057  10.231   7.650   0.800  0.3662  1.1949  1.5731
  986MOL0     H36058  10.450   7.636   1.009  0.4767  3.5514 -2.2378
  986MOL0     H36059  10.307   7.524   1.013 -1.6305  0.3802 -1.1549
  986MOL0     H36060  10.279   7.820   0.990 -0.1935  0.3217  1.8980
  986MOL0     H36061  10.156   7.687   1.027  0.6506 -3.5819  0.4799
  986MOL0     H36062  10.387   7.723   1.211 -0.2138  0.1945  1.9733
  986MOL0     H36063  10.228   7.664   1.244  1.4817 -0.6979  1.1364
  986MOL0     H36064  10.240   8.090   1.302 -0.0442 -0.2604  0.7397
  986MOL0     H36065  10.499   7.256   0.817 -0.3190 -0.2085 -1.9283
  986MOL0     H36066  10.420   6.999   0.942 -1.6903  1.8201 -0.7054
  986MOL0     H36067  10.356   6.922   0.794  0.7079  0.4903 -1.5125
  986MOL0     H36068  10.502   7.029   0.792  0.9542  1.9469  0.6809
  987MOL0     O36069   4.957  10.379   3.557  0.2238 -0.7756  0.4060
  987MOL0     C36070   4.920  10.424   3.668 -0.2680  0.3357  0.3254
  987MOL0     O36071   4.903  10.548   3.705 -0.3881 -0.5321  0.1286
  987MOL0     C36072   4.980  10.651   3.648  0.8194  0.8209 -0.2482
  987MOL0     C36073   5.057  10.734   3.724 -0.3811  0.0152 -0.1098
  987MOL0     C36074   5.127  10.838   3.664 -0.5987 -0.7143  0.3254
  987MOL0     C36075   5.116  10.868   3.531  0.1914 -0.3235 -0.1574
  987MOL0     O36076   5.175  10.973   3.475 -0.0497  0.1042  0.1640
  987MOL0     C36077   5.165  11.005   3.330  0.0187  0.3534 -1.4595
  987MOL0     C36078   5.287  11.093   3.298  0.2867 -0.1418  0.4407
  987MOL0     C36079   5.422  11.014   3.292  0.1838  0.3985 -0.2866
  987MOL0     C36080   5.535  11.122   3.249  0.3747 -0.2521 -2.2003
  987MOL0     C36081   5.616  11.060   3.138 -0.1951  0.0807  0.5281
  987MOL0     C36082   5.739  11.144   3.116  0.3817  0.4658 -0.3369
  987MOL0     C36083   5.841  11.077   3.026 -0.0163 -0.2848 -0.0236
  987MOL0     C36084   5.791  11.072   2.886 -0.0178 -0.5717 -1.1139
  987MOL0     N36085   5.869  10.980   2.787  0.6828 -0.5381  0.1423
  987MOL0     C36086   6.008  10.990   2.781  0.3754  0.2431 -0.2147
  987MOL0     C36087   6.038  10.905   2.675  0.3246  1.6243 -0.4019
  987MOL0     C36088   6.169  10.860   2.630  0.1177 -1.0907  0.3684
  987MOL0     C36089   6.195  10.875   2.486  0.2555  0.3586 -0.0089
  987MOL0     C36090   6.135  10.994   2.410 -0.5884 -1.4768  0.2108
  987MOL0     C36091   6.206  11.017   2.284 -0.8237 -0.3146  0.1367
  987MOL0     O36092   6.348  11.051   2.304 -0.0756  0.5645 -0.3113
  987MOL0     C36093   6.440  11.018   2.209  0.5527 -0.3117 -0.2205
  987MOL0     C36094   6.573  11.041   2.236  0.4958  0.2496  0.0250
  987MOL0     C36095   6.674  11.015   2.138 -0.2501  0.1401 -0.6088
  987MOL0     C36096   6.817  11.024   2.182  0.5603 -1.4434 -0.1550
  987MOL0     C36097   6.637  10.975   2.008  0.2392  0.1471 -1.1573
  987MOL0     C36098   6.728  10.941   1.897 -0.1700  0.4938  0.2894
  987MOL0     O36099   6.864  10.919   1.922 -0.6810 -0.7278 -1.0751
  987MOL0     C36100   6.936  10.896   1.808 -0.5616  0.3989 -0.8152
  987MOL0     C36101   6.985  10.762   1.800 -0.1461  0.0469  0.1094
  987MOL0     C36102   7.058  10.720   1.692  0.1416  0.4226 -0.3493
  987MOL0     C36103   7.091  10.802   1.587  0.2720 -1.3647  0.6609
  987MOL0     O36104   7.146  10.751   1.471 -0.7055 -0.1273  0.3783
  987MOL0     C36105   7.055  10.668   1.399  0.3778 -0.0979 -1.2175
  987MOL0     C36106   6.952  10.742   1.317 -0.3481  0.5412 -0.0099
  987MOL0     C36107   7.026  10.825   1.210 -0.1511 -0.4187  0.6994
  987MOL0     C36108   6.948  10.811   1.075 -0.8939 -0.2454 -0.2800
  987MOL0     C36109   7.002  10.896   0.963  0.5150  0.0855 -0.2575
  987MOL0     C36110   6.890  10.904   0.854  0.0805 -0.5705 -0.1072
  987MOL0     C36111   6.763  10.989   0.896 -1.3120 -0.3856  0.7037
  987MOL0     C36112   6.632  10.931   0.852  0.0881 -0.3342 -0.0460
  987MOL0    Cl36113   6.607  10.768   0.920  0.1921  0.0403  0.5254
  987MOL0     C36114   7.055  10.939   1.602  0.7120  0.2129  0.2585
  987MOL0     C36115   6.982  10.988   1.715  0.3525  0.7418  0.1070
  987MOL0     O36116   6.678  10.919   1.784 -0.2746 -0.2183 -0.1609
  987MOL0     C36117   6.494  10.950   1.985  0.1869 -0.3567 -0.3295
  987MOL0     C36118   6.399  10.975   2.080  0.2427  0.0607 -0.9611
  987MOL0     N36119   5.924  10.845   2.625  1.0449  0.1818 -0.4450
  987MOL0     N36120   5.818  10.890   2.695  0.2076 -0.4707 -0.1558
  987MOL0     C36121   5.019  10.794   3.456  0.8165 -0.1654  0.5907
  987MOL0     C36122   4.955  10.674   3.510  0.6538 -1.0207 -0.5320
  987MOL0     C36123   4.872  10.323   3.772 -0.2060 -0.5157  0.0121
  987MOL0     C36124   4.856  10.368   3.903  0.1808 -0.0507 -0.6277
  987MOL0     C36125   4.830  10.281   4.010 -0.1578  0.3075  1.0011
  987MOL0     C36126   4.807  10.149   3.983 -0.5421  0.4897 -0.6770
  987MOL0     O36127   4.793  10.076   4.099  0.7575  0.3646 -0.0734
  987MOL0     C36128   4.742   9.946   4.081 -0.2862  0.0360  0.6240
  987MOL0     C36129   4.700   9.892   4.224  0.1256 -0.8398  0.5586
  987MOL0     C36130   4.773   9.957   4.342 -0.0544  0.2061 -0.3676
  987MOL0     C36131   4.921   9.913   4.345 -0.5811  0.8744  0.5570
  987MOL0     C36132   4.938   9.774   4.388  1.2424 -0.1724 -0.9669
  987MOL0     C36133   5.000   9.681   4.411 -0.4023  0.1503 -0.4532
  987MOL0     C36134   4.815  10.098   3.851 -0.0026 -0.2863  0.0300
  987MOL0     C36135   4.852  10.182   3.743 -0.1077  0.4369  0.1263
  987MOL0     C36136   4.884  10.105   3.615  0.1151  0.0065 -0.2667
  987MOL0     H36137   5.078  10.727   3.830  2.9370  1.9769 -0.4703
  987MOL0     H36138   5.206  10.887   3.720  0.6928 -0.6915 -1.3971
  987MOL0     H36139   5.071  11.056   3.308 -0.9938 -2.2197 -3.7072
  987MOL0     H36140   5.178  10.918   3.265  0.5446 -0.1111 -0.7528
  987MOL0     H36141   5.272  11.143   3.202 -0.4045 -0.4668  0.3704
  987MOL0     H36142   5.287  11.172   3.374 -0.3069  0.5064 -0.2206
  987MOL0     H36143   5.451  10.960   3.382 -0.0215  0.6337 -0.0790
  987MOL0     H36144   5.414  10.927   3.226  2.3920 -0.9752  1.1311
  987MOL0     H36145   5.513  11.224   3.217  3.3409  0.2406 -2.9938
  987MOL0     H36146   5.594  11.129   3.341 -0.1457 -1.7443 -1.7262
  987MOL0     H36147   5.541  11.049   3.059  1.6461 -0.6246 -1.2053
  987MOL0     H36148   5.647  10.963   3.179 -1.4796  0.2238  1.9524
  987MOL0     H36149   5.724  11.245   3.078  1.2139  0.5414 -0.4926
  987MOL0     H36150   5.785  11.159   3.214 -1.3623 -4.4715  1.5485
  987MOL0     H36151   5.874  10.987   3.077 -0.2568 -0.1451  0.3832
  987MOL0     H36152   5.924  11.148   3.030  0.2312 -0.5832  0.1211
  987MOL0     H36153   5.691  11.029   2.892  0.4244 -1.8535 -2.1825
  987MOL0     H36154   5.788  11.172   2.842 -1.0935 -0.7749 -1.5140
  987MOL0     H36155   6.080  11.046   2.840  0.7436  1.0740 -1.4147
  987MOL0     H36156   6.178  10.754   2.654 -1.1798 -0.9537  1.5755
  987MOL0     H36157   6.245  10.921   2.680 -1.1707 -0.0703  1.1388
  987MOL0     H36158   6.303  10.879   2.473  0.2627 -2.5276 -1.6439
  987MOL0     H36159   6.161  10.789   2.428  1.0862 -2.6990  3.6778
  987MOL0     H36160   6.032  10.964   2.387 -0.0613 -0.9742 -3.3331
  987MOL0     H36161   6.135  11.091   2.461  1.5054 -2.4457  2.2252
  987MOL0     H36162   6.201  10.921   2.233 -0.8839  0.4036 -1.2600
  987MOL0     H36163   6.158  11.097   2.226 -0.9641  1.0880  2.0736
  987MOL0     H36164   6.595  11.054   2.341 -1.2053  2.9100  0.1455
  987MOL0     H36165   6.811  11.057   2.286 -0.2776  2.1233 -1.1844
  987MOL0     H36166   6.882  11.097   2.133  0.2055 -0.6402  0.5364
  987MOL0     H36167   6.863  10.925   2.177  1.1657 -1.2599  1.2996
  987MOL0     H36168   6.952  10.688   1.872 -0.7251  1.4720  1.3862
  987MOL0     H36169   7.097  10.619   1.693  5.3858  2.1489 -0.0148
  987MOL0     H36170   7.126  10.609   1.341  1.1487 -0.7355  0.3112
  987MOL0     H36171   7.002  10.598   1.463  0.7480  1.1395  0.5207
  987MOL0     H36172   6.892  10.664   1.268  0.7706  0.3581 -1.1306
  987MOL0     H36173   6.893  10.806   1.383 -0.2315 -0.8909  1.5459
  987MOL0     H36174   7.126  10.782   1.199 -0.0031  0.2143 -0.6485
  987MOL0     H36175   7.028  10.932   1.232 -0.0780  0.2131 -2.0811
  987MOL0     H36176   6.846  10.844   1.098 -1.7323 -1.9068 -1.4573
  987MOL0     H36177   6.933  10.707   1.045 -1.1880  0.2115 -1.8091
  987MOL0     H36178   7.032  10.994   1.002 -3.9825  0.5776  2.7481
  987MOL0     H36179   7.093  10.848   0.927  2.9526 -0.2741  5.3208
  987MOL0     H36180   6.863  10.800   0.830  1.9062 -0.8544 -1.0655
  987MOL0     H36181   6.931  10.944   0.761  1.5272 -3.9037 -1.0508
  987MOL0     H36182   6.761  11.090   0.854 -1.9775 -0.8366 -0.3873
  987MOL0     H36183   6.746  11.004   1.003 -3.6071  3.0659  0.0238
  987MOL0     H36184   6.620  10.931   0.744 -0.7301  1.8425  0.0048
  987MOL0     H36185   6.560  11.005   0.889  1.5304  1.7672 -1.2047
  987MOL0     H36186   7.076  11.010   1.523 -2.0224  0.1281 -0.6591
  987MOL0     H36187   6.960  11.094   1.721 -1.2097  0.5831 -1.6400
  987MOL0     H36188   6.446  10.917   1.893 -4.5583  3.3897  0.3686
  987MOL0     H36189   6.299  10.936   2.063 -0.4650 -0.3664  3.1209
  987MOL0     H36190   4.988  10.830   3.359  1.8716  0.3042  0.4212
  987MOL0     H36191   4.883  10.621   3.449  2.4180 -2.6143 -1.3412
  987MOL0     H36192   4.878  10.470   3.934 -1.0738 -0.1533  0.6913
  987MOL0     H36193   4.833  10.303   4.116 -0.4408  0.1372  1.0458
  987MOL0     H36194   4.652   9.954   4.020  0.6150 -2.2737 -1.1659
  987MOL0     H36195   4.820   9.886   4.032  0.9298  1.4370  0.7627
  987MOL0     H36196   4.716   9.785   4.208 -0.0515 -0.5446 -1.8842
  987MOL0     H36197   4.593   9.912   4.237  0.5998  2.0931  0.5986
  987MOL0     H36198   4.766  10.066   4.336  1.7514  0.5878  2.5945
  987MOL0     H36199   4.724   9.918   4.432  1.7488  0.7444  0.9070
  987MOL0     H36200   4.964   9.987   4.414 -0.1028  1.0911  0.0312
  987MOL0     H36201   4.972   9.935   4.251 -0.8891  1.3341  0.4941
  987MOL0     H36202   5.053   9.587   4.411 -1.4368 -0.4960  1.3629
  987MOL0     H36203   4.790   9.993   3.841  0.6148 -0.7318  2.4468
  987MOL0     H36204   4.976  10.140   3.566  0.3027 -0.8648 -0.5712
  987MOL0     H36205   4.917  10.001   3.629  1.5763  0.5388  0.3916
  987MOL0     H36206   4.800  10.100   3.545  0.4739 -4.2485 -0.7029
  988MOL0     O36207   3.576   6.962   0.724 -0.0183 -0.3504  0.3108
  988MOL0     C36208   3.575   6.886   0.818  0.7435  0.2558  0.5338
  988MOL0     O36209   3.469   6.828   0.872 -0.5814  0.4672 -0.9086
  988MOL0     C36210   3.343   6.860   0.832 -0.3310 -0.7050  0.2929
  988MOL0     C36211   3.256   6.759   0.784  0.3588 -0.4537 -1.1686
  988MOL0     C36212   3.117   6.801   0.764  0.0636 -0.1273 -0.3512
  988MOL0     C36213   3.076   6.928   0.805  1.1445  0.1503  0.2112
  988MOL0     O36214   2.941   6.953   0.828  0.2644 -0.3581  0.2762
  988MOL0     C36215   2.847   6.885   0.741  0.1779  0.5031 -1.1447
  988MOL0     C36216   2.710   6.925   0.781  0.1163 -1.4217  0.3360
  988MOL0     C36217   2.609   6.814   0.739 -0.0132 -0.5033 -0.3040
  988MOL0     C36218   2.454   6.850   0.755  0.6557 -0.5040  0.0463
  988MOL0     C36219   2.348   6.739   0.769 -1.0629  0.3485  0.6792
  988MOL0     C36220   2.205   6.779   0.787  0.1063  0.0070  0.5275
  988MOL0     C36221   2.114   6.666   0.829 -0.7827 -0.7295  1.2015
  988MOL0     C36222   2.124   6.533   0.743  0.3762  0.8726 -0.1700
  988MOL0     N36223   2.091   6.564   0.603 -1.1621 -0.6714  0.0147
  988MOL0     C36224   2.119   6.480   0.501  0.0634 -0.7150  1.0626
  988MOL0     C36225   2.040   6.531   0.400 -0.9382  0.1173 -0.1482
  988MOL0     C36226   2.039   6.487   0.255 -0.1615 -0.4893 -0.2117
  988MOL0     C36227   1.958   6.580   0.163  0.2982  0.2167  0.9007
  988MOL0     C36228   1.981   6.556   0.009  0.2119  0.3740  0.1594
  988MOL0     C36229   2.125   6.578  -0.038  0.6803  0.1284  0.4964
  988MOL0     O36230   2.143   6.496  -0.146 -0.1458 -0.1807  0.5352
  988MOL0     C36231   2.242   6.530  -0.232 -0.2239  0.0960 -0.8141
  988MOL0     C36232   2.327   6.645  -0.217  0.3954  0.0660  1.0384
  988MOL0     C36233   2.411   6.680  -0.321  0.4053  0.0168  0.1558
  988MOL0     C36234   2.487   6.809  -0.308 -0.0730  0.0529 -0.3955
  988MOL0     C36235   2.425   6.599  -0.439 -0.0925 -0.7292  0.7011
  988MOL0     C36236   2.526   6.620  -0.552 -0.8833 -0.3131 -0.4547
  988MOL0     O36237   2.507   6.537  -0.656 -0.0329 -0.0212  0.2180
  988MOL0     C36238   2.586   6.554  -0.765 -0.5606  0.1986  0.2967
  988MOL0     C36239   2.539   6.606  -0.881  0.1813 -0.1769 -0.9166
  988MOL0     C36240   2.620   6.602  -0.991  1.0217 -0.3734  0.7401
  988MOL0     C36241   2.739   6.529  -0.993 -0.7291 -0.2136  0.3337
  988MOL0     O36242   2.800   6.499  -1.115  0.5103 -1.0205 -0.2578
  988MOL0     C36243   2.937   6.468  -1.125 -0.5847 -1.5030 -0.1948
  988MOL0     C36244   3.025   6.593  -1.080  0.4324  0.6242  0.0923
  988MOL0     C36245   2.995   6.719  -1.155  0.2418 -0.2230  0.6194
  988MOL0     C36246   3.063   6.840  -1.084 -0.5185  0.3189 -0.2853
  988MOL0     C36247   3.075   6.958  -1.171  0.5739  0.2364 -0.1564
  988MOL0     C36248   3.171   6.935  -1.291  0.5822  0.0426  0.3236
  988MOL0     C36249   3.194   7.076  -1.358 -0.4302 -0.4784  0.7920
  988MOL0     C36250   3.291   7.053  -1.474 -0.3153 -1.0262 -0.0837
  988MOL0    Cl36251   3.455   6.995  -1.431 -0.6347 -0.1148 -0.4272
  988MOL0     C36252   2.789   6.481  -0.873  0.1000 -0.2266 -0.1590
  988MOL0     C36253   2.711   6.487  -0.762  0.1338  1.0232  0.1369
  988MOL0     O36254   2.613   6.702  -0.540  0.0982  0.2411  0.5408
  988MOL0     C36255   2.337   6.483  -0.439 -0.2296 -0.0677  0.2279
  988MOL0     C36256   2.251   6.441  -0.338  0.3859 -0.0474  0.2503
  988MOL0     N36257   1.957   6.636   0.450 -0.0899  0.6193  0.5396
  988MOL0     N36258   1.992   6.650   0.568 -0.0525 -0.1621 -0.0506
  988MOL0     C36259   3.165   7.034   0.833  0.2143  0.1298  0.4357
  988MOL0     C36260   3.297   6.993   0.849 -0.0685 -0.2159  0.5706
  988MOL0     C36261   3.707   6.862   0.882 -0.4829  0.1337 -0.0377
  988MOL0     C36262   3.819   6.883   0.795  0.0057 -0.1345  0.1102
  988MOL0     C36263   3.948   6.852   0.832  0.0638  1.2881  0.4567
  988MOL0     C36264   3.967   6.793   0.963  0.6872  0.4043 -0.0056
  988MOL0     O36265   4.090   6.744   1.004  0.8865  0.2407 -0.6166
  988MOL0     C36266   4.211   6.761   0.933  0.1882  0.7260 -0.2496
  988MOL0     C36267   4.288   6.874   0.991  0.1600  0.3932 -0.1204
  988MOL0     C36268   4.284   6.894   1.138 -0.4757 -0.3243 -0.2750
  988MOL0     C36269   4.405   6.845   1.219 -0.6482  0.7730 -0.2174
  988MOL0     C36270   4.429   6.698   1.215  1.1914 -0.6533  0.5114
  988MOL0     C36271   4.460   6.575   1.213 -0.5803 -0.2197 -0.1702
  988MOL0     C36272   3.859   6.780   1.053  0.4207 -0.3060  0.9160
  988MOL0     C36273   3.726   6.823   1.015 -0.5672  0.3080  0.5585
  988MOL0     C36274   3.613   6.809   1.111  0.5586  0.4969 -0.7128
  988MOL0     H36275   3.298   6.659   0.792  1.3014  0.0562  1.4232
  988MOL0     H36276   3.043   6.726   0.737 -0.2909 -0.1424  0.6102
  988MOL0     H36277   2.852   6.778   0.764  0.3091  0.5673 -0.8625
  988MOL0     H36278   2.873   6.899   0.636  4.0749  0.3946 -0.3612
  988MOL0     H36279   2.697   6.937   0.889  0.5569  1.0144  0.1871
  988MOL0     H36280   2.688   7.025   0.743  0.5324 -1.3334  0.3254
  988MOL0     H36281   2.633   6.792   0.634 -0.3596  0.7968 -0.6735
  988MOL0     H36282   2.623   6.730   0.808 -1.3521  0.0705  0.6979
  988MOL0     H36283   2.447   6.900   0.852 -0.0219 -2.5801  1.1270
  988MOL0     H36284   2.418   6.921   0.680  0.8588  0.7768  1.1188
  988MOL0     H36285   2.371   6.674   0.854 -1.4903 -2.6923 -1.3601
  988MOL0     H36286   2.338   6.688   0.672 -1.7901  4.4335 -1.6085
  988MOL0     H36287   2.187   6.872   0.843  1.1478  0.6132 -0.1118
  988MOL0     H36288   2.180   6.825   0.691 -0.8720  0.5904  1.0457
  988MOL0     H36289   2.011   6.701   0.819  0.4684  2.6576 -3.6619
  988MOL0     H36290   2.150   6.653   0.931 -1.4894 -1.9369  1.3062
  988MOL0     H36291   2.229   6.501   0.751 -0.1671 -0.9898  0.0399
  988MOL0     H36292   2.051   6.462   0.784 -0.6022  2.3042  0.6695
  988MOL0     H36293   2.177   6.388   0.508 -2.9492 -2.8079  0.5221
  988MOL0     H36294   2.009   6.386   0.225  4.4953 -2.6930  1.4150
  988MOL0     H36295   2.145   6.484   0.227  1.4992  0.9015  4.7818
  988MOL0     H36296   1.851   6.559   0.174 -0.1162  1.8873  0.4275
  988MOL0     H36297   1.972   6.687   0.183 -1.5653  0.7426 -0.2723
  988MOL0     H36298   1.957   6.451  -0.008 -1.4707  0.9511 -1.2623
  988MOL0     H36299   1.926   6.625  -0.056  2.3194  2.0806  0.0839
  988MOL0     H36300   2.128   6.679  -0.080  0.8887 -1.1148 -2.8236
  988MOL0     H36301   2.202   6.566   0.039  1.6100  0.3287 -0.3757
  988MOL0     H36302   2.316   6.721  -0.140  1.9662  0.6031  0.7563
  988MOL0     H36303   2.458   6.868  -0.221 -1.7122 -0.0875 -0.8232
  988MOL0     H36304   2.471   6.887  -0.384  0.4122  1.2525  0.6995
  988MOL0     H36305   2.596   6.797  -0.308 -0.1235 -0.4201  0.2019
  988MOL0     H36306   2.440   6.652  -0.875 -0.9156 -2.4440 -0.3651
  988MOL0     H36307   2.583   6.640  -1.085 -2.0049  0.2073  2.0382
  988MOL0     H36308   2.975   6.377  -1.079  0.7309 -1.0320 -0.2901
  988MOL0     H36309   2.958   6.447  -1.230 -0.9385  2.2937 -1.1778
  988MOL0     H36310   3.023   6.602  -0.971  2.5360 -1.2446  0.3602
  988MOL0     H36311   3.127   6.557  -1.096 -0.1464 -0.7593 -0.6436
  988MOL0     H36312   2.886   6.733  -1.156  0.1070 -1.1284  1.7583
  988MOL0     H36313   3.021   6.688  -1.257 -1.2711  0.0289  0.1306
  988MOL0     H36314   3.167   6.813  -1.059 -0.0398  0.1510 -2.2862
  988MOL0     H36315   3.020   6.857  -0.985  2.1966  0.5147  0.9755
  988MOL0     H36316   2.973   6.980  -1.204  0.3013 -0.2547  0.3176
  988MOL0     H36317   3.113   7.049  -1.124  0.9282 -1.3412  2.9461
  988MOL0     H36318   3.127   6.866  -1.364  2.2871 -1.6601  0.8080
  988MOL0     H36319   3.271   6.906  -1.259  0.6045 -0.5533 -0.2658
  988MOL0     H36320   3.234   7.145  -1.283 -2.1334 -0.8125  2.0626
  988MOL0     H36321   3.098   7.111  -1.395 -0.8503  2.4440  4.0556
  988MOL0     H36322   3.314   7.154  -1.511  0.0417 -1.1816 -0.2950
  988MOL0     H36323   3.245   6.990  -1.550  1.1967 -2.9417  0.4952
  988MOL0     H36324   2.888   6.439  -0.859  0.9488  2.0607  1.5021
  988MOL0     H36325   2.745   6.438  -0.671 -0.4297 -1.2487 -0.8228
  988MOL0     H36326   2.340   6.421  -0.528 -3.0346 -1.9369  1.2961
  988MOL0     H36327   2.194   6.350  -0.353  0.4840  0.0738 -1.0195
  988MOL0     H36328   3.133   7.132   0.865 -2.1941 -2.0996  6.2955
  988MOL0     H36329   3.369   7.065   0.886 -0.4207 -0.8260  2.5206
  988MOL0     H36330   3.802   6.911   0.692  0.1261 -0.6497 -0.0511
  988MOL0     H36331   4.028   6.869   0.761  0.2765 -3.8805 -0.9842
  988MOL0     H36332   4.262   6.665   0.937  1.3693  1.1392 -3.0817
  988MOL0     H36333   4.190   6.776   0.827  2.5896 -1.3861 -1.1001
  988MOL0     H36334   4.250   6.963   0.940 -1.2797 -0.6836 -1.0038
  988MOL0     H36335   4.394   6.870   0.966  0.3114  1.6745  0.2430
  988MOL0     H36336   4.283   7.003   1.145 -1.4363  0.0194 -3.7941
  988MOL0     H36337   4.189   6.870   1.185 -0.4838 -1.9360 -1.0633
  988MOL0     H36338   4.386   6.861   1.325  1.8214  1.8977  0.1219
  988MOL0     H36339   4.498   6.898   1.194  0.2412 -0.0039  1.3297
  988MOL0     H36340   4.478   6.470   1.222  1.5379 -0.1062 -2.0150
  988MOL0     H36341   3.869   6.724   1.145 -1.9394  0.7901  1.9180
  988MOL0     H36342   3.637   6.776   1.213  1.5821 -0.7373 -1.3256
  988MOL0     H36343   3.536   6.886   1.098 -1.0929 -1.1375 -1.0431
  988MOL0     H36344   3.560   6.719   1.078 -1.2158  1.6356 -1.0737
  989MOL0     O36345   0.602   3.198   1.043  0.3897 -0.5247 -0.8654
  989MOL0     C36346   0.553   3.289   1.112 -0.3399 -0.3653 -0.0544
  989MOL0     O36347   0.421   3.328   1.104 -0.1763 -0.5494 -0.3231
  989MOL0     C36348   0.344   3.237   1.027  0.5431  0.8194 -0.2720
  989MOL0     C36349   0.268   3.280   0.914  0.0065  0.2344 -0.2337
  989MOL0     C36350   0.198   3.196   0.828  0.3560  0.2827 -0.8038
  989MOL0     C36351   0.201   3.059   0.851 -0.5662  0.0052 -0.2780
  989MOL0     O36352   0.130   2.984   0.764  1.0933 -0.1045  0.5714
  989MOL0     C36353   0.066   2.868   0.822  0.6458 -0.4864  0.6486
  989MOL0     C36354  -0.055   2.833   0.745 -0.3205 -0.2762 -0.7566
  989MOL0     C36355  -0.176   2.926   0.763 -0.8402 -0.3002 -0.2623
  989MOL0     C36356  -0.277   2.901   0.651 -0.0429  0.6301  0.6247
  989MOL0     C36357  -0.404   2.994   0.669 -0.6075 -0.4905 -0.3278
  989MOL0     C36358  -0.383   3.136   0.645  0.5194 -0.1443  0.1571
  989MOL0     C36359  -0.512   3.222   0.651 -0.6574  0.5742  0.5515
  989MOL0     C36360  -0.620   3.187   0.546 -0.4661  0.2348 -0.1479
  989MOL0     N36361  -0.576   3.204   0.404  0.1537 -0.9313 -0.0459
  989MOL0     C36362  -0.507   3.315   0.351  0.8622  0.7083 -1.3661
  989MOL0     C36363  -0.478   3.286   0.227 -0.3866 -0.5207  0.3297
  989MOL0     C36364  -0.389   3.364   0.129 -0.6885  1.5075  0.0424
  989MOL0     C36365  -0.456   3.495   0.067  0.3920 -0.5725  0.2778
  989MOL0     C36366  -0.446   3.619   0.164 -1.2530  0.2918 -0.0068
  989MOL0     C36367  -0.540   3.719   0.096 -0.1020  0.0984  0.3062
  989MOL0     O36368  -0.673   3.696   0.138  0.0728  1.1622 -0.1271
  989MOL0     C36369  -0.775   3.756   0.073  0.3855  1.5521 -0.4035
  989MOL0     C36370  -0.901   3.729   0.121 -0.2358  0.3142 -0.6281
  989MOL0     C36371  -1.019   3.797   0.078  0.1896 -0.3025 -0.1005
  989MOL0     C36372  -1.141   3.773   0.159 -0.6236 -0.3095 -0.7914
  989MOL0     C36373  -1.008   3.901  -0.017  0.0029  0.8095  0.6660
  989MOL0     C36374  -1.117   3.995  -0.067 -0.9134 -0.4891  0.2467
  989MOL0     O36375  -1.086   4.089  -0.153  0.2663  0.3311 -0.2941
  989MOL0     C36376  -1.187   4.184  -0.170 -0.5876  0.4031 -0.2449
  989MOL0     C36377  -1.215   4.254  -0.048 -0.2908  0.0520 -0.3190
  989MOL0     C36378  -1.333   4.332  -0.037  1.2702 -0.2492 -0.3342
  989MOL0     C36379  -1.417   4.349  -0.148 -0.5522  0.4474 -1.3051
  989MOL0     O36380  -1.537   4.424  -0.143 -0.0567  0.2635 -0.2810
  989MOL0     C36381  -1.599   4.482  -0.031  0.1615  0.2513 -0.3569
  989MOL0     C36382  -1.556   4.633  -0.029 -0.2177  0.1043 -0.4804
  989MOL0     C36383  -1.595   4.717  -0.152  0.3027  0.3502  0.0431
  989MOL0     C36384  -1.512   4.848  -0.170 -0.4162  0.0014  0.3920
  989MOL0     C36385  -1.361   4.830  -0.179  0.0416 -0.0465 -0.7315
  989MOL0     C36386  -1.291   4.968  -0.221  0.5868 -0.0404 -0.9275
  989MOL0     C36387  -1.322   5.079  -0.122 -0.3069 -0.6722  0.1159
  989MOL0     C36388  -1.243   5.201  -0.153  0.7600  0.2549  0.2571
  989MOL0    Cl36389  -1.071   5.173  -0.140  0.1570  0.0239 -0.0465
  989MOL0     C36390  -1.388   4.283  -0.265  0.6642  0.7230  0.3219
  989MOL0     C36391  -1.280   4.192  -0.274 -0.2546 -0.6410  0.3007
  989MOL0     O36392  -1.233   3.976  -0.031  0.4990 -0.3690 -0.0801
  989MOL0     C36393  -0.877   3.922  -0.067 -0.2144  0.2443 -0.0765
  989MOL0     C36394  -0.765   3.852  -0.026 -0.2522 -0.5398  0.2904
  989MOL0     N36395  -0.527   3.157   0.202  0.2909 -0.2273 -0.3929
  989MOL0     N36396  -0.590   3.109   0.307 -0.4322  0.4883  0.1511
  989MOL0     C36397   0.273   3.016   0.961  0.4625 -1.2886 -0.1171
  989MOL0     C36398   0.343   3.096   1.052  0.3777 -1.1599  1.6893
  989MOL0     C36399   0.634   3.354   1.223  0.2539  0.0673  0.6638
  989MOL0     C36400   0.774   3.326   1.222 -0.2180 -0.3895  0.1443
  989MOL0     C36401   0.865   3.373   1.322 -0.0773  0.3279 -0.1049
  989MOL0     C36402   0.816   3.472   1.414 -0.5875 -0.2987 -0.8822
  989MOL0     O36403   0.904   3.516   1.503  0.6146 -0.3506 -0.5476
  989MOL0     C36404   0.878   3.641   1.558  0.6701 -0.8181  0.1173
  989MOL0     C36405   0.989   3.666   1.658  0.1596  0.6042  0.1939
  989MOL0     C36406   1.130   3.665   1.605  0.0697 -0.5241  1.0584
  989MOL0     C36407   1.155   3.764   1.482 -0.2227 -0.0698 -0.3451
  989MOL0     C36408   1.291   3.726   1.442 -0.4518  0.1986  0.4012
  989MOL0     C36409   1.410   3.697   1.423  0.0714 -0.1133  0.0674
  989MOL0     C36410   0.680   3.496   1.421  0.0270  0.5395 -0.3017
  989MOL0     C36411   0.588   3.440   1.330  0.2201 -0.2433 -0.2863
  989MOL0     C36412   0.437   3.474   1.360 -0.8831  0.9201  0.6785
  989MOL0     H36413   0.255   3.387   0.902  0.9073  0.3705 -0.0134
  989MOL0     H36414   0.141   3.231   0.743 -2.6278  0.5174  1.1339
  989MOL0     H36415   0.032   2.884   0.924 -1.0663  0.4793 -0.0275
  989MOL0     H36416   0.143   2.790   0.818  1.5033  0.3739 -1.8837
  989MOL0     H36417  -0.037   2.818   0.638  1.2599 -1.9605 -0.3025
  989MOL0     H36418  -0.095   2.740   0.786 -0.7256  0.6729  1.1473
  989MOL0     H36419  -0.217   2.900   0.861 -2.4608  1.2845 -0.4772
  989MOL0     H36420  -0.131   3.025   0.756 -0.1592 -0.5645  0.2057
  989MOL0     H36421  -0.228   2.918   0.555 -0.3524 -0.3397  0.2792
  989MOL0     H36422  -0.293   2.793   0.642  2.5272  0.3462 -1.5463
  989MOL0     H36423  -0.432   2.972   0.773  0.9980  0.9913  0.4761
  989MOL0     H36424  -0.485   2.967   0.602 -1.3844  0.6118  0.1444
  989MOL0     H36425  -0.317   3.162   0.729 -0.2423  0.1624  0.6675
  989MOL0     H36426  -0.325   3.149   0.553 -0.2003  0.9160 -0.1677
  989MOL0     H36427  -0.481   3.326   0.649  0.5138  0.3121 -3.4839
  989MOL0     H36428  -0.545   3.196   0.752 -1.3755  0.4585  0.2888
  989MOL0     H36429  -0.656   3.085   0.556 -2.1622  0.9773  2.1422
  989MOL0     H36430  -0.711   3.248   0.555 -1.7613 -1.5448 -0.6092
  989MOL0     H36431  -0.501   3.409   0.405 -2.5610  0.1672  0.2282
  989MOL0     H36432  -0.367   3.299   0.043  0.7066  4.0443 -1.6461
  989MOL0     H36433  -0.293   3.383   0.179 -0.3954  0.4053 -0.0789
  989MOL0     H36434  -0.400   3.524  -0.023  2.0966  0.2831  1.5631
  989MOL0     H36435  -0.558   3.467   0.042  1.1473 -2.6402 -0.7605
  989MOL0     H36436  -0.465   3.609   0.272  2.7051  0.4660  0.8277
  989MOL0     H36437  -0.343   3.652   0.154 -0.7875 -0.8857  0.7426
  989MOL0     H36438  -0.508   3.816   0.136  1.2023 -0.0309 -0.3596
  989MOL0     H36439  -0.533   3.716  -0.013 -2.3315  0.6749  0.1079
  989MOL0     H36440  -0.903   3.648   0.193  0.4005  0.3780 -0.5336
  989MOL0     H36441  -1.136   3.695   0.236  1.7448 -0.8524 -1.4212
  989MOL0     H36442  -1.231   3.762   0.098 -1.2992  0.2352  0.0695
  989MOL0     H36443  -1.148   3.862   0.223  3.7227 -1.4813  1.7217
  989MOL0     H36444  -1.144   4.255   0.034  1.6048 -1.5555 -1.8118
  989MOL0     H36445  -1.356   4.373   0.060  1.2589 -4.7710  1.8171
  989MOL0     H36446  -1.707   4.465  -0.033  0.4246 -1.5547 -0.1755
  989MOL0     H36447  -1.580   4.436   0.066 -2.1350 -0.5387 -0.2261
  989MOL0     H36448  -1.601   4.678   0.060  1.9098 -0.0392  0.7300
  989MOL0     H36449  -1.448   4.635  -0.014 -0.2609 -2.6602  0.7522
  989MOL0     H36450  -1.702   4.741  -0.146 -0.1996 -1.9196  1.1037
  989MOL0     H36451  -1.574   4.653  -0.237  2.9213  0.7009  0.3502
  989MOL0     H36452  -1.529   4.913  -0.083  2.3069  0.2151  0.8673
  989MOL0     H36453  -1.554   4.898  -0.258  0.6390  0.1725 -0.0297
  989MOL0     H36454  -1.325   4.798  -0.080 -2.7673  1.3169  0.8584
  989MOL0     H36455  -1.325   4.752  -0.247  1.8787 -0.1323  0.2642
  989MOL0     H36456  -1.305   4.988  -0.328 -0.8301  0.8668 -0.6063
  989MOL0     H36457  -1.184   4.949  -0.214  0.1430 -2.6021  0.2524
  989MOL0     H36458  -1.306   5.056  -0.016 -4.9196  0.2902  1.2662
  989MOL0     H36459  -1.425   5.116  -0.123  0.5569  2.0827  2.4270
  989MOL0     H36460  -1.277   5.286  -0.092  0.6961  0.4986 -0.1142
  989MOL0     H36461  -1.245   5.233  -0.258  1.9221  1.3424  0.5261
  989MOL0     H36462  -1.441   4.300  -0.358  0.3143  0.8254  0.5404
  989MOL0     H36463  -1.270   4.134  -0.365  1.8973  2.1755 -1.4552
  989MOL0     H36464  -0.854   3.998  -0.142 -1.7182  1.9416  1.0922
  989MOL0     H36465  -0.673   3.901  -0.056 -0.0884  0.0278  1.6456
  989MOL0     H36466   0.281   2.910   0.985  2.3043 -1.7665 -2.4532
  989MOL0     H36467   0.395   3.055   1.138  2.2011 -0.5477  0.9490
  989MOL0     H36468   0.813   3.256   1.149 -1.1094  1.0741 -1.8311
  989MOL0     H36469   0.968   3.341   1.332  0.6487  3.0806  3.4995
  989MOL0     H36470   0.871   3.714   1.477 -4.4872 -0.1194  0.8581
  989MOL0     H36471   0.781   3.647   1.609 -0.4531  2.2346 -2.1076
  989MOL0     H36472   0.973   3.590   1.736  0.5893  0.2667 -0.0420
  989MOL0     H36473   0.970   3.761   1.709 -0.5394  1.9335 -2.3630
  989MOL0     H36474   1.187   3.693   1.694 -2.1573 -0.5852  2.6003
  989MOL0     H36475   1.165   3.567   1.571 -0.9887  0.0195 -1.8681
  989MOL0     H36476   1.165   3.868   1.511 -0.8078  0.0288 -0.4761
  989MOL0     H36477   1.072   3.744   1.413 -2.3449 -1.2826  2.3434
  989MOL0     H36478   1.509   3.660   1.406  0.0340 -0.4658  0.6033
  989MOL0     H36479   0.632   3.561   1.494  0.1858 -1.1569  1.3937
  989MOL0     H36480   0.437   3.548   1.441 -2.1640  0.1380  1.4205
  989MOL0     H36481   0.383   3.508   1.271 -0.0719  0.3117 -0.0637
  989MOL0     H36482   0.397   3.377   1.390 -1.5158  0.7869 -0.5419
  990MOL0     O36483   7.522   0.365   2.794  0.4890 -0.6994  0.1301
  990MOL0     C36484   7.555   0.260   2.739 -0.0610  0.0293 -0.2369
  990MOL0     O36485   7.667   0.188   2.772 -0.9993 -0.4468 -0.0418
  990MOL0     C36486   7.741   0.225   2.887 -0.1497 -0.5327 -0.9659
  990MOL0     C36487   7.867   0.280   2.888  0.3897 -1.0529 -0.3650
  990MOL0     C36488   7.939   0.290   3.010  0.2143 -0.5945 -0.2719
  990MOL0     C36489   7.884   0.242   3.134  0.2915 -0.7097  0.0708
  990MOL0     O36490   7.947   0.250   3.253 -0.0921 -0.1111 -0.2194
  990MOL0     C36491   8.061   0.330   3.266 -0.5966 -0.2252 -0.5572
  990MOL0     C36492   8.109   0.345   3.405 -0.1611  0.0949  0.7638
  990MOL0     C36493   8.210   0.447   3.439 -0.6930  0.2909 -0.3471
  990MOL0     C36494   8.337   0.423   3.357  0.4547  0.3354  0.3405
  990MOL0     C36495   8.462   0.503   3.399 -0.0235  0.2323 -0.0213
  990MOL0     C36496   8.539   0.450   3.528  0.4883  0.6710  0.0470
  990MOL0     C36497   8.642   0.559   3.568  0.7473 -0.1454  0.0052
  990MOL0     C36498   8.717   0.517   3.699 -0.8627 -0.2949 -0.5268
  990MOL0     N36499   8.833   0.611   3.725  0.7195 -0.8485  0.3706
  990MOL0     C36500   8.927   0.648   3.632 -0.0558 -0.1603  0.1166
  990MOL0     C36501   9.016   0.721   3.692  0.4720  0.1801  0.7522
  990MOL0     C36502   9.110   0.806   3.625 -0.0711  0.9499 -0.8201
  990MOL0     C36503   9.057   0.941   3.586 -0.2270  0.4244 -0.1368
  990MOL0     C36504   8.984   1.017   3.698 -0.1461 -0.6283  0.6277
  990MOL0     C36505   9.025   1.167   3.714 -0.0229  0.2158 -0.2577
  990MOL0     O36506   8.966   1.260   3.620 -0.1866  0.3304 -0.2086
  990MOL0     C36507   8.831   1.275   3.613 -0.6718 -0.0612  0.1040
  990MOL0     C36508   8.783   1.298   3.476 -0.7282  0.8033 -0.6276
  990MOL0     C36509   8.652   1.326   3.447  0.1498  0.3005  0.2346
  990MOL0     C36510   8.605   1.327   3.296 -0.6386  0.6511 -0.3044
  990MOL0     C36511   8.563   1.327   3.559 -0.1662 -1.0184 -0.2264
  990MOL0     C36512   8.414   1.355   3.540 -0.0180 -0.1301 -0.1768
  990MOL0     O36513   8.331   1.309   3.639 -0.0760 -0.5580 -0.1434
  990MOL0     C36514   8.196   1.316   3.621 -0.6085  0.3517 -0.1550
  990MOL0     C36515   8.109   1.335   3.728  1.5264 -0.2556  0.3048
  990MOL0     C36516   7.971   1.304   3.731  0.2462  0.0642 -1.0903
  990MOL0     C36517   7.904   1.272   3.609  0.2018 -0.3969 -0.7496
  990MOL0     O36518   7.772   1.245   3.593 -0.0509  0.2357  0.3173
  990MOL0     C36519   7.676   1.245   3.701  0.5299 -0.0455  0.0225
  990MOL0     C36520   7.694   1.128   3.798 -0.1187  0.4448 -0.5674
  990MOL0     C36521   7.569   1.120   3.906  0.1028 -0.7569  0.4204
  990MOL0     C36522   7.567   0.996   3.995 -0.8375  0.0503  0.3625
  990MOL0     C36523   7.437   0.950   4.053 -0.1365 -0.5094 -0.3895
  990MOL0     C36524   7.444   0.891   4.188 -0.4701 -0.6848 -0.1786
  990MOL0     C36525   7.306   0.872   4.253  0.9008 -0.9806 -0.0321
  990MOL0     C36526   7.260   0.718   4.221 -0.4841 -0.0848 -0.8103
  990MOL0    Cl36527   7.075   0.717   4.249 -0.3434 -0.1840 -0.2484
  990MOL0     C36528   7.991   1.251   3.496  0.1736 -0.0204 -0.1213
  990MOL0     C36529   8.136   1.263   3.505  0.4996 -0.1520  0.0376
  990MOL0     O36530   8.383   1.430   3.447  0.0350  0.0100 -0.6944
  990MOL0     C36531   8.611   1.314   3.694  0.4901  0.3088  0.0778
  990MOL0     C36532   8.738   1.279   3.719 -0.5086 -0.4112  0.4458
  990MOL0     N36533   9.000   0.710   3.826 -0.1826  0.2259  0.6096
  990MOL0     N36534   8.884   0.651   3.842  0.6107  0.5750 -0.4871
  990MOL0     C36535   7.752   0.177   3.123  0.0220 -1.0910 -1.1026
  990MOL0     C36536   7.683   0.179   3.005 -1.8493 -0.7198 -0.2202
  990MOL0     C36537   7.475   0.219   2.624 -0.1193  0.8716 -0.3293
  990MOL0     C36538   7.489   0.088   2.581 -0.0188  0.6284 -0.8053
  990MOL0     C36539   7.415   0.042   2.468  0.1619 -0.6030  0.1532
  990MOL0     C36540   7.344   0.124   2.396 -0.0972  0.3932 -0.1439
  990MOL0     O36541   7.287   0.064   2.281  0.6505 -0.5655  0.0914
  990MOL0     C36542   7.214   0.151   2.198 -0.0919  0.2220  0.0556
  990MOL0     C36543   7.142   0.064   2.094 -0.2358  0.9493  0.2828
  990MOL0     C36544   7.237   0.028   1.977  0.2253 -0.4629 -0.3622
  990MOL0     C36545   7.168  -0.048   1.858 -0.2187  0.2702  0.2718
  990MOL0     C36546   7.106  -0.168   1.909  0.0598  0.4329 -0.7430
  990MOL0     C36547   7.050  -0.272   1.946  0.9594  0.0125 -0.2272
  990MOL0     C36548   7.334   0.259   2.425  0.5242 -0.0152  0.1273
  990MOL0     C36549   7.396   0.306   2.546  0.7411 -0.0787  0.2071
  990MOL0     C36550   7.345   0.447   2.588  0.4319  1.2799 -0.3532
  990MOL0     H36551   7.917   0.314   2.797 -0.3516  1.0174 -0.0718
  990MOL0     H36552   8.040   0.330   3.006 -1.1881  3.7172  1.6040
  990MOL0     H36553   8.039   0.434   3.242  3.2532  1.2033  1.2264
  990MOL0     H36554   8.141   0.299   3.197  0.8260  1.3904  0.2682
  990MOL0     H36555   8.019   0.364   3.464  1.1307  2.3987  2.1308
  990MOL0     H36556   8.158   0.252   3.437  1.2458 -0.0650 -1.6468
  990MOL0     H36557   8.166   0.541   3.405 -0.2486  1.2030  1.4726
  990MOL0     H36558   8.215   0.469   3.546 -1.1119 -0.9510 -0.0645
  990MOL0     H36559   8.363   0.316   3.357  1.0304  0.4438 -1.3535
  990MOL0     H36560   8.317   0.446   3.252  2.8797 -0.4629 -0.3703
  990MOL0     H36561   8.433   0.608   3.413 -1.2031 -0.0290 -0.4500
  990MOL0     H36562   8.533   0.490   3.317  0.6535  0.2603  0.5463
  990MOL0     H36563   8.477   0.417   3.612  1.2318 -1.3226 -0.1278
  990MOL0     H36564   8.594   0.359   3.502  0.4061  0.7695 -0.4675
  990MOL0     H36565   8.596   0.657   3.580 -0.9853 -1.0916  1.4622
  990MOL0     H36566   8.716   0.561   3.487 -0.4796 -0.3341 -1.1515
  990MOL0     H36567   8.649   0.507   3.785  0.9649 -3.3352  0.6896
  990MOL0     H36568   8.751   0.414   3.691 -0.9747 -0.2835 -1.2209
  990MOL0     H36569   8.918   0.636   3.525 -0.1516  0.6669  0.0253
  990MOL0     H36570   9.153   0.760   3.536 -0.1938  2.7964 -1.9039
  990MOL0     H36571   9.198   0.827   3.687 -0.9879  0.8700  0.5426
  990MOL0     H36572   9.137   1.012   3.562 -1.8364  1.8581 -1.5567
  990MOL0     H36573   8.985   0.932   3.504  0.2365 -0.6757 -0.4429
  990MOL0     H36574   8.877   0.996   3.687 -0.4295  1.5491 -1.7467
  990MOL0     H36575   9.027   0.967   3.786  2.0850 -1.7690 -1.0022
  990MOL0     H36576   9.010   1.197   3.819 -0.2536 -2.1874  0.4495
  990MOL0     H36577   9.132   1.186   3.718 -0.0301  0.3063 -0.4971
  990MOL0     H36578   8.855   1.283   3.396  1.3826 -0.5131  1.3910
  990MOL0     H36579   8.501   1.299   3.275 -0.7665 -0.3803  1.5146
  990MOL0     H36580   8.663   1.254   3.239 -0.1392  0.0983  0.8699
  990MOL0     H36581   8.619   1.428   3.255  0.9126 -0.4124 -2.6077
  990MOL0     H36582   8.148   1.382   3.818  0.3270  0.6519  0.3655
  990MOL0     H36583   7.912   1.309   3.822  0.6635 -1.9374 -0.6574
  990MOL0     H36584   7.684   1.339   3.756 -2.6256  0.9409 -0.9833
  990MOL0     H36585   7.572   1.229   3.669  0.2253 -1.0634  1.4255
  990MOL0     H36586   7.691   1.031   3.747 -0.0759  0.3875 -0.4632
  990MOL0     H36587   7.791   1.126   3.849  0.1906 -0.6116 -1.1633
  990MOL0     H36588   7.478   1.124   3.846  1.2712 -0.1331 -1.4153
  990MOL0     H36589   7.580   1.208   3.970  1.8617 -1.5464  1.2652
  990MOL0     H36590   7.640   1.026   4.071 -1.4706  1.4545  0.4549
  990MOL0     H36591   7.608   0.916   3.933 -1.1017 -0.8404  1.3053
  990MOL0     H36592   7.361   1.029   4.051 -1.3840 -1.6507 -3.8860
  990MOL0     H36593   7.389   0.877   3.988 -0.7179  0.0333 -0.5737
  990MOL0     H36594   7.513   0.945   4.255 -1.2404 -1.1237  0.9969
  990MOL0     H36595   7.492   0.794   4.173  0.5331 -0.2881  0.3519
  990MOL0     H36596   7.230   0.935   4.207 -0.4176 -1.5471  1.2423
  990MOL0     H36597   7.305   0.889   4.361  0.1183  1.9408 -0.4271
  990MOL0     H36598   7.320   0.650   4.281  0.0129  0.4772 -0.6570
  990MOL0     H36599   7.281   0.700   4.115  2.7980 -0.3859 -0.2108
  990MOL0     H36600   7.942   1.216   3.405 -0.1148  1.7220 -0.6779
  990MOL0     H36601   8.192   1.222   3.421 -1.4488  2.7550 -2.9063
  990MOL0     H36602   8.539   1.315   3.776 -0.1619  1.6770 -0.4797
  990MOL0     H36603   8.767   1.276   3.823  3.3334  2.3573 -0.2914
  990MOL0     H36604   7.701   0.154   3.216 -1.4227  1.0274 -1.3104
  990MOL0     H36605   7.583   0.139   2.993 -1.7938 -1.9370  2.6846
  990MOL0     H36606   7.537   0.004   2.630  0.1823  1.1817 -0.0352
  990MOL0     H36607   7.412  -0.062   2.436  1.5379 -0.2681 -1.1440
  990MOL0     H36608   7.140   0.195   2.266  1.7009 -0.7915  2.8092
  990MOL0     H36609   7.278   0.229   2.156 -0.9640  1.1245  0.3455
  990MOL0     H36610   7.063   0.119   2.042  0.0689  0.3587 -0.8442
  990MOL0     H36611   7.096  -0.022   2.145  1.2311 -0.8010 -1.2045
  990MOL0     H36612   7.278   0.119   1.933  0.8726 -0.7233 -0.3115
  990MOL0     H36613   7.317  -0.040   2.008  0.3982  0.9141  2.4932
  990MOL0     H36614   7.252  -0.075   1.794 -0.1801 -0.2821  0.5492
  990MOL0     H36615   7.108   0.014   1.791 -2.4725 -1.7927  0.2211
  990MOL0     H36616   7.003  -0.366   1.969  4.4637 -1.7431  0.3702
  990MOL0     H36617   7.268   0.324   2.369  0.6819  0.3458  0.3518
  990MOL0     H36618   7.434   0.506   2.612  2.2140 -1.6196  0.6451
  990MOL0     H36619   7.288   0.507   2.517  1.2366  0.1349 -2.0357
  990MOL0     H36620   7.285   0.420   2.676  0.2170 -1.0174 -1.1389
  991MOL0     O36621   0.050   5.444   0.320  0.5739  0.8046  0.2794
  991MOL0     C36622   0.036   5.503   0.221 -0.2612 -0.3405 -0.7069
  991MOL0     O36623  -0.063   5.589   0.186  0.2517 -0.1127 -0.8148
  991MOL0     C36624  -0.164   5.620   0.280 -1.1430  0.2233 -0.0647
  991MOL0     C36625  -0.277   5.544   0.285 -0.5947  0.8373 -0.2349
  991MOL0     C36626  -0.379   5.577   0.380  0.1153  0.7638 -0.5496
  991MOL0     C36627  -0.370   5.690   0.462 -0.4854  0.4552  0.3768
  991MOL0     O36628  -0.469   5.737   0.542 -0.5672  0.1332  0.5270
  991MOL0     C36629  -0.550   5.639   0.613  0.1945  0.2093  1.0649
  991MOL0     C36630  -0.516   5.651   0.761 -0.5112 -0.0410  0.3979
  991MOL0     C36631  -0.604   5.762   0.820 -0.4030 -0.3239  1.0824
  991MOL0     C36632  -0.582   5.797   0.969  0.6459  0.2214  0.4838
  991MOL0     C36633  -0.437   5.820   1.014 -0.0720 -0.0615  1.2233
  991MOL0     C36634  -0.417   5.826   1.163  0.7627 -0.7618  0.5646
  991MOL0     C36635  -0.274   5.864   1.200 -0.5348  0.8678  0.7620
  991MOL0     C36636  -0.267   5.872   1.354  0.3730  0.5795  1.2740
  991MOL0     N36637  -0.336   5.987   1.404  0.2123  0.3071 -0.9389
  991MOL0     C36638  -0.277   6.109   1.437  1.0427 -0.9424  0.0419
  991MOL0     C36639  -0.373   6.179   1.508 -0.6125 -0.9047  0.6190
  991MOL0     C36640  -0.355   6.312   1.587 -0.2400 -0.3270  1.5240
  991MOL0     C36641  -0.334   6.432   1.500  0.4396 -0.0163 -0.8147
  991MOL0     C36642  -0.417   6.443   1.376 -0.7842 -0.2286 -0.7696
  991MOL0     C36643  -0.380   6.566   1.294 -0.0051 -0.4925  0.3779
  991MOL0     O36644  -0.470   6.583   1.179 -0.2946  0.1976  0.3686
  991MOL0     C36645  -0.597   6.621   1.202  0.8915 -0.8760 -0.4412
  991MOL0     C36646  -0.680   6.642   1.086 -0.2520 -0.4523 -0.2574
  991MOL0     C36647  -0.810   6.698   1.089 -0.4113  0.2000 -0.2034
  991MOL0     C36648  -0.879   6.718   0.953  0.4106 -0.3108 -0.0088
  991MOL0     C36649  -0.871   6.730   1.220 -0.3059  0.3959  0.2273
  991MOL0     C36650  -0.995   6.809   1.242  0.1189 -0.1496  0.6641
  991MOL0     O36651  -1.066   6.787   1.354  0.9892 -0.1043 -0.0911
  991MOL0     C36652  -1.197   6.825   1.379 -0.5496 -0.8339  0.4621
  991MOL0     C36653  -1.233   6.824   1.517 -0.4059 -0.0352 -0.8130
  991MOL0     C36654  -1.358   6.861   1.555  0.1926  0.7371 -0.8897
  991MOL0     C36655  -1.454   6.876   1.462  0.7435 -0.4441  0.2452
  991MOL0     O36656  -1.582   6.907   1.488 -0.2544 -0.1429 -0.6675
  991MOL0     C36657  -1.630   6.920   1.625  0.6625 -0.5369  0.6628
  991MOL0     C36658  -1.674   6.779   1.684 -1.0721  0.2798  0.7830
  991MOL0     C36659  -1.781   6.722   1.602 -0.0046 -0.3858 -0.5936
  991MOL0     C36660  -1.852   6.604   1.681  0.2484 -0.7364  0.7355
  991MOL0     C36661  -1.966   6.541   1.612  0.5811 -0.1977  0.3162
  991MOL0     C36662  -2.043   6.445   1.700  0.2299  0.6653  0.0005
  991MOL0     C36663  -2.169   6.398   1.639  0.2894  0.2952  1.0650
  991MOL0     C36664  -2.299   6.481   1.672  0.0396  0.1308 -0.1352
  991MOL0    Cl36665  -2.420   6.455   1.537  0.2041  0.1679 -0.3089
  991MOL0     C36666  -1.422   6.868   1.332 -0.2219  0.0410  1.0428
  991MOL0     C36667  -1.290   6.843   1.287 -0.5129 -0.1364 -0.2823
  991MOL0     O36668  -1.029   6.878   1.156 -0.0939  0.4199  0.6576
  991MOL0     C36669  -0.792   6.706   1.333 -0.5967  0.0499 -0.6297
  991MOL0     C36670  -0.658   6.652   1.328 -0.0924  0.1619 -0.2179
  991MOL0     N36671  -0.489   6.109   1.505 -0.2502  0.6213  0.0588
  991MOL0     N36672  -0.467   5.992   1.453  0.5843 -0.0170 -0.0855
  991MOL0     C36673  -0.249   5.763   0.450  0.4836 -1.5928  0.3659
  991MOL0     C36674  -0.162   5.732   0.352 -0.3129  0.1100 -0.2466
  991MOL0     C36675   0.140   5.496   0.118  0.9748 -0.6990 -0.4640
  991MOL0     C36676   0.154   5.609   0.030 -0.1754  0.0460  0.2604
  991MOL0     C36677   0.261   5.610  -0.068 -0.7889  0.4281 -0.1681
  991MOL0     C36678   0.346   5.503  -0.079  0.1280 -0.0863 -0.1234
  991MOL0     O36679   0.456   5.531  -0.156 -0.0569 -0.1862 -0.0611
  991MOL0     C36680   0.562   5.438  -0.186  0.8321  0.2436  0.5465
  991MOL0     C36681   0.682   5.512  -0.255 -0.0647  0.0796 -0.6348
  991MOL0     C36682   0.639   5.581  -0.388 -0.9226 -0.6055  0.6893
  991MOL0     C36683   0.754   5.608  -0.488  0.1854  0.3610  0.9546
  991MOL0     C36684   0.794   5.478  -0.541 -0.9999 -0.4521  0.2073
  991MOL0     C36685   0.838   5.379  -0.595 -0.8011 -0.6996  0.0713
  991MOL0     C36686   0.321   5.384   0.001  0.2872 -0.0583 -0.3671
  991MOL0     C36687   0.221   5.382   0.101  0.1979  0.2074 -0.7703
  991MOL0     C36688   0.201   5.248   0.185 -0.5540 -0.4128 -0.1422
  991MOL0     H36689  -0.284   5.453   0.226  1.4811 -0.6014  1.5888
  991MOL0     H36690  -0.460   5.505   0.390  1.2384 -1.2557 -4.0732
  991MOL0     H36691  -0.533   5.535   0.583  0.3085  0.4337  0.3366
  991MOL0     H36692  -0.650   5.682   0.598  0.3581 -0.2211 -2.0075
  991MOL0     H36693  -0.537   5.560   0.819  2.6974  0.0056  1.8496
  991MOL0     H36694  -0.409   5.669   0.768  0.0257 -2.8313  0.8647
  991MOL0     H36695  -0.597   5.856   0.764 -0.2701 -0.5310  0.7496
  991MOL0     H36696  -0.706   5.727   0.803 -1.6863  3.3215  0.2456
  991MOL0     H36697  -0.654   5.876   0.993 -0.5832 -1.1692  1.5708
  991MOL0     H36698  -0.618   5.704   1.015  0.6066 -0.2498 -0.4750
  991MOL0     H36699  -0.416   5.921   0.978  0.8017 -0.6893 -0.1032
  991MOL0     H36700  -0.375   5.737   0.978 -1.5982 -0.4686 -0.6336
  991MOL0     H36701  -0.491   5.900   1.193 -0.2159 -0.1205 -3.0135
  991MOL0     H36702  -0.440   5.733   1.216  0.8577 -0.7943  0.5493
  991MOL0     H36703  -0.226   5.954   1.162  5.2005 -0.4489  3.7650
  991MOL0     H36704  -0.203   5.792   1.158 -0.0304  1.3651  0.7498
  991MOL0     H36705  -0.322   5.788   1.397  2.3786 -1.9708 -0.7432
  991MOL0     H36706  -0.165   5.869   1.393  2.1763 -0.3194 -2.9493
  991MOL0     H36707  -0.172   6.135   1.437  0.5863  1.0859  1.0884
  991MOL0     H36708  -0.274   6.302   1.660  1.8903  1.5318 -0.4309
  991MOL0     H36709  -0.456   6.322   1.628 -2.1484  1.8321 -3.0247
  991MOL0     H36710  -0.356   6.522   1.558 -2.6131  0.7209 -2.8217
  991MOL0     H36711  -0.229   6.435   1.470  1.7913  1.4150  3.4685
  991MOL0     H36712  -0.398   6.352   1.317 -0.8763 -2.0767  1.8684
  991MOL0     H36713  -0.523   6.444   1.404 -0.2234 -1.3231  1.6596
  991MOL0     H36714  -0.380   6.656   1.357  1.5482  0.1603 -0.4923
  991MOL0     H36715  -0.286   6.556   1.239 -0.6566  0.1715 -0.8867
  991MOL0     H36716  -0.633   6.627   0.989  1.0359 -0.4710  0.3450
  991MOL0     H36717  -0.864   6.824   0.933  0.5790 -0.0007  1.6499
  991MOL0     H36718  -0.988   6.708   0.954  0.2537  0.9084  2.2668
  991MOL0     H36719  -0.831   6.652   0.880  0.1513 -2.3227  1.5494
  991MOL0     H36720  -1.157   6.809   1.593  0.8272  0.7035 -1.8631
  991MOL0     H36721  -1.381   6.862   1.661  0.5707 -4.6439 -0.4602
  991MOL0     H36722  -1.549   6.970   1.678  1.2590 -1.2828  0.4767
  991MOL0     H36723  -1.725   6.972   1.637 -0.4982 -2.8438  2.3613
  991MOL0     H36724  -1.580   6.722   1.680 -0.6714  0.8314  1.8052
  991MOL0     H36725  -1.714   6.777   1.786 -5.1811 -0.4202 -0.6583
  991MOL0     H36726  -1.731   6.683   1.512  1.6516 -3.7692  1.5811
  991MOL0     H36727  -1.856   6.798   1.578  3.3523  2.3637 -3.6018
  991MOL0     H36728  -1.894   6.653   1.769 -1.1625 -0.4970 -0.0391
  991MOL0     H36729  -1.774   6.533   1.711  0.9752  0.0317  0.6943
  991MOL0     H36730  -2.039   6.610   1.568  0.3522 -0.1201  0.8136
  991MOL0     H36731  -1.923   6.479   1.532  0.6856 -0.3931  0.5224
  991MOL0     H36732  -2.064   6.486   1.800 -1.4232 -0.8911  0.3377
  991MOL0     H36733  -1.989   6.356   1.734 -1.9184 -1.4222 -1.6975
  991MOL0     H36734  -2.196   6.294   1.661 -1.0704 -0.4690 -3.3613
  991MOL0     H36735  -2.154   6.395   1.531  2.5389 -1.6549  1.3295
  991MOL0     H36736  -2.275   6.587   1.686 -2.4286  0.4504  2.6535
  991MOL0     H36737  -2.351   6.440   1.759 -2.9602 -2.8584 -3.0323
  991MOL0     H36738  -1.494   6.895   1.256  1.3673 -1.7218 -1.2315
  991MOL0     H36739  -1.275   6.849   1.180  0.4040 -1.4620 -0.2441
  991MOL0     H36740  -0.827   6.752   1.425  0.0922 -0.4720 -0.0935
  991MOL0     H36741  -0.593   6.661   1.414  2.4832  1.7777 -2.2149
  991MOL0     H36742  -0.234   5.859   0.498 -1.3755 -1.5862  1.0143
  991MOL0     H36743  -0.069   5.786   0.335  1.1063 -2.2261 -0.2562
  991MOL0     H36744   0.089   5.696   0.038  0.9459  0.9051  0.3681
  991MOL0     H36745   0.281   5.705  -0.115  0.5590  0.8308  1.1195
  991MOL0     H36746   0.593   5.381  -0.098  0.2867 -1.5377 -0.3482
  991MOL0     H36747   0.520   5.354  -0.242  0.7801 -0.7472  2.0130
  991MOL0     H36748   0.769   5.452  -0.284 -0.2397 -0.0668 -0.8599
  991MOL0     H36749   0.730   5.584  -0.188 -0.8009  0.4272 -0.4709
  991MOL0     H36750   0.565   5.519  -0.439 -0.5801  0.7592 -1.5982
  991MOL0     H36751   0.591   5.677  -0.366 -0.6417  0.1441 -1.7136
  991MOL0     H36752   0.836   5.654  -0.431  0.4806  1.0967 -0.0235
  991MOL0     H36753   0.727   5.654  -0.584 -0.7144 -1.5190  0.2706
  991MOL0     H36754   0.872   5.294  -0.650 -0.8593  0.4023 -1.7355
  991MOL0     H36755   0.372   5.293  -0.027 -2.2270 -1.4832 -0.6177
  991MOL0     H36756   0.094   5.226   0.194 -0.4727 -0.6259  0.3849
  991MOL0     H36757   0.239   5.170   0.118 -3.4184  0.1257 -2.5700
  991MOL0     H36758   0.259   5.247   0.278  3.2954  0.4277 -2.3007
  992MOL0     O36759  10.574   8.604   0.510  0.7317 -0.1785 -0.1838
  992MOL0     C36760  10.570   8.527   0.611 -0.0566 -0.7330  1.2103
  992MOL0     O36761  10.462   8.494   0.685  0.5655  0.2556 -0.0140
  992MOL0     C36762  10.351   8.567   0.641  0.6553 -0.7444 -0.2315
  992MOL0     C36763  10.270   8.630   0.740  0.8236 -0.7561 -0.5250
  992MOL0     C36764  10.161   8.702   0.707  0.6151  0.2265  0.3849
  992MOL0     C36765  10.102   8.702   0.576 -0.9414  0.4729  0.2219
  992MOL0     O36766   9.999   8.784   0.553  0.6565  0.6525  1.1968
  992MOL0     C36767   9.873   8.726   0.508 -0.2045 -0.2899  0.0441
  992MOL0     C36768   9.805   8.658   0.626  0.1107 -0.2787 -0.3985
  992MOL0     C36769   9.859   8.521   0.661  0.7410  0.6160 -0.4429
  992MOL0     C36770   9.773   8.436   0.756 -0.0614 -0.7516  0.0468
  992MOL0     C36771   9.763   8.501   0.899  0.2062  0.6031 -0.4721
  992MOL0     C36772   9.679   8.420   1.001  0.2056  0.1238  0.0877
  992MOL0     C36773   9.732   8.281   1.030  0.8374  0.5313  0.7058
  992MOL0     C36774   9.648   8.203   1.136  0.1365 -0.1063  0.0683
  992MOL0     N36775   9.519   8.147   1.086 -0.2438  0.4752  0.3638
  992MOL0     C36776   9.396   8.176   1.128  0.2201  0.7432 -0.2828
  992MOL0     C36777   9.321   8.077   1.073  0.1242  0.5467 -0.1864
  992MOL0     C36778   9.166   8.075   1.095 -0.9130 -0.7847 -0.9888
  992MOL0     C36779   9.125   8.069   1.245 -0.2754 -0.9199  0.7181
  992MOL0     C36780   9.156   7.934   1.314  0.1442 -0.8057 -0.1671
  992MOL0     C36781   9.077   7.914   1.444 -0.1740 -0.0491 -0.5927
  992MOL0     O36782   9.145   7.973   1.557  0.1604  0.1756 -0.4241
  992MOL0     C36783   9.064   7.979   1.674 -0.4162  0.6683  0.2141
  992MOL0     C36784   9.102   8.080   1.753 -0.0673 -0.7815 -0.6453
  992MOL0     C36785   9.037   8.102   1.874  0.0140  0.2204 -0.4872
  992MOL0     C36786   9.090   8.208   1.973 -0.1432 -0.9548  1.0093
  992MOL0     C36787   8.936   8.013   1.918  0.3506 -0.8089 -0.4160
  992MOL0     C36788   8.862   8.018   2.050  0.2992  0.1200 -0.2748
  992MOL0     O36789   8.750   7.940   2.052 -0.3907 -0.5642 -0.2643
  992MOL0     C36790   8.637   7.987   2.119 -0.8337 -0.9442  0.6833
  992MOL0     C36791   8.524   7.991   2.042  0.1115 -0.0843 -0.2123
  992MOL0     C36792   8.399   8.038   2.082 -0.2375 -0.6533 -0.6136
  992MOL0     C36793   8.392   8.089   2.215 -1.0934 -0.2790  0.2211
  992MOL0     O36794   8.281   8.129   2.287 -0.4055  0.1896  0.2034
  992MOL0     C36795   8.165   8.138   2.207  0.2583  0.1788 -0.1309
  992MOL0     C36796   8.037   8.150   2.290  0.1364 -0.4013 -0.2441
  992MOL0     C36797   7.922   8.231   2.230 -0.2367 -0.7648 -0.5207
  992MOL0     C36798   7.786   8.211   2.295 -0.2404 -0.6895  0.6573
  992MOL0     C36799   7.669   8.313   2.236 -0.8453  0.4634  0.4631
  992MOL0     C36800   7.650   8.298   2.085  1.3297 -0.0377 -0.9532
  992MOL0     C36801   7.529   8.373   2.036 -0.5336 -0.5002  0.6698
  992MOL0     C36802   7.396   8.306   2.069  0.6609  0.7624  0.1942
  992MOL0    Cl36803   7.362   8.150   1.989  0.6582  0.1470  0.2869
  992MOL0     C36804   8.506   8.090   2.294 -0.5380 -0.8624  0.3722
  992MOL0     C36805   8.628   8.036   2.246  0.0632 -1.0748  0.1489
  992MOL0     O36806   8.896   8.095   2.139  0.6626 -0.8234  0.1043
  992MOL0     C36807   8.896   7.914   1.831 -0.9009  0.3114  0.4751
  992MOL0     C36808   8.971   7.891   1.715 -0.0343 -0.2423  0.0404
  992MOL0     N36809   9.394   7.984   1.001  0.1159 -0.3439 -0.4656
  992MOL0     N36810   9.515   8.032   1.012  0.2841  1.0580 -0.2767
  992MOL0     C36811  10.172   8.638   0.482  0.2845  0.0679 -0.3680
  992MOL0     C36812  10.289   8.571   0.510  0.2975  0.5020  0.3142
  992MOL0     C36813  10.701   8.479   0.671  0.3608  0.3491  0.1722
  992MOL0     C36814  10.815   8.500   0.590 -0.2195  0.6212  0.4106
  992MOL0     C36815  10.938   8.451   0.628  1.0249  0.0148 -0.1818
  992MOL0     C36816  10.959   8.398   0.755 -0.1670  0.0141 -0.8357
  992MOL0     O36817  11.070   8.351   0.811 -0.4072 -0.4581  0.5140
  992MOL0     C36818  11.199   8.407   0.772 -0.7698 -0.5356  0.2155
  992MOL0     C36819  11.308   8.304   0.781 -0.0055  0.0822 -0.1872
  992MOL0     C36820  11.346   8.233   0.916 -0.5857 -0.3889  0.2222
  992MOL0     C36821  11.508   8.226   0.926  0.4130 -0.7454 -0.3835
  992MOL0     C36822  11.574   8.170   1.049 -0.7319 -0.0792  0.4853
  992MOL0     C36823  11.602   8.103   1.147 -0.0312  0.2205  0.0256
  992MOL0     C36824  10.841   8.372   0.835 -0.2328 -0.9480  0.1943
  992MOL0     C36825  10.715   8.410   0.801 -0.1472 -0.7303 -0.0857
  992MOL0     C36826  10.611   8.393   0.913 -0.3753 -0.7134  0.1883
  992MOL0     H36827  10.312   8.623   0.840 -1.1993 -0.5266  0.3842
  992MOL0     H36828  10.112   8.752   0.790 -0.4597  0.0603 -0.1397
  992MOL0     H36829   9.882   8.665   0.417 -6.2280 -0.1941 -1.0477
  992MOL0     H36830   9.806   8.805   0.472 -0.8223 -2.0595 -3.1574
  992MOL0     H36831   9.805   8.727   0.711  1.3473  1.3259 -1.6407
  992MOL0     H36832   9.702   8.634   0.599 -0.1115 -0.3489  0.4620
  992MOL0     H36833   9.872   8.459   0.571 -2.2855 -1.6304  0.4900
  992MOL0     H36834   9.950   8.541   0.718  1.1943 -0.2763 -0.8267
  992MOL0     H36835   9.675   8.433   0.707  1.0666 -0.8389 -2.3506
  992MOL0     H36836   9.812   8.334   0.765  0.6264 -0.5479 -0.5128
  992MOL0     H36837   9.712   8.598   0.888 -0.2340  0.4186 -0.0936
  992MOL0     H36838   9.863   8.514   0.940 -0.2316  2.5703  0.0919
  992MOL0     H36839   9.673   8.485   1.088 -0.5216  1.9767 -1.2966
  992MOL0     H36840   9.579   8.410   0.959 -0.2299  0.7233  0.9566
  992MOL0     H36841   9.836   8.285   1.064  1.4409  0.2785 -1.0451
  992MOL0     H36842   9.724   8.205   0.952  3.0137 -3.3854  3.9382
  992MOL0     H36843   9.700   8.117   1.179 -0.2628 -0.4701 -0.1616
  992MOL0     H36844   9.620   8.277   1.212 -2.2341  0.7153 -1.4746
  992MOL0     H36845   9.370   8.265   1.185  2.3322 -0.7105  3.2417
  992MOL0     H36846   9.124   7.985   1.048 -1.9671 -0.2628 -1.0844
  992MOL0     H36847   9.129   8.162   1.039 -0.5183 -0.7014 -1.1236
  992MOL0     H36848   9.178   8.152   1.294 -0.7618 -0.3278  0.2619
  992MOL0     H36849   9.017   8.081   1.236 -0.0435  0.2322 -1.3936
  992MOL0     H36850   9.134   7.851   1.246 -2.6607  0.0598 -0.4538
  992MOL0     H36851   9.261   7.921   1.342 -0.1728 -0.8811  1.0722
  992MOL0     H36852   8.972   7.945   1.436 -0.6807 -1.5117  0.0064
  992MOL0     H36853   9.073   7.806   1.463  1.8991 -0.1901 -0.7211
  992MOL0     H36854   9.184   8.148   1.732 -2.5969  2.3207 -1.2704
  992MOL0     H36855   9.164   8.261   1.913 -2.0411  0.1887 -0.4599
  992MOL0     H36856   9.144   8.161   2.056  1.2700 -1.9837 -0.4363
  992MOL0     H36857   9.009   8.276   2.002 -0.9269  0.0890 -3.0428
  992MOL0     H36858   8.530   7.939   1.948  0.6748  0.5789 -0.5503
  992MOL0     H36859   8.318   8.011   2.015 -0.9408 -1.6208  0.5961
  992MOL0     H36860   8.171   8.227   2.144  1.5210 -1.6476 -2.7777
  992MOL0     H36861   8.145   8.051   2.143  1.2948 -0.9611  1.0252
  992MOL0     H36862   8.006   8.046   2.299 -0.6087 -0.2005 -0.4448
  992MOL0     H36863   8.061   8.192   2.389  0.8550 -0.7543 -0.2555
  992MOL0     H36864   7.928   8.203   2.124 -0.9698  1.0222 -1.0657
  992MOL0     H36865   7.938   8.339   2.224  0.6170 -0.8631 -0.1886
  992MOL0     H36866   7.805   8.224   2.402  0.0362  0.3155  0.4931
  992MOL0     H36867   7.759   8.105   2.291 -0.8460 -0.5092 -1.6175
  992MOL0     H36868   7.584   8.296   2.303 -0.8737  0.5203  0.4408
  992MOL0     H36869   7.720   8.409   2.244  0.0560 -0.1405  3.1692
  992MOL0     H36870   7.646   8.192   2.058 -1.0364 -0.8905  2.2161
  992MOL0     H36871   7.738   8.351   2.047  0.5552  1.9605 -0.0476
  992MOL0     H36872   7.548   8.397   1.931  1.0566  0.7190  1.1886
  992MOL0     H36873   7.531   8.475   2.076 -0.9503  0.4486 -1.5622
  992MOL0     H36874   7.322   8.371   2.022 -2.7218 -0.9384  2.7211
  992MOL0     H36875   7.381   8.295   2.177  0.4329 -2.5398 -0.0513
  992MOL0     H36876   8.502   8.119   2.398 -0.6616 -1.3567  0.5115
  992MOL0     H36877   8.715   8.028   2.311  0.4634 -2.4182 -0.5069
  992MOL0     H36878   8.811   7.852   1.856  0.1386 -1.8220 -0.9958
  992MOL0     H36879   8.934   7.809   1.655  1.3025 -0.8962  0.0571
  992MOL0     H36880  10.136   8.638   0.380  3.5486 -0.3822 -1.6602
  992MOL0     H36881  10.335   8.530   0.421  0.1802  1.6512 -0.2888
  992MOL0     H36882  10.833   8.559   0.501  1.7994  1.5228  1.3475
  992MOL0     H36883  11.018   8.459   0.556  0.2238  0.3239 -1.0565
  992MOL0     H36884  11.204   8.446   0.670  0.9927 -2.1906 -0.3800
  992MOL0     H36885  11.228   8.486   0.842 -1.2506 -1.7297  1.8238
  992MOL0     H36886  11.396   8.345   0.731  0.4310 -0.4153  0.1568
  992MOL0     H36887  11.276   8.223   0.716 -1.7107  0.3125  0.3183
  992MOL0     H36888  11.319   8.281   1.010 -0.7093 -0.8064  0.4022
  992MOL0     H36889  11.311   8.130   0.931  0.4031 -0.5326  1.7882
  992MOL0     H36890  11.548   8.327   0.915 -3.3557  1.0052  0.5126
  992MOL0     H36891  11.544   8.171   0.838 -0.4801  1.9879 -2.6102
  992MOL0     H36892  11.650   8.044   1.222 -0.5433 -0.6356 -0.3120
  992MOL0     H36893  10.870   8.316   0.923  1.2043  0.2614  0.5527
  992MOL0     H36894  10.561   8.490   0.919  1.0231  0.3593 -3.2152
  992MOL0     H36895  10.536   8.315   0.895 -1.3194 -0.1197  1.4299
  992MOL0     H36896  10.657   8.367   1.009 -1.3623 -2.6184  0.2064
  993MOL0     O36897   3.837  11.041   4.925 -0.4708  0.2872 -0.2946
  993MOL0     C36898   3.958  11.007   4.949  0.2127  0.1465  0.1401
  993MOL0     O36899   4.059  11.018   4.861  0.2574  0.0746 -0.3780
  993MOL0     C36900   4.024  11.076   4.742  0.2680 -0.7998  0.0409
  993MOL0     C36901   4.055  11.211   4.719  0.5004 -0.7071  0.0633
  993MOL0     C36902   4.052  11.264   4.590  0.4215 -0.6246  0.0401
  993MOL0     C36903   3.982  11.195   4.489  0.6355 -0.5607 -0.5091
  993MOL0     O36904   3.969  11.240   4.364 -0.7024 -0.8443 -0.6530
  993MOL0     C36905   3.963  11.384   4.341 -0.0128 -0.4024  0.0302
  993MOL0     C36906   3.899  11.413   4.204  0.2460  0.1142  0.5714
  993MOL0     C36907   3.891  11.568   4.173 -0.1544 -0.3350 -0.1901
  993MOL0     C36908   4.030  11.616   4.127  0.7558 -0.5755  1.1543
  993MOL0     C36909   4.020  11.747   4.050  0.2021 -0.1072 -0.3969
  993MOL0     C36910   3.959  11.854   4.142 -1.0720  0.0724 -0.0923
  993MOL0     C36911   3.995  12.005   4.113  0.4826 -0.0829 -1.1246
  993MOL0     C36912   3.876  12.099   4.099 -0.2147  0.2058 -0.4583
  993MOL0     N36913   3.884  12.192   3.988  0.7603 -0.2805  0.4363
  993MOL0     C36914   4.001  12.254   3.953 -0.2275 -0.0797  0.8875
  993MOL0     C36915   3.976  12.307   3.834 -0.6461 -0.3090  0.0652
  993MOL0     C36916   4.071  12.398   3.764 -0.0400 -0.0070  0.0653
  993MOL0     C36917   4.044  12.540   3.778 -0.0070  0.5572 -0.1155
  993MOL0     C36918   4.078  12.598   3.913  0.5955  0.5210 -0.4166
  993MOL0     C36919   4.220  12.651   3.937 -0.2774  0.3607 -0.5656
  993MOL0     O36920   4.322  12.554   3.928 -0.1622 -0.0646  0.2372
  993MOL0     C36921   4.340  12.471   4.043 -0.4758 -0.0375  0.4168
  993MOL0     C36922   4.353  12.526   4.165 -0.3842 -0.3945  0.5805
  993MOL0     C36923   4.392  12.443   4.271 -0.9599 -0.5661 -0.5627
  993MOL0     C36924   4.408  12.519   4.399 -0.4414 -1.1424  0.8240
  993MOL0     C36925   4.408  12.300   4.257 -0.1786 -0.3037  1.2120
  993MOL0     C36926   4.425  12.212   4.370 -0.7325  0.5509  0.2538
  993MOL0     O36927   4.475  12.264   4.478 -0.3218  0.5728 -0.5205
  993MOL0     C36928   4.510  12.172   4.578  0.0147 -0.5500 -0.3082
  993MOL0     C36929   4.447  12.188   4.708  1.1438 -0.4919 -0.5801
  993MOL0     C36930   4.459  12.091   4.800  0.0667 -0.1077  0.2332
  993MOL0     C36931   4.556  11.989   4.775 -0.3819 -0.0463 -0.3209
  993MOL0     O36932   4.578  11.908   4.876 -0.1835 -0.0978 -0.1248
  993MOL0     C36933   4.504  11.786   4.867  0.1001 -0.0810 -0.2410
  993MOL0     C36934   4.371  11.784   4.945 -0.9212  0.6163 -0.3325
  993MOL0     C36935   4.385  11.785   5.095 -0.0679 -0.6489  0.0138
  993MOL0     C36936   4.480  11.675   5.159  0.8570 -0.6346 -0.3644
  993MOL0     C36937   4.628  11.719   5.186 -0.6227 -0.0637 -0.1898
  993MOL0     C36938   4.636  11.829   5.289  0.0405  0.4373 -0.7375
  993MOL0     C36939   4.777  11.896   5.299  0.3561 -1.2758 -0.0727
  993MOL0     C36940   4.765  12.003   5.409  0.5110  0.0181  0.1820
  993MOL0    Cl36941   4.769  11.926   5.564 -0.3601 -0.2360  0.0582
  993MOL0     C36942   4.628  11.980   4.664  0.0626  0.6741  0.0752
  993MOL0     C36943   4.608  12.070   4.564 -0.6399 -0.2067  0.2365
  993MOL0     O36944   4.383  12.098   4.352 -0.4726  0.0096 -0.4259
  993MOL0     C36945   4.386  12.248   4.122 -0.3637  0.3808  1.2922
  993MOL0     C36946   4.348  12.336   4.016 -0.2490 -0.0629  0.1769
  993MOL0     N36947   3.843  12.282   3.804 -0.1686  0.3663 -0.4448
  993MOL0     N36948   3.784  12.207   3.897 -1.0422 -0.5593 -1.0847
  993MOL0     C36949   3.940  11.059   4.508 -0.3098  0.9389  0.0808
  993MOL0     C36950   3.973  10.997   4.632  0.8158 -0.3891  0.0977
  993MOL0     C36951   3.991  10.955   5.085 -0.5695  0.3827  0.1323
  993MOL0     C36952   4.121  10.915   5.098  0.5671 -0.0727 -0.0314
  993MOL0     C36953   4.175  10.865   5.226  0.3200 -0.2527  0.7329
  993MOL0     C36954   4.096  10.855   5.333 -0.2776 -0.1015  0.3920
  993MOL0     O36955   4.124  10.831   5.463  0.1330  0.2571 -0.2863
  993MOL0     C36956   4.256  10.820   5.502 -0.4142  0.9222 -0.8553
  993MOL0     C36957   4.256  10.810   5.650  0.1776  0.5523  0.6286
  993MOL0     C36958   4.206  10.946   5.707 -0.2258 -0.2057  0.7543
  993MOL0     C36959   4.219  10.947   5.860 -0.2460  0.3392 -0.5377
  993MOL0     C36960   4.357  10.932   5.910 -0.0297  0.1775 -0.9672
  993MOL0     C36961   4.468  10.907   5.956  0.5823  0.1522  0.1100
  993MOL0     C36962   3.963  10.893   5.322  0.8464 -0.3942  0.2264
  993MOL0     C36963   3.909  10.936   5.204 -0.9616  0.0082 -0.2565
  993MOL0     C36964   3.769  10.955   5.211  0.8535 -0.1330 -0.3969
  993MOL0     H36965   4.099  11.278   4.792  0.9213  0.7791 -1.4947
  993MOL0     H36966   4.078  11.364   4.558 -0.0748 -1.1180 -2.0377
  993MOL0     H36967   4.053  11.445   4.332 -2.4198  3.1866 -2.7671
  993MOL0     H36968   3.898  11.434   4.413  0.6530  1.2085 -0.4304
  993MOL0     H36969   3.967  11.367   4.132  0.5396 -1.1827  1.6439
  993MOL0     H36970   3.799  11.370   4.205  0.3586 -0.1747 -0.0262
  993MOL0     H36971   3.812  11.600   4.105 -3.0532 -0.7254  2.7551
  993MOL0     H36972   3.864  11.612   4.269 -0.9758  1.0561 -1.0284
  993MOL0     H36973   4.096  11.624   4.214  2.5695 -0.7187 -0.1653
  993MOL0     H36974   4.068  11.536   4.063 -0.4133 -0.0705 -0.2113
  993MOL0     H36975   3.949  11.732   3.969 -1.6561 -0.5401  1.2405
  993MOL0     H36976   4.115  11.783   4.009  0.2257  0.8323  0.4277
  993MOL0     H36977   3.850  11.841   4.143 -1.7605  4.0651  2.5099
  993MOL0     H36978   4.000  11.839   4.242  1.0023  2.5195 -0.4549
  993MOL0     H36979   4.046  12.009   4.016  0.4673  5.2153 -1.1877
  993MOL0     H36980   4.065  12.038   4.191 -0.9155 -1.2254  0.6866
  993MOL0     H36981   3.778  12.050   4.097 -0.8372  1.4230 -0.9989
  993MOL0     H36982   3.866  12.169   4.183 -3.1723  0.2932 -0.7836
  993MOL0     H36983   4.093  12.264   4.011 -0.1566  2.6815  0.4377
  993MOL0     H36984   4.067  12.371   3.658  2.5475 -1.8963  0.3415
  993MOL0     H36985   4.174  12.378   3.796  0.0823  0.5121  0.0108
  993MOL0     H36986   4.089  12.593   3.694  0.5214  0.2322 -0.0451
  993MOL0     H36987   3.937  12.554   3.766 -0.6696 -3.0284  0.4500
  993MOL0     H36988   4.016  12.685   3.936  2.7953  1.7732  1.3217
  993MOL0     H36989   4.056  12.524   3.991 -0.2519 -0.2387 -1.3539
  993MOL0     H36990   4.240  12.730   3.864  2.4959 -0.5634 -0.9042
  993MOL0     H36991   4.221  12.695   4.038  3.5358  0.7471 -0.6248
  993MOL0     H36992   4.349  12.634   4.174 -0.3948 -0.4211  0.8951
  993MOL0     H36993   4.381  12.624   4.387  0.0900 -0.8700  1.8965
  993MOL0     H36994   4.512  12.525   4.434  0.1639  2.6753 -1.0567
  993MOL0     H36995   4.351  12.465   4.475 -1.3653 -3.0777 -1.1451
  993MOL0     H36996   4.382  12.274   4.721  0.3843 -1.2385  0.8176
  993MOL0     H36997   4.400  12.101   4.890 -1.5462  1.7724 -0.9224
  993MOL0     H36998   4.491  11.764   4.760 -1.2375  3.2472 -0.8864
  993MOL0     H36999   4.563  11.704   4.909 -2.5870 -2.0314  0.0003
  993MOL0     H37000   4.307  11.865   4.907  0.0857  0.3430 -2.7886
  993MOL0     H37001   4.327  11.687   4.922  1.1821 -0.2709 -0.8286
  993MOL0     H37002   4.288  11.754   5.135  1.1394 -4.3428  0.4842
  993MOL0     H37003   4.407  11.888   5.126  1.0861 -0.0292 -2.6395
  993MOL0     H37004   4.468  11.592   5.089 -2.8004  2.5827 -4.0695
  993MOL0     H37005   4.428  11.647   5.252 -1.6641  0.9256 -1.1993
  993MOL0     H37006   4.684  11.631   5.222 -1.3140 -1.1815 -1.7243
  993MOL0     H37007   4.683  11.747   5.096  2.3032 -2.3085  0.7420
  993MOL0     H37008   4.603  11.779   5.380 -1.4420  0.8181 -1.0492
  993MOL0     H37009   4.553  11.890   5.253  0.9224 -0.3725 -4.7008
  993MOL0     H37010   4.809  11.938   5.204 -2.3530 -1.5748 -1.2060
  993MOL0     H37011   4.859  11.829   5.325  3.1127  1.4848 -0.9540
  993MOL0     H37012   4.661  12.038   5.409 -0.4291 -2.4395 -1.5946
  993MOL0     H37013   4.842  12.078   5.392  1.0304 -0.4733  0.3508
  993MOL0     H37014   4.686  11.889   4.655 -2.5185 -0.8836 -2.8767
  993MOL0     H37015   4.657  12.050   4.470 -2.2203  0.0243 -0.6786
  993MOL0     H37016   4.408  12.143   4.111  1.9570  0.9869 -0.6609
  993MOL0     H37017   4.321  12.291   3.921 -2.1416 -0.5370  0.9018
  993MOL0     H37018   3.901  11.006   4.422 -1.3956  1.2051  0.3960
  993MOL0     H37019   3.959  10.891   4.647  2.0969 -0.8299 -1.5084
  993MOL0     H37020   4.197  10.918   5.021  1.6417 -3.2100  0.7544
  993MOL0     H37021   4.278  10.830   5.232 -0.0748 -1.4058  1.1050
  993MOL0     H37022   4.303  10.731   5.459  2.8388  2.1606 -0.1064
  993MOL0     H37023   4.318  10.907   5.479 -1.4044  1.5967 -1.0624
  993MOL0     H37024   4.363  10.792   5.665  1.0260  1.2331 -3.4989
  993MOL0     H37025   4.192  10.734   5.697  1.1070  0.4400  1.7741
  993MOL0     H37026   4.246  11.039   5.666 -2.3630  1.0439  1.3576
  993MOL0     H37027   4.099  10.946   5.682 -0.7736  0.4374  2.8948
  993MOL0     H37028   4.172  10.854   5.894  2.4987 -0.9443 -0.0166
  993MOL0     H37029   4.170  11.033   5.906  0.8297  0.2248  0.8773
  993MOL0     H37030   4.558  10.873   6.003 -0.0791 -0.3243  1.0577
  993MOL0     H37031   3.895  10.879   5.406  1.4842  0.2287  0.8562
  993MOL0     H37032   3.731  11.021   5.132  0.1419  0.7527  0.6559
  993MOL0     H37033   3.713  10.862   5.206  1.9259 -0.7789 -0.8388
  993MOL0     H37034   3.745  11.002   5.307  3.4411 -0.6276  0.5624
  994MOL0     O37035   2.903   9.984  10.983 -0.2545 -0.3352  0.7096
  994MOL0     C37036   2.933  10.030  11.092  0.4141  0.3124  0.8429
  994MOL0     O37037   3.045   9.987  11.157 -0.6706  1.0612 -0.4105
  994MOL0     C37038   3.125   9.890  11.098 -0.4263  0.0347 -0.5783
  994MOL0     C37039   3.164   9.894  10.966  0.8459  0.3324  0.8445
  994MOL0     C37040   3.245   9.796  10.915 -0.7103 -0.4937 -1.1008
  994MOL0     C37041   3.310   9.695  10.998  0.7753 -0.2927 -0.1660
  994MOL0     O37042   3.391   9.610  10.929 -0.2254  0.2082  0.9968
  994MOL0     C37043   3.431   9.478  10.985 -1.3646  0.6174  0.1146
  994MOL0     C37044   3.586   9.465  10.976 -0.8107  0.2849  0.5558
  994MOL0     C37045   3.650   9.552  11.079  0.3270 -1.1130 -0.2852
  994MOL0     C37046   3.799   9.522  11.078  0.1634 -0.0695  0.7742
  994MOL0     C37047   3.876   9.565  11.202  0.1214  0.5968  0.4100
  994MOL0     C37048   4.016   9.504  11.212  0.2460  0.6554  0.3435
  994MOL0     C37049   4.073   9.525  11.360 -0.4892 -0.0104  0.2848
  994MOL0     C37050   4.204   9.445  11.392 -0.6867  0.4200 -0.9148
  994MOL0     N37051   4.306   9.472  11.295  0.2051  0.4067 -0.2213
  994MOL0     C37052   4.312   9.429  11.164  0.2634 -0.6817  0.5276
  994MOL0     C37053   4.415   9.498  11.115 -1.2564  0.2014  0.5077
  994MOL0     C37054   4.476   9.487  10.980 -0.2481  0.0555 -0.8453
  994MOL0     C37055   4.575   9.360  10.954  0.0837 -0.8160 -0.7526
  994MOL0     C37056   4.703   9.364  11.032 -0.7046  0.4021  0.3650
  994MOL0     C37057   4.766   9.224  11.036 -0.0630 -1.1921  0.1583
  994MOL0     O37058   4.795   9.180  10.901  0.3572  0.0205 -0.2285
  994MOL0     C37059   4.790   9.048  10.879  0.3844 -0.7608  0.3634
  994MOL0     C37060   4.876   9.001  10.780 -0.9753 -0.0789 -0.5669
  994MOL0     C37061   4.872   8.870  10.736 -0.1970 -1.4112  0.7332
  994MOL0     C37062   4.928   8.841  10.603 -0.2212 -0.3466  0.4540
  994MOL0     C37063   4.779   8.782  10.796 -0.5956 -0.4531  0.2223
  994MOL0     C37064   4.756   8.631  10.768 -0.4433 -0.6653  0.4302
  994MOL0     O37065   4.826   8.574  10.662 -0.8352 -0.6868  0.2396
  994MOL0     C37066   4.807   8.447  10.609 -0.1276 -0.8007 -0.1722
  994MOL0     C37067   4.711   8.345  10.648  1.3162  0.2228  0.4496
  994MOL0     C37068   4.726   8.213  10.595  0.6173 -0.1808 -0.3727
  994MOL0     C37069   4.838   8.181  10.517 -0.7652 -1.8693 -0.7619
  994MOL0     O37070   4.881   8.055  10.481  0.0992  0.8032 -0.4048
  994MOL0     C37071   4.831   7.948  10.564 -0.2991 -0.1495 -0.0643
  994MOL0     C37072   4.902   7.944  10.702 -0.6156  0.4441 -0.7288
  994MOL0     C37073   5.045   7.907  10.690  0.0148 -0.8104  0.7363
  994MOL0     C37074   5.067   7.780  10.600  0.4810 -0.2273 -0.5840
  994MOL0     C37075   5.211   7.720  10.638 -0.7725 -0.2095 -0.9589
  994MOL0     C37076   5.248   7.602  10.550 -0.5211 -0.9169  0.0067
  994MOL0     C37077   5.151   7.486  10.561  0.0031 -0.1498 -0.6985
  994MOL0     C37078   5.172   7.362  10.477 -0.0771 -0.0500 -1.0601
  994MOL0    Cl37079   5.170   7.410  10.310 -0.2468  0.1392 -0.1476
  994MOL0     C37080   4.925   8.278  10.480 -0.5353  0.4104 -0.4263
  994MOL0     C37081   4.915   8.407  10.527  0.1802 -0.1527 -0.2662
  994MOL0     O37082   4.675   8.583  10.838  0.1487 -0.2911  0.4803
  994MOL0     C37083   4.687   8.838  10.890  0.0505  0.3218  0.1840
  994MOL0     C37084   4.686   8.965  10.929  0.0985 -1.3945  0.1782
  994MOL0     N37085   4.472   9.575  11.210  0.3160  0.3049  0.1392
  994MOL0     N37086   4.406   9.563  11.315 -0.7376  0.6501 -0.6735
  994MOL0     C37087   3.278   9.702  11.129  0.2377 -0.5950 -0.1862
  994MOL0     C37088   3.184   9.802  11.183 -0.2297  0.3090 -0.0819
  994MOL0     C37089   2.844  10.121  11.155 -1.0219  0.8987 -0.2616
  994MOL0     C37090   2.883  10.162  11.284  0.0435  0.7562 -0.0624
  994MOL0     C37091   2.815  10.262  11.343 -0.3962  0.6692  0.2403
  994MOL0     C37092   2.708  10.326  11.284 -0.6185  0.5920 -0.9984
  994MOL0     O37093   2.662  10.436  11.349  0.1512  0.1986  0.5320
  994MOL0     C37094   2.567  10.522  11.284 -0.2296  0.3233  0.2688
  994MOL0     C37095   2.621  10.594  11.159 -0.8823  0.5867  0.3301
  994MOL0     C37096   2.732  10.688  11.193 -0.2362 -0.3571 -1.0361
  994MOL0     C37097   2.812  10.726  11.070  0.5510  0.9626  0.4709
  994MOL0     C37098   2.925  10.809  11.098  0.0664 -1.0896 -0.6611
  994MOL0     C37099   3.022  10.873  11.118 -0.6694  0.3657  1.0466
  994MOL0     C37100   2.662  10.268  11.172  0.3117 -0.4141 -0.2732
  994MOL0     C37101   2.724  10.168  11.099 -0.1635 -0.4154 -0.5204
  994MOL0     C37102   2.660  10.137  10.968 -0.3505  0.0627  0.6006
  994MOL0     H37103   3.128   9.967  10.894 -0.4814 -1.9232 -0.9088
  994MOL0     H37104   3.266   9.778  10.810 -0.9351 -2.4833 -0.8459
  994MOL0     H37105   3.394   9.390  10.932  0.7241  0.1100 -0.5897
  994MOL0     H37106   3.409   9.464  11.091  0.3881  0.5701  0.5108
  994MOL0     H37107   3.614   9.359  10.970 -3.6852 -0.6714  2.1685
  994MOL0     H37108   3.627   9.518  10.889 -1.7043 -0.7571 -0.5350
  994MOL0     H37109   3.628   9.659  11.071 -1.9212 -1.4640  0.5448
  994MOL0     H37110   3.611   9.529  11.178  3.3304  0.4931  1.3992
  994MOL0     H37111   3.808   9.415  11.057 -2.5369 -0.8068  2.8647
  994MOL0     H37112   3.843   9.571  10.991 -1.1445 -2.9680 -1.6611
  994MOL0     H37113   3.815   9.541  11.290  0.8992 -0.1840  0.7493
  994MOL0     H37114   3.880   9.674  11.212 -0.1410  0.7210 -0.7048
  994MOL0     H37115   4.015   9.396  11.193 -2.4421  0.7508 -0.3956
  994MOL0     H37116   4.084   9.559  11.147 -0.5500 -0.3504 -1.3979
  994MOL0     H37117   4.003   9.507  11.442  1.4233  0.2202  2.0631
  994MOL0     H37118   4.109   9.629  11.360  1.4381 -0.6424  0.0840
  994MOL0     H37119   4.244   9.472  11.490 -0.4783  0.5639 -1.0408
  994MOL0     H37120   4.170   9.342  11.407 -0.5064  0.7982  3.8534
  994MOL0     H37121   4.263   9.345  11.117  2.7885 -1.7675 -0.3133
  994MOL0     H37122   4.541   9.573  10.962 -1.4510  0.6315 -2.6451
  994MOL0     H37123   4.399   9.477  10.904  0.5637 -2.6426 -1.4430
  994MOL0     H37124   4.507   9.279  10.980 -1.4784 -0.0444 -2.1593
  994MOL0     H37125   4.591   9.352  10.846  0.2448  0.9315 -0.8853
  994MOL0     H37126   4.761   9.437  10.975 -3.5813  2.6232  0.0330
  994MOL0     H37127   4.705   9.419  11.126  0.2752  1.0032  0.0062
  994MOL0     H37128   4.861   9.241  11.087  1.0628  0.4898 -2.2729
  994MOL0     H37129   4.706   9.154  11.095 -2.3716  2.2971  2.3049
  994MOL0     H37130   4.955   9.057  10.731 -0.5358 -0.4338 -0.2741
  994MOL0     H37131   5.014   8.776  10.622 -1.4251 -2.3427 -0.5591
  994MOL0     H37132   4.953   8.929  10.543 -0.3387 -1.5879 -1.5200
  994MOL0     H37133   4.862   8.782  10.539  1.7544 -1.7984 -0.3346
  994MOL0     H37134   4.632   8.356  10.722  0.3071 -4.9800  0.5329
  994MOL0     H37135   4.648   8.143  10.621 -1.2816  1.2861 -1.8290
  994MOL0     H37136   4.722   7.945  10.576 -0.1846 -2.2924  0.9085
  994MOL0     H37137   4.850   7.855  10.510  0.0201 -1.3285  1.9829
  994MOL0     H37138   4.892   8.042  10.750 -2.0844 -0.3313  0.6421
  994MOL0     H37139   4.844   7.875  10.764  1.3199  0.5090  1.2622
  994MOL0     H37140   5.097   7.904  10.786 -1.0116  2.2396  1.4999
  994MOL0     H37141   5.104   7.980  10.635  0.6480 -1.8721 -0.0338
  994MOL0     H37142   5.064   7.813  10.496  4.3640  0.4658 -0.5962
  994MOL0     H37143   4.996   7.699  10.621 -0.4119 -0.0204 -2.5150
  994MOL0     H37144   5.282   7.803  10.631  2.0324 -2.2104  1.4055
  994MOL0     H37145   5.220   7.682  10.740 -0.4960 -1.1362 -1.3150
  994MOL0     H37146   5.351   7.567  10.565  0.2740  1.3278  0.1030
  994MOL0     H37147   5.240   7.637  10.447  1.0681 -3.7094 -1.1724
  994MOL0     H37148   5.049   7.520  10.540  0.3142  1.8990  0.7781
  994MOL0     H37149   5.156   7.452  10.665  1.4160 -2.5674 -1.4765
  994MOL0     H37150   5.092   7.290  10.494  0.1995 -0.1758 -0.2735
  994MOL0     H37151   5.266   7.317  10.510 -0.0842  2.0870  2.3902
  994MOL0     H37152   5.022   8.258  10.436 -0.7448 -0.3724 -0.5528
  994MOL0     H37153   4.997   8.475  10.505  0.3860  0.3472  1.8394
  994MOL0     H37154   4.593   8.791  10.915  1.3020 -1.0930  2.6899
  994MOL0     H37155   4.607   9.012  10.986  3.2456  1.5835  2.4803
  994MOL0     H37156   3.334   9.637  11.196  1.7878  1.5299  0.6702
  994MOL0     H37157   3.157   9.801  11.289 -0.9194 -0.8307 -0.2447
  994MOL0     H37158   2.963  10.118  11.342 -1.3115 -3.3394 -0.9713
  994MOL0     H37159   2.855  10.296  11.438 -4.5536 -0.2230  2.5820
  994MOL0     H37160   2.470  10.474  11.268 -1.1099  0.9957  3.0275
  994MOL0     H37161   2.540  10.608  11.345 -0.4343  1.6950 -1.6921
  994MOL0     H37162   2.535  10.648  11.120 -1.1616 -1.5279 -2.2024
  994MOL0     H37163   2.654  10.521  11.085  0.7961 -0.9529  2.4438
  994MOL0     H37164   2.692  10.779  11.240  1.5264 -0.5698  1.0689
  994MOL0     H37165   2.797  10.646  11.270  0.8628 -1.9555 -2.7509
  994MOL0     H37166   2.749  10.763  10.989  1.3397  0.7780 -0.2466
  994MOL0     H37167   2.848  10.631  11.029  3.4357  1.1852  2.1674
  994MOL0     H37168   3.103  10.942  11.130 -0.0500 -0.3928  1.2301
  994MOL0     H37169   2.578  10.321  11.127  1.9462  1.5314 -1.2069
  994MOL0     H37170   2.664  10.221  10.899 -1.3807 -0.2039  0.2086
  994MOL0     H37171   2.695  10.042  10.925 -0.6376  0.6101 -0.8637
  994MOL0     H37172   2.555  10.114  10.990 -0.0340  0.5319  2.8998
  995MOL0     O37173   3.099   6.088   9.300 -0.2095 -0.2725  0.0570
  995MOL0     C37174   3.138   5.984   9.356 -1.1908 -0.1482  0.3267
  995MOL0     O37175   3.097   5.859   9.319  0.1748  0.3432  0.9598
  995MOL0     C37176   2.993   5.843   9.230 -0.3709 -0.8769  0.4640
  995MOL0     C37177   2.983   5.728   9.158  0.2637  0.0975  0.8342
  995MOL0     C37178   2.879   5.709   9.065 -0.1777  0.6792 -0.0555
  995MOL0     C37179   2.776   5.798   9.052  1.0697  0.4123  0.0863
  995MOL0     O37180   2.666   5.774   8.970 -0.5203 -0.0786  0.2787
  995MOL0     C37181   2.583   5.881   8.924 -0.3816 -0.2700 -0.6721
  995MOL0     C37182   2.474   5.824   8.840 -0.3973 -0.2608  0.7156
  995MOL0     C37183   2.529   5.794   8.692 -0.3134  0.1688 -0.2131
  995MOL0     C37184   2.585   5.913   8.612 -0.8048  0.0907 -0.4122
  995MOL0     C37185   2.601   5.870   8.463 -0.0854 -0.1498  0.3487
  995MOL0     C37186   2.692   5.967   8.387 -0.2200 -1.2130 -0.8974
  995MOL0     C37187   2.721   5.925   8.245 -1.1953  0.1978  0.2119
  995MOL0     C37188   2.609   5.959   8.150  0.2399  0.4838  0.9307
  995MOL0     N37189   2.583   6.094   8.108  0.2443  0.4471  1.0642
  995MOL0     C37190   2.675   6.180   8.055 -0.3214  0.4517 -0.2763
  995MOL0     C37191   2.603   6.292   8.025  0.6082  0.7075 -0.5973
  995MOL0     C37192   2.652   6.413   7.952  0.1499 -0.4622  0.2958
  995MOL0     C37193   2.786   6.478   7.988 -0.1067  0.0541  0.3604
  995MOL0     C37194   2.790   6.499   8.136 -0.3245  0.2559  0.3190
  995MOL0     C37195   2.923   6.570   8.171  0.2985  0.4931 -0.3321
  995MOL0     O37196   3.033   6.484   8.134 -0.3661 -0.9622  0.0634
  995MOL0     C37197   3.131   6.449   8.219 -0.1192 -0.2633  0.0697
  995MOL0     C37198   3.144   6.482   8.354  0.1133 -0.8887  0.8188
  995MOL0     C37199   3.253   6.446   8.429  0.1278  0.6123  0.7907
  995MOL0     C37200   3.263   6.494   8.567  0.1787  0.5182 -0.6101
  995MOL0     C37201   3.357   6.371   8.378  0.5674 -0.4749  0.1733
  995MOL0     C37202   3.469   6.337   8.462 -0.4135  0.5671  1.2460
  995MOL0     O37203   3.455   6.232   8.551 -1.0974  0.2079  0.4459
  995MOL0     C37204   3.560   6.177   8.623 -0.0509  0.5693  0.0586
  995MOL0     C37205   3.601   6.048   8.590  0.0588 -0.0966 -0.4498
  995MOL0     C37206   3.688   5.972   8.666 -0.2154 -0.1247 -0.0407
  995MOL0     C37207   3.727   6.023   8.787 -0.2620  0.2565  1.6057
  995MOL0     O37208   3.811   5.944   8.858  0.0116  0.0364 -0.4338
  995MOL0     C37209   3.952   5.960   8.834 -0.2006 -0.0322 -0.3818
  995MOL0     C37210   4.013   5.851   8.744  0.4000 -0.2810  0.2362
  995MOL0     C37211   4.016   5.701   8.780  0.3525  1.4298 -0.2931
  995MOL0     C37212   4.139   5.664   8.876  0.2944  0.5147 -0.0982
  995MOL0     C37213   4.270   5.662   8.815 -0.8781 -0.0402  0.1167
  995MOL0     C37214   4.373   5.566   8.898  0.6166 -0.1002  0.1249
  995MOL0     C37215   4.513   5.578   8.849 -0.0532 -0.5429 -0.2067
  995MOL0     C37216   4.556   5.465   8.757 -0.1452  0.1506  0.6088
  995MOL0    Cl37217   4.734   5.473   8.720  0.2332  0.0660  0.3514
  995MOL0     C37218   3.689   6.146   8.835  0.0321  0.4011  0.2505
  995MOL0     C37219   3.603   6.234   8.751  0.6016  0.5429 -0.4307
  995MOL0     O37220   3.568   6.415   8.452  0.2613 -0.0784 -1.0962
  995MOL0     C37221   3.348   6.326   8.243  0.2774 -0.3580  1.0447
  995MOL0     C37222   3.230   6.372   8.162 -0.9502  0.2497  0.1498
  995MOL0     N37223   2.472   6.268   8.063 -1.4585  0.5062  0.2493
  995MOL0     N37224   2.455   6.158   8.122 -0.5651 -0.9108  0.5946
  995MOL0     C37225   2.780   5.903   9.142 -0.1958 -0.2046  0.3085
  995MOL0     C37226   2.881   5.921   9.235  0.4396  0.2585  0.6637
  995MOL0     C37227   3.242   5.999   9.465 -0.8799 -0.5131  0.0739
  995MOL0     C37228   3.287   6.132   9.496 -0.6071 -0.8348  0.5812
  995MOL0     C37229   3.395   6.160   9.585  0.2297  0.9221 -0.0924
  995MOL0     C37230   3.425   6.057   9.677 -0.4543 -0.8930  0.6866
  995MOL0     O37231   3.513   6.071   9.787 -0.1856  0.0064 -0.4445
  995MOL0     C37232   3.589   6.195   9.794  0.0545  0.7226  1.3806
  995MOL0     C37233   3.687   6.206   9.902 -0.4723  0.3714  0.9123
  995MOL0     C37234   3.684   6.345   9.961 -0.9803  0.5850 -0.5367
  995MOL0     C37235   3.786   6.366  10.074  0.8475 -0.2337  0.5088
  995MOL0     C37236   3.732   6.316  10.196  0.0783 -0.7121 -0.7227
  995MOL0     C37237   3.690   6.263  10.300 -0.6964 -0.9746  0.5406
  995MOL0     C37238   3.377   5.930   9.657  0.7407 -0.2820 -0.2899
  995MOL0     C37239   3.282   5.901   9.558  0.6460  0.3252 -0.0426
  995MOL0     C37240   3.221   5.764   9.558  0.9660  0.6230  0.5994
  995MOL0     H37241   3.068   5.662   9.146 -0.8767 -1.0168 -2.2743
  995MOL0     H37242   2.888   5.637   8.984  4.0642 -0.6336  1.3159
  995MOL0     H37243   2.651   5.955   8.880  1.8775 -1.2312  1.0056
  995MOL0     H37244   2.543   5.933   9.011  0.3205  1.3427 -1.2585
  995MOL0     H37245   2.432   5.745   8.902 -5.2709  1.1267 -0.3583
  995MOL0     H37246   2.385   5.889   8.831  0.7927  1.3181 -0.3988
  995MOL0     H37247   2.601   5.713   8.705 -1.2683 -0.5809  0.5497
  995MOL0     H37248   2.462   5.747   8.619  2.7224 -1.5857 -2.0736
  995MOL0     H37249   2.511   5.993   8.612 -1.2320 -0.2802  1.0156
  995MOL0     H37250   2.677   5.954   8.653 -0.4376 -1.7226  0.6510
  995MOL0     H37251   2.508   5.880   8.406  0.4180 -1.2060 -0.6895
  995MOL0     H37252   2.655   5.775   8.468  2.1893  1.1083  1.2922
  995MOL0     H37253   2.640   6.062   8.375 -2.2166 -2.1608 -0.2726
  995MOL0     H37254   2.782   5.972   8.448 -0.0309 -1.5651 -1.1450
  995MOL0     H37255   2.750   5.819   8.246 -0.2662  0.3045 -2.8500
  995MOL0     H37256   2.810   5.979   8.212  1.0012 -2.5959  1.1212
  995MOL0     H37257   2.642   5.912   8.057  1.1947  4.5562 -1.0017
  995MOL0     H37258   2.514   5.925   8.192 -0.6105 -0.3665 -1.5613
  995MOL0     H37259   2.772   6.154   8.013 -1.3295 -2.4429 -1.1036
  995MOL0     H37260   2.572   6.487   7.960 -0.2386 -0.3230 -3.0717
  995MOL0     H37261   2.661   6.388   7.845  0.9978  3.5604 -0.7462
  995MOL0     H37262   2.860   6.406   7.950  0.8028  2.0019 -1.7780
  995MOL0     H37263   2.796   6.575   7.939  0.3982 -0.0495  0.2473
  995MOL0     H37264   2.712   6.562   8.178 -1.3918 -0.5320 -0.4269
  995MOL0     H37265   2.799   6.404   8.190 -4.6404  0.1216  1.1027
  995MOL0     H37266   2.932   6.665   8.118 -3.2661  1.2000  0.1006
  995MOL0     H37267   2.908   6.587   8.278 -0.7493 -0.6305 -0.2818
  995MOL0     H37268   3.061   6.540   8.393 -0.5117 -0.8481 -0.5145
  995MOL0     H37269   3.187   6.566   8.600  0.5800  0.1839  1.1701
  995MOL0     H37270   3.364   6.531   8.582  1.3522 -2.3114 -0.8659
  995MOL0     H37271   3.245   6.406   8.631 -0.2952  0.3118 -1.0173
  995MOL0     H37272   3.558   5.999   8.503 -0.6343  1.5756 -1.0825
  995MOL0     H37273   3.720   5.874   8.632  0.4168  0.3632 -0.9020
  995MOL0     H37274   3.976   6.061   8.801 -0.3667  0.9933  2.3223
  995MOL0     H37275   3.998   5.966   8.933 -0.3109 -0.2437 -0.3161
  995MOL0     H37276   3.956   5.857   8.650 -2.3891  1.3424  1.9118
  995MOL0     H37277   4.115   5.878   8.713  0.3117 -0.8989 -0.6354
  995MOL0     H37278   4.019   5.642   8.688 -3.6837 -3.2464  2.1073
  995MOL0     H37279   3.921   5.680   8.830 -0.1092  0.7752 -1.3886
  995MOL0     H37280   4.113   5.567   8.919 -0.2941  0.6192 -0.2129
  995MOL0     H37281   4.137   5.736   8.959 -2.0040  3.1372 -2.2147
  995MOL0     H37282   4.256   5.631   8.711  0.2988  1.4793 -0.5428
  995MOL0     H37283   4.297   5.768   8.822 -2.8516  0.4145  1.6512
  995MOL0     H37284   4.331   5.466   8.887  2.1086 -0.6502 -0.8873
  995MOL0     H37285   4.375   5.595   9.003 -3.0269 -3.2398  1.2679
  995MOL0     H37286   4.581   5.557   8.932  0.0625 -0.4999 -0.2910
  995MOL0     H37287   4.536   5.677   8.809  3.8104 -0.2204  2.2441
  995MOL0     H37288   4.507   5.456   8.659  1.0757 -0.6002  0.0416
  995MOL0     H37289   4.530   5.371   8.806 -0.9478  1.6889  3.3239
  995MOL0     H37290   3.727   6.168   8.934  1.8865  4.1277 -1.0938
  995MOL0     H37291   3.572   6.334   8.779 -1.6513  0.1270 -1.2547
  995MOL0     H37292   3.417   6.257   8.195 -0.6829 -0.3019 -0.4873
  995MOL0     H37293   3.213   6.337   8.061 -0.0485 -0.0824  0.1048
  995MOL0     H37294   2.694   5.968   9.148 -1.0882 -1.4543  3.8632
  995MOL0     H37295   2.868   6.009   9.296  1.6830  0.4096  0.7311
  995MOL0     H37296   3.255   6.212   9.430  0.5176 -1.8117 -1.2188
  995MOL0     H37297   3.443   6.257   9.596  0.6897  0.4766  2.4360
  995MOL0     H37298   3.645   6.224   9.705  3.4235  1.6722  3.5786
  995MOL0     H37299   3.511   6.267   9.819 -0.1586  0.8151  0.4649
  995MOL0     H37300   3.789   6.173   9.883  0.0308 -0.7049  4.7015
  995MOL0     H37301   3.673   6.133   9.982  1.2313  0.6470  1.5127
  995MOL0     H37302   3.702   6.420   9.884 -2.3415 -1.1692 -2.6645
  995MOL0     H37303   3.591   6.362  10.015 -0.4245  1.8139  0.0670
  995MOL0     H37304   3.805   6.473  10.084  2.2071 -0.6601  3.8003
  995MOL0     H37305   3.878   6.313  10.049  1.2277  0.9843 -0.7762
  995MOL0     H37306   3.641   6.232  10.390 -0.6273  4.0055  2.5840
  995MOL0     H37307   3.399   5.857   9.733 -2.4566  1.2064  2.3116
  995MOL0     H37308   3.259   5.697   9.635 -0.5320 -0.2382  0.6332
  995MOL0     H37309   3.114   5.770   9.582 -0.0005 -0.1818 -2.8794
  995MOL0     H37310   3.229   5.714   9.461 -0.4973  0.7965  0.3660
  996MOL0     O37311   6.775   9.792   7.150 -0.9378 -0.3359  0.3695
  996MOL0     C37312   6.820   9.678   7.116  0.3900 -0.0429  0.3684
  996MOL0     O37313   6.838   9.575   7.196  0.5482 -0.2211  0.6041
  996MOL0     C37314   6.812   9.598   7.331  0.4835  0.0420  0.9225
  996MOL0     C37315   6.911   9.609   7.429  0.2236  0.4297  0.0706
  996MOL0     C37316   6.883   9.619   7.561 -0.9235 -0.2424  0.5074
  996MOL0     C37317   6.746   9.614   7.602  0.1225 -1.2849  0.5488
  996MOL0     O37318   6.705   9.615   7.732  0.2085 -0.0514 -0.2244
  996MOL0     C37319   6.660   9.490   7.776  0.0533 -0.2906 -0.2365
  996MOL0     C37320   6.546   9.509   7.869  0.2868 -0.2706 -1.0138
  996MOL0     C37321   6.566   9.562   8.013 -0.1893 -0.6649 -0.4562
  996MOL0     C37322   6.448   9.517   8.098  0.0817 -0.0082  0.0227
  996MOL0     C37323   6.441   9.597   8.230  0.0216 -0.0115 -1.0290
  996MOL0     C37324   6.322   9.562   8.319 -0.4040 -0.4888 -0.4709
  996MOL0     C37325   6.299   9.679   8.415 -0.1576 -0.2413 -0.2979
  996MOL0     C37326   6.169   9.653   8.490 -0.1522 -0.4799  0.7265
  996MOL0     N37327   6.122   9.768   8.566 -0.4517 -0.7043 -0.1883
  996MOL0     C37328   6.019   9.852   8.526  0.1528 -0.8081  0.1495
  996MOL0     C37329   6.036   9.965   8.602 -0.4176  0.2619  0.2961
  996MOL0     C37330   5.958  10.093   8.589 -0.2645 -0.0921  0.1027
  996MOL0     C37331   6.030  10.200   8.666  0.4548  0.0781  0.1839
  996MOL0     C37332   5.977  10.346   8.625 -0.5833  0.4270 -0.4704
  996MOL0     C37333   6.026  10.463   8.723  0.4226  0.4070  0.5141
  996MOL0     O37334   6.021  10.576   8.635 -0.4374 -0.4387 -0.4458
  996MOL0     C37335   6.100  10.679   8.673 -0.6250  0.0307 -0.3899
  996MOL0     C37336   6.165  10.749   8.569 -0.6548  0.7241 -0.1268
  996MOL0     C37337   6.247  10.861   8.596  0.3718  0.9011  0.1485
  996MOL0     C37338   6.313  10.924   8.473  0.6523  0.3224 -0.0286
  996MOL0     C37339   6.260  10.900   8.735 -0.2291 -0.5153  0.5322
  996MOL0     C37340   6.362  11.003   8.779 -0.2766  0.9010  0.0392
  996MOL0     O37341   6.396  11.007   8.905  0.0801 -0.3983 -0.4194
  996MOL0     C37342   6.476  11.110   8.946 -0.6156  0.1149  0.7553
  996MOL0     C37343   6.430  11.216   9.019  0.4399 -0.2927  0.4035
  996MOL0     C37344   6.511  11.328   9.049 -1.0721  0.4920 -0.3250
  996MOL0     C37345   6.647  11.327   9.023 -0.5403  0.9911  0.5278
  996MOL0     O37346   6.719  11.437   9.064  0.0734  0.3640  0.0032
  996MOL0     C37347   6.723  11.541   8.970 -0.3446 -0.5463  0.3609
  996MOL0     C37348   6.778  11.672   9.033 -0.6801 -0.1332 -0.1710
  996MOL0     C37349   6.680  11.764   9.102 -0.1145  0.6478 -0.5526
  996MOL0     C37350   6.744  11.895   9.168  0.8338  0.0717 -0.2840
  996MOL0     C37351   6.669  11.943   9.288 -0.0478 -0.3806 -0.3085
  996MOL0     C37352   6.724  12.087   9.340 -0.7133 -0.8749 -0.5898
  996MOL0     C37353   6.733  12.086   9.497 -0.6631  0.2391  0.8155
  996MOL0     C37354   6.735  12.220   9.568  0.7616  0.0365 -1.1239
  996MOL0    Cl37355   6.864  12.333   9.538 -0.2029 -0.7402  0.0556
  996MOL0     C37356   6.696  11.217   8.954 -0.3037  0.6293 -0.3225
  996MOL0     C37357   6.618  11.106   8.921  0.2927 -0.1631  0.1889
  996MOL0     O37358   6.404  11.076   8.694 -0.3771 -0.5317  0.3336
  996MOL0     C37359   6.196  10.825   8.837 -0.1644 -0.6793 -0.4198
  996MOL0     C37360   6.109  10.722   8.804  0.2122 -0.7077 -0.5864
  996MOL0     N37361   6.137   9.935   8.690  0.2032  0.1515 -0.1929
  996MOL0     N37362   6.191   9.820   8.670  0.9122  0.5304 -0.3188
  996MOL0     C37363   6.644   9.626   7.506 -0.1654 -0.3021  0.7117
  996MOL0     C37364   6.678   9.614   7.368  0.1857 -0.8889  0.1845
  996MOL0     C37365   6.863   9.672   6.972 -0.7922  0.5035  0.4492
  996MOL0     C37366   6.847   9.784   6.887 -0.2382 -0.4239  0.2783
  996MOL0     C37367   6.880   9.776   6.753 -0.1652  0.1107  0.4148
  996MOL0     C37368   6.929   9.656   6.700  0.5457  0.1053  0.2202
  996MOL0     O37369   6.955   9.638   6.573  0.1397 -0.1128  0.1248
  996MOL0     C37370   7.087   9.633   6.519  0.1644  0.0491 -0.2921
  996MOL0     C37371   7.164   9.765   6.549  0.0870  0.9402  0.1928
  996MOL0     C37372   7.110   9.892   6.484 -0.4588  0.0026 -0.5959
  996MOL0     C37373   7.144  10.023   6.563  0.9940  0.7806 -0.5114
  996MOL0     C37374   7.281  10.061   6.577 -0.3778 -0.9663 -0.2572
  996MOL0     C37375   7.396  10.106   6.588 -0.7109  0.0109  0.3116
  996MOL0     C37376   6.956   9.549   6.776 -0.2602  0.0213  0.3057
  996MOL0     C37377   6.927   9.557   6.916  0.8764  0.7742 -0.4188
  996MOL0     C37378   6.969   9.436   7.000  1.0108  0.0863  0.6900
  996MOL0     H37379   7.016   9.620   7.402  0.2055 -2.1445 -1.3822
  996MOL0     H37380   6.975   9.616   7.618 -0.1452 -1.2794 -0.7394
  996MOL0     H37381   6.742   9.438   7.828  2.0889  0.8211 -2.1339
  996MOL0     H37382   6.633   9.421   7.697  0.0630 -2.7611  1.7940
  996MOL0     H37383   6.491   9.592   7.821  0.4272  0.6645  0.3732
  996MOL0     H37384   6.474   9.427   7.866  0.8157 -0.7622 -0.4070
  996MOL0     H37385   6.657   9.531   8.064  0.2278 -0.1843 -0.8985
  996MOL0     H37386   6.569   9.671   8.006 -1.4441 -0.5446  0.4727
  996MOL0     H37387   6.352   9.511   8.046 -0.8610 -0.5036  1.7361
  996MOL0     H37388   6.470   9.412   8.116  2.2949  0.3508 -0.2483
  996MOL0     H37389   6.463   9.703   8.222 -0.5428  0.6449  3.6284
  996MOL0     H37390   6.528   9.566   8.288 -0.9801 -1.0861 -0.0474
  996MOL0     H37391   6.231   9.559   8.258 -0.4772  0.1210 -0.3945
  996MOL0     H37392   6.344   9.469   8.373  3.1670 -1.6541 -3.4690
  996MOL0     H37393   6.297   9.774   8.361  0.0338  0.3355  0.6860
  996MOL0     H37394   6.386   9.684   8.481 -0.1583 -0.3286 -0.2918
  996MOL0     H37395   6.094   9.604   8.426  0.7259 -0.4571 -0.3446
  996MOL0     H37396   6.189   9.569   8.557  2.3848  0.3471  1.0912
  996MOL0     H37397   5.943   9.834   8.451  0.6944 -2.2615 -0.0933
  996MOL0     H37398   5.857  10.081   8.630 -0.6439  1.6648 -0.2387
  996MOL0     H37399   5.949  10.114   8.482 -0.2113  0.7005  0.2490
  996MOL0     H37400   6.007  10.181   8.771 -0.0436  1.9055  0.4564
  996MOL0     H37401   6.139  10.207   8.663  0.6853  1.1378  4.4135
  996MOL0     H37402   6.008  10.383   8.527 -2.9124  0.4000 -1.3009
  996MOL0     H37403   5.867  10.351   8.623 -0.8030 -2.4722 -3.1068
  996MOL0     H37404   5.966  10.492   8.810  2.2698  1.2736  1.5481
  996MOL0     H37405   6.123  10.445   8.770  0.3940  3.0451  1.7567
  996MOL0     H37406   6.145  10.706   8.471  2.1461 -0.3007 -0.3383
  996MOL0     H37407   6.292  11.030   8.487  4.4165  1.0481  1.1105
  996MOL0     H37408   6.271  10.892   8.377  2.1878  5.0297 -2.5635
  996MOL0     H37409   6.419  10.900   8.466  0.2488 -1.1935 -3.8182
  996MOL0     H37410   6.326  11.219   9.049  0.0843 -0.9800 -0.7101
  996MOL0     H37411   6.478  11.411   9.110 -1.3009  1.9262 -2.3108
  996MOL0     H37412   6.774  11.498   8.883 -2.4176 -0.7100 -0.8473
  996MOL0     H37413   6.619  11.561   8.943 -0.4804  0.1409  1.3575
  996MOL0     H37414   6.852  11.640   9.107 -0.6721  0.8118  0.2465
  996MOL0     H37415   6.839  11.728   8.961 -0.8187 -0.5695 -0.6330
  996MOL0     H37416   6.641  11.695   9.178  2.8511  0.3700  0.8371
  996MOL0     H37417   6.607  11.781   9.023  1.4398 -2.5779 -2.9114
  996MOL0     H37418   6.733  11.971   9.089 -1.1499  1.9433  1.6662
  996MOL0     H37419   6.849  11.884   9.195  1.7431  0.6234 -3.1842
  996MOL0     H37420   6.564  11.967   9.269 -0.6222 -0.7300  2.0798
  996MOL0     H37421   6.653  11.864   9.362 -0.8870  0.4243  0.3979
  996MOL0     H37422   6.664  12.169   9.300  2.4925  1.2470 -1.3806
  996MOL0     H37423   6.823  12.120   9.308 -0.6189 -0.8830 -0.3095
  996MOL0     H37424   6.828  12.041   9.525 -2.7338 -4.4356  1.1846
  996MOL0     H37425   6.646  12.030   9.533  0.5784 -2.0050  0.5135
  996MOL0     H37426   6.717  12.205   9.675 -1.8680 -2.0436 -1.7455
  996MOL0     H37427   6.640  12.265   9.536  0.5721  0.0823 -0.5177
  996MOL0     H37428   6.801  11.227   8.928  0.1452  2.3071  1.8013
  996MOL0     H37429   6.674  11.036   8.860  0.9702  1.1694 -0.7600
  996MOL0     H37430   6.203  10.867   8.937  2.9232 -1.6310 -0.1525
  996MOL0     H37431   6.036  10.674   8.868  2.0836 -3.1941 -0.1925
  996MOL0     H37432   6.544   9.625   7.548  0.0938 -0.3331  1.3371
  996MOL0     H37433   6.596   9.619   7.297  0.1690  0.6950  0.2923
  996MOL0     H37434   6.786   9.869   6.917 -0.2017 -0.8328  1.6055
  996MOL0     H37435   6.848   9.852   6.682 -2.3361  0.0496  1.2577
  996MOL0     H37436   7.145   9.555   6.570  3.1688  2.0053 -0.5151
  996MOL0     H37437   7.088   9.619   6.411 -1.5392 -1.1285 -0.1974
  996MOL0     H37438   7.259   9.744   6.499  0.4138 -1.3296  1.6109
  996MOL0     H37439   7.183   9.780   6.656  0.6189  1.8684 -0.0210
  996MOL0     H37440   7.160   9.910   6.388  1.1406  0.9073  0.3595
  996MOL0     H37441   7.002   9.893   6.471 -0.5486  4.7405 -1.1869
  996MOL0     H37442   7.107  10.007   6.664  0.3943  1.3529 -0.6287
  996MOL0     H37443   7.083  10.106   6.525 -3.1910 -0.1320  3.3811
  996MOL0     H37444   7.501  10.128   6.580 -0.4086 -0.9822  1.3158
  996MOL0     H37445   7.012   9.462   6.742 -1.7140 -0.5263 -0.7592
  996MOL0     H37446   7.039   9.482   7.072 -1.6192  0.8443  2.9543
  996MOL0     H37447   6.898   9.373   7.054 -1.0206  2.3970  0.8926
  996MOL0     H37448   7.020   9.365   6.935  0.2449  0.2998 -0.1642
  997MOL0     O37449   0.865   1.293  10.960  0.6616 -0.0444 -0.1795
  997MOL0     C37450   0.941   1.237  10.881 -0.0896 -0.8035  0.4449
  997MOL0     O37451   0.900   1.137  10.805  0.4506 -0.3282  0.3193
  997MOL0     C37452   0.770   1.108  10.768  0.7127  0.0637  0.1776
  997MOL0     C37453   0.757   1.006  10.668  0.5389  0.4066  2.1937
  997MOL0     C37454   0.634   0.969  10.627 -0.4566 -0.2584  0.0106
  997MOL0     C37455   0.517   1.031  10.675  0.4256 -0.2277  0.4612
  997MOL0     O37456   0.388   1.004  10.630 -0.5369 -0.3190 -0.2010
  997MOL0     C37457   0.377   0.924  10.504 -0.2237  0.7794  0.9308
  997MOL0     C37458   0.234   0.903  10.478  0.3330  0.7998 -0.3945
  997MOL0     C37459   0.194   1.002  10.371  0.7080  0.5473  0.4779
  997MOL0     C37460   0.043   0.973  10.333  0.4388  0.0821 -0.2563
  997MOL0     C37461  -0.038   1.087  10.274 -0.0425 -0.5319 -0.7013
  997MOL0     C37462   0.010   1.119  10.132 -0.8718  0.6305 -0.5322
  997MOL0     C37463  -0.076   1.235  10.068 -0.4556 -0.1098 -1.3106
  997MOL0     C37464  -0.014   1.279   9.942 -0.7181  0.1341 -0.0616
  997MOL0     N37465  -0.091   1.382   9.872 -0.0741 -0.1771  0.3256
  997MOL0     C37466  -0.221   1.366   9.824 -0.9418 -0.5419 -0.5624
  997MOL0     C37467  -0.251   1.481   9.764  0.7686  0.8867  0.2131
  997MOL0     C37468  -0.382   1.530   9.707  0.3301  0.3427 -0.5533
  997MOL0     C37469  -0.504   1.535   9.813 -0.2867  1.0976  0.8654
  997MOL0     C37470  -0.635   1.592   9.769 -0.2103  0.2429  1.1222
  997MOL0     C37471  -0.760   1.564   9.851  0.2990  0.7759 -0.5033
  997MOL0     O37472  -0.776   1.422   9.881 -0.5289  0.3536  0.7714
  997MOL0     C37473  -0.753   1.368   9.999 -0.0810  1.1347  0.4781
  997MOL0     C37474  -0.735   1.226  10.000  0.5226 -0.3939  0.4622
  997MOL0     C37475  -0.693   1.153  10.108 -0.1202  0.2585 -0.1845
  997MOL0     C37476  -0.676   1.003  10.095 -0.4299  0.4887 -0.4450
  997MOL0     C37477  -0.654   1.230  10.228  0.2065  0.7252  0.8012
  997MOL0     C37478  -0.604   1.172  10.359  0.0626 -0.2125 -0.1957
  997MOL0     O37479  -0.642   1.036  10.374 -0.0869  0.1181 -0.1162
  997MOL0     C37480  -0.593   0.971  10.488  0.2960  0.1127 -0.1472
  997MOL0     C37481  -0.688   0.928  10.579  0.6563  0.7192  0.2102
  997MOL0     C37482  -0.656   0.844  10.683  0.0871 -0.2609 -0.7045
  997MOL0     C37483  -0.520   0.812  10.703 -1.2432 -0.1344 -0.1563
  997MOL0     O37484  -0.491   0.718  10.805 -0.6758 -0.6494 -0.4710
  997MOL0     C37485  -0.374   0.752  10.883  0.3008 -0.7191  0.4074
  997MOL0     C37486  -0.354   0.677  11.010  1.1909  0.1054  0.8045
  997MOL0     C37487  -0.220   0.691  11.059 -0.2728  0.7638  0.3439
  997MOL0     C37488  -0.204   0.636  11.202 -0.5200 -0.3232 -0.7050
  997MOL0     C37489  -0.062   0.633  11.264  0.5790 -1.0126  0.0115
  997MOL0     C37490   0.062   0.569  11.193  0.0364 -0.3311  0.5176
  997MOL0     C37491   0.049   0.418  11.154  0.1041 -0.0041 -0.3978
  997MOL0     C37492   0.177   0.342  11.180  0.2353 -1.1076 -0.2585
  997MOL0    Cl37493   0.318   0.378  11.077 -0.1500  0.1259 -0.1828
  997MOL0     C37494  -0.422   0.866  10.619 -1.1396  0.0658  0.4311
  997MOL0     C37495  -0.460   0.938  10.508 -0.6100 -1.1739  0.3634
  997MOL0     O37496  -0.545   1.243  10.438  0.7545 -0.0667 -0.3763
  997MOL0     C37497  -0.683   1.366  10.229  0.1894  0.1343  1.0312
  997MOL0     C37498  -0.730   1.435  10.116 -0.0210 -0.1275 -0.6590
  997MOL0     N37499  -0.148   1.573   9.791  0.0933 -0.0525  0.0688
  997MOL0     N37500  -0.049   1.510   9.846  0.2457  0.5307  1.0221
  997MOL0     C37501   0.531   1.126  10.773  0.4555 -0.0974  1.1151
  997MOL0     C37502   0.655   1.166  10.824  0.9135 -0.7200 -0.3129
  997MOL0     C37503   1.082   1.254  10.891 -0.7664 -1.0483  0.5443
  997MOL0     C37504   1.169   1.174  10.814 -0.0181 -0.3319  0.2172
  997MOL0     C37505   1.308   1.200  10.802  0.4015  1.1898  0.0506
  997MOL0     C37506   1.357   1.307  10.874  0.1253  0.3956 -0.8419
  997MOL0     O37507   1.481   1.357  10.865  0.2166 -0.2705 -0.4344
  997MOL0     C37508   1.576   1.284  10.784  0.6926 -0.6400  0.0376
  997MOL0     C37509   1.716   1.344  10.800  0.2840 -1.1646 -0.3911
  997MOL0     C37510   1.776   1.333  10.937 -0.5463 -0.0991 -0.3465
  997MOL0     C37511   1.906   1.412  10.947 -0.5608 -0.0204 -0.4441
  997MOL0     C37512   1.903   1.518  11.056 -0.2059 -0.1358 -0.1637
  997MOL0     C37513   1.890   1.606  11.138  0.9131 -0.6473 -0.1358
  997MOL0     C37514   1.276   1.383  10.963  0.2104 -0.4581  1.0450
  997MOL0     C37515   1.136   1.368  10.958 -0.1033 -0.2669 -0.4341
  997MOL0     C37516   1.067   1.471  11.050  0.7565 -0.3226 -0.2198
  997MOL0     H37517   0.852   0.966  10.633 -0.2942  0.8833 -0.9733
  997MOL0     H37518   0.636   0.888  10.554  2.2259  0.5243 -0.8872
  997MOL0     H37519   0.436   0.834  10.521 -0.4590  0.1989 -1.0714
  997MOL0     H37520   0.427   0.967  10.417  1.5609 -1.3420  0.8348
  997MOL0     H37521   0.225   0.803  10.434  0.1149  0.9774 -0.7500
  997MOL0     H37522   0.184   0.902  10.575  1.4976 -1.8320  0.2936
  997MOL0     H37523   0.210   1.104  10.410 -0.7427  0.2423  2.0111
  997MOL0     H37524   0.263   1.002  10.286 -0.6638  3.1396 -0.7700
  997MOL0     H37525   0.026   0.890  10.263  1.1703  0.1842 -0.5625
  997MOL0     H37526  -0.013   0.944  10.423  0.9377 -1.9372 -0.5384
  997MOL0     H37527  -0.017   1.171  10.341  0.9812 -3.3367  2.7451
  997MOL0     H37528  -0.141   1.051  10.279 -1.6327  3.6515  0.8931
  997MOL0     H37529   0.110   1.155  10.157 -1.1606  0.6940  0.5606
  997MOL0     H37530   0.025   1.028  10.072 -0.0532 -0.5198  1.3386
  997MOL0     H37531  -0.088   1.322  10.133  1.1127  0.7834 -2.1505
  997MOL0     H37532  -0.176   1.195  10.051 -0.9003  0.1489  0.4916
  997MOL0     H37533   0.084   1.322   9.962 -0.9606  1.1743 -1.0215
  997MOL0     H37534   0.004   1.193   9.877 -0.0294  0.9503 -0.9781
  997MOL0     H37535  -0.272   1.270   9.814  2.8783 -2.8447 -0.0920
  997MOL0     H37536  -0.402   1.467   9.620 -1.0762  0.8907 -0.6485
  997MOL0     H37537  -0.362   1.632   9.672 -2.3351  0.4925 -1.8902
  997MOL0     H37538  -0.525   1.438   9.859 -2.2890  1.6532  1.2148
  997MOL0     H37539  -0.461   1.580   9.903  4.4900 -0.7681 -0.1486
  997MOL0     H37540  -0.613   1.698   9.754  3.7660 -0.3887  1.4164
  997MOL0     H37541  -0.656   1.546   9.671 -0.9282 -1.1108  1.8767
  997MOL0     H37542  -0.749   1.638   9.932 -2.7037 -0.1011  0.8481
  997MOL0     H37543  -0.857   1.594   9.811  0.2380  1.6669  0.2664
  997MOL0     H37544  -0.779   1.181   9.911 -1.9122  0.3642  1.2008
  997MOL0     H37545  -0.758   0.958  10.153 -2.3972  2.4468 -1.5671
  997MOL0     H37546  -0.579   0.970  10.135 -1.6419  1.1804  3.5234
  997MOL0     H37547  -0.692   0.964   9.994  1.3418 -1.8571  0.0975
  997MOL0     H37548  -0.789   0.962  10.560  0.3466 -1.2179 -2.0633
  997MOL0     H37549  -0.732   0.816  10.755  0.9808  1.9489  1.2271
  997MOL0     H37550  -0.285   0.733  10.821  0.8542  4.5430 -0.9130
  997MOL0     H37551  -0.366   0.859  10.904  2.2238 -0.2276 -2.2143
  997MOL0     H37552  -0.419   0.735  11.076 -1.8709 -0.3203 -1.6224
  997MOL0     H37553  -0.407   0.582  10.999 -0.6198  0.7959  2.8650
  997MOL0     H37554  -0.194   0.797  11.059 -1.3569  1.0549 -0.6420
  997MOL0     H37555  -0.148   0.634  11.000  1.3826 -0.6234  3.4493
  997MOL0     H37556  -0.237   0.533  11.215  1.2674 -0.9340 -0.7247
  997MOL0     H37557  -0.260   0.709  11.262 -2.2814 -0.7172 -1.7707
  997MOL0     H37558  -0.036   0.739  11.256 -0.2680 -0.9236 -2.5494
  997MOL0     H37559  -0.077   0.598  11.366 -3.1426  0.4937  0.1313
  997MOL0     H37560   0.150   0.590  11.254  1.2457 -2.5279 -0.3440
  997MOL0     H37561   0.078   0.610  11.093 -1.0375 -0.1478  0.4108
  997MOL0     H37562   0.015   0.404  11.051 -1.4936 -0.3352  0.1555
  997MOL0     H37563  -0.026   0.381  11.224 -0.2966  0.6319 -0.4941
  997MOL0     H37564   0.153   0.236  11.175  0.4904 -1.1618 -0.3600
  997MOL0     H37565   0.216   0.365  11.280  3.5030  0.7441 -1.7574
  997MOL0     H37566  -0.320   0.831  10.631 -1.1134 -0.7044 -1.5911
  997MOL0     H37567  -0.393   0.973  10.430 -2.4525  0.8411 -0.4309
  997MOL0     H37568  -0.676   1.425  10.319 -0.8815  3.9418 -1.1351
  997MOL0     H37569  -0.757   1.539  10.132 -3.3095 -1.2663  2.4902
  997MOL0     H37570   0.441   1.174  10.809  2.0364  1.4519  3.2931
  997MOL0     H37571   0.646   1.246  10.897  2.3296  0.8603 -1.7859
  997MOL0     H37572   1.133   1.085  10.762  2.3365  0.4423 -3.1145
  997MOL0     H37573   1.369   1.143  10.732 -0.9190  0.3485 -0.4612
  997MOL0     H37574   1.590   1.178  10.805  0.5307 -0.2526  2.3546
  997MOL0     H37575   1.541   1.286  10.680 -1.6162 -0.6312  0.7637
  997MOL0     H37576   1.705   1.447  10.763 -0.0542 -1.0829 -0.0631
  997MOL0     H37577   1.785   1.285  10.738  1.4860 -0.9406  0.7031
  997MOL0     H37578   1.707   1.374  11.011 -1.3864 -0.6541 -0.7999
  997MOL0     H37579   1.802   1.238  10.985  2.3309  2.2453  3.2717
  997MOL0     H37580   1.933   1.457  10.850  1.2189 -1.6678 -0.7865
  997MOL0     H37581   1.992   1.349  10.970  0.9348  1.4907 -1.5956
  997MOL0     H37582   1.882   1.675  11.220  1.8728 -3.2049  2.2800
  997MOL0     H37583   1.322   1.446  11.038 -2.0385  0.1834  1.9550
  997MOL0     H37584   1.007   1.422  11.128  1.5163 -3.2175 -1.3126
  997MOL0     H37585   1.136   1.534  11.106 -0.5960  0.2241  0.8797
  997MOL0     H37586   0.991   1.529  10.997 -0.6814 -1.3017  0.6875
  998MOL0     O37587   8.158   8.403  10.156  0.4736  0.8342 -0.5526
  998MOL0     C37588   8.096   8.311  10.098 -1.4148 -0.7093 -0.3199
  998MOL0     O37589   8.004   8.235  10.161  0.7128 -0.3118  0.4308
  998MOL0     C37590   7.947   8.251  10.286 -0.8083 -0.1016 -0.4068
  998MOL0     C37591   7.944   8.144  10.378 -0.2568  0.7783 -1.0086
  998MOL0     C37592   7.908   8.170  10.510 -0.1865 -0.4229 -0.2302
  998MOL0     C37593   7.861   8.298  10.545  0.4750 -0.1407  0.4105
  998MOL0     O37594   7.830   8.325  10.677  0.4300 -0.5432 -0.2587
  998MOL0     C37595   7.941   8.371  10.744 -0.3898  0.2669 -0.7576
  998MOL0     C37596   7.932   8.414  10.889  0.6326 -0.4778  0.2798
  998MOL0     C37597   7.920   8.289  10.976 -0.3023  0.8783  0.1566
  998MOL0     C37598   7.865   8.331  11.112  1.1295 -0.3886 -0.1523
  998MOL0     C37599   7.882   8.219  11.210  0.1436  0.7057  0.4660
  998MOL0     C37600   7.806   8.241  11.344  0.2617  0.2099 -0.2693
  998MOL0     C37601   7.657   8.251  11.316 -0.0933  0.5668 -0.2481
  998MOL0     C37602   7.575   8.233  11.443 -0.3247 -0.0108  0.0968
  998MOL0     N37603   7.445   8.284  11.404  0.8567  0.1629 -0.0267
  998MOL0     C37604   7.426   8.413  11.382  0.4348  0.2098  0.9347
  998MOL0     C37605   7.297   8.412  11.337  0.3782 -0.7444  0.7974
  998MOL0     C37606   7.216   8.539  11.292 -0.7841  0.4179  0.3717
  998MOL0     C37607   7.063   8.539  11.294  0.1571  0.8563 -0.1791
  998MOL0     C37608   7.007   8.661  11.224  0.6869 -0.6244  0.3238
  998MOL0     C37609   6.851   8.656  11.220  0.1168 -0.3052  0.6989
  998MOL0     O37610   6.816   8.769  11.137  0.6243  1.1337 -0.1115
  998MOL0     C37611   6.685   8.810  11.127 -0.1543  0.0318  0.1150
  998MOL0     C37612   6.671   8.915  11.033 -0.1988  0.6207 -0.0917
  998MOL0     C37613   6.550   8.983  11.005 -0.2884 -0.3974  0.3580
  998MOL0     C37614   6.569   9.099  10.910 -0.1230  0.1223  0.5372
  998MOL0     C37615   6.436   8.950  11.069  0.2709  0.8085 -0.2039
  998MOL0     C37616   6.302   9.005  11.043  0.1752  0.4290 -0.7140
  998MOL0     O37617   6.308   9.140  11.035 -0.7398  0.8418  0.2901
  998MOL0     C37618   6.203   9.197  10.977 -0.1356  0.2203 -0.1193
  998MOL0     C37619   6.097   9.235  11.056 -0.4076 -0.3982 -0.1992
  998MOL0     C37620   5.975   9.280  10.997  0.5120  0.0853 -0.0810
  998MOL0     C37621   5.962   9.288  10.857  0.2361  0.4001 -0.7763
  998MOL0     O37622   5.857   9.366  10.809  0.3392 -0.0062  0.8712
  998MOL0     C37623   5.871   9.456  10.700  0.8307 -0.1698 -0.3539
  998MOL0     C37624   5.737   9.506  10.670 -0.0535 -0.2511 -0.9774
  998MOL0     C37625   5.658   9.396  10.608 -0.2414 -0.7758  0.9506
  998MOL0     C37626   5.508   9.412  10.632 -0.7276 -0.1768 -0.0644
  998MOL0     C37627   5.446   9.544  10.573  0.0480  0.3785 -1.0756
  998MOL0     C37628   5.286   9.549  10.602  0.0527  0.4217 -0.0342
  998MOL0     C37629   5.209   9.438  10.524  0.3806  0.9584  0.5235
  998MOL0     C37630   5.146   9.328  10.612  1.1915  0.3526  0.0302
  998MOL0    Cl37631   5.075   9.411  10.762  0.1366  0.2717 -0.3493
  998MOL0     C37632   6.062   9.237  10.776  0.2953  0.7573  0.4363
  998MOL0     C37633   6.189   9.199  10.838  0.4711  0.0088 -0.7316
  998MOL0     O37634   6.206   8.931  11.068 -0.1492 -0.1184 -0.0525
  998MOL0     C37635   6.449   8.842  11.154  0.1106  1.2215 -0.1332
  998MOL0     C37636   6.562   8.770  11.191 -0.7386  0.6214 -0.0454
  998MOL0     N37637   7.240   8.289  11.358 -0.6740  0.3535 -0.0584
  998MOL0     N37638   7.332   8.209  11.395  0.0619 -0.0683 -0.2016
  998MOL0     C37639   7.844   8.396  10.447  0.7945 -0.4641  0.3919
  998MOL0     C37640   7.895   8.371  10.321  0.1636 -0.3597  0.0195
  998MOL0     C37641   8.161   8.252   9.980  0.0299 -0.3900 -0.0469
  998MOL0     C37642   8.182   8.110   9.982  0.5028  0.0029  0.5858
  998MOL0     C37643   8.223   8.042   9.861 -1.1921 -0.0052  0.4485
  998MOL0     C37644   8.246   8.115   9.745 -0.3346 -1.1000  1.2040
  998MOL0     O37645   8.262   8.085   9.614 -0.2873 -0.0212 -0.5677
  998MOL0     C37646   8.303   7.951   9.594  0.1442 -0.0936 -0.9582
  998MOL0     C37647   8.314   7.934   9.450 -1.0793  0.3668 -0.4447
  998MOL0     C37648   8.394   8.042   9.372 -1.0262  0.5859 -0.1474
  998MOL0     C37649   8.527   8.005   9.297  0.3586  0.1732  0.0664
  998MOL0     C37650   8.581   8.120   9.225 -0.0955  0.7559 -0.1968
  998MOL0     C37651   8.618   8.209   9.147  0.2307 -0.0535 -0.0569
  998MOL0     C37652   8.230   8.252   9.749  0.0735 -0.7108  0.1656
  998MOL0     C37653   8.196   8.325   9.858  0.1015  0.6142 -0.4121
  998MOL0     C37654   8.179   8.472   9.856 -0.5034 -0.5006  0.7503
  998MOL0     H37655   7.977   8.041  10.364 -1.4922  0.0053  1.2579
  998MOL0     H37656   7.910   8.101  10.594 -0.7310  0.2002  0.3017
  998MOL0     H37657   7.954   8.468  10.694 -2.3791  1.4353  0.8189
  998MOL0     H37658   8.027   8.305  10.731 -0.2792  0.4677 -1.0366
  998MOL0     H37659   8.020   8.471  10.919  0.8252 -1.0320  0.7997
  998MOL0     H37660   7.845   8.477  10.909  1.1221 -0.6921  3.6422
  998MOL0     H37661   7.850   8.216  10.933  0.4490  0.0098  0.3766
  998MOL0     H37662   8.009   8.228  10.991 -2.6110 -2.2618  2.4724
  998MOL0     H37663   7.911   8.420  11.156  0.5646 -1.8094  3.7078
  998MOL0     H37664   7.762   8.364  11.094  0.8835 -0.6409  0.7512
  998MOL0     H37665   7.988   8.202  11.229 -0.4500 -1.3905  2.3182
  998MOL0     H37666   7.852   8.126  11.161  1.6297  0.2083  0.4703
  998MOL0     H37667   7.834   8.152  11.400  4.1728  1.9081  0.8235
  998MOL0     H37668   7.858   8.326  11.390  0.3052 -0.1818  0.4241
  998MOL0     H37669   7.628   8.188  11.231 -0.8296  2.1060 -1.1815
  998MOL0     H37670   7.629   8.349  11.276 -0.5689 -0.4476 -2.6328
  998MOL0     H37671   7.561   8.130  11.478  0.8740 -0.9225 -1.9126
  998MOL0     H37672   7.605   8.299  11.524  0.7425  2.5059 -2.2039
  998MOL0     H37673   7.502   8.490  11.392  1.2084 -0.6262  1.7114
  998MOL0     H37674   7.244   8.549  11.186 -0.1345 -1.7336  0.2903
  998MOL0     H37675   7.262   8.620  11.350  4.3039  0.0280 -2.4491
  998MOL0     H37676   7.022   8.454  11.239  1.4786  0.1234 -0.0859
  998MOL0     H37677   7.040   8.528  11.400  0.5458  0.5820 -0.1178
  998MOL0     H37678   7.043   8.751  11.275  2.1803  0.4661 -2.4302
  998MOL0     H37679   7.037   8.679  11.120  0.4162 -0.2792  0.3076
  998MOL0     H37680   6.817   8.566  11.168 -0.0241  1.6727 -3.0114
  998MOL0     H37681   6.806   8.666  11.319 -2.5543  1.6851 -0.5624
  998MOL0     H37682   6.764   8.919  10.977 -0.0238 -0.3857  0.0939
  998MOL0     H37683   6.538   9.193  10.958 -0.3512  0.5539 -0.4423
  998MOL0     H37684   6.516   9.068  10.821 -0.8507 -2.6262  1.8433
  998MOL0     H37685   6.672   9.124  10.881 -0.4388  1.8888  0.7846
  998MOL0     H37686   6.109   9.239  11.164 -1.4132  0.7175 -0.1084
  998MOL0     H37687   5.887   9.316  11.051 -0.4652 -2.1442 -0.0793
  998MOL0     H37688   5.922   9.545  10.738 -0.3801 -1.1243  4.0441
  998MOL0     H37689   5.910   9.399  10.615  0.1139  0.1504 -0.9118
  998MOL0     H37690   5.690   9.543  10.761 -0.1485 -2.0449 -0.2642
  998MOL0     H37691   5.750   9.582  10.592 -2.6813 -1.9582 -3.2971
  998MOL0     H37692   5.680   9.296  10.646 -1.0305 -0.3107  2.7614
  998MOL0     H37693   5.674   9.403  10.500  0.8455 -1.8564  1.0302
  998MOL0     H37694   5.488   9.402  10.739 -0.1017  2.5331  0.3834
  998MOL0     H37695   5.462   9.329  10.579  1.7910 -0.6489 -1.6898
  998MOL0     H37696   5.503   9.617  10.631 -0.2110 -2.1014  2.7054
  998MOL0     H37697   5.470   9.553  10.467 -0.3555  4.1980 -0.9612
  998MOL0     H37698   5.238   9.646  10.589 -3.8722 -0.9174  2.6088
  998MOL0     H37699   5.276   9.538  10.710  0.3159  2.5577  0.2337
  998MOL0     H37700   5.274   9.394  10.447  1.1948  0.7729  1.3023
  998MOL0     H37701   5.126   9.491  10.476  0.2903 -1.3826 -2.1925
  998MOL0     H37702   5.221   9.260  10.654 -0.9096 -2.8110 -0.9816
  998MOL0     H37703   5.072   9.266  10.561  1.8091 -0.6380  0.3180
  998MOL0     H37704   6.068   9.238  10.667  1.5025  2.0247  0.4799
  998MOL0     H37705   6.260   9.154  10.770 -0.9936 -0.0064 -2.3092
  998MOL0     H37706   6.359   8.807  11.204 -0.8361  3.7931  0.0934
  998MOL0     H37707   6.552   8.685  11.259 -1.3640  1.0518  0.4176
  998MOL0     H37708   7.804   8.494  10.473  1.8085 -0.3027  1.4413
  998MOL0     H37709   7.909   8.458  10.258  0.2605  1.0852  1.9602
  998MOL0     H37710   8.172   8.049  10.071 -2.7735 -1.9627 -0.9591
  998MOL0     H37711   8.224   7.934   9.855 -0.0852  0.0465 -0.7817
  998MOL0     H37712   8.399   7.952   9.645 -0.6171  1.4605  0.5506
  998MOL0     H37713   8.224   7.891   9.642  0.8580  0.5260  1.0929
  998MOL0     H37714   8.215   7.925   9.404 -1.2377 -1.6678  0.1818
  998MOL0     H37715   8.360   7.838   9.425  2.7368  2.5617 -2.6699
  998MOL0     H37716   8.331   8.075   9.289 -0.8935  0.9020 -0.1235
  998MOL0     H37717   8.411   8.132   9.432 -0.4792  0.2068  0.2724
  998MOL0     H37718   8.516   7.909   9.247 -0.9427 -0.4983  1.5597
  998MOL0     H37719   8.602   7.979   9.373  0.8236 -1.1630 -0.8104
  998MOL0     H37720   8.649   8.279   9.071  2.1821  0.8976  1.5090
  998MOL0     H37721   8.243   8.307   9.656 -0.4154  0.0097  0.5156
  998MOL0     H37722   8.188   8.511   9.754  0.9993  0.7962  1.3431
  998MOL0     H37723   8.080   8.503   9.892 -1.8247 -4.5661  1.0375
  998MOL0     H37724   8.252   8.536   9.906  0.6099  0.3550 -1.7633
  999MOL0     O37725   3.791  10.923   6.369  0.0169  0.1677  0.4469
  999MOL0     C37726   3.743  10.856   6.457  0.8946 -0.2012  0.1387
  999MOL0     O37727   3.771  10.868   6.597 -0.3922  0.5420  0.2041
  999MOL0     C37728   3.892  10.923   6.638 -0.6068 -0.0903  0.0150
  999MOL0     C37729   4.017  10.904   6.572 -0.9061 -0.8715  0.5505
  999MOL0     C37730   4.134  10.971   6.622  0.7399 -0.2695  1.6717
  999MOL0     C37731   4.125  11.047   6.740  0.5365  0.0990 -0.0792
  999MOL0     O37732   4.234  11.101   6.804 -0.3128 -0.2538  0.2162
  999MOL0     C37733   4.370  11.079   6.757  1.8655 -0.4444 -0.4786
  999MOL0     C37734   4.463  11.103   6.874 -0.7196  0.3235 -0.0172
  999MOL0     C37735   4.446  11.238   6.935 -0.1316  0.7423 -0.2192
  999MOL0     C37736   4.554  11.274   7.050  0.5182 -0.0928  1.1556
  999MOL0     C37737   4.517  11.401   7.142 -0.8357  0.8788  0.5714
  999MOL0     C37738   4.629  11.415   7.241  0.0557  0.4362  0.2546
  999MOL0     C37739   4.628  11.538   7.342  0.0032  1.1750  0.2141
  999MOL0     C37740   4.514  11.553   7.436 -0.9109 -0.2962 -0.3962
  999MOL0     N37741   4.524  11.676   7.524 -0.0602  0.9128 -0.0170
  999MOL0     C37742   4.538  11.676   7.655  0.1145 -0.5216 -0.3571
  999MOL0     C37743   4.555  11.812   7.698  0.9474 -0.0088  0.6451
  999MOL0     C37744   4.606  11.844   7.838 -0.2176 -1.2587 -0.4009
  999MOL0     C37745   4.761  11.891   7.833 -0.7102  0.7093  0.5638
  999MOL0     C37746   4.854  11.784   7.780  0.1905 -0.3616 -0.1062
  999MOL0     C37747   4.986  11.786   7.861  0.4784  1.1069 -0.1083
  999MOL0     O37748   5.056  11.909   7.844  0.1712  0.9541 -0.5566
  999MOL0     C37749   5.183  11.916   7.900 -0.5550  0.2846 -0.3122
  999MOL0     C37750   5.265  12.019   7.858  0.0633 -0.0829  0.4835
  999MOL0     C37751   5.401  12.026   7.901  0.2256 -0.4764  0.4068
  999MOL0     C37752   5.474  12.140   7.834 -0.1883  0.5385 -0.3979
  999MOL0     C37753   5.456  11.931   7.988  0.0350  0.6929  0.6050
  999MOL0     C37754   5.600  11.933   8.023 -0.8251 -0.1053 -0.0842
  999MOL0     O37755   5.644  11.943   8.152  0.0219  0.0696  0.1528
  999MOL0     C37756   5.581  12.018   8.246 -0.3430 -0.6440 -0.0208
  999MOL0     C37757   5.549  11.949   8.359  0.4133 -0.4376 -0.2833
  999MOL0     C37758   5.466  11.999   8.457 -0.0420 -0.7950 -0.3631
  999MOL0     C37759   5.413  12.132   8.438 -0.0359 -0.2920  0.2798
  999MOL0     O37760   5.340  12.180   8.546 -0.2529 -0.1915 -0.3082
  999MOL0     C37761   5.303  12.316   8.540 -0.5772  0.8253 -0.3193
  999MOL0     C37762   5.223  12.353   8.664  1.0625  0.1844 -0.6420
  999MOL0     C37763   5.310  12.354   8.792 -0.9447  0.2235 -0.0289
  999MOL0     C37764   5.222  12.361   8.916  0.5077  0.5487  0.6950
  999MOL0     C37765   5.323  12.372   9.029 -0.8645  0.2954 -0.6730
  999MOL0     C37766   5.266  12.402   9.171  0.6676 -0.3708  0.3913
  999MOL0     C37767   5.371  12.402   9.280  0.2009  1.3529  0.8141
  999MOL0     C37768   5.324  12.474   9.404 -0.3679 -0.2236 -0.3637
  999MOL0    Cl37769   5.374  12.639   9.377  0.1645  0.0842 -0.0602
  999MOL0     C37770   5.448  12.202   8.323  1.1146 -0.4683  0.0943
  999MOL0     C37771   5.529  12.145   8.226  0.1161 -0.5141  1.0661
  999MOL0     O37772   5.676  11.928   7.922 -0.1005  0.5054  0.2866
  999MOL0     C37773   5.378  11.839   8.035  0.0056  0.3789 -0.4518
  999MOL0     C37774   5.245  11.827   7.986 -0.5747 -0.1850 -0.7378
  999MOL0     N37775   4.543  11.891   7.581 -0.0035  0.6601 -0.2543
  999MOL0     N37776   4.536  11.811   7.480 -0.3717 -0.0827 -0.2678
  999MOL0     C37777   4.001  11.065   6.804 -0.8491  0.6161 -0.4545
  999MOL0     C37778   3.898  10.995   6.762  0.5290 -0.7883  1.1728
  999MOL0     C37779   3.640  10.766   6.424 -0.4306 -0.4974  0.5563
  999MOL0     C37780   3.621  10.662   6.509  0.7615  0.8005 -0.2439
  999MOL0     C37781   3.522  10.559   6.483  0.6829 -0.1783  0.2662
  999MOL0     C37782   3.448  10.572   6.369  0.0072 -0.0812 -0.6820
  999MOL0     O37783   3.362  10.474   6.328 -0.2266  0.4578 -0.4536
  999MOL0     C37784   3.352  10.339   6.382 -0.8090 -0.7000 -0.5861
  999MOL0     C37785   3.236  10.275   6.311 -0.1209 -0.3072  0.0174
  999MOL0     C37786   3.222  10.128   6.354  0.2848  0.3386 -0.1413
  999MOL0     C37787   3.116  10.053   6.275  1.0006  0.2432  0.2830
  999MOL0     C37788   3.073  10.107   6.150  0.0497  0.4233 -0.0060
  999MOL0     C37789   3.045  10.148   6.039  0.4154 -0.8949 -0.7916
  999MOL0     C37790   3.458  10.674   6.278 -0.3693 -0.3619  0.0731
  999MOL0     C37791   3.551  10.774   6.312 -1.2141  0.7409  0.1186
  999MOL0     C37792   3.560  10.889   6.216  0.2922  0.1269 -0.5985
  999MOL0     H37793   4.017  10.845   6.481  2.6907  1.3172 -1.1073
  999MOL0     H37794   4.214  10.961   6.548 -1.1737  0.3212 -0.5959
  999MOL0     H37795   4.394  11.165   6.694  3.0679  0.2491  0.8565
  999MOL0     H37796   4.388  10.982   6.710 -1.3500 -0.7111 -1.3663
  999MOL0     H37797   4.458  11.030   6.955  1.0403  1.9405  1.6950
  999MOL0     H37798   4.568  11.082   6.853 -0.1652 -1.9689  3.9812
  999MOL0     H37799   4.471  11.302   6.850 -0.2411  0.0189 -0.8133
  999MOL0     H37800   4.343  11.236   6.970 -0.8332  0.4630 -2.1853
  999MOL0     H37801   4.555  11.179   7.105 -0.9157  0.0412  1.4587
  999MOL0     H37802   4.654  11.282   7.006 -0.6646  2.1499 -1.4012
  999MOL0     H37803   4.425  11.383   7.198  0.3789  3.0334  3.5603
  999MOL0     H37804   4.500  11.487   7.076 -0.4150 -1.1415 -2.3747
  999MOL0     H37805   4.625  11.327   7.306 -1.7624 -1.0836 -1.7771
  999MOL0     H37806   4.726  11.409   7.190 -0.7947 -0.4282 -1.3193
  999MOL0     H37807   4.643  11.631   7.285 -1.3599  1.6455  0.5902
  999MOL0     H37808   4.716  11.516   7.403 -1.3208 -2.5208  1.0281
  999MOL0     H37809   4.415  11.546   7.390 -1.7663  0.0657  1.3065
  999MOL0     H37810   4.512  11.472   7.510 -2.9464  0.0227 -0.0591
  999MOL0     H37811   4.537  11.591   7.722  0.4283  0.0778  0.4284
  999MOL0     H37812   4.593  11.758   7.905  1.6707 -2.1429 -1.0876
  999MOL0     H37813   4.549  11.928   7.877 -1.1625 -1.6337 -0.9170
  999MOL0     H37814   4.761  11.974   7.762  1.4729  1.1555  1.0224
  999MOL0     H37815   4.792  11.932   7.929 -0.1495 -0.3350  0.8476
  999MOL0     H37816   4.807  11.685   7.790 -1.0295 -0.6324 -5.5829
  999MOL0     H37817   4.875  11.812   7.677  1.4080  2.4947  0.8316
  999MOL0     H37818   4.964  11.774   7.968  3.5382 -0.5427  0.4616
  999MOL0     H37819   5.044  11.696   7.838 -1.5907  0.1311 -1.8844
  999MOL0     H37820   5.221  12.083   7.782  0.9474 -1.4044 -1.2264
  999MOL0     H37821   5.582  12.129   7.846 -0.1693 -1.0959 -1.6740
  999MOL0     H37822   5.447  12.234   7.882 -0.9468  0.7402 -1.1721
  999MOL0     H37823   5.461  12.149   7.725  0.0640  1.7404 -0.3377
  999MOL0     H37824   5.600  11.855   8.378  1.9631  1.0219  4.0037
  999MOL0     H37825   5.444  11.956   8.554  0.5547  0.3011  0.2848
  999MOL0     H37826   5.394  12.375   8.524  1.5169 -2.3309 -0.9449
  999MOL0     H37827   5.234  12.328   8.456 -3.5864  0.0076  1.8762
  999MOL0     H37828   5.170  12.448   8.653 -0.8729 -0.8738 -0.7451
  999MOL0     H37829   5.144  12.278   8.667  1.0174  0.1844 -1.5211
  999MOL0     H37830   5.369  12.444   8.775 -1.3476  0.2710 -1.2378
  999MOL0     H37831   5.367  12.261   8.801 -2.0944 -0.5116 -0.1498
  999MOL0     H37832   5.149  12.280   8.922 -0.9598  1.4879 -2.7249
  999MOL0     H37833   5.161  12.451   8.925 -0.8869 -0.2875 -0.1530
  999MOL0     H37834   5.389  12.285   9.040  1.5572  2.2658  2.3411
  999MOL0     H37835   5.391  12.456   9.010  2.1501 -2.1242 -1.4334
  999MOL0     H37836   5.190  12.327   9.195 -0.6908 -0.2350 -3.0451
  999MOL0     H37837   5.215  12.498   9.161  0.7484 -0.3812 -0.1548
  999MOL0     H37838   5.468  12.435   9.241  1.1965  3.4158  4.5669
  999MOL0     H37839   5.381  12.295   9.304  0.5446  0.4847 -2.6467
  999MOL0     H37840   5.387  12.450   9.491 -0.6791  2.9663  0.8939
  999MOL0     H37841   5.221  12.451   9.431 -0.2089  0.3408  0.8104
  999MOL0     H37842   5.413  12.304   8.313 -0.5647 -0.7378  2.4873
  999MOL0     H37843   5.552  12.195   8.133  1.3546 -0.6473  1.2892
  999MOL0     H37844   5.418  11.774   8.111 -0.4823  0.7757  0.1496
  999MOL0     H37845   5.182  11.750   8.027  1.4719 -3.0301 -2.5354
  999MOL0     H37846   3.999  11.130   6.891  0.8788  2.3667 -1.6092
  999MOL0     H37847   3.805  11.003   6.817  0.2479  0.8338  0.5377
  999MOL0     H37848   3.668  10.658   6.607  0.9762 -1.3586 -0.3938
  999MOL0     H37849   3.506  10.476   6.550 -1.8458  2.4242  3.2204
  999MOL0     H37850   3.442  10.279   6.368  0.5197  1.3766 -1.4085
  999MOL0     H37851   3.335  10.350   6.489 -1.6044 -0.2985 -0.7472
  999MOL0     H37852   3.255  10.271   6.204  0.2297 -0.8144  0.0967
  999MOL0     H37853   3.143  10.331   6.327 -2.0469 -1.1523 -5.9665
  999MOL0     H37854   3.317  10.076   6.341  0.9420  1.8370 -1.6214
  999MOL0     H37855   3.201  10.122   6.461 -1.6691  4.6325 -0.0633
  999MOL0     H37856   3.025  10.060   6.334  0.8103  1.7542 -0.1453
  999MOL0     H37857   3.147   9.949   6.262  4.3471  1.0874  0.5258
  999MOL0     H37858   3.018  10.195   5.947 -1.0972  0.2947  0.1839
  999MOL0     H37859   3.395  10.691   6.191 -0.1521  2.6503  0.3974
  999MOL0     H37860   3.484  10.880   6.138 -0.3865 -0.0434  0.0736
  999MOL0     H37861   3.543  10.982   6.272 -2.9896 -1.9596  2.2975
  999MOL0     H37862   3.654  10.877   6.161  2.6194  1.6297  2.6684
 1000MOL0     O37863   4.905   1.850   3.799 -0.5218  0.4661  0.7358
 1000MOL0     C37864   4.896   1.851   3.922  1.0520  0.3565  0.0651
 1000MOL0     O37865   4.918   1.750   4.014 -0.0418 -0.6808 -0.1397
 1000MOL0     C37866   4.920   1.623   3.975  0.1754 -0.4387 -0.3889
 1000MOL0     C37867   5.030   1.557   4.011 -0.2308 -0.0435  0.6108
 1000MOL0     C37868   5.040   1.418   3.984 -0.3830 -0.1455  0.0563
 1000MOL0     C37869   4.936   1.351   3.918 -0.3849  0.1340 -0.5908
 1000MOL0     O37870   4.945   1.212   3.893  0.5626  0.1685 -0.0720
 1000MOL0     C37871   5.069   1.177   3.830  0.2522 -0.4983 -0.4607
 1000MOL0     C37872   5.046   1.045   3.757  0.0822  0.1628  0.5121
 1000MOL0     C37873   5.039   0.935   3.856 -0.3795  0.3785  0.4129
 1000MOL0     C37874   5.171   0.909   3.937  0.0508  0.0594  0.0351
 1000MOL0     C37875   5.166   0.766   4.001  0.7089 -0.6986  0.2101
 1000MOL0     C37876   5.237   0.743   4.132 -0.7733  0.3609  0.8687
 1000MOL0     C37877   5.253   0.584   4.162  0.9514 -0.6337 -0.5809
 1000MOL0     C37878   5.132   0.491   4.212 -0.7224 -0.0247  0.8130
 1000MOL0     N37879   5.103   0.516   4.350  0.0716 -0.4868 -0.0366
 1000MOL0     C37880   5.024   0.614   4.396 -0.3158 -0.4615  0.1846
 1000MOL0     C37881   5.014   0.583   4.537 -0.5824  0.2202 -0.4634
 1000MOL0     C37882   4.932   0.646   4.640 -0.6101  0.0114 -1.5940
 1000MOL0     C37883   4.833   0.752   4.588 -0.5640 -0.6004  0.2788
 1000MOL0     C37884   4.902   0.883   4.552  0.6262 -0.2176 -0.6584
 1000MOL0     C37885   4.838   0.946   4.428  0.5135 -0.5327  1.3364
 1000MOL0     O37886   4.836   0.862   4.313 -0.2083 -0.1006 -0.9500
 1000MOL0     C37887   4.773   0.908   4.200 -0.0640 -0.0024  0.4020
 1000MOL0     C37888   4.750   0.805   4.100  0.3283 -0.0268  0.1999
 1000MOL0     C37889   4.699   0.836   3.979 -0.5178 -0.2159 -0.6986
 1000MOL0     C37890   4.677   0.718   3.883 -0.0315  0.3590 -0.1254
 1000MOL0     C37891   4.677   0.977   3.940  0.8095 -0.2019  0.1403
 1000MOL0     C37892   4.635   1.016   3.797  0.6440  0.3926  0.5648
 1000MOL0     O37893   4.594   1.139   3.791  0.4570  0.1687 -0.4703
 1000MOL0     C37894   4.528   1.183   3.682  0.0250  0.1401 -0.5189
 1000MOL0     C37895   4.418   1.110   3.615 -0.7123 -0.1855 -0.3006
 1000MOL0     C37896   4.328   1.173   3.534  0.1114 -0.0879 -0.6775
 1000MOL0     C37897   4.343   1.305   3.492 -1.0693 -0.7656 -0.1448
 1000MOL0     O37898   4.254   1.366   3.400  0.5961 -0.8142 -0.6407
 1000MOL0     C37899   4.188   1.284   3.302  0.1162 -0.2520 -0.0689
 1000MOL0     C37900   4.170   1.366   3.177 -0.1540  0.6844  0.5011
 1000MOL0     C37901   4.141   1.294   3.047  0.5026  0.6154 -0.1106
 1000MOL0     C37902   4.124   1.396   2.930  0.6850 -0.1105 -0.7006
 1000MOL0     C37903   4.134   1.326   2.798 -0.0281  0.1474 -0.2156
 1000MOL0     C37904   4.277   1.283   2.769 -0.0538 -0.7258  0.2634
 1000MOL0     C37905   4.363   1.400   2.715  0.7590 -0.7710  0.2519
 1000MOL0     C37906   4.436   1.361   2.580 -0.2432 -0.3388 -0.7901
 1000MOL0    Cl37907   4.329   1.351   2.436  0.3596  0.5466 -0.0715
 1000MOL0     C37908   4.447   1.383   3.552 -0.6490  0.7880  0.2583
 1000MOL0     C37909   4.539   1.322   3.648  0.2953  0.8622  0.7649
 1000MOL0     O37910   4.663   0.937   3.694 -0.1330 -0.2058  0.3325
 1000MOL0     C37911   4.701   1.074   4.039 -0.2384 -0.6983  0.4623
 1000MOL0     C37912   4.741   1.040   4.169  0.3034  1.0360 -0.1054
 1000MOL0     N37913   5.117   0.494   4.566  0.4589  0.1828  0.0772
 1000MOL0     N37914   5.166   0.459   4.455  0.1568 -0.7106 -0.2510
 1000MOL0     C37915   4.812   1.418   3.889 -0.2292 -0.0169  0.9782
 1000MOL0     C37916   4.804   1.555   3.910 -0.1999  0.1575  0.3498
 1000MOL0     C37917   4.843   1.975   3.984  0.0921  0.8998 -0.1019
 1000MOL0     C37918   4.777   2.068   3.904 -0.1108  0.0598 -1.2115
 1000MOL0     C37919   4.752   2.202   3.932 -0.7350  0.8309 -0.1681
 1000MOL0     C37920   4.786   2.245   4.061  0.6983  0.3664  0.0247
 1000MOL0     O37921   4.786   2.381   4.089  0.0718  0.2860  0.6977
 1000MOL0     C37922   4.782   2.441   4.215 -1.1904  0.5025 -0.2584
 1000MOL0     C37923   4.787   2.597   4.210 -0.5193 -0.5945 -0.0552
 1000MOL0     C37924   4.928   2.643   4.192  0.1020  0.6578  0.1749
 1000MOL0     C37925   4.966   2.802   4.195 -0.5067 -0.3490 -0.4899
 1000MOL0     C37926   5.006   2.853   4.065 -0.8680  0.0323  0.5490
 1000MOL0     C37927   5.048   2.915   3.966 -0.2348 -0.8456  0.3184
 1000MOL0     C37928   4.854   2.162   4.145  0.4874  0.5304 -0.1480
 1000MOL0     C37929   4.887   2.025   4.112 -0.3375  0.1061 -0.3851
 1000MOL0     C37930   4.999   1.962   4.198 -0.5188  0.3969  0.1203
 1000MOL0     H37931   5.114   1.604   4.060  0.8849 -2.5499  1.2707
 1000MOL0     H37932   5.135   1.372   4.007  0.7925  1.9108 -0.3938
 1000MOL0     H37933   5.147   1.168   3.907  1.8364  0.5702 -1.8616
 1000MOL0     H37934   5.099   1.255   3.760  0.5310  0.8896  1.1499
 1000MOL0     H37935   4.957   1.044   3.693  1.6529 -0.7571 -1.7873
 1000MOL0     H37936   5.131   1.031   3.690  0.1267 -1.0702  0.7887
 1000MOL0     H37937   4.963   0.951   3.934  0.9489 -2.4835  2.4654
 1000MOL0     H37938   5.014   0.848   3.796  1.0353  0.3565 -0.1831
 1000MOL0     H37939   5.262   0.906   3.877 -0.4951 -2.0265 -0.7730
 1000MOL0     H37940   5.178   0.985   4.016  0.2813 -1.3035  1.3828
 1000MOL0     H37941   5.205   0.708   3.916  1.8035  1.4745 -0.8621
 1000MOL0     H37942   5.061   0.740   4.014 -0.1294  1.4117 -1.6576
 1000MOL0     H37943   5.335   0.790   4.131  0.7157 -2.5037  2.3975
 1000MOL0     H37944   5.173   0.790   4.208  1.8195  2.8570  1.6715
 1000MOL0     H37945   5.332   0.590   4.238  2.5118  1.0575 -2.2377
 1000MOL0     H37946   5.300   0.524   4.084 -0.8709 -4.7645  1.2024
 1000MOL0     H37947   5.043   0.508   4.150 -1.5162 -0.5041  1.7773
 1000MOL0     H37948   5.159   0.385   4.201  0.2289  0.4082 -1.4022
 1000MOL0     H37949   4.965   0.683   4.338 -1.1489 -0.4972  0.9625
 1000MOL0     H37950   4.991   0.686   4.723 -2.7795 -0.3325  0.2340
 1000MOL0     H37951   4.875   0.561   4.679  1.3080  0.0221  1.6115
 1000MOL0     H37952   4.792   0.708   4.497  0.8777 -0.2922 -0.5602
 1000MOL0     H37953   4.753   0.777   4.658 -0.1921  1.9802 -0.1119
 1000MOL0     H37954   4.905   0.949   4.640 -1.9617  0.8643 -1.2978
 1000MOL0     H37955   4.999   0.848   4.516  0.0119 -0.7787 -1.8354
 1000MOL0     H37956   4.732   0.965   4.447  0.1363  0.1759 -1.1558
 1000MOL0     H37957   4.885   1.039   4.394  0.7697 -0.6900  1.2537
 1000MOL0     H37958   4.775   0.705   4.134  0.0482 -0.2253 -0.1654
 1000MOL0     H37959   4.758   0.709   3.811  1.7544 -2.5352  2.0262
 1000MOL0     H37960   4.581   0.742   3.835 -0.7006 -1.5837  0.1175
 1000MOL0     H37961   4.657   0.617   3.922 -0.4301  0.6910  0.5524
 1000MOL0     H37962   4.405   1.007   3.647  1.6692 -0.7396 -0.9337
 1000MOL0     H37963   4.247   1.107   3.506 -2.1756  1.5158  1.7049
 1000MOL0     H37964   4.253   1.201   3.273 -0.4362 -0.4348 -0.8246
 1000MOL0     H37965   4.095   1.244   3.343  1.4155 -1.3440  1.9922
 1000MOL0     H37966   4.083   1.432   3.188  1.3850  2.4475  3.2800
 1000MOL0     H37967   4.264   1.416   3.152 -0.9715  0.8491 -2.7768
 1000MOL0     H37968   4.046   1.240   3.040 -0.7316  2.6688 -0.1781
 1000MOL0     H37969   4.230   1.232   3.031  0.5188 -0.1201  2.3769
 1000MOL0     H37970   4.193   1.480   2.947 -0.6843  1.0005 -0.4252
 1000MOL0     H37971   4.023   1.438   2.925 -0.7694 -3.2702  0.1136
 1000MOL0     H37972   4.066   1.240   2.799 -0.0131  0.1039  1.5554
 1000MOL0     H37973   4.104   1.396   2.720  1.0913  0.2057 -0.6014
 1000MOL0     H37974   4.273   1.204   2.694  0.5105  0.3946 -0.9890
 1000MOL0     H37975   4.336   1.246   2.853  1.0593 -0.1300 -0.2399
 1000MOL0     H37976   4.447   1.418   2.783  1.4401 -0.6525 -0.6088
 1000MOL0     H37977   4.304   1.489   2.693  1.5924 -0.5193 -1.0587
 1000MOL0     H37978   4.482   1.262   2.589 -1.0577 -0.8643 -2.1694
 1000MOL0     H37979   4.522   1.428   2.571  0.5053 -1.1866 -0.2700
 1000MOL0     H37980   4.466   1.488   3.529  1.2270  0.2826 -0.7096
 1000MOL0     H37981   4.611   1.385   3.700  0.8625  1.6351 -0.9178
 1000MOL0     H37982   4.676   1.176   4.013  1.2762 -0.8617 -1.8632
 1000MOL0     H37983   4.755   1.112   4.249  2.4372 -0.4277  0.9162
 1000MOL0     H37984   4.732   1.362   3.843  1.0862 -1.8719  0.8563
 1000MOL0     H37985   4.720   1.622   3.897 -0.1179  0.8152  2.8022
 1000MOL0     H37986   4.761   2.051   3.798  2.1656  0.4198 -1.6529
 1000MOL0     H37987   4.713   2.275   3.861  1.6740  0.9335 -1.4807
 1000MOL0     H37988   4.690   2.415   4.267 -0.3592  0.9775  1.5344
 1000MOL0     H37989   4.868   2.401   4.270 -1.3975 -0.1491 -0.3987
 1000MOL0     H37990   4.750   2.638   4.304  1.4300  0.9752  0.0769
 1000MOL0     H37991   4.724   2.617   4.123  1.0081 -2.4102 -1.6684
 1000MOL0     H37992   4.978   2.586   4.271  1.5339  1.3453 -0.2046
 1000MOL0     H37993   4.957   2.600   4.096 -2.3930 -1.9407  0.4314
 1000MOL0     H37994   5.036   2.836   4.272 -0.7010 -2.8343  0.8883
 1000MOL0     H37995   4.872   2.850   4.225 -1.0940 -1.9091  0.2869
 1000MOL0     H37996   5.076   2.969   3.878 -2.8637 -2.6314 -1.7961
 1000MOL0     H37997   4.883   2.196   4.244  0.6119  0.9677 -0.3313
 1000MOL0     H37998   5.031   2.014   4.289 -1.7546  3.5486 -1.1226
 1000MOL0     H37999   4.964   1.861   4.219  0.2722 -0.2604 -1.5240
 1000MOL0     H38000   5.088   1.944   4.137 -0.6497  1.3580 -0.3664
 1001MOL0     O38001   6.208   3.354   3.572  0.3999 -0.3996  0.0681
 1001MOL0     C38002   6.262   3.458   3.535  0.8222 -0.5507 -1.1177
 1001MOL0     O38003   6.392   3.473   3.526 -0.1289 -0.1513  0.0633
 1001MOL0     C38004   6.458   3.353   3.527 -0.8684  0.5492  0.6395
 1001MOL0     C38005   6.452   3.265   3.411  0.5937 -0.3682 -0.1747
 1001MOL0     C38006   6.543   3.155   3.396  0.8299 -0.2445 -0.7916
 1001MOL0     C38007   6.619   3.129   3.514 -0.2949  0.4052  0.5636
 1001MOL0     O38008   6.720   3.035   3.518 -0.2300  0.1113  0.5756
 1001MOL0     C38009   6.669   2.901   3.529 -0.2184 -0.5309  0.4531
 1001MOL0     C38010   6.773   2.808   3.450  0.7249 -0.1262  0.3425
 1001MOL0     C38011   6.774   2.834   3.296  0.3018 -0.1825 -0.2382
 1001MOL0     C38012   6.632   2.815   3.232 -0.1011  0.5551  0.6117
 1001MOL0     C38013   6.648   2.824   3.072 -0.5341 -0.1317 -0.7261
 1001MOL0     C38014   6.519   2.787   3.010  0.6802 -0.1140 -0.3676
 1001MOL0     C38015   6.525   2.781   2.850  0.6960  0.4274  0.1397
 1001MOL0     C38016   6.413   2.694   2.790  0.4292  0.7488  0.1002
 1001MOL0     N38017   6.382   2.722   2.643 -0.6152 -0.0669 -0.3917
 1001MOL0     C38018   6.450   2.685   2.526  0.2270 -0.3449  0.5842
 1001MOL0     C38019   6.387   2.737   2.419 -0.9237 -0.0793  1.4766
 1001MOL0     C38020   6.439   2.729   2.274 -1.0728  0.5204  0.3483
 1001MOL0     C38021   6.458   2.871   2.223  0.5052 -0.5320  0.1881
 1001MOL0     C38022   6.518   2.879   2.086  0.1076 -0.3845 -0.0537
 1001MOL0     C38023   6.535   3.026   2.040 -0.7416 -0.7721 -0.3525
 1001MOL0     O38024   6.554   3.048   1.900 -0.1829  0.4411 -0.2238
 1001MOL0     C38025   6.684   3.071   1.851  0.0701  0.3107 -0.3591
 1001MOL0     C38026   6.697   3.137   1.731  0.7695 -0.5778  0.3097
 1001MOL0     C38027   6.818   3.186   1.685  0.1397 -0.0651  0.2304
 1001MOL0     C38028   6.827   3.265   1.556  0.5667  0.7765  1.1451
 1001MOL0     C38029   6.935   3.154   1.762 -0.3331  0.4759 -0.6142
 1001MOL0     C38030   7.076   3.189   1.734 -0.1353 -0.8940  0.4857
 1001MOL0     O38031   7.172   3.147   1.822  0.1256 -0.2590  0.3247
 1001MOL0     C38032   7.308   3.171   1.801 -0.5067  0.1343 -0.1429
 1001MOL0     C38033   7.385   3.197   1.916  0.0652 -0.1807  0.1613
 1001MOL0     C38034   7.528   3.230   1.909 -0.2285 -0.3368 -0.5329
 1001MOL0     C38035   7.585   3.232   1.779 -0.8196 -0.6390  0.0450
 1001MOL0     O38036   7.713   3.275   1.765 -0.4495 -0.9618 -0.4063
 1001MOL0     C38037   7.742   3.390   1.679  0.8151  0.3011 -0.5601
 1001MOL0     C38038   7.827   3.504   1.736 -0.5178  0.3134  0.2039
 1001MOL0     C38039   7.827   3.623   1.637 -0.4584  0.6636 -0.0381
 1001MOL0     C38040   7.971   3.618   1.581 -0.3545 -0.0782  0.3071
 1001MOL0     C38041   7.991   3.718   1.480 -0.3812  1.1903 -1.2361
 1001MOL0     C38042   8.140   3.720   1.444 -0.1292 -0.2802  0.2058
 1001MOL0     C38043   8.159   3.833   1.339 -0.8989 -0.1307 -0.2552
 1001MOL0     C38044   8.131   3.974   1.397 -1.2592 -0.4403 -0.7473
 1001MOL0    Cl38045   8.243   4.005   1.537  0.0186  0.2367 -0.0388
 1001MOL0     C38046   7.509   3.210   1.667  0.1514  0.9610 -0.8022
 1001MOL0     C38047   7.370   3.177   1.676  0.0799 -0.1918 -0.4139
 1001MOL0     O38048   7.096   3.270   1.644 -0.7105 -0.5616  0.1842
 1001MOL0     C38049   6.925   3.063   1.869  0.2945  0.0490  0.3658
 1001MOL0     C38050   6.799   3.022   1.919  0.7384  0.2832 -0.0468
 1001MOL0     N38051   6.272   2.794   2.471 -0.6245  0.4444  0.6540
 1001MOL0     N38052   6.275   2.797   2.597 -0.3289 -0.1622 -0.2293
 1001MOL0     C38053   6.622   3.212   3.626  0.7035 -0.2256  0.2580
 1001MOL0     C38054   6.541   3.327   3.629  0.1703 -0.4294  0.3009
 1001MOL0     C38055   6.170   3.561   3.523  0.5128  0.4478 -0.5545
 1001MOL0     C38056   6.209   3.692   3.555  0.1328  0.8335  0.2843
 1001MOL0     C38057   6.118   3.798   3.561 -0.9381 -0.4328 -0.4664
 1001MOL0     C38058   5.987   3.785   3.523 -0.3841  0.1570  1.1711
 1001MOL0     O38059   5.914   3.907   3.520  0.1219  0.4070 -0.4577
 1001MOL0     C38060   5.780   3.879   3.577  0.3603  0.4415  0.0616
 1001MOL0     C38061   5.721   4.016   3.604 -0.2476 -0.5630  0.5491
 1001MOL0     C38062   5.591   4.003   3.686 -0.5611 -0.4243  0.5155
 1001MOL0     C38063   5.486   3.915   3.627 -0.2054  0.2737 -0.0458
 1001MOL0     C38064   5.386   3.883   3.724  0.3908 -0.7188  0.0539
 1001MOL0     C38065   5.309   3.833   3.805 -0.6081  0.1294 -0.1381
 1001MOL0     C38066   5.950   3.660   3.490  0.5901 -0.6373  0.6428
 1001MOL0     C38067   6.030   3.546   3.499 -0.2006 -0.6393  0.4933
 1001MOL0     C38068   5.953   3.417   3.468  0.4462 -0.3019 -0.2462
 1001MOL0     H38069   6.387   3.291   3.328  0.3710 -2.4878 -0.7100
 1001MOL0     H38070   6.550   3.106   3.299  0.6257  2.2137 -2.1350
 1001MOL0     H38071   6.569   2.881   3.491 -1.6323 -0.4039  3.7629
 1001MOL0     H38072   6.683   2.889   3.637  1.1674  1.0975  0.4922
 1001MOL0     H38073   6.874   2.806   3.491  0.7942 -1.8815  0.1301
 1001MOL0     H38074   6.744   2.703   3.455 -2.1419  0.4142 -2.0522
 1001MOL0     H38075   6.827   2.924   3.263  0.3268  0.4662  1.4666
 1001MOL0     H38076   6.827   2.744   3.262 -2.1755 -3.2490  3.1125
 1001MOL0     H38077   6.587   2.719   3.258 -2.0028  0.0309 -3.7503
 1001MOL0     H38078   6.565   2.897   3.258  3.0579  3.6683 -0.2249
 1001MOL0     H38079   6.727   2.762   3.029  0.1801  0.6896 -0.6402
 1001MOL0     H38080   6.681   2.926   3.049  4.3932 -0.8872  1.6484
 1001MOL0     H38081   6.490   2.689   3.049  1.1762  0.8195  2.5757
 1001MOL0     H38082   6.437   2.855   3.033  0.5569 -0.2358 -0.4453
 1001MOL0     H38083   6.618   2.730   2.823 -0.5815 -2.7902  1.2531
 1001MOL0     H38084   6.523   2.884   2.815  1.7515 -0.1180 -1.6391
 1001MOL0     H38085   6.428   2.586   2.797 -3.4918 -0.0561 -1.3671
 1001MOL0     H38086   6.318   2.720   2.837 -0.7631 -2.1891 -0.4840
 1001MOL0     H38087   6.547   2.637   2.529 -0.9173 -2.7735  2.4612
 1001MOL0     H38088   6.360   2.666   2.231  0.1624  0.0003 -1.2772
 1001MOL0     H38089   6.531   2.672   2.261 -0.1121  1.9804  0.4949
 1001MOL0     H38090   6.360   2.920   2.218  0.2965 -0.8047  1.3124
 1001MOL0     H38091   6.516   2.932   2.294  0.6389  3.7776 -3.2038
 1001MOL0     H38092   6.605   2.814   2.073  0.6283  0.3877 -0.5180
 1001MOL0     H38093   6.446   2.841   2.013  2.7006  1.5163 -3.9734
 1001MOL0     H38094   6.454   3.089   2.077  1.7062  2.7564 -0.5521
 1001MOL0     H38095   6.615   3.072   2.097 -2.2622  0.0726  1.1949
 1001MOL0     H38096   6.606   3.166   1.679  0.3154  0.9747  1.8629
 1001MOL0     H38097   6.917   3.224   1.507 -0.3074 -1.3496  1.2100
 1001MOL0     H38098   6.834   3.374   1.567  0.5388  1.4851 -3.7489
 1001MOL0     H38099   6.741   3.241   1.494  0.6272  0.3430  1.2234
 1001MOL0     H38100   7.325   3.192   2.007  3.1081 -1.4727  2.2447
 1001MOL0     H38101   7.578   3.267   1.998 -0.4161  2.3896 -1.4587
 1001MOL0     H38102   7.806   3.348   1.602  1.3634 -1.0396  0.5773
 1001MOL0     H38103   7.650   3.433   1.640  0.0971 -1.4153 -0.8628
 1001MOL0     H38104   7.780   3.526   1.833  1.2826  1.3081  0.9082
 1001MOL0     H38105   7.928   3.475   1.767 -0.6108 -0.0621  0.1612
 1001MOL0     H38106   7.799   3.710   1.698 -4.2190  0.5692 -1.3885
 1001MOL0     H38107   7.753   3.612   1.558 -3.8498 -0.2983  2.9676
 1001MOL0     H38108   7.985   3.518   1.539 -1.4045 -0.5344  0.9935
 1001MOL0     H38109   8.051   3.634   1.654  1.7866  0.3425 -2.0154
 1001MOL0     H38110   7.935   3.699   1.388  2.9342 -0.6576 -3.0427
 1001MOL0     H38111   7.965   3.816   1.520  1.2619  0.9711  0.5204
 1001MOL0     H38112   8.167   3.630   1.389  2.6236 -0.1849  1.2232
 1001MOL0     H38113   8.201   3.732   1.535 -0.5187 -0.2384  0.4650
 1001MOL0     H38114   8.094   3.814   1.253 -2.2307  1.3316  0.3718
 1001MOL0     H38115   8.262   3.839   1.304 -0.2814  0.4130  1.5706
 1001MOL0     H38116   8.030   3.975   1.439 -1.6128 -3.2807 -1.3577
 1001MOL0     H38117   8.142   4.061   1.331  0.0916 -0.0858 -0.1061
 1001MOL0     H38118   7.564   3.204   1.574  0.8195 -2.8502 -0.3158
 1001MOL0     H38119   7.309   3.145   1.593 -0.4687 -1.8752  0.5976
 1001MOL0     H38120   7.013   3.025   1.920  0.4016 -1.1205 -0.6326
 1001MOL0     H38121   6.789   2.958   2.006 -3.0500 -0.1064 -0.5884
 1001MOL0     H38122   6.676   3.178   3.714  1.5515 -2.8977 -1.1785
 1001MOL0     H38123   6.554   3.398   3.710  4.8433 -2.4024  1.6019
 1001MOL0     H38124   6.313   3.706   3.583 -0.1976 -0.9943  2.8003
 1001MOL0     H38125   6.159   3.894   3.591  1.1484 -0.4554 -2.8303
 1001MOL0     H38126   5.715   3.822   3.510 -3.8877  4.4122  0.2604
 1001MOL0     H38127   5.785   3.822   3.670  0.2336 -1.4450 -1.0446
 1001MOL0     H38128   5.694   4.065   3.509  1.0478  0.2915  0.5985
 1001MOL0     H38129   5.794   4.087   3.644 -0.9813  0.7769 -0.3593
 1001MOL0     H38130   5.625   3.958   3.780  2.2952 -0.0857 -0.2819
 1001MOL0     H38131   5.539   4.096   3.712 -0.6164 -0.5838  0.9962
 1001MOL0     H38132   5.533   3.820   3.600  0.6274  0.9754 -1.1301
 1001MOL0     H38133   5.441   3.970   3.544 -1.2474 -0.7998 -0.2223
 1001MOL0     H38134   5.244   3.796   3.881 -0.6757  1.4450  0.4707
 1001MOL0     H38135   5.842   3.653   3.476  0.8248 -1.3817 -0.9895
 1001MOL0     H38136   5.846   3.434   3.453  1.1901  3.7583 -2.2972
 1001MOL0     H38137   6.005   3.373   3.382  0.8590  0.2472 -0.2799
 1001MOL0     H38138   5.960   3.359   3.560  0.5894  0.9001  0.5150
 1002MOL0     O38139   0.426   5.487   9.900 -0.1719  0.2657 -0.2250
 1002MOL0     C38140   0.455   5.390   9.966  0.4570  0.0021 -0.4467
 1002MOL0     O38141   0.368   5.288   9.997  0.1475 -0.8086 -0.3817
 1002MOL0     C38142   0.267   5.238   9.925 -0.3868  0.1405  0.2485
 1002MOL0     C38143   0.228   5.289   9.798  0.2382  0.3335 -1.0004
 1002MOL0     C38144   0.129   5.222   9.726  0.3149 -0.3354  0.0228
 1002MOL0     C38145   0.058   5.109   9.777 -0.7135 -0.0888  0.4258
 1002MOL0     O38146  -0.046   5.036   9.723 -0.1773 -0.2204 -0.5850
 1002MOL0     C38147  -0.027   4.984   9.590  0.7270 -0.3098 -0.8015
 1002MOL0     C38148  -0.132   4.879   9.547 -0.5177  0.2463  0.3452
 1002MOL0     C38149  -0.134   4.761   9.642 -0.5687 -1.0998 -0.2167
 1002MOL0     C38150  -0.216   4.644   9.576  0.5485  0.1049 -0.0959
 1002MOL0     C38151  -0.247   4.526   9.676  0.6180  1.3663  1.0648
 1002MOL0     C38152  -0.305   4.399   9.607 -1.5610 -0.0883 -0.4525
 1002MOL0     C38153  -0.205   4.350   9.504 -0.3705  0.3828  0.6597
 1002MOL0     C38154  -0.064   4.344   9.557  0.5810  0.0566  0.5965
 1002MOL0     N38155   0.019   4.236   9.528 -0.8446 -0.1465  0.6834
 1002MOL0     C38156   0.012   4.099   9.568  0.2797 -0.1195  0.2046
 1002MOL0     C38157   0.115   4.036   9.512  0.0241  0.2783  0.0689
 1002MOL0     C38158   0.136   3.882   9.513 -0.9552  0.0872 -1.1328
 1002MOL0     C38159   0.103   3.807   9.389 -0.3441  0.2936 -0.0154
 1002MOL0     C38160   0.081   3.658   9.399 -0.4887 -0.5639  0.4547
 1002MOL0     C38161   0.040   3.606   9.262 -0.3268  0.1191 -0.0015
 1002MOL0     O38162   0.141   3.609   9.160 -0.2020  0.1348 -0.2723
 1002MOL0     C38163   0.167   3.479   9.125 -0.2312 -0.2256  0.3669
 1002MOL0     C38164   0.293   3.434   9.164 -0.1340  0.1985 -0.3636
 1002MOL0     C38165   0.343   3.300   9.130 -0.6120  0.5314 -0.6450
 1002MOL0     C38166   0.471   3.253   9.197  0.3569  0.4498 -0.3224
 1002MOL0     C38167   0.257   3.222   9.046  1.0817 -0.3540 -0.1818
 1002MOL0     C38168   0.263   3.079   9.025  0.9649  0.8233  0.0213
 1002MOL0     O38169   0.149   3.009   8.999  0.0744 -1.2369  0.5125
 1002MOL0     C38170   0.158   2.878   8.977  0.5101 -0.4176 -0.0329
 1002MOL0     C38171   0.172   2.789   9.087 -0.2157 -0.0957  0.3562
 1002MOL0     C38172   0.207   2.651   9.062  1.2472 -0.3654 -0.0385
 1002MOL0     C38173   0.206   2.595   8.942  0.9471  0.6262  0.1007
 1002MOL0     O38174   0.214   2.456   8.937  0.1392  0.9124  0.0090
 1002MOL0     C38175   0.317   2.385   9.017  0.6537  0.1442 -0.2791
 1002MOL0     C38176   0.248   2.256   9.045  0.3285  0.6759 -0.0577
 1002MOL0     C38177   0.198   2.177   8.924 -0.4089  0.6732  0.6363
 1002MOL0     C38178   0.101   2.063   8.970 -0.5130 -0.0578  0.8858
 1002MOL0     C38179   0.157   1.921   8.949 -0.6562  0.4861  0.3548
 1002MOL0     C38180   0.258   1.888   9.065  0.2202 -0.0839  1.0359
 1002MOL0     C38181   0.317   1.736   9.065 -0.1110 -0.0970 -0.1362
 1002MOL0     C38182   0.213   1.629   9.080 -0.1475 -0.0346  0.3304
 1002MOL0    Cl38183   0.157   1.646   9.245 -0.1871  0.3016 -0.4299
 1002MOL0     C38184   0.164   2.678   8.828 -0.6339 -0.3041 -0.8781
 1002MOL0     C38185   0.161   2.820   8.844  0.2321  0.6521 -0.3462
 1002MOL0     O38186   0.370   3.035   9.049 -0.2314  0.2107  0.1806
 1002MOL0     C38187   0.134   3.279   8.999  0.2606  0.7088  0.2792
 1002MOL0     C38188   0.089   3.406   9.039 -0.0275 -0.7835 -0.1573
 1002MOL0     N38189   0.195   4.132   9.451 -0.3022 -0.3721  0.0534
 1002MOL0     N38190   0.139   4.250   9.467  0.6267  0.7411  0.2881
 1002MOL0     C38191   0.098   5.065   9.902 -0.6121  0.0467 -0.7708
 1002MOL0     C38192   0.203   5.123   9.969  0.3449 -0.2144 -0.7149
 1002MOL0     C38193   0.590   5.373  10.014  0.3284 -0.1975  0.7400
 1002MOL0     C38194   0.649   5.480  10.071 -0.3352  0.3865 -0.0174
 1002MOL0     C38195   0.774   5.477  10.129  0.3725 -0.0728  0.5456
 1002MOL0     C38196   0.862   5.371  10.111  0.1686 -0.2554  0.2663
 1002MOL0     O38197   0.985   5.387  10.168  0.1015  0.7102  0.2139
 1002MOL0     C38198   1.071   5.267  10.156 -0.8747 -0.1433 -0.0731
 1002MOL0     C38199   1.203   5.276  10.231  0.7984  0.2727 -0.5346
 1002MOL0     C38200   1.296   5.164  10.186 -0.8719 -0.9288  1.1291
 1002MOL0     C38201   1.426   5.166  10.255 -0.6330  0.5723 -0.2649
 1002MOL0     C38202   1.431   5.111  10.397 -0.0941  0.5641  0.1324
 1002MOL0     C38203   1.421   5.088  10.517  0.1585  0.6927  0.3442
 1002MOL0     C38204   0.798   5.258  10.047 -0.6910 -0.4132 -0.4502
 1002MOL0     C38205   0.664   5.258  10.006  0.1221  0.7526  0.8017
 1002MOL0     C38206   0.627   5.123   9.937  0.7354 -0.4828 -0.0619
 1002MOL0     H38207   0.276   5.376   9.754  3.2333 -0.8608 -0.2810
 1002MOL0     H38208   0.127   5.239   9.619  3.1916 -1.5269 -0.3196
 1002MOL0     H38209   0.077   4.953   9.579  1.3459 -0.2412  3.3198
 1002MOL0     H38210  -0.036   5.070   9.524  2.3781  0.1428 -0.4594
 1002MOL0     H38211  -0.230   4.928   9.546 -1.0368 -0.6930  2.0027
 1002MOL0     H38212  -0.096   4.841   9.451  0.5160  1.3298  0.2710
 1002MOL0     H38213  -0.036   4.725   9.675  0.4387 -0.1581 -2.0031
 1002MOL0     H38214  -0.204   4.784   9.723 -0.4133 -1.6987  0.0929
 1002MOL0     H38215  -0.314   4.680   9.544  1.2510  0.3441 -2.1389
 1002MOL0     H38216  -0.165   4.614   9.484 -1.0251 -1.3375 -0.5660
 1002MOL0     H38217  -0.329   4.559   9.740  0.3481  4.0466 -0.4837
 1002MOL0     H38218  -0.157   4.499   9.732  1.1799  0.5844 -0.1757
 1002MOL0     H38219  -0.334   4.327   9.684 -2.3703 -0.3651 -1.0087
 1002MOL0     H38220  -0.393   4.434   9.554 -0.6335  0.3375 -1.7454
 1002MOL0     H38221  -0.214   4.418   9.419 -0.8562  0.2953  0.6354
 1002MOL0     H38222  -0.239   4.256   9.460  0.5128  0.1431  0.4695
 1002MOL0     H38223  -0.008   4.432   9.523 -2.3494  1.2836 -1.4239
 1002MOL0     H38224  -0.066   4.327   9.665  0.2456 -2.3870  0.2626
 1002MOL0     H38225  -0.072   4.059   9.626 -0.8301  2.5227  0.5470
 1002MOL0     H38226   0.092   3.844   9.606 -2.1508  1.7955 -0.9662
 1002MOL0     H38227   0.243   3.860   9.524 -0.6772  0.4098 -2.9064
 1002MOL0     H38228   0.004   3.842   9.358 -0.9593 -1.8936 -0.7129
 1002MOL0     H38229   0.170   3.834   9.307 -1.1576  4.0730  0.4116
 1002MOL0     H38230   0.159   3.596   9.445 -1.0717 -2.2173 -0.6963
 1002MOL0     H38231  -0.004   3.647   9.467 -1.1111 -0.9350 -0.3723
 1002MOL0     H38232   0.001   3.507   9.289  1.0131 -0.6989 -0.9713
 1002MOL0     H38233  -0.046   3.653   9.213 -0.9177 -2.0369 -1.2011
 1002MOL0     H38234   0.353   3.494   9.232 -1.0788 -1.0646  1.6663
 1002MOL0     H38235   0.557   3.248   9.130 -1.3169  3.5129 -2.9762
 1002MOL0     H38236   0.463   3.155   9.246  3.2080 -0.8609 -2.2512
 1002MOL0     H38237   0.496   3.325   9.275  0.6399 -0.0950  0.0968
 1002MOL0     H38238   0.177   2.837   9.184 -0.9119  1.6590 -0.4300
 1002MOL0     H38239   0.227   2.595   9.152 -3.5012 -3.5469 -0.5918
 1002MOL0     H38240   0.399   2.353   8.952 -0.6779  2.8409 -3.6067
 1002MOL0     H38241   0.360   2.440   9.102  1.4140  0.3261 -0.7652
 1002MOL0     H38242   0.316   2.186   9.092 -2.1699 -0.9513  1.3463
 1002MOL0     H38243   0.164   2.275   9.112  1.1102  0.1843  1.0840
 1002MOL0     H38244   0.290   2.127   8.893 -1.3300 -1.4871  1.1434
 1002MOL0     H38245   0.155   2.234   8.841 -1.5090  1.6466  1.8382
 1002MOL0     H38246   0.006   2.071   8.915  0.7534 -0.5260 -1.5074
 1002MOL0     H38247   0.077   2.073   9.076  1.3787  2.0294  1.1740
 1002MOL0     H38248   0.079   1.845   8.960  2.9694 -3.6766  0.3339
 1002MOL0     H38249   0.201   1.916   8.849 -1.9955  2.3111 -0.3853
 1002MOL0     H38250   0.226   1.913   9.167  0.2907 -1.9251  1.5532
 1002MOL0     H38251   0.336   1.961   9.040 -3.6083  4.1063 -0.0256
 1002MOL0     H38252   0.384   1.731   9.151 -0.5922  0.7654  0.3018
 1002MOL0     H38253   0.362   1.706   8.969  0.0056  1.8708 -0.7424
 1002MOL0     H38254   0.256   1.529   9.079 -1.5219 -0.7287  2.3979
 1002MOL0     H38255   0.135   1.629   9.004  0.5139  0.4744 -0.3589
 1002MOL0     H38256   0.137   2.638   8.730 -3.1067 -1.2042  0.0959
 1002MOL0     H38257   0.153   2.875   8.750  1.5222  2.0862  0.3398
 1002MOL0     H38258   0.080   3.223   8.924  1.8419  2.1779 -2.0729
 1002MOL0     H38259  -0.004   3.441   8.994  0.9994 -1.4875 -3.0421
 1002MOL0     H38260   0.055   4.975   9.944  2.2000 -1.1814 -0.3058
 1002MOL0     H38261   0.233   5.084  10.066 -1.1551  2.6297  1.0282
 1002MOL0     H38262   0.601   5.573  10.099 -0.8832 -0.2338  1.1887
 1002MOL0     H38263   0.786   5.566  10.190  0.1250  0.1375  0.2919
 1002MOL0     H38264   1.014   5.182  10.195  0.3433 -1.2137 -0.5151
 1002MOL0     H38265   1.098   5.239  10.054 -0.7395  0.5533 -0.2276
 1002MOL0     H38266   1.183   5.278  10.339 -0.9610  1.3134 -0.8389
 1002MOL0     H38267   1.239   5.376  10.204  0.1627  1.1105  1.4880
 1002MOL0     H38268   1.249   5.065  10.184 -0.0777 -1.2989 -0.0782
 1002MOL0     H38269   1.307   5.179  10.079 -1.5269 -4.6878  0.3985
 1002MOL0     H38270   1.461   5.269  10.268  1.3548 -0.0629 -0.2809
 1002MOL0     H38271   1.498   5.115  10.191  1.1212 -2.1052  3.4500
 1002MOL0     H38272   1.384   5.057  10.613  0.4956 -1.1278 -0.0831
 1002MOL0     H38273   0.862   5.171  10.032 -0.0139 -0.2457  1.1927
 1002MOL0     H38274   0.685   5.037   9.973 -1.4681 -1.7939  0.5225
 1002MOL0     H38275   0.524   5.092   9.957  0.6483  0.3641  0.8530
 1002MOL0     H38276   0.655   5.130   9.831  0.4487 -1.0475 -0.1830
 1003MOL0     O38277  10.610   2.631   8.219  0.4673  0.5821  0.3369
 1003MOL0     C38278  10.693   2.543   8.179  0.0930  0.3293  0.3609
 1003MOL0     O38279  10.663   2.408   8.158 -0.7461  0.6672 -0.5995
 1003MOL0     C38280  10.545   2.357   8.210 -1.2446 -1.3671 -0.9794
 1003MOL0     C38281  10.549   2.265   8.316 -1.0254 -0.6108  0.5157
 1003MOL0     C38282  10.433   2.231   8.384 -0.6983 -0.8452 -0.0559
 1003MOL0     C38283  10.303   2.280   8.340 -0.6945 -0.2752  1.0636
 1003MOL0     O38284  10.188   2.236   8.395  0.5939  0.5133  0.2632
 1003MOL0     C38285  10.158   2.271   8.533 -0.2813 -0.2280 -0.4235
 1003MOL0     C38286  10.022   2.230   8.577  0.1014 -0.1341 -0.2716
 1003MOL0     C38287   9.997   2.071   8.590  0.5017 -1.2454  1.4080
 1003MOL0     C38288   9.862   2.046   8.657  0.3151  0.6318  0.1590
 1003MOL0     C38289   9.739   2.120   8.605  0.5081  0.3431  0.9471
 1003MOL0     C38290   9.617   2.033   8.618  0.6085  0.6081 -0.1343
 1003MOL0     C38291   9.495   2.123   8.588 -0.1268  0.0640 -0.0935
 1003MOL0     C38292   9.460   2.130   8.442 -0.2106 -0.1676  0.7435
 1003MOL0     N38293   9.414   2.005   8.383  0.2656  0.1224 -0.3857
 1003MOL0     C38294   9.491   1.913   8.317  0.3689 -0.0319  1.7315
 1003MOL0     C38295   9.398   1.834   8.255 -0.0830 -0.2162  0.4527
 1003MOL0     C38296   9.432   1.721   8.162 -0.5300  0.3898 -0.6550
 1003MOL0     C38297   9.320   1.680   8.074  0.6411  0.7794  0.1675
 1003MOL0     C38298   9.358   1.582   7.964 -0.1926 -0.6293 -0.0549
 1003MOL0     C38299   9.222   1.523   7.903 -0.3779 -0.7752  0.5966
 1003MOL0     O38300   9.268   1.439   7.797  0.3403  0.0416 -0.1603
 1003MOL0     C38301   9.272   1.312   7.827  0.3721  0.0179 -0.4031
 1003MOL0     C38302   9.164   1.230   7.860  0.0679 -0.8124 -0.5247
 1003MOL0     C38303   9.181   1.097   7.897  0.2743  0.6622  0.2504
 1003MOL0     C38304   9.054   1.027   7.932  1.0220 -0.2302 -0.0043
 1003MOL0     C38305   9.307   1.035   7.896 -0.2116 -0.0391 -1.7460
 1003MOL0     C38306   9.326   0.894   7.920  0.1013 -0.3063 -1.2370
 1003MOL0     O38307   9.450   0.847   7.942 -0.3991 -0.3944 -0.7131
 1003MOL0     C38308   9.486   0.720   7.920 -1.1104  0.0380 -0.1496
 1003MOL0     C38309   9.573   0.651   8.002  0.4598 -0.4328  1.1683
 1003MOL0     C38310   9.625   0.524   7.975  0.9085  0.0021  0.2393
 1003MOL0     C38311   9.575   0.455   7.859  1.0743 -0.5223  0.1059
 1003MOL0     O38312   9.612   0.330   7.814 -0.5401  0.0667 -0.2020
 1003MOL0     C38313   9.735   0.282   7.872  0.2632  0.1843  0.2513
 1003MOL0     C38314   9.783   0.151   7.818  0.6957 -0.3521  0.0237
 1003MOL0     C38315   9.666   0.047   7.829 -0.1999  0.5832 -0.5873
 1003MOL0     C38316   9.730  -0.091   7.850  0.1339  0.4215 -0.2025
 1003MOL0     C38317   9.627  -0.211   7.870 -0.3176  0.3067  0.0438
 1003MOL0     C38318   9.515  -0.216   7.765  0.6362 -0.9879  0.7506
 1003MOL0     C38319   9.412  -0.324   7.788 -0.6007 -0.0545 -0.2547
 1003MOL0     C38320   9.337  -0.376   7.663 -0.3442  0.2120 -0.6365
 1003MOL0    Cl38321   9.438  -0.474   7.554 -0.9244  0.4268  0.1908
 1003MOL0     C38322   9.490   0.523   7.779 -1.0711  0.2647  1.3540
 1003MOL0     C38323   9.455   0.658   7.802 -0.1234 -0.2424 -0.3120
 1003MOL0     O38324   9.230   0.817   7.941 -0.1327  0.6751 -0.1348
 1003MOL0     C38325   9.413   1.121   7.873 -0.0510  0.3481 -0.5312
 1003MOL0     C38326   9.397   1.253   7.837 -0.5654  0.1278  0.0138
 1003MOL0     N38327   9.275   1.874   8.292  0.2279 -0.3473 -0.3743
 1003MOL0     N38328   9.281   1.971   8.377  0.2721 -0.3300  0.1723
 1003MOL0     C38329  10.301   2.376   8.236  0.6039  0.3957  0.8447
 1003MOL0     C38330  10.423   2.416   8.173 -0.6007  0.4792 -0.9019
 1003MOL0     C38331  10.828   2.588   8.123 -0.2028  0.1444 -1.2450
 1003MOL0     C38332  10.834   2.725   8.092  0.7943 -0.3756  0.9466
 1003MOL0     C38333  10.947   2.782   8.033 -0.1179 -0.2967  0.0441
 1003MOL0     C38334  11.062   2.711   8.027  0.5333  1.3030  0.7682
 1003MOL0     O38335  11.175   2.766   7.967  0.5905  0.5268 -0.6943
 1003MOL0     C38336  11.237   2.874   8.037  0.4400  1.0084  0.1335
 1003MOL0     C38337  11.381   2.892   8.020 -0.5914  0.0856 -0.1534
 1003MOL0     C38338  11.435   2.916   7.883  0.9548 -0.3094  0.1313
 1003MOL0     C38339  11.586   2.938   7.876 -0.4518 -0.1394 -0.2167
 1003MOL0     C38340  11.667   2.841   7.945 -0.0636 -0.2043  0.3594
 1003MOL0     C38341  11.732   2.765   8.018 -0.5388  0.8311  0.6398
 1003MOL0     C38342  11.062   2.584   8.072  1.0765  0.7610 -1.0824
 1003MOL0     C38343  10.945   2.519   8.118  0.8022 -0.3142 -0.2898
 1003MOL0     C38344  10.948   2.375   8.136  0.4241  0.6512 -0.3514
 1003MOL0     H38345  10.642   2.211   8.332  1.5107  2.8649 -1.1918
 1003MOL0     H38346  10.434   2.140   8.444 -2.7345 -1.9734 -1.6211
 1003MOL0     H38347  10.174   2.378   8.547  1.7462 -0.5647  0.1977
 1003MOL0     H38348  10.228   2.220   8.599  1.0463  0.7034 -1.0658
 1003MOL0     H38349  10.023   2.274   8.678  3.5880 -1.1298  0.2575
 1003MOL0     H38350   9.942   2.278   8.520 -1.0143 -1.3974  0.1777
 1003MOL0     H38351  10.004   2.016   8.495 -0.2997 -0.6843  1.0121
 1003MOL0     H38352  10.073   2.033   8.660  0.7233 -1.4986  1.0343
 1003MOL0     H38353   9.837   1.939   8.650  0.9338  0.4539  0.5691
 1003MOL0     H38354   9.872   2.062   8.764 -0.8079 -2.4346  0.8351
 1003MOL0     H38355   9.755   2.158   8.503 -0.9082 -1.1209  0.1278
 1003MOL0     H38356   9.730   2.208   8.669  0.9414 -0.6215  2.3638
 1003MOL0     H38357   9.621   1.937   8.568  0.9991  0.9349 -0.7447
 1003MOL0     H38358   9.607   2.024   8.726  0.6339  0.6096 -0.1314
 1003MOL0     H38359   9.505   2.221   8.636  1.9703  1.4886 -3.1181
 1003MOL0     H38360   9.402   2.074   8.620  2.6645 -3.0605  4.3685
 1003MOL0     H38361   9.379   2.203   8.439 -0.6768 -0.6971  0.1713
 1003MOL0     H38362   9.547   2.174   8.391 -0.6987 -0.7000 -0.6099
 1003MOL0     H38363   9.598   1.920   8.302  0.1143  0.4762 -0.1024
 1003MOL0     H38364   9.468   1.633   8.215  0.8562  2.1324  1.4516
 1003MOL0     H38365   9.519   1.759   8.108 -0.4177 -0.6927 -1.2642
 1003MOL0     H38366   9.243   1.641   8.141  1.7467 -2.2223 -0.1711
 1003MOL0     H38367   9.282   1.762   8.012 -0.4072  1.6878  1.9024
 1003MOL0     H38368   9.410   1.646   7.892  0.9056  0.1617  1.3896
 1003MOL0     H38369   9.422   1.498   7.991  0.9778  1.1398  3.1651
 1003MOL0     H38370   9.177   1.460   7.980  0.5739  0.4467  2.2226
 1003MOL0     H38371   9.149   1.599   7.874  0.8710  0.9393  1.7239
 1003MOL0     H38372   9.070   1.284   7.861  1.8324  2.5171 -0.3311
 1003MOL0     H38373   9.034   0.953   7.854  1.5261 -0.4188  0.0383
 1003MOL0     H38374   8.968   1.094   7.930  1.8811  0.8791 -0.7675
 1003MOL0     H38375   9.053   0.973   8.028 -2.5192 -2.5582 -1.1565
 1003MOL0     H38376   9.615   0.693   8.093  0.2037  0.0598  1.0590
 1003MOL0     H38377   9.705   0.478   8.031  0.9839  1.0040  0.9899
 1003MOL0     H38378   9.811   0.355   7.845  0.1281 -0.1904 -1.2036
 1003MOL0     H38379   9.734   0.271   7.981 -0.7102  1.8385  0.4505
 1003MOL0     H38380   9.798   0.148   7.710 -0.8222 -3.6717 -0.2045
 1003MOL0     H38381   9.867   0.114   7.878 -1.4872 -0.7143  3.0682
 1003MOL0     H38382   9.616   0.046   7.732  0.5473 -1.5324 -0.9974
 1003MOL0     H38383   9.595   0.078   7.907 -1.0218  0.0761 -1.1232
 1003MOL0     H38384   9.786  -0.091   7.945  4.2422 -1.3386 -2.3441
 1003MOL0     H38385   9.794  -0.123   7.767 -0.9013  2.4149 -1.8585
 1003MOL0     H38386   9.690  -0.301   7.863 -1.1607 -0.4509  1.7009
 1003MOL0     H38387   9.582  -0.227   7.968 -2.0829  1.7544 -0.4817
 1003MOL0     H38388   9.565  -0.243   7.672 -2.0587  0.4155 -1.2419
 1003MOL0     H38389   9.475  -0.114   7.760 -0.7105 -1.5143  0.2232
 1003MOL0     H38390   9.336  -0.285   7.856 -1.5515 -0.6254 -0.9832
 1003MOL0     H38391   9.469  -0.397   7.846  1.2099  1.5088  0.0537
 1003MOL0     H38392   9.308  -0.291   7.601  1.6527  1.2313 -0.2749
 1003MOL0     H38393   9.248  -0.432   7.690 -0.7014  0.0439 -2.1096
 1003MOL0     H38394   9.449   0.476   7.690  1.5257  0.8414 -0.2525
 1003MOL0     H38395   9.380   0.697   7.735 -0.6117 -0.1429  0.2867
 1003MOL0     H38396   9.512   1.080   7.889 -0.3522  0.3033  1.5197
 1003MOL0     H38397   9.472   1.327   7.810  2.1949 -0.8884  3.9251
 1003MOL0     H38398  10.209   2.430   8.217  1.1750  1.7371  1.7632
 1003MOL0     H38399  10.427   2.487   8.091 -0.3477  0.6797 -0.7184
 1003MOL0     H38400  10.749   2.793   8.093  1.5791  0.6159  1.3568
 1003MOL0     H38401  10.940   2.885   7.999 -0.8741 -0.3646 -0.0161
 1003MOL0     H38402  11.192   2.970   8.009  2.1722  1.7132 -0.3503
 1003MOL0     H38403  11.208   2.864   8.142 -1.8274  0.4245 -0.4925
 1003MOL0     H38404  11.432   2.802   8.057 -2.4379 -0.3666  1.4036
 1003MOL0     H38405  11.424   2.977   8.072  1.1547  0.1758 -1.6264
 1003MOL0     H38406  11.409   2.831   7.819 -1.7047 -0.5273  1.3869
 1003MOL0     H38407  11.375   2.996   7.840 -0.8940 -1.0529  1.2264
 1003MOL0     H38408  11.600   3.023   7.943 -0.7838  0.3879 -0.8054
 1003MOL0     H38409  11.627   2.968   7.779 -0.3389  0.0596 -0.1076
 1003MOL0     H38410  11.790   2.706   8.086 -3.0718 -1.5920  0.8566
 1003MOL0     H38411  11.147   2.518   8.057  0.2046 -2.0837  4.1852
 1003MOL0     H38412  11.045   2.325   8.131  0.2497 -0.0524  2.0186
 1003MOL0     H38413  10.896   2.343   8.227 -4.6844 -1.1521 -3.5388
 1003MOL0     H38414  10.896   2.318   8.059  0.5632 -1.5561  1.0857
 1004MOL0     O38415   1.537   9.963   9.751  0.1530  0.6663 -0.1308
 1004MOL0     C38416   1.644  10.008   9.776 -0.0698  0.2748 -0.5365
 1004MOL0     O38417   1.742  10.009   9.684 -0.4851  0.3896  1.1539
 1004MOL0     C38418   1.715   9.982   9.550 -0.0759  0.1913  0.9868
 1004MOL0     C38419   1.612  10.039   9.468  0.8093 -0.3348 -0.1605
 1004MOL0     C38420   1.584   9.976   9.340  0.1612 -0.0456  0.1123
 1004MOL0     C38421   1.666   9.875   9.286 -0.0890 -0.1454 -0.6342
 1004MOL0     O38422   1.648   9.803   9.170  0.3783 -0.0869  1.0252
 1004MOL0     C38423   1.631   9.897   9.067  0.1750  0.6703  0.3840
 1004MOL0     C38424   1.657   9.847   8.927  0.5561 -0.5079 -0.7210
 1004MOL0     C38425   1.620   9.964   8.828  0.5751 -0.0246 -0.3230
 1004MOL0     C38426   1.554   9.908   8.705  0.2145 -0.5269  0.4241
 1004MOL0     C38427   1.401   9.875   8.733 -1.1867  0.6343  0.3790
 1004MOL0     C38428   1.324   9.839   8.597  0.3982  0.2936 -0.1151
 1004MOL0     C38429   1.182   9.779   8.625  0.2989 -0.5201 -0.5864
 1004MOL0     C38430   1.086   9.869   8.693  0.1489 -0.9209 -0.6275
 1004MOL0     N38431   1.113   9.872   8.835  0.5259  0.6728  0.0079
 1004MOL0     C38432   1.123   9.753   8.917 -0.3235 -0.3727 -0.4342
 1004MOL0     C38433   1.141   9.816   9.032 -0.0410 -0.2612 -0.1184
 1004MOL0     C38434   1.172   9.743   9.162 -0.7064 -0.1245 -0.4741
 1004MOL0     C38435   1.325   9.691   9.137  1.1070 -0.6342 -0.1903
 1004MOL0     C38436   1.343   9.571   9.221  0.0483  0.1733 -0.1370
 1004MOL0     C38437   1.417   9.458   9.146 -0.5633 -0.0339 -0.0863
 1004MOL0     O38438   1.326   9.414   9.037  0.9268  0.0321 -0.4331
 1004MOL0     C38439   1.380   9.317   8.954  1.4720 -0.4214  0.5774
 1004MOL0     C38440   1.503   9.261   8.970 -0.1079  0.6823  0.0336
 1004MOL0     C38441   1.560   9.162   8.881  0.3051 -0.1333  0.3757
 1004MOL0     C38442   1.703   9.112   8.910 -1.1103 -0.4181  0.2590
 1004MOL0     C38443   1.478   9.110   8.774 -0.5299 -1.0968 -0.3552
 1004MOL0     C38444   1.515   9.008   8.669 -0.3587 -0.2952 -0.1047
 1004MOL0     O38445   1.419   8.948   8.588  0.2234  0.5582  0.3429
 1004MOL0     C38446   1.467   8.869   8.488 -0.5643  1.0960 -0.4604
 1004MOL0     C38447   1.549   8.749   8.518 -0.4597 -0.2467  0.4050
 1004MOL0     C38448   1.576   8.664   8.410  0.7200 -1.1197 -0.2156
 1004MOL0     C38449   1.525   8.684   8.281 -0.2571  0.2679 -0.9339
 1004MOL0     O38450   1.545   8.611   8.178 -0.4620  1.3492  0.7504
 1004MOL0     C38451   1.628   8.497   8.181 -0.7156  0.1917 -0.2323
 1004MOL0     C38452   1.615   8.425   8.053  0.0613 -0.3254 -0.8037
 1004MOL0     C38453   1.467   8.387   8.036 -0.2179 -0.7428  0.0969
 1004MOL0     C38454   1.455   8.285   7.914 -0.5154  0.4283  0.2031
 1004MOL0     C38455   1.326   8.194   7.931 -0.8362 -0.5401 -0.6173
 1004MOL0     C38456   1.340   8.057   7.868 -0.1866  0.2838  1.2281
 1004MOL0     C38457   1.373   8.061   7.713 -0.4595  0.2299  0.1257
 1004MOL0     C38458   1.258   8.069   7.612  0.6945  1.0789 -0.1192
 1004MOL0    Cl38459   1.151   7.925   7.641 -0.2570 -0.3191 -0.4335
 1004MOL0     C38460   1.454   8.794   8.253 -0.1924  0.2137 -0.5075
 1004MOL0     C38461   1.424   8.889   8.362  0.2487 -0.1956  0.9976
 1004MOL0     O38462   1.633   8.989   8.662 -0.2256 -0.1024  0.4033
 1004MOL0     C38463   1.350   9.170   8.757 -0.2177 -0.4948  0.2550
 1004MOL0     C38464   1.305   9.270   8.844 -0.2614  0.5650 -0.4661
 1004MOL0     N38465   1.150   9.955   9.028  0.5518 -0.8452  0.0807
 1004MOL0     N38466   1.123   9.990   8.906 -0.5804  0.7536  0.3993
 1004MOL0     C38467   1.770   9.833   9.357 -0.7820 -1.2734 -0.8682
 1004MOL0     C38468   1.785   9.875   9.499  0.1458  0.5306 -0.6038
 1004MOL0     C38469   1.670  10.057   9.918  0.0282  0.1851  0.2953
 1004MOL0     C38470   1.800  10.112   9.937 -0.1233  0.0389 -0.1566
 1004MOL0     C38471   1.833  10.159  10.060 -1.1659  0.3948 -0.0913
 1004MOL0     C38472   1.749  10.149  10.171 -1.2159 -0.1031  0.3120
 1004MOL0     O38473   1.797  10.178  10.296  0.2912 -0.4471  0.5650
 1004MOL0     C38474   1.740  10.298  10.354 -0.2655  0.2718  0.1406
 1004MOL0     C38475   1.703  10.299  10.501 -0.0601  0.0250 -0.3486
 1004MOL0     C38476   1.584  10.212  10.510 -0.3631 -0.3900 -0.8170
 1004MOL0     C38477   1.562  10.192  10.662 -0.0808 -0.6681  0.2656
 1004MOL0     C38478   1.489  10.309  10.722  0.1010  0.3319 -1.5706
 1004MOL0     C38479   1.418  10.388  10.787 -0.0407  1.0033 -0.0954
 1004MOL0     C38480   1.631  10.093  10.160  0.3174  0.0136 -0.7030
 1004MOL0     C38481   1.588  10.047  10.034 -0.8572 -0.3558  1.0696
 1004MOL0     C38482   1.461   9.974  10.024  0.6477 -0.1957  0.3209
 1004MOL0     H38483   1.549  10.117   9.509  1.5345  1.0098 -1.4946
 1004MOL0     H38484   1.499  10.015   9.284  1.6502 -0.2912 -2.5066
 1004MOL0     H38485   1.699   9.979   9.091  1.1969 -0.3979  1.3122
 1004MOL0     H38486   1.535   9.946   9.080 -0.3304 -0.5270  1.3514
 1004MOL0     H38487   1.764   9.825   8.925  0.5066 -1.5279  2.4794
 1004MOL0     H38488   1.596   9.758   8.906 -1.8340  1.1934 -1.4539
 1004MOL0     H38489   1.554  10.041   8.870  1.5670  1.0381 -0.6410
 1004MOL0     H38490   1.715  10.012   8.801  1.6235 -1.1993  1.1152
 1004MOL0     H38491   1.548   9.989   8.632  1.1660 -2.0550 -1.4492
 1004MOL0     H38492   1.598   9.818   8.661  0.6519 -0.6088  1.0138
 1004MOL0     H38493   1.348   9.956   8.784 -0.4243  1.5317 -0.2370
 1004MOL0     H38494   1.398   9.788   8.800 -1.8980  0.5541  0.2559
 1004MOL0     H38495   1.322   9.928   8.534 -0.8136  0.5719  0.2964
 1004MOL0     H38496   1.375   9.760   8.540 -0.7787  1.3158 -2.7035
 1004MOL0     H38497   1.188   9.689   8.688 -1.1380 -0.8400 -0.8582
 1004MOL0     H38498   1.145   9.754   8.525  2.2189 -1.8502 -1.0111
 1004MOL0     H38499   1.077   9.969   8.649 -2.1450 -0.9494 -0.3588
 1004MOL0     H38500   0.987   9.823   8.679 -0.0198 -0.1954 -1.9538
 1004MOL0     H38501   1.103   9.650   8.889 -1.2711 -0.4041  0.3262
 1004MOL0     H38502   1.105   9.659   9.183  0.7981 -0.9323  1.3797
 1004MOL0     H38503   1.169   9.809   9.248  2.3135  2.9808 -2.4986
 1004MOL0     H38504   1.323   9.655   9.033 -2.5873  1.2087 -0.9451
 1004MOL0     H38505   1.403   9.768   9.141 -0.1509  1.0715 -3.9035
 1004MOL0     H38506   1.415   9.614   9.292  1.1892 -1.6378 -0.1310
 1004MOL0     H38507   1.268   9.543   9.296  1.5380 -1.3953  0.8429
 1004MOL0     H38508   1.510   9.495   9.102  1.3544  0.2304  3.7925
 1004MOL0     H38509   1.459   9.380   9.210  0.9107  0.8510  0.0821
 1004MOL0     H38510   1.556   9.269   9.065  0.5443 -0.6077 -0.1871
 1004MOL0     H38511   1.724   9.009   8.941 -1.1747  0.2260  2.5733
 1004MOL0     H38512   1.745   9.176   8.988  0.4505 -1.5527  0.3740
 1004MOL0     H38513   1.772   9.112   8.825 -0.4779 -1.8224  0.7512
 1004MOL0     H38514   1.590   8.730   8.617  0.6350 -0.1480 -0.0157
 1004MOL0     H38515   1.636   8.577   8.438  0.0397 -1.7185 -0.5921
 1004MOL0     H38516   1.735   8.522   8.182 -1.0619  1.7699 -0.5589
 1004MOL0     H38517   1.596   8.421   8.252 -0.0630 -1.5033 -1.6626
 1004MOL0     H38518   1.645   8.493   7.972  0.1406 -0.0035 -0.5024
 1004MOL0     H38519   1.661   8.327   8.068  0.1860  0.0555  1.6346
 1004MOL0     H38520   1.406   8.474   8.013  0.1796  0.3187  2.7739
 1004MOL0     H38521   1.425   8.337   8.124 -1.1325  0.0402  0.1154
 1004MOL0     H38522   1.544   8.221   7.904  0.0753  1.1390  0.7486
 1004MOL0     H38523   1.444   8.348   7.825 -1.5207  3.3765  2.2346
 1004MOL0     H38524   1.301   8.193   8.038 -1.7583  1.1118 -0.7897
 1004MOL0     H38525   1.241   8.241   7.882 -1.2671 -2.7330 -2.1240
 1004MOL0     H38526   1.247   8.001   7.880  1.7738 -2.9837  2.4869
 1004MOL0     H38527   1.414   7.987   7.909  0.1699 -0.9209 -1.2457
 1004MOL0     H38528   1.420   7.964   7.698  4.8256  2.3058  1.3305
 1004MOL0     H38529   1.455   8.130   7.692 -1.4068  1.9606  1.7888
 1004MOL0     H38530   1.297   8.067   7.510  1.4989  0.6391  0.1922
 1004MOL0     H38531   1.202   8.163   7.619  0.3572  0.9271 -0.6734
 1004MOL0     H38532   1.417   8.790   8.151 -2.5253 -2.1478  0.3147
 1004MOL0     H38533   1.361   8.974   8.340  0.6069 -0.1379  0.1655
 1004MOL0     H38534   1.286   9.120   8.684 -0.6955  0.0893  0.2639
 1004MOL0     H38535   1.204   9.310   8.836 -2.1627 -2.7074  3.3443
 1004MOL0     H38536   1.830   9.752   9.318 -0.3478 -1.3346 -0.0988
 1004MOL0     H38537   1.852   9.825   9.568 -1.0982  0.4868  0.6165
 1004MOL0     H38538   1.866  10.111   9.851  0.2432  0.0457  0.1228
 1004MOL0     H38539   1.936  10.183  10.081 -1.7380  0.6846  2.7242
 1004MOL0     H38540   1.814  10.377  10.337  1.4362 -1.3727 -0.5669
 1004MOL0     H38541   1.656  10.324  10.289  1.1767 -0.2730 -2.0464
 1004MOL0     H38542   1.670  10.400  10.526  1.3492  0.3519  0.2841
 1004MOL0     H38543   1.792  10.271  10.557  0.5110 -0.4591 -1.4506
 1004MOL0     H38544   1.496  10.255  10.461 -1.5757 -2.4489 -0.5496
 1004MOL0     H38545   1.593  10.117  10.457  0.6878 -1.0780  0.5168
 1004MOL0     H38546   1.660  10.168  10.705 -0.1857 -0.9459  0.3526
 1004MOL0     H38547   1.497  10.105  10.671 -1.4969  0.1747 -1.2057
 1004MOL0     H38548   1.366  10.461  10.845  0.2828 -0.4651  2.1314
 1004MOL0     H38549   1.579  10.059  10.249  0.6612  0.1868 -0.4327
 1004MOL0     H38550   1.475   9.867  10.011 -1.8193 -0.6176  0.7301
 1004MOL0     H38551   1.403   9.987  10.116  0.7941 -0.9013  0.5170
 1004MOL0     H38552   1.394  10.011   9.946 -0.4383 -1.8340  0.4374
 1005MOL0     O38553   2.223   8.623   7.032 -0.0837  0.1264 -0.1601
 1005MOL0     C38554   2.109   8.673   7.036 -0.4678 -0.6159  1.3473
 1005MOL0     O38555   2.004   8.598   7.076 -0.5369 -0.2153 -0.1987
 1005MOL0     C38556   2.019   8.464   7.109 -0.9187  0.0594 -0.6434
 1005MOL0     C38557   2.126   8.410   7.179 -0.0819  0.6979 -0.1125
 1005MOL0     C38558   2.141   8.276   7.192 -0.5307 -0.7234 -0.3490
 1005MOL0     C38559   2.052   8.181   7.147  0.5402 -0.1301 -0.3472
 1005MOL0     O38560   2.071   8.046   7.182  0.4079 -0.0628  0.0916
 1005MOL0     C38561   2.086   7.951   7.076  0.3036  0.1371  0.4482
 1005MOL0     C38562   2.221   7.962   6.992  0.6074  0.2079 -0.8220
 1005MOL0     C38563   2.197   7.881   6.872 -0.8194  0.1253  0.2044
 1005MOL0     C38564   2.319   7.874   6.777 -0.1435  0.1224 -0.0911
 1005MOL0     C38565   2.305   7.764   6.668  0.1818  0.2299 -1.0518
 1005MOL0     C38566   2.436   7.741   6.588  0.3128 -1.0829 -0.1736
 1005MOL0     C38567   2.518   7.640   6.668  0.4944 -0.8004 -0.6196
 1005MOL0     C38568   2.648   7.611   6.593 -0.4116  0.3233  0.3489
 1005MOL0     N38569   2.632   7.518   6.480 -1.2005 -0.2882 -0.3125
 1005MOL0     C38570   2.603   7.392   6.513 -0.4093 -0.8400 -0.2884
 1005MOL0     C38571   2.561   7.334   6.397  0.9246  0.5350 -0.3201
 1005MOL0     C38572   2.504   7.194   6.387  0.7856 -0.2935 -0.0335
 1005MOL0     C38573   2.370   7.189   6.463 -0.3033 -0.2893 -0.3702
 1005MOL0     C38574   2.261   7.274   6.390  0.1327 -0.2572 -0.2836
 1005MOL0     C38575   2.127   7.188   6.396 -0.4046  0.3222 -0.9436
 1005MOL0     O38576   2.070   7.152   6.525  0.6688 -0.2971 -0.6858
 1005MOL0     C38577   2.033   7.249   6.620 -0.5305 -0.0377 -0.0257
 1005MOL0     C38578   1.985   7.184   6.740 -0.6478 -0.3734  1.1661
 1005MOL0     C38579   1.941   7.255   6.851  0.2711 -0.3661 -0.2343
 1005MOL0     C38580   1.878   7.194   6.977  0.5327 -0.5307  0.6015
 1005MOL0     C38581   1.957   7.400   6.851  0.1479  0.8528  1.0241
 1005MOL0     C38582   1.918   7.490   6.962  0.3574  0.0754  0.1478
 1005MOL0     O38583   1.925   7.450   7.095 -0.0043 -0.5007 -0.4940
 1005MOL0     C38584   1.899   7.545   7.195  0.7724 -0.3993 -0.4554
 1005MOL0     C38585   1.762   7.579   7.232  0.6899  0.3998 -0.0870
 1005MOL0     C38586   1.750   7.665   7.344  0.5361 -0.1480 -0.4105
 1005MOL0     C38587   1.852   7.699   7.433  0.1128 -0.4920  0.2565
 1005MOL0     O38588   1.820   7.762   7.552  0.8203 -0.4248  0.2589
 1005MOL0     C38589   1.893   7.881   7.581 -0.1999  0.4154 -0.3197
 1005MOL0     C38590   1.801   7.994   7.641  0.6011 -0.2797 -0.2978
 1005MOL0     C38591   1.733   8.080   7.531  0.3680  0.0069 -0.1452
 1005MOL0     C38592   1.676   7.993   7.413  0.4210 -0.8382 -0.1309
 1005MOL0     C38593   1.618   8.088   7.314  0.7500 -0.1852 -0.4595
 1005MOL0     C38594   1.560   8.007   7.198  0.3113 -0.8121 -0.2832
 1005MOL0     C38595   1.572   8.076   7.064 -0.3843 -0.6131 -0.3583
 1005MOL0     C38596   1.668   8.009   6.962 -0.9105 -0.4317  0.4328
 1005MOL0    Cl38597   1.676   8.127   6.833 -0.4968  0.2945  0.6200
 1005MOL0     C38598   1.975   7.647   7.397  0.1763  1.2785  1.2357
 1005MOL0     C38599   1.999   7.569   7.281  0.0925 -0.6152  0.1468
 1005MOL0     O38600   1.882   7.602   6.927 -0.9614 -0.4142  0.3129
 1005MOL0     C38601   1.991   7.453   6.720 -0.6355 -0.5730  0.3784
 1005MOL0     C38602   2.032   7.387   6.611 -0.3749  1.0746  0.4850
 1005MOL0     N38603   2.559   7.437   6.305 -0.0872  0.5578  0.0028
 1005MOL0     N38604   2.612   7.549   6.358  0.0977 -0.3693 -0.0622
 1005MOL0     C38605   1.943   8.244   7.077  0.6431 -0.2546  0.0824
 1005MOL0     C38606   1.925   8.382   7.058  0.1779 -0.2005  0.6747
 1005MOL0     C38607   2.087   8.813   6.981 -0.7463 -0.4208  0.1685
 1005MOL0     C38608   1.957   8.859   6.998  0.8503  0.1489  0.3903
 1005MOL0     C38609   1.900   8.977   6.942  0.5076  0.3565 -0.3410
 1005MOL0     C38610   1.985   9.047   6.861  0.4587 -0.2912  0.0852
 1005MOL0     O38611   1.943   9.162   6.792  0.1888 -0.1500 -0.0467
 1005MOL0     C38612   1.834   9.154   6.696 -0.4441 -0.3220 -0.4562
 1005MOL0     C38613   1.744   9.279   6.721 -0.6706  0.5227 -0.2791
 1005MOL0     C38614   1.820   9.406   6.666 -0.0052  0.0138 -0.7451
 1005MOL0     C38615   1.763   9.531   6.733  0.1778  0.0362 -0.3715
 1005MOL0     C38616   1.789   9.529   6.879 -0.1439 -0.1511 -0.6031
 1005MOL0     C38617   1.799   9.518   6.998  0.0821  0.5582 -0.4705
 1005MOL0     C38618   2.124   9.022   6.855  0.1272 -0.7711  0.0412
 1005MOL0     C38619   2.176   8.903   6.915  0.5429 -0.1327 -0.3250
 1005MOL0     C38620   2.323   8.874   6.896  0.0006 -0.1195  0.7622
 1005MOL0     H38621   2.210   8.467   7.218  0.4984 -1.6815  2.4777
 1005MOL0     H38622   2.242   8.243   7.214 -0.3546 -2.0523 -2.7808
 1005MOL0     H38623   2.005   7.963   7.004 -1.6206 -3.1931  1.8392
 1005MOL0     H38624   2.073   7.853   7.122  2.1748 -0.1103  0.5085
 1005MOL0     H38625   2.240   8.066   6.961 -0.0761  0.0377 -1.8292
 1005MOL0     H38626   2.303   7.920   7.051 -0.3943 -1.0602 -0.2998
 1005MOL0     H38627   2.159   7.782   6.900  2.5935 -1.3142  0.1896
 1005MOL0     H38628   2.125   7.937   6.811  1.1672  0.9421 -1.4980
 1005MOL0     H38629   2.359   7.971   6.747 -2.1293  1.2506  0.7017
 1005MOL0     H38630   2.401   7.828   6.834 -0.1118 -2.9228 -2.3487
 1005MOL0     H38631   2.224   7.789   6.599  0.0645  0.6829 -0.7532
 1005MOL0     H38632   2.274   7.671   6.716 -2.1635  0.4011 -2.1005
 1005MOL0     H38633   2.421   7.710   6.484  0.3238  2.4431 -1.3596
 1005MOL0     H38634   2.486   7.838   6.577 -0.2333 -0.8275 -0.4064
 1005MOL0     H38635   2.450   7.558   6.692 -0.3893  0.4154  1.2759
 1005MOL0     H38636   2.557   7.669   6.766 -1.7063 -0.3464  0.1592
 1005MOL0     H38637   2.699   7.703   6.565  0.8764  0.6475  3.3681
 1005MOL0     H38638   2.703   7.552   6.667  1.9406  1.3512 -0.4891
 1005MOL0     H38639   2.602   7.347   6.612 -2.3657  4.0350  2.2269
 1005MOL0     H38640   2.582   7.127   6.425 -1.8526 -3.1052  0.8329
 1005MOL0     H38641   2.499   7.169   6.281  2.4302  5.1991 -1.7223
 1005MOL0     H38642   2.348   7.083   6.472  5.2642 -1.7868 -0.6826
 1005MOL0     H38643   2.387   7.232   6.563 -0.0436 -0.7274 -0.2239
 1005MOL0     H38644   2.254   7.374   6.435 -0.5452 -0.2448 -0.4097
 1005MOL0     H38645   2.280   7.293   6.284 -0.2222  0.4453 -0.2256
 1005MOL0     H38646   2.041   7.230   6.342 -0.9665 -1.5543 -1.5905
 1005MOL0     H38647   2.150   7.090   6.353 -2.3090 -0.2000 -0.8440
 1005MOL0     H38648   1.983   7.076   6.746 -0.2936 -0.4641  0.0065
 1005MOL0     H38649   1.945   7.187   7.063 -1.5058 -2.4452  2.1382
 1005MOL0     H38650   1.851   7.092   6.951  0.8463 -0.7954  1.2850
 1005MOL0     H38651   1.792   7.251   7.011  1.0549 -0.1386  1.2939
 1005MOL0     H38652   1.668   7.545   7.189 -1.0045  2.1657  2.0047
 1005MOL0     H38653   1.652   7.693   7.382  0.0135 -0.9295 -1.1287
 1005MOL0     H38654   1.969   7.845   7.651 -2.1454 -0.5330  1.4170
 1005MOL0     H38655   1.949   7.916   7.494  0.0562 -0.2666 -0.4339
 1005MOL0     H38656   1.722   7.963   7.709 -1.3216  2.4810 -1.0781
 1005MOL0     H38657   1.857   8.065   7.703  0.4533 -0.9434  0.6042
 1005MOL0     H38658   1.810   8.146   7.489  0.9635 -0.5415  0.0599
 1005MOL0     H38659   1.662   8.143   7.585  2.9159  1.1100  2.1436
 1005MOL0     H38660   1.594   7.935   7.456 -1.3936  1.0014 -0.9354
 1005MOL0     H38661   1.744   7.918   7.371  2.7549 -0.6724  2.9750
 1005MOL0     H38662   1.533   8.141   7.358  1.7435  0.9596  0.1483
 1005MOL0     H38663   1.687   8.165   7.276  0.4864 -0.4922 -1.6168
 1005MOL0     H38664   1.453   8.011   7.220 -0.1857 -0.4425 -2.5121
 1005MOL0     H38665   1.592   7.903   7.191  4.1697  0.2480 -0.7077
 1005MOL0     H38666   1.597   8.181   7.082  1.5239 -1.1591  0.4532
 1005MOL0     H38667   1.476   8.069   7.012 -0.1564 -0.9253 -0.7404
 1005MOL0     H38668   1.628   7.914   6.927 -0.4669 -1.1145  1.7344
 1005MOL0     H38669   1.767   8.003   7.008 -0.1837  0.9964 -0.8328
 1005MOL0     H38670   2.067   7.661   7.453  1.5542 -1.9440  0.0165
 1005MOL0     H38671   2.094   7.521   7.260 -0.6588 -2.6415  1.1089
 1005MOL0     H38672   2.019   7.558   6.729 -0.9120 -0.5860  1.5851
 1005MOL0     H38673   2.036   7.443   6.518 -1.8425  0.9715  0.3378
 1005MOL0     H38674   1.872   8.177   7.029  1.4180 -0.0519 -1.4175
 1005MOL0     H38675   1.837   8.425   7.009  0.0173 -1.2304  0.0302
 1005MOL0     H38676   1.880   8.802   7.049  1.4843 -1.6568 -0.5669
 1005MOL0     H38677   1.805   9.021   6.973 -0.0148  0.1722 -1.6428
 1005MOL0     H38678   1.873   9.144   6.594  0.0698 -3.0780 -0.0637
 1005MOL0     H38679   1.773   9.066   6.718  0.2865 -1.1452 -1.6115
 1005MOL0     H38680   1.733   9.270   6.829 -1.2772 -1.4936 -0.4594
 1005MOL0     H38681   1.642   9.272   6.681 -0.6947  2.0678 -0.5369
 1005MOL0     H38682   1.927   9.390   6.684 -0.2440 -2.1743 -0.9825
 1005MOL0     H38683   1.804   9.403   6.558  0.9072  1.5286 -0.9443
 1005MOL0     H38684   1.657   9.547   6.712 -0.8177 -4.4692  0.2784
 1005MOL0     H38685   1.807   9.622   6.691  1.5029 -0.6214 -0.4951
 1005MOL0     H38686   1.827   9.513   7.101 -0.0218  2.5162 -0.3028
 1005MOL0     H38687   2.176   9.092   6.791  1.8171  0.3520  2.4579
 1005MOL0     H38688   2.380   8.884   6.988  4.3830 -0.7378 -1.5926
 1005MOL0     H38689   2.324   8.773   6.854 -0.2813  0.2331 -0.1268
 1005MOL0     H38690   2.368   8.942   6.823  0.4064  2.1933  3.0405
 1006MOL0     O38691   5.655   0.802  10.114  0.7596 -0.5438  0.2884
 1006MOL0     C38692   5.594   0.736  10.189  0.7729 -0.3473  0.1638
 1006MOL0     O38693   5.524   0.621  10.150  0.0835  0.5845  0.0001
 1006MOL0     C38694   5.498   0.588  10.018 -0.1447  0.1801  0.6481
 1006MOL0     C38695   5.500   0.686   9.918  0.4597  0.2271  0.0948
 1006MOL0     C38696   5.437   0.654   9.795 -0.9464 -0.3848  0.1133
 1006MOL0     C38697   5.395   0.520   9.768 -0.5960 -0.3093  0.5834
 1006MOL0     O38698   5.335   0.494   9.649 -0.4101  0.2483  0.8479
 1006MOL0     C38699   5.275   0.367   9.622  0.1358 -0.3016  0.3932
 1006MOL0     C38700   5.192   0.397   9.496 -0.3138  0.9168  0.1106
 1006MOL0     C38701   5.272   0.412   9.366 -0.6400  0.8176  0.0763
 1006MOL0     C38702   5.187   0.427   9.242  0.3359  0.2913  0.3764
 1006MOL0     C38703   5.285   0.399   9.126  0.2430 -0.7919 -0.3564
 1006MOL0     C38704   5.195   0.418   9.000  0.5413  0.0700  0.2956
 1006MOL0     C38705   5.265   0.375   8.874 -0.3840  0.4572 -0.6030
 1006MOL0     C38706   5.192   0.390   8.742 -0.0312  0.0077  0.3806
 1006MOL0     N38707   5.049   0.371   8.741 -0.1892  1.2514  0.2479
 1006MOL0     C38708   4.947   0.455   8.779 -0.2840 -0.9139  0.2102
 1006MOL0     C38709   4.840   0.383   8.766  0.1834  0.3862  0.0347
 1006MOL0     C38710   4.711   0.424   8.838  0.3611 -0.3207  0.3748
 1006MOL0     C38711   4.686   0.334   8.952 -0.0256 -0.2668 -0.3751
 1006MOL0     C38712   4.791   0.320   9.059 -0.3105  0.7054 -0.4313
 1006MOL0     C38713   4.814   0.431   9.163  0.1701 -1.0087  0.8569
 1006MOL0     O38714   4.859   0.555   9.105 -0.4586 -0.6092  0.7054
 1006MOL0     C38715   4.892   0.659   9.185 -0.6351 -0.0094 -0.2106
 1006MOL0     C38716   4.909   0.656   9.326 -0.8747 -0.4883  0.9621
 1006MOL0     C38717   4.917   0.774   9.396  0.3275 -0.4787 -0.4558
 1006MOL0     C38718   4.922   0.762   9.543 -0.0417  0.7354 -0.8212
 1006MOL0     C38719   4.932   0.901   9.321  0.5644  0.5777 -1.1749
 1006MOL0     C38720   4.947   1.025   9.396  0.7945 -0.3035  0.1977
 1006MOL0     O38721   5.021   1.119   9.330  0.2250 -0.0518 -0.2296
 1006MOL0     C38722   5.042   1.248   9.391  0.2267 -0.0795 -0.0033
 1006MOL0     C38723   5.058   1.269   9.525  0.1201 -0.2163 -1.0968
 1006MOL0     C38724   5.061   1.398   9.584  0.1146 -0.8865  1.2768
 1006MOL0     C38725   5.060   1.510   9.492  0.8713  0.4523  0.0121
 1006MOL0     O38726   5.073   1.635   9.542 -0.0125 -0.7989 -0.3127
 1006MOL0     C38727   5.198   1.679   9.589 -0.2291  0.6599 -0.9365
 1006MOL0     C38728   5.185   1.824   9.651 -0.5593  0.1005  0.8634
 1006MOL0     C38729   5.114   1.820   9.785 -0.0908 -0.8192 -0.2516
 1006MOL0     C38730   5.084   1.967   9.824  0.3226  0.6128  0.0982
 1006MOL0     C38731   5.090   1.971   9.974  0.1078  0.0221 -0.3743
 1006MOL0     C38732   5.070   2.116  10.033 -0.6418  0.4591 -0.2286
 1006MOL0     C38733   5.058   2.118  10.184  0.6189 -0.2636 -0.3849
 1006MOL0     C38734   4.948   2.029  10.260 -0.9160 -0.0987  0.0057
 1006MOL0    Cl38735   4.780   2.091  10.205  0.3560 -0.0860 -0.2537
 1006MOL0     C38736   5.030   1.482   9.358  0.5413 -1.2030  0.7170
 1006MOL0     C38737   5.026   1.356   9.303 -0.8760  0.1096  1.4856
 1006MOL0     O38738   4.875   1.048   9.493  0.9322  0.9772  0.0228
 1006MOL0     C38739   4.912   0.892   9.179 -0.1348 -0.2725  0.1229
 1006MOL0     C38740   4.894   0.773   9.107 -0.4800  0.1327 -0.5283
 1006MOL0     N38741   4.872   0.250   8.739 -0.8484 -0.0359  0.5605
 1006MOL0     N38742   5.000   0.246   8.712  0.1181 -0.1856 -0.3265
 1006MOL0     C38743   5.416   0.421   9.869  0.0060  0.2888  0.5178
 1006MOL0     C38744   5.465   0.456   9.993  0.0642 -0.8474 -0.6554
 1006MOL0     C38745   5.591   0.785  10.334  0.4042 -0.2517  0.6271
 1006MOL0     C38746   5.505   0.712  10.417 -0.8724 -0.1186 -0.1024
 1006MOL0     C38747   5.490   0.746  10.551  0.3284  0.0253  0.7317
 1006MOL0     C38748   5.560   0.850  10.610  0.6810 -0.8173 -0.4103
 1006MOL0     O38749   5.558   0.863  10.746 -0.1946  0.4069 -0.0317
 1006MOL0     C38750   5.655   0.939  10.813 -0.0660 -0.4055 -0.4592
 1006MOL0     C38751   5.654   0.913  10.957 -0.6283  0.4401  0.1124
 1006MOL0     C38752   5.696   0.773  10.994  0.1954  0.7972 -0.8888
 1006MOL0     C38753   5.821   0.721  10.924 -0.1971 -0.4846  0.5551
 1006MOL0     C38754   5.932   0.814  10.944 -1.4345  0.0477 -1.1395
 1006MOL0     C38755   6.015   0.905  10.966 -0.6911  0.2137  0.2232
 1006MOL0     C38756   5.647   0.927  10.534  0.0105 -0.1871  0.6904
 1006MOL0     C38757   5.673   0.889  10.395  0.4826 -0.3730 -0.0157
 1006MOL0     C38758   5.781   0.950  10.318  0.6246 -0.7184  0.2348
 1006MOL0     H38759   5.512   0.791   9.942 -1.2157  0.3032  0.7418
 1006MOL0     H38760   5.421   0.736   9.725 -0.4736 -1.3134 -1.1330
 1006MOL0     H38761   5.209   0.329   9.700 -0.9213  1.7614  0.5746
 1006MOL0     H38762   5.356   0.297   9.599  0.7318  0.8228 -1.1273
 1006MOL0     H38763   5.126   0.310   9.485 -0.4584  0.8598  1.3589
 1006MOL0     H38764   5.132   0.488   9.505  1.8086  2.4409 -0.4804
 1006MOL0     H38765   5.318   0.511   9.374  0.6963  0.1182  1.5233
 1006MOL0     H38766   5.346   0.332   9.360 -0.3958  1.0706 -0.2964
 1006MOL0     H38767   5.109   0.350   9.244  1.6785 -1.1996 -1.1182
 1006MOL0     H38768   5.129   0.519   9.235  1.7516  1.1492 -0.4773
 1006MOL0     H38769   5.320   0.296   9.119  1.0711 -0.4760 -1.1214
 1006MOL0     H38770   5.375   0.461   9.139  0.3696 -1.1897  0.8275
 1006MOL0     H38771   5.098   0.370   9.015  0.5144  0.8534  3.2094
 1006MOL0     H38772   5.168   0.524   8.999 -1.1653 -0.3088  1.4752
 1006MOL0     H38773   5.290   0.269   8.884 -1.0624  0.4318  1.1223
 1006MOL0     H38774   5.364   0.424   8.876 -0.0447 -0.2327 -0.3940
 1006MOL0     H38775   5.201   0.488   8.696 -3.4760 -1.3433 -3.7601
 1006MOL0     H38776   5.245   0.323   8.674  1.7715  0.1607  1.5515
 1006MOL0     H38777   4.958   0.555   8.818 -0.4390  0.6340 -3.3496
 1006MOL0     H38778   4.626   0.423   8.769 -0.0385 -1.7218  0.8442
 1006MOL0     H38779   4.731   0.521   8.882  0.7249  0.0296 -0.5351
 1006MOL0     H38780   4.595   0.363   9.005  1.8107  0.5902  2.5760
 1006MOL0     H38781   4.675   0.232   8.915  1.4043 -0.1505 -1.1835
 1006MOL0     H38782   4.777   0.229   9.119 -0.8341  2.3961  2.1674
 1006MOL0     H38783   4.886   0.295   9.012  0.1938 -2.5938  2.0227
 1006MOL0     H38784   4.737   0.460   9.236  1.0259  1.2608  0.9525
 1006MOL0     H38785   4.901   0.397   9.219 -0.0078  0.8706  2.4055
 1006MOL0     H38786   4.902   0.572   9.394  1.4144  1.2503  3.5535
 1006MOL0     H38787   4.974   0.843   9.595 -0.9440  0.5014  0.4740
 1006MOL0     H38788   4.976   0.671   9.572 -1.3126  0.5765  1.2587
 1006MOL0     H38789   4.825   0.756   9.593  0.1692 -1.4701 -0.5646
 1006MOL0     H38790   5.056   1.185   9.593  0.2909  2.4743  2.5241
 1006MOL0     H38791   5.071   1.406   9.692  1.9844  1.1341  1.0269
 1006MOL0     H38792   5.237   1.623   9.674 -1.7657  0.4185 -0.3539
 1006MOL0     H38793   5.266   1.684   9.504 -0.1828  1.0927 -0.8777
 1006MOL0     H38794   5.285   1.869   9.649 -1.6629  2.6989  1.1008
 1006MOL0     H38795   5.134   1.884   9.575 -0.2896 -0.6620  0.0565
 1006MOL0     H38796   5.170   1.762   9.859 -0.0604  0.3738  0.6990
 1006MOL0     H38797   5.023   1.759   9.778  0.4672 -1.5317 -1.6917
 1006MOL0     H38798   4.985   1.996   9.790  0.2325  1.6743  1.2181
 1006MOL0     H38799   5.151   2.033   9.768  0.9727  0.3577  0.5547
 1006MOL0     H38800   5.004   1.919  10.016  0.7054 -0.9125 -0.2882
 1006MOL0     H38801   5.188   1.946  10.016  0.6586  1.3700 -0.7629
 1006MOL0     H38802   4.977   2.148   9.984 -1.4592 -2.6051 -0.8997
 1006MOL0     H38803   5.153   2.178   9.996 -0.0874 -0.6706 -0.9535
 1006MOL0     H38804   5.042   2.224  10.209 -0.9976 -0.3822 -0.7699
 1006MOL0     H38805   5.152   2.088  10.232 -0.2109 -1.7535  0.3775
 1006MOL0     H38806   4.974   2.027  10.366 -0.2657  1.7134 -0.0720
 1006MOL0     H38807   4.942   1.926  10.224  3.2163  0.0526 -1.5822
 1006MOL0     H38808   5.008   1.570   9.298  0.6544  0.2884  2.7414
 1006MOL0     H38809   5.004   1.343   9.198  2.3831  3.0436  0.2115
 1006MOL0     H38810   4.908   0.979   9.114  1.3768 -0.3762 -0.1420
 1006MOL0     H38811   4.860   0.781   9.004 -1.4105  1.9763 -0.1092
 1006MOL0     H38812   5.386   0.319   9.849  0.0121 -0.7677  4.8970
 1006MOL0     H38813   5.484   0.382  10.070  0.7903  1.8544  1.9249
 1006MOL0     H38814   5.449   0.628  10.375 -1.0870  0.2592 -0.5747
 1006MOL0     H38815   5.437   0.679  10.619  1.4990 -1.2572  0.4222
 1006MOL0     H38816   5.756   0.930  10.773  0.0580 -0.0996 -0.2189
 1006MOL0     H38817   5.618   1.041  10.794 -1.3356 -1.4094 -4.2044
 1006MOL0     H38818   5.555   0.922  11.003 -1.2411 -1.9455 -0.6421
 1006MOL0     H38819   5.726   0.985  10.997  0.5609 -0.8942  0.4512
 1006MOL0     H38820   5.720   0.768  11.101  2.2013  2.1263 -1.2172
 1006MOL0     H38821   5.615   0.702  10.975  1.5831 -2.1684  2.8750
 1006MOL0     H38822   5.792   0.718  10.819 -3.0391 -1.4621  1.2895
 1006MOL0     H38823   5.841   0.618  10.956 -1.8559 -1.3849 -1.1000
 1006MOL0     H38824   6.088   0.983  10.975  0.1081 -0.4277 -0.5944
 1006MOL0     H38825   5.705   1.004  10.583 -0.3414 -0.2676  1.2383
 1006MOL0     H38826   5.842   0.873  10.269  2.4929 -0.1035  1.4770
 1006MOL0     H38827   5.737   1.013  10.240  1.2749  0.2131  0.6032
 1006MOL0     H38828   5.855   0.995  10.385  1.0463 -0.7788 -0.1782
 1007MOL0     O38829   1.385  10.984   0.579  0.5803 -0.4979  0.3455
 1007MOL0     C38830   1.341  11.074   0.504  0.3374 -0.5593 -0.1039
 1007MOL0     O38831   1.401  11.119   0.396  0.5027 -0.0154 -0.2061
 1007MOL0     C38832   1.515  11.062   0.363 -0.4280  1.2066 -0.5173
 1007MOL0     C38833   1.629  11.079   0.449 -0.6524 -0.6345  0.5724
 1007MOL0     C38834   1.756  11.034   0.401  0.0578  0.8815  0.4300
 1007MOL0     C38835   1.778  10.992   0.275 -0.2654 -0.0609 -0.7894
 1007MOL0     O38836   1.904  10.957   0.255 -0.8111  0.4581  0.2317
 1007MOL0     C38837   1.949  10.958   0.115 -0.6028 -0.4725 -0.0883
 1007MOL0     C38838   2.106  10.945   0.105  0.2217  0.2391 -0.5109
 1007MOL0     C38839   2.161  10.985  -0.031  0.2720  0.4506 -0.0606
 1007MOL0     C38840   2.148  10.864  -0.115 -0.5893 -0.2100  0.2422
 1007MOL0     C38841   2.154  10.906  -0.268  1.1464 -0.2881 -0.4220
 1007MOL0     C38842   2.296  10.927  -0.322 -0.1782 -0.2454 -0.7759
 1007MOL0     C38843   2.297  11.011  -0.448  0.2897  0.4004  1.1267
 1007MOL0     C38844   2.250  11.155  -0.437  1.3386  0.3044 -0.0874
 1007MOL0     N38845   2.284  11.222  -0.315  0.0787 -0.0397  0.9876
 1007MOL0     C38846   2.202  11.270  -0.217 -0.6386 -0.0840  0.1380
 1007MOL0     C38847   2.285  11.330  -0.133  0.0297 -0.3492 -0.8885
 1007MOL0     C38848   2.245  11.412  -0.006 -0.1162  0.8439  1.4151
 1007MOL0     C38849   2.104  11.401   0.037  0.2752  0.8549 -0.3588
 1007MOL0     C38850   2.089  11.479   0.166 -0.8591 -0.8483  0.0851
 1007MOL0     C38851   2.025  11.618   0.146  0.0934 -0.8799 -0.4307
 1007MOL0     O38852   2.030  11.696   0.269  0.2118  0.3744 -0.4725
 1007MOL0     C38853   2.117  11.793   0.277  0.5296 -0.9352 -1.7280
 1007MOL0     C38854   2.095  11.886   0.379  0.4664  0.5440 -0.2857
 1007MOL0     C38855   2.173  11.991   0.395  0.7451  0.3306 -0.6257
 1007MOL0     C38856   2.122  12.102   0.477 -0.4707 -0.2064  0.1961
 1007MOL0     C38857   2.296  12.003   0.323  0.3358 -0.3811 -0.6585
 1007MOL0     C38858   2.389  12.122   0.338 -0.3094  0.3164  1.3710
 1007MOL0     O38859   2.502  12.110   0.271  0.0330 -0.3253 -0.0373
 1007MOL0     C38860   2.586  12.217   0.269  0.0262 -0.1650 -0.1429
 1007MOL0     C38861   2.595  12.315   0.166  0.0812  0.0712 -0.8949
 1007MOL0     C38862   2.699  12.403   0.160 -0.7343  0.2017  0.8388
 1007MOL0     C38863   2.799  12.398   0.250 -0.0267 -0.7237 -0.6179
 1007MOL0     O38864   2.912  12.478   0.251  0.4500  0.0535  0.0680
 1007MOL0     C38865   2.920  12.585   0.159 -0.9500  0.1919  0.5696
 1007MOL0     C38866   2.827  12.707   0.184 -0.4290  0.1921 -0.2574
 1007MOL0     C38867   2.848  12.772   0.323 -0.4904  0.1746 -0.3991
 1007MOL0     C38868   2.763  12.907   0.322 -0.2320 -0.7208 -1.3002
 1007MOL0     C38869   2.783  12.996   0.442 -0.2642  1.7534  0.3686
 1007MOL0     C38870   2.692  13.123   0.438 -0.3109 -0.1083 -0.3166
 1007MOL0     C38871   2.546  13.099   0.491 -0.7723  0.5578 -0.2527
 1007MOL0     C38872   2.472  13.237   0.499  0.1517  0.1125 -0.5326
 1007MOL0    Cl38873   2.541  13.342   0.623  0.2628 -0.4429 -0.5546
 1007MOL0     C38874   2.807  12.301   0.348 -0.0077 -0.1706  0.1223
 1007MOL0     C38875   2.696  12.211   0.356 -0.3359 -0.3538  0.2268
 1007MOL0     O38876   2.367  12.220   0.413 -0.6347 -0.0430 -0.1181
 1007MOL0     C38877   2.332  11.904   0.228 -0.5385  0.6266  0.1750
 1007MOL0     C38878   2.233  11.807   0.197  0.0635 -0.0686 -0.2683
 1007MOL0     N38879   2.418  11.320  -0.177  0.2567  0.9320  0.3645
 1007MOL0     N38880   2.415  11.255  -0.290 -0.6708 -0.0636 -0.8539
 1007MOL0     C38881   1.665  10.971   0.199  0.0653  0.2686 -0.0854
 1007MOL0     C38882   1.534  11.009   0.236 -0.6107  0.8125  0.1756
 1007MOL0     C38883   1.229  11.151   0.563 -0.5956  0.6200  0.7328
 1007MOL0     C38884   1.238  11.290   0.548 -0.8020  0.7561  0.1330
 1007MOL0     C38885   1.133  11.368   0.592 -0.1504  0.4947 -0.5026
 1007MOL0     C38886   1.004  11.326   0.626  0.4056  0.3565  0.2714
 1007MOL0     O38887   0.907  11.423   0.649  0.1158  0.0605 -0.0828
 1007MOL0     C38888   0.773  11.381   0.622  0.3844 -0.8088 -0.4720
 1007MOL0     C38889   0.676  11.351   0.737  0.7149 -1.0318 -0.4745
 1007MOL0     C38890   0.694  11.440   0.860 -0.2801 -0.7450  0.0793
 1007MOL0     C38891   0.619  11.408   0.985 -0.0317  0.1468  0.2576
 1007MOL0     C38892   0.476  11.452   0.984  0.7622 -0.4328 -0.4691
 1007MOL0     C38893   0.365  11.491   0.983 -0.0091 -1.1866  0.6691
 1007MOL0     C38894   0.993  11.183   0.629 -0.8279  0.2842  0.4535
 1007MOL0     C38895   1.106  11.096   0.606 -0.0025 -0.5686 -0.2118
 1007MOL0     C38896   1.089  10.950   0.637 -0.2186 -0.1200  0.3924
 1007MOL0     H38897   1.598  11.119   0.545 -3.0044 -0.2393 -0.2661
 1007MOL0     H38898   1.837  11.047   0.472  0.3814  2.3629 -0.1567
 1007MOL0     H38899   1.913  11.048   0.066 -1.3591 -1.8824 -2.3130
 1007MOL0     H38900   1.902  10.878   0.056 -0.2707  0.8407 -2.2359
 1007MOL0     H38901   2.151  10.997   0.189 -1.5729 -0.2325  0.7854
 1007MOL0     H38902   2.126  10.839   0.123 -0.2759 -0.2231 -2.4479
 1007MOL0     H38903   2.115  11.073  -0.076 -0.1099 -1.6557 -4.2971
 1007MOL0     H38904   2.269  11.003  -0.020  1.2213 -3.6045 -0.9902
 1007MOL0     H38905   2.223  10.786  -0.098 -2.5499 -2.8340 -2.1815
 1007MOL0     H38906   2.052  10.813  -0.106 -1.5357  1.3679 -0.4184
 1007MOL0     H38907   2.079  10.984  -0.284  1.5694 -0.2412 -2.4796
 1007MOL0     H38908   2.121  10.824  -0.333 -2.6185 -1.3151  2.4214
 1007MOL0     H38909   2.356  10.978  -0.246 -4.6373 -0.9603  3.7552
 1007MOL0     H38910   2.336  10.826  -0.330  0.7539 -0.1871  2.1317
 1007MOL0     H38911   2.232  10.965  -0.523  0.7384  1.8510 -0.1944
 1007MOL0     H38912   2.398  10.999  -0.487  0.2752  0.3614  1.1008
 1007MOL0     H38913   2.289  11.213  -0.522 -1.6917  1.1847 -0.9815
 1007MOL0     H38914   2.142  11.144  -0.449  1.1985 -0.1098  1.4085
 1007MOL0     H38915   2.096  11.257  -0.199 -1.1967  1.0376 -2.0676
 1007MOL0     H38916   2.266  11.519  -0.017 -0.2783  0.9129  1.7565
 1007MOL0     H38917   2.306  11.371   0.076  2.9623 -0.9173 -1.4930
 1007MOL0     H38918   2.043  11.461  -0.031  0.8469  3.0414  0.9435
 1007MOL0     H38919   2.071  11.297   0.035  1.7804  0.2584  1.9619
 1007MOL0     H38920   2.028  11.418   0.233 -1.9967  1.8799  1.6939
 1007MOL0     H38921   2.181  11.487   0.226 -2.1930 -0.4145  2.1491
 1007MOL0     H38922   2.065  11.680   0.066 -0.7073 -0.0339 -0.1853
 1007MOL0     H38923   1.920  11.593   0.128 -0.0674 -0.4285 -0.1400
 1007MOL0     H38924   2.003  11.874   0.435 -1.5200  0.5427 -3.2978
 1007MOL0     H38925   2.099  12.191   0.418 -0.6412 -1.5014 -1.7851
 1007MOL0     H38926   2.183  12.118   0.567 -1.4602  1.7233  0.5557
 1007MOL0     H38927   2.021  12.071   0.504 -0.9615  2.0805  1.2304
 1007MOL0     H38928   2.519  12.313   0.088 -0.7050 -0.5134 -0.1302
 1007MOL0     H38929   2.704  12.462   0.069 -0.4584 -0.7535  0.2210
 1007MOL0     H38930   3.020  12.627   0.159 -0.4653 -0.9233 -0.1646
 1007MOL0     H38931   2.898  12.541   0.061 -0.2899 -0.1279  0.5636
 1007MOL0     H38932   2.860  12.784   0.114  2.5976  0.0788  0.8973
 1007MOL0     H38933   2.724  12.679   0.161 -0.1439 -0.3339 -0.9103
 1007MOL0     H38934   2.956  12.787   0.318 -0.1337 -1.6227  0.9567
 1007MOL0     H38935   2.820  12.706   0.406  2.7616 -0.9771 -0.0744
 1007MOL0     H38936   2.658  12.879   0.314 -0.7985  1.2697 -1.4004
 1007MOL0     H38937   2.786  12.961   0.230  0.1898  2.9611  0.7730
 1007MOL0     H38938   2.742  12.936   0.524 -1.5564 -0.5711 -1.8593
 1007MOL0     H38939   2.889  13.021   0.445  0.3449 -0.1839 -2.1505
 1007MOL0     H38940   2.684  13.154   0.333 -1.2259  0.7779  0.0049
 1007MOL0     H38941   2.723  13.208   0.500 -0.7360  0.5341 -0.9722
 1007MOL0     H38942   2.559  13.040   0.583  1.6475  1.3950  0.0041
 1007MOL0     H38943   2.500  13.030   0.419  1.1945 -1.3616  0.2221
 1007MOL0     H38944   2.365  13.220   0.515 -0.2956  2.0782 -1.2344
 1007MOL0     H38945   2.483  13.275   0.398 -1.6542 -2.7858 -1.9575
 1007MOL0     H38946   2.887  12.301   0.421  2.7729 -0.3513 -2.7081
 1007MOL0     H38947   2.705  12.128   0.426  2.3190 -0.0085  0.3956
 1007MOL0     H38948   2.420  11.901   0.164 -0.0896  2.3091  0.6678
 1007MOL0     H38949   2.247  11.733   0.119  0.2301 -3.1188  2.4461
 1007MOL0     H38950   1.683  10.924   0.103 -1.4833  2.8864 -1.8131
 1007MOL0     H38951   1.454  11.008   0.163  1.8548  2.1182 -2.7679
 1007MOL0     H38952   1.338  11.327   0.527 -2.1951  4.6821 -0.4435
 1007MOL0     H38953   1.146  11.476   0.595 -1.4850  0.6733 -0.5788
 1007MOL0     H38954   0.730  11.469   0.573 -2.7340 -1.5248  0.7806
 1007MOL0     H38955   0.767  11.295   0.554 -2.4135 -2.0804  1.2055
 1007MOL0     H38956   0.697  11.250   0.774  0.3326 -0.6119  0.9352
 1007MOL0     H38957   0.572  11.348   0.702 -0.1217 -1.6922  1.8243
 1007MOL0     H38958   0.799  11.429   0.892  0.6608 -0.2169 -2.5665
 1007MOL0     H38959   0.677  11.546   0.839 -1.9378 -0.5521  2.0410
 1007MOL0     H38960   0.664  11.442   1.079  1.5410 -0.8321 -0.1126
 1007MOL0     H38961   0.611  11.299   0.985 -1.4822  0.2300  0.5115
 1007MOL0     H38962   0.264  11.525   0.981 -0.6109 -2.8849 -0.8847
 1007MOL0     H38963   0.899  11.134   0.653 -0.8860 -0.2713 -0.8617
 1007MOL0     H38964   0.985  10.919   0.624 -1.1363  2.0768  1.8964
 1007MOL0     H38965   1.160  10.881   0.591  0.1109  0.3341  0.2109
 1007MOL0     H38966   1.111  10.941   0.744  0.9629 -0.1666  0.1620
 1008MOL0     O38967   2.401   8.490   6.372  0.6119  0.6337  0.3479
 1008MOL0     C38968   2.334   8.530   6.277  0.1478  0.4581  0.2475
 1008MOL0     O38969   2.374   8.634   6.188  0.1723 -0.1649 -0.0617
 1008MOL0     C38970   2.476   8.714   6.222 -0.2361 -0.9980 -0.9887
 1008MOL0     C38971   2.449   8.850   6.240  0.2975 -0.5148  0.1452
 1008MOL0     C38972   2.553   8.941   6.257  0.4799 -0.3667  0.0534
 1008MOL0     C38973   2.683   8.900   6.252 -0.3678  0.5466 -0.4439
 1008MOL0     O38974   2.782   8.991   6.264 -1.0116  0.3905  0.0736
 1008MOL0     C38975   2.832   9.004   6.403  0.4042  0.0834  0.4142
 1008MOL0     C38976   2.943   9.117   6.403  0.9336  0.7675 -0.6255
 1008MOL0     C38977   2.874   9.255   6.389 -0.6588 -0.3102  0.1801
 1008MOL0     C38978   2.999   9.342   6.367  0.0387 -0.4530  0.0363
 1008MOL0     C38979   2.956   9.489   6.326 -0.0815  0.6629 -0.2035
 1008MOL0     C38980   2.993   9.585   6.439 -0.0414  0.4110  0.0736
 1008MOL0     C38981   2.904   9.566   6.563 -0.1600  0.1990  0.3657
 1008MOL0     C38982   2.960   9.662   6.667  0.4388  0.1060 -1.1202
 1008MOL0     N38983   3.084   9.613   6.727 -0.1419 -0.1537 -0.6074
 1008MOL0     C38984   3.106   9.485   6.767  0.8017 -0.4214 -0.1089
 1008MOL0     C38985   3.226   9.484   6.840  0.0228  0.4949  0.4345
 1008MOL0     C38986   3.282   9.361   6.905  0.6712  0.4359 -0.5090
 1008MOL0     C38987   3.262   9.360   7.061 -0.3560 -0.2844  0.0324
 1008MOL0     C38988   3.382   9.285   7.121  0.7964 -0.1613  0.1024
 1008MOL0     C38989   3.354   9.209   7.244 -0.2274  0.0173  0.5628
 1008MOL0     O38990   3.274   9.098   7.200 -0.5140 -0.0314  0.0963
 1008MOL0     C38991   3.202   9.023   7.286 -0.1342 -0.4123  0.1689
 1008MOL0     C38992   3.115   8.914   7.246  0.1758 -0.1822  0.8791
 1008MOL0     C38993   3.052   8.817   7.331  0.0435 -0.7698  0.0928
 1008MOL0     C38994   2.961   8.715   7.262  0.2366  0.3248  0.2829
 1008MOL0     C38995   3.061   8.841   7.471  0.4388  0.6170 -0.3582
 1008MOL0     C38996   3.002   8.752   7.583  0.0756  0.4128  0.5395
 1008MOL0     O38997   3.004   8.792   7.714 -0.6509 -0.2208 -0.9866
 1008MOL0     C38998   3.006   8.685   7.807 -0.6937 -0.0568  0.7500
 1008MOL0     C38999   3.128   8.641   7.851 -0.3245 -0.2753 -0.3469
 1008MOL0     C39000   3.136   8.546   7.952  0.1197  0.1820 -0.2908
 1008MOL0     C39001   3.017   8.492   8.002 -0.1628  0.4448 -0.5345
 1008MOL0     O39002   3.008   8.398   8.106  0.6648  0.2625  0.1685
 1008MOL0     C39003   3.129   8.358   8.186  0.3451  0.0116  0.1913
 1008MOL0     C39004   3.221   8.261   8.112  0.2368 -0.4501 -0.6852
 1008MOL0     C39005   3.159   8.142   8.036 -0.0571  0.6121 -0.9123
 1008MOL0     C39006   3.140   8.014   8.136  0.7381 -0.1617 -0.0029
 1008MOL0     C39007   3.118   7.879   8.064 -0.4640  1.1124 -0.1707
 1008MOL0     C39008   2.989   7.886   7.984 -0.5502 -1.4056 -1.2329
 1008MOL0     C39009   2.953   7.730   7.948 -0.4637 -0.3141 -0.2493
 1008MOL0     C39010   2.809   7.729   7.896 -0.3303  0.4847 -0.0789
 1008MOL0    Cl39011   2.772   7.547   7.881  0.0900 -0.4811 -0.2111
 1008MOL0     C39012   2.891   8.529   7.959 -1.0041  0.3678  0.0694
 1008MOL0     C39013   2.890   8.633   7.866 -0.4537 -0.7305  0.2509
 1008MOL0     O39014   2.950   8.642   7.550 -0.3230 -0.8310 -0.7406
 1008MOL0     C39015   3.154   8.943   7.512  0.3789 -0.6527 -0.2810
 1008MOL0     C39016   3.212   9.032   7.424  0.1458 -1.0881 -0.4070
 1008MOL0     N39017   3.289   9.607   6.812 -0.5288  1.2270 -0.4082
 1008MOL0     N39018   3.200   9.671   6.736  0.1791 -0.9333 -0.8080
 1008MOL0     C39019   2.719   8.763   6.221  0.5966 -0.3951  0.4048
 1008MOL0     C39020   2.615   8.669   6.200  0.8581  0.6796  0.6790
 1008MOL0     C39021   2.198   8.482   6.245 -0.4708  0.1346 -0.3882
 1008MOL0     C39022   2.096   8.578   6.256 -0.0247 -0.6066 -0.2766
 1008MOL0     C39023   1.961   8.550   6.243  1.2966  0.0781 -1.3836
 1008MOL0     C39024   1.924   8.414   6.206 -0.2417  0.2748  0.4990
 1008MOL0     O39025   1.789   8.378   6.198 -0.3717 -0.2077 -0.5198
 1008MOL0     C39026   1.680   8.457   6.239 -0.7428 -0.2064 -0.6797
 1008MOL0     C39027   1.648   8.436   6.391 -0.2623 -0.3280  0.3774
 1008MOL0     C39028   1.634   8.291   6.425 -0.1303 -0.0324 -0.1853
 1008MOL0     C39029   1.558   8.200   6.325  0.9821  0.3372  0.4136
 1008MOL0     C39030   1.511   8.072   6.372 -0.7737 -0.6920 -0.4860
 1008MOL0     C39031   1.462   7.968   6.422  0.7065  0.2427 -0.4035
 1008MOL0     C39032   2.026   8.316   6.200  0.2966  0.5954  0.1019
 1008MOL0     C39033   2.156   8.348   6.221  0.2709 -0.0627  0.0999
 1008MOL0     C39034   2.258   8.231   6.212 -0.1521  0.5080 -0.0832
 1008MOL0     H39035   2.348   8.886   6.228  0.9773  1.1315 -0.9487
 1008MOL0     H39036   2.532   9.048   6.264  2.5976  0.0887  0.2271
 1008MOL0     H39037   2.859   8.911   6.452  1.2138  0.1262  0.0607
 1008MOL0     H39038   2.754   9.053   6.462 -0.4260 -1.5489  0.7142
 1008MOL0     H39039   2.996   9.110   6.499  0.8724 -1.9628 -0.7040
 1008MOL0     H39040   3.017   9.098   6.325  1.1986  0.7710 -0.3779
 1008MOL0     H39041   2.820   9.265   6.294 -2.4460  1.2103  1.2845
 1008MOL0     H39042   2.814   9.281   6.477  1.1657 -0.1287  1.4102
 1008MOL0     H39043   3.064   9.347   6.455  2.0197  0.5245 -1.4207
 1008MOL0     H39044   3.062   9.297   6.289  0.8119 -0.6563  0.7614
 1008MOL0     H39045   2.847   9.496   6.312 -0.2319 -0.0403  0.5396
 1008MOL0     H39046   3.004   9.521   6.234 -1.8155  2.9695 -0.4277
 1008MOL0     H39047   3.100   9.584   6.463 -0.2646  0.3394  1.1346
 1008MOL0     H39048   2.968   9.683   6.397 -0.5379 -0.5327 -1.9705
 1008MOL0     H39049   2.905   9.465   6.605  1.3556 -1.5901 -3.4285
 1008MOL0     H39050   2.798   9.591   6.552 -0.6068 -1.5997  0.2849
 1008MOL0     H39051   2.982   9.762   6.629  2.6846 -0.6462 -1.9665
 1008MOL0     H39052   2.892   9.673   6.752  0.5193 -1.1875 -0.8664
 1008MOL0     H39053   3.039   9.400   6.757  0.2419  0.1654 -1.5912
 1008MOL0     H39054   3.388   9.357   6.878  0.9240 -0.0124  0.4984
 1008MOL0     H39055   3.230   9.276   6.861  2.6207 -2.1400  1.8097
 1008MOL0     H39056   3.267   9.455   7.114 -1.3561 -2.2966  4.1419
 1008MOL0     H39057   3.169   9.311   7.092  0.3153 -1.3232  0.4239
 1008MOL0     H39058   3.410   9.222   7.036  0.7943  0.2454 -0.2036
 1008MOL0     H39059   3.456   9.363   7.144  1.6330 -0.6886 -0.7153
 1008MOL0     H39060   3.445   9.172   7.292 -1.5563 -0.5775  2.7202
 1008MOL0     H39061   3.301   9.269   7.318  0.7479 -0.7467  1.9044
 1008MOL0     H39062   3.109   8.880   7.143 -0.1779 -0.4000  0.9691
 1008MOL0     H39063   2.867   8.718   7.319 -0.2097 -0.4597 -0.3864
 1008MOL0     H39064   3.002   8.615   7.276  1.1215  0.4459 -1.2642
 1008MOL0     H39065   2.956   8.732   7.154  0.5831  1.4779  0.4262
 1008MOL0     H39066   3.218   8.682   7.804  0.6077  0.4531  1.9322
 1008MOL0     H39067   3.236   8.521   7.986  0.2774  0.3250 -0.6478
 1008MOL0     H39068   3.190   8.440   8.224 -1.9454  0.4174  3.4064
 1008MOL0     H39069   3.093   8.313   8.279 -2.5312  1.9578  0.1543
 1008MOL0     H39070   3.276   8.321   8.038  0.5948  2.4465  1.7401
 1008MOL0     H39071   3.297   8.233   8.185  0.8261 -1.5921 -1.6958
 1008MOL0     H39072   3.226   8.121   7.953  0.6227  0.8128 -0.4213
 1008MOL0     H39073   3.065   8.172   7.990 -0.0913  2.4120  0.2189
 1008MOL0     H39074   3.056   8.040   8.201  0.6955 -0.9703  0.2774
 1008MOL0     H39075   3.221   8.007   8.210  0.0763 -3.2832  0.5770
 1008MOL0     H39076   3.198   7.847   7.996 -0.5439  0.9400 -0.1834
 1008MOL0     H39077   3.122   7.797   8.136  0.0572  1.5507  0.3069
 1008MOL0     H39078   2.990   7.943   7.891  0.4120 -2.1865 -1.7178
 1008MOL0     H39079   2.912   7.937   8.043  0.9181  1.2615 -1.4756
 1008MOL0     H39080   2.964   7.662   8.033  1.1887 -1.0696 -1.0259
 1008MOL0     H39081   3.028   7.693   7.877  1.4995 -4.1872  3.3740
 1008MOL0     H39082   2.798   7.786   7.804 -2.6664  0.2422 -0.0096
 1008MOL0     H39083   2.757   7.783   7.976  1.6636  2.9929 -0.3462
 1008MOL0     H39084   2.804   8.478   7.998 -1.0593 -0.0420 -0.5659
 1008MOL0     H39085   2.789   8.660   7.836  0.3255  1.8383 -0.2597
 1008MOL0     H39086   3.169   8.953   7.619  1.9458 -1.4973 -0.3961
 1008MOL0     H39087   3.279   9.107   7.464 -1.5405  0.1545  0.2373
 1008MOL0     H39088   2.824   8.738   6.212  0.3669 -1.2592  0.1089
 1008MOL0     H39089   2.649   8.570   6.172  0.7133  1.1825 -1.5044
 1008MOL0     H39090   2.144   8.668   6.295  0.0606 -1.7445  2.5003
 1008MOL0     H39091   1.899   8.637   6.259 -1.9789 -2.5500  2.4027
 1008MOL0     H39092   1.696   8.563   6.217 -2.7797  1.0433  2.9969
 1008MOL0     H39093   1.600   8.429   6.169  0.4796 -1.9966 -1.4440
 1008MOL0     H39094   1.566   8.501   6.422  0.9869  2.2701 -1.4856
 1008MOL0     H39095   1.726   8.477   6.456 -1.0786  2.1311 -0.0909
 1008MOL0     H39096   1.729   8.243   6.449 -2.7754 -4.8384  2.1277
 1008MOL0     H39097   1.572   8.302   6.514 -2.4479  2.1347 -1.8984
 1008MOL0     H39098   1.623   8.186   6.238  0.4650  0.4298  0.0064
 1008MOL0     H39099   1.469   8.254   6.292  0.0925 -0.5280  1.3327
 1008MOL0     H39100   1.429   7.879   6.473  0.1737  2.6293  3.9893
 1008MOL0     H39101   1.985   8.216   6.190 -2.0206  1.6147 -1.6174
 1008MOL0     H39102   2.293   8.222   6.109 -2.4081  0.7658 -0.9414
 1008MOL0     H39103   2.339   8.236   6.285 -0.1113 -4.8934  0.5990
 1008MOL0     H39104   2.212   8.138   6.246  1.6825 -0.1075  0.8666
 1009MOL0     O39105   0.660   2.424   1.839 -0.3090 -0.2681  0.1529
 1009MOL0     C39106   0.758   2.440   1.904 -0.1424  0.0797 -0.3876
 1009MOL0     O39107   0.759   2.474   2.042  0.3613  0.7466 -0.4786
 1009MOL0     C39108   0.653   2.432   2.123  0.4224  0.4850 -0.7235
 1009MOL0     C39109   0.547   2.514   2.154  0.2880  0.1704  0.1242
 1009MOL0     C39110   0.442   2.459   2.234 -0.0624  0.1112 -1.1834
 1009MOL0     C39111   0.450   2.328   2.289  0.4287  0.6282 -0.4364
 1009MOL0     O39112   0.344   2.270   2.340 -0.0096  0.7639 -0.4451
 1009MOL0     C39113   0.238   2.342   2.410  1.0744  0.2378  0.1633
 1009MOL0     C39114   0.119   2.259   2.446  0.1340  0.1365  0.1327
 1009MOL0     C39115   0.135   2.155   2.556  0.4654 -0.3733  0.0338
 1009MOL0     C39116   0.118   2.206   2.696 -0.9106 -0.2185  0.4167
 1009MOL0     C39117   0.072   2.093   2.791 -0.3639  0.0161  0.1892
 1009MOL0     C39118   0.062   2.126   2.943  0.0384  0.7814  0.1916
 1009MOL0     C39119  -0.056   2.226   2.967 -0.1872  0.4603  0.3334
 1009MOL0     C39120  -0.101   2.232   3.103 -1.0464 -0.0620 -0.7443
 1009MOL0     N39121  -0.216   2.315   3.110 -0.3814 -0.0089 -0.2329
 1009MOL0     C39122  -0.342   2.272   3.085 -0.6106  0.1360 -0.4192
 1009MOL0     C39123  -0.420   2.374   3.129 -0.5017  0.3578 -0.8926
 1009MOL0     C39124  -0.568   2.389   3.135  0.2780  0.9035 -0.2705
 1009MOL0     C39125  -0.614   2.476   3.017 -0.0745  0.1657 -0.0113
 1009MOL0     C39126  -0.599   2.417   2.875  0.0642  0.7166  0.3499
 1009MOL0     C39127  -0.702   2.303   2.855  0.1827 -0.7915  0.0395
 1009MOL0     O39128  -0.676   2.245   2.723  0.3962 -0.2691  0.1131
 1009MOL0     C39129  -0.785   2.247   2.635 -0.4124 -0.0511  0.3323
 1009MOL0     C39130  -0.923   2.242   2.668  0.8282 -0.2912 -0.1581
 1009MOL0     C39131  -1.022   2.269   2.571  0.5844 -0.2187  0.0530
 1009MOL0     C39132  -1.165   2.286   2.615  0.3921  0.7053 -0.3092
 1009MOL0     C39133  -0.988   2.273   2.433 -0.7812 -0.1340 -0.2382
 1009MOL0     C39134  -1.083   2.293   2.321  0.3347 -0.3148 -1.2148
 1009MOL0     O39135  -1.042   2.233   2.208 -0.4015 -0.4698  0.3352
 1009MOL0     C39136  -1.123   2.243   2.091  0.9031 -0.7062  0.2693
 1009MOL0     C39137  -1.263   2.214   2.100  0.1454 -0.1486 -0.3775
 1009MOL0     C39138  -1.356   2.237   1.991  0.7298  0.1946 -0.0850
 1009MOL0     C39139  -1.312   2.270   1.868  0.0870 -0.1041  0.6701
 1009MOL0     O39140  -1.393   2.279   1.761  0.6739 -0.1177  0.2558
 1009MOL0     C39141  -1.351   2.234   1.635 -0.7706  0.3147 -0.1429
 1009MOL0     C39142  -1.443   2.138   1.569 -0.8420 -0.1720 -1.0891
 1009MOL0     C39143  -1.411   2.088   1.435 -0.0048  0.0047  0.0032
 1009MOL0     C39144  -1.473   1.946   1.414 -0.4820  0.7312 -0.4462
 1009MOL0     C39145  -1.433   1.896   1.278  0.2487  0.2408  0.4923
 1009MOL0     C39146  -1.480   2.002   1.166 -0.1795  0.2974  0.2063
 1009MOL0     C39147  -1.492   1.906   1.039 -0.0954 -1.0106 -0.1084
 1009MOL0     C39148  -1.358   1.848   0.995 -0.4846 -0.7480  0.5552
 1009MOL0    Cl39149  -1.396   1.704   0.896  0.2998  0.2607 -0.0308
 1009MOL0     C39150  -1.170   2.297   1.854 -0.6811 -0.2946 -1.1237
 1009MOL0     C39151  -1.076   2.290   1.959  0.4025 -0.4727 -0.2007
 1009MOL0     O39152  -1.198   2.344   2.340  0.3053  0.2805  0.3971
 1009MOL0     C39153  -0.849   2.268   2.401 -0.2392  0.0591  0.4802
 1009MOL0     C39154  -0.749   2.262   2.500 -0.4092 -0.1883 -0.5427
 1009MOL0     N39155  -0.340   2.478   3.171  0.0068  0.1166  0.2114
 1009MOL0     N39156  -0.221   2.446   3.149  0.2956 -0.5051 -0.9667
 1009MOL0     C39157   0.563   2.256   2.271 -0.1596  0.3857 -1.1226
 1009MOL0     C39158   0.666   2.304   2.186 -0.5918  0.7001  0.9692
 1009MOL0     C39159   0.897   2.436   1.843  0.4133 -0.9796  0.4565
 1009MOL0     C39160   1.003   2.372   1.903 -0.4355  1.1494  0.0179
 1009MOL0     C39161   1.129   2.362   1.844 -1.0727 -0.9533 -0.3621
 1009MOL0     C39162   1.160   2.418   1.719  0.9229 -0.6143  0.8035
 1009MOL0     O39163   1.277   2.410   1.653 -0.1797  0.1583 -0.2979
 1009MOL0     C39164   1.392   2.371   1.737  0.0378 -0.0819  0.3884
 1009MOL0     C39165   1.520   2.401   1.659  0.2455 -0.6915  0.0251
 1009MOL0     C39166   1.547   2.306   1.540  0.6322  0.3014 -0.1347
 1009MOL0     C39167   1.697   2.287   1.501 -0.0620  0.2000 -0.4468
 1009MOL0     C39168   1.769   2.418   1.499 -0.2608  0.0941  0.7568
 1009MOL0     C39169   1.835   2.522   1.499 -0.4556  0.0394 -0.4136
 1009MOL0     C39170   1.056   2.491   1.663 -0.4153 -0.2403 -0.1249
 1009MOL0     C39171   0.922   2.498   1.719 -0.0921 -0.1714 -0.0136
 1009MOL0     C39172   0.815   2.559   1.618 -0.1422  0.0557  0.0472
 1009MOL0     H39173   0.546   2.619   2.125 -0.1949  0.7503  2.0474
 1009MOL0     H39174   0.367   2.531   2.268  0.1050 -0.3421  0.2058
 1009MOL0     H39175   0.204   2.417   2.338 -0.7761 -0.7014 -0.0100
 1009MOL0     H39176   0.287   2.390   2.496  3.7548 -2.5030  0.3083
 1009MOL0     H39177   0.034   2.324   2.469 -0.4177  0.1549 -1.8162
 1009MOL0     H39178   0.108   2.212   2.348 -1.1506  0.6571  0.0009
 1009MOL0     H39179   0.063   2.075   2.533  4.1759 -3.5069 -1.9578
 1009MOL0     H39180   0.235   2.112   2.550  1.0029  0.8607 -0.1959
 1009MOL0     H39181   0.211   2.244   2.738 -0.6492 -2.7299  2.2760
 1009MOL0     H39182   0.046   2.289   2.695 -0.4629  0.2117 -1.7752
 1009MOL0     H39183   0.135   2.004   2.779 -2.8374 -1.6341 -1.4991
 1009MOL0     H39184  -0.026   2.060   2.755 -1.9921  0.9668  3.3192
 1009MOL0     H39185   0.031   2.039   3.001 -0.6907  1.3429  0.6538
 1009MOL0     H39186   0.160   2.163   2.976 -0.0480  2.1747 -0.9942
 1009MOL0     H39187  -0.145   2.193   2.914 -3.3033  2.3076  3.9556
 1009MOL0     H39188  -0.021   2.321   2.926 -3.3020  1.0138 -1.3379
 1009MOL0     H39189  -0.106   2.128   3.136 -0.9703 -0.4270 -1.8400
 1009MOL0     H39190  -0.017   2.267   3.163 -0.4056 -1.9787 -0.4893
 1009MOL0     H39191  -0.373   2.173   3.053 -2.1002  0.1991  0.6821
 1009MOL0     H39192  -0.605   2.441   3.224 -2.9429 -1.4710 -0.0251
 1009MOL0     H39193  -0.632   2.303   3.154 -2.0216  2.6100  0.2673
 1009MOL0     H39194  -0.722   2.489   3.028 -1.0565 -2.5276 -4.0633
 1009MOL0     H39195  -0.566   2.574   3.025  1.2921 -0.6083  1.8969
 1009MOL0     H39196  -0.626   2.498   2.807 -1.2401 -0.7000 -0.9105
 1009MOL0     H39197  -0.499   2.377   2.854 -0.6519 -0.7948 -0.3082
 1009MOL0     H39198  -0.686   2.210   2.911 -0.7489 -2.0889 -1.7145
 1009MOL0     H39199  -0.806   2.335   2.866  0.7456  0.8316  0.9120
 1009MOL0     H39200  -0.950   2.230   2.773 -0.7977  2.6966 -0.1270
 1009MOL0     H39201  -1.211   2.379   2.579 -0.5823  0.2417 -0.3046
 1009MOL0     H39202  -1.170   2.283   2.724  0.4291  0.4881 -0.3145
 1009MOL0     H39203  -1.234   2.214   2.570  1.6730  0.5563 -2.1368
 1009MOL0     H39204  -1.303   2.176   2.193  2.0062  0.4805  0.7366
 1009MOL0     H39205  -1.458   2.219   2.021  1.3836 -1.0151  1.6118
 1009MOL0     H39206  -1.341   2.321   1.570  3.0560  0.4249  0.3620
 1009MOL0     H39207  -1.253   2.185   1.634 -0.8728 -0.3365  3.7154
 1009MOL0     H39208  -1.438   2.057   1.642 -0.2047  1.5737  0.9401
 1009MOL0     H39209  -1.544   2.179   1.573 -0.2671  1.9838  6.0333
 1009MOL0     H39210  -1.302   2.086   1.436  0.0394  1.4174 -0.2264
 1009MOL0     H39211  -1.446   2.161   1.361  0.0698  0.6662  0.6043
 1009MOL0     H39212  -1.581   1.936   1.423 -0.5263 -0.1820 -1.7508
 1009MOL0     H39213  -1.429   1.870   1.480 -0.5531 -0.5660 -1.8222
 1009MOL0     H39214  -1.324   1.891   1.271  0.1603 -0.4484 -0.6485
 1009MOL0     H39215  -1.476   1.797   1.263  0.3510  0.5002 -1.9839
 1009MOL0     H39216  -1.417   2.091   1.163 -2.3914  1.9459  0.4109
 1009MOL0     H39217  -1.580   2.036   1.190  0.9347  1.8094  3.1046
 1009MOL0     H39218  -1.544   1.961   0.960 -2.1723  0.6016  2.2361
 1009MOL0     H39219  -1.559   1.827   1.073  0.3301 -0.8814  1.0567
 1009MOL0     H39220  -1.289   1.811   1.072  1.3197 -0.8226 -1.0262
 1009MOL0     H39221  -1.302   1.914   0.928  1.1329 -3.2732 -0.7250
 1009MOL0     H39222  -1.119   2.330   1.764  0.5881  1.5739  0.2113
 1009MOL0     H39223  -0.973   2.318   1.939  0.1399  0.1352 -0.7438
 1009MOL0     H39224  -0.831   2.281   2.295  0.0233 -0.9675  0.3802
 1009MOL0     H39225  -0.642   2.260   2.481  0.0138  1.1771  1.3516
 1009MOL0     H39226   0.587   2.161   2.318 -2.4707 -1.7184 -3.8134
 1009MOL0     H39227   0.755   2.241   2.178 -0.7197  0.7216 -1.8117
 1009MOL0     H39228   1.004   2.330   2.003  1.9498 -0.9431 -0.7918
 1009MOL0     H39229   1.209   2.311   1.897 -2.3425 -4.1931 -1.3406
 1009MOL0     H39230   1.404   2.424   1.831 -1.9169 -0.0532  0.6705
 1009MOL0     H39231   1.387   2.265   1.765  0.1042 -0.3847 -0.6942
 1009MOL0     H39232   1.602   2.407   1.731  0.3034  0.2542 -0.1073
 1009MOL0     H39233   1.503   2.505   1.630 -0.8760 -1.2635 -1.4793
 1009MOL0     H39234   1.491   2.215   1.561 -1.2588  1.7133  1.3952
 1009MOL0     H39235   1.497   2.349   1.452  1.0941 -1.2567 -1.1917
 1009MOL0     H39236   1.673   2.242   1.405  1.8476 -1.2184 -0.3026
 1009MOL0     H39237   1.753   2.207   1.551  2.0520 -0.2821 -3.3779
 1009MOL0     H39238   1.896   2.610   1.495  0.7633 -0.7899 -0.5466
 1009MOL0     H39239   1.067   2.548   1.571  0.2414 -0.1595 -0.0032
 1009MOL0     H39240   0.784   2.500   1.532 -0.7162  0.1265  0.1982
 1009MOL0     H39241   0.721   2.589   1.667  0.4825 -0.6224  1.7249
 1009MOL0     H39242   0.853   2.646   1.563 -0.1884 -2.5176 -4.5229
 1010MOL0     O39243   0.943   2.027   3.601  0.4646 -0.7284  0.5464
 1010MOL0     C39244   0.940   2.033   3.483 -0.3295 -0.5782  0.8077
 1010MOL0     O39245   1.008   2.121   3.399 -0.7996 -0.1242  0.4692
 1010MOL0     C39246   1.072   2.233   3.454  0.7439  0.2203 -0.2525
 1010MOL0     C39247   1.174   2.218   3.542  0.3364  0.1252 -0.2737
 1010MOL0     C39248   1.231   2.333   3.597 -0.4658  0.6201 -0.1207
 1010MOL0     C39249   1.197   2.463   3.559 -0.3301 -0.1987 -0.1478
 1010MOL0     O39250   1.251   2.578   3.609  0.1054 -0.7218 -0.0782
 1010MOL0     C39251   1.353   2.556   3.704 -0.1103  0.5506 -0.3136
 1010MOL0     C39252   1.407   2.690   3.749 -0.1146 -0.7388  0.2710
 1010MOL0     C39253   1.304   2.764   3.842 -0.1150  0.5611  0.4047
 1010MOL0     C39254   1.214   2.875   3.764  0.3339 -0.2700 -0.1942
 1010MOL0     C39255   1.292   3.006   3.749 -1.2269 -0.4074  0.3646
 1010MOL0     C39256   1.193   3.112   3.708 -0.2011  0.8465 -0.4132
 1010MOL0     C39257   1.263   3.250   3.705  0.0243  0.1441  0.9410
 1010MOL0     C39258   1.324   3.301   3.834 -0.0518 -0.0089 -0.2907
 1010MOL0     N39259   1.346   3.445   3.819  0.1799 -0.7886 -0.2920
 1010MOL0     C39260   1.473   3.509   3.824  0.5748 -0.4045  1.1055
 1010MOL0     C39261   1.428   3.634   3.783 -0.5580 -0.0854 -0.5589
 1010MOL0     C39262   1.519   3.753   3.763  0.2063 -0.0362  0.3191
 1010MOL0     C39263   1.518   3.848   3.885  1.3127  0.2552  0.7390
 1010MOL0     C39264   1.615   3.774   3.983 -0.5059 -0.2157 -0.0313
 1010MOL0     C39265   1.636   3.850   4.123 -0.0139  0.5635  1.6406
 1010MOL0     O39266   1.548   3.816   4.227 -0.2430  1.1420  0.1210
 1010MOL0     C39267   1.559   3.700   4.295 -0.3655  0.1943  0.0026
 1010MOL0     C39268   1.660   3.607   4.270 -0.5975 -0.3058 -0.1493
 1010MOL0     C39269   1.682   3.496   4.352  0.0891 -0.5057 -0.0765
 1010MOL0     C39270   1.771   3.386   4.294 -0.3340  0.4177  0.5209
 1010MOL0     C39271   1.603   3.486   4.478 -0.4874  0.4279  0.1728
 1010MOL0     C39272   1.622   3.372   4.582  0.1010 -0.3330  1.2714
 1010MOL0     O39273   1.531   3.378   4.689  0.0693  0.0544  0.0306
 1010MOL0     C39274   1.541   3.265   4.763  0.5829 -0.6153 -0.6754
 1010MOL0     C39275   1.452   3.160   4.741 -0.2664  1.0218  0.1467
 1010MOL0     C39276   1.445   3.047   4.826  0.5682  0.0937  0.5813
 1010MOL0     C39277   1.527   3.040   4.936 -0.5090 -0.1035  0.0796
 1010MOL0     O39278   1.521   2.916   5.002 -0.9129 -0.2555  0.7953
 1010MOL0     C39279   1.568   2.904   5.136  0.0134  0.3273  0.1423
 1010MOL0     C39280   1.547   2.766   5.199  0.4101  0.9434  0.0002
 1010MOL0     C39281   1.632   2.727   5.319  0.1925 -0.2763  0.4154
 1010MOL0     C39282   1.609   2.591   5.372 -0.5204  0.7563 -0.0525
 1010MOL0     C39283   1.459   2.557   5.403 -0.0401  0.5540 -0.2927
 1010MOL0     C39284   1.403   2.647   5.516 -0.4183 -0.1207 -0.5395
 1010MOL0     C39285   1.279   2.584   5.575 -0.3565  0.1749 -0.0496
 1010MOL0     C39286   1.236   2.671   5.693  1.0041 -0.1790  0.2307
 1010MOL0    Cl39287   1.094   2.599   5.751  0.5708  0.1897  0.2405
 1010MOL0     C39288   1.612   3.149   4.965  0.2716 -0.2115  0.3896
 1010MOL0     C39289   1.615   3.259   4.878 -0.0869  0.5131 -0.8431
 1010MOL0     O39290   1.716   3.296   4.573 -0.4785 -0.5083 -0.1002
 1010MOL0     C39291   1.507   3.586   4.503  0.3705  0.0280  0.6198
 1010MOL0     C39292   1.480   3.690   4.410 -0.6306  0.2372 -0.2118
 1010MOL0     N39293   1.294   3.635   3.747 -0.8770 -0.9014  0.3324
 1010MOL0     N39294   1.235   3.526   3.784 -0.5820 -0.7516 -0.2560
 1010MOL0     C39295   1.093   2.473   3.467  0.5718 -0.2561  0.1786
 1010MOL0     C39296   1.026   2.356   3.415 -0.7362 -0.1910 -0.3793
 1010MOL0     C39297   0.869   1.922   3.418 -0.1260  0.8798  0.2773
 1010MOL0     C39298   0.851   1.809   3.493 -0.0732  0.4450  0.2102
 1010MOL0     C39299   0.797   1.691   3.445 -0.5003 -0.2269  1.1782
 1010MOL0     C39300   0.734   1.683   3.327  0.7039 -0.0904  0.7722
 1010MOL0     O39301   0.658   1.578   3.298 -0.4402  0.7597  0.0181
 1010MOL0     C39302   0.640   1.542   3.158 -1.0136 -0.7990 -0.6459
 1010MOL0     C39303   0.690   1.398   3.144 -1.5572 -0.4348  0.9378
 1010MOL0     C39304   0.684   1.337   3.003  0.5471 -0.6762 -0.1717
 1010MOL0     C39305   0.552   1.341   2.924 -0.3030  0.1600 -0.0713
 1010MOL0     C39306   0.436   1.286   2.993 -0.3310  0.7112 -0.1340
 1010MOL0     C39307   0.350   1.223   3.055 -0.2548  0.0843  0.3994
 1010MOL0     C39308   0.747   1.802   3.242  0.4741  0.5131 -0.0389
 1010MOL0     C39309   0.808   1.918   3.287  0.2584  0.5692  0.1217
 1010MOL0     C39310   0.817   2.037   3.190 -0.2844  0.3410 -0.1662
 1010MOL0     H39311   1.210   2.126   3.587 -1.4764  0.2438  1.5389
 1010MOL0     H39312   1.294   2.322   3.686 -0.7570  3.5121  0.5335
 1010MOL0     H39313   1.443   2.512   3.661  1.0903  1.0877  1.5272
 1010MOL0     H39314   1.332   2.497   3.793  3.4714  0.3142  0.5153
 1010MOL0     H39315   1.507   2.691   3.793 -0.2993  1.2802  0.7577
 1010MOL0     H39316   1.417   2.753   3.660  5.1001 -0.8013  0.5179
 1010MOL0     H39317   1.233   2.696   3.889 -1.7646  0.5293 -1.9338
 1010MOL0     H39318   1.367   2.812   3.917  0.9296 -0.5530  0.2828
 1010MOL0     H39319   1.200   2.840   3.661 -0.4999  0.5762 -0.3870
 1010MOL0     H39320   1.113   2.887   3.806 -0.2754 -1.0873 -1.3566
 1010MOL0     H39321   1.371   2.997   3.674  0.0640  2.6190  1.1972
 1010MOL0     H39322   1.347   3.034   3.839 -0.1787 -0.0363 -0.3714
 1010MOL0     H39323   1.143   3.088   3.613  1.0471  1.0650 -1.1432
 1010MOL0     H39324   1.118   3.107   3.788  0.6959 -1.1565  0.3588
 1010MOL0     H39325   1.189   3.320   3.666 -1.4375 -0.8824  1.7966
 1010MOL0     H39326   1.351   3.246   3.639  0.8552 -0.0798  2.0276
 1010MOL0     H39327   1.234   3.287   3.896 -0.7036  0.1029 -1.1878
 1010MOL0     H39328   1.415   3.247   3.861  0.0843  0.2408 -0.2540
 1010MOL0     H39329   1.577   3.478   3.834  1.1003  1.0772  0.6091
 1010MOL0     H39330   1.483   3.811   3.677  0.6729  1.7504  1.2862
 1010MOL0     H39331   1.618   3.710   3.747 -0.2326 -2.1730  2.7899
 1010MOL0     H39332   1.564   3.944   3.861  0.4890  0.3631 -0.4865
 1010MOL0     H39333   1.414   3.849   3.919  1.5258 -1.9173  1.5865
 1010MOL0     H39334   1.585   3.674   4.016 -0.7180 -0.2802 -0.4173
 1010MOL0     H39335   1.714   3.758   3.940 -0.0828  2.3546 -0.2150
 1010MOL0     H39336   1.735   3.831   4.165  0.0780  0.9717  1.6072
 1010MOL0     H39337   1.639   3.956   4.098 -1.5179 -0.3980 -4.3343
 1010MOL0     H39338   1.732   3.619   4.190 -0.2497  0.2626  0.2370
 1010MOL0     H39339   1.699   3.310   4.261 -1.3688  1.9155 -0.8638
 1010MOL0     H39340   1.846   3.345   4.362  1.2255  0.8977 -0.8261
 1010MOL0     H39341   1.824   3.407   4.200 -1.1448 -1.2005 -0.3348
 1010MOL0     H39342   1.386   3.157   4.655 -2.5990  2.7107  1.7540
 1010MOL0     H39343   1.380   2.961   4.816  3.4099 -2.2351  0.5808
 1010MOL0     H39344   1.674   2.931   5.147  0.3590 -1.8822  4.2936
 1010MOL0     H39345   1.516   2.973   5.203 -1.7236 -3.1412  2.6622
 1010MOL0     H39346   1.441   2.764   5.227 -0.3112  2.7229 -2.2555
 1010MOL0     H39347   1.566   2.689   5.124  1.4051 -1.4152  2.5167
 1010MOL0     H39348   1.618   2.795   5.404  0.4278 -1.0292  1.0714
 1010MOL0     H39349   1.740   2.727   5.304  0.3685 -1.2413  1.5605
 1010MOL0     H39350   1.660   2.599   5.468  0.8555 -0.9149 -0.5723
 1010MOL0     H39351   1.655   2.509   5.315  2.1757  1.4305  1.0135
 1010MOL0     H39352   1.389   2.547   5.320 -0.9218 -0.8723  0.5708
 1010MOL0     H39353   1.471   2.464   5.460 -1.0888  2.2063  2.8545
 1010MOL0     H39354   1.376   2.742   5.470  0.7757 -0.3585 -1.8144
 1010MOL0     H39355   1.475   2.659   5.598  0.0196  0.1723 -0.9593
 1010MOL0     H39356   1.304   2.483   5.609 -2.1903 -1.1854 -2.4176
 1010MOL0     H39357   1.195   2.575   5.507 -0.8593  0.2589  0.5480
 1010MOL0     H39358   1.225   2.778   5.671 -0.5985 -0.3396  0.0954
 1010MOL0     H39359   1.298   2.678   5.783 -1.6915  0.6717  2.1872
 1010MOL0     H39360   1.672   3.138   5.055  1.1699  0.1516 -0.1539
 1010MOL0     H39361   1.678   3.344   4.902  0.2823 -0.3405  1.5692
 1010MOL0     H39362   1.442   3.580   4.590 -0.1137 -4.7087  0.2010
 1010MOL0     H39363   1.415   3.774   4.432 -1.6451 -0.3679 -0.7989
 1010MOL0     H39364   1.071   2.570   3.423  1.5330  0.8363  1.9922
 1010MOL0     H39365   0.938   2.386   3.359  0.1266  1.8220 -0.7389
 1010MOL0     H39366   0.907   1.795   3.585 -0.0876 -4.1684 -0.2186
 1010MOL0     H39367   0.806   1.597   3.499 -2.9363 -1.3818 -0.2731
 1010MOL0     H39368   0.537   1.541   3.121 -0.4920 -2.3482 -2.1362
 1010MOL0     H39369   0.682   1.613   3.086 -2.7213  1.7833  0.7072
 1010MOL0     H39370   0.625   1.339   3.210  1.1746 -1.3894  2.9646
 1010MOL0     H39371   0.794   1.394   3.179 -1.3766  1.7439  0.8249
 1010MOL0     H39372   0.756   1.399   2.947  1.5522 -0.5142  1.2575
 1010MOL0     H39373   0.716   1.234   3.015 -0.0861 -1.2103 -2.5478
 1010MOL0     H39374   0.579   1.286   2.833  3.6074  2.1489 -0.3383
 1010MOL0     H39375   0.529   1.438   2.880  0.7841  0.3116 -0.3490
 1010MOL0     H39376   0.277   1.180   3.120 -0.1132 -2.1882 -0.8358
 1010MOL0     H39377   0.704   1.809   3.143 -0.4976 -0.0687  0.3219
 1010MOL0     H39378   0.911   2.030   3.134  0.8115  2.3172  1.2576
 1010MOL0     H39379   0.727   2.044   3.129 -2.4781 -0.6623  2.7503
 1010MOL0     H39380   0.823   2.133   3.243 -4.3191  1.1088 -0.7923
 1011MOL0     O39381   8.909   5.492   3.091 -0.9602 -0.0803 -0.2364
 1011MOL0     C39382   8.847   5.583   3.145 -0.6191  0.3317 -0.0064
 1011MOL0     O39383   8.777   5.680   3.075  0.0589  0.3305  0.1814
 1011MOL0     C39384   8.764   5.655   2.940 -0.1317  0.1328 -0.2151
 1011MOL0     C39385   8.639   5.599   2.901 -0.5264 -0.6615 -0.8950
 1011MOL0     C39386   8.594   5.617   2.770 -0.3782  0.4485 -0.0436
 1011MOL0     C39387   8.676   5.673   2.677 -0.0453 -0.3661 -0.7630
 1011MOL0     O39388   8.623   5.668   2.551 -0.2153 -0.2319  0.0728
 1011MOL0     C39389   8.667   5.774   2.464  0.1899  0.1675 -0.6984
 1011MOL0     C39390   8.772   5.713   2.373  0.8111  0.3370 -0.2876
 1011MOL0     C39391   8.703   5.642   2.251 -0.0563 -0.8130 -0.3623
 1011MOL0     C39392   8.786   5.674   2.127  0.0822  0.2325  0.4377
 1011MOL0     C39393   8.719   5.645   1.987  0.0484  0.4782 -0.4922
 1011MOL0     C39394   8.670   5.496   1.987 -0.2476 -0.1424  0.6302
 1011MOL0     C39395   8.594   5.476   1.859 -0.8991  0.1553 -0.9187
 1011MOL0     C39396   8.530   5.343   1.849  0.2174 -0.2716 -0.7427
 1011MOL0     N39397   8.633   5.247   1.812  0.5053 -0.2568 -0.1827
 1011MOL0     C39398   8.709   5.240   1.696 -0.3120  0.0009  0.3007
 1011MOL0     C39399   8.772   5.122   1.705 -0.1250  0.9771 -0.2360
 1011MOL0     C39400   8.895   5.073   1.625 -0.4601 -0.5708  0.2169
 1011MOL0     C39401   9.020   5.045   1.705 -0.6431 -0.1782 -0.3689
 1011MOL0     C39402   9.149   4.995   1.629 -0.9073  0.1738  0.2273
 1011MOL0     C39403   9.245   4.937   1.731 -0.5734  0.3268  0.0038
 1011MOL0     O39404   9.349   4.880   1.656 -0.4203  0.1054 -0.4579
 1011MOL0     C39405   9.456   4.824   1.728  0.3355 -0.0602 -0.0533
 1011MOL0     C39406   9.558   4.762   1.655  0.6447  0.8418 -0.4569
 1011MOL0     C39407   9.684   4.735   1.708 -1.3374 -0.0374 -0.3207
 1011MOL0     C39408   9.780   4.669   1.620 -0.8073 -0.0276 -0.8394
 1011MOL0     C39409   9.706   4.762   1.850 -1.0507  0.6345 -0.2764
 1011MOL0     C39410   9.839   4.750   1.912  0.6574 -0.3271  0.2247
 1011MOL0     O39411   9.843   4.743   2.053 -0.7506  0.0038  0.1684
 1011MOL0     C39412   9.963   4.733   2.112 -0.6715  0.0587  0.5445
 1011MOL0     C39413  10.006   4.614   2.168  0.8450 -0.8669  0.5353
 1011MOL0     C39414  10.123   4.602   2.250 -0.4825 -0.0485 -0.3382
 1011MOL0     C39415  10.204   4.713   2.259 -0.5074  0.2011 -0.6762
 1011MOL0     O39416  10.329   4.687   2.311 -0.3353 -0.2609  0.3384
 1011MOL0     C39417  10.434   4.779   2.288  0.1048 -0.5677  0.1665
 1011MOL0     C39418  10.565   4.717   2.345 -0.2741  0.3017  0.2800
 1011MOL0     C39419  10.614   4.588   2.263  0.5282 -0.7823 -0.1873
 1011MOL0     C39420  10.742   4.532   2.323 -0.4834  0.2750  0.9303
 1011MOL0     C39421  10.830   4.447   2.220  0.6319 -0.1736  0.2394
 1011MOL0     C39422  10.859   4.522   2.091 -0.0970 -0.0066 -0.1823
 1011MOL0     C39423  10.972   4.446   2.006 -0.9342  0.2140 -0.8982
 1011MOL0     C39424  10.989   4.494   1.872 -1.3482 -0.0678 -0.2198
 1011MOL0    Cl39425  10.838   4.457   1.775 -0.5752  0.2931 -0.0363
 1011MOL0     C39426  10.156   4.833   2.200 -1.1745 -0.0583 -0.7199
 1011MOL0     C39427  10.046   4.841   2.130 -0.6173 -1.0890  0.6677
 1011MOL0     O39428   9.936   4.751   1.843  0.8953  0.0753  1.1623
 1011MOL0     C39429   9.599   4.806   1.929  0.4686 -1.4592  0.5690
 1011MOL0     C39430   9.479   4.841   1.865 -0.0240 -0.4773 -0.0254
 1011MOL0     N39431   8.732   5.053   1.824  0.8786 -0.9046 -0.2559
 1011MOL0     N39432   8.649   5.135   1.889 -0.3104  0.3959 -0.0191
 1011MOL0     C39433   8.804   5.718   2.710 -0.1082  0.0188 -0.4476
 1011MOL0     C39434   8.847   5.716   2.844 -0.3009 -0.8146  0.8139
 1011MOL0     C39435   8.832   5.570   3.291 -0.4873  0.3405 -0.3123
 1011MOL0     C39436   8.784   5.684   3.357  0.1788 -0.0628 -0.0552
 1011MOL0     C39437   8.763   5.693   3.494  0.1183  0.0858 -0.2609
 1011MOL0     C39438   8.774   5.573   3.578 -0.2511 -0.4604 -0.0025
 1011MOL0     O39439   8.751   5.571   3.717  0.1653  0.1143  0.1623
 1011MOL0     C39440   8.631   5.631   3.758 -0.4016 -0.9627 -0.0572
 1011MOL0     C39441   8.508   5.540   3.725 -0.7799  0.0271  0.2695
 1011MOL0     C39442   8.529   5.396   3.775  0.1108 -0.3199  0.4712
 1011MOL0     C39443   8.530   5.395   3.929  0.2185  1.2163 -0.2091
 1011MOL0     C39444   8.665   5.407   3.986 -0.1965 -0.1377  0.3545
 1011MOL0     C39445   8.788   5.398   4.020  0.0146  1.0513  0.4623
 1011MOL0     C39446   8.837   5.467   3.516  0.0411 -0.1116 -0.1948
 1011MOL0     C39447   8.872   5.460   3.377 -0.3801  0.0714  0.1395
 1011MOL0     C39448   8.923   5.333   3.313  0.0903 -0.8389 -0.4225
 1011MOL0     H39449   8.580   5.551   2.979 -0.6929 -0.2864 -0.7829
 1011MOL0     H39450   8.501   5.570   2.739  0.8283 -1.3419 -1.1800
 1011MOL0     H39451   8.705   5.857   2.525  1.7803  0.1073 -1.5612
 1011MOL0     H39452   8.586   5.813   2.402  1.3737 -1.5391 -3.5010
 1011MOL0     H39453   8.835   5.797   2.343 -2.3785  3.5558  1.2280
 1011MOL0     H39454   8.832   5.637   2.426  2.2890  2.2398  0.8901
 1011MOL0     H39455   8.686   5.535   2.267 -1.3700 -0.7591 -1.2132
 1011MOL0     H39456   8.600   5.678   2.246  0.0862 -0.0339  1.4915
 1011MOL0     H39457   8.801   5.783   2.125  1.4155  0.0444 -1.5431
 1011MOL0     H39458   8.875   5.616   2.150  0.3463  0.7436  0.7436
 1011MOL0     H39459   8.792   5.681   1.914  2.4021  0.5678  1.7734
 1011MOL0     H39460   8.622   5.697   1.985 -0.8857 -1.0731  1.5668
 1011MOL0     H39461   8.759   5.433   1.999  0.7324  1.0332 -0.3111
 1011MOL0     H39462   8.604   5.485   2.074  0.9083  0.4926  1.6254
 1011MOL0     H39463   8.668   5.486   1.779  1.1472  1.2388  1.0084
 1011MOL0     H39464   8.521   5.554   1.835 -1.2505 -0.1389 -0.8047
 1011MOL0     H39465   8.494   5.303   1.944  0.2901  0.6812 -0.3084
 1011MOL0     H39466   8.443   5.347   1.782  3.9936 -1.1785 -6.4288
 1011MOL0     H39467   8.713   5.321   1.625  0.9789  1.5918  2.0742
 1011MOL0     H39468   8.919   5.139   1.542  3.6481 -4.5686 -2.1773
 1011MOL0     H39469   8.856   4.986   1.572 -2.1332  0.1050  0.2749
 1011MOL0     H39470   9.060   5.129   1.763  4.3273  0.1822 -3.7018
 1011MOL0     H39471   8.991   4.967   1.777 -1.2361  0.1593 -0.2371
 1011MOL0     H39472   9.126   4.928   1.546  0.3747  0.2471 -0.2096
 1011MOL0     H39473   9.203   5.078   1.582  0.4772 -0.5600  0.4741
 1011MOL0     H39474   9.281   5.002   1.811  0.4991  1.5135 -1.3861
 1011MOL0     H39475   9.193   4.864   1.793  1.3007 -0.2250  1.0122
 1011MOL0     H39476   9.540   4.761   1.548  0.5905 -0.1034 -0.4530
 1011MOL0     H39477   9.738   4.633   1.526 -1.1910  0.5797 -0.9059
 1011MOL0     H39478   9.829   4.590   1.678 -1.7434 -0.2102 -0.2768
 1011MOL0     H39479   9.859   4.740   1.593 -1.8526  0.6997 -2.0907
 1011MOL0     H39480   9.950   4.521   2.161 -0.0683 -0.5516  3.0144
 1011MOL0     H39481  10.155   4.506   2.289  0.6547  1.2908  2.2570
 1011MOL0     H39482  10.445   4.814   2.185 -0.6092 -3.1073 -0.8374
 1011MOL0     H39483  10.415   4.874   2.340  1.3441 -0.9012  1.2726
 1011MOL0     H39484  10.645   4.792   2.346 -0.0369  0.0467  0.5609
 1011MOL0     H39485  10.552   4.691   2.450 -4.2118  1.3894  0.2231
 1011MOL0     H39486  10.616   4.608   2.156  0.0341 -2.2504 -0.4906
 1011MOL0     H39487  10.528   4.523   2.283  0.6456 -0.2453  2.5745
 1011MOL0     H39488  10.731   4.480   2.419 -0.9851 -0.0681  0.6935
 1011MOL0     H39489  10.809   4.615   2.344  0.3823  0.1469 -1.0627
 1011MOL0     H39490  10.920   4.430   2.280  1.0100  1.0451  0.0399
 1011MOL0     H39491  10.777   4.352   2.211  0.3458 -0.4163  3.2088
 1011MOL0     H39492  10.889   4.624   2.115  2.0784 -0.4832 -0.5909
 1011MOL0     H39493  10.761   4.521   2.042 -1.2985 -0.8830  2.0941
 1011MOL0     H39494  10.947   4.343   1.980 -0.0711 -0.8562  2.1535
 1011MOL0     H39495  11.066   4.460   2.060 -0.3415 -2.4023 -1.1320
 1011MOL0     H39496  11.078   4.439   1.838 -0.8364 -2.5739  4.2473
 1011MOL0     H39497  10.996   4.602   1.860  0.9058 -0.0060  0.9988
 1011MOL0     H39498  10.215   4.925   2.203 -3.2652  1.3384  0.7865
 1011MOL0     H39499  10.036   4.941   2.087  0.4358 -0.3599  2.0254
 1011MOL0     H39500   9.590   4.813   2.037 -2.0346  1.8768  0.3227
 1011MOL0     H39501   9.403   4.893   1.922 -0.6589 -0.1790 -1.1001
 1011MOL0     H39502   8.865   5.769   2.636 -0.7335  3.2190  1.0628
 1011MOL0     H39503   8.942   5.754   2.881 -0.6444  1.7603 -0.7077
 1011MOL0     H39504   8.760   5.773   3.300  1.5384  2.3623  2.8494
 1011MOL0     H39505   8.750   5.792   3.536  1.1221  0.0204  0.2227
 1011MOL0     H39506   8.643   5.657   3.863  1.4485 -0.9294 -0.2452
 1011MOL0     H39507   8.628   5.729   3.710  1.9425 -1.2010 -0.8150
 1011MOL0     H39508   8.488   5.539   3.617 -0.3375  1.4163  0.1547
 1011MOL0     H39509   8.414   5.577   3.768 -1.5149 -1.9210  0.4667
 1011MOL0     H39510   8.450   5.333   3.732 -0.4105  0.2522  0.5838
 1011MOL0     H39511   8.624   5.357   3.738  0.9814  1.4896  0.7207
 1011MOL0     H39512   8.493   5.306   3.980  0.3169  1.1457 -0.2608
 1011MOL0     H39513   8.464   5.472   3.970  0.4753  1.0494  0.5266
 1011MOL0     H39514   8.890   5.383   4.047  0.2760 -0.4861 -1.1745
 1011MOL0     H39515   8.864   5.381   3.577 -0.9081  0.2400  0.7509
 1011MOL0     H39516   8.998   5.340   3.233 -0.0403 -0.5423 -0.5211
 1011MOL0     H39517   8.952   5.271   3.398  1.0757  0.8415  0.5232
 1011MOL0     H39518   8.841   5.285   3.259  0.7529 -1.4688 -0.8981
 1012MOL0     O39519   2.066   1.641   5.293  0.1842 -0.1467 -0.7952
 1012MOL0     C39520   2.142   1.701   5.213 -0.3745 -0.4625  0.7872
 1012MOL0     O39521   2.272   1.749   5.234  1.3103  0.2786  0.1111
 1012MOL0     C39522   2.315   1.737   5.369 -0.9804 -0.9187 -0.0565
 1012MOL0     C39523   2.354   1.857   5.428 -0.1586 -0.0230 -0.5845
 1012MOL0     C39524   2.391   1.858   5.564 -0.3332  0.0408 -1.2213
 1012MOL0     C39525   2.390   1.741   5.638  0.1452  0.1765  0.8086
 1012MOL0     O39526   2.428   1.749   5.771 -0.0963 -0.5969  1.0320
 1012MOL0     C39527   2.461   1.627   5.836  0.9956 -0.8017 -0.5066
 1012MOL0     C39528   2.341   1.573   5.919 -1.1559 -0.2307  0.0865
 1012MOL0     C39529   2.394   1.488   6.035  0.3301  0.0272  0.7480
 1012MOL0     C39530   2.437   1.347   5.999 -0.1329  0.5121 -0.3096
 1012MOL0     C39531   2.548   1.308   6.088 -0.4680  0.0623 -0.0769
 1012MOL0     C39532   2.604   1.163   6.084 -0.0523 -1.1360  0.8768
 1012MOL0     C39533   2.727   1.166   6.171  1.0539  0.8119 -0.2401
 1012MOL0     C39534   2.752   1.021   6.211 -0.9108  0.8480 -0.2632
 1012MOL0     N39535   2.789   0.930   6.100  0.6247 -0.3009 -1.5335
 1012MOL0     C39536   2.713   0.826   6.061 -0.1789  0.0639 -0.8584
 1012MOL0     C39537   2.785   0.778   5.955  0.2027  0.0766 -0.0033
 1012MOL0     C39538   2.753   0.659   5.863  0.0350 -0.1811 -0.3363
 1012MOL0     C39539   2.633   0.661   5.764  1.2429  0.4203 -0.3713
 1012MOL0     C39540   2.508   0.660   5.843 -0.1244 -0.2246 -0.0465
 1012MOL0     C39541   2.442   0.801   5.859  0.1771 -0.1731  0.1975
 1012MOL0     O39542   2.350   0.800   5.966  0.0111 -0.0568 -1.0062
 1012MOL0     C39543   2.279   0.907   6.002 -0.6501 -0.5295  0.8194
 1012MOL0     C39544   2.240   1.006   5.909 -0.0999  0.5151 -0.8374
 1012MOL0     C39545   2.148   1.105   5.947 -0.2586  0.3332  0.1660
 1012MOL0     C39546   2.135   1.206   5.837  0.4700  0.5961 -0.4926
 1012MOL0     C39547   2.097   1.115   6.079 -0.3923 -0.3820 -1.0316
 1012MOL0     C39548   1.986   1.215   6.128 -0.1295  0.7297 -0.2544
 1012MOL0     O39549   1.996   1.256   6.257  0.1174 -0.3874 -0.2068
 1012MOL0     C39550   1.897   1.336   6.311 -0.1027  0.3348  0.5637
 1012MOL0     C39551   1.881   1.472   6.292 -0.0725 -0.5010 -0.3965
 1012MOL0     C39552   1.773   1.541   6.342 -0.5915 -0.5980 -0.2530
 1012MOL0     C39553   1.667   1.466   6.388  0.5783 -0.3640 -0.1538
 1012MOL0     O39554   1.546   1.516   6.423 -0.3275 -0.2469 -0.1964
 1012MOL0     C39555   1.542   1.655   6.448 -0.3299  0.3714 -0.0673
 1012MOL0     C39556   1.423   1.703   6.526 -0.4129 -0.3285 -0.9247
 1012MOL0     C39557   1.283   1.678   6.466 -0.2027 -0.3994 -0.5923
 1012MOL0     C39558   1.217   1.544   6.443 -0.2216  0.4334 -1.0068
 1012MOL0     C39559   1.087   1.549   6.364 -0.5144  0.4728  0.9864
 1012MOL0     C39560   1.029   1.407   6.334 -1.1999 -0.3454  1.5086
 1012MOL0     C39561   0.883   1.419   6.294  0.0103  0.0004  0.3717
 1012MOL0     C39562   0.827   1.284   6.253 -0.5695  0.4869 -0.3415
 1012MOL0    Cl39563   0.833   1.266   6.077  0.1022 -0.1128 -0.4616
 1012MOL0     C39564   1.677   1.323   6.394  0.9619 -0.4168  0.1166
 1012MOL0     C39565   1.792   1.267   6.357 -0.0336  0.2582 -0.4735
 1012MOL0     O39566   1.917   1.262   6.042 -0.2667 -0.1693 -0.4674
 1012MOL0     C39567   2.152   1.027   6.172  0.1107 -0.1908  0.0902
 1012MOL0     C39568   2.243   0.927   6.137  0.2235  0.3630  0.2006
 1012MOL0     N39569   2.895   0.859   5.937 -0.0459  0.1524  0.3395
 1012MOL0     N39570   2.902   0.947   6.029  0.1253 -0.2475  0.6828
 1012MOL0     C39571   2.358   1.617   5.575  0.8609 -0.6901  0.5650
 1012MOL0     C39572   2.329   1.625   5.437 -0.8366  0.7698 -1.1508
 1012MOL0     C39573   2.093   1.711   5.075  0.0387  0.0849  0.0950
 1012MOL0     C39574   2.055   1.585   5.023 -0.9725  0.0861 -0.0814
 1012MOL0     C39575   2.002   1.582   4.896 -0.2243  0.4857 -0.2365
 1012MOL0     C39576   1.981   1.691   4.815 -0.1009  0.3720 -0.4059
 1012MOL0     O39577   1.927   1.656   4.691 -0.3845 -1.0880 -0.3903
 1012MOL0     C39578   1.845   1.759   4.620  0.4119 -0.1713  0.1340
 1012MOL0     C39579   1.923   1.855   4.523  0.4720 -0.1278 -0.1519
 1012MOL0     C39580   1.921   1.810   4.376 -0.5611 -0.8515  0.2378
 1012MOL0     C39581   1.992   1.911   4.279  0.2313  0.2337 -0.0281
 1012MOL0     C39582   1.924   2.044   4.281 -0.5476 -0.0684  1.0181
 1012MOL0     C39583   1.871   2.156   4.260  0.2937  0.5446  0.8418
 1012MOL0     C39584   2.026   1.815   4.865 -0.0018 -0.0846  0.1044
 1012MOL0     C39585   2.085   1.830   4.993  0.6997 -1.0156 -0.3025
 1012MOL0     C39586   2.143   1.963   5.037  0.4558 -0.8842  0.9244
 1012MOL0     H39587   2.343   1.951   5.375 -0.8694 -0.3358 -1.0133
 1012MOL0     H39588   2.426   1.947   5.616 -0.6134 -0.8238  0.4892
 1012MOL0     H39589   2.536   1.648   5.914 -0.4610  0.7934  0.5453
 1012MOL0     H39590   2.490   1.544   5.771 -0.9972 -0.9996 -1.2192
 1012MOL0     H39591   2.295   1.661   5.964  0.4356  0.9390 -0.5059
 1012MOL0     H39592   2.264   1.525   5.857 -3.0356 -0.5391  2.4999
 1012MOL0     H39593   2.472   1.546   6.085  0.3281  0.0956  0.6720
 1012MOL0     H39594   2.315   1.474   6.110 -0.0327 -1.2954  0.1403
 1012MOL0     H39595   2.356   1.276   6.014  1.0246 -0.8794 -0.4556
 1012MOL0     H39596   2.468   1.344   5.894 -1.6244  2.8748 -0.9039
 1012MOL0     H39597   2.512   1.318   6.191  2.0525 -1.1865  1.0138
 1012MOL0     H39598   2.632   1.376   6.073  0.1808 -0.9458 -1.1568
 1012MOL0     H39599   2.526   1.102   6.131 -1.9796  1.3428  1.0694
 1012MOL0     H39600   2.622   1.129   5.981  0.7932  2.3628 -0.2783
 1012MOL0     H39601   2.712   1.222   6.263  1.7284 -0.1549  0.4686
 1012MOL0     H39602   2.810   1.203   6.111  2.9807 -2.9532 -0.1751
 1012MOL0     H39603   2.838   1.019   6.278 -2.4388  1.2133  1.7781
 1012MOL0     H39604   2.668   0.975   6.263  2.1238 -3.3304  1.5977
 1012MOL0     H39605   2.623   0.791   6.111 -1.3143  3.0757 -0.5501
 1012MOL0     H39606   2.764   0.567   5.921  1.4088  0.8820  1.1386
 1012MOL0     H39607   2.838   0.658   5.794 -0.8627  0.7769 -1.4984
 1012MOL0     H39608   2.650   0.751   5.704  1.3620  0.5074 -0.2093
 1012MOL0     H39609   2.620   0.574   5.698 -1.8100 -0.8985  1.7681
 1012MOL0     H39610   2.444   0.583   5.798  0.3724  0.1047 -1.3494
 1012MOL0     H39611   2.537   0.617   5.940  0.9674  1.5299  0.4515
 1012MOL0     H39612   2.504   0.888   5.881 -2.5932  1.7795  0.7943
 1012MOL0     H39613   2.401   0.826   5.761  2.3957  2.5148 -0.1701
 1012MOL0     H39614   2.267   1.000   5.804 -0.0597  4.0899 -1.1398
 1012MOL0     H39615   2.106   1.302   5.881 -1.1355  0.2142 -0.6618
 1012MOL0     H39616   2.062   1.182   5.760 -1.3785  0.8955  1.0970
 1012MOL0     H39617   2.230   1.223   5.785  0.7669 -1.2628 -0.6262
 1012MOL0     H39618   1.950   1.531   6.232 -0.8942  0.4777 -0.4181
 1012MOL0     H39619   1.770   1.648   6.326  4.3806  0.1799  2.1791
 1012MOL0     H39620   1.631   1.684   6.505  0.4842 -1.4193 -0.3530
 1012MOL0     H39621   1.556   1.717   6.358  1.7631  0.4223  0.2293
 1012MOL0     H39622   1.435   1.650   6.620  0.3406 -0.1666 -0.9246
 1012MOL0     H39623   1.434   1.811   6.541  0.3774 -0.6860  1.4673
 1012MOL0     H39624   1.274   1.727   6.369 -2.2161  0.1951 -0.1587
 1012MOL0     H39625   1.217   1.741   6.527 -1.0716 -1.9561  0.1295
 1012MOL0     H39626   1.187   1.497   6.537  2.2508 -1.2861 -0.9589
 1012MOL0     H39627   1.282   1.463   6.406 -0.0512  1.6162 -3.5294
 1012MOL0     H39628   1.016   1.612   6.418 -0.1370  0.7220  1.2011
 1012MOL0     H39629   1.122   1.585   6.267 -0.3417 -1.2939  0.3584
 1012MOL0     H39630   1.046   1.347   6.424  2.2754  0.0720  1.2820
 1012MOL0     H39631   1.074   1.365   6.243 -3.6891 -0.5171  0.2934
 1012MOL0     H39632   0.859   1.499   6.223 -0.5651 -0.0620  0.4849
 1012MOL0     H39633   0.828   1.454   6.383  0.3810  1.6660 -0.0179
 1012MOL0     H39634   0.728   1.262   6.293 -0.7998 -0.7458 -1.5145
 1012MOL0     H39635   0.881   1.204   6.305  2.9514  0.9765 -2.8819
 1012MOL0     H39636   1.591   1.267   6.429 -0.4722  0.8719 -1.2089
 1012MOL0     H39637   1.802   1.159   6.359 -1.7601  0.0841  1.0703
 1012MOL0     H39638   2.140   1.038   6.280  2.6912 -1.2802  0.5568
 1012MOL0     H39639   2.286   0.864   6.214  1.2110 -0.7610 -1.1941
 1012MOL0     H39640   2.337   1.525   5.630 -2.6119 -0.1145  0.4051
 1012MOL0     H39641   2.300   1.537   5.381 -1.8763  1.2929 -1.4667
 1012MOL0     H39642   2.080   1.496   5.079 -2.4640  0.3195  1.0356
 1012MOL0     H39643   1.978   1.483   4.858  3.1171 -0.4300 -0.3108
 1012MOL0     H39644   1.759   1.715   4.570  1.0997 -0.9357 -0.3901
 1012MOL0     H39645   1.799   1.825   4.695 -0.3350 -1.9468  1.3081
 1012MOL0     H39646   2.028   1.854   4.553  0.1819  0.2320  0.8912
 1012MOL0     H39647   1.869   1.950   4.534 -2.3387 -1.3698 -1.8596
 1012MOL0     H39648   1.995   1.730   4.362  0.8125 -0.3060  3.5592
 1012MOL0     H39649   1.824   1.773   4.341 -1.9172  0.6044  2.2341
 1012MOL0     H39650   1.993   1.884   4.173 -1.3867  3.3717 -0.9576
 1012MOL0     H39651   2.100   1.917   4.296  0.3948 -1.5188 -0.2271
 1012MOL0     H39652   1.842   2.255   4.232  0.0079  0.8385  2.1302
 1012MOL0     H39653   2.016   1.899   4.798  1.4220  0.1206  0.1243
 1012MOL0     H39654   2.080   2.048   5.013  1.3586 -0.0313  1.4982
 1012MOL0     H39655   2.174   1.983   5.140 -0.2878  1.5464  0.7360
 1012MOL0     H39656   2.241   1.989   4.996 -0.9277  1.9034 -0.8831
 1013MOL0     O39657   4.969   4.592  10.569 -0.5015  0.1395  0.3128
 1013MOL0     C39658   4.903   4.489  10.564  0.3945 -0.3724  0.4431
 1013MOL0     O39659   4.886   4.397  10.660 -0.9487  0.5560  0.7416
 1013MOL0     C39660   4.946   4.410  10.782 -0.4070 -0.3334 -0.4926
 1013MOL0     C39661   5.082   4.417  10.807 -0.1716 -0.3586 -0.4895
 1013MOL0     C39662   5.129   4.427  10.940  0.2496 -0.5510  0.9997
 1013MOL0     C39663   5.036   4.432  11.040 -0.2151  0.9817  0.2468
 1013MOL0     O39664   5.065   4.455  11.168 -0.3582  0.8601 -0.7620
 1013MOL0     C39665   5.165   4.368  11.231  0.7226 -0.2813 -0.0672
 1013MOL0     C39666   5.107   4.248  11.297  0.3287  0.0748 -0.3409
 1013MOL0     C39667   4.971   4.265  11.375  0.0139  0.0305 -0.5912
 1013MOL0     C39668   4.954   4.159  11.488  0.4559  1.1117  0.3195
 1013MOL0     C39669   4.817   4.184  11.566 -0.7066  0.3143 -0.3425
 1013MOL0     C39670   4.813   4.299  11.653 -0.1173 -0.1716 -0.0704
 1013MOL0     C39671   4.716   4.298  11.767 -0.0926  0.0234  0.8021
 1013MOL0     C39672   4.571   4.306  11.720  0.6467 -0.1513  0.4680
 1013MOL0     N39673   4.479   4.290  11.826  1.2534  0.4332 -0.3857
 1013MOL0     C39674   4.415   4.395  11.889 -1.3261  0.5541 -0.2490
 1013MOL0     C39675   4.340   4.329  11.983  0.4385 -1.0754  0.0405
 1013MOL0     C39676   4.238   4.392  12.074 -0.6193 -0.2424 -1.2328
 1013MOL0     C39677   4.104   4.442  12.012  0.2430  0.0853 -0.1404
 1013MOL0     C39678   4.048   4.322  11.940  0.3027  0.7664  0.2270
 1013MOL0     C39679   3.901   4.334  11.900  0.3699 -0.4233 -0.2306
 1013MOL0     O39680   3.846   4.197  11.912 -0.5344  0.3750  0.0213
 1013MOL0     C39681   3.746   4.160  11.820 -0.4570  0.4725  0.0996
 1013MOL0     C39682   3.752   4.033  11.776  0.1955 -0.1485  0.7898
 1013MOL0     C39683   3.661   3.984  11.680 -0.7672  0.4361 -0.0548
 1013MOL0     C39684   3.663   3.837  11.658 -0.8919  0.8331  0.3180
 1013MOL0     C39685   3.564   4.076  11.628 -0.4849 -0.3336 -0.2484
 1013MOL0     C39686   3.473   4.045  11.519 -1.3962 -0.3298 -0.0881
 1013MOL0     O39687   3.357   4.109  11.521  0.3141 -0.5509  0.9511
 1013MOL0     C39688   3.267   4.095  11.418 -0.7120 -0.2455 -0.8581
 1013MOL0     C39689   3.268   4.167  11.298 -0.4107  0.4271 -0.4921
 1013MOL0     C39690   3.161   4.163  11.207  0.8221  0.3717 -0.4272
 1013MOL0     C39691   3.051   4.076  11.242 -0.0281  0.0046 -0.0775
 1013MOL0     O39692   2.940   4.067  11.169  0.4033  0.0095 -0.2215
 1013MOL0     C39693   2.948   4.063  11.025  0.7981  0.3287 -0.0470
 1013MOL0     C39694   2.828   3.997  10.960  0.0743  0.6705 -0.3651
 1013MOL0     C39695   2.847   3.844  10.987 -0.0897 -0.1096 -0.7454
 1013MOL0     C39696   2.757   3.762  10.895 -0.2320  0.4851  0.0880
 1013MOL0     C39697   2.780   3.607  10.915 -0.2734  0.5067  0.9816
 1013MOL0     C39698   2.910   3.555  10.866 -0.3730  0.8141  0.5031
 1013MOL0     C39699   2.919   3.405  10.898  0.5347 -0.0518  0.3104
 1013MOL0     C39700   2.955   3.392  11.042 -0.2579 -0.0228  0.3410
 1013MOL0    Cl39701   3.035   3.237  11.057  0.0830  0.1266  0.3225
 1013MOL0     C39702   3.042   4.011  11.366  0.1997 -0.1055  0.6824
 1013MOL0     C39703   3.150   4.022  11.451 -0.1722 -0.8678  0.1185
 1013MOL0     O39704   3.520   3.974  11.428 -0.0676 -0.3366  0.1741
 1013MOL0     C39705   3.564   4.210  11.675  0.2968 -0.6198  0.6247
 1013MOL0     C39706   3.647   4.251  11.780 -0.1060  0.3989 -0.3368
 1013MOL0     N39707   4.364   4.196  11.987 -0.3482  0.3062  1.0909
 1013MOL0     N39708   4.452   4.176  11.893 -0.2667  1.2753  0.5133
 1013MOL0     C39709   4.904   4.415  11.011 -0.3333 -0.3267 -0.3496
 1013MOL0     C39710   4.858   4.408  10.885  0.2803  0.2335  0.4241
 1013MOL0     C39711   4.794   4.488  10.455  0.1742  0.5011  0.1450
 1013MOL0     C39712   4.717   4.606  10.431  0.3220 -0.4662 -0.7677
 1013MOL0     C39713   4.619   4.607  10.328  0.0388  0.2205  0.0521
 1013MOL0     C39714   4.611   4.494  10.242  0.0803 -0.9013 -0.2995
 1013MOL0     O39715   4.531   4.515  10.130  0.2450  0.0358  0.6205
 1013MOL0     C39716   4.575   4.442  10.016 -0.1331 -0.1017 -0.1004
 1013MOL0     C39717   4.495   4.504   9.906  0.1208 -0.4135 -0.0887
 1013MOL0     C39718   4.355   4.439   9.908  0.2461 -1.8354  0.1714
 1013MOL0     C39719   4.270   4.521   9.809  0.4907  0.4329  0.8436
 1013MOL0     C39720   4.133   4.468   9.793 -0.7773 -0.0532 -0.4735
 1013MOL0     C39721   4.020   4.432   9.776 -0.5319  0.5293 -1.2071
 1013MOL0     C39722   4.693   4.383  10.270 -0.6172  0.1845  0.7867
 1013MOL0     C39723   4.786   4.382  10.367 -0.2826 -0.6057  0.7257
 1013MOL0     C39724   4.873   4.267  10.398 -0.1767 -0.0591 -0.2642
 1013MOL0     H39725   5.155   4.407  10.728  1.6273  1.6454  0.8400
 1013MOL0     H39726   5.237   4.429  10.951  0.3291  0.0864  0.2551
 1013MOL0     H39727   5.210   4.423  11.314  1.6322  0.0737 -0.7697
 1013MOL0     H39728   5.242   4.344  11.157  0.8387 -2.5245  0.6969
 1013MOL0     H39729   5.087   4.175  11.218  0.5599 -1.0180  0.5908
 1013MOL0     H39730   5.179   4.194  11.359 -2.8163 -1.0539  2.6409
 1013MOL0     H39731   4.970   4.362  11.427  1.5924  1.1252 -2.4630
 1013MOL0     H39732   4.880   4.270  11.314  0.4574  0.1114 -1.2496
 1013MOL0     H39733   4.955   4.060  11.442  0.2029  1.4193 -0.3599
 1013MOL0     H39734   5.036   4.177  11.559  1.4041 -3.5658  0.7326
 1013MOL0     H39735   4.804   4.090  11.620  0.0657 -0.9110 -2.1868
 1013MOL0     H39736   4.742   4.193  11.486  0.3576 -0.5139 -1.4805
 1013MOL0     H39737   4.913   4.302  11.699 -0.7996  0.6346  1.4741
 1013MOL0     H39738   4.796   4.388  11.592  1.7056  0.3271  0.0642
 1013MOL0     H39739   4.733   4.379  11.839  0.8423 -0.5079  1.1988
 1013MOL0     H39740   4.727   4.202  11.819 -0.4562  0.7674  2.3043
 1013MOL0     H39741   4.547   4.404  11.679 -3.5245 -0.9344  0.6264
 1013MOL0     H39742   4.561   4.230  11.642  5.8664  0.6855 -1.4731
 1013MOL0     H39743   4.408   4.502  11.875 -3.2163  0.1814 -3.2179
 1013MOL0     H39744   4.283   4.476  12.128  0.9678 -1.4748 -0.5415
 1013MOL0     H39745   4.222   4.314  12.149 -1.2228  1.6886  0.7583
 1013MOL0     H39746   4.034   4.469  12.092  0.9624 -0.0673  0.5549
 1013MOL0     H39747   4.123   4.527  11.945  0.9762  0.3933  0.4364
 1013MOL0     H39748   4.112   4.301  11.853  1.8752  0.3467  1.4317
 1013MOL0     H39749   4.062   4.236  12.006  2.9316  0.8869 -0.0658
 1013MOL0     H39750   3.840   4.396  11.965  1.6410  1.2041 -0.4984
 1013MOL0     H39751   3.894   4.373  11.798 -1.1561 -0.2295 -0.0735
 1013MOL0     H39752   3.826   3.966  11.820  1.3315  1.0982  0.8335
 1013MOL0     H39753   3.689   3.790  11.753  1.3128  1.8965  0.2887
 1013MOL0     H39754   3.731   3.810  11.576 -0.3098  1.6525  0.5185
 1013MOL0     H39755   3.563   3.798  11.635 -0.4850 -1.3036  1.9329
 1013MOL0     H39756   3.352   4.230  11.273  0.3810 -0.5450 -0.3458
 1013MOL0     H39757   3.157   4.210  11.109 -0.4632  0.4786 -0.3329
 1013MOL0     H39758   2.945   4.165  10.986  3.6093  0.4893 -0.0190
 1013MOL0     H39759   3.036   4.013  10.982 -1.4934 -2.8592 -1.4722
 1013MOL0     H39760   2.731   4.032  10.997 -0.6420 -1.4661 -0.0219
 1013MOL0     H39761   2.825   4.010  10.852 -0.5833 -2.1482 -0.7892
 1013MOL0     H39762   2.816   3.812  11.087  3.3261  0.6525  0.6717
 1013MOL0     H39763   2.951   3.813  10.974 -0.4444 -1.5958 -0.2144
 1013MOL0     H39764   2.788   3.773  10.790  1.6390 -0.4132  0.4928
 1013MOL0     H39765   2.661   3.811  10.907  0.0539  2.0565 -2.9623
 1013MOL0     H39766   2.764   3.575  11.018 -1.7340  0.0645  0.6258
 1013MOL0     H39767   2.704   3.568  10.847  2.4743 -1.8622 -0.9733
 1013MOL0     H39768   2.994   3.610  10.910  1.0046 -0.6354 -0.2091
 1013MOL0     H39769   2.904   3.576  10.758 -1.9907  1.9129  0.7635
 1013MOL0     H39770   2.991   3.366  10.825 -3.1438  0.1827 -3.8625
 1013MOL0     H39771   2.824   3.357  10.871  0.1147  0.2914  1.1410
 1013MOL0     H39772   2.866   3.399  11.105  1.0067 -2.1059  2.5391
 1013MOL0     H39773   3.024   3.465  11.084  0.6376  0.5067 -1.9381
 1013MOL0     H39774   2.953   3.954  11.391 -0.6938  0.6104 -0.7105
 1013MOL0     H39775   3.156   3.977  11.549  0.8197 -2.3057 -0.5744
 1013MOL0     H39776   3.491   4.275  11.629 -0.0773  0.8266  3.1045
 1013MOL0     H39777   3.632   4.351  11.818 -0.3038 -0.1345  1.0499
 1013MOL0     H39778   4.836   4.418  11.096 -0.5342  0.2154 -0.5245
 1013MOL0     H39779   4.756   4.373  10.872  0.7784 -0.8559 -0.6583
 1013MOL0     H39780   4.715   4.692  10.498  0.9692 -1.8309  1.0868
 1013MOL0     H39781   4.563   4.691  10.290 -2.1622 -0.6293  1.2540
 1013MOL0     H39782   4.680   4.456   9.989 -0.0910 -0.1277  0.0509
 1013MOL0     H39783   4.542   4.338  10.029  0.9727 -0.7480 -2.1069
 1013MOL0     H39784   4.532   4.475   9.807 -0.8084 -0.6552 -0.3773
 1013MOL0     H39785   4.495   4.613   9.906  1.3227 -0.4032 -0.5407
 1013MOL0     H39786   4.372   4.336   9.875 -2.3172 -1.8744 -1.2558
 1013MOL0     H39787   4.307   4.449  10.006  1.5929 -2.7567  0.9495
 1013MOL0     H39788   4.313   4.525   9.709 -1.5025  0.4583 -0.0563
 1013MOL0     H39789   4.263   4.623   9.848  2.4805  0.6945  0.5911
 1013MOL0     H39790   3.919   4.398   9.769 -0.0926 -0.9936 -0.5814
 1013MOL0     H39791   4.687   4.297  10.204  0.7266  0.8495 -0.2631
 1013MOL0     H39792   4.849   4.212  10.489 -0.9363  0.1733 -0.3141
 1013MOL0     H39793   4.857   4.189  10.323 -0.1632 -1.4976  1.1812
 1013MOL0     H39794   4.981   4.281  10.402 -0.0106 -1.4271  0.5121
 1014MOL0     O39795   6.174   8.187   5.985 -0.2745  0.5178  0.4333
 1014MOL0     C39796   6.282   8.162   6.026 -0.7682  0.4338 -0.3835
 1014MOL0     O39797   6.384   8.102   5.955  0.8580  0.5841 -0.6017
 1014MOL0     C39798   6.348   8.080   5.826 -1.0780  1.5981  0.0829
 1014MOL0     C39799   6.340   8.184   5.729  0.5089  0.5223 -0.0100
 1014MOL0     C39800   6.344   8.158   5.584  0.6088 -0.8881 -0.9601
 1014MOL0     C39801   6.336   8.023   5.550 -0.2196  0.5905 -0.5138
 1014MOL0     O39802   6.339   7.980   5.410 -0.5325 -0.1706  0.5710
 1014MOL0     C39803   6.214   7.971   5.353  0.3164 -1.0865 -0.1219
 1014MOL0     C39804   6.218   7.945   5.208 -0.4778 -0.7127 -0.8813
 1014MOL0     C39805   6.077   7.949   5.148  0.3756 -0.4641  0.2171
 1014MOL0     C39806   6.092   7.930   4.998 -1.0265  0.7226 -0.9983
 1014MOL0     C39807   6.120   7.791   4.954 -0.0364  1.3651 -0.6556
 1014MOL0     C39808   6.125   7.779   4.796 -0.3523  0.0806 -0.1833
 1014MOL0     C39809   6.111   7.637   4.745  0.5303 -0.4874 -0.8544
 1014MOL0     C39810   6.139   7.615   4.593 -0.0490  0.3266  0.1857
 1014MOL0     N39811   6.059   7.496   4.537 -0.8332 -0.7682  0.1987
 1014MOL0     C39812   6.050   7.368   4.586 -0.2607  0.2248  0.1202
 1014MOL0     C39813   5.961   7.304   4.509 -0.8389 -0.7354  0.2177
 1014MOL0     C39814   5.907   7.162   4.506 -0.6991 -1.3831 -0.3115
 1014MOL0     C39815   5.874   7.093   4.642 -0.2053  0.1819 -0.8518
 1014MOL0     C39816   5.785   6.972   4.638 -0.3000  0.4988  0.9685
 1014MOL0     C39817   5.781   6.904   4.510 -0.5921  0.5476  0.8165
 1014MOL0     O39818   5.719   6.781   4.550  0.9269  1.1907  0.2040
 1014MOL0     C39819   5.581   6.769   4.538 -0.6800  1.2849 -0.3299
 1014MOL0     C39820   5.518   6.748   4.418 -0.0379 -0.5358 -0.1861
 1014MOL0     C39821   5.382   6.736   4.396 -0.1829 -0.5007 -0.5810
 1014MOL0     C39822   5.325   6.725   4.255 -0.4039  0.9536 -0.4692
 1014MOL0     C39823   5.298   6.735   4.509 -0.4994 -0.8425 -0.0400
 1014MOL0     C39824   5.151   6.719   4.511  0.2804  0.6450  0.1737
 1014MOL0     O39825   5.097   6.722   4.634 -0.4769  0.1959 -0.4842
 1014MOL0     C39826   4.965   6.714   4.619 -0.1362 -0.2518  0.2644
 1014MOL0     C39827   4.901   6.597   4.577  0.3027 -0.2659 -0.2607
 1014MOL0     C39828   4.756   6.587   4.573  0.1503  0.3703  1.1196
 1014MOL0     C39829   4.682   6.698   4.597 -0.1371 -0.0692  0.1903
 1014MOL0     O39830   4.547   6.685   4.588 -0.0410 -0.6178  0.1443
 1014MOL0     C39831   4.451   6.792   4.592  0.1348  0.4866  0.2025
 1014MOL0     C39832   4.456   6.904   4.483  0.0159  0.3202  0.1679
 1014MOL0     C39833   4.461   6.844   4.346 -0.8329  0.1382 -0.4579
 1014MOL0     C39834   4.429   6.963   4.243 -0.0347  0.9325 -0.0257
 1014MOL0     C39835   4.425   6.925   4.090  0.7820  1.1906 -0.5951
 1014MOL0     C39836   4.450   7.052   3.994 -0.3959  0.4339 -0.1061
 1014MOL0     C39837   4.359   7.177   4.020 -0.1814 -0.1652 -0.1447
 1014MOL0     C39838   4.407   7.287   4.118 -0.2066  0.5186  0.0062
 1014MOL0    Cl39839   4.345   7.268   4.281  0.1081 -0.1959 -0.2456
 1014MOL0     C39840   4.744   6.817   4.641  0.1818 -0.1326 -0.0023
 1014MOL0     C39841   4.885   6.827   4.644 -0.5332  1.1251 -1.1189
 1014MOL0     O39842   5.090   6.715   4.403 -0.4944  0.0150  0.2094
 1014MOL0     C39843   5.365   6.740   4.640  0.6083 -0.1172  0.2357
 1014MOL0     C39844   5.506   6.766   4.648 -0.4529  0.6063 -0.4866
 1014MOL0     N39845   5.915   7.396   4.407  0.0184  0.5409 -0.6270
 1014MOL0     N39846   5.984   7.501   4.422  0.7682 -0.5379 -0.4805
 1014MOL0     C39847   6.330   7.917   5.644 -0.3392 -0.5987 -0.3117
 1014MOL0     C39848   6.356   7.946   5.776  0.3738  0.3311 -1.0066
 1014MOL0     C39849   6.320   8.190   6.159 -0.0299 -0.3644  0.1991
 1014MOL0     C39850   6.402   8.104   6.229 -0.9244  0.3502  0.8130
 1014MOL0     C39851   6.448   8.135   6.355 -0.3788  0.3400  1.3531
 1014MOL0     C39852   6.409   8.259   6.407 -0.7784  0.3521  0.5384
 1014MOL0     O39853   6.471   8.290   6.528  0.0161 -0.7894 -0.2423
 1014MOL0     C39854   6.440   8.410   6.600  0.2253  0.8375  0.4820
 1014MOL0     C39855   6.300   8.380   6.661 -0.7030 -1.0027 -0.4519
 1014MOL0     C39856   6.259   8.499   6.731  0.8141  0.7829 -0.1441
 1014MOL0     C39857   6.127   8.484   6.810  0.3874  0.3442  0.0404
 1014MOL0     C39858   6.148   8.475   6.945  0.3558 -0.5280 -0.4877
 1014MOL0     C39859   6.175   8.466   7.064 -0.3229 -0.7783  0.9371
 1014MOL0     C39860   6.327   8.348   6.336 -0.5001 -0.3220  1.0246
 1014MOL0     C39861   6.275   8.318   6.207 -0.0918 -0.3540 -1.0054
 1014MOL0     C39862   6.191   8.423   6.122 -0.4524 -0.2201 -0.0428
 1014MOL0     H39863   6.346   8.280   5.779  0.0811 -0.5895  2.2899
 1014MOL0     H39864   6.351   8.230   5.503  3.9148  0.6701  0.5357
 1014MOL0     H39865   6.173   8.071   5.371  1.1814 -0.6120 -0.6530
 1014MOL0     H39866   6.147   7.897   5.397  1.4126 -2.2907 -0.4285
 1014MOL0     H39867   6.274   8.027   5.160 -0.5560 -0.4975 -0.6067
 1014MOL0     H39868   6.281   7.858   5.187  1.3102  0.5911 -1.2127
 1014MOL0     H39869   6.015   7.871   5.195  2.6232 -1.9819  0.8174
 1014MOL0     H39870   6.028   8.045   5.164  1.8082  0.3682 -0.2347
 1014MOL0     H39871   6.000   7.977   4.960  0.7163  1.5942 -4.5657
 1014MOL0     H39872   6.167   7.998   4.957 -0.7636  1.4731  0.6107
 1014MOL0     H39873   6.043   7.723   4.991  0.9080  0.4405 -0.3339
 1014MOL0     H39874   6.210   7.744   4.994 -0.7904 -0.2157 -0.7340
 1014MOL0     H39875   6.045   7.829   4.741  0.7370  0.3102 -1.6112
 1014MOL0     H39876   6.220   7.828   4.773 -0.8833  1.6122  0.7488
 1014MOL0     H39877   6.015   7.595   4.775  0.1735  1.3939  0.8187
 1014MOL0     H39878   6.187   7.574   4.792  3.1911  1.4387 -2.2590
 1014MOL0     H39879   6.112   7.704   4.537  0.5392 -0.0691 -0.7499
 1014MOL0     H39880   6.244   7.591   4.573 -0.4409 -0.7824 -0.6419
 1014MOL0     H39881   6.106   7.345   4.677 -0.6706  0.6112  0.4768
 1014MOL0     H39882   5.975   7.098   4.448 -0.6053  0.5581 -2.4770
 1014MOL0     H39883   5.814   7.182   4.451  0.6831  2.1975 -1.5885
 1014MOL0     H39884   5.966   7.048   4.680 -0.8160  0.9317  1.6528
 1014MOL0     H39885   5.831   7.166   4.711 -1.5809 -1.8947  0.6435
 1014MOL0     H39886   5.806   6.914   4.728  1.1601 -0.2502  0.1973
 1014MOL0     H39887   5.687   7.016   4.656  0.2370  1.3984  1.8214
 1014MOL0     H39888   5.742   6.953   4.421  1.1574 -0.0706 -0.3328
 1014MOL0     H39889   5.886   6.892   4.483 -1.0075  3.2244 -2.6944
 1014MOL0     H39890   5.580   6.758   4.330  1.1556 -0.4895  0.6466
 1014MOL0     H39891   5.256   6.807   4.231  0.9319  1.3164 -3.5652
 1014MOL0     H39892   5.271   6.630   4.250  0.8176  0.2168 -0.0841
 1014MOL0     H39893   5.395   6.734   4.172  0.2784 -0.3507 -0.0590
 1014MOL0     H39894   4.963   6.511   4.553  1.4523  0.7449 -1.1060
 1014MOL0     H39895   4.705   6.510   4.516 -1.5667  1.1852  1.5141
 1014MOL0     H39896   4.363   6.730   4.570  1.7013 -1.8576  0.2003
 1014MOL0     H39897   4.430   6.823   4.695 -0.6281 -0.9464  0.5119
 1014MOL0     H39898   4.360   6.957   4.485  0.1701  0.6544 -0.9839
 1014MOL0     H39899   4.533   6.978   4.505  3.3168 -2.7519 -0.1904
 1014MOL0     H39900   4.382   6.772   4.328 -0.2360  0.1776 -3.9222
 1014MOL0     H39901   4.552   6.783   4.339 -2.0104 -2.0084  1.6761
 1014MOL0     H39902   4.506   7.036   4.267 -0.6201  1.6157 -0.2001
 1014MOL0     H39903   4.333   7.011   4.262 -2.5581 -2.8880 -1.6637
 1014MOL0     H39904   4.506   6.854   4.070 -0.0949  0.8533 -3.3802
 1014MOL0     H39905   4.335   6.867   4.071  0.9141  1.6555 -2.9908
 1014MOL0     H39906   4.445   7.028   3.888  0.2067  0.0973 -0.0613
 1014MOL0     H39907   4.550   7.095   4.009 -1.0479  1.2937  2.0723
 1014MOL0     H39908   4.257   7.147   4.048  0.3656 -1.5099  0.4988
 1014MOL0     H39909   4.348   7.222   3.921 -1.9766  1.0170  0.5219
 1014MOL0     H39910   4.369   7.387   4.096  0.6419  0.7668 -0.3484
 1014MOL0     H39911   4.516   7.297   4.116 -0.4410  4.6437 -0.4175
 1014MOL0     H39912   4.692   6.905   4.678  1.0338  0.0096  0.8863
 1014MOL0     H39913   4.938   6.918   4.669 -2.5064  2.4196 -1.3863
 1014MOL0     H39914   5.317   6.733   4.737 -0.2934 -0.2266 -0.2046
 1014MOL0     H39915   5.547   6.781   4.747 -0.2108 -1.0697 -0.3093
 1014MOL0     H39916   6.336   7.816   5.605  3.1980 -0.2443 -1.0121
 1014MOL0     H39917   6.373   7.861   5.841  1.5183  0.3439 -1.2764
 1014MOL0     H39918   6.415   8.003   6.192 -3.5442 -0.2298  1.2908
 1014MOL0     H39919   6.509   8.067   6.414 -0.9699 -2.7248 -1.2984
 1014MOL0     H39920   6.512   8.429   6.680 -0.5524  0.2118  1.3413
 1014MOL0     H39921   6.437   8.499   6.536 -3.6334  0.0027 -0.7148
 1014MOL0     H39922   6.307   8.295   6.728 -2.5532 -0.9434 -0.1302
 1014MOL0     H39923   6.236   8.344   6.580 -0.5107 -0.5305 -0.8210
 1014MOL0     H39924   6.334   8.550   6.793  1.2215 -0.9888  0.8655
 1014MOL0     H39925   6.238   8.561   6.643  0.3955 -0.6485 -1.0832
 1014MOL0     H39926   6.074   8.393   6.781  3.2922 -1.9444  1.2652
 1014MOL0     H39927   6.062   8.572   6.801 -0.8871 -0.6113 -0.4007
 1014MOL0     H39928   6.205   8.458   7.166  1.5509  2.2927  0.7459
 1014MOL0     H39929   6.301   8.442   6.384 -1.0042 -0.4644  1.0336
 1014MOL0     H39930   6.084   8.412   6.141 -1.2405  2.9510 -1.8801
 1014MOL0     H39931   6.235   8.516   6.160  1.2302 -1.2829  0.7319
 1014MOL0     H39932   6.209   8.421   6.014 -0.5935  2.9513 -0.2215
 1015MOL0     O39933   3.963   0.923  10.675  0.0818  0.1550 -0.0060
 1015MOL0     C39934   4.021   0.857  10.594 -0.4682  0.9035 -1.4590
 1015MOL0     O39935   4.073   0.898  10.474  0.4031 -0.1242  1.2080
 1015MOL0     C39936   4.052   1.026  10.433 -0.1852 -0.4666  0.3791
 1015MOL0     C39937   4.096   1.130  10.515 -0.7771 -0.8294  0.6118
 1015MOL0     C39938   4.091   1.265  10.474 -0.2613 -0.0294 -0.2261
 1015MOL0     C39939   4.027   1.302  10.358 -0.6230  0.0375  0.1692
 1015MOL0     O39940   4.006   1.430  10.313 -0.1075 -0.0742 -0.0912
 1015MOL0     C39941   4.072   1.536  10.386 -1.4136  0.0877  0.4462
 1015MOL0     C39942   3.995   1.660  10.348  0.6997 -0.3220 -0.0215
 1015MOL0     C39943   3.976   1.697  10.193 -1.0760 -0.2104  0.2344
 1015MOL0     C39944   3.931   1.834  10.166 -0.5813 -0.6140 -0.5250
 1015MOL0     C39945   3.973   1.885  10.017 -0.6262 -0.0062  0.6661
 1015MOL0     C39946   3.905   2.012   9.969  0.2157  0.1255  0.1223
 1015MOL0     C39947   3.750   1.993   9.950 -0.4000 -0.2487 -1.2081
 1015MOL0     C39948   3.678   2.120   9.886  0.5037  0.3627 -0.0904
 1015MOL0     N39949   3.533   2.107   9.860  1.0888 -0.0878 -0.3251
 1015MOL0     C39950   3.476   2.017   9.769 -0.4044  0.9616 -0.8855
 1015MOL0     C39951   3.339   2.032   9.785 -0.3665 -0.4613 -0.3247
 1015MOL0     C39952   3.232   1.949   9.719 -0.3460 -0.2516  0.5648
 1015MOL0     C39953   3.202   1.822   9.802 -0.2238 -0.7081  1.3957
 1015MOL0     C39954   3.174   1.702   9.711 -0.6862  0.2895  0.7280
 1015MOL0     C39955   3.160   1.577   9.795 -0.1677  0.6622 -0.2048
 1015MOL0     O39956   3.125   1.471   9.702 -0.2653  1.4760 -0.2702
 1015MOL0     C39957   3.151   1.335   9.738 -0.7698 -0.0150  0.0341
 1015MOL0     C39958   3.106   1.247   9.638  0.0634  0.3593 -0.3890
 1015MOL0     C39959   3.155   1.112   9.653  1.0924  0.2060 -0.6324
 1015MOL0     C39960   3.119   1.026   9.536  0.2538 -0.2916 -0.2332
 1015MOL0     C39961   3.230   1.061   9.765 -0.9980 -0.4049 -0.5595
 1015MOL0     C39962   3.275   0.926   9.781 -0.0971  0.5625  0.0979
 1015MOL0     O39963   3.360   0.901   9.890  0.8002  0.3597  0.8827
 1015MOL0     C39964   3.420   0.776   9.900  0.4985  0.4273 -1.0212
 1015MOL0     C39965   3.411   0.705  10.019 -1.0791 -0.9213 -0.1924
 1015MOL0     C39966   3.473   0.582  10.039 -0.4266 -0.1513  0.7589
 1015MOL0     C39967   3.545   0.519   9.937  0.3420 -0.1052 -0.1391
 1015MOL0     O39968   3.612   0.402   9.951 -0.6783  0.1763 -0.0840
 1015MOL0     C39969   3.659   0.377  10.080  0.3251 -0.3380 -0.2828
 1015MOL0     C39970   3.579   0.265  10.139 -0.2208  0.1254 -0.5274
 1015MOL0     C39971   3.611   0.122  10.074  0.0059 -1.1365 -0.0490
 1015MOL0     C39972   3.501   0.023  10.120  0.5251 -0.0552  0.6876
 1015MOL0     C39973   3.541  -0.122  10.079  0.5234 -0.7636  0.7491
 1015MOL0     C39974   3.640  -0.198  10.158 -0.2189 -0.5610 -0.3078
 1015MOL0     C39975   3.633  -0.342  10.121  0.0697  0.5681 -0.2780
 1015MOL0     C39976   3.738  -0.445  10.163  0.4255 -0.4347 -0.2049
 1015MOL0    Cl39977   3.758  -0.412  10.348 -0.5049 -0.4763 -0.3471
 1015MOL0     C39978   3.543   0.589   9.815 -0.4897 -0.1003  0.0985
 1015MOL0     C39979   3.488   0.716   9.798  0.2067  1.1644 -0.7397
 1015MOL0     O39980   3.238   0.830   9.710 -0.5233 -0.1245  0.3290
 1015MOL0     C39981   3.260   1.155   9.867 -0.4762 -0.1841  0.1599
 1015MOL0     C39982   3.227   1.291   9.846  0.1321  0.2002 -0.4449
 1015MOL0     N39983   3.323   2.108   9.895  0.6589  0.2939  0.1290
 1015MOL0     N39984   3.432   2.160   9.945 -0.0673  0.0199 -0.3108
 1015MOL0     C39985   3.985   1.200  10.268 -0.9650 -0.1239  0.1218
 1015MOL0     C39986   3.993   1.067  10.314 -0.1405  0.0198  0.0244
 1015MOL0     C39987   4.037   0.720  10.634 -0.8461  0.2054 -0.0498
 1015MOL0     C39988   4.103   0.632  10.546 -0.1473 -0.3237  0.6835
 1015MOL0     C39989   4.119   0.494  10.566 -0.3036 -0.3068 -0.6819
 1015MOL0     C39990   4.072   0.442  10.685  1.0794  0.6874  0.9821
 1015MOL0     O39991   4.090   0.311  10.715 -0.4230 -0.3856  0.5433
 1015MOL0     C39992   4.213   0.258  10.748 -0.3735  0.7705 -0.0497
 1015MOL0     C39993   4.183   0.203  10.882 -0.0949  0.3609 -1.0057
 1015MOL0     C39994   4.117   0.065  10.901 -0.2147  0.5100  0.5678
 1015MOL0     C39995   3.977   0.044  10.859 -0.3924  0.2242  0.7224
 1015MOL0     C39996   3.891   0.137  10.935 -0.4296  0.2720 -0.2648
 1015MOL0     C39997   3.837   0.226  10.989  0.3850 -0.2667  0.0097
 1015MOL0     C39998   3.996   0.517  10.771  0.2317 -0.4579  0.1292
 1015MOL0     C39999   3.972   0.649  10.758  1.0897 -0.1181  0.2251
 1015MOL0     C40000   3.871   0.718  10.847  0.6256  0.0672  0.0287
 1015MOL0     H40001   4.147   1.111  10.609  0.4442  1.3931  0.4605
 1015MOL0     H40002   4.128   1.350  10.531  0.2391  0.3115 -1.0305
 1015MOL0     H40003   4.170   1.541  10.338 -1.8248  0.1887 -0.4071
 1015MOL0     H40004   4.075   1.529  10.495  2.0657 -0.6957  0.4174
 1015MOL0     H40005   3.895   1.647  10.389  0.1434  1.8532 -0.5607
 1015MOL0     H40006   4.033   1.749  10.397 -1.5157 -0.4412  2.0759
 1015MOL0     H40007   4.080   1.696  10.158 -1.3732 -2.9672 -0.7899
 1015MOL0     H40008   3.915   1.626  10.137 -1.0665  0.0877 -0.1600
 1015MOL0     H40009   3.826   1.851  10.191 -0.1546  2.2853 -0.3309
 1015MOL0     H40010   3.986   1.886  10.245  4.3076 -3.1083 -1.8962
 1015MOL0     H40011   3.946   1.796   9.960 -2.6599 -0.5596  2.3483
 1015MOL0     H40012   4.081   1.902  10.016 -0.7914  1.2973  1.8121
 1015MOL0     H40013   3.921   2.076  10.056  1.8984  0.6898 -0.5561
 1015MOL0     H40014   3.949   2.073   9.889  0.7460  3.3647  2.6741
 1015MOL0     H40015   3.708   1.976  10.050  1.1362  1.5101 -0.1988
 1015MOL0     H40016   3.725   1.905   9.889  0.3112  0.2070 -2.1685
 1015MOL0     H40017   3.689   2.211   9.946 -0.2138  0.1420  0.3932
 1015MOL0     H40018   3.700   2.150   9.783 -0.1555 -0.0082 -0.3503
 1015MOL0     H40019   3.529   1.967   9.689  1.2493  2.7471 -0.9668
 1015MOL0     H40020   3.267   1.915   9.622 -0.5822 -0.1775  0.4529
 1015MOL0     H40021   3.146   2.015   9.703 -3.0704 -3.5858  0.4840
 1015MOL0     H40022   3.284   1.800   9.869  1.7197 -0.0645 -0.6365
 1015MOL0     H40023   3.116   1.846   9.865 -1.2510  1.3285 -0.5963
 1015MOL0     H40024   3.088   1.731   9.649  1.7802 -1.9839 -4.2911
 1015MOL0     H40025   3.262   1.692   9.647 -0.7124 -0.7232  0.8315
 1015MOL0     H40026   3.258   1.557   9.839 -1.1187  0.3412  1.8919
 1015MOL0     H40027   3.089   1.596   9.877 -2.1102 -1.4656 -1.2807
 1015MOL0     H40028   3.026   1.266   9.567 -0.1673 -0.8071 -0.4609
 1015MOL0     H40029   3.044   0.948   9.554  0.9197 -1.0317 -0.6030
 1015MOL0     H40030   3.209   0.968   9.516 -0.1460 -1.7919  1.9784
 1015MOL0     H40031   3.088   1.076   9.443 -0.3116 -1.2215 -0.5609
 1015MOL0     H40032   3.345   0.738  10.099 -1.8825  0.5295 -1.4070
 1015MOL0     H40033   3.453   0.523  10.128  0.2135 -1.0702  0.3004
 1015MOL0     H40034   3.763   0.343  10.072  0.3929 -0.6204  1.4549
 1015MOL0     H40035   3.659   0.462  10.149  0.7315  0.4186 -1.2051
 1015MOL0     H40036   3.587   0.265  10.248 -1.0328 -1.2683 -0.4530
 1015MOL0     H40037   3.474   0.293  10.125 -0.0377  1.7351  0.9292
 1015MOL0     H40038   3.705   0.091  10.120 -0.4116 -0.0089  1.6795
 1015MOL0     H40039   3.620   0.122   9.965 -1.4972 -1.3354 -0.1904
 1015MOL0     H40040   3.402   0.048  10.081  1.4602  0.4647 -1.5428
 1015MOL0     H40041   3.490   0.026  10.229  0.0947 -3.0350  0.8041
 1015MOL0     H40042   3.443  -0.169  10.089 -1.0537  1.7524 -1.5499
 1015MOL0     H40043   3.562  -0.130   9.972  0.0742  0.8405  0.5050
 1015MOL0     H40044   3.617  -0.177  10.263  1.6347  5.1040 -0.6997
 1015MOL0     H40045   3.743  -0.165  10.140  0.1000  0.2011  2.4151
 1015MOL0     H40046   3.637  -0.354  10.012 -0.9135 -2.7160 -0.0717
 1015MOL0     H40047   3.533  -0.371  10.156  1.3642 -0.1583  3.2113
 1015MOL0     H40048   3.841  -0.424  10.133  1.5282 -3.4628  1.0591
 1015MOL0     H40049   3.705  -0.543  10.130 -0.5463  0.0814 -0.8058
 1015MOL0     H40050   3.605   0.547   9.736  0.5150  0.2555  0.6770
 1015MOL0     H40051   3.490   0.777   9.708 -1.1236  2.3075 -0.0169
 1015MOL0     H40052   3.321   1.128   9.953 -0.1265 -2.4268 -0.7349
 1015MOL0     H40053   3.270   1.354   9.922 -1.0678 -1.4775  1.7555
 1015MOL0     H40054   3.929   1.226  10.179  0.1551 -0.8824 -0.8336
 1015MOL0     H40055   3.965   0.985  10.249  3.6463  0.2046 -2.1442
 1015MOL0     H40056   4.135   0.654  10.445 -0.4414 -3.0018 -0.0820
 1015MOL0     H40057   4.155   0.444  10.476 -0.5253  0.5793 -1.2759
 1015MOL0     H40058   4.245   0.176  10.684  2.4915 -1.9711  4.4092
 1015MOL0     H40059   4.295   0.330  10.742  1.5023 -1.2821 -0.2116
 1015MOL0     H40060   4.125   0.279  10.937  1.3034  0.3690  0.5132
 1015MOL0     H40061   4.276   0.187  10.937 -0.8522 -0.0942  0.1840
 1015MOL0     H40062   4.187  -0.002  10.850  4.0319  4.6454  0.2397
 1015MOL0     H40063   4.119   0.027  11.003 -1.7551 -0.7785  0.1685
 1015MOL0     H40064   3.946  -0.061  10.865  1.0947 -0.1983  1.2598
 1015MOL0     H40065   3.967   0.074  10.754 -1.7048 -0.4845  0.6265
 1015MOL0     H40066   3.784   0.306  11.036 -1.7659 -1.5395 -0.1180
 1015MOL0     H40067   3.957   0.481  10.866 -1.0108  1.5261  0.4290
 1015MOL0     H40068   3.856   0.664  10.941  1.9170 -1.0315 -0.3762
 1015MOL0     H40069   3.900   0.819  10.878 -0.3053  0.7415 -1.2233
 1015MOL0     H40070   3.773   0.731  10.800  0.5469 -0.3180  0.0860
 1016MOL0     O40071  10.655   8.302   9.743  1.1285 -0.0220  0.0448
 1016MOL0     C40072  10.549   8.342   9.794  0.5238  0.1946  0.0744
 1016MOL0     O40073  10.531   8.470   9.834 -0.1291  0.2206 -0.2781
 1016MOL0     C40074  10.592   8.588   9.785 -0.2305 -0.3287  0.1426
 1016MOL0     C40075  10.605   8.697   9.874  0.3160  0.6224  0.2899
 1016MOL0     C40076  10.655   8.821   9.826 -0.4123 -0.5958  0.7393
 1016MOL0     C40077  10.717   8.825   9.705 -0.2949 -0.2534  0.0427
 1016MOL0     O40078  10.765   8.951   9.668  0.0644  0.4031  0.8814
 1016MOL0     C40079  10.759   8.965   9.519  0.4010 -0.6827 -0.0925
 1016MOL0     C40080  10.760   9.121   9.476  0.0305  0.7693 -0.8320
 1016MOL0     C40081  10.880   9.196   9.540 -0.0133  0.3096 -0.7194
 1016MOL0     C40082  10.883   9.341   9.494  0.1556  0.7228 -0.4603
 1016MOL0     C40083  10.992   9.429   9.550  0.2972 -0.6251  0.1024
 1016MOL0     C40084  11.134   9.416   9.479  0.3827 -0.9461  1.1374
 1016MOL0     C40085  11.241   9.474   9.572 -0.3412  0.3905 -0.3486
 1016MOL0     C40086  11.385   9.426   9.536  0.0369 -0.1755  1.1996
 1016MOL0     N40087  11.429   9.490   9.409  0.0905  0.9887 -0.0427
 1016MOL0     C40088  11.501   9.605   9.384 -0.5557 -0.1778 -0.1329
 1016MOL0     C40089  11.523   9.589   9.252 -0.3136  0.2026  0.9271
 1016MOL0     C40090  11.597   9.687   9.168 -0.2028 -0.0459  0.3338
 1016MOL0     C40091  11.531   9.696   9.028 -0.5265 -0.8255  0.3132
 1016MOL0     C40092  11.585   9.830   8.964 -0.2698  0.8569 -0.3931
 1016MOL0     C40093  11.530   9.864   8.825 -0.2170  0.4008 -0.1107
 1016MOL0     O40094  11.574   9.762   8.732 -0.3280  0.1926 -0.1561
 1016MOL0     C40095  11.562   9.783   8.600  0.0229  0.4718 -0.5407
 1016MOL0     C40096  11.645   9.711   8.507  0.1399 -0.2553 -0.1336
 1016MOL0     C40097  11.638   9.731   8.367  0.1032  0.0036  0.5351
 1016MOL0     C40098  11.744   9.652   8.282  0.3361  0.3368 -0.8855
 1016MOL0     C40099  11.535   9.814   8.314  0.2636  0.2653  0.5758
 1016MOL0     C40100  11.499   9.833   8.169  0.5607  0.4609 -0.7902
 1016MOL0     O40101  11.573   9.772   8.074  0.5956 -0.0452  0.1860
 1016MOL0     C40102  11.520   9.762   7.946  0.5584 -0.3513  0.3684
 1016MOL0     C40103  11.388   9.720   7.920 -0.0602 -0.1543 -0.0420
 1016MOL0     C40104  11.346   9.706   7.783 -1.2064  0.2858 -0.4383
 1016MOL0     C40105  11.433   9.732   7.676 -0.1793 -0.2568 -0.8964
 1016MOL0     O40106  11.398   9.731   7.542 -0.5166 -0.2544 -0.2580
 1016MOL0     C40107  11.294   9.645   7.507  0.8429 -0.5881 -0.7086
 1016MOL0     C40108  11.303   9.603   7.359 -0.4839 -0.2970 -0.4051
 1016MOL0     C40109  11.439   9.537   7.333  0.0610  0.0931  0.3988
 1016MOL0     C40110  11.415   9.473   7.199 -0.1594  0.2119  0.4823
 1016MOL0     C40111  11.529   9.371   7.156  0.4648  0.8661 -0.4054
 1016MOL0     C40112  11.520   9.353   7.010 -0.5380  0.1096  0.1583
 1016MOL0     C40113  11.589   9.464   6.928  0.8376 -0.5285  0.0630
 1016MOL0     C40114  11.616   9.433   6.783  0.1524 -0.8956  0.0045
 1016MOL0    Cl40115  11.725   9.292   6.759  0.2641 -0.3615  0.1386
 1016MOL0     C40116  11.556   9.786   7.710  0.6196 -1.2067 -0.4738
 1016MOL0     C40117  11.600   9.805   7.836 -1.1372  0.1141 -0.5812
 1016MOL0     O40118  11.403   9.909   8.147 -0.6030  0.1748  0.1114
 1016MOL0     C40119  11.458   9.892   8.404  0.5575 -0.5839  0.1257
 1016MOL0     C40120  11.465   9.868   8.549  0.0337 -0.4944 -0.6475
 1016MOL0     N40121  11.464   9.485   9.206 -0.4181  0.4065  0.9425
 1016MOL0     N40122  11.407   9.421   9.297  0.4591 -0.0277 -0.7721
 1016MOL0     C40123  10.716   8.720   9.614  0.2968 -0.4927 -0.1107
 1016MOL0     C40124  10.650   8.605   9.659  0.1400 -0.4030  0.0105
 1016MOL0     C40125  10.435   8.250   9.836 -0.1731  0.2868 -0.1778
 1016MOL0     C40126  10.311   8.313   9.869 -0.2556  0.5623 -0.8870
 1016MOL0     C40127  10.205   8.230   9.907  0.0653  0.3169  0.1541
 1016MOL0     C40128  10.218   8.088   9.910 -0.3683  0.6635  0.5771
 1016MOL0     O40129  10.112   8.020   9.958  0.1450  0.0133 -0.0248
 1016MOL0     C40130  10.094   7.878   9.931  0.3691 -0.3829  0.2050
 1016MOL0     C40131   9.943   7.851   9.962  0.3839  0.2555 -1.0814
 1016MOL0     C40132   9.860   7.919   9.853  0.2224  0.7803 -0.9338
 1016MOL0     C40133   9.717   7.921   9.892  0.6805  0.3630 -0.8251
 1016MOL0     C40134   9.651   7.787   9.884  0.0065  1.1216 -0.0922
 1016MOL0     C40135   9.598   7.673   9.894  0.0003 -0.2623 -0.5772
 1016MOL0     C40136  10.340   8.029   9.881  0.3185  0.3588  0.9224
 1016MOL0     C40137  10.447   8.106   9.843 -0.1133 -0.1151  0.6145
 1016MOL0     C40138  10.575   8.028   9.818  0.4409 -0.5985  0.1977
 1016MOL0     H40139  10.567   8.682   9.975 -3.7030  0.3770 -1.0619
 1016MOL0     H40140  10.680   8.907   9.887 -1.9047  1.4291 -1.3608
 1016MOL0     H40141  10.667   8.925   9.475  1.2569 -1.8578 -0.9027
 1016MOL0     H40142  10.831   8.908   9.459  1.1319  1.4520 -1.3661
 1016MOL0     H40143  10.783   9.124   9.369 -1.5688 -0.4737 -1.2559
 1016MOL0     H40144  10.664   9.166   9.503 -1.1552 -1.8869 -0.2946
 1016MOL0     H40145  10.875   9.198   9.649  1.8383  0.7293 -0.6246
 1016MOL0     H40146  10.971   9.139   9.518 -0.6166  0.4234 -4.0205
 1016MOL0     H40147  10.888   9.338   9.385 -0.9152 -0.8152 -0.4956
 1016MOL0     H40148  10.784   9.383   9.512 -0.6810 -0.9447 -0.9955
 1016MOL0     H40149  10.999   9.406   9.657 -0.0110 -0.1399  0.2258
 1016MOL0     H40150  10.970   9.535   9.535 -1.7825 -0.9660  0.4220
 1016MOL0     H40151  11.153   9.312   9.452 -1.3033 -0.7094 -1.2922
 1016MOL0     H40152  11.143   9.467   9.382 -0.1065  2.0721  2.5462
 1016MOL0     H40153  11.220   9.433   9.671  3.2849  0.4524  0.5860
 1016MOL0     H40154  11.227   9.582   9.579 -1.4468  0.1973  0.7336
 1016MOL0     H40155  11.452   9.458   9.617  0.1805 -0.7806  1.3254
 1016MOL0     H40156  11.396   9.318   9.524 -0.6482  0.0745 -4.4620
 1016MOL0     H40157  11.522   9.697   9.439 -0.5583 -0.0434 -0.3559
 1016MOL0     H40158  11.702   9.657   9.155 -0.6134 -1.2299 -0.4068
 1016MOL0     H40159  11.584   9.783   9.219  0.2124  1.0727 -1.5909
 1016MOL0     H40160  11.569   9.616   8.962 -0.0964  0.4465 -1.0335
 1016MOL0     H40161  11.422   9.702   9.032 -0.6309 -2.6241  1.3350
 1016MOL0     H40162  11.562   9.911   9.034  1.2918  2.7739 -1.9650
 1016MOL0     H40163  11.693   9.812   8.953 -0.3455 -0.0405  0.2595
 1016MOL0     H40164  11.421   9.853   8.826 -0.3142 -0.3222 -3.9307
 1016MOL0     H40165  11.552   9.970   8.805  0.3380  0.5350  1.0716
 1016MOL0     H40166  11.705   9.631   8.551 -1.9295 -2.3379 -0.9014
 1016MOL0     H40167  11.769   9.709   8.191  3.1819 -0.3007 -0.6098
 1016MOL0     H40168  11.717   9.547   8.265 -0.2682  0.4772 -0.7907
 1016MOL0     H40169  11.833   9.649   8.346 -0.2625 -0.9657 -0.0837
 1016MOL0     H40170  11.324   9.702   8.006 -0.1425  2.7606  0.6171
 1016MOL0     H40171  11.252   9.660   7.756 -0.3213 -1.3067 -0.9403
 1016MOL0     H40172  11.308   9.556   7.569  0.7110  0.5834  1.0614
 1016MOL0     H40173  11.203   9.697   7.537  2.3219  1.3458  0.6994
 1016MOL0     H40174  11.215   9.540   7.348  0.7547 -2.6870  2.3690
 1016MOL0     H40175  11.296   9.691   7.294 -0.6667 -0.6319 -0.8450
 1016MOL0     H40176  11.467   9.460   7.406  0.1110  2.5721  3.1614
 1016MOL0     H40177  11.514   9.616   7.327 -0.4559  0.5198 -0.8224
 1016MOL0     H40178  11.417   9.552   7.124  0.9304 -0.9302 -0.7553
 1016MOL0     H40179  11.324   9.412   7.191 -0.5178  0.4543  2.2515
 1016MOL0     H40180  11.623   9.409   7.198  0.2489  1.9512 -0.8596
 1016MOL0     H40181  11.505   9.278   7.207 -0.3975  0.7232 -1.0366
 1016MOL0     H40182  11.416   9.342   6.979 -0.8144  0.8996  0.7424
 1016MOL0     H40183  11.549   9.251   6.984 -4.6514 -1.5792  1.3083
 1016MOL0     H40184  11.688   9.491   6.967  2.2130 -3.0928 -1.4482
 1016MOL0     H40185  11.517   9.544   6.909  0.3827 -1.5667 -3.1290
 1016MOL0     H40186  11.669   9.516   6.734 -1.5186  0.6635  0.7303
 1016MOL0     H40187  11.521   9.409   6.735  0.2179 -0.4876 -0.3359
 1016MOL0     H40188  11.624   9.801   7.626 -0.6653 -2.0646 -1.7122
 1016MOL0     H40189  11.697   9.843   7.864 -0.6405 -0.6878 -1.1607
 1016MOL0     H40190  11.374   9.958   8.385  0.2541 -0.0706  2.7850
 1016MOL0     H40191  11.402   9.927   8.615 -2.1709 -2.7238 -0.6026
 1016MOL0     H40192  10.771   8.711   9.521  0.1797  0.2992 -0.2585
 1016MOL0     H40193  10.638   8.517   9.596 -1.5733 -0.4337  0.3372
 1016MOL0     H40194  10.299   8.417   9.843 -1.8308  0.0447 -2.4336
 1016MOL0     H40195  10.102   8.263   9.918 -0.2570  1.1177 -3.6960
 1016MOL0     H40196  10.113   7.865   9.824 -0.6210  4.3973 -0.7693
 1016MOL0     H40197  10.170   7.829   9.993 -0.2967  0.7938  2.0344
 1016MOL0     H40198   9.919   7.892  10.061  0.0235 -0.6338 -0.7949
 1016MOL0     H40199   9.929   7.743   9.974  0.0038  0.4043 -0.1278
 1016MOL0     H40200   9.896   8.021   9.840 -0.6483  1.2521  0.1495
 1016MOL0     H40201   9.868   7.868   9.757 -1.1446 -1.8875  0.2224
 1016MOL0     H40202   9.671   7.991   9.821 -1.8790 -2.0919 -1.7766
 1016MOL0     H40203   9.710   7.959   9.994 -3.6271 -1.8475 -0.0817
 1016MOL0     H40204   9.552   7.579   9.914  0.3088 -0.0622  1.2083
 1016MOL0     H40205  10.342   7.920   9.880 -2.0712  0.2740  0.0937
 1016MOL0     H40206  10.653   8.060   9.887  0.3140 -0.8778  0.4731
 1016MOL0     H40207  10.558   7.920   9.831 -1.7359 -0.3872 -0.4760
 1016MOL0     H40208  10.600   8.039   9.712 -0.7018 -0.0058 -0.0336
 1017MOL0     O40209   7.742   9.797   8.089 -0.4346 -0.2091  0.2082
 1017MOL0     C40210   7.665   9.703   8.069  0.1217  0.5085  0.1683
 1017MOL0     O40211   7.539   9.683   8.127 -1.2329 -0.3060 -0.6314
 1017MOL0     C40212   7.524   9.764   8.233 -0.3442  0.2880 -0.6013
 1017MOL0     C40213   7.602   9.762   8.352  0.3518  0.5285 -0.1769
 1017MOL0     C40214   7.561   9.847   8.450  0.6321  0.3676  0.0923
 1017MOL0     C40215   7.455   9.936   8.442 -0.3622 -0.6620  1.0168
 1017MOL0     O40216   7.423  10.024   8.542  0.0608  0.2224  0.3618
 1017MOL0     C40217   7.392  10.159   8.504 -0.8929  0.7324 -0.6644
 1017MOL0     C40218   7.370  10.240   8.633  1.2512  0.8442 -0.2582
 1017MOL0     C40219   7.318  10.381   8.590  0.5514 -0.2747 -0.5734
 1017MOL0     C40220   7.279  10.469   8.710 -0.7972 -0.4766  0.0662
 1017MOL0     C40221   7.229  10.604   8.664  0.2423 -0.1741  0.2318
 1017MOL0     C40222   7.216  10.708   8.775  0.9821 -1.1983  0.0647
 1017MOL0     C40223   7.174  10.858   8.742  0.0419  0.1601  0.2190
 1017MOL0     C40224   7.040  10.845   8.673  0.3990  0.1212  0.2236
 1017MOL0     N40225   6.960  10.971   8.652  0.1698  0.7433  0.4630
 1017MOL0     C40226   6.831  10.980   8.608  0.1205 -0.3786 -0.2082
 1017MOL0     C40227   6.813  11.116   8.579 -0.9866  0.5305  0.5103
 1017MOL0     C40228   6.686  11.171   8.526  0.1286  0.8267  0.6039
 1017MOL0     C40229   6.693  11.202   8.379  0.4280  0.2267  0.9703
 1017MOL0     C40230   6.724  11.075   8.294  0.4549 -0.1104  0.2800
 1017MOL0     C40231   6.674  11.097   8.146 -0.0124  0.4074  0.8022
 1017MOL0     O40232   6.708  10.981   8.074 -0.2250  0.7613  1.0757
 1017MOL0     C40233   6.598  10.903   8.022 -0.4128 -0.5308 -0.1422
 1017MOL0     C40234   6.493  10.958   7.952 -0.4596  0.4334 -0.0276
 1017MOL0     C40235   6.392  10.882   7.905  0.8789  0.1386  1.2465
 1017MOL0     C40236   6.287  10.957   7.825 -0.3755  0.1159  0.2460
 1017MOL0     C40237   6.390  10.743   7.940  0.1560  0.3684  0.4486
 1017MOL0     C40238   6.290  10.644   7.894 -0.1477 -0.3812  0.0145
 1017MOL0     O40239   6.290  10.520   7.948 -0.0241 -0.3658 -0.0823
 1017MOL0     C40240   6.206  10.421   7.913  0.2105 -0.0091  0.4356
 1017MOL0     C40241   6.068  10.438   7.901  0.2105  0.5491  0.0725
 1017MOL0     C40242   5.989  10.316   7.879 -0.0019  0.5530 -0.1233
 1017MOL0     C40243   6.046  10.197   7.868  0.0929 -0.4529  0.5385
 1017MOL0     O40244   5.965  10.084   7.859 -0.6985 -0.4250  0.6909
 1017MOL0     C40245   5.999   9.979   7.764  0.0834 -0.7310 -0.4747
 1017MOL0     C40246   5.986  10.028   7.627  0.4121 -0.4163  0.7075
 1017MOL0     C40247   5.842  10.015   7.567  0.6098 -0.1029  0.2016
 1017MOL0     C40248   5.820   9.875   7.514  0.3234  0.0016  0.8343
 1017MOL0     C40249   5.676   9.845   7.467  0.1589 -0.2472  1.0051
 1017MOL0     C40250   5.644   9.918   7.334 -0.0909 -0.0762  0.5705
 1017MOL0     C40251   5.501   9.907   7.295 -0.1675  0.3446 -0.5841
 1017MOL0     C40252   5.466  10.007   7.198  0.1731  0.5453 -0.3128
 1017MOL0    Cl40253   5.320   9.949   7.112  0.4334  0.1451  0.6043
 1017MOL0     C40254   6.185  10.190   7.873 -0.3018 -0.3534 -0.0764
 1017MOL0     C40255   6.265  10.297   7.906  0.3292 -0.5650  0.8310
 1017MOL0     O40256   6.222  10.671   7.801 -0.6292  0.2035  0.8589
 1017MOL0     C40257   6.485  10.685   8.030 -0.7716 -0.7609 -0.2704
 1017MOL0     C40258   6.596  10.769   8.070  0.6932 -0.2243 -0.7965
 1017MOL0     N40259   6.933  11.174   8.606  0.2190  0.2576 -0.0977
 1017MOL0     N40260   7.017  11.091   8.649 -0.9001  0.6119  0.2393
 1017MOL0     C40261   7.382   9.932   8.324 -0.3204  0.1175  0.5998
 1017MOL0     C40262   7.422   9.851   8.213 -0.5839 -0.2560 -0.5512
 1017MOL0     C40263   7.690   9.615   7.942 -0.7168 -0.5921  0.3904
 1017MOL0     C40264   7.610   9.496   7.922  0.8169  0.5802  0.3840
 1017MOL0     C40265   7.642   9.397   7.823  0.6863  0.0940 -0.1993
 1017MOL0     C40266   7.742   9.439   7.730 -0.0940 -0.5276 -0.3863
 1017MOL0     O40267   7.768   9.376   7.613 -0.5375 -0.3300  0.9022
 1017MOL0     C40268   7.690   9.260   7.574 -0.2028 -0.4484  0.3655
 1017MOL0     C40269   7.767   9.211   7.456 -0.0522 -0.0046 -0.3619
 1017MOL0     C40270   7.688   9.112   7.374 -0.2997 -0.3136 -0.1449
 1017MOL0     C40271   7.771   9.057   7.266  0.2754  0.2874 -0.0495
 1017MOL0     C40272   7.802   9.152   7.162  0.3086 -0.4488  0.1599
 1017MOL0     C40273   7.824   9.227   7.074  0.7325  0.4596  0.3251
 1017MOL0     C40274   7.817   9.556   7.746 -0.5113  0.3192 -0.2164
 1017MOL0     C40275   7.800   9.643   7.855  0.6249 -0.0970  0.1094
 1017MOL0     C40276   7.903   9.755   7.866 -1.1715 -0.0655 -0.1994
 1017MOL0     H40277   7.686   9.700   8.381  0.0737  0.1313 -0.2039
 1017MOL0     H40278   7.615   9.855   8.544  2.9195 -0.4692 -1.0989
 1017MOL0     H40279   7.302  10.164   8.441 -0.8528 -0.4534 -0.8453
 1017MOL0     H40280   7.478  10.206   8.455  0.5981  0.8908  1.9218
 1017MOL0     H40281   7.300  10.179   8.690 -0.0476  2.9303  0.4958
 1017MOL0     H40282   7.463  10.248   8.691  0.1730 -0.4668  1.7711
 1017MOL0     H40283   7.396  10.428   8.529  1.1473  0.0079  0.3864
 1017MOL0     H40284   7.227  10.390   8.529  0.5676  0.0857 -0.5453
 1017MOL0     H40285   7.207  10.415   8.772  1.5320 -2.6574  1.0200
 1017MOL0     H40286   7.356  10.487   8.785 -1.9341 -0.2529  1.2253
 1017MOL0     H40287   7.132  10.592   8.614  1.4274  0.7170 -2.4498
 1017MOL0     H40288   7.297  10.652   8.594  1.4614  0.9392  2.0720
 1017MOL0     H40289   7.163  10.671   8.863  1.6365 -0.2643  0.8695
 1017MOL0     H40290   7.321  10.725   8.802  1.4728 -0.4438 -2.1491
 1017MOL0     H40291   7.242  10.910   8.675 -2.1341 -0.4773 -2.6961
 1017MOL0     H40292   7.161  10.914   8.835  1.2856  0.4476  0.2338
 1017MOL0     H40293   7.056  10.801   8.574 -1.9490 -0.0100 -0.1343
 1017MOL0     H40294   6.976  10.770   8.720  2.1072 -2.5217 -1.3778
 1017MOL0     H40295   6.748  10.912   8.592 -1.1927  0.1201  3.4565
 1017MOL0     H40296   6.661  11.268   8.570 -2.1429  0.3345  0.5374
 1017MOL0     H40297   6.609  11.095   8.544  0.5418  0.3789  0.4981
 1017MOL0     H40298   6.594  11.242   8.356  0.8803  1.0644  0.4475
 1017MOL0     H40299   6.766  11.282   8.365 -2.6170  3.4024  1.8621
 1017MOL0     H40300   6.829  11.047   8.296  0.2082 -1.2254 -0.8972
 1017MOL0     H40301   6.666  10.988   8.327 -0.1862  0.1879 -0.0428
 1017MOL0     H40302   6.566  11.115   8.145  0.2803  2.3776  0.5626
 1017MOL0     H40303   6.718  11.184   8.096 -2.6290  1.6323  0.4656
 1017MOL0     H40304   6.497  11.067   7.948  2.8129  0.5612  2.2906
 1017MOL0     H40305   6.317  10.970   7.721  0.2394  0.9271  0.5163
 1017MOL0     H40306   6.269  11.057   7.865  2.2677  1.2353 -1.1472
 1017MOL0     H40307   6.185  10.916   7.818 -1.7149  2.8542  1.9670
 1017MOL0     H40308   6.026  10.538   7.900  1.7776  1.2295  0.0956
 1017MOL0     H40309   5.882  10.321   7.864  0.1821 -0.5265 -2.0613
 1017MOL0     H40310   6.097   9.933   7.782 -0.2938 -1.6800 -0.7623
 1017MOL0     H40311   5.926   9.900   7.781  0.8117 -1.0458  1.4644
 1017MOL0     H40312   6.018  10.132   7.616 -4.8725  1.3371 -1.2982
 1017MOL0     H40313   6.050   9.962   7.569 -1.6993 -1.2518 -0.8303
 1017MOL0     H40314   5.838  10.088   7.486  0.7153 -0.4413 -0.1121
 1017MOL0     H40315   5.766  10.042   7.640 -0.5359 -1.9619 -0.2232
 1017MOL0     H40316   5.855   9.809   7.594  1.3864 -1.6038 -0.8807
 1017MOL0     H40317   5.890   9.849   7.435 -2.3685  0.4893 -1.9328
 1017MOL0     H40318   5.659   9.739   7.448  1.8876 -0.6776  1.6099
 1017MOL0     H40319   5.618   9.886   7.550  2.3034 -1.5990  3.3296
 1017MOL0     H40320   5.712   9.871   7.262 -1.9279 -4.7637  1.5186
 1017MOL0     H40321   5.670  10.024   7.329 -0.7459  0.0398 -0.7108
 1017MOL0     H40322   5.448   9.912   7.390  0.6519 -2.8116  0.1525
 1017MOL0     H40323   5.479   9.813   7.244 -1.1308  0.3794 -0.2389
 1017MOL0     H40324   5.552  10.011   7.131  1.4673 -2.9200  0.9337
 1017MOL0     H40325   5.442  10.103   7.243  3.1947  1.4153 -0.3539
 1017MOL0     H40326   6.237  10.095   7.871 -0.0852 -0.2301 -2.0640
 1017MOL0     H40327   6.370  10.303   7.930  0.1313  2.8635  1.3474
 1017MOL0     H40328   6.490  10.580   8.057  5.4081 -0.8283 -0.4009
 1017MOL0     H40329   6.659  10.745   8.155 -0.0196 -1.4760 -0.6024
 1017MOL0     H40330   7.302  10.004   8.308 -0.4605  0.2525  1.7886
 1017MOL0     H40331   7.368   9.870   8.121 -0.0744 -1.4284 -1.1169
 1017MOL0     H40332   7.527   9.477   7.989 -1.6139 -1.4893 -2.9359
 1017MOL0     H40333   7.571   9.317   7.803 -0.2786  1.3677 -2.2158
 1017MOL0     H40334   7.685   9.182   7.649 -2.5082  0.9171  1.7732
 1017MOL0     H40335   7.585   9.282   7.549 -0.5951 -1.0558  1.4419
 1017MOL0     H40336   7.858   9.164   7.493 -0.7097  0.7909  2.5233
 1017MOL0     H40337   7.794   9.293   7.388  1.4654 -1.9653 -2.2842
 1017MOL0     H40338   7.651   9.028   7.433  0.4141  1.0153  2.3392
 1017MOL0     H40339   7.599   9.163   7.339 -1.1101 -1.0267  0.8202
 1017MOL0     H40340   7.708   8.974   7.231 -0.3454  0.8831 -0.3798
 1017MOL0     H40341   7.864   9.004   7.286  1.4687  1.0660 -2.8830
 1017MOL0     H40342   7.840   9.296   6.993 -3.2702  2.4000  0.9482
 1017MOL0     H40343   7.901   9.570   7.678  1.1883 -3.5456  0.7847
 1017MOL0     H40344   7.855   9.846   7.903  1.3525  0.4048  2.2685
 1017MOL0     H40345   7.971   9.731   7.949 -1.5189 -1.1911 -0.2271
 1017MOL0     H40346   7.945   9.777   7.768 -4.5695 -0.6224 -1.9273
 1018MOL0     O40347   5.125   7.479  10.984 -0.2628 -0.2809  0.6699
 1018MOL0     C40348   5.103   7.371  10.938 -0.2363  0.0831 -0.0550
 1018MOL0     O40349   5.199   7.286  10.881  0.8644  0.0701  0.1862
 1018MOL0     C40350   5.325   7.325  10.898 -0.4942  0.3909 -0.5973
 1018MOL0     C40351   5.383   7.309  11.023 -0.0529  0.6464  0.8841
 1018MOL0     C40352   5.518   7.360  11.050  0.0066 -1.5053 -0.1812
 1018MOL0     C40353   5.589   7.413  10.947  0.3060  0.0869 -0.5668
 1018MOL0     O40354   5.708   7.475  10.973  0.0754  0.5335  0.4171
 1018MOL0     C40355   5.776   7.548  10.870  0.5614 -0.2557 -0.0788
 1018MOL0     C40356   5.886   7.616  10.954 -0.3494 -0.7479 -0.2026
 1018MOL0     C40357   5.819   7.696  11.066  0.4928  0.5452 -0.6331
 1018MOL0     C40358   5.901   7.813  11.112 -0.4546 -0.1393  0.4242
 1018MOL0     C40359   5.865   7.882  11.235 -0.4154 -0.2110 -0.9113
 1018MOL0     C40360   5.957   8.001  11.275  0.5183 -0.6059 -0.2505
 1018MOL0     C40361   5.913   8.083  11.399 -0.5955 -0.1082  0.0278
 1018MOL0     C40362   6.003   8.210  11.431 -0.5834  0.7449  0.1176
 1018MOL0     N40363   6.141   8.176  11.453 -0.1336  0.4842 -0.4784
 1018MOL0     C40364   6.246   8.133  11.365  0.8418 -0.3325 -0.1647
 1018MOL0     C40365   6.352   8.125  11.441  1.1612  0.6002  0.4081
 1018MOL0     C40366   6.486   8.066  11.397 -0.6638  0.5462  0.0211
 1018MOL0     C40367   6.512   7.953  11.496 -0.0643  0.8537  0.8877
 1018MOL0     C40368   6.653   7.901  11.464 -1.0344 -0.2443 -0.7515
 1018MOL0     C40369   6.689   7.775  11.539  0.4268  1.2161  0.8108
 1018MOL0     O40370   6.606   7.676  11.483  0.1977  0.3924  0.2063
 1018MOL0     C40371   6.623   7.613  11.358 -0.5049  0.2047  1.1525
 1018MOL0     C40372   6.521   7.531  11.312 -0.4531  0.2824 -0.2593
 1018MOL0     C40373   6.531   7.470  11.188 -0.4913  0.4319 -0.6539
 1018MOL0     C40374   6.412   7.380  11.157  0.1696 -0.0082 -0.3807
 1018MOL0     C40375   6.655   7.470  11.108  1.2095 -0.5736 -1.8114
 1018MOL0     C40376   6.686   7.390  10.989  0.9591 -0.3126 -0.2185
 1018MOL0     O40377   6.805   7.420  10.941 -0.2000 -0.1723  0.7046
 1018MOL0     C40378   6.874   7.324  10.862 -0.9203 -0.0722  0.4248
 1018MOL0     C40379   6.928   7.365  10.738 -1.0346 -0.0164 -0.3838
 1018MOL0     C40380   7.014   7.281  10.674 -0.8204 -0.0564  0.8434
 1018MOL0     C40381   7.038   7.147  10.723  0.3552 -0.2055  0.6431
 1018MOL0     O40382   7.117   7.065  10.653 -0.2527  0.1807 -0.2971
 1018MOL0     C40383   7.102   7.062  10.511 -0.2122  0.6149 -0.3133
 1018MOL0     C40384   7.131   6.921  10.454 -0.3123 -0.1635  0.0578
 1018MOL0     C40385   7.126   6.809  10.556  0.8884  1.1565  0.0463
 1018MOL0     C40386   7.091   6.670  10.506 -0.9800  0.5890  0.2847
 1018MOL0     C40387   7.016   6.585  10.615  0.0715  0.1753 -0.4846
 1018MOL0     C40388   7.028   6.440  10.589  1.2508 -0.5570 -0.8507
 1018MOL0     C40389   6.977   6.398  10.453 -0.1136  0.7746  0.0600
 1018MOL0     C40390   6.929   6.253  10.439  0.1353  0.4832  0.7830
 1018MOL0    Cl40391   7.037   6.137  10.521  0.1170 -0.3921 -0.4846
 1018MOL0     C40392   6.980   7.104  10.838 -0.3271 -0.0021 -0.7648
 1018MOL0     C40393   6.903   7.197  10.915 -0.5912 -0.4512 -0.2243
 1018MOL0     O40394   6.610   7.306  10.954 -0.3354  0.0460  0.4671
 1018MOL0     C40395   6.757   7.552  11.158  0.0138 -0.8188  0.6616
 1018MOL0     C40396   6.732   7.633  11.274  0.2830 -0.0152  0.4283
 1018MOL0     N40397   6.315   8.150  11.568 -1.1922  0.3365  0.0214
 1018MOL0     N40398   6.195   8.182  11.576  0.8988 -0.1590 -0.6676
 1018MOL0     C40399   5.532   7.415  10.816  0.2717  0.2401 -0.9113
 1018MOL0     C40400   5.403   7.371  10.790 -0.2922 -0.2027  0.2358
 1018MOL0     C40401   4.965   7.323  10.926 -0.3040  0.2166 -0.5760
 1018MOL0     C40402   4.945   7.185  10.953  0.6584  1.1028  0.2767
 1018MOL0     C40403   4.817   7.132  10.966 -0.9458  0.1600  0.4345
 1018MOL0     C40404   4.711   7.210  10.953  0.8416 -0.4433 -0.4809
 1018MOL0     O40405   4.580   7.166  10.947 -0.4136  0.2413  0.1113
 1018MOL0     C40406   4.531   7.119  11.078  0.6659  1.0559  0.9372
 1018MOL0     C40407   4.401   7.039  11.074 -0.2768 -0.2461  0.3799
 1018MOL0     C40408   4.278   7.115  11.019  0.7065 -0.2177  0.1757
 1018MOL0     C40409   4.240   7.229  11.111 -0.1070 -0.1426 -0.3772
 1018MOL0     C40410   4.096   7.220  11.135  0.5841 -0.4288  0.9722
 1018MOL0     C40411   3.970   7.229  11.148 -1.0652  1.2986  1.0861
 1018MOL0     C40412   4.730   7.344  10.910  1.0529  0.7500  0.5416
 1018MOL0     C40413   4.856   7.404  10.904  0.8395  0.4514  0.4894
 1018MOL0     C40414   4.868   7.550  10.864  0.2800  0.3606  0.6769
 1018MOL0     H40415   5.324   7.257  11.098  0.5609 -2.3384 -0.5764
 1018MOL0     H40416   5.561   7.349  11.149 -1.9101 -4.3406  0.4576
 1018MOL0     H40417   5.711   7.628  10.834  0.1855 -0.5021  0.0411
 1018MOL0     H40418   5.808   7.487  10.785 -4.3995 -3.5867  0.0092
 1018MOL0     H40419   5.959   7.542  10.986 -0.4737 -2.2381 -3.0327
 1018MOL0     H40420   5.945   7.689  10.897  1.0265 -0.2367  1.7795
 1018MOL0     H40421   5.718   7.727  11.037 -0.7430 -2.6588 -0.1598
 1018MOL0     H40422   5.808   7.632  11.154 -1.1511  0.6772 -0.7144
 1018MOL0     H40423   6.004   7.778  11.124 -0.0804  0.9069  0.3817
 1018MOL0     H40424   5.901   7.892  11.036  2.9064  1.7455  2.1261
 1018MOL0     H40425   5.859   7.808  11.315 -0.0327  1.6205  0.9014
 1018MOL0     H40426   5.764   7.921  11.219 -0.3603 -0.5865 -2.2750
 1018MOL0     H40427   6.063   7.981  11.289  0.9382  1.6567  0.1589
 1018MOL0     H40428   5.959   8.066  11.187 -0.5256 -0.7245 -0.3781
 1018MOL0     H40429   5.910   8.026  11.492 -0.2403  1.0762  0.7851
 1018MOL0     H40430   5.808   8.110  11.396  0.0663  2.6633 -1.5424
 1018MOL0     H40431   6.006   8.290  11.356  3.3355  1.2543  0.6343
 1018MOL0     H40432   5.966   8.254  11.525 -2.2843 -0.2914 -0.0133
 1018MOL0     H40433   6.231   8.118  11.259  0.4707  1.1684 -0.3557
 1018MOL0     H40434   6.567   8.138  11.405 -0.0705 -0.2252  1.2029
 1018MOL0     H40435   6.478   8.031  11.294  1.4192 -3.3042  1.0002
 1018MOL0     H40436   6.510   7.988  11.599  0.4467 -2.6848  2.2497
 1018MOL0     H40437   6.436   7.877  11.477 -2.1529  3.4008 -1.7556
 1018MOL0     H40438   6.666   7.887  11.356  0.2748 -0.2860 -0.5993
 1018MOL0     H40439   6.732   7.975  11.478 -3.4497  2.0755  1.7679
 1018MOL0     H40440   6.798   7.772  11.536  0.3736 -0.6344 -0.1510
 1018MOL0     H40441   6.656   7.773  11.644 -2.1101 -2.0669  0.1089
 1018MOL0     H40442   6.433   7.508  11.372 -0.4243  1.6036  0.3296
 1018MOL0     H40443   6.347   7.421  11.079 -0.3117 -0.8581 -0.4334
 1018MOL0     H40444   6.348   7.374  11.245  1.0554  0.7662  0.3404
 1018MOL0     H40445   6.442   7.277  11.135 -0.4665 -0.1228 -0.7263
 1018MOL0     H40446   6.905   7.469  10.717 -0.1840  0.0359 -1.1571
 1018MOL0     H40447   7.060   7.310  10.580  1.3779 -1.5040  1.3884
 1018MOL0     H40448   7.003   7.087  10.473  0.6756  0.2493 -3.0681
 1018MOL0     H40449   7.167   7.144  10.478 -1.0340  3.0516  3.4602
 1018MOL0     H40450   7.046   6.901  10.388  0.5680  0.0822 -1.1927
 1018MOL0     H40451   7.221   6.927  10.392  1.3852  2.2902  2.5013
 1018MOL0     H40452   7.052   6.832  10.632  1.3557  0.5863  0.6832
 1018MOL0     H40453   7.231   6.799  10.587  0.8040 -0.5400 -0.1648
 1018MOL0     H40454   7.180   6.615  10.471 -1.9641 -0.7673 -0.1759
 1018MOL0     H40455   7.019   6.671  10.424 -1.1225 -2.1846  0.2753
 1018MOL0     H40456   7.060   6.611  10.711 -2.0075  1.6138  0.1368
 1018MOL0     H40457   6.911   6.614  10.621  0.1878  0.2134  1.9919
 1018MOL0     H40458   6.963   6.393  10.663  0.0086 -1.1097 -2.2290
 1018MOL0     H40459   7.130   6.405  10.607  1.0597 -2.5806 -3.1906
 1018MOL0     H40460   7.054   6.418  10.378  0.0448 -1.3283 -0.3987
 1018MOL0     H40461   6.897   6.462  10.414 -1.6861 -2.7288 -3.2156
 1018MOL0     H40462   6.911   6.231  10.333 -1.1935  2.5035  0.5309
 1018MOL0     H40463   6.829   6.247  10.483 -0.0510 -0.0065  0.3033
 1018MOL0     H40464   6.987   7.000  10.867  0.9701  0.2094 -0.2450
 1018MOL0     H40465   6.855   7.168  11.008 -0.4046 -1.6344 -0.4758
 1018MOL0     H40466   6.847   7.572  11.101  1.1287 -0.8088  2.3713
 1018MOL0     H40467   6.805   7.708  11.304 -1.7501  1.4342  2.0300
 1018MOL0     H40468   5.588   7.457  10.734 -0.6667 -1.5666 -2.5535
 1018MOL0     H40469   5.377   7.381  10.685  2.7054  0.9404 -0.4752
 1018MOL0     H40470   5.025   7.118  10.984 -0.2756 -1.5061 -2.4716
 1018MOL0     H40471   4.803   7.031  11.005  0.7769 -0.1467  0.3401
 1018MOL0     H40472   4.613   7.056  11.113 -0.2466 -1.3654 -0.9909
 1018MOL0     H40473   4.508   7.212  11.130 -2.6338  0.7266  0.2758
 1018MOL0     H40474   4.378   6.998  11.172 -1.6075 -0.5296 -0.0347
 1018MOL0     H40475   4.420   6.955  11.006 -2.3837 -0.1016 -0.4598
 1018MOL0     H40476   4.296   7.158  10.920  0.7891 -0.3351  0.1390
 1018MOL0     H40477   4.194   7.049  10.999  0.6235  0.1688 -0.7906
 1018MOL0     H40478   4.266   7.320  11.057 -0.0308 -0.1420 -0.3394
 1018MOL0     H40479   4.281   7.245  11.211  0.7663  3.6161 -1.1913
 1018MOL0     H40480   3.864   7.232  11.157 -0.9985  0.9768  2.0999
 1018MOL0     H40481   4.635   7.390  10.883  0.5826 -0.6163 -0.2190
 1018MOL0     H40482   4.776   7.601  10.835  0.1632  2.1878  3.8046
 1018MOL0     H40483   4.917   7.602  10.946  0.6063 -1.1163  1.4622
 1018MOL0     H40484   4.923   7.554  10.769 -0.8018 -2.3403 -0.1803
 1019MOL0     O40485   0.657   9.361   3.543 -0.3315  0.1097 -0.1752
 1019MOL0     C40486   0.682   9.444   3.638  0.4180 -1.1537 -0.5084
 1019MOL0     O40487   0.664   9.422   3.776  0.8865 -0.3731  0.1225
 1019MOL0     C40488   0.642   9.299   3.831 -0.5314  0.6065  0.3603
 1019MOL0     C40489   0.510   9.263   3.842  0.2101  0.9217  0.2569
 1019MOL0     C40490   0.482   9.144   3.902  0.2206  0.5971 -0.3194
 1019MOL0     C40491   0.583   9.050   3.950 -0.0944  0.0354  0.4595
 1019MOL0     O40492   0.545   8.931   4.008 -0.2143  0.3651 -0.1533
 1019MOL0     C40493   0.634   8.845   4.091 -0.5225 -0.7378  0.0798
 1019MOL0     C40494   0.613   8.701   4.057  0.4509  0.1914 -0.4149
 1019MOL0     C40495   0.705   8.605   4.144 -0.6600 -0.1294  1.0537
 1019MOL0     C40496   0.777   8.501   4.057  0.2348  0.1638 -0.2721
 1019MOL0     C40497   0.880   8.423   4.138 -0.3154  0.0223 -0.1338
 1019MOL0     C40498   0.928   8.325   4.036 -0.5580  0.2736 -0.6943
 1019MOL0     C40499   1.066   8.276   4.074  0.3202  0.5923  0.4009
 1019MOL0     C40500   1.077   8.217   4.217  0.2195  0.6770  0.0204
 1019MOL0     N40501   0.956   8.144   4.266 -0.7378  0.2034  0.8324
 1019MOL0     C40502   0.890   8.041   4.205 -0.1914 -0.7363  0.9485
 1019MOL0     C40503   0.802   7.992   4.302 -0.4305 -0.1658 -0.1137
 1019MOL0     C40504   0.702   7.885   4.287  1.0160  0.5591  0.0667
 1019MOL0     C40505   0.759   7.759   4.349  0.8430  0.6144 -0.0799
 1019MOL0     C40506   0.661   7.643   4.344  0.8961 -0.3874  0.6414
 1019MOL0     C40507   0.632   7.615   4.195  0.4355 -0.3994  0.0345
 1019MOL0     O40508   0.609   7.472   4.173  0.1266 -0.4877 -0.2716
 1019MOL0     C40509   0.713   7.399   4.126 -0.2800 -0.1058 -0.4004
 1019MOL0     C40510   0.745   7.286   4.198 -0.2331  1.1162 -0.0906
 1019MOL0     C40511   0.872   7.229   4.169  1.1812  0.0020 -0.4847
 1019MOL0     C40512   0.915   7.119   4.264 -1.1484 -1.0733 -0.3461
 1019MOL0     C40513   0.939   7.274   4.050  1.2060  0.4412 -0.0773
 1019MOL0     C40514   1.072   7.221   4.009 -0.1725 -0.7842  0.3555
 1019MOL0     O40515   1.084   7.090   4.019 -0.7334  0.9889 -0.7156
 1019MOL0     C40516   1.215   7.047   4.050 -0.5089  0.2321  0.2475
 1019MOL0     C40517   1.278   7.093   4.165 -0.5876  0.0727  0.1812
 1019MOL0     C40518   1.385   7.025   4.211 -0.5749 -0.3319 -0.8729
 1019MOL0     C40519   1.435   6.913   4.151 -0.3271  0.7818 -0.3278
 1019MOL0     O40520   1.542   6.844   4.199  0.0575 -0.1578 -0.8441
 1019MOL0     C40521   1.598   6.900   4.323 -0.3178 -0.1791 -0.0982
 1019MOL0     C40522   1.715   6.810   4.361 -0.6942 -0.0401 -0.9134
 1019MOL0     C40523   1.653   6.670   4.395 -0.4951  0.4327 -0.1191
 1019MOL0     C40524   1.744   6.571   4.456 -0.5088  0.5370 -0.7720
 1019MOL0     C40525   1.688   6.433   4.446 -0.2738  0.3828 -0.1055
 1019MOL0     C40526   1.779   6.341   4.535  0.5459 -0.5086 -0.0641
 1019MOL0     C40527   1.736   6.203   4.496 -0.5144  0.8979 -0.0934
 1019MOL0     C40528   1.813   6.098   4.578 -0.5847  0.1602 -0.2518
 1019MOL0    Cl40529   1.780   6.121   4.748 -0.0624  0.0340  0.1771
 1019MOL0     C40530   1.373   6.862   4.042  1.4966  0.2906  0.4364
 1019MOL0     C40531   1.256   6.928   3.989  0.6142 -0.2607  0.2265
 1019MOL0     O40532   1.156   7.299   3.963  0.3060 -0.4553 -0.0975
 1019MOL0     C40533   0.893   7.379   3.979 -0.1726 -0.3800 -1.5427
 1019MOL0     C40534   0.785   7.446   4.011 -0.1137  0.0973  0.5382
 1019MOL0     N40535   0.825   8.072   4.414  0.3439  0.6363  0.0823
 1019MOL0     N40536   0.904   8.170   4.388  0.0362  0.2019 -0.0569
 1019MOL0     C40537   0.712   9.098   3.949 -0.0345 -0.4828  0.0193
 1019MOL0     C40538   0.745   9.223   3.885 -0.3822  0.9447  0.1083
 1019MOL0     C40539   0.740   9.574   3.604  0.4782  0.3735 -0.2833
 1019MOL0     C40540   0.767   9.658   3.716 -0.0784 -0.9397  0.6786
 1019MOL0     C40541   0.828   9.787   3.697 -0.6058  0.1200 -0.8642
 1019MOL0     C40542   0.845   9.838   3.579 -0.1884  0.9851  0.5310
 1019MOL0     O40543   0.898   9.957   3.551  0.2623  0.2910  0.5613
 1019MOL0     C40544   0.956  10.026   3.660  0.1166  0.9663 -0.5194
 1019MOL0     C40545   0.858  10.116   3.720 -0.1317 -0.6312  0.5735
 1019MOL0     C40546   0.787  10.221   3.629 -0.2017  0.0889  0.7916
 1019MOL0     C40547   0.669  10.298   3.686  0.0568  0.1707 -0.2963
 1019MOL0     C40548   0.697  10.383   3.804  0.3192  0.9781 -0.3190
 1019MOL0     C40549   0.707  10.451   3.902 -0.2285  0.7892 -0.6481
 1019MOL0     C40550   0.812   9.755   3.465 -0.5138  0.2018  0.1509
 1019MOL0     C40551   0.769   9.625   3.477  0.2590  0.0091 -0.8838
 1019MOL0     C40552   0.757   9.537   3.358  0.5193 -0.3461  0.3409
 1019MOL0     H40553   0.425   9.325   3.815 -0.9453 -0.5391  0.3834
 1019MOL0     H40554   0.377   9.120   3.903  0.5751 -1.2713  2.3690
 1019MOL0     H40555   0.622   8.865   4.198  0.2280  0.1115  0.0158
 1019MOL0     H40556   0.738   8.879   4.084 -1.1879  1.2701 -0.7112
 1019MOL0     H40557   0.517   8.666   4.097  0.1033 -0.7788 -1.9975
 1019MOL0     H40558   0.625   8.680   3.950  3.0838 -1.8945  0.1890
 1019MOL0     H40559   0.780   8.673   4.185 -0.1501  0.2838 -0.4905
 1019MOL0     H40560   0.656   8.546   4.222 -0.3325 -0.3613  1.0852
 1019MOL0     H40561   0.708   8.431   4.009 -1.1994 -0.3231  2.2960
 1019MOL0     H40562   0.820   8.557   3.974 -0.0516 -1.0904 -1.2811
 1019MOL0     H40563   0.830   8.383   4.227  1.4583 -2.7493 -0.2511
 1019MOL0     H40564   0.965   8.482   4.174  0.6198 -0.9686 -0.6656
 1019MOL0     H40565   0.858   8.242   4.024 -1.6513  1.1396 -0.4598
 1019MOL0     H40566   0.936   8.378   3.941 -3.8940  1.0274 -0.6649
 1019MOL0     H40567   1.134   8.361   4.067 -1.5774  2.1060 -0.6410
 1019MOL0     H40568   1.102   8.200   4.003 -0.0796 -0.0827  0.9138
 1019MOL0     H40569   1.161   8.148   4.206 -1.0716 -0.7305 -1.5751
 1019MOL0     H40570   1.093   8.305   4.281 -4.1162 -0.0356  2.4427
 1019MOL0     H40571   0.909   8.017   4.101 -0.1711  1.6019  0.3638
 1019MOL0     H40572   0.687   7.882   4.179 -0.2877 -2.8963  0.2217
 1019MOL0     H40573   0.608   7.898   4.341  1.6444 -0.5164  1.5024
 1019MOL0     H40574   0.851   7.731   4.298  2.4562  2.0195  1.8652
 1019MOL0     H40575   0.793   7.776   4.452  0.8418  1.2812 -0.1856
 1019MOL0     H40576   0.713   7.559   4.391  1.3198  0.9554  2.6989
 1019MOL0     H40577   0.566   7.645   4.399  1.0198 -1.1253  0.8785
 1019MOL0     H40578   0.536   7.664   4.178  1.4035  2.0782  1.2126
 1019MOL0     H40579   0.715   7.654   4.135  0.1214  1.6458  0.8351
 1019MOL0     H40580   0.687   7.258   4.285  0.7833  0.3290  0.3499
 1019MOL0     H40581   0.940   7.026   4.212  1.6259  0.6853 -2.5127
 1019MOL0     H40582   0.837   7.105   4.339  1.8591  1.3171  3.6036
 1019MOL0     H40583   1.007   7.160   4.307 -3.2949  2.1606  1.5840
 1019MOL0     H40584   1.242   7.177   4.224  1.2005  2.4033 -1.8324
 1019MOL0     H40585   1.430   7.079   4.293  2.2083 -0.9874 -1.8757
 1019MOL0     H40586   1.646   6.993   4.290  1.3222 -1.0097 -0.1162
 1019MOL0     H40587   1.531   6.920   4.407  1.7259  0.4826  1.4422
 1019MOL0     H40588   1.791   6.797   4.283 -1.0386  1.4438 -1.5222
 1019MOL0     H40589   1.766   6.849   4.450 -3.9128 -1.8710  1.9989
 1019MOL0     H40590   1.624   6.634   4.296  0.1432  0.3224 -0.2727
 1019MOL0     H40591   1.564   6.668   4.458 -0.5994  1.5394 -0.2279
 1019MOL0     H40592   1.763   6.596   4.560  0.5771  0.4277 -0.9303
 1019MOL0     H40593   1.841   6.574   4.405 -1.2502  2.2361 -2.1735
 1019MOL0     H40594   1.588   6.440   4.489  0.5333  0.6167  1.8814
 1019MOL0     H40595   1.683   6.393   4.345  0.7355 -1.3680  0.4961
 1019MOL0     H40596   1.758   6.362   4.640 -0.0301 -1.5370  0.0374
 1019MOL0     H40597   1.886   6.357   4.518  1.2329 -1.1412  3.0761
 1019MOL0     H40598   1.752   6.191   4.388  3.3191  1.7204  0.2357
 1019MOL0     H40599   1.629   6.189   4.510  0.0185 -1.3075  2.5721
 1019MOL0     H40600   1.921   6.111   4.575 -0.5925  0.1763 -0.5339
 1019MOL0     H40601   1.783   6.000   4.540 -0.0118  0.4794 -1.6209
 1019MOL0     H40602   1.398   6.767   3.996 -3.4608 -1.6564  1.0583
 1019MOL0     H40603   1.197   6.886   3.907  2.9631 -1.3270 -1.0106
 1019MOL0     H40604   0.953   7.419   3.897  0.1057 -0.8191 -1.5578
 1019MOL0     H40605   0.749   7.529   3.951  1.4156  0.1822 -0.2994
 1019MOL0     H40606   0.795   9.033   3.973  2.6993  2.2113 -1.4496
 1019MOL0     H40607   0.845   9.262   3.873  0.8636 -1.9527  0.2835
 1019MOL0     H40608   0.737   9.634   3.818  1.1440 -2.7869  0.6427
 1019MOL0     H40609   0.839   9.850   3.785 -1.1531 -0.0785 -0.6526
 1019MOL0     H40610   1.019   9.966   3.726 -0.5779  0.6546 -0.1346
 1019MOL0     H40611   1.034  10.090   3.617  0.6386  1.7006  1.4148
 1019MOL0     H40612   0.907  10.187   3.787 -2.2416  1.6015 -0.1003
 1019MOL0     H40613   0.775  10.075   3.778 -1.9294  1.8441 -0.1082
 1019MOL0     H40614   0.864  10.290   3.594 -0.3796 -1.2061 -2.5404
 1019MOL0     H40615   0.747  10.174   3.539 -0.8365  0.7557  0.7161
 1019MOL0     H40616   0.590  10.228   3.715  0.0861 -0.2417 -1.1601
 1019MOL0     H40617   0.637  10.375   3.614  3.1775  0.6590 -1.3120
 1019MOL0     H40618   0.702  10.513   3.989 -2.3163 -0.2489  0.0576
 1019MOL0     H40619   0.819   9.801   3.366 -1.0225  0.5028  0.2528
 1019MOL0     H40620   0.827   9.454   3.378 -0.8906 -1.6255  0.1371
 1019MOL0     H40621   0.657   9.495   3.343 -0.9962  2.0214  2.9240
 1019MOL0     H40622   0.790   9.593   3.270 -0.5646 -0.8301 -0.3883
 1020MOL0     O40623  10.206   7.512   6.852  0.0504  0.2141 -0.0535
 1020MOL0     C40624  10.203   7.520   6.724 -0.1888 -0.1381 -0.0464
 1020MOL0     O40625  10.312   7.515   6.644  0.0967 -0.2622 -0.3393
 1020MOL0     C40626  10.433   7.558   6.699 -0.4576  0.6831  0.8688
 1020MOL0     C40627  10.545   7.479   6.678 -0.8090  0.0159  0.2595
 1020MOL0     C40628  10.675   7.523   6.729 -0.4057 -0.1204 -0.8562
 1020MOL0     C40629  10.687   7.640   6.801 -0.3121  0.0469  0.0246
 1020MOL0     O40630  10.816   7.661   6.849  0.3142 -0.2808  0.5784
 1020MOL0     C40631  10.831   7.765   6.942 -0.2143  0.0374  0.4577
 1020MOL0     C40632  10.981   7.795   6.974 -0.3324 -0.5424 -0.9254
 1020MOL0     C40633  10.975   7.861   7.111 -0.3207  0.2302  1.3899
 1020MOL0     C40634  11.116   7.920   7.152  0.4505  0.1670  0.2641
 1020MOL0     C40635  11.098   7.968   7.298 -0.1385  0.4286 -0.1977
 1020MOL0     C40636  11.224   8.056   7.335  1.2704  0.9208  0.7572
 1020MOL0     C40637  11.343   7.971   7.375  0.1920  0.7142 -0.0077
 1020MOL0     C40638  11.313   7.911   7.509 -0.1250 -0.7844  0.5605
 1020MOL0     N40639  11.416   7.811   7.539  0.8735 -0.2392 -0.5392
 1020MOL0     C40640  11.552   7.837   7.536  1.0479 -0.1151 -0.0136
 1020MOL0     C40641  11.607   7.726   7.579 -0.1652  0.9598 -0.2926
 1020MOL0     C40642  11.749   7.701   7.617 -0.5659  0.4547  0.1936
 1020MOL0     C40643  11.855   7.744   7.512  1.1938  0.3679  0.1832
 1020MOL0     C40644  11.833   7.644   7.390  0.0366  0.1534 -0.7759
 1020MOL0     C40645  11.957   7.656   7.299 -1.0775  0.4444  1.2491
 1020MOL0     O40646  11.927   7.732   7.182 -0.1342 -0.0615 -0.7187
 1020MOL0     C40647  11.889   7.683   7.062 -0.6888  0.2100 -0.8523
 1020MOL0     C40648  11.851   7.550   7.041  0.8295  0.6163 -0.6480
 1020MOL0     C40649  11.808   7.511   6.918  0.2617  0.8242  0.3143
 1020MOL0     C40650  11.757   7.372   6.912 -0.2540 -0.5323 -0.0210
 1020MOL0     C40651  11.822   7.608   6.805  0.4575  0.5747 -0.0051
 1020MOL0     C40652  11.785   7.579   6.659  0.7611 -0.8303 -0.6103
 1020MOL0     O40653  11.706   7.474   6.643  0.2100 -0.1434 -0.2150
 1020MOL0     C40654  11.710   7.431   6.515 -1.1709  0.2903  0.0100
 1020MOL0     C40655  11.781   7.321   6.468  0.1263 -0.3523  0.3263
 1020MOL0     C40656  11.756   7.268   6.336 -0.4334  0.4466 -0.3201
 1020MOL0     C40657  11.670   7.336   6.247  0.2909  0.0360  0.0043
 1020MOL0     O40658  11.647   7.296   6.118  0.0528  0.4366 -0.0578
 1020MOL0     C40659  11.661   7.158   6.083 -1.0369 -0.0605  0.2072
 1020MOL0     C40660  11.619   7.119   5.941 -0.1056 -0.3595 -0.0598
 1020MOL0     C40661  11.732   7.141   5.839  1.3114 -0.0893  0.2606
 1020MOL0     C40662  11.661   7.123   5.704  0.1917  0.2070 -0.2930
 1020MOL0     C40663  11.752   7.161   5.585 -0.0478  0.9817  0.5330
 1020MOL0     C40664  11.679   7.163   5.453  0.0589  0.5497  0.3379
 1020MOL0     C40665  11.632   7.023   5.408  0.2354 -0.4133 -0.7166
 1020MOL0     C40666  11.596   7.025   5.265  1.1976  0.2046 -0.1887
 1020MOL0    Cl40667  11.474   7.159   5.227  0.3777 -0.1863  0.1840
 1020MOL0     C40668  11.618   7.456   6.290 -0.1381 -0.7759 -0.4392
 1020MOL0     C40669  11.631   7.501   6.419 -0.2315 -0.7462 -0.0640
 1020MOL0     O40670  11.842   7.642   6.571  0.5621  0.1435 -0.1107
 1020MOL0     C40671  11.876   7.735   6.827  0.4086 -0.3091 -0.5811
 1020MOL0     C40672  11.912   7.775   6.961  0.4587  0.3036  0.1655
 1020MOL0     N40673  11.510   7.627   7.584 -0.2891 -0.8179  0.7319
 1020MOL0     N40674  11.398   7.674   7.549 -0.3645 -0.0161 -0.0289
 1020MOL0     C40675  10.572   7.720   6.810  0.0203  0.4332 -0.5363
 1020MOL0     C40676  10.449   7.678   6.757  0.1947 -0.2476  0.0767
 1020MOL0     C40677  10.071   7.506   6.654 -0.1282 -1.2442 -0.1148
 1020MOL0     C40678  10.068   7.441   6.531  0.0887 -0.6644  1.1321
 1020MOL0     C40679   9.948   7.417   6.468  1.1385  0.8837 -0.0127
 1020MOL0     C40680   9.822   7.456   6.522 -0.3424  0.2437  0.3107
 1020MOL0     O40681   9.703   7.433   6.449 -0.1025 -0.1399 -0.5896
 1020MOL0     C40682   9.655   7.539   6.366 -0.3823 -1.4051 -0.0495
 1020MOL0     C40683   9.682   7.508   6.217 -0.0923  0.1828 -0.0931
 1020MOL0     C40684   9.568   7.414   6.172  0.3207  1.1593  0.2637
 1020MOL0     C40685   9.603   7.265   6.171  0.1572 -0.1740 -0.3181
 1020MOL0     C40686   9.523   7.187   6.079  0.6976  0.4269 -0.5599
 1020MOL0     C40687   9.460   7.107   6.012 -0.5227 -0.4735  0.3068
 1020MOL0     C40688   9.826   7.520   6.645  0.3481  0.1462 -0.6900
 1020MOL0     C40689   9.944   7.545   6.715  1.0904 -0.2673  0.4304
 1020MOL0     C40690   9.939   7.617   6.854  0.0500  0.3985 -0.3681
 1020MOL0     H40691  10.549   7.384   6.625 -2.5822 -2.5786  4.3083
 1020MOL0     H40692  10.768   7.470   6.715  0.5766  0.9958  0.9878
 1020MOL0     H40693  10.778   7.732   7.032 -0.9540  1.1412  0.4541
 1020MOL0     H40694  10.784   7.862   6.923 -1.7546 -0.2891  2.2940
 1020MOL0     H40695  11.047   7.708   6.978  0.8979  0.3855  0.8931
 1020MOL0     H40696  11.024   7.866   6.903 -0.2356 -1.5429 -1.8891
 1020MOL0     H40697  10.901   7.939   7.093 -0.3261 -0.1219 -0.3184
 1020MOL0     H40698  10.941   7.785   7.181  0.6801  0.4820  2.1767
 1020MOL0     H40699  11.194   7.844   7.154  0.6332  0.3123 -0.7971
 1020MOL0     H40700  11.146   7.996   7.079 -0.7393 -0.7205 -1.2062
 1020MOL0     H40701  11.079   7.885   7.367 -1.5935 -0.0394 -1.1189
 1020MOL0     H40702  11.010   8.032   7.313  0.4599  0.6112  3.6704
 1020MOL0     H40703  11.240   8.119   7.247  2.6126 -0.9947 -0.4365
 1020MOL0     H40704  11.201   8.115   7.425  2.1328 -0.1907  1.7351
 1020MOL0     H40705  11.435   8.029   7.388  1.2190 -0.3277 -2.0624
 1020MOL0     H40706  11.371   7.889   7.308 -0.1450 -0.5225  1.3131
 1020MOL0     H40707  11.312   7.994   7.581 -1.4204  1.4097 -1.8331
 1020MOL0     H40708  11.218   7.860   7.521 -1.1856  1.1584  0.8663
 1020MOL0     H40709  11.607   7.929   7.514 -2.6140  1.3845 -4.4305
 1020MOL0     H40710  11.765   7.593   7.625 -0.9310  0.4477  0.9190
 1020MOL0     H40711  11.766   7.745   7.715  0.6812  1.1382 -0.3120
 1020MOL0     H40712  11.841   7.846   7.475  0.5462  1.2454  2.6223
 1020MOL0     H40713  11.955   7.745   7.557  0.2034 -1.2932  2.6144
 1020MOL0     H40714  11.839   7.541   7.427  1.1198  0.6214  0.4193
 1020MOL0     H40715  11.737   7.661   7.340 -0.9207  2.4796  1.5501
 1020MOL0     H40716  12.036   7.712   7.349 -1.1709  1.8588 -0.0888
 1020MOL0     H40717  11.995   7.557   7.270 -3.1827  0.2556 -1.3700
 1020MOL0     H40718  11.834   7.494   7.132  0.3801 -0.1270 -1.1747
 1020MOL0     H40719  11.800   7.318   6.827  2.5024 -0.7796  1.4038
 1020MOL0     H40720  11.651   7.378   6.886  0.0064 -4.2016 -2.8498
 1020MOL0     H40721  11.783   7.303   6.993 -1.3543 -1.8587 -0.7510
 1020MOL0     H40722  11.852   7.263   6.526 -0.2422 -3.1068 -1.7460
 1020MOL0     H40723  11.811   7.177   6.315 -0.7964 -0.8268  3.4551
 1020MOL0     H40724  11.763   7.125   6.104 -0.6673  0.1087 -1.2051
 1020MOL0     H40725  11.592   7.103   6.148  1.4797  1.9345  5.0679
 1020MOL0     H40726  11.579   7.017   5.943  0.9685 -0.8075 -0.5392
 1020MOL0     H40727  11.541   7.188   5.909  0.2002 -0.4342 -1.0194
 1020MOL0     H40728  11.806   7.065   5.862  2.0965  1.3251  2.7313
 1020MOL0     H40729  11.769   7.244   5.830 -3.7194  2.0313  0.1660
 1020MOL0     H40730  11.570   7.184   5.702 -1.9614 -2.7353 -0.3265
 1020MOL0     H40731  11.628   7.020   5.688 -0.7389  0.4994 -0.3197
 1020MOL0     H40732  11.791   7.263   5.594  0.0951  1.3718 -2.9482
 1020MOL0     H40733  11.836   7.091   5.586 -1.5675 -1.1350 -2.3935
 1020MOL0     H40734  11.748   7.203   5.378  2.7837 -0.3312  2.1869
 1020MOL0     H40735  11.593   7.229   5.466  1.1796  1.7905  1.7879
 1020MOL0     H40736  11.548   6.985   5.467  1.5556  0.1150  1.6452
 1020MOL0     H40737  11.709   6.949   5.433 -2.6543 -2.8244  1.8144
 1020MOL0     H40738  11.551   6.930   5.235 -1.8181  1.9268 -1.5656
 1020MOL0     H40739  11.677   7.051   5.196  1.6264  3.4522  1.3393
 1020MOL0     H40740  11.565   7.521   6.221 -0.9955 -1.3443 -0.3373
 1020MOL0     H40741  11.581   7.591   6.453  2.8945  0.6436  1.1735
 1020MOL0     H40742  11.893   7.804   6.745  0.1901  1.0334  0.4710
 1020MOL0     H40743  11.945   7.878   6.974  3.6629  0.1040 -4.1571
 1020MOL0     H40744  10.567   7.816   6.860 -1.4222 -0.1329  0.4848
 1020MOL0     H40745  10.359   7.738   6.762 -0.2583 -0.9745  1.1261
 1020MOL0     H40746  10.154   7.417   6.469 -1.8316 -1.1921 -1.4554
 1020MOL0     H40747   9.946   7.382   6.365 -1.5632  0.9390 -0.0480
 1020MOL0     H40748   9.551   7.552   6.396  0.4424  1.3044  2.1202
 1020MOL0     H40749   9.714   7.623   6.404 -1.4523 -1.6679  2.3787
 1020MOL0     H40750   9.783   7.468   6.200 -0.1427  0.7411 -1.8237
 1020MOL0     H40751   9.676   7.595   6.151  3.4875 -0.0796 -0.9931
 1020MOL0     H40752   9.475   7.440   6.223  0.3008 -2.5951  2.5015
 1020MOL0     H40753   9.552   7.442   6.068  3.4277  4.1090  0.4052
 1020MOL0     H40754   9.594   7.224   6.272 -1.1219 -0.7081 -0.6292
 1020MOL0     H40755   9.708   7.249   6.144  0.2357  1.7814 -1.3724
 1020MOL0     H40756   9.402   7.040   5.952  0.7718  0.1651 -1.7667
 1020MOL0     H40757   9.728   7.546   6.682 -0.5067 -0.4230 -2.4256
 1020MOL0     H40758   9.983   7.716   6.849 -4.5089  2.6910 -0.4717
 1020MOL0     H40759   9.843   7.650   6.895  0.7005 -1.1568  2.6388
 1020MOL0     H40760   9.987   7.550   6.925  2.2338  0.9890 -1.2223
 1021MOL0     O40761   5.560   6.253   9.178  0.1131 -0.4877 -0.3732
 1021MOL0     C40762   5.512   6.257   9.071  0.4323 -0.6616  0.6890
 1021MOL0     O40763   5.414   6.348   9.035  0.4316  0.0504  0.3939
 1021MOL0     C40764   5.349   6.420   9.134 -0.1529 -0.1822  0.1909
 1021MOL0     C40765   5.418   6.510   9.214  0.8548  0.6845 -0.1077
 1021MOL0     C40766   5.343   6.604   9.297 -0.2435  0.2440  0.6798
 1021MOL0     C40767   5.202   6.595   9.307  0.3744 -0.1044 -0.1126
 1021MOL0     O40768   5.131   6.683   9.389 -0.3852 -0.4230 -0.1450
 1021MOL0     C40769   5.062   6.625   9.500  1.2574  0.1442  0.3214
 1021MOL0     C40770   5.087   6.717   9.613  0.0002  0.6186 -0.9469
 1021MOL0     C40771   5.231   6.749   9.645  0.3559  0.4196  0.6721
 1021MOL0     C40772   5.299   6.635   9.724 -1.4346  0.2425  0.1099
 1021MOL0     C40773   5.443   6.668   9.750 -0.8448  0.2091  0.2024
 1021MOL0     C40774   5.516   6.565   9.834 -1.2125  0.5164 -1.5228
 1021MOL0     C40775   5.670   6.590   9.844  0.1039  0.0625 -0.0894
 1021MOL0     C40776   5.737   6.504   9.964  0.6340 -0.9773  0.9527
 1021MOL0     N40777   5.874   6.553   9.978 -0.5861  0.3792  0.2178
 1021MOL0     C40778   5.978   6.493  10.046  0.1955 -0.4614  0.9214
 1021MOL0     C40779   6.083   6.571  10.028 -0.2682  0.2876 -0.0257
 1021MOL0     C40780   6.222   6.538  10.085 -0.0412 -0.2966  0.0527
 1021MOL0     C40781   6.320   6.496   9.968  0.4041 -0.2415 -0.6735
 1021MOL0     C40782   6.474   6.534  10.000  1.0216  0.2574  0.2818
 1021MOL0     C40783   6.581   6.471   9.915  0.2783  0.1671 -0.1641
 1021MOL0     O40784   6.622   6.343   9.965  0.3961  0.2588 -0.6444
 1021MOL0     C40785   6.726   6.282   9.904 -0.4358 -0.4079 -0.2843
 1021MOL0     C40786   6.842   6.249   9.986  0.5634 -1.0487  0.0971
 1021MOL0     C40787   6.957   6.192   9.927  0.2437 -0.4445 -0.4727
 1021MOL0     C40788   7.068   6.168  10.032  0.5666 -0.1073 -0.1407
 1021MOL0     C40789   6.952   6.144   9.792  0.1102 -0.1832 -0.4333
 1021MOL0     C40790   7.061   6.067   9.726  0.0201  0.3877  0.9211
 1021MOL0     O40791   7.026   5.988   9.619 -0.1855 -0.2378 -0.0567
 1021MOL0     C40792   7.135   5.933   9.543 -0.2417  0.1615 -1.1907
 1021MOL0     C40793   7.125   5.802   9.505  0.5546 -0.3536 -1.3244
 1021MOL0     C40794   7.221   5.742   9.428 -0.5021 -0.0365 -0.7926
 1021MOL0     C40795   7.333   5.811   9.387 -1.0815  0.5836 -0.3480
 1021MOL0     O40796   7.439   5.741   9.334  0.2155  0.6099 -0.2049
 1021MOL0     C40797   7.527   5.725   9.445  0.1657  0.7121 -0.1748
 1021MOL0     C40798   7.660   5.663   9.410 -0.4116  0.0772  0.3301
 1021MOL0     C40799   7.655   5.528   9.325  0.1725  1.1069 -0.3048
 1021MOL0     C40800   7.788   5.468   9.295 -0.5391  0.3108 -0.1880
 1021MOL0     C40801   7.838   5.404   9.425 -0.3712 -0.2825 -0.1059
 1021MOL0     C40802   7.967   5.329   9.394 -0.4495  0.5178 -0.6165
 1021MOL0     C40803   7.944   5.199   9.303 -0.2593  0.7915 -0.1270
 1021MOL0     C40804   8.077   5.110   9.298 -0.0030  0.4237  0.4402
 1021MOL0    Cl40805   8.046   4.939   9.234 -0.1414 -0.2026 -0.0803
 1021MOL0     C40806   7.346   5.940   9.435 -0.0345 -0.1950 -0.5836
 1021MOL0     C40807   7.250   6.004   9.507 -0.2908  1.1168 -0.0720
 1021MOL0     O40808   7.172   6.084   9.775  0.7088  0.2602  1.1628
 1021MOL0     C40809   6.838   6.176   9.712 -0.6026 -0.4976  0.5397
 1021MOL0     C40810   6.734   6.250   9.767  0.0532  0.1310  0.5518
 1021MOL0     N40811   6.052   6.687   9.959  0.3951 -0.5066  0.1429
 1021MOL0     N40812   5.920   6.675   9.929 -0.9456  0.6338  0.3386
 1021MOL0     C40813   5.134   6.499   9.228 -0.2372  0.0777 -0.3104
 1021MOL0     C40814   5.206   6.412   9.143 -0.1550 -0.6268  0.6057
 1021MOL0     C40815   5.563   6.183   8.958 -0.5012 -0.2045  0.1343
 1021MOL0     C40816   5.581   6.253   8.829  0.3991  0.1037  1.1061
 1021MOL0     C40817   5.647   6.195   8.720 -0.5603 -0.5150 -0.0727
 1021MOL0     C40818   5.673   6.058   8.724 -0.3883  0.6317 -1.6730
 1021MOL0     O40819   5.727   5.983   8.620  0.4770 -0.3907  0.2870
 1021MOL0     C40820   5.752   6.058   8.501  0.0920 -0.1256  0.9985
 1021MOL0     C40821   5.878   6.139   8.528 -1.1006  0.4693  0.5771
 1021MOL0     C40822   5.998   6.049   8.568  0.3028  0.4298  0.5444
 1021MOL0     C40823   6.136   6.112   8.576  0.2470  0.0793 -0.6810
 1021MOL0     C40824   6.170   6.161   8.440  0.6274 -0.0747 -0.2249
 1021MOL0     C40825   6.182   6.212   8.331  0.7349 -0.8509  0.1279
 1021MOL0     C40826   5.647   5.986   8.843 -0.5229 -0.6929  0.2238
 1021MOL0     C40827   5.599   6.049   8.958  0.4239 -0.0794 -0.1265
 1021MOL0     C40828   5.579   5.965   9.088  0.3583  0.3820  0.5908
 1021MOL0     H40829   5.526   6.512   9.201  1.0759  1.7404  1.5562
 1021MOL0     H40830   5.396   6.682   9.351 -1.4422  2.9728 -1.7810
 1021MOL0     H40831   5.082   6.519   9.521 -0.0743 -0.0259  0.8324
 1021MOL0     H40832   4.954   6.620   9.482  1.3046  0.3141 -0.0107
 1021MOL0     H40833   5.027   6.807   9.597  3.2928  2.6759 -2.8963
 1021MOL0     H40834   5.039   6.654   9.689 -3.5259  2.4761 -1.4527
 1021MOL0     H40835   5.279   6.772   9.549 -1.2929  1.6129  0.0803
 1021MOL0     H40836   5.229   6.841   9.704  0.6250  0.7000  0.2467
 1021MOL0     H40837   5.253   6.622   9.822 -0.4200 -0.5107  0.4923
 1021MOL0     H40838   5.298   6.540   9.669  1.7639  0.8212 -1.1457
 1021MOL0     H40839   5.459   6.768   9.792  2.1366  0.2515 -0.8381
 1021MOL0     H40840   5.492   6.677   9.653 -1.2194  0.3149  0.0232
 1021MOL0     H40841   5.459   6.567   9.927 -1.5303 -5.5653 -1.2400
 1021MOL0     H40842   5.504   6.462   9.800 -1.6952 -1.0390  2.8305
 1021MOL0     H40843   5.684   6.697   9.863 -1.0861  0.7172 -2.5168
 1021MOL0     H40844   5.710   6.566   9.745 -1.7607  1.5103 -1.2516
 1021MOL0     H40845   5.679   6.517  10.056 -2.6065  0.9560 -1.1349
 1021MOL0     H40846   5.729   6.397   9.945 -0.0293 -0.8915  0.7008
 1021MOL0     H40847   5.981   6.397  10.097  1.8633 -1.9121 -1.6670
 1021MOL0     H40848   6.219   6.462  10.164  1.7424  0.4303  0.8752
 1021MOL0     H40849   6.263   6.627  10.134  0.2249  0.3079 -1.2202
 1021MOL0     H40850   6.302   6.389   9.953 -1.6340 -0.0350  0.0369
 1021MOL0     H40851   6.297   6.556   9.879  1.3550  2.1266  0.6001
 1021MOL0     H40852   6.474   6.642   9.984 -0.3666  0.3476  0.7452
 1021MOL0     H40853   6.491   6.518  10.107  0.7704  0.4329  0.3486
 1021MOL0     H40854   6.548   6.462   9.811  3.3244  3.5040 -1.6215
 1021MOL0     H40855   6.669   6.535   9.905 -1.7066  3.5524  1.9238
 1021MOL0     H40856   6.837   6.281  10.090 -1.8670  2.3201 -0.9002
 1021MOL0     H40857   7.080   6.060  10.036  1.0637 -0.0670 -0.5478
 1021MOL0     H40858   7.037   6.203  10.131 -0.1659 -2.2597  0.4339
 1021MOL0     H40859   7.163   6.215  10.006 -0.1116  0.7991 -1.0704
 1021MOL0     H40860   7.040   5.737   9.524 -1.8536  2.8517 -0.3461
 1021MOL0     H40861   7.205   5.638   9.401 -0.0323 -0.3565  0.1285
 1021MOL0     H40862   7.551   5.826   9.480  0.2140  0.4110  0.6977
 1021MOL0     H40863   7.475   5.673   9.526 -2.1412  2.1481 -0.6298
 1021MOL0     H40864   7.709   5.735   9.344 -0.6702 -0.0369  0.0051
 1021MOL0     H40865   7.727   5.653   9.495  1.2211 -0.8284 -0.9977
 1021MOL0     H40866   7.617   5.539   9.223 -1.7218 -2.2375 -0.1220
 1021MOL0     H40867   7.595   5.446   9.367 -1.4652  2.3323 -0.1366
 1021MOL0     H40868   7.861   5.544   9.265  0.2262 -0.3935 -0.1495
 1021MOL0     H40869   7.774   5.393   9.217  2.2489  0.5310 -1.0049
 1021MOL0     H40870   7.857   5.481   9.501  4.3276 -1.2642  0.0155
 1021MOL0     H40871   7.770   5.327   9.462  1.3477 -1.8137 -0.0407
 1021MOL0     H40872   8.010   5.290   9.487  3.6713 -0.5349 -2.7062
 1021MOL0     H40873   8.045   5.390   9.347 -0.2667  0.9647  0.2508
 1021MOL0     H40874   7.929   5.218   9.196  0.0808 -1.3422 -0.5992
 1021MOL0     H40875   7.863   5.138   9.343  0.2485  0.4511  0.4086
 1021MOL0     H40876   8.103   5.095   9.403 -2.4312 -3.8411  0.6629
 1021MOL0     H40877   8.154   5.155   9.235 -0.0815 -1.2519 -0.9322
 1021MOL0     H40878   7.437   5.992   9.407  0.3937 -1.4182 -1.5952
 1021MOL0     H40879   7.265   6.108   9.537  2.1297  1.2910 -1.6720
 1021MOL0     H40880   6.830   6.141   9.610 -2.6056  0.6696  0.2378
 1021MOL0     H40881   6.650   6.270   9.701  0.8399 -0.6996 -0.7338
 1021MOL0     H40882   5.026   6.503   9.225 -0.2859 -0.3707  0.5790
 1021MOL0     H40883   5.154   6.349   9.072  2.6159 -2.4835  0.0825
 1021MOL0     H40884   5.553   6.358   8.831  2.9628  0.8459  2.3637
 1021MOL0     H40885   5.671   6.267   8.642  3.9243 -0.1311  1.3615
 1021MOL0     H40886   5.772   5.984   8.424  2.9348  2.0883 -0.5906
 1021MOL0     H40887   5.663   6.114   8.470 -1.0893 -1.9119  1.0381
 1021MOL0     H40888   5.863   6.217   8.603  0.3771 -0.0411  1.4405
 1021MOL0     H40889   5.904   6.186   8.433  2.4985 -0.0078  1.1837
 1021MOL0     H40890   5.972   5.994   8.658  0.0200 -1.1106 -0.4306
 1021MOL0     H40891   6.010   5.974   8.489  1.7236 -0.5611  1.6438
 1021MOL0     H40892   6.203   6.031   8.606 -1.8731 -0.7426  2.2370
 1021MOL0     H40893   6.142   6.193   8.650  0.7937 -0.4593 -0.1308
 1021MOL0     H40894   6.182   6.234   8.227 -4.7324  0.9366  0.1701
 1021MOL0     H40895   5.671   5.880   8.853 -3.1859 -1.2030  2.0465
 1021MOL0     H40896   5.656   5.995   9.159  0.0663 -0.0782  1.1071
 1021MOL0     H40897   5.483   5.980   9.137 -0.4561  0.0965 -0.8415
 1021MOL0     H40898   5.586   5.860   9.056 -1.3289  0.0368  1.2680
 1022MOL0     O40899   6.991   5.144   2.869 -0.0166  0.2296  0.8298
 1022MOL0     C40900   7.072   5.233   2.881 -0.4414 -0.0072  0.5573
 1022MOL0     O40901   7.036   5.365   2.920  0.0378  0.2127  0.7052
 1022MOL0     C40902   6.906   5.397   2.948  0.4919  0.3163  0.6158
 1022MOL0     C40903   6.826   5.461   2.850 -0.3137 -0.6637  0.5318
 1022MOL0     C40904   6.688   5.492   2.879 -0.7859  0.2951  0.5489
 1022MOL0     C40905   6.627   5.446   3.001  0.2536 -0.8132  0.5359
 1022MOL0     O40906   6.491   5.457   3.043  0.2305 -0.5198 -0.1094
 1022MOL0     C40907   6.401   5.538   2.960 -0.3740  0.9336  1.1250
 1022MOL0     C40908   6.417   5.693   2.976  0.9368 -0.8059 -0.1862
 1022MOL0     C40909   6.314   5.775   2.897 -0.7347 -0.3192 -0.0671
 1022MOL0     C40910   6.161   5.765   2.930  0.5176  0.5714  0.4418
 1022MOL0     C40911   6.089   5.739   2.797  0.8275 -0.3291  0.1440
 1022MOL0     C40912   5.934   5.729   2.834 -1.4264 -0.7364  0.3105
 1022MOL0     C40913   5.850   5.661   2.728  0.7671 -0.0653 -0.4185
 1022MOL0     C40914   5.726   5.587   2.786 -0.0377 -0.2163 -0.1734
 1022MOL0     N40915   5.650   5.518   2.679  0.1033  0.0496  0.9684
 1022MOL0     C40916   5.613   5.569   2.553 -0.4113  0.8449  0.3992
 1022MOL0     C40917   5.563   5.462   2.480  0.0060  0.7693  0.1966
 1022MOL0     C40918   5.478   5.466   2.353  0.0199  0.1317 -1.1553
 1022MOL0     C40919   5.439   5.331   2.305 -0.7920  0.2713  0.1310
 1022MOL0     C40920   5.346   5.335   2.168 -0.2763  0.5234 -0.7315
 1022MOL0     C40921   5.448   5.364   2.053 -0.4670 -0.3892 -0.6094
 1022MOL0     O40922   5.534   5.252   2.039  0.3709  0.4500  0.5453
 1022MOL0     C40923   5.661   5.266   1.975 -0.2575 -0.1927 -0.3500
 1022MOL0     C40924   5.716   5.386   1.936  0.5237  0.3027  0.1612
 1022MOL0     C40925   5.841   5.401   1.872  0.6434 -0.3868  0.2589
 1022MOL0     C40926   5.892   5.532   1.810  0.1002 -0.1064  0.0407
 1022MOL0     C40927   5.914   5.280   1.866 -0.1634  0.0200 -0.3949
 1022MOL0     C40928   6.050   5.270   1.807  0.2532 -0.7529  0.8111
 1022MOL0     O40929   6.097   5.153   1.762 -0.2483 -0.8940  0.0320
 1022MOL0     C40930   6.229   5.145   1.718  0.0227 -0.0567 -0.4359
 1022MOL0     C40931   6.318   5.116   1.821 -1.3350 -0.4330  0.6928
 1022MOL0     C40932   6.455   5.106   1.791  0.1245  0.2144 -0.0771
 1022MOL0     C40933   6.498   5.122   1.652  0.8369  0.6114 -0.2929
 1022MOL0     O40934   6.626   5.088   1.618  0.2061 -0.6637  0.6634
 1022MOL0     C40935   6.727   5.104   1.723  0.8058  0.4006  0.4109
 1022MOL0     C40936   6.865   5.115   1.648 -0.7178  0.1391 -0.3994
 1022MOL0     C40937   6.975   5.174   1.742 -0.1799 -0.0193 -0.9300
 1022MOL0     C40938   7.106   5.188   1.673 -0.1910  0.3414 -0.0975
 1022MOL0     C40939   7.195   5.293   1.742  0.5247 -0.5673 -0.0517
 1022MOL0     C40940   7.265   5.242   1.874  0.2436  0.9723  1.3212
 1022MOL0     C40941   7.386   5.326   1.903 -0.1470 -0.6258  0.1929
 1022MOL0     C40942   7.459   5.286   2.037  0.4894 -0.3775 -0.2093
 1022MOL0    Cl40943   7.568   5.137   1.989  0.3860  0.1419  0.0348
 1022MOL0     C40944   6.402   5.129   1.552 -0.7326 -0.4072 -0.4401
 1022MOL0     C40945   6.265   5.145   1.589 -0.1682  0.2495  1.2201
 1022MOL0     O40946   6.118   5.374   1.803 -0.1433 -0.3891 -0.4964
 1022MOL0     C40947   5.859   5.159   1.921  0.1359 -0.5415 -0.5231
 1022MOL0     C40948   5.739   5.155   1.975  0.3703  0.2577  0.0626
 1022MOL0     N40949   5.594   5.344   2.552  0.6565  0.1264 -0.4681
 1022MOL0     N40950   5.646   5.386   2.666  0.0382  0.2633 -0.7283
 1022MOL0     C40951   6.710   5.398   3.091  0.2189  0.0365 -0.5615
 1022MOL0     C40952   6.847   5.380   3.069  0.1474  0.0445  0.3149
 1022MOL0     C40953   7.215   5.199   2.857  0.4517  0.9459  0.7842
 1022MOL0     C40954   7.270   5.067   2.890  0.3277 -0.1259  0.3242
 1022MOL0     C40955   7.406   5.042   2.875  0.1262  1.0603 -0.2531
 1022MOL0     C40956   7.496   5.139   2.833  0.0751 -0.0467  0.1419
 1022MOL0     O40957   7.623   5.104   2.823 -1.0166 -0.0446 -0.7811
 1022MOL0     C40958   7.724   5.178   2.737  0.9625  0.4143 -0.4287
 1022MOL0     C40959   7.852   5.098   2.742 -0.5711 -0.3140 -0.1635
 1022MOL0     C40960   7.881   5.020   2.612 -0.2564  0.3638 -0.0286
 1022MOL0     C40961   7.941   5.121   2.512 -0.3547  0.0250  1.0107
 1022MOL0     C40962   7.965   5.068   2.378  0.8052 -0.8100  0.2393
 1022MOL0     C40963   7.949   5.035   2.263 -0.9226 -0.1669  0.7524
 1022MOL0     C40964   7.442   5.271   2.808  0.0275 -0.0917  0.3503
 1022MOL0     C40965   7.307   5.297   2.810 -0.4093  0.2149 -0.8969
 1022MOL0     C40966   7.256   5.422   2.745 -0.5147 -0.4028 -0.2726
 1022MOL0     H40967   6.871   5.510   2.764 -2.1891 -0.4348 -0.3550
 1022MOL0     H40968   6.642   5.551   2.800  4.8315  4.2810 -0.4160
 1022MOL0     H40969   6.298   5.506   2.977 -0.5317 -0.7422 -2.1954
 1022MOL0     H40970   6.421   5.524   2.853  0.5192  2.4437  1.0651
 1022MOL0     H40971   6.404   5.724   3.081  0.1814 -0.8195 -0.2687
 1022MOL0     H40972   6.520   5.719   2.950  1.9652 -2.4147  1.8734
 1022MOL0     H40973   6.341   5.879   2.877 -1.9367  0.1189  0.5065
 1022MOL0     H40974   6.327   5.729   2.798  4.2464 -2.2851  1.1672
 1022MOL0     H40975   6.138   5.676   2.989 -0.0468  1.1678  1.1372
 1022MOL0     H40976   6.126   5.856   2.980 -2.8549 -0.0836 -0.4709
 1022MOL0     H40977   6.126   5.643   2.760 -0.6604  0.0154 -2.4879
 1022MOL0     H40978   6.110   5.808   2.715  1.3365  0.6764  1.0962
 1022MOL0     H40979   5.925   5.660   2.918 -1.3915 -2.2737 -0.8972
 1022MOL0     H40980   5.882   5.817   2.872  0.1052  0.2119  0.3221
 1022MOL0     H40981   5.911   5.591   2.669 -0.7101 -2.9885  1.3106
 1022MOL0     H40982   5.826   5.739   2.655  2.3802 -0.3364 -1.3090
 1022MOL0     H40983   5.755   5.518   2.867  0.2675  0.5414  0.3715
 1022MOL0     H40984   5.663   5.662   2.834  0.5025 -2.2657  4.2919
 1022MOL0     H40985   5.610   5.675   2.530  1.0335  0.5134 -1.5578
 1022MOL0     H40986   5.527   5.521   2.272 -0.3579 -2.1067 -3.0452
 1022MOL0     H40987   5.387   5.525   2.367 -0.0717 -0.2405 -0.1283
 1022MOL0     H40988   5.529   5.270   2.292  0.7022  2.3010  0.5742
 1022MOL0     H40989   5.370   5.275   2.369 -0.3362  0.7229  1.0282
 1022MOL0     H40990   5.303   5.235   2.158 -1.1460  0.8838 -0.6907
 1022MOL0     H40991   5.272   5.415   2.166 -2.9969 -1.5921  2.7711
 1022MOL0     H40992   5.399   5.376   1.956  1.8769  0.8192 -1.7190
 1022MOL0     H40993   5.505   5.453   2.081  0.2298 -0.9348 -0.2710
 1022MOL0     H40994   5.653   5.474   1.921 -3.5198 -1.7401  3.1941
 1022MOL0     H40995   5.901   5.523   1.702 -3.1874 -0.3845 -0.3115
 1022MOL0     H40996   5.992   5.546   1.851  0.5156 -2.3927 -0.0300
 1022MOL0     H40997   5.821   5.613   1.831  0.0549 -0.1174 -0.0695
 1022MOL0     H40998   6.282   5.108   1.923 -0.6611 -2.3824  0.8116
 1022MOL0     H40999   6.528   5.090   1.871  1.4989 -0.8512 -1.4889
 1022MOL0     H41000   6.712   5.199   1.775 -1.3877 -0.7722  2.1065
 1022MOL0     H41001   6.724   5.015   1.786  0.2159  0.5425  0.5864
 1022MOL0     H41002   6.913   5.023   1.612  0.9925  0.9379 -0.2942
 1022MOL0     H41003   6.862   5.188   1.567 -1.7543 -0.6676 -1.1138
 1022MOL0     H41004   6.988   5.107   1.828  0.3235  0.3513 -0.7132
 1022MOL0     H41005   6.946   5.272   1.780 -0.9457 -0.2466 -0.9056
 1022MOL0     H41006   7.095   5.226   1.571 -0.1847 -0.6911 -0.5062
 1022MOL0     H41007   7.170   5.099   1.664 -0.3625  0.1487  0.5557
 1022MOL0     H41008   7.268   5.324   1.667  0.3507 -2.7325 -1.1750
 1022MOL0     H41009   7.140   5.378   1.784  0.4749 -1.8011  2.5973
 1022MOL0     H41010   7.295   5.139   1.849 -2.3617  0.2524  0.8427
 1022MOL0     H41011   7.192   5.234   1.954 -1.3419 -0.8114 -0.1913
 1022MOL0     H41012   7.345   5.425   1.919  0.6647 -0.2274 -0.1021
 1022MOL0     H41013   7.460   5.329   1.821 -0.9392 -0.0891 -0.5176
 1022MOL0     H41014   7.390   5.261   2.117  1.1107  0.7539  0.7113
 1022MOL0     H41015   7.522   5.367   2.074  1.9750 -0.8756 -1.5268
 1022MOL0     H41016   6.441   5.113   1.452 -0.1557  0.3982 -0.3542
 1022MOL0     H41017   6.189   5.151   1.511  1.8966  4.1746 -0.8212
 1022MOL0     H41018   5.901   5.059   1.920 -3.5376 -2.2669 -1.3960
 1022MOL0     H41019   5.716   5.062   2.027  0.6817 -0.4638 -1.0519
 1022MOL0     H41020   6.672   5.378   3.191 -4.4085 -0.2550 -2.1096
 1022MOL0     H41021   6.905   5.330   3.146  1.2053  1.0698  0.2077
 1022MOL0     H41022   7.205   4.992   2.935 -2.3673  2.4530  1.0403
 1022MOL0     H41023   7.426   4.937   2.896 -3.4718  0.4894  1.0540
 1022MOL0     H41024   7.670   5.187   2.643 -3.6378  3.3431  2.0666
 1022MOL0     H41025   7.746   5.281   2.767 -1.4053  1.1530 -0.9954
 1022MOL0     H41026   7.848   5.032   2.829 -1.3512  0.2619  0.2464
 1022MOL0     H41027   7.922   5.181   2.752  0.6486 -1.4622  1.1332
 1022MOL0     H41028   7.936   4.926   2.627 -0.5711  0.1374 -0.2872
 1022MOL0     H41029   7.785   4.995   2.567 -0.4268  1.8814 -0.5570
 1022MOL0     H41030   8.035   5.153   2.557 -0.7530  0.7588  1.3481
 1022MOL0     H41031   7.877   5.210   2.522 -0.8528 -0.0370 -1.2045
 1022MOL0     H41032   7.921   4.999   2.166  1.4542  0.4900 -0.2493
 1022MOL0     H41033   7.502   5.357   2.782  2.1313 -1.7685 -0.6442
 1022MOL0     H41034   7.211   5.392   2.651  2.5467 -0.8579 -1.7278
 1022MOL0     H41035   7.184   5.475   2.807  0.9379 -0.3335  1.4563
 1022MOL0     H41036   7.345   5.483   2.725 -2.0631  1.2128 -2.6925
 1023MOL0     O41037   8.589   8.104  10.594 -0.6577  0.7951 -0.3421
 1023MOL0     C41038   8.685   8.137  10.667 -0.2872 -0.0800 -0.1343
 1023MOL0     O41039   8.762   8.242  10.652 -0.2085 -0.3523 -0.1577
 1023MOL0     C41040   8.728   8.342  10.562  0.1159 -1.0375  0.6805
 1023MOL0     C41041   8.730   8.471  10.614  0.0065 -0.1164 -0.9070
 1023MOL0     C41042   8.702   8.584  10.536 -0.1339  0.4312  0.6096
 1023MOL0     C41043   8.684   8.565  10.398  0.6536 -0.3640 -0.7976
 1023MOL0     O41044   8.669   8.669  10.315  0.0367 -1.5165 -0.1245
 1023MOL0     C41045   8.604   8.782  10.361  0.6675  0.3418 -0.5549
 1023MOL0     C41046   8.508   8.812  10.242  0.3019  0.3280 -0.7342
 1023MOL0     C41047   8.573   8.830  10.104 -0.1040  0.0160 -0.8536
 1023MOL0     C41048   8.467   8.883  10.012  0.0221  0.2787 -0.1630
 1023MOL0     C41049   8.527   8.934   9.881  0.0741 -0.1300  0.2690
 1023MOL0     C41050   8.422   8.925   9.775  0.2599  0.1660  0.6837
 1023MOL0     C41051   8.498   8.925   9.646  0.9705  0.8830 -0.0780
 1023MOL0     C41052   8.420   8.963   9.514 -0.2533 -0.0297 -0.1740
 1023MOL0     N41053   8.278   8.913   9.521 -0.0564  0.0873  0.6796
 1023MOL0     C41054   8.178   8.963   9.440  0.4837 -0.6027 -0.3717
 1023MOL0     C41055   8.075   8.868   9.449 -0.1161 -0.4669  0.2470
 1023MOL0     C41056   7.937   8.870   9.374  0.3175 -0.9461  0.9026
 1023MOL0     C41057   7.808   8.859   9.455  0.4612 -0.1994 -1.3016
 1023MOL0     C41058   7.782   8.950   9.574 -0.2696 -0.6948  0.0856
 1023MOL0     C41059   7.763   8.871   9.709  0.0529 -0.9117  0.1924
 1023MOL0     O41060   7.889   8.839   9.758 -0.4362  0.1594  0.0847
 1023MOL0     C41061   7.921   8.812   9.891  0.3475 -0.4814  0.0341
 1023MOL0     C41062   7.840   8.833   9.999 -0.7821  0.5758  0.6348
 1023MOL0     C41063   7.872   8.806  10.132  0.2395  0.7998 -0.1033
 1023MOL0     C41064   7.756   8.830  10.229 -0.0872  0.3343 -0.6642
 1023MOL0     C41065   8.008   8.772  10.155 -0.3996 -0.6963 -0.5111
 1023MOL0     C41066   8.053   8.736  10.293  0.0123 -0.3454  0.0296
 1023MOL0     O41067   8.188   8.737  10.325  0.1317 -0.2905 -0.0541
 1023MOL0     C41068   8.221   8.695  10.443  0.2609  0.1445  0.8403
 1023MOL0     C41069   8.249   8.774  10.553 -0.0061  0.0624 -0.3213
 1023MOL0     C41070   8.298   8.721  10.674  0.2474 -0.2182 -0.5911
 1023MOL0     C41071   8.311   8.585  10.689 -0.0532 -0.6618  0.1796
 1023MOL0     O41072   8.361   8.540  10.807 -0.9049  0.8646 -0.4573
 1023MOL0     C41073   8.413   8.407  10.821 -0.5214  0.3267 -1.1464
 1023MOL0     C41074   8.316   8.312  10.901 -0.8002 -0.1331 -0.3342
 1023MOL0     C41075   8.383   8.194  10.955  0.2463  0.0327  0.4705
 1023MOL0     C41076   8.297   8.121  11.057 -0.2760  0.4069 -0.2321
 1023MOL0     C41077   8.389   8.054  11.157 -0.2934  0.2573  0.0192
 1023MOL0     C41078   8.296   8.029  11.284 -0.3624 -0.4377 -0.8656
 1023MOL0     C41079   8.209   7.910  11.269  0.0719  0.4104  0.6486
 1023MOL0     C41080   8.145   7.878  11.403  0.9032  0.1333  0.7669
 1023MOL0    Cl41081   7.977   7.811  11.356 -0.4897 -0.0460  0.3467
 1023MOL0     C41082   8.265   8.499  10.576 -0.6741  0.0146 -0.1985
 1023MOL0     C41083   8.229   8.561  10.453  0.0915  0.2238  0.4138
 1023MOL0     O41084   7.965   8.701  10.370  0.2714  0.1727 -0.2854
 1023MOL0     C41085   8.098   8.768  10.051  0.8606 -0.4466 -0.1299
 1023MOL0     C41086   8.059   8.785   9.922  0.2699 -0.6862 -0.5480
 1023MOL0     N41087   8.126   8.756   9.512  0.2363 -0.6040  0.2257
 1023MOL0     N41088   8.242   8.782   9.560 -0.2822  0.7488  0.0500
 1023MOL0     C41089   8.699   8.437  10.345  1.0512 -0.1348  0.2996
 1023MOL0     C41090   8.715   8.324  10.423  0.1107  0.3696 -0.8543
 1023MOL0     C41091   8.700   8.058  10.790 -1.0736 -0.1627 -1.0281
 1023MOL0     C41092   8.778   8.110  10.891  0.1308 -0.8716 -0.0881
 1023MOL0     C41093   8.807   8.046  11.015 -0.2844 -0.5210 -0.8491
 1023MOL0     C41094   8.756   7.921  11.027 -0.7690 -0.3650  0.2538
 1023MOL0     O41095   8.771   7.846  11.135 -0.3562  0.2937 -0.7250
 1023MOL0     C41096   8.777   7.913  11.263  0.3188 -0.0892 -0.0808
 1023MOL0     C41097   8.813   7.818  11.382  0.7657  0.9676 -0.0077
 1023MOL0     C41098   8.707   7.703  11.400  0.2467 -0.0365 -0.7352
 1023MOL0     C41099   8.556   7.724  11.415 -0.3034  0.3488 -0.4647
 1023MOL0     C41100   8.509   7.818  11.516 -0.1481  0.2415  0.6048
 1023MOL0     C41101   8.468   7.894  11.608 -0.7475  0.4013  1.2340
 1023MOL0     C41102   8.683   7.862  10.934 -0.0059  0.0975  1.0636
 1023MOL0     C41103   8.653   7.925  10.808 -1.5409  1.2033 -0.5847
 1023MOL0     C41104   8.577   7.832  10.715  0.5357  0.1053 -0.3411
 1023MOL0     H41105   8.762   8.487  10.716  0.9907  2.4164 -1.5399
 1023MOL0     H41106   8.712   8.688  10.563 -0.6990  1.0588 -1.3739
 1023MOL0     H41107   8.662   8.873  10.378 -0.9949  0.9297  2.7503
 1023MOL0     H41108   8.548   8.773  10.455 -0.5083  0.0584 -1.2694
 1023MOL0     H41109   8.429   8.737  10.227 -0.8434  0.1293  4.4306
 1023MOL0     H41110   8.453   8.900  10.278 -0.2996  0.1045 -1.0759
 1023MOL0     H41111   8.661   8.893  10.123 -0.3533  0.3296 -0.7382
 1023MOL0     H41112   8.608   8.732  10.072  0.6594 -0.2106  0.5895
 1023MOL0     H41113   8.391   8.804  10.007  1.2966 -1.0027 -0.2100
 1023MOL0     H41114   8.426   8.977  10.050  0.7998  1.1133 -1.3403
 1023MOL0     H41115   8.618   8.874   9.865 -0.0854  0.2471 -2.4901
 1023MOL0     H41116   8.557   9.038   9.897  2.9201 -0.5901 -1.3008
 1023MOL0     H41117   8.369   8.829   9.780  2.4306 -1.0248  3.2676
 1023MOL0     H41118   8.350   9.006   9.782  1.4092  1.1194  2.0536
 1023MOL0     H41119   8.520   8.818   9.637  0.1910  0.6934  0.2156
 1023MOL0     H41120   8.587   8.987   9.654  0.9966  1.0285 -1.2307
 1023MOL0     H41121   8.424   9.072   9.497 -1.5483  0.5486  2.6773
 1023MOL0     H41122   8.479   8.911   9.438  0.5360  0.5460  0.0327
 1023MOL0     H41123   8.197   9.047   9.374 -0.4538 -1.5563 -1.9392
 1023MOL0     H41124   7.934   8.798   9.292 -0.8193  0.5146 -0.3896
 1023MOL0     H41125   7.923   8.971   9.335 -3.3267 -2.4167 -2.1904
 1023MOL0     H41126   7.719   8.863   9.391 -0.5622  0.3082  0.1076
 1023MOL0     H41127   7.819   8.761   9.502  1.2356 -0.2593 -1.5993
 1023MOL0     H41128   7.866   9.020   9.581  0.4624 -1.1709 -2.8009
 1023MOL0     H41129   7.700   9.018   9.552  1.3294  0.8310 -1.4936
 1023MOL0     H41130   7.695   8.926   9.775 -0.8322 -1.6855 -0.0476
 1023MOL0     H41131   7.717   8.775   9.684  0.2960 -1.8147  2.8571
 1023MOL0     H41132   7.744   8.876   9.973  0.8974  3.3993 -1.4164
 1023MOL0     H41133   7.797   8.880  10.317  0.9826 -1.6171  0.0069
 1023MOL0     H41134   7.710   8.732  10.246  0.5924 -0.1718 -1.6385
 1023MOL0     H41135   7.682   8.902  10.194 -1.8402 -0.6693  0.8360
 1023MOL0     H41136   8.239   8.882  10.545 -0.5956 -0.0323 -0.9614
 1023MOL0     H41137   8.343   8.786  10.748 -2.1729 -0.3111  1.0862
 1023MOL0     H41138   8.459   8.373  10.727  0.6393  3.6111 -1.9237
 1023MOL0     H41139   8.495   8.421  10.892 -0.6651  2.2457 -1.2929
 1023MOL0     H41140   8.299   8.377  10.987  1.4578 -0.1096  0.1614
 1023MOL0     H41141   8.222   8.292  10.850 -1.6976 -0.4739  1.3803
 1023MOL0     H41142   8.479   8.224  10.998 -0.2186  1.4236  0.6104
 1023MOL0     H41143   8.403   8.120  10.878  1.1003 -0.0021  0.7186
 1023MOL0     H41144   8.228   8.046  11.016  0.9410 -0.4623 -0.7593
 1023MOL0     H41145   8.238   8.201  11.103 -0.2769 -1.0236  2.4330
 1023MOL0     H41146   8.441   7.969  11.114  2.8061  0.3090  3.2500
 1023MOL0     H41147   8.470   8.113  11.200 -0.3437  0.8627 -0.6967
 1023MOL0     H41148   8.249   8.120  11.323 -1.7717 -1.0921 -0.9813
 1023MOL0     H41149   8.365   8.014  11.368 -0.7400  1.0372 -0.2554
 1023MOL0     H41150   8.274   7.828  11.238 -2.0285 -0.7426 -0.9436
 1023MOL0     H41151   8.133   7.914  11.190 -0.8259 -1.7397  1.3324
 1023MOL0     H41152   8.128   7.968  11.464 -3.1717  1.2253 -1.5594
 1023MOL0     H41153   8.201   7.804  11.461  1.6666  0.0077 -0.1119
 1023MOL0     H41154   8.249   8.393  10.586 -0.3302 -0.1420 -1.1955
 1023MOL0     H41155   8.215   8.498  10.367  1.8604  1.0070 -0.5051
 1023MOL0     H41156   8.200   8.746  10.081  0.4423  0.9093  2.6399
 1023MOL0     H41157   8.126   8.783   9.837  1.6446  0.0024  0.4888
 1023MOL0     H41158   8.686   8.431  10.237 -3.5623  2.3462  0.4225
 1023MOL0     H41159   8.695   8.222  10.389 -4.0511  0.2511  1.3340
 1023MOL0     H41160   8.831   8.203  10.873 -0.4082  0.2390  3.2618
 1023MOL0     H41161   8.869   8.099  11.086 -2.9260  1.6134  0.0189
 1023MOL0     H41162   8.866   7.977  11.260  0.9538 -0.9868 -1.7951
 1023MOL0     H41163   8.681   7.964  11.276 -0.7748 -2.3387  1.2700
 1023MOL0     H41164   8.817   7.872  11.477  0.2220  0.5043  0.2924
 1023MOL0     H41165   8.914   7.781  11.365  0.9109 -0.6926  3.5367
 1023MOL0     H41166   8.717   7.639  11.312 -1.8386 -0.1652 -0.9409
 1023MOL0     H41167   8.740   7.646  11.487 -0.0443 -0.8851 -1.1644
 1023MOL0     H41168   8.514   7.629  11.449  0.5718 -0.0848 -0.5645
 1023MOL0     H41169   8.514   7.755  11.319 -3.0225  1.7903  1.0729
 1023MOL0     H41170   8.448   7.957  11.692  2.3549 -0.0004  2.4136
 1023MOL0     H41171   8.647   7.760  10.943  1.2647 -0.9558 -3.4784
 1023MOL0     H41172   8.603   7.725  10.717  0.3419  0.0569 -0.3326
 1023MOL0     H41173   8.471   7.839  10.744  0.8795  0.7885  0.7983
 1023MOL0     H41174   8.580   7.864  10.611 -0.0382  2.8274  0.3982
 1024MOL0     O41175   1.943   3.644   3.789  0.8936  0.2969  0.1238
 1024MOL0     C41176   1.985   3.576   3.882 -0.7987 -0.1794  0.5614
 1024MOL0     O41177   1.997   3.445   3.876  0.7244  0.1020  0.1885
 1024MOL0     C41178   1.908   3.380   3.785  0.7507  0.2068 -0.2225
 1024MOL0     C41179   1.914   3.374   3.650 -0.6365  0.2179  0.7809
 1024MOL0     C41180   1.819   3.299   3.572 -1.1747 -0.3304  1.2213
 1024MOL0     C41181   1.713   3.228   3.637 -0.6357  0.8972 -0.7232
 1024MOL0     O41182   1.617   3.140   3.593  0.7002  0.0471  0.5076
 1024MOL0     C41183   1.615   3.126   3.444  0.1428  0.1343 -1.3842
 1024MOL0     C41184   1.526   3.014   3.393 -0.4156  0.8785  0.1881
 1024MOL0     C41185   1.390   3.057   3.342 -0.1999  0.3991 -0.4102
 1024MOL0     C41186   1.326   2.949   3.258 -0.7283  0.2696 -0.5180
 1024MOL0     C41187   1.186   2.988   3.246  0.4448 -0.2606  0.7211
 1024MOL0     C41188   1.084   2.940   3.356  0.2303 -0.8862 -0.6201
 1024MOL0     C41189   0.954   3.029   3.358 -0.6568 -0.3627 -0.2777
 1024MOL0     C41190   0.828   2.957   3.409  0.1310  0.5896  0.4520
 1024MOL0     N41191   0.797   2.849   3.321  0.2847  0.3421  0.0747
 1024MOL0     C41192   0.762   2.861   3.186 -0.3637 -0.5765 -0.4486
 1024MOL0     C41193   0.780   2.735   3.142  0.2326  0.4838 -0.8411
 1024MOL0     C41194   0.742   2.699   2.999  0.3563  0.4951  0.1188
 1024MOL0     C41195   0.588   2.671   2.991  0.4981 -1.1924 -0.3464
 1024MOL0     C41196   0.559   2.541   3.065  0.1470 -1.0751 -0.3515
 1024MOL0     C41197   0.406   2.503   3.047 -0.7842  0.1573  0.0462
 1024MOL0     O41198   0.386   2.436   2.920  0.3672 -0.2038  0.4271
 1024MOL0     C41199   0.444   2.310   2.902 -0.5487 -0.1083 -0.5054
 1024MOL0     C41200   0.474   2.277   2.768  0.9102 -0.2760 -0.1444
 1024MOL0     C41201   0.518   2.151   2.728  1.0269  0.0539 -0.3717
 1024MOL0     C41202   0.553   2.124   2.591 -0.4460 -0.7586  0.1461
 1024MOL0     C41203   0.528   2.050   2.833 -0.1874 -0.2113 -0.5410
 1024MOL0     C41204   0.580   1.908   2.813 -0.5635  0.1102  0.0953
 1024MOL0     O41205   0.538   1.850   2.691  0.2898 -0.6862 -0.4641
 1024MOL0     C41206   0.592   1.726   2.652  0.3819 -0.4309 -0.1649
 1024MOL0     C41207   0.501   1.628   2.612  0.4845 -0.0552  0.1466
 1024MOL0     C41208   0.544   1.501   2.593 -0.1313 -0.6495  0.6837
 1024MOL0     C41209   0.677   1.463   2.609 -1.0610 -0.3172 -0.5607
 1024MOL0     O41210   0.729   1.336   2.601 -0.6757  0.3937  0.4452
 1024MOL0     C41211   0.680   1.264   2.489 -0.2981 -0.1143  0.1028
 1024MOL0     C41212   0.773   1.306   2.374 -0.3532 -0.8858 -0.8118
 1024MOL0     C41213   0.748   1.228   2.251 -0.0627  0.7093  0.5110
 1024MOL0     C41214   0.712   1.313   2.124  0.7731 -0.1924 -0.2220
 1024MOL0     C41215   0.576   1.374   2.141 -0.0350 -0.6352  0.0750
 1024MOL0     C41216   0.453   1.279   2.152 -0.3788  0.4686 -0.1469
 1024MOL0     C41217   0.327   1.353   2.172 -0.5994  0.7002  0.1275
 1024MOL0     C41218   0.219   1.250   2.195 -0.6288  0.0530  0.0532
 1024MOL0    Cl41219   0.063   1.326   2.237 -0.0979 -0.2075 -0.2004
 1024MOL0     C41220   0.767   1.556   2.650  0.2321  0.6733  0.2720
 1024MOL0     C41221   0.727   1.691   2.654 -0.0123 -0.1054  0.0684
 1024MOL0     O41222   0.667   1.860   2.893 -0.0189 -0.0232  0.1360
 1024MOL0     C41223   0.508   2.090   2.972 -0.6965 -0.4138  0.6744
 1024MOL0     C41224   0.474   2.219   3.002  0.5672  0.0018 -0.0242
 1024MOL0     N41225   0.823   2.651   3.252  0.8701  0.4312 -0.7049
 1024MOL0     N41226   0.822   2.716   3.355 -0.2720 -0.2809 -0.2745
 1024MOL0     C41227   1.709   3.230   3.777 -0.1163 -0.5668 -0.3762
 1024MOL0     C41228   1.802   3.308   3.852  0.2161  0.0620  0.1902
 1024MOL0     C41229   2.044   3.647   4.007 -0.5464 -0.1718  1.4490
 1024MOL0     C41230   2.082   3.565   4.115  0.1344  0.8544  0.1610
 1024MOL0     C41231   2.128   3.616   4.227  0.0279  1.5037 -0.3327
 1024MOL0     C41232   2.143   3.748   4.245 -0.3354 -0.0044 -0.0266
 1024MOL0     O41233   2.198   3.777   4.365  0.1951  0.7241  0.2948
 1024MOL0     C41234   2.200   3.901   4.434  0.5661 -0.1654  0.1101
 1024MOL0     C41235   2.059   3.950   4.462  0.9345 -0.5614  0.3099
 1024MOL0     C41236   1.966   3.868   4.559  0.4365 -0.5626 -0.7037
 1024MOL0     C41237   1.940   3.719   4.530  0.0143  0.1514  0.5308
 1024MOL0     C41238   1.847   3.668   4.636 -0.3308  0.4108 -0.2372
 1024MOL0     C41239   1.771   3.615   4.720  0.0007 -0.4061 -0.0681
 1024MOL0     C41240   2.101   3.830   4.147 -0.8406 -0.9062  0.1618
 1024MOL0     C41241   2.053   3.788   4.026 -0.0335 -0.0698 -0.1070
 1024MOL0     C41242   2.030   3.891   3.920 -0.0365  0.3619  0.5699
 1024MOL0     H41243   1.992   3.430   3.600 -1.8822 -0.0456 -1.6110
 1024MOL0     H41244   1.825   3.290   3.464  1.5106 -0.7785  1.3404
 1024MOL0     H41245   1.713   3.093   3.410 -0.0386 -0.5713 -1.2453
 1024MOL0     H41246   1.571   3.219   3.405 -1.1387 -0.5390 -1.6226
 1024MOL0     H41247   1.573   2.966   3.306  1.1874  0.1878  1.3855
 1024MOL0     H41248   1.536   2.931   3.463 -0.2146 -1.1242 -2.0664
 1024MOL0     H41249   1.325   3.062   3.430 -0.3188 -1.1181 -0.3847
 1024MOL0     H41250   1.396   3.145   3.277  1.4150  0.0478 -0.7766
 1024MOL0     H41251   1.383   2.955   3.165 -1.7168 -1.4970 -1.2877
 1024MOL0     H41252   1.324   2.848   3.302 -3.5228  0.2450 -0.4854
 1024MOL0     H41253   1.150   2.945   3.152  1.2822 -0.3941  0.4530
 1024MOL0     H41254   1.178   3.097   3.237 -1.8630 -0.3514  1.0134
 1024MOL0     H41255   1.060   2.834   3.339 -0.0834 -0.7315 -1.1637
 1024MOL0     H41256   1.135   2.952   3.452 -1.8261 -0.6072  0.5007
 1024MOL0     H41257   0.935   3.084   3.265 -0.8048  0.7345  0.3865
 1024MOL0     H41258   0.979   3.098   3.440  2.9142 -0.8821 -0.7645
 1024MOL0     H41259   0.871   2.913   3.499  2.4661 -1.5708 -1.5761
 1024MOL0     H41260   0.742   3.024   3.421  0.2390  0.4261  2.4822
 1024MOL0     H41261   0.722   2.951   3.138 -1.0989 -0.0067  1.1740
 1024MOL0     H41262   0.803   2.612   2.973 -0.7005 -1.7919  4.3957
 1024MOL0     H41263   0.765   2.780   2.928  0.5434  0.9330  0.6747
 1024MOL0     H41264   0.532   2.748   3.044  0.1386 -3.1984  2.3792
 1024MOL0     H41265   0.538   2.669   2.894 -0.6833 -1.5422  0.2595
 1024MOL0     H41266   0.629   2.459   3.042 -0.4173 -1.0968 -2.1353
 1024MOL0     H41267   0.560   2.559   3.173  0.1320 -0.1192 -0.5017
 1024MOL0     H41268   0.374   2.436   3.128 -1.5428 -0.1384 -0.4857
 1024MOL0     H41269   0.345   2.594   3.051 -2.7379 -1.0633 -0.5593
 1024MOL0     H41270   0.450   2.354   2.695  1.0956 -1.7773 -1.8811
 1024MOL0     H41271   0.487   2.047   2.549 -1.0071 -0.8719  1.2094
 1024MOL0     H41272   0.656   2.089   2.581 -1.1387 -2.8921 -0.0079
 1024MOL0     H41273   0.556   2.216   2.532 -0.2794 -1.8944 -1.7140
 1024MOL0     H41274   0.394   1.634   2.598  0.6918  1.5257 -1.0601
 1024MOL0     H41275   0.466   1.428   2.570 -0.5817 -1.3675  3.9373
 1024MOL0     H41276   0.693   1.158   2.510 -1.9313 -1.0622 -2.9819
 1024MOL0     H41277   0.576   1.271   2.458  0.0538  0.0966 -1.1034
 1024MOL0     H41278   0.760   1.412   2.352 -1.2955 -1.0647 -1.1783
 1024MOL0     H41279   0.879   1.296   2.399 -0.4780  1.8664  1.3174
 1024MOL0     H41280   0.682   1.143   2.269  0.2370  0.0619 -1.3046
 1024MOL0     H41281   0.841   1.181   2.218 -1.6983 -1.7052 -0.9296
 1024MOL0     H41282   0.711   1.253   2.032 -0.0810  2.0203 -1.7418
 1024MOL0     H41283   0.785   1.394   2.116  3.6828 -2.8272 -2.7322
 1024MOL0     H41284   0.585   1.438   2.229 -2.3850  1.0498 -0.7880
 1024MOL0     H41285   0.557   1.434   2.051  0.2644 -1.6891 -0.7169
 1024MOL0     H41286   0.458   1.217   2.243  2.6251  1.4315  0.4563
 1024MOL0     H41287   0.452   1.216   2.063  1.6470  2.4842 -1.6953
 1024MOL0     H41288   0.298   1.420   2.091 -2.0569  1.2392  1.0599
 1024MOL0     H41289   0.333   1.402   2.270  1.7719  0.6084  0.0917
 1024MOL0     H41290   0.244   1.188   2.282  1.2109 -2.5305 -2.1422
 1024MOL0     H41291   0.222   1.182   2.110  3.1327  2.6297 -2.1627
 1024MOL0     H41292   0.872   1.532   2.663  0.2166  0.3906 -0.0843
 1024MOL0     H41293   0.798   1.769   2.679  0.2689 -0.6813  1.1350
 1024MOL0     H41294   0.504   2.011   3.046 -2.7755  0.7318  1.8884
 1024MOL0     H41295   0.448   2.247   3.104 -2.5580 -0.5926 -0.5366
 1024MOL0     H41296   1.630   3.182   3.834 -0.7158  1.9998  1.1094
 1024MOL0     H41297   1.801   3.299   3.961 -3.5371 -0.8409  0.2107
 1024MOL0     H41298   2.078   3.457   4.101  1.8263  0.8416 -0.4174
 1024MOL0     H41299   2.162   3.560   4.314  0.7830  1.0798 -0.8828
 1024MOL0     H41300   2.259   3.895   4.526  0.2802 -0.4018  0.2820
 1024MOL0     H41301   2.248   3.978   4.373 -1.7965  2.7649  1.6917
 1024MOL0     H41302   2.010   3.965   4.365  0.8061 -0.7336  0.3461
 1024MOL0     H41303   2.074   4.055   4.488  1.1140 -0.0068 -1.8497
 1024MOL0     H41304   2.004   3.883   4.660  1.2520  0.6957 -1.1654
 1024MOL0     H41305   1.872   3.925   4.562  0.5408 -0.1876  4.7022
 1024MOL0     H41306   2.039   3.674   4.516 -0.6041 -1.3220  0.6675
 1024MOL0     H41307   1.904   3.694   4.429  2.9469 -0.7386 -0.4338
 1024MOL0     H41308   1.704   3.566   4.788 -1.7416 -1.5494 -2.4600
 1024MOL0     H41309   2.131   3.933   4.165 -3.2261  0.1049 -1.1932
 1024MOL0     H41310   2.061   3.990   3.955  1.2805 -0.0922  0.7066
 1024MOL0     H41311   2.084   3.855   3.832  1.4235 -1.7388  2.2128
 1024MOL0     H41312   1.927   3.899   3.884  0.8456  1.0927 -1.9647
  11.54400  11.54400  11.54400
